{
	 "smiles": "COC1=C(OC(C)=O)C2=C(C=C(C)C=C2)C(OC(C)=O)=C1OC", 
	 "Tm": 343.65, 
	 "num_atms": 41, 
	 "gaussian": { 
		 "optdone": 1, 
		 "sigma_profile": "yes", 
		 "theory": "DFT", 
		 "functional": "B3LYP", 
		 "basiset": "6-31G**", 
		 "properties": { 
			 "R2extent": 7569.7392, 
			 "electric_dipole_moment_norm": 2.33631295207, 
			 "electric_quadrupole_moment_norm": 24.0929812032, 
			 "total_energy": -1109.99614187, 
			 "HOMO_LUMO_gap": 0.16679, 
			 "cosmo_polarized_energy": -17.14, 
			 "cosmo_cavitation_energy": 44.92, 
			 "cosmo_dispersion_energy": -29.94, 
			 "cosmo_repulsion_energy": 2.3, 
			 "cosmo_total_nonelectrostatic_energy": 17.28, 
			 "SMD_solvation_energy": 10.99 
		},
		"coords": [
			{
				"x": -3.3196493916,
				"y": -1.3119031518,
				"z": 1.1266638645,
				"element": "C" 
			},
			{
				"x": -2.9288590756,
				"y": 0.0075791161,
				"z": 0.7229042276,
				"element": "O" 
			},
			{
				"x": -1.6345477487,
				"y": 0.1373567242,
				"z": 0.2845997466,
				"element": "C" 
			},
			{
				"x": -1.2083216534,
				"y": -0.4296496017,
				"z": -0.9021205499,
				"element": "C" 
			},
			{
				"x": -2.1040801053,
				"y": -1.2087208299,
				"z": -1.6385994199,
				"element": "O" 
			},
			{
				"x": -2.9716701261,
				"y": -0.5437248733,
				"z": -2.4859288737,
				"element": "C" 
			},
			{
				"x": -3.9123899488,
				"y": -1.5331933511,
				"z": -3.1266087939,
				"element": "C" 
			},
			{
				"x": -2.9524460491,
				"y": 0.6447463022,
				"z": -2.6625677272,
				"element": "O" 
			},
			{
				"x": 0.1132902198,
				"y": -0.2673587964,
				"z": -1.3852969605,
				"element": "C" 
			},
			{
				"x": 1.0245577953,
				"y": 0.5294569083,
				"z": -0.6245113985,
				"element": "C" 
			},
			{
				"x": 2.3516964887,
				"y": 0.7053692588,
				"z": -1.1005675222,
				"element": "C" 
			},
			{
				"x": 2.7821041885,
				"y": 0.1208217267,
				"z": -2.2733368566,
				"element": "C" 
			},
			{
				"x": 4.1920992785,
				"y": 0.3083374295,
				"z": -2.7778645947,
				"element": "C" 
			},
			{
				"x": 1.8652133089,
				"y": -0.6745978346,
				"z": -3.0162458764,
				"element": "C" 
			},
			{
				"x": 0.5730079289,
				"y": -0.8636826065,
				"z": -2.58944254,
				"element": "C" 
			},
			{
				"x": 0.5615139573,
				"y": 1.1207678728,
				"z": 0.5776759138,
				"element": "C" 
			},
			{
				"x": 1.4333831021,
				"y": 1.9617093981,
				"z": 1.2638818689,
				"element": "O" 
			},
			{
				"x": 1.8156573907,
				"y": 1.6231317048,
				"z": 2.537470631,
				"element": "C" 
			},
			{
				"x": 2.6346278092,
				"y": 2.7394007517,
				"z": 3.1342338777,
				"element": "C" 
			},
			{
				"x": 1.5292261567,
				"y": 0.5839924552,
				"z": 3.078256453,
				"element": "O" 
			},
			{
				"x": -0.7327854407,
				"y": 0.9489017213,
				"z": 1.0388711143,
				"element": "C" 
			},
			{
				"x": -1.1148285412,
				"y": 1.6428543824,
				"z": 2.147595024,
				"element": "O" 
			},
			{
				"x": -1.6468526315,
				"y": 0.9058616998,
				"z": 3.2561983383,
				"element": "C" 
			},
			{
				"x": -2.7206163462,
				"y": -1.6552442428,
				"z": 1.9788741843,
				"element": "H" 
			},
			{
				"x": -4.3662439096,
				"y": -1.2359340277,
				"z": 1.4285429344,
				"element": "H" 
			},
			{
				"x": -3.2237386911,
				"y": -2.0283797891,
				"z": 0.3064273814,
				"element": "H" 
			},
			{
				"x": -4.4918468595,
				"y": -1.0300763734,
				"z": -3.8998854552,
				"element": "H" 
			},
			{
				"x": -4.5907297227,
				"y": -1.9386561392,
				"z": -2.3690441274,
				"element": "H" 
			},
			{
				"x": -3.3570010027,
				"y": -2.3729985744,
				"z": -3.5523556956,
				"element": "H" 
			},
			{
				"x": 3.0296221985,
				"y": 1.3208997209,
				"z": -0.5190217936,
				"element": "H" 
			},
			{
				"x": 4.7108827107,
				"y": -0.6529049378,
				"z": -2.8744875946,
				"element": "H" 
			},
			{
				"x": 4.7777460263,
				"y": 0.9395848221,
				"z": -2.1043482998,
				"element": "H" 
			},
			{
				"x": 4.1999693495,
				"y": 0.776391269,
				"z": -3.7694323055,
				"element": "H" 
			},
			{
				"x": 2.1989904972,
				"y": -1.1408005978,
				"z": -3.9400106936,
				"element": "H" 
			},
			{
				"x": -0.111089618,
				"y": -1.4792980183,
				"z": -3.1629509779,
				"element": "H" 
			},
			{
				"x": 1.9922825725,
				"y": 3.6110053424,
				"z": 3.2947468086,
				"element": "H" 
			},
			{
				"x": 3.0553977269,
				"y": 2.4128763983,
				"z": 4.0846313257,
				"element": "H" 
			},
			{
				"x": 3.4306969207,
				"y": 3.0423172767,
				"z": 2.4490256078,
				"element": "H" 
			},
			{
				"x": -1.0179301682,
				"y": 0.0384629964,
				"z": 3.4785842482,
				"element": "H" 
			},
			{
				"x": -2.6783522139,
				"y": 0.6012324325,
				"z": 3.0671616324,
				"element": "H" 
			},
			{
				"x": -1.620486383,
				"y": 1.5908660357,
				"z": 4.1061828743,
				"element": "H" 
			}
		],
		 "valence_orbital": [ 
			{
				"type": "occ",
				"energy": -0.27595,
				"method": "rhf"
			},
			{
				"type": "occ",
				"energy": -0.27498,
				"method": "rhf"
			},
			{
				"type": "occ",
				"energy": -0.26656,
				"method": "rhf"
			},
			{
				"type": "occ",
				"energy": -0.22543,
				"method": "rhf"
			},
			{
				"type": "occ",
				"energy": -0.20458,
				"method": "rhf"
			},
			{
				"type": "unocc",
				"energy": -0.03779,
				"method": "rhf"
			},
			{
				"type": "unocc",
				"energy": -0.0084,
				"method": "rhf"
			},
			{
				"type": "unocc",
				"energy": 0.00584,
				"method": "rhf"
			},
			{
				"type": "unocc",
				"energy": 0.00821,
				"method": "rhf"
			},
			{
				"type": "unocc",
				"energy": 0.03785,
				"method": "rhf"
			}
		],
		"cosmo_sigma_profile": { 
			"-0.025": 0.0,
			"-0.024": 0.0,
			"-0.023": 0.0,
			"-0.022": 0.0,
			"-0.021": 0.0,
			"-0.02": 0.0,
			"-0.019": 0.0,
			"-0.018": 0.0,
			"-0.017": 0.0,
			"-0.016": 0.0,
			"-0.015": 0.0,
			"-0.014": 0.0,
			"-0.013": 0.0,
			"-0.012": 0.0,
			"-0.011": 0.0,
			"-0.01": 0.0,
			"-0.009": 0.0,
			"-0.008": 0.0,
			"-0.007": 4.21104978785,
			"-0.006": 17.708796234,
			"-0.005": 29.6880022821,
			"-0.004": 42.3534723913,
			"-0.003": 47.0138066984,
			"-0.002": 35.9318875438,
			"-0.001": 22.3972862822,
			"0.0": 19.1342164896,
			"0.001": 20.2195735282,
			"0.002": 18.5361970225,
			"0.003": 18.6196993722,
			"0.004": 18.9733929403,
			"0.005": 12.4997896915,
			"0.006": 6.39044767714,
			"0.007": 8.72139123677,
			"0.008": 7.28490520368,
			"0.009": 6.3991698448,
			"0.01": 7.65205285058,
			"0.011": 9.56644832346,
			"0.012": 3.04916556851,
			"0.013": 0.165346461036,
			"0.014": 0.0,
			"0.015": 0.0,
			"0.016": 0.0,
			"0.017": 0.0,
			"0.018": 0.0,
			"0.019": 0.0,
			"0.02": 0.0,
			"0.021": 0.0,
			"0.022": 0.0,
			"0.023": 0.0,
			"0.024": 0.0,
			"0.025": 0.0
		}
	}
}
