{
	 "smiles": "NC1=C(C=C(Cl)N=C1)C(O)=O", 
	 "Tm": 563.15, 
	 "num_atms": 16, 
	 "gaussian": { 
		 "optdone": 1, 
		 "sigma_profile": "yes", 
		 "theory": "DFT", 
		 "functional": "B3LYP", 
		 "basiset": "6-31G**", 
		 "properties": { 
			 "R2extent": 2311.5826, 
			 "electric_dipole_moment_norm": 3.75305088828, 
			 "electric_quadrupole_moment_norm": 14.9350200609, 
			 "total_energy": -951.815348729, 
			 "HOMO_LUMO_gap": 0.1486, 
			 "cosmo_polarized_energy": -13.1, 
			 "cosmo_cavitation_energy": 22.61, 
			 "cosmo_dispersion_energy": -17.39, 
			 "cosmo_repulsion_energy": 1.4, 
			 "cosmo_total_nonelectrostatic_energy": 6.62, 
			 "SMD_solvation_energy": 3.39 
		},
		"coords": [
			{
				"x": 1.8918339717,
				"y": -0.2410083511,
				"z": -1.5635285743,
				"element": "N" 
			},
			{
				"x": 0.6906240974,
				"y": -0.6020021505,
				"z": -1.0425101888,
				"element": "C" 
			},
			{
				"x": 0.2166067338,
				"y": -0.1434425933,
				"z": 0.2171638348,
				"element": "C" 
			},
			{
				"x": -1.0522894096,
				"y": -0.5563503243,
				"z": 0.6531617009,
				"element": "C" 
			},
			{
				"x": -1.793787436,
				"y": -1.3997269239,
				"z": -0.1590525344,
				"element": "C" 
			},
			{
				"x": -3.38986581,
				"y": -1.9293928265,
				"z": 0.3703259859,
				"element": "Cl" 
			},
			{
				"x": -1.3707167278,
				"y": -1.8471991382,
				"z": -1.3366501618,
				"element": "N" 
			},
			{
				"x": -0.1770781377,
				"y": -1.4641976348,
				"z": -1.7621083372,
				"element": "C" 
			},
			{
				"x": 1.052761814,
				"y": 0.7401352956,
				"z": 1.0513596675,
				"element": "C" 
			},
			{
				"x": 0.4660486486,
				"y": 1.1026828047,
				"z": 2.2132400811,
				"element": "O" 
			},
			{
				"x": 2.1770782214,
				"y": 1.1292255558,
				"z": 0.7596494119,
				"element": "O" 
			},
			{
				"x": 2.2226330621,
				"y": -0.6767982182,
				"z": -2.4080334397,
				"element": "H" 
			},
			{
				"x": 2.516154126,
				"y": 0.3121614558,
				"z": -0.992014512,
				"element": "H" 
			},
			{
				"x": -1.4342268878,
				"y": -0.2198235158,
				"z": 1.6078150575,
				"element": "H" 
			},
			{
				"x": 0.1411763575,
				"y": -1.8463790859,
				"z": -2.7316926788,
				"element": "H" 
			},
			{
				"x": 1.1058473763,
				"y": 1.6727156506,
				"z": 2.6705746875,
				"element": "H" 
			}
		],
		 "valence_orbital": [ 
			{
				"type": "occ",
				"energy": -0.31093,
				"method": "rhf"
			},
			{
				"type": "occ",
				"energy": -0.29999,
				"method": "rhf"
			},
			{
				"type": "occ",
				"energy": -0.29519,
				"method": "rhf"
			},
			{
				"type": "occ",
				"energy": -0.27541,
				"method": "rhf"
			},
			{
				"type": "occ",
				"energy": -0.21991,
				"method": "rhf"
			},
			{
				"type": "unocc",
				"energy": -0.07131,
				"method": "rhf"
			},
			{
				"type": "unocc",
				"energy": -0.00959,
				"method": "rhf"
			},
			{
				"type": "unocc",
				"energy": 0.03641,
				"method": "rhf"
			},
			{
				"type": "unocc",
				"energy": 0.03995,
				"method": "rhf"
			},
			{
				"type": "unocc",
				"energy": 0.06693,
				"method": "rhf"
			}
		],
		"cosmo_sigma_profile": { 
			"-0.025": 0.0,
			"-0.024": 0.0,
			"-0.023": 0.0,
			"-0.022": 0.0,
			"-0.021": 0.0,
			"-0.02": 0.0,
			"-0.019": 0.320258041188,
			"-0.018": 0.834316263536,
			"-0.017": 1.13480410817,
			"-0.016": 0.857210025107,
			"-0.015": 0.842078930985,
			"-0.014": 1.94427606497,
			"-0.013": 2.14174830516,
			"-0.012": 2.40844637438,
			"-0.011": 3.04651721392,
			"-0.01": 2.60480505633,
			"-0.009": 2.7336260199,
			"-0.008": 3.95624853719,
			"-0.007": 4.43527006438,
			"-0.006": 4.28816591622,
			"-0.005": 3.52128465798,
			"-0.004": 5.48402402998,
			"-0.003": 7.54531355933,
			"-0.002": 9.06976854397,
			"-0.001": 14.0875206531,
			"0.0": 20.9760886547,
			"0.001": 17.6936274463,
			"0.002": 11.3025042047,
			"0.003": 10.2728711785,
			"0.004": 12.9796652548,
			"0.005": 11.7973646922,
			"0.006": 7.78548376684,
			"0.007": 3.83779224228,
			"0.008": 3.82870950974,
			"0.009": 2.85819243178,
			"0.01": 2.84166870301,
			"0.011": 3.2082882519,
			"0.012": 1.29845420071,
			"0.013": 1.00290808381,
			"0.014": 0.539451171395,
			"0.015": 0.156886638713,
			"0.016": 0.0,
			"0.017": 0.0,
			"0.018": 0.0,
			"0.019": 0.0,
			"0.02": 0.0,
			"0.021": 0.0,
			"0.022": 0.0,
			"0.023": 0.0,
			"0.024": 0.0,
			"0.025": 0.0
		}
	}
}
