{
	 "smiles": "CC1=CN=NC2=C1C1=NON=C1CC2", 
	 "Tm": 429.15, 
	 "num_atms": 22, 
	 "gaussian": { 
		 "optdone": 1, 
		 "sigma_profile": "yes", 
		 "theory": "DFT", 
		 "functional": "B3LYP", 
		 "basiset": "6-31G**", 
		 "properties": { 
			 "R2extent": 2733.7784, 
			 "electric_dipole_moment_norm": 0.497816050364, 
			 "electric_quadrupole_moment_norm": 22.8818031728, 
			 "total_energy": -641.899743877, 
			 "HOMO_LUMO_gap": 0.157, 
			 "cosmo_polarized_energy": -13.52, 
			 "cosmo_cavitation_energy": 25.75, 
			 "cosmo_dispersion_energy": -19.47, 
			 "cosmo_repulsion_energy": 1.5, 
			 "cosmo_total_nonelectrostatic_energy": 7.78, 
			 "SMD_solvation_energy": 1.87 
		},
		"coords": [
			{
				"x": -1.1532112639,
				"y": -1.1476444002,
				"z": -1.2574424165,
				"element": "C" 
			},
			{
				"x": 0.2020335571,
				"y": -0.7292937576,
				"z": -0.7631131947,
				"element": "C" 
			},
			{
				"x": 1.3775115709,
				"y": -1.1877915037,
				"z": -1.3796550008,
				"element": "C" 
			},
			{
				"x": 2.6147377919,
				"y": -0.8750131354,
				"z": -0.997785846,
				"element": "N" 
			},
			{
				"x": 2.7950452252,
				"y": -0.0487128553,
				"z": 0.0353175273,
				"element": "N" 
			},
			{
				"x": 1.7359030114,
				"y": 0.4466560186,
				"z": 0.6789240334,
				"element": "C" 
			},
			{
				"x": 0.4023584943,
				"y": 0.1237942073,
				"z": 0.3249916789,
				"element": "C" 
			},
			{
				"x": -0.6430129366,
				"y": 0.698890073,
				"z": 1.1673597148,
				"element": "C" 
			},
			{
				"x": -1.9371749688,
				"y": 0.7592398837,
				"z": 0.9608813035,
				"element": "N" 
			},
			{
				"x": -2.4478460924,
				"y": 1.3958058096,
				"z": 2.0638432185,
				"element": "O" 
			},
			{
				"x": -1.4534522036,
				"y": 1.7315939288,
				"z": 2.9678007134,
				"element": "N" 
			},
			{
				"x": -0.3457004181,
				"y": 1.3091180374,
				"z": 2.4281490554,
				"element": "C" 
			},
			{
				"x": 1.046945257,
				"y": 1.3722484761,
				"z": 2.9712306221,
				"element": "C" 
			},
			{
				"x": 2.0373600378,
				"y": 1.438542849,
				"z": 1.7890263995,
				"element": "C" 
			},
			{
				"x": -1.7210848517,
				"y": -0.2858257433,
				"z": -1.622596409,
				"element": "H" 
			},
			{
				"x": -1.7509963277,
				"y": -1.5853359615,
				"z": -0.4514035216,
				"element": "H" 
			},
			{
				"x": -1.0632785056,
				"y": -1.8761559304,
				"z": -2.0668151274,
				"element": "H" 
			},
			{
				"x": 1.3164310722,
				"y": -1.8602280049,
				"z": -2.2328001923,
				"element": "H" 
			},
			{
				"x": 1.2338580407,
				"y": 0.468277658,
				"z": 3.565655002,
				"element": "H" 
			},
			{
				"x": 1.1706013546,
				"y": 2.2276652429,
				"z": 3.6397649641,
				"element": "H" 
			},
			{
				"x": 2.0046940773,
				"y": 2.4477703461,
				"z": 1.3554317813,
				"element": "H" 
			},
			{
				"x": 3.063578078,
				"y": 1.2737987617,
				"z": 2.123435694,
				"element": "H" 
			}
		],
		 "valence_orbital": [ 
			{
				"type": "occ",
				"energy": -0.3173,
				"method": "rhf"
			},
			{
				"type": "occ",
				"energy": -0.31226,
				"method": "rhf"
			},
			{
				"type": "occ",
				"energy": -0.29287,
				"method": "rhf"
			},
			{
				"type": "occ",
				"energy": -0.27816,
				"method": "rhf"
			},
			{
				"type": "occ",
				"energy": -0.24134,
				"method": "rhf"
			},
			{
				"type": "unocc",
				"energy": -0.08434,
				"method": "rhf"
			},
			{
				"type": "unocc",
				"energy": -0.0394,
				"method": "rhf"
			},
			{
				"type": "unocc",
				"energy": -0.03845,
				"method": "rhf"
			},
			{
				"type": "unocc",
				"energy": 0.04172,
				"method": "rhf"
			},
			{
				"type": "unocc",
				"energy": 0.07789,
				"method": "rhf"
			}
		],
		"cosmo_sigma_profile": { 
			"-0.025": 0.0,
			"-0.024": 0.0,
			"-0.023": 0.0,
			"-0.022": 0.0,
			"-0.021": 0.0,
			"-0.02": 0.0,
			"-0.019": 0.0,
			"-0.018": 0.0,
			"-0.017": 0.0,
			"-0.016": 0.0,
			"-0.015": 0.0,
			"-0.014": 0.0,
			"-0.013": 0.0,
			"-0.012": 0.0,
			"-0.011": 0.0,
			"-0.01": 0.0,
			"-0.009": 0.0,
			"-0.008": 2.16311706801,
			"-0.007": 11.3221144643,
			"-0.006": 15.607066402,
			"-0.005": 18.7721670628,
			"-0.004": 21.5987384215,
			"-0.003": 20.7614294896,
			"-0.002": 21.7630897225,
			"-0.001": 12.6350710497,
			"0.0": 7.86647959366,
			"0.001": 6.38893725761,
			"0.002": 5.44872781791,
			"0.003": 5.17399496724,
			"0.004": 6.00608179289,
			"0.005": 11.0002408199,
			"0.006": 8.56283378215,
			"0.007": 5.59840338457,
			"0.008": 4.26072074286,
			"0.009": 3.90057432123,
			"0.01": 3.43471556357,
			"0.011": 3.15116515279,
			"0.012": 2.87931467604,
			"0.013": 2.96848960673,
			"0.014": 2.08453718532,
			"0.015": 2.04756333417,
			"0.016": 0.839692313085,
			"0.017": 0.0,
			"0.018": 0.0,
			"0.019": 0.0,
			"0.02": 0.0,
			"0.021": 0.0,
			"0.022": 0.0,
			"0.023": 0.0,
			"0.024": 0.0,
			"0.025": 0.0
		}
	}
}
