{
	 "smiles": "O=C1OC2=C(C=C3CCCN4CCCC2=C34)C2=C1CCC2", 
	 "Tm": 422.15, 
	 "num_atms": 40, 
	 "gaussian": { 
		 "optdone": 1, 
		 "sigma_profile": "yes", 
		 "theory": "DFT", 
		 "functional": "B3LYP", 
		 "basiset": "6-31G**", 
		 "properties": { 
			 "R2extent": 6986.6503, 
			 "electric_dipole_moment_norm": 6.16865942892, 
			 "electric_quadrupole_moment_norm": 21.4115206961, 
			 "total_energy": -902.60881899, 
			 "HOMO_LUMO_gap": 0.14361, 
			 "cosmo_polarized_energy": -12.87, 
			 "cosmo_cavitation_energy": 39.23, 
			 "cosmo_dispersion_energy": -29.35, 
			 "cosmo_repulsion_energy": 2.23, 
			 "cosmo_total_nonelectrostatic_energy": 12.11, 
			 "SMD_solvation_energy": 4.78 
		},
		"coords": [
			{
				"x": 1.7659413555,
				"y": 1.7680666687,
				"z": 3.8605479732,
				"element": "O" 
			},
			{
				"x": 1.5785267621,
				"y": 0.9188916018,
				"z": 3.0165825949,
				"element": "C" 
			},
			{
				"x": 0.4019824327,
				"y": 1.0087031564,
				"z": 2.2560064497,
				"element": "O" 
			},
			{
				"x": 0.0760893496,
				"y": 0.1283962413,
				"z": 1.2590709501,
				"element": "C" 
			},
			{
				"x": 0.9243651201,
				"y": -0.950879256,
				"z": 0.9348463462,
				"element": "C" 
			},
			{
				"x": 0.5178373778,
				"y": -1.7989543528,
				"z": -0.1093431097,
				"element": "C" 
			},
			{
				"x": -0.6586442249,
				"y": -1.5982662584,
				"z": -0.8105553236,
				"element": "C" 
			},
			{
				"x": -1.0267344681,
				"y": -2.519693087,
				"z": -1.9571983798,
				"element": "C" 
			},
			{
				"x": -2.5317208886,
				"y": -2.5021192453,
				"z": -2.2281815978,
				"element": "C" 
			},
			{
				"x": -3.0090654599,
				"y": -1.0569152003,
				"z": -2.3371088075,
				"element": "C" 
			},
			{
				"x": -2.7189084477,
				"y": -0.3169075904,
				"z": -1.1147158523,
				"element": "N" 
			},
			{
				"x": -3.4394786567,
				"y": 0.9402130014,
				"z": -0.944972831,
				"element": "C" 
			},
			{
				"x": -3.4327190015,
				"y": 1.3726844536,
				"z": 0.5181129662,
				"element": "C" 
			},
			{
				"x": -1.9936741474,
				"y": 1.5392965375,
				"z": 1.0086510944,
				"element": "C" 
			},
			{
				"x": -1.1300823856,
				"y": 0.3657122965,
				"z": 0.5959153803,
				"element": "C" 
			},
			{
				"x": -1.5078472727,
				"y": -0.5060214787,
				"z": -0.4545387542,
				"element": "C" 
			},
			{
				"x": 2.1254556561,
				"y": -1.0865167375,
				"z": 1.7054960363,
				"element": "C" 
			},
			{
				"x": 2.4331134363,
				"y": -0.2010865804,
				"z": 2.6932716056,
				"element": "C" 
			},
			{
				"x": 3.7525288466,
				"y": -0.5033116224,
				"z": 3.3556412384,
				"element": "C" 
			},
			{
				"x": 4.0591739682,
				"y": -1.939630717,
				"z": 2.8512379388,
				"element": "C" 
			},
			{
				"x": 3.214710626,
				"y": -2.1249510324,
				"z": 1.5604664443,
				"element": "C" 
			},
			{
				"x": 1.1539697437,
				"y": -2.6369332331,
				"z": -0.3833913343,
				"element": "H" 
			},
			{
				"x": -0.6839699282,
				"y": -3.5376556747,
				"z": -1.7404485794,
				"element": "H" 
			},
			{
				"x": -0.4970218744,
				"y": -2.2063167531,
				"z": -2.8687481853,
				"element": "H" 
			},
			{
				"x": -3.0700367791,
				"y": -2.9953776735,
				"z": -1.4104685817,
				"element": "H" 
			},
			{
				"x": -2.769121202,
				"y": -3.0399054657,
				"z": -3.1520402577,
				"element": "H" 
			},
			{
				"x": -2.5430848928,
				"y": -0.5754119841,
				"z": -3.2158465287,
				"element": "H" 
			},
			{
				"x": -4.0928137758,
				"y": -1.0232474179,
				"z": -2.4953771352,
				"element": "H" 
			},
			{
				"x": -3.0027457479,
				"y": 1.735755869,
				"z": -1.5747460162,
				"element": "H" 
			},
			{
				"x": -4.4658939671,
				"y": 0.7841215251,
				"z": -1.2946667005,
				"element": "H" 
			},
			{
				"x": -3.9898616978,
				"y": 2.3085479324,
				"z": 0.6305310899,
				"element": "H" 
			},
			{
				"x": -3.9486429199,
				"y": 0.6100989882,
				"z": 1.1131293941,
				"element": "H" 
			},
			{
				"x": -1.9643484752,
				"y": 1.6524102491,
				"z": 2.09611866,
				"element": "H" 
			},
			{
				"x": -1.5675049071,
				"y": 2.4685267279,
				"z": 0.605009031,
				"element": "H" 
			},
			{
				"x": 3.7012069942,
				"y": -0.4351699884,
				"z": 4.4468895045,
				"element": "H" 
			},
			{
				"x": 4.5195175482,
				"y": 0.2163156104,
				"z": 3.0371559358,
				"element": "H" 
			},
			{
				"x": 3.7299959543,
				"y": -2.6653279747,
				"z": 3.6023123639,
				"element": "H" 
			},
			{
				"x": 5.1254528253,
				"y": -2.1108062251,
				"z": 2.6809831946,
				"element": "H" 
			},
			{
				"x": 2.8221814797,
				"y": -3.1424128163,
				"z": 1.4538866261,
				"element": "H" 
			},
			{
				"x": 3.8023716443,
				"y": -1.9208224941,
				"z": 0.6540851566,
				"element": "H" 
			}
		],
		 "valence_orbital": [ 
			{
				"type": "occ",
				"energy": -0.29818,
				"method": "rhf"
			},
			{
				"type": "occ",
				"energy": -0.25508,
				"method": "rhf"
			},
			{
				"type": "occ",
				"energy": -0.24703,
				"method": "rhf"
			},
			{
				"type": "occ",
				"energy": -0.22203,
				"method": "rhf"
			},
			{
				"type": "occ",
				"energy": -0.18484,
				"method": "rhf"
			},
			{
				"type": "unocc",
				"energy": -0.04123,
				"method": "rhf"
			},
			{
				"type": "unocc",
				"energy": 0.00297,
				"method": "rhf"
			},
			{
				"type": "unocc",
				"energy": 0.02326,
				"method": "rhf"
			},
			{
				"type": "unocc",
				"energy": 0.07648,
				"method": "rhf"
			},
			{
				"type": "unocc",
				"energy": 0.09117,
				"method": "rhf"
			}
		],
		"cosmo_sigma_profile": { 
			"-0.025": 0.0,
			"-0.024": 0.0,
			"-0.023": 0.0,
			"-0.022": 0.0,
			"-0.021": 0.0,
			"-0.02": 0.0,
			"-0.019": 0.0,
			"-0.018": 0.0,
			"-0.017": 0.0,
			"-0.016": 0.0,
			"-0.015": 0.0,
			"-0.014": 0.0,
			"-0.013": 0.0,
			"-0.012": 0.0,
			"-0.011": 0.0,
			"-0.01": 0.0,
			"-0.009": 0.0,
			"-0.008": 0.0,
			"-0.007": 0.0,
			"-0.006": 0.836218926011,
			"-0.005": 8.56186763098,
			"-0.004": 24.0878192633,
			"-0.003": 50.434658045,
			"-0.002": 56.8666690979,
			"-0.001": 43.4369843541,
			"0.0": 33.1142717162,
			"0.001": 18.049441795,
			"0.002": 14.0586168945,
			"0.003": 10.9282328959,
			"0.004": 12.1594064864,
			"0.005": 7.98931272357,
			"0.006": 2.94458887967,
			"0.007": 2.59620959415,
			"0.008": 2.16261377382,
			"0.009": 2.34840668729,
			"0.01": 1.88593938241,
			"0.011": 2.30393274405,
			"0.012": 3.89915459747,
			"0.013": 6.59824331611,
			"0.014": 2.32327136065,
			"0.015": 0.181507550639,
			"0.016": 0.0,
			"0.017": 0.0,
			"0.018": 0.0,
			"0.019": 0.0,
			"0.02": 0.0,
			"0.021": 0.0,
			"0.022": 0.0,
			"0.023": 0.0,
			"0.024": 0.0,
			"0.025": 0.0
		}
	}
}
