{
	 "smiles": "OC(=O)C=CC1=CC(=CC=C1)[N+]([O-])=O", 
	 "Tm": 476.15, 
	 "num_atms": 21, 
	 "gaussian": { 
		 "optdone": 1, 
		 "sigma_profile": "yes", 
		 "theory": "DFT", 
		 "functional": "B3LYP", 
		 "basiset": "6-31G**", 
		 "properties": { 
			 "R2extent": 3935.9283, 
			 "electric_dipole_moment_norm": 2.83356215919, 
			 "electric_quadrupole_moment_norm": 20.6648594338, 
			 "total_energy": -702.725427307, 
			 "HOMO_LUMO_gap": 0.16255, 
			 "cosmo_polarized_energy": -14.42, 
			 "cosmo_cavitation_energy": 27.69, 
			 "cosmo_dispersion_energy": -19.97, 
			 "cosmo_repulsion_energy": 1.57, 
			 "cosmo_total_nonelectrostatic_energy": 9.29, 
			 "SMD_solvation_energy": 8.42 
		},
		"coords": [
			{
				"x": -1.1808925044,
				"y": 3.7764894172,
				"z": 2.284134604,
				"element": "O" 
			},
			{
				"x": -1.7545577831,
				"y": 3.2019219159,
				"z": 1.1979192736,
				"element": "C" 
			},
			{
				"x": -2.7329633641,
				"y": 3.6702647665,
				"z": 0.6479176519,
				"element": "O" 
			},
			{
				"x": -1.0398837367,
				"y": 1.9708873311,
				"z": 0.7998658979,
				"element": "C" 
			},
			{
				"x": -1.4690510512,
				"y": 1.2658395458,
				"z": -0.2608644456,
				"element": "C" 
			},
			{
				"x": -0.8955859869,
				"y": 0.0316687865,
				"z": -0.8022636218,
				"element": "C" 
			},
			{
				"x": 0.231511577,
				"y": -0.5941834457,
				"z": -0.2429039625,
				"element": "C" 
			},
			{
				"x": 0.7141167862,
				"y": -1.762481202,
				"z": -0.8156432583,
				"element": "C" 
			},
			{
				"x": 0.1251759952,
				"y": -2.3521088321,
				"z": -1.9349764851,
				"element": "C" 
			},
			{
				"x": -0.9917052264,
				"y": -1.7334071532,
				"z": -2.4905349379,
				"element": "C" 
			},
			{
				"x": -1.4942741335,
				"y": -0.5584514266,
				"z": -1.931521157,
				"element": "C" 
			},
			{
				"x": 1.8984494094,
				"y": -2.4063859656,
				"z": -0.2152363364,
				"element": "N" 
			},
			{
				"x": 2.3077273426,
				"y": -3.4412782739,
				"z": -0.7382886554,
				"element": "O" 
			},
			{
				"x": 2.4022818654,
				"y": -1.8690950682,
				"z": 0.7695911311,
				"element": "O" 
			},
			{
				"x": -1.7058856863,
				"y": 4.5708692977,
				"z": 2.4775588496,
				"element": "H" 
			},
			{
				"x": -0.1805254839,
				"y": 1.6880112477,
				"z": 1.3986080837,
				"element": "H" 
			},
			{
				"x": -2.3437834557,
				"y": 1.6556902342,
				"z": -0.7788195862,
				"element": "H" 
			},
			{
				"x": 0.7390436626,
				"y": -0.1931889262,
				"z": 0.6249684419,
				"element": "H" 
			},
			{
				"x": 0.5432074247,
				"y": -3.2643350289,
				"z": -2.3410122554,
				"element": "H" 
			},
			{
				"x": -1.4715849397,
				"y": -2.1681430837,
				"z": -3.3613433804,
				"element": "H" 
			},
			{
				"x": -2.3662207112,
				"y": -0.0835841366,
				"z": -2.3724558517,
				"element": "H" 
			}
		],
		 "valence_orbital": [ 
			{
				"type": "occ",
				"energy": -0.31474,
				"method": "rhf"
			},
			{
				"type": "occ",
				"energy": -0.29891,
				"method": "rhf"
			},
			{
				"type": "occ",
				"energy": -0.2926,
				"method": "rhf"
			},
			{
				"type": "occ",
				"energy": -0.2836,
				"method": "rhf"
			},
			{
				"type": "occ",
				"energy": -0.25989,
				"method": "rhf"
			},
			{
				"type": "unocc",
				"energy": -0.09734,
				"method": "rhf"
			},
			{
				"type": "unocc",
				"energy": -0.08524,
				"method": "rhf"
			},
			{
				"type": "unocc",
				"energy": -0.01798,
				"method": "rhf"
			},
			{
				"type": "unocc",
				"energy": 0.00812,
				"method": "rhf"
			},
			{
				"type": "unocc",
				"energy": 0.07231,
				"method": "rhf"
			}
		],
		"cosmo_sigma_profile": { 
			"-0.025": 0.0,
			"-0.024": 0.0,
			"-0.023": 0.0,
			"-0.022": 0.0,
			"-0.021": 0.0,
			"-0.02": 0.0,
			"-0.019": 0.00229494030404,
			"-0.018": 0.628880521249,
			"-0.017": 1.32942281317,
			"-0.016": 0.366190137288,
			"-0.015": 0.887889881193,
			"-0.014": 0.962309153776,
			"-0.013": 0.429016035166,
			"-0.012": 0.455999282019,
			"-0.011": 1.01517195294,
			"-0.01": 2.00258574824,
			"-0.009": 2.73187371237,
			"-0.008": 7.98274552027,
			"-0.007": 10.5540965068,
			"-0.006": 11.894309313,
			"-0.005": 9.25901867893,
			"-0.004": 9.94047061316,
			"-0.003": 10.0771741819,
			"-0.002": 15.509112257,
			"-0.001": 19.2472234104,
			"0.0": 22.678534945,
			"0.001": 20.3373520015,
			"0.002": 11.1253430388,
			"0.003": 5.61255319562,
			"0.004": 4.58612815114,
			"0.005": 5.65904185867,
			"0.006": 6.55546732156,
			"0.007": 11.5490018757,
			"0.008": 9.29219872241,
			"0.009": 7.10957151908,
			"0.01": 4.10282334273,
			"0.011": 3.08885284476,
			"0.012": 5.09849856563,
			"0.013": 0.410331161243,
			"0.014": 0.0,
			"0.015": 0.0,
			"0.016": 0.0,
			"0.017": 0.0,
			"0.018": 0.0,
			"0.019": 0.0,
			"0.02": 0.0,
			"0.021": 0.0,
			"0.022": 0.0,
			"0.023": 0.0,
			"0.024": 0.0,
			"0.025": 0.0
		}
	}
}
