{
	 "smiles": "COC(=O)C1=CC=C(C=C1)C(Br)Br", 
	 "Tm": 316.65, 
	 "num_atms": 21, 
	 "gaussian": { 
		 "optdone": 1, 
		 "sigma_profile": "yes", 
		 "theory": "DFT", 
		 "functional": "B3LYP", 
		 "basiset": "6-31G**", 
		 "properties": { 
			 "R2extent": 9555.1272, 
			 "electric_dipole_moment_norm": 3.07359485944, 
			 "electric_quadrupole_moment_norm": 6.53484193229, 
			 "total_energy": -5641.04392813, 
			 "HOMO_LUMO_gap": 0.19151, 
			 "cosmo_polarized_energy": -9.67, 
			 "cosmo_cavitation_energy": 30.43, 
			 "cosmo_dispersion_energy": -22.55, 
			 "cosmo_repulsion_energy": 1.8, 
			 "cosmo_total_nonelectrostatic_energy": 9.68, 
			 "SMD_solvation_energy": 4.37 
		},
		"coords": [
			{
				"x": 0.2922698824,
				"y": 1.6224080291,
				"z": -3.5422442435,
				"element": "C" 
			},
			{
				"x": -0.4494323014,
				"y": 0.9629522114,
				"z": -2.5036543675,
				"element": "O" 
			},
			{
				"x": 0.2171626462,
				"y": 0.7926383388,
				"z": -1.3401431027,
				"element": "C" 
			},
			{
				"x": 1.3615579496,
				"y": 1.1634720846,
				"z": -1.1672233528,
				"element": "O" 
			},
			{
				"x": -0.6081102227,
				"y": 0.102612722,
				"z": -0.3066245903,
				"element": "C" 
			},
			{
				"x": -0.0239403217,
				"y": -0.1333273863,
				"z": 0.947700757,
				"element": "C" 
			},
			{
				"x": -0.7439740223,
				"y": -0.7710426768,
				"z": 1.9475492677,
				"element": "C" 
			},
			{
				"x": -2.0633890375,
				"y": -1.184765216,
				"z": 1.710430249,
				"element": "C" 
			},
			{
				"x": -2.6454349598,
				"y": -0.9490527865,
				"z": 0.4589038042,
				"element": "C" 
			},
			{
				"x": -1.9233605633,
				"y": -0.3085293615,
				"z": -0.5469239039,
				"element": "C" 
			},
			{
				"x": -2.8747057243,
				"y": -1.8757787656,
				"z": 2.7611177941,
				"element": "C" 
			},
			{
				"x": -2.0734235839,
				"y": -3.6028654952,
				"z": 3.299623779,
				"element": "Br" 
			},
			{
				"x": -3.1560257966,
				"y": -0.733103842,
				"z": 4.3514864672,
				"element": "Br" 
			},
			{
				"x": -0.3826150284,
				"y": 1.6766032799,
				"z": -4.3962322882,
				"element": "H" 
			},
			{
				"x": 0.5914077992,
				"y": 2.624118833,
				"z": -3.2239314447,
				"element": "H" 
			},
			{
				"x": 1.1888688188,
				"y": 1.0514374548,
				"z": -3.7958806715,
				"element": "H" 
			},
			{
				"x": 0.9968106586,
				"y": 0.19336149,
				"z": 1.1133962595,
				"element": "H" 
			},
			{
				"x": -0.2921594442,
				"y": -0.9533256124,
				"z": 2.9172472552,
				"element": "H" 
			},
			{
				"x": -3.6668462236,
				"y": -1.2668571801,
				"z": 0.2684047964,
				"element": "H" 
			},
			{
				"x": -2.3754502576,
				"y": -0.1269920928,
				"z": -1.5148358909,
				"element": "H" 
			},
			{
				"x": -3.8724102673,
				"y": -2.1255640285,
				"z": 2.4153334265,
				"element": "H" 
			}
		],
		 "valence_orbital": [ 
			{
				"type": "occ",
				"energy": -0.28843,
				"method": "rhf"
			},
			{
				"type": "occ",
				"energy": -0.2811,
				"method": "rhf"
			},
			{
				"type": "occ",
				"energy": -0.28018,
				"method": "rhf"
			},
			{
				"type": "occ",
				"energy": -0.27163,
				"method": "rhf"
			},
			{
				"type": "occ",
				"energy": -0.2612,
				"method": "rhf"
			},
			{
				"type": "unocc",
				"energy": -0.06969,
				"method": "rhf"
			},
			{
				"type": "unocc",
				"energy": -0.04251,
				"method": "rhf"
			},
			{
				"type": "unocc",
				"energy": -0.02171,
				"method": "rhf"
			},
			{
				"type": "unocc",
				"energy": 0.0031,
				"method": "rhf"
			},
			{
				"type": "unocc",
				"energy": 0.06637,
				"method": "rhf"
			}
		],
		"cosmo_sigma_profile": { 
			"-0.025": 0.0,
			"-0.024": 0.0,
			"-0.023": 0.0,
			"-0.022": 0.0,
			"-0.021": 0.0,
			"-0.02": 0.0,
			"-0.019": 0.0,
			"-0.018": 0.0,
			"-0.017": 0.0,
			"-0.016": 0.0,
			"-0.015": 0.0,
			"-0.014": 0.0,
			"-0.013": 0.0,
			"-0.012": 0.0,
			"-0.011": 1.97992764918,
			"-0.01": 2.68700930961,
			"-0.009": 1.90832964196,
			"-0.008": 2.93459120538,
			"-0.007": 5.65658434116,
			"-0.006": 12.2248778936,
			"-0.005": 15.5790943179,
			"-0.004": 16.0899000131,
			"-0.003": 20.1523525058,
			"-0.002": 15.8622251821,
			"-0.001": 14.3820709762,
			"0.0": 18.5529169915,
			"0.001": 19.2671176634,
			"0.002": 27.5163383255,
			"0.003": 21.0590759322,
			"0.004": 25.8771068224,
			"0.005": 12.7212064236,
			"0.006": 2.17445508011,
			"0.007": 0.903134292654,
			"0.008": 1.70955833225,
			"0.009": 1.56659657672,
			"0.01": 2.14635851478,
			"0.011": 3.30196057762,
			"0.012": 3.36753261979,
			"0.013": 0.0445054474416,
			"0.014": 0.0,
			"0.015": 0.0,
			"0.016": 0.0,
			"0.017": 0.0,
			"0.018": 0.0,
			"0.019": 0.0,
			"0.02": 0.0,
			"0.021": 0.0,
			"0.022": 0.0,
			"0.023": 0.0,
			"0.024": 0.0,
			"0.025": 0.0
		}
	}
}
