{
	 "smiles": "C1=CC=C(N=C1)C1=NC(=NC(=N1)C1=CC=CC=N1)C1=CC=CC=N1", 
	 "Tm": 523.15, 
	 "num_atms": 36, 
	 "gaussian": { 
		 "optdone": 1, 
		 "sigma_profile": "yes", 
		 "theory": "DFT", 
		 "functional": "B3LYP", 
		 "basiset": "6-31G**", 
		 "properties": { 
			 "R2extent": 9585.5481, 
			 "electric_dipole_moment_norm": 3.3013267545, 
			 "electric_quadrupole_moment_norm": 24.188089825, 
			 "total_energy": -1021.65082768, 
			 "HOMO_LUMO_gap": 0.1662, 
			 "cosmo_polarized_energy": -23.61, 
			 "cosmo_cavitation_energy": 42.64, 
			 "cosmo_dispersion_energy": -30.83, 
			 "cosmo_repulsion_energy": 2.3, 
			 "cosmo_total_nonelectrostatic_energy": 14.12, 
			 "SMD_solvation_energy": 0.77 
		},
		"coords": [
			{
				"x": 2.5683784931,
				"y": 4.0948455755,
				"z": -3.0283987557,
				"element": "C" 
			},
			{
				"x": 3.2772168262,
				"y": 2.896376225,
				"z": -2.9765097918,
				"element": "C" 
			},
			{
				"x": 2.6891618814,
				"y": 1.7956637111,
				"z": -2.3582675853,
				"element": "C" 
			},
			{
				"x": 1.4058901748,
				"y": 1.9362276072,
				"z": -1.8117183155,
				"element": "C" 
			},
			{
				"x": 0.7174669308,
				"y": 3.0885199097,
				"z": -1.8584444172,
				"element": "N" 
			},
			{
				"x": 1.2943405031,
				"y": 4.1331775087,
				"z": -2.4538257627,
				"element": "C" 
			},
			{
				"x": 0.7448655607,
				"y": 0.77434069,
				"z": -1.1403438035,
				"element": "C" 
			},
			{
				"x": 1.4270866661,
				"y": -0.3791102134,
				"z": -1.0905260791,
				"element": "N" 
			},
			{
				"x": 0.7980858231,
				"y": -1.3970195468,
				"z": -0.4788255621,
				"element": "C" 
			},
			{
				"x": -0.42296936,
				"y": -1.324447987,
				"z": 0.0609951114,
				"element": "N" 
			},
			{
				"x": -1.0171325771,
				"y": -0.1295373519,
				"z": -0.0427875608,
				"element": "C" 
			},
			{
				"x": -0.4771829102,
				"y": 0.9488968398,
				"z": -0.6322590017,
				"element": "N" 
			},
			{
				"x": -2.3855670824,
				"y": 0.0471101374,
				"z": 0.5318266008,
				"element": "C" 
			},
			{
				"x": -3.0214931272,
				"y": 1.2936665197,
				"z": 0.4306732426,
				"element": "C" 
			},
			{
				"x": -4.2962709394,
				"y": 1.4350777956,
				"z": 0.9734111167,
				"element": "C" 
			},
			{
				"x": -4.8878123903,
				"y": 0.3361419614,
				"z": 1.5935685599,
				"element": "C" 
			},
			{
				"x": -4.1691872074,
				"y": -0.8627187287,
				"z": 1.6414934342,
				"element": "C" 
			},
			{
				"x": -2.9486072549,
				"y": -1.0158858805,
				"z": 1.1274061626,
				"element": "N" 
			},
			{
				"x": 1.5317580344,
				"y": -2.6991705864,
				"z": -0.4054824701,
				"element": "C" 
			},
			{
				"x": 2.8138976169,
				"y": -2.8164686633,
				"z": -0.9616665059,
				"element": "C" 
			},
			{
				"x": 3.4702507968,
				"y": -4.041851337,
				"z": -0.8768287803,
				"element": "C" 
			},
			{
				"x": 2.8288851067,
				"y": -5.1041176074,
				"z": -0.2430792926,
				"element": "C" 
			},
			{
				"x": 1.5503082616,
				"y": -4.8855400504,
				"z": 0.2793433431,
				"element": "C" 
			},
			{
				"x": 0.9092616617,
				"y": -3.7190220954,
				"z": 0.2060339676,
				"element": "N" 
			},
			{
				"x": 2.9851902464,
				"y": 4.9794990536,
				"z": -3.499558647,
				"element": "H" 
			},
			{
				"x": 4.2704222824,
				"y": 2.8183514055,
				"z": -3.4092008732,
				"element": "H" 
			},
			{
				"x": 3.1952289214,
				"y": 0.8409583742,
				"z": -2.2898534552,
				"element": "H" 
			},
			{
				"x": 0.7111978075,
				"y": 5.0525701892,
				"z": -2.4754931423,
				"element": "H" 
			},
			{
				"x": -2.5099542013,
				"y": 2.1109010871,
				"z": -0.0634689089,
				"element": "H" 
			},
			{
				"x": -4.8168884392,
				"y": 2.3864479513,
				"z": 0.9124633549,
				"element": "H" 
			},
			{
				"x": -5.8795877609,
				"y": 0.3989233663,
				"z": 2.0307759921,
				"element": "H" 
			},
			{
				"x": -4.6003030631,
				"y": -1.7418221396,
				"z": 2.1181492868,
				"element": "H" 
			},
			{
				"x": 3.2671286168,
				"y": -1.9593030317,
				"z": -1.4432840326,
				"element": "H" 
			},
			{
				"x": 4.4640047562,
				"y": -4.1634729298,
				"z": -1.298199163,
				"element": "H" 
			},
			{
				"x": 3.3005114448,
				"y": -6.0777051403,
				"z": -0.1525608319,
				"element": "H" 
			},
			{
				"x": 1.0177179009,
				"y": -5.6917026185,
				"z": 0.7815425654,
				"element": "H" 
			}
		],
		 "valence_orbital": [ 
			{
				"type": "occ",
				"energy": -0.25713,
				"method": "rhf"
			},
			{
				"type": "occ",
				"energy": -0.25301,
				"method": "rhf"
			},
			{
				"type": "occ",
				"energy": -0.25157,
				"method": "rhf"
			},
			{
				"type": "occ",
				"energy": -0.24696,
				"method": "rhf"
			},
			{
				"type": "occ",
				"energy": -0.23953,
				"method": "rhf"
			},
			{
				"type": "unocc",
				"energy": -0.07333,
				"method": "rhf"
			},
			{
				"type": "unocc",
				"energy": -0.0723,
				"method": "rhf"
			},
			{
				"type": "unocc",
				"energy": -0.03043,
				"method": "rhf"
			},
			{
				"type": "unocc",
				"energy": -0.02232,
				"method": "rhf"
			},
			{
				"type": "unocc",
				"energy": -0.01916,
				"method": "rhf"
			}
		],
		"cosmo_sigma_profile": { 
			"-0.025": 0.0,
			"-0.024": 0.0,
			"-0.023": 0.0,
			"-0.022": 0.0,
			"-0.021": 0.0,
			"-0.02": 0.0,
			"-0.019": 0.0,
			"-0.018": 0.0,
			"-0.017": 0.0,
			"-0.016": 0.0,
			"-0.015": 0.0,
			"-0.014": 0.0,
			"-0.013": 0.0,
			"-0.012": 0.0,
			"-0.011": 0.0,
			"-0.01": 0.0,
			"-0.009": 0.0,
			"-0.008": 3.54374410465,
			"-0.007": 19.4108879815,
			"-0.006": 28.2160354861,
			"-0.005": 26.1188887656,
			"-0.004": 21.2211818659,
			"-0.003": 21.6269398074,
			"-0.002": 22.6221574437,
			"-0.001": 24.4404276697,
			"0.0": 31.2375463392,
			"0.001": 48.1714228836,
			"0.002": 36.2427055385,
			"0.003": 9.28348092272,
			"0.004": 7.12774409837,
			"0.005": 7.03747396622,
			"0.006": 3.48670826683,
			"0.007": 4.60300642025,
			"0.008": 3.21687194731,
			"0.009": 3.40134417032,
			"0.01": 2.6642570989,
			"0.011": 3.09066409671,
			"0.012": 2.7610069088,
			"0.013": 2.28708960888,
			"0.014": 1.87927317426,
			"0.015": 2.79968500966,
			"0.016": 3.02152819418,
			"0.017": 1.89798978492,
			"0.018": 0.6204455983,
			"0.019": 1.50143138704,
			"0.02": 1.35120767045,
			"0.021": 1.20777229814,
			"0.022": 0.141459976822,
			"0.023": 0.0,
			"0.024": 0.0,
			"0.025": 0.0
		}
	}
}
