{
	 "smiles": "BrC1=CC=C(C=C1)C1=CC=CS1", 
	 "Tm": 368.65, 
	 "num_atms": 19, 
	 "gaussian": { 
		 "optdone": 1, 
		 "sigma_profile": "yes", 
		 "theory": "DFT", 
		 "functional": "B3LYP", 
		 "basiset": "6-31G**", 
		 "properties": { 
			 "R2extent": 5269.5769, 
			 "electric_dipole_moment_norm": 2.12341695387, 
			 "electric_quadrupole_moment_norm": 7.28596171964, 
			 "total_energy": -3354.86532001, 
			 "HOMO_LUMO_gap": 0.16981, 
			 "cosmo_polarized_energy": -5.53, 
			 "cosmo_cavitation_energy": 27.07, 
			 "cosmo_dispersion_energy": -21.03, 
			 "cosmo_repulsion_energy": 1.6, 
			 "cosmo_total_nonelectrostatic_energy": 7.64, 
			 "SMD_solvation_energy": 3.33 
		},
		"coords": [
			{
				"x": 3.1136085858,
				"y": 2.8120249335,
				"z": 0.7381206123,
				"element": "Br" 
			},
			{
				"x": 1.6380946902,
				"y": 1.809531788,
				"z": 0.0542256621,
				"element": "C" 
			},
			{
				"x": 1.8329326716,
				"y": 0.4919935135,
				"z": -0.3583870217,
				"element": "C" 
			},
			{
				"x": 0.7557572543,
				"y": -0.2317968969,
				"z": -0.8620854201,
				"element": "C" 
			},
			{
				"x": -0.5292157096,
				"y": 0.3353389878,
				"z": -0.9496210409,
				"element": "C" 
			},
			{
				"x": -0.6917968446,
				"y": 1.6658885095,
				"z": -0.5241646323,
				"element": "C" 
			},
			{
				"x": 0.3805638541,
				"y": 2.4042309008,
				"z": -0.0295489464,
				"element": "C" 
			},
			{
				"x": -1.6539566476,
				"y": -0.4536732565,
				"z": -1.4659829741,
				"element": "C" 
			},
			{
				"x": -1.8239676004,
				"y": -1.8200474778,
				"z": -1.4424007271,
				"element": "C" 
			},
			{
				"x": -3.0425510087,
				"y": -2.2558087481,
				"z": -2.0380791858,
				"element": "C" 
			},
			{
				"x": -3.7990646628,
				"y": -1.2206253868,
				"z": -2.5147812094,
				"element": "C" 
			},
			{
				"x": -3.0269154587,
				"y": 0.3075948941,
				"z": -2.2482185977,
				"element": "S" 
			},
			{
				"x": 2.817286927,
				"y": 0.0416269297,
				"z": -0.2990770053,
				"element": "H" 
			},
			{
				"x": 0.9191644932,
				"y": -1.245915286,
				"z": -1.2123698275,
				"element": "H" 
			},
			{
				"x": -1.6742034775,
				"y": 2.1272844809,
				"z": -0.561359717,
				"element": "H" 
			},
			{
				"x": 0.2378602589,
				"y": 3.4280678161,
				"z": 0.2968529518,
				"element": "H" 
			},
			{
				"x": -1.1090689199,
				"y": -2.492895212,
				"z": -0.9826353572,
				"element": "H" 
			},
			{
				"x": -3.3454859837,
				"y": -3.2948146548,
				"z": -2.1002737732,
				"element": "H" 
			},
			{
				"x": -4.7599424216,
				"y": -1.260105835,
				"z": -3.0087137905,
				"element": "H" 
			}
		],
		 "valence_orbital": [ 
			{
				"type": "occ",
				"energy": -0.28768,
				"method": "rhf"
			},
			{
				"type": "occ",
				"energy": -0.26685,
				"method": "rhf"
			},
			{
				"type": "occ",
				"energy": -0.26514,
				"method": "rhf"
			},
			{
				"type": "occ",
				"energy": -0.25592,
				"method": "rhf"
			},
			{
				"type": "occ",
				"energy": -0.21574,
				"method": "rhf"
			},
			{
				"type": "unocc",
				"energy": -0.04593,
				"method": "rhf"
			},
			{
				"type": "unocc",
				"energy": -0.0178,
				"method": "rhf"
			},
			{
				"type": "unocc",
				"energy": 0.00577,
				"method": "rhf"
			},
			{
				"type": "unocc",
				"energy": 0.01333,
				"method": "rhf"
			},
			{
				"type": "unocc",
				"energy": 0.03038,
				"method": "rhf"
			}
		],
		"cosmo_sigma_profile": { 
			"-0.025": 0.0,
			"-0.024": 0.0,
			"-0.023": 0.0,
			"-0.022": 0.0,
			"-0.021": 0.0,
			"-0.02": 0.0,
			"-0.019": 0.0,
			"-0.018": 0.0,
			"-0.017": 0.0,
			"-0.016": 0.0,
			"-0.015": 0.0,
			"-0.014": 0.0,
			"-0.013": 0.0,
			"-0.012": 0.0,
			"-0.011": 0.0,
			"-0.01": 0.0,
			"-0.009": 0.433003882509,
			"-0.008": 2.33636220505,
			"-0.007": 9.44658944588,
			"-0.006": 13.3995071357,
			"-0.005": 13.1455547202,
			"-0.004": 12.724429202,
			"-0.003": 13.5182351037,
			"-0.002": 11.5945011142,
			"-0.001": 13.1434193249,
			"0.0": 14.7912935708,
			"0.001": 17.8336986702,
			"0.002": 24.9279049391,
			"0.003": 31.600651049,
			"0.004": 28.6433235425,
			"0.005": 15.233688913,
			"0.006": 0.938073733151,
			"0.007": 0.0,
			"0.008": 0.0,
			"0.009": 0.0,
			"0.01": 0.0,
			"0.011": 0.0,
			"0.012": 0.0,
			"0.013": 0.0,
			"0.014": 0.0,
			"0.015": 0.0,
			"0.016": 0.0,
			"0.017": 0.0,
			"0.018": 0.0,
			"0.019": 0.0,
			"0.02": 0.0,
			"0.021": 0.0,
			"0.022": 0.0,
			"0.023": 0.0,
			"0.024": 0.0,
			"0.025": 0.0
		}
	}
}
