{
	 "smiles": "N#CCC1=CC(CC#N)=CC=C1", 
	 "Tm": 306.65, 
	 "num_atms": 20, 
	 "gaussian": { 
		 "optdone": 1, 
		 "sigma_profile": "yes", 
		 "theory": "DFT", 
		 "functional": "B3LYP", 
		 "basiset": "6-31G**", 
		 "properties": { 
			 "R2extent": 2776.1532, 
			 "electric_dipole_moment_norm": 3.90566887869, 
			 "electric_quadrupole_moment_norm": 28.024251375, 
			 "total_energy": -495.353975154, 
			 "HOMO_LUMO_gap": 0.23533, 
			 "cosmo_polarized_energy": -16.9, 
			 "cosmo_cavitation_energy": 26.25, 
			 "cosmo_dispersion_energy": -17.95, 
			 "cosmo_repulsion_energy": 1.43, 
			 "cosmo_total_nonelectrostatic_energy": 9.74, 
			 "SMD_solvation_energy": 7.02 
		},
		"coords": [
			{
				"x": -3.1074181516,
				"y": 2.6037454582,
				"z": -2.5006812407,
				"element": "N" 
			},
			{
				"x": -2.7745770765,
				"y": 1.5226716942,
				"z": -2.2420195876,
				"element": "C" 
			},
			{
				"x": -2.3614485316,
				"y": 0.1583297848,
				"z": -1.9038248342,
				"element": "C" 
			},
			{
				"x": -1.2940394432,
				"y": 0.0713354414,
				"z": -0.8173643266,
				"element": "C" 
			},
			{
				"x": -0.5441882,
				"y": -1.1040061898,
				"z": -0.7092349101,
				"element": "C" 
			},
			{
				"x": 0.4198696246,
				"y": -1.255770381,
				"z": 0.2920600229,
				"element": "C" 
			},
			{
				"x": 1.1732183349,
				"y": -2.5789361676,
				"z": 0.3860888653,
				"element": "C" 
			},
			{
				"x": 2.4424833311,
				"y": -2.5046057433,
				"z": 1.1141919052,
				"element": "C" 
			},
			{
				"x": 3.4422905652,
				"y": -2.4452600816,
				"z": 1.7000944917,
				"element": "N" 
			},
			{
				"x": 0.6406257757,
				"y": -0.2083665459,
				"z": 1.1912941069,
				"element": "C" 
			},
			{
				"x": -0.0996952709,
				"y": 0.9686918555,
				"z": 1.0832859619,
				"element": "C" 
			},
			{
				"x": -1.0652975277,
				"y": 1.1123988532,
				"z": 0.0870206979,
				"element": "C" 
			},
			{
				"x": -3.2597493038,
				"y": -0.3932646786,
				"z": -1.5943525678,
				"element": "H" 
			},
			{
				"x": -2.0060866212,
				"y": -0.3266050911,
				"z": -2.8205464476,
				"element": "H" 
			},
			{
				"x": -0.7120685101,
				"y": -1.9131903099,
				"z": -1.4177780265,
				"element": "H" 
			},
			{
				"x": 1.3791558941,
				"y": -2.9673374903,
				"z": -0.6181328835,
				"element": "H" 
			},
			{
				"x": 0.5488397008,
				"y": -3.3334502864,
				"z": 0.8839657101,
				"element": "H" 
			},
			{
				"x": 1.397567314,
				"y": -0.3073981462,
				"z": 1.9632346677,
				"element": "H" 
			},
			{
				"x": 0.0809304719,
				"y": 1.7830853468,
				"z": 1.7782889416,
				"element": "H" 
			},
			{
				"x": -1.6296123754,
				"y": 2.0361326776,
				"z": 0.0040094537,
				"element": "H" 
			}
		],
		 "valence_orbital": [ 
			{
				"type": "occ",
				"energy": -0.33601,
				"method": "rhf"
			},
			{
				"type": "occ",
				"energy": -0.33338,
				"method": "rhf"
			},
			{
				"type": "occ",
				"energy": -0.33255,
				"method": "rhf"
			},
			{
				"type": "occ",
				"energy": -0.27037,
				"method": "rhf"
			},
			{
				"type": "occ",
				"energy": -0.26691,
				"method": "rhf"
			},
			{
				"type": "unocc",
				"energy": -0.03158,
				"method": "rhf"
			},
			{
				"type": "unocc",
				"energy": -0.02501,
				"method": "rhf"
			},
			{
				"type": "unocc",
				"energy": 0.0173,
				"method": "rhf"
			},
			{
				"type": "unocc",
				"energy": 0.02795,
				"method": "rhf"
			},
			{
				"type": "unocc",
				"energy": 0.03141,
				"method": "rhf"
			}
		],
		"cosmo_sigma_profile": { 
			"-0.025": 0.0,
			"-0.024": 0.0,
			"-0.023": 0.0,
			"-0.022": 0.0,
			"-0.021": 0.0,
			"-0.02": 0.0,
			"-0.019": 0.0,
			"-0.018": 0.0,
			"-0.017": 0.0,
			"-0.016": 0.0,
			"-0.015": 0.0,
			"-0.014": 0.0,
			"-0.013": 0.0,
			"-0.012": 0.0,
			"-0.011": 0.0,
			"-0.01": 0.188771524909,
			"-0.009": 9.02600332988,
			"-0.008": 13.4087465809,
			"-0.007": 12.6784010136,
			"-0.006": 15.8846804273,
			"-0.005": 13.5365025124,
			"-0.004": 12.4604137414,
			"-0.003": 11.4975582069,
			"-0.002": 10.4215958358,
			"-0.001": 8.79556137035,
			"0.0": 10.0181334712,
			"0.001": 10.4972007029,
			"0.002": 9.10170797941,
			"0.003": 11.1868933379,
			"0.004": 13.0265066634,
			"0.005": 7.35225634206,
			"0.006": 5.03610202589,
			"0.007": 5.08176210606,
			"0.008": 5.8588167117,
			"0.009": 6.61981076504,
			"0.01": 6.19236234973,
			"0.011": 5.39877726457,
			"0.012": 5.0694403432,
			"0.013": 3.39547097819,
			"0.014": 0.202475536239,
			"0.015": 0.0,
			"0.016": 0.0,
			"0.017": 0.0,
			"0.018": 0.0,
			"0.019": 0.0,
			"0.02": 0.0,
			"0.021": 0.0,
			"0.022": 0.0,
			"0.023": 0.0,
			"0.024": 0.0,
			"0.025": 0.0
		}
	}
}
