{
	 "smiles": "CNC(=O)COC1=CC=C(C=C1)C(C)O", 
	 "Tm": 358.15, 
	 "num_atms": 30, 
	 "gaussian": { 
		 "optdone": 1, 
		 "sigma_profile": "yes", 
		 "theory": "DFT", 
		 "functional": "B3LYP", 
		 "basiset": "6-31G**", 
		 "properties": { 
			 "R2extent": 4801.0329, 
			 "electric_dipole_moment_norm": 3.76791255339, 
			 "electric_quadrupole_moment_norm": 10.6430635641, 
			 "total_energy": -708.635544347, 
			 "HOMO_LUMO_gap": 0.21389, 
			 "cosmo_polarized_energy": -15.89, 
			 "cosmo_cavitation_energy": 33.43, 
			 "cosmo_dispersion_energy": -23.75, 
			 "cosmo_repulsion_energy": 1.91, 
			 "cosmo_total_nonelectrostatic_energy": 11.59, 
			 "SMD_solvation_energy": 6.43 
		},
		"coords": [
			{
				"x": -3.2622128386,
				"y": -1.1537640741,
				"z": 2.0831240627,
				"element": "C" 
			},
			{
				"x": -1.8638132081,
				"y": -0.8670499116,
				"z": 2.3421195331,
				"element": "N" 
			},
			{
				"x": -1.4134928037,
				"y": 0.3809594376,
				"z": 2.6297494985,
				"element": "C" 
			},
			{
				"x": -2.1181253661,
				"y": 1.3775780239,
				"z": 2.7407419034,
				"element": "O" 
			},
			{
				"x": 0.0975206765,
				"y": 0.4730569877,
				"z": 2.8823037977,
				"element": "C" 
			},
			{
				"x": 0.8554972573,
				"y": -0.6205854943,
				"z": 2.3768552198,
				"element": "O" 
			},
			{
				"x": 1.2206668114,
				"y": -0.6073442277,
				"z": 1.0472675142,
				"element": "C" 
			},
			{
				"x": 0.7205477319,
				"y": 0.2848778688,
				"z": 0.0941641001,
				"element": "C" 
			},
			{
				"x": 1.1607340866,
				"y": 0.1953314564,
				"z": -1.2295650553,
				"element": "C" 
			},
			{
				"x": 2.0854927988,
				"y": -0.7737883984,
				"z": -1.6234503792,
				"element": "C" 
			},
			{
				"x": 2.5637585401,
				"y": -1.668308023,
				"z": -0.6561665251,
				"element": "C" 
			},
			{
				"x": 2.1443497464,
				"y": -1.5885936722,
				"z": 0.6669404794,
				"element": "C" 
			},
			{
				"x": 2.5990124724,
				"y": -0.841835872,
				"z": -3.0495848047,
				"element": "C" 
			},
			{
				"x": 3.9278274887,
				"y": -0.0887614781,
				"z": -3.2111220494,
				"element": "C" 
			},
			{
				"x": 1.5994219748,
				"y": -0.2941681345,
				"z": -3.907122505,
				"element": "O" 
			},
			{
				"x": -3.4100350419,
				"y": -1.524144323,
				"z": 1.0625358236,
				"element": "H" 
			},
			{
				"x": -3.815408133,
				"y": -0.2221178353,
				"z": 2.2085249291,
				"element": "H" 
			},
			{
				"x": -3.650416812,
				"y": -1.897902171,
				"z": 2.787352895,
				"element": "H" 
			},
			{
				"x": -1.1723505934,
				"y": -1.5981649629,
				"z": 2.2571325177,
				"element": "H" 
			},
			{
				"x": 0.4516526924,
				"y": 1.4324796311,
				"z": 2.4935170952,
				"element": "H" 
			},
			{
				"x": 0.2579820389,
				"y": 0.4677556153,
				"z": 3.9650613602,
				"element": "H" 
			},
			{
				"x": -0.0152284621,
				"y": 1.0359896109,
				"z": 0.3583750998,
				"element": "H" 
			},
			{
				"x": 0.7647482631,
				"y": 0.8769678053,
				"z": -1.9739842361,
				"element": "H" 
			},
			{
				"x": 3.2756509145,
				"y": -2.4403453424,
				"z": -0.9399669163,
				"element": "H" 
			},
			{
				"x": 2.5166158062,
				"y": -2.2757510699,
				"z": 1.4199741887,
				"element": "H" 
			},
			{
				"x": 2.7688947642,
				"y": -1.9025081638,
				"z": -3.3015182465,
				"element": "H" 
			},
			{
				"x": 4.6973223742,
				"y": -0.4989201067,
				"z": -2.5500415988,
				"element": "H" 
			},
			{
				"x": 3.7909089759,
				"y": 0.9691905185,
				"z": -2.9677049338,
				"element": "H" 
			},
			{
				"x": 4.29693869,
				"y": -0.1662430112,
				"z": -4.2419451729,
				"element": "H" 
			},
			{
				"x": 1.9814391544,
				"y": -0.2160906836,
				"z": -4.7902675952,
				"element": "H" 
			}
		],
		 "valence_orbital": [ 
			{
				"type": "occ",
				"energy": -0.27302,
				"method": "rhf"
			},
			{
				"type": "occ",
				"energy": -0.25304,
				"method": "rhf"
			},
			{
				"type": "occ",
				"energy": -0.25002,
				"method": "rhf"
			},
			{
				"type": "occ",
				"energy": -0.24769,
				"method": "rhf"
			},
			{
				"type": "occ",
				"energy": -0.21767,
				"method": "rhf"
			},
			{
				"type": "unocc",
				"energy": -0.00378,
				"method": "rhf"
			},
			{
				"type": "unocc",
				"energy": 0.00829,
				"method": "rhf"
			},
			{
				"type": "unocc",
				"energy": 0.02979,
				"method": "rhf"
			},
			{
				"type": "unocc",
				"energy": 0.07143,
				"method": "rhf"
			},
			{
				"type": "unocc",
				"energy": 0.09744,
				"method": "rhf"
			}
		],
		"cosmo_sigma_profile": { 
			"-0.025": 0.0,
			"-0.024": 0.0,
			"-0.023": 0.0,
			"-0.022": 0.0,
			"-0.021": 0.0,
			"-0.02": 0.0,
			"-0.019": 0.0,
			"-0.018": 0.0,
			"-0.017": 0.0,
			"-0.016": 0.17846751984,
			"-0.015": 0.736698933969,
			"-0.014": 0.954505781687,
			"-0.013": 1.49693017751,
			"-0.012": 1.67140893345,
			"-0.011": 1.73474525009,
			"-0.01": 1.02491065722,
			"-0.009": 1.64691594542,
			"-0.008": 4.49702914533,
			"-0.007": 5.58627781769,
			"-0.006": 10.4440821879,
			"-0.005": 17.3736148329,
			"-0.004": 25.4574376585,
			"-0.003": 26.2260598229,
			"-0.002": 22.5730525,
			"-0.001": 18.8105902715,
			"0.0": 16.7256232077,
			"0.001": 17.7062683674,
			"0.002": 12.352124153,
			"0.003": 10.7849990833,
			"0.004": 12.7355357132,
			"0.005": 13.6351292698,
			"0.006": 7.41827151126,
			"0.007": 3.99346570937,
			"0.008": 3.74767142759,
			"0.009": 3.10049622596,
			"0.01": 3.85573426334,
			"0.011": 2.73024550009,
			"0.012": 2.71876380756,
			"0.013": 4.34222432182,
			"0.014": 5.87137335463,
			"0.015": 0.955782118089,
			"0.016": 0.0,
			"0.017": 0.0,
			"0.018": 0.0,
			"0.019": 0.0,
			"0.02": 0.0,
			"0.021": 0.0,
			"0.022": 0.0,
			"0.023": 0.0,
			"0.024": 0.0,
			"0.025": 0.0
		}
	}
}
