{
	 "smiles": "CN(C)CCOCCN(C)C", 
	 "Tm": 193.15, 
	 "num_atms": 31, 
	 "gaussian": { 
		 "optdone": 1, 
		 "sigma_profile": "yes", 
		 "theory": "DFT", 
		 "functional": "B3LYP", 
		 "basiset": "6-31G**", 
		 "properties": { 
			 "R2extent": 2623.5938, 
			 "electric_dipole_moment_norm": 0.992016254907, 
			 "electric_quadrupole_moment_norm": 6.6370088436, 
			 "total_energy": -501.589144493, 
			 "HOMO_LUMO_gap": 0.25728, 
			 "cosmo_polarized_energy": -6.45, 
			 "cosmo_cavitation_energy": 31.33, 
			 "cosmo_dispersion_energy": -21.38, 
			 "cosmo_repulsion_energy": 1.72, 
			 "cosmo_total_nonelectrostatic_energy": 11.67, 
			 "SMD_solvation_energy": 0.91 
		},
		"coords": [
			{
				"x": -2.4354744909,
				"y": -0.1224298159,
				"z": -1.074701051,
				"element": "C" 
			},
			{
				"x": -2.7318328583,
				"y": -0.8631262138,
				"z": 0.1434424331,
				"element": "N" 
			},
			{
				"x": -3.4442530031,
				"y": -0.0611561273,
				"z": 1.1235217819,
				"element": "C" 
			},
			{
				"x": -1.6225543014,
				"y": -1.6372262524,
				"z": 0.6883008234,
				"element": "C" 
			},
			{
				"x": -0.4335953323,
				"y": -0.8831834912,
				"z": 1.3150619103,
				"element": "C" 
			},
			{
				"x": 0.3808255353,
				"y": -0.1511424781,
				"z": 0.4089023901,
				"element": "O" 
			},
			{
				"x": 1.2398653527,
				"y": -0.9434928261,
				"z": -0.3975065183,
				"element": "C" 
			},
			{
				"x": 2.3995733307,
				"y": -0.0880714631,
				"z": -0.9293975969,
				"element": "C" 
			},
			{
				"x": 2.1190930666,
				"y": 0.9594812732,
				"z": -1.9015807465,
				"element": "N" 
			},
			{
				"x": 1.5579677766,
				"y": 0.4872596273,
				"z": -3.154405241,
				"element": "C" 
			},
			{
				"x": 1.4311791982,
				"y": 2.1326175954,
				"z": -1.3799042941,
				"element": "C" 
			},
			{
				"x": -1.938832467,
				"y": -0.7821344911,
				"z": -1.7940975958,
				"element": "H" 
			},
			{
				"x": -1.7901096021,
				"y": 0.7582890462,
				"z": -0.9228304523,
				"element": "H" 
			},
			{
				"x": -3.3749490767,
				"y": 0.2175255869,
				"z": -1.5271274662,
				"element": "H" 
			},
			{
				"x": -3.7048487933,
				"y": -0.6787747776,
				"z": 1.9902886369,
				"element": "H" 
			},
			{
				"x": -4.3775224907,
				"y": 0.3063972974,
				"z": 0.6818732328,
				"element": "H" 
			},
			{
				"x": -2.8861653719,
				"y": 0.8211908501,
				"z": 1.4895254865,
				"element": "H" 
			},
			{
				"x": -2.028387986,
				"y": -2.2914736335,
				"z": 1.4737571598,
				"element": "H" 
			},
			{
				"x": -1.2540756866,
				"y": -2.3014315292,
				"z": -0.1037767699,
				"element": "H" 
			},
			{
				"x": -0.7955395059,
				"y": -0.1483356251,
				"z": 2.0421179578,
				"element": "H" 
			},
			{
				"x": 0.1851642572,
				"y": -1.6126707132,
				"z": 1.8669210281,
				"element": "H" 
			},
			{
				"x": 1.669159337,
				"y": -1.7649783874,
				"z": 0.2020939702,
				"element": "H" 
			},
			{
				"x": 0.6881638835,
				"y": -1.4073749725,
				"z": -1.229556213,
				"element": "H" 
			},
			{
				"x": 2.8972510899,
				"y": 0.3736268424,
				"z": -0.068089778,
				"element": "H" 
			},
			{
				"x": 3.1201499233,
				"y": -0.7825769298,
				"z": -1.3852192593,
				"element": "H" 
			},
			{
				"x": 1.5879102651,
				"y": 1.2956115578,
				"z": -3.8940052996,
				"element": "H" 
			},
			{
				"x": 2.1588983649,
				"y": -0.3433252409,
				"z": -3.5419187972,
				"element": "H" 
			},
			{
				"x": 0.5080227032,
				"y": 0.1441780278,
				"z": -3.0872933332,
				"element": "H" 
			},
			{
				"x": 1.4994335681,
				"y": 2.9437837273,
				"z": -2.115051718,
				"element": "H" 
			},
			{
				"x": 1.9224458615,
				"y": 2.4665338794,
				"z": -0.4608147131,
				"element": "H" 
			},
			{
				"x": 0.3669374523,
				"y": 1.9666096571,
				"z": -1.1470299673,
				"element": "H" 
			}
		],
		 "valence_orbital": [ 
			{
				"type": "occ",
				"energy": -0.34418,
				"method": "rhf"
			},
			{
				"type": "occ",
				"energy": -0.3083,
				"method": "rhf"
			},
			{
				"type": "occ",
				"energy": -0.26139,
				"method": "rhf"
			},
			{
				"type": "occ",
				"energy": -0.19971,
				"method": "rhf"
			},
			{
				"type": "occ",
				"energy": -0.19177,
				"method": "rhf"
			},
			{
				"type": "unocc",
				"energy": 0.06551,
				"method": "rhf"
			},
			{
				"type": "unocc",
				"energy": 0.0951,
				"method": "rhf"
			},
			{
				"type": "unocc",
				"energy": 0.10137,
				"method": "rhf"
			},
			{
				"type": "unocc",
				"energy": 0.11638,
				"method": "rhf"
			},
			{
				"type": "unocc",
				"energy": 0.13048,
				"method": "rhf"
			}
		],
		"cosmo_sigma_profile": { 
			"-0.025": 0.0,
			"-0.024": 0.0,
			"-0.023": 0.0,
			"-0.022": 0.0,
			"-0.021": 0.0,
			"-0.02": 0.0,
			"-0.019": 0.0,
			"-0.018": 0.0,
			"-0.017": 0.0,
			"-0.016": 0.0,
			"-0.015": 0.0,
			"-0.014": 0.0,
			"-0.013": 0.0,
			"-0.012": 0.0,
			"-0.011": 0.0,
			"-0.01": 0.0,
			"-0.009": 0.0,
			"-0.008": 0.0,
			"-0.007": 0.0,
			"-0.006": 0.0,
			"-0.005": 0.0,
			"-0.004": 12.6287360477,
			"-0.003": 48.4735794448,
			"-0.002": 41.0138256377,
			"-0.001": 34.228200389,
			"0.0": 38.9977974955,
			"0.001": 21.9486383093,
			"0.002": 6.69693599333,
			"0.003": 5.97472729191,
			"0.004": 4.05399106959,
			"0.005": 4.42703960683,
			"0.006": 3.9917901531,
			"0.007": 2.49224337089,
			"0.008": 2.45709003244,
			"0.009": 3.11096653707,
			"0.01": 2.22683318459,
			"0.011": 2.59409238214,
			"0.012": 1.68531910028,
			"0.013": 0.621848720197,
			"0.014": 1.07133434323,
			"0.015": 1.00011003643,
			"0.016": 1.04620445716,
			"0.017": 0.0155074068309,
			"0.018": 0.0,
			"0.019": 0.0,
			"0.02": 0.0,
			"0.021": 0.0,
			"0.022": 0.0,
			"0.023": 0.0,
			"0.024": 0.0,
			"0.025": 0.0
		}
	}
}
