{
	 "smiles": "O=C(NCN1CCOCC1)C1=CN=CC=N1", 
	 "Tm": 391.15, 
	 "num_atms": 30, 
	 "gaussian": { 
		 "optdone": 1, 
		 "sigma_profile": "yes", 
		 "theory": "DFT", 
		 "functional": "B3LYP", 
		 "basiset": "6-31G**", 
		 "properties": { 
			 "R2extent": 5511.9243, 
			 "electric_dipole_moment_norm": 3.48908328361, 
			 "electric_quadrupole_moment_norm": 12.83903625, 
			 "total_energy": -758.92481714, 
			 "HOMO_LUMO_gap": 0.14417, 
			 "cosmo_polarized_energy": -14.54, 
			 "cosmo_cavitation_energy": 33.13, 
			 "cosmo_dispersion_energy": -24.19, 
			 "cosmo_repulsion_energy": 1.89, 
			 "cosmo_total_nonelectrostatic_energy": 10.82, 
			 "SMD_solvation_energy": 0.94 
		},
		"coords": [
			{
				"x": -1.2021692232,
				"y": 2.4561714277,
				"z": 1.0463314497,
				"element": "O" 
			},
			{
				"x": -1.3419437403,
				"y": 1.429970124,
				"z": 0.3855459872,
				"element": "C" 
			},
			{
				"x": -0.6840195097,
				"y": 1.1447280762,
				"z": -0.7689297888,
				"element": "N" 
			},
			{
				"x": 0.3510907175,
				"y": 1.9872897354,
				"z": -1.3336734058,
				"element": "C" 
			},
			{
				"x": 1.6119962577,
				"y": 1.2651209436,
				"z": -1.4226986268,
				"element": "N" 
			},
			{
				"x": 2.2121611649,
				"y": 1.014100793,
				"z": -0.1023087005,
				"element": "C" 
			},
			{
				"x": 3.6805149334,
				"y": 0.6397157825,
				"z": -0.2579625109,
				"element": "C" 
			},
			{
				"x": 4.4591653663,
				"y": 1.6935727523,
				"z": -0.8239731447,
				"element": "O" 
			},
			{
				"x": 3.7309525234,
				"y": 2.5552562311,
				"z": -1.6961801466,
				"element": "C" 
			},
			{
				"x": 2.5798573366,
				"y": 1.8236233433,
				"z": -2.3857713114,
				"element": "C" 
			},
			{
				"x": -2.3088399876,
				"y": 0.3541251319,
				"z": 0.8217620416,
				"element": "C" 
			},
			{
				"x": -3.0717070158,
				"y": 0.541689337,
				"z": 1.9806386363,
				"element": "C" 
			},
			{
				"x": -3.939227049,
				"y": -0.3801059443,
				"z": 2.4115751396,
				"element": "N" 
			},
			{
				"x": -4.0358228929,
				"y": -1.491283987,
				"z": 1.6724462389,
				"element": "C" 
			},
			{
				"x": -3.2761286157,
				"y": -1.6835172193,
				"z": 0.5152918762,
				"element": "C" 
			},
			{
				"x": -2.4104376547,
				"y": -0.7616219331,
				"z": 0.0859444188,
				"element": "N" 
			},
			{
				"x": -0.8632159469,
				"y": 0.2395737066,
				"z": -1.1868522823,
				"element": "H" 
			},
			{
				"x": 0.0632992139,
				"y": 2.2911806191,
				"z": -2.3470445207,
				"element": "H" 
			},
			{
				"x": 0.3894437526,
				"y": 2.8856682301,
				"z": -0.6979870101,
				"element": "H" 
			},
			{
				"x": 1.6763294759,
				"y": 0.1981253316,
				"z": 0.3966113494,
				"element": "H" 
			},
			{
				"x": 2.133981373,
				"y": 1.8972601314,
				"z": 0.5567900047,
				"element": "H" 
			},
			{
				"x": 3.7618131335,
				"y": -0.2677578871,
				"z": -0.8767546336,
				"element": "H" 
			},
			{
				"x": 4.1163436167,
				"y": 0.4156040085,
				"z": 0.7209911866,
				"element": "H" 
			},
			{
				"x": 4.4447021477,
				"y": 2.9335295154,
				"z": -2.4367256408,
				"element": "H" 
			},
			{
				"x": 3.3416132991,
				"y": 3.421452605,
				"z": -1.137295648,
				"element": "H" 
			},
			{
				"x": 2.0674720829,
				"y": 2.5087140701,
				"z": -3.0698670029,
				"element": "H" 
			},
			{
				"x": 2.9965617928,
				"y": 1.0142929583,
				"z": -3.0010063554,
				"element": "H" 
			},
			{
				"x": -2.9642896863,
				"y": 1.4573178659,
				"z": 2.5537724656,
				"element": "H" 
			},
			{
				"x": -4.737319147,
				"y": -2.251629056,
				"z": 2.0090651321,
				"element": "H" 
			},
			{
				"x": -3.3680777188,
				"y": -2.5941666934,
				"z": -0.0723351975,
				"element": "H" 
			}
		],
		 "valence_orbital": [ 
			{
				"type": "occ",
				"energy": -0.27727,
				"method": "rhf"
			},
			{
				"type": "occ",
				"energy": -0.26198,
				"method": "rhf"
			},
			{
				"type": "occ",
				"energy": -0.25161,
				"method": "rhf"
			},
			{
				"type": "occ",
				"energy": -0.24713,
				"method": "rhf"
			},
			{
				"type": "occ",
				"energy": -0.21578,
				"method": "rhf"
			},
			{
				"type": "unocc",
				"energy": -0.07161,
				"method": "rhf"
			},
			{
				"type": "unocc",
				"energy": -0.04697,
				"method": "rhf"
			},
			{
				"type": "unocc",
				"energy": 0.04603,
				"method": "rhf"
			},
			{
				"type": "unocc",
				"energy": 0.08145,
				"method": "rhf"
			},
			{
				"type": "unocc",
				"energy": 0.10247,
				"method": "rhf"
			}
		],
		"cosmo_sigma_profile": { 
			"-0.025": 0.0,
			"-0.024": 0.0,
			"-0.023": 0.0,
			"-0.022": 0.0,
			"-0.021": 0.0,
			"-0.02": 0.0,
			"-0.019": 0.0,
			"-0.018": 0.0,
			"-0.017": 0.0,
			"-0.016": 0.0,
			"-0.015": 0.0,
			"-0.014": 0.0,
			"-0.013": 0.0,
			"-0.012": 0.0,
			"-0.011": 0.350737391873,
			"-0.01": 0.510943337538,
			"-0.009": 0.665888630638,
			"-0.008": 6.24173577562,
			"-0.007": 7.60125760626,
			"-0.006": 9.16905827338,
			"-0.005": 14.6496658275,
			"-0.004": 26.7349235711,
			"-0.003": 35.2492305009,
			"-0.002": 33.8071114708,
			"-0.001": 25.2755052484,
			"0.0": 15.4128033901,
			"0.001": 12.6976433427,
			"0.002": 9.22758883571,
			"0.003": 7.0554558632,
			"0.004": 5.68726518255,
			"0.005": 7.54178238144,
			"0.006": 6.27520451196,
			"0.007": 4.55540120957,
			"0.008": 4.15311940785,
			"0.009": 4.58311265434,
			"0.01": 4.61922909261,
			"0.011": 3.25106839161,
			"0.012": 5.02039115048,
			"0.013": 8.05668998696,
			"0.014": 2.874310359,
			"0.015": 0.383263604877,
			"0.016": 0.0,
			"0.017": 0.0,
			"0.018": 0.0,
			"0.019": 0.0,
			"0.02": 0.0,
			"0.021": 0.0,
			"0.022": 0.0,
			"0.023": 0.0,
			"0.024": 0.0,
			"0.025": 0.0
		}
	}
}
