{
	 "smiles": "CN1C2=C(NC(S)=N2)C(=O)N(C)C1=O", 
	 "Tm": 602.15, 
	 "num_atms": 22, 
	 "gaussian": { 
		 "optdone": 1, 
		 "sigma_profile": "yes", 
		 "theory": "DFT", 
		 "functional": "B3LYP", 
		 "basiset": "6-31G**", 
		 "properties": { 
			 "R2extent": 3430.5226, 
			 "electric_dipole_moment_norm": 3.45991081099, 
			 "electric_quadrupole_moment_norm": 8.36968393788, 
			 "total_energy": -1039.2453815, 
			 "HOMO_LUMO_gap": 0.18264, 
			 "cosmo_polarized_energy": -19.3, 
			 "cosmo_cavitation_energy": 28.11, 
			 "cosmo_dispersion_energy": -21.47, 
			 "cosmo_repulsion_energy": 1.62, 
			 "cosmo_total_nonelectrostatic_energy": 8.26, 
			 "SMD_solvation_energy": 4.02 
		},
		"coords": [
			{
				"x": 1.366096151,
				"y": 1.2388264169,
				"z": 2.7019550422,
				"element": "C" 
			},
			{
				"x": 0.5720536866,
				"y": 0.8267423738,
				"z": 1.5449929355,
				"element": "N" 
			},
			{
				"x": 1.0091257446,
				"y": -0.1760603,
				"z": 0.7157578737,
				"element": "C" 
			},
			{
				"x": 0.2771755592,
				"y": -0.5787402347,
				"z": -0.3781532359,
				"element": "C" 
			},
			{
				"x": 1.0302400015,
				"y": -1.5921848525,
				"z": -0.9549242128,
				"element": "N" 
			},
			{
				"x": 2.1434001548,
				"y": -1.7269351844,
				"z": -0.1821994115,
				"element": "C" 
			},
			{
				"x": 3.4553454956,
				"y": -2.8758653957,
				"z": -0.4517654714,
				"element": "S" 
			},
			{
				"x": 2.1676827423,
				"y": -0.8836723121,
				"z": 0.8435651043,
				"element": "N" 
			},
			{
				"x": -0.979799551,
				"y": -0.012516549,
				"z": -0.7570642499,
				"element": "C" 
			},
			{
				"x": -1.6625800837,
				"y": -0.3418245676,
				"z": -1.7222118452,
				"element": "O" 
			},
			{
				"x": -1.3601697306,
				"y": 1.0132572897,
				"z": 0.1470878969,
				"element": "N" 
			},
			{
				"x": -2.6317313125,
				"y": 1.7030979234,
				"z": -0.0968925242,
				"element": "C" 
			},
			{
				"x": -0.6467707242,
				"y": 1.4585987488,
				"z": 1.2764342628,
				"element": "C" 
			},
			{
				"x": -1.0833798224,
				"y": 2.3569274912,
				"z": 1.981306954,
				"element": "O" 
			},
			{
				"x": 0.8225698903,
				"y": 2.0386709547,
				"z": 3.1999819476,
				"element": "H" 
			},
			{
				"x": 2.3477941535,
				"y": 1.5923078046,
				"z": 2.3762865846,
				"element": "H" 
			},
			{
				"x": 1.5052825535,
				"y": 0.3939582615,
				"z": 3.3813381685,
				"element": "H" 
			},
			{
				"x": 0.7690424231,
				"y": -2.1040585493,
				"z": -1.7841927434,
				"element": "H" 
			},
			{
				"x": 2.9316954979,
				"y": -3.4367168429,
				"z": -1.5600613409,
				"element": "H" 
			},
			{
				"x": -3.0704268231,
				"y": 1.2627047094,
				"z": -0.9896661596,
				"element": "H" 
			},
			{
				"x": -3.2959711856,
				"y": 1.577296851,
				"z": 0.7606583667,
				"element": "H" 
			},
			{
				"x": -2.4560748207,
				"y": 2.7711859631,
				"z": -0.2410339421,
				"element": "H" 
			}
		],
		 "valence_orbital": [ 
			{
				"type": "occ",
				"energy": -0.28845,
				"method": "rhf"
			},
			{
				"type": "occ",
				"energy": -0.27333,
				"method": "rhf"
			},
			{
				"type": "occ",
				"energy": -0.26676,
				"method": "rhf"
			},
			{
				"type": "occ",
				"energy": -0.26108,
				"method": "rhf"
			},
			{
				"type": "occ",
				"energy": -0.21814,
				"method": "rhf"
			},
			{
				"type": "unocc",
				"energy": -0.0355,
				"method": "rhf"
			},
			{
				"type": "unocc",
				"energy": -0.01241,
				"method": "rhf"
			},
			{
				"type": "unocc",
				"energy": 0.02079,
				"method": "rhf"
			},
			{
				"type": "unocc",
				"energy": 0.02958,
				"method": "rhf"
			},
			{
				"type": "unocc",
				"energy": 0.04319,
				"method": "rhf"
			}
		],
		"cosmo_sigma_profile": { 
			"-0.025": 0.0,
			"-0.024": 0.0,
			"-0.023": 0.0,
			"-0.022": 0.0,
			"-0.021": 0.0,
			"-0.02": 0.0,
			"-0.019": 0.12015571658,
			"-0.018": 1.81457440237,
			"-0.017": 2.06518230537,
			"-0.016": 1.77197780989,
			"-0.015": 0.78469582902,
			"-0.014": 1.57441854937,
			"-0.013": 2.56049594072,
			"-0.012": 2.57686416923,
			"-0.011": 1.89124420849,
			"-0.01": 1.36167460634,
			"-0.009": 1.66851787499,
			"-0.008": 1.83041464224,
			"-0.007": 2.08588297431,
			"-0.006": 4.83408983809,
			"-0.005": 12.8618628378,
			"-0.004": 15.8725038053,
			"-0.003": 22.1958441082,
			"-0.002": 24.7826807025,
			"-0.001": 20.7540961797,
			"0.0": 13.0006098287,
			"0.001": 10.3598035524,
			"0.002": 9.91982684613,
			"0.003": 11.2826016358,
			"0.004": 7.82145724087,
			"0.005": 8.0225053542,
			"0.006": 6.71209698652,
			"0.007": 4.34586849362,
			"0.008": 3.6167709338,
			"0.009": 3.06557549863,
			"0.01": 3.69210454007,
			"0.011": 5.65289282311,
			"0.012": 7.02484294629,
			"0.013": 8.5755181986,
			"0.014": 0.63518567963,
			"0.015": 0.0,
			"0.016": 0.0,
			"0.017": 0.0,
			"0.018": 0.0,
			"0.019": 0.0,
			"0.02": 0.0,
			"0.021": 0.0,
			"0.022": 0.0,
			"0.023": 0.0,
			"0.024": 0.0,
			"0.025": 0.0
		}
	}
}
