{
	 "smiles": "CCC(=O)C(CC(C)N1CCOCC1)(C1=CC=CC=C1)C1=CC=CC=C1", 
	 "Tm": 348.15, 
	 "num_atms": 55, 
	 "gaussian": { 
		 "optdone": 1, 
		 "sigma_profile": "yes", 
		 "theory": "DFT", 
		 "functional": "B3LYP", 
		 "basiset": "6-31G**", 
		 "properties": { 
			 "R2extent": 9732.2326, 
			 "electric_dipole_moment_norm": 0.698079973928, 
			 "electric_quadrupole_moment_norm": 11.2615634669, 
			 "total_energy": -1099.08707947, 
			 "HOMO_LUMO_gap": 0.18078, 
			 "cosmo_polarized_energy": -11.63, 
			 "cosmo_cavitation_energy": 52.16, 
			 "cosmo_dispersion_energy": -34.17, 
			 "cosmo_repulsion_energy": 2.6, 
			 "cosmo_total_nonelectrostatic_energy": 20.59, 
			 "SMD_solvation_energy": 8.86 
		},
		"coords": [
			{
				"x": -0.7050585601,
				"y": -4.1803464376,
				"z": 1.1500422083,
				"element": "C" 
			},
			{
				"x": -0.2505523405,
				"y": -2.727079931,
				"z": 1.2718901637,
				"element": "C" 
			},
			{
				"x": -1.1918019288,
				"y": -1.7493006749,
				"z": 0.5833098586,
				"element": "C" 
			},
			{
				"x": -2.1733386693,
				"y": -2.1658411122,
				"z": -0.0090062887,
				"element": "O" 
			},
			{
				"x": -0.938190585,
				"y": -0.2079177527,
				"z": 0.662134703,
				"element": "C" 
			},
			{
				"x": -1.5872622663,
				"y": 0.464670138,
				"z": -0.6035526458,
				"element": "C" 
			},
			{
				"x": -1.3090566145,
				"y": -0.1268005524,
				"z": -2.0227885786,
				"element": "C" 
			},
			{
				"x": -2.6261392884,
				"y": -0.5588040301,
				"z": -2.6989431514,
				"element": "C" 
			},
			{
				"x": -0.4866899407,
				"y": 0.7860682176,
				"z": -2.845713164,
				"element": "N" 
			},
			{
				"x": -1.0561213493,
				"y": 2.1169918383,
				"z": -3.1178716868,
				"element": "C" 
			},
			{
				"x": -0.4443740865,
				"y": 2.7118968889,
				"z": -4.3956745773,
				"element": "C" 
			},
			{
				"x": 0.9446808165,
				"y": 2.4490936659,
				"z": -4.4650878733,
				"element": "O" 
			},
			{
				"x": 1.2282766962,
				"y": 1.0537163541,
				"z": -4.5670573734,
				"element": "C" 
			},
			{
				"x": 0.0825263037,
				"y": 0.1743962442,
				"z": -4.0408174563,
				"element": "C" 
			},
			{
				"x": -1.7430860763,
				"y": 0.351908739,
				"z": 1.8698171926,
				"element": "C" 
			},
			{
				"x": -2.802141264,
				"y": -0.3443300958,
				"z": 2.4692310724,
				"element": "C" 
			},
			{
				"x": -3.5428282677,
				"y": 0.2288735124,
				"z": 3.5070065874,
				"element": "C" 
			},
			{
				"x": -3.2525505474,
				"y": 1.5153412855,
				"z": 3.956327852,
				"element": "C" 
			},
			{
				"x": -2.2116417359,
				"y": 2.2271643154,
				"z": 3.3562441092,
				"element": "C" 
			},
			{
				"x": -1.4661903821,
				"y": 1.6507793931,
				"z": 2.3295179092,
				"element": "C" 
			},
			{
				"x": 0.5638395371,
				"y": 0.1021902212,
				"z": 0.8434374991,
				"element": "C" 
			},
			{
				"x": 1.1718782188,
				"y": -0.0431493751,
				"z": 2.1050255886,
				"element": "C" 
			},
			{
				"x": 2.5330103278,
				"y": 0.1909979006,
				"z": 2.287937374,
				"element": "C" 
			},
			{
				"x": 3.3282029323,
				"y": 0.5903102104,
				"z": 1.2114710885,
				"element": "C" 
			},
			{
				"x": 2.7382135248,
				"y": 0.7577743397,
				"z": -0.0391586799,
				"element": "C" 
			},
			{
				"x": 1.372580622,
				"y": 0.5171914433,
				"z": -0.2241481812,
				"element": "C" 
			},
			{
				"x": 0.0073747355,
				"y": -4.8446628125,
				"z": 1.6480362118,
				"element": "H" 
			},
			{
				"x": -0.7848280691,
				"y": -4.4806848063,
				"z": 0.1020871236,
				"element": "H" 
			},
			{
				"x": -1.6891761131,
				"y": -4.3269974799,
				"z": 1.6033343308,
				"element": "H" 
			},
			{
				"x": -0.1550070732,
				"y": -2.4313638134,
				"z": 2.3239148902,
				"element": "H" 
			},
			{
				"x": 0.7533566522,
				"y": -2.5872531942,
				"z": 0.8531126037,
				"element": "H" 
			},
			{
				"x": -2.6655447067,
				"y": 0.4351435388,
				"z": -0.4358410098,
				"element": "H" 
			},
			{
				"x": -1.3046865136,
				"y": 1.5198271781,
				"z": -0.5743788793,
				"element": "H" 
			},
			{
				"x": -0.6961704956,
				"y": -1.0288186527,
				"z": -1.9130556335,
				"element": "H" 
			},
			{
				"x": -2.4468704782,
				"y": -0.9862441179,
				"z": -3.6909443964,
				"element": "H" 
			},
			{
				"x": -3.3163276653,
				"y": 0.2844064997,
				"z": -2.8142368711,
				"element": "H" 
			},
			{
				"x": -3.1170919605,
				"y": -1.3130207174,
				"z": -2.0815595055,
				"element": "H" 
			},
			{
				"x": -0.8354367168,
				"y": 2.7807354212,
				"z": -2.2732413888,
				"element": "H" 
			},
			{
				"x": -2.1522060125,
				"y": 2.0976554145,
				"z": -3.2388246383,
				"element": "H" 
			},
			{
				"x": -0.5594980156,
				"y": 3.7994626538,
				"z": -4.39445873,
				"element": "H" 
			},
			{
				"x": -0.9629591034,
				"y": 2.3294781925,
				"z": -5.2894593716,
				"element": "H" 
			},
			{
				"x": 1.4465070297,
				"y": 0.7863127903,
				"z": -5.6135943254,
				"element": "H" 
			},
			{
				"x": 2.1351220505,
				"y": 0.882893803,
				"z": -3.9764315214,
				"element": "H" 
			},
			{
				"x": -0.6603335639,
				"y": -0.0019404406,
				"z": -4.8396966516,
				"element": "H" 
			},
			{
				"x": 0.4872461831,
				"y": -0.8091383508,
				"z": -3.7767349515,
				"element": "H" 
			},
			{
				"x": -3.0729306614,
				"y": -1.3349811474,
				"z": 2.1218540914,
				"element": "H" 
			},
			{
				"x": -4.3528758019,
				"y": -0.3373379974,
				"z": 3.9583144002,
				"element": "H" 
			},
			{
				"x": -3.830185741,
				"y": 1.9604149011,
				"z": 4.7613244099,
				"element": "H" 
			},
			{
				"x": -1.97521617,
				"y": 3.2340025658,
				"z": 3.6892876058,
				"element": "H" 
			},
			{
				"x": -0.6515042837,
				"y": 2.21239848,
				"z": 1.8836571758,
				"element": "H" 
			},
			{
				"x": 0.569404756,
				"y": -0.3233478158,
				"z": 2.9631398767,
				"element": "H" 
			},
			{
				"x": 2.9693595045,
				"y": 0.0708358519,
				"z": 3.2757929287,
				"element": "H" 
			},
			{
				"x": 4.3887462586,
				"y": 0.7794167532,
				"z": 1.3517698568,
				"element": "H" 
			},
			{
				"x": 3.3371180257,
				"y": 1.0865074871,
				"z": -0.8844534926,
				"element": "H" 
			},
			{
				"x": 0.9409288735,
				"y": 0.6815050698,
				"z": -1.2082876885,
				"element": "H" 
			}
		],
		 "valence_orbital": [ 
			{
				"type": "occ",
				"energy": -0.2479,
				"method": "rhf"
			},
			{
				"type": "occ",
				"energy": -0.2454,
				"method": "rhf"
			},
			{
				"type": "occ",
				"energy": -0.2425,
				"method": "rhf"
			},
			{
				"type": "occ",
				"energy": -0.22715,
				"method": "rhf"
			},
			{
				"type": "occ",
				"energy": -0.20496,
				"method": "rhf"
			},
			{
				"type": "unocc",
				"energy": -0.02418,
				"method": "rhf"
			},
			{
				"type": "unocc",
				"energy": -0.00402,
				"method": "rhf"
			},
			{
				"type": "unocc",
				"energy": -0.00267,
				"method": "rhf"
			},
			{
				"type": "unocc",
				"energy": 0.00068,
				"method": "rhf"
			},
			{
				"type": "unocc",
				"energy": 0.0076,
				"method": "rhf"
			}
		],
		"cosmo_sigma_profile": { 
			"-0.025": 0.0,
			"-0.024": 0.0,
			"-0.023": 0.0,
			"-0.022": 0.0,
			"-0.021": 0.0,
			"-0.02": 0.0,
			"-0.019": 0.0,
			"-0.018": 0.0,
			"-0.017": 0.0,
			"-0.016": 0.0,
			"-0.015": 0.0,
			"-0.014": 0.0,
			"-0.013": 0.0,
			"-0.012": 0.0,
			"-0.011": 0.0,
			"-0.01": 0.0,
			"-0.009": 0.0,
			"-0.008": 0.0,
			"-0.007": 0.0812359229533,
			"-0.006": 5.11113850527,
			"-0.005": 21.6741735336,
			"-0.004": 39.5230640795,
			"-0.003": 63.4285642089,
			"-0.002": 50.3353019675,
			"-0.001": 42.8305314069,
			"0.0": 32.0173249178,
			"0.001": 31.0819002518,
			"0.002": 25.0150590911,
			"0.003": 20.7514577345,
			"0.004": 21.2657892968,
			"0.005": 18.4703787937,
			"0.006": 15.2882675967,
			"0.007": 3.65901819943,
			"0.008": 3.40499852972,
			"0.009": 4.07978588796,
			"0.01": 2.365421797,
			"0.011": 2.89879114862,
			"0.012": 2.41049846179,
			"0.013": 2.21141189276,
			"0.014": 1.11662804863,
			"0.015": 0.0,
			"0.016": 0.0,
			"0.017": 0.0,
			"0.018": 0.0,
			"0.019": 0.0,
			"0.02": 0.0,
			"0.021": 0.0,
			"0.022": 0.0,
			"0.023": 0.0,
			"0.024": 0.0,
			"0.025": 0.0
		}
	}
}
