{
	 "smiles": "COC(=O)CCC1=CC=C(O)C=C1", 
	 "Tm": 312.15, 
	 "num_atms": 25, 
	 "gaussian": { 
		 "optdone": 1, 
		 "sigma_profile": "yes", 
		 "theory": "DFT", 
		 "functional": "B3LYP", 
		 "basiset": "6-31G**", 
		 "properties": { 
			 "R2extent": 3167.0299, 
			 "electric_dipole_moment_norm": 1.41252113259, 
			 "electric_quadrupole_moment_norm": 13.176141894, 
			 "total_energy": -613.979244535, 
			 "HOMO_LUMO_gap": 0.21315, 
			 "cosmo_polarized_energy": -12.28, 
			 "cosmo_cavitation_energy": 29.02, 
			 "cosmo_dispersion_energy": -20.75, 
			 "cosmo_repulsion_energy": 1.68, 
			 "cosmo_total_nonelectrostatic_energy": 9.95, 
			 "SMD_solvation_energy": 6.5 
		},
		"coords": [
			{
				"x": -3.3753411264,
				"y": 1.1295374516,
				"z": 2.3058967325,
				"element": "C" 
			},
			{
				"x": -2.9105120435,
				"y": 0.0722056774,
				"z": 1.4509472934,
				"element": "O" 
			},
			{
				"x": -1.627891221,
				"y": -0.3057173737,
				"z": 1.6425996497,
				"element": "C" 
			},
			{
				"x": -0.8993931836,
				"y": 0.2069297736,
				"z": 2.4671114047,
				"element": "O" 
			},
			{
				"x": -1.2584449436,
				"y": -1.4639632304,
				"z": 0.7354306496,
				"element": "C" 
			},
			{
				"x": 0.2578599004,
				"y": -1.5835043814,
				"z": 0.4934567169,
				"element": "C" 
			},
			{
				"x": 0.8171690723,
				"y": -0.5172177919,
				"z": -0.427128919,
				"element": "C" 
			},
			{
				"x": 1.2884945805,
				"y": 0.7041227298,
				"z": 0.0712101103,
				"element": "C" 
			},
			{
				"x": 1.7831450515,
				"y": 1.6901482925,
				"z": -0.7829388896,
				"element": "C" 
			},
			{
				"x": 1.8147648629,
				"y": 1.4696759758,
				"z": -2.1632493124,
				"element": "C" 
			},
			{
				"x": 2.290401863,
				"y": 2.3955495835,
				"z": -3.0512497068,
				"element": "O" 
			},
			{
				"x": 1.3492695435,
				"y": 0.2563523764,
				"z": -2.6806082733,
				"element": "C" 
			},
			{
				"x": 0.8597090118,
				"y": -0.7179510968,
				"z": -1.8151007904,
				"element": "C" 
			},
			{
				"x": -2.7785971652,
				"y": 2.0331839545,
				"z": 2.1589093029,
				"element": "H" 
			},
			{
				"x": -4.4123967098,
				"y": 1.3052572878,
				"z": 2.0201531861,
				"element": "H" 
			},
			{
				"x": -3.3115990467,
				"y": 0.8336353557,
				"z": 3.3562167562,
				"element": "H" 
			},
			{
				"x": -1.8106977815,
				"y": -1.3702587086,
				"z": -0.2042544755,
				"element": "H" 
			},
			{
				"x": -1.6323868918,
				"y": -2.373181496,
				"z": 1.2264269107,
				"element": "H" 
			},
			{
				"x": 0.7634070921,
				"y": -1.546172436,
				"z": 1.4632290389,
				"element": "H" 
			},
			{
				"x": 0.4550574609,
				"y": -2.572622434,
				"z": 0.0653257646,
				"element": "H" 
			},
			{
				"x": 1.2585709541,
				"y": 0.8874955556,
				"z": 1.1407672587,
				"element": "H" 
			},
			{
				"x": 2.148044765,
				"y": 2.630685598,
				"z": -0.3739734574,
				"element": "H" 
			},
			{
				"x": 2.5820204386,
				"y": 3.1764923561,
				"z": -2.5634083132,
				"element": "H" 
			},
			{
				"x": 1.384949242,
				"y": 0.0938862559,
				"z": -3.7529316607,
				"element": "H" 
			},
			{
				"x": 0.5081962745,
				"y": -1.6605692756,
				"z": -2.2292369769,
				"element": "H" 
			}
		],
		 "valence_orbital": [ 
			{
				"type": "occ",
				"energy": -0.31929,
				"method": "rhf"
			},
			{
				"type": "occ",
				"energy": -0.30106,
				"method": "rhf"
			},
			{
				"type": "occ",
				"energy": -0.27125,
				"method": "rhf"
			},
			{
				"type": "occ",
				"energy": -0.24563,
				"method": "rhf"
			},
			{
				"type": "occ",
				"energy": -0.21172,
				"method": "rhf"
			},
			{
				"type": "unocc",
				"energy": 0.00143,
				"method": "rhf"
			},
			{
				"type": "unocc",
				"energy": 0.01379,
				"method": "rhf"
			},
			{
				"type": "unocc",
				"energy": 0.01731,
				"method": "rhf"
			},
			{
				"type": "unocc",
				"energy": 0.07463,
				"method": "rhf"
			},
			{
				"type": "unocc",
				"energy": 0.09877,
				"method": "rhf"
			}
		],
		"cosmo_sigma_profile": { 
			"-0.025": 0.0,
			"-0.024": 0.0,
			"-0.023": 0.0,
			"-0.022": 0.0,
			"-0.021": 0.0,
			"-0.02": 0.0,
			"-0.019": 0.0,
			"-0.018": 0.0588193276858,
			"-0.017": 1.33737156814,
			"-0.016": 0.532589959215,
			"-0.015": 1.1167509169,
			"-0.014": 1.13812141295,
			"-0.013": 1.32385032457,
			"-0.012": 1.09960502294,
			"-0.011": 0.500955054058,
			"-0.01": 1.25908540188,
			"-0.009": 0.718905909826,
			"-0.008": 1.24928882226,
			"-0.007": 2.1347271667,
			"-0.006": 9.27232593756,
			"-0.005": 15.6291306701,
			"-0.004": 23.5032618042,
			"-0.003": 24.8007087056,
			"-0.002": 19.7725794758,
			"-0.001": 15.1562101642,
			"0.0": 12.5303025984,
			"0.001": 8.80739078787,
			"0.002": 11.4908359229,
			"0.003": 11.7584423141,
			"0.004": 12.9116280538,
			"0.005": 12.6322245647,
			"0.006": 13.3601589232,
			"0.007": 4.56413735138,
			"0.008": 4.27847228031,
			"0.009": 3.5604160462,
			"0.01": 3.3383481738,
			"0.011": 4.48866750977,
			"0.012": 4.35044808104,
			"0.013": 0.342919777093,
			"0.014": 0.0,
			"0.015": 0.0,
			"0.016": 0.0,
			"0.017": 0.0,
			"0.018": 0.0,
			"0.019": 0.0,
			"0.02": 0.0,
			"0.021": 0.0,
			"0.022": 0.0,
			"0.023": 0.0,
			"0.024": 0.0,
			"0.025": 0.0
		}
	}
}
