{
	 "smiles": "NC1=NC=CC2=CC=CC=C12", 
	 "Tm": 396.15, 
	 "num_atms": 19, 
	 "gaussian": { 
		 "optdone": 1, 
		 "sigma_profile": "yes", 
		 "theory": "DFT", 
		 "functional": "B3LYP", 
		 "basiset": "6-31G**", 
		 "properties": { 
			 "R2extent": 1787.9888, 
			 "electric_dipole_moment_norm": 3.54844931061, 
			 "electric_quadrupole_moment_norm": 11.2074955396, 
			 "total_energy": -457.279272652, 
			 "HOMO_LUMO_gap": 0.17556, 
			 "cosmo_polarized_energy": -13.19, 
			 "cosmo_cavitation_energy": 22.6, 
			 "cosmo_dispersion_energy": -17.06, 
			 "cosmo_repulsion_energy": 1.34, 
			 "cosmo_total_nonelectrostatic_energy": 6.89, 
			 "SMD_solvation_energy": 2.09 
		},
		"coords": [
			{
				"x": 0.5334241677,
				"y": -1.8003987523,
				"z": -1.4767328129,
				"element": "N" 
			},
			{
				"x": -0.5094081147,
				"y": -0.8371966389,
				"z": -1.2541695973,
				"element": "C" 
			},
			{
				"x": -1.6441922626,
				"y": -1.0693718405,
				"z": -1.877280324,
				"element": "N" 
			},
			{
				"x": -2.6731320335,
				"y": -0.1952324482,
				"z": -1.7092915117,
				"element": "C" 
			},
			{
				"x": -2.6070973206,
				"y": 0.9283647669,
				"z": -0.9228792953,
				"element": "C" 
			},
			{
				"x": -1.4005304965,
				"y": 1.2140635858,
				"z": -0.2341085216,
				"element": "C" 
			},
			{
				"x": -1.2341388526,
				"y": 2.3501007066,
				"z": 0.6019905945,
				"element": "C" 
			},
			{
				"x": -0.0385224663,
				"y": 2.5762153497,
				"z": 1.2460632833,
				"element": "C" 
			},
			{
				"x": 1.04303707,
				"y": 1.6771365969,
				"z": 1.0828744129,
				"element": "C" 
			},
			{
				"x": 0.9094493381,
				"y": 0.5669735964,
				"z": 0.2777249741,
				"element": "C" 
			},
			{
				"x": -0.3097085119,
				"y": 0.3045180899,
				"z": -0.4005725666,
				"element": "C" 
			},
			{
				"x": 1.3544900935,
				"y": -1.3532966762,
				"z": -1.8781489159,
				"element": "H" 
			},
			{
				"x": 0.8284949976,
				"y": -2.2187417838,
				"z": -0.5974682803,
				"element": "H" 
			},
			{
				"x": -3.5849274463,
				"y": -0.4404882887,
				"z": -2.2495955119,
				"element": "H" 
			},
			{
				"x": -3.4617475707,
				"y": 1.5918133701,
				"z": -0.8256332186,
				"element": "H" 
			},
			{
				"x": -2.0670893051,
				"y": 3.0373858044,
				"z": 0.724210479,
				"element": "H" 
			},
			{
				"x": 0.0801685626,
				"y": 3.4475526334,
				"z": 1.8836696152,
				"element": "H" 
			},
			{
				"x": 1.9809191916,
				"y": 1.8669434107,
				"z": 1.5965058213,
				"element": "H" 
			},
			{
				"x": 1.7404109599,
				"y": -0.1199414822,
				"z": 0.1549413757,
				"element": "H" 
			}
		],
		 "valence_orbital": [ 
			{
				"type": "occ",
				"energy": -0.29265,
				"method": "rhf"
			},
			{
				"type": "occ",
				"energy": -0.26331,
				"method": "rhf"
			},
			{
				"type": "occ",
				"energy": -0.25575,
				"method": "rhf"
			},
			{
				"type": "occ",
				"energy": -0.24706,
				"method": "rhf"
			},
			{
				"type": "occ",
				"energy": -0.22738,
				"method": "rhf"
			},
			{
				"type": "unocc",
				"energy": -0.05182,
				"method": "rhf"
			},
			{
				"type": "unocc",
				"energy": -0.02237,
				"method": "rhf"
			},
			{
				"type": "unocc",
				"energy": 0.02593,
				"method": "rhf"
			},
			{
				"type": "unocc",
				"energy": 0.07583,
				"method": "rhf"
			},
			{
				"type": "unocc",
				"energy": 0.08527,
				"method": "rhf"
			}
		],
		"cosmo_sigma_profile": { 
			"-0.025": 0.0,
			"-0.024": 0.0,
			"-0.023": 0.0,
			"-0.022": 0.0,
			"-0.021": 0.0,
			"-0.02": 0.0,
			"-0.019": 0.0,
			"-0.018": 0.0,
			"-0.017": 0.0,
			"-0.016": 0.0,
			"-0.015": 0.0,
			"-0.014": 0.0,
			"-0.013": 0.0,
			"-0.012": 0.385842052185,
			"-0.011": 2.81173247878,
			"-0.01": 2.84702415619,
			"-0.009": 4.03788539508,
			"-0.008": 4.09065550408,
			"-0.007": 5.34860514572,
			"-0.006": 13.6790254317,
			"-0.005": 13.7305134635,
			"-0.004": 13.8884338508,
			"-0.003": 9.36671225834,
			"-0.002": 9.13878228585,
			"-0.001": 8.08729857163,
			"0.0": 9.30694266016,
			"0.001": 12.5121974038,
			"0.002": 15.1859760407,
			"0.003": 19.2091333332,
			"0.004": 13.2893402187,
			"0.005": 3.45691184848,
			"0.006": 1.79271952275,
			"0.007": 1.39169257233,
			"0.008": 1.81979369201,
			"0.009": 1.67261031445,
			"0.01": 1.14310690851,
			"0.011": 0.953588926144,
			"0.012": 1.37011059174,
			"0.013": 1.54772493266,
			"0.014": 0.919167397299,
			"0.015": 1.47885047885,
			"0.016": 1.4018861473,
			"0.017": 1.37601153868,
			"0.018": 1.06307371768,
			"0.019": 1.41127871429,
			"0.02": 1.00164711775,
			"0.021": 0.168661944583,
			"0.022": 0.0,
			"0.023": 0.0,
			"0.024": 0.0,
			"0.025": 0.0
		}
	}
}
