{
	 "smiles": "CC1=CC(N)=NC=C1[N+]([O-])=O", 
	 "Tm": 497.15, 
	 "num_atms": 18, 
	 "gaussian": { 
		 "optdone": 1, 
		 "sigma_profile": "yes", 
		 "theory": "DFT", 
		 "functional": "B3LYP", 
		 "basiset": "6-31G**", 
		 "properties": { 
			 "R2extent": 2800.702, 
			 "electric_dipole_moment_norm": 6.40731751906, 
			 "electric_quadrupole_moment_norm": 16.5028678774, 
			 "total_energy": -547.471350571, 
			 "HOMO_LUMO_gap": 0.16271, 
			 "cosmo_polarized_energy": -14.43, 
			 "cosmo_cavitation_energy": 22.54, 
			 "cosmo_dispersion_energy": -16.96, 
			 "cosmo_repulsion_energy": 1.36, 
			 "cosmo_total_nonelectrostatic_energy": 6.94, 
			 "SMD_solvation_energy": 4.67 
		},
		"coords": [
			{
				"x": 0.3782244854,
				"y": 0.7973468903,
				"z": 2.9469454757,
				"element": "C" 
			},
			{
				"x": 0.6029208532,
				"y": 0.9935134142,
				"z": 1.4700274811,
				"element": "C" 
			},
			{
				"x": 0.7048108077,
				"y": -0.1228682827,
				"z": 0.6506372312,
				"element": "C" 
			},
			{
				"x": 0.9157441272,
				"y": 0.0156292618,
				"z": -0.7383043136,
				"element": "C" 
			},
			{
				"x": 0.9878532403,
				"y": -1.0698122574,
				"z": -1.5601101985,
				"element": "N" 
			},
			{
				"x": 1.0307926167,
				"y": 1.2170656156,
				"z": -1.3397081896,
				"element": "N" 
			},
			{
				"x": 0.9319103888,
				"y": 2.2909311618,
				"z": -0.5661123747,
				"element": "C" 
			},
			{
				"x": 0.7226612063,
				"y": 2.2464996767,
				"z": 0.8173241861,
				"element": "C" 
			},
			{
				"x": 0.6431110137,
				"y": 3.5195977492,
				"z": 1.5157040407,
				"element": "N" 
			},
			{
				"x": 0.4649381104,
				"y": 3.511501512,
				"z": 2.7382703927,
				"element": "O" 
			},
			{
				"x": 0.7582281639,
				"y": 4.5521694929,
				"z": 0.8492104278,
				"element": "O" 
			},
			{
				"x": -0.5432052578,
				"y": 1.2840887383,
				"z": 3.274892984,
				"element": "H" 
			},
			{
				"x": 1.1815199739,
				"y": 1.2498002857,
				"z": 3.5330470925,
				"element": "H" 
			},
			{
				"x": 0.322526495,
				"y": -0.2700883446,
				"z": 3.1755377184,
				"element": "H" 
			},
			{
				"x": 0.6165818355,
				"y": -1.114158365,
				"z": 1.0853019136,
				"element": "H" 
			},
			{
				"x": 1.2818889455,
				"y": -0.9005775904,
				"z": -2.5098418944,
				"element": "H" 
			},
			{
				"x": 1.1219731101,
				"y": -1.9916290115,
				"z": -1.1791692666,
				"element": "H" 
			},
			{
				"x": 1.0239198844,
				"y": 3.2591900532,
				"z": -1.0468527063,
				"element": "H" 
			}
		],
		 "valence_orbital": [ 
			{
				"type": "occ",
				"energy": -0.29683,
				"method": "rhf"
			},
			{
				"type": "occ",
				"energy": -0.2923,
				"method": "rhf"
			},
			{
				"type": "occ",
				"energy": -0.27881,
				"method": "rhf"
			},
			{
				"type": "occ",
				"energy": -0.27243,
				"method": "rhf"
			},
			{
				"type": "occ",
				"energy": -0.23798,
				"method": "rhf"
			},
			{
				"type": "unocc",
				"energy": -0.07527,
				"method": "rhf"
			},
			{
				"type": "unocc",
				"energy": -0.03273,
				"method": "rhf"
			},
			{
				"type": "unocc",
				"energy": 0.0121,
				"method": "rhf"
			},
			{
				"type": "unocc",
				"energy": 0.06485,
				"method": "rhf"
			},
			{
				"type": "unocc",
				"energy": 0.09781,
				"method": "rhf"
			}
		],
		"cosmo_sigma_profile": { 
			"-0.025": 0.0,
			"-0.024": 0.0,
			"-0.023": 0.0,
			"-0.022": 0.0,
			"-0.021": 0.0,
			"-0.02": 0.0,
			"-0.019": 0.0,
			"-0.018": 0.0,
			"-0.017": 0.0,
			"-0.016": 0.0,
			"-0.015": 0.686744379233,
			"-0.014": 2.2964070358,
			"-0.013": 2.55473761191,
			"-0.012": 2.90527222764,
			"-0.011": 3.01133401346,
			"-0.01": 2.164111785,
			"-0.009": 1.64862290471,
			"-0.008": 3.11440985378,
			"-0.007": 4.28624223079,
			"-0.006": 4.54983057587,
			"-0.005": 7.51409712382,
			"-0.004": 9.80970067846,
			"-0.003": 12.376647842,
			"-0.002": 13.3421848029,
			"-0.001": 18.9985376759,
			"0.0": 17.5833195746,
			"0.001": 11.8453366623,
			"0.002": 7.39224455903,
			"0.003": 5.06109812933,
			"0.004": 5.53921854666,
			"0.005": 4.49572151686,
			"0.006": 5.19123791998,
			"0.007": 5.76091204153,
			"0.008": 8.54400632216,
			"0.009": 6.42880223565,
			"0.01": 5.7880179415,
			"0.011": 4.12936219872,
			"0.012": 0.668355412514,
			"0.013": 0.701195002446,
			"0.014": 0.878279922104,
			"0.015": 0.166075817374,
			"0.016": 0.0,
			"0.017": 0.0,
			"0.018": 0.0,
			"0.019": 0.0,
			"0.02": 0.0,
			"0.021": 0.0,
			"0.022": 0.0,
			"0.023": 0.0,
			"0.024": 0.0,
			"0.025": 0.0
		}
	}
}
