{
	 "smiles": "COC1=CC(Br)=C(OC)C=C1CCl", 
	 "Tm": 339.15, 
	 "num_atms": 23, 
	 "gaussian": { 
		 "optdone": 1, 
		 "sigma_profile": "yes", 
		 "theory": "DFT", 
		 "functional": "B3LYP", 
		 "basiset": "6-31G**", 
		 "properties": { 
			 "R2extent": 4568.199, 
			 "electric_dipole_moment_norm": 1.88017632684, 
			 "electric_quadrupole_moment_norm": 23.3409832779, 
			 "total_energy": -3531.00548893, 
			 "HOMO_LUMO_gap": 0.17611, 
			 "cosmo_polarized_energy": -10.78, 
			 "cosmo_cavitation_energy": 30.82, 
			 "cosmo_dispersion_energy": -22.52, 
			 "cosmo_repulsion_energy": 1.83, 
			 "cosmo_total_nonelectrostatic_energy": 10.13, 
			 "SMD_solvation_energy": 5.36 
		},
		"coords": [
			{
				"x": -4.2270773034,
				"y": -0.0510968014,
				"z": 0.4761325152,
				"element": "C" 
			},
			{
				"x": -3.2076219879,
				"y": -0.982542473,
				"z": 0.1465694837,
				"element": "O" 
			},
			{
				"x": -1.9435391769,
				"y": -0.5175340496,
				"z": -0.0688720857,
				"element": "C" 
			},
			{
				"x": -1.5862668547,
				"y": 0.8335705971,
				"z": -0.0107423675,
				"element": "C" 
			},
			{
				"x": -0.268782015,
				"y": 1.2172639315,
				"z": -0.2451287253,
				"element": "C" 
			},
			{
				"x": 0.1787189912,
				"y": 3.0663098369,
				"z": -0.1562791006,
				"element": "Br" 
			},
			{
				"x": 0.7264592903,
				"y": 0.2745467726,
				"z": -0.5453424409,
				"element": "C" 
			},
			{
				"x": 1.9872548086,
				"y": 0.7368459562,
				"z": -0.7612865015,
				"element": "O" 
			},
			{
				"x": 3.0112580776,
				"y": -0.2058582196,
				"z": -1.0374140287,
				"element": "C" 
			},
			{
				"x": 0.3495555847,
				"y": -1.0714695818,
				"z": -0.6047336506,
				"element": "C" 
			},
			{
				"x": -0.9664903769,
				"y": -1.4833067333,
				"z": -0.3736850899,
				"element": "C" 
			},
			{
				"x": -1.3303360648,
				"y": -2.9308318795,
				"z": -0.446299146,
				"element": "C" 
			},
			{
				"x": -1.2055119453,
				"y": -3.7727313849,
				"z": 1.1886300063,
				"element": "Cl" 
			},
			{
				"x": -5.1357418987,
				"y": -0.638250755,
				"z": 0.6147802979,
				"element": "H" 
			},
			{
				"x": -4.3859099762,
				"y": 0.6767944245,
				"z": -0.3298694027,
				"element": "H" 
			},
			{
				"x": -3.9973824839,
				"y": 0.4837955028,
				"z": 1.4060479291,
				"element": "H" 
			},
			{
				"x": -2.3163480663,
				"y": 1.5984541878,
				"z": 0.2162299893,
				"element": "H" 
			},
			{
				"x": 3.9258804871,
				"y": 0.3758256514,
				"z": -1.1587501567,
				"element": "H" 
			},
			{
				"x": 3.1410307601,
				"y": -0.9162823488,
				"z": -0.2110269201,
				"element": "H" 
			},
			{
				"x": 2.8120406792,
				"y": -0.7613860205,
				"z": -1.9630537907,
				"element": "H" 
			},
			{
				"x": 1.0908247224,
				"y": -1.8298080547,
				"z": -0.8298560511,
				"element": "H" 
			},
			{
				"x": -0.6579030568,
				"y": -3.4832837023,
				"z": -1.1019050989,
				"element": "H" 
			},
			{
				"x": -2.3622121946,
				"y": -3.0741248566,
				"z": -0.7594456648,
				"element": "H" 
			}
		],
		 "valence_orbital": [ 
			{
				"type": "occ",
				"energy": -0.28861,
				"method": "rhf"
			},
			{
				"type": "occ",
				"energy": -0.28526,
				"method": "rhf"
			},
			{
				"type": "occ",
				"energy": -0.28171,
				"method": "rhf"
			},
			{
				"type": "occ",
				"energy": -0.24991,
				"method": "rhf"
			},
			{
				"type": "occ",
				"energy": -0.21094,
				"method": "rhf"
			},
			{
				"type": "unocc",
				"energy": -0.03483,
				"method": "rhf"
			},
			{
				"type": "unocc",
				"energy": 0.00611,
				"method": "rhf"
			},
			{
				"type": "unocc",
				"energy": 0.00784,
				"method": "rhf"
			},
			{
				"type": "unocc",
				"energy": 0.04383,
				"method": "rhf"
			},
			{
				"type": "unocc",
				"energy": 0.09204,
				"method": "rhf"
			}
		],
		"cosmo_sigma_profile": { 
			"-0.025": 0.0,
			"-0.024": 0.0,
			"-0.023": 0.0,
			"-0.022": 0.0,
			"-0.021": 0.0,
			"-0.02": 0.0,
			"-0.019": 0.0,
			"-0.018": 0.0,
			"-0.017": 0.0,
			"-0.016": 0.0,
			"-0.015": 0.0,
			"-0.014": 0.0,
			"-0.013": 0.0,
			"-0.012": 0.0,
			"-0.011": 0.0,
			"-0.01": 0.0,
			"-0.009": 0.0664549911004,
			"-0.008": 3.5483963627,
			"-0.007": 8.35211041634,
			"-0.006": 18.764435679,
			"-0.005": 21.9309765491,
			"-0.004": 22.6967796808,
			"-0.003": 19.9929512634,
			"-0.002": 12.0868028161,
			"-0.001": 9.93324251251,
			"0.0": 10.7512660082,
			"0.001": 14.3505858402,
			"0.002": 23.6861627233,
			"0.003": 20.3309042117,
			"0.004": 16.1594718157,
			"0.005": 15.1722837836,
			"0.006": 11.4647390168,
			"0.007": 13.9152686792,
			"0.008": 3.32399836603,
			"0.009": 1.87339045821,
			"0.01": 1.83000038775,
			"0.011": 0.273122526307,
			"0.012": 0.0,
			"0.013": 0.0,
			"0.014": 0.0,
			"0.015": 0.0,
			"0.016": 0.0,
			"0.017": 0.0,
			"0.018": 0.0,
			"0.019": 0.0,
			"0.02": 0.0,
			"0.021": 0.0,
			"0.022": 0.0,
			"0.023": 0.0,
			"0.024": 0.0,
			"0.025": 0.0
		}
	}
}
