{
	 "smiles": "ClC1=CC=C2SC=C(C=O)C2=C1", 
	 "Tm": 383.15, 
	 "num_atms": 17, 
	 "gaussian": { 
		 "optdone": 1, 
		 "sigma_profile": "yes", 
		 "theory": "DFT", 
		 "functional": "B3LYP", 
		 "basiset": "6-31G**", 
		 "properties": { 
			 "R2extent": 3574.797, 
			 "electric_dipole_moment_norm": 4.10416686795, 
			 "electric_quadrupole_moment_norm": 13.2221185243, 
			 "total_energy": -1279.56730095, 
			 "HOMO_LUMO_gap": 0.16888, 
			 "cosmo_polarized_energy": -9.18, 
			 "cosmo_cavitation_energy": 25.13, 
			 "cosmo_dispersion_energy": -19.23, 
			 "cosmo_repulsion_energy": 1.46, 
			 "cosmo_total_nonelectrostatic_energy": 7.36, 
			 "SMD_solvation_energy": 4.66 
		},
		"coords": [
			{
				"x": -0.5381057992,
				"y": -0.957760358,
				"z": -4.0048759922,
				"element": "Cl" 
			},
			{
				"x": -0.2711527768,
				"y": -0.2467189003,
				"z": -2.4189642317,
				"element": "C" 
			},
			{
				"x": 0.8554756407,
				"y": -0.6541347729,
				"z": -1.684084829,
				"element": "C" 
			},
			{
				"x": 1.09472384,
				"y": -0.1111602663,
				"z": -0.4276661185,
				"element": "C" 
			},
			{
				"x": 0.1957934205,
				"y": 0.8350667856,
				"z": 0.0718177306,
				"element": "C" 
			},
			{
				"x": 0.2805620925,
				"y": 1.6620037242,
				"z": 1.6261476073,
				"element": "S" 
			},
			{
				"x": -1.1758274951,
				"y": 2.5319768647,
				"z": 1.2766845125,
				"element": "C" 
			},
			{
				"x": -1.7195550302,
				"y": 2.2328763591,
				"z": 0.0553540129,
				"element": "C" 
			},
			{
				"x": -2.9549575878,
				"y": 2.8725524855,
				"z": -0.4133284216,
				"element": "C" 
			},
			{
				"x": -3.4911343386,
				"y": 2.6521759589,
				"z": -1.48551899,
				"element": "O" 
			},
			{
				"x": -0.9379800903,
				"y": 1.245471576,
				"z": -0.66693044,
				"element": "C" 
			},
			{
				"x": -1.1725805204,
				"y": 0.690857744,
				"z": -1.9378019382,
				"element": "C" 
			},
			{
				"x": 1.5314134984,
				"y": -1.3906015561,
				"z": -2.1032972464,
				"element": "H" 
			},
			{
				"x": 1.9626935412,
				"y": -0.421024624,
				"z": 0.1454908133,
				"element": "H" 
			},
			{
				"x": -1.5672413338,
				"y": 3.2344471868,
				"z": 2.0020507622,
				"element": "H" 
			},
			{
				"x": -3.3921725442,
				"y": 3.6022218005,
				"z": 0.3027506281,
				"element": "H" 
			},
			{
				"x": -2.0379545168,
				"y": 0.9995499922,
				"z": -2.5097278592,
				"element": "H" 
			}
		],
		 "valence_orbital": [ 
			{
				"type": "occ",
				"energy": -0.31439,
				"method": "rhf"
			},
			{
				"type": "occ",
				"energy": -0.29868,
				"method": "rhf"
			},
			{
				"type": "occ",
				"energy": -0.26307,
				"method": "rhf"
			},
			{
				"type": "occ",
				"energy": -0.25133,
				"method": "rhf"
			},
			{
				"type": "occ",
				"energy": -0.24005,
				"method": "rhf"
			},
			{
				"type": "unocc",
				"energy": -0.07117,
				"method": "rhf"
			},
			{
				"type": "unocc",
				"energy": -0.02969,
				"method": "rhf"
			},
			{
				"type": "unocc",
				"energy": -0.02118,
				"method": "rhf"
			},
			{
				"type": "unocc",
				"energy": -0.00144,
				"method": "rhf"
			},
			{
				"type": "unocc",
				"energy": 0.03144,
				"method": "rhf"
			}
		],
		"cosmo_sigma_profile": { 
			"-0.025": 0.0,
			"-0.024": 0.0,
			"-0.023": 0.0,
			"-0.022": 0.0,
			"-0.021": 0.0,
			"-0.02": 0.0,
			"-0.019": 0.0,
			"-0.018": 0.0,
			"-0.017": 0.0,
			"-0.016": 0.0,
			"-0.015": 0.0,
			"-0.014": 0.0,
			"-0.013": 0.0,
			"-0.012": 0.0,
			"-0.011": 0.43627481952,
			"-0.01": 3.44138534955,
			"-0.009": 3.27859137657,
			"-0.008": 6.45463695445,
			"-0.007": 8.36010382004,
			"-0.006": 8.26156686823,
			"-0.005": 7.42307136507,
			"-0.004": 8.12449449973,
			"-0.003": 9.97519776008,
			"-0.002": 9.92725341132,
			"-0.001": 15.4350206358,
			"0.0": 20.7562620085,
			"0.001": 26.8468982807,
			"0.002": 27.906540053,
			"0.003": 16.9481477974,
			"0.004": 11.472002958,
			"0.005": 7.92291918921,
			"0.006": 1.4557637324,
			"0.007": 1.47368573753,
			"0.008": 1.97336258526,
			"0.009": 1.89960569691,
			"0.01": 2.47648957023,
			"0.011": 2.75720704397,
			"0.012": 2.12940144711,
			"0.013": 0.712002194444,
			"0.014": 0.0,
			"0.015": 0.0,
			"0.016": 0.0,
			"0.017": 0.0,
			"0.018": 0.0,
			"0.019": 0.0,
			"0.02": 0.0,
			"0.021": 0.0,
			"0.022": 0.0,
			"0.023": 0.0,
			"0.024": 0.0,
			"0.025": 0.0
		}
	}
}
