{
	 "smiles": "CCOC1=CC=C(NS(=O)(=O)C2=CC=C(N)C=C2)C=C1", 
	 "Tm": 419.15, 
	 "num_atms": 36, 
	 "gaussian": { 
		 "optdone": 1, 
		 "sigma_profile": "yes", 
		 "theory": "DFT", 
		 "functional": "B3LYP", 
		 "basiset": "6-31G**", 
		 "properties": { 
			 "R2extent": 8028.7803, 
			 "electric_dipole_moment_norm": 5.87779769642, 
			 "electric_quadrupole_moment_norm": 33.6541037178, 
			 "total_energy": -1276.42390621, 
			 "HOMO_LUMO_gap": 0.19498, 
			 "cosmo_polarized_energy": -22.93, 
			 "cosmo_cavitation_energy": 41.45, 
			 "cosmo_dispersion_energy": -29.24, 
			 "cosmo_repulsion_energy": 2.24, 
			 "cosmo_total_nonelectrostatic_energy": 14.45, 
			 "SMD_solvation_energy": 6.45 
		},
		"coords": [
			{
				"x": 4.3739350677,
				"y": 2.8467615045,
				"z": 0.3528619443,
				"element": "C" 
			},
			{
				"x": 4.7848558765,
				"y": 1.5516544702,
				"z": -0.3402138931,
				"element": "C" 
			},
			{
				"x": 3.9855369075,
				"y": 0.4355221957,
				"z": 0.061075311,
				"element": "O" 
			},
			{
				"x": 2.7498752177,
				"y": 0.2485832612,
				"z": -0.486592022,
				"element": "C" 
			},
			{
				"x": 2.1821879257,
				"y": 1.0412074591,
				"z": -1.4938490887,
				"element": "C" 
			},
			{
				"x": 0.90997659,
				"y": 0.7368529806,
				"z": -1.9802945087,
				"element": "C" 
			},
			{
				"x": 0.1992814726,
				"y": -0.3631125811,
				"z": -1.4948246214,
				"element": "C" 
			},
			{
				"x": -1.0960753469,
				"y": -0.7169035903,
				"z": -2.0002684792,
				"element": "N" 
			},
			{
				"x": -2.4816644648,
				"y": 0.0466298608,
				"z": -1.325714579,
				"element": "S" 
			},
			{
				"x": -3.5256497145,
				"y": -0.2104031972,
				"z": -2.325332679,
				"element": "O" 
			},
			{
				"x": -2.1696359099,
				"y": 1.4154908004,
				"z": -0.896246838,
				"element": "O" 
			},
			{
				"x": -2.7970847783,
				"y": -0.9176595914,
				"z": 0.1343131811,
				"element": "C" 
			},
			{
				"x": -2.5249841038,
				"y": -0.3795181836,
				"z": 1.3943655821,
				"element": "C" 
			},
			{
				"x": -2.7829758562,
				"y": -1.1299790566,
				"z": 2.5347987661,
				"element": "C" 
			},
			{
				"x": -3.319459372,
				"y": -2.4281554559,
				"z": 2.4328426809,
				"element": "C" 
			},
			{
				"x": -3.6239305658,
				"y": -3.1575922183,
				"z": 3.5689557,
				"element": "N" 
			},
			{
				"x": -3.5931775048,
				"y": -2.9520685138,
				"z": 1.1515605648,
				"element": "C" 
			},
			{
				"x": -3.3366174245,
				"y": -2.2031611795,
				"z": 0.0129203778,
				"element": "C" 
			},
			{
				"x": 0.7743523771,
				"y": -1.154498887,
				"z": -0.4913203807,
				"element": "C" 
			},
			{
				"x": 2.0310652726,
				"y": -0.8486345613,
				"z": 0.013748312,
				"element": "C" 
			},
			{
				"x": 4.4203081835,
				"y": 2.7253735001,
				"z": 1.4388169445,
				"element": "H" 
			},
			{
				"x": 3.3562904744,
				"y": 3.1446531186,
				"z": 0.0866682057,
				"element": "H" 
			},
			{
				"x": 5.0535256831,
				"y": 3.6565970507,
				"z": 0.0668443085,
				"element": "H" 
			},
			{
				"x": 5.8022641462,
				"y": 1.273487781,
				"z": -0.0510000649,
				"element": "H" 
			},
			{
				"x": 4.7728346252,
				"y": 1.655731614,
				"z": -1.432641765,
				"element": "H" 
			},
			{
				"x": 2.7062807336,
				"y": 1.9000617568,
				"z": -1.8950965764,
				"element": "H" 
			},
			{
				"x": 0.4621413423,
				"y": 1.3704113331,
				"z": -2.7401600554,
				"element": "H" 
			},
			{
				"x": -1.1956392282,
				"y": -0.6062877969,
				"z": -3.0075503534,
				"element": "H" 
			},
			{
				"x": -2.119838434,
				"y": 0.62342135,
				"z": 1.4688363578,
				"element": "H" 
			},
			{
				"x": -2.5773441173,
				"y": -0.7107065431,
				"z": 3.5161217492,
				"element": "H" 
			},
			{
				"x": -3.159910049,
				"y": -2.8869473329,
				"z": 4.4233098322,
				"element": "H" 
			},
			{
				"x": -3.7187900413,
				"y": -4.1562869399,
				"z": 3.4591649905,
				"element": "H" 
			},
			{
				"x": -4.0195573454,
				"y": -3.9476097887,
				"z": 1.0606301773,
				"element": "H" 
			},
			{
				"x": -3.5589675477,
				"y": -2.6054273682,
				"z": -0.9696502671,
				"element": "H" 
			},
			{
				"x": 0.227687524,
				"y": -2.0161023056,
				"z": -0.1225777368,
				"element": "H" 
			},
			{
				"x": 2.4897023851,
				"y": -1.4557849454,
				"z": 0.7871989228,
				"element": "H" 
			}
		],
		 "valence_orbital": [ 
			{
				"type": "occ",
				"energy": -0.26784,
				"method": "rhf"
			},
			{
				"type": "occ",
				"energy": -0.26305,
				"method": "rhf"
			},
			{
				"type": "occ",
				"energy": -0.25338,
				"method": "rhf"
			},
			{
				"type": "occ",
				"energy": -0.21966,
				"method": "rhf"
			},
			{
				"type": "occ",
				"energy": -0.21413,
				"method": "rhf"
			},
			{
				"type": "unocc",
				"energy": -0.01915,
				"method": "rhf"
			},
			{
				"type": "unocc",
				"energy": -0.01155,
				"method": "rhf"
			},
			{
				"type": "unocc",
				"energy": -0.0047,
				"method": "rhf"
			},
			{
				"type": "unocc",
				"energy": 0.00315,
				"method": "rhf"
			},
			{
				"type": "unocc",
				"energy": 0.06309,
				"method": "rhf"
			}
		],
		"cosmo_sigma_profile": { 
			"-0.025": 0.0,
			"-0.024": 0.0,
			"-0.023": 0.0,
			"-0.022": 0.0,
			"-0.021": 0.0,
			"-0.02": 0.0,
			"-0.019": 0.0,
			"-0.018": 0.0,
			"-0.017": 0.0,
			"-0.016": 0.0,
			"-0.015": 0.129518907819,
			"-0.014": 1.24941336485,
			"-0.013": 3.59964892998,
			"-0.012": 3.86605152172,
			"-0.011": 4.38573196195,
			"-0.01": 5.21278761855,
			"-0.009": 3.69492572162,
			"-0.008": 3.76555762667,
			"-0.007": 10.4387776796,
			"-0.006": 16.6664590634,
			"-0.005": 18.9491839924,
			"-0.004": 23.3674303236,
			"-0.003": 22.4486920508,
			"-0.002": 19.0295634915,
			"-0.001": 18.6541776039,
			"0.0": 21.381592057,
			"0.001": 18.9501164871,
			"0.002": 20.3439208413,
			"0.003": 25.3293007649,
			"0.004": 26.0915223595,
			"0.005": 11.3011566926,
			"0.006": 7.59749393432,
			"0.007": 4.69827047921,
			"0.008": 5.36196160113,
			"0.009": 7.32657560255,
			"0.01": 8.70592373671,
			"0.011": 10.0951023761,
			"0.012": 6.32313313986,
			"0.013": 0.142160120278,
			"0.014": 0.0,
			"0.015": 0.0,
			"0.016": 0.0,
			"0.017": 0.0,
			"0.018": 0.0,
			"0.019": 0.0,
			"0.02": 0.0,
			"0.021": 0.0,
			"0.022": 0.0,
			"0.023": 0.0,
			"0.024": 0.0,
			"0.025": 0.0
		}
	}
}
