{
	 "smiles": "N#CCCP(CCC#N)C1=CC=CC=C1", 
	 "Tm": 346.15, 
	 "num_atms": 28, 
	 "gaussian": { 
		 "optdone": 1, 
		 "sigma_profile": "yes", 
		 "theory": "DFT", 
		 "functional": "B3LYP", 
		 "basiset": "6-31G**", 
		 "properties": { 
			 "R2extent": 4136.8277, 
			 "electric_dipole_moment_norm": 5.03224836927, 
			 "electric_quadrupole_moment_norm": 21.0483309911, 
			 "total_energy": -915.924404868, 
			 "HOMO_LUMO_gap": 0.20579, 
			 "cosmo_polarized_energy": -18.31, 
			 "cosmo_cavitation_energy": 33.53, 
			 "cosmo_dispersion_energy": -22.86, 
			 "cosmo_repulsion_energy": 1.92, 
			 "cosmo_total_nonelectrostatic_energy": 12.59, 
			 "SMD_solvation_energy": 8.19 
		},
		"coords": [
			{
				"x": 0.8563569757,
				"y": 3.1907228063,
				"z": -1.8228610237,
				"element": "N" 
			},
			{
				"x": 1.3613197405,
				"y": 2.1447081062,
				"z": -1.8175139931,
				"element": "C" 
			},
			{
				"x": 2.0091238494,
				"y": 0.83186455,
				"z": -1.7974941051,
				"element": "C" 
			},
			{
				"x": 2.3642384575,
				"y": 0.2943915369,
				"z": -0.3888258833,
				"element": "C" 
			},
			{
				"x": 1.1055993253,
				"y": -0.5459324588,
				"z": 0.7563535602,
				"element": "P" 
			},
			{
				"x": -0.4263982067,
				"y": -0.8381047203,
				"z": -0.3040208429,
				"element": "C" 
			},
			{
				"x": -1.3887143237,
				"y": 0.3362171884,
				"z": -0.5920336575,
				"element": "C" 
			},
			{
				"x": -2.5388339198,
				"y": -0.1028692698,
				"z": -1.388600502,
				"element": "C" 
			},
			{
				"x": -3.4347262089,
				"y": -0.480190971,
				"z": -2.0235902485,
				"element": "N" 
			},
			{
				"x": 0.5543642786,
				"y": 0.7733382987,
				"z": 1.9298635319,
				"element": "C" 
			},
			{
				"x": 0.1177296319,
				"y": 0.3176359644,
				"z": 3.1871196662,
				"element": "C" 
			},
			{
				"x": -0.3241938921,
				"y": 1.2122355241,
				"z": 4.1624710876,
				"element": "C" 
			},
			{
				"x": -0.3166622146,
				"y": 2.5839693019,
				"z": 3.9052327518,
				"element": "C" 
			},
			{
				"x": 0.127968451,
				"y": 3.0529812993,
				"z": 2.6678337784,
				"element": "C" 
			},
			{
				"x": 0.5555756955,
				"y": 2.1573394421,
				"z": 1.6856797989,
				"element": "C" 
			},
			{
				"x": 2.9324806621,
				"y": 0.9223471006,
				"z": -2.3831109758,
				"element": "H" 
			},
			{
				"x": 1.3738298224,
				"y": 0.1255920045,
				"z": -2.343385113,
				"element": "H" 
			},
			{
				"x": 2.8559402938,
				"y": 1.0773811223,
				"z": 0.1968396703,
				"element": "H" 
			},
			{
				"x": 3.1206647014,
				"y": -0.4811768947,
				"z": -0.5450946133,
				"element": "H" 
			},
			{
				"x": -0.9810758797,
				"y": -1.6236756763,
				"z": 0.2192565376,
				"element": "H" 
			},
			{
				"x": -0.0880273384,
				"y": -1.2973724431,
				"z": -1.2402116929,
				"element": "H" 
			},
			{
				"x": -0.8945829855,
				"y": 1.155429656,
				"z": -1.1224687242,
				"element": "H" 
			},
			{
				"x": -1.7551324227,
				"y": 0.7581509768,
				"z": 0.3493645572,
				"element": "H" 
			},
			{
				"x": 0.1362972137,
				"y": -0.7472194962,
				"z": 3.4054568558,
				"element": "H" 
			},
			{
				"x": -0.6603589536,
				"y": 0.838462235,
				"z": 5.1253887372,
				"element": "H" 
			},
			{
				"x": -0.650648689,
				"y": 3.2839021999,
				"z": 4.6657061546,
				"element": "H" 
			},
			{
				"x": 0.1370540835,
				"y": 4.118984515,
				"z": 2.4593998542,
				"element": "H" 
			},
			{
				"x": 0.8791118526,
				"y": 2.5517881019,
				"z": 0.7288448336,
				"element": "H" 
			}
		],
		 "valence_orbital": [ 
			{
				"type": "occ",
				"energy": -0.32221,
				"method": "rhf"
			},
			{
				"type": "occ",
				"energy": -0.31845,
				"method": "rhf"
			},
			{
				"type": "occ",
				"energy": -0.27084,
				"method": "rhf"
			},
			{
				"type": "occ",
				"energy": -0.263,
				"method": "rhf"
			},
			{
				"type": "occ",
				"energy": -0.23705,
				"method": "rhf"
			},
			{
				"type": "unocc",
				"energy": -0.03126,
				"method": "rhf"
			},
			{
				"type": "unocc",
				"energy": -0.01539,
				"method": "rhf"
			},
			{
				"type": "unocc",
				"energy": 0.00874,
				"method": "rhf"
			},
			{
				"type": "unocc",
				"energy": 0.01625,
				"method": "rhf"
			},
			{
				"type": "unocc",
				"energy": 0.02021,
				"method": "rhf"
			}
		],
		"cosmo_sigma_profile": { 
			"-0.025": 0.0,
			"-0.024": 0.0,
			"-0.023": 0.0,
			"-0.022": 0.0,
			"-0.021": 0.0,
			"-0.02": 0.0,
			"-0.019": 0.0,
			"-0.018": 0.00567039746047,
			"-0.017": 0.0596708786405,
			"-0.016": 0.022509762635,
			"-0.015": 0.0517304212711,
			"-0.014": 0.0157058379928,
			"-0.013": 0.0135524965096,
			"-0.012": 0.0537968071594,
			"-0.011": 0.190869894905,
			"-0.01": 1.16683157947,
			"-0.009": 4.71223691193,
			"-0.008": 7.70073304281,
			"-0.007": 9.36710483735,
			"-0.006": 22.7133508936,
			"-0.005": 25.5567582992,
			"-0.004": 24.4174997589,
			"-0.003": 19.9854905392,
			"-0.002": 17.4168414518,
			"-0.001": 12.399487413,
			"0.0": 11.5168950444,
			"0.001": 12.7613494538,
			"0.002": 10.9030219839,
			"0.003": 13.7082637836,
			"0.004": 13.0432590682,
			"0.005": 11.5151233027,
			"0.006": 7.59685145781,
			"0.007": 5.61149968644,
			"0.008": 6.33803375244,
			"0.009": 6.93575278783,
			"0.01": 6.32029576089,
			"0.011": 6.20398588797,
			"0.012": 5.48399674958,
			"0.013": 4.35721232457,
			"0.014": 1.17578665446,
			"0.015": 0.111957085642,
			"0.016": 0.0,
			"0.017": 0.0,
			"0.018": 0.0,
			"0.019": 0.0,
			"0.02": 0.0,
			"0.021": 0.0,
			"0.022": 0.0,
			"0.023": 0.0,
			"0.024": 0.0,
			"0.025": 0.0
		}
	}
}
