{
	 "smiles": "CCOC1=C(C=C(C=C1)C(C)=O)[N+]([O-])=O", 
	 "Tm": 328.15, 
	 "num_atms": 26, 
	 "gaussian": { 
		 "optdone": 1, 
		 "sigma_profile": "yes", 
		 "theory": "DFT", 
		 "functional": "B3LYP", 
		 "basiset": "6-31G**", 
		 "properties": { 
			 "R2extent": 4035.5361, 
			 "electric_dipole_moment_norm": 3.49965327568, 
			 "electric_quadrupole_moment_norm": 27.6315980781, 
			 "total_energy": -743.233128732, 
			 "HOMO_LUMO_gap": 0.16882, 
			 "cosmo_polarized_energy": -14.78, 
			 "cosmo_cavitation_energy": 31.05, 
			 "cosmo_dispersion_energy": -22.09, 
			 "cosmo_repulsion_energy": 1.75, 
			 "cosmo_total_nonelectrostatic_energy": 10.71, 
			 "SMD_solvation_energy": 8.72 
		},
		"coords": [
			{
				"x": 0.1279399559,
				"y": -1.1558278427,
				"z": -4.9461943446,
				"element": "C" 
			},
			{
				"x": -0.7135429366,
				"y": -0.6281917734,
				"z": -3.7991962337,
				"element": "C" 
			},
			{
				"x": 0.0262413951,
				"y": -0.8661786862,
				"z": -2.5903112006,
				"element": "O" 
			},
			{
				"x": -0.4822289105,
				"y": -0.4836286355,
				"z": -1.4107180099,
				"element": "C" 
			},
			{
				"x": 0.2842932423,
				"y": -0.6818936491,
				"z": -0.2343562162,
				"element": "C" 
			},
			{
				"x": -0.1773845632,
				"y": -0.2537601122,
				"z": 1.007251058,
				"element": "C" 
			},
			{
				"x": -1.4239978567,
				"y": 0.3605819614,
				"z": 1.136721194,
				"element": "C" 
			},
			{
				"x": -2.1927704124,
				"y": 0.5498124463,
				"z": -0.0229767116,
				"element": "C" 
			},
			{
				"x": -1.7348907409,
				"y": 0.1465008102,
				"z": -1.2675076013,
				"element": "C" 
			},
			{
				"x": -1.975985525,
				"y": 0.8268434304,
				"z": 2.4475928672,
				"element": "C" 
			},
			{
				"x": -1.1472952404,
				"y": 0.6258711021,
				"z": 3.7034464282,
				"element": "C" 
			},
			{
				"x": -3.0746852055,
				"y": 1.3597069601,
				"z": 2.4972851718,
				"element": "O" 
			},
			{
				"x": 1.5933270699,
				"y": -1.3491921362,
				"z": -0.2558869783,
				"element": "N" 
			},
			{
				"x": 2.3620013827,
				"y": -1.0979617556,
				"z": 0.6767395543,
				"element": "O" 
			},
			{
				"x": 1.83972618,
				"y": -2.1292074725,
				"z": -1.1708218793,
				"element": "O" 
			},
			{
				"x": 0.3199602803,
				"y": -2.2245124875,
				"z": -4.8221756377,
				"element": "H" 
			},
			{
				"x": 1.088233267,
				"y": -0.6357344784,
				"z": -4.9913887503,
				"element": "H" 
			},
			{
				"x": -0.3981196539,
				"y": -1.0012723184,
				"z": -5.8930629141,
				"element": "H" 
			},
			{
				"x": -0.9049551444,
				"y": 0.4473733706,
				"z": -3.9066489836,
				"element": "H" 
			},
			{
				"x": -1.679168145,
				"y": -1.1469308246,
				"z": -3.7442623947,
				"element": "H" 
			},
			{
				"x": 0.4714109,
				"y": -0.4189015263,
				"z": 1.8579532009,
				"element": "H" 
			},
			{
				"x": -3.1608326601,
				"y": 1.0289245611,
				"z": 0.0805486664,
				"element": "H" 
			},
			{
				"x": -2.3497323635,
				"y": 0.3208081739,
				"z": -2.1410987206,
				"element": "H" 
			},
			{
				"x": -0.1823431073,
				"y": 1.1388657608,
				"z": 3.6249648787,
				"element": "H" 
			},
			{
				"x": -0.9384767697,
				"y": -0.436493268,
				"z": 3.8715412454,
				"element": "H" 
			},
			{
				"x": -1.7007244379,
				"y": 1.0242983895,
				"z": 4.5539623117,
				"element": "H" 
			}
		],
		 "valence_orbital": [ 
			{
				"type": "occ",
				"energy": -0.30261,
				"method": "rhf"
			},
			{
				"type": "occ",
				"energy": -0.29284,
				"method": "rhf"
			},
			{
				"type": "occ",
				"energy": -0.27768,
				"method": "rhf"
			},
			{
				"type": "occ",
				"energy": -0.25671,
				"method": "rhf"
			},
			{
				"type": "occ",
				"energy": -0.2526,
				"method": "rhf"
			},
			{
				"type": "unocc",
				"energy": -0.08378,
				"method": "rhf"
			},
			{
				"type": "unocc",
				"energy": -0.06147,
				"method": "rhf"
			},
			{
				"type": "unocc",
				"energy": -0.01295,
				"method": "rhf"
			},
			{
				"type": "unocc",
				"energy": 0.03558,
				"method": "rhf"
			},
			{
				"type": "unocc",
				"energy": 0.07035,
				"method": "rhf"
			}
		],
		"cosmo_sigma_profile": { 
			"-0.025": 0.0,
			"-0.024": 0.0,
			"-0.023": 0.0,
			"-0.022": 0.0,
			"-0.021": 0.0,
			"-0.02": 0.0,
			"-0.019": 0.0,
			"-0.018": 0.0,
			"-0.017": 0.0,
			"-0.016": 0.0,
			"-0.015": 0.0,
			"-0.014": 0.0,
			"-0.013": 0.0,
			"-0.012": 0.0,
			"-0.011": 0.0,
			"-0.01": 0.0,
			"-0.009": 0.201543617702,
			"-0.008": 3.78018070262,
			"-0.007": 9.86096441116,
			"-0.006": 18.9663566721,
			"-0.005": 19.1791522557,
			"-0.004": 21.2384416947,
			"-0.003": 19.9525291016,
			"-0.002": 21.0775796853,
			"-0.001": 24.4256964761,
			"0.0": 21.9634541204,
			"0.001": 14.2356862449,
			"0.002": 7.99837095639,
			"0.003": 4.85502648669,
			"0.004": 4.6016514587,
			"0.005": 5.85439625955,
			"0.006": 4.66320019876,
			"0.007": 6.91957615985,
			"0.008": 11.7856823025,
			"0.009": 8.88143844106,
			"0.01": 6.74852004367,
			"0.011": 4.90208123411,
			"0.012": 3.49791983292,
			"0.013": 1.22129493786,
			"0.014": 0.0497769467043,
			"0.015": 0.0,
			"0.016": 0.0,
			"0.017": 0.0,
			"0.018": 0.0,
			"0.019": 0.0,
			"0.02": 0.0,
			"0.021": 0.0,
			"0.022": 0.0,
			"0.023": 0.0,
			"0.024": 0.0,
			"0.025": 0.0
		}
	}
}
