{
	 "smiles": "CC1(NC(=O)NC1=O)C1=CC2=C(O1)C=CC=C2", 
	 "Tm": 477.15, 
	 "num_atms": 27, 
	 "gaussian": { 
		 "optdone": 1, 
		 "sigma_profile": "yes", 
		 "theory": "DFT", 
		 "functional": "B3LYP", 
		 "basiset": "6-31G**", 
		 "properties": { 
			 "R2extent": 4878.8974, 
			 "electric_dipole_moment_norm": 2.23913150574, 
			 "electric_quadrupole_moment_norm": 12.7565225132, 
			 "total_energy": -798.512165735, 
			 "HOMO_LUMO_gap": 0.19665, 
			 "cosmo_polarized_energy": -15.2, 
			 "cosmo_cavitation_energy": 31.83, 
			 "cosmo_dispersion_energy": -22.87, 
			 "cosmo_repulsion_energy": 1.78, 
			 "cosmo_total_nonelectrostatic_energy": 10.74, 
			 "SMD_solvation_energy": 6.64 
		},
		"coords": [
			{
				"x": -3.156955206,
				"y": 0.6533219804,
				"z": -0.4809177362,
				"element": "C" 
			},
			{
				"x": -2.2833167171,
				"y": -0.5867494595,
				"z": -0.7489811591,
				"element": "C" 
			},
			{
				"x": -1.8547482943,
				"y": -0.6691512727,
				"z": -2.1488319737,
				"element": "N" 
			},
			{
				"x": -2.1920662262,
				"y": -1.8590746361,
				"z": -2.7488504903,
				"element": "C" 
			},
			{
				"x": -1.8811060262,
				"y": -2.2723396148,
				"z": -3.8443784291,
				"element": "O" 
			},
			{
				"x": -3.0201024333,
				"y": -2.5271247338,
				"z": -1.8173610044,
				"element": "N" 
			},
			{
				"x": -3.1246421792,
				"y": -1.8802622123,
				"z": -0.6099177965,
				"element": "C" 
			},
			{
				"x": -3.7514754169,
				"y": -2.2316177982,
				"z": 0.367543962,
				"element": "O" 
			},
			{
				"x": -1.1062400209,
				"y": -0.6426905961,
				"z": 0.1900987134,
				"element": "C" 
			},
			{
				"x": -0.8460430875,
				"y": -1.3277869628,
				"z": 1.3320551274,
				"element": "C" 
			},
			{
				"x": 0.4577900215,
				"y": -0.8929463942,
				"z": 1.7756974322,
				"element": "C" 
			},
			{
				"x": 0.8846404454,
				"y": 0.0535856454,
				"z": 0.8261774864,
				"element": "C" 
			},
			{
				"x": -0.0739771089,
				"y": 0.2123849127,
				"z": -0.1446787331,
				"element": "O" 
			},
			{
				"x": 2.1042214156,
				"y": 0.7152295073,
				"z": 0.885847806,
				"element": "C" 
			},
			{
				"x": 2.9264623435,
				"y": 0.3982574263,
				"z": 1.9671895608,
				"element": "C" 
			},
			{
				"x": 2.5303052073,
				"y": -0.5428701865,
				"z": 2.9359318194,
				"element": "C" 
			},
			{
				"x": 1.3030433906,
				"y": -1.1952613026,
				"z": 2.8540679193,
				"element": "C" 
			},
			{
				"x": -2.552351609,
				"y": 1.5607612202,
				"z": -0.5583000364,
				"element": "H" 
			},
			{
				"x": -3.5781358895,
				"y": 0.5906109139,
				"z": 0.5251091681,
				"element": "H" 
			},
			{
				"x": -3.9698464399,
				"y": 0.7064602828,
				"z": -1.2101601198,
				"element": "H" 
			},
			{
				"x": -1.0583565147,
				"y": -0.152217872,
				"z": -2.4917181246,
				"element": "H" 
			},
			{
				"x": -3.4533506013,
				"y": -3.4158252922,
				"z": -2.02417384,
				"element": "H" 
			},
			{
				"x": -1.507622514,
				"y": -2.041461443,
				"z": 1.7998077327,
				"element": "H" 
			},
			{
				"x": 2.3947410517,
				"y": 1.4378280011,
				"z": 0.1310901024,
				"element": "H" 
			},
			{
				"x": 3.8907226202,
				"y": 0.8880182495,
				"z": 2.0623684788,
				"element": "H" 
			},
			{
				"x": 3.1983842726,
				"y": -0.7628312448,
				"z": 3.7632076598,
				"element": "H" 
			},
			{
				"x": 1.0071255164,
				"y": -1.920247118,
				"z": 3.6061764746,
				"element": "H" 
			}
		],
		 "valence_orbital": [ 
			{
				"type": "occ",
				"energy": -0.2953,
				"method": "rhf"
			},
			{
				"type": "occ",
				"energy": -0.27943,
				"method": "rhf"
			},
			{
				"type": "occ",
				"energy": -0.26804,
				"method": "rhf"
			},
			{
				"type": "occ",
				"energy": -0.24558,
				"method": "rhf"
			},
			{
				"type": "occ",
				"energy": -0.22802,
				"method": "rhf"
			},
			{
				"type": "unocc",
				"energy": -0.03137,
				"method": "rhf"
			},
			{
				"type": "unocc",
				"energy": -0.01443,
				"method": "rhf"
			},
			{
				"type": "unocc",
				"energy": 0.0051,
				"method": "rhf"
			},
			{
				"type": "unocc",
				"energy": 0.04369,
				"method": "rhf"
			},
			{
				"type": "unocc",
				"energy": 0.05034,
				"method": "rhf"
			}
		],
		"cosmo_sigma_profile": { 
			"-0.025": 0.0,
			"-0.024": 0.0,
			"-0.023": 0.0,
			"-0.022": 0.0,
			"-0.021": 0.0,
			"-0.02": 0.0,
			"-0.019": 0.0,
			"-0.018": 0.0,
			"-0.017": 0.693216532383,
			"-0.016": 1.63826788677,
			"-0.015": 1.16870037281,
			"-0.014": 1.72209530423,
			"-0.013": 2.14415853796,
			"-0.012": 0.68792459452,
			"-0.011": 2.12972531828,
			"-0.01": 1.60947305992,
			"-0.009": 1.47737680241,
			"-0.008": 2.19222431841,
			"-0.007": 5.02641295445,
			"-0.006": 11.050949264,
			"-0.005": 18.3717190659,
			"-0.004": 19.3170294304,
			"-0.003": 21.294673776,
			"-0.002": 18.9030784686,
			"-0.001": 17.5809903444,
			"0.0": 15.2732864073,
			"0.001": 16.0942706672,
			"0.002": 16.3003388277,
			"0.003": 17.838188493,
			"0.004": 14.4382992944,
			"0.005": 12.8057038155,
			"0.006": 4.17569218058,
			"0.007": 2.39989551034,
			"0.008": 2.66124112896,
			"0.009": 2.50340931133,
			"0.01": 3.61197372018,
			"0.011": 6.33086675766,
			"0.012": 8.94565880349,
			"0.013": 3.86134415258,
			"0.014": 0.120830243101,
			"0.015": 0.0,
			"0.016": 0.0,
			"0.017": 0.0,
			"0.018": 0.0,
			"0.019": 0.0,
			"0.02": 0.0,
			"0.021": 0.0,
			"0.022": 0.0,
			"0.023": 0.0,
			"0.024": 0.0,
			"0.025": 0.0
		}
	}
}
