{
	 "smiles": "FC(F)(F)C1=CC=C(C=C1)C1CCCCN1", 
	 "Tm": 310.15, 
	 "num_atms": 30, 
	 "gaussian": { 
		 "optdone": 1, 
		 "sigma_profile": "yes", 
		 "theory": "DFT", 
		 "functional": "B3LYP", 
		 "basiset": "6-31G**", 
		 "properties": { 
			 "R2extent": 6483.428, 
			 "electric_dipole_moment_norm": 3.43341174927, 
			 "electric_quadrupole_moment_norm": 14.7560572478, 
			 "total_energy": -820.000946373, 
			 "HOMO_LUMO_gap": 0.1937, 
			 "cosmo_polarized_energy": -7.11, 
			 "cosmo_cavitation_energy": 33.0, 
			 "cosmo_dispersion_energy": -23.61, 
			 "cosmo_repulsion_energy": 1.78, 
			 "cosmo_total_nonelectrostatic_energy": 11.17, 
			 "SMD_solvation_energy": 3.67 
		},
		"coords": [
			{
				"x": -1.7410387578,
				"y": -1.5658027217,
				"z": 4.9107757703,
				"element": "F" 
			},
			{
				"x": -0.7595554036,
				"y": -0.6563869985,
				"z": 4.7182397462,
				"element": "C" 
			},
			{
				"x": -1.2777981399,
				"y": 0.5519115681,
				"z": 5.0450236142,
				"element": "F" 
			},
			{
				"x": 0.2173215727,
				"y": -0.9159743314,
				"z": 5.6165415237,
				"element": "F" 
			},
			{
				"x": -0.2433034176,
				"y": -0.6769380846,
				"z": 3.3063122315,
				"element": "C" 
			},
			{
				"x": -1.0919325155,
				"y": -1.028672443,
				"z": 2.254513323,
				"element": "C" 
			},
			{
				"x": -0.6216526723,
				"y": -0.9939319758,
				"z": 0.9433832845,
				"element": "C" 
			},
			{
				"x": 0.6917558739,
				"y": -0.6043186086,
				"z": 0.6536410538,
				"element": "C" 
			},
			{
				"x": 1.5299191462,
				"y": -0.2540130514,
				"z": 1.7223752477,
				"element": "C" 
			},
			{
				"x": 1.0722327589,
				"y": -0.2907591817,
				"z": 3.0373672903,
				"element": "C" 
			},
			{
				"x": 1.1923784109,
				"y": -0.586213903,
				"z": -0.7814273834,
				"element": "C" 
			},
			{
				"x": 1.7672886908,
				"y": 0.7864614916,
				"z": -1.2047328105,
				"element": "C" 
			},
			{
				"x": 2.2888756054,
				"y": 0.7389848194,
				"z": -2.6496880725,
				"element": "C" 
			},
			{
				"x": 3.2858450584,
				"y": -0.4144500199,
				"z": -2.8351572264,
				"element": "C" 
			},
			{
				"x": 2.6661064798,
				"y": -1.7399100556,
				"z": -2.3621242091,
				"element": "C" 
			},
			{
				"x": 2.1308518546,
				"y": -1.7034561333,
				"z": -0.9964492702,
				"element": "N" 
			},
			{
				"x": -2.1104904715,
				"y": -1.3381607714,
				"z": 2.463066476,
				"element": "H" 
			},
			{
				"x": -1.2834440546,
				"y": -1.2802859243,
				"z": 0.1306919198,
				"element": "H" 
			},
			{
				"x": 2.5550012764,
				"y": 0.0524223832,
				"z": 1.5329936892,
				"element": "H" 
			},
			{
				"x": 1.7341578297,
				"y": -0.025674091,
				"z": 3.8549411044,
				"element": "H" 
			},
			{
				"x": 0.3308251223,
				"y": -0.7900499512,
				"z": -1.4340613375,
				"element": "H" 
			},
			{
				"x": 0.9990006622,
				"y": 1.5614642115,
				"z": -1.0941492646,
				"element": "H" 
			},
			{
				"x": 2.5901223018,
				"y": 1.0606105788,
				"z": -0.5305079789,
				"element": "H" 
			},
			{
				"x": 1.4411100208,
				"y": 0.5969322127,
				"z": -3.3353203119,
				"element": "H" 
			},
			{
				"x": 2.7485035596,
				"y": 1.6969656008,
				"z": -2.918952523,
				"element": "H" 
			},
			{
				"x": 4.1951023397,
				"y": -0.2118680876,
				"z": -2.2509402172,
				"element": "H" 
			},
			{
				"x": 3.5957671365,
				"y": -0.4944921611,
				"z": -3.8846245224,
				"element": "H" 
			},
			{
				"x": 3.3951360973,
				"y": -2.5557515137,
				"z": -2.4197623218,
				"element": "H" 
			},
			{
				"x": 1.8384643124,
				"y": -2.0108419665,
				"z": -3.0334951481,
				"element": "H" 
			},
			{
				"x": 2.8987493222,
				"y": -1.6260008909,
				"z": -0.3316736771,
				"element": "H" 
			}
		],
		 "valence_orbital": [ 
			{
				"type": "occ",
				"energy": -0.32794,
				"method": "rhf"
			},
			{
				"type": "occ",
				"energy": -0.318,
				"method": "rhf"
			},
			{
				"type": "occ",
				"energy": -0.26376,
				"method": "rhf"
			},
			{
				"type": "occ",
				"energy": -0.25959,
				"method": "rhf"
			},
			{
				"type": "occ",
				"energy": -0.21874,
				"method": "rhf"
			},
			{
				"type": "unocc",
				"energy": -0.02504,
				"method": "rhf"
			},
			{
				"type": "unocc",
				"energy": -0.01471,
				"method": "rhf"
			},
			{
				"type": "unocc",
				"energy": 0.07739,
				"method": "rhf"
			},
			{
				"type": "unocc",
				"energy": 0.09173,
				"method": "rhf"
			},
			{
				"type": "unocc",
				"energy": 0.09342,
				"method": "rhf"
			}
		],
		"cosmo_sigma_profile": { 
			"-0.025": 0.0,
			"-0.024": 0.0,
			"-0.023": 0.0,
			"-0.022": 0.0,
			"-0.021": 0.0,
			"-0.02": 0.0,
			"-0.019": 0.0,
			"-0.018": 0.0,
			"-0.017": 0.0,
			"-0.016": 0.0,
			"-0.015": 0.0,
			"-0.014": 0.0,
			"-0.013": 0.0,
			"-0.012": 0.0,
			"-0.011": 0.0,
			"-0.01": 0.0381257487677,
			"-0.009": 0.982087732,
			"-0.008": 2.19936959574,
			"-0.007": 4.40622603773,
			"-0.006": 9.04610861761,
			"-0.005": 11.0147862142,
			"-0.004": 11.5163966345,
			"-0.003": 20.2199126474,
			"-0.002": 30.5278855812,
			"-0.001": 26.8863167485,
			"0.0": 30.150578735,
			"0.001": 24.8523595715,
			"0.002": 22.0830618503,
			"0.003": 39.2425704255,
			"0.004": 14.9582584091,
			"0.005": 2.14320924895,
			"0.006": 0.896803672282,
			"0.007": 0.948049226788,
			"0.008": 0.627615435849,
			"0.009": 1.26743923388,
			"0.01": 0.651456598365,
			"0.011": 0.819434775967,
			"0.012": 0.697325235539,
			"0.013": 0.743569013086,
			"0.014": 0.336023042207,
			"0.015": 0.351392809684,
			"0.016": 0.920796576729,
			"0.017": 0.319475460887,
			"0.018": 0.470914723895,
			"0.019": 0.0861560717893,
			"0.02": 0.0,
			"0.021": 0.0,
			"0.022": 0.0,
			"0.023": 0.0,
			"0.024": 0.0,
			"0.025": 0.0
		}
	}
}
