{
	 "smiles": "FC1=C(CN(C2CC2)C(=O)CCl)C=CC=C1", 
	 "Tm": 471.15, 
	 "num_atms": 29, 
	 "gaussian": { 
		 "optdone": 1, 
		 "sigma_profile": "yes", 
		 "theory": "DFT", 
		 "functional": "B3LYP", 
		 "basiset": "6-31G**", 
		 "properties": { 
			 "R2extent": 4847.5264, 
			 "electric_dipole_moment_norm": 3.08669770791, 
			 "electric_quadrupole_moment_norm": 7.60893572584, 
			 "total_energy": -1155.0918426, 
			 "HOMO_LUMO_gap": 0.22131, 
			 "cosmo_polarized_energy": -9.61, 
			 "cosmo_cavitation_energy": 33.26, 
			 "cosmo_dispersion_energy": -23.43, 
			 "cosmo_repulsion_energy": 1.81, 
			 "cosmo_total_nonelectrostatic_energy": 11.63, 
			 "SMD_solvation_energy": 5.56 
		},
		"coords": [
			{
				"x": 1.6275588796,
				"y": -0.5199864521,
				"z": 2.3261628618,
				"element": "F" 
			},
			{
				"x": 0.4018020896,
				"y": -1.0947549689,
				"z": 2.1926839831,
				"element": "C" 
			},
			{
				"x": -0.4040583379,
				"y": -0.7223530627,
				"z": 1.1154968676,
				"element": "C" 
			},
			{
				"x": 0.045858547,
				"y": 0.3356100091,
				"z": 0.122964621,
				"element": "C" 
			},
			{
				"x": 0.3891755207,
				"y": -0.1769508978,
				"z": -1.2236491084,
				"element": "N" 
			},
			{
				"x": 1.7822319601,
				"y": -0.3104948283,
				"z": -1.5919126068,
				"element": "C" 
			},
			{
				"x": 2.3442742704,
				"y": -1.6595090678,
				"z": -1.9888280216,
				"element": "C" 
			},
			{
				"x": 2.732099981,
				"y": -1.0366988739,
				"z": -0.6756245614,
				"element": "C" 
			},
			{
				"x": -0.6228852824,
				"y": -0.1994362863,
				"z": -2.1493261167,
				"element": "C" 
			},
			{
				"x": -1.7977277867,
				"y": 0.0055176361,
				"z": -1.8553511501,
				"element": "O" 
			},
			{
				"x": -0.2654408806,
				"y": -0.4993311276,
				"z": -3.6049308877,
				"element": "C" 
			},
			{
				"x": 0.4702272475,
				"y": 0.9480952573,
				"z": -4.4264933082,
				"element": "Cl" 
			},
			{
				"x": -1.6604187805,
				"y": -1.3415737544,
				"z": 1.0202146631,
				"element": "C" 
			},
			{
				"x": -2.0689057546,
				"y": -2.2922107496,
				"z": 1.9553342551,
				"element": "C" 
			},
			{
				"x": -1.2297085481,
				"y": -2.6402606974,
				"z": 3.0169528546,
				"element": "C" 
			},
			{
				"x": 0.0207096633,
				"y": -2.0362799193,
				"z": 3.1414030966,
				"element": "C" 
			},
			{
				"x": 0.9261337892,
				"y": 0.8502845509,
				"z": 0.5076714642,
				"element": "H" 
			},
			{
				"x": -0.7587817769,
				"y": 1.062997155,
				"z": -0.0076509093,
				"element": "H" 
			},
			{
				"x": 2.1905196235,
				"y": 0.5508559301,
				"z": -2.1170542653,
				"element": "H" 
			},
			{
				"x": 3.0671359127,
				"y": -1.6892042532,
				"z": -2.7983752844,
				"element": "H" 
			},
			{
				"x": 1.6704390123,
				"y": -2.5097915764,
				"z": -1.9452244973,
				"element": "H" 
			},
			{
				"x": 3.7269669388,
				"y": -0.6164861263,
				"z": -0.5679957987,
				"element": "H" 
			},
			{
				"x": 2.3366011109,
				"y": -1.4774711463,
				"z": 0.2301548233,
				"element": "H" 
			},
			{
				"x": -1.1949714295,
				"y": -0.7136349297,
				"z": -4.1270330704,
				"element": "H" 
			},
			{
				"x": 0.444646201,
				"y": -1.3167078319,
				"z": -3.7169606984,
				"element": "H" 
			},
			{
				"x": -2.3064281137,
				"y": -1.0594583203,
				"z": 0.1955863556,
				"element": "H" 
			},
			{
				"x": -3.0455479647,
				"y": -2.7567032404,
				"z": 1.8593029054,
				"element": "H" 
			},
			{
				"x": -1.5458561781,
				"y": -3.377070317,
				"z": 3.7493342852,
				"element": "H" 
			},
			{
				"x": 0.6991500859,
				"y": -2.2757921107,
				"z": 3.9531472482,
				"element": "H" 
			}
		],
		 "valence_orbital": [ 
			{
				"type": "occ",
				"energy": -0.30124,
				"method": "rhf"
			},
			{
				"type": "occ",
				"energy": -0.2637,
				"method": "rhf"
			},
			{
				"type": "occ",
				"energy": -0.25279,
				"method": "rhf"
			},
			{
				"type": "occ",
				"energy": -0.25026,
				"method": "rhf"
			},
			{
				"type": "occ",
				"energy": -0.24495,
				"method": "rhf"
			},
			{
				"type": "unocc",
				"energy": -0.02364,
				"method": "rhf"
			},
			{
				"type": "unocc",
				"energy": -0.01521,
				"method": "rhf"
			},
			{
				"type": "unocc",
				"energy": 0.0,
				"method": "rhf"
			},
			{
				"type": "unocc",
				"energy": 0.05123,
				"method": "rhf"
			},
			{
				"type": "unocc",
				"energy": 0.08442,
				"method": "rhf"
			}
		],
		"cosmo_sigma_profile": { 
			"-0.025": 0.0,
			"-0.024": 0.0,
			"-0.023": 0.0,
			"-0.022": 0.0,
			"-0.021": 0.0,
			"-0.02": 0.0,
			"-0.019": 0.0,
			"-0.018": 0.0,
			"-0.017": 0.0,
			"-0.016": 0.0,
			"-0.015": 0.0,
			"-0.014": 0.0,
			"-0.013": 0.0,
			"-0.012": 0.0,
			"-0.011": 0.0,
			"-0.01": 0.0,
			"-0.009": 0.0321265162298,
			"-0.008": 1.99836810512,
			"-0.007": 6.50773106259,
			"-0.006": 12.2789058427,
			"-0.005": 22.3299744143,
			"-0.004": 22.1332421391,
			"-0.003": 23.9523486808,
			"-0.002": 20.6532706574,
			"-0.001": 18.8277899134,
			"0.0": 18.9420045489,
			"0.001": 19.9414461962,
			"0.002": 19.3971866616,
			"0.003": 22.005327686,
			"0.004": 23.2617269229,
			"0.005": 15.9203663849,
			"0.006": 6.10203511067,
			"0.007": 1.66982481808,
			"0.008": 1.26694382732,
			"0.009": 1.17988397119,
			"0.01": 1.26326562451,
			"0.011": 1.55844868494,
			"0.012": 2.29244095157,
			"0.013": 2.65614849815,
			"0.014": 0.654428305207,
			"0.015": 0.0,
			"0.016": 0.0,
			"0.017": 0.0,
			"0.018": 0.0,
			"0.019": 0.0,
			"0.02": 0.0,
			"0.021": 0.0,
			"0.022": 0.0,
			"0.023": 0.0,
			"0.024": 0.0,
			"0.025": 0.0
		}
	}
}
