{
	 "smiles": "CC1=C(Br)C(C)=C(S1)C1=CC=CC=C1", 
	 "Tm": 307.15, 
	 "num_atms": 25, 
	 "gaussian": { 
		 "optdone": 1, 
		 "sigma_profile": "yes", 
		 "theory": "DFT", 
		 "functional": "B3LYP", 
		 "basiset": "6-31G**", 
		 "properties": { 
			 "R2extent": 5685.5384, 
			 "electric_dipole_moment_norm": 1.14129187765, 
			 "electric_quadrupole_moment_norm": 9.5357654213, 
			 "total_energy": -3433.50430497, 
			 "HOMO_LUMO_gap": 0.17894, 
			 "cosmo_polarized_energy": -4.63, 
			 "cosmo_cavitation_energy": 31.69, 
			 "cosmo_dispersion_energy": -23.75, 
			 "cosmo_repulsion_energy": 1.82, 
			 "cosmo_total_nonelectrostatic_energy": 9.76, 
			 "SMD_solvation_energy": 3.96 
		},
		"coords": [
			{
				"x": 3.7549263521,
				"y": 0.3979317049,
				"z": -1.7471980883,
				"element": "C" 
			},
			{
				"x": 2.3010996149,
				"y": 0.1466331451,
				"z": -1.4928975308,
				"element": "C" 
			},
			{
				"x": 1.4578647045,
				"y": -0.7765384804,
				"z": -2.0474578165,
				"element": "C" 
			},
			{
				"x": 2.0407972241,
				"y": -2.0302025026,
				"z": -3.3640102674,
				"element": "Br" 
			},
			{
				"x": 0.0943974586,
				"y": -0.7501297717,
				"z": -1.5921551535,
				"element": "C" 
			},
			{
				"x": -0.9748896382,
				"y": -1.6548918828,
				"z": -2.1375119917,
				"element": "C" 
			},
			{
				"x": -0.0881878785,
				"y": 0.2369588058,
				"z": -0.648254739,
				"element": "C" 
			},
			{
				"x": 1.4069352699,
				"y": 1.1073157721,
				"z": -0.3455024893,
				"element": "S" 
			},
			{
				"x": -1.3028772794,
				"y": 0.6203390081,
				"z": 0.0938977417,
				"element": "C" 
			},
			{
				"x": -1.6537479259,
				"y": 1.9739943573,
				"z": 0.2489519352,
				"element": "C" 
			},
			{
				"x": -2.7933838713,
				"y": 2.3389841646,
				"z": 0.9632731923,
				"element": "C" 
			},
			{
				"x": -3.610818922,
				"y": 1.3605660366,
				"z": 1.5327650986,
				"element": "C" 
			},
			{
				"x": -3.2728731636,
				"y": 0.0135095409,
				"z": 1.3902317628,
				"element": "C" 
			},
			{
				"x": -2.127324398,
				"y": -0.3540905249,
				"z": 0.6855256098,
				"element": "C" 
			},
			{
				"x": 4.3244551187,
				"y": 0.4449836035,
				"z": -0.8131264915,
				"element": "H" 
			},
			{
				"x": 3.9125369436,
				"y": 1.3433167546,
				"z": -2.2794542136,
				"element": "H" 
			},
			{
				"x": 4.1671843713,
				"y": -0.4064074609,
				"z": -2.3598840315,
				"element": "H" 
			},
			{
				"x": -0.928585627,
				"y": -1.6874318293,
				"z": -3.230446995,
				"element": "H" 
			},
			{
				"x": -1.9685614718,
				"y": -1.3136302472,
				"z": -1.8428992762,
				"element": "H" 
			},
			{
				"x": -0.8486540106,
				"y": -2.6855701396,
				"z": -1.7848330333,
				"element": "H" 
			},
			{
				"x": -1.0350129883,
				"y": 2.7396305731,
				"z": -0.209895228,
				"element": "H" 
			},
			{
				"x": -3.0477423266,
				"y": 3.3899090383,
				"z": 1.0674573575,
				"element": "H" 
			},
			{
				"x": -4.5009541329,
				"y": 1.6455231794,
				"z": 2.0859036466,
				"element": "H" 
			},
			{
				"x": -3.8948437603,
				"y": -0.7548677949,
				"z": 1.840649098,
				"element": "H" 
			},
			{
				"x": -1.8518396633,
				"y": -1.40103505,
				"z": 0.6113719032,
				"element": "H" 
			}
		],
		 "valence_orbital": [ 
			{
				"type": "occ",
				"energy": -0.2866,
				"method": "rhf"
			},
			{
				"type": "occ",
				"energy": -0.26428,
				"method": "rhf"
			},
			{
				"type": "occ",
				"energy": -0.25515,
				"method": "rhf"
			},
			{
				"type": "occ",
				"energy": -0.2373,
				"method": "rhf"
			},
			{
				"type": "occ",
				"energy": -0.21263,
				"method": "rhf"
			},
			{
				"type": "unocc",
				"energy": -0.03369,
				"method": "rhf"
			},
			{
				"type": "unocc",
				"energy": -0.01006,
				"method": "rhf"
			},
			{
				"type": "unocc",
				"energy": 0.00698,
				"method": "rhf"
			},
			{
				"type": "unocc",
				"energy": 0.00905,
				"method": "rhf"
			},
			{
				"type": "unocc",
				"energy": 0.04127,
				"method": "rhf"
			}
		],
		"cosmo_sigma_profile": { 
			"-0.025": 0.0,
			"-0.024": 0.0,
			"-0.023": 0.0,
			"-0.022": 0.0,
			"-0.021": 0.0,
			"-0.02": 0.0,
			"-0.019": 0.0,
			"-0.018": 0.0,
			"-0.017": 0.0,
			"-0.016": 0.0,
			"-0.015": 0.0,
			"-0.014": 0.0,
			"-0.013": 0.0,
			"-0.012": 0.0,
			"-0.011": 0.0,
			"-0.01": 0.0,
			"-0.009": 0.0,
			"-0.008": 0.0,
			"-0.007": 0.0284515015267,
			"-0.006": 6.18309481675,
			"-0.005": 14.8618258085,
			"-0.004": 21.8405571734,
			"-0.003": 25.1773646167,
			"-0.002": 23.6402452221,
			"-0.001": 26.5594238201,
			"0.0": 22.6164528466,
			"0.001": 21.5465628963,
			"0.002": 23.2392212621,
			"0.003": 31.7656133787,
			"0.004": 22.8763736049,
			"0.005": 15.6964746859,
			"0.006": 2.15109134348,
			"0.007": 0.0,
			"0.008": 0.0,
			"0.009": 0.0,
			"0.01": 0.0,
			"0.011": 0.0,
			"0.012": 0.0,
			"0.013": 0.0,
			"0.014": 0.0,
			"0.015": 0.0,
			"0.016": 0.0,
			"0.017": 0.0,
			"0.018": 0.0,
			"0.019": 0.0,
			"0.02": 0.0,
			"0.021": 0.0,
			"0.022": 0.0,
			"0.023": 0.0,
			"0.024": 0.0,
			"0.025": 0.0
		}
	}
}
