{
	 "smiles": "NC1=NN=C(N1)C1=CC=CC=C1", 
	 "Tm": 329.15, 
	 "num_atms": 20, 
	 "gaussian": { 
		 "optdone": 1, 
		 "sigma_profile": "yes", 
		 "theory": "DFT", 
		 "functional": "B3LYP", 
		 "basiset": "6-31G**", 
		 "properties": { 
			 "R2extent": 2582.4745, 
			 "electric_dipole_moment_norm": 4.92505486873, 
			 "electric_quadrupole_moment_norm": 22.3605735269, 
			 "total_energy": -528.665400194, 
			 "HOMO_LUMO_gap": 0.17811, 
			 "cosmo_polarized_energy": -22.44, 
			 "cosmo_cavitation_energy": 24.59, 
			 "cosmo_dispersion_energy": -18.56, 
			 "cosmo_repulsion_energy": 1.47, 
			 "cosmo_total_nonelectrostatic_energy": 7.51, 
			 "SMD_solvation_energy": 2.02 
		},
		"coords": [
			{
				"x": -4.5055808497,
				"y": -0.6665759365,
				"z": -0.3329623887,
				"element": "N" 
			},
			{
				"x": -3.2389672662,
				"y": -0.3848374702,
				"z": -0.8282863424,
				"element": "C" 
			},
			{
				"x": -2.8918080301,
				"y": -0.3230155664,
				"z": -2.0939478455,
				"element": "N" 
			},
			{
				"x": -1.525487015,
				"y": -0.1179110336,
				"z": -2.130117695,
				"element": "N" 
			},
			{
				"x": -1.0837334324,
				"y": -0.0454997785,
				"z": -0.8940013512,
				"element": "C" 
			},
			{
				"x": -2.1474693802,
				"y": -0.2062216743,
				"z": -0.0217346552,
				"element": "N" 
			},
			{
				"x": 0.3041712001,
				"y": 0.1812204239,
				"z": -0.4900619095,
				"element": "C" 
			},
			{
				"x": 0.6633044721,
				"y": 0.4284901637,
				"z": 0.8443063868,
				"element": "C" 
			},
			{
				"x": 1.9980503631,
				"y": 0.6345470279,
				"z": 1.1920867743,
				"element": "C" 
			},
			{
				"x": 2.9914511234,
				"y": 0.6013934941,
				"z": 0.212893589,
				"element": "C" 
			},
			{
				"x": 2.6402588874,
				"y": 0.3620723124,
				"z": -1.1193908391,
				"element": "C" 
			},
			{
				"x": 1.3108990553,
				"y": 0.1519803349,
				"z": -1.4711526677,
				"element": "C" 
			},
			{
				"x": -5.1542330708,
				"y": -0.7776104212,
				"z": -1.1045153549,
				"element": "H" 
			},
			{
				"x": -4.8557797422,
				"y": 0.0268914167,
				"z": 0.3201001157,
				"element": "H" 
			},
			{
				"x": -2.1114494336,
				"y": -0.3455697857,
				"z": 0.9758028255,
				"element": "H" 
			},
			{
				"x": -0.0966074343,
				"y": 0.4791305486,
				"z": 1.6200711868,
				"element": "H" 
			},
			{
				"x": 2.2594531915,
				"y": 0.8257502035,
				"z": 2.2288509809,
				"element": "H" 
			},
			{
				"x": 4.0306121335,
				"y": 0.7622172991,
				"z": 0.4842715273,
				"element": "H" 
			},
			{
				"x": 3.4081016035,
				"y": 0.3363040243,
				"z": -1.8872314031,
				"element": "H" 
			},
			{
				"x": 1.0254136246,
				"y": -0.0377555827,
				"z": -2.5000809342,
				"element": "H" 
			}
		],
		 "valence_orbital": [ 
			{
				"type": "occ",
				"energy": -0.29645,
				"method": "rhf"
			},
			{
				"type": "occ",
				"energy": -0.26996,
				"method": "rhf"
			},
			{
				"type": "occ",
				"energy": -0.25579,
				"method": "rhf"
			},
			{
				"type": "occ",
				"energy": -0.24692,
				"method": "rhf"
			},
			{
				"type": "occ",
				"energy": -0.2093,
				"method": "rhf"
			},
			{
				"type": "unocc",
				"energy": -0.03119,
				"method": "rhf"
			},
			{
				"type": "unocc",
				"energy": -0.00555,
				"method": "rhf"
			},
			{
				"type": "unocc",
				"energy": 0.04852,
				"method": "rhf"
			},
			{
				"type": "unocc",
				"energy": 0.05416,
				"method": "rhf"
			},
			{
				"type": "unocc",
				"energy": 0.07532,
				"method": "rhf"
			}
		],
		"cosmo_sigma_profile": { 
			"-0.025": 0.0,
			"-0.024": 0.0,
			"-0.023": 0.0,
			"-0.022": 0.0,
			"-0.021": 0.0,
			"-0.02": 0.0,
			"-0.019": 0.0,
			"-0.018": 0.0028260449797,
			"-0.017": 0.796023462877,
			"-0.016": 0.903865291448,
			"-0.015": 1.36834090563,
			"-0.014": 3.29795685222,
			"-0.013": 4.59806296643,
			"-0.012": 4.18279790959,
			"-0.011": 4.37719891041,
			"-0.01": 3.822637281,
			"-0.009": 2.91281598597,
			"-0.008": 2.88525775231,
			"-0.007": 3.30981247352,
			"-0.006": 8.37979484505,
			"-0.005": 11.2367880596,
			"-0.004": 11.7603570975,
			"-0.003": 9.48276015566,
			"-0.002": 8.50629017539,
			"-0.001": 9.78325498458,
			"0.0": 10.4515365275,
			"0.001": 11.9568821837,
			"0.002": 10.6012048711,
			"0.003": 13.0664207773,
			"0.004": 13.4439685306,
			"0.005": 13.4959011516,
			"0.006": 2.25229451568,
			"0.007": 1.90970075922,
			"0.008": 3.52335231353,
			"0.009": 2.83374882481,
			"0.01": 1.65774336861,
			"0.011": 2.46337702549,
			"0.012": 3.05766701908,
			"0.013": 3.29208382688,
			"0.014": 4.01445997707,
			"0.015": 2.81411263987,
			"0.016": 2.77996644373,
			"0.017": 1.30142991282,
			"0.018": 0.328662544131,
			"0.019": 0.0,
			"0.02": 0.0,
			"0.021": 0.0,
			"0.022": 0.0,
			"0.023": 0.0,
			"0.024": 0.0,
			"0.025": 0.0
		}
	}
}
