{
	 "smiles": "[O-][N+](=O)C1=CC(CCl)=CC=C1", 
	 "Tm": 319.15, 
	 "num_atms": 17, 
	 "gaussian": { 
		 "optdone": 1, 
		 "sigma_profile": "yes", 
		 "theory": "DFT", 
		 "functional": "B3LYP", 
		 "basiset": "6-31G**", 
		 "properties": { 
			 "R2extent": 3434.3391, 
			 "electric_dipole_moment_norm": 4.21910367021, 
			 "electric_quadrupole_moment_norm": 17.7943804714, 
			 "total_energy": -935.65640663, 
			 "HOMO_LUMO_gap": 0.18588, 
			 "cosmo_polarized_energy": -10.53, 
			 "cosmo_cavitation_energy": 23.95, 
			 "cosmo_dispersion_energy": -17.5, 
			 "cosmo_repulsion_energy": 1.42, 
			 "cosmo_total_nonelectrostatic_energy": 7.87, 
			 "SMD_solvation_energy": 6.05 
		},
		"coords": [
			{
				"x": -3.9662778759,
				"y": 3.300521369,
				"z": -0.9104883868,
				"element": "O" 
			},
			{
				"x": -2.8063064147,
				"y": 2.9384459616,
				"z": -0.7208220848,
				"element": "N" 
			},
			{
				"x": -1.8227438602,
				"y": 3.6755165238,
				"z": -0.7690315447,
				"element": "O" 
			},
			{
				"x": -2.5780661426,
				"y": 1.5147722011,
				"z": -0.4146685249,
				"element": "C" 
			},
			{
				"x": -1.2754437014,
				"y": 1.0808817818,
				"z": -0.183380097,
				"element": "C" 
			},
			{
				"x": -1.0489978515,
				"y": -0.2685516916,
				"z": 0.0988037238,
				"element": "C" 
			},
			{
				"x": 0.3455181258,
				"y": -0.765417285,
				"z": 0.3488944649,
				"element": "C" 
			},
			{
				"x": 0.7324491139,
				"y": -0.858557828,
				"z": 2.1363138463,
				"element": "Cl" 
			},
			{
				"x": -2.1407072912,
				"y": -1.1485015029,
				"z": 0.1446250987,
				"element": "C" 
			},
			{
				"x": -3.438477967,
				"y": -0.6929115646,
				"z": -0.0877566589,
				"element": "C" 
			},
			{
				"x": -3.6704067091,
				"y": 0.6520449645,
				"z": -0.3717464942,
				"element": "C" 
			},
			{
				"x": -0.4636106686,
				"y": 1.7972269727,
				"z": -0.2262959284,
				"element": "H" 
			},
			{
				"x": 1.0950336333,
				"y": -0.1029527831,
				"z": -0.0834687564,
				"element": "H" 
			},
			{
				"x": 0.4919084361,
				"y": -1.7755619549,
				"z": -0.0343781535,
				"element": "H" 
			},
			{
				"x": -1.969613793,
				"y": -2.1978954588,
				"z": 0.368369271,
				"element": "H" 
			},
			{
				"x": -4.2722353091,
				"y": -1.3865461185,
				"z": -0.0505583179,
				"element": "H" 
			},
			{
				"x": -4.6639217248,
				"y": 1.0387864128,
				"z": -0.5599114572,
				"element": "H" 
			}
		],
		 "valence_orbital": [ 
			{
				"type": "occ",
				"energy": -0.31,
				"method": "rhf"
			},
			{
				"type": "occ",
				"energy": -0.30669,
				"method": "rhf"
			},
			{
				"type": "occ",
				"energy": -0.297,
				"method": "rhf"
			},
			{
				"type": "occ",
				"energy": -0.28991,
				"method": "rhf"
			},
			{
				"type": "occ",
				"energy": -0.28184,
				"method": "rhf"
			},
			{
				"type": "unocc",
				"energy": -0.09596,
				"method": "rhf"
			},
			{
				"type": "unocc",
				"energy": -0.0501,
				"method": "rhf"
			},
			{
				"type": "unocc",
				"energy": -0.01389,
				"method": "rhf"
			},
			{
				"type": "unocc",
				"energy": 0.02989,
				"method": "rhf"
			},
			{
				"type": "unocc",
				"energy": 0.06875,
				"method": "rhf"
			}
		],
		"cosmo_sigma_profile": { 
			"-0.025": 0.0,
			"-0.024": 0.0,
			"-0.023": 0.0,
			"-0.022": 0.0,
			"-0.021": 0.0,
			"-0.02": 0.0,
			"-0.019": 0.0,
			"-0.018": 0.0,
			"-0.017": 0.0,
			"-0.016": 0.0,
			"-0.015": 0.0,
			"-0.014": 0.0,
			"-0.013": 0.0,
			"-0.012": 0.0,
			"-0.011": 0.0,
			"-0.01": 0.0578421155986,
			"-0.009": 2.27900558067,
			"-0.008": 9.98110496936,
			"-0.007": 11.3270380628,
			"-0.006": 13.0785337675,
			"-0.005": 11.1347508936,
			"-0.004": 10.6920333405,
			"-0.003": 8.62390609387,
			"-0.002": 9.57711961013,
			"-0.001": 13.7119589729,
			"0.0": 14.0837218461,
			"0.001": 15.4866052996,
			"0.002": 12.7244530071,
			"0.003": 6.31334182284,
			"0.004": 7.87428557181,
			"0.005": 8.123809056,
			"0.006": 14.4869893127,
			"0.007": 11.0846931384,
			"0.008": 6.88079687473,
			"0.009": 4.50470780292,
			"0.01": 2.16588008166,
			"0.011": 0.041914004277,
			"0.012": 0.0,
			"0.013": 0.0,
			"0.014": 0.0,
			"0.015": 0.0,
			"0.016": 0.0,
			"0.017": 0.0,
			"0.018": 0.0,
			"0.019": 0.0,
			"0.02": 0.0,
			"0.021": 0.0,
			"0.022": 0.0,
			"0.023": 0.0,
			"0.024": 0.0,
			"0.025": 0.0
		}
	}
}
