{
	 "smiles": "CC1=CC=C(NC2CS(=O)(=O)C=C2)C=C1", 
	 "Tm": 389.15, 
	 "num_atms": 28, 
	 "gaussian": { 
		 "optdone": 1, 
		 "sigma_profile": "yes", 
		 "theory": "DFT", 
		 "functional": "B3LYP", 
		 "basiset": "6-31G**", 
		 "properties": { 
			 "R2extent": 5728.9686, 
			 "electric_dipole_moment_norm": 6.3572348124, 
			 "electric_quadrupole_moment_norm": 27.0446142461, 
			 "total_energy": -1030.29622818, 
			 "HOMO_LUMO_gap": 0.20019, 
			 "cosmo_polarized_energy": -18.94, 
			 "cosmo_cavitation_energy": 32.6, 
			 "cosmo_dispersion_energy": -24.19, 
			 "cosmo_repulsion_energy": 1.85, 
			 "cosmo_total_nonelectrostatic_energy": 10.26, 
			 "SMD_solvation_energy": 3.89 
		},
		"coords": [
			{
				"x": -3.7673739273,
				"y": 0.3117458142,
				"z": -3.5830283614,
				"element": "C" 
			},
			{
				"x": -2.7067769494,
				"y": 0.5746379383,
				"z": -2.5398947645,
				"element": "C" 
			},
			{
				"x": -1.5432334822,
				"y": 1.2896004614,
				"z": -2.8570033008,
				"element": "C" 
			},
			{
				"x": -0.5801897134,
				"y": 1.5721812198,
				"z": -1.8900018626,
				"element": "C" 
			},
			{
				"x": -0.7403162764,
				"y": 1.1199532026,
				"z": -0.573409594,
				"element": "C" 
			},
			{
				"x": 0.2566507023,
				"y": 1.429888978,
				"z": 0.4112182632,
				"element": "N" 
			},
			{
				"x": 1.3550763019,
				"y": 0.4496054697,
				"z": 0.5538006802,
				"element": "C" 
			},
			{
				"x": 2.2488694072,
				"y": 0.8570386266,
				"z": 1.7382568985,
				"element": "C" 
			},
			{
				"x": 3.9695489504,
				"y": 0.4344224192,
				"z": 1.2692983794,
				"element": "S" 
			},
			{
				"x": 4.8766233919,
				"y": 1.5570006046,
				"z": 1.5458634315,
				"element": "O" 
			},
			{
				"x": 4.3031560918,
				"y": -0.9100815104,
				"z": 1.7661160573,
				"element": "O" 
			},
			{
				"x": 3.5648275302,
				"y": 0.3554197154,
				"z": -0.4665846743,
				"element": "C" 
			},
			{
				"x": 2.2509081296,
				"y": 0.3841370633,
				"z": -0.6723650921,
				"element": "C" 
			},
			{
				"x": -1.8979566033,
				"y": 0.4010490198,
				"z": -0.249399196,
				"element": "C" 
			},
			{
				"x": -2.8681784818,
				"y": 0.1423893051,
				"z": -1.2175858788,
				"element": "C" 
			},
			{
				"x": -4.3678962163,
				"y": -0.5670742411,
				"z": -3.3305641547,
				"element": "H" 
			},
			{
				"x": -4.4551974396,
				"y": 1.1618674256,
				"z": -3.6733622322,
				"element": "H" 
			},
			{
				"x": -3.3258468549,
				"y": 0.1472653075,
				"z": -4.5707834676,
				"element": "H" 
			},
			{
				"x": -1.397449937,
				"y": 1.6483573598,
				"z": -3.8730537263,
				"element": "H" 
			},
			{
				"x": 0.2922526315,
				"y": 2.1686552808,
				"z": -2.1384959289,
				"element": "H" 
			},
			{
				"x": -0.1969317044,
				"y": 1.5105279942,
				"z": 1.3180311485,
				"element": "H" 
			},
			{
				"x": 0.9630368183,
				"y": -0.5696967326,
				"z": 0.7200390155,
				"element": "H" 
			},
			{
				"x": 2.0237763554,
				"y": 0.3441713113,
				"z": 2.6744783216,
				"element": "H" 
			},
			{
				"x": 2.2183386724,
				"y": 1.9408546868,
				"z": 1.8702899172,
				"element": "H" 
			},
			{
				"x": 4.361996016,
				"y": 0.2586284519,
				"z": -1.1931017961,
				"element": "H" 
			},
			{
				"x": 1.8036095138,
				"y": 0.3108427105,
				"z": -1.6579155238,
				"element": "H" 
			},
			{
				"x": -2.040107647,
				"y": 0.0412779315,
				"z": 0.767484011,
				"element": "H" 
			},
			{
				"x": -3.7614152798,
				"y": -0.4127658139,
				"z": -0.94172657,
				"element": "H" 
			}
		],
		 "valence_orbital": [ 
			{
				"type": "occ",
				"energy": -0.28742,
				"method": "rhf"
			},
			{
				"type": "occ",
				"energy": -0.27855,
				"method": "rhf"
			},
			{
				"type": "occ",
				"energy": -0.27399,
				"method": "rhf"
			},
			{
				"type": "occ",
				"energy": -0.26144,
				"method": "rhf"
			},
			{
				"type": "occ",
				"energy": -0.2333,
				"method": "rhf"
			},
			{
				"type": "unocc",
				"energy": -0.03311,
				"method": "rhf"
			},
			{
				"type": "unocc",
				"energy": -0.01523,
				"method": "rhf"
			},
			{
				"type": "unocc",
				"energy": -0.01064,
				"method": "rhf"
			},
			{
				"type": "unocc",
				"energy": 0.05942,
				"method": "rhf"
			},
			{
				"type": "unocc",
				"energy": 0.06169,
				"method": "rhf"
			}
		],
		"cosmo_sigma_profile": { 
			"-0.025": 0.0,
			"-0.024": 0.0,
			"-0.023": 0.0,
			"-0.022": 0.0,
			"-0.021": 0.0,
			"-0.02": 0.0,
			"-0.019": 0.0,
			"-0.018": 0.0,
			"-0.017": 0.0,
			"-0.016": 0.0,
			"-0.015": 0.0,
			"-0.014": 0.0,
			"-0.013": 0.0454061598731,
			"-0.012": 0.991223627074,
			"-0.011": 1.87919160748,
			"-0.01": 4.02238099463,
			"-0.009": 4.72442360947,
			"-0.008": 7.41974758409,
			"-0.007": 10.6074671744,
			"-0.006": 14.978378625,
			"-0.005": 18.7930695607,
			"-0.004": 22.3147313333,
			"-0.003": 19.0630974669,
			"-0.002": 16.291775236,
			"-0.001": 16.7469855157,
			"0.0": 17.7154163792,
			"0.001": 13.8263661957,
			"0.002": 11.285121421,
			"0.003": 9.06386289792,
			"0.004": 9.6094348485,
			"0.005": 10.4567232287,
			"0.006": 9.82197720581,
			"0.007": 2.76134297561,
			"0.008": 2.21680102137,
			"0.009": 4.37283497534,
			"0.01": 4.7539068124,
			"0.011": 11.8725104342,
			"0.012": 10.9939642573,
			"0.013": 1.3863266626,
			"0.014": 0.510731656421,
			"0.015": 0.058856510337,
			"0.016": 0.0,
			"0.017": 0.0,
			"0.018": 0.0,
			"0.019": 0.0,
			"0.02": 0.0,
			"0.021": 0.0,
			"0.022": 0.0,
			"0.023": 0.0,
			"0.024": 0.0,
			"0.025": 0.0
		}
	}
}
