{
	 "smiles": "OC1=CC=C(C=C1)C1=CSC=N1", 
	 "Tm": 420.15, 
	 "num_atms": 19, 
	 "gaussian": { 
		 "optdone": 1, 
		 "sigma_profile": "yes", 
		 "theory": "DFT", 
		 "functional": "B3LYP", 
		 "basiset": "6-31G**", 
		 "properties": { 
			 "R2extent": 4231.2737, 
			 "electric_dipole_moment_norm": 2.2770037725, 
			 "electric_quadrupole_moment_norm": 12.721076526, 
			 "total_energy": -875.327272737, 
			 "HOMO_LUMO_gap": 0.17035, 
			 "cosmo_polarized_energy": -11.83, 
			 "cosmo_cavitation_energy": 25.08, 
			 "cosmo_dispersion_energy": -19.49, 
			 "cosmo_repulsion_energy": 1.47, 
			 "cosmo_total_nonelectrostatic_energy": 7.06, 
			 "SMD_solvation_energy": 3.7 
		},
		"coords": [
			{
				"x": -2.8132835875,
				"y": -0.4837639529,
				"z": -1.1213975295,
				"element": "O" 
			},
			{
				"x": -1.4512315949,
				"y": -0.3892716281,
				"z": -1.1084428452,
				"element": "C" 
			},
			{
				"x": -0.789100171,
				"y": -0.7079561404,
				"z": 0.0822178805,
				"element": "C" 
			},
			{
				"x": 0.5963026303,
				"y": -0.6279972584,
				"z": 0.14841617,
				"element": "C" 
			},
			{
				"x": 1.3600881794,
				"y": -0.2302454455,
				"z": -0.9637564878,
				"element": "C" 
			},
			{
				"x": 0.6787325124,
				"y": 0.085437359,
				"z": -2.1492500446,
				"element": "C" 
			},
			{
				"x": -0.7087445062,
				"y": 0.008753949,
				"z": -2.2263564291,
				"element": "C" 
			},
			{
				"x": 2.8292229449,
				"y": -0.1559434501,
				"z": -0.8597376553,
				"element": "C" 
			},
			{
				"x": 3.7125279115,
				"y": 0.2126734623,
				"z": -1.8476303556,
				"element": "C" 
			},
			{
				"x": 5.3420424253,
				"y": 0.1525334571,
				"z": -1.27003142,
				"element": "S" 
			},
			{
				"x": 4.7237564842,
				"y": -0.369602036,
				"z": 0.2780283315,
				"element": "C" 
			},
			{
				"x": 3.4343444587,
				"y": -0.4836571453,
				"z": 0.3451824053,
				"element": "N" 
			},
			{
				"x": -3.1399674125,
				"y": -0.2389075926,
				"z": -1.9968667065,
				"element": "H" 
			},
			{
				"x": -1.3753869507,
				"y": -1.0151667619,
				"z": 0.94198723,
				"element": "H" 
			},
			{
				"x": 1.1116778183,
				"y": -0.8743424418,
				"z": 1.0697003431,
				"element": "H" 
			},
			{
				"x": 1.2302206613,
				"y": 0.3969233949,
				"z": -3.0312803486,
				"element": "H" 
			},
			{
				"x": -1.2156919305,
				"y": 0.2584243951,
				"z": -3.1563066745,
				"element": "H" 
			},
			{
				"x": 3.5056638983,
				"y": 0.5111845314,
				"z": -2.8643183843,
				"element": "H" 
			},
			{
				"x": 5.3971262285,
				"y": -0.5748766958,
				"z": 1.1018425207,
				"element": "H" 
			}
		],
		 "valence_orbital": [ 
			{
				"type": "occ",
				"energy": -0.28618,
				"method": "rhf"
			},
			{
				"type": "occ",
				"energy": -0.2744,
				"method": "rhf"
			},
			{
				"type": "occ",
				"energy": -0.26499,
				"method": "rhf"
			},
			{
				"type": "occ",
				"energy": -0.25241,
				"method": "rhf"
			},
			{
				"type": "occ",
				"energy": -0.20444,
				"method": "rhf"
			},
			{
				"type": "unocc",
				"energy": -0.03409,
				"method": "rhf"
			},
			{
				"type": "unocc",
				"energy": -0.00403,
				"method": "rhf"
			},
			{
				"type": "unocc",
				"energy": 0.00256,
				"method": "rhf"
			},
			{
				"type": "unocc",
				"energy": 0.01755,
				"method": "rhf"
			},
			{
				"type": "unocc",
				"energy": 0.06882,
				"method": "rhf"
			}
		],
		"cosmo_sigma_profile": { 
			"-0.025": 0.0,
			"-0.024": 0.0,
			"-0.023": 0.0,
			"-0.022": 0.0,
			"-0.021": 0.0,
			"-0.02": 0.0,
			"-0.019": 0.0,
			"-0.018": 0.339879797171,
			"-0.017": 1.20428480164,
			"-0.016": 1.06574709791,
			"-0.015": 1.18561533001,
			"-0.014": 0.947046442113,
			"-0.013": 1.1616591121,
			"-0.012": 0.784628026757,
			"-0.011": 1.01340872512,
			"-0.01": 2.45226253777,
			"-0.009": 5.87577752714,
			"-0.008": 5.40886204047,
			"-0.007": 5.94751777346,
			"-0.006": 7.52369528922,
			"-0.005": 7.97770861706,
			"-0.004": 10.8123688401,
			"-0.003": 9.14106291262,
			"-0.002": 8.16361019465,
			"-0.001": 10.1199874371,
			"0.0": 10.8389225997,
			"0.001": 16.6744259236,
			"0.002": 17.9387088372,
			"0.003": 23.7051951035,
			"0.004": 17.0586918884,
			"0.005": 14.8888826957,
			"0.006": 4.86970335404,
			"0.007": 3.78599486968,
			"0.008": 3.48354152396,
			"0.009": 2.83562590376,
			"0.01": 2.31513712493,
			"0.011": 2.83559581247,
			"0.012": 1.56411885458,
			"0.013": 0.217704705138,
			"0.014": 0.0,
			"0.015": 0.0,
			"0.016": 0.0,
			"0.017": 0.0,
			"0.018": 0.0,
			"0.019": 0.0,
			"0.02": 0.0,
			"0.021": 0.0,
			"0.022": 0.0,
			"0.023": 0.0,
			"0.024": 0.0,
			"0.025": 0.0
		}
	}
}
