{
	 "smiles": "CC1OC(C(O)C1O)N1C=C(F)C(=O)NC1=O", 
	 "Tm": 463.15, 
	 "num_atms": 28, 
	 "gaussian": { 
		 "optdone": 1, 
		 "sigma_profile": "yes", 
		 "theory": "DFT", 
		 "functional": "B3LYP", 
		 "basiset": "6-31G**", 
		 "properties": { 
			 "R2extent": 4663.6752, 
			 "electric_dipole_moment_norm": 5.17005843197, 
			 "electric_quadrupole_moment_norm": 16.1350367502, 
			 "total_energy": -935.040533422, 
			 "HOMO_LUMO_gap": 0.19406, 
			 "cosmo_polarized_energy": -19.86, 
			 "cosmo_cavitation_energy": 31.85, 
			 "cosmo_dispersion_energy": -22.88, 
			 "cosmo_repulsion_energy": 1.75, 
			 "cosmo_total_nonelectrostatic_energy": 10.72, 
			 "SMD_solvation_energy": 7.22 
		},
		"coords": [
			{
				"x": -3.6320379227,
				"y": 0.6434795249,
				"z": -0.5568492797,
				"element": "C" 
			},
			{
				"x": -2.377837232,
				"y": -0.1851985772,
				"z": -0.2911804588,
				"element": "C" 
			},
			{
				"x": -1.2752524929,
				"y": 0.2588938326,
				"z": -1.1171201461,
				"element": "O" 
			},
			{
				"x": -0.5917048074,
				"y": 1.2834243448,
				"z": -0.4426837748,
				"element": "C" 
			},
			{
				"x": -0.9368915706,
				"y": 1.1819271016,
				"z": 1.0742767867,
				"element": "C" 
			},
			{
				"x": -1.6214023838,
				"y": 2.3326816435,
				"z": 1.5172471959,
				"element": "O" 
			},
			{
				"x": -1.8437920242,
				"y": -0.0548615998,
				"z": 1.1464262945,
				"element": "C" 
			},
			{
				"x": -0.9928308848,
				"y": -1.1406284676,
				"z": 1.4943390316,
				"element": "O" 
			},
			{
				"x": 0.855069911,
				"y": 1.1596417456,
				"z": -0.7121383276,
				"element": "N" 
			},
			{
				"x": 1.411124634,
				"y": 0.0648973297,
				"z": -1.3414602346,
				"element": "C" 
			},
			{
				"x": 2.7361814568,
				"y": -0.0023717758,
				"z": -1.5823057088,
				"element": "C" 
			},
			{
				"x": 3.2736147721,
				"y": -1.0648723052,
				"z": -2.1977099444,
				"element": "F" 
			},
			{
				"x": 3.6485193046,
				"y": 1.0663802858,
				"z": -1.1895426623,
				"element": "C" 
			},
			{
				"x": 4.8525177502,
				"y": 1.0982498236,
				"z": -1.3648445665,
				"element": "O" 
			},
			{
				"x": 2.966299886,
				"y": 2.1207191568,
				"z": -0.5451908072,
				"element": "N" 
			},
			{
				"x": 1.6183080411,
				"y": 2.2248149577,
				"z": -0.2605336213,
				"element": "C" 
			},
			{
				"x": 1.1262297026,
				"y": 3.1749445091,
				"z": 0.3451726699,
				"element": "O" 
			},
			{
				"x": -3.8573613138,
				"y": 0.6531835783,
				"z": -1.6265474255,
				"element": "H" 
			},
			{
				"x": -4.4892958864,
				"y": 0.2141079498,
				"z": -0.0275191594,
				"element": "H" 
			},
			{
				"x": -3.5028778345,
				"y": 1.6727448862,
				"z": -0.2105596766,
				"element": "H" 
			},
			{
				"x": -2.5472094565,
				"y": -1.2332843556,
				"z": -0.5626966109,
				"element": "H" 
			},
			{
				"x": -0.8926553445,
				"y": 2.2733985457,
				"z": -0.8053357299,
				"element": "H" 
			},
			{
				"x": -0.03555639,
				"y": 0.9880297032,
				"z": 1.6661581966,
				"element": "H" 
			},
			{
				"x": -0.9878336894,
				"y": 3.0618019409,
				"z": 1.4221041703,
				"element": "H" 
			},
			{
				"x": -2.6452144914,
				"y": 0.0956410194,
				"z": 1.8809432192,
				"element": "H" 
			},
			{
				"x": -1.5200275199,
				"y": -1.949664212,
				"z": 1.5094079863,
				"element": "H" 
			},
			{
				"x": 0.7184481606,
				"y": -0.7139321746,
				"z": -1.6282221439,
				"element": "H" 
			},
			{
				"x": 3.542267626,
				"y": 2.8898515885,
				"z": -0.2234352726,
				"element": "H" 
			}
		],
		 "valence_orbital": [ 
			{
				"type": "occ",
				"energy": -0.29406,
				"method": "rhf"
			},
			{
				"type": "occ",
				"energy": -0.28939,
				"method": "rhf"
			},
			{
				"type": "occ",
				"energy": -0.27936,
				"method": "rhf"
			},
			{
				"type": "occ",
				"energy": -0.27179,
				"method": "rhf"
			},
			{
				"type": "occ",
				"energy": -0.23733,
				"method": "rhf"
			},
			{
				"type": "unocc",
				"energy": -0.04327,
				"method": "rhf"
			},
			{
				"type": "unocc",
				"energy": 0.00124,
				"method": "rhf"
			},
			{
				"type": "unocc",
				"energy": 0.05465,
				"method": "rhf"
			},
			{
				"type": "unocc",
				"energy": 0.07017,
				"method": "rhf"
			},
			{
				"type": "unocc",
				"energy": 0.08004,
				"method": "rhf"
			}
		],
		"cosmo_sigma_profile": { 
			"-0.025": 0.0,
			"-0.024": 0.0,
			"-0.023": 0.0,
			"-0.022": 0.0,
			"-0.021": 0.0,
			"-0.02": 0.0,
			"-0.019": 0.0,
			"-0.018": 0.0,
			"-0.017": 0.401021312661,
			"-0.016": 1.88325986237,
			"-0.015": 1.95206219967,
			"-0.014": 1.88608739132,
			"-0.013": 2.63271322266,
			"-0.012": 1.84600964315,
			"-0.011": 2.41011824133,
			"-0.01": 1.62897792363,
			"-0.009": 2.88479842451,
			"-0.008": 4.74187982181,
			"-0.007": 7.22536087187,
			"-0.006": 12.1834077461,
			"-0.005": 15.905752991,
			"-0.004": 16.823248846,
			"-0.003": 18.7467237079,
			"-0.002": 19.5994052027,
			"-0.001": 18.6622256679,
			"0.0": 16.2427728288,
			"0.001": 10.8812222295,
			"0.002": 9.54783162755,
			"0.003": 13.5880534618,
			"0.004": 11.3931580791,
			"0.005": 7.88525800224,
			"0.006": 4.75786393635,
			"0.007": 5.64958697084,
			"0.008": 6.23338899436,
			"0.009": 6.28792297225,
			"0.01": 5.87684725624,
			"0.011": 7.01870026611,
			"0.012": 10.6728738191,
			"0.013": 3.5977358085,
			"0.014": 0.0244273676482,
			"0.015": 0.0,
			"0.016": 0.0,
			"0.017": 0.0,
			"0.018": 0.0,
			"0.019": 0.0,
			"0.02": 0.0,
			"0.021": 0.0,
			"0.022": 0.0,
			"0.023": 0.0,
			"0.024": 0.0,
			"0.025": 0.0
		}
	}
}
