{
	 "smiles": "C1CNCC(C1)C1=NN=C2CCCCCN12", 
	 "Tm": 445.15, 
	 "num_atms": 36, 
	 "gaussian": { 
		 "optdone": 1, 
		 "sigma_profile": "yes", 
		 "theory": "DFT", 
		 "functional": "B3LYP", 
		 "basiset": "6-31G**", 
		 "properties": { 
			 "R2extent": 3955.2108, 
			 "electric_dipole_moment_norm": 6.21680764219, 
			 "electric_quadrupole_moment_norm": 22.9325150795, 
			 "total_energy": -688.333925555, 
			 "HOMO_LUMO_gap": 0.25595, 
			 "cosmo_polarized_energy": -16.63, 
			 "cosmo_cavitation_energy": 34.11, 
			 "cosmo_dispersion_energy": -24.81, 
			 "cosmo_repulsion_energy": 1.93, 
			 "cosmo_total_nonelectrostatic_energy": 11.23, 
			 "SMD_solvation_energy": 1.38 
		},
		"coords": [
			{
				"x": 2.5554317373,
				"y": 0.1128703718,
				"z": 1.9564861582,
				"element": "C" 
			},
			{
				"x": 1.9810671222,
				"y": 1.4209763156,
				"z": 2.5090086116,
				"element": "C" 
			},
			{
				"x": 0.5519404329,
				"y": 1.4946854945,
				"z": 2.1894351096,
				"element": "N" 
			},
			{
				"x": -0.2272627143,
				"y": 0.4184663044,
				"z": 2.8104748859,
				"element": "C" 
			},
			{
				"x": 0.2534687316,
				"y": -0.982409573,
				"z": 2.3748667282,
				"element": "C" 
			},
			{
				"x": 1.795873952,
				"y": -1.0871878955,
				"z": 2.5356989907,
				"element": "C" 
			},
			{
				"x": -0.2731781607,
				"y": -1.5508870389,
				"z": 1.074030256,
				"element": "C" 
			},
			{
				"x": -0.7020037477,
				"y": -2.7988475686,
				"z": 1.058938058,
				"element": "N" 
			},
			{
				"x": -1.0731118856,
				"y": -3.116199461,
				"z": -0.2255901182,
				"element": "N" 
			},
			{
				"x": -0.8633935306,
				"y": -2.052165113,
				"z": -0.9665195067,
				"element": "C" 
			},
			{
				"x": -1.1507600652,
				"y": -1.9636754317,
				"z": -2.4314512636,
				"element": "C" 
			},
			{
				"x": -2.1921626558,
				"y": -0.8951056977,
				"z": -2.819298767,
				"element": "C" 
			},
			{
				"x": -1.6850769901,
				"y": 0.5514591357,
				"z": -2.7258617719,
				"element": "C" 
			},
			{
				"x": -1.2702998377,
				"y": 1.0278992279,
				"z": -1.3246804475,
				"element": "C" 
			},
			{
				"x": -0.0550928964,
				"y": 0.3193392603,
				"z": -0.7064266214,
				"element": "C" 
			},
			{
				"x": -0.3573475676,
				"y": -1.0241529196,
				"z": -0.2027561864,
				"element": "N" 
			},
			{
				"x": 3.6198018787,
				"y": 0.0398593937,
				"z": 2.2083500467,
				"element": "H" 
			},
			{
				"x": 2.4864868751,
				"y": 0.1217801422,
				"z": 0.8623324778,
				"element": "H" 
			},
			{
				"x": 2.48141513,
				"y": 2.2854653707,
				"z": 2.059114917,
				"element": "H" 
			},
			{
				"x": 2.1692156035,
				"y": 1.4634736664,
				"z": 3.5997045338,
				"element": "H" 
			},
			{
				"x": 0.1755623742,
				"y": 2.3942962181,
				"z": 2.4747678988,
				"element": "H" 
			},
			{
				"x": -1.2829176858,
				"y": 0.5556819,
				"z": 2.5529660604,
				"element": "H" 
			},
			{
				"x": -0.1552129363,
				"y": 0.4516049798,
				"z": 3.9139546932,
				"element": "H" 
			},
			{
				"x": -0.1764714622,
				"y": -1.6887546947,
				"z": 3.0921977208,
				"element": "H" 
			},
			{
				"x": 2.1444360814,
				"y": -2.0281767645,
				"z": 2.0995747544,
				"element": "H" 
			},
			{
				"x": 2.0092047261,
				"y": -1.1411564158,
				"z": 3.612155788,
				"element": "H" 
			},
			{
				"x": -1.5059760141,
				"y": -2.9560234228,
				"z": -2.7217398925,
				"element": "H" 
			},
			{
				"x": -0.2216396072,
				"y": -1.7825999714,
				"z": -2.9921092058,
				"element": "H" 
			},
			{
				"x": -3.0840524235,
				"y": -1.0213941061,
				"z": -2.1923449173,
				"element": "H" 
			},
			{
				"x": -2.509076055,
				"y": -1.084326777,
				"z": -3.8520282124,
				"element": "H" 
			},
			{
				"x": -2.4668624383,
				"y": 1.2226331787,
				"z": -3.1028173335,
				"element": "H" 
			},
			{
				"x": -0.8286845729,
				"y": 0.6724639538,
				"z": -3.4055872069,
				"element": "H" 
			},
			{
				"x": -1.0201385359,
				"y": 2.0948205175,
				"z": -1.3836457356,
				"element": "H" 
			},
			{
				"x": -2.1159415904,
				"y": 0.9465324287,
				"z": -0.6292987479,
				"element": "H" 
			},
			{
				"x": 0.3095773874,
				"y": 0.9033521398,
				"z": 0.1410088175,
				"element": "H" 
			},
			{
				"x": 0.7513813412,
				"y": 0.2411028518,
				"z": -1.4480105721,
				"element": "H" 
			}
		],
		 "valence_orbital": [ 
			{
				"type": "occ",
				"energy": -0.28022,
				"method": "rhf"
			},
			{
				"type": "occ",
				"energy": -0.26511,
				"method": "rhf"
			},
			{
				"type": "occ",
				"energy": -0.23868,
				"method": "rhf"
			},
			{
				"type": "occ",
				"energy": -0.22812,
				"method": "rhf"
			},
			{
				"type": "occ",
				"energy": -0.22234,
				"method": "rhf"
			},
			{
				"type": "unocc",
				"energy": 0.03361,
				"method": "rhf"
			},
			{
				"type": "unocc",
				"energy": 0.06034,
				"method": "rhf"
			},
			{
				"type": "unocc",
				"energy": 0.06496,
				"method": "rhf"
			},
			{
				"type": "unocc",
				"energy": 0.0855,
				"method": "rhf"
			},
			{
				"type": "unocc",
				"energy": 0.10215,
				"method": "rhf"
			}
		],
		"cosmo_sigma_profile": { 
			"-0.025": 0.0,
			"-0.024": 0.0,
			"-0.023": 0.0,
			"-0.022": 0.0,
			"-0.021": 0.0,
			"-0.02": 0.0,
			"-0.019": 0.0,
			"-0.018": 0.0,
			"-0.017": 0.0,
			"-0.016": 0.0,
			"-0.015": 0.0,
			"-0.014": 0.0,
			"-0.013": 0.0,
			"-0.012": 0.0,
			"-0.011": 0.231465967106,
			"-0.01": 1.61771705648,
			"-0.009": 1.05757480549,
			"-0.008": 1.45095978944,
			"-0.007": 1.23395576818,
			"-0.006": 1.54988713774,
			"-0.005": 6.75410636071,
			"-0.004": 17.9372199904,
			"-0.003": 42.9336388434,
			"-0.002": 53.488678941,
			"-0.001": 46.751918782,
			"0.0": 29.4438071518,
			"0.001": 12.2022660748,
			"0.002": 4.97454933352,
			"0.003": 4.46623996869,
			"0.004": 3.44912541894,
			"0.005": 3.28717251382,
			"0.006": 3.29386688169,
			"0.007": 2.57018866007,
			"0.008": 1.09521627019,
			"0.009": 2.28697128989,
			"0.01": 1.74505547425,
			"0.011": 1.42953359246,
			"0.012": 2.41452854987,
			"0.013": 2.48623639963,
			"0.014": 2.40905107985,
			"0.015": 3.90173553282,
			"0.016": 3.04897257603,
			"0.017": 2.39671599311,
			"0.018": 1.85131029623,
			"0.019": 0.268407507347,
			"0.02": 0.0,
			"0.021": 0.0,
			"0.022": 0.0,
			"0.023": 0.0,
			"0.024": 0.0,
			"0.025": 0.0
		}
	}
}
