{
	 "smiles": "CC1CCC2=C(C1)SC1=C2C(=O)N(CC2=CC=CO2)C(S)=N1", 
	 "Tm": 549.15, 
	 "num_atms": 38, 
	 "gaussian": { 
		 "optdone": 1, 
		 "sigma_profile": "yes", 
		 "theory": "DFT", 
		 "functional": "B3LYP", 
		 "basiset": "6-31G**", 
		 "properties": { 
			 "R2extent": 10149.0895, 
			 "electric_dipole_moment_norm": 0.884840070295, 
			 "electric_quadrupole_moment_norm": 15.5944946356, 
			 "total_energy": -1675.67515833, 
			 "HOMO_LUMO_gap": 0.16474, 
			 "cosmo_polarized_energy": -12.23, 
			 "cosmo_cavitation_energy": 43.3, 
			 "cosmo_dispersion_energy": -31.89, 
			 "cosmo_repulsion_energy": 2.33, 
			 "cosmo_total_nonelectrostatic_energy": 13.74, 
			 "SMD_solvation_energy": 5.45 
		},
		"coords": [
			{
				"x": 3.5277883488,
				"y": -3.0157034732,
				"z": 3.3540032529,
				"element": "C" 
			},
			{
				"x": 3.0853640554,
				"y": -2.111432193,
				"z": 2.1990611507,
				"element": "C" 
			},
			{
				"x": 1.9633495625,
				"y": -2.7487465862,
				"z": 1.3602765088,
				"element": "C" 
			},
			{
				"x": 1.6182390409,
				"y": -1.9151012316,
				"z": 0.1156559072,
				"element": "C" 
			},
			{
				"x": 1.4986939626,
				"y": -0.4491781295,
				"z": 0.4527066806,
				"element": "C" 
			},
			{
				"x": 1.970700909,
				"y": 0.0640933802,
				"z": 1.6292842976,
				"element": "C" 
			},
			{
				"x": 2.6367085906,
				"y": -0.7283368765,
				"z": 2.7192649344,
				"element": "C" 
			},
			{
				"x": 1.7042187266,
				"y": 1.8003867919,
				"z": 1.7663607405,
				"element": "S" 
			},
			{
				"x": 0.9400337775,
				"y": 1.8339107933,
				"z": 0.1960886564,
				"element": "C" 
			},
			{
				"x": 0.9069512151,
				"y": 0.5681130062,
				"z": -0.3762210273,
				"element": "C" 
			},
			{
				"x": 0.3134054041,
				"y": 0.421011342,
				"z": -1.6829791576,
				"element": "C" 
			},
			{
				"x": 0.2268192769,
				"y": -0.609825127,
				"z": -2.340426764,
				"element": "O" 
			},
			{
				"x": -0.2009257772,
				"y": 1.6593985411,
				"z": -2.2149059975,
				"element": "N" 
			},
			{
				"x": -0.831588508,
				"y": 1.569850361,
				"z": -3.5509957468,
				"element": "C" 
			},
			{
				"x": -2.3233509208,
				"y": 1.585410666,
				"z": -3.5263689163,
				"element": "C" 
			},
			{
				"x": -3.2570948085,
				"y": 2.3923073066,
				"z": -4.1094851077,
				"element": "C" 
			},
			{
				"x": -4.5376119076,
				"y": 1.8470706333,
				"z": -3.7656305798,
				"element": "C" 
			},
			{
				"x": -4.2848111913,
				"y": 0.7534467326,
				"z": -2.9961806006,
				"element": "C" 
			},
			{
				"x": -2.9422946901,
				"y": 0.5751643874,
				"z": -2.8447136034,
				"element": "O" 
			},
			{
				"x": -0.0897900775,
				"y": 2.8461333916,
				"z": -1.5295840599,
				"element": "C" 
			},
			{
				"x": -0.7294819309,
				"y": 4.317381187,
				"z": -2.3163533851,
				"element": "S" 
			},
			{
				"x": 0.458851863,
				"y": 2.9774185289,
				"z": -0.3541790908,
				"element": "N" 
			},
			{
				"x": 4.3201709492,
				"y": -2.5474916545,
				"z": 3.9485842607,
				"element": "H" 
			},
			{
				"x": 2.6893871494,
				"y": -3.2312471935,
				"z": 4.0273990378,
				"element": "H" 
			},
			{
				"x": 3.9098290678,
				"y": -3.972211128,
				"z": 2.9819269176,
				"element": "H" 
			},
			{
				"x": 3.9479022214,
				"y": -1.9501704401,
				"z": 1.5356830943,
				"element": "H" 
			},
			{
				"x": 2.2537998651,
				"y": -3.7610556377,
				"z": 1.055656246,
				"element": "H" 
			},
			{
				"x": 1.0691469461,
				"y": -2.8558902149,
				"z": 1.9905136604,
				"element": "H" 
			},
			{
				"x": 2.3929028637,
				"y": -2.0451465896,
				"z": -0.6527317168,
				"element": "H" 
			},
			{
				"x": 0.6921929153,
				"y": -2.2656094893,
				"z": -0.3492239588,
				"element": "H" 
			},
			{
				"x": 1.9419099895,
				"y": -0.8640542279,
				"z": 3.5623350854,
				"element": "H" 
			},
			{
				"x": 3.5000976094,
				"y": -0.1844597303,
				"z": 3.1234334547,
				"element": "H" 
			},
			{
				"x": -0.4709794162,
				"y": 2.3923955524,
				"z": -4.1735740805,
				"element": "H" 
			},
			{
				"x": -0.4669023414,
				"y": 0.6263454737,
				"z": -3.9631894908,
				"element": "H" 
			},
			{
				"x": -3.0580266645,
				"y": 3.2699300147,
				"z": -4.7077258792,
				"element": "H" 
			},
			{
				"x": -5.508887495,
				"y": 2.2252165308,
				"z": -4.0497155105,
				"element": "H" 
			},
			{
				"x": -4.9127149407,
				"y": 0.0301111959,
				"z": -2.4996433118,
				"element": "H" 
			},
			{
				"x": -0.2060036403,
				"y": 5.1118641063,
				"z": -1.3648059009,
				"element": "H" 
			}
		],
		 "valence_orbital": [ 
			{
				"type": "occ",
				"energy": -0.2765,
				"method": "rhf"
			},
			{
				"type": "occ",
				"energy": -0.26411,
				"method": "rhf"
			},
			{
				"type": "occ",
				"energy": -0.24896,
				"method": "rhf"
			},
			{
				"type": "occ",
				"energy": -0.22778,
				"method": "rhf"
			},
			{
				"type": "occ",
				"energy": -0.20458,
				"method": "rhf"
			},
			{
				"type": "unocc",
				"energy": -0.03984,
				"method": "rhf"
			},
			{
				"type": "unocc",
				"energy": -0.01042,
				"method": "rhf"
			},
			{
				"type": "unocc",
				"energy": -0.00171,
				"method": "rhf"
			},
			{
				"type": "unocc",
				"energy": 0.01398,
				"method": "rhf"
			},
			{
				"type": "unocc",
				"energy": 0.02445,
				"method": "rhf"
			}
		],
		"cosmo_sigma_profile": { 
			"-0.025": 0.0,
			"-0.024": 0.0,
			"-0.023": 0.0,
			"-0.022": 0.0,
			"-0.021": 0.0,
			"-0.02": 0.0,
			"-0.019": 0.0,
			"-0.018": 0.0,
			"-0.017": 0.0,
			"-0.016": 0.0,
			"-0.015": 0.0,
			"-0.014": 0.0,
			"-0.013": 0.0276992809347,
			"-0.012": 0.893569497602,
			"-0.011": 1.54204924278,
			"-0.01": 1.05632303977,
			"-0.009": 2.42752063286,
			"-0.008": 4.39617407463,
			"-0.007": 8.18796887624,
			"-0.006": 10.0308892842,
			"-0.005": 11.6343055549,
			"-0.004": 18.9039596446,
			"-0.003": 31.1081161305,
			"-0.002": 40.6020430327,
			"-0.001": 36.5722002314,
			"0.0": 31.9700845181,
			"0.001": 34.1743037904,
			"0.002": 29.6763876601,
			"0.003": 24.4139126384,
			"0.004": 17.9142796932,
			"0.005": 11.6693827885,
			"0.006": 8.77543938819,
			"0.007": 4.81717898758,
			"0.008": 3.82645180409,
			"0.009": 3.23680250773,
			"0.01": 3.0799377546,
			"0.011": 2.39049472155,
			"0.012": 3.43280177884,
			"0.013": 1.39565234153,
			"0.014": 0.0,
			"0.015": 0.0,
			"0.016": 0.0,
			"0.017": 0.0,
			"0.018": 0.0,
			"0.019": 0.0,
			"0.02": 0.0,
			"0.021": 0.0,
			"0.022": 0.0,
			"0.023": 0.0,
			"0.024": 0.0,
			"0.025": 0.0
		}
	}
}
