{
	 "smiles": "CC1=CC(=CC=C1)C1=NC(CCl)=NO1", 
	 "Tm": 318.15, 
	 "num_atms": 23, 
	 "gaussian": { 
		 "optdone": 1, 
		 "sigma_profile": "yes", 
		 "theory": "DFT", 
		 "functional": "B3LYP", 
		 "basiset": "6-31G**", 
		 "properties": { 
			 "R2extent": 4524.5014, 
			 "electric_dipole_moment_norm": 3.72704985075, 
			 "electric_quadrupole_moment_norm": 9.49613950877, 
			 "total_energy": -1031.38302336, 
			 "HOMO_LUMO_gap": 0.18651, 
			 "cosmo_polarized_energy": -9.08, 
			 "cosmo_cavitation_energy": 29.88, 
			 "cosmo_dispersion_energy": -22.0, 
			 "cosmo_repulsion_energy": 1.75, 
			 "cosmo_total_nonelectrostatic_energy": 9.62, 
			 "SMD_solvation_energy": 2.88 
		},
		"coords": [
			{
				"x": 2.1313480451,
				"y": -3.6991464243,
				"z": -1.4901820639,
				"element": "C" 
			},
			{
				"x": 1.8827736934,
				"y": -2.5824830161,
				"z": -0.5035068313,
				"element": "C" 
			},
			{
				"x": 0.6956582115,
				"y": -1.8479456644,
				"z": -0.5306102402,
				"element": "C" 
			},
			{
				"x": 0.4730994443,
				"y": -0.8058570454,
				"z": 0.3841021361,
				"element": "C" 
			},
			{
				"x": 1.4470272361,
				"y": -0.4890556893,
				"z": 1.3416033499,
				"element": "C" 
			},
			{
				"x": 2.6320465117,
				"y": -1.2192733384,
				"z": 1.3737944281,
				"element": "C" 
			},
			{
				"x": 2.8468898079,
				"y": -2.2536923739,
				"z": 0.4624680058,
				"element": "C" 
			},
			{
				"x": -0.7675675033,
				"y": -0.0376255002,
				"z": 0.3561060072,
				"element": "C" 
			},
			{
				"x": -1.1312269016,
				"y": 0.9430923301,
				"z": 1.1411435789,
				"element": "N" 
			},
			{
				"x": -2.3689003796,
				"y": 1.2689033104,
				"z": 0.6494516724,
				"element": "C" 
			},
			{
				"x": -3.2308302934,
				"y": 2.3434472913,
				"z": 1.216009288,
				"element": "C" 
			},
			{
				"x": -2.5899969058,
				"y": 3.9982965665,
				"z": 0.8242112189,
				"element": "Cl" 
			},
			{
				"x": -2.7712233398,
				"y": 0.5483772606,
				"z": -0.3706171051,
				"element": "N" 
			},
			{
				"x": -1.7018163991,
				"y": -0.3326537141,
				"z": -0.5745028444,
				"element": "O" 
			},
			{
				"x": 2.9730045673,
				"y": -3.4630740043,
				"z": -2.1515511036,
				"element": "H" 
			},
			{
				"x": 1.2551870127,
				"y": -3.880058147,
				"z": -2.1181286537,
				"element": "H" 
			},
			{
				"x": 2.3772876913,
				"y": -4.6354544401,
				"z": -0.9773445464,
				"element": "H" 
			},
			{
				"x": -0.0672895115,
				"y": -2.082172436,
				"z": -1.2663366182,
				"element": "H" 
			},
			{
				"x": 1.2622304518,
				"y": 0.3190934051,
				"z": 2.0406195654,
				"element": "H" 
			},
			{
				"x": 3.3921111616,
				"y": -0.9819435329,
				"z": 2.1120974073,
				"element": "H" 
			},
			{
				"x": 3.7765623147,
				"y": -2.8164511284,
				"z": 0.4989990892,
				"element": "H" 
			},
			{
				"x": -4.2350269892,
				"y": 2.2794431592,
				"z": 0.7999904809,
				"element": "H" 
			},
			{
				"x": -3.2623479261,
				"y": 2.2757331313,
				"z": 2.3032837788,
				"element": "H" 
			}
		],
		 "valence_orbital": [ 
			{
				"type": "occ",
				"energy": -0.3049,
				"method": "rhf"
			},
			{
				"type": "occ",
				"energy": -0.30154,
				"method": "rhf"
			},
			{
				"type": "occ",
				"energy": -0.29946,
				"method": "rhf"
			},
			{
				"type": "occ",
				"energy": -0.26223,
				"method": "rhf"
			},
			{
				"type": "occ",
				"energy": -0.25059,
				"method": "rhf"
			},
			{
				"type": "unocc",
				"energy": -0.06408,
				"method": "rhf"
			},
			{
				"type": "unocc",
				"energy": -0.02225,
				"method": "rhf"
			},
			{
				"type": "unocc",
				"energy": -0.0126,
				"method": "rhf"
			},
			{
				"type": "unocc",
				"energy": 0.03533,
				"method": "rhf"
			},
			{
				"type": "unocc",
				"energy": 0.06089,
				"method": "rhf"
			}
		],
		"cosmo_sigma_profile": { 
			"-0.025": 0.0,
			"-0.024": 0.0,
			"-0.023": 0.0,
			"-0.022": 0.0,
			"-0.021": 0.0,
			"-0.02": 0.0,
			"-0.019": 0.0,
			"-0.018": 0.0,
			"-0.017": 0.0,
			"-0.016": 0.0,
			"-0.015": 0.0,
			"-0.014": 0.0,
			"-0.013": 0.0,
			"-0.012": 0.0,
			"-0.011": 0.0,
			"-0.01": 0.533781753102,
			"-0.009": 3.74196544589,
			"-0.008": 3.31087081956,
			"-0.007": 5.58470702221,
			"-0.006": 12.1240348741,
			"-0.005": 13.922020065,
			"-0.004": 19.3987115495,
			"-0.003": 17.623031293,
			"-0.002": 18.2647135054,
			"-0.001": 20.3627646021,
			"0.0": 21.4777544868,
			"0.001": 15.9538936865,
			"0.002": 16.3203264237,
			"0.003": 19.2268603954,
			"0.004": 14.6843788103,
			"0.005": 14.603897255,
			"0.006": 10.32312595,
			"0.007": 3.38749118691,
			"0.008": 2.38951215965,
			"0.009": 2.49813374921,
			"0.01": 1.78934197524,
			"0.011": 2.36950916327,
			"0.012": 1.63477469203,
			"0.013": 0.203024202073,
			"0.014": 0.0,
			"0.015": 0.0,
			"0.016": 0.0,
			"0.017": 0.0,
			"0.018": 0.0,
			"0.019": 0.0,
			"0.02": 0.0,
			"0.021": 0.0,
			"0.022": 0.0,
			"0.023": 0.0,
			"0.024": 0.0,
			"0.025": 0.0
		}
	}
}
