{
	 "smiles": "CSC1=NC(O)=NS1", 
	 "Tm": 432.15, 
	 "num_atms": 12, 
	 "gaussian": { 
		 "optdone": 1, 
		 "sigma_profile": "yes", 
		 "theory": "DFT", 
		 "functional": "B3LYP", 
		 "basiset": "6-31G**", 
		 "properties": { 
			 "R2extent": 2416.6489, 
			 "electric_dipole_moment_norm": 4.19538994016, 
			 "electric_quadrupole_moment_norm": 12.3509255018, 
			 "total_energy": -1097.81513011, 
			 "HOMO_LUMO_gap": 0.19357, 
			 "cosmo_polarized_energy": -10.64, 
			 "cosmo_cavitation_energy": 19.89, 
			 "cosmo_dispersion_energy": -16.09, 
			 "cosmo_repulsion_energy": 1.25, 
			 "cosmo_total_nonelectrostatic_energy": 5.05, 
			 "SMD_solvation_energy": 1.25 
		},
		"coords": [
			{
				"x": 0.5688457093,
				"y": 0.5120381756,
				"z": -0.8746169215,
				"element": "C" 
			},
			{
				"x": 0.2682074755,
				"y": 1.6446838573,
				"z": 0.5284155565,
				"element": "S" 
			},
			{
				"x": -0.9864070681,
				"y": 0.7639600949,
				"z": 1.3769084997,
				"element": "C" 
			},
			{
				"x": -1.489262863,
				"y": -0.3864031304,
				"z": 1.0051265081,
				"element": "N" 
			},
			{
				"x": -2.4481119496,
				"y": -0.755252157,
				"z": 1.9252176441,
				"element": "C" 
			},
			{
				"x": -3.1010198211,
				"y": -1.9144768262,
				"z": 1.740917351,
				"element": "O" 
			},
			{
				"x": -2.7254482273,
				"y": -0.0034574223,
				"z": 2.9575069059,
				"element": "N" 
			},
			{
				"x": -1.7244126764,
				"y": 1.346977729,
				"z": 2.858525744,
				"element": "S" 
			},
			{
				"x": 0.9062744026,
				"y": -0.4585714623,
				"z": -0.5112030541,
				"element": "H" 
			},
			{
				"x": -0.3387230137,
				"y": 0.3945193139,
				"z": -1.4666670189,
				"element": "H" 
			},
			{
				"x": 1.3509738747,
				"y": 0.9848766633,
				"z": -1.4715870694,
				"element": "H" 
			},
			{
				"x": -2.7488158429,
				"y": -2.3085948359,
				"z": 0.9302558547,
				"element": "H" 
			}
		],
		 "valence_orbital": [ 
			{
				"type": "occ",
				"energy": -0.32468,
				"method": "rhf"
			},
			{
				"type": "occ",
				"energy": -0.32036,
				"method": "rhf"
			},
			{
				"type": "occ",
				"energy": -0.29179,
				"method": "rhf"
			},
			{
				"type": "occ",
				"energy": -0.27681,
				"method": "rhf"
			},
			{
				"type": "occ",
				"energy": -0.23338,
				"method": "rhf"
			},
			{
				"type": "unocc",
				"energy": -0.03981,
				"method": "rhf"
			},
			{
				"type": "unocc",
				"energy": -0.01721,
				"method": "rhf"
			},
			{
				"type": "unocc",
				"energy": 0.02002,
				"method": "rhf"
			},
			{
				"type": "unocc",
				"energy": 0.04103,
				"method": "rhf"
			},
			{
				"type": "unocc",
				"energy": 0.05708,
				"method": "rhf"
			}
		],
		"cosmo_sigma_profile": { 
			"-0.025": 0.0,
			"-0.024": 0.0,
			"-0.023": 0.0,
			"-0.022": 0.0,
			"-0.021": 0.0,
			"-0.02": 0.0,
			"-0.019": 0.25603492636,
			"-0.018": 0.796903928188,
			"-0.017": 0.844043265251,
			"-0.016": 0.749449081343,
			"-0.015": 0.895651281887,
			"-0.014": 0.60781225532,
			"-0.013": 0.569351164965,
			"-0.012": 0.541066064873,
			"-0.011": 1.0940809564,
			"-0.01": 0.410354973262,
			"-0.009": 0.842042913733,
			"-0.008": 2.88849840848,
			"-0.007": 5.08434116469,
			"-0.006": 7.12946665635,
			"-0.005": 7.75323329025,
			"-0.004": 7.54842046737,
			"-0.003": 12.308241816,
			"-0.002": 14.6826880178,
			"-0.001": 14.606428397,
			"0.0": 12.4321561886,
			"0.001": 11.4444259315,
			"0.002": 12.5132917761,
			"0.003": 8.91575613986,
			"0.004": 6.03599079425,
			"0.005": 6.58076470388,
			"0.006": 5.0929992165,
			"0.007": 3.53577988737,
			"0.008": 2.99214202256,
			"0.009": 4.83168321477,
			"0.01": 4.18660594108,
			"0.011": 1.27459569547,
			"0.012": 1.48108584489,
			"0.013": 1.42867630095,
			"0.014": 1.07409660135,
			"0.015": 0.18706352626,
			"0.016": 0.0,
			"0.017": 0.0,
			"0.018": 0.0,
			"0.019": 0.0,
			"0.02": 0.0,
			"0.021": 0.0,
			"0.022": 0.0,
			"0.023": 0.0,
			"0.024": 0.0,
			"0.025": 0.0
		}
	}
}
