{
	 "smiles": "NS(=O)(=O)C1=CC=CC(=C1)C#N", 
	 "Tm": 425.15, 
	 "num_atms": 18, 
	 "gaussian": { 
		 "optdone": 1, 
		 "sigma_profile": "yes", 
		 "theory": "DFT", 
		 "functional": "B3LYP", 
		 "basiset": "6-31G**", 
		 "properties": { 
			 "R2extent": 3285.5741, 
			 "electric_dipole_moment_norm": 5.5993489693, 
			 "electric_quadrupole_moment_norm": 26.9787559986, 
			 "total_energy": -928.407171273, 
			 "HOMO_LUMO_gap": 0.21063, 
			 "cosmo_polarized_energy": -22.61, 
			 "cosmo_cavitation_energy": 25.42, 
			 "cosmo_dispersion_energy": -18.51, 
			 "cosmo_repulsion_energy": 1.43, 
			 "cosmo_total_nonelectrostatic_energy": 8.34, 
			 "SMD_solvation_energy": 5.52 
		},
		"coords": [
			{
				"x": -1.5350436676,
				"y": -0.0507866684,
				"z": -0.8428112261,
				"element": "N" 
			},
			{
				"x": 0.1175386551,
				"y": 0.1663378908,
				"z": -1.0038902178,
				"element": "S" 
			},
			{
				"x": 0.2875332964,
				"y": 1.1576328693,
				"z": -2.0624235088,
				"element": "O" 
			},
			{
				"x": 0.6927325364,
				"y": -1.1752586213,
				"z": -1.0534054682,
				"element": "O" 
			},
			{
				"x": 0.6965863495,
				"y": 0.9264554617,
				"z": 0.5282978368,
				"element": "C" 
			},
			{
				"x": 1.1313719136,
				"y": 0.1117728248,
				"z": 1.5766723792,
				"element": "C" 
			},
			{
				"x": 1.5608091199,
				"y": 0.702401212,
				"z": 2.766257492,
				"element": "C" 
			},
			{
				"x": 1.5586586486,
				"y": 2.0885552376,
				"z": 2.9042599177,
				"element": "C" 
			},
			{
				"x": 1.1323353985,
				"y": 2.8993289202,
				"z": 1.837683127,
				"element": "C" 
			},
			{
				"x": 0.7018493343,
				"y": 2.3151913038,
				"z": 0.6361108536,
				"element": "C" 
			},
			{
				"x": 1.1407394716,
				"y": 4.327659346,
				"z": 1.9753866931,
				"element": "C" 
			},
			{
				"x": 1.1424910875,
				"y": 5.4843866804,
				"z": 2.0942067096,
				"element": "N" 
			},
			{
				"x": -2.062345803,
				"y": 0.8149681567,
				"z": -0.8063460953,
				"element": "H" 
			},
			{
				"x": -1.7944322041,
				"y": -0.7264022311,
				"z": -0.1321866424,
				"element": "H" 
			},
			{
				"x": 1.1516258064,
				"y": -0.9648619363,
				"z": 1.4454816255,
				"element": "H" 
			},
			{
				"x": 1.9059682875,
				"y": 0.0795570604,
				"z": 3.585208681,
				"element": "H" 
			},
			{
				"x": 1.8923619788,
				"y": 2.5525316892,
				"z": 3.826152312,
				"element": "H" 
			},
			{
				"x": 0.3994197906,
				"y": 2.9322308043,
				"z": -0.2026544688,
				"element": "H" 
			}
		],
		 "valence_orbital": [ 
			{
				"type": "occ",
				"energy": -0.33194,
				"method": "rhf"
			},
			{
				"type": "occ",
				"energy": -0.31949,
				"method": "rhf"
			},
			{
				"type": "occ",
				"energy": -0.31804,
				"method": "rhf"
			},
			{
				"type": "occ",
				"energy": -0.29468,
				"method": "rhf"
			},
			{
				"type": "occ",
				"energy": -0.28717,
				"method": "rhf"
			},
			{
				"type": "unocc",
				"energy": -0.07654,
				"method": "rhf"
			},
			{
				"type": "unocc",
				"energy": -0.0598,
				"method": "rhf"
			},
			{
				"type": "unocc",
				"energy": 0.0191,
				"method": "rhf"
			},
			{
				"type": "unocc",
				"energy": 0.0353,
				"method": "rhf"
			},
			{
				"type": "unocc",
				"energy": 0.04164,
				"method": "rhf"
			}
		],
		"cosmo_sigma_profile": { 
			"-0.025": 0.0,
			"-0.024": 0.0,
			"-0.023": 0.0,
			"-0.022": 0.0,
			"-0.021": 0.0,
			"-0.02": 0.0,
			"-0.019": 0.0,
			"-0.018": 0.0,
			"-0.017": 0.0,
			"-0.016": 0.850006244965,
			"-0.015": 2.94507692792,
			"-0.014": 2.51024875447,
			"-0.013": 2.99378976311,
			"-0.012": 3.09559104517,
			"-0.011": 2.85732729662,
			"-0.01": 1.89345056871,
			"-0.009": 4.97551286424,
			"-0.008": 9.28231060473,
			"-0.007": 12.4557489121,
			"-0.006": 8.72932983419,
			"-0.005": 7.81039933562,
			"-0.004": 6.36965229036,
			"-0.003": 9.94163494903,
			"-0.002": 12.2574821003,
			"-0.001": 14.6095692547,
			"0.0": 14.8411814898,
			"0.001": 9.87482722958,
			"0.002": 4.63708345365,
			"0.003": 3.96091618668,
			"0.004": 4.34965009159,
			"0.005": 6.09155632385,
			"0.006": 5.77021265803,
			"0.007": 8.08544203142,
			"0.008": 7.75576695816,
			"0.009": 7.58542525625,
			"0.01": 11.3502889744,
			"0.011": 12.4579868255,
			"0.012": 4.14377996439,
			"0.013": 0.576426778335,
			"0.014": 0.0,
			"0.015": 0.0,
			"0.016": 0.0,
			"0.017": 0.0,
			"0.018": 0.0,
			"0.019": 0.0,
			"0.02": 0.0,
			"0.021": 0.0,
			"0.022": 0.0,
			"0.023": 0.0,
			"0.024": 0.0,
			"0.025": 0.0
		}
	}
}
