{
	 "smiles": "OC(=O)CS(=O)(=O)C1=CC=C(Cl)C=C1", 
	 "Tm": 396.15, 
	 "num_atms": 21, 
	 "gaussian": { 
		 "optdone": 1, 
		 "sigma_profile": "yes", 
		 "theory": "DFT", 
		 "functional": "B3LYP", 
		 "basiset": "6-31G**", 
		 "properties": { 
			 "R2extent": 4090.4925, 
			 "electric_dipole_moment_norm": 3.24347719123, 
			 "electric_quadrupole_moment_norm": 18.0143934031, 
			 "total_energy": -1468.28634126, 
			 "HOMO_LUMO_gap": 0.21508, 
			 "cosmo_polarized_energy": -17.67, 
			 "cosmo_cavitation_energy": 29.34, 
			 "cosmo_dispersion_energy": -21.55, 
			 "cosmo_repulsion_energy": 1.67, 
			 "cosmo_total_nonelectrostatic_energy": 9.46, 
			 "SMD_solvation_energy": 5.2 
		},
		"coords": [
			{
				"x": -3.4158488225,
				"y": -0.7006779411,
				"z": 2.3686720344,
				"element": "O" 
			},
			{
				"x": -2.2786070822,
				"y": -0.8161675721,
				"z": 1.658575541,
				"element": "C" 
			},
			{
				"x": -2.1083539799,
				"y": -1.6399026814,
				"z": 0.787673309,
				"element": "O" 
			},
			{
				"x": -1.2526400792,
				"y": 0.209391275,
				"z": 2.0874379388,
				"element": "C" 
			},
			{
				"x": -0.8994187984,
				"y": 1.4397904236,
				"z": 0.7640008803,
				"element": "S" 
			},
			{
				"x": -2.1752321982,
				"y": 1.7499851241,
				"z": 0.105617701,
				"element": "O" 
			},
			{
				"x": -0.092080663,
				"y": 2.4796012593,
				"z": 1.4175762605,
				"element": "O" 
			},
			{
				"x": 0.1569543419,
				"y": 0.5889759993,
				"z": -0.412497966,
				"element": "C" 
			},
			{
				"x": -0.415913786,
				"y": -0.1445560544,
				"z": -1.4532634319,
				"element": "C" 
			},
			{
				"x": 0.4145388654,
				"y": -0.7826504948,
				"z": -2.3717822223,
				"element": "C" 
			},
			{
				"x": 1.7994992307,
				"y": -0.6717035873,
				"z": -2.2313589341,
				"element": "C" 
			},
			{
				"x": 2.8430850945,
				"y": -1.4752297524,
				"z": -3.3867294038,
				"element": "Cl" 
			},
			{
				"x": 2.3734784633,
				"y": 0.069565494,
				"z": -1.1965316316,
				"element": "C" 
			},
			{
				"x": 1.5416951415,
				"y": 0.7074843171,
				"z": -0.2784451056,
				"element": "C" 
			},
			{
				"x": -4.0305955773,
				"y": -1.3710528958,
				"z": 2.0235044841,
				"element": "H" 
			},
			{
				"x": -1.5992824262,
				"y": 0.8121333765,
				"z": 2.9282377375,
				"element": "H" 
			},
			{
				"x": -0.3071785387,
				"y": -0.2766772017,
				"z": 2.3361056059,
				"element": "H" 
			},
			{
				"x": -1.4930917143,
				"y": -0.2108461827,
				"z": -1.5446739262,
				"element": "H" 
			},
			{
				"x": -0.0048242895,
				"y": -1.358210719,
				"z": -3.1889248225,
				"element": "H" 
			},
			{
				"x": 3.4515659256,
				"y": 0.1510860713,
				"z": -1.1180059251,
				"element": "H" 
			},
			{
				"x": 1.9582508923,
				"y": 1.3097617425,
				"z": 0.5216118764,
				"element": "H" 
			}
		],
		 "valence_orbital": [ 
			{
				"type": "occ",
				"energy": -0.31207,
				"method": "rhf"
			},
			{
				"type": "occ",
				"energy": -0.30398,
				"method": "rhf"
			},
			{
				"type": "occ",
				"energy": -0.29733,
				"method": "rhf"
			},
			{
				"type": "occ",
				"energy": -0.2838,
				"method": "rhf"
			},
			{
				"type": "occ",
				"energy": -0.27066,
				"method": "rhf"
			},
			{
				"type": "unocc",
				"energy": -0.05558,
				"method": "rhf"
			},
			{
				"type": "unocc",
				"energy": -0.03566,
				"method": "rhf"
			},
			{
				"type": "unocc",
				"energy": -0.02796,
				"method": "rhf"
			},
			{
				"type": "unocc",
				"energy": 0.01523,
				"method": "rhf"
			},
			{
				"type": "unocc",
				"energy": 0.05673,
				"method": "rhf"
			}
		],
		"cosmo_sigma_profile": { 
			"-0.025": 0.0,
			"-0.024": 0.0,
			"-0.023": 0.0,
			"-0.022": 0.0,
			"-0.021": 0.0,
			"-0.02": 0.0,
			"-0.019": 0.52292331216,
			"-0.018": 1.37393588758,
			"-0.017": 0.663951200063,
			"-0.016": 0.574799676885,
			"-0.015": 1.41096144241,
			"-0.014": 0.579303510861,
			"-0.013": 0.654681693779,
			"-0.012": 0.743336227983,
			"-0.011": 1.64806696176,
			"-0.01": 5.01579822153,
			"-0.009": 4.92789036065,
			"-0.008": 10.7834506548,
			"-0.007": 12.4577627065,
			"-0.006": 10.2569174341,
			"-0.005": 8.08749787791,
			"-0.004": 8.34600600056,
			"-0.003": 9.25164183321,
			"-0.002": 11.611229277,
			"-0.001": 14.0536555865,
			"0.0": 20.2858198433,
			"0.001": 22.3430272241,
			"0.002": 12.7334328681,
			"0.003": 14.1698650875,
			"0.004": 12.7684128347,
			"0.005": 5.91919423089,
			"0.006": 4.93597556263,
			"0.007": 5.92788522798,
			"0.008": 5.82938451044,
			"0.009": 6.903161082,
			"0.01": 10.8685785465,
			"0.011": 10.1519213797,
			"0.012": 1.2918309177,
			"0.013": 0.0,
			"0.014": 0.0,
			"0.015": 0.0,
			"0.016": 0.0,
			"0.017": 0.0,
			"0.018": 0.0,
			"0.019": 0.0,
			"0.02": 0.0,
			"0.021": 0.0,
			"0.022": 0.0,
			"0.023": 0.0,
			"0.024": 0.0,
			"0.025": 0.0
		}
	}
}
