{
	 "smiles": "CC1=CC2=NC(=C(N)N2C=C1)C1=CC=C(F)C=C1", 
	 "Tm": 462.15, 
	 "num_atms": 30, 
	 "gaussian": { 
		 "optdone": 1, 
		 "sigma_profile": "yes", 
		 "theory": "DFT", 
		 "functional": "B3LYP", 
		 "basiset": "6-31G**", 
		 "properties": { 
			 "R2extent": 6335.0415, 
			 "electric_dipole_moment_norm": 4.27397258999, 
			 "electric_quadrupole_moment_norm": 7.34433838137, 
			 "total_energy": -804.818542617, 
			 "HOMO_LUMO_gap": 0.15105, 
			 "cosmo_polarized_energy": -14.64, 
			 "cosmo_cavitation_energy": 34.45, 
			 "cosmo_dispersion_energy": -25.2, 
			 "cosmo_repulsion_energy": 1.89, 
			 "cosmo_total_nonelectrostatic_energy": 11.13, 
			 "SMD_solvation_energy": 4.81 
		},
		"coords": [
			{
				"x": 0.2846676798,
				"y": -0.8787785198,
				"z": 6.0419355606,
				"element": "C" 
			},
			{
				"x": 0.4641652579,
				"y": -0.4781275464,
				"z": 4.5991961983,
				"element": "C" 
			},
			{
				"x": 0.0116411807,
				"y": -1.2662492273,
				"z": 3.56488479,
				"element": "C" 
			},
			{
				"x": 0.1887547823,
				"y": -0.8663094657,
				"z": 2.2187420798,
				"element": "C" 
			},
			{
				"x": -0.1483183875,
				"y": -1.454458661,
				"z": 1.0817718225,
				"element": "N" 
			},
			{
				"x": 0.259298247,
				"y": -0.6034364458,
				"z": 0.0793036705,
				"element": "C" 
			},
			{
				"x": 0.853191491,
				"y": 0.5409365265,
				"z": 0.610121491,
				"element": "C" 
			},
			{
				"x": 1.4031447384,
				"y": 1.713883309,
				"z": 0.0683604028,
				"element": "N" 
			},
			{
				"x": 0.8304432063,
				"y": 0.366442303,
				"z": 1.977305509,
				"element": "N" 
			},
			{
				"x": 1.3051364965,
				"y": 1.159299918,
				"z": 2.9961827389,
				"element": "C" 
			},
			{
				"x": 1.1288603526,
				"y": 0.7538655814,
				"z": 4.2866290942,
				"element": "C" 
			},
			{
				"x": 0.0287665706,
				"y": -0.9276956719,
				"z": -1.3341331443,
				"element": "C" 
			},
			{
				"x": -1.0895908805,
				"y": -1.7030718353,
				"z": -1.6922188038,
				"element": "C" 
			},
			{
				"x": -1.3525226241,
				"y": -2.014215641,
				"z": -3.0226081995,
				"element": "C" 
			},
			{
				"x": -0.4868571723,
				"y": -1.5460774612,
				"z": -4.0068700852,
				"element": "C" 
			},
			{
				"x": -0.7419787819,
				"y": -1.8397486208,
				"z": -5.3005242359,
				"element": "F" 
			},
			{
				"x": 0.6401871139,
				"y": -0.7972765476,
				"z": -3.6937273708,
				"element": "C" 
			},
			{
				"x": 0.8964247744,
				"y": -0.5001050185,
				"z": -2.3546781025,
				"element": "C" 
			},
			{
				"x": 1.2501454993,
				"y": -0.9581951024,
				"z": 6.5560653148,
				"element": "H" 
			},
			{
				"x": -0.3092318077,
				"y": -0.1376037403,
				"z": 6.5904998582,
				"element": "H" 
			},
			{
				"x": -0.2214949568,
				"y": -1.8436982907,
				"z": 6.1268907718,
				"element": "H" 
			},
			{
				"x": -0.4892362588,
				"y": -2.2114760486,
				"z": 3.744585264,
				"element": "H" 
			},
			{
				"x": 0.889193557,
				"y": 2.5437482602,
				"z": 0.3619896061,
				"element": "H" 
			},
			{
				"x": 1.3920685144,
				"y": 1.6843641038,
				"z": -0.9439026019,
				"element": "H" 
			},
			{
				"x": 1.8227784621,
				"y": 2.0636791896,
				"z": 2.7015249524,
				"element": "H" 
			},
			{
				"x": 1.5118448505,
				"y": 1.3795662852,
				"z": 5.0861600257,
				"element": "H" 
			},
			{
				"x": -1.7455075432,
				"y": -2.0583016637,
				"z": -0.9050221728,
				"element": "H" 
			},
			{
				"x": -2.214691862,
				"y": -2.6078417644,
				"z": -3.3076531043,
				"element": "H" 
			},
			{
				"x": 1.3092758404,
				"y": -0.4775440046,
				"z": -4.4853574832,
				"element": "H" 
			},
			{
				"x": 1.8165416597,
				"y": 0.0204258002,
				"z": -2.1038538461,
				"element": "H" 
			}
		],
		 "valence_orbital": [ 
			{
				"type": "occ",
				"energy": -0.26392,
				"method": "rhf"
			},
			{
				"type": "occ",
				"energy": -0.26059,
				"method": "rhf"
			},
			{
				"type": "occ",
				"energy": -0.25566,
				"method": "rhf"
			},
			{
				"type": "occ",
				"energy": -0.21768,
				"method": "rhf"
			},
			{
				"type": "occ",
				"energy": -0.18378,
				"method": "rhf"
			},
			{
				"type": "unocc",
				"energy": -0.03273,
				"method": "rhf"
			},
			{
				"type": "unocc",
				"energy": -0.00833,
				"method": "rhf"
			},
			{
				"type": "unocc",
				"energy": 0.00049,
				"method": "rhf"
			},
			{
				"type": "unocc",
				"energy": 0.01376,
				"method": "rhf"
			},
			{
				"type": "unocc",
				"energy": 0.06711,
				"method": "rhf"
			}
		],
		"cosmo_sigma_profile": { 
			"-0.025": 0.0,
			"-0.024": 0.0,
			"-0.023": 0.0,
			"-0.022": 0.0,
			"-0.021": 0.0,
			"-0.02": 0.0,
			"-0.019": 0.0,
			"-0.018": 0.0,
			"-0.017": 0.0,
			"-0.016": 0.0,
			"-0.015": 0.0,
			"-0.014": 0.0,
			"-0.013": 0.513315017815,
			"-0.012": 2.15321886008,
			"-0.011": 3.2661240099,
			"-0.01": 3.78178961445,
			"-0.009": 3.229495956,
			"-0.008": 4.3771457109,
			"-0.007": 8.25889960241,
			"-0.006": 12.421603954,
			"-0.005": 14.2563792545,
			"-0.004": 20.7860606295,
			"-0.003": 15.0311667111,
			"-0.002": 16.1999282414,
			"-0.001": 16.837429874,
			"0.0": 20.1985672331,
			"0.001": 22.982479996,
			"0.002": 21.1573723083,
			"0.003": 25.9440741987,
			"0.004": 30.6073936401,
			"0.005": 12.2579287626,
			"0.006": 2.89160659876,
			"0.007": 2.49889032136,
			"0.008": 2.5868257648,
			"0.009": 3.11285446486,
			"0.01": 1.39002626155,
			"0.011": 2.17427133794,
			"0.012": 1.60522661876,
			"0.013": 1.19077122462,
			"0.014": 1.78732443403,
			"0.015": 0.742748399724,
			"0.016": 1.05025657787,
			"0.017": 0.666228537231,
			"0.018": 0.0151439546903,
			"0.019": 0.0,
			"0.02": 0.0,
			"0.021": 0.0,
			"0.022": 0.0,
			"0.023": 0.0,
			"0.024": 0.0,
			"0.025": 0.0
		}
	}
}
