{
	 "smiles": "COC1=CC=C(O)C(Cl)=C1", 
	 "Tm": 315.15, 
	 "num_atms": 17, 
	 "gaussian": { 
		 "optdone": 1, 
		 "sigma_profile": "yes", 
		 "theory": "DFT", 
		 "functional": "B3LYP", 
		 "basiset": "6-31G**", 
		 "properties": { 
			 "R2extent": 2629.8164, 
			 "electric_dipole_moment_norm": 2.04782398169, 
			 "electric_quadrupole_moment_norm": 11.5487284127, 
			 "total_energy": -881.585951388, 
			 "HOMO_LUMO_gap": 0.19366, 
			 "cosmo_polarized_energy": -7.24, 
			 "cosmo_cavitation_energy": 22.6, 
			 "cosmo_dispersion_energy": -17.28, 
			 "cosmo_repulsion_energy": 1.4, 
			 "cosmo_total_nonelectrostatic_energy": 6.72, 
			 "SMD_solvation_energy": 4.74 
		},
		"coords": [
			{
				"x": 1.5684684352,
				"y": -0.7989639314,
				"z": 3.4003657367,
				"element": "C" 
			},
			{
				"x": 1.6808455721,
				"y": -1.1199460467,
				"z": 2.0240003989,
				"element": "O" 
			},
			{
				"x": 1.5058287213,
				"y": -0.114337317,
				"z": 1.1142700384,
				"element": "C" 
			},
			{
				"x": 1.2218487579,
				"y": 1.2190468181,
				"z": 1.4335317861,
				"element": "C" 
			},
			{
				"x": 1.0632756864,
				"y": 2.1617937752,
				"z": 0.4172317069,
				"element": "C" 
			},
			{
				"x": 1.1814492459,
				"y": 1.8080446218,
				"z": -0.9275956106,
				"element": "C" 
			},
			{
				"x": 1.0165960928,
				"y": 2.7699947986,
				"z": -1.8746784002,
				"element": "O" 
			},
			{
				"x": 1.4666034971,
				"y": 0.465189205,
				"z": -1.2240315734,
				"element": "C" 
			},
			{
				"x": 1.6200382964,
				"y": -0.002883169,
				"z": -2.9191458674,
				"element": "Cl" 
			},
			{
				"x": 1.628330458,
				"y": -0.489342127,
				"z": -0.2295353987,
				"element": "C" 
			},
			{
				"x": 2.3195208987,
				"y": -0.0593149007,
				"z": 3.7078792426,
				"element": "H" 
			},
			{
				"x": 1.7407571038,
				"y": -1.7300574826,
				"z": 3.9423192181,
				"element": "H" 
			},
			{
				"x": 0.5690689691,
				"y": -0.4177473469,
				"z": 3.6485593305,
				"element": "H" 
			},
			{
				"x": 1.1217326906,
				"y": 1.5369426731,
				"z": 2.464046185,
				"element": "H" 
			},
			{
				"x": 0.8430928938,
				"y": 3.1975595958,
				"z": 0.653731756,
				"element": "H" 
			},
			{
				"x": 1.1288902256,
				"y": 2.3671716517,
				"z": -2.7487473054,
				"element": "H" 
			},
			{
				"x": 1.8480524554,
				"y": -1.520950818,
				"z": -0.4773012434,
				"element": "H" 
			}
		],
		 "valence_orbital": [ 
			{
				"type": "occ",
				"energy": -0.3339,
				"method": "rhf"
			},
			{
				"type": "occ",
				"energy": -0.32895,
				"method": "rhf"
			},
			{
				"type": "occ",
				"energy": -0.29835,
				"method": "rhf"
			},
			{
				"type": "occ",
				"energy": -0.25265,
				"method": "rhf"
			},
			{
				"type": "occ",
				"energy": -0.20743,
				"method": "rhf"
			},
			{
				"type": "unocc",
				"energy": -0.01377,
				"method": "rhf"
			},
			{
				"type": "unocc",
				"energy": 0.01674,
				"method": "rhf"
			},
			{
				"type": "unocc",
				"energy": 0.02085,
				"method": "rhf"
			},
			{
				"type": "unocc",
				"energy": 0.09032,
				"method": "rhf"
			},
			{
				"type": "unocc",
				"energy": 0.09819,
				"method": "rhf"
			}
		],
		"cosmo_sigma_profile": { 
			"-0.025": 0.0,
			"-0.024": 0.0,
			"-0.023": 0.0,
			"-0.022": 0.0,
			"-0.021": 0.0,
			"-0.02": 0.0,
			"-0.019": 0.0,
			"-0.018": 0.0,
			"-0.017": 0.0,
			"-0.016": 0.0,
			"-0.015": 0.333003313077,
			"-0.014": 0.719058972703,
			"-0.013": 0.40575034855,
			"-0.012": 0.501824259074,
			"-0.011": 0.844740227778,
			"-0.01": 1.06959278888,
			"-0.009": 1.05377013796,
			"-0.008": 1.21709653624,
			"-0.007": 4.23420615799,
			"-0.006": 9.42695875447,
			"-0.005": 14.3895293511,
			"-0.004": 13.8252276323,
			"-0.003": 14.4190077211,
			"-0.002": 10.8456610932,
			"-0.001": 8.99047721451,
			"0.0": 9.34557149185,
			"0.001": 13.7345718861,
			"0.002": 15.0567893267,
			"0.003": 22.3392998215,
			"0.004": 17.1166837186,
			"0.005": 6.25325209218,
			"0.006": 3.63575477315,
			"0.007": 1.60966523826,
			"0.008": 2.1305272574,
			"0.009": 3.95824767125,
			"0.01": 3.24771196519,
			"0.011": 1.75829792188,
			"0.012": 0.0701459259038,
			"0.013": 0.0,
			"0.014": 0.0,
			"0.015": 0.0,
			"0.016": 0.0,
			"0.017": 0.0,
			"0.018": 0.0,
			"0.019": 0.0,
			"0.02": 0.0,
			"0.021": 0.0,
			"0.022": 0.0,
			"0.023": 0.0,
			"0.024": 0.0,
			"0.025": 0.0
		}
	}
}
