{
	 "smiles": "O=S(=O)(N1CCNCC1)C1=CC=CS1", 
	 "Tm": 372.15, 
	 "num_atms": 26, 
	 "gaussian": { 
		 "optdone": 1, 
		 "sigma_profile": "yes", 
		 "theory": "DFT", 
		 "functional": "B3LYP", 
		 "basiset": "6-31G**", 
		 "properties": { 
			 "R2extent": 3681.4436, 
			 "electric_dipole_moment_norm": 4.03713540645, 
			 "electric_quadrupole_moment_norm": 18.9890165985, 
			 "total_energy": -1368.29550564, 
			 "HOMO_LUMO_gap": 0.17733, 
			 "cosmo_polarized_energy": -14.49, 
			 "cosmo_cavitation_energy": 30.93, 
			 "cosmo_dispersion_energy": -23.19, 
			 "cosmo_repulsion_energy": 1.73, 
			 "cosmo_total_nonelectrostatic_energy": 9.47, 
			 "SMD_solvation_energy": 0.89 
		},
		"coords": [
			{
				"x": -2.0731124401,
				"y": -0.7139464432,
				"z": 1.7822170858,
				"element": "O" 
			},
			{
				"x": -1.6065814828,
				"y": 0.1069023543,
				"z": 0.6613731236,
				"element": "S" 
			},
			{
				"x": -2.3634600964,
				"y": 1.2906462324,
				"z": 0.232657105,
				"element": "O" 
			},
			{
				"x": 0.0009776046,
				"y": 0.4970023458,
				"z": 0.9813452382,
				"element": "N" 
			},
			{
				"x": 0.4425584328,
				"y": 0.5178735507,
				"z": 2.3965316514,
				"element": "C" 
			},
			{
				"x": 0.7352971175,
				"y": 1.9401083557,
				"z": 2.8690669692,
				"element": "C" 
			},
			{
				"x": 1.8130662879,
				"y": 2.5379632843,
				"z": 2.05820741,
				"element": "N" 
			},
			{
				"x": 1.9245841765,
				"y": 1.9777841035,
				"z": 0.7066493005,
				"element": "C" 
			},
			{
				"x": 0.5832601845,
				"y": 1.5406386588,
				"z": 0.1062316058,
				"element": "C" 
			},
			{
				"x": -1.45717215,
				"y": -0.9128161883,
				"z": -0.7823151781,
				"element": "C" 
			},
			{
				"x": -1.9677016246,
				"y": -0.6061291758,
				"z": -2.0181664125,
				"element": "C" 
			},
			{
				"x": -1.7378045078,
				"y": -1.6420106287,
				"z": -2.9686229055,
				"element": "C" 
			},
			{
				"x": -1.0644650213,
				"y": -2.7075497627,
				"z": -2.4316241734,
				"element": "C" 
			},
			{
				"x": -0.6965430824,
				"y": -2.478648414,
				"z": -0.7559507019,
				"element": "S" 
			},
			{
				"x": -0.3324993649,
				"y": 0.0565256741,
				"z": 3.0082177472,
				"element": "H" 
			},
			{
				"x": 1.344456753,
				"y": -0.0990711078,
				"z": 2.4853085821,
				"element": "H" 
			},
			{
				"x": -0.2008324608,
				"y": 2.5185325674,
				"z": 2.8215236975,
				"element": "H" 
			},
			{
				"x": 1.0411861474,
				"y": 1.9091559612,
				"z": 3.9232018466,
				"element": "H" 
			},
			{
				"x": 1.6763166359,
				"y": 3.5412853452,
				"z": 2.0021824001,
				"element": "H" 
			},
			{
				"x": 2.3837183641,
				"y": 2.7245492712,
				"z": 0.0519623849,
				"element": "H" 
			},
			{
				"x": 2.6040370127,
				"y": 1.1155779261,
				"z": 0.7182956142,
				"element": "H" 
			},
			{
				"x": 0.7249003315,
				"y": 1.1259476234,
				"z": -0.8990407081,
				"element": "H" 
			},
			{
				"x": -0.0908118084,
				"y": 2.4029288085,
				"z": 0.0244076272,
				"element": "H" 
			},
			{
				"x": -2.4885613495,
				"y": 0.322376856,
				"z": -2.2157601169,
				"element": "H" 
			},
			{
				"x": -2.0599941298,
				"y": -1.5970332125,
				"z": -4.0023112025,
				"element": "H" 
			},
			{
				"x": -0.7632195296,
				"y": -3.6229939858,
				"z": -2.9231879905,
				"element": "H" 
			}
		],
		 "valence_orbital": [ 
			{
				"type": "occ",
				"energy": -0.29996,
				"method": "rhf"
			},
			{
				"type": "occ",
				"energy": -0.26967,
				"method": "rhf"
			},
			{
				"type": "occ",
				"energy": -0.26405,
				"method": "rhf"
			},
			{
				"type": "occ",
				"energy": -0.24181,
				"method": "rhf"
			},
			{
				"type": "occ",
				"energy": -0.22298,
				"method": "rhf"
			},
			{
				"type": "unocc",
				"energy": -0.04565,
				"method": "rhf"
			},
			{
				"type": "unocc",
				"energy": 0.01528,
				"method": "rhf"
			},
			{
				"type": "unocc",
				"energy": 0.04105,
				"method": "rhf"
			},
			{
				"type": "unocc",
				"energy": 0.05274,
				"method": "rhf"
			},
			{
				"type": "unocc",
				"energy": 0.06254,
				"method": "rhf"
			}
		],
		"cosmo_sigma_profile": { 
			"-0.025": 0.0,
			"-0.024": 0.0,
			"-0.023": 0.0,
			"-0.022": 0.0,
			"-0.021": 0.0,
			"-0.02": 0.0,
			"-0.019": 0.0,
			"-0.018": 0.0,
			"-0.017": 0.0,
			"-0.016": 0.0,
			"-0.015": 0.0,
			"-0.014": 0.0,
			"-0.013": 0.0,
			"-0.012": 0.0,
			"-0.011": 0.294981837582,
			"-0.01": 2.21229018228,
			"-0.009": 4.22540347975,
			"-0.008": 5.15885296265,
			"-0.007": 6.97619921085,
			"-0.006": 9.23432275374,
			"-0.005": 14.6006718688,
			"-0.004": 25.8862105845,
			"-0.003": 26.2972438174,
			"-0.002": 20.3403903379,
			"-0.001": 16.9013842432,
			"0.0": 15.2140836933,
			"0.001": 17.4364890362,
			"0.002": 17.1976404157,
			"0.003": 13.8482161653,
			"0.004": 8.32755325439,
			"0.005": 4.67977653606,
			"0.006": 3.0053806421,
			"0.007": 3.73383614313,
			"0.008": 4.02655080083,
			"0.009": 4.87880954543,
			"0.01": 7.66575231603,
			"0.011": 8.14870193309,
			"0.012": 3.86485201602,
			"0.013": 0.173276530642,
			"0.014": 0.0312271851989,
			"0.015": 0.641508105708,
			"0.016": 0.770603365136,
			"0.017": 0.360911972694,
			"0.018": 0.385082418716,
			"0.019": 0.0686368225474,
			"0.02": 0.0,
			"0.021": 0.0,
			"0.022": 0.0,
			"0.023": 0.0,
			"0.024": 0.0,
			"0.025": 0.0
		}
	}
}
