{
	 "smiles": "NC1=NC2=C(O1)C(Br)=CC(Cl)=C2", 
	 "Tm": 502.15, 
	 "num_atms": 16, 
	 "gaussian": { 
		 "optdone": 1, 
		 "sigma_profile": "yes", 
		 "theory": "DFT", 
		 "functional": "B3LYP", 
		 "basiset": "6-31G**", 
		 "properties": { 
			 "R2extent": 5715.5698, 
			 "electric_dipole_moment_norm": 4.04086870611, 
			 "electric_quadrupole_moment_norm": 7.92624350875, 
			 "total_energy": -3485.48085573, 
			 "HOMO_LUMO_gap": 0.20003, 
			 "cosmo_polarized_energy": -10.98, 
			 "cosmo_cavitation_energy": 25.32, 
			 "cosmo_dispersion_energy": -19.64, 
			 "cosmo_repulsion_energy": 1.58, 
			 "cosmo_total_nonelectrostatic_energy": 7.27, 
			 "SMD_solvation_energy": 1.28 
		},
		"coords": [
			{
				"x": -1.4636293861,
				"y": -0.3763788512,
				"z": -2.272276645,
				"element": "N" 
			},
			{
				"x": -1.029203322,
				"y": 0.0662189466,
				"z": -1.0654347164,
				"element": "C" 
			},
			{
				"x": 0.1952879279,
				"y": 0.1400698373,
				"z": -0.634156438,
				"element": "N" 
			},
			{
				"x": 0.0533023935,
				"y": 0.5950813902,
				"z": 0.6756087151,
				"element": "C" 
			},
			{
				"x": -1.3120854221,
				"y": 0.778980562,
				"z": 0.9501005571,
				"element": "C" 
			},
			{
				"x": -2.015329167,
				"y": 0.4337390071,
				"z": -0.1821900271,
				"element": "O" 
			},
			{
				"x": -1.7809324835,
				"y": 1.2326558312,
				"z": 2.1671290159,
				"element": "C" 
			},
			{
				"x": -3.6366070782,
				"y": 1.4686173158,
				"z": 2.4906597605,
				"element": "Br" 
			},
			{
				"x": -0.8332997214,
				"y": 1.5129237938,
				"z": 3.1569340636,
				"element": "C" 
			},
			{
				"x": 0.528557145,
				"y": 1.3283159871,
				"z": 2.8831179861,
				"element": "C" 
			},
			{
				"x": 1.6847405546,
				"y": 1.6935431473,
				"z": 4.1577353142,
				"element": "Cl" 
			},
			{
				"x": 1.0078275363,
				"y": 0.8714376672,
				"z": 1.6541140842,
				"element": "C" 
			},
			{
				"x": -0.7570803649,
				"y": -0.4433965813,
				"z": -2.988820991,
				"element": "H" 
			},
			{
				"x": -2.3845376033,
				"y": -0.0886362953,
				"z": -2.5664943903,
				"element": "H" 
			},
			{
				"x": -1.151717196,
				"y": 1.8695312899,
				"z": 4.1278038925,
				"element": "H" 
			},
			{
				"x": 2.0662061871,
				"y": 0.7380969524,
				"z": 1.4693698188,
				"element": "H" 
			}
		],
		 "valence_orbital": [ 
			{
				"type": "occ",
				"energy": -0.30586,
				"method": "rhf"
			},
			{
				"type": "occ",
				"energy": -0.29203,
				"method": "rhf"
			},
			{
				"type": "occ",
				"energy": -0.28564,
				"method": "rhf"
			},
			{
				"type": "occ",
				"energy": -0.24204,
				"method": "rhf"
			},
			{
				"type": "occ",
				"energy": -0.22798,
				"method": "rhf"
			},
			{
				"type": "unocc",
				"energy": -0.02795,
				"method": "rhf"
			},
			{
				"type": "unocc",
				"energy": -0.00976,
				"method": "rhf"
			},
			{
				"type": "unocc",
				"energy": -0.00858,
				"method": "rhf"
			},
			{
				"type": "unocc",
				"energy": 0.04037,
				"method": "rhf"
			},
			{
				"type": "unocc",
				"energy": 0.04092,
				"method": "rhf"
			}
		],
		"cosmo_sigma_profile": { 
			"-0.025": 0.0,
			"-0.024": 0.0,
			"-0.023": 0.0,
			"-0.022": 0.0,
			"-0.021": 0.0,
			"-0.02": 0.0,
			"-0.019": 0.0,
			"-0.018": 0.0,
			"-0.017": 0.0,
			"-0.016": 0.822001313616,
			"-0.015": 2.62243602536,
			"-0.014": 2.28544580896,
			"-0.013": 2.81676856634,
			"-0.012": 2.50304370803,
			"-0.011": 1.31158431484,
			"-0.01": 1.87309454144,
			"-0.009": 2.27087095557,
			"-0.008": 3.32680956135,
			"-0.007": 4.1831699268,
			"-0.006": 4.57520586586,
			"-0.005": 6.45972000911,
			"-0.004": 7.16400659968,
			"-0.003": 9.28917537946,
			"-0.002": 10.4172739806,
			"-0.001": 13.672317232,
			"0.0": 18.7350136981,
			"0.001": 22.4371536673,
			"0.002": 27.4648705801,
			"0.003": 20.2790837798,
			"0.004": 21.7059465738,
			"0.005": 9.05686391237,
			"0.006": 3.61340440941,
			"0.007": 1.69911909586,
			"0.008": 1.71055056065,
			"0.009": 1.16356215905,
			"0.01": 1.01500726442,
			"0.011": 1.20077487155,
			"0.012": 0.983930155123,
			"0.013": 0.791127080787,
			"0.014": 0.992939853752,
			"0.015": 0.9984797403,
			"0.016": 0.248545333624,
			"0.017": 0.0,
			"0.018": 0.0,
			"0.019": 0.0,
			"0.02": 0.0,
			"0.021": 0.0,
			"0.022": 0.0,
			"0.023": 0.0,
			"0.024": 0.0,
			"0.025": 0.0
		}
	}
}
