{
	 "smiles": "ClS(=O)(=O)C1=CC2=C(NC(=O)CC(=O)N2)C=C1", 
	 "Tm": 527.15, 
	 "num_atms": 24, 
	 "gaussian": { 
		 "optdone": 1, 
		 "sigma_profile": "yes", 
		 "theory": "DFT", 
		 "functional": "B3LYP", 
		 "basiset": "6-31G**", 
		 "properties": { 
			 "R2extent": 6714.6692, 
			 "electric_dipole_moment_norm": 2.73283464556, 
			 "electric_quadrupole_moment_norm": 33.4554859152, 
			 "total_energy": -1615.91510268, 
			 "HOMO_LUMO_gap": 0.15792, 
			 "cosmo_polarized_energy": -24.26, 
			 "cosmo_cavitation_energy": 32.56, 
			 "cosmo_dispersion_energy": -24.21, 
			 "cosmo_repulsion_energy": 1.83, 
			 "cosmo_total_nonelectrostatic_energy": 10.19, 
			 "SMD_solvation_energy": 5.39 
		},
		"coords": [
			{
				"x": -5.1258919609,
				"y": -0.0023767805,
				"z": -1.405276674,
				"element": "Cl" 
			},
			{
				"x": -4.1083278293,
				"y": 0.1613379608,
				"z": 0.4623652113,
				"element": "S" 
			},
			{
				"x": -4.2810848026,
				"y": 1.5417464551,
				"z": 0.8969834164,
				"element": "O" 
			},
			{
				"x": -4.5454167958,
				"y": -0.9742923116,
				"z": 1.2636464501,
				"element": "O" 
			},
			{
				"x": -2.4152235961,
				"y": -0.090570771,
				"z": -0.0357339322,
				"element": "C" 
			},
			{
				"x": -1.6446987215,
				"y": 1.0187433204,
				"z": -0.3641319768,
				"element": "C" 
			},
			{
				"x": -0.3141350869,
				"y": 0.8531693979,
				"z": -0.7685425685,
				"element": "C" 
			},
			{
				"x": 0.2323504463,
				"y": -0.4533972169,
				"z": -0.8071012277,
				"element": "C" 
			},
			{
				"x": 1.5310258836,
				"y": -0.710090343,
				"z": -1.2605831519,
				"element": "N" 
			},
			{
				"x": 2.7053643177,
				"y": -0.003469104,
				"z": -1.0257448459,
				"element": "C" 
			},
			{
				"x": 3.7714524365,
				"y": -0.4291746357,
				"z": -1.424000048,
				"element": "O" 
			},
			{
				"x": 2.554291964,
				"y": 1.2878928484,
				"z": -0.2383507705,
				"element": "C" 
			},
			{
				"x": 1.7209523872,
				"y": 2.329993052,
				"z": -0.9692751471,
				"element": "C" 
			},
			{
				"x": 2.1580031387,
				"y": 3.4033134785,
				"z": -1.3350740354,
				"element": "O" 
			},
			{
				"x": 0.3965147608,
				"y": 1.9858940848,
				"z": -1.1964210288,
				"element": "N" 
			},
			{
				"x": -0.5726908174,
				"y": -1.5478340964,
				"z": -0.4436414975,
				"element": "C" 
			},
			{
				"x": -1.8983552336,
				"y": -1.3867879868,
				"z": -0.069801443,
				"element": "C" 
			},
			{
				"x": -2.0747865096,
				"y": 2.0135376012,
				"z": -0.3152022225,
				"element": "H" 
			},
			{
				"x": 1.7050680404,
				"y": -1.6256532026,
				"z": -1.6585213825,
				"element": "H" 
			},
			{
				"x": 2.0895601354,
				"y": 1.0677082429,
				"z": 0.7314992343,
				"element": "H" 
			},
			{
				"x": 3.5477093471,
				"y": 1.7027469029,
				"z": -0.082566647,
				"element": "H" 
			},
			{
				"x": -0.1465335602,
				"y": 2.7525102064,
				"z": -1.5760109869,
				"element": "H" 
			},
			{
				"x": -0.1364157997,
				"y": -2.5420513325,
				"z": -0.4664275112,
				"element": "H" 
			},
			{
				"x": -2.512632144,
				"y": -2.2355957702,
				"z": 0.2061127852,
				"element": "H" 
			}
		],
		 "valence_orbital": [ 
			{
				"type": "occ",
				"energy": -0.32222,
				"method": "rhf"
			},
			{
				"type": "occ",
				"energy": -0.29702,
				"method": "rhf"
			},
			{
				"type": "occ",
				"energy": -0.28714,
				"method": "rhf"
			},
			{
				"type": "occ",
				"energy": -0.27683,
				"method": "rhf"
			},
			{
				"type": "occ",
				"energy": -0.25868,
				"method": "rhf"
			},
			{
				"type": "unocc",
				"energy": -0.10076,
				"method": "rhf"
			},
			{
				"type": "unocc",
				"energy": -0.06236,
				"method": "rhf"
			},
			{
				"type": "unocc",
				"energy": -0.05655,
				"method": "rhf"
			},
			{
				"type": "unocc",
				"energy": -0.01403,
				"method": "rhf"
			},
			{
				"type": "unocc",
				"energy": 0.0053,
				"method": "rhf"
			}
		],
		"cosmo_sigma_profile": { 
			"-0.025": 0.0,
			"-0.024": 0.0,
			"-0.023": 0.0,
			"-0.022": 0.0,
			"-0.021": 0.0,
			"-0.02": 0.0,
			"-0.019": 0.0,
			"-0.018": 0.0,
			"-0.017": 0.0,
			"-0.016": 1.54146936892,
			"-0.015": 3.33735568219,
			"-0.014": 2.52621829866,
			"-0.013": 2.63353037327,
			"-0.012": 2.38881025139,
			"-0.011": 2.86138532557,
			"-0.01": 2.55944370027,
			"-0.009": 7.63457822184,
			"-0.008": 9.29073061864,
			"-0.007": 10.3896261926,
			"-0.006": 8.79643881449,
			"-0.005": 11.2974698799,
			"-0.004": 12.967517117,
			"-0.003": 13.1428061991,
			"-0.002": 14.3441918673,
			"-0.001": 20.7636997016,
			"0.0": 20.6584653831,
			"0.001": 14.1238465385,
			"0.002": 12.1463989211,
			"0.003": 16.4691061794,
			"0.004": 11.7166890761,
			"0.005": 5.43727147777,
			"0.006": 3.63773602069,
			"0.007": 9.36586354374,
			"0.008": 12.9733427001,
			"0.009": 6.75998166081,
			"0.01": 3.34579480508,
			"0.011": 6.4682505818,
			"0.012": 10.3905315374,
			"0.013": 3.57811719712,
			"0.014": 0.0504397865453,
			"0.015": 0.0,
			"0.016": 0.0,
			"0.017": 0.0,
			"0.018": 0.0,
			"0.019": 0.0,
			"0.02": 0.0,
			"0.021": 0.0,
			"0.022": 0.0,
			"0.023": 0.0,
			"0.024": 0.0,
			"0.025": 0.0
		}
	}
}
