{
	 "smiles": "CN(C)C1=C2C=CC=C(C2=CC=C1)S(F)(=O)=O", 
	 "Tm": 325.15, 
	 "num_atms": 29, 
	 "gaussian": { 
		 "optdone": 1, 
		 "sigma_profile": "yes", 
		 "theory": "DFT", 
		 "functional": "B3LYP", 
		 "basiset": "6-31G**", 
		 "properties": { 
			 "R2extent": 5982.6183, 
			 "electric_dipole_moment_norm": 5.51213827566, 
			 "electric_quadrupole_moment_norm": 21.6932613207, 
			 "total_energy": -1167.6581817, 
			 "HOMO_LUMO_gap": 0.15037, 
			 "cosmo_polarized_energy": -9.98, 
			 "cosmo_cavitation_energy": 33.41, 
			 "cosmo_dispersion_energy": -24.53, 
			 "cosmo_repulsion_energy": 1.81, 
			 "cosmo_total_nonelectrostatic_energy": 10.7, 
			 "SMD_solvation_energy": 4.72 
		},
		"coords": [
			{
				"x": -2.0515545858,
				"y": -0.1423816655,
				"z": 2.5159340711,
				"element": "C" 
			},
			{
				"x": -0.7509865307,
				"y": 0.3716809876,
				"z": 2.1092948415,
				"element": "N" 
			},
			{
				"x": 0.3172412186,
				"y": 0.2010738749,
				"z": 3.0844393265,
				"element": "C" 
			},
			{
				"x": -0.4025174411,
				"y": 0.2623227499,
				"z": 0.7232995312,
				"element": "C" 
			},
			{
				"x": -0.0701701885,
				"y": -0.9823611393,
				"z": 0.0862521792,
				"element": "C" 
			},
			{
				"x": -0.0637725171,
				"y": -2.2118969684,
				"z": 0.7994474055,
				"element": "C" 
			},
			{
				"x": 0.254888859,
				"y": -3.4002205003,
				"z": 0.1849419314,
				"element": "C" 
			},
			{
				"x": 0.5874198431,
				"y": -3.4277527587,
				"z": -1.1859108677,
				"element": "C" 
			},
			{
				"x": 0.5898831149,
				"y": -2.2516265056,
				"z": -1.903739884,
				"element": "C" 
			},
			{
				"x": 0.2662101199,
				"y": -0.9880501854,
				"z": -1.3132196326,
				"element": "C" 
			},
			{
				"x": 0.2617702251,
				"y": 0.2376376284,
				"z": -2.0315492823,
				"element": "C" 
			},
			{
				"x": -0.0602207113,
				"y": 1.4131843654,
				"z": -1.395265423,
				"element": "C" 
			},
			{
				"x": -0.3909339126,
				"y": 1.4237730578,
				"z": -0.0229695255,
				"element": "C" 
			},
			{
				"x": 1.011170494,
				"y": -2.2788701897,
				"z": -3.6426240536,
				"element": "S" 
			},
			{
				"x": 1.2806824777,
				"y": -3.8734975221,
				"z": -3.8186682482,
				"element": "F" 
			},
			{
				"x": -0.1485955157,
				"y": -1.9773116464,
				"z": -4.4622337349,
				"element": "O" 
			},
			{
				"x": 2.2885164813,
				"y": -1.6299476559,
				"z": -3.8772146284,
				"element": "O" 
			},
			{
				"x": -2.3424972463,
				"y": 0.3295591092,
				"z": 3.4619736074,
				"element": "H" 
			},
			{
				"x": -2.093610569,
				"y": -1.2358720739,
				"z": 2.6665642686,
				"element": "H" 
			},
			{
				"x": -2.7998809008,
				"y": 0.1212039082,
				"z": 1.7638595464,
				"element": "H" 
			},
			{
				"x": 1.2202411643,
				"y": 0.7042601486,
				"z": 2.7287885169,
				"element": "H" 
			},
			{
				"x": 0.0178276392,
				"y": 0.6716177631,
				"z": 4.0285287714,
				"element": "H" 
			},
			{
				"x": 0.580218918,
				"y": -0.848216961,
				"z": 3.3080996074,
				"element": "H" 
			},
			{
				"x": -0.3166843803,
				"y": -2.2069706325,
				"z": 1.8515808482,
				"element": "H" 
			},
			{
				"x": 0.2533832199,
				"y": -4.3272710109,
				"z": 0.7490488008,
				"element": "H" 
			},
			{
				"x": 0.8376549558,
				"y": -4.3638613889,
				"z": -1.666883716,
				"element": "H" 
			},
			{
				"x": 0.5117057821,
				"y": 0.2554980919,
				"z": -3.0854429456,
				"element": "H" 
			},
			{
				"x": -0.0605695867,
				"y": 2.3443120065,
				"z": -1.9536109492,
				"element": "H" 
			},
			{
				"x": -0.6448204272,
				"y": 2.352885113,
				"z": 0.4766796373,
				"element": "H" 
			}
		],
		 "valence_orbital": [ 
			{
				"type": "occ",
				"energy": -0.32295,
				"method": "rhf"
			},
			{
				"type": "occ",
				"energy": -0.29913,
				"method": "rhf"
			},
			{
				"type": "occ",
				"energy": -0.26744,
				"method": "rhf"
			},
			{
				"type": "occ",
				"energy": -0.23911,
				"method": "rhf"
			},
			{
				"type": "occ",
				"energy": -0.2211,
				"method": "rhf"
			},
			{
				"type": "unocc",
				"energy": -0.07073,
				"method": "rhf"
			},
			{
				"type": "unocc",
				"energy": -0.03328,
				"method": "rhf"
			},
			{
				"type": "unocc",
				"energy": -0.0007,
				"method": "rhf"
			},
			{
				"type": "unocc",
				"energy": 0.00644,
				"method": "rhf"
			},
			{
				"type": "unocc",
				"energy": 0.04385,
				"method": "rhf"
			}
		],
		"cosmo_sigma_profile": { 
			"-0.025": 0.0,
			"-0.024": 0.0,
			"-0.023": 0.0,
			"-0.022": 0.0,
			"-0.021": 0.0,
			"-0.02": 0.0,
			"-0.019": 0.0,
			"-0.018": 0.0,
			"-0.017": 0.0,
			"-0.016": 0.0,
			"-0.015": 0.0,
			"-0.014": 0.0,
			"-0.013": 0.0,
			"-0.012": 0.0,
			"-0.011": 0.0,
			"-0.01": 0.0,
			"-0.009": 0.231486085561,
			"-0.008": 1.8183658992,
			"-0.007": 7.72655529623,
			"-0.006": 12.1702836934,
			"-0.005": 13.4493147982,
			"-0.004": 20.0155486254,
			"-0.003": 20.9281516509,
			"-0.002": 21.1642108039,
			"-0.001": 29.8650168304,
			"0.0": 26.1373169729,
			"0.001": 29.0003533893,
			"0.002": 28.1168651282,
			"0.003": 15.1630252679,
			"0.004": 7.08364208291,
			"0.005": 3.5672419088,
			"0.006": 3.7408629088,
			"0.007": 4.56850879326,
			"0.008": 11.7427581091,
			"0.009": 9.3151269599,
			"0.01": 1.05917727606,
			"0.011": 0.237738513359,
			"0.012": 0.068098861364,
			"0.013": 0.0,
			"0.014": 0.0,
			"0.015": 0.0,
			"0.016": 0.0,
			"0.017": 0.0,
			"0.018": 0.0,
			"0.019": 0.0,
			"0.02": 0.0,
			"0.021": 0.0,
			"0.022": 0.0,
			"0.023": 0.0,
			"0.024": 0.0,
			"0.025": 0.0
		}
	}
}
