{
	 "smiles": "CC1=C(NC(=O)CCl)C=C(C=C1)S(N)(=O)=O", 
	 "Tm": 453.15, 
	 "num_atms": 27, 
	 "gaussian": { 
		 "optdone": 1, 
		 "sigma_profile": "yes", 
		 "theory": "DFT", 
		 "functional": "B3LYP", 
		 "basiset": "6-31G**", 
		 "properties": { 
			 "R2extent": 5746.5542, 
			 "electric_dipole_moment_norm": 6.31273348558, 
			 "electric_quadrupole_moment_norm": 19.968750544, 
			 "total_energy": -1543.08709444, 
			 "HOMO_LUMO_gap": 0.19863, 
			 "cosmo_polarized_energy": -25.27, 
			 "cosmo_cavitation_energy": 34.63, 
			 "cosmo_dispersion_energy": -24.93, 
			 "cosmo_repulsion_energy": 1.94, 
			 "cosmo_total_nonelectrostatic_energy": 11.64, 
			 "SMD_solvation_energy": 6.0 
		},
		"coords": [
			{
				"x": 3.0225167281,
				"y": 0.9918060978,
				"z": -0.2336670781,
				"element": "C" 
			},
			{
				"x": 1.5884570897,
				"y": 1.3440006947,
				"z": 0.0713752096,
				"element": "C" 
			},
			{
				"x": 0.5433559805,
				"y": 0.4379088659,
				"z": -0.2221434555,
				"element": "C" 
			},
			{
				"x": 0.8601783289,
				"y": -0.800122861,
				"z": -0.8307644066,
				"element": "N" 
			},
			{
				"x": 0.4472683045,
				"y": -2.0937522823,
				"z": -0.5488181423,
				"element": "C" 
			},
			{
				"x": 0.8375424731,
				"y": -3.0213609635,
				"z": -1.2307828737,
				"element": "O" 
			},
			{
				"x": -0.4948767053,
				"y": -2.2668132435,
				"z": 0.6473297222,
				"element": "C" 
			},
			{
				"x": -0.3257572081,
				"y": -3.8929059189,
				"z": 1.3848909443,
				"element": "Cl" 
			},
			{
				"x": -0.7841635373,
				"y": 0.7837250614,
				"z": 0.0502301959,
				"element": "C" 
			},
			{
				"x": -1.0666604212,
				"y": 2.0054727335,
				"z": 0.6562778374,
				"element": "C" 
			},
			{
				"x": -0.0550947051,
				"y": 2.9083653651,
				"z": 0.9743500175,
				"element": "C" 
			},
			{
				"x": 1.2605914164,
				"y": 2.5685201917,
				"z": 0.6635865502,
				"element": "C" 
			},
			{
				"x": -2.7742397094,
				"y": 2.4155451199,
				"z": 1.0188105814,
				"element": "S" 
			},
			{
				"x": -3.2764743358,
				"y": 3.2742287782,
				"z": -0.3523953667,
				"element": "N" 
			},
			{
				"x": -2.773900813,
				"y": 3.3599196461,
				"z": 2.1389155438,
				"element": "O" 
			},
			{
				"x": -3.5293733462,
				"y": 1.1588278724,
				"z": 1.0447650702,
				"element": "O" 
			},
			{
				"x": 3.2888046481,
				"y": 0.0123318575,
				"z": 0.1774369799,
				"element": "H" 
			},
			{
				"x": 3.2106533727,
				"y": 0.9484306882,
				"z": -1.314688698,
				"element": "H" 
			},
			{
				"x": 3.7040757842,
				"y": 1.7364849196,
				"z": 0.1831486303,
				"element": "H" 
			},
			{
				"x": 1.5473563563,
				"y": -0.7920796621,
				"z": -1.5754100887,
				"element": "H" 
			},
			{
				"x": -1.5324661593,
				"y": -2.1723396766,
				"z": 0.3190288052,
				"element": "H" 
			},
			{
				"x": -0.3099961653,
				"y": -1.5261368638,
				"z": 1.4250086455,
				"element": "H" 
			},
			{
				"x": -1.5959091581,
				"y": 0.1146741671,
				"z": -0.2079355836,
				"element": "H" 
			},
			{
				"x": -0.2922596911,
				"y": 3.8448513999,
				"z": 1.4661294272,
				"element": "H" 
			},
			{
				"x": 2.0601459992,
				"y": 3.2625919833,
				"z": 0.9064511754,
				"element": "H" 
			},
			{
				"x": -4.0320186129,
				"y": 2.7699820192,
				"z": -0.8090978417,
				"element": "H" 
			},
			{
				"x": -3.5678559137,
				"y": 4.2079440104,
				"z": -0.074931801,
				"element": "H" 
			}
		],
		 "valence_orbital": [ 
			{
				"type": "occ",
				"energy": -0.30134,
				"method": "rhf"
			},
			{
				"type": "occ",
				"energy": -0.29756,
				"method": "rhf"
			},
			{
				"type": "occ",
				"energy": -0.27676,
				"method": "rhf"
			},
			{
				"type": "occ",
				"energy": -0.27356,
				"method": "rhf"
			},
			{
				"type": "occ",
				"energy": -0.25129,
				"method": "rhf"
			},
			{
				"type": "unocc",
				"energy": -0.05266,
				"method": "rhf"
			},
			{
				"type": "unocc",
				"energy": -0.03824,
				"method": "rhf"
			},
			{
				"type": "unocc",
				"energy": -0.00242,
				"method": "rhf"
			},
			{
				"type": "unocc",
				"energy": 0.03379,
				"method": "rhf"
			},
			{
				"type": "unocc",
				"energy": 0.04356,
				"method": "rhf"
			}
		],
		"cosmo_sigma_profile": { 
			"-0.025": 0.0,
			"-0.024": 0.0,
			"-0.023": 0.0,
			"-0.022": 0.0,
			"-0.021": 0.0,
			"-0.02": 0.0,
			"-0.019": 0.0,
			"-0.018": 0.0,
			"-0.017": 0.0,
			"-0.016": 0.000558145905941,
			"-0.015": 1.3151147869,
			"-0.014": 2.92362136632,
			"-0.013": 3.94888749044,
			"-0.012": 4.34033984471,
			"-0.011": 4.28779093576,
			"-0.01": 4.94962098991,
			"-0.009": 5.61856067681,
			"-0.008": 6.85280617339,
			"-0.007": 11.2618894595,
			"-0.006": 13.087717821,
			"-0.005": 15.7337960949,
			"-0.004": 16.1237265507,
			"-0.003": 15.4525411989,
			"-0.002": 15.3675216013,
			"-0.001": 18.3410650132,
			"0.0": 15.11860983,
			"0.001": 14.2688712168,
			"0.002": 14.5325993882,
			"0.003": 11.6675799899,
			"0.004": 8.54027661189,
			"0.005": 11.4862636796,
			"0.006": 10.8162008518,
			"0.007": 4.8812103096,
			"0.008": 5.70670394483,
			"0.009": 5.72703003504,
			"0.01": 10.2782924344,
			"0.011": 11.6612271476,
			"0.012": 8.37814634191,
			"0.013": 3.79978549179,
			"0.014": 0.823293580052,
			"0.015": 0.0,
			"0.016": 0.0,
			"0.017": 0.0,
			"0.018": 0.0,
			"0.019": 0.0,
			"0.02": 0.0,
			"0.021": 0.0,
			"0.022": 0.0,
			"0.023": 0.0,
			"0.024": 0.0,
			"0.025": 0.0
		}
	}
}
