{
	 "smiles": "NS(=O)(=O)C1=CC=C(CNC(=O)OCC(F)(F)F)C=C1", 
	 "Tm": 424.15, 
	 "num_atms": 31, 
	 "gaussian": { 
		 "optdone": 1, 
		 "sigma_profile": "yes", 
		 "theory": "DFT", 
		 "functional": "B3LYP", 
		 "basiset": "6-31G**", 
		 "properties": { 
			 "R2extent": 10884.3195, 
			 "electric_dipole_moment_norm": 4.68828904506, 
			 "electric_quadrupole_moment_norm": 43.773540507, 
			 "total_energy": -1495.75437502, 
			 "HOMO_LUMO_gap": 0.21773, 
			 "cosmo_polarized_energy": -26.75, 
			 "cosmo_cavitation_energy": 39.72, 
			 "cosmo_dispersion_energy": -27.72, 
			 "cosmo_repulsion_energy": 2.06, 
			 "cosmo_total_nonelectrostatic_energy": 14.05, 
			 "SMD_solvation_energy": 8.17 
		},
		"coords": [
			{
				"x": -0.93633218,
				"y": 4.3430415833,
				"z": 2.4731972811,
				"element": "N" 
			},
			{
				"x": -1.8389776934,
				"y": 4.0325303386,
				"z": 1.089528518,
				"element": "S" 
			},
			{
				"x": -1.1211499139,
				"y": 4.6870850851,
				"z": -0.0022841908,
				"element": "O" 
			},
			{
				"x": -3.221311969,
				"y": 4.3492260329,
				"z": 1.4430636928,
				"element": "O" 
			},
			{
				"x": -1.753761651,
				"y": 2.2582187475,
				"z": 0.7995110232,
				"element": "C" 
			},
			{
				"x": -0.7155297487,
				"y": 1.7360484797,
				"z": 0.0221772153,
				"element": "C" 
			},
			{
				"x": -0.6435572198,
				"y": 0.3607563025,
				"z": -0.1814475366,
				"element": "C" 
			},
			{
				"x": -1.6012834287,
				"y": -0.4971991322,
				"z": 0.3777577598,
				"element": "C" 
			},
			{
				"x": -1.5080279499,
				"y": -2.0009292581,
				"z": 0.1734974805,
				"element": "C" 
			},
			{
				"x": -1.3275533886,
				"y": -2.4008160454,
				"z": -1.2160644772,
				"element": "N" 
			},
			{
				"x": -0.2037444718,
				"y": -2.900705211,
				"z": -1.7966324148,
				"element": "C" 
			},
			{
				"x": -0.1236880919,
				"y": -3.2738810987,
				"z": -2.9493750583,
				"element": "O" 
			},
			{
				"x": 0.8491994586,
				"y": -2.9014350058,
				"z": -0.9084860038,
				"element": "O" 
			},
			{
				"x": 2.0226571368,
				"y": -3.575341179,
				"z": -1.3452722981,
				"element": "C" 
			},
			{
				"x": 2.1305582988,
				"y": -4.9105243463,
				"z": -0.6293287832,
				"element": "C" 
			},
			{
				"x": 3.2430294878,
				"y": -5.5537586159,
				"z": -1.0390382674,
				"element": "F" 
			},
			{
				"x": 2.2091566613,
				"y": -4.7548365745,
				"z": 0.7072982102,
				"element": "F" 
			},
			{
				"x": 1.0676018498,
				"y": -5.6947149905,
				"z": -0.8867573141,
				"element": "F" 
			},
			{
				"x": -2.6404022412,
				"y": 0.04862882,
				"z": 1.1393148535,
				"element": "C" 
			},
			{
				"x": -2.7241424642,
				"y": 1.4245766186,
				"z": 1.355466555,
				"element": "C" 
			},
			{
				"x": -1.3314887658,
				"y": 3.9237970722,
				"z": 3.3087204689,
				"element": "H" 
			},
			{
				"x": 0.0528140019,
				"y": 4.1490581901,
				"z": 2.3550212215,
				"element": "H" 
			},
			{
				"x": 0.007580862,
				"y": 2.4058500739,
				"z": -0.4312275851,
				"element": "H" 
			},
			{
				"x": 0.1571044025,
				"y": -0.0526641828,
				"z": -0.7871110405,
				"element": "H" 
			},
			{
				"x": -2.4135510471,
				"y": -2.4790323408,
				"z": 0.5637225031,
				"element": "H" 
			},
			{
				"x": -0.665133907,
				"y": -2.4047565406,
				"z": 0.7384759456,
				"element": "H" 
			},
			{
				"x": -2.1049210382,
				"y": -2.3128847646,
				"z": -1.854230074,
				"element": "H" 
			},
			{
				"x": 1.9884623413,
				"y": -3.7440914282,
				"z": -2.4230237647,
				"element": "H" 
			},
			{
				"x": 2.8858389287,
				"y": -2.9619289867,
				"z": -1.0789876754,
				"element": "H" 
			},
			{
				"x": -3.399900581,
				"y": -0.6052484459,
				"z": 1.5604497607,
				"element": "H" 
			},
			{
				"x": -3.5446456782,
				"y": 1.8533308027,
				"z": 1.920963995,
				"element": "H" 
			}
		],
		 "valence_orbital": [ 
			{
				"type": "occ",
				"energy": -0.30705,
				"method": "rhf"
			},
			{
				"type": "occ",
				"energy": -0.29519,
				"method": "rhf"
			},
			{
				"type": "occ",
				"energy": -0.28459,
				"method": "rhf"
			},
			{
				"type": "occ",
				"energy": -0.2805,
				"method": "rhf"
			},
			{
				"type": "occ",
				"energy": -0.26778,
				"method": "rhf"
			},
			{
				"type": "unocc",
				"energy": -0.05005,
				"method": "rhf"
			},
			{
				"type": "unocc",
				"energy": -0.03321,
				"method": "rhf"
			},
			{
				"type": "unocc",
				"energy": 0.03404,
				"method": "rhf"
			},
			{
				"type": "unocc",
				"energy": 0.04603,
				"method": "rhf"
			},
			{
				"type": "unocc",
				"energy": 0.05971,
				"method": "rhf"
			}
		],
		"cosmo_sigma_profile": { 
			"-0.025": 0.0,
			"-0.024": 0.0,
			"-0.023": 0.0,
			"-0.022": 0.0,
			"-0.021": 0.0,
			"-0.02": 0.0,
			"-0.019": 0.0,
			"-0.018": 0.0,
			"-0.017": 0.0,
			"-0.016": 0.140282710141,
			"-0.015": 3.07720445083,
			"-0.014": 3.44592524438,
			"-0.013": 3.99266208995,
			"-0.012": 3.7097740315,
			"-0.011": 3.85753548486,
			"-0.01": 3.92926997475,
			"-0.009": 4.42091728229,
			"-0.008": 7.72659412744,
			"-0.007": 12.9998868498,
			"-0.006": 16.2923156737,
			"-0.005": 17.4870335761,
			"-0.004": 14.6544576847,
			"-0.003": 13.8811122576,
			"-0.002": 13.5890403736,
			"-0.001": 14.9423276097,
			"0.0": 17.889745423,
			"0.001": 19.4725251431,
			"0.002": 37.8942039368,
			"0.003": 37.4689175445,
			"0.004": 5.27338096483,
			"0.005": 4.37631356346,
			"0.006": 5.61500717878,
			"0.007": 4.19344990361,
			"0.008": 6.24302733264,
			"0.009": 5.61152711313,
			"0.01": 9.14624873009,
			"0.011": 12.4161003644,
			"0.012": 9.79502652114,
			"0.013": 2.74180485725,
			"0.014": 0.0257664529025,
			"0.015": 0.0,
			"0.016": 0.0,
			"0.017": 0.0,
			"0.018": 0.0,
			"0.019": 0.0,
			"0.02": 0.0,
			"0.021": 0.0,
			"0.022": 0.0,
			"0.023": 0.0,
			"0.024": 0.0,
			"0.025": 0.0
		}
	}
}
