{
	 "smiles": "OC(=O)C1=C(OC(=C1)C1=CC=C(Br)C=C1)C(F)(F)F", 
	 "Tm": 475.15, 
	 "num_atms": 25, 
	 "gaussian": { 
		 "optdone": 1, 
		 "sigma_profile": "yes", 
		 "theory": "DFT", 
		 "functional": "B3LYP", 
		 "basiset": "6-31G**", 
		 "properties": { 
			 "R2extent": 12546.7789, 
			 "electric_dipole_moment_norm": 0.521873682034, 
			 "electric_quadrupole_moment_norm": 2.06041174041, 
			 "total_energy": -3557.48816554, 
			 "HOMO_LUMO_gap": 0.16447, 
			 "cosmo_polarized_energy": -10.9, 
			 "cosmo_cavitation_energy": 35.16, 
			 "cosmo_dispersion_energy": -25.22, 
			 "cosmo_repulsion_energy": 1.87, 
			 "cosmo_total_nonelectrostatic_energy": 11.82, 
			 "SMD_solvation_energy": 7.54 
		},
		"coords": [
			{
				"x": -1.9032469217,
				"y": 2.0294476912,
				"z": -2.5151491615,
				"element": "O" 
			},
			{
				"x": -2.0461434551,
				"y": 0.8151140681,
				"z": -1.9427916327,
				"element": "C" 
			},
			{
				"x": -2.6319954904,
				"y": -0.107260887,
				"z": -2.4717649751,
				"element": "O" 
			},
			{
				"x": -1.4176532156,
				"y": 0.7273365428,
				"z": -0.6113445617,
				"element": "C" 
			},
			{
				"x": -0.7273466715,
				"y": 1.668667056,
				"z": 0.1136366132,
				"element": "C" 
			},
			{
				"x": -0.3287796057,
				"y": 1.1411863466,
				"z": 1.2936068535,
				"element": "O" 
			},
			{
				"x": -0.7616981185,
				"y": -0.1625043917,
				"z": 1.3460960104,
				"element": "C" 
			},
			{
				"x": -1.4360837386,
				"y": -0.4541883597,
				"z": 0.1913070185,
				"element": "C" 
			},
			{
				"x": -0.4330165596,
				"y": -0.9188873821,
				"z": 2.5477948046,
				"element": "C" 
			},
			{
				"x": -0.8425020571,
				"y": -2.2574195879,
				"z": 2.6773073979,
				"element": "C" 
			},
			{
				"x": -0.5352487719,
				"y": -2.9900271219,
				"z": 3.8189017878,
				"element": "C" 
			},
			{
				"x": 0.189055483,
				"y": -2.3837943367,
				"z": 4.8461344389,
				"element": "C" 
			},
			{
				"x": 0.6127886566,
				"y": -3.3845976524,
				"z": 6.4140185907,
				"element": "Br" 
			},
			{
				"x": 0.6065122435,
				"y": -1.0577131897,
				"z": 4.7415953026,
				"element": "C" 
			},
			{
				"x": 0.2952417865,
				"y": -0.3306621147,
				"z": 3.5958064172,
				"element": "C" 
			},
			{
				"x": -0.3431805701,
				"y": 3.1014992299,
				"z": -0.1286430733,
				"element": "C" 
			},
			{
				"x": 0.3476031771,
				"y": 3.5812656015,
				"z": 0.9208632973,
				"element": "F" 
			},
			{
				"x": -1.42748108,
				"y": 3.880302667,
				"z": -0.3024948109,
				"element": "F" 
			},
			{
				"x": 0.4279298015,
				"y": 3.2267580786,
				"z": -1.2250358494,
				"element": "F" 
			},
			{
				"x": -2.3472912862,
				"y": 1.9817230269,
				"z": -3.3780451048,
				"element": "H" 
			},
			{
				"x": -1.9031584016,
				"y": -1.3851750572,
				"z": -0.0906725742,
				"element": "H" 
			},
			{
				"x": -1.4062409901,
				"y": -2.7338657714,
				"z": 1.8814614926,
				"element": "H" 
			},
			{
				"x": -0.8543366061,
				"y": -4.0216680838,
				"z": 3.9117778924,
				"element": "H" 
			},
			{
				"x": 1.1685768142,
				"y": -0.5980052806,
				"z": 5.5463382001,
				"element": "H" 
			},
			{
				"x": 0.6186955773,
				"y": 0.7008689084,
				"z": 3.5118956259,
				"element": "H" 
			}
		],
		 "valence_orbital": [ 
			{
				"type": "occ",
				"energy": -0.29562,
				"method": "rhf"
			},
			{
				"type": "occ",
				"energy": -0.2931,
				"method": "rhf"
			},
			{
				"type": "occ",
				"energy": -0.28282,
				"method": "rhf"
			},
			{
				"type": "occ",
				"energy": -0.27737,
				"method": "rhf"
			},
			{
				"type": "occ",
				"energy": -0.23147,
				"method": "rhf"
			},
			{
				"type": "unocc",
				"energy": -0.067,
				"method": "rhf"
			},
			{
				"type": "unocc",
				"energy": -0.04735,
				"method": "rhf"
			},
			{
				"type": "unocc",
				"energy": -0.02584,
				"method": "rhf"
			},
			{
				"type": "unocc",
				"energy": -0.00098,
				"method": "rhf"
			},
			{
				"type": "unocc",
				"energy": 0.03599,
				"method": "rhf"
			}
		],
		"cosmo_sigma_profile": { 
			"-0.025": 0.0,
			"-0.024": 0.0,
			"-0.023": 0.0,
			"-0.022": 0.0,
			"-0.021": 0.0,
			"-0.02": 0.0294116313827,
			"-0.019": 0.64953086962,
			"-0.018": 0.87738955902,
			"-0.017": 0.890673308477,
			"-0.016": 1.03464367066,
			"-0.015": 0.620691092082,
			"-0.014": 0.290658504181,
			"-0.013": 0.551841433948,
			"-0.012": 0.71438278901,
			"-0.011": 1.08783893605,
			"-0.01": 1.0462967244,
			"-0.009": 2.76030426668,
			"-0.008": 4.62137045156,
			"-0.007": 7.95116124671,
			"-0.006": 10.7636735022,
			"-0.005": 8.28346844937,
			"-0.004": 11.6596547468,
			"-0.003": 15.3066751125,
			"-0.002": 17.6123029902,
			"-0.001": 23.5238253086,
			"0.0": 25.4909699023,
			"0.001": 29.6893439545,
			"0.002": 47.8113091873,
			"0.003": 30.7567335147,
			"0.004": 16.8012532308,
			"0.005": 7.51454806737,
			"0.006": 4.22761113178,
			"0.007": 2.4360685911,
			"0.008": 1.12559848545,
			"0.009": 1.93414434098,
			"0.01": 2.63932962998,
			"0.011": 5.04451536071,
			"0.012": 1.24584437144,
			"0.013": 0.0,
			"0.014": 0.0,
			"0.015": 0.0,
			"0.016": 0.0,
			"0.017": 0.0,
			"0.018": 0.0,
			"0.019": 0.0,
			"0.02": 0.0,
			"0.021": 0.0,
			"0.022": 0.0,
			"0.023": 0.0,
			"0.024": 0.0,
			"0.025": 0.0
		}
	}
}
