{
	 "smiles": "CCCCCCC(=O)OCC", 
	 "Tm": 207.15, 
	 "num_atms": 29, 
	 "gaussian": { 
		 "optdone": 1, 
		 "sigma_profile": "yes", 
		 "theory": "DFT", 
		 "functional": "B3LYP", 
		 "basiset": "6-31G**", 
		 "properties": { 
			 "R2extent": 4161.1128, 
			 "electric_dipole_moment_norm": 1.50541099372, 
			 "electric_quadrupole_moment_norm": 8.20301412592, 
			 "total_energy": -504.291444621, 
			 "HOMO_LUMO_gap": 0.28324, 
			 "cosmo_polarized_energy": -6.03, 
			 "cosmo_cavitation_energy": 30.99, 
			 "cosmo_dispersion_energy": -22.03, 
			 "cosmo_repulsion_energy": 1.86, 
			 "cosmo_total_nonelectrostatic_energy": 10.81, 
			 "SMD_solvation_energy": 5.87 
		},
		"coords": [
			{
				"x": -4.6753172362,
				"y": 0.904129585,
				"z": -0.2885686112,
				"element": "C" 
			},
			{
				"x": -4.0631667808,
				"y": 1.3899000342,
				"z": -1.6080415159,
				"element": "C" 
			},
			{
				"x": -3.2165873537,
				"y": 0.338187009,
				"z": -2.344024407,
				"element": "C" 
			},
			{
				"x": -1.9346797367,
				"y": -0.0793906756,
				"z": -1.6105115204,
				"element": "C" 
			},
			{
				"x": -1.0914279224,
				"y": -1.0806201716,
				"z": -2.4115485183,
				"element": "C" 
			},
			{
				"x": 0.1875036812,
				"y": -1.5240776784,
				"z": -1.6941681093,
				"element": "C" 
			},
			{
				"x": 1.2368522977,
				"y": -0.4312816952,
				"z": -1.5984469937,
				"element": "C" 
			},
			{
				"x": 1.2461009266,
				"y": 0.5943194048,
				"z": -2.2475372357,
				"element": "O" 
			},
			{
				"x": 2.1923493881,
				"y": -0.7614264857,
				"z": -0.6987990981,
				"element": "O" 
			},
			{
				"x": 3.2863494738,
				"y": 0.1736798593,
				"z": -0.5424140136,
				"element": "C" 
			},
			{
				"x": 4.3762767455,
				"y": -0.069752604,
				"z": -1.5756801431,
				"element": "C" 
			},
			{
				"x": -5.3076234804,
				"y": 1.6771702234,
				"z": 0.160672033,
				"element": "H" 
			},
			{
				"x": -5.2990069497,
				"y": 0.0162068017,
				"z": -0.4466001233,
				"element": "H" 
			},
			{
				"x": -3.9077494245,
				"y": 0.6420071123,
				"z": 0.4468604276,
				"element": "H" 
			},
			{
				"x": -4.8712871375,
				"y": 1.7174806489,
				"z": -2.2746118446,
				"element": "H" 
			},
			{
				"x": -3.4469668918,
				"y": 2.2796932579,
				"z": -1.4197177519,
				"element": "H" 
			},
			{
				"x": -3.8335751115,
				"y": -0.5521633717,
				"z": -2.5356794372,
				"element": "H" 
			},
			{
				"x": -2.9414924399,
				"y": 0.7348048111,
				"z": -3.3306049731,
				"element": "H" 
			},
			{
				"x": -2.1862086301,
				"y": -0.5223330648,
				"z": -0.6372433975,
				"element": "H" 
			},
			{
				"x": -1.3304172983,
				"y": 0.8128358638,
				"z": -1.4041366647,
				"element": "H" 
			},
			{
				"x": -1.6933735061,
				"y": -1.9719277218,
				"z": -2.6298372359,
				"element": "H" 
			},
			{
				"x": -0.8182981687,
				"y": -0.6373269592,
				"z": -3.3758839769,
				"element": "H" 
			},
			{
				"x": 0.6581992701,
				"y": -2.3616963315,
				"z": -2.2263995059,
				"element": "H" 
			},
			{
				"x": -0.0202156037,
				"y": -1.8946590413,
				"z": -0.6838761489,
				"element": "H" 
			},
			{
				"x": 3.6511239277,
				"y": -0.0016889191,
				"z": 0.4726453915,
				"element": "H" 
			},
			{
				"x": 2.8942462763,
				"y": 1.1908356289,
				"z": -0.6169262153,
				"element": "H" 
			},
			{
				"x": 5.224062815,
				"y": 0.5974685292,
				"z": -1.3872423197,
				"element": "H" 
			},
			{
				"x": 4.7350773489,
				"y": -1.1022409573,
				"z": -1.5282750433,
				"element": "H" 
			},
			{
				"x": 4.001451521,
				"y": 0.1297669078,
				"z": -2.5826030476,
				"element": "H" 
			}
		],
		 "valence_orbital": [ 
			{
				"type": "occ",
				"energy": -0.31631,
				"method": "rhf"
			},
			{
				"type": "occ",
				"energy": -0.31371,
				"method": "rhf"
			},
			{
				"type": "occ",
				"energy": -0.30634,
				"method": "rhf"
			},
			{
				"type": "occ",
				"energy": -0.29437,
				"method": "rhf"
			},
			{
				"type": "occ",
				"energy": -0.26701,
				"method": "rhf"
			},
			{
				"type": "unocc",
				"energy": 0.01623,
				"method": "rhf"
			},
			{
				"type": "unocc",
				"energy": 0.09262,
				"method": "rhf"
			},
			{
				"type": "unocc",
				"energy": 0.1022,
				"method": "rhf"
			},
			{
				"type": "unocc",
				"energy": 0.11473,
				"method": "rhf"
			},
			{
				"type": "unocc",
				"energy": 0.12406,
				"method": "rhf"
			}
		],
		"cosmo_sigma_profile": { 
			"-0.025": 0.0,
			"-0.024": 0.0,
			"-0.023": 0.0,
			"-0.022": 0.0,
			"-0.021": 0.0,
			"-0.02": 0.0,
			"-0.019": 0.0,
			"-0.018": 0.0,
			"-0.017": 0.0,
			"-0.016": 0.0,
			"-0.015": 0.0,
			"-0.014": 0.0,
			"-0.013": 0.0,
			"-0.012": 0.0,
			"-0.011": 0.0,
			"-0.01": 0.0,
			"-0.009": 0.0,
			"-0.008": 0.0,
			"-0.007": 0.00804206221886,
			"-0.006": 2.63234386935,
			"-0.005": 7.63247305311,
			"-0.004": 13.3498551733,
			"-0.003": 21.3070479081,
			"-0.002": 38.0088607177,
			"-0.001": 40.6141427729,
			"0.0": 39.4537636571,
			"0.001": 31.820783103,
			"0.002": 13.7005023716,
			"0.003": 3.40118677478,
			"0.004": 3.83761244292,
			"0.005": 2.89524118288,
			"0.006": 2.84983695609,
			"0.007": 3.33557833591,
			"0.008": 3.12195901686,
			"0.009": 2.29732348203,
			"0.01": 2.04148084238,
			"0.011": 2.33563809722,
			"0.012": 3.59208129966,
			"0.013": 1.12941663082,
			"0.014": 0.0,
			"0.015": 0.0,
			"0.016": 0.0,
			"0.017": 0.0,
			"0.018": 0.0,
			"0.019": 0.0,
			"0.02": 0.0,
			"0.021": 0.0,
			"0.022": 0.0,
			"0.023": 0.0,
			"0.024": 0.0,
			"0.025": 0.0
		}
	}
}
