{
	 "smiles": "ClC1=CC=C(C=C1)C1=NN2C=CC3=C(C=CC=C3)C2=N1", 
	 "Tm": 511.15, 
	 "num_atms": 30, 
	 "gaussian": { 
		 "optdone": 1, 
		 "sigma_profile": "yes", 
		 "theory": "DFT", 
		 "functional": "B3LYP", 
		 "basiset": "6-31G**", 
		 "properties": { 
			 "R2extent": 9189.0013, 
			 "electric_dipole_moment_norm": 5.07287496988, 
			 "electric_quadrupole_moment_norm": 9.26995191897, 
			 "total_energy": -1240.19491315, 
			 "HOMO_LUMO_gap": 0.16703, 
			 "cosmo_polarized_energy": -10.08, 
			 "cosmo_cavitation_energy": 36.75, 
			 "cosmo_dispersion_energy": -27.45, 
			 "cosmo_repulsion_energy": 2.04, 
			 "cosmo_total_nonelectrostatic_energy": 11.34, 
			 "SMD_solvation_energy": 3.47 
		},
		"coords": [
			{
				"x": 4.273178422,
				"y": 4.9043377168,
				"z": 3.062113261,
				"element": "Cl" 
			},
			{
				"x": 3.2595607233,
				"y": 3.636756348,
				"z": 2.3857462619,
				"element": "C" 
			},
			{
				"x": 3.432278369,
				"y": 2.3197610957,
				"z": 2.8146780349,
				"element": "C" 
			},
			{
				"x": 2.6277774615,
				"y": 1.3197293596,
				"z": 2.276524303,
				"element": "C" 
			},
			{
				"x": 1.6533517337,
				"y": 1.6261044143,
				"z": 1.3141660033,
				"element": "C" 
			},
			{
				"x": 1.4978098711,
				"y": 2.9562841968,
				"z": 0.8984502726,
				"element": "C" 
			},
			{
				"x": 2.2974928484,
				"y": 3.9646561729,
				"z": 1.4304621837,
				"element": "C" 
			},
			{
				"x": 0.8024205674,
				"y": 0.5749069008,
				"z": 0.7434347188,
				"element": "C" 
			},
			{
				"x": 0.9148921648,
				"y": -0.707905451,
				"z": 1.1101037826,
				"element": "N" 
			},
			{
				"x": -0.0369440161,
				"y": -1.3065609147,
				"z": 0.3532972016,
				"element": "N" 
			},
			{
				"x": -0.3365924074,
				"y": -2.6512021559,
				"z": 0.3517521737,
				"element": "C" 
			},
			{
				"x": -1.3231819637,
				"y": -3.0949575519,
				"z": -0.4689041387,
				"element": "C" 
			},
			{
				"x": -2.0486417804,
				"y": -2.1902874054,
				"z": -1.3243540397,
				"element": "C" 
			},
			{
				"x": -1.7265897691,
				"y": -0.8017393673,
				"z": -1.3110624176,
				"element": "C" 
			},
			{
				"x": -2.4233597039,
				"y": 0.0990949301,
				"z": -2.1393206952,
				"element": "C" 
			},
			{
				"x": -3.42696977,
				"y": -0.3644301095,
				"z": -2.9718298467,
				"element": "C" 
			},
			{
				"x": -3.7545834569,
				"y": -1.7345301607,
				"z": -2.9940428164,
				"element": "C" 
			},
			{
				"x": -3.0781803383,
				"y": -2.631099713,
				"z": -2.185428143,
				"element": "C" 
			},
			{
				"x": -0.6781764086,
				"y": -0.3701713814,
				"z": -0.4307880747,
				"element": "C" 
			},
			{
				"x": -0.1562940158,
				"y": 0.8284167557,
				"z": -0.1940165771,
				"element": "N" 
			},
			{
				"x": 4.1857592276,
				"y": 2.0851403828,
				"z": 3.558329248,
				"element": "H" 
			},
			{
				"x": 2.7495672887,
				"y": 0.2913709342,
				"z": 2.5993383405,
				"element": "H" 
			},
			{
				"x": 0.7437180595,
				"y": 3.1889181473,
				"z": 0.1546255362,
				"element": "H" 
			},
			{
				"x": 2.1785356877,
				"y": 4.9937469547,
				"z": 1.1101017057,
				"element": "H" 
			},
			{
				"x": 0.2523464489,
				"y": -3.2636155566,
				"z": 1.0212409039,
				"element": "H" 
			},
			{
				"x": -1.5683866713,
				"y": -4.1511805154,
				"z": -0.4792151578,
				"element": "H" 
			},
			{
				"x": -2.1551946893,
				"y": 1.1497517914,
				"z": -2.1066360827,
				"element": "H" 
			},
			{
				"x": -3.9645818118,
				"y": 0.3295626193,
				"z": -3.6107044684,
				"element": "H" 
			},
			{
				"x": -4.5436351169,
				"y": -2.0890728818,
				"z": -3.6505983965,
				"element": "H" 
			},
			{
				"x": -3.332776954,
				"y": -3.6872855558,
				"z": -2.2044630771,
				"element": "H" 
			}
		],
		 "valence_orbital": [ 
			{
				"type": "occ",
				"energy": -0.28211,
				"method": "rhf"
			},
			{
				"type": "occ",
				"energy": -0.25991,
				"method": "rhf"
			},
			{
				"type": "occ",
				"energy": -0.25428,
				"method": "rhf"
			},
			{
				"type": "occ",
				"energy": -0.23924,
				"method": "rhf"
			},
			{
				"type": "occ",
				"energy": -0.22049,
				"method": "rhf"
			},
			{
				"type": "unocc",
				"energy": -0.05346,
				"method": "rhf"
			},
			{
				"type": "unocc",
				"energy": -0.04297,
				"method": "rhf"
			},
			{
				"type": "unocc",
				"energy": -0.02686,
				"method": "rhf"
			},
			{
				"type": "unocc",
				"energy": -0.00793,
				"method": "rhf"
			},
			{
				"type": "unocc",
				"energy": 0.02352,
				"method": "rhf"
			}
		],
		"cosmo_sigma_profile": { 
			"-0.025": 0.0,
			"-0.024": 0.0,
			"-0.023": 0.0,
			"-0.022": 0.0,
			"-0.021": 0.0,
			"-0.02": 0.0,
			"-0.019": 0.0,
			"-0.018": 0.0,
			"-0.017": 0.0,
			"-0.016": 0.0,
			"-0.015": 0.0,
			"-0.014": 0.0,
			"-0.013": 0.0,
			"-0.012": 0.0,
			"-0.011": 0.0,
			"-0.01": 0.389814440696,
			"-0.009": 1.8129893751,
			"-0.008": 4.10261306333,
			"-0.007": 11.2669180663,
			"-0.006": 17.2464975973,
			"-0.005": 18.5048094972,
			"-0.004": 15.2285246333,
			"-0.003": 17.0331832433,
			"-0.002": 17.5362516298,
			"-0.001": 19.1628750334,
			"0.0": 21.9572743956,
			"0.001": 32.5381378398,
			"0.002": 39.6951085415,
			"0.003": 35.6749596633,
			"0.004": 22.7150017955,
			"0.005": 8.33269892718,
			"0.006": 3.10009548004,
			"0.007": 3.16470124495,
			"0.008": 2.19522789285,
			"0.009": 2.39378057379,
			"0.01": 2.28789708986,
			"0.011": 2.36053014658,
			"0.012": 1.06096827167,
			"0.013": 0.0229826237354,
			"0.014": 0.0,
			"0.015": 0.0,
			"0.016": 0.0,
			"0.017": 0.0,
			"0.018": 0.0,
			"0.019": 0.0,
			"0.02": 0.0,
			"0.021": 0.0,
			"0.022": 0.0,
			"0.023": 0.0,
			"0.024": 0.0,
			"0.025": 0.0
		}
	}
}
