{
	 "smiles": "CC(Br)C1=CC2=C(C=CC=C2)C=C1", 
	 "Tm": 336.15, 
	 "num_atms": 24, 
	 "gaussian": { 
		 "optdone": 1, 
		 "sigma_profile": "yes", 
		 "theory": "DFT", 
		 "functional": "B3LYP", 
		 "basiset": "6-31G**", 
		 "properties": { 
			 "R2extent": 5176.2579, 
			 "electric_dipole_moment_norm": 2.49577341319, 
			 "electric_quadrupole_moment_norm": 13.990841568, 
			 "total_energy": -3035.33486327, 
			 "HOMO_LUMO_gap": 0.16972, 
			 "cosmo_polarized_energy": -7.44, 
			 "cosmo_cavitation_energy": 29.27, 
			 "cosmo_dispersion_energy": -21.59, 
			 "cosmo_repulsion_energy": 1.69, 
			 "cosmo_total_nonelectrostatic_energy": 9.37, 
			 "SMD_solvation_energy": 3.42 
		},
		"coords": [
			{
				"x": 0.124025581,
				"y": -4.028295744,
				"z": -0.9590382519,
				"element": "C" 
			},
			{
				"x": 1.0977025296,
				"y": -3.1838597079,
				"z": -0.1528243729,
				"element": "C" 
			},
			{
				"x": 2.9737558848,
				"y": -3.5439514815,
				"z": -0.8570148043,
				"element": "Br" 
			},
			{
				"x": 0.8609896205,
				"y": -1.7000319062,
				"z": -0.1204328482,
				"element": "C" 
			},
			{
				"x": 0.1307230679,
				"y": -1.0415917788,
				"z": -1.0900355213,
				"element": "C" 
			},
			{
				"x": -0.0972563972,
				"y": 0.3590277601,
				"z": -1.024643747,
				"element": "C" 
			},
			{
				"x": 0.4450449696,
				"y": 1.1031495261,
				"z": 0.0722213717,
				"element": "C" 
			},
			{
				"x": 0.2139647296,
				"y": 2.5024465614,
				"z": 0.1358209676,
				"element": "C" 
			},
			{
				"x": -0.5192603467,
				"y": 3.1402836698,
				"z": -0.8404228063,
				"element": "C" 
			},
			{
				"x": -1.0559067092,
				"y": 2.4054191247,
				"z": -1.9259819282,
				"element": "C" 
			},
			{
				"x": -0.8497535698,
				"y": 1.0468089389,
				"z": -2.0148152704,
				"element": "C" 
			},
			{
				"x": 1.1959131831,
				"y": 0.4061482859,
				"z": 1.058447877,
				"element": "C" 
			},
			{
				"x": 1.3972940985,
				"y": -0.9483536821,
				"z": 0.9646636315,
				"element": "C" 
			},
			{
				"x": 0.3735336969,
				"y": -5.0872914673,
				"z": -0.8680107372,
				"element": "H" 
			},
			{
				"x": 0.1430384289,
				"y": -3.7700185078,
				"z": -2.0202939571,
				"element": "H" 
			},
			{
				"x": -0.8935578839,
				"y": -3.8742923121,
				"z": -0.5809427004,
				"element": "H" 
			},
			{
				"x": 1.1806563073,
				"y": -3.5649020747,
				"z": 0.8653713434,
				"element": "H" 
			},
			{
				"x": -0.2889472556,
				"y": -1.586973418,
				"z": -1.9298610763,
				"element": "H" 
			},
			{
				"x": 0.6273506248,
				"y": 3.0639945027,
				"z": 0.9697214424,
				"element": "H" 
			},
			{
				"x": -0.6886611971,
				"y": 4.2115184851,
				"z": -0.781576068,
				"element": "H" 
			},
			{
				"x": -1.6317838578,
				"y": 2.9197248095,
				"z": -2.6898599024,
				"element": "H" 
			},
			{
				"x": -1.2600569945,
				"y": 0.4809896085,
				"z": -2.8474219118,
				"element": "H" 
			},
			{
				"x": 1.6097827033,
				"y": 0.9644040674,
				"z": 1.8941995088,
				"element": "H" 
			},
			{
				"x": 1.9815087858,
				"y": -1.4645532594,
				"z": 1.7218297614,
				"element": "H" 
			}
		],
		 "valence_orbital": [ 
			{
				"type": "occ",
				"energy": -0.2881,
				"method": "rhf"
			},
			{
				"type": "occ",
				"energy": -0.26824,
				"method": "rhf"
			},
			{
				"type": "occ",
				"energy": -0.26506,
				"method": "rhf"
			},
			{
				"type": "occ",
				"energy": -0.24158,
				"method": "rhf"
			},
			{
				"type": "occ",
				"energy": -0.2195,
				"method": "rhf"
			},
			{
				"type": "unocc",
				"energy": -0.04978,
				"method": "rhf"
			},
			{
				"type": "unocc",
				"energy": -0.02702,
				"method": "rhf"
			},
			{
				"type": "unocc",
				"energy": 0.01165,
				"method": "rhf"
			},
			{
				"type": "unocc",
				"energy": 0.03207,
				"method": "rhf"
			},
			{
				"type": "unocc",
				"energy": 0.08856,
				"method": "rhf"
			}
		],
		"cosmo_sigma_profile": { 
			"-0.025": 0.0,
			"-0.024": 0.0,
			"-0.023": 0.0,
			"-0.022": 0.0,
			"-0.021": 0.0,
			"-0.02": 0.0,
			"-0.019": 0.0,
			"-0.018": 0.0,
			"-0.017": 0.0,
			"-0.016": 0.0,
			"-0.015": 0.0,
			"-0.014": 0.0,
			"-0.013": 0.0,
			"-0.012": 0.0,
			"-0.011": 0.0,
			"-0.01": 0.0,
			"-0.009": 0.0,
			"-0.008": 0.232112437044,
			"-0.007": 3.67239949361,
			"-0.006": 17.0551430939,
			"-0.005": 20.3809461224,
			"-0.004": 21.162913976,
			"-0.003": 18.1619077195,
			"-0.002": 15.7022422662,
			"-0.001": 16.837061791,
			"0.0": 14.4993299472,
			"0.001": 12.1281310147,
			"0.002": 12.9036203301,
			"0.003": 19.4692337611,
			"0.004": 26.7053189221,
			"0.005": 18.6702533622,
			"0.006": 10.8925677493,
			"0.007": 7.9083335415,
			"0.008": 0.0208167350626,
			"0.009": 0.0,
			"0.01": 0.0,
			"0.011": 0.0,
			"0.012": 0.0,
			"0.013": 0.0,
			"0.014": 0.0,
			"0.015": 0.0,
			"0.016": 0.0,
			"0.017": 0.0,
			"0.018": 0.0,
			"0.019": 0.0,
			"0.02": 0.0,
			"0.021": 0.0,
			"0.022": 0.0,
			"0.023": 0.0,
			"0.024": 0.0,
			"0.025": 0.0
		}
	}
}
