{
	 "smiles": "CCCCCCCCCC(=O)C1=CC=CC=C1", 
	 "Tm": 309.15, 
	 "num_atms": 41, 
	 "gaussian": { 
		 "optdone": 1, 
		 "sigma_profile": "yes", 
		 "theory": "DFT", 
		 "functional": "B3LYP", 
		 "basiset": "6-31G**", 
		 "properties": { 
			 "R2extent": 9272.5164, 
			 "electric_dipole_moment_norm": 2.65690377884, 
			 "electric_quadrupole_moment_norm": 12.0094107749, 
			 "total_energy": -699.420012218, 
			 "HOMO_LUMO_gap": 0.19187, 
			 "cosmo_polarized_energy": -7.74, 
			 "cosmo_cavitation_energy": 41.86, 
			 "cosmo_dispersion_energy": -29.14, 
			 "cosmo_repulsion_energy": 2.3, 
			 "cosmo_total_nonelectrostatic_energy": 15.02, 
			 "SMD_solvation_energy": 6.48 
		},
		"coords": [
			{
				"x": -5.8926426291,
				"y": 0.6297559742,
				"z": -0.1245305667,
				"element": "C" 
			},
			{
				"x": -4.9098751009,
				"y": -0.1685463819,
				"z": -0.9893778003,
				"element": "C" 
			},
			{
				"x": -3.9798316065,
				"y": 0.696936751,
				"z": -1.8578312721,
				"element": "C" 
			},
			{
				"x": -3.033844818,
				"y": 1.6404105092,
				"z": -1.0910895857,
				"element": "C" 
			},
			{
				"x": -2.0384362106,
				"y": 0.9638584221,
				"z": -0.1308037598,
				"element": "C" 
			},
			{
				"x": -1.0239697217,
				"y": 0.0354396379,
				"z": -0.8151171283,
				"element": "C" 
			},
			{
				"x": -0.0244584244,
				"y": -0.640322468,
				"z": 0.141429499,
				"element": "C" 
			},
			{
				"x": 0.9382837329,
				"y": 0.297148848,
				"z": 0.8943026322,
				"element": "C" 
			},
			{
				"x": 1.9113928077,
				"y": 1.081159369,
				"z": 0.0042803736,
				"element": "C" 
			},
			{
				"x": 3.0171980047,
				"y": 0.2269878929,
				"z": -0.6108037469,
				"element": "C" 
			},
			{
				"x": 3.1421445579,
				"y": -0.9527946891,
				"z": -0.3133486361,
				"element": "O" 
			},
			{
				"x": 3.9723824106,
				"y": 0.8664876965,
				"z": -1.5784495456,
				"element": "C" 
			},
			{
				"x": 3.9114496374,
				"y": 2.2238940563,
				"z": -1.9299439144,
				"element": "C" 
			},
			{
				"x": 4.8309231999,
				"y": 2.7617001511,
				"z": -2.8307029373,
				"element": "C" 
			},
			{
				"x": 5.8185970092,
				"y": 1.9492869561,
				"z": -3.390665797,
				"element": "C" 
			},
			{
				"x": 5.8873729924,
				"y": 0.5957739449,
				"z": -3.0463395952,
				"element": "C" 
			},
			{
				"x": 4.9718219871,
				"y": 0.0597285956,
				"z": -2.1460905703,
				"element": "C" 
			},
			{
				"x": -6.5703124785,
				"y": -0.0365673498,
				"z": 0.4194674084,
				"element": "H" 
			},
			{
				"x": -6.5070352857,
				"y": 1.2980407823,
				"z": -0.7394951804,
				"element": "H" 
			},
			{
				"x": -5.3762256879,
				"y": 1.2472926022,
				"z": 0.6177341564,
				"element": "H" 
			},
			{
				"x": -4.3129750838,
				"y": -0.8290559948,
				"z": -0.3471327391,
				"element": "H" 
			},
			{
				"x": -5.4777761633,
				"y": -0.8337842362,
				"z": -1.6524422338,
				"element": "H" 
			},
			{
				"x": -3.3906720309,
				"y": 0.0376933626,
				"z": -2.5077330604,
				"element": "H" 
			},
			{
				"x": -4.5969619149,
				"y": 1.3057091158,
				"z": -2.5331562283,
				"element": "H" 
			},
			{
				"x": -2.4682704667,
				"y": 2.2309851579,
				"z": -1.825245182,
				"element": "H" 
			},
			{
				"x": -3.629666042,
				"y": 2.3667229346,
				"z": -0.5238186938,
				"element": "H" 
			},
			{
				"x": -2.5837640544,
				"y": 0.3962786613,
				"z": 0.6359429216,
				"element": "H" 
			},
			{
				"x": -1.5037406787,
				"y": 1.7541139762,
				"z": 0.4115940492,
				"element": "H" 
			},
			{
				"x": -1.5603044015,
				"y": -0.7568671076,
				"z": -1.3519174702,
				"element": "H" 
			},
			{
				"x": -0.4862179685,
				"y": 0.5998469074,
				"z": -1.590684612,
				"element": "H" 
			},
			{
				"x": 0.5705322376,
				"y": -1.3714248396,
				"z": -0.415814991,
				"element": "H" 
			},
			{
				"x": -0.5905560036,
				"y": -1.2149585148,
				"z": 0.8871753965,
				"element": "H" 
			},
			{
				"x": 1.5250341041,
				"y": -0.3041476829,
				"z": 1.5963357212,
				"element": "H" 
			},
			{
				"x": 0.367909055,
				"y": 1.0142550304,
				"z": 1.4962341808,
				"element": "H" 
			},
			{
				"x": 1.3807277685,
				"y": 1.6070498576,
				"z": -0.7992967452,
				"element": "H" 
			},
			{
				"x": 2.4019091457,
				"y": 1.8721342564,
				"z": 0.5896440193,
				"element": "H" 
			},
			{
				"x": 3.1506282449,
				"y": 2.868435879,
				"z": -1.5022986249,
				"element": "H" 
			},
			{
				"x": 4.7762136426,
				"y": 3.8136663685,
				"z": -3.0952815884,
				"element": "H" 
			},
			{
				"x": 6.5330842827,
				"y": 2.3691652874,
				"z": -4.0931165767,
				"element": "H" 
			},
			{
				"x": 6.655480004,
				"y": -0.037491311,
				"z": -3.4808930067,
				"element": "H" 
			},
			{
				"x": 5.005651947,
				"y": -0.9864984085,
				"z": -1.8612185695,
				"element": "H" 
			}
		],
		 "valence_orbital": [ 
			{
				"type": "occ",
				"energy": -0.30189,
				"method": "rhf"
			},
			{
				"type": "occ",
				"energy": -0.29626,
				"method": "rhf"
			},
			{
				"type": "occ",
				"energy": -0.26051,
				"method": "rhf"
			},
			{
				"type": "occ",
				"energy": -0.25713,
				"method": "rhf"
			},
			{
				"type": "occ",
				"energy": -0.24581,
				"method": "rhf"
			},
			{
				"type": "unocc",
				"energy": -0.05394,
				"method": "rhf"
			},
			{
				"type": "unocc",
				"energy": -0.0089,
				"method": "rhf"
			},
			{
				"type": "unocc",
				"energy": 0.04034,
				"method": "rhf"
			},
			{
				"type": "unocc",
				"energy": 0.07359,
				"method": "rhf"
			},
			{
				"type": "unocc",
				"energy": 0.08857,
				"method": "rhf"
			}
		],
		"cosmo_sigma_profile": { 
			"-0.025": 0.0,
			"-0.024": 0.0,
			"-0.023": 0.0,
			"-0.022": 0.0,
			"-0.021": 0.0,
			"-0.02": 0.0,
			"-0.019": 0.0,
			"-0.018": 0.0,
			"-0.017": 0.0,
			"-0.016": 0.0,
			"-0.015": 0.0,
			"-0.014": 0.0,
			"-0.013": 0.0,
			"-0.012": 0.0,
			"-0.011": 0.0,
			"-0.01": 0.0,
			"-0.009": 0.0,
			"-0.008": 0.0,
			"-0.007": 0.980255306284,
			"-0.006": 10.3766905861,
			"-0.005": 16.2832764054,
			"-0.004": 16.1345740799,
			"-0.003": 15.5403542477,
			"-0.002": 36.0246809222,
			"-0.001": 53.1660763837,
			"0.0": 50.6056394409,
			"0.001": 50.0185132263,
			"0.002": 27.516263756,
			"0.003": 12.7540439962,
			"0.004": 14.1790251456,
			"0.005": 6.62914525697,
			"0.006": 1.90728692108,
			"0.007": 1.58406894672,
			"0.008": 1.81856218288,
			"0.009": 2.07431602668,
			"0.01": 1.70742387618,
			"0.011": 2.50515214304,
			"0.012": 3.176670351,
			"0.013": 1.09744053213,
			"0.014": 0.0,
			"0.015": 0.0,
			"0.016": 0.0,
			"0.017": 0.0,
			"0.018": 0.0,
			"0.019": 0.0,
			"0.02": 0.0,
			"0.021": 0.0,
			"0.022": 0.0,
			"0.023": 0.0,
			"0.024": 0.0,
			"0.025": 0.0
		}
	}
}
