{
	 "smiles": "CC(C)OC1=NC(C(O)=O)=C(Cl)C=C1", 
	 "Tm": 344.15, 
	 "num_atms": 24, 
	 "gaussian": { 
		 "optdone": 1, 
		 "sigma_profile": "yes", 
		 "theory": "DFT", 
		 "functional": "B3LYP", 
		 "basiset": "6-31G**", 
		 "properties": { 
			 "R2extent": 4255.2016, 
			 "electric_dipole_moment_norm": 1.5773802617, 
			 "electric_quadrupole_moment_norm": 8.20132781566, 
			 "total_energy": -1089.60891183, 
			 "HOMO_LUMO_gap": 0.17828, 
			 "cosmo_polarized_energy": -11.68, 
			 "cosmo_cavitation_energy": 30.04, 
			 "cosmo_dispersion_energy": -21.42, 
			 "cosmo_repulsion_energy": 1.72, 
			 "cosmo_total_nonelectrostatic_energy": 10.35, 
			 "SMD_solvation_energy": 6.51 
		},
		"coords": [
			{
				"x": 2.3792658311,
				"y": 0.5055681062,
				"z": -1.8872708954,
				"element": "C" 
			},
			{
				"x": 1.2313106903,
				"y": -0.3934582629,
				"z": -2.342674346,
				"element": "C" 
			},
			{
				"x": 1.5807200719,
				"y": -1.880593817,
				"z": -2.3788259344,
				"element": "C" 
			},
			{
				"x": 0.0005484206,
				"y": -0.1275385336,
				"z": -1.5990606119,
				"element": "O" 
			},
			{
				"x": -0.1229012933,
				"y": -0.4062200832,
				"z": -0.2909274515,
				"element": "C" 
			},
			{
				"x": 0.8868517142,
				"y": -0.9016684893,
				"z": 0.4070544251,
				"element": "N" 
			},
			{
				"x": 0.730853068,
				"y": -1.1741206065,
				"z": 1.7150078623,
				"element": "C" 
			},
			{
				"x": 1.9745851198,
				"y": -1.7645288251,
				"z": 2.3318783838,
				"element": "C" 
			},
			{
				"x": 2.1815903642,
				"y": -1.3693773278,
				"z": 3.604327192,
				"element": "O" 
			},
			{
				"x": 2.7324725464,
				"y": -2.4940099805,
				"z": 1.7334486697,
				"element": "O" 
			},
			{
				"x": -0.4853708221,
				"y": -0.9579279712,
				"z": 2.3681540076,
				"element": "C" 
			},
			{
				"x": -0.7831674153,
				"y": -1.359529278,
				"z": 4.0467805395,
				"element": "Cl" 
			},
			{
				"x": -1.5563926802,
				"y": -0.4336432695,
				"z": 1.6242732778,
				"element": "C" 
			},
			{
				"x": -1.38555555,
				"y": -0.145456541,
				"z": 0.2861576978,
				"element": "C" 
			},
			{
				"x": 2.0543806041,
				"y": 1.5495434639,
				"z": -1.8436953572,
				"element": "H" 
			},
			{
				"x": 3.1979711448,
				"y": 0.4358697898,
				"z": -2.6113879006,
				"element": "H" 
			},
			{
				"x": 2.7544583708,
				"y": 0.2059060411,
				"z": -0.9079438664,
				"element": "H" 
			},
			{
				"x": 0.9263855434,
				"y": -0.0836100748,
				"z": -3.3474997177,
				"element": "H" 
			},
			{
				"x": 0.706302249,
				"y": -2.4717293786,
				"z": -2.6679582143,
				"element": "H" 
			},
			{
				"x": 1.9471969822,
				"y": -2.2318968057,
				"z": -1.4132576305,
				"element": "H" 
			},
			{
				"x": 2.360030212,
				"y": -2.0433026022,
				"z": -3.131147462,
				"element": "H" 
			},
			{
				"x": 2.9961737764,
				"y": -1.8147813576,
				"z": 3.89356434,
				"element": "H" 
			},
			{
				"x": -2.5110010331,
				"y": -0.2667109477,
				"z": 2.1112789447,
				"element": "H" 
			},
			{
				"x": -2.1865079152,
				"y": 0.2582167512,
				"z": -0.3223759522,
				"element": "H" 
			}
		],
		 "valence_orbital": [ 
			{
				"type": "occ",
				"energy": -0.31218,
				"method": "rhf"
			},
			{
				"type": "occ",
				"energy": -0.29957,
				"method": "rhf"
			},
			{
				"type": "occ",
				"energy": -0.2819,
				"method": "rhf"
			},
			{
				"type": "occ",
				"energy": -0.2738,
				"method": "rhf"
			},
			{
				"type": "occ",
				"energy": -0.23715,
				"method": "rhf"
			},
			{
				"type": "unocc",
				"energy": -0.05887,
				"method": "rhf"
			},
			{
				"type": "unocc",
				"energy": -0.02223,
				"method": "rhf"
			},
			{
				"type": "unocc",
				"energy": 0.02407,
				"method": "rhf"
			},
			{
				"type": "unocc",
				"energy": 0.03642,
				"method": "rhf"
			},
			{
				"type": "unocc",
				"energy": 0.07903,
				"method": "rhf"
			}
		],
		"cosmo_sigma_profile": { 
			"-0.025": 0.0,
			"-0.024": 0.0,
			"-0.023": 0.0,
			"-0.022": 0.0,
			"-0.021": 0.0,
			"-0.02": 0.0,
			"-0.019": 0.377520134484,
			"-0.018": 1.08310670652,
			"-0.017": 0.777701015178,
			"-0.016": 1.1876930932,
			"-0.015": 0.353668959746,
			"-0.014": 0.368033626871,
			"-0.013": 0.541022056164,
			"-0.012": 1.38199901257,
			"-0.011": 1.24149443028,
			"-0.01": 0.304578489069,
			"-0.009": 1.44862972795,
			"-0.008": 4.20620941863,
			"-0.007": 4.82315464514,
			"-0.006": 4.65913849599,
			"-0.005": 6.54588025684,
			"-0.004": 15.9296029833,
			"-0.003": 17.713867822,
			"-0.002": 19.5531592097,
			"-0.001": 25.9716696713,
			"0.0": 34.7671407012,
			"0.001": 24.1643271541,
			"0.002": 12.2915508627,
			"0.003": 12.0218404353,
			"0.004": 11.2153467873,
			"0.005": 5.70562472195,
			"0.006": 5.76943931025,
			"0.007": 4.23818507824,
			"0.008": 5.3239148687,
			"0.009": 5.52916577139,
			"0.01": 4.66755831637,
			"0.011": 5.50866042086,
			"0.012": 0.934620936643,
			"0.013": 0.0,
			"0.014": 0.0,
			"0.015": 0.0,
			"0.016": 0.0,
			"0.017": 0.0,
			"0.018": 0.0,
			"0.019": 0.0,
			"0.02": 0.0,
			"0.021": 0.0,
			"0.022": 0.0,
			"0.023": 0.0,
			"0.024": 0.0,
			"0.025": 0.0
		}
	}
}
