{
	 "smiles": "S1C2=CC=CC=C2SC2=CC=CC=C12", 
	 "Tm": 432.15, 
	 "num_atms": 22, 
	 "gaussian": { 
		 "optdone": 1, 
		 "sigma_profile": "yes", 
		 "theory": "DFT", 
		 "functional": "B3LYP", 
		 "basiset": "6-31G**", 
		 "properties": { 
			 "R2extent": 3438.5255, 
			 "electric_dipole_moment_norm": 1.64096611178, 
			 "electric_quadrupole_moment_norm": 13.8308315947, 
			 "total_energy": -1258.4718623, 
			 "HOMO_LUMO_gap": 0.18357, 
			 "cosmo_polarized_energy": -6.47, 
			 "cosmo_cavitation_energy": 28.4, 
			 "cosmo_dispersion_energy": -22.19, 
			 "cosmo_repulsion_energy": 1.61, 
			 "cosmo_total_nonelectrostatic_energy": 7.82, 
			 "SMD_solvation_energy": 3.79 
		},
		"coords": [
			{
				"x": 2.336420774,
				"y": -0.0962565869,
				"z": -1.0029089437,
				"element": "S" 
			},
			{
				"x": 0.7335169139,
				"y": 0.0210935292,
				"z": -1.781049581,
				"element": "C" 
			},
			{
				"x": 0.6391647664,
				"y": 0.5878085519,
				"z": -3.0579168606,
				"element": "C" 
			},
			{
				"x": -0.5846964502,
				"y": 0.6151814606,
				"z": -3.7254557221,
				"element": "C" 
			},
			{
				"x": -1.7306127075,
				"y": 0.1145358502,
				"z": -3.1043273848,
				"element": "C" 
			},
			{
				"x": -1.6518854757,
				"y": -0.4131492562,
				"z": -1.8160920885,
				"element": "C" 
			},
			{
				"x": -0.418775829,
				"y": -0.4823563177,
				"z": -1.1564726221,
				"element": "C" 
			},
			{
				"x": -0.3378614048,
				"y": -1.264735044,
				"z": 0.4466197389,
				"element": "S" 
			},
			{
				"x": 0.7896199933,
				"y": -0.1845760213,
				"z": 1.3129950244,
				"element": "C" 
			},
			{
				"x": 0.5356995098,
				"y": 0.1259637458,
				"z": 2.6544622516,
				"element": "C" 
			},
			{
				"x": 1.4427578379,
				"y": 0.896582849,
				"z": 3.380809831,
				"element": "C" 
			},
			{
				"x": 2.588697187,
				"y": 1.3972206428,
				"z": 2.7597165277,
				"element": "C" 
			},
			{
				"x": 2.826773428,
				"y": 1.1269073237,
				"z": 1.4127030895,
				"element": "C" 
			},
			{
				"x": 1.9419248533,
				"y": 0.3188717212,
				"z": 0.6884353838,
				"element": "C" 
			},
			{
				"x": 1.5294584882,
				"y": 0.998066967,
				"z": -3.5245989116,
				"element": "H" 
			},
			{
				"x": -0.6440923386,
				"y": 1.0409261692,
				"z": -4.722548432,
				"element": "H" 
			},
			{
				"x": -2.6886134451,
				"y": 0.1476754932,
				"z": -3.6143454947,
				"element": "H" 
			},
			{
				"x": -2.5431154762,
				"y": -0.7812224257,
				"z": -1.3171354289,
				"element": "H" 
			},
			{
				"x": -0.3699614386,
				"y": -0.2456425114,
				"z": 3.1239452489,
				"element": "H" 
			},
			{
				"x": 1.2455275711,
				"y": 1.1172109636,
				"z": 4.4255123979,
				"element": "H" 
			},
			{
				"x": 3.2900995976,
				"y": 2.0104488368,
				"z": 3.3173603414,
				"element": "H" 
			},
			{
				"x": 3.7026536454,
				"y": 1.5336440591,
				"z": 0.9165916349,
				"element": "H" 
			}
		],
		 "valence_orbital": [ 
			{
				"type": "occ",
				"energy": -0.29063,
				"method": "rhf"
			},
			{
				"type": "occ",
				"energy": -0.26294,
				"method": "rhf"
			},
			{
				"type": "occ",
				"energy": -0.26067,
				"method": "rhf"
			},
			{
				"type": "occ",
				"energy": -0.22962,
				"method": "rhf"
			},
			{
				"type": "occ",
				"energy": -0.2094,
				"method": "rhf"
			},
			{
				"type": "unocc",
				"energy": -0.02583,
				"method": "rhf"
			},
			{
				"type": "unocc",
				"energy": -0.01712,
				"method": "rhf"
			},
			{
				"type": "unocc",
				"energy": -0.01124,
				"method": "rhf"
			},
			{
				"type": "unocc",
				"energy": -0.01114,
				"method": "rhf"
			},
			{
				"type": "unocc",
				"energy": 0.0226,
				"method": "rhf"
			}
		],
		"cosmo_sigma_profile": { 
			"-0.025": 0.0,
			"-0.024": 0.0,
			"-0.023": 0.0,
			"-0.022": 0.0,
			"-0.021": 0.0,
			"-0.02": 0.0,
			"-0.019": 0.0,
			"-0.018": 0.0,
			"-0.017": 0.0,
			"-0.016": 0.0,
			"-0.015": 0.0,
			"-0.014": 0.0,
			"-0.013": 0.0,
			"-0.012": 0.0,
			"-0.011": 0.0,
			"-0.01": 0.0,
			"-0.009": 0.0,
			"-0.008": 0.0,
			"-0.007": 6.44130486208,
			"-0.006": 16.7844549144,
			"-0.005": 19.3090239837,
			"-0.004": 16.5736615338,
			"-0.003": 13.9705690246,
			"-0.002": 12.8819873533,
			"-0.001": 12.5249611841,
			"0.0": 15.215815365,
			"0.001": 17.3105835937,
			"0.002": 24.0890666755,
			"0.003": 30.7166686603,
			"0.004": 27.3891681226,
			"0.005": 8.59856198901,
			"0.006": 4.82991876271,
			"0.007": 3.99505642206,
			"0.008": 2.21621549811,
			"0.009": 0.0919630179452,
			"0.01": 0.0,
			"0.011": 0.0,
			"0.012": 0.0,
			"0.013": 0.0,
			"0.014": 0.0,
			"0.015": 0.0,
			"0.016": 0.0,
			"0.017": 0.0,
			"0.018": 0.0,
			"0.019": 0.0,
			"0.02": 0.0,
			"0.021": 0.0,
			"0.022": 0.0,
			"0.023": 0.0,
			"0.024": 0.0,
			"0.025": 0.0
		}
	}
}
