{
	 "smiles": "CCC(=O)CC", 
	 "Tm": 233.65, 
	 "num_atms": 16, 
	 "gaussian": { 
		 "optdone": 1, 
		 "sigma_profile": "yes", 
		 "theory": "DFT", 
		 "functional": "B3LYP", 
		 "basiset": "6-31G**", 
		 "properties": { 
			 "R2extent": 1272.5034, 
			 "electric_dipole_moment_norm": 2.56002625377, 
			 "electric_quadrupole_moment_norm": 8.01873646593, 
			 "total_energy": -271.794224322, 
			 "HOMO_LUMO_gap": 0.23426, 
			 "cosmo_polarized_energy": -6.53, 
			 "cosmo_cavitation_energy": 18.74, 
			 "cosmo_dispersion_energy": -13.72, 
			 "cosmo_repulsion_energy": 1.21, 
			 "cosmo_total_nonelectrostatic_energy": 6.23, 
			 "SMD_solvation_energy": 3.97 
		},
		"coords": [
			{
				"x": -1.5350897744,
				"y": -3.4041182601,
				"z": -1.1807656224,
				"element": "C" 
			},
			{
				"x": -1.321932395,
				"y": -2.0508450886,
				"z": -0.5058350316,
				"element": "C" 
			},
			{
				"x": -0.3991136218,
				"y": -1.1177862374,
				"z": -1.2843226908,
				"element": "C" 
			},
			{
				"x": 0.1003286257,
				"y": -1.4494575423,
				"z": -2.343619546,
				"element": "O" 
			},
			{
				"x": -0.134431546,
				"y": 0.2523189213,
				"z": -0.6671193228,
				"element": "C" 
			},
			{
				"x": 0.7915976429,
				"y": 1.1321826148,
				"z": -1.5041764424,
				"element": "C" 
			},
			{
				"x": -1.9713404477,
				"y": -3.2794804484,
				"z": -2.17528012,
				"element": "H" 
			},
			{
				"x": -0.585451124,
				"y": -3.9303264694,
				"z": -1.308302136,
				"element": "H" 
			},
			{
				"x": -2.2030621996,
				"y": -4.0334015044,
				"z": -0.5852092792,
				"element": "H" 
			},
			{
				"x": -2.2779312771,
				"y": -1.5293166684,
				"z": -0.3546463271,
				"element": "H" 
			},
			{
				"x": -0.904039262,
				"y": -2.1733452824,
				"z": 0.5036417592,
				"element": "H" 
			},
			{
				"x": -1.1051959437,
				"y": 0.7419481243,
				"z": -0.5041406217,
				"element": "H" 
			},
			{
				"x": 0.2750038169,
				"y": 0.0938255112,
				"z": 0.3408602985,
				"element": "H" 
			},
			{
				"x": 0.3707176939,
				"y": 1.3069335584,
				"z": -2.4978040167,
				"element": "H" 
			},
			{
				"x": 1.7635593065,
				"y": 0.6522086987,
				"z": -1.645002435,
				"element": "H" 
			},
			{
				"x": 0.9495805054,
				"y": 2.1000600728,
				"z": -1.019278466,
				"element": "H" 
			}
		],
		 "valence_orbital": [ 
			{
				"type": "occ",
				"energy": -0.35691,
				"method": "rhf"
			},
			{
				"type": "occ",
				"energy": -0.35324,
				"method": "rhf"
			},
			{
				"type": "occ",
				"energy": -0.34366,
				"method": "rhf"
			},
			{
				"type": "occ",
				"energy": -0.3402,
				"method": "rhf"
			},
			{
				"type": "occ",
				"energy": -0.24215,
				"method": "rhf"
			},
			{
				"type": "unocc",
				"energy": -0.00789,
				"method": "rhf"
			},
			{
				"type": "unocc",
				"energy": 0.08242,
				"method": "rhf"
			},
			{
				"type": "unocc",
				"energy": 0.12136,
				"method": "rhf"
			},
			{
				"type": "unocc",
				"energy": 0.13219,
				"method": "rhf"
			},
			{
				"type": "unocc",
				"energy": 0.14041,
				"method": "rhf"
			}
		],
		"cosmo_sigma_profile": { 
			"-0.025": 0.0,
			"-0.024": 0.0,
			"-0.023": 0.0,
			"-0.022": 0.0,
			"-0.021": 0.0,
			"-0.02": 0.0,
			"-0.019": 0.0,
			"-0.018": 0.0,
			"-0.017": 0.0,
			"-0.016": 0.0,
			"-0.015": 0.0,
			"-0.014": 0.0,
			"-0.013": 0.0,
			"-0.012": 0.0,
			"-0.011": 0.0,
			"-0.01": 0.0,
			"-0.009": 0.0,
			"-0.008": 0.0,
			"-0.007": 0.015307760465,
			"-0.006": 3.84076124557,
			"-0.005": 10.8789809984,
			"-0.004": 10.06354565,
			"-0.003": 17.3239087261,
			"-0.002": 22.2116662685,
			"-0.001": 22.0848500047,
			"0.0": 14.3071508197,
			"0.001": 14.0870261305,
			"0.002": 5.67625603496,
			"0.003": 2.63835198252,
			"0.004": 1.80643193759,
			"0.005": 2.13904199976,
			"0.006": 1.24387570398,
			"0.007": 1.71535570233,
			"0.008": 2.35524953168,
			"0.009": 1.42484933268,
			"0.01": 2.30484346497,
			"0.011": 2.42671409483,
			"0.012": 3.88044746404,
			"0.013": 2.87915744254,
			"0.014": 0.158775762135,
			"0.015": 0.0,
			"0.016": 0.0,
			"0.017": 0.0,
			"0.018": 0.0,
			"0.019": 0.0,
			"0.02": 0.0,
			"0.021": 0.0,
			"0.022": 0.0,
			"0.023": 0.0,
			"0.024": 0.0,
			"0.025": 0.0
		}
	}
}
