{
	 "smiles": "CN(C)S(=O)(=O)C1=CC(=CC=C1)C(O)=O", 
	 "Tm": 421.15, 
	 "num_atms": 26, 
	 "gaussian": { 
		 "optdone": 1, 
		 "sigma_profile": "yes", 
		 "theory": "DFT", 
		 "functional": "B3LYP", 
		 "basiset": "6-31G**", 
		 "properties": { 
			 "R2extent": 3788.9535, 
			 "electric_dipole_moment_norm": 3.71902833547, 
			 "electric_quadrupole_moment_norm": 30.7605894051, 
			 "total_energy": -1103.35345284, 
			 "HOMO_LUMO_gap": 0.19511, 
			 "cosmo_polarized_energy": -21.46, 
			 "cosmo_cavitation_energy": 31.22, 
			 "cosmo_dispersion_energy": -22.46, 
			 "cosmo_repulsion_energy": 1.71, 
			 "cosmo_total_nonelectrostatic_energy": 10.47, 
			 "SMD_solvation_energy": 5.1 
		},
		"coords": [
			{
				"x": -1.8638080297,
				"y": -2.468125535,
				"z": 0.2653733379,
				"element": "C" 
			},
			{
				"x": -1.9571467495,
				"y": -1.8204149716,
				"z": -1.0455100002,
				"element": "N" 
			},
			{
				"x": -3.2074791092,
				"y": -1.1009309602,
				"z": -1.3002294169,
				"element": "C" 
			},
			{
				"x": -0.5471233788,
				"y": -1.1161938861,
				"z": -1.6418811665,
				"element": "S" 
			},
			{
				"x": 0.5360046068,
				"y": -2.0630890205,
				"z": -1.3677743044,
				"element": "O" 
			},
			{
				"x": -0.8563195356,
				"y": -0.6456429399,
				"z": -2.9922183621,
				"element": "O" 
			},
			{
				"x": -0.223709987,
				"y": 0.3445345913,
				"z": -0.6358066267,
				"element": "C" 
			},
			{
				"x": 0.5913625649,
				"y": 0.2244508486,
				"z": 0.4909518277,
				"element": "C" 
			},
			{
				"x": 0.8184293356,
				"y": 1.3435871324,
				"z": 1.3001527441,
				"element": "C" 
			},
			{
				"x": 0.2051968701,
				"y": 2.5635364198,
				"z": 0.9809520013,
				"element": "C" 
			},
			{
				"x": -0.5898281197,
				"y": 2.6769732611,
				"z": -0.1570502908,
				"element": "C" 
			},
			{
				"x": -0.8072061543,
				"y": 1.5671131376,
				"z": -0.9769232866,
				"element": "C" 
			},
			{
				"x": 1.6735616881,
				"y": 1.2935378928,
				"z": 2.5347461007,
				"element": "C" 
			},
			{
				"x": 2.5846720897,
				"y": 0.290972465,
				"z": 2.6110122313,
				"element": "O" 
			},
			{
				"x": 1.5706321915,
				"y": 2.0935301684,
				"z": 3.4339460975,
				"element": "O" 
			},
			{
				"x": -1.9026380232,
				"y": -1.7503086912,
				"z": 1.0990390582,
				"element": "H" 
			},
			{
				"x": -2.7085061287,
				"y": -3.155991881,
				"z": 0.3619856305,
				"element": "H" 
			},
			{
				"x": -0.9413176775,
				"y": -3.0452792171,
				"z": 0.3191434409,
				"element": "H" 
			},
			{
				"x": -4.0331408393,
				"y": -1.8087336936,
				"z": -1.1845160535,
				"element": "H" 
			},
			{
				"x": -3.2102452337,
				"y": -0.7316455394,
				"z": -2.3252856138,
				"element": "H" 
			},
			{
				"x": -3.3664248668,
				"y": -0.2639131686,
				"z": -0.6029866965,
				"element": "H" 
			},
			{
				"x": 1.0260836435,
				"y": -0.745254229,
				"z": 0.7131685778,
				"element": "H" 
			},
			{
				"x": 0.3761771387,
				"y": 3.4113132562,
				"z": 1.6354824346,
				"element": "H" 
			},
			{
				"x": -1.0382720172,
				"y": 3.6319282139,
				"z": -0.4125662895,
				"element": "H" 
			},
			{
				"x": -1.4005019092,
				"y": 1.6455864318,
				"z": -1.8813249083,
				"element": "H" 
			},
			{
				"x": 2.6724476307,
				"y": -0.1600400858,
				"z": 1.7595195335,
				"element": "H" 
			}
		],
		 "valence_orbital": [ 
			{
				"type": "occ",
				"energy": -0.31291,
				"method": "rhf"
			},
			{
				"type": "occ",
				"energy": -0.29532,
				"method": "rhf"
			},
			{
				"type": "occ",
				"energy": -0.29321,
				"method": "rhf"
			},
			{
				"type": "occ",
				"energy": -0.28417,
				"method": "rhf"
			},
			{
				"type": "occ",
				"energy": -0.26594,
				"method": "rhf"
			},
			{
				"type": "unocc",
				"energy": -0.07083,
				"method": "rhf"
			},
			{
				"type": "unocc",
				"energy": -0.05436,
				"method": "rhf"
			},
			{
				"type": "unocc",
				"energy": 0.0243,
				"method": "rhf"
			},
			{
				"type": "unocc",
				"energy": 0.04133,
				"method": "rhf"
			},
			{
				"type": "unocc",
				"energy": 0.06427,
				"method": "rhf"
			}
		],
		"cosmo_sigma_profile": { 
			"-0.025": 0.0,
			"-0.024": 0.0,
			"-0.023": 0.0,
			"-0.022": 0.0,
			"-0.021": 0.0,
			"-0.02": 0.112722485117,
			"-0.019": 0.8858044861,
			"-0.018": 0.855479390946,
			"-0.017": 1.1470753558,
			"-0.016": 0.869475569086,
			"-0.015": 0.947533341942,
			"-0.014": 1.16619824433,
			"-0.013": 1.00977632743,
			"-0.012": 1.05303214358,
			"-0.011": 0.876994896146,
			"-0.01": 0.705326801021,
			"-0.009": 1.27296204946,
			"-0.008": 3.86564430141,
			"-0.007": 8.43401638239,
			"-0.006": 14.0251591427,
			"-0.005": 18.9446756295,
			"-0.004": 24.4184463022,
			"-0.003": 25.3286308768,
			"-0.002": 18.39072877,
			"-0.001": 11.2574651517,
			"0.0": 14.8720594891,
			"0.001": 14.2432802741,
			"0.002": 8.62182374384,
			"0.003": 4.93508887108,
			"0.004": 5.09158605978,
			"0.005": 7.34302567428,
			"0.006": 5.4939607661,
			"0.007": 6.75967192151,
			"0.008": 7.74876680486,
			"0.009": 7.29466075583,
			"0.01": 11.3623656067,
			"0.011": 13.3003990691,
			"0.012": 5.21114841534,
			"0.013": 0.656183783757,
			"0.014": 0.0,
			"0.015": 0.0,
			"0.016": 0.0,
			"0.017": 0.0,
			"0.018": 0.0,
			"0.019": 0.0,
			"0.02": 0.0,
			"0.021": 0.0,
			"0.022": 0.0,
			"0.023": 0.0,
			"0.024": 0.0,
			"0.0": 0.0
		}
	}
}
