{
	 "smiles": "ClC1=C(Cl)C2(Cl)C3COS(=O)(=O)OCC3C1(Cl)C2(Cl)Cl", 
	 "Tm": 455.15, 
	 "num_atms": 26, 
	 "gaussian": { 
		 "optdone": 1, 
		 "sigma_profile": "yes", 
		 "theory": "DFT", 
		 "functional": "B3LYP", 
		 "basiset": "6-31G**", 
		 "properties": { 
			 "R2extent": 7715.9998, 
			 "electric_dipole_moment_norm": 2.97985839261, 
			 "electric_quadrupole_moment_norm": 24.534623155, 
			 "total_energy": -3806.66245766, 
			 "HOMO_LUMO_gap": 0.21986, 
			 "cosmo_polarized_energy": -12.7, 
			 "cosmo_cavitation_energy": 38.05, 
			 "cosmo_dispersion_energy": -27.85, 
			 "cosmo_repulsion_energy": 2.04, 
			 "cosmo_total_nonelectrostatic_energy": 12.24, 
			 "SMD_solvation_energy": 2.98 
		},
		"coords": [
			{
				"x": -0.9043043403,
				"y": 3.4401801316,
				"z": -0.2371277413,
				"element": "Cl" 
			},
			{
				"x": -0.7773034811,
				"y": 1.8266634225,
				"z": 0.3224049457,
				"element": "C" 
			},
			{
				"x": -1.7505720988,
				"y": 0.908006845,
				"z": 0.4205898224,
				"element": "C" 
			},
			{
				"x": -3.4055556089,
				"y": 1.0794880256,
				"z": 0.0152612186,
				"element": "Cl" 
			},
			{
				"x": -1.1024335275,
				"y": -0.399580243,
				"z": 0.8848859978,
				"element": "C" 
			},
			{
				"x": -2.1970517097,
				"y": -1.6008758659,
				"z": 1.601320584,
				"element": "Cl" 
			},
			{
				"x": -0.2346927473,
				"y": -0.9487258674,
				"z": -0.3006767271,
				"element": "C" 
			},
			{
				"x": -1.0610993987,
				"y": -1.2599550058,
				"z": -1.5485622769,
				"element": "C" 
			},
			{
				"x": -0.2256111281,
				"y": -1.8934810234,
				"z": -2.5520750182,
				"element": "O" 
			},
			{
				"x": 0.4854234292,
				"y": -0.9175306745,
				"z": -3.6480865069,
				"element": "S" 
			},
			{
				"x": -0.4879796017,
				"y": 0.063798689,
				"z": -4.1030594969,
				"element": "O" 
			},
			{
				"x": 1.2153073676,
				"y": -1.7852441146,
				"z": -4.5349615826,
				"element": "O" 
			},
			{
				"x": 1.607664539,
				"y": -0.1612398849,
				"z": -2.7381682983,
				"element": "O" 
			},
			{
				"x": 1.1279330789,
				"y": 0.8084232126,
				"z": -1.7706684467,
				"element": "C" 
			},
			{
				"x": 0.9103152713,
				"y": 0.1325390945,
				"z": -0.4168109665,
				"element": "C" 
			},
			{
				"x": 0.5366583361,
				"y": 1.1473939587,
				"z": 0.7192426099,
				"element": "C" 
			},
			{
				"x": 1.862957397,
				"y": 2.2303472411,
				"z": 1.1910332313,
				"element": "Cl" 
			},
			{
				"x": -0.0021503174,
				"y": 0.1871448135,
				"z": 1.8359696138,
				"element": "C" 
			},
			{
				"x": 1.1957183043,
				"y": -1.0214074363,
				"z": 2.4024503952,
				"element": "Cl" 
			},
			{
				"x": -0.6528009489,
				"y": 1.0303205843,
				"z": 3.2716479679,
				"element": "Cl" 
			},
			{
				"x": 0.2159434726,
				"y": -1.888937009,
				"z": 0.0239118821,
				"element": "H" 
			},
			{
				"x": -1.5574311529,
				"y": -0.3887208938,
				"z": -1.981753499,
				"element": "H" 
			},
			{
				"x": -1.8207557204,
				"y": -2.0067074976,
				"z": -1.3104308385,
				"element": "H" 
			},
			{
				"x": 0.2414573808,
				"y": 1.3107275347,
				"z": -2.1642272538,
				"element": "H" 
			},
			{
				"x": 1.9331686213,
				"y": 1.5410656157,
				"z": -1.6914983403,
				"element": "H" 
			},
			{
				"x": 1.8554945836,
				"y": -0.3408936526,
				"z": -0.143011276,
				"element": "H" 
			}
		],
		 "valence_orbital": [ 
			{
				"type": "occ",
				"energy": -0.33293,
				"method": "rhf"
			},
			{
				"type": "occ",
				"energy": -0.33209,
				"method": "rhf"
			},
			{
				"type": "occ",
				"energy": -0.3301,
				"method": "rhf"
			},
			{
				"type": "occ",
				"energy": -0.31622,
				"method": "rhf"
			},
			{
				"type": "occ",
				"energy": -0.28179,
				"method": "rhf"
			},
			{
				"type": "unocc",
				"energy": -0.06193,
				"method": "rhf"
			},
			{
				"type": "unocc",
				"energy": -0.05958,
				"method": "rhf"
			},
			{
				"type": "unocc",
				"energy": -0.02317,
				"method": "rhf"
			},
			{
				"type": "unocc",
				"energy": -0.01094,
				"method": "rhf"
			},
			{
				"type": "unocc",
				"energy": 0.00479,
				"method": "rhf"
			}
		],
		"cosmo_sigma_profile": { 
			"-0.025": 0.0,
			"-0.024": 0.0,
			"-0.023": 0.0,
			"-0.022": 0.0,
			"-0.021": 0.0,
			"-0.02": 0.0,
			"-0.019": 0.0,
			"-0.018": 0.0,
			"-0.017": 0.0,
			"-0.016": 0.00260974912754,
			"-0.015": 0.0939315337501,
			"-0.014": 0.0679701298177,
			"-0.013": 0.298315848075,
			"-0.012": 0.794213838679,
			"-0.011": 0.262480097282,
			"-0.01": 0.270206184803,
			"-0.009": 1.79259526582,
			"-0.008": 9.12679195074,
			"-0.007": 10.7057381488,
			"-0.006": 11.9673276985,
			"-0.005": 14.8018237216,
			"-0.004": 16.3904975949,
			"-0.003": 18.5070348379,
			"-0.002": 19.2422523683,
			"-0.001": 26.0996631763,
			"0.0": 29.963656755,
			"0.001": 32.0963724583,
			"0.002": 42.7700551627,
			"0.003": 35.7685239538,
			"0.004": 8.28818609294,
			"0.005": 5.37984159951,
			"0.006": 6.20264167341,
			"0.007": 7.13731570182,
			"0.008": 11.7341720801,
			"0.009": 6.44238645216,
			"0.01": 0.00764776780498,
			"0.011": 0.0,
			"0.012": 0.0,
			"0.013": 0.0,
			"0.014": 0.0,
			"0.015": 0.0,
			"0.016": 0.0,
			"0.017": 0.0,
			"0.018": 0.0,
			"0.019": 0.0,
			"0.02": 0.0,
			"0.021": 0.0,
			"0.022": 0.0,
			"0.023": 0.0,
			"0.024": 0.0,
			"0.025": 0.0
		}
	}
}
