{
	 "smiles": "O1C2=C(C=CC(=C2)C2=CC=CC=C2)N=C1C1=CC=C(C=C1)C1=CC=CC=C1", 
	 "Tm": 473.15, 
	 "num_atms": 44, 
	 "gaussian": { 
		 "optdone": 1, 
		 "sigma_profile": "yes", 
		 "theory": "DFT", 
		 "functional": "B3LYP", 
		 "basiset": "6-31G**", 
		 "properties": { 
			 "R2extent": 20084.9538, 
			 "electric_dipole_moment_norm": 1.31914526114, 
			 "electric_quadrupole_moment_norm": 20.8204379721, 
			 "total_energy": -1092.90984193, 
			 "HOMO_LUMO_gap": 0.14604, 
			 "cosmo_polarized_energy": -10.5, 
			 "cosmo_cavitation_energy": 49.0, 
			 "cosmo_dispersion_energy": -35.87, 
			 "cosmo_repulsion_energy": 2.62, 
			 "cosmo_total_nonelectrostatic_energy": 15.74, 
			 "SMD_solvation_energy": 6.08 
		},
		"coords": [
			{
				"x": 0.7762313614,
				"y": 0.428010927,
				"z": 0.0202457762,
				"element": "O" 
			},
			{
				"x": 1.3860727779,
				"y": -0.1834099551,
				"z": -1.0457822967,
				"element": "C" 
			},
			{
				"x": 1.224825896,
				"y": -1.5670609021,
				"z": -0.8836559206,
				"element": "C" 
			},
			{
				"x": 1.7509175861,
				"y": -2.4335975219,
				"z": -1.8463715957,
				"element": "C" 
			},
			{
				"x": 2.4145364811,
				"y": -1.8663504302,
				"z": -2.9303988686,
				"element": "C" 
			},
			{
				"x": 2.5684876997,
				"y": -0.4659004248,
				"z": -3.0857006875,
				"element": "C" 
			},
			{
				"x": 2.0385394864,
				"y": 0.40381714,
				"z": -2.1152997898,
				"element": "C" 
			},
			{
				"x": 3.2869496084,
				"y": 0.0822473417,
				"z": -4.2645204125,
				"element": "C" 
			},
			{
				"x": 3.1413101661,
				"y": -0.5000474955,
				"z": -5.5357238453,
				"element": "C" 
			},
			{
				"x": 3.8147317956,
				"y": 0.0159638786,
				"z": -6.6419576473,
				"element": "C" 
			},
			{
				"x": 4.647720051,
				"y": 1.1278562594,
				"z": -6.5035956512,
				"element": "C" 
			},
			{
				"x": 4.8016487526,
				"y": 1.7179840014,
				"z": -5.2476631664,
				"element": "C" 
			},
			{
				"x": 4.1302595329,
				"y": 1.2001540854,
				"z": -4.1410776367,
				"element": "C" 
			},
			{
				"x": 0.5174959623,
				"y": -1.8034069065,
				"z": 0.2891092476,
				"element": "N" 
			},
			{
				"x": 0.2809246791,
				"y": -0.6188727817,
				"z": 0.7747656597,
				"element": "C" 
			},
			{
				"x": -0.4323042697,
				"y": -0.2839751128,
				"z": 2.0000569341,
				"element": "C" 
			},
			{
				"x": -0.6186756988,
				"y": 1.0485759812,
				"z": 2.4004541757,
				"element": "C" 
			},
			{
				"x": -1.3046183411,
				"y": 1.3372767074,
				"z": 3.5748448995,
				"element": "C" 
			},
			{
				"x": -1.8243023657,
				"y": 0.3137324975,
				"z": 4.3869211846,
				"element": "C" 
			},
			{
				"x": -1.6294938421,
				"y": -1.0180662038,
				"z": 3.9738905681,
				"element": "C" 
			},
			{
				"x": -0.9470821258,
				"y": -1.3163066838,
				"z": 2.8023298495,
				"element": "C" 
			},
			{
				"x": -2.5553785411,
				"y": 0.627099281,
				"z": 5.6392083621,
				"element": "C" 
			},
			{
				"x": -2.1569532559,
				"y": 1.6966242075,
				"z": 6.4600334962,
				"element": "C" 
			},
			{
				"x": -2.844160549,
				"y": 1.990882011,
				"z": 7.6365402471,
				"element": "C" 
			},
			{
				"x": -3.9455126921,
				"y": 1.2224926527,
				"z": 8.0187975466,
				"element": "C" 
			},
			{
				"x": -4.3531791148,
				"y": 0.156987308,
				"z": 7.2137998667,
				"element": "C" 
			},
			{
				"x": -3.6657983627,
				"y": -0.1375760804,
				"z": 6.0374657287,
				"element": "C" 
			},
			{
				"x": 1.6506276136,
				"y": -3.5086433062,
				"z": -1.7419357391,
				"element": "H" 
			},
			{
				"x": 2.8564113319,
				"y": -2.519155144,
				"z": -3.6763399111,
				"element": "H" 
			},
			{
				"x": 2.1126863734,
				"y": 1.4805509914,
				"z": -2.2158518153,
				"element": "H" 
			},
			{
				"x": 2.4738918717,
				"y": -1.3475029606,
				"z": -5.6609072873,
				"element": "H" 
			},
			{
				"x": 3.6804738157,
				"y": -0.446115719,
				"z": -7.6160054325,
				"element": "H" 
			},
			{
				"x": 5.1718031737,
				"y": 1.5301479396,
				"z": -7.3656458927,
				"element": "H" 
			},
			{
				"x": 5.4542829346,
				"y": 2.5779967078,
				"z": -5.1261465242,
				"element": "H" 
			},
			{
				"x": 4.2804135307,
				"y": 1.6493795658,
				"z": -3.1636720525,
				"element": "H" 
			},
			{
				"x": -0.2332806808,
				"y": 1.8527509411,
				"z": 1.7832835898,
				"element": "H" 
			},
			{
				"x": -1.4640590214,
				"y": 2.3738677358,
				"z": 3.8551900534,
				"element": "H" 
			},
			{
				"x": -1.9967560783,
				"y": -1.8284996941,
				"z": 4.5958949341,
				"element": "H" 
			},
			{
				"x": -0.7931461681,
				"y": -2.3449440967,
				"z": 2.4945620129,
				"element": "H" 
			},
			{
				"x": -1.2851691771,
				"y": 2.2836975147,
				"z": 6.186700961,
				"element": "H" 
			},
			{
				"x": -2.5131822037,
				"y": 2.816508285,
				"z": 8.2601882597,
				"element": "H" 
			},
			{
				"x": -4.4809571765,
				"y": 1.4517632156,
				"z": 8.9354895474,
				"element": "H" 
			},
			{
				"x": -5.2139994897,
				"y": -0.4418357167,
				"z": 7.4975587934,
				"element": "H" 
			},
			{
				"x": -4.0081333273,
				"y": -0.9516000406,
				"z": 5.405420479,
				"element": "H" 
			}
		],
		 "valence_orbital": [ 
			{
				"type": "occ",
				"energy": -0.25453,
				"method": "rhf"
			},
			{
				"type": "occ",
				"energy": -0.25123,
				"method": "rhf"
			},
			{
				"type": "occ",
				"energy": -0.24616,
				"method": "rhf"
			},
			{
				"type": "occ",
				"energy": -0.23567,
				"method": "rhf"
			},
			{
				"type": "occ",
				"energy": -0.20781,
				"method": "rhf"
			},
			{
				"type": "unocc",
				"energy": -0.06177,
				"method": "rhf"
			},
			{
				"type": "unocc",
				"energy": -0.02277,
				"method": "rhf"
			},
			{
				"type": "unocc",
				"energy": -0.01031,
				"method": "rhf"
			},
			{
				"type": "unocc",
				"energy": -0.00519,
				"method": "rhf"
			},
			{
				"type": "unocc",
				"energy": -0.00422,
				"method": "rhf"
			}
		],
		"cosmo_sigma_profile": { 
			"-0.025": 0.0,
			"-0.024": 0.0,
			"-0.023": 0.0,
			"-0.022": 0.0,
			"-0.021": 0.0,
			"-0.02": 0.0,
			"-0.019": 0.0,
			"-0.018": 0.0,
			"-0.017": 0.0,
			"-0.016": 0.0,
			"-0.015": 0.0,
			"-0.014": 0.0,
			"-0.013": 0.0,
			"-0.012": 0.0,
			"-0.011": 0.0,
			"-0.01": 0.0,
			"-0.009": 0.0,
			"-0.008": 0.226714640339,
			"-0.007": 3.27313312712,
			"-0.006": 23.2036849875,
			"-0.005": 34.5690345581,
			"-0.004": 34.4493683107,
			"-0.003": 29.7489024202,
			"-0.002": 25.6077903066,
			"-0.001": 26.8646130458,
			"0.0": 26.8226052428,
			"0.001": 32.8921171569,
			"0.002": 36.9041901041,
			"0.003": 43.9257559186,
			"0.004": 34.1112260301,
			"0.005": 24.580925089,
			"0.006": 10.320364146,
			"0.007": 1.02217344854,
			"0.008": 1.18487374908,
			"0.009": 1.28163984888,
			"0.01": 1.23599144784,
			"0.011": 0.732790362494,
			"0.012": 1.25912404324,
			"0.013": 0.804987660966,
			"0.014": 0.394997184147,
			"0.015": 0.0,
			"0.016": 0.0,
			"0.017": 0.0,
			"0.018": 0.0,
			"0.019": 0.0,
			"0.02": 0.0,
			"0.021": 0.0,
			"0.022": 0.0,
			"0.023": 0.0,
			"0.024": 0.0,
			"0.025": 0.0
		}
	}
}
