{
	 "smiles": "CC(=O)C1=CC=C(C=C1)C#C", 
	 "Tm": 342.15, 
	 "num_atms": 19, 
	 "gaussian": { 
		 "optdone": 1, 
		 "sigma_profile": "yes", 
		 "theory": "DFT", 
		 "functional": "B3LYP", 
		 "basiset": "6-31G**", 
		 "properties": { 
			 "R2extent": 2439.999, 
			 "electric_dipole_moment_norm": 2.74130523839, 
			 "electric_quadrupole_moment_norm": 7.91726358662, 
			 "total_energy": -461.043550566, 
			 "HOMO_LUMO_gap": 0.17323, 
			 "cosmo_polarized_energy": -9.07, 
			 "cosmo_cavitation_energy": 24.57, 
			 "cosmo_dispersion_energy": -17.19, 
			 "cosmo_repulsion_energy": 1.36, 
			 "cosmo_total_nonelectrostatic_energy": 8.73, 
			 "SMD_solvation_energy": 6.29 
		},
		"coords": [
			{
				"x": -0.9537219143,
				"y": 0.0382389033,
				"z": 2.7918699555,
				"element": "C" 
			},
			{
				"x": 0.3093398981,
				"y": 0.0159121077,
				"z": 1.9476850166,
				"element": "C" 
			},
			{
				"x": 1.352150967,
				"y": 0.4875770165,
				"z": 2.3757099871,
				"element": "O" 
			},
			{
				"x": 0.255681024,
				"y": -0.5950438428,
				"z": 0.579162995,
				"element": "C" 
			},
			{
				"x": -0.9133340562,
				"y": -1.1509122955,
				"z": 0.0369631338,
				"element": "C" 
			},
			{
				"x": -0.9100853563,
				"y": -1.7056377146,
				"z": -1.2384718694,
				"element": "C" 
			},
			{
				"x": 0.270187459,
				"y": -1.7171634477,
				"z": -2.0057151882,
				"element": "C" 
			},
			{
				"x": 1.4448908896,
				"y": -1.158566371,
				"z": -1.4607706172,
				"element": "C" 
			},
			{
				"x": 1.4321909376,
				"y": -0.6074958051,
				"z": -0.1878309829,
				"element": "C" 
			},
			{
				"x": 0.2768366383,
				"y": -2.2860781931,
				"z": -3.3155745861,
				"element": "C" 
			},
			{
				"x": 0.283444865,
				"y": -2.7679459133,
				"z": -4.425733361,
				"element": "C" 
			},
			{
				"x": -1.7535963666,
				"y": 0.5930589436,
				"z": 2.2890358054,
				"element": "H" 
			},
			{
				"x": -0.7267558892,
				"y": 0.5156114199,
				"z": 3.7453763459,
				"element": "H" 
			},
			{
				"x": -1.3243092374,
				"y": -0.9768431306,
				"z": 2.97279568,
				"element": "H" 
			},
			{
				"x": -1.8355884177,
				"y": -1.1540275012,
				"z": 0.6086937234,
				"element": "H" 
			},
			{
				"x": -1.8163022056,
				"y": -2.134205298,
				"z": -1.6534153666,
				"element": "H" 
			},
			{
				"x": 2.3564466816,
				"y": -1.1657451162,
				"z": -2.0492866831,
				"element": "H" 
			},
			{
				"x": 2.3279700073,
				"y": -0.1743366608,
				"z": 0.2442466473,
				"element": "H" 
			},
			{
				"x": 0.2895540757,
				"y": -3.1916971014,
				"z": -5.4032406355,
				"element": "H" 
			}
		],
		 "valence_orbital": [ 
			{
				"type": "occ",
				"energy": -0.31223,
				"method": "rhf"
			},
			{
				"type": "occ",
				"energy": -0.28203,
				"method": "rhf"
			},
			{
				"type": "occ",
				"energy": -0.26766,
				"method": "rhf"
			},
			{
				"type": "occ",
				"energy": -0.25106,
				"method": "rhf"
			},
			{
				"type": "occ",
				"energy": -0.24247,
				"method": "rhf"
			},
			{
				"type": "unocc",
				"energy": -0.06924,
				"method": "rhf"
			},
			{
				"type": "unocc",
				"energy": -0.01534,
				"method": "rhf"
			},
			{
				"type": "unocc",
				"energy": 0.01192,
				"method": "rhf"
			},
			{
				"type": "unocc",
				"energy": 0.04537,
				"method": "rhf"
			},
			{
				"type": "unocc",
				"energy": 0.08773,
				"method": "rhf"
			}
		],
		"cosmo_sigma_profile": { 
			"-0.025": 0.0,
			"-0.024": 0.0,
			"-0.023": 0.0,
			"-0.022": 0.0,
			"-0.021": 0.0,
			"-0.02": 0.0,
			"-0.019": 0.0,
			"-0.018": 0.0,
			"-0.017": 0.0,
			"-0.016": 0.0,
			"-0.015": 0.0,
			"-0.014": 0.0,
			"-0.013": 0.0952205690398,
			"-0.012": 0.957502943891,
			"-0.011": 1.37652553423,
			"-0.01": 1.28320673502,
			"-0.009": 0.629544703379,
			"-0.008": 1.71678524417,
			"-0.007": 5.62330927882,
			"-0.006": 16.1220029329,
			"-0.005": 14.1101762158,
			"-0.004": 11.872524149,
			"-0.003": 12.2369271569,
			"-0.002": 12.4546219183,
			"-0.001": 14.7704862852,
			"0.0": 11.7816231488,
			"0.001": 14.9497152678,
			"0.002": 21.0131342343,
			"0.003": 17.2224208138,
			"0.004": 7.89346070539,
			"0.005": 8.91690642388,
			"0.006": 8.02220205611,
			"0.007": 1.40318070195,
			"0.008": 1.48148115921,
			"0.009": 1.56588454244,
			"0.01": 2.55473402547,
			"0.011": 3.01221813278,
			"0.012": 3.7036873846,
			"0.013": 1.29471951563,
			"0.014": 0.0701447420882,
			"0.015": 0.0,
			"0.016": 0.0,
			"0.017": 0.0,
			"0.018": 0.0,
			"0.019": 0.0,
			"0.02": 0.0,
			"0.021": 0.0,
			"0.022": 0.0,
			"0.023": 0.0,
			"0.024": 0.0,
			"0.025": 0.0
		}
	}
}
