{
	 "smiles": "CC1=CC(C)=C(C(C)=C1)S(=O)(=O)N1C=CN=C1", 
	 "Tm": 370.15, 
	 "num_atms": 31, 
	 "gaussian": { 
		 "optdone": 1, 
		 "sigma_profile": "yes", 
		 "theory": "DFT", 
		 "functional": "B3LYP", 
		 "basiset": "6-31G**", 
		 "properties": { 
			 "R2extent": 5590.1561, 
			 "electric_dipole_moment_norm": 6.10264940661, 
			 "electric_quadrupole_moment_norm": 13.1769932151, 
			 "total_energy": -1123.77389903, 
			 "HOMO_LUMO_gap": 0.18919, 
			 "cosmo_polarized_energy": -13.43, 
			 "cosmo_cavitation_energy": 34.7, 
			 "cosmo_dispersion_energy": -24.89, 
			 "cosmo_repulsion_energy": 1.84, 
			 "cosmo_total_nonelectrostatic_energy": 11.66, 
			 "SMD_solvation_energy": 4.48 
		},
		"coords": [
			{
				"x": 2.5740411193,
				"y": -0.3548999631,
				"z": 4.0596659392,
				"element": "C" 
			},
			{
				"x": 2.3771020573,
				"y": -0.3647369013,
				"z": 2.5641269304,
				"element": "C" 
			},
			{
				"x": 2.3372626222,
				"y": -1.5676051227,
				"z": 1.8554744106,
				"element": "C" 
			},
			{
				"x": 2.1845159231,
				"y": -1.6169120062,
				"z": 0.4685324913,
				"element": "C" 
			},
			{
				"x": 2.1621989686,
				"y": -2.9819104758,
				"z": -0.1829332856,
				"element": "C" 
			},
			{
				"x": 2.0559131317,
				"y": -0.3854603234,
				"z": -0.2263277266,
				"element": "C" 
			},
			{
				"x": 2.0918401229,
				"y": 0.8581061836,
				"z": 0.4523591406,
				"element": "C" 
			},
			{
				"x": 1.9831823292,
				"y": 2.2307167698,
				"z": -0.1801882759,
				"element": "C" 
			},
			{
				"x": 2.2518028004,
				"y": 0.8220087982,
				"z": 1.8445017282,
				"element": "C" 
			},
			{
				"x": 1.8784259098,
				"y": -0.4366543105,
				"z": -2.0206966792,
				"element": "S" 
			},
			{
				"x": 2.782262103,
				"y": -1.4252786112,
				"z": -2.6036776345,
				"element": "O" 
			},
			{
				"x": 1.8108247962,
				"y": 0.9158108329,
				"z": -2.5620752977,
				"element": "O" 
			},
			{
				"x": 0.2970528585,
				"y": -1.120516411,
				"z": -2.2369525404,
				"element": "N" 
			},
			{
				"x": -0.9145665093,
				"y": -0.5437059729,
				"z": -1.8667573618,
				"element": "C" 
			},
			{
				"x": -1.8718877094,
				"y": -1.3935888349,
				"z": -2.3447708968,
				"element": "C" 
			},
			{
				"x": -1.2998801052,
				"y": -2.4645685521,
				"z": -3.0083758262,
				"element": "N" 
			},
			{
				"x": -0.0072213364,
				"y": -2.2765744316,
				"z": -2.9370096948,
				"element": "C" 
			},
			{
				"x": 2.2681720664,
				"y": 0.5984510602,
				"z": 4.4984950025,
				"element": "H" 
			},
			{
				"x": 3.6292420877,
				"y": -0.5126698728,
				"z": 4.3139852751,
				"element": "H" 
			},
			{
				"x": 2.002695462,
				"y": -1.1539496051,
				"z": 4.5420367265,
				"element": "H" 
			},
			{
				"x": 2.4299247963,
				"y": -2.5059563119,
				"z": 2.3960009161,
				"element": "H" 
			},
			{
				"x": 2.9733197398,
				"y": -3.0961357556,
				"z": -0.9044344923,
				"element": "H" 
			},
			{
				"x": 2.2605514233,
				"y": -3.7545292292,
				"z": 0.5824412439,
				"element": "H" 
			},
			{
				"x": 1.2262505393,
				"y": -3.1638870263,
				"z": -0.7190547116,
				"element": "H" 
			},
			{
				"x": 2.7910333965,
				"y": 2.4177194119,
				"z": -0.8905407851,
				"element": "H" 
			},
			{
				"x": 2.0263177575,
				"y": 2.9902958882,
				"z": 0.6037992565,
				"element": "H" 
			},
			{
				"x": 1.0532557772,
				"y": 2.3620518043,
				"z": -0.7375693108,
				"element": "H" 
			},
			{
				"x": 2.2796957197,
				"y": 1.7676316789,
				"z": 2.3789888295,
				"element": "H" 
			},
			{
				"x": -0.9630997324,
				"y": 0.3822553833,
				"z": -1.3165680487,
				"element": "H" 
			},
			{
				"x": -2.9450070304,
				"y": -1.2992169792,
				"z": -2.2526403573,
				"element": "H" 
			},
			{
				"x": 0.7685789152,
				"y": -2.8994911146,
				"z": -3.3561349649,
				"element": "H" 
			}
		],
		 "valence_orbital": [ 
			{
				"type": "occ",
				"energy": -0.29524,
				"method": "rhf"
			},
			{
				"type": "occ",
				"energy": -0.27447,
				"method": "rhf"
			},
			{
				"type": "occ",
				"energy": -0.26605,
				"method": "rhf"
			},
			{
				"type": "occ",
				"energy": -0.26201,
				"method": "rhf"
			},
			{
				"type": "occ",
				"energy": -0.241,
				"method": "rhf"
			},
			{
				"type": "unocc",
				"energy": -0.05181,
				"method": "rhf"
			},
			{
				"type": "unocc",
				"energy": -0.02221,
				"method": "rhf"
			},
			{
				"type": "unocc",
				"energy": 0.00172,
				"method": "rhf"
			},
			{
				"type": "unocc",
				"energy": 0.03833,
				"method": "rhf"
			},
			{
				"type": "unocc",
				"energy": 0.05813,
				"method": "rhf"
			}
		],
		"cosmo_sigma_profile": { 
			"-0.025": 0.0,
			"-0.024": 0.0,
			"-0.023": 0.0,
			"-0.022": 0.0,
			"-0.021": 0.0,
			"-0.02": 0.0,
			"-0.019": 0.0,
			"-0.018": 0.0,
			"-0.017": 0.0,
			"-0.016": 0.0,
			"-0.015": 0.0,
			"-0.014": 0.0,
			"-0.013": 0.0,
			"-0.012": 0.0,
			"-0.011": 0.0,
			"-0.01": 0.18464883307,
			"-0.009": 2.72677054212,
			"-0.008": 4.03420525098,
			"-0.007": 6.17187307438,
			"-0.006": 10.8620477818,
			"-0.005": 18.6647952752,
			"-0.004": 23.9420187336,
			"-0.003": 25.4309350774,
			"-0.002": 25.0137784709,
			"-0.001": 31.0782356985,
			"0.0": 26.4818319015,
			"0.001": 17.5537265675,
			"0.002": 14.4798033804,
			"0.003": 18.0355778241,
			"0.004": 9.76391637254,
			"0.005": 5.48621788364,
			"0.006": 4.01810741135,
			"0.007": 5.16216816415,
			"0.008": 5.86856563865,
			"0.009": 7.11392747364,
			"0.01": 6.91565004125,
			"0.011": 2.07133591599,
			"0.012": 0.440924262168,
			"0.013": 1.35785252789,
			"0.014": 1.05838805968,
			"0.015": 1.19970048146,
			"0.016": 0.982842591593,
			"0.017": 0.461780299565,
			"0.018": 0.0,
			"0.019": 0.0,
			"0.02": 0.0,
			"0.021": 0.0,
			"0.022": 0.0,
			"0.023": 0.0,
			"0.024": 0.0,
			"0.025": 0.0
		}
	}
}
