{
	 "smiles": "O=C(C(=O)C1=CC=C2C=CC=CC2=C1)C1=CC=CC=C1", 
	 "Tm": 360.15, 
	 "num_atms": 32, 
	 "gaussian": { 
		 "optdone": 1, 
		 "sigma_profile": "yes", 
		 "theory": "DFT", 
		 "functional": "B3LYP", 
		 "basiset": "6-31G**", 
		 "properties": { 
			 "R2extent": 7836.7271, 
			 "electric_dipole_moment_norm": 2.79145562924, 
			 "electric_quadrupole_moment_norm": 23.359541643, 
			 "total_energy": -843.598520811, 
			 "HOMO_LUMO_gap": 0.13874, 
			 "cosmo_polarized_energy": -10.81, 
			 "cosmo_cavitation_energy": 37.07, 
			 "cosmo_dispersion_energy": -26.83, 
			 "cosmo_repulsion_energy": 2.0, 
			 "cosmo_total_nonelectrostatic_energy": 12.24, 
			 "SMD_solvation_energy": 6.83 
		},
		"coords": [
			{
				"x": 0.2572616033,
				"y": -1.5027908559,
				"z": 2.1752016184,
				"element": "O" 
			},
			{
				"x": 1.1243766624,
				"y": -1.2240875129,
				"z": 1.3566578854,
				"element": "C" 
			},
			{
				"x": 0.812926302,
				"y": -1.477250223,
				"z": -0.1313451609,
				"element": "C" 
			},
			{
				"x": 1.6155908107,
				"y": -2.1403922957,
				"z": -0.777063581,
				"element": "O" 
			},
			{
				"x": -0.4675377216,
				"y": -0.9842712183,
				"z": -0.707442938,
				"element": "C" 
			},
			{
				"x": -1.3966926237,
				"y": -0.1865748316,
				"z": 0.022027981,
				"element": "C" 
			},
			{
				"x": -2.5415870913,
				"y": 0.2702232547,
				"z": -0.5850514431,
				"element": "C" 
			},
			{
				"x": -2.831016651,
				"y": -0.0379930847,
				"z": -1.9424558637,
				"element": "C" 
			},
			{
				"x": -4.0068232725,
				"y": 0.4189523435,
				"z": -2.5941828917,
				"element": "C" 
			},
			{
				"x": -4.2503299006,
				"y": 0.0981468058,
				"z": -3.9112704063,
				"element": "C" 
			},
			{
				"x": -3.3300752027,
				"y": -0.6953780699,
				"z": -4.6419724005,
				"element": "C" 
			},
			{
				"x": -2.1811593341,
				"y": -1.1539655736,
				"z": -4.0403163041,
				"element": "C" 
			},
			{
				"x": -1.8993279431,
				"y": -0.8411436251,
				"z": -2.680993115,
				"element": "C" 
			},
			{
				"x": -0.7274950983,
				"y": -1.2949904852,
				"z": -2.0339340714,
				"element": "C" 
			},
			{
				"x": 2.4695522477,
				"y": -0.7280508073,
				"z": 1.7563975423,
				"element": "C" 
			},
			{
				"x": 2.7175448713,
				"y": -0.5704479168,
				"z": 3.1312956137,
				"element": "C" 
			},
			{
				"x": 3.9401055142,
				"y": -0.0779305801,
				"z": 3.5733830637,
				"element": "C" 
			},
			{
				"x": 4.9290715954,
				"y": 0.2671816574,
				"z": 2.6459884317,
				"element": "C" 
			},
			{
				"x": 4.6905594089,
				"y": 0.1159137893,
				"z": 1.2785439659,
				"element": "C" 
			},
			{
				"x": 3.4672086877,
				"y": -0.3803564467,
				"z": 0.8302726171,
				"element": "C" 
			},
			{
				"x": -1.2059309003,
				"y": 0.04406612,
				"z": 1.0625406506,
				"element": "H" 
			},
			{
				"x": -3.2493417242,
				"y": 0.8756760214,
				"z": -0.0250717501,
				"element": "H" 
			},
			{
				"x": -4.7136071092,
				"y": 1.0267400524,
				"z": -2.0354567111,
				"element": "H" 
			},
			{
				"x": -5.1539111121,
				"y": 0.4536672212,
				"z": -4.398100211,
				"element": "H" 
			},
			{
				"x": -3.5379205892,
				"y": -0.9394385354,
				"z": -5.6795024559,
				"element": "H" 
			},
			{
				"x": -1.4715045004,
				"y": -1.7631345038,
				"z": -4.5937120343,
				"element": "H" 
			},
			{
				"x": -0.0065201475,
				"y": -1.8997879629,
				"z": -2.5760149007,
				"element": "H" 
			},
			{
				"x": 1.9329575517,
				"y": -0.8417726677,
				"z": 3.8297911069,
				"element": "H" 
			},
			{
				"x": 4.125974807,
				"y": 0.0398214512,
				"z": 4.636897205,
				"element": "H" 
			},
			{
				"x": 5.8844147243,
				"y": 0.6533307008,
				"z": 2.9902258508,
				"element": "H" 
			},
			{
				"x": 5.4599876996,
				"y": 0.38083126,
				"z": 0.5595516335,
				"element": "H" 
			},
			{
				"x": 3.2936484353,
				"y": -0.5139934811,
				"z": -0.2303889273,
				"element": "H" 
			}
		],
		 "valence_orbital": [ 
			{
				"type": "occ",
				"energy": -0.2641,
				"method": "rhf"
			},
			{
				"type": "occ",
				"energy": -0.26107,
				"method": "rhf"
			},
			{
				"type": "occ",
				"energy": -0.25414,
				"method": "rhf"
			},
			{
				"type": "occ",
				"energy": -0.23538,
				"method": "rhf"
			},
			{
				"type": "occ",
				"energy": -0.22534,
				"method": "rhf"
			},
			{
				"type": "unocc",
				"energy": -0.0866,
				"method": "rhf"
			},
			{
				"type": "unocc",
				"energy": -0.05695,
				"method": "rhf"
			},
			{
				"type": "unocc",
				"energy": -0.03472,
				"method": "rhf"
			},
			{
				"type": "unocc",
				"energy": -0.01042,
				"method": "rhf"
			},
			{
				"type": "unocc",
				"energy": 0.00569,
				"method": "rhf"
			}
		],
		"cosmo_sigma_profile": { 
			"-0.025": 0.0,
			"-0.024": 0.0,
			"-0.023": 0.0,
			"-0.022": 0.0,
			"-0.021": 0.0,
			"-0.02": 0.0,
			"-0.019": 0.0,
			"-0.018": 0.0,
			"-0.017": 0.0,
			"-0.016": 0.0,
			"-0.015": 0.0,
			"-0.014": 0.0,
			"-0.013": 0.0,
			"-0.012": 0.0,
			"-0.011": 0.0,
			"-0.01": 0.0,
			"-0.009": 0.0,
			"-0.008": 0.0,
			"-0.007": 7.15083096804,
			"-0.006": 24.434082848,
			"-0.005": 27.8723577869,
			"-0.004": 22.9699760744,
			"-0.003": 16.9359511605,
			"-0.002": 18.2489938193,
			"-0.001": 16.4434616032,
			"0.0": 20.8275602773,
			"0.001": 23.3156927345,
			"0.002": 31.2759736302,
			"0.003": 36.9046515567,
			"0.004": 23.3651666324,
			"0.005": 4.72338588474,
			"0.006": 3.48657122346,
			"0.007": 2.87734707063,
			"0.008": 3.48614653159,
			"0.009": 4.08825937365,
			"0.01": 5.93989335982,
			"0.011": 4.73215160471,
			"0.012": 0.0664797849659,
			"0.013": 0.0,
			"0.014": 0.0,
			"0.015": 0.0,
			"0.016": 0.0,
			"0.017": 0.0,
			"0.018": 0.0,
			"0.019": 0.0,
			"0.02": 0.0,
			"0.021": 0.0,
			"0.022": 0.0,
			"0.023": 0.0,
			"0.024": 0.0,
			"0.025": 0.0
		}
	}
}
