{
	 "smiles": "COC1=C(OC2=C1C=C1C=CC(=O)OC1=C2)C(C)C", 
	 "Tm": 358.15, 
	 "num_atms": 33, 
	 "gaussian": { 
		 "optdone": 1, 
		 "sigma_profile": "yes", 
		 "theory": "DFT", 
		 "functional": "B3LYP", 
		 "basiset": "6-31G**", 
		 "properties": { 
			 "R2extent": 7067.9151, 
			 "electric_dipole_moment_norm": 6.1005891068, 
			 "electric_quadrupole_moment_norm": 30.8424669625, 
			 "total_energy": -880.914530661, 
			 "HOMO_LUMO_gap": 0.15031, 
			 "cosmo_polarized_energy": -13.06, 
			 "cosmo_cavitation_energy": 37.0, 
			 "cosmo_dispersion_energy": -26.31, 
			 "cosmo_repulsion_energy": 2.0, 
			 "cosmo_total_nonelectrostatic_energy": 12.69, 
			 "SMD_solvation_energy": 8.31 
		},
		"coords": [
			{
				"x": 0.7775121955,
				"y": 2.6192494316,
				"z": 0.0307605075,
				"element": "C" 
			},
			{
				"x": 1.3009849101,
				"y": 1.3564142366,
				"z": -0.3913103986,
				"element": "O" 
			},
			{
				"x": 0.74771244,
				"y": 0.2733840357,
				"z": 0.2349772394,
				"element": "C" 
			},
			{
				"x": 1.3730559392,
				"y": -0.5561824048,
				"z": 1.1198198687,
				"element": "C" 
			},
			{
				"x": 0.5184171,
				"y": -1.5931839484,
				"z": 1.4859704327,
				"element": "O" 
			},
			{
				"x": -0.6588323185,
				"y": -1.3997965096,
				"z": 0.8313045887,
				"element": "C" 
			},
			{
				"x": -0.5889738057,
				"y": -0.2454867509,
				"z": 0.0216986646,
				"element": "C" 
			},
			{
				"x": -1.689628581,
				"y": 0.1014250184,
				"z": -0.7578550705,
				"element": "C" 
			},
			{
				"x": -2.8450351438,
				"y": -0.6957213813,
				"z": -0.6973863624,
				"element": "C" 
			},
			{
				"x": -4.0350769451,
				"y": -0.4215410802,
				"z": -1.462950205,
				"element": "C" 
			},
			{
				"x": -5.1252999697,
				"y": -1.2160827768,
				"z": -1.3720688778,
				"element": "C" 
			},
			{
				"x": -5.1497801826,
				"y": -2.3845008922,
				"z": -0.4987677199,
				"element": "C" 
			},
			{
				"x": -6.0754040672,
				"y": -3.1471893972,
				"z": -0.3508093318,
				"element": "O" 
			},
			{
				"x": -3.9826190163,
				"y": -2.6290472019,
				"z": 0.227821054,
				"element": "O" 
			},
			{
				"x": -2.8716565271,
				"y": -1.8380233952,
				"z": 0.1466823544,
				"element": "C" 
			},
			{
				"x": -1.776977583,
				"y": -2.2136534813,
				"z": 0.9244701356,
				"element": "C" 
			},
			{
				"x": 2.7483442835,
				"y": -0.6485413234,
				"z": 1.7082551784,
				"element": "C" 
			},
			{
				"x": 3.4947717764,
				"y": 0.6936429864,
				"z": 1.6973377291,
				"element": "C" 
			},
			{
				"x": 3.5666583125,
				"y": -1.755002873,
				"z": 1.006564146,
				"element": "C" 
			},
			{
				"x": 1.2621857588,
				"y": 3.3768059382,
				"z": -0.5878371876,
				"element": "H" 
			},
			{
				"x": -0.3082123088,
				"y": 2.6753892614,
				"z": -0.1106561855,
				"element": "H" 
			},
			{
				"x": 1.0068041687,
				"y": 2.8070559294,
				"z": 1.0868751976,
				"element": "H" 
			},
			{
				"x": -1.6676689927,
				"y": 0.964038634,
				"z": -1.4169142247,
				"element": "H" 
			},
			{
				"x": -4.0385370095,
				"y": 0.4445494342,
				"z": -2.1206107247,
				"element": "H" 
			},
			{
				"x": -6.032176757,
				"y": -1.0328924456,
				"z": -1.9354733551,
				"element": "H" 
			},
			{
				"x": -1.8141980363,
				"y": -3.0954108877,
				"z": 1.5522937143,
				"element": "H" 
			},
			{
				"x": 2.6086019017,
				"y": -0.9565905262,
				"z": 2.7540150379,
				"element": "H" 
			},
			{
				"x": 3.6504484092,
				"y": 1.0527915421,
				"z": 0.6772649761,
				"element": "H" 
			},
			{
				"x": 2.9433750408,
				"y": 1.4626535436,
				"z": 2.2473935681,
				"element": "H" 
			},
			{
				"x": 4.4727760205,
				"y": 0.5753750057,
				"z": 2.1739935374,
				"element": "H" 
			},
			{
				"x": 3.0357719512,
				"y": -2.7107779288,
				"z": 1.0271255636,
				"element": "H" 
			},
			{
				"x": 3.7555471957,
				"y": -1.4904563977,
				"z": -0.0390245414,
				"element": "H" 
			},
			{
				"x": 4.5320098406,
				"y": -1.8883933951,
				"z": 1.5059406908,
				"element": "H" 
			}
		],
		 "valence_orbital": [ 
			{
				"type": "occ",
				"energy": -0.29033,
				"method": "rhf"
			},
			{
				"type": "occ",
				"energy": -0.27406,
				"method": "rhf"
			},
			{
				"type": "occ",
				"energy": -0.26997,
				"method": "rhf"
			},
			{
				"type": "occ",
				"energy": -0.23556,
				"method": "rhf"
			},
			{
				"type": "occ",
				"energy": -0.21493,
				"method": "rhf"
			},
			{
				"type": "unocc",
				"energy": -0.06462,
				"method": "rhf"
			},
			{
				"type": "unocc",
				"energy": -0.02447,
				"method": "rhf"
			},
			{
				"type": "unocc",
				"energy": 0.00924,
				"method": "rhf"
			},
			{
				"type": "unocc",
				"energy": 0.04587,
				"method": "rhf"
			},
			{
				"type": "unocc",
				"energy": 0.0668,
				"method": "rhf"
			}
		],
		"cosmo_sigma_profile": { 
			"-0.025": 0.0,
			"-0.024": 0.0,
			"-0.023": 0.0,
			"-0.022": 0.0,
			"-0.021": 0.0,
			"-0.02": 0.0,
			"-0.019": 0.0,
			"-0.018": 0.0,
			"-0.017": 0.0,
			"-0.016": 0.0,
			"-0.015": 0.0,
			"-0.014": 0.0,
			"-0.013": 0.0,
			"-0.012": 0.0,
			"-0.011": 0.0,
			"-0.01": 0.0,
			"-0.009": 0.848871390876,
			"-0.008": 6.4993451225,
			"-0.007": 8.31168070205,
			"-0.006": 8.68176730884,
			"-0.005": 11.4257697157,
			"-0.004": 18.893309763,
			"-0.003": 31.5229391386,
			"-0.002": 30.9394691991,
			"-0.001": 27.3419177504,
			"0.0": 34.7801148767,
			"0.001": 41.1202771671,
			"0.002": 20.4747349783,
			"0.003": 8.62359613692,
			"0.004": 5.23661645844,
			"0.005": 5.81137716009,
			"0.006": 4.2541414201,
			"0.007": 4.24749668963,
			"0.008": 3.86473953474,
			"0.009": 3.0232351888,
			"0.01": 3.76691907962,
			"0.011": 4.76160291992,
			"0.012": 6.57888835737,
			"0.013": 3.16697959249,
			"0.014": 0.200092021617,
			"0.015": 0.0,
			"0.016": 0.0,
			"0.017": 0.0,
			"0.018": 0.0,
			"0.019": 0.0,
			"0.02": 0.0,
			"0.021": 0.0,
			"0.022": 0.0,
			"0.023": 0.0,
			"0.024": 0.0,
			"0.025": 0.0
		}
	}
}
