{
	 "smiles": "CC1=C(Cl)C(Cl)=C(Cl)C(Cl)=C1Cl", 
	 "Tm": 498.15, 
	 "num_atms": 15, 
	 "gaussian": { 
		 "optdone": 1, 
		 "sigma_profile": "yes", 
		 "theory": "DFT", 
		 "functional": "B3LYP", 
		 "basiset": "6-31G**", 
		 "properties": { 
			 "R2extent": 4810.9427, 
			 "electric_dipole_moment_norm": 1.75848188504, 
			 "electric_quadrupole_moment_norm": 3.64321431431, 
			 "total_energy": -2569.49865735, 
			 "HOMO_LUMO_gap": 0.20994, 
			 "cosmo_polarized_energy": -3.09, 
			 "cosmo_cavitation_energy": 27.21, 
			 "cosmo_dispersion_energy": -20.99, 
			 "cosmo_repulsion_energy": 1.65, 
			 "cosmo_total_nonelectrostatic_energy": 7.87, 
			 "SMD_solvation_energy": 3.54 
		},
		"coords": [
			{
				"x": 0.8104540937,
				"y": -1.6988902992,
				"z": 1.794016089,
				"element": "C" 
			},
			{
				"x": -0.1643958108,
				"y": -1.2487728409,
				"z": 0.7348448745,
				"element": "C" 
			},
			{
				"x": -0.1507631412,
				"y": 0.0657696339,
				"z": 0.2372698348,
				"element": "C" 
			},
			{
				"x": 1.0045698105,
				"y": 1.2069414342,
				"z": 0.8833565141,
				"element": "Cl" 
			},
			{
				"x": -1.0453428333,
				"y": 0.4949624226,
				"z": -0.7556545235,
				"element": "C" 
			},
			{
				"x": -0.9865960333,
				"y": 2.1246445715,
				"z": -1.3503333664,
				"element": "Cl" 
			},
			{
				"x": -1.9940849528,
				"y": -0.4039303258,
				"z": -1.2681704462,
				"element": "C" 
			},
			{
				"x": -3.1037133697,
				"y": 0.1085997951,
				"z": -2.5001467944,
				"element": "Cl" 
			},
			{
				"x": -2.0445795284,
				"y": -1.7177885369,
				"z": -0.7762111111,
				"element": "C" 
			},
			{
				"x": -3.2241051234,
				"y": -2.8300595451,
				"z": -1.3962834417,
				"element": "Cl" 
			},
			{
				"x": -1.1379598921,
				"y": -2.1204045614,
				"z": 0.2169152833,
				"element": "C" 
			},
			{
				"x": -1.234463959,
				"y": -3.7515052591,
				"z": 0.8372029071,
				"element": "Cl" 
			},
			{
				"x": 0.3998133999,
				"y": -1.5230930229,
				"z": 2.7956217525,
				"element": "H" 
			},
			{
				"x": 1.7479804467,
				"y": -1.1484048568,
				"z": 1.7211928763,
				"element": "H" 
			},
			{
				"x": 1.0182868933,
				"y": -2.7648686092,
				"z": 1.7057795517,
				"element": "H" 
			}
		],
		 "valence_orbital": [ 
			{
				"type": "occ",
				"energy": -0.32701,
				"method": "rhf"
			},
			{
				"type": "occ",
				"energy": -0.3191,
				"method": "rhf"
			},
			{
				"type": "occ",
				"energy": -0.30511,
				"method": "rhf"
			},
			{
				"type": "occ",
				"energy": -0.26269,
				"method": "rhf"
			},
			{
				"type": "occ",
				"energy": -0.25926,
				"method": "rhf"
			},
			{
				"type": "unocc",
				"energy": -0.04932,
				"method": "rhf"
			},
			{
				"type": "unocc",
				"energy": -0.04831,
				"method": "rhf"
			},
			{
				"type": "unocc",
				"energy": -0.04592,
				"method": "rhf"
			},
			{
				"type": "unocc",
				"energy": 0.01032,
				"method": "rhf"
			},
			{
				"type": "unocc",
				"energy": 0.02646,
				"method": "rhf"
			}
		],
		"cosmo_sigma_profile": { 
			"-0.025": 0.0,
			"-0.024": 0.0,
			"-0.023": 0.0,
			"-0.022": 0.0,
			"-0.021": 0.0,
			"-0.02": 0.0,
			"-0.019": 0.0,
			"-0.018": 0.0,
			"-0.017": 0.0,
			"-0.016": 0.0,
			"-0.015": 0.0,
			"-0.014": 0.0,
			"-0.013": 0.0,
			"-0.012": 0.0,
			"-0.011": 0.0,
			"-0.01": 0.0,
			"-0.009": 0.0,
			"-0.008": 0.0,
			"-0.007": 0.0833940401306,
			"-0.006": 1.84165836495,
			"-0.005": 4.22952027405,
			"-0.004": 12.3371455508,
			"-0.003": 19.2975081874,
			"-0.002": 40.1173764561,
			"-0.001": 30.1760588562,
			"0.0": 20.6119236252,
			"0.001": 20.4164823098,
			"0.002": 25.7341108974,
			"0.003": 37.6280291562,
			"0.004": 16.7605051544,
			"0.005": 0.4334140154,
			"0.006": 0.0,
			"0.007": 0.0,
			"0.008": 0.0,
			"0.009": 0.0,
			"0.01": 0.0,
			"0.011": 0.0,
			"0.012": 0.0,
			"0.013": 0.0,
			"0.014": 0.0,
			"0.015": 0.0,
			"0.016": 0.0,
			"0.017": 0.0,
			"0.018": 0.0,
			"0.019": 0.0,
			"0.02": 0.0,
			"0.021": 0.0,
			"0.022": 0.0,
			"0.023": 0.0,
			"0.024": 0.0,
			"0.025": 0.0
		}
	}
}
