{
	 "smiles": "FC1=CC2=C(NC=C2CC#N)C=C1", 
	 "Tm": 328.15, 
	 "num_atms": 20, 
	 "gaussian": { 
		 "optdone": 1, 
		 "sigma_profile": "yes", 
		 "theory": "DFT", 
		 "functional": "B3LYP", 
		 "basiset": "6-31G**", 
		 "properties": { 
			 "R2extent": 2473.0144, 
			 "electric_dipole_moment_norm": 6.32668055776, 
			 "electric_quadrupole_moment_norm": 16.2084422185, 
			 "total_energy": -594.604281668, 
			 "HOMO_LUMO_gap": 0.19261, 
			 "cosmo_polarized_energy": -16.23, 
			 "cosmo_cavitation_energy": 26.02, 
			 "cosmo_dispersion_energy": -18.2, 
			 "cosmo_repulsion_energy": 1.42, 
			 "cosmo_total_nonelectrostatic_energy": 9.24, 
			 "SMD_solvation_energy": 6.19 
		},
		"coords": [
			{
				"x": 2.5670180822,
				"y": 2.9595143346,
				"z": 0.2479797802,
				"element": "F" 
			},
			{
				"x": 1.9974481332,
				"y": 1.8069398448,
				"z": -0.1736416238,
				"element": "C" 
			},
			{
				"x": 0.6863476786,
				"y": 1.5425397996,
				"z": 0.1750078606,
				"element": "C" 
			},
			{
				"x": 0.1252998077,
				"y": 0.3359371862,
				"z": -0.2813419509,
				"element": "C" 
			},
			{
				"x": 0.9168716473,
				"y": -0.549003369,
				"z": -1.0636831333,
				"element": "C" 
			},
			{
				"x": 0.127930417,
				"y": -1.6426396001,
				"z": -1.3702687512,
				"element": "N" 
			},
			{
				"x": -1.1201131245,
				"y": -1.4722929229,
				"z": -0.8122742724,
				"element": "C" 
			},
			{
				"x": -1.1702387387,
				"y": -0.2761026944,
				"z": -0.1396238891,
				"element": "C" 
			},
			{
				"x": -2.365097729,
				"y": 0.2842763549,
				"z": 0.586062308,
				"element": "C" 
			},
			{
				"x": -2.1875738801,
				"y": 0.3558672552,
				"z": 2.0458700285,
				"element": "C" 
			},
			{
				"x": -2.0436376592,
				"y": 0.4158477229,
				"z": 3.1959357189,
				"element": "N" 
			},
			{
				"x": 2.2426231143,
				"y": -0.2609274753,
				"z": -1.4030720384,
				"element": "C" 
			},
			{
				"x": 2.7812538682,
				"y": 0.9362367107,
				"z": -0.9483238447,
				"element": "C" 
			},
			{
				"x": 0.1354862841,
				"y": 2.2472822083,
				"z": 0.7882311516,
				"element": "H" 
			},
			{
				"x": 0.4167473736,
				"y": -2.4379147966,
				"z": -1.9156556565,
				"element": "H" 
			},
			{
				"x": -1.8886552928,
				"y": -2.2223504694,
				"z": -0.9376408495,
				"element": "H" 
			},
			{
				"x": -2.599467995,
				"y": 1.2965577455,
				"z": 0.2304603525,
				"element": "H" 
			},
			{
				"x": -3.2515989501,
				"y": -0.3271877222,
				"z": 0.3835467153,
				"element": "H" 
			},
			{
				"x": 2.8373149074,
				"y": -0.9450361824,
				"z": -2.0009948432,
				"element": "H" 
			},
			{
				"x": 3.8032420558,
				"y": 1.2173560695,
				"z": -1.1764730626,
				"element": "H" 
			}
		],
		 "valence_orbital": [ 
			{
				"type": "occ",
				"energy": -0.32126,
				"method": "rhf"
			},
			{
				"type": "occ",
				"energy": -0.31965,
				"method": "rhf"
			},
			{
				"type": "occ",
				"energy": -0.28797,
				"method": "rhf"
			},
			{
				"type": "occ",
				"energy": -0.2278,
				"method": "rhf"
			},
			{
				"type": "occ",
				"energy": -0.21802,
				"method": "rhf"
			},
			{
				"type": "unocc",
				"energy": -0.02541,
				"method": "rhf"
			},
			{
				"type": "unocc",
				"energy": 0.02091,
				"method": "rhf"
			},
			{
				"type": "unocc",
				"energy": 0.03141,
				"method": "rhf"
			},
			{
				"type": "unocc",
				"energy": 0.04297,
				"method": "rhf"
			},
			{
				"type": "unocc",
				"energy": 0.06079,
				"method": "rhf"
			}
		],
		"cosmo_sigma_profile": { 
			"-0.025": 0.0,
			"-0.024": 0.0,
			"-0.023": 0.0,
			"-0.022": 0.0,
			"-0.021": 0.0,
			"-0.02": 0.0,
			"-0.019": 0.0,
			"-0.018": 0.0,
			"-0.017": 0.0,
			"-0.016": 1.02880543864,
			"-0.015": 1.64221649586,
			"-0.014": 1.74631908564,
			"-0.013": 1.08333916453,
			"-0.012": 0.932123539494,
			"-0.011": 1.63264819923,
			"-0.01": 1.33927257893,
			"-0.009": 4.10769940806,
			"-0.008": 10.2213331001,
			"-0.007": 11.025682295,
			"-0.006": 12.5080965536,
			"-0.005": 11.3821928316,
			"-0.004": 8.62220978324,
			"-0.003": 6.96106756238,
			"-0.002": 8.3395691849,
			"-0.001": 7.34532036768,
			"0.0": 7.17792610836,
			"0.001": 9.84583131608,
			"0.002": 14.4890897034,
			"0.003": 17.6878044946,
			"0.004": 26.0471395525,
			"0.005": 20.263775833,
			"0.006": 3.66767300419,
			"0.007": 2.26627613399,
			"0.008": 3.55129097495,
			"0.009": 3.54152243805,
			"0.01": 3.32646478011,
			"0.011": 2.92200054878,
			"0.012": 2.61192108907,
			"0.013": 2.18337826331,
			"0.014": 0.392515534748,
			"0.015": 0.0,
			"0.016": 0.0,
			"0.017": 0.0,
			"0.018": 0.0,
			"0.019": 0.0,
			"0.02": 0.0,
			"0.021": 0.0,
			"0.022": 0.0,
			"0.023": 0.0,
			"0.024": 0.0,
			"0.025": 0.0
		}
	}
}
