{
	 "smiles": "CN1CCC2=CC3=C(OCO3)C=C2C(=O)CC2=CC=C3OCOC3=C2C1", 
	 "Tm": 481.15, 
	 "num_atms": 45, 
	 "gaussian": { 
		 "optdone": 1, 
		 "sigma_profile": "yes", 
		 "theory": "DFT", 
		 "functional": "B3LYP", 
		 "basiset": "6-31G**", 
		 "properties": { 
			 "R2extent": 11623.6196, 
			 "electric_dipole_moment_norm": 2.80836399528, 
			 "electric_quadrupole_moment_norm": 14.6895844431, 
			 "total_energy": -1204.37532186, 
			 "HOMO_LUMO_gap": 0.19583, 
			 "cosmo_polarized_energy": -15.5, 
			 "cosmo_cavitation_energy": 44.81, 
			 "cosmo_dispersion_energy": -32.78, 
			 "cosmo_repulsion_energy": 2.41, 
			 "cosmo_total_nonelectrostatic_energy": 14.44, 
			 "SMD_solvation_energy": 8.74 
		},
		"coords": [
			{
				"x": 0.3915345684,
				"y": -0.3091401877,
				"z": 2.435215587,
				"element": "C" 
			},
			{
				"x": -0.3858438349,
				"y": -0.136798975,
				"z": 1.2140943134,
				"element": "N" 
			},
			{
				"x": -0.99288892,
				"y": 1.1846180198,
				"z": 1.0686749615,
				"element": "C" 
			},
			{
				"x": 0.0331830083,
				"y": 2.3019752933,
				"z": 0.8846605939,
				"element": "C" 
			},
			{
				"x": 1.0101052261,
				"y": 2.2344982733,
				"z": -0.287007525,
				"element": "C" 
			},
			{
				"x": 1.8103338768,
				"y": 3.3966268222,
				"z": -0.4381097772,
				"element": "C" 
			},
			{
				"x": 2.7348976908,
				"y": 3.4464533423,
				"z": -1.454353962,
				"element": "C" 
			},
			{
				"x": 2.9076916864,
				"y": 2.3806071999,
				"z": -2.3311852273,
				"element": "C" 
			},
			{
				"x": 3.9005110778,
				"y": 2.6779829973,
				"z": -3.2352256662,
				"element": "O" 
			},
			{
				"x": 4.2408101623,
				"y": 4.0483511881,
				"z": -2.9942866969,
				"element": "C" 
			},
			{
				"x": 3.6132711103,
				"y": 4.4551094543,
				"z": -1.7715921676,
				"element": "O" 
			},
			{
				"x": 2.1605778306,
				"y": 1.232973427,
				"z": -2.2119325613,
				"element": "C" 
			},
			{
				"x": 1.194088184,
				"y": 1.1589895772,
				"z": -1.1747321511,
				"element": "C" 
			},
			{
				"x": 0.4012439496,
				"y": -0.1402658679,
				"z": -1.1897472452,
				"element": "C" 
			},
			{
				"x": -0.7122028338,
				"y": -0.1969573948,
				"z": -1.6866501907,
				"element": "O" 
			},
			{
				"x": 1.1928352114,
				"y": -1.3843012508,
				"z": -0.7838588732,
				"element": "C" 
			},
			{
				"x": 0.3998281415,
				"y": -2.6025806415,
				"z": -0.3496277648,
				"element": "C" 
			},
			{
				"x": 0.8391590675,
				"y": -3.8568000809,
				"z": -0.7894715419,
				"element": "C" 
			},
			{
				"x": 0.2486361755,
				"y": -5.0659540889,
				"z": -0.3836912909,
				"element": "C" 
			},
			{
				"x": -0.8095932945,
				"y": -4.9611375047,
				"z": 0.4931368976,
				"element": "C" 
			},
			{
				"x": -1.5883776305,
				"y": -5.9612492141,
				"z": 1.0292848717,
				"element": "O" 
			},
			{
				"x": -2.4367761014,
				"y": -5.3136317406,
				"z": 1.982020069,
				"element": "C" 
			},
			{
				"x": -2.3551759867,
				"y": -3.9029223034,
				"z": 1.7592255659,
				"element": "O" 
			},
			{
				"x": -1.2621618653,
				"y": -3.7222365218,
				"z": 0.9339159302,
				"element": "C" 
			},
			{
				"x": -0.7008219881,
				"y": -2.5157285778,
				"z": 0.548501501,
				"element": "C" 
			},
			{
				"x": -1.3441607027,
				"y": -1.2231230693,
				"z": 1.0085363483,
				"element": "C" 
			},
			{
				"x": 0.811094299,
				"y": -1.3187662812,
				"z": 2.4570517249,
				"element": "H" 
			},
			{
				"x": 1.2235979371,
				"y": 0.3991349519,
				"z": 2.4683873833,
				"element": "H" 
			},
			{
				"x": -0.2165353793,
				"y": -0.1726991525,
				"z": 3.3485027447,
				"element": "H" 
			},
			{
				"x": -1.6333050923,
				"y": 1.4396004679,
				"z": 1.9343056187,
				"element": "H" 
			},
			{
				"x": -1.6373268065,
				"y": 1.1494618073,
				"z": 0.1863495408,
				"element": "H" 
			},
			{
				"x": -0.5341739834,
				"y": 3.2374162801,
				"z": 0.7946900421,
				"element": "H" 
			},
			{
				"x": 0.6185177067,
				"y": 2.4187862139,
				"z": 1.8067893393,
				"element": "H" 
			},
			{
				"x": 1.6923567151,
				"y": 4.2358640911,
				"z": 0.2401921187,
				"element": "H" 
			},
			{
				"x": 5.3266324345,
				"y": 4.1420321756,
				"z": -2.8946040226,
				"element": "H" 
			},
			{
				"x": 3.869213105,
				"y": 4.6701723782,
				"z": -3.8213801908,
				"element": "H" 
			},
			{
				"x": 2.2976568033,
				"y": 0.4103554051,
				"z": -2.9054361947,
				"element": "H" 
			},
			{
				"x": 1.807648668,
				"y": -1.662054984,
				"z": -1.6524014927,
				"element": "H" 
			},
			{
				"x": 1.9057686532,
				"y": -1.0887945258,
				"z": -0.0059291445,
				"element": "H" 
			},
			{
				"x": 1.6819568479,
				"y": -3.8995024877,
				"z": -1.4737314877,
				"element": "H" 
			},
			{
				"x": 0.6019463915,
				"y": -6.0260209695,
				"z": -0.7418244238,
				"element": "H" 
			},
			{
				"x": -2.0908857863,
				"y": -5.5468077701,
				"z": 3.0006078065,
				"element": "H" 
			},
			{
				"x": -3.4690330479,
				"y": -5.645969286,
				"z": 1.8371878005,
				"element": "H" 
			},
			{
				"x": -1.946742137,
				"y": -1.4151090183,
				"z": 1.9117591142,
				"element": "H" 
			},
			{
				"x": -2.037291138,
				"y": -0.9051574714,
				"z": 0.223289725,
				"element": "H" 
			}
		],
		 "valence_orbital": [ 
			{
				"type": "occ",
				"energy": -0.23547,
				"method": "rhf"
			},
			{
				"type": "occ",
				"energy": -0.23303,
				"method": "rhf"
			},
			{
				"type": "occ",
				"energy": -0.22072,
				"method": "rhf"
			},
			{
				"type": "occ",
				"energy": -0.20462,
				"method": "rhf"
			},
			{
				"type": "occ",
				"energy": -0.20129,
				"method": "rhf"
			},
			{
				"type": "unocc",
				"energy": -0.00546,
				"method": "rhf"
			},
			{
				"type": "unocc",
				"energy": -0.00184,
				"method": "rhf"
			},
			{
				"type": "unocc",
				"energy": 0.00153,
				"method": "rhf"
			},
			{
				"type": "unocc",
				"energy": 0.01354,
				"method": "rhf"
			},
			{
				"type": "unocc",
				"energy": 0.01736,
				"method": "rhf"
			}
		],
		"cosmo_sigma_profile": { 
			"-0.025": 0.0,
			"-0.024": 0.0,
			"-0.023": 0.0,
			"-0.022": 0.0,
			"-0.021": 0.0,
			"-0.02": 0.0,
			"-0.019": 0.0,
			"-0.018": 0.0,
			"-0.017": 0.0,
			"-0.016": 0.0,
			"-0.015": 0.0,
			"-0.014": 0.0,
			"-0.013": 0.0,
			"-0.012": 0.0,
			"-0.011": 0.0,
			"-0.01": 0.0,
			"-0.009": 0.0327857626212,
			"-0.008": 5.82945890783,
			"-0.007": 16.2827631658,
			"-0.006": 21.2997219545,
			"-0.005": 20.3266565495,
			"-0.004": 24.2865959733,
			"-0.003": 29.8381076373,
			"-0.002": 40.382045772,
			"-0.001": 32.8692544487,
			"0.0": 21.4032655529,
			"0.001": 17.1805807107,
			"0.002": 20.9712176693,
			"0.003": 23.5249814922,
			"0.004": 18.8998809029,
			"0.005": 14.9665735726,
			"0.006": 9.58795260296,
			"0.007": 6.55772528914,
			"0.008": 7.73568140307,
			"0.009": 8.624163084,
			"0.01": 4.80374553967,
			"0.011": 2.47043002812,
			"0.012": 3.07855561104,
			"0.013": 3.13052787019,
			"0.014": 0.731621511713,
			"0.015": 0.0,
			"0.016": 0.0,
			"0.017": 0.0,
			"0.018": 0.0,
			"0.019": 0.0,
			"0.02": 0.0,
			"0.021": 0.0,
			"0.022": 0.0,
			"0.023": 0.0,
			"0.024": 0.0,
			"0.025": 0.0
		}
	}
}
