{
	 "smiles": "CC(C)C1=CC=C(C=C1)S(=O)(=O)N1CCNCC1", 
	 "Tm": 399.15, 
	 "num_atms": 38, 
	 "gaussian": { 
		 "optdone": 1, 
		 "sigma_profile": "yes", 
		 "theory": "DFT", 
		 "functional": "B3LYP", 
		 "basiset": "6-31G**", 
		 "properties": { 
			 "R2extent": 5668.6887, 
			 "electric_dipole_moment_norm": 5.02264553896, 
			 "electric_quadrupole_moment_norm": 23.7769754395, 
			 "total_energy": -1165.50111849, 
			 "HOMO_LUMO_gap": 0.18239, 
			 "cosmo_polarized_energy": -16.04, 
			 "cosmo_cavitation_energy": 39.03, 
			 "cosmo_dispersion_energy": -27.54, 
			 "cosmo_repulsion_energy": 2.09, 
			 "cosmo_total_nonelectrostatic_energy": 13.58, 
			 "SMD_solvation_energy": 1.89 
		},
		"coords": [
			{
				"x": 2.7748439643,
				"y": -2.6973985334,
				"z": -2.0981052518,
				"element": "C" 
			},
			{
				"x": 3.3138657733,
				"y": -1.2636499677,
				"z": -1.932940848,
				"element": "C" 
			},
			{
				"x": 4.7470815611,
				"y": -1.2701271633,
				"z": -1.3675473918,
				"element": "C" 
			},
			{
				"x": 2.3802868027,
				"y": -0.4033567417,
				"z": -1.0928963537,
				"element": "C" 
			},
			{
				"x": 2.1077156001,
				"y": -0.7179077674,
				"z": 0.2483312688,
				"element": "C" 
			},
			{
				"x": 1.2556851895,
				"y": 0.0718087933,
				"z": 1.0179899256,
				"element": "C" 
			},
			{
				"x": 0.652927017,
				"y": 1.1950895108,
				"z": 0.4421885189,
				"element": "C" 
			},
			{
				"x": 0.9212663435,
				"y": 1.5403465087,
				"z": -0.8840027824,
				"element": "C" 
			},
			{
				"x": 1.7786196209,
				"y": 0.7394478707,
				"z": -1.63815772,
				"element": "C" 
			},
			{
				"x": -0.4917888432,
				"y": 2.1937009677,
				"z": 1.4099882705,
				"element": "S" 
			},
			{
				"x": -0.5259708999,
				"y": 3.5183037693,
				"z": 0.7838802582,
				"element": "O" 
			},
			{
				"x": -0.1368008577,
				"y": 1.9937047337,
				"z": 2.8170987227,
				"element": "O" 
			},
			{
				"x": -2.0258604905,
				"y": 1.5508193093,
				"z": 1.2249820563,
				"element": "N" 
			},
			{
				"x": -2.4094534287,
				"y": 0.3404187896,
				"z": 1.973947133,
				"element": "C" 
			},
			{
				"x": -2.9994526619,
				"y": -0.7225750197,
				"z": 1.0093231444,
				"element": "C" 
			},
			{
				"x": -2.4032544657,
				"y": -0.6820164064,
				"z": -0.3215599968,
				"element": "N" 
			},
			{
				"x": -2.6732905909,
				"y": 0.5972108348,
				"z": -0.9924839855,
				"element": "C" 
			},
			{
				"x": -2.7849911688,
				"y": 1.793258313,
				"z": -0.0054810392,
				"element": "C" 
			},
			{
				"x": 2.724236854,
				"y": -3.2177018897,
				"z": -1.1353690919,
				"element": "H" 
			},
			{
				"x": 3.4296876926,
				"y": -3.2795849999,
				"z": -2.754983875,
				"element": "H" 
			},
			{
				"x": 1.7700441333,
				"y": -2.6979205618,
				"z": -2.5317617559,
				"element": "H" 
			},
			{
				"x": 3.3554746905,
				"y": -0.8098386286,
				"z": -2.9315208092,
				"element": "H" 
			},
			{
				"x": 5.1446776267,
				"y": -0.2544593167,
				"z": -1.280202353,
				"element": "H" 
			},
			{
				"x": 4.7815756843,
				"y": -1.7291950098,
				"z": -0.3735332499,
				"element": "H" 
			},
			{
				"x": 5.4138271405,
				"y": -1.8429614839,
				"z": -2.0207362379,
				"element": "H" 
			},
			{
				"x": 2.5757494947,
				"y": -1.5850030024,
				"z": 0.7058137809,
				"element": "H" 
			},
			{
				"x": 1.0813119298,
				"y": -0.1555773537,
				"z": 2.0640917568,
				"element": "H" 
			},
			{
				"x": 0.4826058812,
				"y": 2.4386113035,
				"z": -1.3050365239,
				"element": "H" 
			},
			{
				"x": 1.9920129515,
				"y": 1.0131923425,
				"z": -2.668269494,
				"element": "H" 
			},
			{
				"x": -1.5263804374,
				"y": -0.0506887972,
				"z": 2.4837692544,
				"element": "H" 
			},
			{
				"x": -3.133045484,
				"y": 0.6063880056,
				"z": 2.7569597077,
				"element": "H" 
			},
			{
				"x": -4.0801429852,
				"y": -0.5719657479,
				"z": 0.8974753669,
				"element": "H" 
			},
			{
				"x": -2.8685662004,
				"y": -1.7198473184,
				"z": 1.4423277951,
				"element": "H" 
			},
			{
				"x": -1.3981858058,
				"y": -0.8132291615,
				"z": -0.2410788056,
				"element": "H" 
			},
			{
				"x": -1.8742650289,
				"y": 0.771151117,
				"z": -1.7187372548,
				"element": "H" 
			},
			{
				"x": -3.6107884782,
				"y": 0.5203288242,
				"z": -1.5606533487,
				"element": "H" 
			},
			{
				"x": -3.8296169325,
				"y": 1.947859823,
				"z": 0.2923417125,
				"element": "H" 
			},
			{
				"x": -2.4445411918,
				"y": 2.7300640546,
				"z": -0.4484505039,
				"element": "H" 
			}
		],
		 "valence_orbital": [ 
			{
				"type": "occ",
				"energy": -0.2961,
				"method": "rhf"
			},
			{
				"type": "occ",
				"energy": -0.27402,
				"method": "rhf"
			},
			{
				"type": "occ",
				"energy": -0.27092,
				"method": "rhf"
			},
			{
				"type": "occ",
				"energy": -0.2527,
				"method": "rhf"
			},
			{
				"type": "occ",
				"energy": -0.21883,
				"method": "rhf"
			},
			{
				"type": "unocc",
				"energy": -0.03644,
				"method": "rhf"
			},
			{
				"type": "unocc",
				"energy": -0.02333,
				"method": "rhf"
			},
			{
				"type": "unocc",
				"energy": 0.05229,
				"method": "rhf"
			},
			{
				"type": "unocc",
				"energy": 0.07286,
				"method": "rhf"
			},
			{
				"type": "unocc",
				"energy": 0.081,
				"method": "rhf"
			}
		],
		"cosmo_sigma_profile": { 
			"-0.025": 0.0,
			"-0.024": 0.0,
			"-0.023": 0.0,
			"-0.022": 0.0,
			"-0.021": 0.0,
			"-0.02": 0.0,
			"-0.019": 0.0,
			"-0.018": 0.0,
			"-0.017": 0.0,
			"-0.016": 0.0,
			"-0.015": 0.0,
			"-0.014": 0.0,
			"-0.013": 0.0,
			"-0.012": 0.0,
			"-0.011": 0.0,
			"-0.01": 0.0157220976269,
			"-0.009": 0.160099188958,
			"-0.008": 0.213555250744,
			"-0.007": 1.83269864039,
			"-0.006": 12.5109480952,
			"-0.005": 26.9973591439,
			"-0.004": 35.1241641174,
			"-0.003": 36.9606394985,
			"-0.002": 32.0561659749,
			"-0.001": 27.8027083418,
			"0.0": 23.6025694315,
			"0.001": 25.2484774723,
			"0.002": 15.3391712203,
			"0.003": 12.0795927855,
			"0.004": 7.4565920588,
			"0.005": 4.73186853387,
			"0.006": 5.06702263459,
			"0.007": 4.84554939124,
			"0.008": 4.85399072457,
			"0.009": 4.3959583455,
			"0.01": 4.78811165831,
			"0.011": 9.30373005579,
			"0.012": 6.52446561691,
			"0.013": 0.792845178221,
			"0.014": 0.47310022097,
			"0.015": 0.737746165355,
			"0.016": 0.518157217778,
			"0.017": 0.559580142492,
			"0.018": 0.386248155713,
			"0.019": 0.0157977568306,
			"0.02": 0.0,
			"0.021": 0.0,
			"0.022": 0.0,
			"0.023": 0.0,
			"0.024": 0.0,
			"0.025": 0.0
		}
	}
}
