{
	 "smiles": "[O-][N+](=O)C1=CC(=CC=C1N1CCCC1)C(F)(F)F", 
	 "Tm": 328.15, 
	 "num_atms": 29, 
	 "gaussian": { 
		 "optdone": 1, 
		 "sigma_profile": "yes", 
		 "theory": "DFT", 
		 "functional": "B3LYP", 
		 "basiset": "6-31G**", 
		 "properties": { 
			 "R2extent": 5851.4662, 
			 "electric_dipole_moment_norm": 6.25377445228, 
			 "electric_quadrupole_moment_norm": 7.5490894484, 
			 "total_energy": -985.173408282, 
			 "HOMO_LUMO_gap": 0.14326, 
			 "cosmo_polarized_energy": -10.84, 
			 "cosmo_cavitation_energy": 33.31, 
			 "cosmo_dispersion_energy": -23.83, 
			 "cosmo_repulsion_energy": 1.77, 
			 "cosmo_total_nonelectrostatic_energy": 11.25, 
			 "SMD_solvation_energy": 7.7 
		},
		"coords": [
			{
				"x": -2.1978513496,
				"y": 1.3905907709,
				"z": -1.7656450992,
				"element": "O" 
			},
			{
				"x": -1.4928557158,
				"y": 2.1307930378,
				"z": -1.0712701426,
				"element": "N" 
			},
			{
				"x": -1.7027741264,
				"y": 3.3350570106,
				"z": -0.9079160285,
				"element": "O" 
			},
			{
				"x": -0.2872189536,
				"y": 1.5567714155,
				"z": -0.4793038542,
				"element": "C" 
			},
			{
				"x": 0.8275106425,
				"y": 2.3994630595,
				"z": -0.4922588105,
				"element": "C" 
			},
			{
				"x": 2.0874109584,
				"y": 1.9099443526,
				"z": -0.1899191084,
				"element": "C" 
			},
			{
				"x": 2.2237309875,
				"y": 0.546939379,
				"z": 0.1168672784,
				"element": "C" 
			},
			{
				"x": 1.1201718544,
				"y": -0.2807980621,
				"z": 0.1815735625,
				"element": "C" 
			},
			{
				"x": -0.2017054462,
				"y": 0.1959612702,
				"z": -0.0559895402,
				"element": "C" 
			},
			{
				"x": -1.2714272013,
				"y": -0.6204397575,
				"z": 0.1770990644,
				"element": "N" 
			},
			{
				"x": -1.0899102901,
				"y": -2.0296898833,
				"z": 0.5643927335,
				"element": "C" 
			},
			{
				"x": -2.5169605898,
				"y": -2.5325983844,
				"z": 0.8036676552,
				"element": "C" 
			},
			{
				"x": -3.2255587285,
				"y": -1.2823188943,
				"z": 1.3425553637,
				"element": "C" 
			},
			{
				"x": -2.6434395284,
				"y": -0.1639454528,
				"z": 0.4698805374,
				"element": "C" 
			},
			{
				"x": 3.2885247817,
				"y": 2.8072947211,
				"z": -0.179853505,
				"element": "C" 
			},
			{
				"x": 3.6615812904,
				"y": 3.1360398441,
				"z": 1.0808875912,
				"element": "F" 
			},
			{
				"x": 4.3604772314,
				"y": 2.2076119996,
				"z": -0.7500923423,
				"element": "F" 
			},
			{
				"x": 3.0665377658,
				"y": 3.9632290091,
				"z": -0.840429734,
				"element": "F" 
			},
			{
				"x": 0.6832356265,
				"y": 3.4300058895,
				"z": -0.7902439765,
				"element": "H" 
			},
			{
				"x": 3.2084568778,
				"y": 0.1361097796,
				"z": 0.315474891,
				"element": "H" 
			},
			{
				"x": 1.267814831,
				"y": -1.3188996685,
				"z": 0.446885621,
				"element": "H" 
			},
			{
				"x": -0.4950424278,
				"y": -2.1057425848,
				"z": 1.4870391811,
				"element": "H" 
			},
			{
				"x": -0.5652667236,
				"y": -2.5851491422,
				"z": -0.2205874312,
				"element": "H" 
			},
			{
				"x": -2.9702935022,
				"y": -2.8481012073,
				"z": -0.1423022843,
				"element": "H" 
			},
			{
				"x": -2.5427832967,
				"y": -3.3815182033,
				"z": 1.4914079128,
				"element": "H" 
			},
			{
				"x": -4.3146381543,
				"y": -1.3341614753,
				"z": 1.2682251886,
				"element": "H" 
			},
			{
				"x": -2.9651399177,
				"y": -1.1240367351,
				"z": 2.3954032055,
				"element": "H" 
			},
			{
				"x": -2.6175342925,
				"y": 0.8067200334,
				"z": 0.9777539616,
				"element": "H" 
			},
			{
				"x": -3.2150526031,
				"y": -0.0362321219,
				"z": -0.454101891,
				"element": "H" 
			}
		],
		 "valence_orbital": [ 
			{
				"type": "occ",
				"energy": -0.3034,
				"method": "rhf"
			},
			{
				"type": "occ",
				"energy": -0.29937,
				"method": "rhf"
			},
			{
				"type": "occ",
				"energy": -0.29487,
				"method": "rhf"
			},
			{
				"type": "occ",
				"energy": -0.27199,
				"method": "rhf"
			},
			{
				"type": "occ",
				"energy": -0.22225,
				"method": "rhf"
			},
			{
				"type": "unocc",
				"energy": -0.07899,
				"method": "rhf"
			},
			{
				"type": "unocc",
				"energy": -0.02458,
				"method": "rhf"
			},
			{
				"type": "unocc",
				"energy": -0.01343,
				"method": "rhf"
			},
			{
				"type": "unocc",
				"energy": 0.06652,
				"method": "rhf"
			},
			{
				"type": "unocc",
				"energy": 0.0807,
				"method": "rhf"
			}
		],
		"cosmo_sigma_profile": { 
			"-0.025": 0.0,
			"-0.024": 0.0,
			"-0.023": 0.0,
			"-0.022": 0.0,
			"-0.021": 0.0,
			"-0.02": 0.0,
			"-0.019": 0.0,
			"-0.018": 0.0,
			"-0.017": 0.0,
			"-0.016": 0.0,
			"-0.015": 0.0,
			"-0.014": 0.0,
			"-0.013": 0.0,
			"-0.012": 0.0,
			"-0.011": 0.0,
			"-0.01": 0.0,
			"-0.009": 0.0,
			"-0.008": 1.50364533301,
			"-0.007": 5.26833166461,
			"-0.006": 10.4653763972,
			"-0.005": 15.4374220397,
			"-0.004": 26.2539265823,
			"-0.003": 29.8118692231,
			"-0.002": 21.9948735038,
			"-0.001": 19.9692838894,
			"0.0": 18.9729928963,
			"0.001": 19.5416454252,
			"0.002": 24.2347804893,
			"0.003": 33.1924769463,
			"0.004": 5.85109105256,
			"0.005": 3.50827186929,
			"0.006": 2.79026188584,
			"0.007": 5.24818647525,
			"0.008": 8.85494317783,
			"0.009": 6.61162261774,
			"0.01": 3.70110917529,
			"0.011": 1.32693328804,
			"0.012": 0.0,
			"0.013": 0.0,
			"0.014": 0.0,
			"0.015": 0.0,
			"0.016": 0.0,
			"0.017": 0.0,
			"0.018": 0.0,
			"0.019": 0.0,
			"0.02": 0.0,
			"0.021": 0.0,
			"0.022": 0.0,
			"0.023": 0.0,
			"0.024": 0.0,
			"0.025": 0.0
		}
	}
}
