{
	 "smiles": "CC1=C(O)C(=CN=C1)C(O)=O", 
	 "Tm": 523.15, 
	 "num_atms": 18, 
	 "gaussian": { 
		 "optdone": 1, 
		 "sigma_profile": "yes", 
		 "theory": "DFT", 
		 "functional": "B3LYP", 
		 "basiset": "6-31G**", 
		 "properties": { 
			 "R2extent": 2123.658, 
			 "electric_dipole_moment_norm": 3.35080672525, 
			 "electric_quadrupole_moment_norm": 12.7461341288, 
			 "total_energy": -551.409793538, 
			 "HOMO_LUMO_gap": 0.19523, 
			 "cosmo_polarized_energy": -12.27, 
			 "cosmo_cavitation_energy": 22.3, 
			 "cosmo_dispersion_energy": -16.9, 
			 "cosmo_repulsion_energy": 1.35, 
			 "cosmo_total_nonelectrostatic_energy": 6.75, 
			 "SMD_solvation_energy": 3.97 
		},
		"coords": [
			{
				"x": 0.0765453324,
				"y": 1.0173067001,
				"z": 1.7406973285,
				"element": "C" 
			},
			{
				"x": 0.7676975634,
				"y": 0.3968891069,
				"z": 0.5569660655,
				"element": "C" 
			},
			{
				"x": 0.0184133016,
				"y": -0.0653092388,
				"z": -0.5453890361,
				"element": "C" 
			},
			{
				"x": -1.3164829978,
				"y": 0.080434679,
				"z": -0.4719772328,
				"element": "O" 
			},
			{
				"x": 0.7063775918,
				"y": -0.6421058485,
				"z": -1.6378710709,
				"element": "C" 
			},
			{
				"x": 2.1104603984,
				"y": -0.7224665801,
				"z": -1.5617625572,
				"element": "C" 
			},
			{
				"x": 2.8317338361,
				"y": -0.2936244847,
				"z": -0.5343906204,
				"element": "N" 
			},
			{
				"x": 2.1490326574,
				"y": 0.2507855244,
				"z": 0.4908805287,
				"element": "C" 
			},
			{
				"x": 0.0691404249,
				"y": -1.1697374421,
				"z": -2.8581941763,
				"element": "C" 
			},
			{
				"x": -1.3035194485,
				"y": -1.0501509626,
				"z": -2.8462440749,
				"element": "O" 
			},
			{
				"x": 0.6344593295,
				"y": -1.6680038478,
				"z": -3.8063843918,
				"element": "O" 
			},
			{
				"x": 0.8031078517,
				"y": 1.3179644995,
				"z": 2.4998347268,
				"element": "H" 
			},
			{
				"x": -0.6320973935,
				"y": 0.3179998569,
				"z": 2.1973428905,
				"element": "H" 
			},
			{
				"x": -0.5006272124,
				"y": 1.8999906296,
				"z": 1.4449482225,
				"element": "H" 
			},
			{
				"x": -1.7194371799,
				"y": -0.2731731787,
				"z": -1.2859303167,
				"element": "H" 
			},
			{
				"x": 2.6428261889,
				"y": -1.1653929861,
				"z": -2.3999858557,
				"element": "H" 
			},
			{
				"x": 2.7531692435,
				"y": 0.5989106682,
				"z": 1.3281838599,
				"element": "H" 
			},
			{
				"x": -1.6222994876,
				"y": -1.4228170953,
				"z": -3.6850242897,
				"element": "H" 
			}
		],
		 "valence_orbital": [ 
			{
				"type": "occ",
				"energy": -0.34258,
				"method": "rhf"
			},
			{
				"type": "occ",
				"energy": -0.29842,
				"method": "rhf"
			},
			{
				"type": "occ",
				"energy": -0.26984,
				"method": "rhf"
			},
			{
				"type": "occ",
				"energy": -0.25857,
				"method": "rhf"
			},
			{
				"type": "occ",
				"energy": -0.25252,
				"method": "rhf"
			},
			{
				"type": "unocc",
				"energy": -0.05729,
				"method": "rhf"
			},
			{
				"type": "unocc",
				"energy": -0.01442,
				"method": "rhf"
			},
			{
				"type": "unocc",
				"energy": 0.04248,
				"method": "rhf"
			},
			{
				"type": "unocc",
				"energy": 0.05602,
				"method": "rhf"
			},
			{
				"type": "unocc",
				"energy": 0.10735,
				"method": "rhf"
			}
		],
		"cosmo_sigma_profile": { 
			"-0.025": 0.0,
			"-0.024": 0.0,
			"-0.023": 0.0,
			"-0.022": 0.0,
			"-0.021": 0.0,
			"-0.02": 0.0810306362878,
			"-0.019": 0.813151795339,
			"-0.018": 1.01427912713,
			"-0.017": 0.903426229379,
			"-0.016": 0.376564814918,
			"-0.015": 0.378619500014,
			"-0.014": 0.694149617783,
			"-0.013": 1.09785392626,
			"-0.012": 1.13570459294,
			"-0.011": 0.897821024463,
			"-0.01": 0.896897040445,
			"-0.009": 1.3962073205,
			"-0.008": 2.01925796142,
			"-0.007": 2.37603623195,
			"-0.006": 6.85160301681,
			"-0.005": 9.22954962199,
			"-0.004": 12.6775656141,
			"-0.003": 13.6257388013,
			"-0.002": 13.4587358266,
			"-0.001": 19.5224800088,
			"0.0": 21.9452214538,
			"0.001": 12.7804608085,
			"0.002": 8.04610261712,
			"0.003": 5.23467192983,
			"0.004": 4.72491309569,
			"0.005": 3.5954466772,
			"0.006": 3.93017107648,
			"0.007": 4.22601381979,
			"0.008": 4.93138665409,
			"0.009": 4.21821036733,
			"0.01": 3.43897808716,
			"0.011": 5.86810392057,
			"0.012": 1.61140306707,
			"0.013": 1.11233849168,
			"0.014": 0.877181695833,
			"0.015": 0.827461014283,
			"0.016": 0.91997098626,
			"0.017": 0.234306209913,
			"0.018": 0.0,
			"0.019": 0.0,
			"0.02": 0.0,
			"0.021": 0.0,
			"0.022": 0.0,
			"0.023": 0.0,
			"0.024": 0.0,
			"0.025": 0.0
		}
	}
}
