{
	 "smiles": "CCC(C)C(NC(=O)C1=CC=CC=C1)C(O)=O", 
	 "Tm": 391.15, 
	 "num_atms": 34, 
	 "gaussian": { 
		 "optdone": 1, 
		 "sigma_profile": "yes", 
		 "theory": "DFT", 
		 "functional": "B3LYP", 
		 "basiset": "6-31G**", 
		 "properties": { 
			 "R2extent": 5709.8514, 
			 "electric_dipole_moment_norm": 2.14010452782, 
			 "electric_quadrupole_moment_norm": 13.7976948886, 
			 "total_energy": -786.101418267, 
			 "HOMO_LUMO_gap": 0.2127, 
			 "cosmo_polarized_energy": -14.49, 
			 "cosmo_cavitation_energy": 36.88, 
			 "cosmo_dispersion_energy": -25.33, 
			 "cosmo_repulsion_energy": 1.97, 
			 "cosmo_total_nonelectrostatic_energy": 13.52, 
			 "SMD_solvation_energy": 7.67 
		},
		"coords": [
			{
				"x": -1.4558803699,
				"y": 3.8783712383,
				"z": -0.2630747829,
				"element": "C" 
			},
			{
				"x": -2.1145414306,
				"y": 3.2275889658,
				"z": 0.9594141991,
				"element": "C" 
			},
			{
				"x": -1.6807944749,
				"y": 1.7762338605,
				"z": 1.2452866758,
				"element": "C" 
			},
			{
				"x": -2.4499513368,
				"y": 1.1877899472,
				"z": 2.4352965572,
				"element": "C" 
			},
			{
				"x": -0.1362384565,
				"y": 1.579103759,
				"z": 1.3994666667,
				"element": "C" 
			},
			{
				"x": 0.2300274483,
				"y": 0.173029293,
				"z": 1.3435694442,
				"element": "N" 
			},
			{
				"x": 0.4323360578,
				"y": -0.4449618326,
				"z": 0.1398113922,
				"element": "C" 
			},
			{
				"x": 0.2325339104,
				"y": 0.1360900257,
				"z": -0.9268177841,
				"element": "O" 
			},
			{
				"x": 0.9090011791,
				"y": -1.8694607931,
				"z": 0.1884843477,
				"element": "C" 
			},
			{
				"x": 1.4627294731,
				"y": -2.3987845153,
				"z": -0.9849553002,
				"element": "C" 
			},
			{
				"x": 1.9312902975,
				"y": -3.7100598615,
				"z": -1.0142535735,
				"element": "C" 
			},
			{
				"x": 1.8399929778,
				"y": -4.5117839722,
				"z": 0.1265676572,
				"element": "C" 
			},
			{
				"x": 1.2733449673,
				"y": -3.9976267107,
				"z": 1.2944586816,
				"element": "C" 
			},
			{
				"x": 0.8093954507,
				"y": -2.682466409,
				"z": 1.3266536298,
				"element": "C" 
			},
			{
				"x": 0.4118237448,
				"y": 2.1283329835,
				"z": 2.7053143014,
				"element": "C" 
			},
			{
				"x": 0.3912748611,
				"y": 3.4756100814,
				"z": 2.749784412,
				"element": "O" 
			},
			{
				"x": 0.8215712322,
				"y": 1.4489921329,
				"z": 3.625163508,
				"element": "O" 
			},
			{
				"x": -1.9456476947,
				"y": 4.8272265483,
				"z": -0.5048026586,
				"element": "H" 
			},
			{
				"x": -0.3980494416,
				"y": 4.098289862,
				"z": -0.0883329396,
				"element": "H" 
			},
			{
				"x": -1.5218098067,
				"y": 3.2316516921,
				"z": -1.144782939,
				"element": "H" 
			},
			{
				"x": -1.9430961216,
				"y": 3.8500262411,
				"z": 1.8452813646,
				"element": "H" 
			},
			{
				"x": -3.2018179619,
				"y": 3.2062646306,
				"z": 0.8091420913,
				"element": "H" 
			},
			{
				"x": -1.9156091032,
				"y": 1.1846893038,
				"z": 0.3519920402,
				"element": "H" 
			},
			{
				"x": -3.5258598788,
				"y": 1.1919536871,
				"z": 2.2340805714,
				"element": "H" 
			},
			{
				"x": -2.285696291,
				"y": 1.7692732573,
				"z": 3.3506294764,
				"element": "H" 
			},
			{
				"x": -2.1505538595,
				"y": 0.1544036826,
				"z": 2.6328884378,
				"element": "H" 
			},
			{
				"x": 0.3528154688,
				"y": 2.0954816555,
				"z": 0.5673420258,
				"element": "H" 
			},
			{
				"x": 0.603688843,
				"y": -0.217229811,
				"z": 2.1982050831,
				"element": "H" 
			},
			{
				"x": 1.5117049367,
				"y": -1.7600835695,
				"z": -1.8602699848,
				"element": "H" 
			},
			{
				"x": 2.3654936794,
				"y": -4.1091131164,
				"z": -1.9264065496,
				"element": "H" 
			},
			{
				"x": 2.2023811132,
				"y": -5.5355969215,
				"z": 0.1037732818,
				"element": "H" 
			},
			{
				"x": 1.1856080049,
				"y": -4.6220220219,
				"z": 2.1787863333,
				"element": "H" 
			},
			{
				"x": 0.3422814935,
				"y": -2.3093474687,
				"z": 2.2334959105,
				"element": "H" 
			},
			{
				"x": 0.7372510881,
				"y": 3.7278341554,
				"z": 3.6231084233,
				"element": "H" 
			}
		],
		 "valence_orbital": [ 
			{
				"type": "occ",
				"energy": -0.29286,
				"method": "rhf"
			},
			{
				"type": "occ",
				"energy": -0.25977,
				"method": "rhf"
			},
			{
				"type": "occ",
				"energy": -0.2566,
				"method": "rhf"
			},
			{
				"type": "occ",
				"energy": -0.25048,
				"method": "rhf"
			},
			{
				"type": "occ",
				"energy": -0.24731,
				"method": "rhf"
			},
			{
				"type": "unocc",
				"energy": -0.03461,
				"method": "rhf"
			},
			{
				"type": "unocc",
				"energy": -0.00692,
				"method": "rhf"
			},
			{
				"type": "unocc",
				"energy": -0.00577,
				"method": "rhf"
			},
			{
				"type": "unocc",
				"energy": 0.06013,
				"method": "rhf"
			},
			{
				"type": "unocc",
				"energy": 0.06524,
				"method": "rhf"
			}
		],
		"cosmo_sigma_profile": { 
			"-0.025": 0.0,
			"-0.024": 0.0,
			"-0.023": 0.0,
			"-0.022": 0.0,
			"-0.021": 0.0,
			"-0.02": 0.0,
			"-0.019": 0.322319534728,
			"-0.018": 1.18988763117,
			"-0.017": 0.701062430965,
			"-0.016": 0.812552765721,
			"-0.015": 0.984629896311,
			"-0.014": 1.0126777365,
			"-0.013": 0.342067780495,
			"-0.012": 0.332068420749,
			"-0.011": 1.58264284152,
			"-0.01": 1.34340977821,
			"-0.009": 1.9278431168,
			"-0.008": 2.46222273769,
			"-0.007": 3.30975601073,
			"-0.006": 10.1519935984,
			"-0.005": 13.5201345059,
			"-0.004": 16.22340681,
			"-0.003": 23.7196602388,
			"-0.002": 28.7463772936,
			"-0.001": 29.2350388066,
			"0.0": 30.9399798269,
			"0.001": 30.9549379015,
			"0.002": 17.2481078562,
			"0.003": 15.1604631573,
			"0.004": 16.5225895419,
			"0.005": 9.60879710712,
			"0.006": 4.0558882404,
			"0.007": 4.98547212054,
			"0.008": 2.38813189351,
			"0.009": 3.38808450318,
			"0.01": 3.97751224914,
			"0.011": 5.42043615952,
			"0.012": 2.04793362687,
			"0.013": 3.30838811162,
			"0.014": 2.30847579543,
			"0.015": 0.0,
			"0.016": 0.0,
			"0.017": 0.0,
			"0.018": 0.0,
			"0.019": 0.0,
			"0.02": 0.0,
			"0.021": 0.0,
			"0.022": 0.0,
			"0.023": 0.0,
			"0.024": 0.0,
			"0.025": 0.0
		}
	}
}
