{
	 "smiles": "CC(=O)NCC1=C(I)C(C(O)=O)=C(I)C(NC(C)=O)=C1I", 
	 "Tm": 528.15, 
	 "num_atms": 32, 
	 "gaussian": { 
		 "optdone": 1, 
		 "sigma_profile": "no", 
		 "theory": "DFT", 
		 "functional": "B3LYP", 
		 "basiset": "6-31G**", 
		 "properties": { 
			 "R2extent": 7792.6618, 
			 "electric_dipole_moment_norm": 5.65981874886, 
			 "electric_quadrupole_moment_norm": 16.8374809966, 
			 "total_energy": -908.465597343, 
			 "HOMO_LUMO_gap": 0.15525, 
			 "cosmo_polarized_energy": -166209.09, 
			 "cosmo_cavitation_energy": 45.73, 
			 "cosmo_dispersion_energy": -32.8, 
			 "cosmo_repulsion_energy": 2.44, 
			 "cosmo_total_nonelectrostatic_energy": 15.38, 
			 "SMD_solvation_energy": 8.21 
		},
		"coords": [
			{
				"x": 0.97250916,
				"y": 5.479111468,
				"z": -0.4964538263,
				"element": "C" 
			},
			{
				"x": -0.461779472,
				"y": 4.9776886124,
				"z": -0.5299123579,
				"element": "C" 
			},
			{
				"x": -1.4046458118,
				"y": 5.7024930495,
				"z": -0.8086080331,
				"element": "O" 
			},
			{
				"x": -0.6687955695,
				"y": 3.6415657488,
				"z": -0.2465970413,
				"element": "N" 
			},
			{
				"x": 0.2919074008,
				"y": 2.7056752408,
				"z": 0.3193843793,
				"element": "C" 
			},
			{
				"x": -0.0628066803,
				"y": 1.2743217052,
				"z": -0.0448779893,
				"element": "C" 
			},
			{
				"x": -0.8960833287,
				"y": 0.4944154724,
				"z": 0.7799183797,
				"element": "C" 
			},
			{
				"x": -1.702063789,
				"y": 1.3145435275,
				"z": 2.5800097862,
				"element": "I" 
			},
			{
				"x": -1.2504214747,
				"y": -0.8250639944,
				"z": 0.4579593451,
				"element": "C" 
			},
			{
				"x": -2.2389255236,
				"y": -1.6028581048,
				"z": 1.3129144527,
				"element": "C" 
			},
			{
				"x": -1.6976609169,
				"y": -2.3519769958,
				"z": 2.2985466734,
				"element": "O" 
			},
			{
				"x": -3.4256559358,
				"y": -1.5631585765,
				"z": 1.1290507968,
				"element": "O" 
			},
			{
				"x": -0.7423426784,
				"y": -1.3897755302,
				"z": -0.7191310765,
				"element": "C" 
			},
			{
				"x": -1.2519677537,
				"y": -3.3770136048,
				"z": -1.2447089618,
				"element": "I" 
			},
			{
				"x": 0.0973641935,
				"y": -0.6575713172,
				"z": -1.5795563861,
				"element": "C" 
			},
			{
				"x": 0.5860685397,
				"y": -1.2340935107,
				"z": -2.7736346852,
				"element": "N" 
			},
			{
				"x": 1.7814142373,
				"y": -1.9214070343,
				"z": -2.9599820147,
				"element": "C" 
			},
			{
				"x": 2.6643664878,
				"y": -2.0857754587,
				"z": -1.7385660955,
				"element": "C" 
			},
			{
				"x": 2.0672523744,
				"y": -2.3569429103,
				"z": -4.0603217741,
				"element": "O" 
			},
			{
				"x": 0.397623725,
				"y": 0.6756257364,
				"z": -1.233620784,
				"element": "C" 
			},
			{
				"x": 1.5656759679,
				"y": 1.7804069533,
				"z": -2.6239253821,
				"element": "I" 
			},
			{
				"x": 1.4058408633,
				"y": 5.3867815562,
				"z": 0.5055973759,
				"element": "H" 
			},
			{
				"x": 0.9631832922,
				"y": 6.5298825693,
				"z": -0.7838710513,
				"element": "H" 
			},
			{
				"x": 1.6090326544,
				"y": 4.9203212444,
				"z": -1.1903877565,
				"element": "H" 
			},
			{
				"x": -1.6509330736,
				"y": 3.4060439999,
				"z": -0.1687419298,
				"element": "H" 
			},
			{
				"x": 0.3495026319,
				"y": 2.7869566451,
				"z": 1.4117461712,
				"element": "H" 
			},
			{
				"x": 1.2818154136,
				"y": 2.9385931711,
				"z": -0.0729784757,
				"element": "H" 
			},
			{
				"x": -0.7330147443,
				"y": -2.2643461778,
				"z": 2.2999731118,
				"element": "H" 
			},
			{
				"x": 0.0227097657,
				"y": -1.1589058331,
				"z": -3.613436968,
				"element": "H" 
			},
			{
				"x": 2.1495276263,
				"y": -2.6569328032,
				"z": -0.9593300296,
				"element": "H" 
			},
			{
				"x": 2.9440845702,
				"y": -1.1148521302,
				"z": -1.3181363783,
				"element": "H" 
			},
			{
				"x": 3.5628178483,
				"y": -2.6211527183,
				"z": -2.043321475,
				"element": "H" 
			}
		],
		 "valence_orbital": [ 
			{
				"type": "occ",
				"energy": -0.27337,
				"method": "rhf"
			},
			{
				"type": "occ",
				"energy": -0.26998,
				"method": "rhf"
			},
			{
				"type": "occ",
				"energy": -0.26502,
				"method": "rhf"
			},
			{
				"type": "occ",
				"energy": -0.26147,
				"method": "rhf"
			},
			{
				"type": "occ",
				"energy": -0.25173,
				"method": "rhf"
			},
			{
				"type": "unocc",
				"energy": -0.09648,
				"method": "rhf"
			},
			{
				"type": "unocc",
				"energy": -0.07425,
				"method": "rhf"
			},
			{
				"type": "unocc",
				"energy": -0.0728,
				"method": "rhf"
			},
			{
				"type": "unocc",
				"energy": -0.05681,
				"method": "rhf"
			},
			{
				"type": "unocc",
				"energy": -0.05234,
				"method": "rhf"
			}
		],
		"cosmo_sigma_profile": { 
			"0.0": 0.0,
			"0.0": 0.0,
			"0.0": 0.0,
			"0.0": 0.0,
			"0.0": 0.0,
			"0.0": 0.0,
			"0.0": 0.0,
			"0.0": 0.0,
			"0.0": 0.0,
			"0.0": 0.0,
			"0.0": 0.0,
			"0.0": 0.0,
			"0.0": 0.0,
			"0.0": 0.0,
			"0.0": 0.0,
			"0.0": 0.0,
			"0.0": 0.0,
			"0.0": 0.0,
			"0.0": 0.0,
			"0.0": 0.0,
			"0.0": 0.0,
			"0.0": 0.0,
			"0.0": 0.0,
			"0.0": 0.0,
			"0.0": 0.0,
			"0.0": 0.0,
			"0.0": 0.0,
			"0.0": 0.0,
			"0.0": 0.0,
			"0.0": 0.0,
			"0.0": 0.0,
			"0.0": 0.0,
			"0.0": 0.0,
			"0.0": 0.0,
			"0.0": 0.0,
			"0.0": 0.0,
			"0.0": 0.0,
			"0.0": 0.0,
			"0.0": 0.0,
			"0.0": 0.0,
			"0.0": 0.0,
			"0.0": 0.0,
			"0.0": 0.0,
			"0.0": 0.0,
			"0.0": 0.0,
			"0.0": 0.0,
			"0.0": 0.0,
			"0.0": 0.0,
			"0.0": 0.0,
			"0.0": 0.0,
			"0.0": 0.0
		}
	}
}
