{
	 "smiles": "NS(=O)(=O)C1=CC(C(O)=O)=C(O)C=C1", 
	 "Tm": 507.15, 
	 "num_atms": 21, 
	 "gaussian": { 
		 "optdone": 1, 
		 "sigma_profile": "yes", 
		 "theory": "DFT", 
		 "functional": "B3LYP", 
		 "basiset": "6-31G**", 
		 "properties": { 
			 "R2extent": 4183.8522, 
			 "electric_dipole_moment_norm": 8.22299458896, 
			 "electric_quadrupole_moment_norm": 32.8973494543, 
			 "total_energy": -1099.95853383, 
			 "HOMO_LUMO_gap": 0.20031, 
			 "cosmo_polarized_energy": -32.03, 
			 "cosmo_cavitation_energy": 27.48, 
			 "cosmo_dispersion_energy": -20.9, 
			 "cosmo_repulsion_energy": 1.6, 
			 "cosmo_total_nonelectrostatic_energy": 8.17, 
			 "SMD_solvation_energy": 5.91 
		},
		"coords": [
			{
				"x": -0.5459450055,
				"y": -1.2772964641,
				"z": -2.3298325936,
				"element": "N" 
			},
			{
				"x": -1.031464722,
				"y": -1.927186464,
				"z": -0.8621756389,
				"element": "S" 
			},
			{
				"x": -2.1718303732,
				"y": -1.1226871063,
				"z": -0.4339542014,
				"element": "O" 
			},
			{
				"x": -1.1005566203,
				"y": -3.3729980339,
				"z": -1.0691697909,
				"element": "O" 
			},
			{
				"x": 0.3040666339,
				"y": -1.639396183,
				"z": 0.3101345825,
				"element": "C" 
			},
			{
				"x": 0.4736068003,
				"y": -0.379917581,
				"z": 0.8774330703,
				"element": "C" 
			},
			{
				"x": 1.5104431136,
				"y": -0.1329765246,
				"z": 1.7836162887,
				"element": "C" 
			},
			{
				"x": 1.606243919,
				"y": 1.2772314499,
				"z": 2.3205125403,
				"element": "C" 
			},
			{
				"x": 2.5517728782,
				"y": 1.5436334005,
				"z": 3.2387876293,
				"element": "O" 
			},
			{
				"x": 0.8558821409,
				"y": 2.145570322,
				"z": 1.9354383476,
				"element": "O" 
			},
			{
				"x": 2.3658090197,
				"y": -1.202684879,
				"z": 2.1169864408,
				"element": "C" 
			},
			{
				"x": 3.3789939084,
				"y": -0.9660843252,
				"z": 3.0085680831,
				"element": "O" 
			},
			{
				"x": 2.186511932,
				"y": -2.4705929972,
				"z": 1.5557236054,
				"element": "C" 
			},
			{
				"x": 1.1556680952,
				"y": -2.6936827051,
				"z": 0.6496823221,
				"element": "C" 
			},
			{
				"x": 0.2624976814,
				"y": -1.7398584033,
				"z": -2.73194594,
				"element": "H" 
			},
			{
				"x": -0.4766139593,
				"y": -0.2649847397,
				"z": -2.3197655866,
				"element": "H" 
			},
			{
				"x": -0.1976943958,
				"y": 0.4414697479,
				"z": 0.6498168739,
				"element": "H" 
			},
			{
				"x": 3.0764322363,
				"y": 0.7483218802,
				"z": 3.436336862,
				"element": "H" 
			},
			{
				"x": 3.8730031731,
				"y": -1.7752324163,
				"z": 3.1941275324,
				"element": "H" 
			},
			{
				"x": 2.8530827932,
				"y": -3.283189639,
				"z": 1.8352330513,
				"element": "H" 
			},
			{
				"x": 0.9938907509,
				"y": -3.675558339,
				"z": 0.2187465216,
				"element": "H" 
			}
		],
		 "valence_orbital": [ 
			{
				"type": "occ",
				"energy": -0.31125,
				"method": "rhf"
			},
			{
				"type": "occ",
				"energy": -0.31043,
				"method": "rhf"
			},
			{
				"type": "occ",
				"energy": -0.29147,
				"method": "rhf"
			},
			{
				"type": "occ",
				"energy": -0.28035,
				"method": "rhf"
			},
			{
				"type": "occ",
				"energy": -0.26945,
				"method": "rhf"
			},
			{
				"type": "unocc",
				"energy": -0.06914,
				"method": "rhf"
			},
			{
				"type": "unocc",
				"energy": -0.04792,
				"method": "rhf"
			},
			{
				"type": "unocc",
				"energy": 0.02064,
				"method": "rhf"
			},
			{
				"type": "unocc",
				"energy": 0.02914,
				"method": "rhf"
			},
			{
				"type": "unocc",
				"energy": 0.04413,
				"method": "rhf"
			}
		],
		"cosmo_sigma_profile": { 
			"-0.025": 0.0,
			"-0.024": 0.0,
			"-0.023": 0.0,
			"-0.022": 0.0,
			"-0.021": 0.0297507664656,
			"-0.02": 1.01245284411,
			"-0.019": 1.54186598674,
			"-0.018": 0.998208953788,
			"-0.017": 1.2002348975,
			"-0.016": 1.40135298114,
			"-0.015": 3.90617725929,
			"-0.014": 3.33868052591,
			"-0.013": 4.09822014779,
			"-0.012": 3.84385659057,
			"-0.011": 3.92015522085,
			"-0.01": 4.29008537378,
			"-0.009": 4.67013022744,
			"-0.008": 5.53864141319,
			"-0.007": 7.68241085407,
			"-0.006": 7.14802252017,
			"-0.005": 7.25737701565,
			"-0.004": 7.46279813054,
			"-0.003": 9.90585724201,
			"-0.002": 11.1685438196,
			"-0.001": 14.0811781213,
			"0.0": 15.88648213,
			"0.001": 12.3773981583,
			"0.002": 6.66187816759,
			"0.003": 4.8782069957,
			"0.004": 4.49285415375,
			"0.005": 5.31495829796,
			"0.006": 5.85051230747,
			"0.007": 7.04422008976,
			"0.008": 6.32850772696,
			"0.009": 7.50446559376,
			"0.01": 13.1006136063,
			"0.011": 16.2760162698,
			"0.012": 7.52552874978,
			"0.013": 1.7979281014,
			"0.014": 0.124324612599,
			"0.015": 0.0,
			"0.016": 0.0,
			"0.017": 0.0,
			"0.018": 0.0,
			"0.019": 0.0,
			"0.02": 0.0,
			"0.021": 0.0,
			"0.022": 0.0,
			"0.023": 0.0,
			"0.024": 0.0,
			"0.025": 0.0
		}
	}
}
