{
	 "smiles": "CC1=CC(C(O)=O)=C(C)N1C1=CN=CC=C1", 
	 "Tm": 466.15, 
	 "num_atms": 28, 
	 "gaussian": { 
		 "optdone": 1, 
		 "sigma_profile": "yes", 
		 "theory": "DFT", 
		 "functional": "B3LYP", 
		 "basiset": "6-31G**", 
		 "properties": { 
			 "R2extent": 4703.0919, 
			 "electric_dipole_moment_norm": 6.34649578665, 
			 "electric_quadrupole_moment_norm": 23.6250681656, 
			 "total_energy": -724.46260336, 
			 "HOMO_LUMO_gap": 0.16677, 
			 "cosmo_polarized_energy": -19.49, 
			 "cosmo_cavitation_energy": 32.18, 
			 "cosmo_dispersion_energy": -22.36, 
			 "cosmo_repulsion_energy": 1.74, 
			 "cosmo_total_nonelectrostatic_energy": 11.56, 
			 "SMD_solvation_energy": 5.22 
		},
		"coords": [
			{
				"x": -1.6423724436,
				"y": 0.6552390116,
				"z": -1.4252249465,
				"element": "C" 
			},
			{
				"x": -0.3391290279,
				"y": 0.515847391,
				"z": -0.7057413098,
				"element": "C" 
			},
			{
				"x": 0.2242109708,
				"y": 1.2960814847,
				"z": 0.2679965246,
				"element": "C" 
			},
			{
				"x": 1.4554177351,
				"y": 0.6924997918,
				"z": 0.6716160343,
				"element": "C" 
			},
			{
				"x": 2.3422966423,
				"y": 1.2985964714,
				"z": 1.6840749622,
				"element": "C" 
			},
			{
				"x": 3.2325824249,
				"y": 0.4646333237,
				"z": 2.3102513798,
				"element": "O" 
			},
			{
				"x": 2.3167135685,
				"y": 2.4702828026,
				"z": 1.9837478376,
				"element": "O" 
			},
			{
				"x": 1.6326559988,
				"y": -0.4576798028,
				"z": -0.0916045922,
				"element": "C" 
			},
			{
				"x": 2.7766067111,
				"y": -1.4231889405,
				"z": -0.1847886534,
				"element": "C" 
			},
			{
				"x": 0.5316657719,
				"y": -0.5586227389,
				"z": -0.9279652516,
				"element": "N" 
			},
			{
				"x": 0.3243114314,
				"y": -1.5921507314,
				"z": -1.8879154215,
				"element": "C" 
			},
			{
				"x": 0.0221348888,
				"y": -2.8943738487,
				"z": -1.4714854101,
				"element": "C" 
			},
			{
				"x": -0.1774754673,
				"y": -3.9103100698,
				"z": -2.3152088889,
				"element": "N" 
			},
			{
				"x": -0.0938954592,
				"y": -3.6508663795,
				"z": -3.6261924306,
				"element": "C" 
			},
			{
				"x": 0.1932390211,
				"y": -2.3868736751,
				"z": -4.1455260521,
				"element": "C" 
			},
			{
				"x": 0.4130037873,
				"y": -1.335457887,
				"z": -3.2584754199,
				"element": "C" 
			},
			{
				"x": -1.5194930557,
				"y": 0.8060017898,
				"z": -2.5041417028,
				"element": "H" 
			},
			{
				"x": -2.1768471289,
				"y": 1.521579942,
				"z": -1.0293691167,
				"element": "H" 
			},
			{
				"x": -2.2832349491,
				"y": -0.2246082086,
				"z": -1.2926564571,
				"element": "H" 
			},
			{
				"x": -0.1871434637,
				"y": 2.2042760014,
				"z": 0.683490401,
				"element": "H" 
			},
			{
				"x": 2.9873839187,
				"y": -0.4541405843,
				"z": 2.1380197347,
				"element": "H" 
			},
			{
				"x": 3.6772714628,
				"y": -0.9830136944,
				"z": 0.2486296377,
				"element": "H" 
			},
			{
				"x": 3.0036857588,
				"y": -1.6691541699,
				"z": -1.2268712938,
				"element": "H" 
			},
			{
				"x": 2.5790249337,
				"y": -2.3738283195,
				"z": 0.3279775369,
				"element": "H" 
			},
			{
				"x": -0.0621462941,
				"y": -3.1113310809,
				"z": -0.4080330194,
				"element": "H" 
			},
			{
				"x": -0.2652755004,
				"y": -4.4933683908,
				"z": -4.2931813657,
				"element": "H" 
			},
			{
				"x": 0.2515480685,
				"y": -2.2337423655,
				"z": -5.2183480036,
				"element": "H" 
			},
			{
				"x": 0.6566596952,
				"y": -0.3374271222,
				"z": -3.6093747131,
				"element": "H" 
			}
		],
		 "valence_orbital": [ 
			{
				"type": "occ",
				"energy": -0.28894,
				"method": "rhf"
			},
			{
				"type": "occ",
				"energy": -0.27947,
				"method": "rhf"
			},
			{
				"type": "occ",
				"energy": -0.26012,
				"method": "rhf"
			},
			{
				"type": "occ",
				"energy": -0.24618,
				"method": "rhf"
			},
			{
				"type": "occ",
				"energy": -0.21786,
				"method": "rhf"
			},
			{
				"type": "unocc",
				"energy": -0.05109,
				"method": "rhf"
			},
			{
				"type": "unocc",
				"energy": -0.04018,
				"method": "rhf"
			},
			{
				"type": "unocc",
				"energy": -0.00995,
				"method": "rhf"
			},
			{
				"type": "unocc",
				"energy": 0.03304,
				"method": "rhf"
			},
			{
				"type": "unocc",
				"energy": 0.0662,
				"method": "rhf"
			}
		],
		"cosmo_sigma_profile": { 
			"-0.025": 0.0,
			"-0.024": 0.0,
			"-0.023": 0.0,
			"-0.022": 0.0,
			"-0.021": 0.0,
			"-0.02": 0.0,
			"-0.019": 0.0,
			"-0.018": 0.0,
			"-0.017": 0.184309774381,
			"-0.016": 0.748627143948,
			"-0.015": 0.951985558326,
			"-0.014": 0.60648219091,
			"-0.013": 0.490464456948,
			"-0.012": 1.21608374649,
			"-0.011": 1.15365409356,
			"-0.01": 1.01167469098,
			"-0.009": 0.924221372489,
			"-0.008": 4.04623371078,
			"-0.007": 9.09248929247,
			"-0.006": 14.7888855805,
			"-0.005": 20.6336535529,
			"-0.004": 20.6203790696,
			"-0.003": 21.9510540111,
			"-0.002": 22.5224914427,
			"-0.001": 20.9617023813,
			"0.0": 19.0386225361,
			"0.001": 15.5201759711,
			"0.002": 11.61888611,
			"0.003": 7.58155718979,
			"0.004": 7.19281920255,
			"0.005": 7.68807512263,
			"0.006": 6.77420929783,
			"0.007": 4.24455108385,
			"0.008": 4.01228739182,
			"0.009": 4.72581831158,
			"0.01": 4.20566475756,
			"0.011": 5.27596921707,
			"0.012": 7.52743947992,
			"0.013": 5.63493828999,
			"0.014": 1.85769312504,
			"0.015": 1.32676961968,
			"0.016": 0.398520401213,
			"0.017": 0.0,
			"0.018": 0.0,
			"0.019": 0.0,
			"0.02": 0.0,
			"0.021": 0.0,
			"0.022": 0.0,
			"0.023": 0.0,
			"0.024": 0.0,
			"0.025": 0.0
		}
	}
}
