{
	 "smiles": "OC(=O)C1CCCN1", 
	 "Tm": 503.15, 
	 "num_atms": 17, 
	 "gaussian": { 
		 "optdone": 1, 
		 "sigma_profile": "yes", 
		 "theory": "DFT", 
		 "functional": "B3LYP", 
		 "basiset": "6-31G**", 
		 "properties": { 
			 "R2extent": 1436.5932, 
			 "electric_dipole_moment_norm": 5.61036711366, 
			 "electric_quadrupole_moment_norm": 16.7266955167, 
			 "total_energy": -401.165873334, 
			 "HOMO_LUMO_gap": 0.26089, 
			 "cosmo_polarized_energy": -13.09, 
			 "cosmo_cavitation_energy": 19.24, 
			 "cosmo_dispersion_energy": -14.71, 
			 "cosmo_repulsion_energy": 1.24, 
			 "cosmo_total_nonelectrostatic_energy": 5.78, 
			 "SMD_solvation_energy": 3.56 
		},
		"coords": [
			{
				"x": -1.6999400127,
				"y": -0.9390960182,
				"z": -2.4634977354,
				"element": "O" 
			},
			{
				"x": -2.136926832,
				"y": -0.7010666724,
				"z": -1.2214139397,
				"element": "C" 
			},
			{
				"x": -3.3018418208,
				"y": -0.7308174588,
				"z": -0.8959344358,
				"element": "O" 
			},
			{
				"x": -1.002681363,
				"y": -0.3835448732,
				"z": -0.2198744149,
				"element": "C" 
			},
			{
				"x": -0.9485801761,
				"y": -1.4238545668,
				"z": 0.9204604738,
				"element": "C" 
			},
			{
				"x": 0.1132651318,
				"y": -2.4193251559,
				"z": 0.4263340426,
				"element": "C" 
			},
			{
				"x": 1.1438302579,
				"y": -1.5019600214,
				"z": -0.2420499287,
				"element": "C" 
			},
			{
				"x": 0.3126761992,
				"y": -0.4694414078,
				"z": -0.9076581718,
				"element": "N" 
			},
			{
				"x": -0.713783161,
				"y": -0.8586550209,
				"z": -2.3788945635,
				"element": "H" 
			},
			{
				"x": -1.2018589883,
				"y": 0.6221254856,
				"z": 0.1652178119,
				"element": "H" 
			},
			{
				"x": -0.6138206908,
				"y": -0.9446569475,
				"z": 1.8470139095,
				"element": "H" 
			},
			{
				"x": -1.9295043125,
				"y": -1.8663704646,
				"z": 1.1034141505,
				"element": "H" 
			},
			{
				"x": -0.3190795459,
				"y": -3.1028071786,
				"z": -0.3133769818,
				"element": "H" 
			},
			{
				"x": 0.5485533004,
				"y": -3.0227659496,
				"z": 1.2269644182,
				"element": "H" 
			},
			{
				"x": 1.8053481249,
				"y": -1.0598428801,
				"z": 0.5173280174,
				"element": "H" 
			},
			{
				"x": 1.7722244985,
				"y": -2.0197999368,
				"z": -0.9736181417,
				"element": "H" 
			},
			{
				"x": 0.7822193904,
				"y": 0.428579067,
				"z": -0.9468145104,
				"element": "H" 
			}
		],
		 "valence_orbital": [ 
			{
				"type": "occ",
				"energy": -0.354,
				"method": "rhf"
			},
			{
				"type": "occ",
				"energy": -0.34107,
				"method": "rhf"
			},
			{
				"type": "occ",
				"energy": -0.29392,
				"method": "rhf"
			},
			{
				"type": "occ",
				"energy": -0.2802,
				"method": "rhf"
			},
			{
				"type": "occ",
				"energy": -0.24022,
				"method": "rhf"
			},
			{
				"type": "unocc",
				"energy": 0.02067,
				"method": "rhf"
			},
			{
				"type": "unocc",
				"energy": 0.05907,
				"method": "rhf"
			},
			{
				"type": "unocc",
				"energy": 0.09277,
				"method": "rhf"
			},
			{
				"type": "unocc",
				"energy": 0.11265,
				"method": "rhf"
			},
			{
				"type": "unocc",
				"energy": 0.13147,
				"method": "rhf"
			}
		],
		"cosmo_sigma_profile": { 
			"-0.025": 0.0,
			"-0.024": 0.0,
			"-0.023": 0.0,
			"-0.022": 0.0,
			"-0.021": 0.0,
			"-0.02": 0.0,
			"-0.019": 0.0,
			"-0.018": 0.0,
			"-0.017": 0.0,
			"-0.016": 0.0,
			"-0.015": 0.0,
			"-0.014": 0.0,
			"-0.013": 0.042165125525,
			"-0.012": 1.0313246936,
			"-0.011": 1.89336673853,
			"-0.01": 1.24732249246,
			"-0.009": 1.43456664205,
			"-0.008": 2.99222868047,
			"-0.007": 4.47081209673,
			"-0.006": 5.43935773498,
			"-0.005": 5.468494626,
			"-0.004": 18.8606504026,
			"-0.003": 20.9241906453,
			"-0.002": 17.1888961584,
			"-0.001": 14.9289626627,
			"0.0": 9.61498268951,
			"0.001": 4.27893960406,
			"0.002": 2.37881279204,
			"0.003": 2.05988390048,
			"0.004": 2.30505125044,
			"0.005": 2.22058738447,
			"0.006": 2.72880470049,
			"0.007": 2.44457048589,
			"0.008": 2.29681583961,
			"0.009": 2.57110712325,
			"0.01": 3.57878662406,
			"0.011": 5.49516629956,
			"0.012": 5.10659014391,
			"0.013": 5.0193323519,
			"0.014": 1.92281642721,
			"0.015": 0.0496838937779,
			"0.016": 0.0,
			"0.017": 0.0,
			"0.018": 0.0,
			"0.019": 0.0,
			"0.02": 0.0,
			"0.021": 0.0,
			"0.022": 0.0,
			"0.023": 0.0,
			"0.024": 0.0,
			"0.025": 0.0
		}
	}
}
