{
	 "smiles": "COC1=C(OC)C=C(CNC(N)=S)C=C1", 
	 "Tm": 465.15, 
	 "num_atms": 29, 
	 "gaussian": { 
		 "optdone": 1, 
		 "sigma_profile": "yes", 
		 "theory": "DFT", 
		 "functional": "B3LYP", 
		 "basiset": "6-31G**", 
		 "properties": { 
			 "R2extent": 6174.5588, 
			 "electric_dipole_moment_norm": 5.58522239665, 
			 "electric_quadrupole_moment_norm": 29.0297866997, 
			 "total_energy": -1047.62342728, 
			 "HOMO_LUMO_gap": 0.18971, 
			 "cosmo_polarized_energy": -21.28, 
			 "cosmo_cavitation_energy": 34.57, 
			 "cosmo_dispersion_energy": -24.94, 
			 "cosmo_repulsion_energy": 1.96, 
			 "cosmo_total_nonelectrostatic_energy": 11.59, 
			 "SMD_solvation_energy": 6.11 
		},
		"coords": [
			{
				"x": 3.6681648336,
				"y": -0.4181764231,
				"z": 0.997551518,
				"element": "C" 
			},
			{
				"x": 3.2732402132,
				"y": 0.7625026323,
				"z": 0.2880784066,
				"element": "O" 
			},
			{
				"x": 1.9299238063,
				"y": 0.8446150833,
				"z": -0.0013830366,
				"element": "C" 
			},
			{
				"x": 0.9658316159,
				"y": 1.0335346975,
				"z": 1.0055371353,
				"element": "C" 
			},
			{
				"x": 1.3133617042,
				"y": 1.0875329604,
				"z": 2.3369287204,
				"element": "O" 
			},
			{
				"x": 2.042550618,
				"y": 2.2608835111,
				"z": 2.7204784194,
				"element": "C" 
			},
			{
				"x": -0.3843902957,
				"y": 1.1218679124,
				"z": 0.6600782381,
				"element": "C" 
			},
			{
				"x": -0.7982434288,
				"y": 1.0506643562,
				"z": -0.6738378202,
				"element": "C" 
			},
			{
				"x": -2.2639236363,
				"y": 1.1726820262,
				"z": -1.0311387648,
				"element": "C" 
			},
			{
				"x": -2.7229695736,
				"y": -0.008192324,
				"z": -1.7591641863,
				"element": "N" 
			},
			{
				"x": -3.8227210256,
				"y": -0.0357510653,
				"z": -2.5571781973,
				"element": "C" 
			},
			{
				"x": -4.1378492894,
				"y": -1.2821189348,
				"z": -3.0376834267,
				"element": "N" 
			},
			{
				"x": -4.7607522249,
				"y": 1.3084925488,
				"z": -2.9287411377,
				"element": "S" 
			},
			{
				"x": 0.17324579,
				"y": 0.8914821732,
				"z": -1.6720753057,
				"element": "C" 
			},
			{
				"x": 1.5208793239,
				"y": 0.7832001936,
				"z": -1.3359861649,
				"element": "C" 
			},
			{
				"x": 3.1575562404,
				"y": -0.4944360145,
				"z": 1.9623301547,
				"element": "H" 
			},
			{
				"x": 4.7453633041,
				"y": -0.3338453884,
				"z": 1.1544391655,
				"element": "H" 
			},
			{
				"x": 3.4590460376,
				"y": -1.3158020108,
				"z": 0.4019424062,
				"element": "H" 
			},
			{
				"x": 1.4406762125,
				"y": 3.1624854101,
				"z": 2.5520263997,
				"element": "H" 
			},
			{
				"x": 2.2463547082,
				"y": 2.1578259471,
				"z": 3.7881321587,
				"element": "H" 
			},
			{
				"x": 2.9841949702,
				"y": 2.34332337,
				"z": 2.169136062,
				"element": "H" 
			},
			{
				"x": -1.1056657003,
				"y": 1.253629881,
				"z": 1.4616915457,
				"element": "H" 
			},
			{
				"x": -2.865950364,
				"y": 1.3256764424,
				"z": -0.1257959758,
				"element": "H" 
			},
			{
				"x": -2.450900115,
				"y": 2.0345891529,
				"z": -1.6786134879,
				"element": "H" 
			},
			{
				"x": -2.3521796251,
				"y": -0.8925276853,
				"z": -1.4352194302,
				"element": "H" 
			},
			{
				"x": -3.4083325039,
				"y": -1.977144014,
				"z": -3.1307630152,
				"element": "H" 
			},
			{
				"x": -4.8473727365,
				"y": -1.2900354428,
				"z": -3.7548084812,
				"element": "H" 
			},
			{
				"x": -0.1299265134,
				"y": 0.8447892795,
				"z": -2.7141744245,
				"element": "H" 
			},
			{
				"x": 2.2829876544,
				"y": 0.6532517249,
				"z": -2.0980874752,
				"element": "H" 
			}
		],
		 "valence_orbital": [ 
			{
				"type": "occ",
				"energy": -0.26815,
				"method": "rhf"
			},
			{
				"type": "occ",
				"energy": -0.25104,
				"method": "rhf"
			},
			{
				"type": "occ",
				"energy": -0.23389,
				"method": "rhf"
			},
			{
				"type": "occ",
				"energy": -0.2143,
				"method": "rhf"
			},
			{
				"type": "occ",
				"energy": -0.19976,
				"method": "rhf"
			},
			{
				"type": "unocc",
				"energy": -0.01005,
				"method": "rhf"
			},
			{
				"type": "unocc",
				"energy": -0.00901,
				"method": "rhf"
			},
			{
				"type": "unocc",
				"energy": 0.00291,
				"method": "rhf"
			},
			{
				"type": "unocc",
				"energy": 0.05995,
				"method": "rhf"
			},
			{
				"type": "unocc",
				"energy": 0.08051,
				"method": "rhf"
			}
		],
		"cosmo_sigma_profile": { 
			"-0.025": 0.0,
			"-0.024": 0.0,
			"-0.023": 0.0,
			"-0.022": 0.0,
			"-0.021": 0.0,
			"-0.02": 0.0,
			"-0.019": 0.0,
			"-0.018": 0.0,
			"-0.017": 0.330378590569,
			"-0.016": 1.55379550571,
			"-0.015": 2.41869785444,
			"-0.014": 2.69319914753,
			"-0.013": 3.0971923992,
			"-0.012": 2.86480045606,
			"-0.011": 2.87455693721,
			"-0.01": 3.18535337001,
			"-0.009": 2.44504002303,
			"-0.008": 1.17988762957,
			"-0.007": 2.47596630986,
			"-0.006": 9.14333695455,
			"-0.005": 15.5908857493,
			"-0.004": 21.6760026643,
			"-0.003": 28.1544580139,
			"-0.002": 25.1466190658,
			"-0.001": 17.2439329457,
			"0.0": 16.8579595564,
			"0.001": 14.9456385525,
			"0.002": 11.8969662604,
			"0.003": 13.5314804152,
			"0.004": 14.631467527,
			"0.005": 10.7287827446,
			"0.006": 6.76040674131,
			"0.007": 6.57804838705,
			"0.008": 6.01252808145,
			"0.009": 7.35433116848,
			"0.01": 7.24310824686,
			"0.011": 9.91088258286,
			"0.012": 6.32752954591,
			"0.013": 0.81874138428,
			"0.014": 0.0,
			"0.015": 0.0,
			"0.016": 0.0,
			"0.017": 0.0,
			"0.018": 0.0,
			"0.019": 0.0,
			"0.02": 0.0,
			"0.021": 0.0,
			"0.022": 0.0,
			"0.023": 0.0,
			"0.024": 0.0,
			"0.025": 0.0
		}
	}
}
