{
	 "smiles": "ONC(=O)C1=CC=CS1", 
	 "Tm": 398.15, 
	 "num_atms": 14, 
	 "gaussian": { 
		 "optdone": 1, 
		 "sigma_profile": "yes", 
		 "theory": "DFT", 
		 "functional": "B3LYP", 
		 "basiset": "6-31G**", 
		 "properties": { 
			 "R2extent": 1921.0182, 
			 "electric_dipole_moment_norm": 3.98741752391, 
			 "electric_quadrupole_moment_norm": 8.34990785458, 
			 "total_energy": -796.865011936, 
			 "HOMO_LUMO_gap": 0.17632, 
			 "cosmo_polarized_energy": -12.25, 
			 "cosmo_cavitation_energy": 20.26, 
			 "cosmo_dispersion_energy": -15.83, 
			 "cosmo_repulsion_energy": 1.25, 
			 "cosmo_total_nonelectrostatic_energy": 5.68, 
			 "SMD_solvation_energy": 5.14 
		},
		"coords": [
			{
				"x": 1.8369969343,
				"y": 0.240090164,
				"z": 3.6570218147,
				"element": "O" 
			},
			{
				"x": 1.719141199,
				"y": 0.8649535923,
				"z": 2.404408016,
				"element": "N" 
			},
			{
				"x": 0.4738696667,
				"y": 0.7286088603,
				"z": 1.8261174006,
				"element": "C" 
			},
			{
				"x": -0.4590483717,
				"y": 0.2617153188,
				"z": 2.4851086362,
				"element": "O" 
			},
			{
				"x": 0.3456232828,
				"y": 1.2062488106,
				"z": 0.442840828,
				"element": "C" 
			},
			{
				"x": 1.1983981579,
				"y": 1.9802561015,
				"z": -0.314541755,
				"element": "C" 
			},
			{
				"x": 0.7017398773,
				"y": 2.2281669201,
				"z": -1.6228730073,
				"element": "C" 
			},
			{
				"x": -0.522113565,
				"y": 1.6449647222,
				"z": -1.8357389751,
				"element": "C" 
			},
			{
				"x": -1.0928998463,
				"y": 0.7915097652,
				"z": -0.4477055691,
				"element": "S" 
			},
			{
				"x": 0.9159096748,
				"y": -0.0764732791,
				"z": 3.7939561943,
				"element": "H" 
			},
			{
				"x": 2.5322713642,
				"y": 0.6519392621,
				"z": 1.8385170703,
				"element": "H" 
			},
			{
				"x": 2.1320103773,
				"y": 2.3826786762,
				"z": 0.0626513755,
				"element": "H" 
			},
			{
				"x": 1.2235144422,
				"y": 2.8180134196,
				"z": -2.3673440432,
				"element": "H" 
			},
			{
				"x": -1.1238131934,
				"y": 1.6749276661,
				"z": -2.7340179861,
				"element": "H" 
			}
		],
		 "valence_orbital": [ 
			{
				"type": "occ",
				"energy": -0.35247,
				"method": "rhf"
			},
			{
				"type": "occ",
				"energy": -0.28757,
				"method": "rhf"
			},
			{
				"type": "occ",
				"energy": -0.27078,
				"method": "rhf"
			},
			{
				"type": "occ",
				"energy": -0.25908,
				"method": "rhf"
			},
			{
				"type": "occ",
				"energy": -0.23659,
				"method": "rhf"
			},
			{
				"type": "unocc",
				"energy": -0.06027,
				"method": "rhf"
			},
			{
				"type": "unocc",
				"energy": 0.01581,
				"method": "rhf"
			},
			{
				"type": "unocc",
				"energy": 0.02436,
				"method": "rhf"
			},
			{
				"type": "unocc",
				"energy": 0.06448,
				"method": "rhf"
			},
			{
				"type": "unocc",
				"energy": 0.07815,
				"method": "rhf"
			}
		],
		"cosmo_sigma_profile": { 
			"-0.025": 0.0,
			"-0.024": 0.0,
			"-0.023": 0.0,
			"-0.022": 0.0,
			"-0.021": 0.0,
			"-0.02": 0.0,
			"-0.019": 0.0,
			"-0.018": 0.0,
			"-0.017": 0.0364380933584,
			"-0.016": 1.12845459451,
			"-0.015": 0.844796944882,
			"-0.014": 1.04690947268,
			"-0.013": 1.03662490562,
			"-0.012": 1.70272901392,
			"-0.011": 2.5673707873,
			"-0.01": 1.95601949867,
			"-0.009": 4.09855045832,
			"-0.008": 5.57652084416,
			"-0.007": 6.33798828627,
			"-0.006": 7.81813421166,
			"-0.005": 6.74150508017,
			"-0.004": 7.38293263015,
			"-0.003": 7.10290270423,
			"-0.002": 6.51750306709,
			"-0.001": 7.33519536094,
			"0.0": 10.6063698107,
			"0.001": 11.8371474829,
			"0.002": 17.4026076605,
			"0.003": 16.3415571681,
			"0.004": 7.8979042258,
			"0.005": 2.88724549425,
			"0.006": 3.84044166034,
			"0.007": 3.52001666971,
			"0.008": 3.58224408298,
			"0.009": 3.09029014334,
			"0.01": 4.53847552745,
			"0.011": 5.42012756082,
			"0.012": 3.67306593429,
			"0.013": 0.548544758761,
			"0.014": 0.0,
			"0.015": 0.0,
			"0.016": 0.0,
			"0.017": 0.0,
			"0.018": 0.0,
			"0.019": 0.0,
			"0.02": 0.0,
			"0.021": 0.0,
			"0.022": 0.0,
			"0.023": 0.0,
			"0.024": 0.0,
			"0.025": 0.0
		}
	}
}
