{
	 "smiles": "CC(C)(C)OC(=O)N[C@H](COCC1=CC=CC=C1)C(O)=O", 
	 "Tm": 334.65, 
	 "num_atms": 42, 
	 "gaussian": { 
		 "optdone": 1, 
		 "sigma_profile": "yes", 
		 "theory": "DFT", 
		 "functional": "B3LYP", 
		 "basiset": "6-31G**", 
		 "properties": { 
			 "R2extent": 7679.5353, 
			 "electric_dipole_moment_norm": 4.2987244643, 
			 "electric_quadrupole_moment_norm": 22.4692367167, 
			 "total_energy": -1015.1603827, 
			 "HOMO_LUMO_gap": 0.23337, 
			 "cosmo_polarized_energy": -18.9, 
			 "cosmo_cavitation_energy": 45.87, 
			 "cosmo_dispersion_energy": -28.94, 
			 "cosmo_repulsion_energy": 2.26, 
			 "cosmo_total_nonelectrostatic_energy": 19.19, 
			 "SMD_solvation_energy": 9.53 
		},
		"coords": [
			{
				"x": -0.3812872591,
				"y": -0.8154820243,
				"z": 2.7939864708,
				"element": "C" 
			},
			{
				"x": -0.1634208144,
				"y": 0.7011845086,
				"z": 2.8128863905,
				"element": "C" 
			},
			{
				"x": 0.083750407,
				"y": 1.2395930266,
				"z": 4.2259279423,
				"element": "C" 
			},
			{
				"x": -1.3374588178,
				"y": 1.4237072002,
				"z": 2.1474132868,
				"element": "C" 
			},
			{
				"x": 0.9645894073,
				"y": 1.0549956255,
				"z": 1.9373121833,
				"element": "O" 
			},
			{
				"x": 2.1937238622,
				"y": 0.5369698346,
				"z": 2.1471926366,
				"element": "C" 
			},
			{
				"x": 2.5496784507,
				"y": -0.124649557,
				"z": 3.1085399077,
				"element": "O" 
			},
			{
				"x": 3.0454701161,
				"y": 0.8631082456,
				"z": 1.1220171496,
				"element": "N" 
			},
			{
				"x": 2.732698255,
				"y": 1.6324036863,
				"z": -0.0585566033,
				"element": "C" 
			},
			{
				"x": 2.3987789463,
				"y": 0.7502697564,
				"z": -1.2814619109,
				"element": "C" 
			},
			{
				"x": 1.1811804269,
				"y": 0.088958602,
				"z": -1.0222665867,
				"element": "O" 
			},
			{
				"x": 0.8653128736,
				"y": -0.8922033271,
				"z": -2.0028286417,
				"element": "C" 
			},
			{
				"x": -0.5256986304,
				"y": -1.4202771078,
				"z": -1.7509856419,
				"element": "C" 
			},
			{
				"x": -1.6104705677,
				"y": -0.5344900103,
				"z": -1.6806276389,
				"element": "C" 
			},
			{
				"x": -2.9028058515,
				"y": -1.0134921482,
				"z": -1.472656618,
				"element": "C" 
			},
			{
				"x": -3.129032793,
				"y": -2.3865580685,
				"z": -1.3378708379,
				"element": "C" 
			},
			{
				"x": -2.0555843336,
				"y": -3.274274207,
				"z": -1.4058901367,
				"element": "C" 
			},
			{
				"x": -0.7599680822,
				"y": -2.7909889891,
				"z": -1.6069357114,
				"element": "C" 
			},
			{
				"x": 3.9283845408,
				"y": 2.5181791601,
				"z": -0.3921993715,
				"element": "C" 
			},
			{
				"x": 3.6134142084,
				"y": 3.4621590798,
				"z": -1.3048523403,
				"element": "O" 
			},
			{
				"x": 5.0399685362,
				"y": 2.3850401096,
				"z": 0.0689988043,
				"element": "O" 
			},
			{
				"x": -1.3011857534,
				"y": -1.0602125284,
				"z": 3.3351397365,
				"element": "H" 
			},
			{
				"x": -0.485216027,
				"y": -1.1666600743,
				"z": 1.7630413303,
				"element": "H" 
			},
			{
				"x": 0.453215162,
				"y": -1.3357524213,
				"z": 3.2650452043,
				"element": "H" 
			},
			{
				"x": 0.9411927857,
				"y": 0.746056737,
				"z": 4.68375422,
				"element": "H" 
			},
			{
				"x": 0.2699290335,
				"y": 2.318056165,
				"z": 4.194790183,
				"element": "H" 
			},
			{
				"x": -0.8016052111,
				"y": 1.0656368423,
				"z": 4.8465552731,
				"element": "H" 
			},
			{
				"x": -1.1563172254,
				"y": 2.502349629,
				"z": 2.1107329657,
				"element": "H" 
			},
			{
				"x": -2.2566777942,
				"y": 1.2470730556,
				"z": 2.7141242167,
				"element": "H" 
			},
			{
				"x": -1.4801310664,
				"y": 1.0585685717,
				"z": 1.1266675534,
				"element": "H" 
			},
			{
				"x": 4.0181867634,
				"y": 0.6466800285,
				"z": 1.2893309912,
				"element": "H" 
			},
			{
				"x": 1.8649812357,
				"y": 2.2672626649,
				"z": 0.1378346015,
				"element": "H" 
			},
			{
				"x": 2.3227805064,
				"y": 1.3759758322,
				"z": -2.1849821198,
				"element": "H" 
			},
			{
				"x": 3.2186351281,
				"y": 0.0285491416,
				"z": -1.4334284214,
				"element": "H" 
			},
			{
				"x": 1.5994953889,
				"y": -1.7128254724,
				"z": -1.9759096201,
				"element": "H" 
			},
			{
				"x": 0.921953228,
				"y": -0.4403986342,
				"z": -3.0086725964,
				"element": "H" 
			},
			{
				"x": -1.4319625694,
				"y": 0.5320258474,
				"z": -1.7828166037,
				"element": "H" 
			},
			{
				"x": -3.735241187,
				"y": -0.3174408155,
				"z": -1.4191947006,
				"element": "H" 
			},
			{
				"x": -4.1366194269,
				"y": -2.759844599,
				"z": -1.1786175541,
				"element": "H" 
			},
			{
				"x": -2.2225652969,
				"y": -4.3419969896,
				"z": -1.2961660515,
				"element": "H" 
			},
			{
				"x": 0.0754635128,
				"y": -3.4853525423,
				"z": -1.6501281879,
				"element": "H" 
			},
			{
				"x": 4.4306659324,
				"y": 3.9581961655,
				"z": -1.483443153,
				"element": "H" 
			}
		],
		 "valence_orbital": [ 
			{
				"type": "occ",
				"energy": -0.26912,
				"method": "rhf"
			},
			{
				"type": "occ",
				"energy": -0.25316,
				"method": "rhf"
			},
			{
				"type": "occ",
				"energy": -0.25232,
				"method": "rhf"
			},
			{
				"type": "occ",
				"energy": -0.24802,
				"method": "rhf"
			},
			{
				"type": "occ",
				"energy": -0.2465,
				"method": "rhf"
			},
			{
				"type": "unocc",
				"energy": -0.01313,
				"method": "rhf"
			},
			{
				"type": "unocc",
				"energy": -0.00701,
				"method": "rhf"
			},
			{
				"type": "unocc",
				"energy": -0.00285,
				"method": "rhf"
			},
			{
				"type": "unocc",
				"energy": 0.0589,
				"method": "rhf"
			},
			{
				"type": "unocc",
				"energy": 0.06672,
				"method": "rhf"
			}
		],
		"cosmo_sigma_profile": { 
			"-0.025": 0.0,
			"-0.024": 0.0,
			"-0.023": 0.0,
			"-0.022": 0.0,
			"-0.021": 0.0,
			"-0.02": 0.0,
			"-0.019": 0.378928039986,
			"-0.018": 1.27297611497,
			"-0.017": 0.947871458916,
			"-0.016": 0.605032109019,
			"-0.015": 0.86869133764,
			"-0.014": 1.04611788546,
			"-0.013": 0.421538716401,
			"-0.012": 0.658668337725,
			"-0.011": 1.31534820779,
			"-0.01": 1.14158692582,
			"-0.009": 1.59649110841,
			"-0.008": 1.43681796128,
			"-0.007": 3.8053451874,
			"-0.006": 10.4415503537,
			"-0.005": 23.8160507868,
			"-0.004": 37.4336539623,
			"-0.003": 33.3420584203,
			"-0.002": 25.4916874303,
			"-0.001": 27.4498326558,
			"0.0": 36.6265981363,
			"0.001": 34.6860319464,
			"0.002": 19.4346605741,
			"0.003": 17.2915039589,
			"0.004": 15.4032835782,
			"0.005": 17.1012638901,
			"0.006": 10.1315214877,
			"0.007": 7.03673866621,
			"0.008": 6.44456267052,
			"0.009": 4.29985747941,
			"0.01": 5.01031866156,
			"0.011": 5.51299524858,
			"0.012": 1.7022496738,
			"0.013": 3.33879097509,
			"0.014": 2.36569923415,
			"0.015": 0.0503326219935,
			"0.016": 0.0,
			"0.017": 0.0,
			"0.018": 0.0,
			"0.019": 0.0,
			"0.02": 0.0,
			"0.021": 0.0,
			"0.022": 0.0,
			"0.023": 0.0,
			"0.024": 0.0,
			"0.025": 0.0
		}
	}
}
