{
	 "smiles": "CCCCN1N=NN=C1CCl", 
	 "Tm": 290.15, 
	 "num_atms": 22, 
	 "gaussian": { 
		 "optdone": 1, 
		 "sigma_profile": "yes", 
		 "theory": "DFT", 
		 "functional": "B3LYP", 
		 "basiset": "6-31G**", 
		 "properties": { 
			 "R2extent": 2635.5656, 
			 "electric_dipole_moment_norm": 5.20053270829, 
			 "electric_quadrupole_moment_norm": 12.1257418899, 
			 "total_energy": -914.422612725, 
			 "HOMO_LUMO_gap": 0.24227, 
			 "cosmo_polarized_energy": -14.47, 
			 "cosmo_cavitation_energy": 26.83, 
			 "cosmo_dispersion_energy": -18.77, 
			 "cosmo_repulsion_energy": 1.53, 
			 "cosmo_total_nonelectrostatic_energy": 9.59, 
			 "SMD_solvation_energy": 2.12 
		},
		"coords": [
			{
				"x": 1.8108876957,
				"y": 1.0209499506,
				"z": 0.4575493097,
				"element": "C" 
			},
			{
				"x": 1.0761837051,
				"y": 0.5705001733,
				"z": 1.7274136496,
				"element": "C" 
			},
			{
				"x": 0.8731295006,
				"y": -0.9469923376,
				"z": 1.8819203705,
				"element": "C" 
			},
			{
				"x": -0.195490096,
				"y": -1.5905478785,
				"z": 0.9885040555,
				"element": "C" 
			},
			{
				"x": 0.1825542573,
				"y": -1.6761289222,
				"z": -0.4264464384,
				"element": "N" 
			},
			{
				"x": 1.3003901273,
				"y": -2.333568564,
				"z": -0.8009723841,
				"element": "N" 
			},
			{
				"x": 1.3604921912,
				"y": -2.2642839655,
				"z": -2.0942739064,
				"element": "N" 
			},
			{
				"x": 0.2990982212,
				"y": -1.585231278,
				"z": -2.5926815108,
				"element": "N" 
			},
			{
				"x": -0.4281141389,
				"y": -1.2264268414,
				"z": -1.5473275951,
				"element": "C" 
			},
			{
				"x": -1.6815957985,
				"y": -0.4349857224,
				"z": -1.6282039822,
				"element": "C" 
			},
			{
				"x": -3.1521949313,
				"y": -1.3962997136,
				"z": -1.138224852,
				"element": "Cl" 
			},
			{
				"x": 2.008791405,
				"y": 2.0971095389,
				"z": 0.4906310272,
				"element": "H" 
			},
			{
				"x": 1.2396770394,
				"y": 0.8232513842,
				"z": -0.4539944562,
				"element": "H" 
			},
			{
				"x": 2.7726586485,
				"y": 0.5075254241,
				"z": 0.3562203543,
				"element": "H" 
			},
			{
				"x": 0.1019853591,
				"y": 1.0753690178,
				"z": 1.7963483076,
				"element": "H" 
			},
			{
				"x": 1.6482164569,
				"y": 0.914092148,
				"z": 2.5979041418,
				"element": "H" 
			},
			{
				"x": 0.5625408383,
				"y": -1.1568823726,
				"z": 2.9128884395,
				"element": "H" 
			},
			{
				"x": 1.8206695555,
				"y": -1.4753885037,
				"z": 1.7291800011,
				"element": "H" 
			},
			{
				"x": -0.4003602916,
				"y": -2.6108580441,
				"z": 1.3260756037,
				"element": "H" 
			},
			{
				"x": -1.1369938118,
				"y": -1.0375325591,
				"z": 1.0340944211,
				"element": "H" 
			},
			{
				"x": -1.8284786608,
				"y": -0.1281849544,
				"z": -2.6620460817,
				"element": "H" 
			},
			{
				"x": -1.6636472723,
				"y": 0.4424140202,
				"z": -0.9802584746,
				"element": "H" 
			}
		],
		 "valence_orbital": [ 
			{
				"type": "occ",
				"energy": -0.32093,
				"method": "rhf"
			},
			{
				"type": "occ",
				"energy": -0.30889,
				"method": "rhf"
			},
			{
				"type": "occ",
				"energy": -0.29902,
				"method": "rhf"
			},
			{
				"type": "occ",
				"energy": -0.29867,
				"method": "rhf"
			},
			{
				"type": "occ",
				"energy": -0.28626,
				"method": "rhf"
			},
			{
				"type": "unocc",
				"energy": -0.04399,
				"method": "rhf"
			},
			{
				"type": "unocc",
				"energy": -0.00299,
				"method": "rhf"
			},
			{
				"type": "unocc",
				"energy": 0.03542,
				"method": "rhf"
			},
			{
				"type": "unocc",
				"energy": 0.06792,
				"method": "rhf"
			},
			{
				"type": "unocc",
				"energy": 0.08843,
				"method": "rhf"
			}
		],
		"cosmo_sigma_profile": { 
			"-0.025": 0.0,
			"-0.024": 0.0,
			"-0.023": 0.0,
			"-0.022": 0.0,
			"-0.021": 0.0,
			"-0.02": 0.0,
			"-0.019": 0.0,
			"-0.018": 0.0,
			"-0.017": 0.0,
			"-0.016": 0.0,
			"-0.015": 0.0,
			"-0.014": 0.0,
			"-0.013": 0.0,
			"-0.012": 0.0,
			"-0.011": 0.205215057114,
			"-0.01": 2.5649686605,
			"-0.009": 5.07897936253,
			"-0.008": 5.82421337494,
			"-0.007": 9.16463416491,
			"-0.006": 8.89748098383,
			"-0.005": 11.0016800155,
			"-0.004": 11.5133810433,
			"-0.003": 17.2290890611,
			"-0.002": 20.6301401893,
			"-0.001": 20.434612821,
			"0.0": 18.8069002633,
			"0.001": 14.6945475116,
			"0.002": 8.9839184699,
			"0.003": 7.28010099772,
			"0.004": 7.89894098888,
			"0.005": 10.3453150048,
			"0.006": 4.07989324299,
			"0.007": 3.69056573221,
			"0.008": 5.3017809472,
			"0.009": 4.32902782858,
			"0.01": 4.63927865977,
			"0.011": 3.77115741478,
			"0.012": 2.86039947787,
			"0.013": 2.20944713921,
			"0.014": 1.8997878578,
			"0.015": 0.229902397359,
			"0.016": 0.0,
			"0.017": 0.0,
			"0.018": 0.0,
			"0.019": 0.0,
			"0.02": 0.0,
			"0.021": 0.0,
			"0.022": 0.0,
			"0.023": 0.0,
			"0.024": 0.0,
			"0.025": 0.0
		}
	}
}
