{
	 "smiles": "O=C(CN1CCOCC1)N1CN(C(=O)C2=C1C=CC=C2)C1=CC=CC=C1", 
	 "Tm": 409.15, 
	 "num_atms": 47, 
	 "gaussian": { 
		 "optdone": 1, 
		 "sigma_profile": "yes", 
		 "theory": "DFT", 
		 "functional": "B3LYP", 
		 "basiset": "6-31G**", 
		 "properties": { 
			 "R2extent": 10832.5664, 
			 "electric_dipole_moment_norm": 3.86529044834, 
			 "electric_quadrupole_moment_norm": 22.7299449397, 
			 "total_energy": -1164.69524697, 
			 "HOMO_LUMO_gap": 0.15746, 
			 "cosmo_polarized_energy": -20.02, 
			 "cosmo_cavitation_energy": 47.98, 
			 "cosmo_dispersion_energy": -33.61, 
			 "cosmo_repulsion_energy": 2.53, 
			 "cosmo_total_nonelectrostatic_energy": 16.89, 
			 "SMD_solvation_energy": 5.81 
		},
		"coords": [
			{
				"x": 0.1533624357,
				"y": 1.8177786987,
				"z": 0.1046924358,
				"element": "O" 
			},
			{
				"x": 0.7607991519,
				"y": 1.078505366,
				"z": -0.6538971115,
				"element": "C" 
			},
			{
				"x": 2.2766717285,
				"y": 1.1844689342,
				"z": -0.8550435281,
				"element": "C" 
			},
			{
				"x": 2.8710408019,
				"y": 2.1717559274,
				"z": 0.0130205062,
				"element": "N" 
			},
			{
				"x": 4.1893937738,
				"y": 2.607146867,
				"z": -0.4480671155,
				"element": "C" 
			},
			{
				"x": 4.8239844577,
				"y": 3.5080348922,
				"z": 0.604520001,
				"element": "C" 
			},
			{
				"x": 5.0608058956,
				"y": 2.8291789608,
				"z": 1.8375529762,
				"element": "O" 
			},
			{
				"x": 4.2386939895,
				"y": 1.6835768845,
				"z": 2.0390788,
				"element": "C" 
			},
			{
				"x": 2.8360283112,
				"y": 1.8587861865,
				"z": 1.4581818182,
				"element": "C" 
			},
			{
				"x": 0.0830682942,
				"y": 0.0846934537,
				"z": -1.370430712,
				"element": "N" 
			},
			{
				"x": -1.2863815762,
				"y": -0.205576101,
				"z": -0.9749756138,
				"element": "C" 
			},
			{
				"x": -1.3369794148,
				"y": -1.384118349,
				"z": -0.0970605501,
				"element": "N" 
			},
			{
				"x": -0.6554063702,
				"y": -2.5168757548,
				"z": -0.5096314346,
				"element": "C" 
			},
			{
				"x": -0.7503038005,
				"y": -3.6124564732,
				"z": 0.0321623019,
				"element": "O" 
			},
			{
				"x": 0.2631828128,
				"y": -2.2991332558,
				"z": -1.6780960032,
				"element": "C" 
			},
			{
				"x": 0.669260868,
				"y": -1.0081461886,
				"z": -2.0712461652,
				"element": "C" 
			},
			{
				"x": 1.5475335308,
				"y": -0.8514730681,
				"z": -3.1480543337,
				"element": "C" 
			},
			{
				"x": 2.0492049478,
				"y": -1.9768829424,
				"z": -3.8012535577,
				"element": "C" 
			},
			{
				"x": 1.6680884444,
				"y": -3.2610026216,
				"z": -3.4009514125,
				"element": "C" 
			},
			{
				"x": 0.775531431,
				"y": -3.4169898862,
				"z": -2.3443398654,
				"element": "C" 
			},
			{
				"x": -2.180833391,
				"y": -1.3625593991,
				"z": 1.0604638474,
				"element": "C" 
			},
			{
				"x": -2.1420737274,
				"y": -0.2466578497,
				"z": 1.9089988978,
				"element": "C" 
			},
			{
				"x": -2.9758334518,
				"y": -0.1922192984,
				"z": 3.0252858533,
				"element": "C" 
			},
			{
				"x": -3.8398269632,
				"y": -1.2496541248,
				"z": 3.3143853212,
				"element": "C" 
			},
			{
				"x": -3.8655967315,
				"y": -2.3641552611,
				"z": 2.474510452,
				"element": "C" 
			},
			{
				"x": -3.0471053502,
				"y": -2.425600197,
				"z": 1.3469359085,
				"element": "C" 
			},
			{
				"x": 2.716125396,
				"y": 0.1716745403,
				"z": -0.7570352437,
				"element": "H" 
			},
			{
				"x": 2.4642641135,
				"y": 1.4889543177,
				"z": -1.8909541602,
				"element": "H" 
			},
			{
				"x": 4.0760273773,
				"y": 3.1696919445,
				"z": -1.384232596,
				"element": "H" 
			},
			{
				"x": 4.8770638587,
				"y": 1.7655358147,
				"z": -0.6615137026,
				"element": "H" 
			},
			{
				"x": 4.1665857332,
				"y": 4.3742722017,
				"z": 0.7740981287,
				"element": "H" 
			},
			{
				"x": 5.7909372519,
				"y": 3.8807981453,
				"z": 0.2486782387,
				"element": "H" 
			},
			{
				"x": 4.7160481586,
				"y": 0.7904436171,
				"z": 1.603625321,
				"element": "H" 
			},
			{
				"x": 4.1808375559,
				"y": 1.5269662038,
				"z": 3.1213453887,
				"element": "H" 
			},
			{
				"x": 2.2654976055,
				"y": 0.9401430465,
				"z": 1.6323346617,
				"element": "H" 
			},
			{
				"x": 2.3107770966,
				"y": 2.658520062,
				"z": 1.9934413005,
				"element": "H" 
			},
			{
				"x": -1.872152619,
				"y": -0.391758213,
				"z": -1.8832491902,
				"element": "H" 
			},
			{
				"x": -1.6867729323,
				"y": 0.6576369528,
				"z": -0.4539100839,
				"element": "H" 
			},
			{
				"x": 1.8144211133,
				"y": 0.1420263623,
				"z": -3.4899934159,
				"element": "H" 
			},
			{
				"x": 2.7286516524,
				"y": -1.8469466228,
				"z": -4.6384856794,
				"element": "H" 
			},
			{
				"x": 2.0609464622,
				"y": -4.1318175097,
				"z": -3.9162877222,
				"element": "H" 
			},
			{
				"x": 0.4629284335,
				"y": -4.3974847212,
				"z": -2.0012247008,
				"element": "H" 
			},
			{
				"x": -1.4549167329,
				"y": 0.5686181688,
				"z": 1.7014396066,
				"element": "H" 
			},
			{
				"x": -2.9389027845,
				"y": 0.6774185901,
				"z": 3.6749848658,
				"element": "H" 
			},
			{
				"x": -4.4839058315,
				"y": -1.20723101,
				"z": 4.1877257485,
				"element": "H" 
			},
			{
				"x": -4.5321634528,
				"y": -3.193972482,
				"z": 2.6913887457,
				"element": "H" 
			},
			{
				"x": -3.0609075535,
				"y": -3.2944148091,
				"z": 0.7026827724,
				"element": "H" 
			}
		],
		 "valence_orbital": [ 
			{
				"type": "occ",
				"energy": -0.24664,
				"method": "rhf"
			},
			{
				"type": "occ",
				"energy": -0.24616,
				"method": "rhf"
			},
			{
				"type": "occ",
				"energy": -0.24404,
				"method": "rhf"
			},
			{
				"type": "occ",
				"energy": -0.22462,
				"method": "rhf"
			},
			{
				"type": "occ",
				"energy": -0.2126,
				"method": "rhf"
			},
			{
				"type": "unocc",
				"energy": -0.05514,
				"method": "rhf"
			},
			{
				"type": "unocc",
				"energy": -0.02592,
				"method": "rhf"
			},
			{
				"type": "unocc",
				"energy": -0.00136,
				"method": "rhf"
			},
			{
				"type": "unocc",
				"energy": 0.00197,
				"method": "rhf"
			},
			{
				"type": "unocc",
				"energy": 0.00537,
				"method": "rhf"
			}
		],
		"cosmo_sigma_profile": { 
			"-0.025": 0.0,
			"-0.024": 0.0,
			"-0.023": 0.0,
			"-0.022": 0.0,
			"-0.021": 0.0,
			"-0.02": 0.0,
			"-0.019": 0.0,
			"-0.018": 0.0,
			"-0.017": 0.0,
			"-0.016": 0.0,
			"-0.015": 0.0,
			"-0.014": 0.0,
			"-0.013": 0.0,
			"-0.012": 0.0,
			"-0.011": 0.0,
			"-0.01": 0.611945044211,
			"-0.009": 1.54290186194,
			"-0.008": 2.6070415425,
			"-0.007": 8.51062115054,
			"-0.006": 19.8781064244,
			"-0.005": 32.8803323341,
			"-0.004": 41.0036706036,
			"-0.003": 41.0461406069,
			"-0.002": 36.2836125146,
			"-0.001": 27.2782185263,
			"0.0": 22.4152332029,
			"0.001": 21.3414477711,
			"0.002": 21.4573845104,
			"0.003": 22.58033714,
			"0.004": 17.324824659,
			"0.005": 14.2735142679,
			"0.006": 7.14946250932,
			"0.007": 5.0662848446,
			"0.008": 4.63854165378,
			"0.009": 4.66859514203,
			"0.01": 4.50644613594,
			"0.011": 4.76972593813,
			"0.012": 6.4226129218,
			"0.013": 7.40119170764,
			"0.014": 2.75706793191,
			"0.015": 0.88164179888,
			"0.016": 0.652783477476,
			"0.017": 0.558989264521,
			"0.018": 0.00392167565098,
			"0.019": 0.0,
			"0.02": 0.0,
			"0.021": 0.0,
			"0.022": 0.0,
			"0.023": 0.0,
			"0.024": 0.0,
			"0.025": 0.0
		}
	}
}
