{
	 "smiles": "OC1=CC=C(OC2=CC=C(C=C2)C#N)C=C1", 
	 "Tm": 422.15, 
	 "num_atms": 25, 
	 "gaussian": { 
		 "optdone": 1, 
		 "sigma_profile": "yes", 
		 "theory": "DFT", 
		 "functional": "B3LYP", 
		 "basiset": "6-31G**", 
		 "properties": { 
			 "R2extent": 5137.7364, 
			 "electric_dipole_moment_norm": 6.14799701529, 
			 "electric_quadrupole_moment_norm": 30.3741405572, 
			 "total_energy": -705.976437019, 
			 "HOMO_LUMO_gap": 0.19471, 
			 "cosmo_polarized_energy": -15.29, 
			 "cosmo_cavitation_energy": 31.54, 
			 "cosmo_dispersion_energy": -22.16, 
			 "cosmo_repulsion_energy": 1.73, 
			 "cosmo_total_nonelectrostatic_energy": 11.11, 
			 "SMD_solvation_energy": 7.35 
		},
		"coords": [
			{
				"x": -3.223841081,
				"y": -1.019674702,
				"z": 4.4451408323,
				"element": "O" 
			},
			{
				"x": -2.6087119792,
				"y": -0.5976265813,
				"z": 3.3023089928,
				"element": "C" 
			},
			{
				"x": -1.6984436255,
				"y": 0.4650852319,
				"z": 3.2782214721,
				"element": "C" 
			},
			{
				"x": -1.103085129,
				"y": 0.848478436,
				"z": 2.07584198,
				"element": "C" 
			},
			{
				"x": -1.4201448012,
				"y": 0.168908817,
				"z": 0.9026939158,
				"element": "C" 
			},
			{
				"x": -0.8868664819,
				"y": 0.607381306,
				"z": -0.3084078549,
				"element": "O" 
			},
			{
				"x": 0.2477404857,
				"y": 0.0248770386,
				"z": -0.8043946288,
				"element": "C" 
			},
			{
				"x": 0.9616439762,
				"y": -0.9857506984,
				"z": -0.1487856257,
				"element": "C" 
			},
			{
				"x": 2.1084206803,
				"y": -1.5070312907,
				"z": -0.7398248007,
				"element": "C" 
			},
			{
				"x": 2.5544264026,
				"y": -1.0299807168,
				"z": -1.9828179102,
				"element": "C" 
			},
			{
				"x": 1.827232053,
				"y": -0.0131464131,
				"z": -2.6308555008,
				"element": "C" 
			},
			{
				"x": 0.683880763,
				"y": 0.5092473562,
				"z": -2.046467807,
				"element": "C" 
			},
			{
				"x": 3.7356227653,
				"y": -1.5711605159,
				"z": -2.5843189988,
				"element": "C" 
			},
			{
				"x": 4.6960337451,
				"y": -2.0106387992,
				"z": -3.0734215294,
				"element": "N" 
			},
			{
				"x": -2.3305575219,
				"y": -0.8894012222,
				"z": 0.9181544417,
				"element": "C" 
			},
			{
				"x": -2.9238203144,
				"y": -1.2741224799,
				"z": 2.1167550117,
				"element": "C" 
			},
			{
				"x": -2.932504581,
				"y": -0.4738643749,
				"z": 5.186892606,
				"element": "H" 
			},
			{
				"x": -1.455717285,
				"y": 0.9966696716,
				"z": 4.1955700794,
				"element": "H" 
			},
			{
				"x": -0.4023929598,
				"y": 1.6762239011,
				"z": 2.042113014,
				"element": "H" 
			},
			{
				"x": 0.6240982224,
				"y": -1.3586099096,
				"z": 0.810591486,
				"element": "H" 
			},
			{
				"x": 2.6659156889,
				"y": -2.2901184832,
				"z": -0.2366381255,
				"element": "H" 
			},
			{
				"x": 2.1666953682,
				"y": 0.3595170961,
				"z": -3.5914710305,
				"element": "H" 
			},
			{
				"x": 0.1109398858,
				"y": 1.2924473461,
				"z": -2.5308651168,
				"element": "H" 
			},
			{
				"x": -2.5741175471,
				"y": -1.397974014,
				"z": -0.0090084771,
				"element": "H" 
			},
			{
				"x": -3.6365467296,
				"y": -2.0909359996,
				"z": 2.1530935742,
				"element": "H" 
			}
		],
		 "valence_orbital": [ 
			{
				"type": "occ",
				"energy": -0.31992,
				"method": "rhf"
			},
			{
				"type": "occ",
				"energy": -0.27609,
				"method": "rhf"
			},
			{
				"type": "occ",
				"energy": -0.27137,
				"method": "rhf"
			},
			{
				"type": "occ",
				"energy": -0.23901,
				"method": "rhf"
			},
			{
				"type": "occ",
				"energy": -0.23368,
				"method": "rhf"
			},
			{
				"type": "unocc",
				"energy": -0.03897,
				"method": "rhf"
			},
			{
				"type": "unocc",
				"energy": -0.02771,
				"method": "rhf"
			},
			{
				"type": "unocc",
				"energy": -0.0164,
				"method": "rhf"
			},
			{
				"type": "unocc",
				"energy": -0.00316,
				"method": "rhf"
			},
			{
				"type": "unocc",
				"energy": 0.04334,
				"method": "rhf"
			}
		],
		"cosmo_sigma_profile": { 
			"-0.025": 0.0,
			"-0.024": 0.0,
			"-0.023": 0.0,
			"-0.022": 0.0,
			"-0.021": 0.0,
			"-0.02": 0.0,
			"-0.019": 0.0,
			"-0.018": 0.489960581367,
			"-0.017": 1.54214480596,
			"-0.016": 0.596564348629,
			"-0.015": 1.31742365454,
			"-0.014": 0.757728240617,
			"-0.013": 1.55748960063,
			"-0.012": 0.979210819344,
			"-0.011": 0.852751185437,
			"-0.01": 0.740432748165,
			"-0.009": 1.2944749123,
			"-0.008": 4.58494829642,
			"-0.007": 12.3180301294,
			"-0.006": 15.5452167259,
			"-0.005": 14.766424869,
			"-0.004": 13.1222583289,
			"-0.003": 13.7872997645,
			"-0.002": 14.2829976898,
			"-0.001": 14.1715292603,
			"0.0": 18.3291675139,
			"0.001": 19.2644336717,
			"0.002": 25.1604671492,
			"0.003": 21.9518288051,
			"0.004": 14.2271218742,
			"0.005": 5.97935716999,
			"0.006": 4.70257126122,
			"0.007": 5.95337585723,
			"0.008": 5.57530847605,
			"0.009": 5.62833241723,
			"0.01": 4.78251890361,
			"0.011": 5.05649655784,
			"0.012": 2.90054776413,
			"0.013": 2.04950016988,
			"0.014": 0.360693043399,
			"0.015": 0.0,
			"0.016": 0.0,
			"0.017": 0.0,
			"0.018": 0.0,
			"0.019": 0.0,
			"0.02": 0.0,
			"0.021": 0.0,
			"0.022": 0.0,
			"0.023": 0.0,
			"0.024": 0.0,
			"0.025": 0.0
		}
	}
}
