{
	 "smiles": "CCCOC(=O)C1=C(C)NC(C)=C(C1C1=C(O)C(OC)=CC=C1)C(=O)OCCC", 
	 "Tm": 440.15, 
	 "num_atms": 58, 
	 "gaussian": { 
		 "optdone": 1, 
		 "sigma_profile": "yes", 
		 "theory": "DFT", 
		 "functional": "B3LYP", 
		 "basiset": "6-31G**", 
		 "properties": { 
			 "R2extent": 13038.3151, 
			 "electric_dipole_moment_norm": 4.2933130948, 
			 "electric_quadrupole_moment_norm": 16.2818366688, 
			 "total_energy": -1361.93645549, 
			 "HOMO_LUMO_gap": 0.15304, 
			 "cosmo_polarized_energy": -22.78, 
			 "cosmo_cavitation_energy": 58.91, 
			 "cosmo_dispersion_energy": -38.84, 
			 "cosmo_repulsion_energy": 3.05, 
			 "cosmo_total_nonelectrostatic_energy": 23.12, 
			 "SMD_solvation_energy": 12.47 
		},
		"coords": [
			{
				"x": -2.8314520026,
				"y": 5.8998353328,
				"z": -1.5141118353,
				"element": "C" 
			},
			{
				"x": -1.9433625933,
				"y": 4.6840622662,
				"z": -1.2300486394,
				"element": "C" 
			},
			{
				"x": -2.2406352877,
				"y": 3.5280149184,
				"z": -2.1814152159,
				"element": "C" 
			},
			{
				"x": -1.4797789884,
				"y": 2.3547049061,
				"z": -1.8388473473,
				"element": "O" 
			},
			{
				"x": -0.2234238259,
				"y": 2.2670237565,
				"z": -2.3574558575,
				"element": "C" 
			},
			{
				"x": 0.2303316594,
				"y": 3.1172607439,
				"z": -3.1133217516,
				"element": "O" 
			},
			{
				"x": 0.4597705035,
				"y": 1.0478300877,
				"z": -1.9057427148,
				"element": "C" 
			},
			{
				"x": 1.6857358476,
				"y": 0.73552452,
				"z": -2.4106677004,
				"element": "C" 
			},
			{
				"x": 2.5028647109,
				"y": 1.5670599108,
				"z": -3.3652179119,
				"element": "C" 
			},
			{
				"x": 2.262117785,
				"y": -0.4739023594,
				"z": -2.0710555278,
				"element": "N" 
			},
			{
				"x": 1.6153005419,
				"y": -1.4919949361,
				"z": -1.3943473343,
				"element": "C" 
			},
			{
				"x": 2.3837096626,
				"y": -2.7913036639,
				"z": -1.3842741688,
				"element": "C" 
			},
			{
				"x": 0.3840954715,
				"y": -1.2476773513,
				"z": -0.8631569862,
				"element": "C" 
			},
			{
				"x": -0.1996514561,
				"y": 0.1647904912,
				"z": -0.850228669,
				"element": "C" 
			},
			{
				"x": -0.1641426177,
				"y": 0.7928918523,
				"z": 0.5504289348,
				"element": "C" 
			},
			{
				"x": 1.0320747575,
				"y": 1.0940118471,
				"z": 1.2102848552,
				"element": "C" 
			},
			{
				"x": 2.2426250543,
				"y": 0.8268228958,
				"z": 0.6347614455,
				"element": "O" 
			},
			{
				"x": 1.0146413983,
				"y": 1.682154602,
				"z": 2.4934302662,
				"element": "C" 
			},
			{
				"x": 2.2767704933,
				"y": 1.9179670672,
				"z": 3.0006763315,
				"element": "O" 
			},
			{
				"x": 2.3797142593,
				"y": 2.5147565562,
				"z": 4.2821156759,
				"element": "C" 
			},
			{
				"x": -0.1855764713,
				"y": 1.9702889599,
				"z": 3.1307938412,
				"element": "C" 
			},
			{
				"x": -1.3861129519,
				"y": 1.6624214044,
				"z": 2.4772784831,
				"element": "C" 
			},
			{
				"x": -1.3680261403,
				"y": 1.0844812097,
				"z": 1.2140357367,
				"element": "C" 
			},
			{
				"x": -0.5029883207,
				"y": -2.2653934016,
				"z": -0.2837031805,
				"element": "C" 
			},
			{
				"x": -1.6419604531,
				"y": -2.0291163726,
				"z": 0.0905705096,
				"element": "O" 
			},
			{
				"x": 0.037283959,
				"y": -3.5174906352,
				"z": -0.2045570708,
				"element": "O" 
			},
			{
				"x": -0.8124376014,
				"y": -4.5413113372,
				"z": 0.3525232617,
				"element": "C" 
			},
			{
				"x": -1.731857609,
				"y": -5.1543159444,
				"z": -0.7000968798,
				"element": "C" 
			},
			{
				"x": -2.5686238288,
				"y": -6.3023576061,
				"z": -0.1257952122,
				"element": "C" 
			},
			{
				"x": -2.6827820636,
				"y": 6.2732499172,
				"z": -2.5335938892,
				"element": "H" 
			},
			{
				"x": -3.8942670704,
				"y": 5.6556483751,
				"z": -1.4015873099,
				"element": "H" 
			},
			{
				"x": -2.6064019613,
				"y": 6.720058484,
				"z": -0.82561002,
				"element": "H" 
			},
			{
				"x": -0.8877355475,
				"y": 4.9559484257,
				"z": -1.3347684889,
				"element": "H" 
			},
			{
				"x": -2.0870311823,
				"y": 4.3367030475,
				"z": -0.2002604852,
				"element": "H" 
			},
			{
				"x": -3.286111104,
				"y": 3.2145166148,
				"z": -2.1029351043,
				"element": "H" 
			},
			{
				"x": -2.0238399449,
				"y": 3.8096500924,
				"z": -3.2156185877,
				"element": "H" 
			},
			{
				"x": 1.9789554028,
				"y": 1.7040969902,
				"z": -4.3141473653,
				"element": "H" 
			},
			{
				"x": 2.6686637121,
				"y": 2.5687249956,
				"z": -2.9659297872,
				"element": "H" 
			},
			{
				"x": 3.4707447818,
				"y": 1.0926008854,
				"z": -3.5616649201,
				"element": "H" 
			},
			{
				"x": 3.1873767957,
				"y": -0.6616313741,
				"z": -2.4227239613,
				"element": "H" 
			},
			{
				"x": 1.8816727661,
				"y": -3.5521965407,
				"z": -1.987199452,
				"element": "H" 
			},
			{
				"x": 3.3921058726,
				"y": -2.6444508637,
				"z": -1.785257757,
				"element": "H" 
			},
			{
				"x": 2.4644987686,
				"y": -3.1923444335,
				"z": -0.3738325112,
				"element": "H" 
			},
			{
				"x": -1.2602006719,
				"y": 0.0740606632,
				"z": -1.0933730236,
				"element": "H" 
			},
			{
				"x": 2.9151904647,
				"y": 1.125555817,
				"z": 1.2666742831,
				"element": "H" 
			},
			{
				"x": 1.911896506,
				"y": 3.5073224368,
				"z": 4.300348993,
				"element": "H" 
			},
			{
				"x": 1.9177790614,
				"y": 1.8868605448,
				"z": 5.0546223416,
				"element": "H" 
			},
			{
				"x": 3.4464400409,
				"y": 2.6151588426,
				"z": 4.4895886724,
				"element": "H" 
			},
			{
				"x": -0.1986895622,
				"y": 2.4212923233,
				"z": 4.116473571,
				"element": "H" 
			},
			{
				"x": -2.3313326517,
				"y": 1.8744019424,
				"z": 2.9676154077,
				"element": "H" 
			},
			{
				"x": -2.2991318441,
				"y": 0.8365209198,
				"z": 0.7162541559,
				"element": "H" 
			},
			{
				"x": -1.3957695424,
				"y": -4.1146910996,
				"z": 1.1728452034,
				"element": "H" 
			},
			{
				"x": -0.1201109642,
				"y": -5.2893166818,
				"z": 0.7515038753,
				"element": "H" 
			},
			{
				"x": -2.3870165997,
				"y": -4.3676741466,
				"z": -1.0874954151,
				"element": "H" 
			},
			{
				"x": -1.1220351863,
				"y": -5.512908202,
				"z": -1.5385386526,
				"element": "H" 
			},
			{
				"x": -3.2057983167,
				"y": -5.9572315607,
				"z": 0.6959269189,
				"element": "H" 
			},
			{
				"x": -1.9339721181,
				"y": -7.1082311,
				"z": 0.2611067295,
				"element": "H" 
			},
			{
				"x": -3.2208037972,
				"y": -6.7336350353,
				"z": -0.8911787587,
				"element": "H" 
			}
		],
		 "valence_orbital": [ 
			{
				"type": "occ",
				"energy": -0.25253,
				"method": "rhf"
			},
			{
				"type": "occ",
				"energy": -0.24242,
				"method": "rhf"
			},
			{
				"type": "occ",
				"energy": -0.21875,
				"method": "rhf"
			},
			{
				"type": "occ",
				"energy": -0.19529,
				"method": "rhf"
			},
			{
				"type": "occ",
				"energy": -0.19056,
				"method": "rhf"
			},
			{
				"type": "unocc",
				"energy": -0.03752,
				"method": "rhf"
			},
			{
				"type": "unocc",
				"energy": 0.01757,
				"method": "rhf"
			},
			{
				"type": "unocc",
				"energy": 0.02142,
				"method": "rhf"
			},
			{
				"type": "unocc",
				"energy": 0.03208,
				"method": "rhf"
			},
			{
				"type": "unocc",
				"energy": 0.06749,
				"method": "rhf"
			}
		],
		"cosmo_sigma_profile": { 
			"-0.025": 0.0,
			"-0.024": 0.0,
			"-0.023": 0.0,
			"-0.022": 0.0,
			"-0.021": 0.0,
			"-0.02": 0.0,
			"-0.019": 0.0,
			"-0.018": 0.0,
			"-0.017": 0.0,
			"-0.016": 0.100553350553,
			"-0.015": 0.9738686643,
			"-0.014": 1.45274048792,
			"-0.013": 1.83497258194,
			"-0.012": 2.04267808036,
			"-0.011": 2.26729164267,
			"-0.01": 1.6787035165,
			"-0.009": 2.2177076616,
			"-0.008": 2.30699168287,
			"-0.007": 2.10479903403,
			"-0.006": 9.22696293663,
			"-0.005": 20.9379206341,
			"-0.004": 31.8765607494,
			"-0.003": 50.8479889389,
			"-0.002": 49.0990309559,
			"-0.001": 52.900025364,
			"0.0": 48.7532979291,
			"0.001": 41.7307229694,
			"0.002": 27.4910030161,
			"0.003": 24.1650245705,
			"0.004": 20.6235088849,
			"0.005": 15.1049389252,
			"0.006": 13.6546463424,
			"0.007": 9.97462700911,
			"0.008": 7.34036876539,
			"0.009": 4.00890039363,
			"0.01": 3.42317373457,
			"0.011": 4.03123942497,
			"0.012": 3.77062635094,
			"0.013": 4.90325424002,
			"0.014": 1.05294538002,
			"0.015": 0.0,
			"0.016": 0.0,
			"0.017": 0.0,
			"0.018": 0.0,
			"0.019": 0.0,
			"0.02": 0.0,
			"0.021": 0.0,
			"0.022": 0.0,
			"0.023": 0.0,
			"0.024": 0.0,
			"0.025": 0.0
		}
	}
}
