{
	 "smiles": "OC(=O)CCCNC(=O)CCCCC(=O)NCCCC(O)=O", 
	 "Tm": 418.15, 
	 "num_atms": 46, 
	 "gaussian": { 
		 "optdone": 1, 
		 "sigma_profile": "yes", 
		 "theory": "DFT", 
		 "functional": "B3LYP", 
		 "basiset": "6-31G**", 
		 "properties": { 
			 "R2extent": 12234.2234, 
			 "electric_dipole_moment_norm": 6.43502877538, 
			 "electric_quadrupole_moment_norm": 51.3271514751, 
			 "total_energy": -1108.88743656, 
			 "HOMO_LUMO_gap": 0.23971, 
			 "cosmo_polarized_energy": -34.56, 
			 "cosmo_cavitation_energy": 48.7, 
			 "cosmo_dispersion_energy": -32.7, 
			 "cosmo_repulsion_energy": 2.59, 
			 "cosmo_total_nonelectrostatic_energy": 18.59, 
			 "SMD_solvation_energy": 9.29 
		},
		"coords": [
			{
				"x": 2.2686613919,
				"y": -0.2970665547,
				"z": -3.9154162777,
				"element": "O" 
			},
			{
				"x": 2.5903933168,
				"y": 0.6635801849,
				"z": -4.8218944438,
				"element": "C" 
			},
			{
				"x": 3.6956426452,
				"y": 1.1515574685,
				"z": -4.882256071,
				"element": "O" 
			},
			{
				"x": 1.4316548131,
				"y": 1.0035457222,
				"z": -5.7400884531,
				"element": "C" 
			},
			{
				"x": 0.0420542361,
				"y": 0.9909337372,
				"z": -5.0863922443,
				"element": "C" 
			},
			{
				"x": -0.1054857234,
				"y": 2.0356818639,
				"z": -3.9678488142,
				"element": "C" 
			},
			{
				"x": -1.4149132673,
				"y": 2.0317594421,
				"z": -3.3321251199,
				"element": "N" 
			},
			{
				"x": -1.8635294424,
				"y": 1.2662525328,
				"z": -2.284465369,
				"element": "C" 
			},
			{
				"x": -3.03489501,
				"y": 1.3387595918,
				"z": -1.9208468809,
				"element": "O" 
			},
			{
				"x": -0.8577375735,
				"y": 0.3841005076,
				"z": -1.5536873716,
				"element": "C" 
			},
			{
				"x": -0.3134019135,
				"y": 1.0578309783,
				"z": -0.2730613558,
				"element": "C" 
			},
			{
				"x": -1.3844072059,
				"y": 1.2640230251,
				"z": 0.8068682527,
				"element": "C" 
			},
			{
				"x": -0.872535806,
				"y": 1.9759283099,
				"z": 2.0791964997,
				"element": "C" 
			},
			{
				"x": 0.068949101,
				"y": 1.119568284,
				"z": 2.9093162315,
				"element": "C" 
			},
			{
				"x": 1.1783460211,
				"y": 0.7782344022,
				"z": 2.4716479936,
				"element": "O" 
			},
			{
				"x": -0.3782700969,
				"y": 0.7491298826,
				"z": 4.1342272447,
				"element": "N" 
			},
			{
				"x": 0.399838394,
				"y": -0.0317515712,
				"z": 5.0982020829,
				"element": "C" 
			},
			{
				"x": 0.1734890444,
				"y": -1.5493382678,
				"z": 5.0063455922,
				"element": "C" 
			},
			{
				"x": 0.7423044342,
				"y": -2.2230679324,
				"z": 3.73900217,
				"element": "C" 
			},
			{
				"x": 2.2729524746,
				"y": -2.2453222519,
				"z": 3.744775202,
				"element": "C" 
			},
			{
				"x": 2.8942979244,
				"y": -1.1472599976,
				"z": 3.283016779,
				"element": "O" 
			},
			{
				"x": 2.8996845299,
				"y": -3.1837739576,
				"z": 4.1850143043,
				"element": "O" 
			},
			{
				"x": 3.0760189903,
				"y": -0.4633355969,
				"z": -3.399346525,
				"element": "H" 
			},
			{
				"x": 1.4547206211,
				"y": 0.2689177367,
				"z": -6.5553290577,
				"element": "H" 
			},
			{
				"x": 1.6636746946,
				"y": 1.974411564,
				"z": -6.1872423319,
				"element": "H" 
			},
			{
				"x": -0.1653881021,
				"y": -0.0036893446,
				"z": -4.6800984993,
				"element": "H" 
			},
			{
				"x": -0.7137253817,
				"y": 1.1822720843,
				"z": -5.8571317925,
				"element": "H" 
			},
			{
				"x": 0.6627338621,
				"y": 1.8810118472,
				"z": -3.205164695,
				"element": "H" 
			},
			{
				"x": 0.065763596,
				"y": 3.0396725746,
				"z": -4.3738735419,
				"element": "H" 
			},
			{
				"x": -2.1543645645,
				"y": 2.571523022,
				"z": -3.7639262399,
				"element": "H" 
			},
			{
				"x": -1.3969622174,
				"y": -0.5294395038,
				"z": -1.2837854745,
				"element": "H" 
			},
			{
				"x": -0.0207362307,
				"y": 0.0920579327,
				"z": -2.1937443303,
				"element": "H" 
			},
			{
				"x": 0.1330050127,
				"y": 2.0284134454,
				"z": -0.5301416493,
				"element": "H" 
			},
			{
				"x": 0.5007064578,
				"y": 0.4483072784,
				"z": 0.1283050758,
				"element": "H" 
			},
			{
				"x": -2.2108919129,
				"y": 1.849341938,
				"z": 0.3934939879,
				"element": "H" 
			},
			{
				"x": -1.8174554883,
				"y": 0.2930768363,
				"z": 1.0828210319,
				"element": "H" 
			},
			{
				"x": -0.316800295,
				"y": 2.8778340515,
				"z": 1.7970077185,
				"element": "H" 
			},
			{
				"x": -1.7264373573,
				"y": 2.3011727484,
				"z": 2.6842774,
				"element": "H" 
			},
			{
				"x": -1.3049691569,
				"y": 1.042549193,
				"z": 4.4048811302,
				"element": "H" 
			},
			{
				"x": 0.1223823514,
				"y": 0.3192576142,
				"z": 6.097122654,
				"element": "H" 
			},
			{
				"x": 1.4547808817,
				"y": 0.2118805668,
				"z": 4.9504273891,
				"element": "H" 
			},
			{
				"x": -0.9030710036,
				"y": -1.7511026537,
				"z": 5.0658082091,
				"element": "H" 
			},
			{
				"x": 0.6303600974,
				"y": -2.0174236255,
				"z": 5.8865876067,
				"element": "H" 
			},
			{
				"x": 0.4173775791,
				"y": -3.2656427267,
				"z": 3.7171589632,
				"element": "H" 
			},
			{
				"x": 0.3603087031,
				"y": -1.727345123,
				"z": 2.8407815892,
				"element": "H" 
			},
			{
				"x": 2.2548765754,
				"y": -0.4642272593,
				"z": 2.9635814307,
				"element": "H" 
			}
		],
		 "valence_orbital": [ 
			{
				"type": "occ",
				"energy": -0.28015,
				"method": "rhf"
			},
			{
				"type": "occ",
				"energy": -0.27809,
				"method": "rhf"
			},
			{
				"type": "occ",
				"energy": -0.2524,
				"method": "rhf"
			},
			{
				"type": "occ",
				"energy": -0.24421,
				"method": "rhf"
			},
			{
				"type": "occ",
				"energy": -0.24272,
				"method": "rhf"
			},
			{
				"type": "unocc",
				"energy": -0.00301,
				"method": "rhf"
			},
			{
				"type": "unocc",
				"energy": -0.00148,
				"method": "rhf"
			},
			{
				"type": "unocc",
				"energy": 0.02066,
				"method": "rhf"
			},
			{
				"type": "unocc",
				"energy": 0.02997,
				"method": "rhf"
			},
			{
				"type": "unocc",
				"energy": 0.04898,
				"method": "rhf"
			}
		],
		"cosmo_sigma_profile": { 
			"-0.025": 0.0,
			"-0.024": 0.0,
			"-0.023": 0.0,
			"-0.022": 0.0,
			"-0.021": 0.0,
			"-0.02": 0.0,
			"-0.019": 0.0,
			"-0.018": 0.447974955631,
			"-0.017": 1.17522776636,
			"-0.016": 0.886558386707,
			"-0.015": 1.25695196979,
			"-0.014": 2.54830127615,
			"-0.013": 2.59620353241,
			"-0.012": 3.63099047939,
			"-0.011": 3.27155033543,
			"-0.01": 3.01804155571,
			"-0.009": 3.23912763122,
			"-0.008": 3.16421042587,
			"-0.007": 6.89976082392,
			"-0.006": 11.1851451603,
			"-0.005": 26.0837493139,
			"-0.004": 41.9243540172,
			"-0.003": 46.4215359273,
			"-0.002": 42.4625928238,
			"-0.001": 31.758276186,
			"0.0": 19.1922492377,
			"0.001": 14.9986703293,
			"0.002": 10.5765194882,
			"0.003": 7.85666299621,
			"0.004": 8.6355543632,
			"0.005": 8.4574170123,
			"0.006": 5.93906638724,
			"0.007": 6.76615337622,
			"0.008": 6.38256508193,
			"0.009": 7.12159252938,
			"0.01": 6.6525425641,
			"0.011": 10.7660496177,
			"0.012": 13.7066647785,
			"0.013": 8.94059657428,
			"0.014": 7.5099287752,
			"0.015": 3.58822756364,
			"0.016": 0.275527946669,
			"0.017": 0.0,
			"0.018": 0.0,
			"0.019": 0.0,
			"0.02": 0.0,
			"0.021": 0.0,
			"0.022": 0.0,
			"0.023": 0.0,
			"0.024": 0.0,
			"0.025": 0.0
		}
	}
}
