{
	 "smiles": "CC1(C)OC(=O)C(CC#C)(CC#C)C(=O)O1", 
	 "Tm": 409.15, 
	 "num_atms": 28, 
	 "gaussian": { 
		 "optdone": 1, 
		 "sigma_profile": "yes", 
		 "theory": "DFT", 
		 "functional": "B3LYP", 
		 "basiset": "6-31G**", 
		 "properties": { 
			 "R2extent": 3590.4979, 
			 "electric_dipole_moment_norm": 2.49932829576, 
			 "electric_quadrupole_moment_norm": 19.4304801531, 
			 "total_energy": -765.26812695, 
			 "HOMO_LUMO_gap": 0.2442, 
			 "cosmo_polarized_energy": -17.4, 
			 "cosmo_cavitation_energy": 33.12, 
			 "cosmo_dispersion_energy": -21.22, 
			 "cosmo_repulsion_energy": 1.64, 
			 "cosmo_total_nonelectrostatic_energy": 13.54, 
			 "SMD_solvation_energy": 10.1 
		},
		"coords": [
			{
				"x": -0.1355375099,
				"y": 0.5702467953,
				"z": 2.2099758412,
				"element": "C" 
			},
			{
				"x": 0.8649230237,
				"y": 0.9307431819,
				"z": 1.1143152652,
				"element": "C" 
			},
			{
				"x": 2.1965763857,
				"y": 1.4298979044,
				"z": 1.649872321,
				"element": "C" 
			},
			{
				"x": 0.3333177865,
				"y": 1.9945384387,
				"z": 0.3171681362,
				"element": "O" 
			},
			{
				"x": -0.4653187082,
				"y": 1.7874054326,
				"z": -0.7633994795,
				"element": "C" 
			},
			{
				"x": -1.0319479717,
				"y": 2.724177702,
				"z": -1.2629864724,
				"element": "O" 
			},
			{
				"x": -0.5590300449,
				"y": 0.3692111712,
				"z": -1.3336294214,
				"element": "C" 
			},
			{
				"x": -2.0135236242,
				"y": -0.1994701438,
				"z": -1.1794678483,
				"element": "C" 
			},
			{
				"x": -3.0475954664,
				"y": 0.4949539487,
				"z": -1.9388295287,
				"element": "C" 
			},
			{
				"x": -3.9322527687,
				"y": 1.0263440965,
				"z": -2.5645461788,
				"element": "C" 
			},
			{
				"x": -0.1940689095,
				"y": 0.4435500119,
				"z": -2.8508547207,
				"element": "C" 
			},
			{
				"x": 1.1700402157,
				"y": 0.9096727041,
				"z": -3.0880615867,
				"element": "C" 
			},
			{
				"x": 2.3009188913,
				"y": 1.294237028,
				"z": -3.2637880412,
				"element": "C" 
			},
			{
				"x": 0.3834361602,
				"y": -0.651184643,
				"z": -0.6829462418,
				"element": "C" 
			},
			{
				"x": 0.4728911551,
				"y": -1.7829322518,
				"z": -1.0902117352,
				"element": "O" 
			},
			{
				"x": 1.1649694305,
				"y": -0.243840417,
				"z": 0.3441862655,
				"element": "O" 
			},
			{
				"x": 0.2737619334,
				"y": -0.2198373851,
				"z": 2.843768209,
				"element": "H" 
			},
			{
				"x": -1.0763638166,
				"y": 0.2153882192,
				"z": 1.7794064732,
				"element": "H" 
			},
			{
				"x": -0.3478976539,
				"y": 1.4498482685,
				"z": 2.822024947,
				"element": "H" 
			},
			{
				"x": 2.0417041868,
				"y": 2.330928757,
				"z": 2.2473565535,
				"element": "H" 
			},
			{
				"x": 2.8574085817,
				"y": 1.6646271889,
				"z": 0.8130490929,
				"element": "H" 
			},
			{
				"x": 2.6614128716,
				"y": 0.6597206867,
				"z": 2.2693321826,
				"element": "H" 
			},
			{
				"x": -1.9640954564,
				"y": -1.2482390788,
				"z": -1.4932233408,
				"element": "H" 
			},
			{
				"x": -2.2877147552,
				"y": -0.2085141062,
				"z": -0.1168235805,
				"element": "H" 
			},
			{
				"x": -4.7035286571,
				"y": 1.5177124135,
				"z": -3.1112694956,
				"element": "H" 
			},
			{
				"x": -0.914749606,
				"y": 1.1149658938,
				"z": -3.3262829476,
				"element": "H" 
			},
			{
				"x": -0.3258094675,
				"y": -0.558632202,
				"z": -3.2716674123,
				"element": "H" 
			},
			{
				"x": 3.2960737939,
				"y": 1.6347803848,
				"z": -3.4333672557,
				"element": "H" 
			}
		],
		 "valence_orbital": [ 
			{
				"type": "occ",
				"energy": -0.28228,
				"method": "rhf"
			},
			{
				"type": "occ",
				"energy": -0.27918,
				"method": "rhf"
			},
			{
				"type": "occ",
				"energy": -0.27192,
				"method": "rhf"
			},
			{
				"type": "occ",
				"energy": -0.26693,
				"method": "rhf"
			},
			{
				"type": "occ",
				"energy": -0.26686,
				"method": "rhf"
			},
			{
				"type": "unocc",
				"energy": -0.02266,
				"method": "rhf"
			},
			{
				"type": "unocc",
				"energy": -0.01082,
				"method": "rhf"
			},
			{
				"type": "unocc",
				"energy": 0.02628,
				"method": "rhf"
			},
			{
				"type": "unocc",
				"energy": 0.04177,
				"method": "rhf"
			},
			{
				"type": "unocc",
				"energy": 0.05312,
				"method": "rhf"
			}
		],
		"cosmo_sigma_profile": { 
			"-0.025": 0.0,
			"-0.024": 0.0,
			"-0.023": 0.0,
			"-0.022": 0.0,
			"-0.021": 0.0,
			"-0.02": 0.0,
			"-0.019": 0.0,
			"-0.018": 0.0,
			"-0.017": 0.0,
			"-0.016": 0.0071508838015,
			"-0.015": 0.0589844289267,
			"-0.014": 0.167778695088,
			"-0.013": 0.287908504061,
			"-0.012": 2.21696952063,
			"-0.011": 3.21663383131,
			"-0.01": 3.87400910859,
			"-0.009": 5.08546271477,
			"-0.008": 5.38405085152,
			"-0.007": 7.79932953974,
			"-0.006": 17.8315173205,
			"-0.005": 18.62094015,
			"-0.004": 17.4850883678,
			"-0.003": 18.5985641387,
			"-0.002": 20.676806955,
			"-0.001": 15.6363429578,
			"0.0": 10.5407040289,
			"0.001": 11.0822937458,
			"0.002": 13.0445903114,
			"0.003": 13.5138319944,
			"0.004": 13.8198942274,
			"0.005": 12.3847738125,
			"0.006": 15.1711908999,
			"0.007": 6.91168271995,
			"0.008": 5.68104229365,
			"0.009": 6.58470436658,
			"0.01": 9.31522631234,
			"0.011": 7.80574131864,
			"0.012": 1.55835797626,
			"0.013": 0.0,
			"0.014": 0.0,
			"0.015": 0.0,
			"0.016": 0.0,
			"0.017": 0.0,
			"0.018": 0.0,
			"0.019": 0.0,
			"0.02": 0.0,
			"0.021": 0.0,
			"0.022": 0.0,
			"0.023": 0.0,
			"0.024": 0.0,
			"0.025": 0.0
		}
	}
}
