{
	 "smiles": "CC1=NC(=NC(C=O)=C1)N1CCCCC1", 
	 "Tm": 323.15, 
	 "num_atms": 30, 
	 "gaussian": { 
		 "optdone": 1, 
		 "sigma_profile": "yes", 
		 "theory": "DFT", 
		 "functional": "B3LYP", 
		 "basiset": "6-31G**", 
		 "properties": { 
			 "R2extent": 5518.937, 
			 "electric_dipole_moment_norm": 3.36137220046, 
			 "electric_quadrupole_moment_norm": 19.5218581536, 
			 "total_energy": -667.706151763, 
			 "HOMO_LUMO_gap": 0.13853, 
			 "cosmo_polarized_energy": -7.41, 
			 "cosmo_cavitation_energy": 32.26, 
			 "cosmo_dispersion_energy": -23.48, 
			 "cosmo_repulsion_energy": 1.86, 
			 "cosmo_total_nonelectrostatic_energy": 10.64, 
			 "SMD_solvation_energy": 3.89 
		},
		"coords": [
			{
				"x": 3.9897633801,
				"y": -2.2559388829,
				"z": -2.6623599534,
				"element": "C" 
			},
			{
				"x": 3.1266299397,
				"y": -2.3510730092,
				"z": -1.4308018795,
				"element": "C" 
			},
			{
				"x": 2.2397452061,
				"y": -1.3749450684,
				"z": -1.2330920661,
				"element": "N" 
			},
			{
				"x": 1.4546568914,
				"y": -1.4449031182,
				"z": -0.1284903798,
				"element": "C" 
			},
			{
				"x": 1.5087019993,
				"y": -2.429764124,
				"z": 0.7949236177,
				"element": "N" 
			},
			{
				"x": 2.4065304374,
				"y": -3.3945456913,
				"z": 0.5707970007,
				"element": "C" 
			},
			{
				"x": 2.4496947421,
				"y": -4.4773156286,
				"z": 1.6046564883,
				"element": "C" 
			},
			{
				"x": 3.2014278979,
				"y": -5.428693759,
				"z": 1.5580506074,
				"element": "O" 
			},
			{
				"x": 3.2544447122,
				"y": -3.4202403697,
				"z": -0.5307602933,
				"element": "C" 
			},
			{
				"x": 0.5374663591,
				"y": -0.4483542917,
				"z": 0.0561950856,
				"element": "N" 
			},
			{
				"x": -0.3222781949,
				"y": -0.389931507,
				"z": 1.2384375512,
				"element": "C" 
			},
			{
				"x": -1.791453543,
				"y": -0.2047259638,
				"z": 0.8342760536,
				"element": "C" 
			},
			{
				"x": -1.9649383223,
				"y": 1.0076446708,
				"z": -0.0920534033,
				"element": "C" 
			},
			{
				"x": -1.0183970064,
				"y": 0.9066825471,
				"z": -1.2968998179,
				"element": "C" 
			},
			{
				"x": 0.433980808,
				"y": 0.6982724769,
				"z": -0.8464143806,
				"element": "C" 
			},
			{
				"x": 5.0494876056,
				"y": -2.2013485006,
				"z": -2.3892132743,
				"element": "H" 
			},
			{
				"x": 3.7251026219,
				"y": -1.3681724447,
				"z": -3.2382849859,
				"element": "H" 
			},
			{
				"x": 3.8655172607,
				"y": -3.1430544666,
				"z": -3.293071225,
				"element": "H" 
			},
			{
				"x": 1.722105533,
				"y": -4.33040526,
				"z": 2.4295210882,
				"element": "H" 
			},
			{
				"x": 3.9660746822,
				"y": -4.2257232885,
				"z": -0.6639037885,
				"element": "H" 
			},
			{
				"x": -0.1762991781,
				"y": -1.3026987057,
				"z": 1.8128706742,
				"element": "H" 
			},
			{
				"x": -0.0044091461,
				"y": 0.4589342295,
				"z": 1.8655448507,
				"element": "H" 
			},
			{
				"x": -2.1349943351,
				"y": -1.1133682761,
				"z": 0.3234675177,
				"element": "H" 
			},
			{
				"x": -2.4006990258,
				"y": -0.092591966,
				"z": 1.7389111318,
				"element": "H" 
			},
			{
				"x": -1.7403129054,
				"y": 1.9265560212,
				"z": 0.4685118098,
				"element": "H" 
			},
			{
				"x": -3.0054586823,
				"y": 1.090774791,
				"z": -0.4259020781,
				"element": "H" 
			},
			{
				"x": -1.316229376,
				"y": 0.0629225348,
				"z": -1.9324748817,
				"element": "H" 
			},
			{
				"x": -1.0763312687,
				"y": 1.8117698377,
				"z": -1.9130475466,
				"element": "H" 
			},
			{
				"x": 1.0968017226,
				"y": 0.5269278634,
				"z": -1.692299166,
				"element": "H" 
			},
			{
				"x": 0.7860691848,
				"y": 1.5984093494,
				"z": -0.3164943569,
				"element": "H" 
			}
		],
		 "valence_orbital": [ 
			{
				"type": "occ",
				"energy": -0.30583,
				"method": "rhf"
			},
			{
				"type": "occ",
				"energy": -0.29543,
				"method": "rhf"
			},
			{
				"type": "occ",
				"energy": -0.26352,
				"method": "rhf"
			},
			{
				"type": "occ",
				"energy": -0.24413,
				"method": "rhf"
			},
			{
				"type": "occ",
				"energy": -0.21148,
				"method": "rhf"
			},
			{
				"type": "unocc",
				"energy": -0.07295,
				"method": "rhf"
			},
			{
				"type": "unocc",
				"energy": -0.01148,
				"method": "rhf"
			},
			{
				"type": "unocc",
				"energy": 0.03981,
				"method": "rhf"
			},
			{
				"type": "unocc",
				"energy": 0.09028,
				"method": "rhf"
			},
			{
				"type": "unocc",
				"energy": 0.11078,
				"method": "rhf"
			}
		],
		"cosmo_sigma_profile": { 
			"-0.025": 0.0,
			"-0.024": 0.0,
			"-0.023": 0.0,
			"-0.022": 0.0,
			"-0.021": 0.0,
			"-0.02": 0.0,
			"-0.019": 0.0,
			"-0.018": 0.0,
			"-0.017": 0.0,
			"-0.016": 0.0,
			"-0.015": 0.0,
			"-0.014": 0.0,
			"-0.013": 0.0,
			"-0.012": 0.0,
			"-0.011": 0.0,
			"-0.01": 0.0,
			"-0.009": 0.0,
			"-0.008": 0.0,
			"-0.007": 0.793034158332,
			"-0.006": 4.94671307539,
			"-0.005": 8.74382930369,
			"-0.004": 15.3060338186,
			"-0.003": 32.4122616296,
			"-0.002": 38.4624558961,
			"-0.001": 38.4102381448,
			"0.0": 34.1209780268,
			"0.001": 22.1872293124,
			"0.002": 11.9343739645,
			"0.003": 6.74249664469,
			"0.004": 5.80424205555,
			"0.005": 6.30862928674,
			"0.006": 4.11975494816,
			"0.007": 4.83491011103,
			"0.008": 6.1784617836,
			"0.009": 4.14462262733,
			"0.01": 4.68072910053,
			"0.011": 3.01931912038,
			"0.012": 0.837262081671,
			"0.013": 0.0,
			"0.014": 0.0,
			"0.015": 0.0,
			"0.016": 0.0,
			"0.017": 0.0,
			"0.018": 0.0,
			"0.019": 0.0,
			"0.02": 0.0,
			"0.021": 0.0,
			"0.022": 0.0,
			"0.023": 0.0,
			"0.024": 0.0,
			"0.025": 0.0
		}
	}
}
