{
	 "smiles": "CCN(CC)C(=O)C1=CC=C(C=C1)S(Cl)(=O)=O", 
	 "Tm": 333.15, 
	 "num_atms": 31, 
	 "gaussian": { 
		 "optdone": 1, 
		 "sigma_profile": "yes", 
		 "theory": "DFT", 
		 "functional": "B3LYP", 
		 "basiset": "6-31G**", 
		 "properties": { 
			 "R2extent": 9484.1846, 
			 "electric_dipole_moment_norm": 6.4134376944, 
			 "electric_quadrupole_moment_norm": 28.7010306115, 
			 "total_energy": -1566.3610556, 
			 "HOMO_LUMO_gap": 0.15896, 
			 "cosmo_polarized_energy": -14.91, 
			 "cosmo_cavitation_energy": 37.51, 
			 "cosmo_dispersion_energy": -26.85, 
			 "cosmo_repulsion_energy": 2.06, 
			 "cosmo_total_nonelectrostatic_energy": 12.72, 
			 "SMD_solvation_energy": 5.45 
		},
		"coords": [
			{
				"x": -2.4156808494,
				"y": 1.6059848033,
				"z": 0.0027782579,
				"element": "C" 
			},
			{
				"x": -0.9053549724,
				"y": 1.7232093126,
				"z": -0.2237681087,
				"element": "C" 
			},
			{
				"x": -0.3458447953,
				"y": 0.6753237024,
				"z": -1.0864634587,
				"element": "N" 
			},
			{
				"x": -0.5800025177,
				"y": 0.8149847571,
				"z": -2.5337396061,
				"element": "C" 
			},
			{
				"x": 0.4286031762,
				"y": 1.7347564757,
				"z": -3.2286161598,
				"element": "C" 
			},
			{
				"x": 0.6381855337,
				"y": -0.2052155819,
				"z": -0.7144219998,
				"element": "C" 
			},
			{
				"x": 1.298110843,
				"y": -0.8371549791,
				"z": -1.5385493592,
				"element": "O" 
			},
			{
				"x": 0.9115627467,
				"y": -0.4427179569,
				"z": 0.7538498524,
				"element": "C" 
			},
			{
				"x": 2.2556330863,
				"y": -0.5066888248,
				"z": 1.1506730001,
				"element": "C" 
			},
			{
				"x": 2.593910467,
				"y": -0.8051618259,
				"z": 2.4665370413,
				"element": "C" 
			},
			{
				"x": 1.5650521615,
				"y": -1.0690476479,
				"z": 3.3729873325,
				"element": "C" 
			},
			{
				"x": 0.2211600543,
				"y": -1.0462575671,
				"z": 3.0025290538,
				"element": "C" 
			},
			{
				"x": -0.0980905742,
				"y": -0.7250616223,
				"z": 1.6843241214,
				"element": "C" 
			},
			{
				"x": 1.9825459821,
				"y": -1.4373759399,
				"z": 5.0712284263,
				"element": "S" 
			},
			{
				"x": 2.1970161125,
				"y": -3.5587816343,
				"z": 5.0027952787,
				"element": "Cl" 
			},
			{
				"x": 3.3060582911,
				"y": -0.9048219446,
				"z": 5.36932334,
				"element": "O" 
			},
			{
				"x": 0.8267074015,
				"y": -1.1741342089,
				"z": 5.9196851629,
				"element": "O" 
			},
			{
				"x": -2.6767745485,
				"y": 0.6686089165,
				"z": 0.502618344,
				"element": "H" 
			},
			{
				"x": -2.9720262345,
				"y": 1.6473512094,
				"z": -0.9382259593,
				"element": "H" 
			},
			{
				"x": -2.7624804285,
				"y": 2.4341824992,
				"z": 0.6290500226,
				"element": "H" 
			},
			{
				"x": -0.3801449205,
				"y": 1.7065027197,
				"z": 0.7322213549,
				"element": "H" 
			},
			{
				"x": -0.6810034677,
				"y": 2.6960717246,
				"z": -0.6808856682,
				"element": "H" 
			},
			{
				"x": -1.5992145821,
				"y": 1.1899706674,
				"z": -2.6671637749,
				"element": "H" 
			},
			{
				"x": -0.5301791523,
				"y": -0.1837806416,
				"z": -2.9709004982,
				"element": "H" 
			},
			{
				"x": 1.4356811953,
				"y": 1.321722714,
				"z": -3.1398036137,
				"element": "H" 
			},
			{
				"x": 0.1846536612,
				"y": 1.8226358926,
				"z": -4.2923372715,
				"element": "H" 
			},
			{
				"x": 0.4215260067,
				"y": 2.7432097424,
				"z": -2.8013366799,
				"element": "H" 
			},
			{
				"x": 3.0294281054,
				"y": -0.327550966,
				"z": 0.4123085881,
				"element": "H" 
			},
			{
				"x": 3.6284753408,
				"y": -0.8335149219,
				"z": 2.7893583782,
				"element": "H" 
			},
			{
				"x": -0.5514007822,
				"y": -1.2668920641,
				"z": 3.7304053418,
				"element": "H" 
			},
			{
				"x": -1.13801234,
				"y": -0.7135568095,
				"z": 1.3771392612,
				"element": "H" 
			}
		],
		 "valence_orbital": [ 
			{
				"type": "occ",
				"energy": -0.3135,
				"method": "rhf"
			},
			{
				"type": "occ",
				"energy": -0.29464,
				"method": "rhf"
			},
			{
				"type": "occ",
				"energy": -0.29076,
				"method": "rhf"
			},
			{
				"type": "occ",
				"energy": -0.26391,
				"method": "rhf"
			},
			{
				"type": "occ",
				"energy": -0.25208,
				"method": "rhf"
			},
			{
				"type": "unocc",
				"energy": -0.09312,
				"method": "rhf"
			},
			{
				"type": "unocc",
				"energy": -0.05464,
				"method": "rhf"
			},
			{
				"type": "unocc",
				"energy": -0.04035,
				"method": "rhf"
			},
			{
				"type": "unocc",
				"energy": 0.01756,
				"method": "rhf"
			},
			{
				"type": "unocc",
				"energy": 0.05109,
				"method": "rhf"
			}
		],
		"cosmo_sigma_profile": { 
			"-0.025": 0.0,
			"-0.024": 0.0,
			"-0.023": 0.0,
			"-0.022": 0.0,
			"-0.021": 0.0,
			"-0.02": 0.0,
			"-0.019": 0.0,
			"-0.018": 0.0,
			"-0.017": 0.0,
			"-0.016": 0.0,
			"-0.015": 0.0,
			"-0.014": 0.0,
			"-0.013": 0.0,
			"-0.012": 0.0,
			"-0.011": 0.0,
			"-0.01": 0.0,
			"-0.009": 1.25691651701,
			"-0.008": 5.37831174718,
			"-0.007": 8.71015635284,
			"-0.006": 9.56954532379,
			"-0.005": 16.2383636629,
			"-0.004": 26.8910769239,
			"-0.003": 28.2590693994,
			"-0.002": 29.0421948037,
			"-0.001": 28.9450127604,
			"0.0": 35.3993633117,
			"0.001": 24.0186617161,
			"0.002": 13.3615729903,
			"0.003": 17.0361885625,
			"0.004": 10.6765505633,
			"0.005": 4.28726908666,
			"0.006": 5.48508559124,
			"0.007": 7.89185616738,
			"0.008": 11.7179531418,
			"0.009": 5.30183476019,
			"0.01": 1.06744577941,
			"0.011": 1.80914064158,
			"0.012": 1.72119084231,
			"0.013": 3.72472608134,
			"0.014": 2.49242526177,
			"0.015": 0.112549381237,
			"0.016": 0.0,
			"0.017": 0.0,
			"0.018": 0.0,
			"0.019": 0.0,
			"0.02": 0.0,
			"0.021": 0.0,
			"0.022": 0.0,
			"0.023": 0.0,
			"0.024": 0.0,
			"0.025": 0.0
		}
	}
}
