{
	 "smiles": "CCSSCC", 
	 "Tm": 171.15, 
	 "num_atms": 16, 
	 "gaussian": { 
		 "optdone": 1, 
		 "sigma_profile": "yes", 
		 "theory": "DFT", 
		 "functional": "B3LYP", 
		 "basiset": "6-31G**", 
		 "properties": { 
			 "R2extent": 1451.2126, 
			 "electric_dipole_moment_norm": 2.29963793889, 
			 "electric_quadrupole_moment_norm": 8.21498949178, 
			 "total_energy": -954.842540801, 
			 "HOMO_LUMO_gap": 0.21176, 
			 "cosmo_polarized_energy": -4.81, 
			 "cosmo_cavitation_energy": 21.54, 
			 "cosmo_dispersion_energy": -16.58, 
			 "cosmo_repulsion_energy": 1.34, 
			 "cosmo_total_nonelectrostatic_energy": 6.29, 
			 "SMD_solvation_energy": 2.83 
		},
		"coords": [
			{
				"x": 0.0384193736,
				"y": 1.3094826593,
				"z": 1.0734409173,
				"element": "C" 
			},
			{
				"x": 0.7499613747,
				"y": -0.0193232398,
				"z": 1.2999243795,
				"element": "C" 
			},
			{
				"x": 0.3415683974,
				"y": -1.3553227518,
				"z": 0.0914125638,
				"element": "S" 
			},
			{
				"x": 1.140985844,
				"y": -0.684731371,
				"z": -1.7117889452,
				"element": "S" 
			},
			{
				"x": -0.2912415481,
				"y": 0.1252581966,
				"z": -2.5619563812,
				"element": "C" 
			},
			{
				"x": 0.13423192,
				"y": 0.524642297,
				"z": -3.9744190052,
				"element": "C" 
			},
			{
				"x": -1.0482530329,
				"y": 1.1838019945,
				"z": 1.0684587067,
				"element": "H" 
			},
			{
				"x": 0.3414043953,
				"y": 1.7551282186,
				"z": 0.1213779881,
				"element": "H" 
			},
			{
				"x": 0.2998593555,
				"y": 2.0178124117,
				"z": 1.8681435228,
				"element": "H" 
			},
			{
				"x": 0.4601693971,
				"y": -0.4659169497,
				"z": 2.2586401044,
				"element": "H" 
			},
			{
				"x": 1.8359426657,
				"y": 0.1058709399,
				"z": 1.3110971462,
				"element": "H" 
			},
			{
				"x": -1.1173295663,
				"y": -0.5895196296,
				"z": -2.5848053083,
				"element": "H" 
			},
			{
				"x": -0.6034701591,
				"y": 0.9974250421,
				"z": -1.9827304388,
				"element": "H" 
			},
			{
				"x": 0.4414234873,
				"y": -0.3471205802,
				"z": -4.5598873009,
				"element": "H" 
			},
			{
				"x": 0.9667109091,
				"y": 1.2350017185,
				"z": -3.957405194,
				"element": "H" 
			},
			{
				"x": -0.7040828132,
				"y": 1.0021110439,
				"z": -4.4924027553,
				"element": "H" 
			}
		],
		 "valence_orbital": [ 
			{
				"type": "occ",
				"energy": -0.3537,
				"method": "rhf"
			},
			{
				"type": "occ",
				"energy": -0.33794,
				"method": "rhf"
			},
			{
				"type": "occ",
				"energy": -0.31185,
				"method": "rhf"
			},
			{
				"type": "occ",
				"energy": -0.23893,
				"method": "rhf"
			},
			{
				"type": "occ",
				"energy": -0.23101,
				"method": "rhf"
			},
			{
				"type": "unocc",
				"energy": -0.01925,
				"method": "rhf"
			},
			{
				"type": "unocc",
				"energy": 0.04287,
				"method": "rhf"
			},
			{
				"type": "unocc",
				"energy": 0.05279,
				"method": "rhf"
			},
			{
				"type": "unocc",
				"energy": 0.08881,
				"method": "rhf"
			},
			{
				"type": "unocc",
				"energy": 0.11893,
				"method": "rhf"
			}
		],
		"cosmo_sigma_profile": { 
			"-0.025": 0.0,
			"-0.024": 0.0,
			"-0.023": 0.0,
			"-0.022": 0.0,
			"-0.021": 0.0,
			"-0.02": 0.0,
			"-0.019": 0.0,
			"-0.018": 0.0,
			"-0.017": 0.0,
			"-0.016": 0.0,
			"-0.015": 0.0,
			"-0.014": 0.0,
			"-0.013": 0.0,
			"-0.012": 0.0,
			"-0.011": 0.0,
			"-0.01": 0.0,
			"-0.009": 0.0,
			"-0.008": 0.0,
			"-0.007": 0.30962338163,
			"-0.006": 2.45779490484,
			"-0.005": 6.7526793534,
			"-0.004": 15.6876651611,
			"-0.003": 22.7310813237,
			"-0.002": 25.5159733561,
			"-0.001": 21.495045278,
			"0.0": 19.5552692126,
			"0.001": 10.0791653631,
			"0.002": 7.35461603269,
			"0.003": 5.52375249151,
			"0.004": 6.86626405527,
			"0.005": 8.81919130653,
			"0.006": 5.9180655079,
			"0.007": 5.41349338515,
			"0.008": 3.96328808084,
			"0.009": 3.17672773591,
			"0.01": 0.49127846268,
			"0.011": 0.0,
			"0.012": 0.0,
			"0.013": 0.0,
			"0.014": 0.0,
			"0.015": 0.0,
			"0.016": 0.0,
			"0.017": 0.0,
			"0.018": 0.0,
			"0.019": 0.0,
			"0.02": 0.0,
			"0.021": 0.0,
			"0.022": 0.0,
			"0.023": 0.0,
			"0.024": 0.0,
			"0.025": 0.0
		}
	}
}
