{
	 "smiles": "FC1=CC=C(C=C1)S(=O)(=O)C1=CC=C(F)C=C1", 
	 "Tm": 372.15, 
	 "num_atms": 25, 
	 "gaussian": { 
		 "optdone": 1, 
		 "sigma_profile": "yes", 
		 "theory": "DFT", 
		 "functional": "B3LYP", 
		 "basiset": "6-31G**", 
		 "properties": { 
			 "R2extent": 5422.471, 
			 "electric_dipole_moment_norm": 3.84292308666, 
			 "electric_quadrupole_moment_norm": 15.2692077542, 
			 "total_energy": -1210.33149453, 
			 "HOMO_LUMO_gap": 0.20676, 
			 "cosmo_polarized_energy": -13.04, 
			 "cosmo_cavitation_energy": 32.52, 
			 "cosmo_dispersion_energy": -23.17, 
			 "cosmo_repulsion_energy": 1.69, 
			 "cosmo_total_nonelectrostatic_energy": 11.03, 
			 "SMD_solvation_energy": 5.92 
		},
		"coords": [
			{
				"x": 3.8368128657,
				"y": -4.4131250393,
				"z": 0.6125007064,
				"element": "F" 
			},
			{
				"x": 2.9256454182,
				"y": -3.5198198685,
				"z": 0.1888479209,
				"element": "C" 
			},
			{
				"x": 3.2975539091,
				"y": -2.1822688364,
				"z": 0.0829859466,
				"element": "C" 
			},
			{
				"x": 2.351521901,
				"y": -1.2586275427,
				"z": -0.3556257222,
				"element": "C" 
			},
			{
				"x": 1.0620340204,
				"y": -1.6933281602,
				"z": -0.6729346779,
				"element": "C" 
			},
			{
				"x": 0.7059939322,
				"y": -3.040903122,
				"z": -0.5746590283,
				"element": "C" 
			},
			{
				"x": 1.648416421,
				"y": -3.9685008565,
				"z": -0.1365557819,
				"element": "C" 
			},
			{
				"x": -0.1554171296,
				"y": -0.4988842536,
				"z": -1.2460588553,
				"element": "S" 
			},
			{
				"x": 0.5862281283,
				"y": 0.643082061,
				"z": -1.8045785553,
				"element": "O" 
			},
			{
				"x": -1.1554624584,
				"y": -1.240908263,
				"z": -2.0305171718,
				"element": "O" 
			},
			{
				"x": -0.9753589802,
				"y": 0.0802073413,
				"z": 0.2471453282,
				"element": "C" 
			},
			{
				"x": -0.4728873551,
				"y": 1.2006474437,
				"z": 0.9138796269,
				"element": "C" 
			},
			{
				"x": -1.1091139929,
				"y": 1.6543370796,
				"z": 2.0671027084,
				"element": "C" 
			},
			{
				"x": -2.2358001279,
				"y": 0.9731714402,
				"z": 2.5199499922,
				"element": "C" 
			},
			{
				"x": -2.8512710889,
				"y": 1.4087458577,
				"z": 3.6331264764,
				"element": "F" 
			},
			{
				"x": -2.754675019,
				"y": -0.1364574527,
				"z": 1.8580655042,
				"element": "C" 
			},
			{
				"x": -2.1148659577,
				"y": -0.5861588257,
				"z": 0.7053035193,
				"element": "C" 
			},
			{
				"x": 4.3103075457,
				"y": -1.8862392428,
				"z": 0.3328656182,
				"element": "H" 
			},
			{
				"x": 2.612640848,
				"y": -0.2129792009,
				"z": -0.475318215,
				"element": "H" 
			},
			{
				"x": -0.2905984487,
				"y": -3.3574671377,
				"z": -0.861859178,
				"element": "H" 
			},
			{
				"x": 1.4135995192,
				"y": -5.023768135,
				"z": -0.0527943173,
				"element": "H" 
			},
			{
				"x": 0.3915149388,
				"y": 1.7213787526,
				"z": 0.5169621685,
				"element": "H" 
			},
			{
				"x": -0.7543649439,
				"y": 2.523620134,
				"z": 2.6095580657,
				"element": "H" 
			},
			{
				"x": -3.6448151568,
				"y": -0.6219236085,
				"z": 2.2424196794,
				"element": "H" 
			},
			{
				"x": -2.5054387883,
				"y": -1.4311305649,
				"z": 0.1490882414,
				"element": "H" 
			}
		],
		 "valence_orbital": [ 
			{
				"type": "occ",
				"energy": -0.29491,
				"method": "rhf"
			},
			{
				"type": "occ",
				"energy": -0.2856,
				"method": "rhf"
			},
			{
				"type": "occ",
				"energy": -0.2827,
				"method": "rhf"
			},
			{
				"type": "occ",
				"energy": -0.28206,
				"method": "rhf"
			},
			{
				"type": "occ",
				"energy": -0.26033,
				"method": "rhf"
			},
			{
				"type": "unocc",
				"energy": -0.05357,
				"method": "rhf"
			},
			{
				"type": "unocc",
				"energy": -0.03857,
				"method": "rhf"
			},
			{
				"type": "unocc",
				"energy": -0.02866,
				"method": "rhf"
			},
			{
				"type": "unocc",
				"energy": -0.02107,
				"method": "rhf"
			},
			{
				"type": "unocc",
				"energy": 0.04644,
				"method": "rhf"
			}
		],
		"cosmo_sigma_profile": { 
			"-0.025": 0.0,
			"-0.024": 0.0,
			"-0.023": 0.0,
			"-0.022": 0.0,
			"-0.021": 0.0,
			"-0.02": 0.0,
			"-0.019": 0.0,
			"-0.018": 0.0,
			"-0.017": 0.0,
			"-0.016": 0.0,
			"-0.015": 0.0,
			"-0.014": 0.0,
			"-0.013": 0.0,
			"-0.012": 0.0,
			"-0.011": 0.0,
			"-0.01": 0.0,
			"-0.009": 1.36638480082,
			"-0.008": 9.86926235213,
			"-0.007": 13.7800502788,
			"-0.006": 17.6171462954,
			"-0.005": 12.4074340594,
			"-0.004": 11.9609926043,
			"-0.003": 11.7735165559,
			"-0.002": 12.6874445853,
			"-0.001": 24.0860618831,
			"0.0": 27.4138226863,
			"0.001": 33.1453899867,
			"0.002": 22.3618787865,
			"0.003": 16.3508258756,
			"0.004": 15.5708273657,
			"0.005": 2.36773827563,
			"0.006": 2.86463948624,
			"0.007": 2.90597872262,
			"0.008": 2.80598299352,
			"0.009": 3.39297148439,
			"0.01": 5.92653078616,
			"0.011": 7.5920811773,
			"0.012": 4.52303191118,
			"0.013": 0.0,
			"0.014": 0.0,
			"0.015": 0.0,
			"0.016": 0.0,
			"0.017": 0.0,
			"0.018": 0.0,
			"0.019": 0.0,
			"0.02": 0.0,
			"0.021": 0.0,
			"0.022": 0.0,
			"0.023": 0.0,
			"0.024": 0.0,
			"0.025": 0.0
		}
	}
}
