{
	 "smiles": "CC1=C(NC(=O)CC2=CC=NC=C2)C=C(C=C1)C(O)=O", 
	 "Tm": 568.15, 
	 "num_atms": 34, 
	 "gaussian": { 
		 "optdone": 1, 
		 "sigma_profile": "yes", 
		 "theory": "DFT", 
		 "functional": "B3LYP", 
		 "basiset": "6-31G**", 
		 "properties": { 
			 "R2extent": 6825.6233, 
			 "electric_dipole_moment_norm": 1.82601514232, 
			 "electric_quadrupole_moment_norm": 29.2041947282, 
			 "total_energy": -915.232333564, 
			 "HOMO_LUMO_gap": 0.19227, 
			 "cosmo_polarized_energy": -25.69, 
			 "cosmo_cavitation_energy": 39.45, 
			 "cosmo_dispersion_energy": -25.91, 
			 "cosmo_repulsion_energy": 1.99, 
			 "cosmo_total_nonelectrostatic_energy": 15.53, 
			 "SMD_solvation_energy": 7.07 
		},
		"coords": [
			{
				"x": 1.5750889541,
				"y": -0.3948301336,
				"z": 2.4661946506,
				"element": "C" 
			},
			{
				"x": 0.6978187529,
				"y": 0.3188706185,
				"z": 1.4699593832,
				"element": "C" 
			},
			{
				"x": -0.5839897058,
				"y": -0.1729706946,
				"z": 1.1502724741,
				"element": "C" 
			},
			{
				"x": -1.0845355033,
				"y": -1.3332748553,
				"z": 1.8115825036,
				"element": "N" 
			},
			{
				"x": -1.3032281271,
				"y": -2.6015791928,
				"z": 1.3127996858,
				"element": "C" 
			},
			{
				"x": -1.7263672475,
				"y": -3.4894835927,
				"z": 2.0386353595,
				"element": "O" 
			},
			{
				"x": -0.9350487651,
				"y": -2.8721868576,
				"z": -0.1468711422,
				"element": "C" 
			},
			{
				"x": 0.4489752802,
				"y": -3.4920830283,
				"z": -0.2492886094,
				"element": "C" 
			},
			{
				"x": 0.7637275792,
				"y": -4.6793118741,
				"z": 0.4237737038,
				"element": "C" 
			},
			{
				"x": 2.0453508307,
				"y": -5.210795723,
				"z": 0.2881576857,
				"element": "C" 
			},
			{
				"x": 3.0139993318,
				"y": -4.6550161516,
				"z": -0.4535406544,
				"element": "N" 
			},
			{
				"x": 2.706111626,
				"y": -3.5201816323,
				"z": -1.0909929443,
				"element": "C" 
			},
			{
				"x": 1.455086955,
				"y": -2.9034467419,
				"z": -1.0209829315,
				"element": "C" 
			},
			{
				"x": -1.3908743778,
				"y": 0.4976687104,
				"z": 0.2258849855,
				"element": "C" 
			},
			{
				"x": -0.9339341583,
				"y": 1.6517892114,
				"z": -0.4215123164,
				"element": "C" 
			},
			{
				"x": 0.3316407396,
				"y": 2.15350214,
				"z": -0.094135929,
				"element": "C" 
			},
			{
				"x": 1.128069197,
				"y": 1.4921540963,
				"z": 0.8343418289,
				"element": "C" 
			},
			{
				"x": -1.7560583043,
				"y": 2.4224573398,
				"z": -1.4117362018,
				"element": "C" 
			},
			{
				"x": -2.80401784,
				"y": 1.7723031897,
				"z": -1.9841430161,
				"element": "O" 
			},
			{
				"x": -1.523030854,
				"y": 3.570056893,
				"z": -1.7090209452,
				"element": "O" 
			},
			{
				"x": 2.5680993074,
				"y": 0.05840207,
				"z": 2.5061064026,
				"element": "H" 
			},
			{
				"x": 1.1525793626,
				"y": -0.3562104165,
				"z": 3.4777426333,
				"element": "H" 
			},
			{
				"x": 1.6870803657,
				"y": -1.4524646523,
				"z": 2.2077043893,
				"element": "H" 
			},
			{
				"x": -1.2209426094,
				"y": -1.2876190667,
				"z": 2.8154664976,
				"element": "H" 
			},
			{
				"x": -1.68402447,
				"y": -3.578236983,
				"z": -0.5178023076,
				"element": "H" 
			},
			{
				"x": -0.9794729251,
				"y": -1.970003171,
				"z": -0.7589226422,
				"element": "H" 
			},
			{
				"x": 0.022305057,
				"y": -5.166999812,
				"z": 1.0482473022,
				"element": "H" 
			},
			{
				"x": 2.3076994881,
				"y": -6.1334958009,
				"z": 0.802970581,
				"element": "H" 
			},
			{
				"x": 3.4985531964,
				"y": -3.0756843003,
				"z": -1.6912786272,
				"element": "H" 
			},
			{
				"x": 1.2722463614,
				"y": -1.9811476108,
				"z": -1.5653231317,
				"element": "H" 
			},
			{
				"x": -2.3975140031,
				"y": 0.1181566315,
				"z": 0.0692923285,
				"element": "H" 
			},
			{
				"x": 0.6684786187,
				"y": 3.0636524633,
				"z": -0.5780842496,
				"element": "H" 
			},
			{
				"x": 2.1118949085,
				"y": 1.8868427665,
				"z": 1.0721633009,
				"element": "H" 
			},
			{
				"x": -2.7744670213,
				"y": 0.8292661608,
				"z": -1.7733600477,
				"element": "H" 
			}
		],
		 "valence_orbital": [ 
			{
				"type": "occ",
				"energy": -0.27645,
				"method": "rhf"
			},
			{
				"type": "occ",
				"energy": -0.27099,
				"method": "rhf"
			},
			{
				"type": "occ",
				"energy": -0.26721,
				"method": "rhf"
			},
			{
				"type": "occ",
				"energy": -0.25974,
				"method": "rhf"
			},
			{
				"type": "occ",
				"energy": -0.25613,
				"method": "rhf"
			},
			{
				"type": "unocc",
				"energy": -0.06386,
				"method": "rhf"
			},
			{
				"type": "unocc",
				"energy": -0.04119,
				"method": "rhf"
			},
			{
				"type": "unocc",
				"energy": -0.034,
				"method": "rhf"
			},
			{
				"type": "unocc",
				"energy": -0.01721,
				"method": "rhf"
			},
			{
				"type": "unocc",
				"energy": 0.00916,
				"method": "rhf"
			}
		],
		"cosmo_sigma_profile": { 
			"-0.025": 0.0,
			"-0.024": 0.0,
			"-0.023": 0.0,
			"-0.022": 0.0,
			"-0.021": 0.0,
			"-0.02": 0.0,
			"-0.019": 0.255690162999,
			"-0.018": 0.840807834088,
			"-0.017": 0.979976091179,
			"-0.016": 0.765714229999,
			"-0.015": 1.09753113115,
			"-0.014": 2.35821873988,
			"-0.013": 1.7725771514,
			"-0.012": 2.11653870232,
			"-0.011": 2.69801392603,
			"-0.01": 2.62913578523,
			"-0.009": 2.5675394418,
			"-0.008": 3.64671236833,
			"-0.007": 6.98792743035,
			"-0.006": 19.6706586967,
			"-0.005": 22.7534016076,
			"-0.004": 21.0549583963,
			"-0.003": 22.2723998573,
			"-0.002": 22.2011532045,
			"-0.001": 25.8949918855,
			"0.0": 22.4032791478,
			"0.001": 20.3815582194,
			"0.002": 25.7861875904,
			"0.003": 14.6158169849,
			"0.004": 6.17944432315,
			"0.005": 6.18892012627,
			"0.006": 5.57735259469,
			"0.007": 4.67071548548,
			"0.008": 4.63928173927,
			"0.009": 7.01955705916,
			"0.01": 7.13227879383,
			"0.011": 7.50241754674,
			"0.012": 7.44547988783,
			"0.013": 7.64815523358,
			"0.014": 2.8074901486,
			"0.015": 0.679026635006,
			"0.016": 0.988926514213,
			"0.017": 0.461612003417,
			"0.018": 0.0198442444977,
			"0.019": 0.0,
			"0.02": 0.0,
			"0.021": 0.0,
			"0.022": 0.0,
			"0.023": 0.0,
			"0.024": 0.0,
			"0.025": 0.0
		}
	}
}
