{
	 "smiles": "OC(=O)C1CN(C(=O)C1)C1=CC=C(C=C1)S(Cl)(=O)=O", 
	 "Tm": 431.15, 
	 "num_atms": 29, 
	 "gaussian": { 
		 "optdone": 1, 
		 "sigma_profile": "yes", 
		 "theory": "DFT", 
		 "functional": "B3LYP", 
		 "basiset": "6-31G**", 
		 "properties": { 
			 "R2extent": 9690.6886, 
			 "electric_dipole_moment_norm": 9.30930272255, 
			 "electric_quadrupole_moment_norm": 18.8672275894, 
			 "total_energy": -1714.41268579, 
			 "HOMO_LUMO_gap": 0.16665, 
			 "cosmo_polarized_energy": -21.62, 
			 "cosmo_cavitation_energy": 36.97, 
			 "cosmo_dispersion_energy": -27.25, 
			 "cosmo_repulsion_energy": 2.05, 
			 "cosmo_total_nonelectrostatic_energy": 11.78, 
			 "SMD_solvation_energy": 6.2 
		},
		"coords": [
			{
				"x": -1.1636479273,
				"y": 3.5138411472,
				"z": 2.8391706094,
				"element": "O" 
			},
			{
				"x": -0.8107521657,
				"y": 2.9072385956,
				"z": 1.68503451,
				"element": "C" 
			},
			{
				"x": 0.2955356829,
				"y": 2.9990435557,
				"z": 1.2028139985,
				"element": "O" 
			},
			{
				"x": -1.9874683518,
				"y": 2.1451421888,
				"z": 1.0812068687,
				"element": "C" 
			},
			{
				"x": -1.5444224903,
				"y": 1.3067429591,
				"z": -0.1298233735,
				"element": "C" 
			},
			{
				"x": -1.3653459867,
				"y": -0.0523094773,
				"z": 0.4034286828,
				"element": "N" 
			},
			{
				"x": -1.9568439134,
				"y": -0.2136090775,
				"z": 1.6580685129,
				"element": "C" 
			},
			{
				"x": -1.9870275538,
				"y": -1.2312394872,
				"z": 2.3242087575,
				"element": "O" 
			},
			{
				"x": -2.5946685721,
				"y": 1.1138742445,
				"z": 2.0494797282,
				"element": "C" 
			},
			{
				"x": -0.7563758302,
				"y": -1.0621100804,
				"z": -0.3628435617,
				"element": "C" 
			},
			{
				"x": -0.4896247684,
				"y": -2.3406663794,
				"z": 0.1730374911,
				"element": "C" 
			},
			{
				"x": 0.1203796115,
				"y": -3.3111351572,
				"z": -0.6105161623,
				"element": "C" 
			},
			{
				"x": 0.4643334572,
				"y": -3.0164789982,
				"z": -1.9313747803,
				"element": "C" 
			},
			{
				"x": 0.2106805613,
				"y": -1.7620602439,
				"z": -2.4839532645,
				"element": "C" 
			},
			{
				"x": -0.4011360605,
				"y": -0.791433779,
				"z": -1.7004124125,
				"element": "C" 
			},
			{
				"x": 1.2302220385,
				"y": -4.2661644169,
				"z": -2.9357831495,
				"element": "S" 
			},
			{
				"x": 3.3084897647,
				"y": -3.9332206173,
				"z": -2.5378032505,
				"element": "Cl" 
			},
			{
				"x": 0.9278876052,
				"y": -5.5842844391,
				"z": -2.3913796757,
				"element": "O" 
			},
			{
				"x": 1.0397106143,
				"y": -3.9420818372,
				"z": -4.3448842693,
				"element": "O" 
			},
			{
				"x": -0.3773595904,
				"y": 3.9901452776,
				"z": 3.1558710079,
				"element": "H" 
			},
			{
				"x": -2.7242050612,
				"y": 2.9008345854,
				"z": 0.7906458623,
				"element": "H" 
			},
			{
				"x": -2.3063470677,
				"y": 1.3116746618,
				"z": -0.9190651401,
				"element": "H" 
			},
			{
				"x": -0.6046595829,
				"y": 1.6868092505,
				"z": -0.5353488959,
				"element": "H" 
			},
			{
				"x": -2.4160340149,
				"y": 1.3277230787,
				"z": 3.1037155616,
				"element": "H" 
			},
			{
				"x": -3.6779996395,
				"y": 1.0235652546,
				"z": 1.9123826479,
				"element": "H" 
			},
			{
				"x": -0.772164719,
				"y": -2.5590999239,
				"z": 1.1918738688,
				"element": "H" 
			},
			{
				"x": 0.3204494501,
				"y": -4.2954588813,
				"z": -0.2022326829,
				"element": "H" 
			},
			{
				"x": 0.4755176953,
				"y": -1.5535508008,
				"z": -3.5142536732,
				"element": "H" 
			},
			{
				"x": -0.6056231851,
				"y": 0.1746687971,
				"z": -2.1432638155,
				"element": "H" 
			}
		],
		 "valence_orbital": [ 
			{
				"type": "occ",
				"energy": -0.30542,
				"method": "rhf"
			},
			{
				"type": "occ",
				"energy": -0.30481,
				"method": "rhf"
			},
			{
				"type": "occ",
				"energy": -0.28454,
				"method": "rhf"
			},
			{
				"type": "occ",
				"energy": -0.27689,
				"method": "rhf"
			},
			{
				"type": "occ",
				"energy": -0.25118,
				"method": "rhf"
			},
			{
				"type": "unocc",
				"energy": -0.08453,
				"method": "rhf"
			},
			{
				"type": "unocc",
				"energy": -0.04466,
				"method": "rhf"
			},
			{
				"type": "unocc",
				"energy": -0.03293,
				"method": "rhf"
			},
			{
				"type": "unocc",
				"energy": -0.02258,
				"method": "rhf"
			},
			{
				"type": "unocc",
				"energy": 0.00674,
				"method": "rhf"
			}
		],
		"cosmo_sigma_profile": { 
			"-0.025": 0.0,
			"-0.024": 0.0,
			"-0.023": 0.0,
			"-0.022": 0.0,
			"-0.021": 0.0,
			"-0.02": 0.0,
			"-0.019": 0.356947605884,
			"-0.018": 0.871583075345,
			"-0.017": 0.844405726935,
			"-0.016": 1.33070569455,
			"-0.015": 0.684714415831,
			"-0.014": 0.457079520846,
			"-0.013": 0.574199695582,
			"-0.012": 0.649384528282,
			"-0.011": 0.842981527541,
			"-0.01": 0.622738494173,
			"-0.009": 2.19548217044,
			"-0.008": 13.3514942495,
			"-0.007": 20.2587857049,
			"-0.006": 18.1501689831,
			"-0.005": 15.2787459357,
			"-0.004": 14.9120486165,
			"-0.003": 13.8497137012,
			"-0.002": 14.1374391659,
			"-0.001": 18.0730749272,
			"0.0": 20.7978539029,
			"0.001": 23.8143069481,
			"0.002": 18.8894452331,
			"0.003": 17.5067247072,
			"0.004": 16.2360274652,
			"0.005": 6.66416464693,
			"0.006": 7.91295230036,
			"0.007": 8.63530292548,
			"0.008": 13.8266422849,
			"0.009": 9.73470850486,
			"0.01": 4.85708624138,
			"0.011": 6.85639448075,
			"0.012": 3.68769786884,
			"0.013": 1.24237967012,
			"0.014": 0.0333266264555,
			"0.015": 0.0,
			"0.016": 0.0,
			"0.017": 0.0,
			"0.018": 0.0,
			"0.019": 0.0,
			"0.02": 0.0,
			"0.021": 0.0,
			"0.022": 0.0,
			"0.023": 0.0,
			"0.024": 0.0,
			"0.025": 0.0
		}
	}
}
