{
	 "smiles": "NC(=S)C1=CC(=CC=C1)S(=O)(=O)NC1CCCCCCC1", 
	 "Tm": 398.15, 
	 "num_atms": 43, 
	 "gaussian": { 
		 "optdone": 1, 
		 "sigma_profile": "yes", 
		 "theory": "DFT", 
		 "functional": "B3LYP", 
		 "basiset": "6-31G**", 
		 "properties": { 
			 "R2extent": 9097.2425, 
			 "electric_dipole_moment_norm": 6.24149259713, 
			 "electric_quadrupole_moment_norm": 20.7807533054, 
			 "total_energy": -1641.13116298, 
			 "HOMO_LUMO_gap": 0.14216, 
			 "cosmo_polarized_energy": -23.05, 
			 "cosmo_cavitation_energy": 45.89, 
			 "cosmo_dispersion_energy": -32.14, 
			 "cosmo_repulsion_energy": 2.42, 
			 "cosmo_total_nonelectrostatic_energy": 16.16, 
			 "SMD_solvation_energy": 4.77 
		},
		"coords": [
			{
				"x": -0.1793135015,
				"y": 0.1986329975,
				"z": 4.3188627549,
				"element": "N" 
			},
			{
				"x": 0.0230591548,
				"y": -1.1327856709,
				"z": 4.2129695283,
				"element": "C" 
			},
			{
				"x": -0.0366107249,
				"y": -2.1332493703,
				"z": 5.5465196381,
				"element": "S" 
			},
			{
				"x": 0.3245664779,
				"y": -1.6233230597,
				"z": 2.835076845,
				"element": "C" 
			},
			{
				"x": 0.9193430392,
				"y": -0.7811013792,
				"z": 1.8803928297,
				"element": "C" 
			},
			{
				"x": 1.184394296,
				"y": -1.2630837865,
				"z": 0.6010892772,
				"element": "C" 
			},
			{
				"x": 0.8803872847,
				"y": -2.5771100167,
				"z": 0.2404442362,
				"element": "C" 
			},
			{
				"x": 0.294368177,
				"y": -3.4137210133,
				"z": 1.1896954947,
				"element": "C" 
			},
			{
				"x": 0.0239525009,
				"y": -2.9454471173,
				"z": 2.4745014679,
				"element": "C" 
			},
			{
				"x": 2.024514623,
				"y": -0.1798835813,
				"z": -0.5637408336,
				"element": "S" 
			},
			{
				"x": 1.9880743646,
				"y": 1.1661334187,
				"z": 0.0276674692,
				"element": "O" 
			},
			{
				"x": 3.294107326,
				"y": -0.7918540656,
				"z": -0.9685030374,
				"element": "O" 
			},
			{
				"x": 1.0405023966,
				"y": -0.2871464215,
				"z": -1.9238211727,
				"element": "N" 
			},
			{
				"x": -0.0788255756,
				"y": 0.6738432279,
				"z": -2.1093063897,
				"element": "C" 
			},
			{
				"x": 0.4404841276,
				"y": 1.9768284709,
				"z": -2.755971223,
				"element": "C" 
			},
			{
				"x": -0.6067590447,
				"y": 2.9718504551,
				"z": -3.2772804684,
				"element": "C" 
			},
			{
				"x": -1.550522144,
				"y": 3.6146101483,
				"z": -2.2489248484,
				"element": "C" 
			},
			{
				"x": -2.5315822105,
				"y": 2.6834989751,
				"z": -1.5042461948,
				"element": "C" 
			},
			{
				"x": -3.2436601918,
				"y": 1.6194978764,
				"z": -2.3730946036,
				"element": "C" 
			},
			{
				"x": -2.6396701393,
				"y": 0.2019279911,
				"z": -2.3359469736,
				"element": "C" 
			},
			{
				"x": -1.2201463385,
				"y": -0.0230035563,
				"z": -2.8934141052,
				"element": "C" 
			},
			{
				"x": -0.3057315198,
				"y": 0.7875526382,
				"z": 3.5093825345,
				"element": "H" 
			},
			{
				"x": -0.3853708032,
				"y": 0.5791995562,
				"z": 5.2307588244,
				"element": "H" 
			},
			{
				"x": 1.216844167,
				"y": 0.2339840353,
				"z": 2.1186735224,
				"element": "H" 
			},
			{
				"x": 1.094319769,
				"y": -2.9303847504,
				"z": -0.7622418628,
				"element": "H" 
			},
			{
				"x": 0.0479971412,
				"y": -4.4378430421,
				"z": 0.9273296185,
				"element": "H" 
			},
			{
				"x": -0.4226394916,
				"y": -3.5945243747,
				"z": 3.2195638466,
				"element": "H" 
			},
			{
				"x": 1.6521152297,
				"y": -0.3845746659,
				"z": -2.7321144214,
				"element": "H" 
			},
			{
				"x": -0.4356933244,
				"y": 0.8873461969,
				"z": -1.0982831138,
				"element": "H" 
			},
			{
				"x": 1.1066557642,
				"y": 2.468234578,
				"z": -2.038537658,
				"element": "H" 
			},
			{
				"x": 1.0681582732,
				"y": 1.6847424758,
				"z": -3.6113542378,
				"element": "H" 
			},
			{
				"x": -1.2013832788,
				"y": 2.4971521806,
				"z": -4.0672016051,
				"element": "H" 
			},
			{
				"x": -0.0605441492,
				"y": 3.7813411431,
				"z": -3.7775203332,
				"element": "H" 
			},
			{
				"x": -0.9585508023,
				"y": 4.1691569723,
				"z": -1.5087964256,
				"element": "H" 
			},
			{
				"x": -2.141778024,
				"y": 4.3686490441,
				"z": -2.7854581144,
				"element": "H" 
			},
			{
				"x": -3.2883145403,
				"y": 3.3240296708,
				"z": -1.0355664897,
				"element": "H" 
			},
			{
				"x": -2.0249144256,
				"y": 2.1868039279,
				"z": -0.6678371716,
				"element": "H" 
			},
			{
				"x": -3.3139073663,
				"y": 1.968649172,
				"z": -3.4119282798,
				"element": "H" 
			},
			{
				"x": -4.2804864473,
				"y": 1.5244795074,
				"z": -2.0285615938,
				"element": "H" 
			},
			{
				"x": -3.316022231,
				"y": -0.4655747367,
				"z": -2.8851229101,
				"element": "H" 
			},
			{
				"x": -2.6550583038,
				"y": -0.1511458364,
				"z": -1.2946595385,
				"element": "H" 
			},
			{
				"x": -1.0274620999,
				"y": -1.1002455703,
				"z": -2.8623270559,
				"element": "H" 
			},
			{
				"x": -1.179297434,
				"y": 0.2638573557,
				"z": -3.952167226,
				"element": "H" 
			}
		],
		 "valence_orbital": [ 
			{
				"type": "occ",
				"energy": -0.28655,
				"method": "rhf"
			},
			{
				"type": "occ",
				"energy": -0.28088,
				"method": "rhf"
			},
			{
				"type": "occ",
				"energy": -0.26356,
				"method": "rhf"
			},
			{
				"type": "occ",
				"energy": -0.23629,
				"method": "rhf"
			},
			{
				"type": "occ",
				"energy": -0.21517,
				"method": "rhf"
			},
			{
				"type": "unocc",
				"energy": -0.07301,
				"method": "rhf"
			},
			{
				"type": "unocc",
				"energy": -0.04271,
				"method": "rhf"
			},
			{
				"type": "unocc",
				"energy": 0.00419,
				"method": "rhf"
			},
			{
				"type": "unocc",
				"energy": 0.04872,
				"method": "rhf"
			},
			{
				"type": "unocc",
				"energy": 0.06681,
				"method": "rhf"
			}
		],
		"cosmo_sigma_profile": { 
			"-0.025": 0.0,
			"-0.024": 0.0,
			"-0.023": 0.0,
			"-0.022": 0.0,
			"-0.021": 0.0,
			"-0.02": 0.0,
			"-0.019": 0.0,
			"-0.018": 0.0,
			"-0.017": 0.0,
			"-0.016": 0.662933969882,
			"-0.015": 2.45518700458,
			"-0.014": 3.14944336045,
			"-0.013": 2.91586726254,
			"-0.012": 3.79448216761,
			"-0.011": 3.26112535513,
			"-0.01": 3.47399774234,
			"-0.009": 2.49508726369,
			"-0.008": 5.0371856303,
			"-0.007": 7.8520037262,
			"-0.006": 8.70183690517,
			"-0.005": 9.89512813567,
			"-0.004": 11.2897922933,
			"-0.003": 22.5558109492,
			"-0.002": 38.1977466293,
			"-0.001": 47.9583704005,
			"0.0": 49.5874912173,
			"0.001": 37.3709869901,
			"0.002": 18.5129856827,
			"0.003": 8.52224298291,
			"0.004": 8.57451294697,
			"0.005": 6.09464527806,
			"0.006": 7.63834472612,
			"0.007": 7.06878874802,
			"0.008": 10.6353870413,
			"0.009": 9.51032954968,
			"0.01": 9.69186650198,
			"0.011": 11.7911771831,
			"0.012": 3.60843618695,
			"0.013": 0.0,
			"0.014": 0.0,
			"0.015": 0.0,
			"0.016": 0.0,
			"0.017": 0.0,
			"0.018": 0.0,
			"0.019": 0.0,
			"0.02": 0.0,
			"0.021": 0.0,
			"0.022": 0.0,
			"0.023": 0.0,
			"0.024": 0.0,
			"0.025": 0.0
		}
	}
}
