{
	 "smiles": "FC(F)(F)C1=CC(=CC=C1)C(=O)C1=CC(=CC=C1)C(F)(F)F", 
	 "Tm": 374.15, 
	 "num_atms": 30, 
	 "gaussian": { 
		 "optdone": 1, 
		 "sigma_profile": "yes", 
		 "theory": "DFT", 
		 "functional": "B3LYP", 
		 "basiset": "6-31G**", 
		 "properties": { 
			 "R2extent": 10129.7127, 
			 "electric_dipole_moment_norm": 3.20396486404, 
			 "electric_quadrupole_moment_norm": 18.7875976886, 
			 "total_energy": -1250.69965951, 
			 "HOMO_LUMO_gap": 0.17973, 
			 "cosmo_polarized_energy": -9.26, 
			 "cosmo_cavitation_energy": 38.41, 
			 "cosmo_dispersion_energy": -26.05, 
			 "cosmo_repulsion_energy": 1.85, 
			 "cosmo_total_nonelectrostatic_energy": 14.22, 
			 "SMD_solvation_energy": 9.2 
		},
		"coords": [
			{
				"x": -2.0931676744,
				"y": -4.7406661909,
				"z": -2.4284020172,
				"element": "F" 
			},
			{
				"x": -2.0278971271,
				"y": -3.8839427846,
				"z": -3.4679567106,
				"element": "C" 
			},
			{
				"x": -1.3815625092,
				"y": -4.5114285161,
				"z": -4.4765624667,
				"element": "F" 
			},
			{
				"x": -3.2949754255,
				"y": -3.6695737783,
				"z": -3.8894930031,
				"element": "F" 
			},
			{
				"x": -1.3462122328,
				"y": -2.592867016,
				"z": -3.0948176911,
				"element": "C" 
			},
			{
				"x": -1.323886131,
				"y": -2.168661003,
				"z": -1.7700194726,
				"element": "C" 
			},
			{
				"x": -0.7136206487,
				"y": -0.9524555685,
				"z": -1.4280120818,
				"element": "C" 
			},
			{
				"x": -0.1609843671,
				"y": -0.1548126582,
				"z": -2.4406308373,
				"element": "C" 
			},
			{
				"x": -0.2018238063,
				"y": -0.5761977446,
				"z": -3.7710068399,
				"element": "C" 
			},
			{
				"x": -0.7837717838,
				"y": -1.7975559696,
				"z": -4.1008706851,
				"element": "C" 
			},
			{
				"x": -0.7677337968,
				"y": -0.5349054771,
				"z": 0.0133486377,
				"element": "C" 
			},
			{
				"x": -1.6734237381,
				"y": -0.9428425195,
				"z": 0.7297855861,
				"element": "O" 
			},
			{
				"x": 0.276943466,
				"y": 0.3786144875,
				"z": 0.5883349361,
				"element": "C" 
			},
			{
				"x": 1.5961826196,
				"y": 0.4199217611,
				"z": 0.119243763,
				"element": "C" 
			},
			{
				"x": 2.5347748913,
				"y": 1.2448356888,
				"z": 0.7428207838,
				"element": "C" 
			},
			{
				"x": 2.1645412254,
				"y": 2.040691518,
				"z": 1.8292564162,
				"element": "C" 
			},
			{
				"x": 0.8525327483,
				"y": 1.9954634332,
				"z": 2.3045770666,
				"element": "C" 
			},
			{
				"x": -0.0810162408,
				"y": 1.1605390083,
				"z": 1.6983468659,
				"element": "C" 
			},
			{
				"x": 3.9663402277,
				"y": 1.2320047258,
				"z": 0.2747694271,
				"element": "C" 
			},
			{
				"x": 4.0592059888,
				"y": 0.9544463349,
				"z": -1.0450838629,
				"element": "F" 
			},
			{
				"x": 4.5719411395,
				"y": 2.4210923481,
				"z": 0.485114063,
				"element": "F" 
			},
			{
				"x": 4.6949000604,
				"y": 0.2973494019,
				"z": 0.9255972527,
				"element": "F" 
			},
			{
				"x": -1.7705530083,
				"y": -2.7684697085,
				"z": -0.9856742171,
				"element": "H" 
			},
			{
				"x": 0.2814762841,
				"y": 0.8049272355,
				"z": -2.1965727232,
				"element": "H" 
			},
			{
				"x": 0.2228249206,
				"y": 0.0493552652,
				"z": -4.5497989273,
				"element": "H" 
			},
			{
				"x": -0.8017306041,
				"y": -2.1385206162,
				"z": -5.1306570115,
				"element": "H" 
			},
			{
				"x": 1.9030917805,
				"y": -0.1972055166,
				"z": -0.7168861387,
				"element": "H" 
			},
			{
				"x": 2.8977003374,
				"y": 2.6902139103,
				"z": 2.2952862124,
				"element": "H" 
			},
			{
				"x": 0.5634044498,
				"y": 2.6109447035,
				"z": 3.1507095837,
				"element": "H" 
			},
			{
				"x": -1.0990010456,
				"y": 1.0959052455,
				"z": 2.0674540917,
				"element": "H" 
			}
		],
		 "valence_orbital": [ 
			{
				"type": "occ",
				"energy": -0.28442,
				"method": "rhf"
			},
			{
				"type": "occ",
				"energy": -0.28377,
				"method": "rhf"
			},
			{
				"type": "occ",
				"energy": -0.28161,
				"method": "rhf"
			},
			{
				"type": "occ",
				"energy": -0.28078,
				"method": "rhf"
			},
			{
				"type": "occ",
				"energy": -0.2639,
				"method": "rhf"
			},
			{
				"type": "unocc",
				"energy": -0.08417,
				"method": "rhf"
			},
			{
				"type": "unocc",
				"energy": -0.04308,
				"method": "rhf"
			},
			{
				"type": "unocc",
				"energy": -0.03942,
				"method": "rhf"
			},
			{
				"type": "unocc",
				"energy": -0.0306,
				"method": "rhf"
			},
			{
				"type": "unocc",
				"energy": 0.02946,
				"method": "rhf"
			}
		],
		"cosmo_sigma_profile": { 
			"-0.025": 0.0,
			"-0.024": 0.0,
			"-0.023": 0.0,
			"-0.022": 0.0,
			"-0.021": 0.0,
			"-0.02": 0.0,
			"-0.019": 0.0,
			"-0.018": 0.0,
			"-0.017": 0.0,
			"-0.016": 0.0,
			"-0.015": 0.0,
			"-0.014": 0.0,
			"-0.013": 0.0,
			"-0.012": 0.0,
			"-0.011": 0.0,
			"-0.01": 0.0,
			"-0.009": 0.0,
			"-0.008": 2.60958218756,
			"-0.007": 11.9213572614,
			"-0.006": 15.9823547464,
			"-0.005": 18.3179733157,
			"-0.004": 16.0165948694,
			"-0.003": 17.5174821453,
			"-0.002": 16.5659377101,
			"-0.001": 20.6857373538,
			"0.0": 27.098213395,
			"0.001": 37.3719899014,
			"0.002": 54.9190871251,
			"0.003": 51.1380132582,
			"0.004": 3.35605044904,
			"0.005": 1.97615328039,
			"0.006": 1.53077872931,
			"0.007": 1.52231457746,
			"0.008": 1.64409169576,
			"0.009": 2.11364021985,
			"0.01": 2.59758068625,
			"0.011": 3.55584749566,
			"0.012": 1.55511180503,
			"0.013": 0.0,
			"0.014": 0.0,
			"0.015": 0.0,
			"0.016": 0.0,
			"0.017": 0.0,
			"0.018": 0.0,
			"0.019": 0.0,
			"0.02": 0.0,
			"0.021": 0.0,
			"0.022": 0.0,
			"0.023": 0.0,
			"0.024": 0.0,
			"0.025": 0.0
		}
	}
}
