{
	 "smiles": "COC1=C2C(=O)CC2=CC=C1Br", 
	 "Tm": 391.15, 
	 "num_atms": 19, 
	 "gaussian": { 
		 "optdone": 1, 
		 "sigma_profile": "yes", 
		 "theory": "DFT", 
		 "functional": "B3LYP", 
		 "basiset": "6-31G**", 
		 "properties": { 
			 "R2extent": 5184.7528, 
			 "electric_dipole_moment_norm": 1.70825976069, 
			 "electric_quadrupole_moment_norm": 12.4179464277, 
			 "total_energy": -3068.97490432, 
			 "HOMO_LUMO_gap": 0.17298, 
			 "cosmo_polarized_energy": -8.05, 
			 "cosmo_cavitation_energy": 25.47, 
			 "cosmo_dispersion_energy": -19.2, 
			 "cosmo_repulsion_energy": 1.54, 
			 "cosmo_total_nonelectrostatic_energy": 7.81, 
			 "SMD_solvation_energy": 4.4 
		},
		"coords": [
			{
				"x": -0.7809618794,
				"y": -0.4919441654,
				"z": -3.0775422123,
				"element": "C" 
			},
			{
				"x": -0.2475086777,
				"y": -1.7202315745,
				"z": -2.5669212866,
				"element": "O" 
			},
			{
				"x": 0.555939642,
				"y": -1.6521265282,
				"z": -1.4971469744,
				"element": "C" 
			},
			{
				"x": 0.9408758401,
				"y": -0.4903050534,
				"z": -0.8068697069,
				"element": "C" 
			},
			{
				"x": 0.8347630238,
				"y": 1.0036787037,
				"z": -0.7114210353,
				"element": "C" 
			},
			{
				"x": 0.2753177596,
				"y": 1.8897856994,
				"z": -1.3089663654,
				"element": "O" 
			},
			{
				"x": 1.7841358791,
				"y": 0.9800070037,
				"z": 0.535679254,
				"element": "C" 
			},
			{
				"x": 1.7938684969,
				"y": -0.5272124241,
				"z": 0.3113764328,
				"element": "C" 
			},
			{
				"x": 2.3147668499,
				"y": -1.7041236909,
				"z": 0.8125891996,
				"element": "C" 
			},
			{
				"x": 1.9387152561,
				"y": -2.8749367551,
				"z": 0.1327196455,
				"element": "C" 
			},
			{
				"x": 1.092934322,
				"y": -2.8530309321,
				"z": -0.9784843236,
				"element": "C" 
			},
			{
				"x": 0.6483264213,
				"y": -4.5040157542,
				"z": -1.8246075692,
				"element": "Br" 
			},
			{
				"x": 0.0189655209,
				"y": 0.182651302,
				"z": -3.3942430626,
				"element": "H" 
			},
			{
				"x": -1.3906584701,
				"y": 0.0150980134,
				"z": -2.3249235311,
				"element": "H" 
			},
			{
				"x": -1.3955070055,
				"y": -0.7747518129,
				"z": -3.9319774676,
				"element": "H" 
			},
			{
				"x": 1.3200764432,
				"y": 1.335894515,
				"z": 1.4619425871,
				"element": "H" 
			},
			{
				"x": 2.7343802164,
				"y": 1.5047384546,
				"z": 0.3884777046,
				"element": "H" 
			},
			{
				"x": 2.973384534,
				"y": -1.7512804783,
				"z": 1.6730863455,
				"element": "H" 
			},
			{
				"x": 2.3089858272,
				"y": -3.8375945226,
				"z": 0.4691323657,
				"element": "H" 
			}
		],
		 "valence_orbital": [ 
			{
				"type": "occ",
				"energy": -0.31366,
				"method": "rhf"
			},
			{
				"type": "occ",
				"energy": -0.28659,
				"method": "rhf"
			},
			{
				"type": "occ",
				"energy": -0.25935,
				"method": "rhf"
			},
			{
				"type": "occ",
				"energy": -0.25846,
				"method": "rhf"
			},
			{
				"type": "occ",
				"energy": -0.23419,
				"method": "rhf"
			},
			{
				"type": "unocc",
				"energy": -0.06121,
				"method": "rhf"
			},
			{
				"type": "unocc",
				"energy": -0.01943,
				"method": "rhf"
			},
			{
				"type": "unocc",
				"energy": 0.0023,
				"method": "rhf"
			},
			{
				"type": "unocc",
				"energy": 0.03836,
				"method": "rhf"
			},
			{
				"type": "unocc",
				"energy": 0.09689,
				"method": "rhf"
			}
		],
		"cosmo_sigma_profile": { 
			"-0.025": 0.0,
			"-0.024": 0.0,
			"-0.023": 0.0,
			"-0.022": 0.0,
			"-0.021": 0.0,
			"-0.02": 0.0,
			"-0.019": 0.0,
			"-0.018": 0.0,
			"-0.017": 0.0,
			"-0.016": 0.0,
			"-0.015": 0.0,
			"-0.014": 0.0,
			"-0.013": 0.0,
			"-0.012": 0.0,
			"-0.011": 0.0,
			"-0.01": 0.0,
			"-0.009": 0.0,
			"-0.008": 0.689511463408,
			"-0.007": 5.9857798695,
			"-0.006": 13.7246050024,
			"-0.005": 15.9915701206,
			"-0.004": 17.9100754035,
			"-0.003": 18.9728806102,
			"-0.002": 17.2376977394,
			"-0.001": 11.9828925651,
			"0.0": 15.0736942574,
			"0.001": 16.8089033628,
			"0.002": 16.6285962955,
			"0.003": 13.0831594272,
			"0.004": 11.6285652231,
			"0.005": 7.77215945377,
			"0.006": 3.73028675238,
			"0.007": 3.71771970957,
			"0.008": 4.09160610565,
			"0.009": 3.30598995243,
			"0.01": 3.35754359791,
			"0.011": 4.02011079314,
			"0.012": 1.68843312573,
			"0.013": 0.180330494506,
			"0.014": 0.0,
			"0.015": 0.0,
			"0.016": 0.0,
			"0.017": 0.0,
			"0.018": 0.0,
			"0.019": 0.0,
			"0.02": 0.0,
			"0.021": 0.0,
			"0.022": 0.0,
			"0.023": 0.0,
			"0.024": 0.0,
			"0.025": 0.0
		}
	}
}
