{
	 "smiles": "OC(=O)CCNS(=O)(=O)C(F)(F)F", 
	 "Tm": 361.15, 
	 "num_atms": 19, 
	 "gaussian": { 
		 "optdone": 1, 
		 "sigma_profile": "yes", 
		 "theory": "DFT", 
		 "functional": "B3LYP", 
		 "basiset": "6-31G**", 
		 "properties": { 
			 "R2extent": 3110.0346, 
			 "electric_dipole_moment_norm": 4.1186223352, 
			 "electric_quadrupole_moment_norm": 9.8063595651, 
			 "total_energy": -1209.32291616, 
			 "HOMO_LUMO_gap": 0.27855, 
			 "cosmo_polarized_energy": -18.58, 
			 "cosmo_cavitation_energy": 27.11, 
			 "cosmo_dispersion_energy": -18.89, 
			 "cosmo_repulsion_energy": 1.43, 
			 "cosmo_total_nonelectrostatic_energy": 9.65, 
			 "SMD_solvation_energy": 6.02 
		},
		"coords": [
			{
				"x": -3.5189080672,
				"y": 0.5681621021,
				"z": 0.492117558,
				"element": "O" 
			},
			{
				"x": -2.9027937944,
				"y": 0.9615361461,
				"z": 1.6296084773,
				"element": "C" 
			},
			{
				"x": -3.1673474472,
				"y": 1.9900205873,
				"z": 2.2076933892,
				"element": "O" 
			},
			{
				"x": -1.8714618965,
				"y": -0.0554886145,
				"z": 2.0822161411,
				"element": "C" 
			},
			{
				"x": -0.8512964482,
				"y": -0.4164644595,
				"z": 0.9973691146,
				"element": "C" 
			},
			{
				"x": -0.1157971169,
				"y": 0.7843234137,
				"z": 0.5746508244,
				"element": "N" 
			},
			{
				"x": 0.5413086369,
				"y": 0.9424015572,
				"z": -0.9335623188,
				"element": "S" 
			},
			{
				"x": 1.0624347407,
				"y": 2.2977930285,
				"z": -1.040942892,
				"element": "O" 
			},
			{
				"x": -0.3650031901,
				"y": 0.3376868852,
				"z": -1.9000367287,
				"element": "O" 
			},
			{
				"x": 2.0409431596,
				"y": -0.171781684,
				"z": -0.8859295583,
				"element": "C" 
			},
			{
				"x": 2.6862698969,
				"y": -0.1276552295,
				"z": -2.0469983023,
				"element": "F" 
			},
			{
				"x": 2.857967735,
				"y": 0.2267622241,
				"z": 0.0968826051,
				"element": "F" 
			},
			{
				"x": 1.6518371937,
				"y": -1.4310781387,
				"z": -0.638129118,
				"element": "F" 
			},
			{
				"x": -4.1411574165,
				"y": 1.2753222008,
				"z": 0.2525191533,
				"element": "H" 
			},
			{
				"x": -2.3939690508,
				"y": -0.9734761665,
				"z": 2.3767480769,
				"element": "H" 
			},
			{
				"x": -1.3844862687,
				"y": 0.3489178818,
				"z": 2.9734167761,
				"element": "H" 
			},
			{
				"x": -0.1721680138,
				"y": -1.1921434425,
				"z": 1.3714129098,
				"element": "H" 
			},
			{
				"x": -1.364040621,
				"y": -0.801946951,
				"z": 0.1148925662,
				"element": "H" 
			},
			{
				"x": 0.3906679687,
				"y": 1.3101086594,
				"z": 1.2798713264,
				"element": "H" 
			}
		],
		 "valence_orbital": [ 
			{
				"type": "occ",
				"energy": -0.33104,
				"method": "rhf"
			},
			{
				"type": "occ",
				"energy": -0.33026,
				"method": "rhf"
			},
			{
				"type": "occ",
				"energy": -0.32581,
				"method": "rhf"
			},
			{
				"type": "occ",
				"energy": -0.30838,
				"method": "rhf"
			},
			{
				"type": "occ",
				"energy": -0.28461,
				"method": "rhf"
			},
			{
				"type": "unocc",
				"energy": -0.00606,
				"method": "rhf"
			},
			{
				"type": "unocc",
				"energy": 0.03547,
				"method": "rhf"
			},
			{
				"type": "unocc",
				"energy": 0.04599,
				"method": "rhf"
			},
			{
				"type": "unocc",
				"energy": 0.05639,
				"method": "rhf"
			},
			{
				"type": "unocc",
				"energy": 0.06423,
				"method": "rhf"
			}
		],
		"cosmo_sigma_profile": { 
			"-0.025": 0.0,
			"-0.024": 0.0,
			"-0.023": 0.0,
			"-0.022": 0.0,
			"-0.021": 0.0,
			"-0.02": 0.0,
			"-0.019": 0.132752162803,
			"-0.018": 0.885191884791,
			"-0.017": 1.26939637133,
			"-0.016": 1.95301180831,
			"-0.015": 1.49979403342,
			"-0.014": 2.27736872764,
			"-0.013": 2.53468068469,
			"-0.012": 1.59727023272,
			"-0.011": 1.74668241737,
			"-0.01": 1.91524484331,
			"-0.009": 2.24593327555,
			"-0.008": 4.69993899637,
			"-0.007": 8.40087546342,
			"-0.006": 11.4640742868,
			"-0.005": 9.74692011762,
			"-0.004": 8.71152674821,
			"-0.003": 7.90297351831,
			"-0.002": 10.3882088905,
			"-0.001": 13.1421456383,
			"0.0": 20.0832254423,
			"0.001": 27.5718889451,
			"0.002": 8.74708771712,
			"0.003": 6.83143008997,
			"0.004": 5.69671606047,
			"0.005": 4.78830410911,
			"0.006": 6.58228088637,
			"0.007": 6.15302705669,
			"0.008": 7.34468250972,
			"0.009": 12.9677547208,
			"0.01": 6.98902479491,
			"0.011": 4.45917029025,
			"0.012": 3.800575634,
			"0.013": 0.483163720729,
			"0.014": 0.0,
			"0.015": 0.0,
			"0.016": 0.0,
			"0.017": 0.0,
			"0.018": 0.0,
			"0.019": 0.0,
			"0.02": 0.0,
			"0.021": 0.0,
			"0.022": 0.0,
			"0.023": 0.0,
			"0.024": 0.0,
			"0.025": 0.0
		}
	}
}
