{
	 "smiles": "NC1=NC(=CS1)C1=CC(F)=CC=C1", 
	 "Tm": 387.15, 
	 "num_atms": 20, 
	 "gaussian": { 
		 "optdone": 1, 
		 "sigma_profile": "yes", 
		 "theory": "DFT", 
		 "functional": "B3LYP", 
		 "basiset": "6-31G**", 
		 "properties": { 
			 "R2extent": 4009.0654, 
			 "electric_dipole_moment_norm": 3.08492837194, 
			 "electric_quadrupole_moment_norm": 11.6769184788, 
			 "total_energy": -954.702008483, 
			 "HOMO_LUMO_gap": 0.17014, 
			 "cosmo_polarized_energy": -11.12, 
			 "cosmo_cavitation_energy": 26.7, 
			 "cosmo_dispersion_energy": -20.37, 
			 "cosmo_repulsion_energy": 1.53, 
			 "cosmo_total_nonelectrostatic_energy": 7.86, 
			 "SMD_solvation_energy": 3.7 
		},
		"coords": [
			{
				"x": -1.1648441507,
				"y": 2.6467952711,
				"z": 3.86123531,
				"element": "N" 
			},
			{
				"x": -1.0257437685,
				"y": 1.4871623696,
				"z": 3.1331930222,
				"element": "C" 
			},
			{
				"x": -0.0644105193,
				"y": 1.2686870399,
				"z": 2.2884033916,
				"element": "N" 
			},
			{
				"x": -0.13327219,
				"y": -0.0146065771,
				"z": 1.7609525361,
				"element": "C" 
			},
			{
				"x": -1.178329184,
				"y": -0.7723504802,
				"z": 2.2160368516,
				"element": "C" 
			},
			{
				"x": -2.1275891878,
				"y": 0.1221753711,
				"z": 3.3733056254,
				"element": "S" 
			},
			{
				"x": 0.8870994517,
				"y": -0.432335112,
				"z": 0.7799221904,
				"element": "C" 
			},
			{
				"x": 0.8657262497,
				"y": -1.7110804242,
				"z": 0.1980316365,
				"element": "C" 
			},
			{
				"x": 1.8463159912,
				"y": -2.0575353484,
				"z": -0.7182783373,
				"element": "C" 
			},
			{
				"x": 1.8098047018,
				"y": -3.2920291736,
				"z": -1.267971772,
				"element": "F" 
			},
			{
				"x": 2.8634952877,
				"y": -1.1854974717,
				"z": -1.0926396518,
				"element": "C" 
			},
			{
				"x": 2.8810116546,
				"y": 0.0831948992,
				"z": -0.5123027466,
				"element": "C" 
			},
			{
				"x": 1.9080036977,
				"y": 0.4604199757,
				"z": 0.4123373218,
				"element": "C" 
			},
			{
				"x": -0.6012387308,
				"y": 3.4066271024,
				"z": 3.5026067331,
				"element": "H" 
			},
			{
				"x": -2.1040154726,
				"y": 2.9177566008,
				"z": 4.1152164625,
				"element": "H" 
			},
			{
				"x": -1.4578456602,
				"y": -1.7811661232,
				"z": 1.9534309436,
				"element": "H" 
			},
			{
				"x": 0.1036826269,
				"y": -2.4423949128,
				"z": 0.4425454236,
				"element": "H" 
			},
			{
				"x": 3.6083409538,
				"y": -1.5031202407,
				"z": -1.8138804788,
				"element": "H" 
			},
			{
				"x": 3.6637199115,
				"y": 0.7849468268,
				"z": -0.7852698163,
				"element": "H" 
			},
			{
				"x": 1.9223883373,
				"y": 1.4453504074,
				"z": 0.8628253543,
				"element": "H" 
			}
		],
		 "valence_orbital": [ 
			{
				"type": "occ",
				"energy": -0.28702,
				"method": "rhf"
			},
			{
				"type": "occ",
				"energy": -0.27676,
				"method": "rhf"
			},
			{
				"type": "occ",
				"energy": -0.25591,
				"method": "rhf"
			},
			{
				"type": "occ",
				"energy": -0.23913,
				"method": "rhf"
			},
			{
				"type": "occ",
				"energy": -0.20506,
				"method": "rhf"
			},
			{
				"type": "unocc",
				"energy": -0.03492,
				"method": "rhf"
			},
			{
				"type": "unocc",
				"energy": 0.00476,
				"method": "rhf"
			},
			{
				"type": "unocc",
				"energy": 0.00659,
				"method": "rhf"
			},
			{
				"type": "unocc",
				"energy": 0.01371,
				"method": "rhf"
			},
			{
				"type": "unocc",
				"energy": 0.06644,
				"method": "rhf"
			}
		],
		"cosmo_sigma_profile": { 
			"-0.025": 0.0,
			"-0.024": 0.0,
			"-0.023": 0.0,
			"-0.022": 0.0,
			"-0.021": 0.0,
			"-0.02": 0.0,
			"-0.019": 0.0,
			"-0.018": 0.0,
			"-0.017": 0.0,
			"-0.016": 0.0,
			"-0.015": 0.61062304073,
			"-0.014": 1.68908118971,
			"-0.013": 3.06247250453,
			"-0.012": 2.18864652379,
			"-0.011": 2.76688508381,
			"-0.01": 3.0244390984,
			"-0.009": 4.47020854337,
			"-0.008": 4.15372324696,
			"-0.007": 5.85852777886,
			"-0.006": 8.12044614214,
			"-0.005": 7.86208469282,
			"-0.004": 10.3989239192,
			"-0.003": 9.07370625659,
			"-0.002": 8.36379513462,
			"-0.001": 9.10629976255,
			"0.0": 11.3089077782,
			"0.001": 18.3289417062,
			"0.002": 19.619258786,
			"0.003": 27.4769140605,
			"0.004": 31.3408709486,
			"0.005": 13.734544207,
			"0.006": 3.48088618799,
			"0.007": 1.89300445574,
			"0.008": 2.77183870515,
			"0.009": 1.92717254633,
			"0.01": 2.19997270166,
			"0.011": 1.80063036948,
			"0.012": 0.267469941123,
			"0.013": 0.0,
			"0.014": 0.0,
			"0.015": 0.0,
			"0.016": 0.0,
			"0.017": 0.0,
			"0.018": 0.0,
			"0.019": 0.0,
			"0.02": 0.0,
			"0.021": 0.0,
			"0.022": 0.0,
			"0.023": 0.0,
			"0.024": 0.0,
			"0.025": 0.0
		}
	}
}
