{
	 "smiles": "ClS(=O)(=O)C1=C(Br)C=C2CCC(=O)NC2=C1", 
	 "Tm": 498.15, 
	 "num_atms": 23, 
	 "gaussian": { 
		 "optdone": 1, 
		 "sigma_profile": "yes", 
		 "theory": "DFT", 
		 "functional": "B3LYP", 
		 "basiset": "6-31G**", 
		 "properties": { 
			 "R2extent": 8774.463, 
			 "electric_dipole_moment_norm": 4.83717876143, 
			 "electric_quadrupole_moment_norm": 21.003411716, 
			 "total_energy": -4057.33293815, 
			 "HOMO_LUMO_gap": 0.1522, 
			 "cosmo_polarized_energy": -17.57, 
			 "cosmo_cavitation_energy": 32.5, 
			 "cosmo_dispersion_energy": -24.79, 
			 "cosmo_repulsion_energy": 1.88, 
			 "cosmo_total_nonelectrostatic_energy": 9.59, 
			 "SMD_solvation_energy": 3.47 
		},
		"coords": [
			{
				"x": 2.9889904972,
				"y": 4.5337625014,
				"z": -1.0979206955,
				"element": "Cl" 
			},
			{
				"x": 2.6023236268,
				"y": 2.6750354955,
				"z": -2.0481264867,
				"element": "S" 
			},
			{
				"x": 3.7651108246,
				"y": 1.8382140636,
				"z": -1.7752508711,
				"element": "O" 
			},
			{
				"x": 2.1789855004,
				"y": 2.9665298397,
				"z": -3.4088302238,
				"element": "O" 
			},
			{
				"x": 1.2259238167,
				"y": 2.0489055943,
				"z": -1.0699737824,
				"element": "C" 
			},
			{
				"x": -0.0755932556,
				"y": 2.5638503692,
				"z": -1.1169968978,
				"element": "C" 
			},
			{
				"x": -0.5882438168,
				"y": 4.0632535315,
				"z": -2.1605402116,
				"element": "Br" 
			},
			{
				"x": -1.058430953,
				"y": 1.9543957701,
				"z": -0.332226812,
				"element": "C" 
			},
			{
				"x": -0.7743671883,
				"y": 0.8654722251,
				"z": 0.4863930679,
				"element": "C" 
			},
			{
				"x": -1.7997069632,
				"y": 0.2270795704,
				"z": 1.3917335844,
				"element": "C" 
			},
			{
				"x": -1.5530492966,
				"y": -1.2833925106,
				"z": 1.5228908079,
				"element": "C" 
			},
			{
				"x": -0.1093822081,
				"y": -1.613608592,
				"z": 1.8711244402,
				"element": "C" 
			},
			{
				"x": 0.2350649148,
				"y": -2.57169071,
				"z": 2.5376909979,
				"element": "O" 
			},
			{
				"x": 0.8274851821,
				"y": -0.7443786548,
				"z": 1.3268615525,
				"element": "N" 
			},
			{
				"x": 0.5377002798,
				"y": 0.3531174581,
				"z": 0.5102853824,
				"element": "C" 
			},
			{
				"x": 1.5331845599,
				"y": 0.9490635102,
				"z": -0.264494768,
				"element": "C" 
			},
			{
				"x": -2.0664097149,
				"y": 2.3543841018,
				"z": -0.3589294478,
				"element": "H" 
			},
			{
				"x": -2.8124478163,
				"y": 0.4229457357,
				"z": 1.0277646207,
				"element": "H" 
			},
			{
				"x": -1.7284479077,
				"y": 0.6920570589,
				"z": 2.385530691,
				"element": "H" 
			},
			{
				"x": -2.1874069199,
				"y": -1.7372022693,
				"z": 2.2862706568,
				"element": "H" 
			},
			{
				"x": -1.7774515364,
				"y": -1.785340109,
				"z": 0.5720014192,
				"element": "H" 
			},
			{
				"x": 1.7925596064,
				"y": -1.0159197646,
				"z": 1.4689526739,
				"element": "H" 
			},
			{
				"x": 2.5477087682,
				"y": 0.5670657848,
				"z": -0.2582096979,
				"element": "H" 
			}
		],
		 "valence_orbital": [ 
			{
				"type": "occ",
				"energy": -0.3096,
				"method": "rhf"
			},
			{
				"type": "occ",
				"energy": -0.3019,
				"method": "rhf"
			},
			{
				"type": "occ",
				"energy": -0.29398,
				"method": "rhf"
			},
			{
				"type": "occ",
				"energy": -0.27676,
				"method": "rhf"
			},
			{
				"type": "occ",
				"energy": -0.24666,
				"method": "rhf"
			},
			{
				"type": "unocc",
				"energy": -0.09446,
				"method": "rhf"
			},
			{
				"type": "unocc",
				"energy": -0.05824,
				"method": "rhf"
			},
			{
				"type": "unocc",
				"energy": -0.04866,
				"method": "rhf"
			},
			{
				"type": "unocc",
				"energy": -0.01799,
				"method": "rhf"
			},
			{
				"type": "unocc",
				"energy": 0.00318,
				"method": "rhf"
			}
		],
		"cosmo_sigma_profile": { 
			"-0.025": 0.0,
			"-0.024": 0.0,
			"-0.023": 0.0,
			"-0.022": 0.0,
			"-0.021": 0.0,
			"-0.02": 0.0,
			"-0.019": 0.0,
			"-0.018": 0.0,
			"-0.017": 0.0,
			"-0.016": 0.657398394977,
			"-0.015": 1.82006229689,
			"-0.014": 0.973944607823,
			"-0.013": 1.67992584814,
			"-0.012": 1.11623245462,
			"-0.011": 1.1352249171,
			"-0.01": 1.75891226842,
			"-0.009": 1.40006036311,
			"-0.008": 3.36933992815,
			"-0.007": 7.66025361804,
			"-0.006": 16.4663911722,
			"-0.005": 16.3348904663,
			"-0.004": 17.7443925586,
			"-0.003": 17.679507096,
			"-0.002": 16.982202994,
			"-0.001": 23.0047842837,
			"0.0": 23.6059810897,
			"0.001": 14.3430593993,
			"0.002": 15.6109815042,
			"0.003": 23.3456395172,
			"0.004": 11.1264406879,
			"0.005": 4.87478294893,
			"0.006": 5.14916317819,
			"0.007": 8.2112123028,
			"0.008": 10.9755798377,
			"0.009": 4.99988527636,
			"0.01": 1.68937810761,
			"0.011": 2.32129426937,
			"0.012": 4.16144677206,
			"0.013": 4.59136673048,
			"0.014": 0.815674912191,
			"0.015": 0.0,
			"0.016": 0.0,
			"0.017": 0.0,
			"0.018": 0.0,
			"0.019": 0.0,
			"0.02": 0.0,
			"0.021": 0.0,
			"0.022": 0.0,
			"0.023": 0.0,
			"0.024": 0.0,
			"0.025": 0.0
		}
	}
}
