{
	 "smiles": "COC1=C(OC)C=C(C=C1)C(=O)C1=CC=CC(OC)=C1OC", 
	 "Tm": 392.15, 
	 "num_atms": 40, 
	 "gaussian": { 
		 "optdone": 1, 
		 "sigma_profile": "yes", 
		 "theory": "DFT", 
		 "functional": "B3LYP", 
		 "basiset": "6-31G**", 
		 "properties": { 
			 "R2extent": 8538.2283, 
			 "electric_dipole_moment_norm": 5.24111624084, 
			 "electric_quadrupole_moment_norm": 23.0053388058, 
			 "total_energy": -1034.70851267, 
			 "HOMO_LUMO_gap": 0.16388, 
			 "cosmo_polarized_energy": -14.97, 
			 "cosmo_cavitation_energy": 43.39, 
			 "cosmo_dispersion_energy": -29.3, 
			 "cosmo_repulsion_energy": 2.25, 
			 "cosmo_total_nonelectrostatic_energy": 16.34, 
			 "SMD_solvation_energy": 10.64 
		},
		"coords": [
			{
				"x": -2.0421707612,
				"y": 4.578947611,
				"z": -0.2418521584,
				"element": "C" 
			},
			{
				"x": -1.9686922138,
				"y": 4.3087114613,
				"z": 1.1643387199,
				"element": "O" 
			},
			{
				"x": -1.7976565626,
				"y": 2.9883725833,
				"z": 1.5027815984,
				"element": "C" 
			},
			{
				"x": -0.6131437883,
				"y": 2.2895319832,
				"z": 1.1940335694,
				"element": "C" 
			},
			{
				"x": 0.4155105381,
				"y": 2.8894029692,
				"z": 0.4978736547,
				"element": "O" 
			},
			{
				"x": 1.1304406939,
				"y": 3.8890175459,
				"z": 1.2352300715,
				"element": "C" 
			},
			{
				"x": -0.4842763209,
				"y": 0.9540653234,
				"z": 1.5668070607,
				"element": "C" 
			},
			{
				"x": -1.5090414055,
				"y": 0.2993503085,
				"z": 2.2636950769,
				"element": "C" 
			},
			{
				"x": -2.6636568411,
				"y": 1.0161199883,
				"z": 2.6100120437,
				"element": "C" 
			},
			{
				"x": -2.8098551756,
				"y": 2.3427460044,
				"z": 2.2200184296,
				"element": "C" 
			},
			{
				"x": -1.3784445404,
				"y": -1.1127346382,
				"z": 2.7374546262,
				"element": "C" 
			},
			{
				"x": -2.0788358498,
				"y": -1.5263576624,
				"z": 3.6531005743,
				"element": "O" 
			},
			{
				"x": -0.3238264556,
				"y": -2.0174334217,
				"z": 2.1512584972,
				"element": "C" 
			},
			{
				"x": 0.5273766364,
				"y": -2.6867415736,
				"z": 3.0447472829,
				"element": "C" 
			},
			{
				"x": 1.5077895247,
				"y": -3.5423944733,
				"z": 2.5640703186,
				"element": "C" 
			},
			{
				"x": 1.6183965842,
				"y": -3.7827175482,
				"z": 1.1904069584,
				"element": "C" 
			},
			{
				"x": 0.7413753097,
				"y": -3.1701541873,
				"z": 0.2923398029,
				"element": "C" 
			},
			{
				"x": 0.7313202786,
				"y": -3.4099658072,
				"z": -1.054298598,
				"element": "O" 
			},
			{
				"x": 1.6648648525,
				"y": -4.3408394592,
				"z": -1.5785077463,
				"element": "C" 
			},
			{
				"x": -0.2319996484,
				"y": -2.260378304,
				"z": 0.7729317556,
				"element": "C" 
			},
			{
				"x": -1.1811718123,
				"y": -1.6910407732,
				"z": -0.0307260241,
				"element": "O" 
			},
			{
				"x": -0.7851266043,
				"y": -1.0267314665,
				"z": -1.2356416732,
				"element": "C" 
			},
			{
				"x": -2.167773939,
				"y": 5.6592220663,
				"z": -0.3367892953,
				"element": "H" 
			},
			{
				"x": -1.1312717548,
				"y": 4.2630857866,
				"z": -0.7584320418,
				"element": "H" 
			},
			{
				"x": -2.9089547258,
				"y": 4.0738863767,
				"z": -0.6858540868,
				"element": "H" 
			},
			{
				"x": 1.9025685594,
				"y": 4.2710406907,
				"z": 0.5642348844,
				"element": "H" 
			},
			{
				"x": 1.6052677726,
				"y": 3.4508493849,
				"z": 2.1219043529,
				"element": "H" 
			},
			{
				"x": 0.4703415024,
				"y": 4.7061923769,
				"z": 1.5428988479,
				"element": "H" 
			},
			{
				"x": 0.4402314467,
				"y": 0.4419619918,
				"z": 1.3224624221,
				"element": "H" 
			},
			{
				"x": -3.4387595176,
				"y": 0.508919774,
				"z": 3.1738732232,
				"element": "H" 
			},
			{
				"x": -3.7058714545,
				"y": 2.9072598466,
				"z": 2.4582197173,
				"element": "H" 
			},
			{
				"x": 0.4084338089,
				"y": -2.510373698,
				"z": 4.1083353823,
				"element": "H" 
			},
			{
				"x": 2.1851474151,
				"y": -4.0422073067,
				"z": 3.2496181479,
				"element": "H" 
			},
			{
				"x": 2.3712910797,
				"y": -4.4730647331,
				"z": 0.8291165687,
				"element": "H" 
			},
			{
				"x": 2.7000971153,
				"y": -4.0157233869,
				"z": -1.4127304241,
				"element": "H" 
			},
			{
				"x": 1.5275806748,
				"y": -5.3384885398,
				"z": -1.1426667825,
				"element": "H" 
			},
			{
				"x": 1.4714774488,
				"y": -4.3879106636,
				"z": -2.6512412037,
				"element": "H" 
			},
			{
				"x": 0.1075801676,
				"y": -0.4117274411,
				"z": -1.0768262292,
				"element": "H" 
			},
			{
				"x": -1.6211214343,
				"y": -0.3753869361,
				"z": -1.4986389309,
				"element": "H" 
			},
			{
				"x": -0.5962406039,
				"y": -1.7387120531,
				"z": -2.0409583935,
				"element": "H" 
			}
		],
		 "valence_orbital": [ 
			{
				"type": "occ",
				"energy": -0.25019,
				"method": "rhf"
			},
			{
				"type": "occ",
				"energy": -0.24601,
				"method": "rhf"
			},
			{
				"type": "occ",
				"energy": -0.2328,
				"method": "rhf"
			},
			{
				"type": "occ",
				"energy": -0.22978,
				"method": "rhf"
			},
			{
				"type": "occ",
				"energy": -0.21412,
				"method": "rhf"
			},
			{
				"type": "unocc",
				"energy": -0.05024,
				"method": "rhf"
			},
			{
				"type": "unocc",
				"energy": -0.00546,
				"method": "rhf"
			},
			{
				"type": "unocc",
				"energy": 0.00025,
				"method": "rhf"
			},
			{
				"type": "unocc",
				"energy": 0.00939,
				"method": "rhf"
			},
			{
				"type": "unocc",
				"energy": 0.05776,
				"method": "rhf"
			}
		],
		"cosmo_sigma_profile": { 
			"-0.025": 0.0,
			"-0.024": 0.0,
			"-0.023": 0.0,
			"-0.022": 0.0,
			"-0.021": 0.0,
			"-0.02": 0.0,
			"-0.019": 0.0,
			"-0.018": 0.0,
			"-0.017": 0.0,
			"-0.016": 0.0,
			"-0.015": 0.0,
			"-0.014": 0.0,
			"-0.013": 0.0,
			"-0.012": 0.0,
			"-0.011": 0.0,
			"-0.01": 0.0,
			"-0.009": 0.0,
			"-0.008": 0.0170011094331,
			"-0.007": 2.69503693868,
			"-0.006": 16.519650352,
			"-0.005": 30.7794598984,
			"-0.004": 35.1804123904,
			"-0.003": 43.1253672233,
			"-0.002": 32.9812192346,
			"-0.001": 24.5308203097,
			"0.0": 20.416365374,
			"0.001": 19.8759814966,
			"0.002": 23.8831140247,
			"0.003": 22.6112740876,
			"0.004": 18.0351930637,
			"0.005": 13.0303214721,
			"0.006": 7.78565240598,
			"0.007": 6.32197859174,
			"0.008": 5.69838394456,
			"0.009": 5.12068200589,
			"0.01": 5.28820205995,
			"0.011": 5.22695487807,
			"0.012": 4.37610228203,
			"0.013": 1.13518622688,
			"0.014": 0.0141804836904,
			"0.015": 0.0,
			"0.016": 0.0,
			"0.017": 0.0,
			"0.018": 0.0,
			"0.019": 0.0,
			"0.02": 0.0,
			"0.021": 0.0,
			"0.022": 0.0,
			"0.023": 0.0,
			"0.024": 0.0,
			"0.025": 0.0
		}
	}
}
