{
	 "smiles": "FS(=O)(=O)CC1=CC=CC=C1", 
	 "Tm": 366.15, 
	 "num_atms": 18, 
	 "gaussian": { 
		 "optdone": 1, 
		 "sigma_profile": "yes", 
		 "theory": "DFT", 
		 "functional": "B3LYP", 
		 "basiset": "6-31G**", 
		 "properties": { 
			 "R2extent": 2739.7031, 
			 "electric_dipole_moment_norm": 4.40347060397, 
			 "electric_quadrupole_moment_norm": 13.1122463998, 
			 "total_energy": -919.380099406, 
			 "HOMO_LUMO_gap": 0.22996, 
			 "cosmo_polarized_energy": -11.03, 
			 "cosmo_cavitation_energy": 24.23, 
			 "cosmo_dispersion_energy": -17.94, 
			 "cosmo_repulsion_energy": 1.37, 
			 "cosmo_total_nonelectrostatic_energy": 7.67, 
			 "SMD_solvation_energy": 3.46 
		},
		"coords": [
			{
				"x": 3.3322546543,
				"y": 2.7660905667,
				"z": -0.472943071,
				"element": "F" 
			},
			{
				"x": 1.7630473673,
				"y": 2.3693670104,
				"z": -0.652244,
				"element": "S" 
			},
			{
				"x": 1.646750708,
				"y": 1.7417960355,
				"z": -1.9555250106,
				"element": "O" 
			},
			{
				"x": 0.9994378177,
				"y": 3.5479614563,
				"z": -0.2865873006,
				"element": "O" 
			},
			{
				"x": 1.705352864,
				"y": 1.1243669452,
				"z": 0.6726043162,
				"element": "C" 
			},
			{
				"x": 0.333733887,
				"y": 0.5175132835,
				"z": 0.796752569,
				"element": "C" 
			},
			{
				"x": -0.0067809607,
				"y": -0.6173192448,
				"z": 0.0493051436,
				"element": "C" 
			},
			{
				"x": -1.2814726304,
				"y": -1.172239609,
				"z": 0.156092914,
				"element": "C" 
			},
			{
				"x": -2.2274706889,
				"y": -0.5937925838,
				"z": 1.0046782405,
				"element": "C" 
			},
			{
				"x": -1.8967916654,
				"y": 0.5431339768,
				"z": 1.7447165768,
				"element": "C" 
			},
			{
				"x": -0.6225560431,
				"y": 1.0993276975,
				"z": 1.6390447463,
				"element": "C" 
			},
			{
				"x": 2.0155284208,
				"y": 1.6564236349,
				"z": 1.5747446145,
				"element": "H" 
			},
			{
				"x": 2.4694831561,
				"y": 0.3910504068,
				"z": 0.4051794903,
				"element": "H" 
			},
			{
				"x": 0.726258418,
				"y": -1.0631860225,
				"z": -0.6170439664,
				"element": "H" 
			},
			{
				"x": -1.535473051,
				"y": -2.0545096734,
				"z": -0.4235970581,
				"element": "H" 
			},
			{
				"x": -3.2195492273,
				"y": -1.0275169515,
				"z": 1.0887626957,
				"element": "H" 
			},
			{
				"x": -2.6304239792,
				"y": 0.99796813,
				"z": 2.4034033593,
				"element": "H" 
			},
			{
				"x": -0.3684290472,
				"y": 1.9884649414,
				"z": 2.2091557404,
				"element": "H" 
			}
		],
		 "valence_orbital": [ 
			{
				"type": "occ",
				"energy": -0.34132,
				"method": "rhf"
			},
			{
				"type": "occ",
				"energy": -0.3391,
				"method": "rhf"
			},
			{
				"type": "occ",
				"energy": -0.32279,
				"method": "rhf"
			},
			{
				"type": "occ",
				"energy": -0.26781,
				"method": "rhf"
			},
			{
				"type": "occ",
				"energy": -0.26584,
				"method": "rhf"
			},
			{
				"type": "unocc",
				"energy": -0.03588,
				"method": "rhf"
			},
			{
				"type": "unocc",
				"energy": -0.01954,
				"method": "rhf"
			},
			{
				"type": "unocc",
				"energy": 0.0233,
				"method": "rhf"
			},
			{
				"type": "unocc",
				"energy": 0.04059,
				"method": "rhf"
			},
			{
				"type": "unocc",
				"energy": 0.07524,
				"method": "rhf"
			}
		],
		"cosmo_sigma_profile": { 
			"-0.025": 0.0,
			"-0.024": 0.0,
			"-0.023": 0.0,
			"-0.022": 0.0,
			"-0.021": 0.0,
			"-0.02": 0.0,
			"-0.019": 0.0,
			"-0.018": 0.0,
			"-0.017": 0.0,
			"-0.016": 0.0,
			"-0.015": 0.0,
			"-0.014": 0.0,
			"-0.013": 0.0,
			"-0.012": 0.0,
			"-0.011": 0.648256657333,
			"-0.01": 4.96950575602,
			"-0.009": 4.15022696544,
			"-0.008": 4.9602264302,
			"-0.007": 6.46144862103,
			"-0.006": 12.5196118994,
			"-0.005": 14.3113092879,
			"-0.004": 12.0925210502,
			"-0.003": 9.1331230842,
			"-0.002": 9.34609773383,
			"-0.001": 9.18684507296,
			"0.0": 8.84049821775,
			"0.001": 10.7745484551,
			"0.002": 15.7471538835,
			"0.003": 20.8962819193,
			"0.004": 14.4046134309,
			"0.005": 7.79314139589,
			"0.006": 3.26041268412,
			"0.007": 3.56086430102,
			"0.008": 8.43043406269,
			"0.009": 11.0552158606,
			"0.01": 1.50889590874,
			"0.011": 0.0,
			"0.012": 0.0,
			"0.013": 0.0,
			"0.014": 0.0,
			"0.015": 0.0,
			"0.016": 0.0,
			"0.017": 0.0,
			"0.018": 0.0,
			"0.019": 0.0,
			"0.02": 0.0,
			"0.021": 0.0,
			"0.022": 0.0,
			"0.023": 0.0,
			"0.024": 0.0,
			"0.025": 0.0
		}
	}
}
