{
	 "smiles": "CCCCOC(N)=O", 
	 "Tm": 326.65, 
	 "num_atms": 19, 
	 "gaussian": { 
		 "optdone": 1, 
		 "sigma_profile": "yes", 
		 "theory": "DFT", 
		 "functional": "B3LYP", 
		 "basiset": "6-31G**", 
		 "properties": { 
			 "R2extent": 1536.3467, 
			 "electric_dipole_moment_norm": 2.2769428649, 
			 "electric_quadrupole_moment_norm": 11.0232824168, 
			 "total_energy": -402.39596114, 
			 "HOMO_LUMO_gap": 0.32299, 
			 "cosmo_polarized_energy": -10.02, 
			 "cosmo_cavitation_energy": 22.21, 
			 "cosmo_dispersion_energy": -16.14, 
			 "cosmo_repulsion_energy": 1.4, 
			 "cosmo_total_nonelectrostatic_energy": 7.48, 
			 "SMD_solvation_energy": 5.08 
		},
		"coords": [
			{
				"x": -2.0639073135,
				"y": 0.5303305209,
				"z": -2.2722231458,
				"element": "C" 
			},
			{
				"x": -0.9203937639,
				"y": -0.0352311408,
				"z": -1.4245837133,
				"element": "C" 
			},
			{
				"x": -0.4599000348,
				"y": 0.9295686278,
				"z": -0.3248298413,
				"element": "C" 
			},
			{
				"x": 0.6688507623,
				"y": 0.3876590613,
				"z": 0.5463544549,
				"element": "C" 
			},
			{
				"x": 0.2889354599,
				"y": -0.8279035684,
				"z": 1.2297902183,
				"element": "O" 
			},
			{
				"x": -0.354839674,
				"y": -0.6604000071,
				"z": 2.4163630266,
				"element": "C" 
			},
			{
				"x": -0.7208438578,
				"y": -1.8784404394,
				"z": 2.9215283942,
				"element": "N" 
			},
			{
				"x": -0.5919732628,
				"y": 0.4116243438,
				"z": 2.9400480802,
				"element": "O" 
			},
			{
				"x": -1.7679203613,
				"y": 1.4609137768,
				"z": -2.7702864124,
				"element": "H" 
			},
			{
				"x": -2.3740556673,
				"y": -0.1773649786,
				"z": -3.0479733791,
				"element": "H" 
			},
			{
				"x": -2.9414297192,
				"y": 0.7525414028,
				"z": -1.6545412388,
				"element": "H" 
			},
			{
				"x": -1.2328447678,
				"y": -0.9796377389,
				"z": -0.9637302444,
				"element": "H" 
			},
			{
				"x": -0.0672627109,
				"y": -0.2789881957,
				"z": -2.0730900284,
				"element": "H" 
			},
			{
				"x": -0.1067414329,
				"y": 1.8673794637,
				"z": -0.7764637201,
				"element": "H" 
			},
			{
				"x": -1.3015012845,
				"y": 1.1970152934,
				"z": 0.3251584957,
				"element": "H" 
			},
			{
				"x": 0.9751138419,
				"y": 1.1277033459,
				"z": 1.2893354059,
				"element": "H" 
			},
			{
				"x": 1.5333248621,
				"y": 0.0990111524,
				"z": -0.0591260878,
				"element": "H" 
			},
			{
				"x": -0.3008786456,
				"y": -2.7112530243,
				"z": 2.5402271446,
				"element": "H" 
			},
			{
				"x": -1.0214324299,
				"y": -1.8892278953,
				"z": 3.8824425911,
				"element": "H" 
			}
		],
		 "valence_orbital": [ 
			{
				"type": "occ",
				"energy": -0.32547,
				"method": "rhf"
			},
			{
				"type": "occ",
				"energy": -0.32028,
				"method": "rhf"
			},
			{
				"type": "occ",
				"energy": -0.28622,
				"method": "rhf"
			},
			{
				"type": "occ",
				"energy": -0.27347,
				"method": "rhf"
			},
			{
				"type": "occ",
				"energy": -0.26631,
				"method": "rhf"
			},
			{
				"type": "unocc",
				"energy": 0.05668,
				"method": "rhf"
			},
			{
				"type": "unocc",
				"energy": 0.08244,
				"method": "rhf"
			},
			{
				"type": "unocc",
				"energy": 0.10183,
				"method": "rhf"
			},
			{
				"type": "unocc",
				"energy": 0.12223,
				"method": "rhf"
			},
			{
				"type": "unocc",
				"energy": 0.12932,
				"method": "rhf"
			}
		],
		"cosmo_sigma_profile": { 
			"-0.025": 0.0,
			"-0.024": 0.0,
			"-0.023": 0.0,
			"-0.022": 0.0,
			"-0.021": 0.0,
			"-0.02": 0.0,
			"-0.019": 0.0,
			"-0.018": 0.0,
			"-0.017": 0.0,
			"-0.016": 0.0,
			"-0.015": 0.197623635361,
			"-0.014": 1.74531700248,
			"-0.013": 2.3607586633,
			"-0.012": 2.22345405994,
			"-0.011": 2.19983852908,
			"-0.01": 1.48853520875,
			"-0.009": 2.37373960921,
			"-0.008": 1.48117284859,
			"-0.007": 1.30358662981,
			"-0.006": 1.954329109,
			"-0.005": 3.90747139776,
			"-0.004": 6.88848472468,
			"-0.003": 14.9391872074,
			"-0.002": 20.7394785929,
			"-0.001": 21.9099054042,
			"0.0": 21.8138026781,
			"0.001": 17.9585557732,
			"0.002": 8.60349535646,
			"0.003": 5.12823681575,
			"0.004": 4.69990311693,
			"0.005": 4.01023223368,
			"0.006": 3.65110969284,
			"0.007": 2.59592629242,
			"0.008": 3.33024173159,
			"0.009": 2.21415497404,
			"0.01": 1.49927215757,
			"0.011": 1.91598307662,
			"0.012": 1.79686131855,
			"0.013": 5.15491193038,
			"0.014": 2.30276911184,
			"0.015": 0.0092506375525,
			"0.016": 0.0,
			"0.017": 0.0,
			"0.018": 0.0,
			"0.019": 0.0,
			"0.02": 0.0,
			"0.021": 0.0,
			"0.022": 0.0,
			"0.023": 0.0,
			"0.024": 0.0,
			"0.025": 0.0
		}
	}
}
