{
	 "smiles": "[O-][N+](=O)C1=CC=C(OCCCBr)C=C1", 
	 "Tm": 330.15, 
	 "num_atms": 24, 
	 "gaussian": { 
		 "optdone": 1, 
		 "sigma_profile": "yes", 
		 "theory": "DFT", 
		 "functional": "B3LYP", 
		 "basiset": "6-31G**", 
		 "properties": { 
			 "R2extent": 8425.6422, 
			 "electric_dipole_moment_norm": 4.13382298242, 
			 "electric_quadrupole_moment_norm": 35.2493283651, 
			 "total_energy": -3200.71321115, 
			 "HOMO_LUMO_gap": 0.17087, 
			 "cosmo_polarized_energy": -13.4, 
			 "cosmo_cavitation_energy": 31.33, 
			 "cosmo_dispersion_energy": -23.16, 
			 "cosmo_repulsion_energy": 1.85, 
			 "cosmo_total_nonelectrostatic_energy": 10.02, 
			 "SMD_solvation_energy": 6.42 
		},
		"coords": [
			{
				"x": -3.843860475,
				"y": 3.4526027042,
				"z": 3.0668703702,
				"element": "O" 
			},
			{
				"x": -3.591624731,
				"y": 3.1768590743,
				"z": 1.8925016885,
				"element": "N" 
			},
			{
				"x": -4.2127681296,
				"y": 3.615182038,
				"z": 0.9228295341,
				"element": "O" 
			},
			{
				"x": -2.4773865067,
				"y": 2.265821622,
				"z": 1.6303956789,
				"element": "C" 
			},
			{
				"x": -1.753148834,
				"y": 1.7509109833,
				"z": 2.7017938769,
				"element": "C" 
			},
			{
				"x": -0.6911981567,
				"y": 0.8835833319,
				"z": 2.4592542908,
				"element": "C" 
			},
			{
				"x": -0.3638330963,
				"y": 0.5393380895,
				"z": 1.1380500737,
				"element": "C" 
			},
			{
				"x": 0.6481308203,
				"y": -0.2948715164,
				"z": 0.7909858312,
				"element": "O" 
			},
			{
				"x": 1.4587184923,
				"y": -0.8787796464,
				"z": 1.8155328743,
				"element": "C" 
			},
			{
				"x": 2.5016768558,
				"y": -1.7614206006,
				"z": 1.1370508326,
				"element": "C" 
			},
			{
				"x": 3.4334768698,
				"y": -0.9590303789,
				"z": 0.2380870778,
				"element": "C" 
			},
			{
				"x": 4.7853790153,
				"y": -2.1251623557,
				"z": -0.6104080054,
				"element": "Br" 
			},
			{
				"x": -1.1074845588,
				"y": 1.0686412294,
				"z": 0.0670692161,
				"element": "C" 
			},
			{
				"x": -2.1631016019,
				"y": 1.9308894779,
				"z": 0.3096111083,
				"element": "C" 
			},
			{
				"x": -2.0276042014,
				"y": 2.0335622885,
				"z": 3.7104656862,
				"element": "H" 
			},
			{
				"x": -0.1317247497,
				"y": 0.4853320589,
				"z": 3.2963605153,
				"element": "H" 
			},
			{
				"x": 0.8351886856,
				"y": -1.4810971864,
				"z": 2.4890660974,
				"element": "H" 
			},
			{
				"x": 1.9370964817,
				"y": -0.0861617895,
				"z": 2.4080122915,
				"element": "H" 
			},
			{
				"x": 3.0796131159,
				"y": -2.2699225807,
				"z": 1.915943109,
				"element": "H" 
			},
			{
				"x": 1.994180891,
				"y": -2.5344700387,
				"z": 0.5518942416,
				"element": "H" 
			},
			{
				"x": 4.0003876295,
				"y": -0.2105393517,
				"z": 0.7931481596,
				"element": "H" 
			},
			{
				"x": 2.8988080171,
				"y": -0.4794965579,
				"z": -0.5795146061,
				"element": "H" 
			},
			{
				"x": -0.8341344229,
				"y": 0.7848851853,
				"z": -0.943324257,
				"element": "H" 
			},
			{
				"x": -2.7492874103,
				"y": 2.3504439198,
				"z": -0.4982756853,
				"element": "H" 
			}
		],
		 "valence_orbital": [ 
			{
				"type": "occ",
				"energy": -0.28609,
				"method": "rhf"
			},
			{
				"type": "occ",
				"energy": -0.28306,
				"method": "rhf"
			},
			{
				"type": "occ",
				"energy": -0.2814,
				"method": "rhf"
			},
			{
				"type": "occ",
				"energy": -0.28017,
				"method": "rhf"
			},
			{
				"type": "occ",
				"energy": -0.25429,
				"method": "rhf"
			},
			{
				"type": "unocc",
				"energy": -0.08342,
				"method": "rhf"
			},
			{
				"type": "unocc",
				"energy": -0.03121,
				"method": "rhf"
			},
			{
				"type": "unocc",
				"energy": -0.00898,
				"method": "rhf"
			},
			{
				"type": "unocc",
				"energy": 0.00938,
				"method": "rhf"
			},
			{
				"type": "unocc",
				"energy": 0.07247,
				"method": "rhf"
			}
		],
		"cosmo_sigma_profile": { 
			"-0.025": 0.0,
			"-0.024": 0.0,
			"-0.023": 0.0,
			"-0.022": 0.0,
			"-0.021": 0.0,
			"-0.02": 0.0,
			"-0.019": 0.0,
			"-0.018": 0.0,
			"-0.017": 0.0,
			"-0.016": 0.0,
			"-0.015": 0.0,
			"-0.014": 0.0,
			"-0.013": 0.0,
			"-0.012": 0.0,
			"-0.011": 0.0,
			"-0.01": 0.0,
			"-0.009": 0.0,
			"-0.008": 3.25930167513,
			"-0.007": 13.2980762747,
			"-0.006": 20.8463431185,
			"-0.005": 21.9021927237,
			"-0.004": 16.4045040329,
			"-0.003": 14.3962463613,
			"-0.002": 14.6105352712,
			"-0.001": 16.2313598577,
			"0.0": 17.2046541673,
			"0.001": 21.7569925973,
			"0.002": 18.8450327205,
			"0.003": 10.8316181608,
			"0.004": 8.55088089122,
			"0.005": 10.5069926535,
			"0.006": 14.9400337242,
			"0.007": 8.10982797851,
			"0.008": 10.6902781476,
			"0.009": 4.65652131142,
			"0.01": 4.05778917098,
			"0.011": 1.31384871454,
			"0.012": 0.0,
			"0.013": 0.0,
			"0.014": 0.0,
			"0.015": 0.0,
			"0.016": 0.0,
			"0.017": 0.0,
			"0.018": 0.0,
			"0.019": 0.0,
			"0.02": 0.0,
			"0.021": 0.0,
			"0.022": 0.0,
			"0.023": 0.0,
			"0.024": 0.0,
			"0.025": 0.0
		}
	}
}
