{
	 "smiles": "CSC1=NC(N=CC2=CC=C(Cl)C=C2)=NN1C", 
	 "Tm": 410.15, 
	 "num_atms": 28, 
	 "gaussian": { 
		 "optdone": 1, 
		 "sigma_profile": "yes", 
		 "theory": "DFT", 
		 "functional": "B3LYP", 
		 "basiset": "6-31G**", 
		 "properties": { 
			 "R2extent": 6981.0945, 
			 "electric_dipole_moment_norm": 1.53443888441, 
			 "electric_quadrupole_moment_norm": 14.1203284962, 
			 "total_energy": -1503.15397185, 
			 "HOMO_LUMO_gap": 0.15249, 
			 "cosmo_polarized_energy": -14.54, 
			 "cosmo_cavitation_energy": 36.54, 
			 "cosmo_dispersion_energy": -26.26, 
			 "cosmo_repulsion_energy": 2.02, 
			 "cosmo_total_nonelectrostatic_energy": 12.31, 
			 "SMD_solvation_energy": 2.01 
		},
		"coords": [
			{
				"x": -0.8524048738,
				"y": 4.5235740945,
				"z": -2.3421771281,
				"element": "C" 
			},
			{
				"x": -1.6140401539,
				"y": 3.8191480851,
				"z": -0.8364717319,
				"element": "S" 
			},
			{
				"x": -0.2447462907,
				"y": 2.8750820554,
				"z": -0.2494898979,
				"element": "C" 
			},
			{
				"x": 0.8440759428,
				"y": 2.5602912093,
				"z": -0.9385829589,
				"element": "N" 
			},
			{
				"x": 1.551592246,
				"y": 1.8072786458,
				"z": -0.0424659175,
				"element": "C" 
			},
			{
				"x": 2.8456265733,
				"y": 1.3687171577,
				"z": -0.3187013832,
				"element": "N" 
			},
			{
				"x": 3.1800833881,
				"y": 0.1364340946,
				"z": -0.3535301596,
				"element": "C" 
			},
			{
				"x": 2.3719276345,
				"y": -1.1024990815,
				"z": -0.2848832419,
				"element": "C" 
			},
			{
				"x": 3.0268048657,
				"y": -2.2843644483,
				"z": 0.0963240159,
				"element": "C" 
			},
			{
				"x": 2.3491911874,
				"y": -3.4991565248,
				"z": 0.1646533961,
				"element": "C" 
			},
			{
				"x": 0.9996435509,
				"y": -3.5353806103,
				"z": -0.1829295354,
				"element": "C" 
			},
			{
				"x": 0.1314570571,
				"y": -5.0590034641,
				"z": -0.1155362222,
				"element": "Cl" 
			},
			{
				"x": 0.3287831196,
				"y": -2.3821523703,
				"z": -0.5967836265,
				"element": "C" 
			},
			{
				"x": 1.0138303181,
				"y": -1.1724466891,
				"z": -0.6414453201,
				"element": "C" 
			},
			{
				"x": 0.9762300219,
				"y": 1.6447736468,
				"z": 1.1445632511,
				"element": "N" 
			},
			{
				"x": -0.1848056188,
				"y": 2.3587574381,
				"z": 1.0014391294,
				"element": "N" 
			},
			{
				"x": -1.1291296821,
				"y": 2.4490932555,
				"z": 2.0970056169,
				"element": "C" 
			},
			{
				"x": -0.0389282854,
				"y": 5.199381165,
				"z": -2.0774639927,
				"element": "H" 
			},
			{
				"x": -0.4759431328,
				"y": 3.7217748655,
				"z": -2.9760972771,
				"element": "H" 
			},
			{
				"x": -1.6485808431,
				"y": 5.0713230777,
				"z": -2.8497096176,
				"element": "H" 
			},
			{
				"x": 4.2533687835,
				"y": -0.0481572955,
				"z": -0.4717785035,
				"element": "H" 
			},
			{
				"x": 4.0825307106,
				"y": -2.2502559803,
				"z": 0.352563154,
				"element": "H" 
			},
			{
				"x": 2.8580960361,
				"y": -4.4053892974,
				"z": 0.4731442755,
				"element": "H" 
			},
			{
				"x": -0.7156170453,
				"y": -2.4366265991,
				"z": -0.8829819561,
				"element": "H" 
			},
			{
				"x": 0.4946786165,
				"y": -0.2836951024,
				"z": -0.9797720291,
				"element": "H" 
			},
			{
				"x": -1.7524946483,
				"y": 3.3353402681,
				"z": 1.9603529368,
				"element": "H" 
			},
			{
				"x": -1.7671314748,
				"y": 1.5606433809,
				"z": 2.1448870119,
				"element": "H" 
			},
			{
				"x": -0.5685980033,
				"y": 2.537815023,
				"z": 3.0286677118,
				"element": "H" 
			}
		],
		 "valence_orbital": [ 
			{
				"type": "occ",
				"energy": -0.27442,
				"method": "rhf"
			},
			{
				"type": "occ",
				"energy": -0.27192,
				"method": "rhf"
			},
			{
				"type": "occ",
				"energy": -0.25196,
				"method": "rhf"
			},
			{
				"type": "occ",
				"energy": -0.24925,
				"method": "rhf"
			},
			{
				"type": "occ",
				"energy": -0.21359,
				"method": "rhf"
			},
			{
				"type": "unocc",
				"energy": -0.0611,
				"method": "rhf"
			},
			{
				"type": "unocc",
				"energy": -0.02153,
				"method": "rhf"
			},
			{
				"type": "unocc",
				"energy": 0.00871,
				"method": "rhf"
			},
			{
				"type": "unocc",
				"energy": 0.01904,
				"method": "rhf"
			},
			{
				"type": "unocc",
				"energy": 0.02404,
				"method": "rhf"
			}
		],
		"cosmo_sigma_profile": { 
			"-0.025": 0.0,
			"-0.024": 0.0,
			"-0.023": 0.0,
			"-0.022": 0.0,
			"-0.021": 0.0,
			"-0.02": 0.0,
			"-0.019": 0.0,
			"-0.018": 0.0,
			"-0.017": 0.0,
			"-0.016": 0.0,
			"-0.015": 0.0,
			"-0.014": 0.0,
			"-0.013": 0.0,
			"-0.012": 0.0,
			"-0.011": 0.0,
			"-0.01": 0.0,
			"-0.009": 0.361348003593,
			"-0.008": 5.97577672839,
			"-0.007": 14.4369314433,
			"-0.006": 19.435564274,
			"-0.005": 20.5726669424,
			"-0.004": 23.5956148865,
			"-0.003": 22.5583348366,
			"-0.002": 21.3722685592,
			"-0.001": 18.9082655691,
			"0.0": 19.4607857457,
			"0.001": 22.4759507106,
			"0.002": 25.5260402385,
			"0.003": 18.9724312563,
			"0.004": 17.915490152,
			"0.005": 8.32341420231,
			"0.006": 7.23562896246,
			"0.007": 6.56495619064,
			"0.008": 3.85610301266,
			"0.009": 3.35375682819,
			"0.01": 3.22446914874,
			"0.011": 3.89019115959,
			"0.012": 3.35836635582,
			"0.013": 2.61596309129,
			"0.014": 2.61937371491,
			"0.015": 0.687872684348,
			"0.016": 0.0,
			"0.017": 0.0,
			"0.018": 0.0,
			"0.019": 0.0,
			"0.02": 0.0,
			"0.021": 0.0,
			"0.022": 0.0,
			"0.023": 0.0,
			"0.024": 0.0,
			"0.025": 0.0
		}
	}
}
