{
	 "smiles": "COC1=CC2=C(C=C1OC)C(N)=NC(Cl)=N2", 
	 "Tm": 549.15, 
	 "num_atms": 26, 
	 "gaussian": { 
		 "optdone": 1, 
		 "sigma_profile": "yes", 
		 "theory": "DFT", 
		 "functional": "B3LYP", 
		 "basiset": "6-31G**", 
		 "properties": { 
			 "R2extent": 5766.1747, 
			 "electric_dipole_moment_norm": 6.19048840238, 
			 "electric_quadrupole_moment_norm": 32.5518883819, 
			 "total_energy": -1161.98115138, 
			 "HOMO_LUMO_gap": 0.17023, 
			 "cosmo_polarized_energy": -19.52, 
			 "cosmo_cavitation_energy": 32.06, 
			 "cosmo_dispersion_energy": -24.04, 
			 "cosmo_repulsion_energy": 1.89, 
			 "cosmo_total_nonelectrostatic_energy": 9.9, 
			 "SMD_solvation_energy": 3.71 
		},
		"coords": [
			{
				"x": -0.1839802205,
				"y": 0.9348465306,
				"z": 3.9554571787,
				"element": "C" 
			},
			{
				"x": -0.67615552,
				"y": 1.0130408464,
				"z": 2.6232980928,
				"element": "O" 
			},
			{
				"x": -0.1106797507,
				"y": 0.212078368,
				"z": 1.6913906534,
				"element": "C" 
			},
			{
				"x": 0.9114695281,
				"y": -0.6837707755,
				"z": 1.9246433763,
				"element": "C" 
			},
			{
				"x": 1.4322452084,
				"y": -1.47827292,
				"z": 0.8722079819,
				"element": "C" 
			},
			{
				"x": 0.8991088169,
				"y": -1.332898243,
				"z": -0.4336078226,
				"element": "C" 
			},
			{
				"x": -0.166091803,
				"y": -0.4213732335,
				"z": -0.6616224625,
				"element": "C" 
			},
			{
				"x": -0.668738485,
				"y": 0.3416455995,
				"z": 0.3702070894,
				"element": "C" 
			},
			{
				"x": -1.6848686725,
				"y": 1.2368333548,
				"z": 0.2695181886,
				"element": "O" 
			},
			{
				"x": -2.2951872801,
				"y": 1.4094243326,
				"z": -0.9987487046,
				"element": "C" 
			},
			{
				"x": 1.5084256206,
				"y": -2.150110649,
				"z": -1.4393575865,
				"element": "C" 
			},
			{
				"x": 1.103936226,
				"y": -2.1081762137,
				"z": -2.747263336,
				"element": "N" 
			},
			{
				"x": 2.4764974086,
				"y": -3.0165307364,
				"z": -1.1466960651,
				"element": "N" 
			},
			{
				"x": 2.8538494683,
				"y": -3.0668658381,
				"z": 0.1374711778,
				"element": "C" 
			},
			{
				"x": 4.1251097119,
				"y": -4.2441311303,
				"z": 0.4737729925,
				"element": "Cl" 
			},
			{
				"x": 2.432086128,
				"y": -2.3692055012,
				"z": 1.1565328292,
				"element": "N" 
			},
			{
				"x": -0.7680567665,
				"y": 1.6536646076,
				"z": 4.5310326077,
				"element": "H" 
			},
			{
				"x": 0.8784515267,
				"y": 1.2024547772,
				"z": 4.0054446455,
				"element": "H" 
			},
			{
				"x": -0.3228561861,
				"y": -0.0690674491,
				"z": 4.3746039779,
				"element": "H" 
			},
			{
				"x": 1.3454964561,
				"y": -0.8177310094,
				"z": 2.9066992606,
				"element": "H" 
			},
			{
				"x": -0.6096842273,
				"y": -0.3457071136,
				"z": -1.6466429245,
				"element": "H" 
			},
			{
				"x": -1.5752079696,
				"y": 1.7657213342,
				"z": -1.7474233813,
				"element": "H" 
			},
			{
				"x": -2.7540725927,
				"y": 0.4780458797,
				"z": -1.3555464153,
				"element": "H" 
			},
			{
				"x": -3.0712557426,
				"y": 2.1628559229,
				"z": -0.8588159934,
				"element": "H" 
			},
			{
				"x": 0.7038889148,
				"y": -1.2547231703,
				"z": -3.1034227134,
				"element": "H" 
			},
			{
				"x": 1.7054702022,
				"y": -2.6110475704,
				"z": -3.3847326471,
				"element": "H" 
			}
		],
		 "valence_orbital": [ 
			{
				"type": "occ",
				"energy": -0.28861,
				"method": "rhf"
			},
			{
				"type": "occ",
				"energy": -0.26955,
				"method": "rhf"
			},
			{
				"type": "occ",
				"energy": -0.25065,
				"method": "rhf"
			},
			{
				"type": "occ",
				"energy": -0.23596,
				"method": "rhf"
			},
			{
				"type": "occ",
				"energy": -0.21387,
				"method": "rhf"
			},
			{
				"type": "unocc",
				"energy": -0.04364,
				"method": "rhf"
			},
			{
				"type": "unocc",
				"energy": -0.01661,
				"method": "rhf"
			},
			{
				"type": "unocc",
				"energy": 0.02578,
				"method": "rhf"
			},
			{
				"type": "unocc",
				"energy": 0.0548,
				"method": "rhf"
			},
			{
				"type": "unocc",
				"energy": 0.05592,
				"method": "rhf"
			}
		],
		"cosmo_sigma_profile": { 
			"-0.025": 0.0,
			"-0.024": 0.0,
			"-0.023": 0.0,
			"-0.022": 0.0,
			"-0.021": 0.0,
			"-0.02": 0.0,
			"-0.019": 0.0,
			"-0.018": 0.0,
			"-0.017": 0.0,
			"-0.016": 0.0,
			"-0.015": 0.858677897176,
			"-0.014": 2.01538804487,
			"-0.013": 2.63245592437,
			"-0.012": 2.38148824024,
			"-0.011": 3.02903349021,
			"-0.01": 2.72490309401,
			"-0.009": 1.65786387245,
			"-0.008": 3.11526299967,
			"-0.007": 5.62787811833,
			"-0.006": 16.8728696992,
			"-0.005": 19.2127841147,
			"-0.004": 19.8284226834,
			"-0.003": 15.7873552703,
			"-0.002": 12.004484381,
			"-0.001": 13.4951095994,
			"0.0": 13.2985630159,
			"0.001": 20.4956512654,
			"0.002": 18.4535494874,
			"0.003": 16.5640159142,
			"0.004": 13.0678302148,
			"0.005": 14.4628862307,
			"0.006": 7.98911835671,
			"0.007": 6.55599289263,
			"0.008": 4.10108366868,
			"0.009": 5.35333764308,
			"0.01": 4.6693932111,
			"0.011": 3.72394784672,
			"0.012": 2.92526479992,
			"0.013": 3.05972095072,
			"0.014": 1.9527615069,
			"0.015": 0.382673124509,
			"0.016": 0.00546732427273,
			"0.017": 0.0,
			"0.018": 0.0,
			"0.019": 0.0,
			"0.02": 0.0,
			"0.021": 0.0,
			"0.022": 0.0,
			"0.023": 0.0,
			"0.024": 0.0,
			"0.025": 0.0
		}
	}
}
