{
	 "smiles": "CCOC1=CC=C(OC2=C(N)C=C(C=C2)C(F)(F)F)C=C1", 
	 "Tm": 319.15, 
	 "num_atms": 35, 
	 "gaussian": { 
		 "optdone": 1, 
		 "sigma_profile": "yes", 
		 "theory": "DFT", 
		 "functional": "B3LYP", 
		 "basiset": "6-31G**", 
		 "properties": { 
			 "R2extent": 11444.7497, 
			 "electric_dipole_moment_norm": 5.07387216828, 
			 "electric_quadrupole_moment_norm": 26.1471812171, 
			 "total_energy": -1084.75346252, 
			 "HOMO_LUMO_gap": 0.18678, 
			 "cosmo_polarized_energy": -11.21, 
			 "cosmo_cavitation_energy": 40.95, 
			 "cosmo_dispersion_energy": -28.89, 
			 "cosmo_repulsion_energy": 2.19, 
			 "cosmo_total_nonelectrostatic_energy": 14.25, 
			 "SMD_solvation_energy": 8.49 
		},
		"coords": [
			{
				"x": 4.9101741079,
				"y": -3.2965753088,
				"z": -2.2223744525,
				"element": "C" 
			},
			{
				"x": 4.0538098357,
				"y": -2.0519882968,
				"z": -2.0682773169,
				"element": "C" 
			},
			{
				"x": 2.7982971057,
				"y": -2.4580410832,
				"z": -1.5240041798,
				"element": "O" 
			},
			{
				"x": 1.8470431888,
				"y": -1.5098299464,
				"z": -1.2893673984,
				"element": "C" 
			},
			{
				"x": 2.002071668,
				"y": -0.14194697,
				"z": -1.5451841376,
				"element": "C" 
			},
			{
				"x": 0.9552752702,
				"y": 0.7410911861,
				"z": -1.2606812124,
				"element": "C" 
			},
			{
				"x": -0.2379787303,
				"y": 0.2630143596,
				"z": -0.7327011079,
				"element": "C" 
			},
			{
				"x": -1.2907150459,
				"y": 1.1526520467,
				"z": -0.5437470142,
				"element": "O" 
			},
			{
				"x": -1.6990782548,
				"y": 1.4733347639,
				"z": 0.7368637367,
				"element": "C" 
			},
			{
				"x": -2.938591337,
				"y": 2.1535079022,
				"z": 0.7986490184,
				"element": "C" 
			},
			{
				"x": -3.5997334948,
				"y": 2.4755387544,
				"z": -0.3806987104,
				"element": "N" 
			},
			{
				"x": -3.4248427406,
				"y": 2.5178003872,
				"z": 2.0566182619,
				"element": "C" 
			},
			{
				"x": -2.7021207815,
				"y": 2.2218705425,
				"z": 3.2172401175,
				"element": "C" 
			},
			{
				"x": -1.4783245548,
				"y": 1.5604683004,
				"z": 3.1398662135,
				"element": "C" 
			},
			{
				"x": -0.9783740212,
				"y": 1.1854711266,
				"z": 1.8899917412,
				"element": "C" 
			},
			{
				"x": -3.2325221015,
				"y": 2.6828081987,
				"z": 4.5438121319,
				"element": "C" 
			},
			{
				"x": -2.7410368692,
				"y": 1.9537101303,
				"z": 5.5711466683,
				"element": "F" 
			},
			{
				"x": -2.9139613659,
				"y": 3.9761164289,
				"z": 4.796836245,
				"element": "F" 
			},
			{
				"x": -4.5840152861,
				"y": 2.6043257721,
				"z": 4.6036818897,
				"element": "F" 
			},
			{
				"x": -0.4022422789,
				"y": -1.1031697874,
				"z": -0.4800334432,
				"element": "C" 
			},
			{
				"x": 0.6369528119,
				"y": -1.9823338234,
				"z": -0.754215663,
				"element": "C" 
			},
			{
				"x": 5.8868388157,
				"y": -3.0315647824,
				"z": -2.6386472949,
				"element": "H" 
			},
			{
				"x": 4.4297674847,
				"y": -4.0142420423,
				"z": -2.8931373912,
				"element": "H" 
			},
			{
				"x": 5.0649487712,
				"y": -3.7801812752,
				"z": -1.2539167381,
				"element": "H" 
			},
			{
				"x": 3.8988547236,
				"y": -1.560316188,
				"z": -3.0393040442,
				"element": "H" 
			},
			{
				"x": 4.5348562394,
				"y": -1.3260129768,
				"z": -1.3973188423,
				"element": "H" 
			},
			{
				"x": 2.9230478379,
				"y": 0.2483432149,
				"z": -1.9605831541,
				"element": "H" 
			},
			{
				"x": 1.0599119735,
				"y": 1.8032830221,
				"z": -1.4561295347,
				"element": "H" 
			},
			{
				"x": -4.5987317086,
				"y": 2.5988925311,
				"z": -0.300442692,
				"element": "H" 
			},
			{
				"x": -3.3231521116,
				"y": 1.9207858716,
				"z": -1.1786475491,
				"element": "H" 
			},
			{
				"x": -4.3790481558,
				"y": 3.0303900817,
				"z": 2.1301398639,
				"element": "H" 
			},
			{
				"x": -0.9220547282,
				"y": 1.3306406301,
				"z": 4.0407834108,
				"element": "H" 
			},
			{
				"x": -0.0320299529,
				"y": 0.6629060276,
				"z": 1.8125315902,
				"element": "H" 
			},
			{
				"x": -1.3410365963,
				"y": -1.4662523953,
				"z": -0.0742435544,
				"element": "H" 
			},
			{
				"x": 0.5344402814,
				"y": -3.0463964028,
				"z": -0.5689054577,
				"element": "H" 
			}
		],
		 "valence_orbital": [ 
			{
				"type": "occ",
				"energy": -0.31307,
				"method": "rhf"
			},
			{
				"type": "occ",
				"energy": -0.26344,
				"method": "rhf"
			},
			{
				"type": "occ",
				"energy": -0.24203,
				"method": "rhf"
			},
			{
				"type": "occ",
				"energy": -0.22184,
				"method": "rhf"
			},
			{
				"type": "occ",
				"energy": -0.20138,
				"method": "rhf"
			},
			{
				"type": "unocc",
				"energy": -0.0146,
				"method": "rhf"
			},
			{
				"type": "unocc",
				"energy": -0.0077,
				"method": "rhf"
			},
			{
				"type": "unocc",
				"energy": 0.0068,
				"method": "rhf"
			},
			{
				"type": "unocc",
				"energy": 0.00981,
				"method": "rhf"
			},
			{
				"type": "unocc",
				"energy": 0.08139,
				"method": "rhf"
			}
		],
		"cosmo_sigma_profile": { 
			"-0.025": 0.0,
			"-0.024": 0.0,
			"-0.023": 0.0,
			"-0.022": 0.0,
			"-0.021": 0.0,
			"-0.02": 0.0,
			"-0.019": 0.0,
			"-0.018": 0.0,
			"-0.017": 0.0,
			"-0.016": 0.0,
			"-0.015": 0.0,
			"-0.014": 0.0,
			"-0.013": 0.834597416205,
			"-0.012": 1.44668127099,
			"-0.011": 2.17815303822,
			"-0.01": 2.75370738308,
			"-0.009": 2.79969237332,
			"-0.008": 2.27113634862,
			"-0.007": 6.38762788819,
			"-0.006": 12.1097805059,
			"-0.005": 17.2309506364,
			"-0.004": 24.8894004625,
			"-0.003": 23.1514558602,
			"-0.002": 21.9547302131,
			"-0.001": 19.8581760921,
			"0.0": 24.8358903476,
			"0.001": 21.3800028463,
			"0.002": 28.7919295903,
			"0.003": 52.2215702727,
			"0.004": 34.7096845147,
			"0.005": 10.9343215373,
			"0.006": 3.73187413754,
			"0.007": 3.14690495149,
			"0.008": 2.11018275703,
			"0.009": 2.41950184125,
			"0.01": 1.89696836922,
			"0.011": 0.588791413766,
			"0.012": 0.3402962876,
			"0.013": 0.889879228635,
			"0.014": 0.238102507766,
			"0.015": 0.0,
			"0.016": 0.0,
			"0.017": 0.0,
			"0.018": 0.0,
			"0.019": 0.0,
			"0.02": 0.0,
			"0.021": 0.0,
			"0.022": 0.0,
			"0.023": 0.0,
			"0.024": 0.0,
			"0.025": 0.0
		}
	}
}
