{
	 "smiles": "CS(=O)(=O)C1=C(C=O)C(Cl)=CC=C1", 
	 "Tm": 376.15, 
	 "num_atms": 20, 
	 "gaussian": { 
		 "optdone": 1, 
		 "sigma_profile": "yes", 
		 "theory": "DFT", 
		 "functional": "B3LYP", 
		 "basiset": "6-31G**", 
		 "properties": { 
			 "R2extent": 3371.5231, 
			 "electric_dipole_moment_norm": 4.79368448169, 
			 "electric_quadrupole_moment_norm": 14.8083187388, 
			 "total_energy": -1393.03299633, 
			 "HOMO_LUMO_gap": 0.19028, 
			 "cosmo_polarized_energy": -15.06, 
			 "cosmo_cavitation_energy": 27.0, 
			 "cosmo_dispersion_energy": -20.41, 
			 "cosmo_repulsion_energy": 1.55, 
			 "cosmo_total_nonelectrostatic_energy": 8.14, 
			 "SMD_solvation_energy": 5.02 
		},
		"coords": [
			{
				"x": 0.0376010803,
				"y": -0.7134114471,
				"z": -3.1395208267,
				"element": "C" 
			},
			{
				"x": -0.0127024893,
				"y": -1.6853941264,
				"z": -1.6224068975,
				"element": "S" 
			},
			{
				"x": 1.1135728501,
				"y": -2.6270037258,
				"z": -1.6018810298,
				"element": "O" 
			},
			{
				"x": -1.392838577,
				"y": -2.1744313127,
				"z": -1.4667181857,
				"element": "O" 
			},
			{
				"x": 0.2435118132,
				"y": -0.4812341192,
				"z": -0.2646799872,
				"element": "C" 
			},
			{
				"x": 1.5101325802,
				"y": 0.033920221,
				"z": 0.0897837632,
				"element": "C" 
			},
			{
				"x": 2.7640594988,
				"y": -0.1975303023,
				"z": -0.7035721081,
				"element": "C" 
			},
			{
				"x": 2.8206558534,
				"y": -0.1611089409,
				"z": -1.9141214302,
				"element": "O" 
			},
			{
				"x": 1.5768308439,
				"y": 0.8170786091,
				"z": 1.2534969247,
				"element": "C" 
			},
			{
				"x": 3.1063212969,
				"y": 1.524005416,
				"z": 1.7634951682,
				"element": "Cl" 
			},
			{
				"x": 0.4499455943,
				"y": 1.0991936167,
				"z": 2.0267284339,
				"element": "C" 
			},
			{
				"x": -0.7815694779,
				"y": 0.5757484204,
				"z": 1.6498381302,
				"element": "C" 
			},
			{
				"x": -0.8845557866,
				"y": -0.2233911155,
				"z": 0.5093609953,
				"element": "C" 
			},
			{
				"x": -0.1289598193,
				"y": -1.4262730933,
				"z": -3.9501499426,
				"element": "H" 
			},
			{
				"x": -0.7714071016,
				"y": 0.0179675263,
				"z": -3.107519918,
				"element": "H" 
			},
			{
				"x": 1.0167720623,
				"y": -0.244324456,
				"z": -3.2158638593,
				"element": "H" 
			},
			{
				"x": 3.6694251929,
				"y": -0.3770960424,
				"z": -0.0971062725,
				"element": "H" 
			},
			{
				"x": 0.549789294,
				"y": 1.7202502092,
				"z": 2.9097755811,
				"element": "H" 
			},
			{
				"x": -1.6618500836,
				"y": 0.7802674105,
				"z": 2.2510389883,
				"element": "H" 
			},
			{
				"x": -1.8276346249,
				"y": -0.6741327477,
				"z": 0.222622473,
				"element": "H" 
			}
		],
		 "valence_orbital": [ 
			{
				"type": "occ",
				"energy": -0.30067,
				"method": "rhf"
			},
			{
				"type": "occ",
				"energy": -0.29853,
				"method": "rhf"
			},
			{
				"type": "occ",
				"energy": -0.29276,
				"method": "rhf"
			},
			{
				"type": "occ",
				"energy": -0.27899,
				"method": "rhf"
			},
			{
				"type": "occ",
				"energy": -0.27802,
				"method": "rhf"
			},
			{
				"type": "unocc",
				"energy": -0.08774,
				"method": "rhf"
			},
			{
				"type": "unocc",
				"energy": -0.05273,
				"method": "rhf"
			},
			{
				"type": "unocc",
				"energy": -0.00975,
				"method": "rhf"
			},
			{
				"type": "unocc",
				"energy": -0.00135,
				"method": "rhf"
			},
			{
				"type": "unocc",
				"energy": 0.06212,
				"method": "rhf"
			}
		],
		"cosmo_sigma_profile": { 
			"-0.025": 0.0,
			"-0.024": 0.0,
			"-0.023": 0.0,
			"-0.022": 0.0,
			"-0.021": 0.0,
			"-0.02": 0.0,
			"-0.019": 0.0,
			"-0.018": 0.0,
			"-0.017": 0.0,
			"-0.016": 0.0,
			"-0.015": 0.0,
			"-0.014": 0.0,
			"-0.013": 0.0,
			"-0.012": 0.0,
			"-0.011": 0.0,
			"-0.01": 0.119506668196,
			"-0.009": 4.52056312267,
			"-0.008": 12.1941996651,
			"-0.007": 12.4092706234,
			"-0.006": 10.5000114109,
			"-0.005": 10.7492653658,
			"-0.004": 15.3557344135,
			"-0.003": 15.5109263786,
			"-0.002": 14.7849283676,
			"-0.001": 21.1426585449,
			"0.0": 17.8883810815,
			"0.001": 14.7287086059,
			"0.002": 8.19172596226,
			"0.003": 10.4597976494,
			"0.004": 4.50625616504,
			"0.005": 3.61880518687,
			"0.006": 4.47268496277,
			"0.007": 3.74749986316,
			"0.008": 5.66775369608,
			"0.009": 5.24078576826,
			"0.01": 7.99599400905,
			"0.011": 10.0149860508,
			"0.012": 5.36117527331,
			"0.013": 0.0989487249886,
			"0.014": 0.0,
			"0.015": 0.0,
			"0.016": 0.0,
			"0.017": 0.0,
			"0.018": 0.0,
			"0.019": 0.0,
			"0.02": 0.0,
			"0.021": 0.0,
			"0.022": 0.0,
			"0.023": 0.0,
			"0.024": 0.0,
			"0.025": 0.0
		}
	}
}
