{
	 "smiles": "OC(=O)C1=CC2=C(OCCCO2)C(Cl)=C1", 
	 "Tm": 469.15, 
	 "num_atms": 24, 
	 "gaussian": { 
		 "optdone": 1, 
		 "sigma_profile": "yes", 
		 "theory": "DFT", 
		 "functional": "B3LYP", 
		 "basiset": "6-31G**", 
		 "properties": { 
			 "R2extent": 4317.1371, 
			 "electric_dipole_moment_norm": 5.76300104633, 
			 "electric_quadrupole_moment_norm": 16.0284025764, 
			 "total_energy": -1147.55858408, 
			 "HOMO_LUMO_gap": 0.19517, 
			 "cosmo_polarized_energy": -17.35, 
			 "cosmo_cavitation_energy": 29.49, 
			 "cosmo_dispersion_energy": -22.01, 
			 "cosmo_repulsion_energy": 1.72, 
			 "cosmo_total_nonelectrostatic_energy": 9.2, 
			 "SMD_solvation_energy": 6.04 
		},
		"coords": [
			{
				"x": 3.4644106931,
				"y": 1.2640685028,
				"z": -3.145372697,
				"element": "O" 
			},
			{
				"x": 3.0268358382,
				"y": 1.426708092,
				"z": -1.8679991185,
				"element": "C" 
			},
			{
				"x": 3.4515109054,
				"y": 2.3357529119,
				"z": -1.1950579893,
				"element": "O" 
			},
			{
				"x": 2.0148382462,
				"y": 0.4389480531,
				"z": -1.3691538759,
				"element": "C" 
			},
			{
				"x": 1.2597149903,
				"y": 0.7966397087,
				"z": -0.2488771358,
				"element": "C" 
			},
			{
				"x": 0.3051423157,
				"y": -0.0693815093,
				"z": 0.2784471457,
				"element": "C" 
			},
			{
				"x": 0.0902771253,
				"y": -1.335895591,
				"z": -0.3146546199,
				"element": "C" 
			},
			{
				"x": -0.7562861312,
				"y": -2.2669197712,
				"z": 0.1986283484,
				"element": "O" 
			},
			{
				"x": -2.1407779207,
				"y": -1.919831313,
				"z": 0.3645812917,
				"element": "C" 
			},
			{
				"x": -2.387617992,
				"y": -1.0305815427,
				"z": 1.5755709841,
				"element": "C" 
			},
			{
				"x": -1.76263461,
				"y": 0.3520514972,
				"z": 1.4377964339,
				"element": "C" 
			},
			{
				"x": -0.3293066492,
				"y": 0.319908716,
				"z": 1.427060488,
				"element": "O" 
			},
			{
				"x": 0.8650481824,
				"y": -1.6815065712,
				"z": -1.4359855438,
				"element": "C" 
			},
			{
				"x": 0.6411118658,
				"y": -3.251863454,
				"z": -2.1751443979,
				"element": "Cl" 
			},
			{
				"x": 1.8213794037,
				"y": -0.8159675324,
				"z": -1.9589974706,
				"element": "C" 
			},
			{
				"x": 2.9183604298,
				"y": 0.6141198733,
				"z": -3.6085567507,
				"element": "H" 
			},
			{
				"x": 1.4283348034,
				"y": 1.7541984557,
				"z": 0.2296293355,
				"element": "H" 
			},
			{
				"x": -2.6498196682,
				"y": -2.879781542,
				"z": 0.4782751607,
				"element": "H" 
			},
			{
				"x": -2.5089770719,
				"y": -1.4420983384,
				"z": -0.5541083416,
				"element": "H" 
			},
			{
				"x": -3.4716041237,
				"y": -0.9144776384,
				"z": 1.7076975439,
				"element": "H" 
			},
			{
				"x": -1.9955778625,
				"y": -1.5199144428,
				"z": 2.4738787344,
				"element": "H" 
			},
			{
				"x": -2.0182079654,
				"y": 0.9753697345,
				"z": 2.2983655915,
				"element": "H" 
			},
			{
				"x": -2.126150563,
				"y": 0.8556943052,
				"z": 0.5302262612,
				"element": "H" 
			},
			{
				"x": 2.4222957585,
				"y": -1.1586406038,
				"z": -2.795049378,
				"element": "H" 
			}
		],
		 "valence_orbital": [ 
			{
				"type": "occ",
				"energy": -0.30792,
				"method": "rhf"
			},
			{
				"type": "occ",
				"energy": -0.30345,
				"method": "rhf"
			},
			{
				"type": "occ",
				"energy": -0.27628,
				"method": "rhf"
			},
			{
				"type": "occ",
				"energy": -0.25411,
				"method": "rhf"
			},
			{
				"type": "occ",
				"energy": -0.24902,
				"method": "rhf"
			},
			{
				"type": "unocc",
				"energy": -0.05385,
				"method": "rhf"
			},
			{
				"type": "unocc",
				"energy": -0.02759,
				"method": "rhf"
			},
			{
				"type": "unocc",
				"energy": 0.01585,
				"method": "rhf"
			},
			{
				"type": "unocc",
				"energy": 0.04405,
				"method": "rhf"
			},
			{
				"type": "unocc",
				"energy": 0.06675,
				"method": "rhf"
			}
		],
		"cosmo_sigma_profile": { 
			"-0.025": 0.0,
			"-0.024": 0.0,
			"-0.023": 0.0,
			"-0.022": 0.0,
			"-0.021": 0.0,
			"-0.02": 0.0,
			"-0.019": 0.425122395097,
			"-0.018": 1.21164956888,
			"-0.017": 1.0346407997,
			"-0.016": 1.10133617926,
			"-0.015": 0.802039295049,
			"-0.014": 1.02941416391,
			"-0.013": 1.21797506079,
			"-0.012": 1.17818202782,
			"-0.011": 0.949912959373,
			"-0.01": 1.0406320447,
			"-0.009": 1.52840957988,
			"-0.008": 1.99185812228,
			"-0.007": 3.2607186723,
			"-0.006": 14.5476449112,
			"-0.005": 20.6791251577,
			"-0.004": 18.2934512535,
			"-0.003": 16.9708179329,
			"-0.002": 13.5417337662,
			"-0.001": 12.8627989,
			"0.0": 17.4039950728,
			"0.001": 19.7854239344,
			"0.002": 12.1233249721,
			"0.003": 10.1602551407,
			"0.004": 14.3536043807,
			"0.005": 8.6148373542,
			"0.006": 5.24665878213,
			"0.007": 4.52596969536,
			"0.008": 5.58673915175,
			"0.009": 7.03231997642,
			"0.01": 6.71939422761,
			"0.011": 6.42227727827,
			"0.012": 4.05652118277,
			"0.013": 1.12302661818,
			"0.014": 0.0,
			"0.015": 0.0,
			"0.016": 0.0,
			"0.017": 0.0,
			"0.018": 0.0,
			"0.019": 0.0,
			"0.02": 0.0,
			"0.021": 0.0,
			"0.022": 0.0,
			"0.023": 0.0,
			"0.024": 0.0,
			"0.025": 0.0
		}
	}
}
