{
	 "smiles": "CC1=CC=C(OCC#N)C=C1", 
	 "Tm": 316.15, 
	 "num_atms": 20, 
	 "gaussian": { 
		 "optdone": 1, 
		 "sigma_profile": "yes", 
		 "theory": "DFT", 
		 "functional": "B3LYP", 
		 "basiset": "6-31G**", 
		 "properties": { 
			 "R2extent": 3100.3288, 
			 "electric_dipole_moment_norm": 3.2549732088, 
			 "electric_quadrupole_moment_norm": 10.4930096512, 
			 "total_energy": -478.323584506, 
			 "HOMO_LUMO_gap": 0.21673, 
			 "cosmo_polarized_energy": -10.16, 
			 "cosmo_cavitation_energy": 24.84, 
			 "cosmo_dispersion_energy": -17.68, 
			 "cosmo_repulsion_energy": 1.43, 
			 "cosmo_total_nonelectrostatic_energy": 8.59, 
			 "SMD_solvation_energy": 6.05 
		},
		"coords": [
			{
				"x": -0.6309445258,
				"y": 3.4547481713,
				"z": -1.9523457772,
				"element": "C" 
			},
			{
				"x": -0.8962501335,
				"y": 2.668966765,
				"z": -0.689628241,
				"element": "C" 
			},
			{
				"x": -0.6984862117,
				"y": 3.2495785055,
				"z": 0.574722196,
				"element": "C" 
			},
			{
				"x": -0.9378668784,
				"y": 2.5393094637,
				"z": 1.7438499728,
				"element": "C" 
			},
			{
				"x": -1.3858161831,
				"y": 1.2146109926,
				"z": 1.674573984,
				"element": "C" 
			},
			{
				"x": -1.5995750792,
				"y": 0.6049551238,
				"z": 2.8962329137,
				"element": "O" 
			},
			{
				"x": -2.2017068056,
				"y": -0.6700507393,
				"z": 2.9209512596,
				"element": "C" 
			},
			{
				"x": -1.2791991743,
				"y": -1.7659509299,
				"z": 2.5567264205,
				"element": "C" 
			},
			{
				"x": -0.562730843,
				"y": -2.6354343589,
				"z": 2.2799601236,
				"element": "N" 
			},
			{
				"x": -1.5846086537,
				"y": 0.610085811,
				"z": 0.4337804834,
				"element": "C" 
			},
			{
				"x": -1.3389384682,
				"y": 1.3458935986,
				"z": -0.7316241933,
				"element": "C" 
			},
			{
				"x": -0.8384578721,
				"y": 2.8572140116,
				"z": -2.8442991215,
				"element": "H" 
			},
			{
				"x": 0.4134295136,
				"y": 3.783255765,
				"z": -2.0081070964,
				"element": "H" 
			},
			{
				"x": -1.2537752962,
				"y": 4.3555109052,
				"z": -2.0029154575,
				"element": "H" 
			},
			{
				"x": -0.3521350823,
				"y": 4.2779972317,
				"z": 0.6435723069,
				"element": "H" 
			},
			{
				"x": -0.7877966375,
				"y": 2.9890012618,
				"z": 2.7199015542,
				"element": "H" 
			},
			{
				"x": -3.0840792888,
				"y": -0.7178742428,
				"z": 2.2685404106,
				"element": "H" 
			},
			{
				"x": -2.5314785241,
				"y": -0.8273986503,
				"z": 3.951854301,
				"element": "H" 
			},
			{
				"x": -1.9034362961,
				"y": -0.4222426631,
				"z": 0.3475388145,
				"element": "H" 
			},
			{
				"x": -1.49354756,
				"y": 0.8639239771,
				"z": -1.6934848539,
				"element": "H" 
			}
		],
		 "valence_orbital": [ 
			{
				"type": "occ",
				"energy": -0.33736,
				"method": "rhf"
			},
			{
				"type": "occ",
				"energy": -0.33149,
				"method": "rhf"
			},
			{
				"type": "occ",
				"energy": -0.32603,
				"method": "rhf"
			},
			{
				"type": "occ",
				"energy": -0.25626,
				"method": "rhf"
			},
			{
				"type": "occ",
				"energy": -0.22594,
				"method": "rhf"
			},
			{
				"type": "unocc",
				"energy": -0.00921,
				"method": "rhf"
			},
			{
				"type": "unocc",
				"energy": 0.00387,
				"method": "rhf"
			},
			{
				"type": "unocc",
				"energy": 0.00573,
				"method": "rhf"
			},
			{
				"type": "unocc",
				"energy": 0.02922,
				"method": "rhf"
			},
			{
				"type": "unocc",
				"energy": 0.08083,
				"method": "rhf"
			}
		],
		"cosmo_sigma_profile": { 
			"-0.025": 0.0,
			"-0.024": 0.0,
			"-0.023": 0.0,
			"-0.022": 0.0,
			"-0.021": 0.0,
			"-0.02": 0.0,
			"-0.019": 0.0,
			"-0.018": 0.0,
			"-0.017": 0.0,
			"-0.016": 0.0,
			"-0.015": 0.0,
			"-0.014": 0.0,
			"-0.013": 0.0,
			"-0.012": 0.0,
			"-0.011": 0.888111415482,
			"-0.01": 4.9371808996,
			"-0.009": 5.80958734051,
			"-0.008": 5.58954459556,
			"-0.007": 4.77681179704,
			"-0.006": 6.22152525935,
			"-0.005": 10.1652088374,
			"-0.004": 13.4767617904,
			"-0.003": 15.2835036028,
			"-0.002": 14.2818303192,
			"-0.001": 12.9674743976,
			"0.0": 14.9392415878,
			"0.001": 13.1091458272,
			"0.002": 11.9427932612,
			"0.003": 11.1954480351,
			"0.004": 11.9817718381,
			"0.005": 13.8021700474,
			"0.006": 7.2070000385,
			"0.007": 4.233387616,
			"0.008": 4.69210380905,
			"0.009": 3.6944727299,
			"0.01": 2.89086846137,
			"0.011": 2.37157875773,
			"0.012": 2.02230885471,
			"0.013": 0.399491717849,
			"0.014": 0.0,
			"0.015": 0.0,
			"0.016": 0.0,
			"0.017": 0.0,
			"0.018": 0.0,
			"0.019": 0.0,
			"0.02": 0.0,
			"0.021": 0.0,
			"0.022": 0.0,
			"0.023": 0.0,
			"0.024": 0.0,
			"0.025": 0.0
		}
	}
}
