{
	 "smiles": "CCOC(=O)C1=C(NC)SC(Br)=N1", 
	 "Tm": 349.15, 
	 "num_atms": 22, 
	 "gaussian": { 
		 "optdone": 1, 
		 "sigma_profile": "yes", 
		 "theory": "DFT", 
		 "functional": "B3LYP", 
		 "basiset": "6-31G**", 
		 "properties": { 
			 "R2extent": 6644.6204, 
			 "electric_dipole_moment_norm": 3.17718153872, 
			 "electric_quadrupole_moment_norm": 12.8928764963, 
			 "total_energy": -3501.71383264, 
			 "HOMO_LUMO_gap": 0.18038, 
			 "cosmo_polarized_energy": -10.62, 
			 "cosmo_cavitation_energy": 30.29, 
			 "cosmo_dispersion_energy": -23.21, 
			 "cosmo_repulsion_energy": 1.84, 
			 "cosmo_total_nonelectrostatic_energy": 8.92, 
			 "SMD_solvation_energy": 2.87 
		},
		"coords": [
			{
				"x": -3.5919869302,
				"y": -1.7394087901,
				"z": -1.9618723466,
				"element": "C" 
			},
			{
				"x": -2.6951780533,
				"y": -1.8765131781,
				"z": -0.7403200976,
				"element": "C" 
			},
			{
				"x": -1.3119220265,
				"y": -1.6133315789,
				"z": -1.0705860554,
				"element": "O" 
			},
			{
				"x": -0.9217003807,
				"y": -0.3282310984,
				"z": -1.0520435117,
				"element": "C" 
			},
			{
				"x": -1.6737353461,
				"y": 0.6076849649,
				"z": -0.7640162909,
				"element": "O" 
			},
			{
				"x": 0.4785696859,
				"y": -0.13208888,
				"z": -1.399107614,
				"element": "C" 
			},
			{
				"x": 1.0432829289,
				"y": 1.1510548526,
				"z": -1.4224172367,
				"element": "C" 
			},
			{
				"x": 0.4317077986,
				"y": 2.3162910306,
				"z": -1.1471427266,
				"element": "N" 
			},
			{
				"x": 1.0714496896,
				"y": 3.6140522377,
				"z": -1.191987538,
				"element": "C" 
			},
			{
				"x": 2.7357683067,
				"y": 1.0349446067,
				"z": -1.8782362255,
				"element": "S" 
			},
			{
				"x": 2.5124632167,
				"y": -0.7272462878,
				"z": -1.991624222,
				"element": "C" 
			},
			{
				"x": 3.9865731323,
				"y": -1.8032687522,
				"z": -2.4849454332,
				"element": "Br" 
			},
			{
				"x": 1.3417391953,
				"y": -1.1618067725,
				"z": -1.7263125694,
				"element": "N" 
			},
			{
				"x": -3.246577416,
				"y": -2.3884054534,
				"z": -2.7717963925,
				"element": "H" 
			},
			{
				"x": -3.6027531736,
				"y": -0.7056885039,
				"z": -2.3159651703,
				"element": "H" 
			},
			{
				"x": -4.6173681383,
				"y": -2.0254701451,
				"z": -1.7042000743,
				"element": "H" 
			},
			{
				"x": -3.0071616048,
				"y": -1.1970419389,
				"z": 0.0563759734,
				"element": "H" 
			},
			{
				"x": -2.6890864092,
				"y": -2.9015319417,
				"z": -0.3623055826,
				"element": "H" 
			},
			{
				"x": -0.5497509812,
				"y": 2.2016033709,
				"z": -0.8995674803,
				"element": "H" 
			},
			{
				"x": 1.453273806,
				"y": 3.8426259871,
				"z": -2.1958245122,
				"element": "H" 
			},
			{
				"x": 0.3373753099,
				"y": 4.3754842919,
				"z": -0.9245950117,
				"element": "H" 
			},
			{
				"x": 1.90671739,
				"y": 3.6780919785,
				"z": -0.4821098818,
				"element": "H" 
			}
		],
		 "valence_orbital": [ 
			{
				"type": "occ",
				"energy": -0.29331,
				"method": "rhf"
			},
			{
				"type": "occ",
				"energy": -0.28813,
				"method": "rhf"
			},
			{
				"type": "occ",
				"energy": -0.28281,
				"method": "rhf"
			},
			{
				"type": "occ",
				"energy": -0.2741,
				"method": "rhf"
			},
			{
				"type": "occ",
				"energy": -0.20751,
				"method": "rhf"
			},
			{
				"type": "unocc",
				"energy": -0.02713,
				"method": "rhf"
			},
			{
				"type": "unocc",
				"energy": -0.02139,
				"method": "rhf"
			},
			{
				"type": "unocc",
				"energy": -0.00967,
				"method": "rhf"
			},
			{
				"type": "unocc",
				"energy": 0.0132,
				"method": "rhf"
			},
			{
				"type": "unocc",
				"energy": 0.0773,
				"method": "rhf"
			}
		],
		"cosmo_sigma_profile": { 
			"-0.025": 0.0,
			"-0.024": 0.0,
			"-0.023": 0.0,
			"-0.022": 0.0,
			"-0.021": 0.0,
			"-0.02": 0.0,
			"-0.019": 0.0,
			"-0.018": 0.0,
			"-0.017": 0.0,
			"-0.016": 0.0,
			"-0.015": 0.0,
			"-0.014": 0.0,
			"-0.013": 0.0,
			"-0.012": 0.12904825803,
			"-0.011": 0.556667783821,
			"-0.01": 1.08509978822,
			"-0.009": 0.700329912167,
			"-0.008": 1.23627541344,
			"-0.007": 2.9310104202,
			"-0.006": 7.68982239984,
			"-0.005": 16.1103853066,
			"-0.004": 20.1280638483,
			"-0.003": 25.1593376613,
			"-0.002": 23.041428161,
			"-0.001": 25.6993703636,
			"0.0": 27.0005912457,
			"0.001": 23.611235894,
			"0.002": 17.2337962952,
			"0.003": 15.6633413738,
			"0.004": 8.05809147808,
			"0.005": 4.73927337161,
			"0.006": 3.46850175282,
			"0.007": 3.28069799508,
			"0.008": 2.88614901058,
			"0.009": 3.88139060586,
			"0.01": 2.837866438,
			"0.011": 3.25229904062,
			"0.012": 3.01155179931,
			"0.013": 1.51217124224,
			"0.014": 1.53521693903,
			"0.015": 0.216259847597,
			"0.016": 0.0,
			"0.017": 0.0,
			"0.018": 0.0,
			"0.019": 0.0,
			"0.02": 0.0,
			"0.021": 0.0,
			"0.022": 0.0,
			"0.023": 0.0,
			"0.024": 0.0,
			"0.025": 0.0
		}
	}
}
