{
	 "smiles": "CNC(=O)C1=CC(N)=C(OC)C=C1", 
	 "Tm": 382.15, 
	 "num_atms": 25, 
	 "gaussian": { 
		 "optdone": 1, 
		 "sigma_profile": "yes", 
		 "theory": "DFT", 
		 "functional": "B3LYP", 
		 "basiset": "6-31G**", 
		 "properties": { 
			 "R2extent": 3547.9924, 
			 "electric_dipole_moment_norm": 4.77378511142, 
			 "electric_quadrupole_moment_norm": 7.79124128493, 
			 "total_energy": -610.150315636, 
			 "HOMO_LUMO_gap": 0.179, 
			 "cosmo_polarized_energy": -16.96, 
			 "cosmo_cavitation_energy": 28.57, 
			 "cosmo_dispersion_energy": -21.28, 
			 "cosmo_repulsion_energy": 1.7, 
			 "cosmo_total_nonelectrostatic_energy": 8.98, 
			 "SMD_solvation_energy": 5.96 
		},
		"coords": [
			{
				"x": -0.1061577643,
				"y": -2.2169070263,
				"z": -3.8845706452,
				"element": "C" 
			},
			{
				"x": 0.3235980603,
				"y": -1.2089884596,
				"z": -2.9332018919,
				"element": "N" 
			},
			{
				"x": -0.372756239,
				"y": -0.97064307,
				"z": -1.7744149779,
				"element": "C" 
			},
			{
				"x": -1.3597764184,
				"y": -1.6314182974,
				"z": -1.4567160927,
				"element": "O" 
			},
			{
				"x": 0.1439013007,
				"y": 0.146520853,
				"z": -0.9151857663,
				"element": "C" 
			},
			{
				"x": -0.7424070166,
				"y": 0.6782844813,
				"z": 0.0320173216,
				"element": "C" 
			},
			{
				"x": -0.3674874408,
				"y": 1.7215740207,
				"z": 0.8770141094,
				"element": "C" 
			},
			{
				"x": -1.2128473039,
				"y": 2.2320395411,
				"z": 1.8564394556,
				"element": "N" 
			},
			{
				"x": 0.9471380772,
				"y": 2.2410029796,
				"z": 0.7615437009,
				"element": "C" 
			},
			{
				"x": 1.2223569276,
				"y": 3.2772062899,
				"z": 1.6157927745,
				"element": "O" 
			},
			{
				"x": 2.5138023984,
				"y": 3.8609935566,
				"z": 1.5690902807,
				"element": "C" 
			},
			{
				"x": 1.8402193768,
				"y": 1.7041933789,
				"z": -0.1621317013,
				"element": "C" 
			},
			{
				"x": 1.4425589996,
				"y": 0.6564270333,
				"z": -0.9998378078,
				"element": "C" 
			},
			{
				"x": -0.6678429799,
				"y": -1.7837291836,
				"z": -4.7226354354,
				"element": "H" 
			},
			{
				"x": -0.7599711109,
				"y": -2.9111850253,
				"z": -3.3564674309,
				"element": "H" 
			},
			{
				"x": 0.756684758,
				"y": -2.7596009374,
				"z": -4.28394281,
				"element": "H" 
			},
			{
				"x": 0.9788243131,
				"y": -0.5087420811,
				"z": -3.2431804064,
				"element": "H" 
			},
			{
				"x": -1.7366476897,
				"y": 0.2476800624,
				"z": 0.0997521483,
				"element": "H" 
			},
			{
				"x": -2.1996393837,
				"y": 2.1106402465,
				"z": 1.680427191,
				"element": "H" 
			},
			{
				"x": -0.9695928708,
				"y": 3.1576686215,
				"z": 2.1792583515,
				"element": "H" 
			},
			{
				"x": 2.5150033963,
				"y": 4.6567824172,
				"z": 2.3156606707,
				"element": "H" 
			},
			{
				"x": 2.727269147,
				"y": 4.290339403,
				"z": 0.58160999,
				"element": "H" 
			},
			{
				"x": 3.2939487072,
				"y": 3.1308110608,
				"z": 1.8187622068,
				"element": "H" 
			},
			{
				"x": 2.8510595132,
				"y": 2.0885684196,
				"z": -0.2329688351,
				"element": "H" 
			},
			{
				"x": 2.1720612427,
				"y": 0.2255817153,
				"z": -1.6784144002,
				"element": "H" 
			}
		],
		 "valence_orbital": [ 
			{
				"type": "occ",
				"energy": -0.30452,
				"method": "rhf"
			},
			{
				"type": "occ",
				"energy": -0.24585,
				"method": "rhf"
			},
			{
				"type": "occ",
				"energy": -0.23686,
				"method": "rhf"
			},
			{
				"type": "occ",
				"energy": -0.22874,
				"method": "rhf"
			},
			{
				"type": "occ",
				"energy": -0.19334,
				"method": "rhf"
			},
			{
				"type": "unocc",
				"energy": -0.01434,
				"method": "rhf"
			},
			{
				"type": "unocc",
				"energy": 0.01089,
				"method": "rhf"
			},
			{
				"type": "unocc",
				"energy": 0.08063,
				"method": "rhf"
			},
			{
				"type": "unocc",
				"energy": 0.08401,
				"method": "rhf"
			},
			{
				"type": "unocc",
				"energy": 0.09158,
				"method": "rhf"
			}
		],
		"cosmo_sigma_profile": { 
			"-0.025": 0.0,
			"-0.024": 0.0,
			"-0.023": 0.0,
			"-0.022": 0.0,
			"-0.021": 0.0,
			"-0.02": 0.0,
			"-0.019": 0.0,
			"-0.018": 0.0,
			"-0.017": 0.0,
			"-0.016": 0.0,
			"-0.015": 0.0,
			"-0.014": 0.308402104463,
			"-0.013": 1.3460550239,
			"-0.012": 2.38477986412,
			"-0.011": 2.81645615832,
			"-0.01": 3.44579986628,
			"-0.009": 3.79244526894,
			"-0.008": 4.72834546768,
			"-0.007": 4.04224143728,
			"-0.006": 10.2087901531,
			"-0.005": 17.3288101738,
			"-0.004": 19.0532782514,
			"-0.003": 20.7729568516,
			"-0.002": 15.6452403255,
			"-0.001": 12.4759724145,
			"0.0": 10.7086269294,
			"0.001": 10.7137459295,
			"0.002": 10.2992061882,
			"0.003": 12.3095996979,
			"0.004": 11.9759274112,
			"0.005": 15.4303847093,
			"0.006": 9.32163502451,
			"0.007": 3.74011129705,
			"0.008": 2.93485701974,
			"0.009": 2.77279259457,
			"0.01": 2.57450768958,
			"0.011": 1.90278991065,
			"0.012": 2.70927453904,
			"0.013": 3.1007414641,
			"0.014": 5.66125542381,
			"0.015": 1.4249290355,
			"0.016": 0.0,
			"0.017": 0.0,
			"0.018": 0.0,
			"0.019": 0.0,
			"0.02": 0.0,
			"0.021": 0.0,
			"0.022": 0.0,
			"0.023": 0.0,
			"0.024": 0.0,
			"0.025": 0.0
		}
	}
}
