{
	 "smiles": "C#CCN1CCC(CC1)NC1CCOCC1", 
	 "Tm": 348.15, 
	 "num_atms": 38, 
	 "gaussian": { 
		 "optdone": 1, 
		 "sigma_profile": "yes", 
		 "theory": "DFT", 
		 "functional": "B3LYP", 
		 "basiset": "6-31G**", 
		 "properties": { 
			 "R2extent": 5547.4248, 
			 "electric_dipole_moment_norm": 1.52966540786, 
			 "electric_quadrupole_moment_norm": 12.5795221793, 
			 "total_energy": -693.250455176, 
			 "HOMO_LUMO_gap": 0.24736, 
			 "cosmo_polarized_energy": -11.76, 
			 "cosmo_cavitation_energy": 37.25, 
			 "cosmo_dispersion_energy": -26.31, 
			 "cosmo_repulsion_energy": 2.04, 
			 "cosmo_total_nonelectrostatic_energy": 12.98, 
			 "SMD_solvation_energy": 2.5 
		},
		"coords": [
			{
				"x": 2.9538279656,
				"y": 4.6864614049,
				"z": 0.2868036957,
				"element": "C" 
			},
			{
				"x": 2.0747977814,
				"y": 3.9886590081,
				"z": -0.1587387786,
				"element": "C" 
			},
			{
				"x": 0.9931371285,
				"y": 3.1357575978,
				"z": -0.663542973,
				"element": "C" 
			},
			{
				"x": 1.4585903976,
				"y": 2.1517713599,
				"z": -1.6449067377,
				"element": "N" 
			},
			{
				"x": 2.4109002207,
				"y": 1.1538056832,
				"z": -1.1183519697,
				"element": "C" 
			},
			{
				"x": 1.8026951387,
				"y": -0.2541302428,
				"z": -0.9115511853,
				"element": "C" 
			},
			{
				"x": 0.3395111795,
				"y": -0.1949524909,
				"z": -0.4484508325,
				"element": "C" 
			},
			{
				"x": -0.502521831,
				"y": 0.5547976556,
				"z": -1.5183078071,
				"element": "C" 
			},
			{
				"x": 0.3659330545,
				"y": 1.511746745,
				"z": -2.3748122244,
				"element": "C" 
			},
			{
				"x": -0.1589171662,
				"y": -1.5595839946,
				"z": -0.2009891927,
				"element": "N" 
			},
			{
				"x": -1.1524067711,
				"y": -1.704738657,
				"z": 0.8716581296,
				"element": "C" 
			},
			{
				"x": -1.340097786,
				"y": -3.2082046263,
				"z": 1.2016488182,
				"element": "C" 
			},
			{
				"x": -2.5394468276,
				"y": -3.7951223663,
				"z": 0.4618079164,
				"element": "C" 
			},
			{
				"x": -3.7666385603,
				"y": -3.1841178285,
				"z": 0.8612496921,
				"element": "O" 
			},
			{
				"x": -3.6642929082,
				"y": -1.8011476364,
				"z": 1.1997120539,
				"element": "C" 
			},
			{
				"x": -2.5200288093,
				"y": -1.0994148364,
				"z": 0.4700007534,
				"element": "C" 
			},
			{
				"x": 3.7319960262,
				"y": 5.3094555427,
				"z": 0.6625466198,
				"element": "H" 
			},
			{
				"x": 0.4743935968,
				"y": 2.68985329,
				"z": 0.2077773322,
				"element": "H" 
			},
			{
				"x": 0.2510967962,
				"y": 3.7714855414,
				"z": -1.1641537005,
				"element": "H" 
			},
			{
				"x": 2.8107873889,
				"y": 1.5297761797,
				"z": -0.1716376728,
				"element": "H" 
			},
			{
				"x": 3.2660463381,
				"y": 1.0748281516,
				"z": -1.8033267192,
				"element": "H" 
			},
			{
				"x": 1.8456536258,
				"y": -0.8332002434,
				"z": -1.8429163445,
				"element": "H" 
			},
			{
				"x": 2.4108151,
				"y": -0.7994323668,
				"z": -0.1784489575,
				"element": "H" 
			},
			{
				"x": 0.315040851,
				"y": 0.3894471001,
				"z": 0.4909753866,
				"element": "H" 
			},
			{
				"x": -1.3158370165,
				"y": 1.1093861251,
				"z": -1.0383879315,
				"element": "H" 
			},
			{
				"x": -0.9689916149,
				"y": -0.1910547745,
				"z": -2.170418364,
				"element": "H" 
			},
			{
				"x": 0.8170076353,
				"y": 0.9542466025,
				"z": -3.2044943188,
				"element": "H" 
			},
			{
				"x": -0.2571911378,
				"y": 2.288336892,
				"z": -2.8325420048,
				"element": "H" 
			},
			{
				"x": 0.639819421,
				"y": -2.1373256716,
				"z": 0.0510129426,
				"element": "H" 
			},
			{
				"x": -0.8154432451,
				"y": -1.1906934159,
				"z": 1.7927205356,
				"element": "H" 
			},
			{
				"x": -1.4973466351,
				"y": -3.3331338809,
				"z": 2.2789870739,
				"element": "H" 
			},
			{
				"x": -0.4345826611,
				"y": -3.7726232229,
				"z": 0.947612358,
				"element": "H" 
			},
			{
				"x": -2.6498192172,
				"y": -4.8638044326,
				"z": 0.6737111063,
				"element": "H" 
			},
			{
				"x": -2.3892531193,
				"y": -3.6849929622,
				"z": -0.6234445976,
				"element": "H" 
			},
			{
				"x": -4.6266201503,
				"y": -1.3465253167,
				"z": 0.9401392789,
				"element": "H" 
			},
			{
				"x": -3.5366062932,
				"y": -1.6888079367,
				"z": 2.2899424856,
				"element": "H" 
			},
			{
				"x": -2.5534554565,
				"y": -0.0254512692,
				"z": 0.6825186499,
				"element": "H" 
			},
			{
				"x": -2.659152439,
				"y": -1.2223567071,
				"z": -0.6090025165,
				"element": "H" 
			}
		],
		 "valence_orbital": [ 
			{
				"type": "occ",
				"energy": -0.26893,
				"method": "rhf"
			},
			{
				"type": "occ",
				"energy": -0.26368,
				"method": "rhf"
			},
			{
				"type": "occ",
				"energy": -0.23707,
				"method": "rhf"
			},
			{
				"type": "occ",
				"energy": -0.2242,
				"method": "rhf"
			},
			{
				"type": "occ",
				"energy": -0.206,
				"method": "rhf"
			},
			{
				"type": "unocc",
				"energy": 0.04136,
				"method": "rhf"
			},
			{
				"type": "unocc",
				"energy": 0.05628,
				"method": "rhf"
			},
			{
				"type": "unocc",
				"energy": 0.0724,
				"method": "rhf"
			},
			{
				"type": "unocc",
				"energy": 0.08344,
				"method": "rhf"
			},
			{
				"type": "unocc",
				"energy": 0.09228,
				"method": "rhf"
			}
		],
		"cosmo_sigma_profile": { 
			"-0.025": 0.0,
			"-0.024": 0.0,
			"-0.023": 0.0,
			"-0.022": 0.0,
			"-0.021": 0.0,
			"-0.02": 0.0,
			"-0.019": 0.0,
			"-0.018": 0.0,
			"-0.017": 0.0,
			"-0.016": 0.0,
			"-0.015": 0.0,
			"-0.014": 0.0,
			"-0.013": 0.0,
			"-0.012": 0.176604000712,
			"-0.011": 1.23790734137,
			"-0.01": 1.29774946086,
			"-0.009": 1.3958394457,
			"-0.008": 2.88624331702,
			"-0.007": 3.09425844637,
			"-0.006": 4.70557858952,
			"-0.005": 7.22344803075,
			"-0.004": 18.1533166298,
			"-0.003": 42.0983056296,
			"-0.002": 52.0248733059,
			"-0.001": 43.6570295416,
			"0.0": 24.6203204998,
			"0.001": 13.534582515,
			"0.002": 8.17600684372,
			"0.003": 6.96235719538,
			"0.004": 7.95746241177,
			"0.005": 8.02922672229,
			"0.006": 8.49909634354,
			"0.007": 9.66569914902,
			"0.008": 5.27954862021,
			"0.009": 2.91513631293,
			"0.01": 2.50274559702,
			"0.011": 2.19943471338,
			"0.012": 2.94774999126,
			"0.013": 2.56583067118,
			"0.014": 2.98189021004,
			"0.015": 0.909486811386,
			"0.016": 0.650397923381,
			"0.017": 0.117615866529,
			"0.018": 0.0,
			"0.019": 0.0,
			"0.02": 0.0,
			"0.021": 0.0,
			"0.022": 0.0,
			"0.023": 0.0,
			"0.024": 0.0,
			"0.025": 0.0
		}
	}
}
