{
	 "smiles": "CC(C)CC(N)=O", 
	 "Tm": 409.15, 
	 "num_atms": 18, 
	 "gaussian": { 
		 "optdone": 1, 
		 "sigma_profile": "yes", 
		 "theory": "DFT", 
		 "functional": "B3LYP", 
		 "basiset": "6-31G**", 
		 "properties": { 
			 "R2extent": 1143.3181, 
			 "electric_dipole_moment_norm": 3.5429256879, 
			 "electric_quadrupole_moment_norm": 6.6289197589, 
			 "total_energy": -327.166401918, 
			 "HOMO_LUMO_gap": 0.27217, 
			 "cosmo_polarized_energy": -10.98, 
			 "cosmo_cavitation_energy": 20.15, 
			 "cosmo_dispersion_energy": -14.83, 
			 "cosmo_repulsion_energy": 1.28, 
			 "cosmo_total_nonelectrostatic_energy": 6.6, 
			 "SMD_solvation_energy": 4.35 
		},
		"coords": [
			{
				"x": -1.5248294978,
				"y": -1.1913983975,
				"z": 1.1588608695,
				"element": "C" 
			},
			{
				"x": -1.8019691642,
				"y": 0.3199924289,
				"z": 1.1561787921,
				"element": "C" 
			},
			{
				"x": -1.7323447172,
				"y": 0.9143559537,
				"z": 2.5718366677,
				"element": "C" 
			},
			{
				"x": -0.9025551442,
				"y": 1.072971455,
				"z": 0.1544799996,
				"element": "C" 
			},
			{
				"x": 0.6076887182,
				"y": 0.955146433,
				"z": 0.3773312336,
				"element": "C" 
			},
			{
				"x": 1.3634599876,
				"y": 1.3530573629,
				"z": -0.6940339741,
				"element": "N" 
			},
			{
				"x": 1.1294473346,
				"y": 0.5536091165,
				"z": 1.409444692,
				"element": "O" 
			},
			{
				"x": -0.5174041986,
				"y": -1.3993785251,
				"z": 1.527978889,
				"element": "H" 
			},
			{
				"x": -2.2402554397,
				"y": -1.7127648263,
				"z": 1.8038693035,
				"element": "H" 
			},
			{
				"x": -1.6165406102,
				"y": -1.6156603686,
				"z": 0.151835581,
				"element": "H" 
			},
			{
				"x": -2.8281814622,
				"y": 0.4663701574,
				"z": 0.7886442093,
				"element": "H" 
			},
			{
				"x": -0.7297675942,
				"y": 0.8007330742,
				"z": 2.9887105121,
				"element": "H" 
			},
			{
				"x": -1.9824493777,
				"y": 1.9819995454,
				"z": 2.5651610331,
				"element": "H" 
			},
			{
				"x": -2.4459293418,
				"y": 0.4117321072,
				"z": 3.2340512306,
				"element": "H" 
			},
			{
				"x": -1.1260723423,
				"y": 0.7345167404,
				"z": -0.8662748056,
				"element": "H" 
			},
			{
				"x": -1.1486687855,
				"y": 2.1443762642,
				"z": 0.1774258482,
				"element": "H" 
			},
			{
				"x": 0.9577780756,
				"y": 1.7497873686,
				"z": -1.5257911244,
				"element": "H" 
			},
			{
				"x": 2.3652935595,
				"y": 1.3799541102,
				"z": -0.5795089571,
				"element": "H" 
			}
		],
		 "valence_orbital": [ 
			{
				"type": "occ",
				"energy": -0.32446,
				"method": "rhf"
			},
			{
				"type": "occ",
				"energy": -0.32268,
				"method": "rhf"
			},
			{
				"type": "occ",
				"energy": -0.32069,
				"method": "rhf"
			},
			{
				"type": "occ",
				"energy": -0.26492,
				"method": "rhf"
			},
			{
				"type": "occ",
				"energy": -0.24204,
				"method": "rhf"
			},
			{
				"type": "unocc",
				"energy": 0.03013,
				"method": "rhf"
			},
			{
				"type": "unocc",
				"energy": 0.0724,
				"method": "rhf"
			},
			{
				"type": "unocc",
				"energy": 0.09218,
				"method": "rhf"
			},
			{
				"type": "unocc",
				"energy": 0.1325,
				"method": "rhf"
			},
			{
				"type": "unocc",
				"energy": 0.15318,
				"method": "rhf"
			}
		],
		"cosmo_sigma_profile": { 
			"-0.025": 0.0,
			"-0.024": 0.0,
			"-0.023": 0.0,
			"-0.022": 0.0,
			"-0.021": 0.0,
			"-0.02": 0.0,
			"-0.019": 0.0,
			"-0.018": 0.0,
			"-0.017": 0.0,
			"-0.016": 0.0,
			"-0.015": 0.0,
			"-0.014": 1.11802877294,
			"-0.013": 2.13269488646,
			"-0.012": 2.35062270268,
			"-0.011": 2.16494412123,
			"-0.01": 2.33156189343,
			"-0.009": 2.95919752841,
			"-0.008": 2.13101201968,
			"-0.007": 1.88451419255,
			"-0.006": 2.09548150143,
			"-0.005": 4.53349076321,
			"-0.004": 5.8277507855,
			"-0.003": 8.77112635003,
			"-0.002": 18.4241639903,
			"-0.001": 17.8360194975,
			"0.0": 15.8437160881,
			"0.001": 16.5302573317,
			"0.002": 14.5673454543,
			"0.003": 7.04851485864,
			"0.004": 3.72498767043,
			"0.005": 2.53552109464,
			"0.006": 2.29285352541,
			"0.007": 2.59465289784,
			"0.008": 1.84421721785,
			"0.009": 1.54008671975,
			"0.01": 2.03431292236,
			"0.011": 1.51027945394,
			"0.012": 1.72011484151,
			"0.013": 2.03487164222,
			"0.014": 3.95269399776,
			"0.015": 1.32319187718,
			"0.016": 0.0,
			"0.017": 0.0,
			"0.018": 0.0,
			"0.019": 0.0,
			"0.02": 0.0,
			"0.021": 0.0,
			"0.022": 0.0,
			"0.023": 0.0,
			"0.024": 0.0,
			"0.025": 0.0
		}
	}
}
