{
	 "smiles": "CCO[Si](CCCN)(OCC)OCC", 
	 "Tm": 203.15, 
	 "num_atms": 37, 
	 "gaussian": { 
		 "optdone": 1, 
		 "sigma_profile": "yes", 
		 "theory": "DFT", 
		 "functional": "B3LYP", 
		 "basiset": "6-31G**", 
		 "properties": { 
			 "R2extent": 4175.0253, 
			 "electric_dipole_moment_norm": 2.13091962777, 
			 "electric_quadrupole_moment_norm": 7.83668227823, 
			 "total_energy": -926.878283965, 
			 "HOMO_LUMO_gap": 0.28228, 
			 "cosmo_polarized_energy": -9.48, 
			 "cosmo_cavitation_energy": 39.96, 
			 "cosmo_dispersion_energy": -24.45, 
			 "cosmo_repulsion_energy": 2.12, 
			 "cosmo_total_nonelectrostatic_energy": 17.63, 
			 "SMD_solvation_energy": 5.78 
		},
		"coords": [
			{
				"x": -0.7607772445,
				"y": 2.4438800889,
				"z": 2.9624825522,
				"element": "C" 
			},
			{
				"x": -1.26293338,
				"y": 1.6168060476,
				"z": 1.7894755832,
				"element": "C" 
			},
			{
				"x": -0.2068940518,
				"y": 1.4591612841,
				"z": 0.8416987924,
				"element": "O" 
			},
			{
				"x": -0.298482957,
				"y": 0.5086193069,
				"z": -0.5208665277,
				"element": "Si" 
			},
			{
				"x": -1.6113498986,
				"y": 1.1097490982,
				"z": -1.7111520413,
				"element": "C" 
			},
			{
				"x": -2.0309481814,
				"y": 0.1551069883,
				"z": -2.8506896984,
				"element": "C" 
			},
			{
				"x": -0.8731527173,
				"y": -0.3690789023,
				"z": -3.7108163074,
				"element": "C" 
			},
			{
				"x": -0.0664092557,
				"y": 0.7306831745,
				"z": -4.2587685553,
				"element": "N" 
			},
			{
				"x": 1.219513715,
				"y": 0.5843176711,
				"z": -1.1865845842,
				"element": "O" 
			},
			{
				"x": 2.281749415,
				"y": 1.4718138988,
				"z": -0.8226794754,
				"element": "C" 
			},
			{
				"x": 3.6072745844,
				"y": 0.8692801312,
				"z": -1.2614711563,
				"element": "C" 
			},
			{
				"x": -0.6561611268,
				"y": -1.0647862441,
				"z": -0.1528011776,
				"element": "O" 
			},
			{
				"x": 0.2062032852,
				"y": -1.9509664776,
				"z": 0.5655443704,
				"element": "C" 
			},
			{
				"x": -0.3199994699,
				"y": -3.3714065995,
				"z": 0.4350915834,
				"element": "C" 
			},
			{
				"x": -1.5571290733,
				"y": 2.5854125585,
				"z": 3.7007636031,
				"element": "H" 
			},
			{
				"x": 0.0813382774,
				"y": 1.9451018115,
				"z": 3.451614145,
				"element": "H" 
			},
			{
				"x": -0.4246490622,
				"y": 3.4276282514,
				"z": 2.6216223859,
				"element": "H" 
			},
			{
				"x": -1.6082905954,
				"y": 0.6329423129,
				"z": 2.1362379565,
				"element": "H" 
			},
			{
				"x": -2.1196344034,
				"y": 2.1167532711,
				"z": 1.3151124456,
				"element": "H" 
			},
			{
				"x": -1.2408320874,
				"y": 2.0485324412,
				"z": -2.1438110871,
				"element": "H" 
			},
			{
				"x": -2.5018078271,
				"y": 1.3842992481,
				"z": -1.1298369291,
				"element": "H" 
			},
			{
				"x": -2.5593407344,
				"y": -0.7070856919,
				"z": -2.4269013365,
				"element": "H" 
			},
			{
				"x": -2.737612789,
				"y": 0.6819124936,
				"z": -3.5036327202,
				"element": "H" 
			},
			{
				"x": -0.2833064337,
				"y": -1.0889652867,
				"z": -3.1175150723,
				"element": "H" 
			},
			{
				"x": -1.2972676131,
				"y": -0.9320998064,
				"z": -4.5508923686,
				"element": "H" 
			},
			{
				"x": 0.5692190355,
				"y": 1.0510244196,
				"z": -3.530580706,
				"element": "H" 
			},
			{
				"x": 0.5283857708,
				"y": 0.3730575953,
				"z": -5.0023377664,
				"element": "H" 
			},
			{
				"x": 2.126348267,
				"y": 2.4427146345,
				"z": -1.3133848575,
				"element": "H" 
			},
			{
				"x": 2.2713664301,
				"y": 1.6472756141,
				"z": 0.2584613156,
				"element": "H" 
			},
			{
				"x": 3.7809504947,
				"y": -0.0885902076,
				"z": -0.7615721635,
				"element": "H" 
			},
			{
				"x": 4.4335265266,
				"y": 1.5443357157,
				"z": -1.0138925673,
				"element": "H" 
			},
			{
				"x": 3.6155808008,
				"y": 0.6957521691,
				"z": -2.3419484213,
				"element": "H" 
			},
			{
				"x": 0.2433968924,
				"y": -1.6535979802,
				"z": 1.6229368127,
				"element": "H" 
			},
			{
				"x": 1.2260130362,
				"y": -1.8797874145,
				"z": 0.1656550265,
				"element": "H" 
			},
			{
				"x": -0.3426026246,
				"y": -3.6767338103,
				"z": -0.6151823728,
				"element": "H" 
			},
			{
				"x": -1.3363765484,
				"y": -3.4435239189,
				"z": 0.8337563813,
				"element": "H" 
			},
			{
				"x": 0.3193915438,
				"y": -4.0690378862,
				"z": 0.9865649383,
				"element": "H" 
			}
		],
		 "valence_orbital": [ 
			{
				"type": "occ",
				"energy": -0.29577,
				"method": "rhf"
			},
			{
				"type": "occ",
				"energy": -0.28413,
				"method": "rhf"
			},
			{
				"type": "occ",
				"energy": -0.27421,
				"method": "rhf"
			},
			{
				"type": "occ",
				"energy": -0.26637,
				"method": "rhf"
			},
			{
				"type": "occ",
				"energy": -0.21891,
				"method": "rhf"
			},
			{
				"type": "unocc",
				"energy": 0.06337,
				"method": "rhf"
			},
			{
				"type": "unocc",
				"energy": 0.08173,
				"method": "rhf"
			},
			{
				"type": "unocc",
				"energy": 0.0848,
				"method": "rhf"
			},
			{
				"type": "unocc",
				"energy": 0.0944,
				"method": "rhf"
			},
			{
				"type": "unocc",
				"energy": 0.11004,
				"method": "rhf"
			}
		],
		"cosmo_sigma_profile": { 
			"-0.025": 0.0,
			"-0.024": 0.0,
			"-0.023": 0.0,
			"-0.022": 0.0,
			"-0.021": 0.0,
			"-0.02": 0.0,
			"-0.019": 0.0,
			"-0.018": 0.0,
			"-0.017": 0.0,
			"-0.016": 0.0,
			"-0.015": 0.0,
			"-0.014": 0.0,
			"-0.013": 0.0,
			"-0.012": 0.0,
			"-0.011": 0.0,
			"-0.01": 0.199136190143,
			"-0.009": 1.22185624615,
			"-0.008": 1.45984397351,
			"-0.007": 0.93046951934,
			"-0.006": 1.47655045229,
			"-0.005": 3.09056489918,
			"-0.004": 19.1278476776,
			"-0.003": 45.7737529143,
			"-0.002": 50.0442932632,
			"-0.001": 44.8277646409,
			"0.0": 41.7974196681,
			"0.001": 31.8486360164,
			"0.002": 9.82422223272,
			"0.003": 8.43887766461,
			"0.004": 6.25483450902,
			"0.005": 7.32216211599,
			"0.006": 4.87830867416,
			"0.007": 4.93272257549,
			"0.008": 4.74802958376,
			"0.009": 3.70517239933,
			"0.01": 3.05566477951,
			"0.011": 2.2690134738,
			"0.012": 1.2187816312,
			"0.013": 0.675684116707,
			"0.014": 0.756324876753,
			"0.015": 0.250691109071,
			"0.016": 0.52795671975,
			"0.017": 0.634367743617,
			"0.018": 0.714489446242,
			"0.019": 0.465227742574,
			"0.02": 0.42026039979,
			"0.021": 0.0678777768214,
			"0.022": 0.0,
			"0.023": 0.0,
			"0.024": 0.0,
			"0.025": 0.0
		}
	}
}
