{
	 "smiles": "OC(=O)C1CCC(=O)N(CC2=CC=CC=C2)C1C1=CC=CC=C1", 
	 "Tm": 438.15, 
	 "num_atms": 42, 
	 "gaussian": { 
		 "optdone": 1, 
		 "sigma_profile": "yes", 
		 "theory": "DFT", 
		 "functional": "B3LYP", 
		 "basiset": "6-31G**", 
		 "properties": { 
			 "R2extent": 7240.6577, 
			 "electric_dipole_moment_norm": 3.18012856029, 
			 "electric_quadrupole_moment_norm": 19.9246867584, 
			 "total_energy": -1015.92441553, 
			 "HOMO_LUMO_gap": 0.21393, 
			 "cosmo_polarized_energy": -18.38, 
			 "cosmo_cavitation_energy": 43.73, 
			 "cosmo_dispersion_energy": -28.78, 
			 "cosmo_repulsion_energy": 2.2, 
			 "cosmo_total_nonelectrostatic_energy": 17.15, 
			 "SMD_solvation_energy": 8.07 
		},
		"coords": [
			{
				"x": 0.0998451281,
				"y": -1.8657895396,
				"z": -4.0106667186,
				"element": "O" 
			},
			{
				"x": -1.0696562709,
				"y": -1.3937577135,
				"z": -3.5001723974,
				"element": "C" 
			},
			{
				"x": -2.1289269591,
				"y": -1.9429935516,
				"z": -3.6978503783,
				"element": "O" 
			},
			{
				"x": -0.86811241,
				"y": -0.111174239,
				"z": -2.7139418419,
				"element": "C" 
			},
			{
				"x": -0.4530438013,
				"y": 1.060493007,
				"z": -3.6567124539,
				"element": "C" 
			},
			{
				"x": 0.9432745093,
				"y": 1.6001879087,
				"z": -3.3180395031,
				"element": "C" 
			},
			{
				"x": 1.0510192049,
				"y": 1.9487625982,
				"z": -1.8425282314,
				"element": "C" 
			},
			{
				"x": 1.53519824,
				"y": 3.0054380389,
				"z": -1.4462715167,
				"element": "O" 
			},
			{
				"x": 0.5386196771,
				"y": 0.9942671834,
				"z": -0.9893517815,
				"element": "N" 
			},
			{
				"x": 0.7745571251,
				"y": 1.1886519949,
				"z": 0.454508817,
				"element": "C" 
			},
			{
				"x": -0.3671498672,
				"y": 1.8451284947,
				"z": 1.2129194188,
				"element": "C" 
			},
			{
				"x": -0.85820169,
				"y": 1.2683938447,
				"z": 2.3901132957,
				"element": "C" 
			},
			{
				"x": -1.8759059125,
				"y": 1.8871393792,
				"z": 3.1200285121,
				"element": "C" 
			},
			{
				"x": -2.4195829169,
				"y": 3.0926022822,
				"z": 2.6761016455,
				"element": "C" 
			},
			{
				"x": -1.9323320171,
				"y": 3.6785215584,
				"z": 1.5047333175,
				"element": "C" 
			},
			{
				"x": -0.9109328714,
				"y": 3.0638809533,
				"z": 0.780649178,
				"element": "C" 
			},
			{
				"x": 0.1681602793,
				"y": -0.3231644594,
				"z": -1.5677838862,
				"element": "C" 
			},
			{
				"x": -0.3358270488,
				"y": -1.3347644502,
				"z": -0.5507543268,
				"element": "C" 
			},
			{
				"x": 0.4241687539,
				"y": -2.4833951464,
				"z": -0.2936110762,
				"element": "C" 
			},
			{
				"x": -0.0277729779,
				"y": -3.4578122867,
				"z": 0.5983798727,
				"element": "C" 
			},
			{
				"x": -1.2521727963,
				"y": -3.29451029,
				"z": 1.2462714342,
				"element": "C" 
			},
			{
				"x": -2.0188678965,
				"y": -2.1536220282,
				"z": 0.9976016461,
				"element": "C" 
			},
			{
				"x": -1.5661412098,
				"y": -1.1825675919,
				"z": 0.1053888792,
				"element": "C" 
			},
			{
				"x": -0.1290631717,
				"y": -2.6691471592,
				"z": -4.5079674385,
				"element": "H" 
			},
			{
				"x": -1.8384093649,
				"y": 0.1108057352,
				"z": -2.2678099127,
				"element": "H" 
			},
			{
				"x": -0.483293643,
				"y": 0.7472712045,
				"z": -4.7043201514,
				"element": "H" 
			},
			{
				"x": -1.1826528725,
				"y": 1.8686043434,
				"z": -3.550730423,
				"element": "H" 
			},
			{
				"x": 1.7044249648,
				"y": 0.8496357064,
				"z": -3.5687979003,
				"element": "H" 
			},
			{
				"x": 1.1743363754,
				"y": 2.5039698959,
				"z": -3.8844884579,
				"element": "H" 
			},
			{
				"x": 1.6624220249,
				"y": 1.8235985739,
				"z": 0.5295282778,
				"element": "H" 
			},
			{
				"x": 1.0077231488,
				"y": 0.2209801657,
				"z": 0.9023720815,
				"element": "H" 
			},
			{
				"x": -0.4457585297,
				"y": 0.3238760629,
				"z": 2.7357326408,
				"element": "H" 
			},
			{
				"x": -2.2450515475,
				"y": 1.4240309784,
				"z": 4.0310662342,
				"element": "H" 
			},
			{
				"x": -3.2135329318,
				"y": 3.5748896555,
				"z": 3.23941786,
				"element": "H" 
			},
			{
				"x": -2.3430605178,
				"y": 4.6231774862,
				"z": 1.158717362,
				"element": "H" 
			},
			{
				"x": -0.5117033875,
				"y": 3.5354132329,
				"z": -0.1115275792,
				"element": "H" 
			},
			{
				"x": 1.0650910505,
				"y": -0.7600323057,
				"z": -2.0236631232,
				"element": "H" 
			},
			{
				"x": 1.3765419429,
				"y": -2.6169246107,
				"z": -0.800385323,
				"element": "H" 
			},
			{
				"x": 0.5753259207,
				"y": -4.3420530886,
				"z": 0.7830555344,
				"element": "H" 
			},
			{
				"x": -1.609054264,
				"y": -4.0511861322,
				"z": 1.9389330351,
				"element": "H" 
			},
			{
				"x": -2.9729710193,
				"y": -2.0183477099,
				"z": 1.4982942841,
				"element": "H" 
			},
			{
				"x": -2.1685304502,
				"y": -0.2967779814,
				"z": -0.0675389055,
				"element": "H" 
			}
		],
		 "valence_orbital": [ 
			{
				"type": "occ",
				"energy": -0.26091,
				"method": "rhf"
			},
			{
				"type": "occ",
				"energy": -0.24552,
				"method": "rhf"
			},
			{
				"type": "occ",
				"energy": -0.24508,
				"method": "rhf"
			},
			{
				"type": "occ",
				"energy": -0.23906,
				"method": "rhf"
			},
			{
				"type": "occ",
				"energy": -0.2339,
				"method": "rhf"
			},
			{
				"type": "unocc",
				"energy": -0.01997,
				"method": "rhf"
			},
			{
				"type": "unocc",
				"energy": -0.01407,
				"method": "rhf"
			},
			{
				"type": "unocc",
				"energy": 0.00151,
				"method": "rhf"
			},
			{
				"type": "unocc",
				"energy": 0.00381,
				"method": "rhf"
			},
			{
				"type": "unocc",
				"energy": 0.00642,
				"method": "rhf"
			}
		],
		"cosmo_sigma_profile": { 
			"-0.025": 0.0,
			"-0.024": 0.0,
			"-0.023": 0.0,
			"-0.022": 0.0,
			"-0.021": 0.0,
			"-0.02": 0.0,
			"-0.019": 0.025283372158,
			"-0.018": 0.714987810078,
			"-0.017": 0.886763005421,
			"-0.016": 0.875854166803,
			"-0.015": 0.773017295141,
			"-0.014": 0.871878527634,
			"-0.013": 1.06951205743,
			"-0.012": 0.547215857336,
			"-0.011": 0.289839691174,
			"-0.01": 0.767024203412,
			"-0.009": 0.528021789097,
			"-0.008": 0.595416298383,
			"-0.007": 3.41996137854,
			"-0.006": 16.8539070181,
			"-0.005": 30.6473182143,
			"-0.004": 33.9248381945,
			"-0.003": 37.277384829,
			"-0.002": 30.5039288225,
			"-0.001": 23.1961396105,
			"0.0": 20.1223526366,
			"0.001": 18.3944709757,
			"0.002": 19.3606740099,
			"0.003": 20.4611698032,
			"0.004": 21.5639245531,
			"0.005": 17.9953392642,
			"0.006": 10.9561791452,
			"0.007": 4.22233130768,
			"0.008": 3.35653957747,
			"0.009": 3.36096522283,
			"0.01": 3.22326572055,
			"0.011": 5.92451838614,
			"0.012": 5.36113296909,
			"0.013": 3.42549967774,
			"0.014": 3.50983989924,
			"0.015": 1.08583067518,
			"0.016": 0.0,
			"0.017": 0.0,
			"0.018": 0.0,
			"0.019": 0.0,
			"0.02": 0.0,
			"0.021": 0.0,
			"0.022": 0.0,
			"0.023": 0.0,
			"0.024": 0.0,
			"0.025": 0.0
		}
	}
}
