{
	 "smiles": "NCC1=CC(NC(=O)N2CCCC2)=CC=C1", 
	 "Tm": 402.15, 
	 "num_atms": 33, 
	 "gaussian": { 
		 "optdone": 1, 
		 "sigma_profile": "yes", 
		 "theory": "DFT", 
		 "functional": "B3LYP", 
		 "basiset": "6-31G**", 
		 "properties": { 
			 "R2extent": 5682.7167, 
			 "electric_dipole_moment_norm": 4.29815242866, 
			 "electric_quadrupole_moment_norm": 18.2271671175, 
			 "total_energy": -707.026846627, 
			 "HOMO_LUMO_gap": 0.21067, 
			 "cosmo_polarized_energy": -17.64, 
			 "cosmo_cavitation_energy": 35.14, 
			 "cosmo_dispersion_energy": -25.76, 
			 "cosmo_repulsion_energy": 2.03, 
			 "cosmo_total_nonelectrostatic_energy": 11.4, 
			 "SMD_solvation_energy": 3.68 
		},
		"coords": [
			{
				"x": 3.7329317731,
				"y": 3.5156793422,
				"z": -0.5834564057,
				"element": "N" 
			},
			{
				"x": 2.2790414509,
				"y": 3.7306163277,
				"z": -0.4763889729,
				"element": "C" 
			},
			{
				"x": 1.5115803608,
				"y": 2.6495374444,
				"z": 0.2655140875,
				"element": "C" 
			},
			{
				"x": 0.9331504025,
				"y": 1.5872570511,
				"z": -0.4321397388,
				"element": "C" 
			},
			{
				"x": 0.2721748676,
				"y": 0.5407168028,
				"z": 0.2336780401,
				"element": "C" 
			},
			{
				"x": -0.2763232724,
				"y": -0.4799508973,
				"z": -0.5658096884,
				"element": "N" 
			},
			{
				"x": -0.9860491528,
				"y": -1.6040747708,
				"z": -0.1551576237,
				"element": "C" 
			},
			{
				"x": -1.2495615128,
				"y": -1.8613732917,
				"z": 1.0174035529,
				"element": "O" 
			},
			{
				"x": -1.3831808425,
				"y": -2.4295198296,
				"z": -1.1809333543,
				"element": "N" 
			},
			{
				"x": -2.2041107465,
				"y": -3.6101471166,
				"z": -0.8830521196,
				"element": "C" 
			},
			{
				"x": -2.763615404,
				"y": -4.0002986049,
				"z": -2.2575251189,
				"element": "C" 
			},
			{
				"x": -1.6490086635,
				"y": -3.5715898344,
				"z": -3.2269357302,
				"element": "C" 
			},
			{
				"x": -1.1296561487,
				"y": -2.2590438543,
				"z": -2.6133320965,
				"element": "C" 
			},
			{
				"x": 0.1906094865,
				"y": 0.5643795966,
				"z": 1.6349690493,
				"element": "C" 
			},
			{
				"x": 0.7651869214,
				"y": 1.6296732321,
				"z": 2.328753679,
				"element": "C" 
			},
			{
				"x": 1.4184913522,
				"y": 2.6661021247,
				"z": 1.6638061673,
				"element": "C" 
			},
			{
				"x": 3.9010320738,
				"y": 2.6100783458,
				"z": -1.0186999787,
				"element": "H" 
			},
			{
				"x": 4.1247847613,
				"y": 3.4386230719,
				"z": 0.3536031469,
				"element": "H" 
			},
			{
				"x": 2.125628031,
				"y": 4.6963597712,
				"z": 0.018624748,
				"element": "H" 
			},
			{
				"x": 1.8836190924,
				"y": 3.8335680737,
				"z": -1.4936800618,
				"element": "H" 
			},
			{
				"x": 0.9924804971,
				"y": 1.5736087073,
				"z": -1.5205255579,
				"element": "H" 
			},
			{
				"x": -0.1551901754,
				"y": -0.3458020878,
				"z": -1.5575038451,
				"element": "H" 
			},
			{
				"x": -2.9723237518,
				"y": -3.3602567235,
				"z": -0.1477813469,
				"element": "H" 
			},
			{
				"x": -1.5883515789,
				"y": -4.4119596485,
				"z": -0.4531666223,
				"element": "H" 
			},
			{
				"x": -3.0034859266,
				"y": -5.0645774742,
				"z": -2.3258836437,
				"element": "H" 
			},
			{
				"x": -3.680013158,
				"y": -3.435639248,
				"z": -2.4640077027,
				"element": "H" 
			},
			{
				"x": -1.9908395159,
				"y": -3.4405537121,
				"z": -4.256987653,
				"element": "H" 
			},
			{
				"x": -0.8472705994,
				"y": -4.3181978648,
				"z": -3.2319015336,
				"element": "H" 
			},
			{
				"x": -0.061592059,
				"y": -2.1111116147,
				"z": -2.8206965451,
				"element": "H" 
			},
			{
				"x": -1.6763951463,
				"y": -1.3918163966,
				"z": -3.0166075864,
				"element": "H" 
			},
			{
				"x": -0.3214454511,
				"y": -0.235709803,
				"z": 2.1493295494,
				"element": "H" 
			},
			{
				"x": 0.6904471522,
				"y": 1.6472806295,
				"z": 3.4128019358,
				"element": "H" 
			},
			{
				"x": 1.8508548827,
				"y": 3.4911422516,
				"z": 2.2250889701,
				"element": "H" 
			}
		],
		 "valence_orbital": [ 
			{
				"type": "occ",
				"energy": -0.25276,
				"method": "rhf"
			},
			{
				"type": "occ",
				"energy": -0.24806,
				"method": "rhf"
			},
			{
				"type": "occ",
				"energy": -0.23691,
				"method": "rhf"
			},
			{
				"type": "occ",
				"energy": -0.22694,
				"method": "rhf"
			},
			{
				"type": "occ",
				"energy": -0.206,
				"method": "rhf"
			},
			{
				"type": "unocc",
				"energy": 0.00467,
				"method": "rhf"
			},
			{
				"type": "unocc",
				"energy": 0.005,
				"method": "rhf"
			},
			{
				"type": "unocc",
				"energy": 0.06519,
				"method": "rhf"
			},
			{
				"type": "unocc",
				"energy": 0.06656,
				"method": "rhf"
			},
			{
				"type": "unocc",
				"energy": 0.08323,
				"method": "rhf"
			}
		],
		"cosmo_sigma_profile": { 
			"-0.025": 0.0,
			"-0.024": 0.0,
			"-0.023": 0.0,
			"-0.022": 0.0,
			"-0.021": 0.0,
			"-0.02": 0.0,
			"-0.019": 0.0,
			"-0.018": 0.0,
			"-0.017": 0.0,
			"-0.016": 0.0,
			"-0.015": 0.0,
			"-0.014": 0.244836656693,
			"-0.013": 1.01945105395,
			"-0.012": 1.29476343069,
			"-0.011": 1.88135536768,
			"-0.01": 1.46901566055,
			"-0.009": 3.39550069675,
			"-0.008": 4.72239017052,
			"-0.007": 4.31805538868,
			"-0.006": 6.82761091882,
			"-0.005": 14.3987309517,
			"-0.004": 27.5093805535,
			"-0.003": 35.5791450135,
			"-0.002": 31.4529434818,
			"-0.001": 23.8382823798,
			"0.0": 17.6494850887,
			"0.001": 12.602912023,
			"0.002": 10.8834463575,
			"0.003": 12.2635480987,
			"0.004": 12.4739844327,
			"0.005": 11.419075647,
			"0.006": 11.1377944746,
			"0.007": 5.18392477467,
			"0.008": 2.35966990588,
			"0.009": 3.04070071371,
			"0.01": 1.70516341238,
			"0.011": 2.36249948219,
			"0.012": 2.05085279127,
			"0.013": 3.75336483135,
			"0.014": 3.89414949144,
			"0.015": 1.92104550276,
			"0.016": 0.199104853757,
			"0.017": 1.13178004041,
			"0.018": 0.647986116038,
			"0.019": 0.644602916527,
			"0.02": 0.348916110263,
			"0.021": 6.71713805408e-05,
			"0.022": 0.0,
			"0.023": 0.0,
			"0.024": 0.0,
			"0.025": 0.0
		}
	}
}
