{
	 "smiles": "O=C(CC(C(CC(=O)C1=CC=CC=C1)C(=O)C1=CC=CC=C1)C(=O)C1=CC=CC=C1)C1=CC=CC=C1", 
	 "Tm": 442.15, 
	 "num_atms": 62, 
	 "gaussian": { 
		 "optdone": 1, 
		 "sigma_profile": "yes", 
		 "theory": "DFT", 
		 "functional": "B3LYP", 
		 "basiset": "6-31G**", 
		 "properties": { 
			 "R2extent": 17671.5817, 
			 "electric_dipole_moment_norm": 3.01754959197, 
			 "electric_quadrupole_moment_norm": 24.1815478644, 
			 "total_energy": -1535.96154762, 
			 "HOMO_LUMO_gap": 0.17264, 
			 "cosmo_polarized_energy": -22.38, 
			 "cosmo_cavitation_energy": 63.69, 
			 "cosmo_dispersion_energy": -41.76, 
			 "cosmo_repulsion_energy": 3.11, 
			 "cosmo_total_nonelectrostatic_energy": 25.04, 
			 "SMD_solvation_energy": 11.53 
		},
		"coords": [
			{
				"x": -2.74512693,
				"y": -0.5043516444,
				"z": 0.6748717611,
				"element": "O" 
			},
			{
				"x": -2.4477112049,
				"y": -1.3863401863,
				"z": -0.1264655141,
				"element": "C" 
			},
			{
				"x": -1.495840474,
				"y": -1.0967356004,
				"z": -1.2759640716,
				"element": "C" 
			},
			{
				"x": -0.8967330293,
				"y": 0.3221257717,
				"z": -1.2444902009,
				"element": "C" 
			},
			{
				"x": 0.302460528,
				"y": 0.6062480697,
				"z": -0.2713721458,
				"element": "C" 
			},
			{
				"x": 0.3314154893,
				"y": -0.0228723864,
				"z": 1.1475921618,
				"element": "C" 
			},
			{
				"x": 0.7934972394,
				"y": -1.4746250823,
				"z": 1.2991971308,
				"element": "C" 
			},
			{
				"x": 0.1731088472,
				"y": -2.3865118155,
				"z": 0.7651615106,
				"element": "O" 
			},
			{
				"x": 1.9066114299,
				"y": -1.8028046764,
				"z": 2.2544702987,
				"element": "C" 
			},
			{
				"x": 2.8700997769,
				"y": -0.8765043268,
				"z": 2.680144779,
				"element": "C" 
			},
			{
				"x": 3.875796701,
				"y": -1.2592755777,
				"z": 3.5674019115,
				"element": "C" 
			},
			{
				"x": 3.9258648719,
				"y": -2.5691647039,
				"z": 4.0476418953,
				"element": "C" 
			},
			{
				"x": 2.9734029744,
				"y": -3.5011779531,
				"z": 3.6261620462,
				"element": "C" 
			},
			{
				"x": 1.9769829269,
				"y": -3.1216585491,
				"z": 2.7315846911,
				"element": "C" 
			},
			{
				"x": 1.6355687748,
				"y": 0.331801627,
				"z": -0.9853498148,
				"element": "C" 
			},
			{
				"x": 2.3679814366,
				"y": -0.5726110431,
				"z": -0.6072416939,
				"element": "O" 
			},
			{
				"x": 2.0549264108,
				"y": 1.18628963,
				"z": -2.1486393588,
				"element": "C" 
			},
			{
				"x": 3.1429182977,
				"y": 0.7408011954,
				"z": -2.9188139849,
				"element": "C" 
			},
			{
				"x": 3.6040168033,
				"y": 1.4920311132,
				"z": -3.9949934191,
				"element": "C" 
			},
			{
				"x": 2.9908370533,
				"y": 2.7077778727,
				"z": -4.3124937168,
				"element": "C" 
			},
			{
				"x": 1.9158846746,
				"y": 3.1657145619,
				"z": -3.5489821026,
				"element": "C" 
			},
			{
				"x": 1.4464121363,
				"y": 2.4095831664,
				"z": -2.4748173719,
				"element": "C" 
			},
			{
				"x": -2.0488682479,
				"y": 1.3631409025,
				"z": -1.3065014352,
				"element": "C" 
			},
			{
				"x": -2.897747649,
				"y": 1.1989971578,
				"z": -2.1681734948,
				"element": "O" 
			},
			{
				"x": -2.0670847732,
				"y": 2.6371831657,
				"z": -0.5038582128,
				"element": "C" 
			},
			{
				"x": -2.2925910595,
				"y": 3.8302720559,
				"z": -1.2103624449,
				"element": "C" 
			},
			{
				"x": -2.3508178558,
				"y": 5.050186781,
				"z": -0.5390630126,
				"element": "C" 
			},
			{
				"x": -2.2184873043,
				"y": 5.089082474,
				"z": 0.8510691364,
				"element": "C" 
			},
			{
				"x": -2.0312176603,
				"y": 3.9033015758,
				"z": 1.5640853686,
				"element": "C" 
			},
			{
				"x": -1.9484588441,
				"y": 2.6828629491,
				"z": 0.8927057921,
				"element": "C" 
			},
			{
				"x": -3.0773920972,
				"y": -2.7382252502,
				"z": -0.0272055604,
				"element": "C" 
			},
			{
				"x": -2.7349897139,
				"y": -3.799087155,
				"z": -0.8792076564,
				"element": "C" 
			},
			{
				"x": -3.3638899227,
				"y": -5.0366138365,
				"z": -0.7495158048,
				"element": "C" 
			},
			{
				"x": -4.3399503811,
				"y": -5.2263531559,
				"z": 0.2307315471,
				"element": "C" 
			},
			{
				"x": -4.6866686293,
				"y": -4.1749425193,
				"z": 1.0846392627,
				"element": "C" 
			},
			{
				"x": -4.0590688838,
				"y": -2.9399223398,
				"z": 0.956299634,
				"element": "C" 
			},
			{
				"x": -2.0746216855,
				"y": -1.1883940817,
				"z": -2.2024435314,
				"element": "H" 
			},
			{
				"x": -0.7067189475,
				"y": -1.849265431,
				"z": -1.2958912206,
				"element": "H" 
			},
			{
				"x": -0.4769618753,
				"y": 0.4528542945,
				"z": -2.2505907623,
				"element": "H" 
			},
			{
				"x": 0.2763399983,
				"y": 1.687989311,
				"z": -0.0998342209,
				"element": "H" 
			},
			{
				"x": -0.6810136031,
				"y": -0.0087680423,
				"z": 1.5585028929,
				"element": "H" 
			},
			{
				"x": 0.938180013,
				"y": 0.6271494843,
				"z": 1.7808416927,
				"element": "H" 
			},
			{
				"x": 2.8622028053,
				"y": 0.1381368312,
				"z": 2.2977206591,
				"element": "H" 
			},
			{
				"x": 4.6224526862,
				"y": -0.5353761709,
				"z": 3.8809638742,
				"element": "H" 
			},
			{
				"x": 4.7058179728,
				"y": -2.8635107572,
				"z": 4.7443721624,
				"element": "H" 
			},
			{
				"x": 3.0107105263,
				"y": -4.5223654654,
				"z": 3.9947622459,
				"element": "H" 
			},
			{
				"x": 1.2337545662,
				"y": -3.8311384912,
				"z": 2.3839778555,
				"element": "H" 
			},
			{
				"x": 3.6112752858,
				"y": -0.1993321825,
				"z": -2.648025925,
				"element": "H" 
			},
			{
				"x": 4.4417794828,
				"y": 1.1340387102,
				"z": -4.5862049169,
				"element": "H" 
			},
			{
				"x": 3.3513358918,
				"y": 3.2967120264,
				"z": -5.151060101,
				"element": "H" 
			},
			{
				"x": 1.4413239657,
				"y": 4.1126946089,
				"z": -3.7880928853,
				"element": "H" 
			},
			{
				"x": 0.6126610866,
				"y": 2.7893163574,
				"z": -1.8933858264,
				"element": "H" 
			},
			{
				"x": -2.4271959604,
				"y": 3.783416049,
				"z": -2.2864715623,
				"element": "H" 
			},
			{
				"x": -2.5124838699,
				"y": 5.967760792,
				"z": -1.0975275912,
				"element": "H" 
			},
			{
				"x": -2.2729321237,
				"y": 6.0379609026,
				"z": 1.3770918591,
				"element": "H" 
			},
			{
				"x": -1.9569263994,
				"y": 3.9261408286,
				"z": 2.6475499734,
				"element": "H" 
			},
			{
				"x": -1.8464273377,
				"y": 1.7602518171,
				"z": 1.4495681022,
				"element": "H" 
			},
			{
				"x": -1.9734146019,
				"y": -3.6673247447,
				"z": -1.6396904151,
				"element": "H" 
			},
			{
				"x": -3.09048224,
				"y": -5.8531730626,
				"z": -1.4112530254,
				"element": "H" 
			},
			{
				"x": -4.8292026658,
				"y": -6.1913480782,
				"z": 0.3298024713,
				"element": "H" 
			},
			{
				"x": -5.4462446102,
				"y": -4.3210693573,
				"z": 1.847217044,
				"element": "H" 
			},
			{
				"x": -4.3123500723,
				"y": -2.108978416,
				"z": 1.6058532414,
				"element": "H" 
			}
		],
		 "valence_orbital": [ 
			{
				"type": "occ",
				"energy": -0.25034,
				"method": "rhf"
			},
			{
				"type": "occ",
				"energy": -0.24971,
				"method": "rhf"
			},
			{
				"type": "occ",
				"energy": -0.24855,
				"method": "rhf"
			},
			{
				"type": "occ",
				"energy": -0.24013,
				"method": "rhf"
			},
			{
				"type": "occ",
				"energy": -0.23571,
				"method": "rhf"
			},
			{
				"type": "unocc",
				"energy": -0.06307,
				"method": "rhf"
			},
			{
				"type": "unocc",
				"energy": -0.05125,
				"method": "rhf"
			},
			{
				"type": "unocc",
				"energy": -0.04386,
				"method": "rhf"
			},
			{
				"type": "unocc",
				"energy": -0.04046,
				"method": "rhf"
			},
			{
				"type": "unocc",
				"energy": -0.01504,
				"method": "rhf"
			}
		],
		"cosmo_sigma_profile": { 
			"-0.025": 0.0,
			"-0.024": 0.0,
			"-0.023": 0.0,
			"-0.022": 0.0,
			"-0.021": 0.0,
			"-0.02": 0.0,
			"-0.019": 0.0,
			"-0.018": 0.0,
			"-0.017": 0.0,
			"-0.016": 0.0,
			"-0.015": 0.0,
			"-0.014": 0.0,
			"-0.013": 0.0,
			"-0.012": 0.0,
			"-0.011": 0.0018836122755,
			"-0.01": 0.0128678009394,
			"-0.009": 0.0263342040647,
			"-0.008": 0.623858835696,
			"-0.007": 11.1152493255,
			"-0.006": 36.8175535801,
			"-0.005": 49.7585672521,
			"-0.004": 52.9029553832,
			"-0.003": 39.5195294852,
			"-0.002": 32.0751963061,
			"-0.001": 28.3536616795,
			"0.0": 29.3367505636,
			"0.001": 31.8229440293,
			"0.002": 33.3521098485,
			"0.003": 41.3694748114,
			"0.004": 49.8846889297,
			"0.005": 22.1682948986,
			"0.006": 8.21282249111,
			"0.007": 8.2399847097,
			"0.008": 7.90021801216,
			"0.009": 7.68807527139,
			"0.01": 7.64616141578,
			"0.011": 6.64551019644,
			"0.012": 4.16339914957,
			"0.013": 0.659576097128,
			"0.014": 0.0,
			"0.015": 0.0,
			"0.016": 0.0,
			"0.017": 0.0,
			"0.018": 0.0,
			"0.019": 0.0,
			"0.02": 0.0,
			"0.021": 0.0,
			"0.022": 0.0,
			"0.023": 0.0,
			"0.024": 0.0,
			"0.025": 0.0
		}
	}
}
