{
	 "smiles": "OC(=O)C1=NN(C=C1)C1=CC(Cl)=C(Cl)C=C1", 
	 "Tm": 465.15, 
	 "num_atms": 22, 
	 "gaussian": { 
		 "optdone": 1, 
		 "sigma_profile": "yes", 
		 "theory": "DFT", 
		 "functional": "B3LYP", 
		 "basiset": "6-31G**", 
		 "properties": { 
			 "R2extent": 6369.3919, 
			 "electric_dipole_moment_norm": 3.62907743235, 
			 "electric_quadrupole_moment_norm": 33.1088157935, 
			 "total_energy": -1565.00170608, 
			 "HOMO_LUMO_gap": 0.18137, 
			 "cosmo_polarized_energy": -14.93, 
			 "cosmo_cavitation_energy": 31.37, 
			 "cosmo_dispersion_energy": -23.31, 
			 "cosmo_repulsion_energy": 1.79, 
			 "cosmo_total_nonelectrostatic_energy": 9.85, 
			 "SMD_solvation_energy": 5.95 
		},
		"coords": [
			{
				"x": 0.5252455782,
				"y": 3.5783088037,
				"z": 3.750543072,
				"element": "O" 
			},
			{
				"x": 1.645275491,
				"y": 3.6150202478,
				"z": 2.9963773636,
				"element": "C" 
			},
			{
				"x": 2.5772386791,
				"y": 4.3383559376,
				"z": 3.2579653737,
				"element": "O" 
			},
			{
				"x": 1.6362650427,
				"y": 2.696956346,
				"z": 1.826865621,
				"element": "C" 
			},
			{
				"x": 0.5787063285,
				"y": 1.9208470132,
				"z": 1.5883134426,
				"element": "N" 
			},
			{
				"x": 0.8896593684,
				"y": 1.2246921277,
				"z": 0.4743605619,
				"element": "N" 
			},
			{
				"x": 2.1392886797,
				"y": 1.5590592786,
				"z": 0.0098327244,
				"element": "C" 
			},
			{
				"x": 2.6506178088,
				"y": 2.5087214173,
				"z": 0.8611307179,
				"element": "C" 
			},
			{
				"x": -0.034864636,
				"y": 0.289472633,
				"z": -0.0631562538,
				"element": "C" 
			},
			{
				"x": 0.2807647243,
				"y": -0.4334284698,
				"z": -1.2156490989,
				"element": "C" 
			},
			{
				"x": -0.6323608478,
				"y": -1.350171899,
				"z": -1.7376500832,
				"element": "C" 
			},
			{
				"x": -0.1881104824,
				"y": -2.2263752003,
				"z": -3.1786198929,
				"element": "Cl" 
			},
			{
				"x": -1.868902961,
				"y": -1.5509011603,
				"z": -1.1104873991,
				"element": "C" 
			},
			{
				"x": -3.0373957363,
				"y": -2.6856375913,
				"z": -1.7293897044,
				"element": "Cl" 
			},
			{
				"x": -2.1715051017,
				"y": -0.8209459955,
				"z": 0.0417112973,
				"element": "C" 
			},
			{
				"x": -1.2682658424,
				"y": 0.0936060627,
				"z": 0.5680252452,
				"element": "C" 
			},
			{
				"x": -0.0864884959,
				"y": 2.931458033,
				"z": 3.3587993325,
				"element": "H" 
			},
			{
				"x": 2.5625939817,
				"y": 1.1066039526,
				"z": -0.8721830562,
				"element": "H" 
			},
			{
				"x": 3.6070074907,
				"y": 3.0045255968,
				"z": 0.8130487752,
				"element": "H" 
			},
			{
				"x": 1.2251982625,
				"y": -0.306071352,
				"z": -1.728078771,
				"element": "H" 
			},
			{
				"x": -3.128853529,
				"y": -0.9774359147,
				"z": 0.5258998253,
				"element": "H" 
			},
			{
				"x": -1.507913803,
				"y": 0.6558401329,
				"z": 1.4602409068,
				"element": "H" 
			}
		],
		 "valence_orbital": [ 
			{
				"type": "occ",
				"energy": -0.3063,
				"method": "rhf"
			},
			{
				"type": "occ",
				"energy": -0.28804,
				"method": "rhf"
			},
			{
				"type": "occ",
				"energy": -0.27991,
				"method": "rhf"
			},
			{
				"type": "occ",
				"energy": -0.27775,
				"method": "rhf"
			},
			{
				"type": "occ",
				"energy": -0.25149,
				"method": "rhf"
			},
			{
				"type": "unocc",
				"energy": -0.07012,
				"method": "rhf"
			},
			{
				"type": "unocc",
				"energy": -0.04653,
				"method": "rhf"
			},
			{
				"type": "unocc",
				"energy": -0.02305,
				"method": "rhf"
			},
			{
				"type": "unocc",
				"energy": -0.0139,
				"method": "rhf"
			},
			{
				"type": "unocc",
				"energy": 0.01189,
				"method": "rhf"
			}
		],
		"cosmo_sigma_profile": { 
			"-0.025": 0.0,
			"-0.024": 0.0,
			"-0.023": 0.0,
			"-0.022": 0.0,
			"-0.021": 0.0,
			"-0.02": 0.0,
			"-0.019": 0.0,
			"-0.018": 0.0,
			"-0.017": 0.0,
			"-0.016": 0.0,
			"-0.015": 0.280707162734,
			"-0.014": 0.929683322109,
			"-0.013": 1.64836404917,
			"-0.012": 1.97893011856,
			"-0.011": 2.93190935647,
			"-0.01": 2.36198737267,
			"-0.009": 3.44400431972,
			"-0.008": 6.15647480636,
			"-0.007": 8.91971620427,
			"-0.006": 8.14201403811,
			"-0.005": 7.71109394606,
			"-0.004": 11.0344260252,
			"-0.003": 13.2706114477,
			"-0.002": 15.2125804099,
			"-0.001": 23.7514927898,
			"0.0": 33.916426302,
			"0.001": 27.2847875163,
			"0.002": 19.9211460236,
			"0.003": 20.427193547,
			"0.004": 15.3697778036,
			"0.005": 6.2839345592,
			"0.006": 1.82164684242,
			"0.007": 2.89719538626,
			"0.008": 2.41271741502,
			"0.009": 4.05606747202,
			"0.01": 5.35762241332,
			"0.011": 5.15357704774,
			"0.012": 4.41937026174,
			"0.013": 1.07945886096,
			"0.014": 0.0,
			"0.015": 0.0,
			"0.016": 0.0,
			"0.017": 0.0,
			"0.018": 0.0,
			"0.019": 0.0,
			"0.02": 0.0,
			"0.021": 0.0,
			"0.022": 0.0,
			"0.023": 0.0,
			"0.024": 0.0,
			"0.025": 0.0
		}
	}
}
