{
	 "smiles": "OC(=O)C1=CC=CC=C1OC(=O)C1=CC=CC=C1O", 
	 "Tm": 420.15, 
	 "num_atms": 29, 
	 "gaussian": { 
		 "optdone": 1, 
		 "sigma_profile": "yes", 
		 "theory": "DFT", 
		 "functional": "B3LYP", 
		 "basiset": "6-31G**", 
		 "properties": { 
			 "R2extent": 6131.6559, 
			 "electric_dipole_moment_norm": 2.91322418808, 
			 "electric_quadrupole_moment_norm": 21.5209685298, 
			 "total_energy": -915.668321845, 
			 "HOMO_LUMO_gap": 0.17016, 
			 "cosmo_polarized_energy": -13.59, 
			 "cosmo_cavitation_energy": 34.48, 
			 "cosmo_dispersion_energy": -24.66, 
			 "cosmo_repulsion_energy": 1.89, 
			 "cosmo_total_nonelectrostatic_energy": 11.71, 
			 "SMD_solvation_energy": 8.06 
		},
		"coords": [
			{
				"x": -0.3081077299,
				"y": -0.058857536,
				"z": 1.3257159554,
				"element": "O" 
			},
			{
				"x": -0.5728641642,
				"y": -1.2126016774,
				"z": 1.9797613446,
				"element": "C" 
			},
			{
				"x": -0.8859148215,
				"y": -1.2236043896,
				"z": 3.1540148978,
				"element": "O" 
			},
			{
				"x": -0.469398375,
				"y": -2.4437155386,
				"z": 1.1428950225,
				"element": "C" 
			},
			{
				"x": -0.8512901248,
				"y": -3.6423070546,
				"z": 1.7675751427,
				"element": "C" 
			},
			{
				"x": -0.8173677297,
				"y": -4.8563817643,
				"z": 1.0912542054,
				"element": "C" 
			},
			{
				"x": -0.3933523065,
				"y": -4.8940998537,
				"z": -0.2387298573,
				"element": "C" 
			},
			{
				"x": -0.0017029776,
				"y": -3.7193839374,
				"z": -0.8777063974,
				"element": "C" 
			},
			{
				"x": -0.036729086,
				"y": -2.5071392523,
				"z": -0.1933925361,
				"element": "C" 
			},
			{
				"x": 0.3019547436,
				"y": -1.3726129337,
				"z": -0.9272905643,
				"element": "O" 
			},
			{
				"x": 1.5203777134,
				"y": -0.7998459962,
				"z": -0.7169055242,
				"element": "C" 
			},
			{
				"x": 2.3423664682,
				"y": -1.2913901427,
				"z": 0.0499022793,
				"element": "O" 
			},
			{
				"x": 1.7375280209,
				"y": 0.4144015013,
				"z": -1.5067573776,
				"element": "C" 
			},
			{
				"x": 0.7476517188,
				"y": 0.9450618297,
				"z": -2.3574847206,
				"element": "C" 
			},
			{
				"x": 0.9852907665,
				"y": 2.0949127405,
				"z": -3.0927037567,
				"element": "C" 
			},
			{
				"x": 2.2305862103,
				"y": 2.7355844208,
				"z": -2.9839959475,
				"element": "C" 
			},
			{
				"x": 3.221565326,
				"y": 2.2361626894,
				"z": -2.152113909,
				"element": "C" 
			},
			{
				"x": 2.9926712893,
				"y": 1.0714227631,
				"z": -1.4001873552,
				"element": "C" 
			},
			{
				"x": 3.9809637918,
				"y": 0.6296582915,
				"z": -0.6074254704,
				"element": "O" 
			},
			{
				"x": -0.4042076668,
				"y": 0.6438820928,
				"z": 1.9903487621,
				"element": "H" 
			},
			{
				"x": -1.1770630254,
				"y": -3.5831347969,
				"z": 2.8000786527,
				"element": "H" 
			},
			{
				"x": -1.1209844637,
				"y": -5.7675991142,
				"z": 1.5965526368,
				"element": "H" 
			},
			{
				"x": -0.3633709375,
				"y": -5.8351061596,
				"z": -0.7797208088,
				"element": "H" 
			},
			{
				"x": 0.3340948363,
				"y": -3.7218860552,
				"z": -1.9090882922,
				"element": "H" 
			},
			{
				"x": -0.2064052598,
				"y": 0.4346432337,
				"z": -2.4221245026,
				"element": "H" 
			},
			{
				"x": 0.2169099259,
				"y": 2.4966078959,
				"z": -3.7449018699,
				"element": "H" 
			},
			{
				"x": 2.4244492776,
				"y": 3.6375782933,
				"z": -3.5579909927,
				"element": "H" 
			},
			{
				"x": 4.1864241917,
				"y": 2.7227954528,
				"z": -2.0583336108,
				"element": "H" 
			},
			{
				"x": 3.6500243883,
				"y": -0.1815450026,
				"z": -0.1544454061,
				"element": "H" 
			}
		],
		 "valence_orbital": [ 
			{
				"type": "occ",
				"energy": -0.28467,
				"method": "rhf"
			},
			{
				"type": "occ",
				"energy": -0.27128,
				"method": "rhf"
			},
			{
				"type": "occ",
				"energy": -0.26607,
				"method": "rhf"
			},
			{
				"type": "occ",
				"energy": -0.26264,
				"method": "rhf"
			},
			{
				"type": "occ",
				"energy": -0.22886,
				"method": "rhf"
			},
			{
				"type": "unocc",
				"energy": -0.0587,
				"method": "rhf"
			},
			{
				"type": "unocc",
				"energy": -0.05196,
				"method": "rhf"
			},
			{
				"type": "unocc",
				"energy": -0.01734,
				"method": "rhf"
			},
			{
				"type": "unocc",
				"energy": 0.00312,
				"method": "rhf"
			},
			{
				"type": "unocc",
				"energy": 0.04576,
				"method": "rhf"
			}
		],
		"cosmo_sigma_profile": { 
			"-0.025": 0.0,
			"-0.024": 0.0,
			"-0.023": 0.0,
			"-0.022": 0.0,
			"-0.021": 0.0,
			"-0.02": 0.0,
			"-0.019": 0.212279776147,
			"-0.018": 0.780679238986,
			"-0.017": 1.0818545094,
			"-0.016": 0.897903981184,
			"-0.015": 0.674866608029,
			"-0.014": 0.548964339255,
			"-0.013": 0.158303863927,
			"-0.012": 1.23238659651,
			"-0.011": 1.0808762472,
			"-0.01": 0.628824329091,
			"-0.009": 0.327014113847,
			"-0.008": 2.00198978739,
			"-0.007": 10.3440862942,
			"-0.006": 16.8520213231,
			"-0.005": 18.1309754355,
			"-0.004": 18.3456200861,
			"-0.003": 16.5570091569,
			"-0.002": 15.9111152039,
			"-0.001": 17.0379647416,
			"0.0": 19.0118270908,
			"0.001": 23.2563058611,
			"0.002": 27.8061717612,
			"0.003": 27.0647987952,
			"0.004": 16.4874466895,
			"0.005": 6.64911415314,
			"0.006": 5.22700301724,
			"0.007": 5.15203983066,
			"0.008": 4.67775100337,
			"0.009": 4.91108819645,
			"0.01": 5.73532895682,
			"0.011": 6.44754555251,
			"0.012": 2.0752932389,
			"0.013": 0.0,
			"0.014": 0.0,
			"0.015": 0.0,
			"0.016": 0.0,
			"0.017": 0.0,
			"0.018": 0.0,
			"0.019": 0.0,
			"0.02": 0.0,
			"0.021": 0.0,
			"0.022": 0.0,
			"0.023": 0.0,
			"0.024": 0.0,
			"0.025": 0.0
		}
	}
}
