{
	 "smiles": "COC1=C(OCC(N)=O)C(Cl)=CC(C=O)=C1", 
	 "Tm": 441.15, 
	 "num_atms": 26, 
	 "gaussian": { 
		 "optdone": 1, 
		 "sigma_profile": "yes", 
		 "theory": "DFT", 
		 "functional": "B3LYP", 
		 "basiset": "6-31G**", 
		 "properties": { 
			 "R2extent": 5114.1145, 
			 "electric_dipole_moment_norm": 4.11898956177, 
			 "electric_quadrupole_moment_norm": 25.2291089347, 
			 "total_energy": -1202.90592078, 
			 "HOMO_LUMO_gap": 0.17038, 
			 "cosmo_polarized_energy": -19.21, 
			 "cosmo_cavitation_energy": 33.14, 
			 "cosmo_dispersion_energy": -22.94, 
			 "cosmo_repulsion_energy": 1.82, 
			 "cosmo_total_nonelectrostatic_energy": 12.01, 
			 "SMD_solvation_energy": 8.33 
		},
		"coords": [
			{
				"x": -0.2642435328,
				"y": 1.7050275791,
				"z": 2.0479197828,
				"element": "C" 
			},
			{
				"x": -0.567498438,
				"y": 0.4417392865,
				"z": 1.4667746557,
				"element": "O" 
			},
			{
				"x": -0.5609373192,
				"y": 0.3335235088,
				"z": 0.1102504048,
				"element": "C" 
			},
			{
				"x": -0.9196282795,
				"y": -0.9428754785,
				"z": -0.3891728867,
				"element": "C" 
			},
			{
				"x": -1.2082509809,
				"y": -1.9759641555,
				"z": 0.4499767051,
				"element": "O" 
			},
			{
				"x": -2.3118558953,
				"y": -1.8273802633,
				"z": 1.3669955243,
				"element": "C" 
			},
			{
				"x": -1.9031038656,
				"y": -2.0200318705,
				"z": 2.8271130473,
				"element": "C" 
			},
			{
				"x": -0.6433377057,
				"y": -2.4836157794,
				"z": 3.0211850864,
				"element": "N" 
			},
			{
				"x": -2.7157864164,
				"y": -1.808268328,
				"z": 3.7154078815,
				"element": "O" 
			},
			{
				"x": -0.9022840306,
				"y": -1.1615381705,
				"z": -1.7750823214,
				"element": "C" 
			},
			{
				"x": -1.3342353159,
				"y": -2.7407864955,
				"z": -2.3878240521,
				"element": "Cl" 
			},
			{
				"x": -0.5510887404,
				"y": -0.1495252672,
				"z": -2.661930805,
				"element": "C" 
			},
			{
				"x": -0.2194973155,
				"y": 1.1103130216,
				"z": -2.157596299,
				"element": "C" 
			},
			{
				"x": 0.147144094,
				"y": 2.2022800148,
				"z": -3.0883737926,
				"element": "C" 
			},
			{
				"x": 0.1876736279,
				"y": 2.0939283944,
				"z": -4.2982483339,
				"element": "O" 
			},
			{
				"x": -0.2241311114,
				"y": 1.3544196069,
				"z": -0.7762966512,
				"element": "C" 
			},
			{
				"x": -0.3540063667,
				"y": 1.5643466934,
				"z": 3.1251593877,
				"element": "H" 
			},
			{
				"x": -0.9724491049,
				"y": 2.4759972437,
				"z": 1.7212897363,
				"element": "H" 
			},
			{
				"x": 0.7572159796,
				"y": 2.021618557,
				"z": 1.8040897611,
				"element": "H" 
			},
			{
				"x": -3.0510388966,
				"y": -2.5953199008,
				"z": 1.1153755816,
				"element": "H" 
			},
			{
				"x": -2.7829393498,
				"y": -0.8481277236,
				"z": 1.2732638871,
				"element": "H" 
			},
			{
				"x": 0.0014138122,
				"y": -2.5293761886,
				"z": 2.2481617065,
				"element": "H" 
			},
			{
				"x": -0.3132007919,
				"y": -2.5933068057,
				"z": 3.96727374,
				"element": "H" 
			},
			{
				"x": -0.5404640701,
				"y": -0.3167727406,
				"z": -3.7325088298,
				"element": "H" 
			},
			{
				"x": 0.3934116983,
				"y": 3.1676186566,
				"z": -2.5916441251,
				"element": "H" 
			},
			{
				"x": 0.0498183152,
				"y": 2.3382766051,
				"z": -0.4109587916,
				"element": "H" 
			}
		],
		 "valence_orbital": [ 
			{
				"type": "occ",
				"energy": -0.26908,
				"method": "rhf"
			},
			{
				"type": "occ",
				"energy": -0.26473,
				"method": "rhf"
			},
			{
				"type": "occ",
				"energy": -0.25964,
				"method": "rhf"
			},
			{
				"type": "occ",
				"energy": -0.24999,
				"method": "rhf"
			},
			{
				"type": "occ",
				"energy": -0.24333,
				"method": "rhf"
			},
			{
				"type": "unocc",
				"energy": -0.07295,
				"method": "rhf"
			},
			{
				"type": "unocc",
				"energy": -0.0223,
				"method": "rhf"
			},
			{
				"type": "unocc",
				"energy": 0.01845,
				"method": "rhf"
			},
			{
				"type": "unocc",
				"energy": 0.02677,
				"method": "rhf"
			},
			{
				"type": "unocc",
				"energy": 0.03139,
				"method": "rhf"
			}
		],
		"cosmo_sigma_profile": { 
			"-0.025": 0.0,
			"-0.024": 0.0,
			"-0.023": 0.0,
			"-0.022": 0.0,
			"-0.021": 0.0,
			"-0.02": 0.0,
			"-0.019": 0.0,
			"-0.018": 0.0,
			"-0.017": 0.0,
			"-0.016": 0.0,
			"-0.015": 0.0774689872199,
			"-0.014": 0.868474049776,
			"-0.013": 2.02644641227,
			"-0.012": 1.2839513516,
			"-0.011": 2.27488571448,
			"-0.01": 1.89484496422,
			"-0.009": 3.26081501137,
			"-0.008": 6.07690725391,
			"-0.007": 12.6790014833,
			"-0.006": 18.270868074,
			"-0.005": 17.7118814146,
			"-0.004": 18.4869552836,
			"-0.003": 16.1244909943,
			"-0.002": 12.9781077622,
			"-0.001": 14.7267845059,
			"0.0": 21.0326176399,
			"0.001": 21.8824332417,
			"0.002": 16.700700084,
			"0.003": 11.8526592549,
			"0.004": 15.676376444,
			"0.005": 8.49092889873,
			"0.006": 4.77523501191,
			"0.007": 4.7603694177,
			"0.008": 3.59900814673,
			"0.009": 3.00641728726,
			"0.01": 4.19569624611,
			"0.011": 6.18176490529,
			"0.012": 4.09504341995,
			"0.013": 4.56186901517,
			"0.014": 5.38954663235,
			"0.015": 1.25927309051,
			"0.016": 0.0,
			"0.017": 0.0,
			"0.018": 0.0,
			"0.019": 0.0,
			"0.02": 0.0,
			"0.021": 0.0,
			"0.022": 0.0,
			"0.023": 0.0,
			"0.024": 0.0,
			"0.025": 0.0
		}
	}
}
