{
	 "smiles": "NS(=O)(=O)C1=C(C=C(F)C=C1)C(F)(F)F", 
	 "Tm": 440.15, 
	 "num_atms": 20, 
	 "gaussian": { 
		 "optdone": 1, 
		 "sigma_profile": "yes", 
		 "theory": "DFT", 
		 "functional": "B3LYP", 
		 "basiset": "6-31G**", 
		 "properties": { 
			 "R2extent": 4220.9507, 
			 "electric_dipole_moment_norm": 4.87363053585, 
			 "electric_quadrupole_moment_norm": 22.3739834748, 
			 "total_energy": -1272.42317749, 
			 "HOMO_LUMO_gap": 0.21778, 
			 "cosmo_polarized_energy": -16.01, 
			 "cosmo_cavitation_energy": 27.3, 
			 "cosmo_dispersion_energy": -20.16, 
			 "cosmo_repulsion_energy": 1.44, 
			 "cosmo_total_nonelectrostatic_energy": 8.59, 
			 "SMD_solvation_energy": 6.02 
		},
		"coords": [
			{
				"x": -0.0457001185,
				"y": 1.3605402457,
				"z": 4.14528777,
				"element": "N" 
			},
			{
				"x": -1.2050593168,
				"y": 1.2399139501,
				"z": 2.9151515835,
				"element": "S" 
			},
			{
				"x": -1.2367360307,
				"y": 2.5158298595,
				"z": 2.2011671733,
				"element": "O" 
			},
			{
				"x": -2.3954385597,
				"y": 0.6595500578,
				"z": 3.5378405154,
				"element": "O" 
			},
			{
				"x": -0.4639552714,
				"y": 0.0017592772,
				"z": 1.8167040215,
				"element": "C" 
			},
			{
				"x": -0.9063826072,
				"y": -0.1847313965,
				"z": 0.4893178702,
				"element": "C" 
			},
			{
				"x": -0.3255450007,
				"y": -1.1901329781,
				"z": -0.2841619161,
				"element": "C" 
			},
			{
				"x": 0.6668400752,
				"y": -1.9965462641,
				"z": 0.2598881255,
				"element": "C" 
			},
			{
				"x": 1.2093539584,
				"y": -2.9560426992,
				"z": -0.5061206703,
				"element": "F" 
			},
			{
				"x": 1.1060276573,
				"y": -1.8368074046,
				"z": 1.5650244383,
				"element": "C" 
			},
			{
				"x": 0.5285793325,
				"y": -0.8324268648,
				"z": 2.3389057835,
				"element": "C" 
			},
			{
				"x": -1.9638556938,
				"y": 0.6725582477,
				"z": -0.1895395078,
				"element": "C" 
			},
			{
				"x": -1.4654069146,
				"y": 1.8589247894,
				"z": -0.5746604031,
				"element": "F" 
			},
			{
				"x": -3.0233637648,
				"y": 0.8940606541,
				"z": 0.6068086563,
				"element": "F" 
			},
			{
				"x": -2.4292206833,
				"y": 0.0601649442,
				"z": -1.3038623043,
				"element": "F" 
			},
			{
				"x": -0.5170334954,
				"y": 1.2479517111,
				"z": 5.03905,
				"element": "H" 
			},
			{
				"x": 0.4220649275,
				"y": 2.260939284,
				"z": 4.080240287,
				"element": "H" 
			},
			{
				"x": -0.6463755731,
				"y": -1.3542566657,
				"z": -1.3044632339,
				"element": "H" 
			},
			{
				"x": 1.8804470394,
				"y": -2.4833182424,
				"z": 1.962068676,
				"element": "H" 
			},
			{
				"x": 0.8601600397,
				"y": -0.6760305053,
				"z": 3.357253135,
				"element": "H" 
			}
		],
		 "valence_orbital": [ 
			{
				"type": "occ",
				"energy": -0.33008,
				"method": "rhf"
			},
			{
				"type": "occ",
				"energy": -0.31541,
				"method": "rhf"
			},
			{
				"type": "occ",
				"energy": -0.30162,
				"method": "rhf"
			},
			{
				"type": "occ",
				"energy": -0.2954,
				"method": "rhf"
			},
			{
				"type": "occ",
				"energy": -0.27484,
				"method": "rhf"
			},
			{
				"type": "unocc",
				"energy": -0.05706,
				"method": "rhf"
			},
			{
				"type": "unocc",
				"energy": -0.04267,
				"method": "rhf"
			},
			{
				"type": "unocc",
				"energy": 0.03632,
				"method": "rhf"
			},
			{
				"type": "unocc",
				"energy": 0.06087,
				"method": "rhf"
			},
			{
				"type": "unocc",
				"energy": 0.08167,
				"method": "rhf"
			}
		],
		"cosmo_sigma_profile": { 
			"-0.025": 0.0,
			"-0.024": 0.0,
			"-0.023": 0.0,
			"-0.022": 0.0,
			"-0.021": 0.0,
			"-0.02": 0.0,
			"-0.019": 0.0,
			"-0.018": 0.0,
			"-0.017": 0.0,
			"-0.016": 0.0722573792641,
			"-0.015": 2.12164300126,
			"-0.014": 2.30087453311,
			"-0.013": 2.66628007151,
			"-0.012": 2.61656837998,
			"-0.011": 2.03549144103,
			"-0.01": 1.75025966298,
			"-0.009": 4.45976100424,
			"-0.008": 5.12258456073,
			"-0.007": 7.00604497385,
			"-0.006": 6.21765439755,
			"-0.005": 5.95222238941,
			"-0.004": 9.0455109189,
			"-0.003": 9.94976991695,
			"-0.002": 14.9679343651,
			"-0.001": 21.380931364,
			"0.0": 16.771783414,
			"0.001": 14.5779205416,
			"0.002": 24.4750155963,
			"0.003": 19.4287239191,
			"0.004": 6.95376623177,
			"0.005": 4.34241506478,
			"0.006": 3.65966258866,
			"0.007": 4.10572658371,
			"0.008": 5.14896051024,
			"0.009": 5.04918340228,
			"0.01": 10.8416707707,
			"0.011": 6.11838764792,
			"0.012": 0.183358938164,
			"0.013": 0.0,
			"0.014": 0.0,
			"0.015": 0.0,
			"0.016": 0.0,
			"0.017": 0.0,
			"0.018": 0.0,
			"0.019": 0.0,
			"0.02": 0.0,
			"0.021": 0.0,
			"0.022": 0.0,
			"0.023": 0.0,
			"0.024": 0.0,
			"0.025": 0.0
		}
	}
}
