{
	 "smiles": "CCC(=O)NC1=NC(C)=C(Cl)S1", 
	 "Tm": 432.15, 
	 "num_atms": 21, 
	 "gaussian": { 
		 "optdone": 1, 
		 "sigma_profile": "yes", 
		 "theory": "DFT", 
		 "functional": "B3LYP", 
		 "basiset": "6-31G**", 
		 "properties": { 
			 "R2extent": 4610.1175, 
			 "electric_dipole_moment_norm": 1.92738429225, 
			 "electric_quadrupole_moment_norm": 10.2865063578, 
			 "total_energy": -1315.28539134, 
			 "HOMO_LUMO_gap": 0.18555, 
			 "cosmo_polarized_energy": -9.16, 
			 "cosmo_cavitation_energy": 28.43, 
			 "cosmo_dispersion_energy": -20.97, 
			 "cosmo_repulsion_energy": 1.66, 
			 "cosmo_total_nonelectrostatic_energy": 9.12, 
			 "SMD_solvation_energy": 4.68 
		},
		"coords": [
			{
				"x": 1.7624127183,
				"y": -0.7119673403,
				"z": -1.5881900414,
				"element": "C" 
			},
			{
				"x": 0.4042700948,
				"y": -0.0982730389,
				"z": -1.9764006124,
				"element": "C" 
			},
			{
				"x": 0.5195954641,
				"y": 1.3880395609,
				"z": -2.2337401443,
				"element": "C" 
			},
			{
				"x": 0.7147959227,
				"y": 1.8631399325,
				"z": -3.339032972,
				"element": "O" 
			},
			{
				"x": 0.4278395652,
				"y": 2.2891553047,
				"z": -1.1551005707,
				"element": "N" 
			},
			{
				"x": 0.2037336981,
				"y": 2.0964705888,
				"z": 0.1948949311,
				"element": "C" 
			},
			{
				"x": 0.1599195309,
				"y": 0.957006414,
				"z": 0.8165425916,
				"element": "N" 
			},
			{
				"x": -0.089372561,
				"y": 1.1115048067,
				"z": 2.1710861503,
				"element": "C" 
			},
			{
				"x": -0.1711749908,
				"y": -0.1077194752,
				"z": 3.0358117225,
				"element": "C" 
			},
			{
				"x": -0.2276782865,
				"y": 2.4091281666,
				"z": 2.5707953139,
				"element": "C" 
			},
			{
				"x": -0.522476993,
				"y": 3.015024037,
				"z": 4.1644183349,
				"element": "Cl" 
			},
			{
				"x": -0.057528071,
				"y": 3.5175555951,
				"z": 1.218097882,
				"element": "S" 
			},
			{
				"x": 2.1026446083,
				"y": -0.3267018251,
				"z": -0.6238724112,
				"element": "H" 
			},
			{
				"x": 2.5198125532,
				"y": -0.4939778658,
				"z": -2.3469672584,
				"element": "H" 
			},
			{
				"x": 1.6682194345,
				"y": -1.7983641722,
				"z": -1.5026703124,
				"element": "H" 
			},
			{
				"x": 0.054249819,
				"y": -0.5289294354,
				"z": -2.9180366268,
				"element": "H" 
			},
			{
				"x": -0.324846233,
				"y": -0.2991132908,
				"z": -1.1892770809,
				"element": "H" 
			},
			{
				"x": 0.5253129266,
				"y": 3.245382195,
				"z": -1.4749654564,
				"element": "H" 
			},
			{
				"x": -0.9722865576,
				"y": -0.7677951938,
				"z": 2.6866467688,
				"element": "H" 
			},
			{
				"x": -0.3633001706,
				"y": 0.154648359,
				"z": 4.0771863375,
				"element": "H" 
			},
			{
				"x": 0.7644575278,
				"y": -0.6743133228,
				"z": 2.9828734543,
				"element": "H" 
			}
		],
		 "valence_orbital": [ 
			{
				"type": "occ",
				"energy": -0.30749,
				"method": "rhf"
			},
			{
				"type": "occ",
				"energy": -0.29197,
				"method": "rhf"
			},
			{
				"type": "occ",
				"energy": -0.29067,
				"method": "rhf"
			},
			{
				"type": "occ",
				"energy": -0.26698,
				"method": "rhf"
			},
			{
				"type": "occ",
				"energy": -0.22514,
				"method": "rhf"
			},
			{
				"type": "unocc",
				"energy": -0.03959,
				"method": "rhf"
			},
			{
				"type": "unocc",
				"energy": -0.01973,
				"method": "rhf"
			},
			{
				"type": "unocc",
				"energy": 0.01144,
				"method": "rhf"
			},
			{
				"type": "unocc",
				"energy": 0.01489,
				"method": "rhf"
			},
			{
				"type": "unocc",
				"energy": 0.04888,
				"method": "rhf"
			}
		],
		"cosmo_sigma_profile": { 
			"-0.025": 0.0,
			"-0.024": 0.0,
			"-0.023": 0.0,
			"-0.022": 0.0,
			"-0.021": 0.0,
			"-0.02": 0.0,
			"-0.019": 0.0,
			"-0.018": 0.0,
			"-0.017": 0.199358563187,
			"-0.016": 1.17328187579,
			"-0.015": 0.850090149333,
			"-0.014": 0.945546149183,
			"-0.013": 1.22031064389,
			"-0.012": 1.45584175159,
			"-0.011": 0.514123731359,
			"-0.01": 0.54657897448,
			"-0.009": 1.07538279506,
			"-0.008": 0.910708461487,
			"-0.007": 1.17751014185,
			"-0.006": 1.62313963555,
			"-0.005": 5.55576668298,
			"-0.004": 12.9604317321,
			"-0.003": 19.3451273301,
			"-0.002": 29.1958349219,
			"-0.001": 36.1318546743,
			"0.0": 28.5918315827,
			"0.001": 23.0078432673,
			"0.002": 17.2195660755,
			"0.003": 13.9814854315,
			"0.004": 7.89981920273,
			"0.005": 4.06026937752,
			"0.006": 2.51450080021,
			"0.007": 2.26033996788,
			"0.008": 1.81222014896,
			"0.009": 1.7678884898,
			"0.01": 1.72784057586,
			"0.011": 2.10305376966,
			"0.012": 5.33190606824,
			"0.013": 2.74134871526,
			"0.014": 0.390952257762,
			"0.015": 0.0,
			"0.016": 0.0,
			"0.017": 0.0,
			"0.018": 0.0,
			"0.019": 0.0,
			"0.02": 0.0,
			"0.021": 0.0,
			"0.022": 0.0,
			"0.023": 0.0,
			"0.024": 0.0,
			"0.025": 0.0
		}
	}
}
