{
	 "smiles": "ClC1=C(N=CC=C1)C1=CC=NC(Cl)=C1Cl", 
	 "Tm": 442.15, 
	 "num_atms": 20, 
	 "gaussian": { 
		 "optdone": 1, 
		 "sigma_profile": "yes", 
		 "theory": "DFT", 
		 "functional": "B3LYP", 
		 "basiset": "6-31G**", 
		 "properties": { 
			 "R2extent": 4378.3548, 
			 "electric_dipole_moment_norm": 5.21212347225, 
			 "electric_quadrupole_moment_norm": 7.35597663604, 
			 "total_energy": -1874.13919598, 
			 "HOMO_LUMO_gap": 0.20105, 
			 "cosmo_polarized_energy": -9.7, 
			 "cosmo_cavitation_energy": 30.32, 
			 "cosmo_dispersion_energy": -21.9, 
			 "cosmo_repulsion_energy": 1.72, 
			 "cosmo_total_nonelectrostatic_energy": 10.14, 
			 "SMD_solvation_energy": 1.71 
		},
		"coords": [
			{
				"x": 1.5037044813,
				"y": 0.4165080542,
				"z": 2.0728315788,
				"element": "Cl" 
			},
			{
				"x": -0.1116309956,
				"y": 0.903196334,
				"z": 1.6072735983,
				"element": "C" 
			},
			{
				"x": -0.6747938082,
				"y": 0.4926282719,
				"z": 0.3874168407,
				"element": "C" 
			},
			{
				"x": -1.8868561594,
				"y": 0.9149133784,
				"z": 0.0014606395,
				"element": "N" 
			},
			{
				"x": -2.5830888719,
				"y": 1.7147380636,
				"z": 0.8144968225,
				"element": "C" 
			},
			{
				"x": -2.1081437861,
				"y": 2.1461793014,
				"z": 2.0527322397,
				"element": "C" 
			},
			{
				"x": -0.8395875623,
				"y": 1.7369824288,
				"z": 2.4540647058,
				"element": "C" 
			},
			{
				"x": 0.0448698223,
				"y": -0.3843309729,
				"z": -0.5893211739,
				"element": "C" 
			},
			{
				"x": 0.5187120787,
				"y": 0.1711834145,
				"z": -1.7833631256,
				"element": "C" 
			},
			{
				"x": 1.1627188173,
				"y": -0.6474865768,
				"z": -2.7025319039,
				"element": "C" 
			},
			{
				"x": 1.349064584,
				"y": -1.9576549012,
				"z": -2.5040917312,
				"element": "N" 
			},
			{
				"x": 0.89171697,
				"y": -2.4942059018,
				"z": -1.3890459802,
				"element": "C" 
			},
			{
				"x": 1.1517032316,
				"y": -4.2162538711,
				"z": -1.1958981751,
				"element": "Cl" 
			},
			{
				"x": 0.2242567234,
				"y": -1.7598025976,
				"z": -0.3903049116,
				"element": "C" 
			},
			{
				"x": -0.3961017663,
				"y": -2.5332836011,
				"z": 1.0414213061,
				"element": "Cl" 
			},
			{
				"x": -3.5620289168,
				"y": 2.0245592718,
				"z": 0.4556565572,
				"element": "H" 
			},
			{
				"x": -2.7091067514,
				"y": 2.7936798931,
				"z": 2.6829255853,
				"element": "H" 
			},
			{
				"x": -0.412275144,
				"y": 2.0564738276,
				"z": 3.398304764,
				"element": "H" 
			},
			{
				"x": 0.3789348294,
				"y": 1.2282304421,
				"z": -1.9804502864,
				"element": "H" 
			},
			{
				"x": 1.546832224,
				"y": -0.2459542589,
				"z": -3.63687735,
				"element": "H" 
			}
		],
		 "valence_orbital": [ 
			{
				"type": "occ",
				"energy": -0.29298,
				"method": "rhf"
			},
			{
				"type": "occ",
				"energy": -0.28183,
				"method": "rhf"
			},
			{
				"type": "occ",
				"energy": -0.27731,
				"method": "rhf"
			},
			{
				"type": "occ",
				"energy": -0.26885,
				"method": "rhf"
			},
			{
				"type": "occ",
				"energy": -0.25912,
				"method": "rhf"
			},
			{
				"type": "unocc",
				"energy": -0.05807,
				"method": "rhf"
			},
			{
				"type": "unocc",
				"energy": -0.0474,
				"method": "rhf"
			},
			{
				"type": "unocc",
				"energy": -0.03253,
				"method": "rhf"
			},
			{
				"type": "unocc",
				"energy": -0.03066,
				"method": "rhf"
			},
			{
				"type": "unocc",
				"energy": 0.00558,
				"method": "rhf"
			}
		],
		"cosmo_sigma_profile": { 
			"-0.025": 0.0,
			"-0.024": 0.0,
			"-0.023": 0.0,
			"-0.022": 0.0,
			"-0.021": 0.0,
			"-0.02": 0.0,
			"-0.019": 0.0,
			"-0.018": 0.0,
			"-0.017": 0.0,
			"-0.016": 0.0,
			"-0.015": 0.0,
			"-0.014": 0.0,
			"-0.013": 0.0,
			"-0.012": 0.0,
			"-0.011": 0.0,
			"-0.01": 0.0,
			"-0.009": 1.83214022721,
			"-0.008": 9.0550911891,
			"-0.007": 12.71186932,
			"-0.006": 9.8930886398,
			"-0.005": 8.79928051419,
			"-0.004": 8.12377504599,
			"-0.003": 12.4464088366,
			"-0.002": 20.2583470668,
			"-0.001": 23.3705327713,
			"0.0": 28.1924581674,
			"0.001": 26.5392968875,
			"0.002": 22.9430493066,
			"0.003": 23.6446694082,
			"0.004": 19.47143025,
			"0.005": 6.94589533751,
			"0.006": 3.52128645024,
			"0.007": 2.37552552142,
			"0.008": 2.09735759992,
			"0.009": 2.0609988923,
			"0.01": 1.94714550113,
			"0.011": 1.68912511224,
			"0.012": 1.79808298803,
			"0.013": 1.28070710092,
			"0.014": 0.71983763325,
			"0.015": 0.0982990363869,
			"0.016": 0.0,
			"0.017": 0.0,
			"0.018": 0.0,
			"0.019": 0.0,
			"0.02": 0.0,
			"0.021": 0.0,
			"0.022": 0.0,
			"0.023": 0.0,
			"0.024": 0.0,
			"0.025": 0.0
		}
	}
}
