{
	 "smiles": "ClC(Cl)(Cl)C(C1=CC=C(Br)C=C1)C1=CC=C(Br)C=C1", 
	 "Tm": 418.15, 
	 "num_atms": 28, 
	 "gaussian": { 
		 "optdone": 1, 
		 "sigma_profile": "no", 
		 "theory": "DFT", 
		 "functional": "B3LYP", 
		 "basiset": "6-31G**", 
		 "properties": { 
			 "R2extent": 13460.9092, 
			 "electric_dipole_moment_norm": 1.0587904278, 
			 "electric_quadrupole_moment_norm": 16.0133091218, 
			 "total_energy": -7062.28259681, 
			 "HOMO_LUMO_gap": 0.18928, 
			 "cosmo_polarized_energy": -36.01, 
			 "cosmo_cavitation_energy": 41.16, 
			 "cosmo_dispersion_energy": -29.5, 
			 "cosmo_repulsion_energy": 2.3, 
			 "cosmo_total_nonelectrostatic_energy": 13.97, 
			 "SMD_solvation_energy": 3.57 
		},
		"coords": [
			{
				"x": 2.7688249149,
				"y": -0.8529192634,
				"z": 2.3064134812,
				"element": "Cl" 
			},
			{
				"x": 2.1467668071,
				"y": 0.0936561531,
				"z": 0.8937234029,
				"element": "C" 
			},
			{
				"x": 2.6549550833,
				"y": 1.8103822167,
				"z": 1.1179671736,
				"element": "Cl" 
			},
			{
				"x": 2.9482194773,
				"y": -0.5609482701,
				"z": -0.5853848212,
				"element": "Cl" 
			},
			{
				"x": 0.5842891517,
				"y": 0.0026446176,
				"z": 0.8620070693,
				"element": "C" 
			},
			{
				"x": -0.1225207779,
				"y": 1.02216288,
				"z": -0.0338436506,
				"element": "C" 
			},
			{
				"x": -1.2458130515,
				"y": 1.66857008,
				"z": 0.501502328,
				"element": "C" 
			},
			{
				"x": -1.9968541234,
				"y": 2.5715747281,
				"z": -0.2482781278,
				"element": "C" 
			},
			{
				"x": -1.6163075851,
				"y": 2.8415415229,
				"z": -1.5607145406,
				"element": "C" 
			},
			{
				"x": -2.629802721,
				"y": 4.0801173878,
				"z": -2.6021823898,
				"element": "Br" 
			},
			{
				"x": -0.5021680044,
				"y": 2.2206500691,
				"z": -2.1194055722,
				"element": "C" 
			},
			{
				"x": 0.2356991387,
				"y": 1.3140449427,
				"z": -1.3572503816,
				"element": "C" 
			},
			{
				"x": 0.0625007176,
				"y": -1.4215010404,
				"z": 0.6575003879,
				"element": "C" 
			},
			{
				"x": -0.1136593445,
				"y": -1.9779613252,
				"z": -0.6163492898,
				"element": "C" 
			},
			{
				"x": -0.6107774978,
				"y": -3.2703078658,
				"z": -0.7747326216,
				"element": "C" 
			},
			{
				"x": -0.9476895012,
				"y": -4.015273353,
				"z": 0.3541161512,
				"element": "C" 
			},
			{
				"x": -1.6375680655,
				"y": -5.7833348715,
				"z": 0.1439508184,
				"element": "Br" 
			},
			{
				"x": -0.7980639677,
				"y": -3.4832392037,
				"z": 1.6323360004,
				"element": "C" 
			},
			{
				"x": -0.2951319831,
				"y": -2.1902209958,
				"z": 1.7729368941,
				"element": "C" 
			},
			{
				"x": 0.3262533909,
				"y": 0.2838131531,
				"z": 1.8877628169,
				"element": "H" 
			},
			{
				"x": -1.5466110431,
				"y": 1.4627416907,
				"z": 1.5253829218,
				"element": "H" 
			},
			{
				"x": -2.8619403127,
				"y": 3.0612366515,
				"z": 0.1838625137,
				"element": "H" 
			},
			{
				"x": -0.2082239375,
				"y": 2.4418880701,
				"z": -3.1390710624,
				"element": "H" 
			},
			{
				"x": 1.1061094453,
				"y": 0.8532080608,
				"z": -1.8077331257,
				"element": "H" 
			},
			{
				"x": 0.1233562942,
				"y": -1.3990931625,
				"z": -1.5014497319,
				"element": "H" 
			},
			{
				"x": -0.7418834422,
				"y": -3.6905687493,
				"z": -1.765203611,
				"element": "H" 
			},
			{
				"x": -1.0717125987,
				"y": -4.0660610073,
				"z": 2.5042454659,
				"element": "H" 
			},
			{
				"x": -0.1785464635,
				"y": -1.7785031163,
				"z": 2.7709915009,
				"element": "H" 
			}
		],
		 "valence_orbital": [ 
			{
				"type": "occ",
				"energy": -0.29292,
				"method": "rhf"
			},
			{
				"type": "occ",
				"energy": -0.27389,
				"method": "rhf"
			},
			{
				"type": "occ",
				"energy": -0.27156,
				"method": "rhf"
			},
			{
				"type": "occ",
				"energy": -0.25609,
				"method": "rhf"
			},
			{
				"type": "occ",
				"energy": -0.24337,
				"method": "rhf"
			},
			{
				"type": "unocc",
				"energy": -0.05409,
				"method": "rhf"
			},
			{
				"type": "unocc",
				"energy": -0.03344,
				"method": "rhf"
			},
			{
				"type": "unocc",
				"energy": -0.02859,
				"method": "rhf"
			},
			{
				"type": "unocc",
				"energy": -0.0213,
				"method": "rhf"
			},
			{
				"type": "unocc",
				"energy": -0.01947,
				"method": "rhf"
			}
		],
		"cosmo_sigma_profile": { 
			"0.0": 0.0,
			"0.0": 0.0,
			"0.0": 0.0,
			"0.0": 0.0,
			"0.0": 0.0,
			"0.0": 0.0,
			"0.0": 0.0,
			"0.0": 0.0,
			"0.0": 0.0,
			"0.0": 0.0,
			"0.0": 0.0,
			"0.0": 0.0,
			"0.0": 0.0,
			"0.0": 0.0,
			"0.0": 0.0,
			"0.0": 0.0,
			"0.0": 0.0,
			"0.0": 0.0,
			"0.0": 0.0,
			"0.0": 0.0,
			"0.0": 0.0,
			"0.0": 0.0,
			"0.0": 0.0,
			"0.0": 0.0,
			"0.0": 0.0,
			"0.0": 0.0,
			"0.0": 0.0,
			"0.0": 0.0,
			"0.0": 0.0,
			"0.0": 0.0,
			"0.0": 0.0,
			"0.0": 0.0,
			"0.0": 0.0,
			"0.0": 0.0,
			"0.0": 0.0,
			"0.0": 0.0,
			"0.0": 0.0,
			"0.0": 0.0,
			"0.0": 0.0,
			"0.0": 0.0,
			"0.0": 0.0,
			"0.0": 0.0,
			"0.0": 0.0,
			"0.0": 0.0,
			"0.0": 0.0,
			"0.0": 0.0,
			"0.0": 0.0,
			"0.0": 0.0,
			"0.0": 0.0,
			"0.0": 0.0,
			"0.0": 0.0
		}
	}
}
