{
	 "smiles": "CCCCCC(=O)OCC", 
	 "Tm": 206.15, 
	 "num_atms": 26, 
	 "gaussian": { 
		 "optdone": 1, 
		 "sigma_profile": "yes", 
		 "theory": "DFT", 
		 "functional": "B3LYP", 
		 "basiset": "6-31G**", 
		 "properties": { 
			 "R2extent": 2956.0108, 
			 "electric_dipole_moment_norm": 1.73295116204, 
			 "electric_quadrupole_moment_norm": 6.66138400484, 
			 "total_energy": -464.97716924, 
			 "HOMO_LUMO_gap": 0.28295, 
			 "cosmo_polarized_energy": -6.18, 
			 "cosmo_cavitation_energy": 28.51, 
			 "cosmo_dispersion_energy": -20.47, 
			 "cosmo_repulsion_energy": 1.75, 
			 "cosmo_total_nonelectrostatic_energy": 9.79, 
			 "SMD_solvation_energy": 5.64 
		},
		"coords": [
			{
				"x": -1.3410177998,
				"y": -3.2167351155,
				"z": -3.8455064423,
				"element": "C" 
			},
			{
				"x": -0.2950986546,
				"y": -3.0663278796,
				"z": -2.7363407755,
				"element": "C" 
			},
			{
				"x": -0.7173627055,
				"y": -2.0825487737,
				"z": -1.6381425363,
				"element": "C" 
			},
			{
				"x": 0.3288516937,
				"y": -1.9346786393,
				"z": -0.5258382521,
				"element": "C" 
			},
			{
				"x": -0.0836969412,
				"y": -0.9635140829,
				"z": 0.5848328476,
				"element": "C" 
			},
			{
				"x": -0.0896832079,
				"y": 0.4894212115,
				"z": 0.144493888,
				"element": "C" 
			},
			{
				"x": 0.4334106479,
				"y": 0.9263660162,
				"z": -0.85937725,
				"element": "O" 
			},
			{
				"x": -0.7398356577,
				"y": 1.2638223502,
				"z": 1.0420318503,
				"element": "O" 
			},
			{
				"x": -0.7704105572,
				"y": 2.6794337469,
				"z": 0.7501905368,
				"element": "C" 
			},
			{
				"x": -1.5442793452,
				"y": 3.358761077,
				"z": 1.864226375,
				"element": "C" 
			},
			{
				"x": -2.2935461711,
				"y": -3.5834455833,
				"z": -3.4456407356,
				"element": "H" 
			},
			{
				"x": -1.5374985654,
				"y": -2.2566143765,
				"z": -4.3360129821,
				"element": "H" 
			},
			{
				"x": -1.0106900255,
				"y": -3.9219576611,
				"z": -4.615289308,
				"element": "H" 
			},
			{
				"x": 0.6554336231,
				"y": -2.7311863287,
				"z": -3.1726505602,
				"element": "H" 
			},
			{
				"x": -0.0935801587,
				"y": -4.0487623247,
				"z": -2.2870702403,
				"element": "H" 
			},
			{
				"x": -1.6700990512,
				"y": -2.415464705,
				"z": -1.2002735277,
				"element": "H" 
			},
			{
				"x": -0.9055517151,
				"y": -1.0992535123,
				"z": -2.0865164738,
				"element": "H" 
			},
			{
				"x": 1.2746906868,
				"y": -1.5905136564,
				"z": -0.9594107751,
				"element": "H" 
			},
			{
				"x": 0.5232814438,
				"y": -2.9160062653,
				"z": -0.0746889167,
				"element": "H" 
			},
			{
				"x": 0.6098420158,
				"y": -1.030128596,
				"z": 1.4338945715,
				"element": "H" 
			},
			{
				"x": -1.0723750799,
				"y": -1.2065761194,
				"z": 0.9909144542,
				"element": "H" 
			},
			{
				"x": -1.2394510215,
				"y": 2.8293052459,
				"z": -0.2275394332,
				"element": "H" 
			},
			{
				"x": 0.2576181011,
				"y": 3.049382681,
				"z": 0.6786842295,
				"element": "H" 
			},
			{
				"x": -1.0616603835,
				"y": 3.1951669833,
				"z": 2.8320884172,
				"element": "H" 
			},
			{
				"x": -2.5668792568,
				"y": 2.9746526228,
				"z": 1.9205548835,
				"element": "H" 
			},
			{
				"x": -1.5911119144,
				"y": 4.4368016849,
				"z": 1.6807861551,
				"element": "H" 
			}
		],
		 "valence_orbital": [ 
			{
				"type": "occ",
				"energy": -0.32238,
				"method": "rhf"
			},
			{
				"type": "occ",
				"energy": -0.31824,
				"method": "rhf"
			},
			{
				"type": "occ",
				"energy": -0.31439,
				"method": "rhf"
			},
			{
				"type": "occ",
				"energy": -0.29516,
				"method": "rhf"
			},
			{
				"type": "occ",
				"energy": -0.26583,
				"method": "rhf"
			},
			{
				"type": "unocc",
				"energy": 0.01712,
				"method": "rhf"
			},
			{
				"type": "unocc",
				"energy": 0.09483,
				"method": "rhf"
			},
			{
				"type": "unocc",
				"energy": 0.10278,
				"method": "rhf"
			},
			{
				"type": "unocc",
				"energy": 0.11063,
				"method": "rhf"
			},
			{
				"type": "unocc",
				"energy": 0.12605,
				"method": "rhf"
			}
		],
		"cosmo_sigma_profile": { 
			"-0.025": 0.0,
			"-0.024": 0.0,
			"-0.023": 0.0,
			"-0.022": 0.0,
			"-0.021": 0.0,
			"-0.02": 0.0,
			"-0.019": 0.0,
			"-0.018": 0.0,
			"-0.017": 0.0,
			"-0.016": 0.0,
			"-0.015": 0.0,
			"-0.014": 0.0,
			"-0.013": 0.0,
			"-0.012": 0.0,
			"-0.011": 0.0,
			"-0.01": 0.0,
			"-0.009": 0.0,
			"-0.008": 0.0,
			"-0.007": 0.00812183972493,
			"-0.006": 1.81414301969,
			"-0.005": 8.11804024247,
			"-0.004": 14.9785730136,
			"-0.003": 22.4923737309,
			"-0.002": 36.2454443633,
			"-0.001": 35.0908893807,
			"0.0": 33.219160158,
			"0.001": 24.8520351472,
			"0.002": 12.1094644285,
			"0.003": 4.21111561063,
			"0.004": 3.23403752769,
			"0.005": 3.07365581525,
			"0.006": 2.81405424849,
			"0.007": 2.79379126122,
			"0.008": 3.04277165783,
			"0.009": 2.47408394719,
			"0.01": 1.99524187833,
			"0.011": 1.81693543095,
			"0.012": 4.47124611409,
			"0.013": 1.67012229728,
			"0.014": 0.0,
			"0.015": 0.0,
			"0.016": 0.0,
			"0.017": 0.0,
			"0.018": 0.0,
			"0.019": 0.0,
			"0.02": 0.0,
			"0.021": 0.0,
			"0.022": 0.0,
			"0.023": 0.0,
			"0.024": 0.0,
			"0.025": 0.0
		}
	}
}
