{
	 "smiles": "COC1=CC=C2NC(S)=NC2=C1", 
	 "Tm": 530.15, 
	 "num_atms": 20, 
	 "gaussian": { 
		 "optdone": 1, 
		 "sigma_profile": "yes", 
		 "theory": "DFT", 
		 "functional": "B3LYP", 
		 "basiset": "6-31G**", 
		 "properties": { 
			 "R2extent": 3698.8822, 
			 "electric_dipole_moment_norm": 3.16629796924, 
			 "electric_quadrupole_moment_norm": 10.1697742168, 
			 "total_energy": -892.576178037, 
			 "HOMO_LUMO_gap": 0.18779, 
			 "cosmo_polarized_energy": -14.49, 
			 "cosmo_cavitation_energy": 25.92, 
			 "cosmo_dispersion_energy": -20.18, 
			 "cosmo_repulsion_energy": 1.55, 
			 "cosmo_total_nonelectrostatic_energy": 7.29, 
			 "SMD_solvation_energy": 2.49 
		},
		"coords": [
			{
				"x": -2.7861581745,
				"y": -0.6048666946,
				"z": 1.7470331804,
				"element": "C" 
			},
			{
				"x": -2.4392662979,
				"y": 0.1693878043,
				"z": 0.6139284957,
				"element": "O" 
			},
			{
				"x": -1.1768841066,
				"y": 0.0413127764,
				"z": 0.0941324287,
				"element": "C" 
			},
			{
				"x": -0.1971238057,
				"y": -0.8233347297,
				"z": 0.6267827568,
				"element": "C" 
			},
			{
				"x": 1.0742478668,
				"y": -0.9109642317,
				"z": 0.0527340425,
				"element": "C" 
			},
			{
				"x": 1.3326182001,
				"y": -0.1167949973,
				"z": -1.0571082801,
				"element": "C" 
			},
			{
				"x": 2.4500383387,
				"y": 0.0577749195,
				"z": -1.8692424699,
				"element": "N" 
			},
			{
				"x": 2.0972992485,
				"y": 0.9889868661,
				"z": -2.8191320413,
				"element": "C" 
			},
			{
				"x": 3.263034069,
				"y": 1.4874120714,
				"z": -4.053029775,
				"element": "S" 
			},
			{
				"x": 0.8716154452,
				"y": 1.4317981974,
				"z": -2.7041513763,
				"element": "N" 
			},
			{
				"x": 0.3575829968,
				"y": 0.7552002283,
				"z": -1.6012725503,
				"element": "C" 
			},
			{
				"x": -0.9090331131,
				"y": 0.837717749,
				"z": -1.0235625352,
				"element": "C" 
			},
			{
				"x": -3.8196080052,
				"y": -0.3461114074,
				"z": 1.9840939202,
				"element": "H" 
			},
			{
				"x": -2.7251926147,
				"y": -1.6822133034,
				"z": 1.5415813187,
				"element": "H" 
			},
			{
				"x": -2.1513787444,
				"y": -0.3717531571,
				"z": 2.6126647888,
				"element": "H" 
			},
			{
				"x": -0.4195743634,
				"y": -1.4339420168,
				"z": 1.4928420298,
				"element": "H" 
			},
			{
				"x": 1.8206034968,
				"y": -1.5796451989,
				"z": 0.4707528279,
				"element": "H" 
			},
			{
				"x": 3.341755786,
				"y": -0.403503271,
				"z": -1.7826130108,
				"element": "H" 
			},
			{
				"x": 2.3994549262,
				"y": 2.3405724347,
				"z": -4.6331212155,
				"element": "H" 
			},
			{
				"x": -1.6738311483,
				"y": 1.4959659608,
				"z": -1.418912535,
				"element": "H" 
			}
		],
		 "valence_orbital": [ 
			{
				"type": "occ",
				"energy": -0.29976,
				"method": "rhf"
			},
			{
				"type": "occ",
				"energy": -0.27564,
				"method": "rhf"
			},
			{
				"type": "occ",
				"energy": -0.27511,
				"method": "rhf"
			},
			{
				"type": "occ",
				"energy": -0.21651,
				"method": "rhf"
			},
			{
				"type": "occ",
				"energy": -0.20138,
				"method": "rhf"
			},
			{
				"type": "unocc",
				"energy": -0.01359,
				"method": "rhf"
			},
			{
				"type": "unocc",
				"energy": 0.00281,
				"method": "rhf"
			},
			{
				"type": "unocc",
				"energy": 0.03301,
				"method": "rhf"
			},
			{
				"type": "unocc",
				"energy": 0.05528,
				"method": "rhf"
			},
			{
				"type": "unocc",
				"energy": 0.06744,
				"method": "rhf"
			}
		],
		"cosmo_sigma_profile": { 
			"-0.025": 0.0,
			"-0.024": 0.0,
			"-0.023": 0.0,
			"-0.022": 0.0,
			"-0.021": 0.0,
			"-0.02": 0.0,
			"-0.019": 0.0,
			"-0.018": 0.000770255960286,
			"-0.017": 0.922366436314,
			"-0.016": 1.77800583144,
			"-0.015": 1.46203999042,
			"-0.014": 0.936566488919,
			"-0.013": 1.0170308029,
			"-0.012": 2.46108330284,
			"-0.011": 3.33679101928,
			"-0.01": 2.08521030022,
			"-0.009": 1.64292911641,
			"-0.008": 2.39184563978,
			"-0.007": 4.05282734496,
			"-0.006": 8.6395519524,
			"-0.005": 14.6532383215,
			"-0.004": 14.349812891,
			"-0.003": 16.175640752,
			"-0.002": 10.8171023884,
			"-0.001": 7.97284453637,
			"0.0": 10.438023374,
			"0.001": 12.2158007547,
			"0.002": 15.1385359932,
			"0.003": 14.0751210488,
			"0.004": 14.799082244,
			"0.005": 18.9876818417,
			"0.006": 8.63054142452,
			"0.007": 5.37118647307,
			"0.008": 2.48307763152,
			"0.009": 3.30749212393,
			"0.01": 2.60644659953,
			"0.011": 2.1046934421,
			"0.012": 0.833224419911,
			"0.013": 1.41197085001,
			"0.014": 0.70610551815,
			"0.015": 1.04821222303,
			"0.016": 0.678774610906,
			"0.017": 0.337943794799,
			"0.018": 0.0,
			"0.019": 0.0,
			"0.02": 0.0,
			"0.021": 0.0,
			"0.022": 0.0,
			"0.023": 0.0,
			"0.024": 0.0,
			"0.025": 0.0
		}
	}
}
