{
	 "smiles": "ClC1=NC2=C(N=CN2)C(Cl)=N1", 
	 "Tm": 458.15, 
	 "num_atms": 13, 
	 "gaussian": { 
		 "optdone": 1, 
		 "sigma_profile": "yes", 
		 "theory": "DFT", 
		 "functional": "B3LYP", 
		 "basiset": "6-31G**", 
		 "properties": { 
			 "R2extent": 2460.9492, 
			 "electric_dipole_moment_norm": 5.31036608248, 
			 "electric_quadrupole_moment_norm": 13.4234362691, 
			 "total_energy": -1331.12665983, 
			 "HOMO_LUMO_gap": 0.19343, 
			 "cosmo_polarized_energy": -15.41, 
			 "cosmo_cavitation_energy": 22.07, 
			 "cosmo_dispersion_energy": -17.24, 
			 "cosmo_repulsion_energy": 1.4, 
			 "cosmo_total_nonelectrostatic_energy": 6.22, 
			 "SMD_solvation_energy": -1.45 
		},
		"coords": [
			{
				"x": 2.4672405345,
				"y": 0.9211147518,
				"z": -1.7277371467,
				"element": "Cl" 
			},
			{
				"x": 0.860603876,
				"y": 0.6314181177,
				"z": -1.1023749007,
				"element": "C" 
			},
			{
				"x": 0.3235052797,
				"y": 1.6226789556,
				"z": -0.4007456721,
				"element": "N" 
			},
			{
				"x": -0.8959530955,
				"y": 1.3114873436,
				"z": 0.0331488029,
				"element": "C" 
			},
			{
				"x": -1.5891622989,
				"y": 0.0995501383,
				"z": -0.1884101143,
				"element": "C" 
			},
			{
				"x": -2.8330621068,
				"y": 0.1252041273,
				"z": 0.4094078994,
				"element": "N" 
			},
			{
				"x": -2.8920142833,
				"y": 1.3056802977,
				"z": 0.9712403372,
				"element": "C" 
			},
			{
				"x": -1.7567871461,
				"y": 2.0726574424,
				"z": 0.7831860292,
				"element": "N" 
			},
			{
				"x": -0.8788988336,
				"y": -0.8356971074,
				"z": -0.9461993702,
				"element": "C" 
			},
			{
				"x": -1.5638139591,
				"y": -2.3873472667,
				"z": -1.3254196117,
				"element": "Cl" 
			},
			{
				"x": 0.3364487212,
				"y": -0.5632408078,
				"z": -1.3956842862,
				"element": "N" 
			},
			{
				"x": -3.7341326609,
				"y": 1.6808424943,
				"z": 1.5378478338,
				"element": "H" 
			},
			{
				"x": -1.5797740272,
				"y": 3.0070515132,
				"z": 1.1224401994,
				"element": "H" 
			}
		],
		 "valence_orbital": [ 
			{
				"type": "occ",
				"energy": -0.32412,
				"method": "rhf"
			},
			{
				"type": "occ",
				"energy": -0.31262,
				"method": "rhf"
			},
			{
				"type": "occ",
				"energy": -0.30139,
				"method": "rhf"
			},
			{
				"type": "occ",
				"energy": -0.28035,
				"method": "rhf"
			},
			{
				"type": "occ",
				"energy": -0.26212,
				"method": "rhf"
			},
			{
				"type": "unocc",
				"energy": -0.06869,
				"method": "rhf"
			},
			{
				"type": "unocc",
				"energy": -0.03115,
				"method": "rhf"
			},
			{
				"type": "unocc",
				"energy": 0.01147,
				"method": "rhf"
			},
			{
				"type": "unocc",
				"energy": 0.01718,
				"method": "rhf"
			},
			{
				"type": "unocc",
				"energy": 0.04261,
				"method": "rhf"
			}
		],
		"cosmo_sigma_profile": { 
			"-0.025": 0.0,
			"-0.024": 0.0,
			"-0.023": 0.0,
			"-0.022": 0.0,
			"-0.021": 0.0,
			"-0.02": 0.0,
			"-0.019": 0.297882067232,
			"-0.018": 2.10278279822,
			"-0.017": 1.64301451928,
			"-0.016": 1.0674742466,
			"-0.015": 1.04949910363,
			"-0.014": 1.46004395218,
			"-0.013": 1.3199223774,
			"-0.012": 1.66353216622,
			"-0.011": 3.66453579492,
			"-0.01": 2.29943532494,
			"-0.009": 2.91407790654,
			"-0.008": 1.99843789869,
			"-0.007": 1.1576006592,
			"-0.006": 4.49055656191,
			"-0.005": 4.44833095233,
			"-0.004": 9.26829399438,
			"-0.003": 15.0184382372,
			"-0.002": 12.9540461602,
			"-0.001": 9.88217422935,
			"0.0": 11.3591874738,
			"0.001": 11.19097362,
			"0.002": 14.5925304101,
			"0.003": 19.6317897838,
			"0.004": 12.1151004986,
			"0.005": 8.62951682026,
			"0.006": 5.58965314194,
			"0.007": 4.37553597775,
			"0.008": 4.16768648303,
			"0.009": 2.79240659551,
			"0.01": 3.20432334558,
			"0.011": 2.76909144902,
			"0.012": 2.4531585712,
			"0.013": 1.05050129949,
			"0.014": 0.867853692171,
			"0.015": 0.588754781772,
			"0.016": 0.0225156536333,
			"0.017": 0.0,
			"0.018": 0.0,
			"0.019": 0.0,
			"0.02": 0.0,
			"0.021": 0.0,
			"0.022": 0.0,
			"0.023": 0.0,
			"0.024": 0.0,
			"0.025": 0.0
		}
	}
}
