{
	 "smiles": "CC1=C(SC=N1)C(=O)NN", 
	 "Tm": 442.15, 
	 "num_atms": 17, 
	 "gaussian": { 
		 "optdone": 1, 
		 "sigma_profile": "yes", 
		 "theory": "DFT", 
		 "functional": "B3LYP", 
		 "basiset": "6-31G**", 
		 "properties": { 
			 "R2extent": 1907.1557, 
			 "electric_dipole_moment_norm": 2.66276578392, 
			 "electric_quadrupole_moment_norm": 10.1129503687, 
			 "total_energy": -832.38036496, 
			 "HOMO_LUMO_gap": 0.19592, 
			 "cosmo_polarized_energy": -14.6, 
			 "cosmo_cavitation_energy": 22.55, 
			 "cosmo_dispersion_energy": -17.09, 
			 "cosmo_repulsion_energy": 1.35, 
			 "cosmo_total_nonelectrostatic_energy": 6.81, 
			 "SMD_solvation_energy": 3.54 
		},
		"coords": [
			{
				"x": -1.2251085855,
				"y": -2.2053345383,
				"z": 0.0580318387,
				"element": "C" 
			},
			{
				"x": -0.4475314163,
				"y": -0.9210462617,
				"z": 0.020150014,
				"element": "C" 
			},
			{
				"x": -0.9516932024,
				"y": 0.3544561257,
				"z": -0.1386927269,
				"element": "C" 
			},
			{
				"x": 0.3625316043,
				"y": 1.4962058353,
				"z": -0.2605883843,
				"element": "S" 
			},
			{
				"x": 1.4687028921,
				"y": 0.1798898717,
				"z": -0.0271050828,
				"element": "C" 
			},
			{
				"x": 0.9278397122,
				"y": -0.9991772234,
				"z": 0.0912696235,
				"element": "N" 
			},
			{
				"x": -2.3352107611,
				"y": 0.8550620184,
				"z": -0.3761752507,
				"element": "C" 
			},
			{
				"x": -2.5738700358,
				"y": 1.7114061988,
				"z": -1.219017856,
				"element": "O" 
			},
			{
				"x": -3.3503652494,
				"y": 0.3101974137,
				"z": 0.3884973241,
				"element": "N" 
			},
			{
				"x": -3.2112683831,
				"y": -0.1948369292,
				"z": 1.6994468439,
				"element": "N" 
			},
			{
				"x": -1.218418328,
				"y": -2.6422322347,
				"z": 1.064424528,
				"element": "H" 
			},
			{
				"x": -2.2579155534,
				"y": -2.0644426107,
				"z": -0.2672243116,
				"element": "H" 
			},
			{
				"x": -0.749260245,
				"y": -2.9355836759,
				"z": -0.6025241345,
				"element": "H" 
			},
			{
				"x": 2.537704843,
				"y": 0.3566698385,
				"z": 0.0110288476,
				"element": "H" 
			},
			{
				"x": -4.2389552045,
				"y": 0.7711733891,
				"z": 0.2277629602,
				"element": "H" 
			},
			{
				"x": -2.4704200413,
				"y": 0.2998772722,
				"z": 2.1906065657,
				"element": "H" 
			},
			{
				"x": -2.964162046,
				"y": -1.1788844895,
				"z": 1.6615092011,
				"element": "H" 
			}
		],
		 "valence_orbital": [ 
			{
				"type": "occ",
				"energy": -0.29509,
				"method": "rhf"
			},
			{
				"type": "occ",
				"energy": -0.28687,
				"method": "rhf"
			},
			{
				"type": "occ",
				"energy": -0.26345,
				"method": "rhf"
			},
			{
				"type": "occ",
				"energy": -0.26128,
				"method": "rhf"
			},
			{
				"type": "occ",
				"energy": -0.24929,
				"method": "rhf"
			},
			{
				"type": "unocc",
				"energy": -0.05337,
				"method": "rhf"
			},
			{
				"type": "unocc",
				"energy": -0.00135,
				"method": "rhf"
			},
			{
				"type": "unocc",
				"energy": 0.0167,
				"method": "rhf"
			},
			{
				"type": "unocc",
				"energy": 0.05448,
				"method": "rhf"
			},
			{
				"type": "unocc",
				"energy": 0.06446,
				"method": "rhf"
			}
		],
		"cosmo_sigma_profile": { 
			"-0.025": 0.0,
			"-0.024": 0.0,
			"-0.023": 0.0,
			"-0.022": 0.0,
			"-0.021": 0.0,
			"-0.02": 0.0,
			"-0.019": 0.0,
			"-0.018": 0.0,
			"-0.017": 0.0,
			"-0.016": 0.0,
			"-0.015": 0.0,
			"-0.014": 0.369214517464,
			"-0.013": 0.737361159311,
			"-0.012": 1.58540867291,
			"-0.011": 3.14118914823,
			"-0.01": 7.12171455969,
			"-0.009": 6.46710136178,
			"-0.008": 4.56794729702,
			"-0.007": 6.15576899046,
			"-0.006": 6.83430477049,
			"-0.005": 9.14697659975,
			"-0.004": 8.36140669764,
			"-0.003": 11.8665050566,
			"-0.002": 12.1942901385,
			"-0.001": 13.073060237,
			"0.0": 14.8259303531,
			"0.001": 12.6268319135,
			"0.002": 10.4187519585,
			"0.003": 6.50761490705,
			"0.004": 6.2971286066,
			"0.005": 3.73398096883,
			"0.006": 3.23676596856,
			"0.007": 3.65947756671,
			"0.008": 3.17648062645,
			"0.009": 2.77998260908,
			"0.01": 2.94863168234,
			"0.011": 4.52551911205,
			"0.012": 4.8467885493,
			"0.013": 6.61542120922,
			"0.014": 1.98170129017,
			"0.015": 1.29686690746,
			"0.016": 0.290240818215,
			"0.017": 0.0,
			"0.018": 0.0,
			"0.019": 0.0,
			"0.02": 0.0,
			"0.021": 0.0,
			"0.022": 0.0,
			"0.023": 0.0,
			"0.024": 0.0,
			"0.025": 0.0
		}
	}
}
