{
	 "smiles": "CC1=C(C(N)=O)C(=NO1)C1=C(F)C=CC=C1Cl", 
	 "Tm": 401.15, 
	 "num_atms": 25, 
	 "gaussian": { 
		 "optdone": 1, 
		 "sigma_profile": "yes", 
		 "theory": "DFT", 
		 "functional": "B3LYP", 
		 "basiset": "6-31G**", 
		 "properties": { 
			 "R2extent": 4428.2624, 
			 "electric_dipole_moment_norm": 4.20163264577, 
			 "electric_quadrupole_moment_norm": 15.7568358864, 
			 "total_energy": -1243.94065392, 
			 "HOMO_LUMO_gap": 0.21266, 
			 "cosmo_polarized_energy": -15.26, 
			 "cosmo_cavitation_energy": 32.44, 
			 "cosmo_dispersion_energy": -22.43, 
			 "cosmo_repulsion_energy": 1.74, 
			 "cosmo_total_nonelectrostatic_energy": 11.75, 
			 "SMD_solvation_energy": 6.32 
		},
		"coords": [
			{
				"x": 0.7040521666,
				"y": 4.5485813576,
				"z": 1.6233678262,
				"element": "C" 
			},
			{
				"x": 0.1560298909,
				"y": 3.2082370533,
				"z": 1.2854212414,
				"element": "C" 
			},
			{
				"x": 0.7292216191,
				"y": 2.0032582998,
				"z": 0.9501227109,
				"element": "C" 
			},
			{
				"x": 2.1918238393,
				"y": 1.7593897072,
				"z": 0.8378685456,
				"element": "C" 
			},
			{
				"x": 2.5764250283,
				"y": 0.4900362609,
				"z": 0.5119202658,
				"element": "N" 
			},
			{
				"x": 3.0168824862,
				"y": 2.6539656886,
				"z": 1.0101762471,
				"element": "O" 
			},
			{
				"x": -0.4060725529,
				"y": 1.1427512211,
				"z": 0.7561975418,
				"element": "C" 
			},
			{
				"x": -1.5405891363,
				"y": 1.7727663348,
				"z": 0.9531830443,
				"element": "N" 
			},
			{
				"x": -1.1815365008,
				"y": 3.0810014466,
				"z": 1.2909696026,
				"element": "O" 
			},
			{
				"x": -0.4621109698,
				"y": -0.2888094262,
				"z": 0.3623340186,
				"element": "C" 
			},
			{
				"x": -0.585901487,
				"y": -0.6342353725,
				"z": -0.9898424841,
				"element": "C" 
			},
			{
				"x": -0.6133398436,
				"y": 0.3559567007,
				"z": -1.8963399024,
				"element": "F" 
			},
			{
				"x": -0.6731281891,
				"y": -1.9480569757,
				"z": -1.4312924862,
				"element": "C" 
			},
			{
				"x": -0.6378908232,
				"y": -2.9709087644,
				"z": -0.4846603051,
				"element": "C" 
			},
			{
				"x": -0.5149792014,
				"y": -2.6808478922,
				"z": 0.8741082896,
				"element": "C" 
			},
			{
				"x": -0.4311392693,
				"y": -1.3493801252,
				"z": 1.2845467218,
				"element": "C" 
			},
			{
				"x": -0.2775745687,
				"y": -1.0061999741,
				"z": 2.9952796185,
				"element": "Cl" 
			},
			{
				"x": 0.3893208242,
				"y": 4.8444955,
				"z": 2.6298141739,
				"element": "H" 
			},
			{
				"x": 1.7909040967,
				"y": 4.5085011507,
				"z": 1.5702323383,
				"element": "H" 
			},
			{
				"x": 0.3243809817,
				"y": 5.300447181,
				"z": 0.9234202479,
				"element": "H" 
			},
			{
				"x": 1.9365076063,
				"y": -0.2873389858,
				"z": 0.4892594817,
				"element": "H" 
			},
			{
				"x": 3.5684574776,
				"y": 0.3080511747,
				"z": 0.5082086837,
				"element": "H" 
			},
			{
				"x": -0.7691778353,
				"y": -2.1464424167,
				"z": -2.4925661845,
				"element": "H" 
			},
			{
				"x": -0.7067423634,
				"y": -4.0050577752,
				"z": -0.8068808502,
				"element": "H" 
			},
			{
				"x": -0.4907232764,
				"y": -3.4719613689,
				"z": 1.6141516125,
				"element": "H" 
			}
		],
		 "valence_orbital": [ 
			{
				"type": "occ",
				"energy": -0.27965,
				"method": "rhf"
			},
			{
				"type": "occ",
				"energy": -0.27195,
				"method": "rhf"
			},
			{
				"type": "occ",
				"energy": -0.26597,
				"method": "rhf"
			},
			{
				"type": "occ",
				"energy": -0.26084,
				"method": "rhf"
			},
			{
				"type": "occ",
				"energy": -0.25731,
				"method": "rhf"
			},
			{
				"type": "unocc",
				"energy": -0.04465,
				"method": "rhf"
			},
			{
				"type": "unocc",
				"energy": -0.03041,
				"method": "rhf"
			},
			{
				"type": "unocc",
				"energy": -0.02628,
				"method": "rhf"
			},
			{
				"type": "unocc",
				"energy": -0.0074,
				"method": "rhf"
			},
			{
				"type": "unocc",
				"energy": 0.01209,
				"method": "rhf"
			}
		],
		"cosmo_sigma_profile": { 
			"-0.025": 0.0,
			"-0.024": 0.0,
			"-0.023": 0.0,
			"-0.022": 0.0,
			"-0.021": 0.0,
			"-0.02": 0.0,
			"-0.019": 0.0,
			"-0.018": 0.0,
			"-0.017": 0.0,
			"-0.016": 0.0,
			"-0.015": 0.16902553288,
			"-0.014": 0.860209980872,
			"-0.013": 1.16918619323,
			"-0.012": 1.52465819169,
			"-0.011": 1.51494373201,
			"-0.01": 2.44890166326,
			"-0.009": 2.56156001912,
			"-0.008": 6.47507621599,
			"-0.007": 10.3392221276,
			"-0.006": 13.6630772595,
			"-0.005": 10.8411075932,
			"-0.004": 12.6246107414,
			"-0.003": 14.9115921324,
			"-0.002": 19.5734882935,
			"-0.001": 22.3574316174,
			"0.0": 23.2791664824,
			"0.001": 21.7915841309,
			"0.002": 22.3734461248,
			"0.003": 21.3194086368,
			"0.004": 14.5012245955,
			"0.005": 5.18786273968,
			"0.006": 5.73998360981,
			"0.007": 6.38494239772,
			"0.008": 3.02840836585,
			"0.009": 2.53120261185,
			"0.01": 2.88623300289,
			"0.011": 3.13492487737,
			"0.012": 3.40444136434,
			"0.013": 4.26095545924,
			"0.014": 2.04683480193,
			"0.015": 0.0735886878352,
			"0.016": 0.0,
			"0.017": 0.0,
			"0.018": 0.0,
			"0.019": 0.0,
			"0.02": 0.0,
			"0.021": 0.0,
			"0.022": 0.0,
			"0.023": 0.0,
			"0.024": 0.0,
			"0.025": 0.0
		}
	}
}
