{
	 "smiles": "NC1=C(C=C(C=C1)C(F)(F)F)C#N", 
	 "Tm": 346.15, 
	 "num_atms": 18, 
	 "gaussian": { 
		 "optdone": 1, 
		 "sigma_profile": "yes", 
		 "theory": "DFT", 
		 "functional": "B3LYP", 
		 "basiset": "6-31G**", 
		 "properties": { 
			 "R2extent": 4735.828, 
			 "electric_dipole_moment_norm": 4.62938024578, 
			 "electric_quadrupole_moment_norm": 15.2816518826, 
			 "total_energy": -716.887180415, 
			 "HOMO_LUMO_gap": 0.17952, 
			 "cosmo_polarized_energy": -12.26, 
			 "cosmo_cavitation_energy": 25.07, 
			 "cosmo_dispersion_energy": -17.43, 
			 "cosmo_repulsion_energy": 1.32, 
			 "cosmo_total_nonelectrostatic_energy": 8.97, 
			 "SMD_solvation_energy": 6.7 
		},
		"coords": [
			{
				"x": -1.381228202,
				"y": 1.2542666978,
				"z": 2.4161503349,
				"element": "N" 
			},
			{
				"x": -1.2181544495,
				"y": 1.4593751856,
				"z": 1.074537298,
				"element": "C" 
			},
			{
				"x": -0.9897763416,
				"y": 2.7642453937,
				"z": 0.5562771553,
				"element": "C" 
			},
			{
				"x": -0.8644924019,
				"y": 2.9724615317,
				"z": -0.8249908638,
				"element": "C" 
			},
			{
				"x": -0.9597697675,
				"y": 1.9056859765,
				"z": -1.7085132744,
				"element": "C" 
			},
			{
				"x": -1.1815341822,
				"y": 0.6136115511,
				"z": -1.2044987095,
				"element": "C" 
			},
			{
				"x": -1.308455664,
				"y": 0.3922635076,
				"z": 0.1554521227,
				"element": "C" 
			},
			{
				"x": -0.7799830777,
				"y": 2.1057020907,
				"z": -3.1844066131,
				"element": "C" 
			},
			{
				"x": 0.4440786215,
				"y": 1.7031283954,
				"z": -3.6029271359,
				"element": "F" 
			},
			{
				"x": -0.9137365391,
				"y": 3.4011688722,
				"z": -3.5412180832,
				"element": "F" 
			},
			{
				"x": -1.6813769707,
				"y": 1.3889117584,
				"z": -3.8957281565,
				"element": "F" 
			},
			{
				"x": -0.8847387126,
				"y": 3.8544432573,
				"z": 1.4730884253,
				"element": "C" 
			},
			{
				"x": -0.8014924163,
				"y": 4.696384942,
				"z": 2.2739456904,
				"element": "N" 
			},
			{
				"x": -1.3332487479,
				"y": 0.3156872317,
				"z": 2.7776017977,
				"element": "H" 
			},
			{
				"x": -1.1549919984,
				"y": 1.9985078974,
				"z": 3.0591461019,
				"element": "H" 
			},
			{
				"x": -0.6946384261,
				"y": 3.9767783567,
				"z": -1.194877555,
				"element": "H" 
			},
			{
				"x": -1.2625069853,
				"y": -0.2220078008,
				"z": -1.8922779452,
				"element": "H" 
			},
			{
				"x": -1.4889537387,
				"y": -0.6117148451,
				"z": 0.5284394105,
				"element": "H" 
			}
		],
		 "valence_orbital": [ 
			{
				"type": "occ",
				"energy": -0.35998,
				"method": "rhf"
			},
			{
				"type": "occ",
				"energy": -0.34364,
				"method": "rhf"
			},
			{
				"type": "occ",
				"energy": -0.34035,
				"method": "rhf"
			},
			{
				"type": "occ",
				"energy": -0.27783,
				"method": "rhf"
			},
			{
				"type": "occ",
				"energy": -0.23534,
				"method": "rhf"
			},
			{
				"type": "unocc",
				"energy": -0.05582,
				"method": "rhf"
			},
			{
				"type": "unocc",
				"energy": -0.02571,
				"method": "rhf"
			},
			{
				"type": "unocc",
				"energy": 0.02244,
				"method": "rhf"
			},
			{
				"type": "unocc",
				"energy": 0.05821,
				"method": "rhf"
			},
			{
				"type": "unocc",
				"energy": 0.06452,
				"method": "rhf"
			}
		],
		"cosmo_sigma_profile": { 
			"-0.025": 0.0,
			"-0.024": 0.0,
			"-0.023": 0.0,
			"-0.022": 0.0,
			"-0.021": 0.0,
			"-0.02": 0.0,
			"-0.019": 0.0,
			"-0.018": 0.0,
			"-0.017": 0.0,
			"-0.016": 0.0,
			"-0.015": 0.662501578184,
			"-0.014": 1.7584612935,
			"-0.013": 2.05974121282,
			"-0.012": 2.52165963188,
			"-0.011": 2.08885997371,
			"-0.01": 3.22838756244,
			"-0.009": 2.52704721828,
			"-0.008": 5.39160414285,
			"-0.007": 7.14231734009,
			"-0.006": 7.0784873468,
			"-0.005": 6.56065075064,
			"-0.004": 7.18269450248,
			"-0.003": 7.87047197461,
			"-0.002": 7.93974630116,
			"-0.001": 12.2673040775,
			"0.0": 15.6706579183,
			"0.001": 19.7665022655,
			"0.002": 26.9240944339,
			"0.003": 32.8424682388,
			"0.004": 6.32984620553,
			"0.005": 2.16133745608,
			"0.006": 2.99590313801,
			"0.007": 2.83759213776,
			"0.008": 3.6294791473,
			"0.009": 3.19584194558,
			"0.01": 2.77633930033,
			"0.011": 3.02219131166,
			"0.012": 2.27205203664,
			"0.013": 1.55333396105,
			"0.014": 0.0500283565942,
			"0.015": 0.0,
			"0.016": 0.0,
			"0.017": 0.0,
			"0.018": 0.0,
			"0.019": 0.0,
			"0.02": 0.0,
			"0.021": 0.0,
			"0.022": 0.0,
			"0.023": 0.0,
			"0.024": 0.0,
			"0.025": 0.0
		}
	}
}
