{
	 "smiles": "CC1=CC(C)=C(OC(=O)C(F)(F)F)C=C1OC(=O)C(F)(F)F", 
	 "Tm": 394.15, 
	 "num_atms": 30, 
	 "gaussian": { 
		 "optdone": 1, 
		 "sigma_profile": "yes", 
		 "theory": "DFT", 
		 "functional": "B3LYP", 
		 "basiset": "6-31G**", 
		 "properties": { 
			 "R2extent": 9326.645, 
			 "electric_dipole_moment_norm": 3.68307761797, 
			 "electric_quadrupole_moment_norm": 7.91037317451, 
			 "total_energy": -1362.03444456, 
			 "HOMO_LUMO_gap": 0.19767, 
			 "cosmo_polarized_energy": -7.84, 
			 "cosmo_cavitation_energy": 39.77, 
			 "cosmo_dispersion_energy": -26.0, 
			 "cosmo_repulsion_energy": 1.87, 
			 "cosmo_total_nonelectrostatic_energy": 15.64, 
			 "SMD_solvation_energy": 11.55 
		},
		"coords": [
			{
				"x": -2.5199138463,
				"y": -1.8732084969,
				"z": 1.2381010149,
				"element": "C" 
			},
			{
				"x": -1.2549212114,
				"y": -1.3409642915,
				"z": 0.6159954997,
				"element": "C" 
			},
			{
				"x": -0.2413857704,
				"y": -2.1945044554,
				"z": 0.1610202991,
				"element": "C" 
			},
			{
				"x": 0.9457500874,
				"y": -1.7363199188,
				"z": -0.4139672921,
				"element": "C" 
			},
			{
				"x": 2.0140492321,
				"y": -2.6869998949,
				"z": -0.8921229802,
				"element": "C" 
			},
			{
				"x": 1.1050394499,
				"y": -0.3471354857,
				"z": -0.5360552098,
				"element": "C" 
			},
			{
				"x": 2.3198382689,
				"y": 0.0259116577,
				"z": -1.1255993369,
				"element": "O" 
			},
			{
				"x": 2.7122981858,
				"y": 1.2823829399,
				"z": -1.3804708152,
				"element": "C" 
			},
			{
				"x": 2.132099698,
				"y": 2.3142626053,
				"z": -1.1675564634,
				"element": "O" 
			},
			{
				"x": 4.1132227554,
				"y": 1.2176078247,
				"z": -2.0323552436,
				"element": "C" 
			},
			{
				"x": 4.9886915178,
				"y": 0.6259542712,
				"z": -1.2008915969,
				"element": "F" 
			},
			{
				"x": 4.0659047129,
				"y": 0.5053790574,
				"z": -3.1721192188,
				"element": "F" 
			},
			{
				"x": 4.5458996578,
				"y": 2.4472287006,
				"z": -2.3102897858,
				"element": "F" 
			},
			{
				"x": 0.1318452962,
				"y": 0.5503522018,
				"z": -0.1037255336,
				"element": "C" 
			},
			{
				"x": -1.0228553094,
				"y": 0.026967398,
				"z": 0.46731303,
				"element": "C" 
			},
			{
				"x": -2.0227746753,
				"y": 0.9541583963,
				"z": 0.8229546226,
				"element": "O" 
			},
			{
				"x": -2.2358485024,
				"y": 1.1971865046,
				"z": 2.1309978883,
				"element": "C" 
			},
			{
				"x": -1.643271724,
				"y": 0.7340820528,
				"z": 3.0664528751,
				"element": "O" 
			},
			{
				"x": -3.4254340874,
				"y": 2.1728935007,
				"z": 2.2618118268,
				"element": "C" 
			},
			{
				"x": -3.6115362279,
				"y": 2.5035810906,
				"z": 3.5401695165,
				"element": "F" 
			},
			{
				"x": -4.5447820592,
				"y": 1.5833366065,
				"z": 1.7994929844,
				"element": "F" 
			},
			{
				"x": -3.2097066609,
				"y": 3.290326147,
				"z": 1.5501239496,
				"element": "F" 
			},
			{
				"x": -3.3959748153,
				"y": -1.3046029813,
				"z": 0.9114474884,
				"element": "H" 
			},
			{
				"x": -2.6724117786,
				"y": -2.9219384111,
				"z": 0.9724134328,
				"element": "H" 
			},
			{
				"x": -2.474010541,
				"y": -1.803774388,
				"z": 2.3308856713,
				"element": "H" 
			},
			{
				"x": -0.3869390468,
				"y": -3.2671621864,
				"z": 0.2579130786,
				"element": "H" 
			},
			{
				"x": 2.9606299191,
				"y": -2.5180740164,
				"z": -0.3681667021,
				"element": "H" 
			},
			{
				"x": 2.2172664982,
				"y": -2.5551034054,
				"z": -1.9599358045,
				"element": "H" 
			},
			{
				"x": 1.7098612858,
				"y": -3.7227593366,
				"z": -0.7252886736,
				"element": "H" 
			},
			{
				"x": 0.254669691,
				"y": 1.6176363135,
				"z": -0.2072485217,
				"element": "H" 
			}
		],
		 "valence_orbital": [ 
			{
				"type": "occ",
				"energy": -0.34383,
				"method": "rhf"
			},
			{
				"type": "occ",
				"energy": -0.31301,
				"method": "rhf"
			},
			{
				"type": "occ",
				"energy": -0.31205,
				"method": "rhf"
			},
			{
				"type": "occ",
				"energy": -0.27035,
				"method": "rhf"
			},
			{
				"type": "occ",
				"energy": -0.25327,
				"method": "rhf"
			},
			{
				"type": "unocc",
				"energy": -0.0556,
				"method": "rhf"
			},
			{
				"type": "unocc",
				"energy": -0.04206,
				"method": "rhf"
			},
			{
				"type": "unocc",
				"energy": -0.02176,
				"method": "rhf"
			},
			{
				"type": "unocc",
				"energy": -0.00723,
				"method": "rhf"
			},
			{
				"type": "unocc",
				"energy": 0.06948,
				"method": "rhf"
			}
		],
		"cosmo_sigma_profile": { 
			"-0.025": 0.0,
			"-0.024": 0.0,
			"-0.023": 0.0,
			"-0.022": 0.0,
			"-0.021": 0.0,
			"-0.02": 0.0,
			"-0.019": 0.0,
			"-0.018": 0.0,
			"-0.017": 0.0,
			"-0.016": 0.0,
			"-0.015": 0.0,
			"-0.014": 0.0,
			"-0.013": 0.0,
			"-0.012": 0.0,
			"-0.011": 0.0,
			"-0.01": 0.0,
			"-0.009": 0.0768976496542,
			"-0.008": 1.46941219268,
			"-0.007": 5.17531344001,
			"-0.006": 11.6407638116,
			"-0.005": 16.0159273238,
			"-0.004": 17.584494279,
			"-0.003": 23.2383685523,
			"-0.002": 25.0565550759,
			"-0.001": 31.329908693,
			"0.0": 32.1254714609,
			"0.001": 53.4462005628,
			"0.002": 59.0038168496,
			"0.003": 10.4308791507,
			"0.004": 5.54850216031,
			"0.005": 5.29954698827,
			"0.006": 3.97540391182,
			"0.007": 4.55794761312,
			"0.008": 5.57274512899,
			"0.009": 6.50573755477,
			"0.01": 0.893702840868,
			"0.011": 0.0,
			"0.012": 0.0,
			"0.013": 0.0,
			"0.014": 0.0,
			"0.015": 0.0,
			"0.016": 0.0,
			"0.017": 0.0,
			"0.018": 0.0,
			"0.019": 0.0,
			"0.02": 0.0,
			"0.021": 0.0,
			"0.022": 0.0,
			"0.023": 0.0,
			"0.024": 0.0,
			"0.025": 0.0
		}
	}
}
