{
	 "smiles": "CCCC(=O)OCC=C", 
	 "Tm": 193.15, 
	 "num_atms": 21, 
	 "gaussian": { 
		 "optdone": 1, 
		 "sigma_profile": "yes", 
		 "theory": "DFT", 
		 "functional": "B3LYP", 
		 "basiset": "6-31G**", 
		 "properties": { 
			 "R2extent": 2220.7784, 
			 "electric_dipole_moment_norm": 1.64450408634, 
			 "electric_quadrupole_moment_norm": 6.37312518863, 
			 "total_energy": -424.419383679, 
			 "HOMO_LUMO_gap": 0.2659, 
			 "cosmo_polarized_energy": -6.65, 
			 "cosmo_cavitation_energy": 24.73, 
			 "cosmo_dispersion_energy": -17.66, 
			 "cosmo_repulsion_energy": 1.5, 
			 "cosmo_total_nonelectrostatic_energy": 8.58, 
			 "SMD_solvation_energy": 5.89 
		},
		"coords": [
			{
				"x": -2.9573094847,
				"y": -2.1350396057,
				"z": -2.6999009136,
				"element": "C" 
			},
			{
				"x": -2.8584087046,
				"y": -0.6113518368,
				"z": -2.5725181024,
				"element": "C" 
			},
			{
				"x": -1.4655803867,
				"y": -0.1227426023,
				"z": -2.1604570508,
				"element": "C" 
			},
			{
				"x": -1.1032746216,
				"y": -0.4757824718,
				"z": -0.7294395269,
				"element": "C" 
			},
			{
				"x": -1.8833984701,
				"y": -0.8213019006,
				"z": 0.1330989358,
				"element": "O" 
			},
			{
				"x": 0.2242837658,
				"y": -0.3264105456,
				"z": -0.5159493817,
				"element": "O" 
			},
			{
				"x": 0.6767911229,
				"y": -0.596527926,
				"z": 0.8341312016,
				"element": "C" 
			},
			{
				"x": 2.1728789886,
				"y": -0.5951504845,
				"z": 0.8258737447,
				"element": "C" 
			},
			{
				"x": 2.9199076789,
				"y": 0.1414278443,
				"z": 1.6469536986,
				"element": "C" 
			},
			{
				"x": -3.9618731626,
				"y": -2.4380978899,
				"z": -3.0117844598,
				"element": "H" 
			},
			{
				"x": -2.744744777,
				"y": -2.620676247,
				"z": -1.7431421598,
				"element": "H" 
			},
			{
				"x": -2.2486692695,
				"y": -2.5187286858,
				"z": -3.4434457592,
				"element": "H" 
			},
			{
				"x": -3.1185945586,
				"y": -0.1424862358,
				"z": -3.5289177906,
				"element": "H" 
			},
			{
				"x": -3.5862078782,
				"y": -0.257033457,
				"z": -1.834942441,
				"element": "H" 
			},
			{
				"x": -1.4006993511,
				"y": 0.9709275719,
				"z": -2.2382357824,
				"element": "H" 
			},
			{
				"x": -0.6854659582,
				"y": -0.5147494924,
				"z": -2.8230233746,
				"element": "H" 
			},
			{
				"x": 0.2725511935,
				"y": 0.1613308119,
				"z": 1.5131232658,
				"element": "H" 
			},
			{
				"x": 0.2720359857,
				"y": -1.5670396497,
				"z": 1.1438369765,
				"element": "H" 
			},
			{
				"x": 2.6423815875,
				"y": -1.269148388,
				"z": 0.1108659943,
				"element": "H" 
			},
			{
				"x": 4.0040202442,
				"y": 0.0839535548,
				"z": 1.6375296243,
				"element": "H" 
			},
			{
				"x": 2.4737760557,
				"y": 0.825327636,
				"z": 2.3651433012,
				"element": "H" 
			}
		],
		 "valence_orbital": [ 
			{
				"type": "occ",
				"energy": -0.33649,
				"method": "rhf"
			},
			{
				"type": "occ",
				"energy": -0.33513,
				"method": "rhf"
			},
			{
				"type": "occ",
				"energy": -0.3013,
				"method": "rhf"
			},
			{
				"type": "occ",
				"energy": -0.27851,
				"method": "rhf"
			},
			{
				"type": "occ",
				"energy": -0.26185,
				"method": "rhf"
			},
			{
				"type": "unocc",
				"energy": 0.00405,
				"method": "rhf"
			},
			{
				"type": "unocc",
				"energy": 0.01477,
				"method": "rhf"
			},
			{
				"type": "unocc",
				"energy": 0.09532,
				"method": "rhf"
			},
			{
				"type": "unocc",
				"energy": 0.11264,
				"method": "rhf"
			},
			{
				"type": "unocc",
				"energy": 0.11924,
				"method": "rhf"
			}
		],
		"cosmo_sigma_profile": { 
			"-0.025": 0.0,
			"-0.024": 0.0,
			"-0.023": 0.0,
			"-0.022": 0.0,
			"-0.021": 0.0,
			"-0.02": 0.0,
			"-0.019": 0.0,
			"-0.018": 0.0,
			"-0.017": 0.0,
			"-0.016": 0.0,
			"-0.015": 0.0,
			"-0.014": 0.0,
			"-0.013": 0.0,
			"-0.012": 0.0,
			"-0.011": 0.0,
			"-0.01": 0.0,
			"-0.009": 0.0,
			"-0.008": 0.0,
			"-0.007": 0.183368381742,
			"-0.006": 7.16389878385,
			"-0.005": 14.6417874346,
			"-0.004": 14.3245785626,
			"-0.003": 22.9490774163,
			"-0.002": 24.662046592,
			"-0.001": 23.5473047963,
			"0.0": 17.9073310934,
			"0.001": 16.8679260706,
			"0.002": 9.47321105033,
			"0.003": 6.67243484674,
			"0.004": 6.00977827522,
			"0.005": 5.45151687446,
			"0.006": 6.03405759008,
			"0.007": 3.19870245,
			"0.008": 3.10730980303,
			"0.009": 2.04193881584,
			"0.01": 2.11250530116,
			"0.011": 2.0681599401,
			"0.012": 4.47106754507,
			"0.013": 0.790941064575,
			"0.014": 0.0,
			"0.015": 0.0,
			"0.016": 0.0,
			"0.017": 0.0,
			"0.018": 0.0,
			"0.019": 0.0,
			"0.02": 0.0,
			"0.021": 0.0,
			"0.022": 0.0,
			"0.023": 0.0,
			"0.024": 0.0,
			"0.025": 0.0
		}
	}
}
