{
	 "smiles": "OC1CCN(CC1)C(=O)C1=C(F)C=CC=C1", 
	 "Tm": 378.15, 
	 "num_atms": 30, 
	 "gaussian": { 
		 "optdone": 1, 
		 "sigma_profile": "yes", 
		 "theory": "DFT", 
		 "functional": "B3LYP", 
		 "basiset": "6-31G**", 
		 "properties": { 
			 "R2extent": 4544.9786, 
			 "electric_dipole_moment_norm": 4.5802981606, 
			 "electric_quadrupole_moment_norm": 10.4286102876, 
			 "total_energy": -770.752076483, 
			 "HOMO_LUMO_gap": 0.20171, 
			 "cosmo_polarized_energy": -15.17, 
			 "cosmo_cavitation_energy": 32.29, 
			 "cosmo_dispersion_energy": -23.29, 
			 "cosmo_repulsion_energy": 1.8, 
			 "cosmo_total_nonelectrostatic_energy": 10.8, 
			 "SMD_solvation_energy": 5.32 
		},
		"coords": [
			{
				"x": -1.7494970414,
				"y": 4.0535189653,
				"z": -1.0006953172,
				"element": "O" 
			},
			{
				"x": -1.6328336341,
				"y": 2.6514145807,
				"z": -1.2403672991,
				"element": "C" 
			},
			{
				"x": -1.9813814049,
				"y": 1.9362810331,
				"z": 0.0750308375,
				"element": "C" 
			},
			{
				"x": -0.7554514073,
				"y": 1.7074941942,
				"z": 0.9566653185,
				"element": "C" 
			},
			{
				"x": 0.2202735016,
				"y": 0.8525876583,
				"z": 0.255269832,
				"element": "N" 
			},
			{
				"x": 0.2110798643,
				"y": 0.8853691215,
				"z": -1.2129798726,
				"element": "C" 
			},
			{
				"x": -0.2042920198,
				"y": 2.2779291072,
				"z": -1.6989051626,
				"element": "C" 
			},
			{
				"x": 1.1836514024,
				"y": 0.2624158349,
				"z": 1.0255145194,
				"element": "C" 
			},
			{
				"x": 1.2678227321,
				"y": 0.4787227525,
				"z": 2.2346658779,
				"element": "O" 
			},
			{
				"x": 2.1840474097,
				"y": -0.6631959889,
				"z": 0.3755245942,
				"element": "C" 
			},
			{
				"x": 1.8529486725,
				"y": -1.7377695765,
				"z": -0.4523887796,
				"element": "C" 
			},
			{
				"x": 0.5560365586,
				"y": -1.9502440864,
				"z": -0.780574269,
				"element": "F" 
			},
			{
				"x": 2.8026437535,
				"y": -2.6226848389,
				"z": -0.9507322347,
				"element": "C" 
			},
			{
				"x": 4.1409822648,
				"y": -2.4369216304,
				"z": -0.6071549978,
				"element": "C" 
			},
			{
				"x": 4.5076527192,
				"y": -1.3846207267,
				"z": 0.2367815892,
				"element": "C" 
			},
			{
				"x": 3.533973545,
				"y": -0.5212248781,
				"z": 0.7323085755,
				"element": "C" 
			},
			{
				"x": -1.484088566,
				"y": 4.5187297445,
				"z": -1.8048804404,
				"element": "H" 
			},
			{
				"x": -2.358064827,
				"y": 2.3438226564,
				"z": -2.0104922962,
				"element": "H" 
			},
			{
				"x": -2.4511931351,
				"y": 0.9713950967,
				"z": -0.1472148438,
				"element": "H" 
			},
			{
				"x": -2.7188596964,
				"y": 2.5407835132,
				"z": 0.6109172812,
				"element": "H" 
			},
			{
				"x": -1.0202537878,
				"y": 1.213941436,
				"z": 1.8936214786,
				"element": "H" 
			},
			{
				"x": -0.2943743483,
				"y": 2.6669307787,
				"z": 1.2259609659,
				"element": "H" 
			},
			{
				"x": 1.2117950666,
				"y": 0.64527515,
				"z": -1.5772727418,
				"element": "H" 
			},
			{
				"x": -0.4684010793,
				"y": 0.1235616868,
				"z": -1.6153202088,
				"element": "H" 
			},
			{
				"x": 0.4846430975,
				"y": 3.0198656136,
				"z": -1.2782985188,
				"element": "H" 
			},
			{
				"x": -0.1152726171,
				"y": 2.3273170477,
				"z": -2.7904782156,
				"element": "H" 
			},
			{
				"x": 2.4794806724,
				"y": -3.441633423,
				"z": -1.5843255191,
				"element": "H" 
			},
			{
				"x": 4.8928144142,
				"y": -3.1200305319,
				"z": -0.9908286439,
				"element": "H" 
			},
			{
				"x": 5.5473820332,
				"y": -1.2459782707,
				"z": 0.515919177,
				"element": "H" 
			},
			{
				"x": 3.7957358567,
				"y": 0.2792479803,
				"z": 1.4163293137,
				"element": "H" 
			}
		],
		 "valence_orbital": [ 
			{
				"type": "occ",
				"energy": -0.27126,
				"method": "rhf"
			},
			{
				"type": "occ",
				"energy": -0.26767,
				"method": "rhf"
			},
			{
				"type": "occ",
				"energy": -0.2512,
				"method": "rhf"
			},
			{
				"type": "occ",
				"energy": -0.24003,
				"method": "rhf"
			},
			{
				"type": "occ",
				"energy": -0.23043,
				"method": "rhf"
			},
			{
				"type": "unocc",
				"energy": -0.02872,
				"method": "rhf"
			},
			{
				"type": "unocc",
				"energy": -0.0051,
				"method": "rhf"
			},
			{
				"type": "unocc",
				"energy": 0.04754,
				"method": "rhf"
			},
			{
				"type": "unocc",
				"energy": 0.06892,
				"method": "rhf"
			},
			{
				"type": "unocc",
				"energy": 0.08401,
				"method": "rhf"
			}
		],
		"cosmo_sigma_profile": { 
			"-0.025": 0.0,
			"-0.024": 0.0,
			"-0.023": 0.0,
			"-0.022": 0.0,
			"-0.021": 0.0,
			"-0.02": 0.0,
			"-0.019": 0.0,
			"-0.018": 0.0,
			"-0.017": 0.0,
			"-0.016": 0.0726273344604,
			"-0.015": 0.847449023701,
			"-0.014": 1.20763458334,
			"-0.013": 0.869032299475,
			"-0.012": 0.517803456884,
			"-0.011": 1.21258606559,
			"-0.01": 0.968615603768,
			"-0.009": 0.821335982055,
			"-0.008": 1.03315622387,
			"-0.007": 4.904169639,
			"-0.006": 9.11252811525,
			"-0.005": 15.120984962,
			"-0.004": 26.8394292772,
			"-0.003": 32.4451448711,
			"-0.002": 24.1335061133,
			"-0.001": 18.7953874277,
			"0.0": 18.2488533187,
			"0.001": 14.1699715857,
			"0.002": 13.9300357801,
			"0.003": 15.7414512997,
			"0.004": 16.5836888897,
			"0.005": 4.36506144381,
			"0.006": 3.08121453982,
			"0.007": 2.59349418404,
			"0.008": 3.04153797054,
			"0.009": 2.53026645218,
			"0.01": 2.82567815971,
			"0.011": 2.70039527878,
			"0.012": 3.17492879914,
			"0.013": 4.22212897951,
			"0.014": 6.72409123728,
			"0.015": 1.18822113161,
			"0.016": 0.0,
			"0.017": 0.0,
			"0.018": 0.0,
			"0.019": 0.0,
			"0.02": 0.0,
			"0.021": 0.0,
			"0.022": 0.0,
			"0.023": 0.0,
			"0.024": 0.0,
			"0.025": 0.0
		}
	}
}
