{
	 "smiles": "CC1=C(SC=C1)C(=O)NC1=CC=C(O)C=C1", 
	 "Tm": 401.15, 
	 "num_atms": 27, 
	 "gaussian": { 
		 "optdone": 1, 
		 "sigma_profile": "yes", 
		 "theory": "DFT", 
		 "functional": "B3LYP", 
		 "basiset": "6-31G**", 
		 "properties": { 
			 "R2extent": 4871.4893, 
			 "electric_dipole_moment_norm": 3.43028469081, 
			 "electric_quadrupole_moment_norm": 11.203786181, 
			 "total_energy": -1067.29007532, 
			 "HOMO_LUMO_gap": 0.17559, 
			 "cosmo_polarized_energy": -15.73, 
			 "cosmo_cavitation_energy": 32.77, 
			 "cosmo_dispersion_energy": -23.65, 
			 "cosmo_repulsion_energy": 1.82, 
			 "cosmo_total_nonelectrostatic_energy": 10.93, 
			 "SMD_solvation_energy": 6.5 
		},
		"coords": [
			{
				"x": 1.0318904235,
				"y": -2.9218486535,
				"z": -2.9123892443,
				"element": "C" 
			},
			{
				"x": 1.1772714251,
				"y": -2.615511807,
				"z": -1.4457903296,
				"element": "C" 
			},
			{
				"x": 1.6054357043,
				"y": -1.4110631068,
				"z": -0.9076425923,
				"element": "C" 
			},
			{
				"x": 1.6812359679,
				"y": -1.4915721028,
				"z": 0.843499437,
				"element": "S" 
			},
			{
				"x": 1.1350025313,
				"y": -3.1266487307,
				"z": 0.8377290324,
				"element": "C" 
			},
			{
				"x": 0.8978393753,
				"y": -3.5805862889,
				"z": -0.430956314,
				"element": "C" 
			},
			{
				"x": 2.0840228507,
				"y": -0.2579927174,
				"z": -1.7066248183,
				"element": "C" 
			},
			{
				"x": 2.4591284032,
				"y": -0.4094379561,
				"z": -2.8683389625,
				"element": "O" 
			},
			{
				"x": 2.1703475081,
				"y": 0.9947862364,
				"z": -1.1226673099,
				"element": "N" 
			},
			{
				"x": 1.4167565768,
				"y": 1.5493419721,
				"z": -0.0466548466,
				"element": "C" 
			},
			{
				"x": 2.0758578576,
				"y": 2.2910436573,
				"z": 0.9429853781,
				"element": "C" 
			},
			{
				"x": 1.3645658657,
				"y": 2.8895580648,
				"z": 1.9775445246,
				"element": "C" 
			},
			{
				"x": -0.0248727132,
				"y": 2.7354516285,
				"z": 2.0472484121,
				"element": "C" 
			},
			{
				"x": -0.6725352037,
				"y": 3.3316290833,
				"z": 3.0908685903,
				"element": "O" 
			},
			{
				"x": -0.6914186137,
				"y": 1.9949596241,
				"z": 1.0645341957,
				"element": "C" 
			},
			{
				"x": 0.0243755745,
				"y": 1.4209351018,
				"z": 0.0163389379,
				"element": "C" 
			},
			{
				"x": 2.0061599013,
				"y": -3.1479587838,
				"z": -3.3577613308,
				"element": "H" 
			},
			{
				"x": 0.6354199397,
				"y": -2.0708102992,
				"z": -3.4686653339,
				"element": "H" 
			},
			{
				"x": 0.3768561914,
				"y": -3.7863176069,
				"z": -3.0570845571,
				"element": "H" 
			},
			{
				"x": 1.0103367822,
				"y": -3.6586736576,
				"z": 1.7712896893,
				"element": "H" 
			},
			{
				"x": 0.5385789768,
				"y": -4.5801398724,
				"z": -0.6506909003,
				"element": "H" 
			},
			{
				"x": 2.6123550378,
				"y": 1.6519633444,
				"z": -1.7554813142,
				"element": "H" 
			},
			{
				"x": 3.1562927596,
				"y": 2.3901356455,
				"z": 0.8975146198,
				"element": "H" 
			},
			{
				"x": 1.8679678904,
				"y": 3.4671888232,
				"z": 2.7454347786,
				"element": "H" 
			},
			{
				"x": -1.618478332,
				"y": 3.1473709781,
				"z": 3.0255820048,
				"element": "H" 
			},
			{
				"x": -1.7723713668,
				"y": 1.8799339525,
				"z": 1.1083916479,
				"element": "H" 
			},
			{
				"x": -0.4980213136,
				"y": 0.864863471,
				"z": -0.7553133947,
				"element": "H" 
			}
		],
		 "valence_orbital": [ 
			{
				"type": "occ",
				"energy": -0.26312,
				"method": "rhf"
			},
			{
				"type": "occ",
				"energy": -0.25073,
				"method": "rhf"
			},
			{
				"type": "occ",
				"energy": -0.24539,
				"method": "rhf"
			},
			{
				"type": "occ",
				"energy": -0.23125,
				"method": "rhf"
			},
			{
				"type": "occ",
				"energy": -0.21587,
				"method": "rhf"
			},
			{
				"type": "unocc",
				"energy": -0.04028,
				"method": "rhf"
			},
			{
				"type": "unocc",
				"energy": -0.01239,
				"method": "rhf"
			},
			{
				"type": "unocc",
				"energy": -0.00081,
				"method": "rhf"
			},
			{
				"type": "unocc",
				"energy": 0.03756,
				"method": "rhf"
			},
			{
				"type": "unocc",
				"energy": 0.04308,
				"method": "rhf"
			}
		],
		"cosmo_sigma_profile": { 
			"-0.025": 0.0,
			"-0.024": 0.0,
			"-0.023": 0.0,
			"-0.022": 0.0,
			"-0.021": 0.0,
			"-0.02": 0.0,
			"-0.019": 0.0,
			"-0.018": 0.453021284379,
			"-0.017": 1.19800873215,
			"-0.016": 0.91546950819,
			"-0.015": 1.09252048672,
			"-0.014": 1.623792357,
			"-0.013": 2.55101704352,
			"-0.012": 1.2636721869,
			"-0.011": 1.48063788684,
			"-0.01": 2.17283021407,
			"-0.009": 3.41769314331,
			"-0.008": 4.34909698913,
			"-0.007": 5.76173208254,
			"-0.006": 11.7999069208,
			"-0.005": 15.1220824473,
			"-0.004": 16.5499824754,
			"-0.003": 14.3011054761,
			"-0.002": 15.4029160005,
			"-0.001": 16.3576727201,
			"0.0": 19.6740703529,
			"0.001": 18.9317386187,
			"0.002": 17.5249323074,
			"0.003": 24.834486573,
			"0.004": 23.934988188,
			"0.005": 13.4729391218,
			"0.006": 4.07458429464,
			"0.007": 2.73196513415,
			"0.008": 3.30569518172,
			"0.009": 3.30613583592,
			"0.01": 2.53296372402,
			"0.011": 3.41186775281,
			"0.012": 2.7746740974,
			"0.013": 3.94131150043,
			"0.014": 2.62510418134,
			"0.015": 0.029003665823,
			"0.016": 0.0,
			"0.017": 0.0,
			"0.018": 0.0,
			"0.019": 0.0,
			"0.02": 0.0,
			"0.021": 0.0,
			"0.022": 0.0,
			"0.023": 0.0,
			"0.024": 0.0,
			"0.025": 0.0
		}
	}
}
