{
	 "smiles": "CCCCCCCCCCCCCCCCOP(O)(=O)OCCCCCCCCCCCCCCCC", 
	 "Tm": 347.65, 
	 "num_atms": 104, 
	 "gaussian": { 
		 "optdone": 1, 
		 "sigma_profile": "yes", 
		 "theory": "DFT", 
		 "functional": "B3LYP", 
		 "basiset": "6-31G**", 
		 "properties": { 
			 "R2extent": 38256.4452, 
			 "electric_dipole_moment_norm": 0.945077356622, 
			 "electric_quadrupole_moment_norm": 12.6455340939, 
			 "total_energy": -1902.21430116, 
			 "HOMO_LUMO_gap": 0.32452, 
			 "cosmo_polarized_energy": -14.14, 
			 "cosmo_cavitation_energy": 99.84, 
			 "cosmo_dispersion_energy": -58.52, 
			 "cosmo_repulsion_energy": 4.65, 
			 "cosmo_total_nonelectrostatic_energy": 45.97, 
			 "SMD_solvation_energy": 14.34 
		},
		"coords": [
			{
				"x": 4.3340488246,
				"y": -2.1554265359,
				"z": 5.1606343407,
				"element": "C" 
			},
			{
				"x": 3.7214588798,
				"y": -1.4630991522,
				"z": 6.3838378517,
				"element": "C" 
			},
			{
				"x": 2.5276620315,
				"y": -2.2109971196,
				"z": 7.0041333033,
				"element": "C" 
			},
			{
				"x": 1.2908291745,
				"y": -2.37165837,
				"z": 6.1026273788,
				"element": "C" 
			},
			{
				"x": 0.6117141215,
				"y": -1.0540332296,
				"z": 5.702702025,
				"element": "C" 
			},
			{
				"x": -0.6684749596,
				"y": -1.2660246067,
				"z": 4.881484489,
				"element": "C" 
			},
			{
				"x": -1.4253183459,
				"y": 0.0215990899,
				"z": 4.5161047345,
				"element": "C" 
			},
			{
				"x": -0.6815340764,
				"y": 0.9576963026,
				"z": 3.5529356773,
				"element": "C" 
			},
			{
				"x": -1.5119183922,
				"y": 2.1813176668,
				"z": 3.1441478447,
				"element": "C" 
			},
			{
				"x": -0.7892154774,
				"y": 3.1072545155,
				"z": 2.1564508926,
				"element": "C" 
			},
			{
				"x": -1.6061213882,
				"y": 4.355326025,
				"z": 1.7939743556,
				"element": "C" 
			},
			{
				"x": -0.9582256788,
				"y": 5.2762029686,
				"z": 0.7452192762,
				"element": "C" 
			},
			{
				"x": -0.7677522452,
				"y": 4.7082276082,
				"z": -0.6758986084,
				"element": "C" 
			},
			{
				"x": -2.0647456712,
				"y": 4.3124805426,
				"z": -1.4169284232,
				"element": "C" 
			},
			{
				"x": -2.4897487102,
				"y": 2.8493888983,
				"z": -1.2140062068,
				"element": "C" 
			},
			{
				"x": -3.8211067434,
				"y": 2.53782584,
				"z": -1.887372811,
				"element": "C" 
			},
			{
				"x": -4.2019215634,
				"y": 1.1473525534,
				"z": -1.7115548919,
				"element": "O" 
			},
			{
				"x": -4.8797962257,
				"y": 0.6566970395,
				"z": -0.349460519,
				"element": "P" 
			},
			{
				"x": -6.2466181354,
				"y": 1.5350786515,
				"z": -0.3167802013,
				"element": "O" 
			},
			{
				"x": -4.1140982305,
				"y": 0.7488292089,
				"z": 0.9212989262,
				"element": "O" 
			},
			{
				"x": -5.3144298474,
				"y": -0.8109815689,
				"z": -0.8045021234,
				"element": "O" 
			},
			{
				"x": -5.1140099939,
				"y": -1.9684164969,
				"z": 0.0516630458,
				"element": "C" 
			},
			{
				"x": -4.2991958302,
				"y": -3.0188007621,
				"z": -0.692852458,
				"element": "C" 
			},
			{
				"x": -2.8656448403,
				"y": -2.5963727162,
				"z": -1.0516743737,
				"element": "C" 
			},
			{
				"x": -1.9581097098,
				"y": -2.3416817703,
				"z": 0.1628238284,
				"element": "C" 
			},
			{
				"x": -0.4738154073,
				"y": -2.1463988217,
				"z": -0.1913060675,
				"element": "C" 
			},
			{
				"x": -0.1799718171,
				"y": -0.8843678168,
				"z": -1.0166135216,
				"element": "C" 
			},
			{
				"x": 1.3176245228,
				"y": -0.5932291335,
				"z": -1.2190788462,
				"element": "C" 
			},
			{
				"x": 2.1099401248,
				"y": -1.6577604716,
				"z": -2.0019817684,
				"element": "C" 
			},
			{
				"x": 1.6320415219,
				"y": -1.9347348218,
				"z": -3.4390352298,
				"element": "C" 
			},
			{
				"x": 1.7360460523,
				"y": -0.7309357599,
				"z": -4.3875210177,
				"element": "C" 
			},
			{
				"x": 1.2877364276,
				"y": -1.0144887428,
				"z": -5.8316932423,
				"element": "C" 
			},
			{
				"x": 2.1839137573,
				"y": -1.9896433952,
				"z": -6.6092379099,
				"element": "C" 
			},
			{
				"x": 1.736595339,
				"y": -2.178635859,
				"z": -8.0658508083,
				"element": "C" 
			},
			{
				"x": 2.5515788125,
				"y": -3.2148828994,
				"z": -8.8596120911,
				"element": "C" 
			},
			{
				"x": 4.0415324317,
				"y": -2.8870101455,
				"z": -9.06359724,
				"element": "C" 
			},
			{
				"x": 4.3025177676,
				"y": -1.6149776636,
				"z": -9.8788627333,
				"element": "C" 
			},
			{
				"x": 4.6476074858,
				"y": -3.1781056827,
				"z": 5.4016287553,
				"element": "H" 
			},
			{
				"x": 5.215694082,
				"y": -1.6141832944,
				"z": 4.8014270449,
				"element": "H" 
			},
			{
				"x": 3.6261273711,
				"y": -2.2159638099,
				"z": 4.327433912,
				"element": "H" 
			},
			{
				"x": 4.4950806466,
				"y": -1.3522908519,
				"z": 7.1546495445,
				"element": "H" 
			},
			{
				"x": 3.4224042243,
				"y": -0.4422970045,
				"z": 6.113935185,
				"element": "H" 
			},
			{
				"x": 2.8654863926,
				"y": -3.2086831222,
				"z": 7.3174927086,
				"element": "H" 
			},
			{
				"x": 2.2266671231,
				"y": -1.6910225812,
				"z": 7.9241510143,
				"element": "H" 
			},
			{
				"x": 1.5591762709,
				"y": -2.9305782102,
				"z": 5.195871722,
				"element": "H" 
			},
			{
				"x": 0.559187293,
				"y": -2.9988297325,
				"z": 6.6304230373,
				"element": "H" 
			},
			{
				"x": 1.3150389467,
				"y": -0.4333203911,
				"z": 5.1344538337,
				"element": "H" 
			},
			{
				"x": 0.367308342,
				"y": -0.4831410055,
				"z": 6.6109021147,
				"element": "H" 
			},
			{
				"x": -0.4205693115,
				"y": -1.8125996219,
				"z": 3.959700409,
				"element": "H" 
			},
			{
				"x": -1.3430886461,
				"y": -1.9230844935,
				"z": 5.4478331238,
				"element": "H" 
			},
			{
				"x": -2.3861042653,
				"y": -0.2516221631,
				"z": 4.0600274616,
				"element": "H" 
			},
			{
				"x": -1.671837427,
				"y": 0.5698306324,
				"z": 5.4372217574,
				"element": "H" 
			},
			{
				"x": 0.2611663983,
				"y": 1.2940916979,
				"z": 4.0054364661,
				"element": "H" 
			},
			{
				"x": -0.4029973509,
				"y": 0.3938165783,
				"z": 2.6504608463,
				"element": "H" 
			},
			{
				"x": -1.7840403806,
				"y": 2.7516143603,
				"z": 4.0446999253,
				"element": "H" 
			},
			{
				"x": -2.4526562514,
				"y": 1.8410681331,
				"z": 2.6918783776,
				"element": "H" 
			},
			{
				"x": -0.5512202744,
				"y": 2.5356979102,
				"z": 1.2494991071,
				"element": "H" 
			},
			{
				"x": 0.1774261076,
				"y": 3.4208921999,
				"z": 2.5772746667,
				"element": "H" 
			},
			{
				"x": -2.6067142912,
				"y": 4.0523219149,
				"z": 1.4590742462,
				"element": "H" 
			},
			{
				"x": -1.7710785592,
				"y": 4.9419049757,
				"z": 2.708222666,
				"element": "H" 
			},
			{
				"x": -1.5614859004,
				"y": 6.1913996539,
				"z": 0.6666067306,
				"element": "H" 
			},
			{
				"x": 0.0242888163,
				"y": 5.5968998406,
				"z": 1.1186428617,
				"element": "H" 
			},
			{
				"x": -0.0855848907,
				"y": 3.8485174551,
				"z": -0.6540951202,
				"element": "H" 
			},
			{
				"x": -0.251656937,
				"y": 5.4777888614,
				"z": -1.2630779805,
				"element": "H" 
			},
			{
				"x": -1.932017646,
				"y": 4.4878778407,
				"z": -2.4928062211,
				"element": "H" 
			},
			{
				"x": -2.8783861027,
				"y": 4.9827350331,
				"z": -1.1035552641,
				"element": "H" 
			},
			{
				"x": -1.7233714266,
				"y": 2.1807998537,
				"z": -1.6251712851,
				"element": "H" 
			},
			{
				"x": -2.5759629686,
				"y": 2.6091215066,
				"z": -0.1516072603,
				"element": "H" 
			},
			{
				"x": -4.6239565646,
				"y": 3.1796146089,
				"z": -1.5071883896,
				"element": "H" 
			},
			{
				"x": -3.7647621565,
				"y": 2.6747506044,
				"z": -2.9708626568,
				"element": "H" 
			},
			{
				"x": -6.4669615709,
				"y": 1.7505194107,
				"z": 0.6003204297,
				"element": "H" 
			},
			{
				"x": -4.6272076965,
				"y": -1.6502707545,
				"z": 0.9768154488,
				"element": "H" 
			},
			{
				"x": -6.1106823297,
				"y": -2.3521771353,
				"z": 0.2918149252,
				"element": "H" 
			},
			{
				"x": -4.2773138607,
				"y": -3.9172668013,
				"z": -0.0599305008,
				"element": "H" 
			},
			{
				"x": -4.8422512298,
				"y": -3.2915229487,
				"z": -1.6056656488,
				"element": "H" 
			},
			{
				"x": -2.4224418886,
				"y": -3.389318238,
				"z": -1.6693065372,
				"element": "H" 
			},
			{
				"x": -2.911245789,
				"y": -1.7040276523,
				"z": -1.6864555378,
				"element": "H" 
			},
			{
				"x": -2.0433821088,
				"y": -3.1939609845,
				"z": 0.8520998886,
				"element": "H" 
			},
			{
				"x": -2.3111348993,
				"y": -1.4601933868,
				"z": 0.7133708596,
				"element": "H" 
			},
			{
				"x": -0.1134334173,
				"y": -3.036614539,
				"z": -0.724881302,
				"element": "H" 
			},
			{
				"x": 0.1051808415,
				"y": -2.0972237134,
				"z": 0.7416423197,
				"element": "H" 
			},
			{
				"x": -0.6347537352,
				"y": -0.0231055156,
				"z": -0.5083385398,
				"element": "H" 
			},
			{
				"x": -0.6787369617,
				"y": -0.951797661,
				"z": -1.99163737,
				"element": "H" 
			},
			{
				"x": 1.7885029906,
				"y": -0.4722374634,
				"z": -0.2337096818,
				"element": "H" 
			},
			{
				"x": 1.4225560981,
				"y": 0.3785746156,
				"z": -1.7181726906,
				"element": "H" 
			},
			{
				"x": 3.1631004392,
				"y": -1.3461456872,
				"z": -2.0360699142,
				"element": "H" 
			},
			{
				"x": 2.0986145348,
				"y": -2.6013428814,
				"z": -1.4418831481,
				"element": "H" 
			},
			{
				"x": 2.2270818172,
				"y": -2.7655525877,
				"z": -3.8380490867,
				"element": "H" 
			},
			{
				"x": 0.5929684879,
				"y": -2.2919973458,
				"z": -3.4259534051,
				"element": "H" 
			},
			{
				"x": 2.7737301817,
				"y": -0.3658578562,
				"z": -4.3954565534,
				"element": "H" 
			},
			{
				"x": 1.1294090367,
				"y": 0.0943203741,
				"z": -3.9940422378,
				"element": "H" 
			},
			{
				"x": 0.2572119564,
				"y": -1.3982372657,
				"z": -5.8220749051,
				"element": "H" 
			},
			{
				"x": 1.2484561957,
				"y": -0.0634093754,
				"z": -6.3804627,
				"element": "H" 
			},
			{
				"x": 2.195999741,
				"y": -2.9687320291,
				"z": -6.1118254694,
				"element": "H" 
			},
			{
				"x": 3.2182079702,
				"y": -1.6204627354,
				"z": -6.5790352658,
				"element": "H" 
			},
			{
				"x": 1.7608538322,
				"y": -1.2088576562,
				"z": -8.5810875111,
				"element": "H" 
			},
			{
				"x": 0.6832085476,
				"y": -2.4906407808,
				"z": -8.0726315586,
				"element": "H" 
			},
			{
				"x": 2.4714223058,
				"y": -4.1872223263,
				"z": -8.3541292962,
				"element": "H" 
			},
			{
				"x": 2.084814225,
				"y": -3.3474373694,
				"z": -9.8455540336,
				"element": "H" 
			},
			{
				"x": 4.5137897036,
				"y": -3.7380845579,
				"z": -9.5710003388,
				"element": "H" 
			},
			{
				"x": 4.5422239167,
				"y": -2.8062077837,
				"z": -8.090345707,
				"element": "H" 
			},
			{
				"x": 3.9235223189,
				"y": -0.7202513905,
				"z": -9.3739237469,
				"element": "H" 
			},
			{
				"x": 5.3745928462,
				"y": -1.4664700756,
				"z": -10.0456513319,
				"element": "H" 
			},
			{
				"x": 3.8180628514,
				"y": -1.6691286501,
				"z": -10.8609900705,
				"element": "H" 
			}
		],
		 "valence_orbital": [ 
			{
				"type": "occ",
				"energy": -0.29486,
				"method": "rhf"
			},
			{
				"type": "occ",
				"energy": -0.29237,
				"method": "rhf"
			},
			{
				"type": "occ",
				"energy": -0.28993,
				"method": "rhf"
			},
			{
				"type": "occ",
				"energy": -0.28549,
				"method": "rhf"
			},
			{
				"type": "occ",
				"energy": -0.2835,
				"method": "rhf"
			},
			{
				"type": "unocc",
				"energy": 0.04102,
				"method": "rhf"
			},
			{
				"type": "unocc",
				"energy": 0.05943,
				"method": "rhf"
			},
			{
				"type": "unocc",
				"energy": 0.07481,
				"method": "rhf"
			},
			{
				"type": "unocc",
				"energy": 0.08137,
				"method": "rhf"
			},
			{
				"type": "unocc",
				"energy": 0.08455,
				"method": "rhf"
			}
		],
		"cosmo_sigma_profile": { 
			"-0.025": 0.0,
			"-0.024": 0.0,
			"-0.023": 0.0,
			"-0.022": 0.0,
			"-0.021": 0.0,
			"-0.02": 0.0,
			"-0.019": 0.356516168746,
			"-0.018": 1.02389460223,
			"-0.017": 0.775545056572,
			"-0.016": 1.09049379172,
			"-0.015": 1.23154649102,
			"-0.014": 0.327558606615,
			"-0.013": 0.448884161515,
			"-0.012": 0.361358241319,
			"-0.011": 1.33072938039,
			"-0.01": 1.33016735696,
			"-0.009": 0.412171955972,
			"-0.008": 0.57322776599,
			"-0.007": 0.85843316629,
			"-0.006": 3.05749810372,
			"-0.005": 9.48857541135,
			"-0.004": 15.5925358445,
			"-0.003": 25.126275781,
			"-0.002": 84.584245166,
			"-0.001": 162.859404779,
			"0.0": 174.110426436,
			"0.001": 147.107731731,
			"0.002": 68.3775156207,
			"0.003": 10.9906719842,
			"0.004": 7.89228094794,
			"0.005": 6.07913512308,
			"0.006": 6.89328283218,
			"0.007": 5.67914703068,
			"0.008": 7.1172796401,
			"0.009": 7.14704787798,
			"0.01": 4.51993559881,
			"0.011": 1.58786936175,
			"0.012": 1.38896470728,
			"0.013": 0.566642298222,
			"0.014": 0.214827469525,
			"0.015": 0.0,
			"0.016": 0.0,
			"0.017": 0.0,
			"0.018": 0.0,
			"0.019": 0.0,
			"0.02": 0.0,
			"0.021": 0.0,
			"0.022": 0.0,
			"0.023": 0.0,
			"0.024": 0.0,
			"0.025": 0.0
		}
	}
}
