{
	 "smiles": "ClC1=NC(=CC=N1)N1CCOCC1", 
	 "Tm": 385.15, 
	 "num_atms": 23, 
	 "gaussian": { 
		 "optdone": 1, 
		 "sigma_profile": "yes", 
		 "theory": "DFT", 
		 "functional": "B3LYP", 
		 "basiset": "6-31G**", 
		 "properties": { 
			 "R2extent": 4072.9403, 
			 "electric_dipole_moment_norm": 4.71206972572, 
			 "electric_quadrupole_moment_norm": 18.5250103096, 
			 "total_energy": -1010.53557301, 
			 "HOMO_LUMO_gap": 0.19746, 
			 "cosmo_polarized_energy": -12.58, 
			 "cosmo_cavitation_energy": 27.38, 
			 "cosmo_dispersion_energy": -20.96, 
			 "cosmo_repulsion_energy": 1.67, 
			 "cosmo_total_nonelectrostatic_energy": 8.09, 
			 "SMD_solvation_energy": 1.28 
		},
		"coords": [
			{
				"x": -2.2088165239,
				"y": 3.1472042619,
				"z": 2.7938075116,
				"element": "Cl" 
			},
			{
				"x": -1.6619380294,
				"y": 1.4746014774,
				"z": 2.6999244409,
				"element": "C" 
			},
			{
				"x": -0.6590927575,
				"y": 1.260074141,
				"z": 1.8685310682,
				"element": "N" 
			},
			{
				"x": -0.2119274421,
				"y": -0.0110641876,
				"z": 1.7615498568,
				"element": "C" 
			},
			{
				"x": -0.8118795981,
				"y": -1.0278070413,
				"z": 2.547673675,
				"element": "C" 
			},
			{
				"x": -1.851480636,
				"y": -0.6448535344,
				"z": 3.373500267,
				"element": "C" 
			},
			{
				"x": -2.310987843,
				"y": 0.617709195,
				"z": 3.4724858315,
				"element": "N" 
			},
			{
				"x": 0.8010411259,
				"y": -0.2334600635,
				"z": 0.8682734769,
				"element": "N" 
			},
			{
				"x": 1.5398477233,
				"y": 0.8885172399,
				"z": 0.2750659189,
				"element": "C" 
			},
			{
				"x": 1.9370393162,
				"y": 0.5494624055,
				"z": -1.1582718941,
				"element": "C" 
			},
			{
				"x": 2.6690851148,
				"y": -0.6694835557,
				"z": -1.2176920566,
				"element": "O" 
			},
			{
				"x": 1.8878792794,
				"y": -1.7433629933,
				"z": -0.7257987847,
				"element": "C" 
			},
			{
				"x": 1.4733122155,
				"y": -1.5235185328,
				"z": 0.7327054814,
				"element": "C" 
			},
			{
				"x": -0.484140011,
				"y": -2.0579443043,
				"z": 2.5325932559,
				"element": "H" 
			},
			{
				"x": -2.3503262141,
				"y": -1.3806348021,
				"z": 4.0010863864,
				"element": "H" 
			},
			{
				"x": 0.909845578,
				"y": 1.7762338739,
				"z": 0.3109195558,
				"element": "H" 
			},
			{
				"x": 2.4466767182,
				"y": 1.0828970473,
				"z": 0.8675661878,
				"element": "H" 
			},
			{
				"x": 1.0364400187,
				"y": 0.4817495817,
				"z": -1.7897112418,
				"element": "H" 
			},
			{
				"x": 2.5899531188,
				"y": 1.3277090944,
				"z": -1.5625958628,
				"element": "H" 
			},
			{
				"x": 0.9841293108,
				"y": -1.8741538995,
				"z": -1.3437952858,
				"element": "H" 
			},
			{
				"x": 2.500083975,
				"y": -2.646165385,
				"z": -0.807082549,
				"element": "H" 
			},
			{
				"x": 0.8049609403,
				"y": -2.3329211378,
				"z": 1.0294701602,
				"element": "H" 
			},
			{
				"x": 2.3641946201,
				"y": -1.5588888809,
				"z": 1.3784946002,
				"element": "H" 
			}
		],
		 "valence_orbital": [ 
			{
				"type": "occ",
				"energy": -0.30764,
				"method": "rhf"
			},
			{
				"type": "occ",
				"energy": -0.28297,
				"method": "rhf"
			},
			{
				"type": "occ",
				"energy": -0.27203,
				"method": "rhf"
			},
			{
				"type": "occ",
				"energy": -0.25922,
				"method": "rhf"
			},
			{
				"type": "occ",
				"energy": -0.23082,
				"method": "rhf"
			},
			{
				"type": "unocc",
				"energy": -0.03336,
				"method": "rhf"
			},
			{
				"type": "unocc",
				"energy": -0.01807,
				"method": "rhf"
			},
			{
				"type": "unocc",
				"energy": 0.04567,
				"method": "rhf"
			},
			{
				"type": "unocc",
				"energy": 0.07626,
				"method": "rhf"
			},
			{
				"type": "unocc",
				"energy": 0.09673,
				"method": "rhf"
			}
		],
		"cosmo_sigma_profile": { 
			"-0.025": 0.0,
			"-0.024": 0.0,
			"-0.023": 0.0,
			"-0.022": 0.0,
			"-0.021": 0.0,
			"-0.02": 0.0,
			"-0.019": 0.0,
			"-0.018": 0.0,
			"-0.017": 0.0,
			"-0.016": 0.0,
			"-0.015": 0.0,
			"-0.014": 0.0,
			"-0.013": 0.0,
			"-0.012": 0.0,
			"-0.011": 0.0,
			"-0.01": 0.78987530413,
			"-0.009": 1.65638132591,
			"-0.008": 3.71153986046,
			"-0.007": 5.92387829081,
			"-0.006": 9.89884784237,
			"-0.005": 18.8820868256,
			"-0.004": 27.1662486474,
			"-0.003": 18.4168072465,
			"-0.002": 15.1654186646,
			"-0.001": 15.359122244,
			"0.0": 13.1522922225,
			"0.001": 14.1878215451,
			"0.002": 11.853056396,
			"0.003": 9.50059326484,
			"0.004": 11.2036765137,
			"0.005": 10.4376435455,
			"0.006": 6.68494389454,
			"0.007": 5.19769953336,
			"0.008": 4.83329281614,
			"0.009": 4.11281161383,
			"0.01": 1.84888207963,
			"0.011": 2.92123977489,
			"0.012": 2.70924484416,
			"0.013": 2.50335107502,
			"0.014": 0.875781922591,
			"0.015": 0.738239059973,
			"0.016": 0.0866991283081,
			"0.017": 0.0,
			"0.018": 0.0,
			"0.019": 0.0,
			"0.02": 0.0,
			"0.021": 0.0,
			"0.022": 0.0,
			"0.023": 0.0,
			"0.024": 0.0,
			"0.025": 0.0
		}
	}
}
