{
	 "smiles": "C(C(=N/NC1=CC=CC=C1)C1=C2C=CC=CC2=CC=C1)C1=CC=CC=C1", 
	 "Tm": 374.15, 
	 "num_atms": 46, 
	 "gaussian": { 
		 "optdone": 1, 
		 "sigma_profile": "yes", 
		 "theory": "DFT", 
		 "functional": "B3LYP", 
		 "basiset": "6-31G**", 
		 "properties": { 
			 "R2extent": 10048.7378, 
			 "electric_dipole_moment_norm": 2.34913601352, 
			 "electric_quadrupole_moment_norm": 10.620897069, 
			 "total_energy": -1036.09404705, 
			 "HOMO_LUMO_gap": 0.14138, 
			 "cosmo_polarized_energy": -12.44, 
			 "cosmo_cavitation_energy": 49.47, 
			 "cosmo_dispersion_energy": -33.22, 
			 "cosmo_repulsion_energy": 2.51, 
			 "cosmo_total_nonelectrostatic_energy": 18.76, 
			 "SMD_solvation_energy": 7.15 
		},
		"coords": [
			{
				"x": -0.9763665095,
				"y": 1.2331345664,
				"z": -1.6743989155,
				"element": "C" 
			},
			{
				"x": -0.3491710973,
				"y": -0.1029853282,
				"z": -1.2905969183,
				"element": "C" 
			},
			{
				"x": -0.7890847753,
				"y": -0.8286500121,
				"z": -0.3117708768,
				"element": "N" 
			},
			{
				"x": -1.8260239949,
				"y": -0.3906691609,
				"z": 0.4299959063,
				"element": "N" 
			},
			{
				"x": -2.2813006602,
				"y": -1.1420235609,
				"z": 1.5190768408,
				"element": "C" 
			},
			{
				"x": -1.8455407816,
				"y": -2.457028409,
				"z": 1.7443750702,
				"element": "C" 
			},
			{
				"x": -2.3476842953,
				"y": -3.1701964862,
				"z": 2.8306926303,
				"element": "C" 
			},
			{
				"x": -3.2823290694,
				"y": -2.6003681367,
				"z": 3.6991184571,
				"element": "C" 
			},
			{
				"x": -3.7140847237,
				"y": -1.2925478517,
				"z": 3.4678599257,
				"element": "C" 
			},
			{
				"x": -3.2206801765,
				"y": -0.5642019006,
				"z": 2.3880809459,
				"element": "C" 
			},
			{
				"x": 0.7850032002,
				"y": -0.6393548421,
				"z": -2.0923543586,
				"element": "C" 
			},
			{
				"x": 1.941196373,
				"y": -1.262722692,
				"z": -1.4945768114,
				"element": "C" 
			},
			{
				"x": 2.1393881217,
				"y": -1.3727331371,
				"z": -0.0888526223,
				"element": "C" 
			},
			{
				"x": 3.2724393266,
				"y": -1.9596597358,
				"z": 0.4308181885,
				"element": "C" 
			},
			{
				"x": 4.2750606488,
				"y": -2.4763533796,
				"z": -0.422052496,
				"element": "C" 
			},
			{
				"x": 4.1260082897,
				"y": -2.3774161191,
				"z": -1.785289148,
				"element": "C" 
			},
			{
				"x": 2.9753335019,
				"y": -1.7682851847,
				"z": -2.3564937379,
				"element": "C" 
			},
			{
				"x": 2.8457793663,
				"y": -1.6469944287,
				"z": -3.7649031095,
				"element": "C" 
			},
			{
				"x": 1.743409881,
				"y": -1.0360833178,
				"z": -4.312769949,
				"element": "C" 
			},
			{
				"x": 0.7257910499,
				"y": -0.5325647174,
				"z": -3.4755573173,
				"element": "C" 
			},
			{
				"x": -0.8066492796,
				"y": 2.3427053072,
				"z": -0.6398723208,
				"element": "C" 
			},
			{
				"x": 0.4298919111,
				"y": 2.567016111,
				"z": -0.0165990217,
				"element": "C" 
			},
			{
				"x": 0.5857931016,
				"y": 3.6070793902,
				"z": 0.89920998,
				"element": "C" 
			},
			{
				"x": -0.4911903307,
				"y": 4.4408212216,
				"z": 1.2105640899,
				"element": "C" 
			},
			{
				"x": -1.7260712786,
				"y": 4.2270056335,
				"z": 0.5982019199,
				"element": "C" 
			},
			{
				"x": -1.8805476417,
				"y": 3.1852939442,
				"z": -0.3198148621,
				"element": "C" 
			},
			{
				"x": -2.0498112049,
				"y": 1.0857825994,
				"z": -1.8604873145,
				"element": "H" 
			},
			{
				"x": -0.5417368269,
				"y": 1.5717363535,
				"z": -2.61861468,
				"element": "H" 
			},
			{
				"x": -2.0806163028,
				"y": 0.5917379668,
				"z": 0.4078847115,
				"element": "H" 
			},
			{
				"x": -1.1222974368,
				"y": -2.8956985325,
				"z": 1.0680582266,
				"element": "H" 
			},
			{
				"x": -2.0029104248,
				"y": -4.1871355737,
				"z": 2.9976304466,
				"element": "H" 
			},
			{
				"x": -3.6682472251,
				"y": -3.166091025,
				"z": 4.5414220759,
				"element": "H" 
			},
			{
				"x": -4.4389776598,
				"y": -0.8311311171,
				"z": 4.1327758582,
				"element": "H" 
			},
			{
				"x": -3.5589072062,
				"y": 0.4550737422,
				"z": 2.2157209603,
				"element": "H" 
			},
			{
				"x": 1.3750706313,
				"y": -0.9985936872,
				"z": 0.5785457527,
				"element": "H" 
			},
			{
				"x": 3.395748944,
				"y": -2.0264271226,
				"z": 1.5080762736,
				"element": "H" 
			},
			{
				"x": 5.1603381232,
				"y": -2.9427062895,
				"z": 0.0007953478,
				"element": "H" 
			},
			{
				"x": 4.892925797,
				"y": -2.760520685,
				"z": -2.4538210517,
				"element": "H" 
			},
			{
				"x": 3.6355038249,
				"y": -2.0409996067,
				"z": -4.3992663238,
				"element": "H" 
			},
			{
				"x": 1.6425770808,
				"y": -0.9440585859,
				"z": -5.3902654394,
				"element": "H" 
			},
			{
				"x": -0.1453045446,
				"y": -0.078440169,
				"z": -3.9385341804,
				"element": "H" 
			},
			{
				"x": 1.2720582968,
				"y": 1.9208846606,
				"z": -0.2481806765,
				"element": "H" 
			},
			{
				"x": 1.5506407514,
				"y": 3.7658243682,
				"z": 1.3724728493,
				"element": "H" 
			},
			{
				"x": -0.3680591941,
				"y": 5.2485148787,
				"z": 1.9260786889,
				"element": "H" 
			},
			{
				"x": -2.570794381,
				"y": 4.8685864476,
				"z": 0.8327964881,
				"element": "H" 
			},
			{
				"x": -2.8445711998,
				"y": 3.0287436038,
				"z": -0.7994795023,
				"element": "H" 
			}
		],
		 "valence_orbital": [ 
			{
				"type": "occ",
				"energy": -0.24585,
				"method": "rhf"
			},
			{
				"type": "occ",
				"energy": -0.24187,
				"method": "rhf"
			},
			{
				"type": "occ",
				"energy": -0.23974,
				"method": "rhf"
			},
			{
				"type": "occ",
				"energy": -0.21582,
				"method": "rhf"
			},
			{
				"type": "occ",
				"energy": -0.185,
				"method": "rhf"
			},
			{
				"type": "unocc",
				"energy": -0.04362,
				"method": "rhf"
			},
			{
				"type": "unocc",
				"energy": -0.01322,
				"method": "rhf"
			},
			{
				"type": "unocc",
				"energy": -0.01202,
				"method": "rhf"
			},
			{
				"type": "unocc",
				"energy": -0.00609,
				"method": "rhf"
			},
			{
				"type": "unocc",
				"energy": -0.00449,
				"method": "rhf"
			}
		],
		"cosmo_sigma_profile": { 
			"-0.025": 0.0,
			"-0.024": 0.0,
			"-0.023": 0.0,
			"-0.022": 0.0,
			"-0.021": 0.0,
			"-0.02": 0.0,
			"-0.019": 0.0,
			"-0.018": 0.0,
			"-0.017": 0.0,
			"-0.016": 0.0,
			"-0.015": 0.0,
			"-0.014": 0.0,
			"-0.013": 0.0,
			"-0.012": 0.0,
			"-0.011": 0.00213008459325,
			"-0.01": 0.514174899096,
			"-0.009": 1.83004686797,
			"-0.008": 2.0010668836,
			"-0.007": 2.56986644805,
			"-0.006": 20.2950089329,
			"-0.005": 33.7150617168,
			"-0.004": 35.3989890896,
			"-0.003": 39.6795955315,
			"-0.002": 29.5701145399,
			"-0.001": 26.1240983339,
			"0.0": 23.0444997019,
			"0.001": 23.2944585824,
			"0.002": 25.3669157057,
			"0.003": 27.4346076764,
			"0.004": 40.5566928875,
			"0.005": 36.6008449143,
			"0.006": 19.5662516466,
			"0.007": 5.95352097062,
			"0.008": 1.63591116263,
			"0.009": 1.15638628813,
			"0.01": 0.413784017822,
			"0.011": 0.0,
			"0.012": 0.0,
			"0.013": 0.0,
			"0.014": 0.0,
			"0.015": 0.0,
			"0.016": 0.0,
			"0.017": 0.0,
			"0.018": 0.0,
			"0.019": 0.0,
			"0.02": 0.0,
			"0.021": 0.0,
			"0.022": 0.0,
			"0.023": 0.0,
			"0.024": 0.0,
			"0.025": 0.0
		}
	}
}
