{
	 "smiles": "COC1=C(O)C(O)=CC(C=O)=C1", 
	 "Tm": 405.15, 
	 "num_atms": 20, 
	 "gaussian": { 
		 "optdone": 1, 
		 "sigma_profile": "yes", 
		 "theory": "DFT", 
		 "functional": "B3LYP", 
		 "basiset": "6-31G**", 
		 "properties": { 
			 "R2extent": 2433.9904, 
			 "electric_dipole_moment_norm": 3.99318997795, 
			 "electric_quadrupole_moment_norm": 11.2271052707, 
			 "total_energy": -610.543073062, 
			 "HOMO_LUMO_gap": 0.16786, 
			 "cosmo_polarized_energy": -12.4, 
			 "cosmo_cavitation_energy": 24.65, 
			 "cosmo_dispersion_energy": -18.29, 
			 "cosmo_repulsion_energy": 1.46, 
			 "cosmo_total_nonelectrostatic_energy": 7.81, 
			 "SMD_solvation_energy": 6.71 
		},
		"coords": [
			{
				"x": 2.4077808836,
				"y": -0.3837391896,
				"z": 0.3054150382,
				"element": "C" 
			},
			{
				"x": 1.3448501131,
				"y": -0.3413278287,
				"z": -0.640356838,
				"element": "O" 
			},
			{
				"x": 0.0913418898,
				"y": -0.0312529392,
				"z": -0.1785117551,
				"element": "C" 
			},
			{
				"x": -0.8830229305,
				"y": -0.0169151178,
				"z": -1.193327533,
				"element": "C" 
			},
			{
				"x": -0.5645644621,
				"y": -0.2906086524,
				"z": -2.4921589512,
				"element": "O" 
			},
			{
				"x": -2.2180353201,
				"y": 0.2804324906,
				"z": -0.9007333738,
				"element": "C" 
			},
			{
				"x": -3.1519337943,
				"y": 0.2913137153,
				"z": -1.8909171765,
				"element": "O" 
			},
			{
				"x": -2.5800618506,
				"y": 0.565143833,
				"z": 0.4153295232,
				"element": "C" 
			},
			{
				"x": -1.6080896349,
				"y": 0.5499039945,
				"z": 1.4218044659,
				"element": "C" 
			},
			{
				"x": -1.9969766275,
				"y": 0.8520086887,
				"z": 2.8120716132,
				"element": "C" 
			},
			{
				"x": -1.2315300732,
				"y": 0.8657651839,
				"z": 3.7602619723,
				"element": "O" 
			},
			{
				"x": -0.2639704369,
				"y": 0.2513756939,
				"z": 1.1324370545,
				"element": "C" 
			},
			{
				"x": 2.5474263864,
				"y": 0.5909234856,
				"z": 0.7874491904,
				"element": "H" 
			},
			{
				"x": 3.3047644232,
				"y": -0.6439530812,
				"z": -0.2577469176,
				"element": "H" 
			},
			{
				"x": 2.2237017051,
				"y": -1.1440213105,
				"z": 1.0734732761,
				"element": "H" 
			},
			{
				"x": 0.3872704038,
				"y": -0.4735649399,
				"z": -2.5254551529,
				"element": "H" 
			},
			{
				"x": -2.7056562634,
				"y": 0.0708931217,
				"z": -2.7222853678,
				"element": "H" 
			},
			{
				"x": -3.6168306383,
				"y": 0.7957837272,
				"z": 0.6406797836,
				"element": "H" 
			},
			{
				"x": -3.0781966732,
				"y": 1.0764223828,
				"z": 2.9496639387,
				"element": "H" 
			},
			{
				"x": 0.4496328999,
				"y": 0.2527167422,
				"z": 1.9471072098,
				"element": "H" 
			}
		],
		 "valence_orbital": [ 
			{
				"type": "occ",
				"energy": -0.3565,
				"method": "rhf"
			},
			{
				"type": "occ",
				"energy": -0.31185,
				"method": "rhf"
			},
			{
				"type": "occ",
				"energy": -0.2483,
				"method": "rhf"
			},
			{
				"type": "occ",
				"energy": -0.23212,
				"method": "rhf"
			},
			{
				"type": "occ",
				"energy": -0.21954,
				"method": "rhf"
			},
			{
				"type": "unocc",
				"energy": -0.05168,
				"method": "rhf"
			},
			{
				"type": "unocc",
				"energy": 0.00755,
				"method": "rhf"
			},
			{
				"type": "unocc",
				"energy": 0.05164,
				"method": "rhf"
			},
			{
				"type": "unocc",
				"energy": 0.057,
				"method": "rhf"
			},
			{
				"type": "unocc",
				"energy": 0.09254,
				"method": "rhf"
			}
		],
		"cosmo_sigma_profile": { 
			"-0.025": 0.0,
			"-0.024": 0.0,
			"-0.023": 0.0,
			"-0.022": 0.0,
			"-0.021": 0.0,
			"-0.02": 0.0,
			"-0.019": 0.0,
			"-0.018": 0.0,
			"-0.017": 0.0,
			"-0.016": 0.254922976169,
			"-0.015": 0.936998034592,
			"-0.014": 1.76565792201,
			"-0.013": 0.987687346285,
			"-0.012": 0.413175301802,
			"-0.011": 1.45011898785,
			"-0.01": 2.48290308049,
			"-0.009": 0.87192690363,
			"-0.008": 1.1903990397,
			"-0.007": 5.30561206674,
			"-0.006": 14.712213419,
			"-0.005": 15.6384849803,
			"-0.004": 15.2680278832,
			"-0.003": 12.3338334547,
			"-0.002": 9.51310381865,
			"-0.001": 9.66950263201,
			"0.0": 11.2679674778,
			"0.001": 14.974824524,
			"0.002": 15.7593647722,
			"0.003": 16.2760269634,
			"0.004": 8.80486785418,
			"0.005": 5.72211373614,
			"0.006": 5.05766112995,
			"0.007": 3.53603888681,
			"0.008": 2.84078580221,
			"0.009": 4.08980769588,
			"0.01": 3.94020202022,
			"0.011": 4.92523642363,
			"0.012": 4.5267411439,
			"0.013": 1.61276676062,
			"0.014": 0.185701918838,
			"0.015": 0.0,
			"0.016": 0.0,
			"0.017": 0.0,
			"0.018": 0.0,
			"0.019": 0.0,
			"0.02": 0.0,
			"0.021": 0.0,
			"0.022": 0.0,
			"0.023": 0.0,
			"0.024": 0.0,
			"0.025": 0.0
		}
	}
}
