{
	 "smiles": "C1=CC2=C(C=C1)C1=C(C=C2)C=CC2=C1C=CC=C2", 
	 "Tm": 341.15, 
	 "num_atms": 30, 
	 "gaussian": { 
		 "optdone": 1, 
		 "sigma_profile": "yes", 
		 "theory": "DFT", 
		 "functional": "B3LYP", 
		 "basiset": "6-31G**", 
		 "properties": { 
			 "R2extent": 4957.3324, 
			 "electric_dipole_moment_norm": 0.0596929644096, 
			 "electric_quadrupole_moment_norm": 13.6376409016, 
			 "total_energy": -693.176568409, 
			 "HOMO_LUMO_gap": 0.15535, 
			 "cosmo_polarized_energy": -6.6, 
			 "cosmo_cavitation_energy": 32.36, 
			 "cosmo_dispersion_energy": -24.28, 
			 "cosmo_repulsion_energy": 1.79, 
			 "cosmo_total_nonelectrostatic_energy": 9.86, 
			 "SMD_solvation_energy": 4.55 
		},
		"coords": [
			{
				"x": -3.3999431305,
				"y": 0.1859266036,
				"z": -3.8963072544,
				"element": "C" 
			},
			{
				"x": -2.0346106887,
				"y": 0.043294989,
				"z": -4.0241922601,
				"element": "C" 
			},
			{
				"x": -1.1948967069,
				"y": -0.0448589909,
				"z": -2.8869102104,
				"element": "C" 
			},
			{
				"x": -1.7518803661,
				"y": 0.0905623204,
				"z": -1.5721956111,
				"element": "C" 
			},
			{
				"x": -3.169216266,
				"y": 0.1532044088,
				"z": -1.4834253789,
				"element": "C" 
			},
			{
				"x": -3.9700504639,
				"y": 0.2034389258,
				"z": -2.6088476422,
				"element": "C" 
			},
			{
				"x": -0.8625353068,
				"y": 0.0561540922,
				"z": -0.4191851036,
				"element": "C" 
			},
			{
				"x": 0.4659972117,
				"y": -0.3961913897,
				"z": -0.6264343128,
				"element": "C" 
			},
			{
				"x": 0.9742414155,
				"y": -0.5722242923,
				"z": -1.9515981163,
				"element": "C" 
			},
			{
				"x": 0.1935071805,
				"y": -0.3415423043,
				"z": -3.0429828078,
				"element": "C" 
			},
			{
				"x": 1.3169510881,
				"y": -0.6828515043,
				"z": 0.4866907449,
				"element": "C" 
			},
			{
				"x": 0.8892479197,
				"y": -0.5018027358,
				"z": 1.7666032451,
				"element": "C" 
			},
			{
				"x": -0.3774644473,
				"y": 0.1055377553,
				"z": 2.0247064644,
				"element": "C" 
			},
			{
				"x": -1.2381501931,
				"y": 0.4524783178,
				"z": 0.9311409574,
				"element": "C" 
			},
			{
				"x": -2.3686574772,
				"y": 1.2570658762,
				"z": 1.2397910201,
				"element": "C" 
			},
			{
				"x": -2.6944963188,
				"y": 1.5905639481,
				"z": 2.5409580273,
				"element": "C" 
			},
			{
				"x": -1.9016835648,
				"y": 1.1445011899,
				"z": 3.6158344264,
				"element": "C" 
			},
			{
				"x": -0.7519689255,
				"y": 0.4310225676,
				"z": 3.351396455,
				"element": "C" 
			},
			{
				"x": -4.0330526832,
				"y": 0.2428865895,
				"z": -4.7768452358,
				"element": "H" 
			},
			{
				"x": -1.5793194262,
				"y": -0.0348017716,
				"z": -5.008273529,
				"element": "H" 
			},
			{
				"x": -3.6459112582,
				"y": 0.1041435751,
				"z": -0.5141559681,
				"element": "H" 
			},
			{
				"x": -5.0498159318,
				"y": 0.2371247073,
				"z": -2.4950173109,
				"element": "H" 
			},
			{
				"x": 2.0123491959,
				"y": -0.8724541123,
				"z": -2.0671132468,
				"element": "H" 
			},
			{
				"x": 0.5971936263,
				"y": -0.4370887592,
				"z": -4.0474337346,
				"element": "H" 
			},
			{
				"x": 2.3105532856,
				"y": -1.0744219126,
				"z": 0.2852498099,
				"element": "H" 
			},
			{
				"x": 1.5255797987,
				"y": -0.7601764512,
				"z": 2.6088240121,
				"element": "H" 
			},
			{
				"x": -2.9641546272,
				"y": 1.6708885989,
				"z": 0.4377510933,
				"element": "H" 
			},
			{
				"x": -3.5600138341,
				"y": 2.2189876421,
				"z": 2.7305561673,
				"element": "H" 
			},
			{
				"x": -2.1720426331,
				"y": 1.3953254089,
				"z": 4.6373091031,
				"element": "H" 
			},
			{
				"x": -0.092656473,
				"y": 0.1299067078,
				"z": 4.1616061967,
				"element": "H" 
			}
		],
		 "valence_orbital": [ 
			{
				"type": "occ",
				"energy": -0.28869,
				"method": "rhf"
			},
			{
				"type": "occ",
				"energy": -0.25377,
				"method": "rhf"
			},
			{
				"type": "occ",
				"energy": -0.25053,
				"method": "rhf"
			},
			{
				"type": "occ",
				"energy": -0.21391,
				"method": "rhf"
			},
			{
				"type": "occ",
				"energy": -0.20403,
				"method": "rhf"
			},
			{
				"type": "unocc",
				"energy": -0.04868,
				"method": "rhf"
			},
			{
				"type": "unocc",
				"energy": -0.03583,
				"method": "rhf"
			},
			{
				"type": "unocc",
				"energy": -0.00316,
				"method": "rhf"
			},
			{
				"type": "unocc",
				"energy": 0.00577,
				"method": "rhf"
			},
			{
				"type": "unocc",
				"energy": 0.04218,
				"method": "rhf"
			}
		],
		"cosmo_sigma_profile": { 
			"-0.025": 0.0,
			"-0.024": 0.0,
			"-0.023": 0.0,
			"-0.022": 0.0,
			"-0.021": 0.0,
			"-0.02": 0.0,
			"-0.019": 0.0,
			"-0.018": 0.0,
			"-0.017": 0.0,
			"-0.016": 0.0,
			"-0.015": 0.0,
			"-0.014": 0.0,
			"-0.013": 0.0,
			"-0.012": 0.0,
			"-0.011": 0.0,
			"-0.01": 0.0,
			"-0.009": 0.0,
			"-0.008": 0.0,
			"-0.007": 0.67805235351,
			"-0.006": 17.9653210836,
			"-0.005": 22.9170153287,
			"-0.004": 24.3675401309,
			"-0.003": 21.2908567525,
			"-0.002": 15.1733560828,
			"-0.001": 14.6877048749,
			"0.0": 13.9458287199,
			"0.001": 15.7812425761,
			"0.002": 18.2093735792,
			"0.003": 32.3824646366,
			"0.004": 37.605180835,
			"0.005": 23.1629564859,
			"0.006": 2.71749258869,
			"0.007": 0.0,
			"0.008": 0.0,
			"0.009": 0.0,
			"0.01": 0.0,
			"0.011": 0.0,
			"0.012": 0.0,
			"0.013": 0.0,
			"0.014": 0.0,
			"0.015": 0.0,
			"0.016": 0.0,
			"0.017": 0.0,
			"0.018": 0.0,
			"0.019": 0.0,
			"0.02": 0.0,
			"0.021": 0.0,
			"0.022": 0.0,
			"0.023": 0.0,
			"0.024": 0.0,
			"0.025": 0.0
		}
	}
}
