{
	 "smiles": "CC(C)(N(=O)=O)N(=O)=O", 
	 "Tm": 327.15, 
	 "num_atms": 15, 
	 "gaussian": { 
		 "optdone": 1, 
		 "sigma_profile": "yes", 
		 "theory": "DFT", 
		 "functional": "B3LYP", 
		 "basiset": "6-31G**", 
		 "properties": { 
			 "R2extent": 2343.7609, 
			 "electric_dipole_moment_norm": 4.22739219614, 
			 "electric_quadrupole_moment_norm": 10.2672153576, 
			 "total_energy": -528.130852603, 
			 "HOMO_LUMO_gap": 0.22019, 
			 "cosmo_polarized_energy": -10.01, 
			 "cosmo_cavitation_energy": 19.92, 
			 "cosmo_dispersion_energy": -13.85, 
			 "cosmo_repulsion_energy": 1.14, 
			 "cosmo_total_nonelectrostatic_energy": 7.21, 
			 "SMD_solvation_energy": 7.93 
		},
		"coords": [
			{
				"x": -0.7531771072,
				"y": -1.9865782959,
				"z": 1.3870453556,
				"element": "C" 
			},
			{
				"x": 0.5546046967,
				"y": -1.219264914,
				"z": 1.3169456038,
				"element": "C" 
			},
			{
				"x": 0.7832997607,
				"y": -0.4342598482,
				"z": 0.0380978139,
				"element": "C" 
			},
			{
				"x": 1.7576639109,
				"y": -2.1668319468,
				"z": 1.5103625678,
				"element": "N" 
			},
			{
				"x": 1.5515427312,
				"y": -3.3677802397,
				"z": 1.4220358728,
				"element": "O" 
			},
			{
				"x": 2.8389701461,
				"y": -1.6230530113,
				"z": 1.6895936224,
				"element": "O" 
			},
			{
				"x": 0.624410187,
				"y": -0.2925432028,
				"z": 2.5494086833,
				"element": "N" 
			},
			{
				"x": 0.6727351704,
				"y": -0.854811832,
				"z": 3.6350242292,
				"element": "O" 
			},
			{
				"x": 0.5768508272,
				"y": 0.9125318385,
				"z": 2.3542268505,
				"element": "O" 
			},
			{
				"x": -0.8102554893,
				"y": -2.6916032909,
				"z": 0.5569043198,
				"element": "H" 
			},
			{
				"x": -0.8262289625,
				"y": -2.5345773465,
				"z": 2.3264539026,
				"element": "H" 
			},
			{
				"x": -1.5839038053,
				"y": -1.2794278642,
				"z": 1.3114200288,
				"element": "H" 
			},
			{
				"x": -0.0245667242,
				"y": 0.2851541444,
				"z": -0.1006299201,
				"element": "H" 
			},
			{
				"x": 1.7329494549,
				"y": 0.0991426548,
				"z": 0.080307152,
				"element": "H" 
			},
			{
				"x": 0.7915052033,
				"y": -1.1278968453,
				"z": -0.8072960824,
				"element": "H" 
			}
		],
		 "valence_orbital": [ 
			{
				"type": "occ",
				"energy": -0.33363,
				"method": "rhf"
			},
			{
				"type": "occ",
				"energy": -0.3323,
				"method": "rhf"
			},
			{
				"type": "occ",
				"energy": -0.32233,
				"method": "rhf"
			},
			{
				"type": "occ",
				"energy": -0.31783,
				"method": "rhf"
			},
			{
				"type": "occ",
				"energy": -0.31329,
				"method": "rhf"
			},
			{
				"type": "unocc",
				"energy": -0.0931,
				"method": "rhf"
			},
			{
				"type": "unocc",
				"energy": -0.08922,
				"method": "rhf"
			},
			{
				"type": "unocc",
				"energy": 0.06712,
				"method": "rhf"
			},
			{
				"type": "unocc",
				"energy": 0.07575,
				"method": "rhf"
			},
			{
				"type": "unocc",
				"energy": 0.08791,
				"method": "rhf"
			}
		],
		"cosmo_sigma_profile": { 
			"-0.025": 0.0,
			"-0.024": 0.0,
			"-0.023": 0.0,
			"-0.022": 0.0,
			"-0.021": 0.0,
			"-0.02": 0.0,
			"-0.019": 0.0,
			"-0.018": 0.0,
			"-0.017": 0.0,
			"-0.016": 0.0,
			"-0.015": 0.0,
			"-0.014": 0.0,
			"-0.013": 0.0,
			"-0.012": 0.0,
			"-0.011": 0.00218110996134,
			"-0.01": 1.19898343711,
			"-0.009": 3.86471321666,
			"-0.008": 4.83386177661,
			"-0.007": 8.26365425758,
			"-0.006": 10.307376565,
			"-0.005": 9.56261379509,
			"-0.004": 11.8711799088,
			"-0.003": 13.4667843544,
			"-0.002": 11.6082858229,
			"-0.001": 5.51296947717,
			"0.0": 4.79582723919,
			"0.001": 5.91841942485,
			"0.002": 4.58771280804,
			"0.003": 6.66374527235,
			"0.004": 6.96669164785,
			"0.005": 8.40018966213,
			"0.006": 20.261300941,
			"0.007": 11.1799175823,
			"0.008": 6.48512398889,
			"0.009": 1.24458988612,
			"0.01": 0.0,
			"0.011": 0.0,
			"0.012": 0.0,
			"0.013": 0.0,
			"0.014": 0.0,
			"0.015": 0.0,
			"0.016": 0.0,
			"0.017": 0.0,
			"0.018": 0.0,
			"0.019": 0.0,
			"0.02": 0.0,
			"0.021": 0.0,
			"0.022": 0.0,
			"0.023": 0.0,
			"0.024": 0.0,
			"0.025": 0.0
		}
	}
}
