{
	 "smiles": "CN1CCN(CCCN2C3=CC=CC=C3SC3=C2C=C(C=C3)C(F)(F)F)CC1", 
	 "Tm": 298.15, 
	 "num_atms": 52, 
	 "gaussian": { 
		 "optdone": 1, 
		 "sigma_profile": "yes", 
		 "theory": "DFT", 
		 "functional": "B3LYP", 
		 "basiset": "6-31G**", 
		 "properties": { 
			 "R2extent": 13615.2638, 
			 "electric_dipole_moment_norm": 2.63629074459, 
			 "electric_quadrupole_moment_norm": 6.31221045514, 
			 "total_energy": -1676.64783336, 
			 "HOMO_LUMO_gap": 0.15398, 
			 "cosmo_polarized_energy": -10.85, 
			 "cosmo_cavitation_energy": 53.05, 
			 "cosmo_dispersion_energy": -35.85, 
			 "cosmo_repulsion_energy": 2.51, 
			 "cosmo_total_nonelectrostatic_energy": 19.71, 
			 "SMD_solvation_energy": 3.41 
		},
		"coords": [
			{
				"x": 0.941237905,
				"y": 2.0658775588,
				"z": 4.0171987579,
				"element": "C" 
			},
			{
				"x": 1.7079239134,
				"y": 2.9490934172,
				"z": 3.1434299601,
				"element": "N" 
			},
			{
				"x": 2.9039970816,
				"y": 2.3412003604,
				"z": 2.5609199224,
				"element": "C" 
			},
			{
				"x": 2.6099016245,
				"y": 1.4284678284,
				"z": 1.3564048664,
				"element": "C" 
			},
			{
				"x": 1.8667993912,
				"y": 2.1857901964,
				"z": 0.3534529292,
				"element": "N" 
			},
			{
				"x": 1.7978908744,
				"y": 1.6357549029,
				"z": -0.9941943496,
				"element": "C" 
			},
			{
				"x": 0.9070024797,
				"y": 0.3943658572,
				"z": -1.2671724806,
				"element": "C" 
			},
			{
				"x": 1.5660720318,
				"y": -0.9508505851,
				"z": -0.893856993,
				"element": "C" 
			},
			{
				"x": 0.7784921118,
				"y": -2.1601013111,
				"z": -1.1734430147,
				"element": "N" 
			},
			{
				"x": 0.8184367827,
				"y": -2.7152526378,
				"z": -2.4756703088,
				"element": "C" 
			},
			{
				"x": 1.3617006725,
				"y": -2.0075052992,
				"z": -3.562908721,
				"element": "C" 
			},
			{
				"x": 1.4114220399,
				"y": -2.5642323131,
				"z": -4.8419866236,
				"element": "C" 
			},
			{
				"x": 0.892727422,
				"y": -3.8322632329,
				"z": -5.0840227648,
				"element": "C" 
			},
			{
				"x": 0.3423329895,
				"y": -4.5474331425,
				"z": -4.0202803558,
				"element": "C" 
			},
			{
				"x": 0.3291028206,
				"y": -4.0138461616,
				"z": -2.7315176577,
				"element": "C" 
			},
			{
				"x": -0.1936184301,
				"y": -5.0666020964,
				"z": -1.396249833,
				"element": "S" 
			},
			{
				"x": -0.7864242273,
				"y": -3.8349082295,
				"z": -0.2665133021,
				"element": "C" 
			},
			{
				"x": -0.1928053303,
				"y": -2.55145651,
				"z": -0.2294460415,
				"element": "C" 
			},
			{
				"x": -0.5927434665,
				"y": -1.6916251728,
				"z": 0.8044761854,
				"element": "C" 
			},
			{
				"x": -1.5447821164,
				"y": -2.0814930719,
				"z": 1.7504910903,
				"element": "C" 
			},
			{
				"x": -2.1496609144,
				"y": -3.3319680809,
				"z": 1.6805123001,
				"element": "C" 
			},
			{
				"x": -1.7670915383,
				"y": -4.197744952,
				"z": 0.6562479265,
				"element": "C" 
			},
			{
				"x": -1.8695251953,
				"y": -1.125808542,
				"z": 2.8633960822,
				"element": "C" 
			},
			{
				"x": -0.8988133486,
				"y": -1.1117665227,
				"z": 3.811619609,
				"element": "F" 
			},
			{
				"x": -3.025395019,
				"y": -1.4340851751,
				"z": 3.4855032832,
				"element": "F" 
			},
			{
				"x": -1.9772443394,
				"y": 0.1516630787,
				"z": 2.4165509309,
				"element": "F" 
			},
			{
				"x": 0.6132433334,
				"y": 2.7138774905,
				"z": 0.8884008711,
				"element": "C" 
			},
			{
				"x": 0.919039228,
				"y": 3.609518267,
				"z": 2.103060725,
				"element": "C" 
			},
			{
				"x": 0.4787148398,
				"y": 1.1893784081,
				"z": 3.5361663548,
				"element": "H" 
			},
			{
				"x": 0.1371908234,
				"y": 2.6419253678,
				"z": 4.4881195108,
				"element": "H" 
			},
			{
				"x": 1.5961221525,
				"y": 1.6981872182,
				"z": 4.814758888,
				"element": "H" 
			},
			{
				"x": 3.4345928884,
				"y": 1.7811508322,
				"z": 3.3391347784,
				"element": "H" 
			},
			{
				"x": 3.5633875758,
				"y": 3.1492482972,
				"z": 2.2171511567,
				"element": "H" 
			},
			{
				"x": 3.553515796,
				"y": 1.0845741231,
				"z": 0.915248104,
				"element": "H" 
			},
			{
				"x": 2.06677696,
				"y": 0.5287915131,
				"z": 1.7079969025,
				"element": "H" 
			},
			{
				"x": 1.4383540166,
				"y": 2.4435410112,
				"z": -1.6443769923,
				"element": "H" 
			},
			{
				"x": 2.8261362947,
				"y": 1.4187273079,
				"z": -1.3167321845,
				"element": "H" 
			},
			{
				"x": -0.0527597017,
				"y": 0.5106055528,
				"z": -0.7550422627,
				"element": "H" 
			},
			{
				"x": 0.661524636,
				"y": 0.384116703,
				"z": -2.3346112799,
				"element": "H" 
			},
			{
				"x": 2.5157778351,
				"y": -1.0527352285,
				"z": -1.4284221701,
				"element": "H" 
			},
			{
				"x": 1.8175257987,
				"y": -0.9738746929,
				"z": 0.1687698465,
				"element": "H" 
			},
			{
				"x": 1.7553422559,
				"y": -1.0101733549,
				"z": -3.4232174883,
				"element": "H" 
			},
			{
				"x": 1.8490433394,
				"y": -1.985911051,
				"z": -5.6501747042,
				"element": "H" 
			},
			{
				"x": 0.9150766982,
				"y": -4.2640486717,
				"z": -6.0793092523,
				"element": "H" 
			},
			{
				"x": -0.0628588544,
				"y": -5.5425726654,
				"z": -4.178844227,
				"element": "H" 
			},
			{
				"x": -0.1723238721,
				"y": -0.7010064872,
				"z": 0.8882736838,
				"element": "H" 
			},
			{
				"x": -2.9010723298,
				"y": -3.6256759845,
				"z": 2.4034840431,
				"element": "H" 
			},
			{
				"x": -2.2177368078,
				"y": -5.1826299984,
				"z": 0.5813709768,
				"element": "H" 
			},
			{
				"x": 0.1220867188,
				"y": 3.3110047428,
				"z": 0.1101134414,
				"element": "H" 
			},
			{
				"x": -0.0984611868,
				"y": 1.9178225641,
				"z": 1.1815615772,
				"element": "H" 
			},
			{
				"x": 1.4894280601,
				"y": 4.4770591796,
				"z": 1.7453120293,
				"element": "H" 
			},
			{
				"x": -0.0136027132,
				"y": 3.9786293921,
				"z": 2.5439662747,
				"element": "H" 
			}
		],
		 "valence_orbital": [ 
			{
				"type": "occ",
				"energy": -0.26589,
				"method": "rhf"
			},
			{
				"type": "occ",
				"energy": -0.23366,
				"method": "rhf"
			},
			{
				"type": "occ",
				"energy": -0.22056,
				"method": "rhf"
			},
			{
				"type": "occ",
				"energy": -0.19021,
				"method": "rhf"
			},
			{
				"type": "occ",
				"energy": -0.18888,
				"method": "rhf"
			},
			{
				"type": "unocc",
				"energy": -0.0349,
				"method": "rhf"
			},
			{
				"type": "unocc",
				"energy": -0.02158,
				"method": "rhf"
			},
			{
				"type": "unocc",
				"energy": -0.01147,
				"method": "rhf"
			},
			{
				"type": "unocc",
				"energy": 0.0095,
				"method": "rhf"
			},
			{
				"type": "unocc",
				"energy": 0.02975,
				"method": "rhf"
			}
		],
		"cosmo_sigma_profile": { 
			"-0.025": 0.0,
			"-0.024": 0.0,
			"-0.023": 0.0,
			"-0.022": 0.0,
			"-0.021": 0.0,
			"-0.02": 0.0,
			"-0.019": 0.0,
			"-0.018": 0.0,
			"-0.017": 0.0,
			"-0.016": 0.0,
			"-0.015": 0.0,
			"-0.014": 0.0,
			"-0.013": 0.0,
			"-0.012": 0.0,
			"-0.011": 0.0,
			"-0.01": 0.0,
			"-0.009": 0.0,
			"-0.008": 0.139183348681,
			"-0.007": 4.94184630265,
			"-0.006": 14.0550030199,
			"-0.005": 18.720820338,
			"-0.004": 30.5749782617,
			"-0.003": 46.0866252908,
			"-0.002": 43.3220098806,
			"-0.001": 43.1457841196,
			"0.0": 39.961209438,
			"0.001": 31.8045637901,
			"0.002": 42.3330119244,
			"0.003": 49.8382376123,
			"0.004": 22.15957229,
			"0.005": 13.4452363629,
			"0.006": 6.33598437761,
			"0.007": 4.22307200884,
			"0.008": 1.78687602107,
			"0.009": 1.33785728114,
			"0.01": 1.58669806132,
			"0.011": 1.00372046094,
			"0.012": 1.11598424397,
			"0.013": 1.03769611879,
			"0.014": 0.406212720638,
			"0.015": 0.927326172006,
			"0.016": 0.583437882442,
			"0.017": 0.175522810601,
			"0.018": 0.0,
			"0.019": 0.0,
			"0.02": 0.0,
			"0.021": 0.0,
			"0.022": 0.0,
			"0.023": 0.0,
			"0.024": 0.0,
			"0.025": 0.0
		}
	}
}
