{
	 "smiles": "CC(C)N1N=CC2=C1N=C(C=C2C(O)=O)C1CC1", 
	 "Tm": 418.15, 
	 "num_atms": 33, 
	 "gaussian": { 
		 "optdone": 1, 
		 "sigma_profile": "yes", 
		 "theory": "DFT", 
		 "functional": "B3LYP", 
		 "basiset": "6-31G**", 
		 "properties": { 
			 "R2extent": 5089.6771, 
			 "electric_dipole_moment_norm": 5.30604107221, 
			 "electric_quadrupole_moment_norm": 22.0547152881, 
			 "total_energy": -819.108421251, 
			 "HOMO_LUMO_gap": 0.15995, 
			 "cosmo_polarized_energy": -16.17, 
			 "cosmo_cavitation_energy": 36.37, 
			 "cosmo_dispersion_energy": -25.18, 
			 "cosmo_repulsion_energy": 1.93, 
			 "cosmo_total_nonelectrostatic_energy": 13.12, 
			 "SMD_solvation_energy": 5.72 
		},
		"coords": [
			{
				"x": 2.2540813371,
				"y": -2.1580976506,
				"z": 0.8841628632,
				"element": "C" 
			},
			{
				"x": 0.7731768166,
				"y": -2.5400305885,
				"z": 0.7708365221,
				"element": "C" 
			},
			{
				"x": -0.0139248994,
				"y": -2.2527009337,
				"z": 2.0553053037,
				"element": "C" 
			},
			{
				"x": 0.1461275898,
				"y": -1.8901444418,
				"z": -0.3906872922,
				"element": "N" 
			},
			{
				"x": -0.3581897523,
				"y": -2.6607841488,
				"z": -1.397969641,
				"element": "N" 
			},
			{
				"x": -0.8641985438,
				"y": -1.8431609421,
				"z": -2.3061128178,
				"element": "C" 
			},
			{
				"x": -0.7027121931,
				"y": -0.4871318313,
				"z": -1.908283409,
				"element": "C" 
			},
			{
				"x": -0.0414562896,
				"y": -0.5620329417,
				"z": -0.6521472106,
				"element": "C" 
			},
			{
				"x": 0.3206974457,
				"y": 0.4693565389,
				"z": 0.1216911605,
				"element": "N" 
			},
			{
				"x": 0.0182726604,
				"y": 1.6817519822,
				"z": -0.3525331663,
				"element": "C" 
			},
			{
				"x": -0.6276627523,
				"y": 1.8767748551,
				"z": -1.6031504436,
				"element": "C" 
			},
			{
				"x": -0.9882168217,
				"y": 0.7972227797,
				"z": -2.4045843265,
				"element": "C" 
			},
			{
				"x": -1.6803107732,
				"y": 0.9479287976,
				"z": -3.7274454531,
				"element": "C" 
			},
			{
				"x": -1.5259852581,
				"y": 2.1390154044,
				"z": -4.3607566357,
				"element": "O" 
			},
			{
				"x": -2.346224065,
				"y": 0.0723040356,
				"z": -4.2265187262,
				"element": "O" 
			},
			{
				"x": 0.3798785793,
				"y": 2.8615057913,
				"z": 0.4770174554,
				"element": "C" 
			},
			{
				"x": 0.3111727888,
				"y": 2.7739440414,
				"z": 1.9928633737,
				"element": "C" 
			},
			{
				"x": 1.6449596483,
				"y": 2.8386021105,
				"z": 1.3192380656,
				"element": "C" 
			},
			{
				"x": 2.7190564155,
				"y": -2.7174489918,
				"z": 1.7020240306,
				"element": "H" 
			},
			{
				"x": 2.3659911976,
				"y": -1.0903981527,
				"z": 1.0894147048,
				"element": "H" 
			},
			{
				"x": 2.7881633568,
				"y": -2.3953565918,
				"z": -0.040474336,
				"element": "H" 
			},
			{
				"x": 0.6938502286,
				"y": -3.6037965973,
				"z": 0.5315723393,
				"element": "H" 
			},
			{
				"x": -1.0593218722,
				"y": -2.5550475354,
				"z": 1.9454314019,
				"element": "H" 
			},
			{
				"x": 0.0188678452,
				"y": -1.1883741526,
				"z": 2.3019048172,
				"element": "H" 
			},
			{
				"x": 0.4199551788,
				"y": -2.8137711141,
				"z": 2.8889505182,
				"element": "H" 
			},
			{
				"x": -1.3339894536,
				"y": -2.2293971468,
				"z": -3.198120483,
				"element": "H" 
			},
			{
				"x": -0.8712528973,
				"y": 2.8943955862,
				"z": -1.8953338381,
				"element": "H" 
			},
			{
				"x": -0.8493256897,
				"y": 2.6668461476,
				"z": -3.913633057,
				"element": "H" 
			},
			{
				"x": 0.1100235171,
				"y": 3.8171915964,
				"z": 0.0368358112,
				"element": "H" 
			},
			{
				"x": -0.0507300421,
				"y": 3.6467528258,
				"z": 2.5275610531,
				"element": "H" 
			},
			{
				"x": 0.0002063343,
				"y": 1.8178179186,
				"z": 2.4007009743,
				"element": "H" 
			},
			{
				"x": 2.220978482,
				"y": 3.7568474563,
				"z": 1.3807589925,
				"element": "H" 
			},
			{
				"x": 2.2297418813,
				"y": 1.9257158933,
				"z": 1.274981449,
				"element": "H" 
			}
		],
		 "valence_orbital": [ 
			{
				"type": "occ",
				"energy": -0.29838,
				"method": "rhf"
			},
			{
				"type": "occ",
				"energy": -0.28688,
				"method": "rhf"
			},
			{
				"type": "occ",
				"energy": -0.27181,
				"method": "rhf"
			},
			{
				"type": "occ",
				"energy": -0.24628,
				"method": "rhf"
			},
			{
				"type": "occ",
				"energy": -0.23679,
				"method": "rhf"
			},
			{
				"type": "unocc",
				"energy": -0.07684,
				"method": "rhf"
			},
			{
				"type": "unocc",
				"energy": -0.01127,
				"method": "rhf"
			},
			{
				"type": "unocc",
				"energy": 0.03181,
				"method": "rhf"
			},
			{
				"type": "unocc",
				"energy": 0.04699,
				"method": "rhf"
			},
			{
				"type": "unocc",
				"energy": 0.05943,
				"method": "rhf"
			}
		],
		"cosmo_sigma_profile": { 
			"-0.025": 0.0,
			"-0.024": 0.0,
			"-0.023": 0.0,
			"-0.022": 0.0,
			"-0.021": 0.0,
			"-0.02": 0.0,
			"-0.019": 0.483149114349,
			"-0.018": 0.831430236417,
			"-0.017": 0.910577632918,
			"-0.016": 0.838187054621,
			"-0.015": 0.861803280953,
			"-0.014": 1.09692852289,
			"-0.013": 1.09758975298,
			"-0.012": 1.89546732176,
			"-0.011": 0.948530505557,
			"-0.01": 1.15733735237,
			"-0.009": 1.74315803177,
			"-0.008": 2.58868796491,
			"-0.007": 4.39371646698,
			"-0.006": 5.01979671494,
			"-0.005": 10.8847851955,
			"-0.004": 22.6309078993,
			"-0.003": 22.6379313961,
			"-0.002": 25.0736748555,
			"-0.001": 27.5761341372,
			"0.0": 39.9995896016,
			"0.001": 27.3452432824,
			"0.002": 18.8818224982,
			"0.003": 16.2522697827,
			"0.004": 9.80358230843,
			"0.005": 6.56148107155,
			"0.006": 5.26676900671,
			"0.007": 4.82448226646,
			"0.008": 4.32619243221,
			"0.009": 5.01869516236,
			"0.01": 6.86828157485,
			"0.011": 4.91663272134,
			"0.012": 3.06478204595,
			"0.013": 1.6518967351,
			"0.014": 0.745241850927,
			"0.015": 0.16636374919,
			"0.016": 0.0,
			"0.017": 0.0,
			"0.018": 0.0,
			"0.019": 0.0,
			"0.02": 0.0,
			"0.021": 0.0,
			"0.022": 0.0,
			"0.023": 0.0,
			"0.024": 0.0,
			"0.025": 0.0
		}
	}
}
