{
	 "smiles": "O=C1C=CC2C3CC(C=C3)C12", 
	 "Tm": 329.15, 
	 "num_atms": 21, 
	 "gaussian": { 
		 "optdone": 1, 
		 "sigma_profile": "yes", 
		 "theory": "DFT", 
		 "functional": "B3LYP", 
		 "basiset": "6-31G**", 
		 "properties": { 
			 "R2extent": 1947.7605, 
			 "electric_dipole_moment_norm": 3.50847936577, 
			 "electric_quadrupole_moment_norm": 9.18586988586, 
			 "total_energy": -462.25563799, 
			 "HOMO_LUMO_gap": 0.18775, 
			 "cosmo_polarized_energy": -8.72, 
			 "cosmo_cavitation_energy": 22.57, 
			 "cosmo_dispersion_energy": -17.01, 
			 "cosmo_repulsion_energy": 1.37, 
			 "cosmo_total_nonelectrostatic_energy": 6.93, 
			 "SMD_solvation_energy": 3.8 
		},
		"coords": [
			{
				"x": 2.3804844488,
				"y": 1.036952952,
				"z": 0.5108127745,
				"element": "O" 
			},
			{
				"x": 2.0938892519,
				"y": -0.0996146333,
				"z": 0.1798505622,
				"element": "C" 
			},
			{
				"x": 1.9952248295,
				"y": -1.2890118626,
				"z": 1.0631782317,
				"element": "C" 
			},
			{
				"x": 1.6225917326,
				"y": -2.3698772181,
				"z": 0.3576208589,
				"element": "C" 
			},
			{
				"x": 1.4200720442,
				"y": -2.0787068489,
				"z": -1.1060155382,
				"element": "C" 
			},
			{
				"x": -0.0567026377,
				"y": -2.1510293684,
				"z": -1.6779935517,
				"element": "C" 
			},
			{
				"x": 0.0811296519,
				"y": -1.1311519023,
				"z": -2.8373411986,
				"element": "C" 
			},
			{
				"x": 0.4679701529,
				"y": 0.0391440204,
				"z": -1.8971866335,
				"element": "C" 
			},
			{
				"x": -0.6474133786,
				"y": -0.0682296305,
				"z": -0.8662594977,
				"element": "C" 
			},
			{
				"x": -0.956635569,
				"y": -1.3657698404,
				"z": -0.736772331,
				"element": "C" 
			},
			{
				"x": 1.764829141,
				"y": -0.5684035054,
				"z": -1.2440963114,
				"element": "C" 
			},
			{
				"x": 2.1874584688,
				"y": -1.2406832699,
				"z": 2.1292853378,
				"element": "H" 
			},
			{
				"x": 1.470224216,
				"y": -3.3613277714,
				"z": 0.7770217931,
				"element": "H" 
			},
			{
				"x": 2.0618464475,
				"y": -2.7204904395,
				"z": -1.722506446,
				"element": "H" 
			},
			{
				"x": -0.3825721559,
				"y": -3.1615742997,
				"z": -1.9332709043,
				"element": "H" 
			},
			{
				"x": -0.8611283456,
				"y": -0.9594079286,
				"z": -3.3653496671,
				"element": "H" 
			},
			{
				"x": 0.8651007427,
				"y": -1.3917238263,
				"z": -3.5580514907,
				"element": "H" 
			},
			{
				"x": 0.620140411,
				"y": 1.0217873944,
				"z": -2.3452242596,
				"element": "H" 
			},
			{
				"x": -1.0234621725,
				"y": 0.7603793569,
				"z": -0.2768928019,
				"element": "H" 
			},
			{
				"x": -1.6377582695,
				"y": -1.8079956329,
				"z": -0.0179269422,
				"element": "H" 
			},
			{
				"x": 2.6306109901,
				"y": -0.3858657455,
				"z": -1.8893819839,
				"element": "H" 
			}
		],
		 "valence_orbital": [ 
			{
				"type": "occ",
				"energy": -0.3344,
				"method": "rhf"
			},
			{
				"type": "occ",
				"energy": -0.31901,
				"method": "rhf"
			},
			{
				"type": "occ",
				"energy": -0.26722,
				"method": "rhf"
			},
			{
				"type": "occ",
				"energy": -0.24416,
				"method": "rhf"
			},
			{
				"type": "occ",
				"energy": -0.23257,
				"method": "rhf"
			},
			{
				"type": "unocc",
				"energy": -0.04482,
				"method": "rhf"
			},
			{
				"type": "unocc",
				"energy": 0.01201,
				"method": "rhf"
			},
			{
				"type": "unocc",
				"energy": 0.05526,
				"method": "rhf"
			},
			{
				"type": "unocc",
				"energy": 0.09135,
				"method": "rhf"
			},
			{
				"type": "unocc",
				"energy": 0.12339,
				"method": "rhf"
			}
		],
		"cosmo_sigma_profile": { 
			"-0.025": 0.0,
			"-0.024": 0.0,
			"-0.023": 0.0,
			"-0.022": 0.0,
			"-0.021": 0.0,
			"-0.02": 0.0,
			"-0.019": 0.0,
			"-0.018": 0.0,
			"-0.017": 0.0,
			"-0.016": 0.0,
			"-0.015": 0.0,
			"-0.014": 0.0,
			"-0.013": 0.0,
			"-0.012": 0.0,
			"-0.011": 0.0,
			"-0.01": 0.0,
			"-0.009": 0.0,
			"-0.008": 0.286931032122,
			"-0.007": 2.65067249574,
			"-0.006": 4.95012238534,
			"-0.005": 12.1433583812,
			"-0.004": 19.7903452991,
			"-0.003": 24.5828071224,
			"-0.002": 21.7904467068,
			"-0.001": 16.5685552999,
			"0.0": 16.1999735577,
			"0.001": 12.5333846151,
			"0.002": 8.20430305823,
			"0.003": 6.60890445493,
			"0.004": 4.93416671386,
			"0.005": 3.92266657768,
			"0.006": 2.81757276748,
			"0.007": 2.4536332999,
			"0.008": 1.39549017523,
			"0.009": 1.38239082253,
			"0.01": 1.98418096866,
			"0.011": 2.04625023114,
			"0.012": 4.29864426294,
			"0.013": 4.44292227037,
			"0.014": 2.00289189277,
			"0.015": 0.0227971178619,
			"0.016": 0.0,
			"0.017": 0.0,
			"0.018": 0.0,
			"0.019": 0.0,
			"0.02": 0.0,
			"0.021": 0.0,
			"0.022": 0.0,
			"0.023": 0.0,
			"0.024": 0.0,
			"0.025": 0.0
		}
	}
}
