{
	 "smiles": "BrC1=CC=C(NCC2=CC=CS2)C=C1", 
	 "Tm": 323.15, 
	 "num_atms": 24, 
	 "gaussian": { 
		 "optdone": 1, 
		 "sigma_profile": "yes", 
		 "theory": "DFT", 
		 "functional": "B3LYP", 
		 "basiset": "6-31G**", 
		 "properties": { 
			 "R2extent": 7497.2083, 
			 "electric_dipole_moment_norm": 3.27151405163, 
			 "electric_quadrupole_moment_norm": 12.1799470426, 
			 "total_energy": -3449.5221872, 
			 "HOMO_LUMO_gap": 0.1843, 
			 "cosmo_polarized_energy": -9.69, 
			 "cosmo_cavitation_energy": 31.78, 
			 "cosmo_dispersion_energy": -23.8, 
			 "cosmo_repulsion_energy": 1.83, 
			 "cosmo_total_nonelectrostatic_energy": 9.82, 
			 "SMD_solvation_energy": 3.28 
		},
		"coords": [
			{
				"x": -1.55509729,
				"y": -3.4725569671,
				"z": 4.2117368997,
				"element": "Br" 
			},
			{
				"x": -1.3188529652,
				"y": -2.3535191464,
				"z": 2.6772426322,
				"element": "C" 
			},
			{
				"x": -2.0999828511,
				"y": -2.561128797,
				"z": 1.5406826987,
				"element": "C" 
			},
			{
				"x": -1.9262198115,
				"y": -1.7455309473,
				"z": 0.4283913609,
				"element": "C" 
			},
			{
				"x": -0.9699884389,
				"y": -0.7101148473,
				"z": 0.424564042,
				"element": "C" 
			},
			{
				"x": -0.8685373751,
				"y": 0.112316649,
				"z": -0.6933878791,
				"element": "N" 
			},
			{
				"x": 0.17265513,
				"y": 1.098038554,
				"z": -0.8850094648,
				"element": "C" 
			},
			{
				"x": 1.5359091262,
				"y": 0.5377352201,
				"z": -1.2429774221,
				"element": "C" 
			},
			{
				"x": 1.9095687366,
				"y": -0.7659527555,
				"z": -1.4269746108,
				"element": "C" 
			},
			{
				"x": 3.2884094,
				"y": -0.9179240918,
				"z": -1.7783259196,
				"element": "C" 
			},
			{
				"x": 3.9498614469,
				"y": 0.2730714395,
				"z": -1.8589674495,
				"element": "C" 
			},
			{
				"x": 2.8955256672,
				"y": 1.6089717963,
				"z": -1.5033847291,
				"element": "S" 
			},
			{
				"x": -0.1842599774,
				"y": -0.5281533337,
				"z": 1.5773957442,
				"element": "C" 
			},
			{
				"x": -0.3640163448,
				"y": -1.3409766202,
				"z": 2.6958744449,
				"element": "C" 
			},
			{
				"x": -2.8416575269,
				"y": -3.3519277466,
				"z": 1.5246170919,
				"element": "H" 
			},
			{
				"x": -2.5473334287,
				"y": -1.9026956534,
				"z": -0.450304639,
				"element": "H" 
			},
			{
				"x": -1.2627487847,
				"y": -0.2677866468,
				"z": -1.54132905,
				"element": "H" 
			},
			{
				"x": 0.2425992554,
				"y": 1.7148296942,
				"z": 0.0197044688,
				"element": "H" 
			},
			{
				"x": -0.1642963251,
				"y": 1.7781447695,
				"z": -1.6768993109,
				"element": "H" 
			},
			{
				"x": 1.2243528783,
				"y": -1.5962199727,
				"z": -1.3037583205,
				"element": "H" 
			},
			{
				"x": 3.7613484988,
				"y": -1.8765740268,
				"z": -1.9593506049,
				"element": "H" 
			},
			{
				"x": 4.9876407862,
				"y": 0.4551769784,
				"z": -2.1011702873,
				"element": "H" 
			},
			{
				"x": 0.5847676262,
				"y": 0.2351255347,
				"z": 1.6049726256,
				"element": "H" 
			},
			{
				"x": 0.2502525677,
				"y": -1.1886490829,
				"z": 3.5763576786,
				"element": "H" 
			}
		],
		 "valence_orbital": [ 
			{
				"type": "occ",
				"energy": -0.2735,
				"method": "rhf"
			},
			{
				"type": "occ",
				"energy": -0.25827,
				"method": "rhf"
			},
			{
				"type": "occ",
				"energy": -0.25283,
				"method": "rhf"
			},
			{
				"type": "occ",
				"energy": -0.23213,
				"method": "rhf"
			},
			{
				"type": "occ",
				"energy": -0.20013,
				"method": "rhf"
			},
			{
				"type": "unocc",
				"energy": -0.01583,
				"method": "rhf"
			},
			{
				"type": "unocc",
				"energy": -0.00709,
				"method": "rhf"
			},
			{
				"type": "unocc",
				"energy": 0.00631,
				"method": "rhf"
			},
			{
				"type": "unocc",
				"energy": 0.01647,
				"method": "rhf"
			},
			{
				"type": "unocc",
				"energy": 0.02642,
				"method": "rhf"
			}
		],
		"cosmo_sigma_profile": { 
			"-0.025": 0.0,
			"-0.024": 0.0,
			"-0.023": 0.0,
			"-0.022": 0.0,
			"-0.021": 0.0,
			"-0.02": 0.0,
			"-0.019": 0.0,
			"-0.018": 0.0,
			"-0.017": 0.0,
			"-0.016": 0.0,
			"-0.015": 0.0,
			"-0.014": 0.0365776989641,
			"-0.013": 1.19267349995,
			"-0.012": 1.22407569975,
			"-0.011": 1.44921548121,
			"-0.01": 1.99062704169,
			"-0.009": 0.881679000503,
			"-0.008": 3.00693874118,
			"-0.007": 7.93223860875,
			"-0.006": 16.3506025371,
			"-0.005": 17.2854291902,
			"-0.004": 18.1485454076,
			"-0.003": 15.6561709781,
			"-0.002": 14.5113539889,
			"-0.001": 14.575560363,
			"0.0": 13.0838927513,
			"0.001": 13.6359545541,
			"0.002": 17.5769624257,
			"0.003": 24.1749500383,
			"0.004": 27.4224787731,
			"0.005": 36.0222224759,
			"0.006": 10.580729747,
			"0.007": 1.94995845404,
			"0.008": 0.301066741513,
			"0.009": 0.489301390641,
			"0.01": 0.199021853542,
			"0.011": 0.0,
			"0.012": 0.0,
			"0.013": 0.0,
			"0.014": 0.0,
			"0.015": 0.0,
			"0.016": 0.0,
			"0.017": 0.0,
			"0.018": 0.0,
			"0.019": 0.0,
			"0.02": 0.0,
			"0.021": 0.0,
			"0.022": 0.0,
			"0.023": 0.0,
			"0.024": 0.0,
			"0.025": 0.0
		}
	}
}
