{
	 "smiles": "CC1=C(C2=C(S1)N=C(N=C2Cl)C1=CN=CC=C1)C1=CC=CC=C1", 
	 "Tm": 418.15, 
	 "num_atms": 35, 
	 "gaussian": { 
		 "optdone": 1, 
		 "sigma_profile": "yes", 
		 "theory": "DFT", 
		 "functional": "B3LYP", 
		 "basiset": "6-31G**", 
		 "properties": { 
			 "R2extent": 10804.7749, 
			 "electric_dipole_moment_norm": 5.10108829663, 
			 "electric_quadrupole_moment_norm": 16.5634734386, 
			 "total_energy": -1715.79187935, 
			 "HOMO_LUMO_gap": 0.15889, 
			 "cosmo_polarized_energy": -11.07, 
			 "cosmo_cavitation_energy": 43.3, 
			 "cosmo_dispersion_energy": -30.79, 
			 "cosmo_repulsion_energy": 2.29, 
			 "cosmo_total_nonelectrostatic_energy": 14.8, 
			 "SMD_solvation_energy": 2.75 
		},
		"coords": [
			{
				"x": 2.7756347221,
				"y": -2.2800775061,
				"z": 0.0204259563,
				"element": "C" 
			},
			{
				"x": 1.454951532,
				"y": -1.6984765688,
				"z": 0.439822868,
				"element": "C" 
			},
			{
				"x": 0.8713328788,
				"y": -0.5470799967,
				"z": -0.0227464207,
				"element": "C" 
			},
			{
				"x": -0.405540991,
				"y": -0.2993806624,
				"z": 0.6103522407,
				"element": "C" 
			},
			{
				"x": -0.7509885812,
				"y": -1.301610834,
				"z": 1.5560820909,
				"element": "C" 
			},
			{
				"x": 0.4910628613,
				"y": -2.5300099759,
				"z": 1.6554532684,
				"element": "S" 
			},
			{
				"x": -1.8586483259,
				"y": -1.3361281818,
				"z": 2.2859293621,
				"element": "N" 
			},
			{
				"x": -2.7067268324,
				"y": -0.3193708998,
				"z": 2.0892255898,
				"element": "C" 
			},
			{
				"x": -2.4969686667,
				"y": 0.6959995224,
				"z": 1.220316879,
				"element": "N" 
			},
			{
				"x": -1.3917380247,
				"y": 0.7035278073,
				"z": 0.5115431487,
				"element": "C" 
			},
			{
				"x": -1.1989759092,
				"y": 2.0557714722,
				"z": -0.5905128734,
				"element": "Cl" 
			},
			{
				"x": -3.960944103,
				"y": -0.2981623832,
				"z": 2.871861755,
				"element": "C" 
			},
			{
				"x": -4.8968505062,
				"y": 0.7387323354,
				"z": 2.7167622979,
				"element": "C" 
			},
			{
				"x": -6.0459784959,
				"y": 0.8111521994,
				"z": 3.3953475426,
				"element": "N" 
			},
			{
				"x": -6.3080555185,
				"y": -0.1681114654,
				"z": 4.2708404618,
				"element": "C" 
			},
			{
				"x": -5.4499769893,
				"y": -1.2451720381,
				"z": 4.5045957484,
				"element": "C" 
			},
			{
				"x": -4.2568789003,
				"y": -1.3118501569,
				"z": 3.7938814456,
				"element": "C" 
			},
			{
				"x": 1.5336487515,
				"y": 0.300209197,
				"z": -1.057812755,
				"element": "C" 
			},
			{
				"x": 2.4219989378,
				"y": 1.3183718109,
				"z": -0.6825366026,
				"element": "C" 
			},
			{
				"x": 3.0674036904,
				"y": 2.0878466257,
				"z": -1.6509692103,
				"element": "C" 
			},
			{
				"x": 2.8368558422,
				"y": 1.8458702531,
				"z": -3.0064998615,
				"element": "C" 
			},
			{
				"x": 1.959309762,
				"y": 0.8299010273,
				"z": -3.3897779469,
				"element": "C" 
			},
			{
				"x": 1.31363185,
				"y": 0.0600470623,
				"z": -2.4218382387,
				"element": "C" 
			},
			{
				"x": 2.7821666793,
				"y": -2.4943604671,
				"z": -1.0532057155,
				"element": "H" 
			},
			{
				"x": 2.9960204889,
				"y": -3.2081838174,
				"z": 0.5530099765,
				"element": "H" 
			},
			{
				"x": 3.5899698648,
				"y": -1.5746913792,
				"z": 0.2151510639,
				"element": "H" 
			},
			{
				"x": -4.6930393804,
				"y": 1.5372486524,
				"z": 2.0091485016,
				"element": "H" 
			},
			{
				"x": -7.2496415282,
				"y": -0.0878479104,
				"z": 4.8116953456,
				"element": "H" 
			},
			{
				"x": -5.7149307113,
				"y": -2.0106759935,
				"z": 5.22723224,
				"element": "H" 
			},
			{
				"x": -3.5534883072,
				"y": -2.1250910759,
				"z": 3.9350705742,
				"element": "H" 
			},
			{
				"x": 2.5982505027,
				"y": 1.5103460643,
				"z": 0.3720289909,
				"element": "H" 
			},
			{
				"x": 3.7491890236,
				"y": 2.8766698013,
				"z": -1.3462829374,
				"element": "H" 
			},
			{
				"x": 3.338574419,
				"y": 2.4457741668,
				"z": -3.7602305691,
				"element": "H" 
			},
			{
				"x": 1.7758837042,
				"y": 0.6364997421,
				"z": -4.4428005446,
				"element": "H" 
			},
			{
				"x": 0.627386261,
				"y": -0.7271864274,
				"z": -2.7207636719,
				"element": "H" 
			}
		],
		 "valence_orbital": [ 
			{
				"type": "occ",
				"energy": -0.26196,
				"method": "rhf"
			},
			{
				"type": "occ",
				"energy": -0.2589,
				"method": "rhf"
			},
			{
				"type": "occ",
				"energy": -0.25462,
				"method": "rhf"
			},
			{
				"type": "occ",
				"energy": -0.24945,
				"method": "rhf"
			},
			{
				"type": "occ",
				"energy": -0.22836,
				"method": "rhf"
			},
			{
				"type": "unocc",
				"energy": -0.06947,
				"method": "rhf"
			},
			{
				"type": "unocc",
				"energy": -0.04613,
				"method": "rhf"
			},
			{
				"type": "unocc",
				"energy": -0.02113,
				"method": "rhf"
			},
			{
				"type": "unocc",
				"energy": -0.01807,
				"method": "rhf"
			},
			{
				"type": "unocc",
				"energy": -0.01087,
				"method": "rhf"
			}
		],
		"cosmo_sigma_profile": { 
			"-0.025": 0.0,
			"-0.024": 0.0,
			"-0.023": 0.0,
			"-0.022": 0.0,
			"-0.021": 0.0,
			"-0.02": 0.0,
			"-0.019": 0.0,
			"-0.018": 0.0,
			"-0.017": 0.0,
			"-0.016": 0.0,
			"-0.015": 0.0,
			"-0.014": 0.0,
			"-0.013": 0.0,
			"-0.012": 0.0,
			"-0.011": 0.0,
			"-0.01": 0.0,
			"-0.009": 0.0,
			"-0.008": 0.15918971395,
			"-0.007": 4.45477923242,
			"-0.006": 16.3506828525,
			"-0.005": 22.3462942331,
			"-0.004": 25.0002927284,
			"-0.003": 27.8430993679,
			"-0.002": 37.7641485228,
			"-0.001": 33.6057085353,
			"0.0": 33.0125781191,
			"0.001": 38.8604017786,
			"0.002": 29.934094974,
			"0.003": 23.2035409627,
			"0.004": 20.499456868,
			"0.005": 16.5157396504,
			"0.006": 7.47555754841,
			"0.007": 4.13907820656,
			"0.008": 4.15392873248,
			"0.009": 2.20582017825,
			"0.01": 0.660785575832,
			"0.011": 0.65347678018,
			"0.012": 1.280473948,
			"0.013": 0.875585167272,
			"0.014": 0.77634326792,
			"0.015": 0.822868945305,
			"0.016": 0.805763292696,
			"0.017": 0.190780628928,
			"0.018": 0.0,
			"0.019": 0.0,
			"0.02": 0.0,
			"0.021": 0.0,
			"0.022": 0.0,
			"0.023": 0.0,
			"0.024": 0.0,
			"0.025": 0.0
		}
	}
}
