{
	 "smiles": "OC(=O)C1=C2NC=CC2=CC=C1", 
	 "Tm": 476.15, 
	 "num_atms": 19, 
	 "gaussian": { 
		 "optdone": 1, 
		 "sigma_profile": "yes", 
		 "theory": "DFT", 
		 "functional": "B3LYP", 
		 "basiset": "6-31G**", 
		 "properties": { 
			 "R2extent": 3058.0002, 
			 "electric_dipole_moment_norm": 2.78227498641, 
			 "electric_quadrupole_moment_norm": 20.9965846075, 
			 "total_energy": -552.395035583, 
			 "HOMO_LUMO_gap": 0.16443, 
			 "cosmo_polarized_energy": -12.9, 
			 "cosmo_cavitation_energy": 22.95, 
			 "cosmo_dispersion_energy": -17.64, 
			 "cosmo_repulsion_energy": 1.37, 
			 "cosmo_total_nonelectrostatic_energy": 6.69, 
			 "SMD_solvation_energy": 4.87 
		},
		"coords": [
			{
				"x": -2.3957800262,
				"y": -2.0907591946,
				"z": -3.5436673841,
				"element": "O" 
			},
			{
				"x": -2.3141747964,
				"y": -0.8435661285,
				"z": -3.0206957802,
				"element": "C" 
			},
			{
				"x": -2.9317238007,
				"y": 0.0606180352,
				"z": -3.5559191449,
				"element": "O" 
			},
			{
				"x": -1.4786633539,
				"y": -0.6435948725,
				"z": -1.8102288997,
				"element": "C" 
			},
			{
				"x": -1.5206769467,
				"y": 0.6089596331,
				"z": -1.1655357149,
				"element": "C" 
			},
			{
				"x": -2.2304264659,
				"y": 1.7330362592,
				"z": -1.4863558014,
				"element": "N" 
			},
			{
				"x": -1.9583222907,
				"y": 2.721495471,
				"z": -0.5609766991,
				"element": "C" 
			},
			{
				"x": -1.0743292147,
				"y": 2.2495926181,
				"z": 0.3750121287,
				"element": "C" 
			},
			{
				"x": -0.7706384776,
				"y": 0.8930948449,
				"z": 0.0137371925,
				"element": "C" 
			},
			{
				"x": 0.0524791003,
				"y": -0.1098182141,
				"z": 0.5455883137,
				"element": "C" 
			},
			{
				"x": 0.1191889099,
				"y": -1.346664363,
				"z": -0.0919837222,
				"element": "C" 
			},
			{
				"x": -0.6312613362,
				"y": -1.6075445843,
				"z": -1.249111507,
				"element": "C" 
			},
			{
				"x": -1.9509128013,
				"y": -2.7279353475,
				"z": -2.9683660002,
				"element": "H" 
			},
			{
				"x": -2.8108147759,
				"y": 1.7761932826,
				"z": -2.3131035576,
				"element": "H" 
			},
			{
				"x": -2.4230103453,
				"y": 3.6932413143,
				"z": -0.6473252459,
				"element": "H" 
			},
			{
				"x": -0.6846551409,
				"y": 2.8005821152,
				"z": 1.2186044724,
				"element": "H" 
			},
			{
				"x": 0.638329595,
				"y": 0.0756293548,
				"z": 1.4415056309,
				"element": "H" 
			},
			{
				"x": 0.7642730277,
				"y": -2.1237263571,
				"z": 0.3056790059,
				"element": "H" 
			},
			{
				"x": -0.5148808605,
				"y": -2.5822338671,
				"z": -1.7186572867,
				"element": "H" 
			}
		],
		 "valence_orbital": [ 
			{
				"type": "occ",
				"energy": -0.31883,
				"method": "rhf"
			},
			{
				"type": "occ",
				"energy": -0.28759,
				"method": "rhf"
			},
			{
				"type": "occ",
				"energy": -0.27739,
				"method": "rhf"
			},
			{
				"type": "occ",
				"energy": -0.23416,
				"method": "rhf"
			},
			{
				"type": "occ",
				"energy": -0.21791,
				"method": "rhf"
			},
			{
				"type": "unocc",
				"energy": -0.05348,
				"method": "rhf"
			},
			{
				"type": "unocc",
				"energy": 0.0125,
				"method": "rhf"
			},
			{
				"type": "unocc",
				"energy": 0.03198,
				"method": "rhf"
			},
			{
				"type": "unocc",
				"energy": 0.05463,
				"method": "rhf"
			},
			{
				"type": "unocc",
				"energy": 0.08324,
				"method": "rhf"
			}
		],
		"cosmo_sigma_profile": { 
			"-0.025": 0.0,
			"-0.024": 0.0,
			"-0.023": 0.0,
			"-0.022": 0.0,
			"-0.021": 0.0,
			"-0.02": 0.00474810083372,
			"-0.019": 0.46923192336,
			"-0.018": 0.913453848874,
			"-0.017": 1.07741604608,
			"-0.016": 0.651634627547,
			"-0.015": 0.48808160641,
			"-0.014": 0.623608564852,
			"-0.013": 1.46932857402,
			"-0.012": 3.1321280929,
			"-0.011": 1.44505249677,
			"-0.01": 1.04513894424,
			"-0.009": 2.21086265013,
			"-0.008": 5.55622572325,
			"-0.007": 4.47647847746,
			"-0.006": 9.27193405472,
			"-0.005": 9.3424243779,
			"-0.004": 10.4824025847,
			"-0.003": 10.5773451008,
			"-0.002": 10.752355609,
			"-0.001": 8.24750024215,
			"0.0": 8.88405345294,
			"0.001": 11.3843408211,
			"0.002": 11.8009016423,
			"0.003": 13.8276439594,
			"0.004": 17.2222762227,
			"0.005": 12.894826096,
			"0.006": 5.69150813941,
			"0.007": 2.67284749828,
			"0.008": 2.79071558713,
			"0.009": 2.4555239364,
			"0.01": 4.46832833435,
			"0.011": 3.79663585077,
			"0.012": 2.51632648915,
			"0.013": 1.89835832569,
			"0.014": 0.238078014413,
			"0.015": 0.0,
			"0.016": 0.0,
			"0.017": 0.0,
			"0.018": 0.0,
			"0.019": 0.0,
			"0.02": 0.0,
			"0.021": 0.0,
			"0.022": 0.0,
			"0.023": 0.0,
			"0.024": 0.0,
			"0.025": 0.0
		}
	}
}
