{
	 "smiles": "CN1CC2=C(C1)C=C(N)C=C2", 
	 "Tm": 335.15, 
	 "num_atms": 23, 
	 "gaussian": { 
		 "optdone": 1, 
		 "sigma_profile": "yes", 
		 "theory": "DFT", 
		 "functional": "B3LYP", 
		 "basiset": "6-31G**", 
		 "properties": { 
			 "R2extent": 1923.9599, 
			 "electric_dipole_moment_norm": 1.97776553211, 
			 "electric_quadrupole_moment_norm": 8.3705170581, 
			 "total_energy": -459.680784051, 
			 "HOMO_LUMO_gap": 0.19834, 
			 "cosmo_polarized_energy": -9.38, 
			 "cosmo_cavitation_energy": 25.06, 
			 "cosmo_dispersion_energy": -18.75, 
			 "cosmo_repulsion_energy": 1.51, 
			 "cosmo_total_nonelectrostatic_energy": 7.83, 
			 "SMD_solvation_energy": 0.54 
		},
		"coords": [
			{
				"x": -1.5614514263,
				"y": 2.5390178517,
				"z": -1.5074224007,
				"element": "C" 
			},
			{
				"x": -1.3195154944,
				"y": 1.1167790154,
				"z": -1.7543524835,
				"element": "N" 
			},
			{
				"x": 0.1317877036,
				"y": 0.8207849344,
				"z": -1.8548407776,
				"element": "C" 
			},
			{
				"x": 0.5399922113,
				"y": 0.3607596288,
				"z": -0.4683117395,
				"element": "C" 
			},
			{
				"x": -0.6122406108,
				"y": 0.0389421893,
				"z": 0.2542123089,
				"element": "C" 
			},
			{
				"x": -1.8167009075,
				"y": 0.2782005511,
				"z": -0.6370834045,
				"element": "C" 
			},
			{
				"x": -0.5416691643,
				"y": -0.444686007,
				"z": 1.5545997271,
				"element": "C" 
			},
			{
				"x": 0.7190376621,
				"y": -0.6067779364,
				"z": 2.1602432479,
				"element": "C" 
			},
			{
				"x": 0.8166987967,
				"y": -1.0238019903,
				"z": 3.4931990326,
				"element": "N" 
			},
			{
				"x": 1.8772343964,
				"y": -0.2825317984,
				"z": 1.4288525014,
				"element": "C" 
			},
			{
				"x": 1.7908497625,
				"y": 0.1955809096,
				"z": 0.119971519,
				"element": "C" 
			},
			{
				"x": -1.0862084301,
				"y": 2.9257290003,
				"z": -0.5870434273,
				"element": "H" 
			},
			{
				"x": -2.6388991053,
				"y": 2.7176493437,
				"z": -1.4349692556,
				"element": "H" 
			},
			{
				"x": -1.188116305,
				"y": 3.1234258742,
				"z": -2.3541727952,
				"element": "H" 
			},
			{
				"x": 0.6783839229,
				"y": 1.7010074119,
				"z": -2.2101632323,
				"element": "H" 
			},
			{
				"x": 0.2935702785,
				"y": 0.0231826224,
				"z": -2.5960383947,
				"element": "H" 
			},
			{
				"x": -2.6531354058,
				"y": 0.768687985,
				"z": -0.127991395,
				"element": "H" 
			},
			{
				"x": -2.1962276792,
				"y": -0.6769936699,
				"z": -1.0307951215,
				"element": "H" 
			},
			{
				"x": -1.4430623403,
				"y": -0.6889894044,
				"z": 2.1133932372,
				"element": "H" 
			},
			{
				"x": 0.0336123833,
				"y": -1.5717632027,
				"z": 3.8230913581,
				"element": "H" 
			},
			{
				"x": 1.6978510235,
				"y": -1.4546977224,
				"z": 3.7382616412,
				"element": "H" 
			},
			{
				"x": 2.8505623019,
				"y": -0.399060253,
				"z": 1.8997206879,
				"element": "H" 
			},
			{
				"x": 2.7021464263,
				"y": 0.4352546666,
				"z": -0.422860834,
				"element": "H" 
			}
		],
		 "valence_orbital": [ 
			{
				"type": "occ",
				"energy": -0.32533,
				"method": "rhf"
			},
			{
				"type": "occ",
				"energy": -0.29117,
				"method": "rhf"
			},
			{
				"type": "occ",
				"energy": -0.23679,
				"method": "rhf"
			},
			{
				"type": "occ",
				"energy": -0.20542,
				"method": "rhf"
			},
			{
				"type": "occ",
				"energy": -0.19327,
				"method": "rhf"
			},
			{
				"type": "unocc",
				"energy": 0.00507,
				"method": "rhf"
			},
			{
				"type": "unocc",
				"energy": 0.02482,
				"method": "rhf"
			},
			{
				"type": "unocc",
				"energy": 0.0842,
				"method": "rhf"
			},
			{
				"type": "unocc",
				"energy": 0.10153,
				"method": "rhf"
			},
			{
				"type": "unocc",
				"energy": 0.11428,
				"method": "rhf"
			}
		],
		"cosmo_sigma_profile": { 
			"-0.025": 0.0,
			"-0.024": 0.0,
			"-0.023": 0.0,
			"-0.022": 0.0,
			"-0.021": 0.0,
			"-0.02": 0.0,
			"-0.019": 0.0,
			"-0.018": 0.0,
			"-0.017": 0.0,
			"-0.016": 0.0,
			"-0.015": 0.0,
			"-0.014": 0.0,
			"-0.013": 0.00537326313521,
			"-0.012": 1.59729708031,
			"-0.011": 3.06923567534,
			"-0.01": 2.23466902976,
			"-0.009": 2.98217851939,
			"-0.008": 3.19172293352,
			"-0.007": 3.02718677468,
			"-0.006": 3.44581327784,
			"-0.005": 7.78282983439,
			"-0.004": 15.3533813279,
			"-0.003": 20.7994671724,
			"-0.002": 21.2870367798,
			"-0.001": 20.4786672565,
			"0.0": 18.8622770453,
			"0.001": 10.0116371758,
			"0.002": 7.88170084139,
			"0.003": 7.79024163628,
			"0.004": 7.77659508091,
			"0.005": 7.21023602493,
			"0.006": 8.05753753821,
			"0.007": 9.48849166154,
			"0.008": 3.26460851845,
			"0.009": 2.11989666275,
			"0.01": 1.35595220726,
			"0.011": 1.48580193346,
			"0.012": 1.58957261786,
			"0.013": 1.05902170542,
			"0.014": 0.751066744994,
			"0.015": 1.5791167206,
			"0.016": 0.299899600508,
			"0.017": 0.47707141583,
			"0.018": 0.34888788157,
			"0.019": 0.0,
			"0.02": 0.0,
			"0.021": 0.0,
			"0.022": 0.0,
			"0.023": 0.0,
			"0.024": 0.0,
			"0.025": 0.0
		}
	}
}
