{
	 "smiles": "CN(C)C(=O)SC1=CN(N=C1)C1=CC=C(C)C=C1", 
	 "Tm": 369.15, 
	 "num_atms": 33, 
	 "gaussian": { 
		 "optdone": 1, 
		 "sigma_profile": "yes", 
		 "theory": "DFT", 
		 "functional": "B3LYP", 
		 "basiset": "6-31G**", 
		 "properties": { 
			 "R2extent": 8247.4994, 
			 "electric_dipole_moment_norm": 2.57629852696, 
			 "electric_quadrupole_moment_norm": 24.8889704156, 
			 "total_energy": -1142.08197824, 
			 "HOMO_LUMO_gap": 0.19317, 
			 "cosmo_polarized_energy": -13.37, 
			 "cosmo_cavitation_energy": 38.63, 
			 "cosmo_dispersion_energy": -28.2, 
			 "cosmo_repulsion_energy": 2.13, 
			 "cosmo_total_nonelectrostatic_energy": 12.56, 
			 "SMD_solvation_energy": 6.8 
		},
		"coords": [
			{
				"x": 4.5501858694,
				"y": -0.2219353853,
				"z": 4.2020161576,
				"element": "C" 
			},
			{
				"x": 4.4742347666,
				"y": 0.0366309157,
				"z": 2.7718072339,
				"element": "N" 
			},
			{
				"x": 5.7451825671,
				"y": 0.0784243396,
				"z": 2.0549734101,
				"element": "C" 
			},
			{
				"x": 3.3211963694,
				"y": 0.0235576461,
				"z": 2.0373953711,
				"element": "C" 
			},
			{
				"x": 3.2725854236,
				"y": 0.1448821877,
				"z": 0.8285561702,
				"element": "O" 
			},
			{
				"x": 1.7822782258,
				"y": -0.1378554252,
				"z": 3.0549002346,
				"element": "S" 
			},
			{
				"x": 0.5815065969,
				"y": -0.2724200069,
				"z": 1.777736887,
				"element": "C" 
			},
			{
				"x": 0.2490129902,
				"y": 0.6534381643,
				"z": 0.8051649361,
				"element": "C" 
			},
			{
				"x": -0.7634049307,
				"y": 0.110190749,
				"z": 0.0763763999,
				"element": "N" 
			},
			{
				"x": -1.1252535204,
				"y": -1.1192758769,
				"z": 0.539320951,
				"element": "N" 
			},
			{
				"x": -0.3088867167,
				"y": -1.3537678764,
				"z": 1.5575867875,
				"element": "C" 
			},
			{
				"x": -1.4326024151,
				"y": 0.6733036378,
				"z": -1.0438515079,
				"element": "C" 
			},
			{
				"x": -0.8058253314,
				"y": 1.6415456108,
				"z": -1.832221163,
				"element": "C" 
			},
			{
				"x": -1.4896536237,
				"y": 2.1997542626,
				"z": -2.9116473741,
				"element": "C" 
			},
			{
				"x": -2.7893656796,
				"y": 1.7980263122,
				"z": -3.2408397442,
				"element": "C" 
			},
			{
				"x": -3.5123204585,
				"y": 2.3809003452,
				"z": -4.4319612979,
				"element": "C" 
			},
			{
				"x": -3.3906464433,
				"y": 0.8134559141,
				"z": -2.4429197677,
				"element": "C" 
			},
			{
				"x": -2.7305729928,
				"y": 0.2539432156,
				"z": -1.3534654867,
				"element": "C" 
			},
			{
				"x": 3.6323813357,
				"y": 0.078835314,
				"z": 4.7078149711,
				"element": "H" 
			},
			{
				"x": 4.740942349,
				"y": -1.2816674409,
				"z": 4.4183570524,
				"element": "H" 
			},
			{
				"x": 5.3690219276,
				"y": 0.369189275,
				"z": 4.6238833528,
				"element": "H" 
			},
			{
				"x": 5.5472601878,
				"y": 0.3019359461,
				"z": 1.0084715293,
				"element": "H" 
			},
			{
				"x": 6.2664415848,
				"y": -0.8853255226,
				"z": 2.1248123362,
				"element": "H" 
			},
			{
				"x": 6.3898366951,
				"y": 0.8542594164,
				"z": 2.4830087924,
				"element": "H" 
			},
			{
				"x": 0.6584476294,
				"y": 1.6280694237,
				"z": 0.5968091837,
				"element": "H" 
			},
			{
				"x": -0.3777533564,
				"y": -2.2818984328,
				"z": 2.1088719032,
				"element": "H" 
			},
			{
				"x": 0.2145047241,
				"y": 1.9452584188,
				"z": -1.6234348006,
				"element": "H" 
			},
			{
				"x": -0.992645222,
				"y": 2.953645823,
				"z": -3.5166318004,
				"element": "H" 
			},
			{
				"x": -3.4718588313,
				"y": 1.7022779458,
				"z": -5.29319305,
				"element": "H" 
			},
			{
				"x": -4.5699844618,
				"y": 2.5575801144,
				"z": -4.2109788645,
				"element": "H" 
			},
			{
				"x": -3.0694149507,
				"y": 3.3312527512,
				"z": -4.7433586458,
				"element": "H" 
			},
			{
				"x": -4.4003622943,
				"y": 0.482530671,
				"z": -2.6732180938,
				"element": "H" 
			},
			{
				"x": -3.1997680138,
				"y": -0.5032424332,
				"z": -0.7372420635,
				"element": "H" 
			}
		],
		 "valence_orbital": [ 
			{
				"type": "occ",
				"energy": -0.25624,
				"method": "rhf"
			},
			{
				"type": "occ",
				"energy": -0.25289,
				"method": "rhf"
			},
			{
				"type": "occ",
				"energy": -0.24942,
				"method": "rhf"
			},
			{
				"type": "occ",
				"energy": -0.23505,
				"method": "rhf"
			},
			{
				"type": "occ",
				"energy": -0.21449,
				"method": "rhf"
			},
			{
				"type": "unocc",
				"energy": -0.02132,
				"method": "rhf"
			},
			{
				"type": "unocc",
				"energy": -0.00487,
				"method": "rhf"
			},
			{
				"type": "unocc",
				"energy": 0.02168,
				"method": "rhf"
			},
			{
				"type": "unocc",
				"energy": 0.03132,
				"method": "rhf"
			},
			{
				"type": "unocc",
				"energy": 0.04212,
				"method": "rhf"
			}
		],
		"cosmo_sigma_profile": { 
			"-0.025": 0.0,
			"-0.024": 0.0,
			"-0.023": 0.0,
			"-0.022": 0.0,
			"-0.021": 0.0,
			"-0.02": 0.0,
			"-0.019": 0.0,
			"-0.018": 0.0,
			"-0.017": 0.0,
			"-0.016": 0.0,
			"-0.015": 0.0,
			"-0.014": 0.0,
			"-0.013": 0.0,
			"-0.012": 0.0,
			"-0.011": 0.0,
			"-0.01": 1.26255200545,
			"-0.009": 1.82832788604,
			"-0.008": 3.21717842875,
			"-0.007": 4.28314615454,
			"-0.006": 11.1774154496,
			"-0.005": 24.9335812604,
			"-0.004": 30.1694570045,
			"-0.003": 30.7115966208,
			"-0.002": 26.5910269955,
			"-0.001": 22.9551124393,
			"0.0": 24.6467173507,
			"0.001": 22.067572929,
			"0.002": 20.73260339,
			"0.003": 20.0829259419,
			"0.004": 18.6233515317,
			"0.005": 14.4078067294,
			"0.006": 5.52105643454,
			"0.007": 5.65003235075,
			"0.008": 3.35275234879,
			"0.009": 3.07559067817,
			"0.01": 2.95491287565,
			"0.011": 3.85237611775,
			"0.012": 4.79854297039,
			"0.013": 2.51721220197,
			"0.014": 0.230218191377,
			"0.015": 0.0,
			"0.016": 0.0,
			"0.017": 0.0,
			"0.018": 0.0,
			"0.019": 0.0,
			"0.02": 0.0,
			"0.021": 0.0,
			"0.022": 0.0,
			"0.023": 0.0,
			"0.024": 0.0,
			"0.025": 0.0
		}
	}
}
