{
	 "smiles": "C1=CC=C(C=C1)C(C1=CC=CC=C1)C1=NC=CC=C1", 
	 "Tm": 330.65, 
	 "num_atms": 34, 
	 "gaussian": { 
		 "optdone": 1, 
		 "sigma_profile": "yes", 
		 "theory": "DFT", 
		 "functional": "B3LYP", 
		 "basiset": "6-31G**", 
		 "properties": { 
			 "R2extent": 5295.2605, 
			 "electric_dipole_moment_norm": 2.03540671611, 
			 "electric_quadrupole_moment_norm": 4.30964146189, 
			 "total_energy": -749.707000188, 
			 "HOMO_LUMO_gap": 0.19965, 
			 "cosmo_polarized_energy": -9.79, 
			 "cosmo_cavitation_energy": 37.38, 
			 "cosmo_dispersion_energy": -25.9, 
			 "cosmo_repulsion_energy": 2.01, 
			 "cosmo_total_nonelectrostatic_energy": 13.49, 
			 "SMD_solvation_energy": 5.8 
		},
		"coords": [
			{
				"x": 3.8757087466,
				"y": -0.5475433569,
				"z": 1.200790228,
				"element": "C" 
			},
			{
				"x": 2.9750517984,
				"y": -1.6032310151,
				"z": 1.0407066625,
				"element": "C" 
			},
			{
				"x": 1.7831240834,
				"y": -1.4156037069,
				"z": 0.34138593,
				"element": "C" 
			},
			{
				"x": 1.4698771735,
				"y": -0.165909502,
				"z": -0.2094609773,
				"element": "C" 
			},
			{
				"x": 2.3795815116,
				"y": 0.8857206882,
				"z": -0.043167978,
				"element": "C" 
			},
			{
				"x": 3.5741946241,
				"y": 0.7002708071,
				"z": 0.6555316092,
				"element": "C" 
			},
			{
				"x": 0.1635078934,
				"y": 0.0837817443,
				"z": -0.9701447107,
				"element": "C" 
			},
			{
				"x": -0.0859732877,
				"y": -0.9484068195,
				"z": -2.0766205958,
				"element": "C" 
			},
			{
				"x": 0.4396052721,
				"y": -0.7001866462,
				"z": -3.3529185973,
				"element": "C" 
			},
			{
				"x": 0.267271227,
				"y": -1.6130616205,
				"z": -4.3928252327,
				"element": "C" 
			},
			{
				"x": -0.4401748948,
				"y": -2.7967127126,
				"z": -4.1739005215,
				"element": "C" 
			},
			{
				"x": -0.969052453,
				"y": -3.0539411964,
				"z": -2.9088750293,
				"element": "C" 
			},
			{
				"x": -0.7952615634,
				"y": -2.1386577507,
				"z": -1.8680212648,
				"element": "C" 
			},
			{
				"x": -1.0207716274,
				"y": 0.2644956205,
				"z": -0.0202389895,
				"element": "C" 
			},
			{
				"x": -1.2653590946,
				"y": -0.7073096885,
				"z": 0.8728864465,
				"element": "N" 
			},
			{
				"x": -2.2931862364,
				"y": -0.5543986636,
				"z": 1.7148387123,
				"element": "C" 
			},
			{
				"x": -3.1274130839,
				"y": 0.5634525805,
				"z": 1.7234163872,
				"element": "C" 
			},
			{
				"x": -2.8767201019,
				"y": 1.5718039306,
				"z": 0.7943917593,
				"element": "C" 
			},
			{
				"x": -1.8106114037,
				"y": 1.4202953419,
				"z": -0.0896226082,
				"element": "C" 
			},
			{
				"x": 4.8050038947,
				"y": -0.6982219271,
				"z": 1.7429442803,
				"element": "H" 
			},
			{
				"x": 3.2024392614,
				"y": -2.5794241434,
				"z": 1.4603098139,
				"element": "H" 
			},
			{
				"x": 1.091977412,
				"y": -2.2417095592,
				"z": 0.2208457094,
				"element": "H" 
			},
			{
				"x": 2.1515119282,
				"y": 1.8621465441,
				"z": -0.4649801499,
				"element": "H" 
			},
			{
				"x": 4.2671166966,
				"y": 1.5294260252,
				"z": 0.7696956852,
				"element": "H" 
			},
			{
				"x": 0.2877551417,
				"y": 1.0455370866,
				"z": -1.4796714976,
				"element": "H" 
			},
			{
				"x": 0.994300736,
				"y": 0.2181090002,
				"z": -3.5316873334,
				"element": "H" 
			},
			{
				"x": 0.6822404157,
				"y": -1.3978948051,
				"z": -5.3737225176,
				"element": "H" 
			},
			{
				"x": -0.5791095848,
				"y": -3.5093133318,
				"z": -4.9819801092,
				"element": "H" 
			},
			{
				"x": -1.5236561438,
				"y": -3.9707318437,
				"z": -2.7276904542,
				"element": "H" 
			},
			{
				"x": -1.2140228679,
				"y": -2.3434909781,
				"z": -0.8887897111,
				"element": "H" 
			},
			{
				"x": -2.4556675034,
				"y": -1.3671808861,
				"z": 2.4210232698,
				"element": "H" 
			},
			{
				"x": -3.9434690993,
				"y": 0.6366902656,
				"z": 2.4351354996,
				"element": "H" 
			},
			{
				"x": -3.4981633329,
				"y": 2.4622533188,
				"z": 0.759111334,
				"element": "H" 
			},
			{
				"x": -1.5888555376,
				"y": 2.1872471996,
				"z": -0.8255950489,
				"element": "H" 
			}
		],
		 "valence_orbital": [ 
			{
				"type": "occ",
				"energy": -0.25651,
				"method": "rhf"
			},
			{
				"type": "occ",
				"energy": -0.24281,
				"method": "rhf"
			},
			{
				"type": "occ",
				"energy": -0.24212,
				"method": "rhf"
			},
			{
				"type": "occ",
				"energy": -0.23714,
				"method": "rhf"
			},
			{
				"type": "occ",
				"energy": -0.2269,
				"method": "rhf"
			},
			{
				"type": "unocc",
				"energy": -0.02725,
				"method": "rhf"
			},
			{
				"type": "unocc",
				"energy": -0.01473,
				"method": "rhf"
			},
			{
				"type": "unocc",
				"energy": -4e-05,
				"method": "rhf"
			},
			{
				"type": "unocc",
				"energy": 0.00573,
				"method": "rhf"
			},
			{
				"type": "unocc",
				"energy": 0.01096,
				"method": "rhf"
			}
		],
		"cosmo_sigma_profile": { 
			"-0.025": 0.0,
			"-0.024": 0.0,
			"-0.023": 0.0,
			"-0.022": 0.0,
			"-0.021": 0.0,
			"-0.02": 0.0,
			"-0.019": 0.0,
			"-0.018": 0.0,
			"-0.017": 0.0,
			"-0.016": 0.0,
			"-0.015": 0.0,
			"-0.014": 0.0,
			"-0.013": 0.0,
			"-0.012": 0.0,
			"-0.011": 0.0,
			"-0.01": 0.0,
			"-0.009": 0.0,
			"-0.008": 0.00301215197028,
			"-0.007": 3.90755469284,
			"-0.006": 17.3945976047,
			"-0.005": 29.0887069451,
			"-0.004": 26.2721638786,
			"-0.003": 27.4739445901,
			"-0.002": 19.1931702618,
			"-0.001": 20.7705600018,
			"0.0": 15.7954918974,
			"0.001": 20.0791522949,
			"0.002": 25.6354854451,
			"0.003": 27.4510608975,
			"0.004": 18.812235842,
			"0.005": 17.6237869516,
			"0.006": 18.2042598549,
			"0.007": 6.12838186949,
			"0.008": 1.67763512229,
			"0.009": 1.38833381844,
			"0.01": 1.1201598145,
			"0.011": 1.12440872239,
			"0.012": 0.504376022679,
			"0.013": 0.0,
			"0.014": 0.0,
			"0.015": 0.0,
			"0.016": 0.0,
			"0.017": 0.0,
			"0.018": 0.0,
			"0.019": 0.0,
			"0.02": 0.0,
			"0.021": 0.0,
			"0.022": 0.0,
			"0.023": 0.0,
			"0.024": 0.0,
			"0.025": 0.0
		}
	}
}
