{
	 "smiles": "CON(C)S(=O)(=O)C1=C(Cl)C=CC(N)=C1", 
	 "Tm": 362.15, 
	 "num_atms": 26, 
	 "gaussian": { 
		 "optdone": 1, 
		 "sigma_profile": "yes", 
		 "theory": "DFT", 
		 "functional": "B3LYP", 
		 "basiset": "6-31G**", 
		 "properties": { 
			 "R2extent": 3793.1801, 
			 "electric_dipole_moment_norm": 6.28871105553, 
			 "electric_quadrupole_moment_norm": 23.8615639661, 
			 "total_energy": -1504.8905779, 
			 "HOMO_LUMO_gap": 0.17766, 
			 "cosmo_polarized_energy": -19.49, 
			 "cosmo_cavitation_energy": 32.65, 
			 "cosmo_dispersion_energy": -23.07, 
			 "cosmo_repulsion_energy": 1.78, 
			 "cosmo_total_nonelectrostatic_energy": 11.36, 
			 "SMD_solvation_energy": 5.75 
		},
		"coords": [
			{
				"x": 0.4439087243,
				"y": -1.0790642392,
				"z": -2.6683740999,
				"element": "C" 
			},
			{
				"x": -0.2498391131,
				"y": -1.7168197307,
				"z": -1.5946714663,
				"element": "O" 
			},
			{
				"x": -1.0882108674,
				"y": -0.7523234089,
				"z": -0.9469972431,
				"element": "N" 
			},
			{
				"x": -2.4874893159,
				"y": -1.1743754934,
				"z": -1.1294681781,
				"element": "C" 
			},
			{
				"x": -0.6422529889,
				"y": -0.7700666114,
				"z": 0.7420396839,
				"element": "S" 
			},
			{
				"x": -0.5328203777,
				"y": -2.1432561041,
				"z": 1.2463605748,
				"element": "O" 
			},
			{
				"x": -1.5526355228,
				"y": 0.1747430773,
				"z": 1.3891660609,
				"element": "O" 
			},
			{
				"x": 1.0290865807,
				"y": -0.0944009857,
				"z": 0.6532820238,
				"element": "C" 
			},
			{
				"x": 1.3251614796,
				"y": 1.2230761777,
				"z": 0.2705186421,
				"element": "C" 
			},
			{
				"x": 0.1161948165,
				"y": 2.3766441145,
				"z": -0.2453571304,
				"element": "Cl" 
			},
			{
				"x": 2.6591993323,
				"y": 1.637387269,
				"z": 0.2931896745,
				"element": "C" 
			},
			{
				"x": 3.6729076581,
				"y": 0.7739738618,
				"z": 0.6916655383,
				"element": "C" 
			},
			{
				"x": 3.3838446615,
				"y": -0.5447362607,
				"z": 1.0828626754,
				"element": "C" 
			},
			{
				"x": 4.3820519019,
				"y": -1.3961030237,
				"z": 1.5362648463,
				"element": "N" 
			},
			{
				"x": 2.044096403,
				"y": -0.9623176796,
				"z": 1.0546174419,
				"element": "C" 
			},
			{
				"x": 1.1040655951,
				"y": -0.2844372919,
				"z": -2.307345335,
				"element": "H" 
			},
			{
				"x": -0.2549595025,
				"y": -0.6647552268,
				"z": -3.4042257912,
				"element": "H" 
			},
			{
				"x": 1.0354362306,
				"y": -1.8724197957,
				"z": -3.1325264756,
				"element": "H" 
			},
			{
				"x": -3.1220191414,
				"y": -0.500742961,
				"z": -0.5516235374,
				"element": "H" 
			},
			{
				"x": -2.7221065543,
				"y": -1.0677087711,
				"z": -2.1906013259,
				"element": "H" 
			},
			{
				"x": -2.6488719228,
				"y": -2.2119980514,
				"z": -0.8173147068,
				"element": "H" 
			},
			{
				"x": 2.8979431588,
				"y": 2.6528328811,
				"z": -0.0037206139,
				"element": "H" 
			},
			{
				"x": 4.7000397026,
				"y": 1.1286064805,
				"z": 0.7065903542,
				"element": "H" 
			},
			{
				"x": 4.169558862,
				"y": -2.3830381679,
				"z": 1.5179147792,
				"element": "H" 
			},
			{
				"x": 5.3217469009,
				"y": -1.1884693984,
				"z": 1.2311030188,
				"element": "H" 
			},
			{
				"x": 1.7699632989,
				"y": -1.9695306606,
				"z": 1.3492505896,
				"element": "H" 
			}
		],
		 "valence_orbital": [ 
			{
				"type": "occ",
				"energy": -0.29589,
				"method": "rhf"
			},
			{
				"type": "occ",
				"energy": -0.27983,
				"method": "rhf"
			},
			{
				"type": "occ",
				"energy": -0.27556,
				"method": "rhf"
			},
			{
				"type": "occ",
				"energy": -0.25823,
				"method": "rhf"
			},
			{
				"type": "occ",
				"energy": -0.22,
				"method": "rhf"
			},
			{
				"type": "unocc",
				"energy": -0.04234,
				"method": "rhf"
			},
			{
				"type": "unocc",
				"energy": -0.01351,
				"method": "rhf"
			},
			{
				"type": "unocc",
				"energy": 0.01853,
				"method": "rhf"
			},
			{
				"type": "unocc",
				"energy": 0.05896,
				"method": "rhf"
			},
			{
				"type": "unocc",
				"energy": 0.06426,
				"method": "rhf"
			}
		],
		"cosmo_sigma_profile": { 
			"-0.025": 0.0,
			"-0.024": 0.0,
			"-0.023": 0.0,
			"-0.022": 0.0,
			"-0.021": 0.0,
			"-0.02": 0.0,
			"-0.019": 0.0,
			"-0.018": 0.0,
			"-0.017": 0.0,
			"-0.016": 0.0,
			"-0.015": 0.0,
			"-0.014": 0.63020703019,
			"-0.013": 3.06207005949,
			"-0.012": 2.62262755869,
			"-0.011": 4.07036392586,
			"-0.01": 3.52434403009,
			"-0.009": 2.52927482921,
			"-0.008": 4.8889857491,
			"-0.007": 7.21518695901,
			"-0.006": 13.3406489164,
			"-0.005": 15.7872668444,
			"-0.004": 16.7907644265,
			"-0.003": 22.9049849172,
			"-0.002": 15.3389900658,
			"-0.001": 14.0493378073,
			"0.0": 15.1923188401,
			"0.001": 17.9064874023,
			"0.002": 17.9588360499,
			"0.003": 15.8196876017,
			"0.004": 11.8238413779,
			"0.005": 7.4872131176,
			"0.006": 6.56337039855,
			"0.007": 5.98374103396,
			"0.008": 6.72592635487,
			"0.009": 7.91966828421,
			"0.01": 11.9187396544,
			"0.011": 8.1881176791,
			"0.012": 0.724847330776,
			"0.013": 0.142672405284,
			"0.014": 0.0,
			"0.015": 0.0,
			"0.016": 0.0,
			"0.017": 0.0,
			"0.018": 0.0,
			"0.019": 0.0,
			"0.02": 0.0,
			"0.021": 0.0,
			"0.022": 0.0,
			"0.023": 0.0,
			"0.024": 0.0,
			"0.025": 0.0
		}
	}
}
