{
	 "smiles": "CN1C(Cl)=CC(=O)N(C)C1=O", 
	 "Tm": 383.15, 
	 "num_atms": 18, 
	 "gaussian": { 
		 "optdone": 1, 
		 "sigma_profile": "yes", 
		 "theory": "DFT", 
		 "functional": "B3LYP", 
		 "basiset": "6-31G**", 
		 "properties": { 
			 "R2extent": 2438.1778, 
			 "electric_dipole_moment_norm": 2.89388114994, 
			 "electric_quadrupole_moment_norm": 11.1607341931, 
			 "total_energy": -953.025187292, 
			 "HOMO_LUMO_gap": 0.20113, 
			 "cosmo_polarized_energy": -10.51, 
			 "cosmo_cavitation_energy": 23.47, 
			 "cosmo_dispersion_energy": -17.71, 
			 "cosmo_repulsion_energy": 1.4, 
			 "cosmo_total_nonelectrostatic_energy": 7.15, 
			 "SMD_solvation_energy": 5.59 
		},
		"coords": [
			{
				"x": 0.4309922281,
				"y": 0.6674738755,
				"z": 1.88067533,
				"element": "C" 
			},
			{
				"x": -0.026805475,
				"y": -0.3550737673,
				"z": 0.9305574673,
				"element": "N" 
			},
			{
				"x": -0.7292087726,
				"y": -1.473939846,
				"z": 1.317431544,
				"element": "C" 
			},
			{
				"x": -1.0635481742,
				"y": -1.6354010915,
				"z": 3.0221273569,
				"element": "Cl" 
			},
			{
				"x": -1.1543860077,
				"y": -2.4194935611,
				"z": 0.452116849,
				"element": "C" 
			},
			{
				"x": -0.8787303884,
				"y": -2.289237773,
				"z": -0.9665972832,
				"element": "C" 
			},
			{
				"x": -1.2277174824,
				"y": -3.0988636789,
				"z": -1.8134592105,
				"element": "O" 
			},
			{
				"x": -0.153370869,
				"y": -1.1222421084,
				"z": -1.3170976454,
				"element": "N" 
			},
			{
				"x": 0.1759652161,
				"y": -0.8979281016,
				"z": -2.7291396146,
				"element": "C" 
			},
			{
				"x": 0.2849664174,
				"y": -0.1498143591,
				"z": -0.4339174572,
				"element": "C" 
			},
			{
				"x": 0.9065394693,
				"y": 0.8338421396,
				"z": -0.8043889121,
				"element": "O" 
			},
			{
				"x": 1.1117829441,
				"y": 0.2301045711,
				"z": 2.6141624808,
				"element": "H" 
			},
			{
				"x": -0.4195334031,
				"y": 1.1160485155,
				"z": 2.3984963745,
				"element": "H" 
			},
			{
				"x": 0.9504727772,
				"y": 1.4232521991,
				"z": 1.296980328,
				"element": "H" 
			},
			{
				"x": -1.703927854,
				"y": -3.2877156507,
				"z": 0.7840599026,
				"element": "H" 
			},
			{
				"x": 1.2591663867,
				"y": -0.8388115217,
				"z": -2.853842563,
				"element": "H" 
			},
			{
				"x": -0.2307073537,
				"y": -1.7368085606,
				"z": -3.2890349105,
				"element": "H" 
			},
			{
				"x": -0.2628496588,
				"y": 0.0425087189,
				"z": -3.0688300365,
				"element": "H" 
			}
		],
		 "valence_orbital": [ 
			{
				"type": "occ",
				"energy": -0.32761,
				"method": "rhf"
			},
			{
				"type": "occ",
				"energy": -0.29949,
				"method": "rhf"
			},
			{
				"type": "occ",
				"energy": -0.2771,
				"method": "rhf"
			},
			{
				"type": "occ",
				"energy": -0.26513,
				"method": "rhf"
			},
			{
				"type": "occ",
				"energy": -0.24741,
				"method": "rhf"
			},
			{
				"type": "unocc",
				"energy": -0.04628,
				"method": "rhf"
			},
			{
				"type": "unocc",
				"energy": -0.00254,
				"method": "rhf"
			},
			{
				"type": "unocc",
				"energy": 0.00399,
				"method": "rhf"
			},
			{
				"type": "unocc",
				"energy": 0.10246,
				"method": "rhf"
			},
			{
				"type": "unocc",
				"energy": 0.10301,
				"method": "rhf"
			}
		],
		"cosmo_sigma_profile": { 
			"-0.025": 0.0,
			"-0.024": 0.0,
			"-0.023": 0.0,
			"-0.022": 0.0,
			"-0.021": 0.0,
			"-0.02": 0.0,
			"-0.019": 0.0,
			"-0.018": 0.0,
			"-0.017": 0.0,
			"-0.016": 0.0,
			"-0.015": 0.0,
			"-0.014": 0.0,
			"-0.013": 0.0,
			"-0.012": 0.0,
			"-0.011": 0.0,
			"-0.01": 0.0,
			"-0.009": 0.602341790103,
			"-0.008": 1.35496559678,
			"-0.007": 2.82322758349,
			"-0.006": 11.1809752118,
			"-0.005": 16.4602223926,
			"-0.004": 22.9778685654,
			"-0.003": 22.9332812724,
			"-0.002": 17.7273658007,
			"-0.001": 14.6167932969,
			"0.0": 12.8405095568,
			"0.001": 12.9437728386,
			"0.002": 11.4241005996,
			"0.003": 4.57792265589,
			"0.004": 2.51861489806,
			"0.005": 3.30373709379,
			"0.006": 3.11112168888,
			"0.007": 2.62563263427,
			"0.008": 1.70924418769,
			"0.009": 3.17348582039,
			"0.01": 3.76611273013,
			"0.011": 4.42705097764,
			"0.012": 8.01697064959,
			"0.013": 3.83552217802,
			"0.014": 0.615709397336,
			"0.015": 0.0,
			"0.016": 0.0,
			"0.017": 0.0,
			"0.018": 0.0,
			"0.019": 0.0,
			"0.02": 0.0,
			"0.021": 0.0,
			"0.022": 0.0,
			"0.023": 0.0,
			"0.024": 0.0,
			"0.025": 0.0
		}
	}
}
