{
	 "smiles": "CN1C(=O)N(CC2=CC=CC=C2)C2=C(C(CC(O)=O)C(=O)N2)C1=O", 
	 "Tm": 518.15, 
	 "num_atms": 39, 
	 "gaussian": { 
		 "optdone": 1, 
		 "sigma_profile": "yes", 
		 "theory": "DFT", 
		 "functional": "B3LYP", 
		 "basiset": "6-31G**", 
		 "properties": { 
			 "R2extent": 7987.3884, 
			 "electric_dipole_moment_norm": 6.67074285294, 
			 "electric_quadrupole_moment_norm": 20.5395471632, 
			 "total_energy": -1159.18523723, 
			 "HOMO_LUMO_gap": 0.18742, 
			 "cosmo_polarized_energy": -25.63, 
			 "cosmo_cavitation_energy": 42.57, 
			 "cosmo_dispersion_energy": -29.13, 
			 "cosmo_repulsion_energy": 2.2, 
			 "cosmo_total_nonelectrostatic_energy": 15.63, 
			 "SMD_solvation_energy": 9.34 
		},
		"coords": [
			{
				"x": 3.4564213094,
				"y": 0.9406231984,
				"z": -2.7588121674,
				"element": "C" 
			},
			{
				"x": 2.2834662629,
				"y": 0.5779069247,
				"z": -1.9529109481,
				"element": "N" 
			},
			{
				"x": 1.2030127861,
				"y": 1.445041567,
				"z": -2.0434428247,
				"element": "C" 
			},
			{
				"x": 1.2365671353,
				"y": 2.4662843717,
				"z": -2.7121872242,
				"element": "O" 
			},
			{
				"x": 0.0366642443,
				"y": 1.0779119876,
				"z": -1.3286000278,
				"element": "N" 
			},
			{
				"x": -1.1920023707,
				"y": 1.869649179,
				"z": -1.5385594682,
				"element": "C" 
			},
			{
				"x": -1.6860454112,
				"y": 2.5770556168,
				"z": -0.2921508697,
				"element": "C" 
			},
			{
				"x": -3.0041025768,
				"y": 2.3976416961,
				"z": 0.1447723299,
				"element": "C" 
			},
			{
				"x": -3.4729804652,
				"y": 3.0628742874,
				"z": 1.281297055,
				"element": "C" 
			},
			{
				"x": -2.6243534308,
				"y": 3.9123736298,
				"z": 1.9899254555,
				"element": "C" 
			},
			{
				"x": -1.3085554686,
				"y": 4.1004565301,
				"z": 1.5558616469,
				"element": "C" 
			},
			{
				"x": -0.8419578607,
				"y": 3.4393539105,
				"z": 0.4213173334,
				"element": "C" 
			},
			{
				"x": 0.0634217287,
				"y": -0.0368552621,
				"z": -0.546024771,
				"element": "C" 
			},
			{
				"x": 1.1506683325,
				"y": -0.8586452118,
				"z": -0.4261312746,
				"element": "C" 
			},
			{
				"x": 0.8195752038,
				"y": -1.9760893009,
				"z": 0.5282118986,
				"element": "C" 
			},
			{
				"x": 1.0846500677,
				"y": -3.4262013559,
				"z": 0.0613421655,
				"element": "C" 
			},
			{
				"x": 0.6682617483,
				"y": -3.6644931258,
				"z": -1.3898220747,
				"element": "C" 
			},
			{
				"x": 1.6086698396,
				"y": -3.4105966139,
				"z": -2.3219243731,
				"element": "O" 
			},
			{
				"x": -0.4363161866,
				"y": -4.043995112,
				"z": -1.7023931491,
				"element": "O" 
			},
			{
				"x": -0.6606829278,
				"y": -1.6919148297,
				"z": 0.8631035148,
				"element": "C" 
			},
			{
				"x": -1.4017935257,
				"y": -2.3108075189,
				"z": 1.5874468688,
				"element": "O" 
			},
			{
				"x": -1.0011913018,
				"y": -0.4966151847,
				"z": 0.1979037645,
				"element": "N" 
			},
			{
				"x": 2.3132704105,
				"y": -0.6332524103,
				"z": -1.2105940265,
				"element": "C" 
			},
			{
				"x": 3.2829058198,
				"y": -1.401507424,
				"z": -1.2923152854,
				"element": "O" 
			},
			{
				"x": 3.1824107726,
				"y": 0.9950085177,
				"z": -3.8144519035,
				"element": "H" 
			},
			{
				"x": 4.2059850448,
				"y": 0.169044464,
				"z": -2.5998583387,
				"element": "H" 
			},
			{
				"x": 3.8324449875,
				"y": 1.9169044101,
				"z": -2.4468116981,
				"element": "H" 
			},
			{
				"x": -1.966038728,
				"y": 1.2043158297,
				"z": -1.9360178897,
				"element": "H" 
			},
			{
				"x": -0.9301182432,
				"y": 2.5872372563,
				"z": -2.3179472443,
				"element": "H" 
			},
			{
				"x": -3.6740928762,
				"y": 1.7463042487,
				"z": -0.4135086175,
				"element": "H" 
			},
			{
				"x": -4.4973108441,
				"y": 2.9141647425,
				"z": 1.6095075663,
				"element": "H" 
			},
			{
				"x": -2.9844342496,
				"y": 4.4280749825,
				"z": 2.8750236317,
				"element": "H" 
			},
			{
				"x": -0.6468255957,
				"y": 4.7670046633,
				"z": 2.1010930077,
				"element": "H" 
			},
			{
				"x": 0.1779626536,
				"y": 3.5947857778,
				"z": 0.0802635868,
				"element": "H" 
			},
			{
				"x": 1.3569482483,
				"y": -1.8450996137,
				"z": 1.4788872649,
				"element": "H" 
			},
			{
				"x": 2.1479002728,
				"y": -3.6440012482,
				"z": 0.1926035966,
				"element": "H" 
			},
			{
				"x": 0.5042125594,
				"y": -4.0999779043,
				"z": 0.6960045524,
				"element": "H" 
			},
			{
				"x": 2.3884513794,
				"y": -2.966529372,
				"z": -1.9272647738,
				"element": "H" 
			},
			{
				"x": -1.8731687446,
				"y": -0.0106363036,
				"z": 0.3557637108,
				"element": "H" 
			}
		],
		 "valence_orbital": [ 
			{
				"type": "occ",
				"energy": -0.28079,
				"method": "rhf"
			},
			{
				"type": "occ",
				"energy": -0.27739,
				"method": "rhf"
			},
			{
				"type": "occ",
				"energy": -0.27217,
				"method": "rhf"
			},
			{
				"type": "occ",
				"energy": -0.25733,
				"method": "rhf"
			},
			{
				"type": "occ",
				"energy": -0.23799,
				"method": "rhf"
			},
			{
				"type": "unocc",
				"energy": -0.05057,
				"method": "rhf"
			},
			{
				"type": "unocc",
				"energy": -0.03404,
				"method": "rhf"
			},
			{
				"type": "unocc",
				"energy": -0.03142,
				"method": "rhf"
			},
			{
				"type": "unocc",
				"energy": -0.01417,
				"method": "rhf"
			},
			{
				"type": "unocc",
				"energy": 0.00429,
				"method": "rhf"
			}
		],
		"cosmo_sigma_profile": { 
			"-0.025": 0.0,
			"-0.024": 0.0,
			"-0.023": 0.0,
			"-0.022": 0.0,
			"-0.021": 0.0,
			"-0.02": 0.0,
			"-0.019": 0.0,
			"-0.018": 0.0,
			"-0.017": 0.0,
			"-0.016": 0.0,
			"-0.015": 0.00315288219698,
			"-0.014": 0.635533736591,
			"-0.013": 1.61288182617,
			"-0.012": 1.25008180489,
			"-0.011": 1.6394987314,
			"-0.01": 2.03915630541,
			"-0.009": 5.06248977092,
			"-0.008": 8.50761184139,
			"-0.007": 9.65900834465,
			"-0.006": 23.4604048709,
			"-0.005": 32.7269282491,
			"-0.004": 32.332826303,
			"-0.003": 30.2350363619,
			"-0.002": 24.6933411084,
			"-0.001": 16.5316304234,
			"0.0": 14.8868654981,
			"0.001": 14.016089421,
			"0.002": 13.6749153379,
			"0.003": 13.074825124,
			"0.004": 14.6436723535,
			"0.005": 12.161711858,
			"0.006": 6.26763799667,
			"0.007": 5.88780058574,
			"0.008": 6.8778440431,
			"0.009": 6.42187504827,
			"0.01": 9.92692664245,
			"0.011": 15.0426078578,
			"0.012": 13.2299011436,
			"0.013": 2.64818963169,
			"0.014": 0.219648913753,
			"0.015": 0.0,
			"0.016": 0.0,
			"0.017": 0.0,
			"0.018": 0.0,
			"0.019": 0.0,
			"0.02": 0.0,
			"0.021": 0.0,
			"0.022": 0.0,
			"0.023": 0.0,
			"0.024": 0.0,
			"0.025": 0.0
		}
	}
}
