{
	 "smiles": "CCOC1=CC(N2CCOCC2)=C(OCC)C=C1[N+]([O-])=O", 
	 "Tm": 413.15, 
	 "num_atms": 41, 
	 "gaussian": { 
		 "optdone": 1, 
		 "sigma_profile": "yes", 
		 "theory": "DFT", 
		 "functional": "B3LYP", 
		 "basiset": "6-31G**", 
		 "properties": { 
			 "R2extent": 9162.5604, 
			 "electric_dipole_moment_norm": 5.50578806893, 
			 "electric_quadrupole_moment_norm": 36.0252719466, 
			 "total_energy": -1031.01643294, 
			 "HOMO_LUMO_gap": 0.14293, 
			 "cosmo_polarized_energy": -16.32, 
			 "cosmo_cavitation_energy": 42.99, 
			 "cosmo_dispersion_energy": -29.92, 
			 "cosmo_repulsion_energy": 2.33, 
			 "cosmo_total_nonelectrostatic_energy": 15.4, 
			 "SMD_solvation_energy": 8.84 
		},
		"coords": [
			{
				"x": 0.5290070964,
				"y": 3.0429975147,
				"z": -4.4171065059,
				"element": "C" 
			},
			{
				"x": 1.1615042211,
				"y": 2.443981015,
				"z": -3.1766605593,
				"element": "C" 
			},
			{
				"x": 0.7927130384,
				"y": 1.048924554,
				"z": -3.1348271801,
				"element": "O" 
			},
			{
				"x": 1.3855466697,
				"y": 0.2912619846,
				"z": -2.1700747615,
				"element": "C" 
			},
			{
				"x": 0.6315610294,
				"y": 0.0251798987,
				"z": -1.0265343993,
				"element": "C" 
			},
			{
				"x": 1.0863514358,
				"y": -0.7854205243,
				"z": 0.0339981456,
				"element": "C" 
			},
			{
				"x": 0.2940211325,
				"y": -1.0199120952,
				"z": 1.1417114153,
				"element": "N" 
			},
			{
				"x": 0.8553059242,
				"y": -1.2234794238,
				"z": 2.4910938923,
				"element": "C" 
			},
			{
				"x": 0.059843105,
				"y": -0.4143828632,
				"z": 3.5130459071,
				"element": "C" 
			},
			{
				"x": -1.3180416205,
				"y": -0.7734532399,
				"z": 3.5602400692,
				"element": "O" 
			},
			{
				"x": -1.8366844751,
				"y": -1.2367304868,
				"z": 2.3185364971,
				"element": "C" 
			},
			{
				"x": -1.1184413796,
				"y": -0.6351531469,
				"z": 1.1146689353,
				"element": "C" 
			},
			{
				"x": 2.3777865238,
				"y": -1.3738823299,
				"z": -0.1194020943,
				"element": "C" 
			},
			{
				"x": 2.8898883649,
				"y": -2.2280922463,
				"z": 0.8385180362,
				"element": "O" 
			},
			{
				"x": 2.5863785424,
				"y": -3.6188369147,
				"z": 0.6176115871,
				"element": "C" 
			},
			{
				"x": 3.3022889806,
				"y": -4.4296498156,
				"z": 1.6821940825,
				"element": "C" 
			},
			{
				"x": 3.1339109365,
				"y": -1.111893759,
				"z": -1.2448782226,
				"element": "C" 
			},
			{
				"x": 2.6721964399,
				"y": -0.2822116185,
				"z": -2.2758035235,
				"element": "C" 
			},
			{
				"x": 3.5355346474,
				"y": -0.124747565,
				"z": -3.4357963119,
				"element": "N" 
			},
			{
				"x": 4.538968658,
				"y": -0.8438624321,
				"z": -3.5027891501,
				"element": "O" 
			},
			{
				"x": 3.2357678548,
				"y": 0.7074105736,
				"z": -4.2970503387,
				"element": "O" 
			},
			{
				"x": -0.5577839954,
				"y": 2.9177982903,
				"z": -4.3995830803,
				"element": "H" 
			},
			{
				"x": 0.7548115776,
				"y": 4.1125327619,
				"z": -4.4739309216,
				"element": "H" 
			},
			{
				"x": 0.9228201334,
				"y": 2.5537535473,
				"z": -5.311458042,
				"element": "H" 
			},
			{
				"x": 2.2505687217,
				"y": 2.5329313131,
				"z": -3.2138242866,
				"element": "H" 
			},
			{
				"x": 0.7945775432,
				"y": 2.9308947178,
				"z": -2.2616327238,
				"element": "H" 
			},
			{
				"x": -0.3416497522,
				"y": 0.4964604019,
				"z": -0.9851009737,
				"element": "H" 
			},
			{
				"x": 1.8964180078,
				"y": -0.9035376274,
				"z": 2.5104073161,
				"element": "H" 
			},
			{
				"x": 0.8366912208,
				"y": -2.2855034924,
				"z": 2.7688740826,
				"element": "H" 
			},
			{
				"x": 0.1652540818,
				"y": 0.6591763074,
				"z": 3.2915996853,
				"element": "H" 
			},
			{
				"x": 0.4681848659,
				"y": -0.5882783886,
				"z": 4.5141069886,
				"element": "H" 
			},
			{
				"x": -1.774098742,
				"y": -2.3347017843,
				"z": 2.2642382465,
				"element": "H" 
			},
			{
				"x": -2.895853936,
				"y": -0.9612109478,
				"z": 2.2892692427,
				"element": "H" 
			},
			{
				"x": -1.2494193866,
				"y": 0.4590760567,
				"z": 1.1211624038,
				"element": "H" 
			},
			{
				"x": -1.5803383069,
				"y": -1.0138413507,
				"z": 0.1959995396,
				"element": "H" 
			},
			{
				"x": 2.9207169831,
				"y": -3.9061938331,
				"z": -0.3881945621,
				"element": "H" 
			},
			{
				"x": 1.4986783436,
				"y": -3.7704383056,
				"z": 0.6652484453,
				"element": "H" 
			},
			{
				"x": 4.3822975972,
				"y": -4.2672506153,
				"z": 1.6263664453,
				"element": "H" 
			},
			{
				"x": 2.9640368425,
				"y": -4.1468780774,
				"z": 2.6834045666,
				"element": "H" 
			},
			{
				"x": 3.1030671052,
				"y": -5.4962449873,
				"z": 1.5394885501,
				"element": "H" 
			},
			{
				"x": 4.1051139696,
				"y": -1.5783910656,
				"z": -1.3497364428,
				"element": "H" 
			}
		],
		 "valence_orbital": [ 
			{
				"type": "occ",
				"energy": -0.27289,
				"method": "rhf"
			},
			{
				"type": "occ",
				"energy": -0.26654,
				"method": "rhf"
			},
			{
				"type": "occ",
				"energy": -0.26247,
				"method": "rhf"
			},
			{
				"type": "occ",
				"energy": -0.24997,
				"method": "rhf"
			},
			{
				"type": "occ",
				"energy": -0.21389,
				"method": "rhf"
			},
			{
				"type": "unocc",
				"energy": -0.07096,
				"method": "rhf"
			},
			{
				"type": "unocc",
				"energy": -0.01181,
				"method": "rhf"
			},
			{
				"type": "unocc",
				"energy": 0.0172,
				"method": "rhf"
			},
			{
				"type": "unocc",
				"energy": 0.06359,
				"method": "rhf"
			},
			{
				"type": "unocc",
				"energy": 0.0794,
				"method": "rhf"
			}
		],
		"cosmo_sigma_profile": { 
			"-0.025": 0.0,
			"-0.024": 0.0,
			"-0.023": 0.0,
			"-0.022": 0.0,
			"-0.021": 0.0,
			"-0.02": 0.0,
			"-0.019": 0.0,
			"-0.018": 0.0,
			"-0.017": 0.0,
			"-0.016": 0.0,
			"-0.015": 0.0,
			"-0.014": 0.0,
			"-0.013": 0.0,
			"-0.012": 0.0,
			"-0.011": 0.0,
			"-0.01": 0.0,
			"-0.009": 0.0,
			"-0.008": 0.0,
			"-0.007": 1.59349411586,
			"-0.006": 9.97224507643,
			"-0.005": 21.8673026868,
			"-0.004": 46.3591945295,
			"-0.003": 46.4390750972,
			"-0.002": 38.92292248,
			"-0.001": 28.086674371,
			"0.0": 29.0473847,
			"0.001": 24.3224339559,
			"0.002": 15.2053471994,
			"0.003": 9.03695483472,
			"0.004": 7.75498498432,
			"0.005": 6.53784180168,
			"0.006": 6.46531405968,
			"0.007": 7.12528589253,
			"0.008": 8.06089515513,
			"0.009": 10.518146498,
			"0.01": 7.99345110295,
			"0.011": 7.32690487752,
			"0.012": 2.25604303268,
			"0.013": 1.82471757705,
			"0.014": 0.394443399672,
			"0.015": 0.0,
			"0.016": 0.0,
			"0.017": 0.0,
			"0.018": 0.0,
			"0.019": 0.0,
			"0.02": 0.0,
			"0.021": 0.0,
			"0.022": 0.0,
			"0.023": 0.0,
			"0.024": 0.0,
			"0.025": 0.0
		}
	}
}
