{
	 "smiles": "C1=CC=C(C=C1)C1=CC=CC2=C1C(=CC=C2)C1=CC=CC=C1", 
	 "Tm": 420.15, 
	 "num_atms": 38, 
	 "gaussian": { 
		 "optdone": 1, 
		 "sigma_profile": "yes", 
		 "theory": "DFT", 
		 "functional": "B3LYP", 
		 "basiset": "6-31G**", 
		 "properties": { 
			 "R2extent": 5810.1875, 
			 "electric_dipole_moment_norm": 0.0252033727902, 
			 "electric_quadrupole_moment_norm": 8.2841320185, 
			 "total_energy": -847.995059075, 
			 "HOMO_LUMO_gap": 0.1594, 
			 "cosmo_polarized_energy": -8.09, 
			 "cosmo_cavitation_energy": 40.35, 
			 "cosmo_dispersion_energy": -27.45, 
			 "cosmo_repulsion_energy": 2.08, 
			 "cosmo_total_nonelectrostatic_energy": 14.98, 
			 "SMD_solvation_energy": 6.13 
		},
		"coords": [
			{
				"x": -0.765270098,
				"y": -3.056199902,
				"z": 1.8188441464,
				"element": "C" 
			},
			{
				"x": 0.2015404726,
				"y": -2.0947046966,
				"z": 2.1204175399,
				"element": "C" 
			},
			{
				"x": 0.7974896059,
				"y": -1.3525214463,
				"z": 1.1022789286,
				"element": "C" 
			},
			{
				"x": 0.4375169555,
				"y": -1.5541269053,
				"z": -0.2395096037,
				"element": "C" 
			},
			{
				"x": -0.5288728134,
				"y": -2.5304288141,
				"z": -0.5296462004,
				"element": "C" 
			},
			{
				"x": -1.128110076,
				"y": -3.2716244604,
				"z": 0.4886227396,
				"element": "C" 
			},
			{
				"x": 1.1632160345,
				"y": -0.8538203805,
				"z": -1.3407752696,
				"element": "C" 
			},
			{
				"x": 1.7852632076,
				"y": -1.6796589077,
				"z": -2.2681278075,
				"element": "C" 
			},
			{
				"x": 2.6588774424,
				"y": -1.1867633151,
				"z": -3.25772004,
				"element": "C" 
			},
			{
				"x": 2.9581101424,
				"y": 0.1521445873,
				"z": -3.2823820061,
				"element": "C" 
			},
			{
				"x": 2.3374436467,
				"y": 1.0513989386,
				"z": -2.3754650911,
				"element": "C" 
			},
			{
				"x": 1.3585557013,
				"y": 0.5750516828,
				"z": -1.4268057743,
				"element": "C" 
			},
			{
				"x": 0.6586320173,
				"y": 1.5683075887,
				"z": -0.6452771764,
				"element": "C" 
			},
			{
				"x": 1.0649696225,
				"y": 2.894585323,
				"z": -0.7145892751,
				"element": "C" 
			},
			{
				"x": 2.0962505544,
				"y": 3.3286320356,
				"z": -1.5710282646,
				"element": "C" 
			},
			{
				"x": 2.6928793101,
				"y": 2.4256350899,
				"z": -2.4145073796,
				"element": "C" 
			},
			{
				"x": -0.5767880294,
				"y": 1.3143779786,
				"z": 0.1541864577,
				"element": "C" 
			},
			{
				"x": -0.6763930901,
				"y": 1.7713380672,
				"z": 1.4780108808,
				"element": "C" 
			},
			{
				"x": -1.8662638865,
				"y": 1.641885696,
				"z": 2.1940842954,
				"element": "C" 
			},
			{
				"x": -2.9844410197,
				"y": 1.0595061381,
				"z": 1.5957038766,
				"element": "C" 
			},
			{
				"x": -2.9017171945,
				"y": 0.6094361057,
				"z": 0.276341733,
				"element": "C" 
			},
			{
				"x": -1.7112300852,
				"y": 0.7365472078,
				"z": -0.4372524907,
				"element": "C" 
			},
			{
				"x": -1.2297663012,
				"y": -3.6329832425,
				"z": 2.6135142393,
				"element": "H" 
			},
			{
				"x": 0.4974282529,
				"y": -1.9255016045,
				"z": 3.1520015667,
				"element": "H" 
			},
			{
				"x": 1.5589176665,
				"y": -0.6171388302,
				"z": 1.3432698232,
				"element": "H" 
			},
			{
				"x": -0.8192469574,
				"y": -2.6975804532,
				"z": -1.5632201628,
				"element": "H" 
			},
			{
				"x": -1.8801991542,
				"y": -4.0160102536,
				"z": 0.2418711693,
				"element": "H" 
			},
			{
				"x": 1.6362352802,
				"y": -2.7517349515,
				"z": -2.1830646524,
				"element": "H" 
			},
			{
				"x": 3.1260353257,
				"y": -1.8741604826,
				"z": -3.9568346136,
				"element": "H" 
			},
			{
				"x": 3.6760864971,
				"y": 0.5496102164,
				"z": -3.9948887302,
				"element": "H" 
			},
			{
				"x": 0.5217576404,
				"y": 3.6298026494,
				"z": -0.1287844635,
				"element": "H" 
			},
			{
				"x": 2.3737549039,
				"y": 4.3783916053,
				"z": -1.5935909566,
				"element": "H" 
			},
			{
				"x": 3.4472426259,
				"y": 2.7446111297,
				"z": -3.1288799703,
				"element": "H" 
			},
			{
				"x": 0.1932135801,
				"y": 2.2198931902,
				"z": 1.9503633924,
				"element": "H" 
			},
			{
				"x": -1.9182133294,
				"y": 1.9945552177,
				"z": 3.2205145936,
				"element": "H" 
			},
			{
				"x": -3.9125598075,
				"y": 0.9585983769,
				"z": 2.1509949287,
				"element": "H" 
			},
			{
				"x": -3.7691100737,
				"y": 0.1626972559,
				"z": -0.2015701768,
				"element": "H" 
			},
			{
				"x": -1.6589345696,
				"y": 0.3975525657,
				"z": -1.467300206,
				"element": "H" 
			}
		],
		 "valence_orbital": [ 
			{
				"type": "occ",
				"energy": -0.25085,
				"method": "rhf"
			},
			{
				"type": "occ",
				"energy": -0.24198,
				"method": "rhf"
			},
			{
				"type": "occ",
				"energy": -0.23618,
				"method": "rhf"
			},
			{
				"type": "occ",
				"energy": -0.22192,
				"method": "rhf"
			},
			{
				"type": "occ",
				"energy": -0.20378,
				"method": "rhf"
			},
			{
				"type": "unocc",
				"energy": -0.04438,
				"method": "rhf"
			},
			{
				"type": "unocc",
				"energy": -0.01326,
				"method": "rhf"
			},
			{
				"type": "unocc",
				"energy": -0.00836,
				"method": "rhf"
			},
			{
				"type": "unocc",
				"energy": 0.00239,
				"method": "rhf"
			},
			{
				"type": "unocc",
				"energy": 0.00866,
				"method": "rhf"
			}
		],
		"cosmo_sigma_profile": { 
			"-0.025": 0.0,
			"-0.024": 0.0,
			"-0.023": 0.0,
			"-0.022": 0.0,
			"-0.021": 0.0,
			"-0.02": 0.0,
			"-0.019": 0.0,
			"-0.018": 0.0,
			"-0.017": 0.0,
			"-0.016": 0.0,
			"-0.015": 0.0,
			"-0.014": 0.0,
			"-0.013": 0.0,
			"-0.012": 0.0,
			"-0.011": 0.0,
			"-0.01": 0.0,
			"-0.009": 0.0,
			"-0.008": 0.0,
			"-0.007": 0.161674453956,
			"-0.006": 11.344182161,
			"-0.005": 29.226773813,
			"-0.004": 33.2849603807,
			"-0.003": 33.594202872,
			"-0.002": 25.2513235668,
			"-0.001": 25.3243351698,
			"0.0": 19.8936416767,
			"0.001": 19.5748468287,
			"0.002": 21.431207618,
			"0.003": 26.5663627869,
			"0.004": 33.1698678618,
			"0.005": 25.2951672,
			"0.006": 12.13601011,
			"0.007": 4.36850565332,
			"0.008": 2.4984048631,
			"0.009": 0.30487955627,
			"0.01": 0.0,
			"0.011": 0.0,
			"0.012": 0.0,
			"0.013": 0.0,
			"0.014": 0.0,
			"0.015": 0.0,
			"0.016": 0.0,
			"0.017": 0.0,
			"0.018": 0.0,
			"0.019": 0.0,
			"0.02": 0.0,
			"0.021": 0.0,
			"0.022": 0.0,
			"0.023": 0.0,
			"0.024": 0.0,
			"0.025": 0.0
		}
	}
}
