{
	 "smiles": "OC(=O)C1CCN(CC1)C1=NC=C(Cl)C=C1", 
	 "Tm": 426.15, 
	 "num_atms": 29, 
	 "gaussian": { 
		 "optdone": 1, 
		 "sigma_profile": "yes", 
		 "theory": "DFT", 
		 "functional": "B3LYP", 
		 "basiset": "6-31G**", 
		 "properties": { 
			 "R2extent": 6542.329, 
			 "electric_dipole_moment_norm": 1.10040409396, 
			 "electric_quadrupole_moment_norm": 35.9185778368, 
			 "total_energy": -1147.15622759, 
			 "HOMO_LUMO_gap": 0.17681, 
			 "cosmo_polarized_energy": -17.33, 
			 "cosmo_cavitation_energy": 33.29, 
			 "cosmo_dispersion_energy": -24.59, 
			 "cosmo_repulsion_energy": 1.91, 
			 "cosmo_total_nonelectrostatic_energy": 10.61, 
			 "SMD_solvation_energy": 4.46 
		},
		"coords": [
			{
				"x": 2.2229345947,
				"y": -3.5208290224,
				"z": 1.835144066,
				"element": "O" 
			},
			{
				"x": 1.5120331645,
				"y": -3.5602605166,
				"z": 0.6743882116,
				"element": "C" 
			},
			{
				"x": 1.428180351,
				"y": -4.592354763,
				"z": 0.0568227781,
				"element": "O" 
			},
			{
				"x": 0.8648693816,
				"y": -2.2425361611,
				"z": 0.2581103964,
				"element": "C" 
			},
			{
				"x": 0.1258961959,
				"y": -2.3739621321,
				"z": -1.0772225285,
				"element": "C" 
			},
			{
				"x": -0.6693258426,
				"y": -1.0950454417,
				"z": -1.3708855484,
				"element": "C" 
			},
			{
				"x": 0.123666186,
				"y": 0.0963506304,
				"z": -1.0678891151,
				"element": "N" 
			},
			{
				"x": 1.5653833298,
				"y": -0.0889127721,
				"z": -0.9360398793,
				"element": "C" 
			},
			{
				"x": 1.8977137287,
				"y": -1.0728402401,
				"z": 0.201047471,
				"element": "C" 
			},
			{
				"x": -0.4380082636,
				"y": 1.3537952947,
				"z": -1.1407843879,
				"element": "C" 
			},
			{
				"x": 0.3648948282,
				"y": 2.4047590927,
				"z": -0.8815166093,
				"element": "N" 
			},
			{
				"x": -0.1422719398,
				"y": 3.636587974,
				"z": -0.9126785258,
				"element": "C" 
			},
			{
				"x": -1.477948277,
				"y": 3.900505789,
				"z": -1.2037334394,
				"element": "C" 
			},
			{
				"x": -2.0755948718,
				"y": 5.5507359505,
				"z": -1.2246715696,
				"element": "Cl" 
			},
			{
				"x": -2.3220896549,
				"y": 2.8259718921,
				"z": -1.4868936789,
				"element": "C" 
			},
			{
				"x": -1.8068061167,
				"y": 1.5387490434,
				"z": -1.4618625205,
				"element": "C" 
			},
			{
				"x": 2.1986119439,
				"y": -2.6310178297,
				"z": 2.2152642219,
				"element": "H" 
			},
			{
				"x": 0.1211560902,
				"y": -2.0020145009,
				"z": 1.0327088698,
				"element": "H" 
			},
			{
				"x": 0.8465684708,
				"y": -2.5829546315,
				"z": -1.8743992377,
				"element": "H" 
			},
			{
				"x": -0.5546888975,
				"y": -3.2281529506,
				"z": -1.0533537885,
				"element": "H" 
			},
			{
				"x": -1.5727443303,
				"y": -1.0874216,
				"z": -0.745407223,
				"element": "H" 
			},
			{
				"x": -1.0066936155,
				"y": -1.0949566638,
				"z": -2.4197245914,
				"element": "H" 
			},
			{
				"x": 2.0094721426,
				"y": 0.886768659,
				"z": -0.7483042437,
				"element": "H" 
			},
			{
				"x": 1.9809532911,
				"y": -0.4631525368,
				"z": -1.8828666715,
				"element": "H" 
			},
			{
				"x": 2.9108368171,
				"y": -1.4579872954,
				"z": 0.036217777,
				"element": "H" 
			},
			{
				"x": 1.9083338149,
				"y": -0.5335014281,
				"z": 1.1556950094,
				"element": "H" 
			},
			{
				"x": 0.5432081226,
				"y": 4.4535056575,
				"z": -0.6972337254,
				"element": "H" 
			},
			{
				"x": -3.3656715702,
				"y": 2.9968354985,
				"z": -1.7298630643,
				"element": "H" 
			},
			{
				"x": -2.4514690735,
				"y": 0.7014350043,
				"z": -1.6955684534,
				"element": "H" 
			}
		],
		 "valence_orbital": [ 
			{
				"type": "occ",
				"energy": -0.29002,
				"method": "rhf"
			},
			{
				"type": "occ",
				"energy": -0.28555,
				"method": "rhf"
			},
			{
				"type": "occ",
				"energy": -0.27495,
				"method": "rhf"
			},
			{
				"type": "occ",
				"energy": -0.26493,
				"method": "rhf"
			},
			{
				"type": "occ",
				"energy": -0.20683,
				"method": "rhf"
			},
			{
				"type": "unocc",
				"energy": -0.03002,
				"method": "rhf"
			},
			{
				"type": "unocc",
				"energy": -0.00289,
				"method": "rhf"
			},
			{
				"type": "unocc",
				"energy": 0.0044,
				"method": "rhf"
			},
			{
				"type": "unocc",
				"energy": 0.03184,
				"method": "rhf"
			},
			{
				"type": "unocc",
				"energy": 0.04489,
				"method": "rhf"
			}
		],
		"cosmo_sigma_profile": { 
			"-0.025": 0.0,
			"-0.024": 0.0,
			"-0.023": 0.0,
			"-0.022": 0.0,
			"-0.021": 0.0,
			"-0.02": 0.0,
			"-0.019": 0.0,
			"-0.018": 0.307206685721,
			"-0.017": 1.32814297736,
			"-0.016": 0.805900707268,
			"-0.015": 1.29904860928,
			"-0.014": 1.14707578272,
			"-0.013": 0.983901502611,
			"-0.012": 0.535323882376,
			"-0.011": 1.46422319534,
			"-0.01": 1.19539388626,
			"-0.009": 0.959428737724,
			"-0.008": 2.41061758902,
			"-0.007": 7.384189539,
			"-0.006": 11.1343575643,
			"-0.005": 19.8021210984,
			"-0.004": 27.3367484639,
			"-0.003": 22.3463388211,
			"-0.002": 18.0033598583,
			"-0.001": 13.9785067224,
			"0.0": 12.5627039235,
			"0.001": 14.9898658241,
			"0.002": 21.6706105129,
			"0.003": 18.9077567623,
			"0.004": 13.7792878783,
			"0.005": 12.4146604233,
			"0.006": 5.41716626428,
			"0.007": 3.69304757281,
			"0.008": 4.98016303898,
			"0.009": 4.33788109673,
			"0.01": 5.78642627695,
			"0.011": 6.46570324993,
			"0.012": 5.74323616976,
			"0.013": 1.88317105958,
			"0.014": 0.0645803284934,
			"0.015": 0.0,
			"0.016": 0.0,
			"0.017": 0.0,
			"0.018": 0.0,
			"0.019": 0.0,
			"0.02": 0.0,
			"0.021": 0.0,
			"0.022": 0.0,
			"0.023": 0.0,
			"0.024": 0.0,
			"0.025": 0.0
		}
	}
}
