{
	 "smiles": "CCCN(CCC)C(=O)COC(=O)C1=CC=CC=C1", 
	 "Tm": 293.15, 
	 "num_atms": 40, 
	 "gaussian": { 
		 "optdone": 1, 
		 "sigma_profile": "yes", 
		 "theory": "DFT", 
		 "functional": "B3LYP", 
		 "basiset": "6-31G**", 
		 "properties": { 
			 "R2extent": 8747.8895, 
			 "electric_dipole_moment_norm": 2.3768728868, 
			 "electric_quadrupole_moment_norm": 18.0148748111, 
			 "total_energy": -864.711175902, 
			 "HOMO_LUMO_gap": 0.19646, 
			 "cosmo_polarized_energy": -15.52, 
			 "cosmo_cavitation_energy": 42.93, 
			 "cosmo_dispersion_energy": -29.66, 
			 "cosmo_repulsion_energy": 2.33, 
			 "cosmo_total_nonelectrostatic_energy": 15.6, 
			 "SMD_solvation_energy": 8.46 
		},
		"coords": [
			{
				"x": 0.2525174746,
				"y": -0.249243809,
				"z": -5.9879313012,
				"element": "C" 
			},
			{
				"x": -0.1126619327,
				"y": -0.7940289297,
				"z": -4.6037618947,
				"element": "C" 
			},
			{
				"x": -0.5423837285,
				"y": 0.320069847,
				"z": -3.6395752365,
				"element": "C" 
			},
			{
				"x": -0.9150110923,
				"y": -0.1791634203,
				"z": -2.3080067302,
				"element": "N" 
			},
			{
				"x": -2.3161701852,
				"y": -0.5349636069,
				"z": -2.0579932902,
				"element": "C" 
			},
			{
				"x": -3.163327786,
				"y": 0.560374174,
				"z": -1.3841690684,
				"element": "C" 
			},
			{
				"x": -3.2976942657,
				"y": 1.8582704351,
				"z": -2.1856388844,
				"element": "C" 
			},
			{
				"x": 0.1077012945,
				"y": -0.3998617339,
				"z": -1.4193572899,
				"element": "C" 
			},
			{
				"x": 1.274311868,
				"y": -0.1318440961,
				"z": -1.6771280416,
				"element": "O" 
			},
			{
				"x": -0.2866415957,
				"y": -1.0295424368,
				"z": -0.0761697885,
				"element": "C" 
			},
			{
				"x": 0.8738471682,
				"y": -1.0243607424,
				"z": 0.7453882269,
				"element": "O" 
			},
			{
				"x": 0.7378524715,
				"y": -1.5968608384,
				"z": 1.9636627834,
				"element": "C" 
			},
			{
				"x": -0.3063765528,
				"y": -2.0812318977,
				"z": 2.3586164143,
				"element": "O" 
			},
			{
				"x": 2.0088726723,
				"y": -1.5552947821,
				"z": 2.7371975242,
				"element": "C" 
			},
			{
				"x": 3.1834626542,
				"y": -1.0069086674,
				"z": 2.2015032476,
				"element": "C" 
			},
			{
				"x": 4.3489081565,
				"y": -0.9934954121,
				"z": 2.9661126928,
				"element": "C" 
			},
			{
				"x": 4.3467137806,
				"y": -1.5229836874,
				"z": 4.2592613423,
				"element": "C" 
			},
			{
				"x": 3.1761437089,
				"y": -2.0700591886,
				"z": 4.7926169734,
				"element": "C" 
			},
			{
				"x": 2.0087231406,
				"y": -2.0873250209,
				"z": 4.0336085072,
				"element": "C" 
			},
			{
				"x": 0.561935642,
				"y": -1.0548344747,
				"z": -6.6608029205,
				"element": "H" 
			},
			{
				"x": -0.5964725797,
				"y": 0.2645139158,
				"z": -6.4542321138,
				"element": "H" 
			},
			{
				"x": 1.0796041747,
				"y": 0.466525439,
				"z": -5.9251881943,
				"element": "H" 
			},
			{
				"x": -0.9213931911,
				"y": -1.5314641205,
				"z": -4.6948643949,
				"element": "H" 
			},
			{
				"x": 0.7459510991,
				"y": -1.3132973027,
				"z": -4.1653917983,
				"element": "H" 
			},
			{
				"x": 0.2785962065,
				"y": 1.0295136248,
				"z": -3.5105418735,
				"element": "H" 
			},
			{
				"x": -1.398876826,
				"y": 0.8651588263,
				"z": -4.0475487399,
				"element": "H" 
			},
			{
				"x": -2.3626935775,
				"y": -1.4477093824,
				"z": -1.4554259573,
				"element": "H" 
			},
			{
				"x": -2.7605330575,
				"y": -0.7956688666,
				"z": -3.0253715437,
				"element": "H" 
			},
			{
				"x": -2.7441005918,
				"y": 0.7863674983,
				"z": -0.396211849,
				"element": "H" 
			},
			{
				"x": -4.1587177006,
				"y": 0.1341807125,
				"z": -1.202428006,
				"element": "H" 
			},
			{
				"x": -2.3261160976,
				"y": 2.339168038,
				"z": -2.3341869269,
				"element": "H" 
			},
			{
				"x": -3.9410703729,
				"y": 2.5714702037,
				"z": -1.6610759484,
				"element": "H" 
			},
			{
				"x": -3.7410438093,
				"y": 1.6769039941,
				"z": -3.1717288238,
				"element": "H" 
			},
			{
				"x": -1.0955141037,
				"y": -0.4833760719,
				"z": 0.4187328992,
				"element": "H" 
			},
			{
				"x": -0.6374146698,
				"y": -2.05939545,
				"z": -0.2166427891,
				"element": "H" 
			},
			{
				"x": 3.1706400536,
				"y": -0.6016617279,
				"z": 1.1957398327,
				"element": "H" 
			},
			{
				"x": 5.2598985646,
				"y": -0.570327353,
				"z": 2.5532376621,
				"element": "H" 
			},
			{
				"x": 5.2574837047,
				"y": -1.5100168761,
				"z": 4.8515350152,
				"element": "H" 
			},
			{
				"x": 3.175978781,
				"y": -2.4817815949,
				"z": 5.7976012545,
				"element": "H" 
			},
			{
				"x": 1.0870711004,
				"y": -2.5068152183,
				"z": 4.4229590289,
				"element": "H" 
			}
		],
		 "valence_orbital": [ 
			{
				"type": "occ",
				"energy": -0.27271,
				"method": "rhf"
			},
			{
				"type": "occ",
				"energy": -0.25479,
				"method": "rhf"
			},
			{
				"type": "occ",
				"energy": -0.25353,
				"method": "rhf"
			},
			{
				"type": "occ",
				"energy": -0.24885,
				"method": "rhf"
			},
			{
				"type": "occ",
				"energy": -0.23785,
				"method": "rhf"
			},
			{
				"type": "unocc",
				"energy": -0.04139,
				"method": "rhf"
			},
			{
				"type": "unocc",
				"energy": -0.00271,
				"method": "rhf"
			},
			{
				"type": "unocc",
				"energy": 0.024,
				"method": "rhf"
			},
			{
				"type": "unocc",
				"energy": 0.06182,
				"method": "rhf"
			},
			{
				"type": "unocc",
				"energy": 0.0712,
				"method": "rhf"
			}
		],
		"cosmo_sigma_profile": { 
			"-0.025": 0.0,
			"-0.024": 0.0,
			"-0.023": 0.0,
			"-0.022": 0.0,
			"-0.021": 0.0,
			"-0.02": 0.0,
			"-0.019": 0.0,
			"-0.018": 0.0,
			"-0.017": 0.0,
			"-0.016": 0.0,
			"-0.015": 0.0,
			"-0.014": 0.0,
			"-0.013": 0.0,
			"-0.012": 0.0,
			"-0.011": 0.0,
			"-0.01": 0.0,
			"-0.009": 0.41923237004,
			"-0.008": 2.79500893931,
			"-0.007": 7.30591297904,
			"-0.006": 14.1416582461,
			"-0.005": 18.1685974464,
			"-0.004": 24.1201512555,
			"-0.003": 37.3263233829,
			"-0.002": 36.4002321159,
			"-0.001": 37.7944464442,
			"0.0": 37.4688578987,
			"0.001": 32.4520108312,
			"0.002": 18.5435200958,
			"0.003": 14.3539823928,
			"0.004": 14.9744284655,
			"0.005": 4.93107269439,
			"0.006": 3.55067734551,
			"0.007": 3.17810041958,
			"0.008": 2.8861971653,
			"0.009": 3.18575193441,
			"0.01": 3.56868950417,
			"0.011": 5.81895058572,
			"0.012": 5.68390989603,
			"0.013": 4.00546254937,
			"0.014": 4.25634151345,
			"0.015": 0.115098746683,
			"0.016": 0.0,
			"0.017": 0.0,
			"0.018": 0.0,
			"0.019": 0.0,
			"0.02": 0.0,
			"0.021": 0.0,
			"0.022": 0.0,
			"0.023": 0.0,
			"0.024": 0.0,
			"0.025": 0.0
		}
	}
}
