{
	 "smiles": "COC(=O)C1=CC=C(O1)C(O)=O", 
	 "Tm": 468.15, 
	 "num_atms": 18, 
	 "gaussian": { 
		 "optdone": 1, 
		 "sigma_profile": "yes", 
		 "theory": "DFT", 
		 "functional": "B3LYP", 
		 "basiset": "6-31G**", 
		 "properties": { 
			 "R2extent": 3147.8754, 
			 "electric_dipole_moment_norm": 6.81449080343, 
			 "electric_quadrupole_moment_norm": 25.8539252356, 
			 "total_energy": -646.459584154, 
			 "HOMO_LUMO_gap": 0.18824, 
			 "cosmo_polarized_energy": -21.08, 
			 "cosmo_cavitation_energy": 24.47, 
			 "cosmo_dispersion_energy": -17.82, 
			 "cosmo_repulsion_energy": 1.44, 
			 "cosmo_total_nonelectrostatic_energy": 8.09, 
			 "SMD_solvation_energy": 7.92 
		},
		"coords": [
			{
				"x": 1.5530030141,
				"y": -0.7798239506,
				"z": -2.7562442272,
				"element": "C" 
			},
			{
				"x": 1.1326298258,
				"y": -0.4801877305,
				"z": -1.4138140567,
				"element": "O" 
			},
			{
				"x": -0.1656563613,
				"y": -0.7503167116,
				"z": -1.1508998794,
				"element": "C" 
			},
			{
				"x": -0.9529445174,
				"y": -1.2099444967,
				"z": -1.9474904475,
				"element": "O" 
			},
			{
				"x": -0.4787577956,
				"y": -0.4034266493,
				"z": 0.2475478287,
				"element": "C" 
			},
			{
				"x": 0.2805708639,
				"y": 0.1031321772,
				"z": 1.2733036806,
				"element": "C" 
			},
			{
				"x": -0.5912910438,
				"y": 0.2086515639,
				"z": 2.3883730283,
				"element": "C" 
			},
			{
				"x": -1.8202496861,
				"y": -0.2425839487,
				"z": 1.9619598353,
				"element": "C" 
			},
			{
				"x": -1.7549169829,
				"y": -0.6113386133,
				"z": 0.6586695319,
				"element": "O" 
			},
			{
				"x": -3.1468171173,
				"y": -0.3516018453,
				"z": 2.6130373111,
				"element": "C" 
			},
			{
				"x": -3.131851065,
				"y": -0.220276588,
				"z": 3.9672031374,
				"element": "O" 
			},
			{
				"x": -4.1769900403,
				"y": -0.5231436122,
				"z": 2.0134410527,
				"element": "O" 
			},
			{
				"x": 0.9741570928,
				"y": -0.198240986,
				"z": -3.477818324,
				"element": "H" 
			},
			{
				"x": 2.6069939909,
				"y": -0.507310956,
				"z": -2.800205192,
				"element": "H" 
			},
			{
				"x": 1.420497142,
				"y": -1.8429757016,
				"z": -2.9711258413,
				"element": "H" 
			},
			{
				"x": 1.3260859036,
				"y": 0.3655507011,
				"z": 1.2186551114,
				"element": "H" 
			},
			{
				"x": -0.3403912184,
				"y": 0.5973319132,
				"z": 3.366128772,
				"element": "H" 
			},
			{
				"x": -2.2256720051,
				"y": -0.2390945657,
				"z": 4.3053786786,
				"element": "H" 
			}
		],
		 "valence_orbital": [ 
			{
				"type": "occ",
				"energy": -0.31835,
				"method": "rhf"
			},
			{
				"type": "occ",
				"energy": -0.31266,
				"method": "rhf"
			},
			{
				"type": "occ",
				"energy": -0.29012,
				"method": "rhf"
			},
			{
				"type": "occ",
				"energy": -0.28597,
				"method": "rhf"
			},
			{
				"type": "occ",
				"energy": -0.26445,
				"method": "rhf"
			},
			{
				"type": "unocc",
				"energy": -0.07621,
				"method": "rhf"
			},
			{
				"type": "unocc",
				"energy": -0.01868,
				"method": "rhf"
			},
			{
				"type": "unocc",
				"energy": 0.04557,
				"method": "rhf"
			},
			{
				"type": "unocc",
				"energy": 0.07752,
				"method": "rhf"
			},
			{
				"type": "unocc",
				"energy": 0.09068,
				"method": "rhf"
			}
		],
		"cosmo_sigma_profile": { 
			"-0.025": 0.0,
			"-0.024": 0.0,
			"-0.023": 0.0,
			"-0.022": 0.0,
			"-0.021": 0.0,
			"-0.02": 0.143930124918,
			"-0.019": 0.918165276195,
			"-0.018": 1.7525978946,
			"-0.017": 0.605997643006,
			"-0.016": 0.815628147998,
			"-0.015": 1.79947873357,
			"-0.014": 1.02509935495,
			"-0.013": 0.847899915969,
			"-0.012": 1.56009163308,
			"-0.011": 1.3412979114,
			"-0.01": 1.84112058928,
			"-0.009": 2.9599648289,
			"-0.008": 3.41140759093,
			"-0.007": 5.30383311952,
			"-0.006": 10.9046064934,
			"-0.005": 12.2279820999,
			"-0.004": 16.4400845955,
			"-0.003": 14.5012856829,
			"-0.002": 14.211472535,
			"-0.001": 11.4855167867,
			"0.0": 12.3025198682,
			"0.001": 9.08363326207,
			"0.002": 6.04345345815,
			"0.003": 4.16820074644,
			"0.004": 5.53677299861,
			"0.005": 5.65185723879,
			"0.006": 5.25599801598,
			"0.007": 5.26182024004,
			"0.008": 5.47507193033,
			"0.009": 7.85418324051,
			"0.01": 8.91891355825,
			"0.011": 11.4275499329,
			"0.012": 5.01166706751,
			"0.013": 0.189588122461,
			"0.014": 0.0,
			"0.015": 0.0,
			"0.016": 0.0,
			"0.017": 0.0,
			"0.018": 0.0,
			"0.019": 0.0,
			"0.02": 0.0,
			"0.021": 0.0,
			"0.022": 0.0,
			"0.023": 0.0,
			"0.024": 0.0,
			"0.025": 0.0
		}
	}
}
