{
	 "smiles": "OC(=O)C1=NN(C=C1O)C1=CC=C(F)C=C1", 
	 "Tm": 501.15, 
	 "num_atms": 23, 
	 "gaussian": { 
		 "optdone": 1, 
		 "sigma_profile": "yes", 
		 "theory": "DFT", 
		 "functional": "B3LYP", 
		 "basiset": "6-31G**", 
		 "properties": { 
			 "R2extent": 5466.6793, 
			 "electric_dipole_moment_norm": 4.02518869868, 
			 "electric_quadrupole_moment_norm": 18.2385242481, 
			 "total_energy": -820.279685069, 
			 "HOMO_LUMO_gap": 0.16576, 
			 "cosmo_polarized_energy": -13.03, 
			 "cosmo_cavitation_energy": 28.9, 
			 "cosmo_dispersion_energy": -21.55, 
			 "cosmo_repulsion_energy": 1.62, 
			 "cosmo_total_nonelectrostatic_energy": 8.96, 
			 "SMD_solvation_energy": 6.79 
		},
		"coords": [
			{
				"x": -0.7704857466,
				"y": -0.0621483521,
				"z": -4.0826937869,
				"element": "O" 
			},
			{
				"x": -1.7168404747,
				"y": -0.7283642517,
				"z": -3.4000937412,
				"element": "C" 
			},
			{
				"x": -2.8174088959,
				"y": -0.9576181054,
				"z": -3.8806275186,
				"element": "O" 
			},
			{
				"x": -1.3751019728,
				"y": -1.1717819309,
				"z": -2.0489888847,
				"element": "C" 
			},
			{
				"x": -0.1904986917,
				"y": -0.9533623986,
				"z": -1.4656019801,
				"element": "N" 
			},
			{
				"x": -0.2919495972,
				"y": -1.5132839145,
				"z": -0.2514096981,
				"element": "N" 
			},
			{
				"x": -1.5281772265,
				"y": -2.0916705498,
				"z": -0.0414979889,
				"element": "C" 
			},
			{
				"x": -2.2552488154,
				"y": -1.8842559017,
				"z": -1.1971895799,
				"element": "C" 
			},
			{
				"x": -3.5129569977,
				"y": -2.262812592,
				"z": -1.4739366972,
				"element": "O" 
			},
			{
				"x": 0.8087137371,
				"y": -1.4644286902,
				"z": 0.6502935498,
				"element": "C" 
			},
			{
				"x": 1.9927622751,
				"y": -0.8287511236,
				"z": 0.2556965711,
				"element": "C" 
			},
			{
				"x": 3.0768217582,
				"y": -0.77301813,
				"z": 1.1259253164,
				"element": "C" 
			},
			{
				"x": 2.9671001489,
				"y": -1.3542616062,
				"z": 2.3848339715,
				"element": "C" 
			},
			{
				"x": 4.0162044252,
				"y": -1.3006660044,
				"z": 3.227704057,
				"element": "F" 
			},
			{
				"x": 1.8009534499,
				"y": -1.9890088548,
				"z": 2.7938528858,
				"element": "C" 
			},
			{
				"x": 0.7159685052,
				"y": -2.0439681921,
				"z": 1.9209501087,
				"element": "C" 
			},
			{
				"x": 0.0187570823,
				"y": 0.0081734396,
				"z": -3.5183512902,
				"element": "H" 
			},
			{
				"x": -1.7972005097,
				"y": -2.5897936839,
				"z": 0.8734807123,
				"element": "H" 
			},
			{
				"x": -3.6905203373,
				"y": -1.9436168765,
				"z": -2.383296501,
				"element": "H" 
			},
			{
				"x": 2.0520196297,
				"y": -0.384563561,
				"z": -0.7291326667,
				"element": "H" 
			},
			{
				"x": 4.0017640668,
				"y": -0.2854486091,
				"z": 0.8386554609,
				"element": "H" 
			},
			{
				"x": 1.7478165987,
				"y": -2.4321400382,
				"z": 3.7818799488,
				"element": "H" 
			},
			{
				"x": -0.1905924117,
				"y": -2.5401100729,
				"z": 2.245347751,
				"element": "H" 
			}
		],
		 "valence_orbital": [ 
			{
				"type": "occ",
				"energy": -0.30194,
				"method": "rhf"
			},
			{
				"type": "occ",
				"energy": -0.2901,
				"method": "rhf"
			},
			{
				"type": "occ",
				"energy": -0.28332,
				"method": "rhf"
			},
			{
				"type": "occ",
				"energy": -0.25735,
				"method": "rhf"
			},
			{
				"type": "occ",
				"energy": -0.22889,
				"method": "rhf"
			},
			{
				"type": "unocc",
				"energy": -0.06313,
				"method": "rhf"
			},
			{
				"type": "unocc",
				"energy": -0.03315,
				"method": "rhf"
			},
			{
				"type": "unocc",
				"energy": -0.0076,
				"method": "rhf"
			},
			{
				"type": "unocc",
				"energy": 0.03255,
				"method": "rhf"
			},
			{
				"type": "unocc",
				"energy": 0.05975,
				"method": "rhf"
			}
		],
		"cosmo_sigma_profile": { 
			"-0.025": 0.0,
			"-0.024": 0.0,
			"-0.023": 0.0,
			"-0.022": 0.0,
			"-0.021": 0.0,
			"-0.02": 0.0,
			"-0.019": 0.0,
			"-0.018": 0.0,
			"-0.017": 0.107050500081,
			"-0.016": 0.49402495248,
			"-0.015": 0.668584513579,
			"-0.014": 0.551364449538,
			"-0.013": 0.38785607184,
			"-0.012": 1.55610131755,
			"-0.011": 3.19552188877,
			"-0.01": 3.2248114324,
			"-0.009": 3.30524337703,
			"-0.008": 5.46307379569,
			"-0.007": 8.50500151194,
			"-0.006": 9.8629079468,
			"-0.005": 11.1656909611,
			"-0.004": 10.3827323361,
			"-0.003": 11.8098534874,
			"-0.002": 10.6546478546,
			"-0.001": 15.3867299633,
			"0.0": 22.9105642548,
			"0.001": 23.212086719,
			"0.002": 24.2521714379,
			"0.003": 15.3157315225,
			"0.004": 14.658593955,
			"0.005": 5.52005027142,
			"0.006": 3.8687206452,
			"0.007": 4.15827174288,
			"0.008": 5.32995326108,
			"0.009": 5.5202555668,
			"0.01": 5.82140910082,
			"0.011": 3.43993035413,
			"0.012": 2.14323987015,
			"0.013": 0.526046599171,
			"0.014": 0.0,
			"0.015": 0.0,
			"0.016": 0.0,
			"0.017": 0.0,
			"0.018": 0.0,
			"0.019": 0.0,
			"0.02": 0.0,
			"0.021": 0.0,
			"0.022": 0.0,
			"0.023": 0.0,
			"0.024": 0.0,
			"0.025": 0.0
		}
	}
}
