{
	 "smiles": "COC1=C(OCC(=O)N(C)C)C(Br)=CC(C=O)=C1", 
	 "Tm": 336.15, 
	 "num_atms": 32, 
	 "gaussian": { 
		 "optdone": 1, 
		 "sigma_profile": "yes", 
		 "theory": "DFT", 
		 "functional": "B3LYP", 
		 "basiset": "6-31G**", 
		 "properties": { 
			 "R2extent": 7679.4799, 
			 "electric_dipole_moment_norm": 2.91842041522, 
			 "electric_quadrupole_moment_norm": 12.891457966, 
			 "total_energy": -3392.73186625, 
			 "HOMO_LUMO_gap": 0.16636, 
			 "cosmo_polarized_energy": -15.07, 
			 "cosmo_cavitation_energy": 38.31, 
			 "cosmo_dispersion_energy": -26.22, 
			 "cosmo_repulsion_energy": 2.03, 
			 "cosmo_total_nonelectrostatic_energy": 14.12, 
			 "SMD_solvation_energy": 7.96 
		},
		"coords": [
			{
				"x": -2.5419232393,
				"y": -1.4663896719,
				"z": 1.2519164666,
				"element": "C" 
			},
			{
				"x": -1.422564584,
				"y": -1.0380300581,
				"z": 0.4829619294,
				"element": "O" 
			},
			{
				"x": -1.2805793778,
				"y": -1.4866536249,
				"z": -0.7864631072,
				"element": "C" 
			},
			{
				"x": -0.2846480396,
				"y": -0.8104086931,
				"z": -1.5429353706,
				"element": "C" 
			},
			{
				"x": 0.463298106,
				"y": 0.190338354,
				"z": -1.0072816184,
				"element": "O" 
			},
			{
				"x": -0.1953382496,
				"y": 1.3152794468,
				"z": -0.3874549319,
				"element": "C" 
			},
			{
				"x": -0.0973548001,
				"y": 1.3790511554,
				"z": 1.1443081698,
				"element": "C" 
			},
			{
				"x": -1.1122079684,
				"y": 1.6594426675,
				"z": 1.7796275071,
				"element": "O" 
			},
			{
				"x": 1.1199206276,
				"y": 1.1876000592,
				"z": 1.7361980434,
				"element": "N" 
			},
			{
				"x": 2.3900377584,
				"y": 1.0063664333,
				"z": 1.0479868077,
				"element": "C" 
			},
			{
				"x": 1.2036251805,
				"y": 1.2444408074,
				"z": 3.1891550378,
				"element": "C" 
			},
			{
				"x": -0.0251464386,
				"y": -1.2354719834,
				"z": -2.8501639371,
				"element": "C" 
			},
			{
				"x": 1.3159296429,
				"y": -0.3475459855,
				"z": -3.8718603042,
				"element": "Br" 
			},
			{
				"x": -0.7333280667,
				"y": -2.2920064854,
				"z": -3.4193309362,
				"element": "C" 
			},
			{
				"x": -1.7286396992,
				"y": -2.9273671612,
				"z": -2.6751111967,
				"element": "C" 
			},
			{
				"x": -2.4927493088,
				"y": -4.0409900624,
				"z": -3.2769993654,
				"element": "C" 
			},
			{
				"x": -3.3767174046,
				"y": -4.6550367931,
				"z": -2.7092011891,
				"element": "O" 
			},
			{
				"x": -2.0038516085,
				"y": -2.5258156752,
				"z": -1.3581329063,
				"element": "C" 
			},
			{
				"x": -2.53042346,
				"y": -0.8414552079,
				"z": 2.1445813608,
				"element": "H" 
			},
			{
				"x": -2.4531606533,
				"y": -2.5239294653,
				"z": 1.5279769855,
				"element": "H" 
			},
			{
				"x": -3.4796351379,
				"y": -1.3101840938,
				"z": 0.7062241104,
				"element": "H" 
			},
			{
				"x": -1.2589255323,
				"y": 1.3259486956,
				"z": -0.6217754855,
				"element": "H" 
			},
			{
				"x": 0.2696130611,
				"y": 2.2070185812,
				"z": -0.8247153381,
				"element": "H" 
			},
			{
				"x": 3.0849026724,
				"y": 1.8089076927,
				"z": 1.3283988825,
				"element": "H" 
			},
			{
				"x": 2.8457379478,
				"y": 0.0499337707,
				"z": 1.3338689101,
				"element": "H" 
			},
			{
				"x": 2.2662336342,
				"y": 1.0037520602,
				"z": -0.0314132385,
				"element": "H" 
			},
			{
				"x": 1.8175646987,
				"y": 2.0964527915,
				"z": 3.5086780931,
				"element": "H" 
			},
			{
				"x": 1.6608776094,
				"y": 0.3263678365,
				"z": 3.5777141811,
				"element": "H" 
			},
			{
				"x": 0.1980098684,
				"y": 1.357452198,
				"z": 3.590149566,
				"element": "H" 
			},
			{
				"x": -0.5187951826,
				"y": -2.604245115,
				"z": -4.4359278021,
				"element": "H" 
			},
			{
				"x": -2.1986551685,
				"y": -4.2932131447,
				"z": -4.3195680247,
				"element": "H" 
			},
			{
				"x": -2.7709068877,
				"y": -3.059009329,
				"z": -0.8093112993,
				"element": "H" 
			}
		],
		 "valence_orbital": [ 
			{
				"type": "occ",
				"energy": -0.25911,
				"method": "rhf"
			},
			{
				"type": "occ",
				"energy": -0.25127,
				"method": "rhf"
			},
			{
				"type": "occ",
				"energy": -0.24539,
				"method": "rhf"
			},
			{
				"type": "occ",
				"energy": -0.24223,
				"method": "rhf"
			},
			{
				"type": "occ",
				"energy": -0.23306,
				"method": "rhf"
			},
			{
				"type": "unocc",
				"energy": -0.0667,
				"method": "rhf"
			},
			{
				"type": "unocc",
				"energy": -0.01501,
				"method": "rhf"
			},
			{
				"type": "unocc",
				"energy": -0.0016,
				"method": "rhf"
			},
			{
				"type": "unocc",
				"energy": 0.01565,
				"method": "rhf"
			},
			{
				"type": "unocc",
				"energy": 0.03681,
				"method": "rhf"
			}
		],
		"cosmo_sigma_profile": { 
			"-0.025": 0.0,
			"-0.024": 0.0,
			"-0.023": 0.0,
			"-0.022": 0.0,
			"-0.021": 0.0,
			"-0.02": 0.0,
			"-0.019": 0.0,
			"-0.018": 0.0,
			"-0.017": 0.0,
			"-0.016": 0.0,
			"-0.015": 0.0,
			"-0.014": 0.0,
			"-0.013": 0.0,
			"-0.012": 0.0,
			"-0.011": 0.0,
			"-0.01": 0.0,
			"-0.009": 0.608542403931,
			"-0.008": 4.20603468887,
			"-0.007": 10.4239470519,
			"-0.006": 16.3433301443,
			"-0.005": 23.9093347637,
			"-0.004": 30.8965432666,
			"-0.003": 29.5062026089,
			"-0.002": 26.5613639302,
			"-0.001": 19.3816477169,
			"0.0": 20.3578506246,
			"0.001": 24.3101409434,
			"0.002": 17.8575063963,
			"0.003": 13.313763538,
			"0.004": 17.1845602744,
			"0.005": 12.8288699004,
			"0.006": 6.47277739625,
			"0.007": 5.33507060368,
			"0.008": 3.89289411673,
			"0.009": 2.97028148479,
			"0.01": 4.18991934001,
			"0.011": 6.22900074549,
			"0.012": 3.9716087387,
			"0.013": 2.75910309611,
			"0.014": 3.44255467197,
			"0.015": 0.487490712793,
			"0.016": 0.0,
			"0.017": 0.0,
			"0.018": 0.0,
			"0.019": 0.0,
			"0.02": 0.0,
			"0.021": 0.0,
			"0.022": 0.0,
			"0.023": 0.0,
			"0.024": 0.0,
			"0.025": 0.0
		}
	}
}
