{
	 "smiles": "OC(=O)CC1=CSC(=N1)C1=C(Cl)C=CC=C1", 
	 "Tm": 380.15, 
	 "num_atms": 24, 
	 "gaussian": { 
		 "optdone": 1, 
		 "sigma_profile": "yes", 
		 "theory": "DFT", 
		 "functional": "B3LYP", 
		 "basiset": "6-31G**", 
		 "properties": { 
			 "R2extent": 5484.6041, 
			 "electric_dipole_moment_norm": 5.18674035305, 
			 "electric_quadrupole_moment_norm": 30.0639369203, 
			 "total_energy": -1487.58154081, 
			 "HOMO_LUMO_gap": 0.16664, 
			 "cosmo_polarized_energy": -13.82, 
			 "cosmo_cavitation_energy": 31.85, 
			 "cosmo_dispersion_energy": -23.9, 
			 "cosmo_repulsion_energy": 1.8, 
			 "cosmo_total_nonelectrostatic_energy": 9.75, 
			 "SMD_solvation_energy": 5.61 
		},
		"coords": [
			{
				"x": -0.9663497473,
				"y": -3.1949033796,
				"z": 0.0715310006,
				"element": "O" 
			},
			{
				"x": -1.941376296,
				"y": -3.2439156643,
				"z": 0.9945047737,
				"element": "C" 
			},
			{
				"x": -2.0816088921,
				"y": -4.1894500333,
				"z": 1.7319314804,
				"element": "O" 
			},
			{
				"x": -2.9259720007,
				"y": -2.0592693796,
				"z": 0.9986137853,
				"element": "C" 
			},
			{
				"x": -2.3340386164,
				"y": -0.6981788241,
				"z": 0.7430060217,
				"element": "C" 
			},
			{
				"x": -2.6489945287,
				"y": 0.46541739,
				"z": 1.3881730378,
				"element": "C" 
			},
			{
				"x": -1.7745242863,
				"y": 1.7904722886,
				"z": 0.7055164708,
				"element": "S" 
			},
			{
				"x": -0.9940183628,
				"y": 0.6854384021,
				"z": -0.413383182,
				"element": "C" 
			},
			{
				"x": -1.4034358006,
				"y": -0.5552359301,
				"z": -0.2598925237,
				"element": "N" 
			},
			{
				"x": 0.0865367125,
				"y": 1.0315581566,
				"z": -1.3557355861,
				"element": "C" 
			},
			{
				"x": 0.2933260498,
				"y": 2.2857697564,
				"z": -1.9629367658,
				"element": "C" 
			},
			{
				"x": -0.7615987,
				"y": 3.657921951,
				"z": -1.6510403828,
				"element": "Cl" 
			},
			{
				"x": 1.3404270705,
				"y": 2.4975011624,
				"z": -2.8607005826,
				"element": "C" 
			},
			{
				"x": 2.214513116,
				"y": 1.4598770846,
				"z": -3.1723194879,
				"element": "C" 
			},
			{
				"x": 2.0387434141,
				"y": 0.2070316459,
				"z": -2.5821863829,
				"element": "C" 
			},
			{
				"x": 0.9937029805,
				"y": 0.0034093352,
				"z": -1.6909609617,
				"element": "C" 
			},
			{
				"x": -0.9804115094,
				"y": -2.3114957321,
				"z": -0.3678245924,
				"element": "H" 
			},
			{
				"x": -3.4568925043,
				"y": -2.0826605871,
				"z": 1.9507841535,
				"element": "H" 
			},
			{
				"x": -3.6647461779,
				"y": -2.2807766259,
				"z": 0.214360144,
				"element": "H" 
			},
			{
				"x": -3.3543840518,
				"y": 0.6177011526,
				"z": 2.1927249546,
				"element": "H" 
			},
			{
				"x": 1.4583634617,
				"y": 3.477132411,
				"z": -3.3097311286,
				"element": "H" 
			},
			{
				"x": 3.0285713742,
				"y": 1.6343629042,
				"z": -3.8689026835,
				"element": "H" 
			},
			{
				"x": 2.717636306,
				"y": -0.6086364218,
				"z": -2.809202418,
				"element": "H" 
			},
			{
				"x": 0.8646309891,
				"y": -0.9625710628,
				"z": -1.2178291444,
				"element": "H" 
			}
		],
		 "valence_orbital": [ 
			{
				"type": "occ",
				"energy": -0.30018,
				"method": "rhf"
			},
			{
				"type": "occ",
				"energy": -0.29282,
				"method": "rhf"
			},
			{
				"type": "occ",
				"energy": -0.26849,
				"method": "rhf"
			},
			{
				"type": "occ",
				"energy": -0.26077,
				"method": "rhf"
			},
			{
				"type": "occ",
				"energy": -0.24159,
				"method": "rhf"
			},
			{
				"type": "unocc",
				"energy": -0.07495,
				"method": "rhf"
			},
			{
				"type": "unocc",
				"energy": -0.03027,
				"method": "rhf"
			},
			{
				"type": "unocc",
				"energy": -0.0086,
				"method": "rhf"
			},
			{
				"type": "unocc",
				"energy": 0.00618,
				"method": "rhf"
			},
			{
				"type": "unocc",
				"energy": 0.01064,
				"method": "rhf"
			}
		],
		"cosmo_sigma_profile": { 
			"-0.025": 0.0,
			"-0.024": 0.0,
			"-0.023": 0.0,
			"-0.022": 0.0,
			"-0.021": 0.0,
			"-0.02": 0.0,
			"-0.019": 0.0,
			"-0.018": 0.0,
			"-0.017": 0.0,
			"-0.016": 0.0,
			"-0.015": 0.0,
			"-0.014": 0.0,
			"-0.013": 0.0,
			"-0.012": 0.0,
			"-0.011": 0.0,
			"-0.01": 1.30533309961,
			"-0.009": 2.35608507592,
			"-0.008": 7.4700957591,
			"-0.007": 13.5071047944,
			"-0.006": 15.8285329441,
			"-0.005": 14.7520693108,
			"-0.004": 14.6399197758,
			"-0.003": 15.5862073111,
			"-0.002": 13.8401311433,
			"-0.001": 20.9125648507,
			"0.0": 23.2217456279,
			"0.001": 25.4775611605,
			"0.002": 26.9418391412,
			"0.003": 22.2525794881,
			"0.004": 9.00420990404,
			"0.005": 3.38584842718,
			"0.006": 2.4631063367,
			"0.007": 1.77782594847,
			"0.008": 2.78943607323,
			"0.009": 2.65202245285,
			"0.01": 4.40447627991,
			"0.011": 5.72490472016,
			"0.012": 5.97960556051,
			"0.013": 3.65045414621,
			"0.014": 0.501234281106,
			"0.015": 0.0,
			"0.016": 0.0,
			"0.017": 0.0,
			"0.018": 0.0,
			"0.019": 0.0,
			"0.02": 0.0,
			"0.021": 0.0,
			"0.022": 0.0,
			"0.023": 0.0,
			"0.024": 0.0,
			"0.025": 0.0
		}
	}
}
