{
	 "smiles": "CN1C2=C(C=CC=C2)N=C1C(=NNC1=C(Cl)C=CC=C1)C#N", 
	 "Tm": 466.15, 
	 "num_atms": 34, 
	 "gaussian": { 
		 "optdone": 1, 
		 "sigma_profile": "yes", 
		 "theory": "DFT", 
		 "functional": "B3LYP", 
		 "basiset": "6-31G**", 
		 "properties": { 
			 "R2extent": 10699.9089, 
			 "electric_dipole_moment_norm": 6.69803162802, 
			 "electric_quadrupole_moment_norm": 18.386973739, 
			 "total_energy": -1350.84522704, 
			 "HOMO_LUMO_gap": 0.12706, 
			 "cosmo_polarized_energy": -16.25, 
			 "cosmo_cavitation_energy": 41.69, 
			 "cosmo_dispersion_energy": -29.28, 
			 "cosmo_repulsion_energy": 2.18, 
			 "cosmo_total_nonelectrostatic_energy": 14.58, 
			 "SMD_solvation_energy": 5.61 
		},
		"coords": [
			{
				"x": 0.2590458996,
				"y": 1.5966804534,
				"z": 0.3245119488,
				"element": "C" 
			},
			{
				"x": -0.6019736679,
				"y": 1.0614962675,
				"z": -0.719811283,
				"element": "N" 
			},
			{
				"x": -1.6109021528,
				"y": 1.7588336879,
				"z": -1.368736248,
				"element": "C" 
			},
			{
				"x": -2.1743225498,
				"y": 0.8405511088,
				"z": -2.2900238169,
				"element": "C" 
			},
			{
				"x": -3.237699041,
				"y": 1.2350506529,
				"z": -3.1164757201,
				"element": "C" 
			},
			{
				"x": -3.7062562717,
				"y": 2.5366275434,
				"z": -2.997856598,
				"element": "C" 
			},
			{
				"x": -3.1344911554,
				"y": 3.4402060215,
				"z": -2.0762948601,
				"element": "C" 
			},
			{
				"x": -2.079489228,
				"y": 3.0706605414,
				"z": -1.2471474638,
				"element": "C" 
			},
			{
				"x": -1.5295514146,
				"y": -0.3723513637,
				"z": -2.2065436172,
				"element": "N" 
			},
			{
				"x": -0.6082622222,
				"y": -0.2096138378,
				"z": -1.2744702623,
				"element": "C" 
			},
			{
				"x": 0.2851990213,
				"y": -1.300429876,
				"z": -0.9113936358,
				"element": "C" 
			},
			{
				"x": 1.226839365,
				"y": -1.1660129312,
				"z": -0.0143805203,
				"element": "N" 
			},
			{
				"x": 2.0089863969,
				"y": -2.1995073177,
				"z": 0.272000132,
				"element": "N" 
			},
			{
				"x": 3.0277469967,
				"y": -2.0967784478,
				"z": 1.219247256,
				"element": "C" 
			},
			{
				"x": 3.8323545326,
				"y": -3.2156340914,
				"z": 1.5049057818,
				"element": "C" 
			},
			{
				"x": 3.54496695,
				"y": -4.7349797332,
				"z": 0.6634100914,
				"element": "Cl" 
			},
			{
				"x": 4.8564096629,
				"y": -3.1445196737,
				"z": 2.4447267417,
				"element": "C" 
			},
			{
				"x": 5.0981807727,
				"y": -1.9495479196,
				"z": 3.1209376229,
				"element": "C" 
			},
			{
				"x": 4.306997899,
				"y": -0.8317359598,
				"z": 2.846320132,
				"element": "C" 
			},
			{
				"x": 3.2833321958,
				"y": -0.8999471603,
				"z": 1.9074133596,
				"element": "C" 
			},
			{
				"x": 0.0929622504,
				"y": -2.5558435502,
				"z": -1.5921707336,
				"element": "C" 
			},
			{
				"x": 0.080548478,
				"y": -3.6313430578,
				"z": -2.0372708164,
				"element": "N" 
			},
			{
				"x": 0.1926344416,
				"y": 0.9906516836,
				"z": 1.2303487645,
				"element": "H" 
			},
			{
				"x": 1.3019511727,
				"y": 1.6232068836,
				"z": -0.001354389,
				"element": "H" 
			},
			{
				"x": -0.0680277894,
				"y": 2.6116012001,
				"z": 0.5521605466,
				"element": "H" 
			},
			{
				"x": -3.6684149073,
				"y": 0.5314379447,
				"z": -3.8211325362,
				"element": "H" 
			},
			{
				"x": -4.5278124591,
				"y": 2.8713079458,
				"z": -3.6239272897,
				"element": "H" 
			},
			{
				"x": -3.5268297061,
				"y": 4.4507830608,
				"z": -2.0124378192,
				"element": "H" 
			},
			{
				"x": -1.6498250284,
				"y": 3.778700258,
				"z": -0.5454474008,
				"element": "H" 
			},
			{
				"x": 1.8753874004,
				"y": -3.0923186148,
				"z": -0.2023938099,
				"element": "H" 
			},
			{
				"x": 5.4553373475,
				"y": -4.0275898586,
				"z": 2.6380645331,
				"element": "H" 
			},
			{
				"x": 5.8969094811,
				"y": -1.8962714875,
				"z": 3.8532450816,
				"element": "H" 
			},
			{
				"x": 4.4871305971,
				"y": 0.103962251,
				"z": 3.3666387834,
				"element": "H" 
			},
			{
				"x": 2.6673367324,
				"y": -0.0371326231,
				"z": 1.6884380448,
				"element": "H" 
			}
		],
		 "valence_orbital": [ 
			{
				"type": "occ",
				"energy": -0.27893,
				"method": "rhf"
			},
			{
				"type": "occ",
				"energy": -0.26491,
				"method": "rhf"
			},
			{
				"type": "occ",
				"energy": -0.24828,
				"method": "rhf"
			},
			{
				"type": "occ",
				"energy": -0.22916,
				"method": "rhf"
			},
			{
				"type": "occ",
				"energy": -0.21017,
				"method": "rhf"
			},
			{
				"type": "unocc",
				"energy": -0.08311,
				"method": "rhf"
			},
			{
				"type": "unocc",
				"energy": -0.02507,
				"method": "rhf"
			},
			{
				"type": "unocc",
				"energy": -0.01067,
				"method": "rhf"
			},
			{
				"type": "unocc",
				"energy": -0.00258,
				"method": "rhf"
			},
			{
				"type": "unocc",
				"energy": 0.0143,
				"method": "rhf"
			}
		],
		"cosmo_sigma_profile": { 
			"-0.025": 0.0,
			"-0.024": 0.0,
			"-0.023": 0.0,
			"-0.022": 0.0,
			"-0.021": 0.0,
			"-0.02": 0.0,
			"-0.019": 0.0,
			"-0.018": 0.0,
			"-0.017": 0.0,
			"-0.016": 0.0,
			"-0.015": 0.0,
			"-0.014": 0.0,
			"-0.013": 0.0,
			"-0.012": 0.0,
			"-0.011": 0.0,
			"-0.01": 0.299403667029,
			"-0.009": 2.04453447715,
			"-0.008": 4.17869682806,
			"-0.007": 9.08112414783,
			"-0.006": 18.3423617076,
			"-0.005": 26.2197783289,
			"-0.004": 27.7146384342,
			"-0.003": 29.0201931066,
			"-0.002": 25.5256858324,
			"-0.001": 22.3069875859,
			"0.0": 26.5299673749,
			"0.001": 25.1307181574,
			"0.002": 23.2075351098,
			"0.003": 25.1317400949,
			"0.004": 25.883199499,
			"0.005": 13.063561967,
			"0.006": 8.90870098375,
			"0.007": 5.35476538597,
			"0.008": 4.72349073529,
			"0.009": 3.71945874965,
			"0.01": 4.31285499166,
			"0.011": 3.44370304826,
			"0.012": 2.24745734129,
			"0.013": 1.25725602858,
			"0.014": 0.790076565936,
			"0.015": 0.747378262585,
			"0.016": 0.103850580507,
			"0.017": 0.0,
			"0.018": 0.0,
			"0.019": 0.0,
			"0.02": 0.0,
			"0.021": 0.0,
			"0.022": 0.0,
			"0.023": 0.0,
			"0.024": 0.0,
			"0.025": 0.0
		}
	}
}
