{
	 "smiles": "COC(=O)C(C)Cl", 
	 "Tm": 263.15, 
	 "num_atms": 14, 
	 "gaussian": { 
		 "optdone": 1, 
		 "sigma_profile": "yes", 
		 "theory": "DFT", 
		 "functional": "B3LYP", 
		 "basiset": "6-31G**", 
		 "properties": { 
			 "R2extent": 1311.8798, 
			 "electric_dipole_moment_norm": 2.28084562608, 
			 "electric_quadrupole_moment_norm": 8.46906308159, 
			 "total_energy": -767.294486775, 
			 "HOMO_LUMO_gap": 0.24888, 
			 "cosmo_polarized_energy": -7.44, 
			 "cosmo_cavitation_energy": 19.64, 
			 "cosmo_dispersion_energy": -14.34, 
			 "cosmo_repulsion_energy": 1.24, 
			 "cosmo_total_nonelectrostatic_energy": 6.54, 
			 "SMD_solvation_energy": 4.85 
		},
		"coords": [
			{
				"x": 2.7210794499,
				"y": 1.2812416217,
				"z": 0.8735820698,
				"element": "C" 
			},
			{
				"x": 2.2992380099,
				"y": 0.0234101938,
				"z": 0.3157574744,
				"element": "O" 
			},
			{
				"x": 0.975249149,
				"y": -0.2052711381,
				"z": 0.3487787892,
				"element": "C" 
			},
			{
				"x": 0.1612937506,
				"y": 0.539300115,
				"z": 0.846715737,
				"element": "O" 
			},
			{
				"x": 0.6366328266,
				"y": -1.5365612271,
				"z": -0.3197887283,
				"element": "C" 
			},
			{
				"x": -0.6776294157,
				"y": -2.1118260212,
				"z": 0.1742239927,
				"element": "C" 
			},
			{
				"x": 0.5651029298,
				"y": -1.2299525268,
				"z": -2.1257436423,
				"element": "Cl" 
			},
			{
				"x": 2.4301248131,
				"y": 1.3507434456,
				"z": 1.9244734974,
				"element": "H" 
			},
			{
				"x": 3.8056393705,
				"y": 1.2978075498,
				"z": 0.7718340487,
				"element": "H" 
			},
			{
				"x": 2.2701475117,
				"y": 2.1112867722,
				"z": 0.3244757732,
				"element": "H" 
			},
			{
				"x": 1.4706028333,
				"y": -2.2273483495,
				"z": -0.1897432059,
				"element": "H" 
			},
			{
				"x": -1.4829629516,
				"y": -1.3869027985,
				"z": 0.0451786858,
				"element": "H" 
			},
			{
				"x": -0.9207397648,
				"y": -3.0297542649,
				"z": -0.364636663,
				"element": "H" 
			},
			{
				"x": -0.5937785123,
				"y": -2.342573372,
				"z": 1.2417921714,
				"element": "H" 
			}
		],
		 "valence_orbital": [ 
			{
				"type": "occ",
				"energy": -0.36578,
				"method": "rhf"
			},
			{
				"type": "occ",
				"energy": -0.31568,
				"method": "rhf"
			},
			{
				"type": "occ",
				"energy": -0.3143,
				"method": "rhf"
			},
			{
				"type": "occ",
				"energy": -0.30049,
				"method": "rhf"
			},
			{
				"type": "occ",
				"energy": -0.27971,
				"method": "rhf"
			},
			{
				"type": "unocc",
				"energy": -0.03083,
				"method": "rhf"
			},
			{
				"type": "unocc",
				"energy": 0.05016,
				"method": "rhf"
			},
			{
				"type": "unocc",
				"energy": 0.10012,
				"method": "rhf"
			},
			{
				"type": "unocc",
				"energy": 0.10976,
				"method": "rhf"
			},
			{
				"type": "unocc",
				"energy": 0.11754,
				"method": "rhf"
			}
		],
		"cosmo_sigma_profile": { 
			"-0.025": 0.0,
			"-0.024": 0.0,
			"-0.023": 0.0,
			"-0.022": 0.0,
			"-0.021": 0.0,
			"-0.02": 0.0,
			"-0.019": 0.0,
			"-0.018": 0.0,
			"-0.017": 0.0,
			"-0.016": 0.0,
			"-0.015": 0.0,
			"-0.014": 0.0,
			"-0.013": 0.0,
			"-0.012": 0.0,
			"-0.011": 0.0,
			"-0.01": 0.0,
			"-0.009": 0.595487580538,
			"-0.008": 3.25306930394,
			"-0.007": 4.93604325625,
			"-0.006": 10.2947745426,
			"-0.005": 13.0447651876,
			"-0.004": 15.542185282,
			"-0.003": 12.968751305,
			"-0.002": 10.661219347,
			"-0.001": 11.9659843164,
			"0.0": 8.51055803587,
			"0.001": 6.79953259159,
			"0.002": 7.14422394231,
			"0.003": 8.63810826905,
			"0.004": 7.02595209549,
			"0.005": 11.9734933244,
			"0.006": 9.16065923945,
			"0.007": 2.66232983259,
			"0.008": 1.73262843539,
			"0.009": 1.80546140467,
			"0.01": 2.76797418078,
			"0.011": 4.43039043578,
			"0.012": 0.966645203342,
			"0.013": 0.0,
			"0.014": 0.0,
			"0.015": 0.0,
			"0.016": 0.0,
			"0.017": 0.0,
			"0.018": 0.0,
			"0.019": 0.0,
			"0.02": 0.0,
			"0.021": 0.0,
			"0.022": 0.0,
			"0.023": 0.0,
			"0.024": 0.0,
			"0.025": 0.0
		}
	}
}
