{
	 "smiles": "FCC(F)F", 
	 "Tm": 189.15, 
	 "num_atms": 8, 
	 "gaussian": { 
		 "optdone": 1, 
		 "sigma_profile": "yes", 
		 "theory": "DFT", 
		 "functional": "B3LYP", 
		 "basiset": "6-31G**", 
		 "properties": { 
			 "R2extent": 694.6368, 
			 "electric_dipole_moment_norm": 1.37321282036, 
			 "electric_quadrupole_moment_norm": 5.42422934803, 
			 "total_energy": -377.520351079, 
			 "HOMO_LUMO_gap": 0.40629, 
			 "cosmo_polarized_energy": -4.39, 
			 "cosmo_cavitation_energy": 12.92, 
			 "cosmo_dispersion_energy": -9.24, 
			 "cosmo_repulsion_energy": 0.79, 
			 "cosmo_total_nonelectrostatic_energy": 4.47, 
			 "SMD_solvation_energy": 3.9 
		},
		"coords": [
			{
				"x": 1.2555730572,
				"y": -0.0987154416,
				"z": -1.2179546502,
				"element": "F" 
			},
			{
				"x": 0.7510510481,
				"y": -0.2560248291,
				"z": 0.0594245236,
				"element": "C" 
			},
			{
				"x": 1.0552662892,
				"y": 0.9892682643,
				"z": 0.8680542903,
				"element": "C" 
			},
			{
				"x": 2.3977024773,
				"y": 1.0954409111,
				"z": 1.0705873412,
				"element": "F" 
			},
			{
				"x": 0.4450380368,
				"y": 0.8605576786,
				"z": 2.0852973905,
				"element": "F" 
			},
			{
				"x": -0.3328561542,
				"y": -0.4061315143,
				"z": 0.0106744587,
				"element": "H" 
			},
			{
				"x": 1.2223567644,
				"y": -1.1196185088,
				"z": 0.5413842461,
				"element": "H" 
			},
			{
				"x": 0.7032684811,
				"y": 1.9083234397,
				"z": 0.3850323998,
				"element": "H" 
			}
		],
		 "valence_orbital": [ 
			{
				"type": "occ",
				"energy": -0.41889,
				"method": "rhf"
			},
			{
				"type": "occ",
				"energy": -0.39773,
				"method": "rhf"
			},
			{
				"type": "occ",
				"energy": -0.38786,
				"method": "rhf"
			},
			{
				"type": "occ",
				"energy": -0.35539,
				"method": "rhf"
			},
			{
				"type": "occ",
				"energy": -0.33114,
				"method": "rhf"
			},
			{
				"type": "unocc",
				"energy": 0.07515,
				"method": "rhf"
			},
			{
				"type": "unocc",
				"energy": 0.10765,
				"method": "rhf"
			},
			{
				"type": "unocc",
				"energy": 0.11556,
				"method": "rhf"
			},
			{
				"type": "unocc",
				"energy": 0.14504,
				"method": "rhf"
			},
			{
				"type": "unocc",
				"energy": 0.18718,
				"method": "rhf"
			}
		],
		"cosmo_sigma_profile": { 
			"-0.025": 0.0,
			"-0.024": 0.0,
			"-0.023": 0.0,
			"-0.022": 0.0,
			"-0.021": 0.0,
			"-0.02": 0.0,
			"-0.019": 0.0,
			"-0.018": 0.0,
			"-0.017": 0.0,
			"-0.016": 0.0,
			"-0.015": 0.0,
			"-0.014": 0.0,
			"-0.013": 0.0,
			"-0.012": 0.0,
			"-0.011": 0.0,
			"-0.01": 0.111628558097,
			"-0.009": 3.13191831928,
			"-0.008": 6.12403908041,
			"-0.007": 7.41670353101,
			"-0.006": 5.23294459328,
			"-0.005": 5.68370909768,
			"-0.004": 3.77737034632,
			"-0.003": 3.75649446188,
			"-0.002": 3.06082886383,
			"-0.001": 3.56991680188,
			"0.0": 3.37741866921,
			"0.001": 3.58060430734,
			"0.002": 5.07096012889,
			"0.003": 7.0990495964,
			"0.004": 22.0682230918,
			"0.005": 14.838660403,
			"0.006": 4.50893388767,
			"0.007": 0.0,
			"0.008": 0.0,
			"0.009": 0.0,
			"0.01": 0.0,
			"0.011": 0.0,
			"0.012": 0.0,
			"0.013": 0.0,
			"0.014": 0.0,
			"0.015": 0.0,
			"0.016": 0.0,
			"0.017": 0.0,
			"0.018": 0.0,
			"0.019": 0.0,
			"0.02": 0.0,
			"0.021": 0.0,
			"0.022": 0.0,
			"0.023": 0.0,
			"0.024": 0.0,
			"0.025": 0.0
		}
	}
}
