{
	 "smiles": "NC1=CC(=CC=C1)C1=NNC(=O)C=C1", 
	 "Tm": 480.15, 
	 "num_atms": 23, 
	 "gaussian": { 
		 "optdone": 1, 
		 "sigma_profile": "yes", 
		 "theory": "DFT", 
		 "functional": "B3LYP", 
		 "basiset": "6-31G**", 
		 "properties": { 
			 "R2extent": 3621.2215, 
			 "electric_dipole_moment_norm": 5.01910604889, 
			 "electric_quadrupole_moment_norm": 15.932234267, 
			 "total_energy": -625.950856358, 
			 "HOMO_LUMO_gap": 0.14232, 
			 "cosmo_polarized_energy": -17.6, 
			 "cosmo_cavitation_energy": 27.7, 
			 "cosmo_dispersion_energy": -20.72, 
			 "cosmo_repulsion_energy": 1.62, 
			 "cosmo_total_nonelectrostatic_energy": 8.6, 
			 "SMD_solvation_energy": 4.77 
		},
		"coords": [
			{
				"x": 0.3569088523,
				"y": -1.2341072829,
				"z": -3.9033344777,
				"element": "N" 
			},
			{
				"x": 0.466159059,
				"y": -0.3112541462,
				"z": -2.8615561239,
				"element": "C" 
			},
			{
				"x": 0.4333151316,
				"y": -0.7402475763,
				"z": -1.5245539589,
				"element": "C" 
			},
			{
				"x": 0.6068780433,
				"y": 0.1631873841,
				"z": -0.4675763954,
				"element": "C" 
			},
			{
				"x": 0.8214301497,
				"y": 1.5217391884,
				"z": -0.7520576595,
				"element": "C" 
			},
			{
				"x": 0.8542955062,
				"y": 1.9488130714,
				"z": -2.0767522598,
				"element": "C" 
			},
			{
				"x": 0.6760106493,
				"y": 1.0516731291,
				"z": -3.1279046119,
				"element": "C" 
			},
			{
				"x": 0.5709041195,
				"y": -0.3043244233,
				"z": 0.9408240219,
				"element": "C" 
			},
			{
				"x": 1.1863615721,
				"y": 0.4380562399,
				"z": 1.8343655526,
				"element": "N" 
			},
			{
				"x": 1.1482691792,
				"y": 0.0287302827,
				"z": 3.1086283463,
				"element": "N" 
			},
			{
				"x": 0.5452945372,
				"y": -1.1143637797,
				"z": 3.653433336,
				"element": "C" 
			},
			{
				"x": 0.6181832847,
				"y": -1.3523433228,
				"z": 4.8534463241,
				"element": "O" 
			},
			{
				"x": -0.1361889033,
				"y": -1.900546875,
				"z": 2.6352019978,
				"element": "C" 
			},
			{
				"x": -0.1210517128,
				"y": -1.5060329966,
				"z": 1.3366003974,
				"element": "C" 
			},
			{
				"x": -0.1360219061,
				"y": -2.0868262123,
				"z": -3.6773727718,
				"element": "H" 
			},
			{
				"x": 0.0585207307,
				"y": -0.8495088827,
				"z": -4.7888954322,
				"element": "H" 
			},
			{
				"x": 0.3070068915,
				"y": -1.8009029842,
				"z": -1.3252391399,
				"element": "H" 
			},
			{
				"x": 0.9528217116,
				"y": 2.2222341793,
				"z": 0.0637456098,
				"element": "H" 
			},
			{
				"x": 1.0123927295,
				"y": 3.0007014582,
				"z": -2.2978353358,
				"element": "H" 
			},
			{
				"x": 0.7049553405,
				"y": 1.3998752022,
				"z": -4.1573468632,
				"element": "H" 
			},
			{
				"x": 1.6412243129,
				"y": 0.624500486,
				"z": 3.7642973606,
				"element": "H" 
			},
			{
				"x": -0.6553556992,
				"y": -2.7922501862,
				"z": 2.9685322125,
				"element": "H" 
			},
			{
				"x": -0.6540135795,
				"y": -2.080701953,
				"z": 0.5864498712,
				"element": "H" 
			}
		],
		 "valence_orbital": [ 
			{
				"type": "occ",
				"energy": -0.30762,
				"method": "rhf"
			},
			{
				"type": "occ",
				"energy": -0.2636,
				"method": "rhf"
			},
			{
				"type": "occ",
				"energy": -0.2485,
				"method": "rhf"
			},
			{
				"type": "occ",
				"energy": -0.2269,
				"method": "rhf"
			},
			{
				"type": "occ",
				"energy": -0.20664,
				"method": "rhf"
			},
			{
				"type": "unocc",
				"energy": -0.06432,
				"method": "rhf"
			},
			{
				"type": "unocc",
				"energy": -0.02867,
				"method": "rhf"
			},
			{
				"type": "unocc",
				"energy": 0.00791,
				"method": "rhf"
			},
			{
				"type": "unocc",
				"energy": 0.03816,
				"method": "rhf"
			},
			{
				"type": "unocc",
				"energy": 0.07376,
				"method": "rhf"
			}
		],
		"cosmo_sigma_profile": { 
			"-0.025": 0.0,
			"-0.024": 0.0,
			"-0.023": 0.0,
			"-0.022": 0.0,
			"-0.021": 0.0,
			"-0.02": 0.0,
			"-0.019": 0.0,
			"-0.018": 0.0,
			"-0.017": 0.0,
			"-0.016": 0.712263088759,
			"-0.015": 1.10236627279,
			"-0.014": 1.26799265103,
			"-0.013": 1.14357804089,
			"-0.012": 3.46537189121,
			"-0.011": 3.23722772732,
			"-0.01": 4.00514255403,
			"-0.009": 5.35191627228,
			"-0.008": 8.0388330412,
			"-0.007": 8.22082709433,
			"-0.006": 9.4101290551,
			"-0.005": 8.48190132122,
			"-0.004": 11.7208373497,
			"-0.003": 13.1485530238,
			"-0.002": 13.1453233098,
			"-0.001": 16.6561221834,
			"0.0": 15.2252256494,
			"0.001": 12.2233862456,
			"0.002": 9.69952867321,
			"0.003": 9.65044399895,
			"0.004": 10.0502498078,
			"0.005": 12.437035167,
			"0.006": 12.652124751,
			"0.007": 4.79768008712,
			"0.008": 2.64707295813,
			"0.009": 3.13940409623,
			"0.01": 2.89939872681,
			"0.011": 2.25680086188,
			"0.012": 2.6028842384,
			"0.013": 5.34378028966,
			"0.014": 5.87133032674,
			"0.015": 0.920617377091,
			"0.016": 0.0,
			"0.017": 0.0,
			"0.018": 0.0,
			"0.019": 0.0,
			"0.02": 0.0,
			"0.021": 0.0,
			"0.022": 0.0,
			"0.023": 0.0,
			"0.024": 0.0,
			"0.025": 0.0
		}
	}
}
