{
	 "smiles": "FC1=CC=C(CN(C2CCCCC2)C(=O)CCl)C=C1", 
	 "Tm": 347.15, 
	 "num_atms": 38, 
	 "gaussian": { 
		 "optdone": 1, 
		 "sigma_profile": "yes", 
		 "theory": "DFT", 
		 "functional": "B3LYP", 
		 "basiset": "6-31G**", 
		 "properties": { 
			 "R2extent": 6752.4754, 
			 "electric_dipole_moment_norm": 3.19414395887, 
			 "electric_quadrupole_moment_norm": 10.7663571727, 
			 "total_energy": -1273.06560623, 
			 "HOMO_LUMO_gap": 0.21772, 
			 "cosmo_polarized_energy": -11.32, 
			 "cosmo_cavitation_energy": 40.24, 
			 "cosmo_dispersion_energy": -27.6, 
			 "cosmo_repulsion_energy": 2.13, 
			 "cosmo_total_nonelectrostatic_energy": 14.77, 
			 "SMD_solvation_energy": 6.77 
		},
		"coords": [
			{
				"x": 0.0630156072,
				"y": 1.8606846339,
				"z": -5.6731814682,
				"element": "F" 
			},
			{
				"x": -0.0248842941,
				"y": 1.3909656379,
				"z": -4.4115185927,
				"element": "C" 
			},
			{
				"x": -1.2781947004,
				"y": 1.2893857021,
				"z": -3.8147082888,
				"element": "C" 
			},
			{
				"x": -1.3594643222,
				"y": 0.8024620536,
				"z": -2.5125762308,
				"element": "C" 
			},
			{
				"x": -0.209383756,
				"y": 0.4224976546,
				"z": -1.8037949992,
				"element": "C" 
			},
			{
				"x": -0.3780316831,
				"y": -0.1073300209,
				"z": -0.3811595958,
				"element": "C" 
			},
			{
				"x": 0.8461881459,
				"y": -0.4834667,
				"z": 0.3244657958,
				"element": "N" 
			},
			{
				"x": 1.3873110739,
				"y": 0.423692482,
				"z": 1.3624085629,
				"element": "C" 
			},
			{
				"x": 1.8094154275,
				"y": 1.7916084553,
				"z": 0.7922931975,
				"element": "C" 
			},
			{
				"x": 2.166898089,
				"y": 2.7457507322,
				"z": 1.9420969096,
				"element": "C" 
			},
			{
				"x": 0.9418479755,
				"y": 3.0605270157,
				"z": 2.8410864654,
				"element": "C" 
			},
			{
				"x": -0.1656298146,
				"y": 1.9935110089,
				"z": 2.7149078223,
				"element": "C" 
			},
			{
				"x": 0.419385788,
				"y": 0.5794479707,
				"z": 2.5796584902,
				"element": "C" 
			},
			{
				"x": 1.4458350241,
				"y": -1.7102713391,
				"z": 0.1667941902,
				"element": "C" 
			},
			{
				"x": 2.4675551163,
				"y": -2.0469385602,
				"z": 0.7550744957,
				"element": "O" 
			},
			{
				"x": 0.8029810954,
				"y": -2.6978960686,
				"z": -0.8133355204,
				"element": "C" 
			},
			{
				"x": -0.6027270027,
				"y": -3.569747602,
				"z": -0.0519961882,
				"element": "Cl" 
			},
			{
				"x": 1.032309222,
				"y": 0.5359041891,
				"z": -2.4365043166,
				"element": "C" 
			},
			{
				"x": 1.1337714476,
				"y": 1.0205910073,
				"z": -3.7433541208,
				"element": "C" 
			},
			{
				"x": -2.1620909482,
				"y": 1.586185814,
				"z": -4.3688810284,
				"element": "H" 
			},
			{
				"x": -2.3353523491,
				"y": 0.7165696666,
				"z": -2.0400537133,
				"element": "H" 
			},
			{
				"x": -0.8757550306,
				"y": 0.6577668536,
				"z": 0.2217328177,
				"element": "H" 
			},
			{
				"x": -1.0699111188,
				"y": -0.9556580823,
				"z": -0.3942814208,
				"element": "H" 
			},
			{
				"x": 2.2880876206,
				"y": -0.0860287,
				"z": 1.7051360987,
				"element": "H" 
			},
			{
				"x": 1.007896522,
				"y": 2.229774068,
				"z": 0.1847607386,
				"element": "H" 
			},
			{
				"x": 2.6665410202,
				"y": 1.6566962397,
				"z": 0.1241106082,
				"element": "H" 
			},
			{
				"x": 2.9596697912,
				"y": 2.2805600825,
				"z": 2.5419675036,
				"element": "H" 
			},
			{
				"x": 2.5943181334,
				"y": 3.6712149389,
				"z": 1.5423875042,
				"element": "H" 
			},
			{
				"x": 0.5257037109,
				"y": 4.0413859678,
				"z": 2.5841228408,
				"element": "H" 
			},
			{
				"x": 1.2663381648,
				"y": 3.1311888953,
				"z": 3.8858291724,
				"element": "H" 
			},
			{
				"x": -0.8352399139,
				"y": 2.0397973941,
				"z": 3.5810629305,
				"element": "H" 
			},
			{
				"x": -0.7914976221,
				"y": 2.2199702994,
				"z": 1.8419011176,
				"element": "H" 
			},
			{
				"x": -0.3800227651,
				"y": -0.1661168415,
				"z": 2.5119381001,
				"element": "H" 
			},
			{
				"x": 0.9738556515,
				"y": 0.3392937255,
				"z": 3.4948283197,
				"element": "H" 
			},
			{
				"x": 1.5501084319,
				"y": -3.4549632376,
				"z": -1.0390917568,
				"element": "H" 
			},
			{
				"x": 0.4335168662,
				"y": -2.2386376298,
				"z": -1.7298014191,
				"element": "H" 
			},
			{
				"x": 1.9336407626,
				"y": 0.2492460898,
				"z": -1.9051928056,
				"element": "H" 
			},
			{
				"x": 2.0931946332,
				"y": 1.1128762037,
				"z": -4.2408322165,
				"element": "H" 
			}
		],
		 "valence_orbital": [ 
			{
				"type": "occ",
				"energy": -0.30462,
				"method": "rhf"
			},
			{
				"type": "occ",
				"energy": -0.2696,
				"method": "rhf"
			},
			{
				"type": "occ",
				"energy": -0.25443,
				"method": "rhf"
			},
			{
				"type": "occ",
				"energy": -0.24846,
				"method": "rhf"
			},
			{
				"type": "occ",
				"energy": -0.24482,
				"method": "rhf"
			},
			{
				"type": "unocc",
				"energy": -0.0271,
				"method": "rhf"
			},
			{
				"type": "unocc",
				"energy": -0.01717,
				"method": "rhf"
			},
			{
				"type": "unocc",
				"energy": -0.00821,
				"method": "rhf"
			},
			{
				"type": "unocc",
				"energy": 0.0539,
				"method": "rhf"
			},
			{
				"type": "unocc",
				"energy": 0.06773,
				"method": "rhf"
			}
		],
		"cosmo_sigma_profile": { 
			"-0.025": 0.0,
			"-0.024": 0.0,
			"-0.023": 0.0,
			"-0.022": 0.0,
			"-0.021": 0.0,
			"-0.02": 0.0,
			"-0.019": 0.0,
			"-0.018": 0.0,
			"-0.017": 0.0,
			"-0.016": 0.0,
			"-0.015": 0.0,
			"-0.014": 0.0,
			"-0.013": 0.0,
			"-0.012": 0.0,
			"-0.011": 0.0,
			"-0.01": 0.0,
			"-0.009": 0.137929484183,
			"-0.008": 1.64879750741,
			"-0.007": 6.62954054167,
			"-0.006": 16.8954388982,
			"-0.005": 17.5573329168,
			"-0.004": 18.25859205,
			"-0.003": 26.5070261638,
			"-0.002": 32.3490978377,
			"-0.001": 37.944256983,
			"0.0": 33.0012615437,
			"0.001": 31.37981978,
			"0.002": 18.4257306456,
			"0.003": 18.0154963694,
			"0.004": 23.4116209328,
			"0.005": 15.3637675667,
			"0.006": 4.57277933598,
			"0.007": 1.32908903696,
			"0.008": 1.0888013302,
			"0.009": 1.49985910155,
			"0.01": 1.66954797132,
			"0.011": 1.40154347421,
			"0.012": 2.55404034976,
			"0.013": 5.17942381259,
			"0.014": 1.48024103364,
			"0.015": 0.0129682536063,
			"0.016": 0.0,
			"0.017": 0.0,
			"0.018": 0.0,
			"0.019": 0.0,
			"0.02": 0.0,
			"0.021": 0.0,
			"0.022": 0.0,
			"0.023": 0.0,
			"0.024": 0.0,
			"0.025": 0.0
		}
	}
}
