{
	 "smiles": "COC(=O)C1=C(F)C(Cl)=CC=N1", 
	 "Tm": 323.15, 
	 "num_atms": 17, 
	 "gaussian": { 
		 "optdone": 1, 
		 "sigma_profile": "yes", 
		 "theory": "DFT", 
		 "functional": "B3LYP", 
		 "basiset": "6-31G**", 
		 "properties": { 
			 "R2extent": 2736.7266, 
			 "electric_dipole_moment_norm": 1.76230925776, 
			 "electric_quadrupole_moment_norm": 14.0621196635, 
			 "total_energy": -1034.96946277, 
			 "HOMO_LUMO_gap": 0.2075, 
			 "cosmo_polarized_energy": -10.97, 
			 "cosmo_cavitation_energy": 24.69, 
			 "cosmo_dispersion_energy": -18.14, 
			 "cosmo_repulsion_energy": 1.44, 
			 "cosmo_total_nonelectrostatic_energy": 8.0, 
			 "SMD_solvation_energy": 4.96 
		},
		"coords": [
			{
				"x": -3.616089563,
				"y": 1.2647066655,
				"z": 1.8919094358,
				"element": "C" 
			},
			{
				"x": -2.2327134173,
				"y": 0.9962025907,
				"z": 1.6030584123,
				"element": "O" 
			},
			{
				"x": -1.9848469583,
				"y": 0.5720792733,
				"z": 0.3495844533,
				"element": "C" 
			},
			{
				"x": -2.8283313939,
				"y": 0.4329370559,
				"z": -0.5048018095,
				"element": "O" 
			},
			{
				"x": -0.5146177693,
				"y": 0.3107992434,
				"z": 0.1211863034,
				"element": "C" 
			},
			{
				"x": 0.3633936333,
				"y": -0.0944901494,
				"z": 1.1360990468,
				"element": "C" 
			},
			{
				"x": -0.0506601109,
				"y": -0.2821419869,
				"z": 2.3902785157,
				"element": "F" 
			},
			{
				"x": 1.704640841,
				"y": -0.3355699949,
				"z": 0.8233170224,
				"element": "C" 
			},
			{
				"x": 2.8034433214,
				"y": -0.8508797272,
				"z": 2.068477694,
				"element": "Cl" 
			},
			{
				"x": 2.1269768749,
				"y": -0.1580955437,
				"z": -0.4892618645,
				"element": "C" 
			},
			{
				"x": 1.1787037582,
				"y": 0.245450436,
				"z": -1.4325955648,
				"element": "C" 
			},
			{
				"x": -0.1023025201,
				"y": 0.4672102725,
				"z": -1.1439107843,
				"element": "N" 
			},
			{
				"x": -3.995806954,
				"y": 2.0559597169,
				"z": 1.2409309407,
				"element": "H" 
			},
			{
				"x": -4.2196221496,
				"y": 0.3658623338,
				"z": 1.7444637836,
				"element": "H" 
			},
			{
				"x": -3.6406663538,
				"y": 1.5787237497,
				"z": 2.9348702495,
				"element": "H" 
			},
			{
				"x": 3.1604946666,
				"y": -0.3347032117,
				"z": -0.7647821685,
				"element": "H" 
			},
			{
				"x": 1.4730040948,
				"y": 0.3928492761,
				"z": -2.4691236662,
				"element": "H" 
			}
		],
		 "valence_orbital": [ 
			{
				"type": "occ",
				"energy": -0.30822,
				"method": "rhf"
			},
			{
				"type": "occ",
				"energy": -0.29375,
				"method": "rhf"
			},
			{
				"type": "occ",
				"energy": -0.2837,
				"method": "rhf"
			},
			{
				"type": "occ",
				"energy": -0.27822,
				"method": "rhf"
			},
			{
				"type": "occ",
				"energy": -0.27532,
				"method": "rhf"
			},
			{
				"type": "unocc",
				"energy": -0.06782,
				"method": "rhf"
			},
			{
				"type": "unocc",
				"energy": -0.03847,
				"method": "rhf"
			},
			{
				"type": "unocc",
				"energy": 0.00456,
				"method": "rhf"
			},
			{
				"type": "unocc",
				"energy": 0.03176,
				"method": "rhf"
			},
			{
				"type": "unocc",
				"energy": 0.10983,
				"method": "rhf"
			}
		],
		"cosmo_sigma_profile": { 
			"-0.025": 0.0,
			"-0.024": 0.0,
			"-0.023": 0.0,
			"-0.022": 0.0,
			"-0.021": 0.0,
			"-0.02": 0.0,
			"-0.019": 0.0,
			"-0.018": 0.0,
			"-0.017": 0.0,
			"-0.016": 0.0,
			"-0.015": 0.0,
			"-0.014": 0.0,
			"-0.013": 0.0,
			"-0.012": 0.0,
			"-0.011": 0.0,
			"-0.01": 0.576881989692,
			"-0.009": 2.40951712725,
			"-0.008": 4.31081554434,
			"-0.007": 6.18326319168,
			"-0.006": 10.5138547768,
			"-0.005": 11.52835415,
			"-0.004": 20.1542266726,
			"-0.003": 19.3059082783,
			"-0.002": 17.4283357273,
			"-0.001": 15.5224835205,
			"0.0": 11.4908431652,
			"0.001": 10.6262972614,
			"0.002": 14.5214919765,
			"0.003": 17.9827779093,
			"0.004": 7.18317503725,
			"0.005": 3.38988121356,
			"0.006": 4.04836371459,
			"0.007": 4.25942365486,
			"0.008": 1.4431385053,
			"0.009": 2.13981509539,
			"0.01": 3.26002887539,
			"0.011": 5.19308517915,
			"0.012": 2.77567843511,
			"0.013": 1.30089031741,
			"0.014": 1.71720585862,
			"0.015": 1.32452946086,
			"0.016": 0.575031129639,
			"0.017": 0.0,
			"0.018": 0.0,
			"0.019": 0.0,
			"0.02": 0.0,
			"0.021": 0.0,
			"0.022": 0.0,
			"0.023": 0.0,
			"0.024": 0.0,
			"0.025": 0.0
		}
	}
}
