{
	 "smiles": "NNC(=O)CNS(=O)(=O)C1=CC=CC2=NSN=C12", 
	 "Tm": 425.15, 
	 "num_atms": 27, 
	 "gaussian": { 
		 "optdone": 1, 
		 "sigma_profile": "yes", 
		 "theory": "DFT", 
		 "functional": "B3LYP", 
		 "basiset": "6-31G**", 
		 "properties": { 
			 "R2extent": 7054.6832, 
			 "electric_dipole_moment_norm": 5.60887192401, 
			 "electric_quadrupole_moment_norm": 18.9377531561, 
			 "total_energy": -1605.94768832, 
			 "HOMO_LUMO_gap": 0.14241, 
			 "cosmo_polarized_energy": -26.81, 
			 "cosmo_cavitation_energy": 34.53, 
			 "cosmo_dispersion_energy": -26.03, 
			 "cosmo_repulsion_energy": 1.93, 
			 "cosmo_total_nonelectrostatic_energy": 10.43, 
			 "SMD_solvation_energy": 3.02 
		},
		"coords": [
			{
				"x": -2.50543025,
				"y": -0.7544352421,
				"z": 2.7009536037,
				"element": "N" 
			},
			{
				"x": -3.3212052076,
				"y": -0.6617166362,
				"z": 1.5611221898,
				"element": "N" 
			},
			{
				"x": -3.0438003276,
				"y": 0.1059660688,
				"z": 0.4553848757,
				"element": "C" 
			},
			{
				"x": -3.867834637,
				"y": 0.2223278435,
				"z": -0.4370798036,
				"element": "O" 
			},
			{
				"x": -1.6967384084,
				"y": 0.8420069291,
				"z": 0.3659420472,
				"element": "C" 
			},
			{
				"x": -0.5117415829,
				"y": 0.2401409246,
				"z": 0.9968457398,
				"element": "N" 
			},
			{
				"x": 0.0317146603,
				"y": -1.2298147197,
				"z": 0.3564280453,
				"element": "S" 
			},
			{
				"x": -0.0525477136,
				"y": -2.2330746767,
				"z": 1.4286482778,
				"element": "O" 
			},
			{
				"x": -0.6207318903,
				"y": -1.4435891209,
				"z": -0.9362020811,
				"element": "O" 
			},
			{
				"x": 1.7746514693,
				"y": -0.9033860039,
				"z": 0.0600573428,
				"element": "C" 
			},
			{
				"x": 2.3459768991,
				"y": 0.325012983,
				"z": 0.2750332255,
				"element": "C" 
			},
			{
				"x": 3.7345734154,
				"y": 0.559844926,
				"z": 0.0197284098,
				"element": "C" 
			},
			{
				"x": 4.5603149593,
				"y": -0.4255920275,
				"z": -0.453459587,
				"element": "C" 
			},
			{
				"x": 4.0016096251,
				"y": -1.714323487,
				"z": -0.6922204009,
				"element": "C" 
			},
			{
				"x": 4.658505544,
				"y": -2.7856637007,
				"z": -1.1539003006,
				"element": "N" 
			},
			{
				"x": 3.554492339,
				"y": -3.9971441098,
				"z": -1.2462150118,
				"element": "S" 
			},
			{
				"x": 2.2152280208,
				"y": -3.2176304196,
				"z": -0.708097946,
				"element": "N" 
			},
			{
				"x": 2.5950214499,
				"y": -1.9665767855,
				"z": -0.4362772205,
				"element": "C" 
			},
			{
				"x": -2.0997574871,
				"y": -1.6874633515,
				"z": 2.7688447516,
				"element": "H" 
			},
			{
				"x": -3.0523513672,
				"y": -0.5500492547,
				"z": 3.532803203,
				"element": "H" 
			},
			{
				"x": -4.1811068885,
				"y": -1.197501664,
				"z": 1.4970576195,
				"element": "H" 
			},
			{
				"x": -1.5170426304,
				"y": 0.9831897871,
				"z": -0.6993199035,
				"element": "H" 
			},
			{
				"x": -1.8189423849,
				"y": 1.8337644239,
				"z": 0.8161949835,
				"element": "H" 
			},
			{
				"x": -0.7078377059,
				"y": 0.0685127481,
				"z": 1.9848650533,
				"element": "H" 
			},
			{
				"x": 1.7249378029,
				"y": 1.1308142871,
				"z": 0.6480047706,
				"element": "H" 
			},
			{
				"x": 4.1299551888,
				"y": 1.5526463029,
				"z": 0.2101907795,
				"element": "H" 
			},
			{
				"x": 5.6127871074,
				"y": -0.2545660243,
				"z": -0.6501326634,
				"element": "H" 
			}
		],
		 "valence_orbital": [ 
			{
				"type": "occ",
				"energy": -0.28924,
				"method": "rhf"
			},
			{
				"type": "occ",
				"energy": -0.27843,
				"method": "rhf"
			},
			{
				"type": "occ",
				"energy": -0.26342,
				"method": "rhf"
			},
			{
				"type": "occ",
				"energy": -0.25706,
				"method": "rhf"
			},
			{
				"type": "occ",
				"energy": -0.24291,
				"method": "rhf"
			},
			{
				"type": "unocc",
				"energy": -0.1005,
				"method": "rhf"
			},
			{
				"type": "unocc",
				"energy": -0.01785,
				"method": "rhf"
			},
			{
				"type": "unocc",
				"energy": -0.00688,
				"method": "rhf"
			},
			{
				"type": "unocc",
				"energy": 0.00339,
				"method": "rhf"
			},
			{
				"type": "unocc",
				"energy": 0.01962,
				"method": "rhf"
			}
		],
		"cosmo_sigma_profile": { 
			"-0.025": 0.0,
			"-0.024": 0.0,
			"-0.023": 0.0,
			"-0.022": 0.0,
			"-0.021": 0.0,
			"-0.02": 0.0,
			"-0.019": 0.0,
			"-0.018": 0.0,
			"-0.017": 0.0,
			"-0.016": 0.0,
			"-0.015": 0.0,
			"-0.014": 0.931872856883,
			"-0.013": 2.971150825,
			"-0.012": 2.89185453399,
			"-0.011": 3.65215320656,
			"-0.01": 4.60955476472,
			"-0.009": 5.20600198937,
			"-0.008": 10.6799406377,
			"-0.007": 11.9925249882,
			"-0.006": 12.3540073562,
			"-0.005": 14.8792960484,
			"-0.004": 16.6778241981,
			"-0.003": 22.2481330625,
			"-0.002": 23.0804704783,
			"-0.001": 21.3516649521,
			"0.0": 19.0819698536,
			"0.001": 14.1371558129,
			"0.002": 9.03123293167,
			"0.003": 6.01684861651,
			"0.004": 6.56573132727,
			"0.005": 5.69174900963,
			"0.006": 4.98149824364,
			"0.007": 5.87526823429,
			"0.008": 7.77029069697,
			"0.009": 8.42561518859,
			"0.01": 12.6981565423,
			"0.011": 11.0285633514,
			"0.012": 4.73271499209,
			"0.013": 5.33524713508,
			"0.014": 3.51414616858,
			"0.015": 0.194082013475,
			"0.016": 0.0,
			"0.017": 0.0,
			"0.018": 0.0,
			"0.019": 0.0,
			"0.02": 0.0,
			"0.021": 0.0,
			"0.022": 0.0,
			"0.023": 0.0,
			"0.024": 0.0,
			"0.025": 0.0
		}
	}
}
