{
	 "smiles": "COC1=CC=C(NN=C(C(=O)C2=C3C=CC=CC3=CC=C2)S(=O)(=O)C2=CC=CC=C2)C=C1", 
	 "Tm": 391.15, 
	 "num_atms": 52, 
	 "gaussian": { 
		 "optdone": 1, 
		 "sigma_profile": "yes", 
		 "theory": "DFT", 
		 "functional": "B3LYP", 
		 "basiset": "6-31G**", 
		 "properties": { 
			 "R2extent": 17048.6119, 
			 "electric_dipole_moment_norm": 5.76397069129, 
			 "electric_quadrupole_moment_norm": 27.8850912469, 
			 "total_energy": -1773.19112279, 
			 "HOMO_LUMO_gap": 0.13097, 
			 "cosmo_polarized_energy": -22.05, 
			 "cosmo_cavitation_energy": 58.17, 
			 "cosmo_dispersion_energy": -39.77, 
			 "cosmo_repulsion_energy": 2.93, 
			 "cosmo_total_nonelectrostatic_energy": 21.33, 
			 "SMD_solvation_energy": 9.46 
		},
		"coords": [
			{
				"x": 3.7927627637,
				"y": -0.8843955538,
				"z": -6.741947422,
				"element": "C" 
			},
			{
				"x": 2.5052406965,
				"y": -0.5877855732,
				"z": -6.22435264,
				"element": "O" 
			},
			{
				"x": 2.3210984911,
				"y": -0.6550537033,
				"z": -4.8749280661,
				"element": "C" 
			},
			{
				"x": 1.0264607913,
				"y": -0.352463228,
				"z": -4.4199940466,
				"element": "C" 
			},
			{
				"x": 0.7222208843,
				"y": -0.3865797301,
				"z": -3.0684080737,
				"element": "C" 
			},
			{
				"x": 1.7180950734,
				"y": -0.7307915403,
				"z": -2.1409297996,
				"element": "C" 
			},
			{
				"x": 1.46384504,
				"y": -0.7861453137,
				"z": -0.7567024277,
				"element": "N" 
			},
			{
				"x": 0.2749682212,
				"y": -0.5412107805,
				"z": -0.2835744737,
				"element": "N" 
			},
			{
				"x": -0.0660141472,
				"y": -0.547994724,
				"z": 0.9760538167,
				"element": "C" 
			},
			{
				"x": -1.4607466952,
				"y": -0.2243828665,
				"z": 1.3640212322,
				"element": "C" 
			},
			{
				"x": -1.7119897373,
				"y": 0.0196180958,
				"z": 2.5429755869,
				"element": "O" 
			},
			{
				"x": -2.5315244833,
				"y": -0.1990561068,
				"z": 0.3133471409,
				"element": "C" 
			},
			{
				"x": -3.5305952315,
				"y": 0.8356640214,
				"z": 0.3100758207,
				"element": "C" 
			},
			{
				"x": -3.5260721341,
				"y": 1.9398625631,
				"z": 1.2080991421,
				"element": "C" 
			},
			{
				"x": -4.4918606279,
				"y": 2.9190490936,
				"z": 1.1313035837,
				"element": "C" 
			},
			{
				"x": -5.5186512559,
				"y": 2.8517501101,
				"z": 0.1604752841,
				"element": "C" 
			},
			{
				"x": -5.5549938926,
				"y": 1.7983075813,
				"z": -0.722418611,
				"element": "C" 
			},
			{
				"x": -4.5727277369,
				"y": 0.7720013224,
				"z": -0.6760433863,
				"element": "C" 
			},
			{
				"x": -4.6115343544,
				"y": -0.3156827672,
				"z": -1.5883099595,
				"element": "C" 
			},
			{
				"x": -3.6545156568,
				"y": -1.3022570222,
				"z": -1.5506294491,
				"element": "C" 
			},
			{
				"x": -2.6084758763,
				"y": -1.2336325043,
				"z": -0.6051355772,
				"element": "C" 
			},
			{
				"x": 1.0772673451,
				"y": -0.9182963519,
				"z": 2.358349774,
				"element": "S" 
			},
			{
				"x": 2.4002551022,
				"y": -1.1118797034,
				"z": 1.6968938849,
				"element": "O" 
			},
			{
				"x": 0.5242267532,
				"y": -1.9928410506,
				"z": 3.188817281,
				"element": "O" 
			},
			{
				"x": 1.2415877134,
				"y": 0.568005678,
				"z": 3.3581339808,
				"element": "C" 
			},
			{
				"x": 0.4375314703,
				"y": 0.7285644351,
				"z": 4.4881448065,
				"element": "C" 
			},
			{
				"x": 0.613134841,
				"y": 1.8641369598,
				"z": 5.2776304328,
				"element": "C" 
			},
			{
				"x": 1.5727913157,
				"y": 2.8200303895,
				"z": 4.9330891372,
				"element": "C" 
			},
			{
				"x": 2.3716968264,
				"y": 2.6430716239,
				"z": 3.8012315295,
				"element": "C" 
			},
			{
				"x": 2.2129820102,
				"y": 1.507799093,
				"z": 3.0060976101,
				"element": "C" 
			},
			{
				"x": 3.0066527865,
				"y": -1.0316799758,
				"z": -2.5869379575,
				"element": "C" 
			},
			{
				"x": 3.313069829,
				"y": -0.9953785971,
				"z": -3.9483314527,
				"element": "C" 
			},
			{
				"x": 4.552412951,
				"y": -0.1898714616,
				"z": -6.360378096,
				"element": "H" 
			},
			{
				"x": 4.0965160134,
				"y": -1.9127216816,
				"z": -6.5069264876,
				"element": "H" 
			},
			{
				"x": 3.7158755724,
				"y": -0.7719242823,
				"z": -7.8243035988,
				"element": "H" 
			},
			{
				"x": 0.2711291091,
				"y": -0.089079591,
				"z": -5.1529396899,
				"element": "H" 
			},
			{
				"x": -0.2763144409,
				"y": -0.1527178516,
				"z": -2.7185889956,
				"element": "H" 
			},
			{
				"x": 2.2124288866,
				"y": -1.0168641169,
				"z": -0.0944901734,
				"element": "H" 
			},
			{
				"x": -2.7604674981,
				"y": 1.9948641542,
				"z": 1.9707518264,
				"element": "H" 
			},
			{
				"x": -4.4670764668,
				"y": 3.7517474696,
				"z": 1.8284560004,
				"element": "H" 
			},
			{
				"x": -6.274137375,
				"y": 3.6308384478,
				"z": 0.1160159718,
				"element": "H" 
			},
			{
				"x": -6.3369985394,
				"y": 1.7337210677,
				"z": -1.4747297683,
				"element": "H" 
			},
			{
				"x": -5.4169032401,
				"y": -0.3553076254,
				"z": -2.3174272241,
				"element": "H" 
			},
			{
				"x": -3.6955633671,
				"y": -2.1372084583,
				"z": -2.2435592449,
				"element": "H" 
			},
			{
				"x": -1.8629925687,
				"y": -2.0201715919,
				"z": -0.5854088655,
				"element": "H" 
			},
			{
				"x": -0.3058778959,
				"y": -0.0207849912,
				"z": 4.7282280781,
				"element": "H" 
			},
			{
				"x": -0.0008512599,
				"y": 2.0026715169,
				"z": 6.1622839871,
				"element": "H" 
			},
			{
				"x": 1.7015995843,
				"y": 3.7034066421,
				"z": 5.551920776,
				"element": "H" 
			},
			{
				"x": 3.1235410746,
				"y": 3.3821664546,
				"z": 3.5415890744,
				"element": "H" 
			},
			{
				"x": 2.8431113428,
				"y": 1.3380896599,
				"z": 2.1402968584,
				"element": "H" 
			},
			{
				"x": 3.7793231216,
				"y": -1.2996054121,
				"z": -1.8711426475,
				"element": "H" 
			},
			{
				"x": 4.320258871,
				"y": -1.2341022232,
				"z": -4.2672444823,
				"element": "H" 
			}
		],
		 "valence_orbital": [ 
			{
				"type": "occ",
				"energy": -0.26391,
				"method": "rhf"
			},
			{
				"type": "occ",
				"energy": -0.2448,
				"method": "rhf"
			},
			{
				"type": "occ",
				"energy": -0.24356,
				"method": "rhf"
			},
			{
				"type": "occ",
				"energy": -0.21725,
				"method": "rhf"
			},
			{
				"type": "occ",
				"energy": -0.20738,
				"method": "rhf"
			},
			{
				"type": "unocc",
				"energy": -0.07641,
				"method": "rhf"
			},
			{
				"type": "unocc",
				"energy": -0.04808,
				"method": "rhf"
			},
			{
				"type": "unocc",
				"energy": -0.03164,
				"method": "rhf"
			},
			{
				"type": "unocc",
				"energy": -0.01515,
				"method": "rhf"
			},
			{
				"type": "unocc",
				"energy": -0.01253,
				"method": "rhf"
			}
		],
		"cosmo_sigma_profile": { 
			"-0.025": 0.0,
			"-0.024": 0.0,
			"-0.023": 0.0,
			"-0.022": 0.0,
			"-0.021": 0.0,
			"-0.02": 0.0,
			"-0.019": 0.0,
			"-0.018": 0.0,
			"-0.017": 0.0,
			"-0.016": 0.0,
			"-0.015": 0.0,
			"-0.014": 0.0,
			"-0.013": 0.0538909647943,
			"-0.012": 0.452045175094,
			"-0.011": 0.855222801515,
			"-0.01": 1.17692917523,
			"-0.009": 1.29108204697,
			"-0.008": 1.31337986964,
			"-0.007": 13.3228557369,
			"-0.006": 35.6399610977,
			"-0.005": 42.9388395075,
			"-0.004": 38.505742033,
			"-0.003": 33.9116179197,
			"-0.002": 27.0196895134,
			"-0.001": 26.5687666365,
			"0.0": 29.8592765586,
			"0.001": 30.5611243333,
			"0.002": 34.7123396046,
			"0.003": 49.8830851411,
			"0.004": 35.8415978213,
			"0.005": 15.3011223183,
			"0.006": 6.92628094327,
			"0.007": 6.09241750372,
			"0.008": 6.6847176572,
			"0.009": 7.24340382376,
			"0.01": 9.11588470486,
			"0.011": 9.61324552125,
			"0.012": 2.75546090456,
			"0.013": 0.161210136193,
			"0.014": 0.0,
			"0.015": 0.0,
			"0.016": 0.0,
			"0.017": 0.0,
			"0.018": 0.0,
			"0.019": 0.0,
			"0.02": 0.0,
			"0.021": 0.0,
			"0.022": 0.0,
			"0.023": 0.0,
			"0.024": 0.0,
			"0.025": 0.0
		}
	}
}
