{
	 "smiles": "BrCCCCCCCCN1C(=O)C2=CC=CC=C2C1=O", 
	 "Tm": 325.65, 
	 "num_atms": 40, 
	 "gaussian": { 
		 "optdone": 1, 
		 "sigma_profile": "yes", 
		 "theory": "DFT", 
		 "functional": "B3LYP", 
		 "basiset": "6-31G**", 
		 "properties": { 
			 "R2extent": 11322.5942, 
			 "electric_dipole_moment_norm": 3.8313984092, 
			 "electric_quadrupole_moment_norm": 33.6602169552, 
			 "total_energy": -3398.41488992, 
			 "HOMO_LUMO_gap": 0.17459, 
			 "cosmo_polarized_energy": -12.17, 
			 "cosmo_cavitation_energy": 44.14, 
			 "cosmo_dispersion_energy": -29.48, 
			 "cosmo_repulsion_energy": 2.29, 
			 "cosmo_total_nonelectrostatic_energy": 16.95, 
			 "SMD_solvation_energy": 6.29 
		},
		"coords": [
			{
				"x": 5.9224027774,
				"y": -1.0434797286,
				"z": -0.8218121874,
				"element": "Br" 
			},
			{
				"x": 4.3308752119,
				"y": 0.0962740558,
				"z": -1.193936597,
				"element": "C" 
			},
			{
				"x": 3.0147333797,
				"y": -0.6255985024,
				"z": -0.9488503916,
				"element": "C" 
			},
			{
				"x": 2.7532223974,
				"y": -0.9961574412,
				"z": 0.5164700124,
				"element": "C" 
			},
			{
				"x": 1.4385155528,
				"y": -1.760628027,
				"z": 0.7494916757,
				"element": "C" 
			},
			{
				"x": 0.11773566,
				"y": -1.0106486476,
				"z": 0.484266009,
				"element": "C" 
			},
			{
				"x": -0.1763405526,
				"y": 0.1711079905,
				"z": 1.4381233747,
				"element": "C" 
			},
			{
				"x": 0.3521683575,
				"y": 1.5559834807,
				"z": 1.0006749453,
				"element": "C" 
			},
			{
				"x": -0.638562347,
				"y": 2.4012188185,
				"z": 0.1850525468,
				"element": "C" 
			},
			{
				"x": -1.0789935577,
				"y": 1.7942413022,
				"z": -1.0693636657,
				"element": "N" 
			},
			{
				"x": -0.2894707197,
				"y": 1.7208596507,
				"z": -2.2239470018,
				"element": "C" 
			},
			{
				"x": 0.8634953329,
				"y": 2.1043481764,
				"z": -2.3124672607,
				"element": "O" 
			},
			{
				"x": -1.1491855191,
				"y": 1.0857950151,
				"z": -3.2671834277,
				"element": "C" 
			},
			{
				"x": -0.8710838654,
				"y": 0.7717123183,
				"z": -4.5894466321,
				"element": "C" 
			},
			{
				"x": -1.8932367513,
				"y": 0.1721628024,
				"z": -5.3378214455,
				"element": "C" 
			},
			{
				"x": -3.1444364176,
				"y": -0.0966134446,
				"z": -4.7680668825,
				"element": "C" 
			},
			{
				"x": -3.4152509772,
				"y": 0.2255107705,
				"z": -3.4311386116,
				"element": "C" 
			},
			{
				"x": -2.3968175796,
				"y": 0.8183562117,
				"z": -2.6994453277,
				"element": "C" 
			},
			{
				"x": -2.3708610041,
				"y": 1.2760603237,
				"z": -1.2781333642,
				"element": "C" 
			},
			{
				"x": -3.2542863051,
				"y": 1.2320889039,
				"z": -0.4450047652,
				"element": "O" 
			},
			{
				"x": 4.4474841177,
				"y": 0.3962213653,
				"z": -2.2343575429,
				"element": "H" 
			},
			{
				"x": 4.4554936345,
				"y": 0.9670674211,
				"z": -0.5494056036,
				"element": "H" 
			},
			{
				"x": 2.2346341018,
				"y": 0.0517927241,
				"z": -1.3222346671,
				"element": "H" 
			},
			{
				"x": 2.9729261258,
				"y": -1.5257920642,
				"z": -1.5743992377,
				"element": "H" 
			},
			{
				"x": 3.5823785594,
				"y": -1.6217399043,
				"z": 0.866328794,
				"element": "H" 
			},
			{
				"x": 2.780604042,
				"y": -0.0888989396,
				"z": 1.1346213884,
				"element": "H" 
			},
			{
				"x": 1.4252135363,
				"y": -2.1139853726,
				"z": 1.7894977319,
				"element": "H" 
			},
			{
				"x": 1.4521158543,
				"y": -2.6662193178,
				"z": 0.1272075088,
				"element": "H" 
			},
			{
				"x": 0.078445492,
				"y": -0.6748189757,
				"z": -0.5587095009,
				"element": "H" 
			},
			{
				"x": -0.6924540842,
				"y": -1.7433745405,
				"z": 0.5851059313,
				"element": "H" 
			},
			{
				"x": -1.260394614,
				"y": 0.2494664475,
				"z": 1.5866237672,
				"element": "H" 
			},
			{
				"x": 0.2397246657,
				"y": -0.0729803472,
				"z": 2.424057331,
				"element": "H" 
			},
			{
				"x": 1.2836065139,
				"y": 1.4624696832,
				"z": 0.4355271754,
				"element": "H" 
			},
			{
				"x": 0.592919663,
				"y": 2.1542586844,
				"z": 1.8885754856,
				"element": "H" 
			},
			{
				"x": -1.5503494689,
				"y": 2.5811657732,
				"z": 0.7610042258,
				"element": "H" 
			},
			{
				"x": -0.1846102636,
				"y": 3.3675326974,
				"z": -0.0572735016,
				"element": "H" 
			},
			{
				"x": 0.1014336171,
				"y": 0.9855131084,
				"z": -5.0209609545,
				"element": "H" 
			},
			{
				"x": -1.7146381243,
				"y": -0.088890725,
				"z": -6.3766208841,
				"element": "H" 
			},
			{
				"x": -3.9159187699,
				"y": -0.5619293864,
				"z": -5.3742333462,
				"element": "H" 
			},
			{
				"x": -4.3809376719,
				"y": 0.0227476394,
				"z": -2.9795151041,
				"element": "H" 
			}
		],
		 "valence_orbital": [ 
			{
				"type": "occ",
				"energy": -0.28182,
				"method": "rhf"
			},
			{
				"type": "occ",
				"energy": -0.27231,
				"method": "rhf"
			},
			{
				"type": "occ",
				"energy": -0.26789,
				"method": "rhf"
			},
			{
				"type": "occ",
				"energy": -0.26353,
				"method": "rhf"
			},
			{
				"type": "occ",
				"energy": -0.26111,
				"method": "rhf"
			},
			{
				"type": "unocc",
				"energy": -0.08652,
				"method": "rhf"
			},
			{
				"type": "unocc",
				"energy": -0.04495,
				"method": "rhf"
			},
			{
				"type": "unocc",
				"energy": 0.01125,
				"method": "rhf"
			},
			{
				"type": "unocc",
				"energy": 0.02347,
				"method": "rhf"
			},
			{
				"type": "unocc",
				"energy": 0.0651,
				"method": "rhf"
			}
		],
		"cosmo_sigma_profile": { 
			"-0.025": 0.0,
			"-0.024": 0.0,
			"-0.023": 0.0,
			"-0.022": 0.0,
			"-0.021": 0.0,
			"-0.02": 0.0,
			"-0.019": 0.0,
			"-0.018": 0.0,
			"-0.017": 0.0,
			"-0.016": 0.0,
			"-0.015": 0.0,
			"-0.014": 0.0,
			"-0.013": 0.0,
			"-0.012": 0.0,
			"-0.011": 0.0,
			"-0.01": 0.0,
			"-0.009": 0.0,
			"-0.008": 1.28712791694,
			"-0.007": 9.10924877064,
			"-0.006": 14.5098557051,
			"-0.005": 18.1430646436,
			"-0.004": 22.5723353166,
			"-0.003": 30.8099488274,
			"-0.002": 39.405091838,
			"-0.001": 44.0166846537,
			"0.0": 42.3793546482,
			"0.001": 30.1097771717,
			"0.002": 24.1509733152,
			"0.003": 12.5918413477,
			"0.004": 9.3064831648,
			"0.005": 9.64868783817,
			"0.006": 12.0129226588,
			"0.007": 9.05139849174,
			"0.008": 3.34752897168,
			"0.009": 2.67520946146,
			"0.01": 4.64144177029,
			"0.011": 7.46369877183,
			"0.012": 3.46373319242,
			"0.013": 0.0709577029623,
			"0.014": 0.0,
			"0.015": 0.0,
			"0.016": 0.0,
			"0.017": 0.0,
			"0.018": 0.0,
			"0.019": 0.0,
			"0.02": 0.0,
			"0.021": 0.0,
			"0.022": 0.0,
			"0.023": 0.0,
			"0.024": 0.0,
			"0.025": 0.0
		}
	}
}
