{
	 "smiles": "NC1=NN(C(=O)C1)C1=C(Cl)C=C(Cl)C=C1Cl", 
	 "Tm": 492.15, 
	 "num_atms": 22, 
	 "gaussian": { 
		 "optdone": 1, 
		 "sigma_profile": "yes", 
		 "theory": "DFT", 
		 "functional": "B3LYP", 
		 "basiset": "6-31G**", 
		 "properties": { 
			 "R2extent": 6188.1603, 
			 "electric_dipole_moment_norm": 4.34410435648, 
			 "electric_quadrupole_moment_norm": 13.5020447244, 
			 "total_energy": -1966.6005808, 
			 "HOMO_LUMO_gap": 0.17407, 
			 "cosmo_polarized_energy": -17.83, 
			 "cosmo_cavitation_energy": 32.87, 
			 "cosmo_dispersion_energy": -23.32, 
			 "cosmo_repulsion_energy": 1.86, 
			 "cosmo_total_nonelectrostatic_energy": 11.41, 
			 "SMD_solvation_energy": 4.97 
		},
		"coords": [
			{
				"x": -0.7645443473,
				"y": -3.3165313494,
				"z": 0.4976402229,
				"element": "N" 
			},
			{
				"x": -0.6922320429,
				"y": -1.9632077434,
				"z": 0.2633187166,
				"element": "C" 
			},
			{
				"x": 0.1127368521,
				"y": -1.1875992725,
				"z": 0.9109946275,
				"element": "N" 
			},
			{
				"x": -0.003771721,
				"y": 0.0936000936,
				"z": 0.3132594155,
				"element": "N" 
			},
			{
				"x": -0.9287475585,
				"y": 0.16065848,
				"z": -0.7175419173,
				"element": "C" 
			},
			{
				"x": -1.2396145291,
				"y": 1.1452401653,
				"z": -1.3557156817,
				"element": "O" 
			},
			{
				"x": -1.4522993656,
				"y": -1.2760499678,
				"z": -0.8370673274,
				"element": "C" 
			},
			{
				"x": 0.7324432817,
				"y": 1.172771871,
				"z": 0.83619239,
				"element": "C" 
			},
			{
				"x": 0.4132121902,
				"y": 1.7413282957,
				"z": 2.0822545218,
				"element": "C" 
			},
			{
				"x": -0.9414313653,
				"y": 1.125646665,
				"z": 2.9956476945,
				"element": "Cl" 
			},
			{
				"x": 1.1380992194,
				"y": 2.8044697315,
				"z": 2.6152789637,
				"element": "C" 
			},
			{
				"x": 2.1975750276,
				"y": 3.3243916336,
				"z": 1.8755466934,
				"element": "C" 
			},
			{
				"x": 3.1129016168,
				"y": 4.6685138349,
				"z": 2.5251399589,
				"element": "Cl" 
			},
			{
				"x": 2.5466824147,
				"y": 2.8023862176,
				"z": 0.6330787132,
				"element": "C" 
			},
			{
				"x": 1.816552617,
				"y": 1.7261621722,
				"z": 0.131885316,
				"element": "C" 
			},
			{
				"x": 2.2930986242,
				"y": 1.0523923626,
				"z": -1.4052243733,
				"element": "Cl" 
			},
			{
				"x": -0.3088660098,
				"y": -3.6141452277,
				"z": 1.3514640918,
				"element": "H" 
			},
			{
				"x": -1.6670549263,
				"y": -3.7457333113,
				"z": 0.3484987266,
				"element": "H" 
			},
			{
				"x": -2.5392257943,
				"y": -1.2970602253,
				"z": -0.7043053981,
				"element": "H" 
			},
			{
				"x": -1.2273523367,
				"y": -1.6893810592,
				"z": -1.8254797569,
				"element": "H" 
			},
			{
				"x": 0.8715364385,
				"y": 3.2228337359,
				"z": 3.5773283618,
				"element": "H" 
			},
			{
				"x": 3.3744017146,
				"y": 3.2127128976,
				"z": 0.0691060404,
				"element": "H" 
			}
		],
		 "valence_orbital": [ 
			{
				"type": "occ",
				"energy": -0.31013,
				"method": "rhf"
			},
			{
				"type": "occ",
				"energy": -0.26534,
				"method": "rhf"
			},
			{
				"type": "occ",
				"energy": -0.26125,
				"method": "rhf"
			},
			{
				"type": "occ",
				"energy": -0.25556,
				"method": "rhf"
			},
			{
				"type": "occ",
				"energy": -0.21551,
				"method": "rhf"
			},
			{
				"type": "unocc",
				"energy": -0.04144,
				"method": "rhf"
			},
			{
				"type": "unocc",
				"energy": -0.03563,
				"method": "rhf"
			},
			{
				"type": "unocc",
				"energy": -0.0144,
				"method": "rhf"
			},
			{
				"type": "unocc",
				"energy": -0.01318,
				"method": "rhf"
			},
			{
				"type": "unocc",
				"energy": 0.04246,
				"method": "rhf"
			}
		],
		"cosmo_sigma_profile": { 
			"-0.025": 0.0,
			"-0.024": 0.0,
			"-0.023": 0.0,
			"-0.022": 0.0,
			"-0.021": 0.0,
			"-0.02": 0.0,
			"-0.019": 0.0,
			"-0.018": 0.0,
			"-0.017": 0.0,
			"-0.016": 0.0,
			"-0.015": 0.0915336064217,
			"-0.014": 1.59254486852,
			"-0.013": 3.0652565187,
			"-0.012": 3.14887232255,
			"-0.011": 2.71896506581,
			"-0.01": 2.91574084079,
			"-0.009": 8.28859812352,
			"-0.008": 8.97596840771,
			"-0.007": 8.04824312521,
			"-0.006": 9.19819571684,
			"-0.005": 8.06422037272,
			"-0.004": 9.00967037392,
			"-0.003": 11.5210208214,
			"-0.002": 14.9769568423,
			"-0.001": 25.5062093976,
			"0.0": 29.4516755476,
			"0.001": 18.9080580924,
			"0.002": 20.5596373334,
			"0.003": 28.1057140552,
			"0.004": 15.1188986875,
			"0.005": 4.5493585177,
			"0.006": 4.51680198781,
			"0.007": 5.44554752164,
			"0.008": 3.75316273237,
			"0.009": 3.38939321942,
			"0.01": 3.72360203773,
			"0.011": 4.09341766771,
			"0.012": 5.50542019177,
			"0.013": 4.64996538952,
			"0.014": 1.26110124812,
			"0.015": 0.173596544038,
			"0.016": 0.0,
			"0.017": 0.0,
			"0.018": 0.0,
			"0.019": 0.0,
			"0.02": 0.0,
			"0.021": 0.0,
			"0.022": 0.0,
			"0.023": 0.0,
			"0.024": 0.0,
			"0.025": 0.0
		}
	}
}
