{
	 "smiles": "OC(=O)CSCC(=O)NC1=CC=C(F)C=C1", 
	 "Tm": 399.15, 
	 "num_atms": 26, 
	 "gaussian": { 
		 "optdone": 1, 
		 "sigma_profile": "yes", 
		 "theory": "DFT", 
		 "functional": "B3LYP", 
		 "basiset": "6-31G**", 
		 "properties": { 
			 "R2extent": 6820.184, 
			 "electric_dipole_moment_norm": 6.66091848096, 
			 "electric_quadrupole_moment_norm": 17.4546565589, 
			 "total_energy": -1165.56551736, 
			 "HOMO_LUMO_gap": 0.18997, 
			 "cosmo_polarized_energy": -21.13, 
			 "cosmo_cavitation_energy": 32.35, 
			 "cosmo_dispersion_energy": -23.88, 
			 "cosmo_repulsion_energy": 1.78, 
			 "cosmo_total_nonelectrostatic_energy": 10.25, 
			 "SMD_solvation_energy": 6.85 
		},
		"coords": [
			{
				"x": -3.1266937665,
				"y": 0.1192470905,
				"z": 0.541058042,
				"element": "O" 
			},
			{
				"x": -3.274942261,
				"y": 1.3669895415,
				"z": 0.0607730848,
				"element": "C" 
			},
			{
				"x": -4.1224500416,
				"y": 2.1165367763,
				"z": 0.4824323211,
				"element": "O" 
			},
			{
				"x": -2.2871501422,
				"y": 1.7729989504,
				"z": -1.037355861,
				"element": "C" 
			},
			{
				"x": -0.6628236072,
				"y": 2.35953559,
				"z": -0.3910040283,
				"element": "S" 
			},
			{
				"x": -0.0550586465,
				"y": 0.8883001102,
				"z": 0.5392730291,
				"element": "C" 
			},
			{
				"x": 0.0657860268,
				"y": -0.3343732903,
				"z": -0.3530313453,
				"element": "C" 
			},
			{
				"x": -0.9362713692,
				"y": -1.0087477931,
				"z": -0.6320060838,
				"element": "O" 
			},
			{
				"x": 1.3099181978,
				"y": -0.5999820931,
				"z": -0.8306970506,
				"element": "N" 
			},
			{
				"x": 1.7342395164,
				"y": -1.6199207621,
				"z": -1.7201112369,
				"element": "C" 
			},
			{
				"x": 3.0890103523,
				"y": -1.6212044372,
				"z": -2.0843699592,
				"element": "C" 
			},
			{
				"x": 3.5916275979,
				"y": -2.5889651532,
				"z": -2.9485673331,
				"element": "C" 
			},
			{
				"x": 2.7252906474,
				"y": -3.5567505253,
				"z": -3.4444325201,
				"element": "C" 
			},
			{
				"x": 3.2040188577,
				"y": -4.4979138849,
				"z": -4.2820007933,
				"element": "F" 
			},
			{
				"x": 1.3804754077,
				"y": -3.5753876959,
				"z": -3.0963474849,
				"element": "C" 
			},
			{
				"x": 0.8763543189,
				"y": -2.6057520252,
				"z": -2.2303994267,
				"element": "C" 
			},
			{
				"x": -2.4098553002,
				"y": -0.3715795209,
				"z": 0.0702299494,
				"element": "H" 
			},
			{
				"x": -2.1256451225,
				"y": 0.968539776,
				"z": -1.7591119454,
				"element": "H" 
			},
			{
				"x": -2.6939803965,
				"y": 2.6461893674,
				"z": -1.5494093181,
				"element": "H" 
			},
			{
				"x": 0.9024191678,
				"y": 1.2022774917,
				"z": 0.9636740099,
				"element": "H" 
			},
			{
				"x": -0.7390935662,
				"y": 0.657829347,
				"z": 1.3584645618,
				"element": "H" 
			},
			{
				"x": 2.0351016264,
				"y": 0.0460685931,
				"z": -0.5525909439,
				"element": "H" 
			},
			{
				"x": 3.7581081595,
				"y": -0.8593921397,
				"z": -1.6913723982,
				"element": "H" 
			},
			{
				"x": 4.6363895627,
				"y": -2.5995248664,
				"z": -3.2381206284,
				"element": "H" 
			},
			{
				"x": 0.7343829567,
				"y": -4.346079571,
				"z": -3.502199257,
				"element": "H" 
			},
			{
				"x": -0.1668581766,
				"y": -2.607138876,
				"z": -1.9503773841,
				"element": "H" 
			}
		],
		 "valence_orbital": [ 
			{
				"type": "occ",
				"energy": -0.30038,
				"method": "rhf"
			},
			{
				"type": "occ",
				"energy": -0.28027,
				"method": "rhf"
			},
			{
				"type": "occ",
				"energy": -0.26749,
				"method": "rhf"
			},
			{
				"type": "occ",
				"energy": -0.24645,
				"method": "rhf"
			},
			{
				"type": "occ",
				"energy": -0.23895,
				"method": "rhf"
			},
			{
				"type": "unocc",
				"energy": -0.04898,
				"method": "rhf"
			},
			{
				"type": "unocc",
				"energy": -0.03048,
				"method": "rhf"
			},
			{
				"type": "unocc",
				"energy": -0.00818,
				"method": "rhf"
			},
			{
				"type": "unocc",
				"energy": 0.00805,
				"method": "rhf"
			},
			{
				"type": "unocc",
				"energy": 0.03265,
				"method": "rhf"
			}
		],
		"cosmo_sigma_profile": { 
			"-0.025": 0.0,
			"-0.024": 0.0,
			"-0.023": 0.0,
			"-0.022": 0.0,
			"-0.021": 0.0,
			"-0.02": 0.0,
			"-0.019": 0.0,
			"-0.018": 0.0,
			"-0.017": 0.627590184895,
			"-0.016": 1.8943870791,
			"-0.015": 1.91846774538,
			"-0.014": 1.38129339484,
			"-0.013": 1.62616897258,
			"-0.012": 1.44523827789,
			"-0.011": 1.9988751079,
			"-0.01": 2.17464796972,
			"-0.009": 2.89933133005,
			"-0.008": 6.8874331821,
			"-0.007": 13.189600563,
			"-0.006": 13.8043890373,
			"-0.005": 16.440233735,
			"-0.004": 13.8662148213,
			"-0.003": 11.0535639955,
			"-0.002": 11.8178611478,
			"-0.001": 12.3183935624,
			"0.0": 14.6434040369,
			"0.001": 19.0479264579,
			"0.002": 18.6101210383,
			"0.003": 22.9524899783,
			"0.004": 20.2139469436,
			"0.005": 10.6557947872,
			"0.006": 4.94004564101,
			"0.007": 6.3096615533,
			"0.008": 5.01830518699,
			"0.009": 3.85557711596,
			"0.01": 3.69061815521,
			"0.011": 6.05295971916,
			"0.012": 6.24621368623,
			"0.013": 2.98363001185,
			"0.014": 0.21450289741,
			"0.015": 0.0,
			"0.016": 0.0,
			"0.017": 0.0,
			"0.018": 0.0,
			"0.019": 0.0,
			"0.02": 0.0,
			"0.021": 0.0,
			"0.022": 0.0,
			"0.023": 0.0,
			"0.024": 0.0,
			"0.025": 0.0
		}
	}
}
