{
	 "smiles": "CC(=O)C1=CNC2=C1C=CC(Br)=C2", 
	 "Tm": 513.15, 
	 "num_atms": 21, 
	 "gaussian": { 
		 "optdone": 1, 
		 "sigma_profile": "yes", 
		 "theory": "DFT", 
		 "functional": "B3LYP", 
		 "basiset": "6-31G**", 
		 "properties": { 
			 "R2extent": 5039.2656, 
			 "electric_dipole_moment_norm": 1.98696074697, 
			 "electric_quadrupole_moment_norm": 22.4339434926, 
			 "total_energy": -3087.27501602, 
			 "HOMO_LUMO_gap": 0.1758, 
			 "cosmo_polarized_energy": -14.32, 
			 "cosmo_cavitation_energy": 27.58, 
			 "cosmo_dispersion_energy": -20.74, 
			 "cosmo_repulsion_energy": 1.62, 
			 "cosmo_total_nonelectrostatic_energy": 8.47, 
			 "SMD_solvation_energy": 4.1 
		},
		"coords": [
			{
				"x": -1.7890395637,
				"y": -0.102260351,
				"z": 2.3187172218,
				"element": "C" 
			},
			{
				"x": -1.7642489155,
				"y": -1.4047613465,
				"z": 1.539075551,
				"element": "C" 
			},
			{
				"x": -2.3716388549,
				"y": -2.3888512719,
				"z": 1.9463849825,
				"element": "O" 
			},
			{
				"x": -0.9935665682,
				"y": -1.4658006181,
				"z": 0.282351971,
				"element": "C" 
			},
			{
				"x": -0.9361501931,
				"y": -2.625631224,
				"z": -0.466432811,
				"element": "C" 
			},
			{
				"x": -0.1659626073,
				"y": -2.4301432059,
				"z": -1.5771057049,
				"element": "N" 
			},
			{
				"x": 0.306989745,
				"y": -1.1282104734,
				"z": -1.5887928922,
				"element": "C" 
			},
			{
				"x": -0.1953587231,
				"y": -0.4815160437,
				"z": -0.4252435163,
				"element": "C" 
			},
			{
				"x": 0.1573073624,
				"y": 0.8646053984,
				"z": -0.2210964809,
				"element": "C" 
			},
			{
				"x": 0.97040186,
				"y": 1.513326785,
				"z": -1.1428656064,
				"element": "C" 
			},
			{
				"x": 1.4424300595,
				"y": 0.8320597352,
				"z": -2.2779514163,
				"element": "C" 
			},
			{
				"x": 2.5587746677,
				"y": 1.7670478464,
				"z": -3.5184342761,
				"element": "Br" 
			},
			{
				"x": 1.1250385212,
				"y": -0.4954828302,
				"z": -2.5274336902,
				"element": "C" 
			},
			{
				"x": -0.7754532813,
				"y": 0.1957675055,
				"z": 2.6103088886,
				"element": "H" 
			},
			{
				"x": -2.3996757658,
				"y": -0.2365172554,
				"z": 3.2123077019,
				"element": "H" 
			},
			{
				"x": -2.2062313653,
				"y": 0.7076624914,
				"z": 1.7094784135,
				"element": "H" 
			},
			{
				"x": -1.4081337358,
				"y": -3.5737929904,
				"z": -0.2557218963,
				"element": "H" 
			},
			{
				"x": 0.0282262804,
				"y": -3.1260529086,
				"z": -2.2799124062,
				"element": "H" 
			},
			{
				"x": -0.194752884,
				"y": 1.410160408,
				"z": 0.6467669991,
				"element": "H" 
			},
			{
				"x": 1.2464302017,
				"y": 2.5504266616,
				"z": -0.9925007396,
				"element": "H" 
			},
			{
				"x": 1.49681376,
				"y": -1.0077363125,
				"z": -3.407600293,
				"element": "H" 
			}
		],
		 "valence_orbital": [ 
			{
				"type": "occ",
				"energy": -0.28828,
				"method": "rhf"
			},
			{
				"type": "occ",
				"energy": -0.28049,
				"method": "rhf"
			},
			{
				"type": "occ",
				"energy": -0.24188,
				"method": "rhf"
			},
			{
				"type": "occ",
				"energy": -0.24187,
				"method": "rhf"
			},
			{
				"type": "occ",
				"energy": -0.21973,
				"method": "rhf"
			},
			{
				"type": "unocc",
				"energy": -0.04393,
				"method": "rhf"
			},
			{
				"type": "unocc",
				"energy": -0.01608,
				"method": "rhf"
			},
			{
				"type": "unocc",
				"energy": 0.00515,
				"method": "rhf"
			},
			{
				"type": "unocc",
				"energy": 0.00576,
				"method": "rhf"
			},
			{
				"type": "unocc",
				"energy": 0.0628,
				"method": "rhf"
			}
		],
		"cosmo_sigma_profile": { 
			"-0.025": 0.0,
			"-0.024": 0.0,
			"-0.023": 0.0,
			"-0.022": 0.0,
			"-0.021": 0.0,
			"-0.02": 0.0,
			"-0.019": 0.0,
			"-0.018": 0.0,
			"-0.017": 0.951932164854,
			"-0.016": 2.15461967296,
			"-0.015": 1.20160714025,
			"-0.014": 1.42278598253,
			"-0.013": 1.43794265813,
			"-0.012": 1.37313866975,
			"-0.011": 1.38390720256,
			"-0.01": 1.66599546538,
			"-0.009": 2.88932247289,
			"-0.008": 3.55776026217,
			"-0.007": 3.69590404498,
			"-0.006": 9.44454937773,
			"-0.005": 13.3622977734,
			"-0.004": 12.6431891971,
			"-0.003": 12.5874168876,
			"-0.002": 13.108896768,
			"-0.001": 14.9090036758,
			"0.0": 12.6712876522,
			"0.001": 15.0845858349,
			"0.002": 20.1244827757,
			"0.003": 24.8265524378,
			"0.004": 21.2263691474,
			"0.005": 13.1278338144,
			"0.006": 1.39568329285,
			"0.007": 2.55778687309,
			"0.008": 1.07924553458,
			"0.009": 0.768078372325,
			"0.01": 2.45923254284,
			"0.011": 2.34306773157,
			"0.012": 2.68939303994,
			"0.013": 4.56005784033,
			"0.014": 1.49611459193,
			"0.015": 0.0950215379805,
			"0.016": 0.0,
			"0.017": 0.0,
			"0.018": 0.0,
			"0.019": 0.0,
			"0.02": 0.0,
			"0.021": 0.0,
			"0.022": 0.0,
			"0.023": 0.0,
			"0.024": 0.0,
			"0.025": 0.0
		}
	}
}
