{
	 "smiles": "CC(=O)OC1=CC=C(C=C1)C1(C(=O)NC2=C1C=CC=C2)C1=CC=C(OC(C)=O)C=C1", 
	 "Tm": 515.15, 
	 "num_atms": 49, 
	 "gaussian": { 
		 "optdone": 1, 
		 "sigma_profile": "yes", 
		 "theory": "DFT", 
		 "functional": "B3LYP", 
		 "basiset": "6-31G**", 
		 "properties": { 
			 "R2extent": 15229.9679, 
			 "electric_dipole_moment_norm": 2.64008510848, 
			 "electric_quadrupole_moment_norm": 20.3952324784, 
			 "total_energy": -1356.91374884, 
			 "HOMO_LUMO_gap": 0.19537, 
			 "cosmo_polarized_energy": -22.28, 
			 "cosmo_cavitation_energy": 54.11, 
			 "cosmo_dispersion_energy": -36.74, 
			 "cosmo_repulsion_energy": 2.81, 
			 "cosmo_total_nonelectrostatic_energy": 20.18, 
			 "SMD_solvation_energy": 11.91 
		},
		"coords": [
			{
				"x": 2.9508886452,
				"y": 5.406365999,
				"z": -5.0892625815,
				"element": "C" 
			},
			{
				"x": 2.6494036738,
				"y": 4.150449915,
				"z": -4.3090164343,
				"element": "C" 
			},
			{
				"x": 2.8112663912,
				"y": 3.0198515339,
				"z": -4.6969982629,
				"element": "O" 
			},
			{
				"x": 2.1592551689,
				"y": 4.487718299,
				"z": -3.0744996408,
				"element": "O" 
			},
			{
				"x": 1.8002584842,
				"y": 3.5143265077,
				"z": -2.1410027508,
				"element": "C" 
			},
			{
				"x": 1.0687393714,
				"y": 2.3716258945,
				"z": -2.4642979135,
				"element": "C" 
			},
			{
				"x": 0.6904532891,
				"y": 1.5025888135,
				"z": -1.4422551068,
				"element": "C" 
			},
			{
				"x": 1.0282237196,
				"y": 1.7487096095,
				"z": -0.1037598629,
				"element": "C" 
			},
			{
				"x": 1.7546731776,
				"y": 2.9089912717,
				"z": 0.1921266009,
				"element": "C" 
			},
			{
				"x": 2.1384851244,
				"y": 3.7888148142,
				"z": -0.8182942083,
				"element": "C" 
			},
			{
				"x": 0.6741516392,
				"y": 0.7155358777,
				"z": 0.975924563,
				"element": "C" 
			},
			{
				"x": 0.686428173,
				"y": 1.3453335553,
				"z": 2.4118976831,
				"element": "C" 
			},
			{
				"x": 0.0433103403,
				"y": 2.2973876131,
				"z": 2.8077181523,
				"element": "O" 
			},
			{
				"x": 1.5627457125,
				"y": 0.5991961021,
				"z": 3.1737226342,
				"element": "N" 
			},
			{
				"x": 2.2408557665,
				"y": -0.3689953281,
				"z": 2.4234725005,
				"element": "C" 
			},
			{
				"x": 1.7696813269,
				"y": -0.3417991318,
				"z": 1.1015569556,
				"element": "C" 
			},
			{
				"x": 2.3348532524,
				"y": -1.1883537429,
				"z": 0.1576986406,
				"element": "C" 
			},
			{
				"x": 3.348826858,
				"y": -2.0741916875,
				"z": 0.5501384437,
				"element": "C" 
			},
			{
				"x": 3.7926349937,
				"y": -2.0977742053,
				"z": 1.8736858156,
				"element": "C" 
			},
			{
				"x": 3.2457343687,
				"y": -1.2377226746,
				"z": 2.8338443488,
				"element": "C" 
			},
			{
				"x": -0.7408441415,
				"y": 0.135688794,
				"z": 0.775643672,
				"element": "C" 
			},
			{
				"x": -1.8277700088,
				"y": 1.0219958277,
				"z": 0.6961822581,
				"element": "C" 
			},
			{
				"x": -3.1303156939,
				"y": 0.558758851,
				"z": 0.537094612,
				"element": "C" 
			},
			{
				"x": -3.3545112051,
				"y": -0.8167715368,
				"z": 0.4522913651,
				"element": "C" 
			},
			{
				"x": -4.6308424606,
				"y": -1.3755127288,
				"z": 0.3650910319,
				"element": "O" 
			},
			{
				"x": -5.5591474739,
				"y": -0.885376191,
				"z": -0.5171565383,
				"element": "C" 
			},
			{
				"x": -6.8390149525,
				"y": -1.6744963139,
				"z": -0.3897925656,
				"element": "C" 
			},
			{
				"x": -5.3650927198,
				"y": 0.0333966242,
				"z": -1.2736033183,
				"element": "O" 
			},
			{
				"x": -2.2963379019,
				"y": -1.7150357807,
				"z": 0.5391493661,
				"element": "C" 
			},
			{
				"x": -0.9947217251,
				"y": -1.2377914457,
				"z": 0.7050443062,
				"element": "C" 
			},
			{
				"x": 3.3436016214,
				"y": 5.1368664084,
				"z": -6.0689926107,
				"element": "H" 
			},
			{
				"x": 3.6783446702,
				"y": 6.0191265023,
				"z": -4.5489705022,
				"element": "H" 
			},
			{
				"x": 2.0414326862,
				"y": 6.0040511942,
				"z": -5.2013818297,
				"element": "H" 
			},
			{
				"x": 0.802801602,
				"y": 2.1601745854,
				"z": -3.4912547007,
				"element": "H" 
			},
			{
				"x": 0.1062718455,
				"y": 0.6234620873,
				"z": -1.6947715975,
				"element": "H" 
			},
			{
				"x": 2.0139601279,
				"y": 3.1474652054,
				"z": 1.2176863911,
				"element": "H" 
			},
			{
				"x": 2.6917059731,
				"y": 4.6939336736,
				"z": -0.5905930985,
				"element": "H" 
			},
			{
				"x": 1.7330857406,
				"y": 0.8158116044,
				"z": 4.1450237104,
				"element": "H" 
			},
			{
				"x": 2.0017875898,
				"y": -1.1597432195,
				"z": -0.8754392624,
				"element": "H" 
			},
			{
				"x": 3.7943096033,
				"y": -2.7403833995,
				"z": -0.1819146272,
				"element": "H" 
			},
			{
				"x": 4.5797118236,
				"y": -2.7865200395,
				"z": 2.1662873346,
				"element": "H" 
			},
			{
				"x": 3.6004820208,
				"y": -1.2459854882,
				"z": 3.8600839088,
				"element": "H" 
			},
			{
				"x": -1.6496432854,
				"y": 2.0882435539,
				"z": 0.7777231323,
				"element": "H" 
			},
			{
				"x": -3.9562972533,
				"y": 1.2548444002,
				"z": 0.4713189651,
				"element": "H" 
			},
			{
				"x": -7.2228947036,
				"y": -1.6017680901,
				"z": 0.6320931801,
				"element": "H" 
			},
			{
				"x": -7.5741975328,
				"y": -1.2856761096,
				"z": -1.0933866068,
				"element": "H" 
			},
			{
				"x": -6.6497130331,
				"y": -2.7327926108,
				"z": -0.5917182292,
				"element": "H" 
			},
			{
				"x": -2.498050098,
				"y": -2.7796117235,
				"z": 0.482036817,
				"element": "H" 
			},
			{
				"x": -0.1787705914,
				"y": -1.94761367,
				"z": 0.7771258599,
				"element": "H" 
			}
		],
		 "valence_orbital": [ 
			{
				"type": "occ",
				"energy": -0.25369,
				"method": "rhf"
			},
			{
				"type": "occ",
				"energy": -0.24978,
				"method": "rhf"
			},
			{
				"type": "occ",
				"energy": -0.23925,
				"method": "rhf"
			},
			{
				"type": "occ",
				"energy": -0.22902,
				"method": "rhf"
			},
			{
				"type": "occ",
				"energy": -0.22121,
				"method": "rhf"
			},
			{
				"type": "unocc",
				"energy": -0.02584,
				"method": "rhf"
			},
			{
				"type": "unocc",
				"energy": -0.01758,
				"method": "rhf"
			},
			{
				"type": "unocc",
				"energy": -0.01051,
				"method": "rhf"
			},
			{
				"type": "unocc",
				"energy": -0.00899,
				"method": "rhf"
			},
			{
				"type": "unocc",
				"energy": -0.00415,
				"method": "rhf"
			}
		],
		"cosmo_sigma_profile": { 
			"-0.025": 0.0,
			"-0.024": 0.0,
			"-0.023": 0.0,
			"-0.022": 0.0,
			"-0.021": 0.0,
			"-0.02": 0.0,
			"-0.019": 0.0,
			"-0.018": 0.0,
			"-0.017": 0.0119529423113,
			"-0.016": 0.80058032286,
			"-0.015": 1.58126692996,
			"-0.014": 1.14547734211,
			"-0.013": 0.906867463967,
			"-0.012": 0.881311710488,
			"-0.011": 1.60742157699,
			"-0.01": 1.19663209926,
			"-0.009": 1.14714520841,
			"-0.008": 0.882330261042,
			"-0.007": 10.0894440494,
			"-0.006": 27.4997230726,
			"-0.005": 38.3452642988,
			"-0.004": 36.4257039439,
			"-0.003": 34.4606076674,
			"-0.002": 35.5738848217,
			"-0.001": 29.8650109569,
			"0.0": 23.6956786581,
			"0.001": 24.0485118909,
			"0.002": 28.4269070401,
			"0.003": 31.2659958005,
			"0.004": 31.1232502502,
			"0.005": 15.0570168608,
			"0.006": 10.309604974,
			"0.007": 7.04964725217,
			"0.008": 4.750288556,
			"0.009": 5.80840523836,
			"0.01": 7.2270027714,
			"0.011": 10.841444264,
			"0.012": 8.19625502363,
			"0.013": 2.53543070959,
			"0.014": 0.0847776591313,
			"0.015": 0.0,
			"0.016": 0.0,
			"0.017": 0.0,
			"0.018": 0.0,
			"0.019": 0.0,
			"0.02": 0.0,
			"0.021": 0.0,
			"0.022": 0.0,
			"0.023": 0.0,
			"0.024": 0.0,
			"0.025": 0.0
		}
	}
}
