{
	 "smiles": "CCOC1=CC=C(NC(C)=O)C=C1", 
	 "Tm": 409.15, 
	 "num_atms": 26, 
	 "gaussian": { 
		 "optdone": 1, 
		 "sigma_profile": "yes", 
		 "theory": "DFT", 
		 "functional": "B3LYP", 
		 "basiset": "6-31G**", 
		 "properties": { 
			 "R2extent": 4508.1225, 
			 "electric_dipole_moment_norm": 4.20273924721, 
			 "electric_quadrupole_moment_norm": 18.8325948257, 
			 "total_energy": -594.108836182, 
			 "HOMO_LUMO_gap": 0.19028, 
			 "cosmo_polarized_energy": -12.86, 
			 "cosmo_cavitation_energy": 29.52, 
			 "cosmo_dispersion_energy": -21.78, 
			 "cosmo_repulsion_energy": 1.74, 
			 "cosmo_total_nonelectrostatic_energy": 9.48, 
			 "SMD_solvation_energy": 6.25 
		},
		"coords": [
			{
				"x": 1.929092848,
				"y": 2.5126683701,
				"z": 2.6738774158,
				"element": "C" 
			},
			{
				"x": 0.8775318449,
				"y": 1.9334562155,
				"z": 1.7436735696,
				"element": "C" 
			},
			{
				"x": 1.5592477591,
				"y": 1.2300543326,
				"z": 0.7074428545,
				"element": "O" 
			},
			{
				"x": 0.8179714302,
				"y": 0.6161867697,
				"z": -0.2613127704,
				"element": "C" 
			},
			{
				"x": 1.541217241,
				"y": -0.0599205549,
				"z": -1.2550562363,
				"element": "C" 
			},
			{
				"x": 0.8800411788,
				"y": -0.7137446092,
				"z": -2.2811485389,
				"element": "C" 
			},
			{
				"x": -0.5275366204,
				"y": -0.7238941545,
				"z": -2.363879921,
				"element": "C" 
			},
			{
				"x": -1.0835342568,
				"y": -1.4243226001,
				"z": -3.455916619,
				"element": "N" 
			},
			{
				"x": -2.3573990237,
				"y": -1.6925589977,
				"z": -3.9271688633,
				"element": "C" 
			},
			{
				"x": -3.5650612847,
				"y": -1.1628366514,
				"z": -3.1826936477,
				"element": "C" 
			},
			{
				"x": -2.4755447664,
				"y": -2.3600034137,
				"z": -4.9472564896,
				"element": "O" 
			},
			{
				"x": -1.2414994318,
				"y": -0.0471328754,
				"z": -1.3684565782,
				"element": "C" 
			},
			{
				"x": -0.576680636,
				"y": 0.6150217857,
				"z": -0.3295668375,
				"element": "C" 
			},
			{
				"x": 1.4490147767,
				"y": 3.0638642606,
				"z": 3.4882498952,
				"element": "H" 
			},
			{
				"x": 2.5876258452,
				"y": 3.1971133796,
				"z": 2.1319349823,
				"element": "H" 
			},
			{
				"x": 2.541038214,
				"y": 1.7164013728,
				"z": 3.1066785866,
				"element": "H" 
			},
			{
				"x": 0.2102977234,
				"y": 1.2478969466,
				"z": 2.286042112,
				"element": "H" 
			},
			{
				"x": 0.2569059809,
				"y": 2.7309793304,
				"z": 1.3099212533,
				"element": "H" 
			},
			{
				"x": 2.6249492288,
				"y": -0.0595006314,
				"z": -1.202702024,
				"element": "H" 
			},
			{
				"x": 1.4610517582,
				"y": -1.2313344318,
				"z": -3.0407451789,
				"element": "H" 
			},
			{
				"x": -0.4017926197,
				"y": -1.8515833809,
				"z": -4.0715248343,
				"element": "H" 
			},
			{
				"x": -3.6068827323,
				"y": -1.5505771557,
				"z": -2.1600038505,
				"element": "H" 
			},
			{
				"x": -4.4499592521,
				"y": -1.4910704061,
				"z": -3.7272078496,
				"element": "H" 
			},
			{
				"x": -3.5572535956,
				"y": -0.0694523641,
				"z": -3.1332969687,
				"element": "H" 
			},
			{
				"x": -2.3208304008,
				"y": -0.0168686347,
				"z": -1.3737548655,
				"element": "H" 
			},
			{
				"x": -1.1714112089,
				"y": 1.1254580981,
				"z": 0.4184714038,
				"element": "H" 
			}
		],
		 "valence_orbital": [ 
			{
				"type": "occ",
				"energy": -0.32794,
				"method": "rhf"
			},
			{
				"type": "occ",
				"energy": -0.27943,
				"method": "rhf"
			},
			{
				"type": "occ",
				"energy": -0.2583,
				"method": "rhf"
			},
			{
				"type": "occ",
				"energy": -0.25071,
				"method": "rhf"
			},
			{
				"type": "occ",
				"energy": -0.20061,
				"method": "rhf"
			},
			{
				"type": "unocc",
				"energy": -0.01033,
				"method": "rhf"
			},
			{
				"type": "unocc",
				"energy": -0.00268,
				"method": "rhf"
			},
			{
				"type": "unocc",
				"energy": 0.0475,
				"method": "rhf"
			},
			{
				"type": "unocc",
				"energy": 0.08059,
				"method": "rhf"
			},
			{
				"type": "unocc",
				"energy": 0.09235,
				"method": "rhf"
			}
		],
		"cosmo_sigma_profile": { 
			"-0.025": 0.0,
			"-0.024": 0.0,
			"-0.023": 0.0,
			"-0.022": 0.0,
			"-0.021": 0.0,
			"-0.02": 0.0,
			"-0.019": 0.0,
			"-0.018": 0.0,
			"-0.017": 0.0,
			"-0.016": 0.0,
			"-0.015": 0.0,
			"-0.014": 0.306029059726,
			"-0.013": 1.48436986821,
			"-0.012": 1.04365502897,
			"-0.011": 1.20790613476,
			"-0.01": 0.778269209025,
			"-0.009": 1.14864122382,
			"-0.008": 1.39358810223,
			"-0.007": 3.80712492647,
			"-0.006": 13.0706145742,
			"-0.005": 17.1927952641,
			"-0.004": 22.9636483822,
			"-0.003": 22.77633929,
			"-0.002": 21.2549038664,
			"-0.001": 17.8884166279,
			"0.0": 16.5575842325,
			"0.001": 12.13847425,
			"0.002": 10.9257121115,
			"0.003": 11.5337635794,
			"0.004": 12.862501444,
			"0.005": 14.0114322629,
			"0.006": 4.74897425014,
			"0.007": 2.84768002482,
			"0.008": 2.21387928212,
			"0.009": 2.99145132869,
			"0.01": 2.49596677107,
			"0.011": 2.11862270004,
			"0.012": 2.00012937255,
			"0.013": 4.59318908301,
			"0.014": 4.23360723828,
			"0.015": 0.844640244008,
			"0.016": 0.0,
			"0.017": 0.0,
			"0.018": 0.0,
			"0.019": 0.0,
			"0.02": 0.0,
			"0.021": 0.0,
			"0.022": 0.0,
			"0.023": 0.0,
			"0.024": 0.0,
			"0.025": 0.0
		}
	}
}
