{
	 "smiles": "OC1=C2N=C(C=CC2=CC=C1)N1CCCC1", 
	 "Tm": 359.15, 
	 "num_atms": 30, 
	 "gaussian": { 
		 "optdone": 1, 
		 "sigma_profile": "yes", 
		 "theory": "DFT", 
		 "functional": "B3LYP", 
		 "basiset": "6-31G**", 
		 "properties": { 
			 "R2extent": 4773.5877, 
			 "electric_dipole_moment_norm": 4.48547508632, 
			 "electric_quadrupole_moment_norm": 13.7994798431, 
			 "total_energy": -688.572170374, 
			 "HOMO_LUMO_gap": 0.15088, 
			 "cosmo_polarized_energy": -9.11, 
			 "cosmo_cavitation_energy": 31.86, 
			 "cosmo_dispersion_energy": -23.92, 
			 "cosmo_repulsion_energy": 1.84, 
			 "cosmo_total_nonelectrostatic_energy": 9.77, 
			 "SMD_solvation_energy": 3.63 
		},
		"coords": [
			{
				"x": -1.4338402821,
				"y": -2.2194513388,
				"z": -3.1717540279,
				"element": "O" 
			},
			{
				"x": -2.2311402648,
				"y": -1.3495297766,
				"z": -2.5067503837,
				"element": "C" 
			},
			{
				"x": -1.6142090341,
				"y": -0.423171691,
				"z": -1.6112081906,
				"element": "C" 
			},
			{
				"x": -0.2591282743,
				"y": -0.4991810419,
				"z": -1.5032460375,
				"element": "N" 
			},
			{
				"x": 0.3625525532,
				"y": 0.3420881889,
				"z": -0.6803904179,
				"element": "C" 
			},
			{
				"x": -0.3619621088,
				"y": 1.3193745559,
				"z": 0.0861073483,
				"element": "C" 
			},
			{
				"x": -1.7249907701,
				"y": 1.3845178285,
				"z": -0.0285263253,
				"element": "C" 
			},
			{
				"x": -2.4237950107,
				"y": 0.4997189805,
				"z": -0.8964398416,
				"element": "C" 
			},
			{
				"x": -3.8294531337,
				"y": 0.4902390542,
				"z": -1.0832947511,
				"element": "C" 
			},
			{
				"x": -4.3963279477,
				"y": -0.415770917,
				"z": -1.956763365,
				"element": "C" 
			},
			{
				"x": -3.6024477461,
				"y": -1.3413469164,
				"z": -2.6735356672,
				"element": "C" 
			},
			{
				"x": 1.7240613792,
				"y": 0.2526420812,
				"z": -0.590142367,
				"element": "N" 
			},
			{
				"x": 2.5543970345,
				"y": 1.0389129671,
				"z": 0.3218452391,
				"element": "C" 
			},
			{
				"x": 3.92706685,
				"y": 0.3516032694,
				"z": 0.2375763784,
				"element": "C" 
			},
			{
				"x": 3.9508981245,
				"y": -0.2201512468,
				"z": -1.1894995439,
				"element": "C" 
			},
			{
				"x": 2.5021611964,
				"y": -0.6773990558,
				"z": -1.4124139998,
				"element": "C" 
			},
			{
				"x": -0.5314628055,
				"y": -2.00674369,
				"z": -2.8612875332,
				"element": "H" 
			},
			{
				"x": 0.1677212838,
				"y": 2.0036379792,
				"z": 0.7380718429,
				"element": "H" 
			},
			{
				"x": -2.284247807,
				"y": 2.1211594176,
				"z": 0.5433236828,
				"element": "H" 
			},
			{
				"x": -4.4452663147,
				"y": 1.1981508317,
				"z": -0.535490659,
				"element": "H" 
			},
			{
				"x": -5.4725919287,
				"y": -0.4262001568,
				"z": -2.1026433196,
				"element": "H" 
			},
			{
				"x": -4.0553893472,
				"y": -2.0515622793,
				"z": -3.357477964,
				"element": "H" 
			},
			{
				"x": 2.1509803954,
				"y": 1.0268061829,
				"z": 1.3413227497,
				"element": "H" 
			},
			{
				"x": 2.6140732606,
				"y": 2.0909185987,
				"z": 0.0018315705,
				"element": "H" 
			},
			{
				"x": 4.7500277749,
				"y": 1.0408150406,
				"z": 0.4445366266,
				"element": "H" 
			},
			{
				"x": 3.9790810875,
				"y": -0.4620208221,
				"z": 0.9696786652,
				"element": "H" 
			},
			{
				"x": 4.6696328211,
				"y": -1.0342459423,
				"z": -1.3147034004,
				"element": "H" 
			},
			{
				"x": 4.2090574272,
				"y": 0.5673917565,
				"z": -1.9066268565,
				"element": "H" 
			},
			{
				"x": 2.3442030484,
				"y": -1.7145500751,
				"z": -1.0830603668,
				"element": "H" 
			},
			{
				"x": 2.1870385387,
				"y": -0.620151783,
				"z": -2.4585390855,
				"element": "H" 
			}
		],
		 "valence_orbital": [ 
			{
				"type": "occ",
				"energy": -0.28021,
				"method": "rhf"
			},
			{
				"type": "occ",
				"energy": -0.26859,
				"method": "rhf"
			},
			{
				"type": "occ",
				"energy": -0.26384,
				"method": "rhf"
			},
			{
				"type": "occ",
				"energy": -0.21123,
				"method": "rhf"
			},
			{
				"type": "occ",
				"energy": -0.18518,
				"method": "rhf"
			},
			{
				"type": "unocc",
				"energy": -0.0343,
				"method": "rhf"
			},
			{
				"type": "unocc",
				"energy": 0.00512,
				"method": "rhf"
			},
			{
				"type": "unocc",
				"energy": 0.04531,
				"method": "rhf"
			},
			{
				"type": "unocc",
				"energy": 0.07485,
				"method": "rhf"
			},
			{
				"type": "unocc",
				"energy": 0.09971,
				"method": "rhf"
			}
		],
		"cosmo_sigma_profile": { 
			"-0.025": 0.0,
			"-0.024": 0.0,
			"-0.023": 0.0,
			"-0.022": 0.0,
			"-0.021": 0.0,
			"-0.02": 0.0,
			"-0.019": 0.0,
			"-0.018": 0.0,
			"-0.017": 0.0,
			"-0.016": 0.0,
			"-0.015": 0.0,
			"-0.014": 0.0,
			"-0.013": 0.0,
			"-0.012": 0.0,
			"-0.011": 0.0,
			"-0.01": 0.0632909460228,
			"-0.009": 0.688007925536,
			"-0.008": 0.822480346112,
			"-0.007": 1.98162350921,
			"-0.006": 7.94805795022,
			"-0.005": 12.8304920096,
			"-0.004": 22.1321338358,
			"-0.003": 32.8405322804,
			"-0.002": 32.0611335688,
			"-0.001": 22.2530615439,
			"0.0": 17.9259807482,
			"0.001": 11.0580992867,
			"0.002": 17.2497559784,
			"0.003": 20.8422023348,
			"0.004": 17.270577539,
			"0.005": 12.1549334098,
			"0.006": 9.33481529362,
			"0.007": 3.74442690678,
			"0.008": 1.8859262915,
			"0.009": 1.23063866726,
			"0.01": 1.83856779271,
			"0.011": 1.88088670632,
			"0.012": 1.92744600956,
			"0.013": 0.289245947917,
			"0.014": 0.0,
			"0.015": 0.0,
			"0.016": 0.0,
			"0.017": 0.0,
			"0.018": 0.0,
			"0.019": 0.0,
			"0.02": 0.0,
			"0.021": 0.0,
			"0.022": 0.0,
			"0.023": 0.0,
			"0.024": 0.0,
			"0.025": 0.0
		}
	}
}
