{
	 "smiles": "NC1=NC(=O)C2=NC(CNC3=CC=C(C=C3)C(=O)N[C@@H](CCC(O)=O)C(O)=O)=CN=C2N1", 
	 "Tm": 523.15, 
	 "num_atms": 51, 
	 "gaussian": { 
		 "optdone": 1, 
		 "sigma_profile": "yes", 
		 "theory": "DFT", 
		 "functional": "B3LYP", 
		 "basiset": "6-31G**", 
		 "properties": { 
			 "R2extent": 12037.794, 
			 "electric_dipole_moment_norm": 9.94642791207, 
			 "electric_quadrupole_moment_norm": 34.8921926343, 
			 "total_energy": -1570.14203937, 
			 "HOMO_LUMO_gap": 0.12549, 
			 "cosmo_polarized_energy": -48.43, 
			 "cosmo_cavitation_energy": 53.68, 
			 "cosmo_dispersion_energy": -33.78, 
			 "cosmo_repulsion_energy": 2.44, 
			 "cosmo_total_nonelectrostatic_energy": 22.34, 
			 "SMD_solvation_energy": 6.28 
		},
		"coords": [
			{
				"x": 1.5342254471,
				"y": -4.3989859198,
				"z": -2.8080784288,
				"element": "N" 
			},
			{
				"x": 0.8224777731,
				"y": -4.287998427,
				"z": -1.62293944,
				"element": "C" 
			},
			{
				"x": 1.3396325646,
				"y": -4.7394841326,
				"z": -0.5247814794,
				"element": "N" 
			},
			{
				"x": 0.7147953427,
				"y": -4.5038451326,
				"z": 0.7084575363,
				"element": "C" 
			},
			{
				"x": 1.1288392726,
				"y": -4.983595252,
				"z": 1.745222043,
				"element": "O" 
			},
			{
				"x": -0.4893810446,
				"y": -3.6043298026,
				"z": 0.6693512788,
				"element": "C" 
			},
			{
				"x": -1.0001583579,
				"y": -3.0989331483,
				"z": 1.7968175845,
				"element": "N" 
			},
			{
				"x": -2.0507528081,
				"y": -2.2807751833,
				"z": 1.7004543775,
				"element": "C" 
			},
			{
				"x": -2.4846561771,
				"y": -1.5269211559,
				"z": 2.9503160739,
				"element": "C" 
			},
			{
				"x": -2.5126584951,
				"y": -0.069078251,
				"z": 2.7640648012,
				"element": "N" 
			},
			{
				"x": -1.4310576882,
				"y": 0.5475918855,
				"z": 2.1059921464,
				"element": "C" 
			},
			{
				"x": -1.6633397421,
				"y": 1.4662380081,
				"z": 1.0694925864,
				"element": "C" 
			},
			{
				"x": -0.6040572614,
				"y": 1.9909314293,
				"z": 0.3369238325,
				"element": "C" 
			},
			{
				"x": 0.71818516,
				"y": 1.6365827609,
				"z": 0.6363921108,
				"element": "C" 
			},
			{
				"x": 0.954127871,
				"y": 0.7942262241,
				"z": 1.7321726639,
				"element": "C" 
			},
			{
				"x": -0.101369818,
				"y": 0.2418335845,
				"z": 2.4499065572,
				"element": "C" 
			},
			{
				"x": 1.8853777009,
				"y": 2.1114884127,
				"z": -0.1755647811,
				"element": "C" 
			},
			{
				"x": 2.8930783626,
				"y": 2.5812037928,
				"z": 0.3331615221,
				"element": "O" 
			},
			{
				"x": 1.7664091679,
				"y": 2.0098960263,
				"z": -1.562231374,
				"element": "N" 
			},
			{
				"x": 1.0391082215,
				"y": 0.9421202184,
				"z": -2.2385931413,
				"element": "C" 
			},
			{
				"x": 0.220806194,
				"y": 1.4763796805,
				"z": -3.4401394958,
				"element": "C" 
			},
			{
				"x": -0.6879872933,
				"y": 0.4264023631,
				"z": -4.1047756394,
				"element": "C" 
			},
			{
				"x": -1.6923622106,
				"y": -0.1386878041,
				"z": -3.1160932768,
				"element": "C" 
			},
			{
				"x": -1.8897478605,
				"y": -1.4707582157,
				"z": -3.253015118,
				"element": "O" 
			},
			{
				"x": -2.2614727893,
				"y": 0.5191366709,
				"z": -2.2697244211,
				"element": "O" 
			},
			{
				"x": 2.0186263264,
				"y": -0.1432262077,
				"z": -2.6924819755,
				"element": "C" 
			},
			{
				"x": 1.4476218663,
				"y": -1.3700255981,
				"z": -2.6530151134,
				"element": "O" 
			},
			{
				"x": 3.15180922,
				"y": 0.0552883379,
				"z": -3.0657426903,
				"element": "O" 
			},
			{
				"x": -2.6468879212,
				"y": -2.0288128656,
				"z": 0.4506129895,
				"element": "C" 
			},
			{
				"x": -2.147311315,
				"y": -2.508660392,
				"z": -0.6872500109,
				"element": "N" 
			},
			{
				"x": -1.0361426617,
				"y": -3.2497394562,
				"z": -0.5754326308,
				"element": "C" 
			},
			{
				"x": -0.3932414527,
				"y": -3.6448993249,
				"z": -1.7356052582,
				"element": "N" 
			},
			{
				"x": 0.9887684303,
				"y": -4.5681207888,
				"z": -3.6450591535,
				"element": "H" 
			},
			{
				"x": 2.3160685777,
				"y": -5.0352437353,
				"z": -2.7058716932,
				"element": "H" 
			},
			{
				"x": -1.7960254399,
				"y": -1.8049092575,
				"z": 3.7525212772,
				"element": "H" 
			},
			{
				"x": -3.4862725891,
				"y": -1.8313367507,
				"z": 3.2723691044,
				"element": "H" 
			},
			{
				"x": -3.4019406231,
				"y": 0.2536248918,
				"z": 2.4037998383,
				"element": "H" 
			},
			{
				"x": -2.6830044461,
				"y": 1.7257567371,
				"z": 0.796050614,
				"element": "H" 
			},
			{
				"x": -0.8132138491,
				"y": 2.6596140055,
				"z": -0.491761785,
				"element": "H" 
			},
			{
				"x": 1.9780191128,
				"y": 0.5511501447,
				"z": 1.9985089827,
				"element": "H" 
			},
			{
				"x": 0.1041896269,
				"y": -0.4424358455,
				"z": 3.2662226988,
				"element": "H" 
			},
			{
				"x": 2.6391279264,
				"y": 2.2634673362,
				"z": -2.0172574892,
				"element": "H" 
			},
			{
				"x": 0.3482317949,
				"y": 0.4972207676,
				"z": -1.523092485,
				"element": "H" 
			},
			{
				"x": 0.9042125812,
				"y": 1.8945132799,
				"z": -4.1873817553,
				"element": "H" 
			},
			{
				"x": -0.3969129193,
				"y": 2.2949782446,
				"z": -3.0625834829,
				"element": "H" 
			},
			{
				"x": -1.2538422723,
				"y": 0.9071706943,
				"z": -4.9120610442,
				"element": "H" 
			},
			{
				"x": -0.1194591411,
				"y": -0.3906367067,
				"z": -4.5536235051,
				"element": "H" 
			},
			{
				"x": -2.3891525551,
				"y": -1.7677081687,
				"z": -2.4498513625,
				"element": "H" 
			},
			{
				"x": 2.0946972361,
				"y": -2.0420231084,
				"z": -2.9400901591,
				"element": "H" 
			},
			{
				"x": -3.5279124085,
				"y": -1.3989372623,
				"z": 0.3607435805,
				"element": "H" 
			},
			{
				"x": -0.6122146368,
				"y": -3.107407603,
				"z": -2.5716560098,
				"element": "H" 
			}
		],
		 "valence_orbital": [ 
			{
				"type": "occ",
				"energy": -0.25807,
				"method": "rhf"
			},
			{
				"type": "occ",
				"energy": -0.25572,
				"method": "rhf"
			},
			{
				"type": "occ",
				"energy": -0.24982,
				"method": "rhf"
			},
			{
				"type": "occ",
				"energy": -0.24201,
				"method": "rhf"
			},
			{
				"type": "occ",
				"energy": -0.21435,
				"method": "rhf"
			},
			{
				"type": "unocc",
				"energy": -0.08886,
				"method": "rhf"
			},
			{
				"type": "unocc",
				"energy": -0.05144,
				"method": "rhf"
			},
			{
				"type": "unocc",
				"energy": -0.02198,
				"method": "rhf"
			},
			{
				"type": "unocc",
				"energy": -0.0188,
				"method": "rhf"
			},
			{
				"type": "unocc",
				"energy": -0.01278,
				"method": "rhf"
			}
		],
		"cosmo_sigma_profile": { 
			"-0.025": 0.0,
			"-0.024": 0.0,
			"-0.023": 0.0,
			"-0.022": 0.0,
			"-0.021": 0.0,
			"-0.02": 0.0,
			"-0.019": 0.0,
			"-0.018": 0.113959822471,
			"-0.017": 0.653180832938,
			"-0.016": 1.60289198835,
			"-0.015": 1.84651205972,
			"-0.014": 2.67878128484,
			"-0.013": 4.72693574627,
			"-0.012": 6.38121733656,
			"-0.011": 5.90472329695,
			"-0.01": 6.18612277863,
			"-0.009": 7.12522979473,
			"-0.008": 9.3506172965,
			"-0.007": 14.0175585058,
			"-0.006": 23.0635606933,
			"-0.005": 28.526676257,
			"-0.004": 32.795455488,
			"-0.003": 34.2931976066,
			"-0.002": 27.4719931045,
			"-0.001": 22.617834327,
			"0.0": 19.3718073812,
			"0.001": 18.5623686749,
			"0.002": 19.4151584609,
			"0.003": 17.7482816906,
			"0.004": 17.6119213862,
			"0.005": 13.6816412667,
			"0.006": 9.04953759854,
			"0.007": 8.34562865157,
			"0.008": 8.34661066372,
			"0.009": 9.00718083772,
			"0.01": 8.69768898852,
			"0.011": 12.442581213,
			"0.012": 8.8103543587,
			"0.013": 12.0537650669,
			"0.014": 6.87432990373,
			"0.015": 4.78974859856,
			"0.016": 1.85901843686,
			"0.017": 0.356916340486,
			"0.018": 0.0,
			"0.019": 0.0,
			"0.02": 0.0,
			"0.021": 0.0,
			"0.022": 0.0,
			"0.023": 0.0,
			"0.024": 0.0,
			"0.025": 0.0
		}
	}
}
