{
	 "smiles": "CCOC(=O)C1=CC2=C(O1)C=CC(Br)=C2", 
	 "Tm": 343.65, 
	 "num_atms": 24, 
	 "gaussian": { 
		 "optdone": 1, 
		 "sigma_profile": "yes", 
		 "theory": "DFT", 
		 "functional": "B3LYP", 
		 "basiset": "6-31G**", 
		 "properties": { 
			 "R2extent": 9110.6175, 
			 "electric_dipole_moment_norm": 2.16492245127, 
			 "electric_quadrupole_moment_norm": 4.36932988226, 
			 "total_energy": -3221.67432192, 
			 "HOMO_LUMO_gap": 0.17602, 
			 "cosmo_polarized_energy": -8.82, 
			 "cosmo_cavitation_energy": 31.82, 
			 "cosmo_dispersion_energy": -23.74, 
			 "cosmo_repulsion_energy": 1.88, 
			 "cosmo_total_nonelectrostatic_energy": 9.96, 
			 "SMD_solvation_energy": 5.76 
		},
		"coords": [
			{
				"x": -3.7450629192,
				"y": -2.1112146026,
				"z": 0.3475639114,
				"element": "C" 
			},
			{
				"x": -2.5538975998,
				"y": -2.1904251764,
				"z": -0.5872776992,
				"element": "C" 
			},
			{
				"x": -1.6557613091,
				"y": -1.1102058267,
				"z": -0.2368704724,
				"element": "O" 
			},
			{
				"x": -0.5339118175,
				"y": -1.0284575398,
				"z": -0.971870642,
				"element": "C" 
			},
			{
				"x": -0.2389389373,
				"y": -1.781089646,
				"z": -1.8807502654,
				"element": "O" 
			},
			{
				"x": 0.3298236461,
				"y": 0.0914892193,
				"z": -0.5596040653,
				"element": "C" 
			},
			{
				"x": 1.5330816146,
				"y": 0.4690441059,
				"z": -1.0790198486,
				"element": "C" 
			},
			{
				"x": 1.9519165628,
				"y": 1.6146446577,
				"z": -0.3220635979,
				"element": "C" 
			},
			{
				"x": 0.9266947414,
				"y": 1.8341262912,
				"z": 0.6208998695,
				"element": "C" 
			},
			{
				"x": -0.0624559427,
				"y": 0.9073927683,
				"z": 0.4780158756,
				"element": "O" 
			},
			{
				"x": 0.9537044113,
				"y": 2.8650304355,
				"z": 1.5544288954,
				"element": "C" 
			},
			{
				"x": 2.0635658921,
				"y": 3.7042962827,
				"z": 1.5291824055,
				"element": "C" 
			},
			{
				"x": 3.0959512695,
				"y": 3.4978928939,
				"z": 0.5932022931,
				"element": "C" 
			},
			{
				"x": 4.5923582594,
				"y": 4.6909147313,
				"z": 0.6160520787,
				"element": "Br" 
			},
			{
				"x": 3.0673934776,
				"y": 2.4691847541,
				"z": -0.3371901841,
				"element": "C" 
			},
			{
				"x": -4.4512043269,
				"y": -2.9142399196,
				"z": 0.1147588454,
				"element": "H" 
			},
			{
				"x": -4.2634528111,
				"y": -1.154273749,
				"z": 0.2402404577,
				"element": "H" 
			},
			{
				"x": -3.4319937817,
				"y": -2.2187173372,
				"z": 1.3898750404,
				"element": "H" 
			},
			{
				"x": -2.8433301232,
				"y": -2.079501114,
				"z": -1.6370552845,
				"element": "H" 
			},
			{
				"x": -2.0156940357,
				"y": -3.1388458736,
				"z": -0.4927589131,
				"element": "H" 
			},
			{
				"x": 2.0389598682,
				"y": -0.0210807527,
				"z": -1.8973747058,
				"element": "H" 
			},
			{
				"x": 0.1484493059,
				"y": 3.006556718,
				"z": 2.2664564828,
				"element": "H" 
			},
			{
				"x": 2.1405548797,
				"y": 4.5250738998,
				"z": 2.2323628021,
				"element": "H" 
			},
			{
				"x": 3.8763496755,
				"y": 2.3346047798,
				"z": -1.0455032793,
				"element": "H" 
			}
		],
		 "valence_orbital": [ 
			{
				"type": "occ",
				"energy": -0.30475,
				"method": "rhf"
			},
			{
				"type": "occ",
				"energy": -0.29017,
				"method": "rhf"
			},
			{
				"type": "occ",
				"energy": -0.28383,
				"method": "rhf"
			},
			{
				"type": "occ",
				"energy": -0.2423,
				"method": "rhf"
			},
			{
				"type": "occ",
				"energy": -0.24059,
				"method": "rhf"
			},
			{
				"type": "unocc",
				"energy": -0.06457,
				"method": "rhf"
			},
			{
				"type": "unocc",
				"energy": -0.01054,
				"method": "rhf"
			},
			{
				"type": "unocc",
				"energy": 0.00281,
				"method": "rhf"
			},
			{
				"type": "unocc",
				"energy": 0.00768,
				"method": "rhf"
			},
			{
				"type": "unocc",
				"energy": 0.09365,
				"method": "rhf"
			}
		],
		"cosmo_sigma_profile": { 
			"-0.025": 0.0,
			"-0.024": 0.0,
			"-0.023": 0.0,
			"-0.022": 0.0,
			"-0.021": 0.0,
			"-0.02": 0.0,
			"-0.019": 0.0,
			"-0.018": 0.0,
			"-0.017": 0.0,
			"-0.016": 0.0,
			"-0.015": 0.0,
			"-0.014": 0.0,
			"-0.013": 0.0,
			"-0.012": 0.0,
			"-0.011": 0.0,
			"-0.01": 0.000412632329368,
			"-0.009": 1.01662898526,
			"-0.008": 5.31957656476,
			"-0.007": 7.34429867824,
			"-0.006": 8.67227769158,
			"-0.005": 13.9830139729,
			"-0.004": 21.2836931291,
			"-0.003": 20.712893574,
			"-0.002": 20.0099726543,
			"-0.001": 23.0133831393,
			"0.0": 24.144683278,
			"0.001": 27.2613056214,
			"0.002": 24.5728213171,
			"0.003": 14.1534652055,
			"0.004": 13.2178703367,
			"0.005": 10.257589948,
			"0.006": 3.5493738002,
			"0.007": 2.28979343345,
			"0.008": 3.57327126677,
			"0.009": 2.95866625469,
			"0.01": 3.43475383366,
			"0.011": 4.29552785347,
			"0.012": 3.18894216347,
			"0.013": 0.0,
			"0.014": 0.0,
			"0.015": 0.0,
			"0.016": 0.0,
			"0.017": 0.0,
			"0.018": 0.0,
			"0.019": 0.0,
			"0.02": 0.0,
			"0.021": 0.0,
			"0.022": 0.0,
			"0.023": 0.0,
			"0.024": 0.0,
			"0.025": 0.0
		}
	}
}
