{
	 "smiles": "CN1N=C(C)C(N)=C1N1CCOCC1", 
	 "Tm": 429.15, 
	 "num_atms": 30, 
	 "gaussian": { 
		 "optdone": 1, 
		 "sigma_profile": "yes", 
		 "theory": "DFT", 
		 "functional": "B3LYP", 
		 "basiset": "6-31G**", 
		 "properties": { 
			 "R2extent": 3481.3095, 
			 "electric_dipole_moment_norm": 1.27345662274, 
			 "electric_quadrupole_moment_norm": 14.7188640863, 
			 "total_energy": -646.788603588, 
			 "HOMO_LUMO_gap": 0.22174, 
			 "cosmo_polarized_energy": -13.42, 
			 "cosmo_cavitation_energy": 31.61, 
			 "cosmo_dispersion_energy": -22.45, 
			 "cosmo_repulsion_energy": 1.79, 
			 "cosmo_total_nonelectrostatic_energy": 10.95, 
			 "SMD_solvation_energy": 3.93 
		},
		"coords": [
			{
				"x": 0.9683937869,
				"y": -0.6768455476,
				"z": 1.5716529988,
				"element": "C" 
			},
			{
				"x": 1.0814627659,
				"y": 0.5489659645,
				"z": 0.8100623125,
				"element": "N" 
			},
			{
				"x": 1.9651888454,
				"y": 1.4932469586,
				"z": 1.1762461182,
				"element": "N" 
			},
			{
				"x": 1.7894930771,
				"y": 2.5034593486,
				"z": 0.3153458861,
				"element": "C" 
			},
			{
				"x": 2.6284079882,
				"y": 3.7413266255,
				"z": 0.4037654224,
				"element": "C" 
			},
			{
				"x": 0.7673772019,
				"y": 2.2059610089,
				"z": -0.618796314,
				"element": "C" 
			},
			{
				"x": 0.3303004057,
				"y": 2.9922573243,
				"z": -1.7112505623,
				"element": "N" 
			},
			{
				"x": 0.3293981631,
				"y": 0.9283163753,
				"z": -0.2774994088,
				"element": "C" 
			},
			{
				"x": -0.6388016239,
				"y": 0.0659966186,
				"z": -0.8306607322,
				"element": "N" 
			},
			{
				"x": -0.4822387899,
				"y": -0.1913506882,
				"z": -2.2728643698,
				"element": "C" 
			},
			{
				"x": -1.4523221006,
				"y": -1.2930275551,
				"z": -2.6921084511,
				"element": "C" 
			},
			{
				"x": -2.7965999009,
				"y": -0.9509894389,
				"z": -2.3741495841,
				"element": "O" 
			},
			{
				"x": -2.9471495741,
				"y": -0.732058292,
				"z": -0.9792075212,
				"element": "C" 
			},
			{
				"x": -2.0336969377,
				"y": 0.3919538036,
				"z": -0.4940390343,
				"element": "C" 
			},
			{
				"x": 0.4619916293,
				"y": -0.5047405405,
				"z": 2.5282040455,
				"element": "H" 
			},
			{
				"x": 0.3936313551,
				"y": -1.3906932091,
				"z": 0.9805012868,
				"element": "H" 
			},
			{
				"x": 1.9679852791,
				"y": -1.0694164568,
				"z": 1.7698129036,
				"element": "H" 
			},
			{
				"x": 3.3007695316,
				"y": 3.8479852792,
				"z": -0.4569996724,
				"element": "H" 
			},
			{
				"x": 3.2427647617,
				"y": 3.7013223241,
				"z": 1.3061268061,
				"element": "H" 
			},
			{
				"x": 2.012669582,
				"y": 4.6486922643,
				"z": 0.4515670067,
				"element": "H" 
			},
			{
				"x": 0.7988680707,
				"y": 3.8910283262,
				"z": -1.7290777707,
				"element": "H" 
			},
			{
				"x": -0.6708570295,
				"y": 3.156931396,
				"z": -1.698641417,
				"element": "H" 
			},
			{
				"x": 0.5484432216,
				"y": -0.5082036198,
				"z": -2.4596490021,
				"element": "H" 
			},
			{
				"x": -0.6674722446,
				"y": 0.713997019,
				"z": -2.8720412323,
				"element": "H" 
			},
			{
				"x": -1.4173928742,
				"y": -1.4448789713,
				"z": -3.7749347895,
				"element": "H" 
			},
			{
				"x": -1.1755764335,
				"y": -2.2369691718,
				"z": -2.1940206668,
				"element": "H" 
			},
			{
				"x": -3.9975253643,
				"y": -0.474473344,
				"z": -0.813115705,
				"element": "H" 
			},
			{
				"x": -2.7175302951,
				"y": -1.6550674987,
				"z": -0.421080829,
				"element": "H" 
			},
			{
				"x": -2.1201706347,
				"y": 0.5056876082,
				"z": 0.5914310283,
				"element": "H" 
			},
			{
				"x": -2.3592118625,
				"y": 1.339486089,
				"z": -0.9604787525,
				"element": "H" 
			}
		],
		 "valence_orbital": [ 
			{
				"type": "occ",
				"energy": -0.27665,
				"method": "rhf"
			},
			{
				"type": "occ",
				"energy": -0.25671,
				"method": "rhf"
			},
			{
				"type": "occ",
				"energy": -0.23056,
				"method": "rhf"
			},
			{
				"type": "occ",
				"energy": -0.21832,
				"method": "rhf"
			},
			{
				"type": "occ",
				"energy": -0.19069,
				"method": "rhf"
			},
			{
				"type": "unocc",
				"energy": 0.03105,
				"method": "rhf"
			},
			{
				"type": "unocc",
				"energy": 0.06216,
				"method": "rhf"
			},
			{
				"type": "unocc",
				"energy": 0.08648,
				"method": "rhf"
			},
			{
				"type": "unocc",
				"energy": 0.08892,
				"method": "rhf"
			},
			{
				"type": "unocc",
				"energy": 0.11039,
				"method": "rhf"
			}
		],
		"cosmo_sigma_profile": { 
			"-0.025": 0.0,
			"-0.024": 0.0,
			"-0.023": 0.0,
			"-0.022": 0.0,
			"-0.021": 0.0,
			"-0.02": 0.0,
			"-0.019": 0.0,
			"-0.018": 0.0,
			"-0.017": 0.0,
			"-0.016": 0.0,
			"-0.015": 0.0,
			"-0.014": 0.0,
			"-0.013": 0.0,
			"-0.012": 0.0,
			"-0.011": 0.699366903265,
			"-0.01": 2.2103524905,
			"-0.009": 2.92583308804,
			"-0.008": 3.22395465719,
			"-0.007": 3.89817466064,
			"-0.006": 4.99733272739,
			"-0.005": 16.0102203575,
			"-0.004": 26.6957347185,
			"-0.003": 33.2556139911,
			"-0.002": 32.3753268247,
			"-0.001": 21.0006350653,
			"0.0": 14.9290930846,
			"0.001": 12.8974485186,
			"0.002": 8.95499385206,
			"0.003": 8.65237468227,
			"0.004": 6.52750687918,
			"0.005": 7.8482540047,
			"0.006": 6.76836840831,
			"0.007": 6.0138617832,
			"0.008": 4.04450090719,
			"0.009": 2.87579630137,
			"0.01": 3.02567356339,
			"0.011": 4.01601235097,
			"0.012": 3.77745291777,
			"0.013": 3.25097684921,
			"0.014": 2.06390434716,
			"0.015": 1.5264938989,
			"0.016": 1.31964903845,
			"0.017": 0.631480438426,
			"0.018": 0.0519316761672,
			"0.019": 0.0,
			"0.02": 0.0,
			"0.021": 0.0,
			"0.022": 0.0,
			"0.023": 0.0,
			"0.024": 0.0,
			"0.025": 0.0
		}
	}
}
