{
	 "smiles": "NC(=S)C1=C(N)C=CC(=C1)[N+]([O-])=O", 
	 "Tm": 445.15, 
	 "num_atms": 20, 
	 "gaussian": { 
		 "optdone": 1, 
		 "sigma_profile": "yes", 
		 "theory": "DFT", 
		 "functional": "B3LYP", 
		 "basiset": "6-31G**", 
		 "properties": { 
			 "R2extent": 3577.3797, 
			 "electric_dipole_moment_norm": 8.76186392271, 
			 "electric_quadrupole_moment_norm": 15.4771264688, 
			 "total_energy": -983.766853615, 
			 "HOMO_LUMO_gap": 0.1396, 
			 "cosmo_polarized_energy": -24.72, 
			 "cosmo_cavitation_energy": 26.64, 
			 "cosmo_dispersion_energy": -20.07, 
			 "cosmo_repulsion_energy": 1.55, 
			 "cosmo_total_nonelectrostatic_energy": 8.13, 
			 "SMD_solvation_energy": 6.09 
		},
		"coords": [
			{
				"x": 0.8970360536,
				"y": -2.863501298,
				"z": 0.0457841456,
				"element": "N" 
			},
			{
				"x": 0.7739770692,
				"y": -2.0633859002,
				"z": 1.1412829066,
				"element": "C" 
			},
			{
				"x": 1.1000580259,
				"y": -2.6418054739,
				"z": 2.6673825765,
				"element": "S" 
			},
			{
				"x": 0.3078819608,
				"y": -0.6716901067,
				"z": 0.8759692097,
				"element": "C" 
			},
			{
				"x": -0.65121241,
				"y": -0.3484695904,
				"z": -0.1295085766,
				"element": "C" 
			},
			{
				"x": -1.2162949489,
				"y": -1.3048533779,
				"z": -0.9545243063,
				"element": "N" 
			},
			{
				"x": -1.0250039261,
				"y": 1.0023412438,
				"z": -0.3083387057,
				"element": "C" 
			},
			{
				"x": -0.4828238412,
				"y": 2.0107623371,
				"z": 0.4644770405,
				"element": "C" 
			},
			{
				"x": 0.4457905408,
				"y": 1.6761931714,
				"z": 1.4544376026,
				"element": "C" 
			},
			{
				"x": 0.8262724934,
				"y": 0.3590685716,
				"z": 1.667831298,
				"element": "C" 
			},
			{
				"x": 1.0244960905,
				"y": 2.7347454382,
				"z": 2.2793565719,
				"element": "N" 
			},
			{
				"x": 1.8534994787,
				"y": 2.4138979596,
				"z": 3.1311454687,
				"element": "O" 
			},
			{
				"x": 0.6469388695,
				"y": 3.890073643,
				"z": 2.0690850039,
				"element": "O" 
			},
			{
				"x": 1.3138846105,
				"y": -3.7726848575,
				"z": 0.1929485064,
				"element": "H" 
			},
			{
				"x": 0.9604125413,
				"y": -2.4600706041,
				"z": -0.8803084622,
				"element": "H" 
			},
			{
				"x": -1.2318416439,
				"y": -2.256599429,
				"z": -0.6145115799,
				"element": "H" 
			},
			{
				"x": -2.063529395,
				"y": -1.0262483824,
				"z": -1.4288819488,
				"element": "H" 
			},
			{
				"x": -1.7583521822,
				"y": 1.2443537579,
				"z": -1.072719965,
				"element": "H" 
			},
			{
				"x": -0.7653015195,
				"y": 3.0468890176,
				"z": 0.3263523408,
				"element": "H" 
			},
			{
				"x": 1.5349121327,
				"y": 0.1240838798,
				"z": 2.4516408731,
				"element": "H" 
			}
		],
		 "valence_orbital": [ 
			{
				"type": "occ",
				"energy": -0.28599,
				"method": "rhf"
			},
			{
				"type": "occ",
				"energy": -0.28239,
				"method": "rhf"
			},
			{
				"type": "occ",
				"energy": -0.25041,
				"method": "rhf"
			},
			{
				"type": "occ",
				"energy": -0.23981,
				"method": "rhf"
			},
			{
				"type": "occ",
				"energy": -0.22019,
				"method": "rhf"
			},
			{
				"type": "unocc",
				"energy": -0.08059,
				"method": "rhf"
			},
			{
				"type": "unocc",
				"energy": -0.07118,
				"method": "rhf"
			},
			{
				"type": "unocc",
				"energy": -0.0147,
				"method": "rhf"
			},
			{
				"type": "unocc",
				"energy": 0.01674,
				"method": "rhf"
			},
			{
				"type": "unocc",
				"energy": 0.05465,
				"method": "rhf"
			}
		],
		"cosmo_sigma_profile": { 
			"-0.025": 0.0,
			"-0.024": 0.0,
			"-0.023": 0.0,
			"-0.022": 0.0,
			"-0.021": 0.0,
			"-0.02": 0.0,
			"-0.019": 0.0,
			"-0.018": 0.0,
			"-0.017": 0.0,
			"-0.016": 0.0,
			"-0.015": 1.77220811255,
			"-0.014": 3.78289949663,
			"-0.013": 4.7969340831,
			"-0.012": 5.339336026,
			"-0.011": 5.28050750818,
			"-0.01": 4.06729650238,
			"-0.009": 4.24930851522,
			"-0.008": 6.39657998318,
			"-0.007": 6.81588758464,
			"-0.006": 5.83327074682,
			"-0.005": 6.60395348277,
			"-0.004": 7.91032455951,
			"-0.003": 9.25621755488,
			"-0.002": 10.1447338459,
			"-0.001": 13.4569609657,
			"0.0": 15.6532603763,
			"0.001": 14.8123296922,
			"0.002": 9.24019557633,
			"0.003": 7.25447417592,
			"0.004": 7.97971922284,
			"0.005": 7.09119364106,
			"0.006": 7.98147716851,
			"0.007": 10.883761308,
			"0.008": 16.151292318,
			"0.009": 10.1406035615,
			"0.01": 8.20779082151,
			"0.011": 4.25493174377,
			"0.012": 0.303631018557,
			"0.013": 0.0,
			"0.014": 0.0,
			"0.015": 0.0,
			"0.016": 0.0,
			"0.017": 0.0,
			"0.018": 0.0,
			"0.019": 0.0,
			"0.02": 0.0,
			"0.021": 0.0,
			"0.022": 0.0,
			"0.023": 0.0,
			"0.024": 0.0,
			"0.025": 0.0
		}
	}
}
