{
	 "smiles": "O=CC1=C(OCC2=CN3C=CC=CC3=N2)C=CC=C1", 
	 "Tm": 397.15, 
	 "num_atms": 31, 
	 "gaussian": { 
		 "optdone": 1, 
		 "sigma_profile": "yes", 
		 "theory": "DFT", 
		 "functional": "B3LYP", 
		 "basiset": "6-31G**", 
		 "properties": { 
			 "R2extent": 5805.7786, 
			 "electric_dipole_moment_norm": 2.80825857784, 
			 "electric_quadrupole_moment_norm": 17.2195004263, 
			 "total_energy": -838.749313525, 
			 "HOMO_LUMO_gap": 0.15017, 
			 "cosmo_polarized_energy": -15.23, 
			 "cosmo_cavitation_energy": 35.65, 
			 "cosmo_dispersion_energy": -25.38, 
			 "cosmo_repulsion_energy": 1.92, 
			 "cosmo_total_nonelectrostatic_energy": 12.19, 
			 "SMD_solvation_energy": 5.73 
		},
		"coords": [
			{
				"x": -0.7211655964,
				"y": -3.0518723436,
				"z": -1.043380647,
				"element": "O" 
			},
			{
				"x": -1.4361204464,
				"y": -2.3147036651,
				"z": -1.697921055,
				"element": "C" 
			},
			{
				"x": -2.04030172,
				"y": -1.0332217825,
				"z": -1.2754594971,
				"element": "C" 
			},
			{
				"x": -2.0781991424,
				"y": -0.5727522087,
				"z": 0.0656440549,
				"element": "C" 
			},
			{
				"x": -1.7407358221,
				"y": -1.4641886301,
				"z": 1.0304175765,
				"element": "O" 
			},
			{
				"x": -1.1893435008,
				"y": -1.0155764759,
				"z": 2.2741226251,
				"element": "C" 
			},
			{
				"x": 0.2589794277,
				"y": -0.6557763709,
				"z": 2.1235681787,
				"element": "C" 
			},
			{
				"x": 1.1401527275,
				"y": -1.1956331124,
				"z": 1.2055596103,
				"element": "C" 
			},
			{
				"x": 2.3487625401,
				"y": -0.590086767,
				"z": 1.4727741308,
				"element": "N" 
			},
			{
				"x": 3.5810433186,
				"y": -0.7263873944,
				"z": 0.8805477277,
				"element": "C" 
			},
			{
				"x": 4.6339534701,
				"y": 0.007738509,
				"z": 1.3500266621,
				"element": "C" 
			},
			{
				"x": 4.4567912909,
				"y": 0.9068504667,
				"z": 2.4404013147,
				"element": "C" 
			},
			{
				"x": 3.2243883742,
				"y": 1.0453263212,
				"z": 3.0327741495,
				"element": "C" 
			},
			{
				"x": 2.1295900059,
				"y": 0.2892545407,
				"z": 2.5544487083,
				"element": "C" 
			},
			{
				"x": 0.8575480989,
				"y": 0.2516502239,
				"z": 2.947869534,
				"element": "N" 
			},
			{
				"x": -2.5284334182,
				"y": 0.7275013474,
				"z": 0.3304074493,
				"element": "C" 
			},
			{
				"x": -2.9784990413,
				"y": 1.5403336639,
				"z": -0.7093703375,
				"element": "C" 
			},
			{
				"x": -2.9968979646,
				"y": 1.0807964696,
				"z": -2.0285379972,
				"element": "C" 
			},
			{
				"x": -2.5305186119,
				"y": -0.2010521009,
				"z": -2.2948463768,
				"element": "C" 
			},
			{
				"x": -1.660468144,
				"y": -2.5610114467,
				"z": -2.7618451525,
				"element": "H" 
			},
			{
				"x": -1.7427213598,
				"y": -0.1777506265,
				"z": 2.7095376816,
				"element": "H" 
			},
			{
				"x": -1.3153883649,
				"y": -1.8716830532,
				"z": 2.9441398601,
				"element": "H" 
			},
			{
				"x": 0.9949208388,
				"y": -1.9232055057,
				"z": 0.4214384124,
				"element": "H" 
			},
			{
				"x": 3.645500777,
				"y": -1.4278417408,
				"z": 0.0575627669,
				"element": "H" 
			},
			{
				"x": 5.6041376559,
				"y": -0.105759553,
				"z": 0.8800695363,
				"element": "H" 
			},
			{
				"x": 5.3032826813,
				"y": 1.4819127806,
				"z": 2.8010012545,
				"element": "H" 
			},
			{
				"x": 3.0515639179,
				"y": 1.7188636115,
				"z": 3.8642294826,
				"element": "H" 
			},
			{
				"x": -2.5458073008,
				"y": 1.1058131206,
				"z": 1.3451981489,
				"element": "H" 
			},
			{
				"x": -3.3294590877,
				"y": 2.5423791376,
				"z": -0.4790099858,
				"element": "H" 
			},
			{
				"x": -3.3611189674,
				"y": 1.7153573247,
				"z": -2.8297303647,
				"element": "H" 
			},
			{
				"x": -2.5135366358,
				"y": -0.5743747398,
				"z": -3.3165374515,
				"element": "H" 
			}
		],
		 "valence_orbital": [ 
			{
				"type": "occ",
				"energy": -0.26432,
				"method": "rhf"
			},
			{
				"type": "occ",
				"energy": -0.2464,
				"method": "rhf"
			},
			{
				"type": "occ",
				"energy": -0.23861,
				"method": "rhf"
			},
			{
				"type": "occ",
				"energy": -0.23122,
				"method": "rhf"
			},
			{
				"type": "occ",
				"energy": -0.20695,
				"method": "rhf"
			},
			{
				"type": "unocc",
				"energy": -0.05678,
				"method": "rhf"
			},
			{
				"type": "unocc",
				"energy": -0.03132,
				"method": "rhf"
			},
			{
				"type": "unocc",
				"energy": -0.00618,
				"method": "rhf"
			},
			{
				"type": "unocc",
				"energy": 0.00649,
				"method": "rhf"
			},
			{
				"type": "unocc",
				"energy": 0.0393,
				"method": "rhf"
			}
		],
		"cosmo_sigma_profile": { 
			"-0.025": 0.0,
			"-0.024": 0.0,
			"-0.023": 0.0,
			"-0.022": 0.0,
			"-0.021": 0.0,
			"-0.02": 0.0,
			"-0.019": 0.0,
			"-0.018": 0.0,
			"-0.017": 0.0,
			"-0.016": 0.0,
			"-0.015": 0.0,
			"-0.014": 0.0,
			"-0.013": 0.0,
			"-0.012": 0.0,
			"-0.011": 0.0,
			"-0.01": 0.186020816742,
			"-0.009": 3.67795326502,
			"-0.008": 5.35593095467,
			"-0.007": 15.3490832374,
			"-0.006": 23.1237212643,
			"-0.005": 22.3059646115,
			"-0.004": 19.4191668449,
			"-0.003": 15.4071408092,
			"-0.002": 15.9241209736,
			"-0.001": 13.510466331,
			"0.0": 19.6902059162,
			"0.001": 22.1829698654,
			"0.002": 26.7427092764,
			"0.003": 29.049945862,
			"0.004": 16.7357376981,
			"0.005": 4.56636411063,
			"0.006": 4.0539634846,
			"0.007": 2.9290355897,
			"0.008": 3.51141605819,
			"0.009": 3.86955535825,
			"0.01": 3.34767616901,
			"0.011": 5.18031944062,
			"0.012": 4.06979662467,
			"0.013": 2.95120911111,
			"0.014": 1.07645035543,
			"0.015": 0.612506973519,
			"0.016": 1.15586786598,
			"0.017": 0.915229282161,
			"0.018": 0.219687686598,
			"0.019": 0.0,
			"0.02": 0.0,
			"0.021": 0.0,
			"0.022": 0.0,
			"0.023": 0.0,
			"0.024": 0.0,
			"0.025": 0.0
		}
	}
}
