{
	 "smiles": "OC(=O)C1CCCN(CC(=O)NC2=CC=CC=C2)C1", 
	 "Tm": 374.15, 
	 "num_atms": 37, 
	 "gaussian": { 
		 "optdone": 1, 
		 "sigma_profile": "yes", 
		 "theory": "DFT", 
		 "functional": "B3LYP", 
		 "basiset": "6-31G**", 
		 "properties": { 
			 "R2extent": 5962.8459, 
			 "electric_dipole_moment_norm": 2.77662934149, 
			 "electric_quadrupole_moment_norm": 12.4778161935, 
			 "total_energy": -879.532500183, 
			 "HOMO_LUMO_gap": 0.20482, 
			 "cosmo_polarized_energy": -17.13, 
			 "cosmo_cavitation_energy": 38.33, 
			 "cosmo_dispersion_energy": -26.33, 
			 "cosmo_repulsion_energy": 2.0, 
			 "cosmo_total_nonelectrostatic_energy": 13.99, 
			 "SMD_solvation_energy": 7.22 
		},
		"coords": [
			{
				"x": -2.5114241701,
				"y": 1.863161048,
				"z": -0.1114534077,
				"element": "O" 
			},
			{
				"x": -1.530380391,
				"y": 1.4213417942,
				"z": 0.7154543356,
				"element": "C" 
			},
			{
				"x": -0.7252397348,
				"y": 2.1770176445,
				"z": 1.2186816499,
				"element": "O" 
			},
			{
				"x": -1.5755603433,
				"y": -0.0885565109,
				"z": 0.8661125013,
				"element": "C" 
			},
			{
				"x": -0.8332852087,
				"y": -0.561757141,
				"z": 2.1314317169,
				"element": "C" 
			},
			{
				"x": -0.3441928942,
				"y": -2.0013675414,
				"z": 1.9425776998,
				"element": "C" 
			},
			{
				"x": 0.6682934619,
				"y": -2.1004733053,
				"z": 0.7808970381,
				"element": "C" 
			},
			{
				"x": 0.4551348808,
				"y": -1.0143985287,
				"z": -0.1950951095,
				"element": "N" 
			},
			{
				"x": 1.1729976941,
				"y": -1.2170764328,
				"z": -1.4531161474,
				"element": "C" 
			},
			{
				"x": 2.6871190011,
				"y": -1.3501505225,
				"z": -1.2614109123,
				"element": "C" 
			},
			{
				"x": 3.2061105438,
				"y": -2.4438219483,
				"z": -1.0704697372,
				"element": "O" 
			},
			{
				"x": 3.4757831296,
				"y": -0.2248834591,
				"z": -1.3654696422,
				"element": "N" 
			},
			{
				"x": 3.155894414,
				"y": 1.1491169758,
				"z": -1.5098784216,
				"element": "C" 
			},
			{
				"x": 3.9681137962,
				"y": 1.9380750714,
				"z": -2.3384390305,
				"element": "C" 
			},
			{
				"x": 3.7191039904,
				"y": 3.3030319145,
				"z": -2.4675323481,
				"element": "C" 
			},
			{
				"x": 2.6528314091,
				"y": 3.8934391683,
				"z": -1.7844130143,
				"element": "C" 
			},
			{
				"x": 1.8477064392,
				"y": 3.1077647232,
				"z": -0.9582218483,
				"element": "C" 
			},
			{
				"x": 2.1004318774,
				"y": 1.7438900125,
				"z": -0.8060425297,
				"element": "C" 
			},
			{
				"x": -0.9662848597,
				"y": -0.7581501044,
				"z": -0.4051521642,
				"element": "C" 
			},
			{
				"x": -2.3893850745,
				"y": 2.8244063458,
				"z": -0.1892211825,
				"element": "H" 
			},
			{
				"x": -2.6336656355,
				"y": -0.3699889762,
				"z": 0.9075118229,
				"element": "H" 
			},
			{
				"x": 0.0134797531,
				"y": 0.1056674814,
				"z": 2.3123068945,
				"element": "H" 
			},
			{
				"x": -1.4931595607,
				"y": -0.485311718,
				"z": 3.0020692379,
				"element": "H" 
			},
			{
				"x": 0.1189851416,
				"y": -2.3747050498,
				"z": 2.8612948202,
				"element": "H" 
			},
			{
				"x": -1.2052083886,
				"y": -2.6532907676,
				"z": 1.7479421827,
				"element": "H" 
			},
			{
				"x": 1.6912201963,
				"y": -2.0189932405,
				"z": 1.1587205014,
				"element": "H" 
			},
			{
				"x": 0.5926057179,
				"y": -3.0893866973,
				"z": 0.2955827794,
				"element": "H" 
			},
			{
				"x": 0.8700308162,
				"y": -2.1494118158,
				"z": -1.9607184558,
				"element": "H" 
			},
			{
				"x": 0.9479386299,
				"y": -0.3738240132,
				"z": -2.1134941126,
				"element": "H" 
			},
			{
				"x": 4.4608557708,
				"y": -0.4620506132,
				"z": -1.3466148058,
				"element": "H" 
			},
			{
				"x": 4.7872410426,
				"y": 1.4753437432,
				"z": -2.8827853797,
				"element": "H" 
			},
			{
				"x": 4.3565406009,
				"y": 3.9040740416,
				"z": -3.1097987329,
				"element": "H" 
			},
			{
				"x": 2.4599521787,
				"y": 4.9570745774,
				"z": -1.8886321007,
				"element": "H" 
			},
			{
				"x": 1.0279023521,
				"y": 3.5479028272,
				"z": -0.3982666831,
				"element": "H" 
			},
			{
				"x": 1.4967559456,
				"y": 1.1449800434,
				"z": -0.1329659019,
				"element": "H" 
			},
			{
				"x": -1.5267857912,
				"y": -1.6833271218,
				"z": -0.6340378017,
				"element": "H" 
			},
			{
				"x": -1.0897567308,
				"y": -0.1016619044,
				"z": -1.271253711,
				"element": "H" 
			}
		],
		 "valence_orbital": [ 
			{
				"type": "occ",
				"energy": -0.27956,
				"method": "rhf"
			},
			{
				"type": "occ",
				"energy": -0.25089,
				"method": "rhf"
			},
			{
				"type": "occ",
				"energy": -0.24989,
				"method": "rhf"
			},
			{
				"type": "occ",
				"energy": -0.22563,
				"method": "rhf"
			},
			{
				"type": "occ",
				"energy": -0.21756,
				"method": "rhf"
			},
			{
				"type": "unocc",
				"energy": -0.01274,
				"method": "rhf"
			},
			{
				"type": "unocc",
				"energy": -0.00283,
				"method": "rhf"
			},
			{
				"type": "unocc",
				"energy": 0.00108,
				"method": "rhf"
			},
			{
				"type": "unocc",
				"energy": 0.02826,
				"method": "rhf"
			},
			{
				"type": "unocc",
				"energy": 0.06674,
				"method": "rhf"
			}
		],
		"cosmo_sigma_profile": { 
			"-0.025": 0.0,
			"-0.024": 0.0,
			"-0.023": 0.0,
			"-0.022": 0.0,
			"-0.021": 0.0,
			"-0.02": 0.0,
			"-0.019": 0.0175014514893,
			"-0.018": 0.525032560226,
			"-0.017": 0.704451277843,
			"-0.016": 0.897739593818,
			"-0.015": 0.993864559795,
			"-0.014": 1.69436149954,
			"-0.013": 2.03314495938,
			"-0.012": 0.667887456799,
			"-0.011": 1.73147357108,
			"-0.01": 1.91430288122,
			"-0.009": 1.69425007567,
			"-0.008": 1.96866348268,
			"-0.007": 2.80639107598,
			"-0.006": 8.35718237601,
			"-0.005": 14.3652140401,
			"-0.004": 24.8827698429,
			"-0.003": 37.5134484141,
			"-0.002": 31.7801907001,
			"-0.001": 27.5337286703,
			"0.0": 20.5083088935,
			"0.001": 16.3053911595,
			"0.002": 15.3971544286,
			"0.003": 14.8195994451,
			"0.004": 13.6456926281,
			"0.005": 15.3864284514,
			"0.006": 9.64332159169,
			"0.007": 5.68896130499,
			"0.008": 3.95879165175,
			"0.009": 3.33323925767,
			"0.01": 3.77310120759,
			"0.011": 4.32273497769,
			"0.012": 3.81159585248,
			"0.013": 4.26060398955,
			"0.014": 3.54333298078,
			"0.015": 0.315499426434,
			"0.016": 0.0,
			"0.017": 0.0,
			"0.018": 0.0,
			"0.019": 0.0,
			"0.02": 0.0,
			"0.021": 0.0,
			"0.022": 0.0,
			"0.023": 0.0,
			"0.024": 0.0,
			"0.025": 0.0
		}
	}
}
