{
	 "smiles": "CCCC1=C(O)C(=CC(C(C)=O)=C1O)C(C)=O", 
	 "Tm": 372.65, 
	 "num_atms": 33, 
	 "gaussian": { 
		 "optdone": 1, 
		 "sigma_profile": "yes", 
		 "theory": "DFT", 
		 "functional": "B3LYP", 
		 "basiset": "6-31G**", 
		 "properties": { 
			 "R2extent": 4874.1813, 
			 "electric_dipole_moment_norm": 4.08917630092, 
			 "electric_quadrupole_moment_norm": 16.832919518, 
			 "total_energy": -805.97217538, 
			 "HOMO_LUMO_gap": 0.16335, 
			 "cosmo_polarized_energy": -11.99, 
			 "cosmo_cavitation_energy": 35.62, 
			 "cosmo_dispersion_energy": -25.49, 
			 "cosmo_repulsion_energy": 1.98, 
			 "cosmo_total_nonelectrostatic_energy": 12.11, 
			 "SMD_solvation_energy": 7.54 
		},
		"coords": [
			{
				"x": -1.5988437543,
				"y": 0.9859169267,
				"z": -4.8357355823,
				"element": "C" 
			},
			{
				"x": -1.274626865,
				"y": 0.4423178313,
				"z": -3.4413787506,
				"element": "C" 
			},
			{
				"x": -0.7144180044,
				"y": 1.5288726142,
				"z": -2.5006002432,
				"element": "C" 
			},
			{
				"x": -0.3883082196,
				"y": 1.0120908441,
				"z": -1.1196915367,
				"element": "C" 
			},
			{
				"x": 0.8810757832,
				"y": 0.4913403809,
				"z": -0.8284811874,
				"element": "C" 
			},
			{
				"x": 1.7901311297,
				"y": 0.4740707278,
				"z": -1.8047976377,
				"element": "O" 
			},
			{
				"x": 1.207044627,
				"y": -0.0100485362,
				"z": 0.4799059525,
				"element": "C" 
			},
			{
				"x": 0.2168290646,
				"y": 0.0241288747,
				"z": 1.4638254924,
				"element": "C" 
			},
			{
				"x": -1.0632308686,
				"y": 0.5239249772,
				"z": 1.215893728,
				"element": "C" 
			},
			{
				"x": -2.1022993144,
				"y": 0.557290897,
				"z": 2.2483780953,
				"element": "C" 
			},
			{
				"x": -1.8149776811,
				"y": 0.0430263182,
				"z": 3.645683844,
				"element": "C" 
			},
			{
				"x": -3.2361065832,
				"y": 1.0061093371,
				"z": 2.0038949809,
				"element": "O" 
			},
			{
				"x": -1.3551295114,
				"y": 1.0173446954,
				"z": -0.103535713,
				"element": "C" 
			},
			{
				"x": -2.5653516435,
				"y": 1.498522678,
				"z": -0.3927925185,
				"element": "O" 
			},
			{
				"x": 2.5492751301,
				"y": -0.5366837627,
				"z": 0.7405556672,
				"element": "C" 
			},
			{
				"x": 2.9135381094,
				"y": -1.068851319,
				"z": 2.112997979,
				"element": "C" 
			},
			{
				"x": 3.4147738145,
				"y": -0.558897781,
				"z": -0.1522570446,
				"element": "O" 
			},
			{
				"x": -1.994831968,
				"y": 0.1998557485,
				"z": -5.4871571617,
				"element": "H" 
			},
			{
				"x": -0.7053105491,
				"y": 1.398935078,
				"z": -5.3177665189,
				"element": "H" 
			},
			{
				"x": -2.3473590429,
				"y": 1.7850032234,
				"z": -4.7854382603,
				"element": "H" 
			},
			{
				"x": -0.5433606423,
				"y": -0.3711313778,
				"z": -3.5208256028,
				"element": "H" 
			},
			{
				"x": -2.1777306499,
				"y": 0.0128776482,
				"z": -2.9910984968,
				"element": "H" 
			},
			{
				"x": 0.1933062741,
				"y": 1.9512522491,
				"z": -2.9430519208,
				"element": "H" 
			},
			{
				"x": -1.4475167667,
				"y": 2.3367834568,
				"z": -2.4112890317,
				"element": "H" 
			},
			{
				"x": 2.6199564633,
				"y": 0.0821139092,
				"z": -1.4102420665,
				"element": "H" 
			},
			{
				"x": 0.4492741752,
				"y": -0.3517301767,
				"z": 2.453283927,
				"element": "H" 
			},
			{
				"x": -1.5339854378,
				"y": -1.0152016426,
				"z": 3.6271890844,
				"element": "H" 
			},
			{
				"x": -0.9924373253,
				"y": 0.5969119207,
				"z": 4.1100251078,
				"element": "H" 
			},
			{
				"x": -2.7152897546,
				"y": 0.1647274113,
				"z": 4.2482116691,
				"element": "H" 
			},
			{
				"x": -3.1042964457,
				"y": 1.4280769724,
				"z": 0.4453803975,
				"element": "H" 
			},
			{
				"x": 3.9506923391,
				"y": -1.4036070764,
				"z": 2.0873080247,
				"element": "H" 
			},
			{
				"x": 2.270374605,
				"y": -1.9092766819,
				"z": 2.3943767574,
				"element": "H" 
			},
			{
				"x": 2.8030395128,
				"y": -0.2949663658,
				"z": 2.8797285662,
				"element": "H" 
			}
		],
		 "valence_orbital": [ 
			{
				"type": "occ",
				"energy": -0.31881,
				"method": "rhf"
			},
			{
				"type": "occ",
				"energy": -0.27426,
				"method": "rhf"
			},
			{
				"type": "occ",
				"energy": -0.26783,
				"method": "rhf"
			},
			{
				"type": "occ",
				"energy": -0.23995,
				"method": "rhf"
			},
			{
				"type": "occ",
				"energy": -0.23362,
				"method": "rhf"
			},
			{
				"type": "unocc",
				"energy": -0.07027,
				"method": "rhf"
			},
			{
				"type": "unocc",
				"energy": -0.05524,
				"method": "rhf"
			},
			{
				"type": "unocc",
				"energy": 0.01891,
				"method": "rhf"
			},
			{
				"type": "unocc",
				"energy": 0.05163,
				"method": "rhf"
			},
			{
				"type": "unocc",
				"energy": 0.07311,
				"method": "rhf"
			}
		],
		"cosmo_sigma_profile": { 
			"-0.025": 0.0,
			"-0.024": 0.0,
			"-0.023": 0.0,
			"-0.022": 0.0,
			"-0.021": 0.0,
			"-0.02": 0.0,
			"-0.019": 0.0,
			"-0.018": 0.0,
			"-0.017": 0.0,
			"-0.016": 0.0,
			"-0.015": 0.0,
			"-0.014": 0.0,
			"-0.013": 0.0,
			"-0.012": 0.0,
			"-0.011": 0.0,
			"-0.01": 0.0,
			"-0.009": 0.0,
			"-0.008": 2.57021634762,
			"-0.007": 9.41562967437,
			"-0.006": 13.415608369,
			"-0.005": 12.3060613584,
			"-0.004": 14.2345250892,
			"-0.003": 21.5330807841,
			"-0.002": 36.146898095,
			"-0.001": 31.1877683758,
			"0.0": 30.1634990886,
			"0.001": 36.2684040322,
			"0.002": 18.5608067736,
			"0.003": 7.2262092557,
			"0.004": 6.04826731075,
			"0.005": 7.96822742121,
			"0.006": 5.22513946653,
			"0.007": 5.37562694862,
			"0.008": 6.48044421963,
			"0.009": 6.25952979792,
			"0.01": 4.29682727463,
			"0.011": 3.01024508509,
			"0.012": 2.74001198284,
			"0.013": 0.511434290203,
			"0.014": 0.0,
			"0.015": 0.0,
			"0.016": 0.0,
			"0.017": 0.0,
			"0.018": 0.0,
			"0.019": 0.0,
			"0.02": 0.0,
			"0.021": 0.0,
			"0.022": 0.0,
			"0.023": 0.0,
			"0.024": 0.0,
			"0.025": 0.0
		}
	}
}
