{
	 "smiles": "O=C1CCCCCCC1", 
	 "Tm": 313.65, 
	 "num_atms": 23, 
	 "gaussian": { 
		 "optdone": 1, 
		 "sigma_profile": "yes", 
		 "theory": "DFT", 
		 "functional": "B3LYP", 
		 "basiset": "6-31G**", 
		 "properties": { 
			 "R2extent": 1468.9974, 
			 "electric_dipole_moment_norm": 2.79529984975, 
			 "electric_quadrupole_moment_norm": 7.98668627717, 
			 "total_energy": -388.515914321, 
			 "HOMO_LUMO_gap": 0.2214, 
			 "cosmo_polarized_energy": -6.47, 
			 "cosmo_cavitation_energy": 22.93, 
			 "cosmo_dispersion_energy": -17.23, 
			 "cosmo_repulsion_energy": 1.41, 
			 "cosmo_total_nonelectrostatic_energy": 7.11, 
			 "SMD_solvation_energy": 3.49 
		},
		"coords": [
			{
				"x": 2.162621003,
				"y": -0.0471073894,
				"z": -0.0410700207,
				"element": "O" 
			},
			{
				"x": 0.9572424259,
				"y": 0.1227114058,
				"z": 0.0262378976,
				"element": "C" 
			},
			{
				"x": 0.1811371996,
				"y": 0.7285346991,
				"z": -1.1348195238,
				"element": "C" 
			},
			{
				"x": -0.9249643768,
				"y": -0.2096268015,
				"z": -1.6703644301,
				"element": "C" 
			},
			{
				"x": -0.4318459187,
				"y": -1.6675186069,
				"z": -1.8545893427,
				"element": "C" 
			},
			{
				"x": -1.1013983253,
				"y": -2.7116778559,
				"z": -0.9367007642,
				"element": "C" 
			},
			{
				"x": -1.2872604452,
				"y": -2.3564880297,
				"z": 0.5532282491,
				"element": "C" 
			},
			{
				"x": -0.065164179,
				"y": -1.8438465707,
				"z": 1.3423454747,
				"element": "C" 
			},
			{
				"x": 0.1962052603,
				"y": -0.3147888495,
				"z": 1.273693412,
				"element": "C" 
			},
			{
				"x": -0.2627597193,
				"y": 1.6798728867,
				"z": -0.8099211279,
				"element": "H" 
			},
			{
				"x": 0.9115323838,
				"y": 0.9488773613,
				"z": -1.9189002435,
				"element": "H" 
			},
			{
				"x": -1.2816358151,
				"y": 0.2009964882,
				"z": -2.6206953016,
				"element": "H" 
			},
			{
				"x": -1.7888344228,
				"y": -0.1838228142,
				"z": -0.9971503483,
				"element": "H" 
			},
			{
				"x": -0.5867972134,
				"y": -1.9874258151,
				"z": -2.8911740312,
				"element": "H" 
			},
			{
				"x": 0.6536470322,
				"y": -1.7012127463,
				"z": -1.7042374646,
				"element": "H" 
			},
			{
				"x": -2.0966715505,
				"y": -2.9497694743,
				"z": -1.3355647569,
				"element": "H" 
			},
			{
				"x": -0.5222727701,
				"y": -3.6416036161,
				"z": -1.0080086011,
				"element": "H" 
			},
			{
				"x": -1.6534953595,
				"y": -3.2655725432,
				"z": 1.0465121195,
				"element": "H" 
			},
			{
				"x": -2.1004225707,
				"y": -1.6266547082,
				"z": 0.6635922714,
				"element": "H" 
			},
			{
				"x": -0.2252458386,
				"y": -2.0868649954,
				"z": 2.3989415418,
				"element": "H" 
			},
			{
				"x": 0.8481589399,
				"y": -2.3737062052,
				"z": 1.0448004366,
				"element": "H" 
			},
			{
				"x": 0.8307658362,
				"y": -0.0378108789,
				"z": 2.1218061403,
				"element": "H" 
			},
			{
				"x": -0.7535415758,
				"y": 0.2246050593,
				"z": 1.3709384136,
				"element": "H" 
			}
		],
		 "valence_orbital": [ 
			{
				"type": "occ",
				"energy": -0.33841,
				"method": "rhf"
			},
			{
				"type": "occ",
				"energy": -0.31485,
				"method": "rhf"
			},
			{
				"type": "occ",
				"energy": -0.31341,
				"method": "rhf"
			},
			{
				"type": "occ",
				"energy": -0.31158,
				"method": "rhf"
			},
			{
				"type": "occ",
				"energy": -0.23441,
				"method": "rhf"
			},
			{
				"type": "unocc",
				"energy": -0.01301,
				"method": "rhf"
			},
			{
				"type": "unocc",
				"energy": 0.08242,
				"method": "rhf"
			},
			{
				"type": "unocc",
				"energy": 0.09367,
				"method": "rhf"
			},
			{
				"type": "unocc",
				"energy": 0.11263,
				"method": "rhf"
			},
			{
				"type": "unocc",
				"energy": 0.12184,
				"method": "rhf"
			}
		],
		"cosmo_sigma_profile": { 
			"-0.025": 0.0,
			"-0.024": 0.0,
			"-0.023": 0.0,
			"-0.022": 0.0,
			"-0.021": 0.0,
			"-0.02": 0.0,
			"-0.019": 0.0,
			"-0.018": 0.0,
			"-0.017": 0.0,
			"-0.016": 0.0,
			"-0.015": 0.0,
			"-0.014": 0.0,
			"-0.013": 0.0,
			"-0.012": 0.0,
			"-0.011": 0.0,
			"-0.01": 0.0,
			"-0.009": 0.0,
			"-0.008": 0.0,
			"-0.007": 0.0,
			"-0.006": 0.0975108411477,
			"-0.005": 4.60859285413,
			"-0.004": 12.6394845936,
			"-0.003": 20.6667651557,
			"-0.002": 30.5243028064,
			"-0.001": 38.6291638658,
			"0.0": 29.1816386235,
			"0.001": 12.9468338394,
			"0.002": 2.96991993115,
			"0.003": 2.41911738602,
			"0.004": 1.55125751992,
			"0.005": 1.55393744933,
			"0.006": 1.68344633323,
			"0.007": 1.4490764349,
			"0.008": 1.45276672529,
			"0.009": 1.24562333692,
			"0.01": 1.71742138342,
			"0.011": 2.18390607908,
			"0.012": 4.14641710009,
			"0.013": 3.51253612234,
			"0.014": 1.20596318463,
			"0.015": 0.0,
			"0.016": 0.0,
			"0.017": 0.0,
			"0.018": 0.0,
			"0.019": 0.0,
			"0.02": 0.0,
			"0.021": 0.0,
			"0.022": 0.0,
			"0.023": 0.0,
			"0.024": 0.0,
			"0.025": 0.0
		}
	}
}
