{
	 "smiles": "CCOC(=O)C1CCN(CC1)C1=NC=CC(=C1)C#N", 
	 "Tm": 325.15, 
	 "num_atms": 36, 
	 "gaussian": { 
		 "optdone": 1, 
		 "sigma_profile": "yes", 
		 "theory": "DFT", 
		 "functional": "B3LYP", 
		 "basiset": "6-31G**", 
		 "properties": { 
			 "R2extent": 8298.6211, 
			 "electric_dipole_moment_norm": 3.7809539656, 
			 "electric_quadrupole_moment_norm": 31.6716864199, 
			 "total_energy": -858.436019725, 
			 "HOMO_LUMO_gap": 0.15593, 
			 "cosmo_polarized_energy": -14.91, 
			 "cosmo_cavitation_energy": 39.62, 
			 "cosmo_dispersion_energy": -27.67, 
			 "cosmo_repulsion_energy": 2.15, 
			 "cosmo_total_nonelectrostatic_energy": 14.09, 
			 "SMD_solvation_energy": 7.28 
		},
		"coords": [
			{
				"x": 2.6410638739,
				"y": -4.3912799959,
				"z": 0.390820349,
				"element": "C" 
			},
			{
				"x": 1.1289515105,
				"y": -4.4676026174,
				"z": 0.2451057442,
				"element": "C" 
			},
			{
				"x": 0.5490551546,
				"y": -3.1520790519,
				"z": 0.0620428725,
				"element": "O" 
			},
			{
				"x": 0.2779360633,
				"y": -2.4460273469,
				"z": 1.1832546188,
				"element": "C" 
			},
			{
				"x": 0.4784943459,
				"y": -2.8544206883,
				"z": 2.3079729392,
				"element": "O" 
			},
			{
				"x": -0.3026130758,
				"y": -1.0866165191,
				"z": 0.832764954,
				"element": "C" 
			},
			{
				"x": 0.6983939082,
				"y": -0.2461127221,
				"z": -0.015300001,
				"element": "C" 
			},
			{
				"x": 0.5581060677,
				"y": 1.256133524,
				"z": 0.2988831974,
				"element": "C" 
			},
			{
				"x": -0.8345890471,
				"y": 1.6239185191,
				"z": 0.5263739783,
				"element": "N" 
			},
			{
				"x": -1.4898346239,
				"y": 0.9664197083,
				"z": 1.6701678079,
				"element": "C" 
			},
			{
				"x": -0.7334317353,
				"y": -0.3052163323,
				"z": 2.077877791,
				"element": "C" 
			},
			{
				"x": -1.4670927242,
				"y": 2.6837250501,
				"z": -0.0777123259,
				"element": "C" 
			},
			{
				"x": -2.6775854615,
				"y": 3.0080038401,
				"z": 0.4256254837,
				"element": "N" 
			},
			{
				"x": -3.3629318693,
				"y": 4.0109972476,
				"z": -0.1294680919,
				"element": "C" 
			},
			{
				"x": -2.9160582,
				"y": 4.7729976484,
				"z": -1.2012332855,
				"element": "C" 
			},
			{
				"x": -1.6546690992,
				"y": 4.4392696205,
				"z": -1.7267359577,
				"element": "C" 
			},
			{
				"x": -0.9175871443,
				"y": 3.3939321408,
				"z": -1.1760474563,
				"element": "C" 
			},
			{
				"x": -1.1172866283,
				"y": 5.1715784736,
				"z": -2.8401783167,
				"element": "C" 
			},
			{
				"x": -0.6838332608,
				"y": 5.765145346,
				"z": -3.741182668,
				"element": "N" 
			},
			{
				"x": 2.9127199805,
				"y": -3.8555569515,
				"z": 1.3037876367,
				"element": "H" 
			},
			{
				"x": 3.0602038096,
				"y": -5.4012298153,
				"z": 0.4496578243,
				"element": "H" 
			},
			{
				"x": 3.0907003879,
				"y": -3.8834492361,
				"z": -0.4676562492,
				"element": "H" 
			},
			{
				"x": 0.8400205207,
				"y": -5.0180602476,
				"z": -0.6533194286,
				"element": "H" 
			},
			{
				"x": 0.6715808174,
				"y": -4.9344822718,
				"z": 1.1206021195,
				"element": "H" 
			},
			{
				"x": -1.1893007556,
				"y": -1.2757853093,
				"z": 0.2139396173,
				"element": "H" 
			},
			{
				"x": 0.5255737986,
				"y": -0.4332817685,
				"z": -1.0784408319,
				"element": "H" 
			},
			{
				"x": 1.7314880047,
				"y": -0.5451637639,
				"z": 0.1956093034,
				"element": "H" 
			},
			{
				"x": 1.1508521449,
				"y": 1.5080861711,
				"z": 1.1902794565,
				"element": "H" 
			},
			{
				"x": 0.9768089727,
				"y": 1.8425650619,
				"z": -0.5169486061,
				"element": "H" 
			},
			{
				"x": -2.5143363988,
				"y": 0.7199548653,
				"z": 1.3767366757,
				"element": "H" 
			},
			{
				"x": -1.5724469035,
				"y": 1.6603763441,
				"z": 2.51774583,
				"element": "H" 
			},
			{
				"x": -1.3809013204,
				"y": -0.9166191696,
				"z": 2.7117725122,
				"element": "H" 
			},
			{
				"x": 0.1469408676,
				"y": -0.0708727809,
				"z": 2.6860741172,
				"element": "H" 
			},
			{
				"x": -4.3328973593,
				"y": 4.2208392717,
				"z": 0.3186264867,
				"element": "H" 
			},
			{
				"x": -3.5044980521,
				"y": 5.5831009614,
				"z": -1.6133621673,
				"element": "H" 
			},
			{
				"x": 0.0437034307,
				"y": 3.1465127942,
				"z": -1.6050359297,
				"element": "H" 
			}
		],
		 "valence_orbital": [ 
			{
				"type": "occ",
				"energy": -0.29991,
				"method": "rhf"
			},
			{
				"type": "occ",
				"energy": -0.28443,
				"method": "rhf"
			},
			{
				"type": "occ",
				"energy": -0.2757,
				"method": "rhf"
			},
			{
				"type": "occ",
				"energy": -0.2665,
				"method": "rhf"
			},
			{
				"type": "occ",
				"energy": -0.21322,
				"method": "rhf"
			},
			{
				"type": "unocc",
				"energy": -0.05729,
				"method": "rhf"
			},
			{
				"type": "unocc",
				"energy": -0.00926,
				"method": "rhf"
			},
			{
				"type": "unocc",
				"energy": 0.00583,
				"method": "rhf"
			},
			{
				"type": "unocc",
				"energy": 0.03505,
				"method": "rhf"
			},
			{
				"type": "unocc",
				"energy": 0.06601,
				"method": "rhf"
			}
		],
		"cosmo_sigma_profile": { 
			"-0.025": 0.0,
			"-0.024": 0.0,
			"-0.023": 0.0,
			"-0.022": 0.0,
			"-0.021": 0.0,
			"-0.02": 0.0,
			"-0.019": 0.0,
			"-0.018": 0.0,
			"-0.017": 0.0,
			"-0.016": 0.0,
			"-0.015": 0.0,
			"-0.014": 0.0,
			"-0.013": 0.0,
			"-0.012": 0.0,
			"-0.011": 0.031580823676,
			"-0.01": 1.00726521808,
			"-0.009": 1.84405454359,
			"-0.008": 3.05467192662,
			"-0.007": 5.01816812338,
			"-0.006": 9.50974795649,
			"-0.005": 20.5074036647,
			"-0.004": 36.9069313285,
			"-0.003": 37.7634589325,
			"-0.002": 34.1350920062,
			"-0.001": 25.6544542415,
			"0.0": 24.3608019285,
			"0.001": 22.4413014048,
			"0.002": 16.7462088247,
			"0.003": 10.3883223211,
			"0.004": 7.22320040207,
			"0.005": 8.06184410426,
			"0.006": 6.61728258557,
			"0.007": 7.02355568138,
			"0.008": 7.58747998664,
			"0.009": 7.14029009482,
			"0.01": 4.94354363088,
			"0.011": 6.41978766178,
			"0.012": 6.9951257985,
			"0.013": 2.00784647421,
			"0.014": 0.0730704205461,
			"0.015": 0.0,
			"0.016": 0.0,
			"0.017": 0.0,
			"0.018": 0.0,
			"0.019": 0.0,
			"0.02": 0.0,
			"0.021": 0.0,
			"0.022": 0.0,
			"0.023": 0.0,
			"0.024": 0.0,
			"0.025": 0.0
		}
	}
}
