{
	 "smiles": "O=C1N(CC2CO2)C(=O)C2=C1C=CC=C2", 
	 "Tm": 372.15, 
	 "num_atms": 24, 
	 "gaussian": { 
		 "optdone": 1, 
		 "sigma_profile": "yes", 
		 "theory": "DFT", 
		 "functional": "B3LYP", 
		 "basiset": "6-31G**", 
		 "properties": { 
			 "R2extent": 3833.0663, 
			 "electric_dipole_moment_norm": 4.47825909478, 
			 "electric_quadrupole_moment_norm": 8.46713342755, 
			 "total_energy": -705.001089748, 
			 "HOMO_LUMO_gap": 0.17709, 
			 "cosmo_polarized_energy": -12.38, 
			 "cosmo_cavitation_energy": 29.12, 
			 "cosmo_dispersion_energy": -20.75, 
			 "cosmo_repulsion_energy": 1.6, 
			 "cosmo_total_nonelectrostatic_energy": 9.97, 
			 "SMD_solvation_energy": 5.92 
		},
		"coords": [
			{
				"x": -2.4560956628,
				"y": 0.5971630653,
				"z": -0.0586852455,
				"element": "O" 
			},
			{
				"x": -1.3808017251,
				"y": 0.0437200862,
				"z": -0.1721340092,
				"element": "C" 
			},
			{
				"x": -0.5170072129,
				"y": 0.1688161739,
				"z": -1.275387712,
				"element": "N" 
			},
			{
				"x": -0.7999741215,
				"y": 0.9972023212,
				"z": -2.4393958788,
				"element": "C" 
			},
			{
				"x": -1.4093940953,
				"y": 0.204465385,
				"z": -3.5806721723,
				"element": "C" 
			},
			{
				"x": -0.5605061441,
				"y": -0.401753174,
				"z": -4.6149852533,
				"element": "C" 
			},
			{
				"x": -1.2874404319,
				"y": 0.8113004781,
				"z": -4.8681351616,
				"element": "O" 
			},
			{
				"x": 0.6571008277,
				"y": -0.587438961,
				"z": -1.1209195582,
				"element": "C" 
			},
			{
				"x": 1.5652709112,
				"y": -0.6466475002,
				"z": -1.926938718,
				"element": "O" 
			},
			{
				"x": 0.5306939199,
				"y": -1.2576750502,
				"z": 0.2073353511,
				"element": "C" 
			},
			{
				"x": -0.6890276764,
				"y": -0.8807634352,
				"z": 0.7746462226,
				"element": "C" 
			},
			{
				"x": -1.0860023615,
				"y": -1.3483636623,
				"z": 2.0188854324,
				"element": "C" 
			},
			{
				"x": -0.2143974535,
				"y": -2.2178426429,
				"z": 2.6885102251,
				"element": "C" 
			},
			{
				"x": 1.0087021348,
				"y": -2.5958658047,
				"z": 2.1196462339,
				"element": "C" 
			},
			{
				"x": 1.400803554,
				"y": -2.1170164041,
				"z": 0.8622717418,
				"element": "C" 
			},
			{
				"x": -1.4870061264,
				"y": 1.7837708427,
				"z": -2.1161476219,
				"element": "H" 
			},
			{
				"x": 0.1344191916,
				"y": 1.4528611852,
				"z": -2.7765533995,
				"element": "H" 
			},
			{
				"x": -2.3848325462,
				"y": -0.2388839672,
				"z": -3.3712472141,
				"element": "H" 
			},
			{
				"x": -0.9157145802,
				"y": -1.2776757072,
				"z": -5.1570908691,
				"element": "H" 
			},
			{
				"x": 0.5205000111,
				"y": -0.2987446286,
				"z": -4.5370112146,
				"element": "H" 
			},
			{
				"x": -2.0353195054,
				"y": -1.0478779108,
				"z": 2.4503158705,
				"element": "H" 
			},
			{
				"x": -0.4894948509,
				"y": -2.6058293724,
				"z": 3.6646862946,
				"element": "H" 
			},
			{
				"x": 1.6623109336,
				"y": -3.2710324842,
				"z": 2.6637866574,
				"element": "H" 
			},
			{
				"x": 2.34631301,
				"y": -2.4022888328,
				"z": 0.4125199989,
				"element": "H" 
			}
		],
		 "valence_orbital": [ 
			{
				"type": "occ",
				"energy": -0.2905,
				"method": "rhf"
			},
			{
				"type": "occ",
				"energy": -0.28216,
				"method": "rhf"
			},
			{
				"type": "occ",
				"energy": -0.27879,
				"method": "rhf"
			},
			{
				"type": "occ",
				"energy": -0.27273,
				"method": "rhf"
			},
			{
				"type": "occ",
				"energy": -0.26356,
				"method": "rhf"
			},
			{
				"type": "unocc",
				"energy": -0.08647,
				"method": "rhf"
			},
			{
				"type": "unocc",
				"energy": -0.04518,
				"method": "rhf"
			},
			{
				"type": "unocc",
				"energy": 0.02374,
				"method": "rhf"
			},
			{
				"type": "unocc",
				"energy": 0.06749,
				"method": "rhf"
			},
			{
				"type": "unocc",
				"energy": 0.08232,
				"method": "rhf"
			}
		],
		"cosmo_sigma_profile": { 
			"-0.025": 0.0,
			"-0.024": 0.0,
			"-0.023": 0.0,
			"-0.022": 0.0,
			"-0.021": 0.0,
			"-0.02": 0.0,
			"-0.019": 0.0,
			"-0.018": 0.0,
			"-0.017": 0.0,
			"-0.016": 0.0,
			"-0.015": 0.0,
			"-0.014": 0.0,
			"-0.013": 0.0,
			"-0.012": 0.0,
			"-0.011": 0.0,
			"-0.01": 0.0,
			"-0.009": 0.0,
			"-0.008": 1.88235590236,
			"-0.007": 10.4599785244,
			"-0.006": 19.3789218016,
			"-0.005": 21.0058023336,
			"-0.004": 22.0120856875,
			"-0.003": 19.9946035081,
			"-0.002": 15.2563758483,
			"-0.001": 17.2650552706,
			"0.0": 14.4357941825,
			"0.001": 16.4136203569,
			"0.002": 17.0402108164,
			"0.003": 7.63713698443,
			"0.004": 5.16502074229,
			"0.005": 4.11041477635,
			"0.006": 3.89177654845,
			"0.007": 4.00145844047,
			"0.008": 4.525269985,
			"0.009": 5.30605913575,
			"0.01": 7.54834092444,
			"0.011": 11.5762102773,
			"0.012": 4.32210286964,
			"0.013": 0.124106341605,
			"0.014": 0.0,
			"0.015": 0.0,
			"0.016": 0.0,
			"0.017": 0.0,
			"0.018": 0.0,
			"0.019": 0.0,
			"0.02": 0.0,
			"0.021": 0.0,
			"0.022": 0.0,
			"0.023": 0.0,
			"0.024": 0.0,
			"0.025": 0.0
		}
	}
}
