{
	 "smiles": "CC1=CC=C(C=C1F)C(N)=NO", 
	 "Tm": 379.15, 
	 "num_atms": 21, 
	 "gaussian": { 
		 "optdone": 1, 
		 "sigma_profile": "yes", 
		 "theory": "DFT", 
		 "functional": "B3LYP", 
		 "basiset": "6-31G**", 
		 "properties": { 
			 "R2extent": 2646.4966, 
			 "electric_dipole_moment_norm": 1.44796125984, 
			 "electric_quadrupole_moment_norm": 7.44775692944, 
			 "total_energy": -594.797099436, 
			 "HOMO_LUMO_gap": 0.1812, 
			 "cosmo_polarized_energy": -11.05, 
			 "cosmo_cavitation_energy": 25.6, 
			 "cosmo_dispersion_energy": -18.88, 
			 "cosmo_repulsion_energy": 1.5, 
			 "cosmo_total_nonelectrostatic_energy": 8.22, 
			 "SMD_solvation_energy": 5.02 
		},
		"coords": [
			{
				"x": -3.4138009281,
				"y": 1.2821198239,
				"z": 0.0264682034,
				"element": "C" 
			},
			{
				"x": -2.0203711076,
				"y": 0.7495860667,
				"z": 0.2349799437,
				"element": "C" 
			},
			{
				"x": -1.007240736,
				"y": 1.4811195503,
				"z": 0.8692060143,
				"element": "C" 
			},
			{
				"x": 0.2707473466,
				"y": 0.9595687638,
				"z": 1.0532278067,
				"element": "C" 
			},
			{
				"x": 0.5835381411,
				"y": -0.3283806325,
				"z": 0.5941271888,
				"element": "C" 
			},
			{
				"x": -0.4120768154,
				"y": -1.0779527466,
				"z": -0.050446961,
				"element": "C" 
			},
			{
				"x": -1.6749827234,
				"y": -0.5276983067,
				"z": -0.2094103715,
				"element": "C" 
			},
			{
				"x": -2.6240318043,
				"y": -1.2634195601,
				"z": -0.8368263006,
				"element": "F" 
			},
			{
				"x": 1.9405159596,
				"y": -0.8918216705,
				"z": 0.7852005914,
				"element": "C" 
			},
			{
				"x": 2.0888216252,
				"y": -2.2663380538,
				"z": 0.7477375305,
				"element": "N" 
			},
			{
				"x": 2.9231108655,
				"y": -0.0606883181,
				"z": 0.9230156757,
				"element": "N" 
			},
			{
				"x": 4.129965268,
				"y": -0.7815537137,
				"z": 1.1411931808,
				"element": "O" 
			},
			{
				"x": -3.6715317268,
				"y": 1.314885288,
				"z": -1.0377356694,
				"element": "H" 
			},
			{
				"x": -4.161037064,
				"y": 0.645185849,
				"z": 0.5123765636,
				"element": "H" 
			},
			{
				"x": -3.5095278011,
				"y": 2.2920843633,
				"z": 0.4324220816,
				"element": "H" 
			},
			{
				"x": -1.2345298385,
				"y": 2.4798151658,
				"z": 1.2328554023,
				"element": "H" 
			},
			{
				"x": 1.0386728672,
				"y": 1.5377511358,
				"z": 1.5534899506,
				"element": "H" 
			},
			{
				"x": -0.20963712,
				"y": -2.062452334,
				"z": -0.4568815446,
				"element": "H" 
			},
			{
				"x": 1.3272176098,
				"y": -2.7991323277,
				"z": 1.1429418258,
				"element": "H" 
			},
			{
				"x": 3.0071717358,
				"y": -2.5768700053,
				"z": 1.0358238006,
				"element": "H" 
			},
			{
				"x": 4.7770062463,
				"y": -0.0697083375,
				"z": 1.2116350872,
				"element": "H" 
			}
		],
		 "valence_orbital": [ 
			{
				"type": "occ",
				"energy": -0.31838,
				"method": "rhf"
			},
			{
				"type": "occ",
				"energy": -0.27403,
				"method": "rhf"
			},
			{
				"type": "occ",
				"energy": -0.25547,
				"method": "rhf"
			},
			{
				"type": "occ",
				"energy": -0.24462,
				"method": "rhf"
			},
			{
				"type": "occ",
				"energy": -0.20894,
				"method": "rhf"
			},
			{
				"type": "unocc",
				"energy": -0.02774,
				"method": "rhf"
			},
			{
				"type": "unocc",
				"energy": -0.00082,
				"method": "rhf"
			},
			{
				"type": "unocc",
				"energy": 0.05909,
				"method": "rhf"
			},
			{
				"type": "unocc",
				"energy": 0.07659,
				"method": "rhf"
			},
			{
				"type": "unocc",
				"energy": 0.09597,
				"method": "rhf"
			}
		],
		"cosmo_sigma_profile": { 
			"-0.025": 0.0,
			"-0.024": 0.0,
			"-0.023": 0.0,
			"-0.022": 0.0,
			"-0.021": 0.0,
			"-0.02": 0.0,
			"-0.019": 0.0,
			"-0.018": 0.0,
			"-0.017": 0.541563979767,
			"-0.016": 1.1135232433,
			"-0.015": 0.631682912222,
			"-0.014": 0.986309510543,
			"-0.013": 1.9663547683,
			"-0.012": 1.91944422143,
			"-0.011": 2.56083208244,
			"-0.01": 2.42139911245,
			"-0.009": 2.89142284753,
			"-0.008": 3.61585900393,
			"-0.007": 4.01324402014,
			"-0.006": 5.45347268825,
			"-0.005": 9.97495794683,
			"-0.004": 12.0090393827,
			"-0.003": 11.2384372814,
			"-0.002": 11.9376606666,
			"-0.001": 14.2687016046,
			"0.0": 16.0028510576,
			"0.001": 14.8789800409,
			"0.002": 14.5782779544,
			"0.003": 15.5661496236,
			"0.004": 18.5702848058,
			"0.005": 9.782595306,
			"0.006": 5.10585995356,
			"0.007": 4.54325180007,
			"0.008": 6.21132954488,
			"0.009": 3.44003253502,
			"0.01": 2.92770433921,
			"0.011": 1.50776136924,
			"0.012": 1.17330820607,
			"0.013": 0.820262605989,
			"0.014": 0.464039727794,
			"0.015": 0.000495996492226,
			"0.016": 0.0,
			"0.017": 0.0,
			"0.018": 0.0,
			"0.019": 0.0,
			"0.02": 0.0,
			"0.021": 0.0,
			"0.022": 0.0,
			"0.023": 0.0,
			"0.024": 0.0,
			"0.025": 0.0
		}
	}
}
