{
	 "smiles": "OC(=O)C1=NN(C(O)=N1)C1=CC=CC=C1", 
	 "Tm": 453.15, 
	 "num_atms": 22, 
	 "gaussian": { 
		 "optdone": 1, 
		 "sigma_profile": "yes", 
		 "theory": "DFT", 
		 "functional": "B3LYP", 
		 "basiset": "6-31G**", 
		 "properties": { 
			 "R2extent": 4105.4551, 
			 "electric_dipole_moment_norm": 8.58697056825, 
			 "electric_quadrupole_moment_norm": 17.8418606734, 
			 "total_energy": -737.090448371, 
			 "HOMO_LUMO_gap": 0.2029, 
			 "cosmo_polarized_energy": -20.3, 
			 "cosmo_cavitation_energy": 27.71, 
			 "cosmo_dispersion_energy": -20.64, 
			 "cosmo_repulsion_energy": 1.61, 
			 "cosmo_total_nonelectrostatic_energy": 8.68, 
			 "SMD_solvation_energy": 4.48 
		},
		"coords": [
			{
				"x": 1.2295587224,
				"y": 5.1081696755,
				"z": 0.4112417505,
				"element": "O" 
			},
			{
				"x": 0.4482746819,
				"y": 4.1447978149,
				"z": 0.9425414887,
				"element": "C" 
			},
			{
				"x": -0.1652549203,
				"y": 4.2884634394,
				"z": 1.9701789596,
				"element": "O" 
			},
			{
				"x": 0.4373281847,
				"y": 2.8967116523,
				"z": 0.118323405,
				"element": "C" 
			},
			{
				"x": -0.2597275417,
				"y": 1.8193624173,
				"z": 0.4261756603,
				"element": "N" 
			},
			{
				"x": 0.038189813,
				"y": 0.9782830316,
				"z": -0.6123532355,
				"element": "N" 
			},
			{
				"x": 0.9199411333,
				"y": 1.6023117282,
				"z": -1.4563288392,
				"element": "C" 
			},
			{
				"x": 1.4492138095,
				"y": 1.0519095983,
				"z": -2.5526419272,
				"element": "O" 
			},
			{
				"x": 1.1816694008,
				"y": 2.81607785,
				"z": -1.0308808629,
				"element": "N" 
			},
			{
				"x": -0.46612497,
				"y": -0.3508148277,
				"z": -0.6673479789,
				"element": "C" 
			},
			{
				"x": -0.5621790437,
				"y": -1.093596317,
				"z": 0.51360677,
				"element": "C" 
			},
			{
				"x": -1.0408450395,
				"y": -2.4001084361,
				"z": 0.4558510198,
				"element": "C" 
			},
			{
				"x": -1.4070049471,
				"y": -2.9699681652,
				"z": -0.767451519,
				"element": "C" 
			},
			{
				"x": -1.3166335021,
				"y": -2.218171529,
				"z": -1.9384510914,
				"element": "C" 
			},
			{
				"x": -0.8581246281,
				"y": -0.8994260557,
				"z": -1.8948141411,
				"element": "C" 
			},
			{
				"x": 1.6223821567,
				"y": 4.7610382993,
				"z": -0.4112012609,
				"element": "H" 
			},
			{
				"x": 1.2652281707,
				"y": 0.0999054572,
				"z": -2.5657086348,
				"element": "H" 
			},
			{
				"x": -0.2728965931,
				"y": -0.6348765545,
				"z": 1.452006025,
				"element": "H" 
			},
			{
				"x": -1.1215175168,
				"y": -2.9785716892,
				"z": 1.3709583726,
				"element": "H" 
			},
			{
				"x": -1.7718023292,
				"y": -3.9916044448,
				"z": -0.8040814447,
				"element": "H" 
			},
			{
				"x": -1.623464654,
				"y": -2.644965605,
				"z": -2.8882806214,
				"element": "H" 
			},
			{
				"x": -0.8581103875,
				"y": -0.2908273397,
				"z": -2.7944418946,
				"element": "H" 
			}
		],
		 "valence_orbital": [ 
			{
				"type": "occ",
				"energy": -0.30688,
				"method": "rhf"
			},
			{
				"type": "occ",
				"energy": -0.28847,
				"method": "rhf"
			},
			{
				"type": "occ",
				"energy": -0.28304,
				"method": "rhf"
			},
			{
				"type": "occ",
				"energy": -0.2682,
				"method": "rhf"
			},
			{
				"type": "occ",
				"energy": -0.25883,
				"method": "rhf"
			},
			{
				"type": "unocc",
				"energy": -0.05593,
				"method": "rhf"
			},
			{
				"type": "unocc",
				"energy": -0.04232,
				"method": "rhf"
			},
			{
				"type": "unocc",
				"energy": -0.02662,
				"method": "rhf"
			},
			{
				"type": "unocc",
				"energy": 0.02413,
				"method": "rhf"
			},
			{
				"type": "unocc",
				"energy": 0.05311,
				"method": "rhf"
			}
		],
		"cosmo_sigma_profile": { 
			"-0.025": 0.0,
			"-0.024": 0.0,
			"-0.023": 0.0,
			"-0.022": 0.0,
			"-0.021": 0.0,
			"-0.02": 0.0,
			"-0.019": 0.0,
			"-0.018": 0.223325717193,
			"-0.017": 0.896528896988,
			"-0.016": 1.26699412275,
			"-0.015": 1.4179414568,
			"-0.014": 1.30997257739,
			"-0.013": 1.58112564351,
			"-0.012": 1.88777112288,
			"-0.011": 1.19736850149,
			"-0.01": 2.13838569963,
			"-0.009": 3.41384377239,
			"-0.008": 4.02669453259,
			"-0.007": 10.2895766548,
			"-0.006": 14.9659082822,
			"-0.005": 15.324403968,
			"-0.004": 14.067537713,
			"-0.003": 12.0217096373,
			"-0.002": 11.6462850786,
			"-0.001": 12.3482187149,
			"0.0": 9.90389000025,
			"0.001": 11.5363935687,
			"0.002": 13.9272207318,
			"0.003": 16.1569214844,
			"0.004": 8.22311230338,
			"0.005": 5.11957470671,
			"0.006": 6.59828965112,
			"0.007": 7.68725615384,
			"0.008": 7.61623479203,
			"0.009": 6.41070346334,
			"0.01": 6.47786209642,
			"0.011": 7.35127742137,
			"0.012": 5.63491718644,
			"0.013": 0.840573107722,
			"0.014": 0.0,
			"0.015": 0.0,
			"0.016": 0.0,
			"0.017": 0.0,
			"0.018": 0.0,
			"0.019": 0.0,
			"0.02": 0.0,
			"0.021": 0.0,
			"0.022": 0.0,
			"0.023": 0.0,
			"0.024": 0.0,
			"0.025": 0.0
		}
	}
}
