{
	 "smiles": "CC1=NC2=C(N=NC3=CC(=CC=C3)[N+]([O-])=O)C(N)=NN2C(C)=C1", 
	 "Tm": 536.15, 
	 "num_atms": 36, 
	 "gaussian": { 
		 "optdone": 1, 
		 "sigma_profile": "yes", 
		 "theory": "DFT", 
		 "functional": "B3LYP", 
		 "basiset": "6-31G**", 
		 "properties": { 
			 "R2extent": 8547.1996, 
			 "electric_dipole_moment_norm": 8.12004444384, 
			 "electric_quadrupole_moment_norm": 26.4519518994, 
			 "total_energy": -1074.87180957, 
			 "HOMO_LUMO_gap": 0.12635, 
			 "cosmo_polarized_energy": -20.07, 
			 "cosmo_cavitation_energy": 41.81, 
			 "cosmo_dispersion_energy": -28.35, 
			 "cosmo_repulsion_energy": 2.16, 
			 "cosmo_total_nonelectrostatic_energy": 15.62, 
			 "SMD_solvation_energy": 6.2 
		},
		"coords": [
			{
				"x": 2.5804827345,
				"y": -0.8613142696,
				"z": 1.2552972757,
				"element": "C" 
			},
			{
				"x": 1.1124584096,
				"y": -0.6800872022,
				"z": 0.9758446884,
				"element": "C" 
			},
			{
				"x": 0.7846554928,
				"y": 0.2055394218,
				"z": 0.0350123046,
				"element": "N" 
			},
			{
				"x": -0.5117031853,
				"y": 0.3985024121,
				"z": -0.2216875376,
				"element": "C" 
			},
			{
				"x": -1.2236822301,
				"y": 1.2599896309,
				"z": -1.0978601746,
				"element": "C" 
			},
			{
				"x": -0.9564319598,
				"y": 2.3241887019,
				"z": -1.943210645,
				"element": "N" 
			},
			{
				"x": 0.1376062019,
				"y": 2.6265624975,
				"z": -2.4936835013,
				"element": "N" 
			},
			{
				"x": 1.2680745874,
				"y": 1.7643807804,
				"z": -2.5123220758,
				"element": "C" 
			},
			{
				"x": 2.509602826,
				"y": 2.2977328987,
				"z": -2.151627783,
				"element": "C" 
			},
			{
				"x": 3.6415495398,
				"y": 1.5043262055,
				"z": -2.2947775887,
				"element": "C" 
			},
			{
				"x": 3.5963043745,
				"y": 0.2172461061,
				"z": -2.832229244,
				"element": "C" 
			},
			{
				"x": 2.3580328091,
				"y": -0.2812065536,
				"z": -3.2334411703,
				"element": "C" 
			},
			{
				"x": 1.1999010415,
				"y": 0.4781328268,
				"z": -3.071734422,
				"element": "C" 
			},
			{
				"x": 4.9439995088,
				"y": 2.0500370474,
				"z": -1.8759249907,
				"element": "N" 
			},
			{
				"x": 4.9695834966,
				"y": 3.1952480463,
				"z": -1.4270144873,
				"element": "O" 
			},
			{
				"x": 5.9325259026,
				"y": 1.3249599751,
				"z": -1.9957088203,
				"element": "O" 
			},
			{
				"x": -2.6033934429,
				"y": 1.0071523466,
				"z": -0.792185421,
				"element": "C" 
			},
			{
				"x": -3.6437234297,
				"y": 1.6163617811,
				"z": -1.4213637617,
				"element": "N" 
			},
			{
				"x": -2.7853944531,
				"y": 0.0689742354,
				"z": 0.1408512695,
				"element": "N" 
			},
			{
				"x": -1.5092210137,
				"y": -0.2848633234,
				"z": 0.4902490795,
				"element": "N" 
			},
			{
				"x": -1.2085106586,
				"y": -1.1951431875,
				"z": 1.4497294256,
				"element": "C" 
			},
			{
				"x": -2.3423655476,
				"y": -1.8732103094,
				"z": 2.1474441503,
				"element": "C" 
			},
			{
				"x": 0.1361057848,
				"y": -1.4061195742,
				"z": 1.6968803497,
				"element": "C" 
			},
			{
				"x": 2.9429822784,
				"y": -0.0581570164,
				"z": 1.9080996417,
				"element": "H" 
			},
			{
				"x": 2.7852477441,
				"y": -1.8147885026,
				"z": 1.748753677,
				"element": "H" 
			},
			{
				"x": 3.1480892145,
				"y": -0.8027406735,
				"z": 0.3237785435,
				"element": "H" 
			},
			{
				"x": 2.5887436614,
				"y": 3.3025725138,
				"z": -1.757556643,
				"element": "H" 
			},
			{
				"x": 4.5112890226,
				"y": -0.3502703352,
				"z": -2.9413570138,
				"element": "H" 
			},
			{
				"x": 2.2955566192,
				"y": -1.2711147547,
				"z": -3.6752768784,
				"element": "H" 
			},
			{
				"x": 0.2384860683,
				"y": 0.086246936,
				"z": -3.3878857675,
				"element": "H" 
			},
			{
				"x": -3.3912707976,
				"y": 2.4630982659,
				"z": -1.9142509593,
				"element": "H" 
			},
			{
				"x": -4.5348421188,
				"y": 1.6051409682,
				"z": -0.9485383238,
				"element": "H" 
			},
			{
				"x": -2.9798862704,
				"y": -1.1351864047,
				"z": 2.6446879664,
				"element": "H" 
			},
			{
				"x": -2.9777441367,
				"y": -2.396069376,
				"z": 1.4256136184,
				"element": "H" 
			},
			{
				"x": -1.9649797639,
				"y": -2.5837948831,
				"z": 2.8843594515,
				"element": "H" 
			},
			{
				"x": 0.4274716898,
				"y": -2.1247272311,
				"z": 2.453535767,
				"element": "H" 
			}
		],
		 "valence_orbital": [ 
			{
				"type": "occ",
				"energy": -0.26983,
				"method": "rhf"
			},
			{
				"type": "occ",
				"energy": -0.2553,
				"method": "rhf"
			},
			{
				"type": "occ",
				"energy": -0.24015,
				"method": "rhf"
			},
			{
				"type": "occ",
				"energy": -0.23139,
				"method": "rhf"
			},
			{
				"type": "occ",
				"energy": -0.20611,
				"method": "rhf"
			},
			{
				"type": "unocc",
				"energy": -0.07976,
				"method": "rhf"
			},
			{
				"type": "unocc",
				"energy": -0.06995,
				"method": "rhf"
			},
			{
				"type": "unocc",
				"energy": -0.054,
				"method": "rhf"
			},
			{
				"type": "unocc",
				"energy": -0.01316,
				"method": "rhf"
			},
			{
				"type": "unocc",
				"energy": 0.00384,
				"method": "rhf"
			}
		],
		"cosmo_sigma_profile": { 
			"-0.025": 0.0,
			"-0.024": 0.0,
			"-0.023": 0.0,
			"-0.022": 0.0,
			"-0.021": 0.0,
			"-0.02": 0.0,
			"-0.019": 0.0,
			"-0.018": 0.0,
			"-0.017": 0.0,
			"-0.016": 0.0,
			"-0.015": 0.0484301586646,
			"-0.014": 0.732569806643,
			"-0.013": 1.36302640175,
			"-0.012": 1.70724707764,
			"-0.011": 2.3747513714,
			"-0.01": 2.0247766082,
			"-0.009": 1.12399777681,
			"-0.008": 4.07456055727,
			"-0.007": 12.8254036223,
			"-0.006": 17.7812851705,
			"-0.005": 20.4649011107,
			"-0.004": 21.4410402789,
			"-0.003": 27.4659477537,
			"-0.002": 32.9339849542,
			"-0.001": 31.4686838693,
			"0.0": 25.4891837092,
			"0.001": 22.8154383957,
			"0.002": 16.886645249,
			"0.003": 10.8534186648,
			"0.004": 9.7157823375,
			"0.005": 9.66660826648,
			"0.006": 9.14118412667,
			"0.007": 13.2542781968,
			"0.008": 13.7360528698,
			"0.009": 8.28922892513,
			"0.01": 6.75903584631,
			"0.011": 3.02969966304,
			"0.012": 3.30399085279,
			"0.013": 1.79645422908,
			"0.014": 1.27525574417,
			"0.015": 0.660081166419,
			"0.016": 0.00500287626018,
			"0.017": 0.0,
			"0.018": 0.0,
			"0.019": 0.0,
			"0.02": 0.0,
			"0.021": 0.0,
			"0.022": 0.0,
			"0.023": 0.0,
			"0.024": 0.0,
			"0.025": 0.0
		}
	}
}
