{
	 "smiles": "NC(=S)NC1=CC=CC=C1[N+]([O-])=O", 
	 "Tm": 409.15, 
	 "num_atms": 20, 
	 "gaussian": { 
		 "optdone": 1, 
		 "sigma_profile": "yes", 
		 "theory": "DFT", 
		 "functional": "B3LYP", 
		 "basiset": "6-31G**", 
		 "properties": { 
			 "R2extent": 3177.1207, 
			 "electric_dipole_moment_norm": 7.40637318058, 
			 "electric_quadrupole_moment_norm": 10.2162620522, 
			 "total_energy": -983.755573567, 
			 "HOMO_LUMO_gap": 0.11633, 
			 "cosmo_polarized_energy": -22.96, 
			 "cosmo_cavitation_energy": 26.78, 
			 "cosmo_dispersion_energy": -19.55, 
			 "cosmo_repulsion_energy": 1.51, 
			 "cosmo_total_nonelectrostatic_energy": 8.74, 
			 "SMD_solvation_energy": 6.14 
		},
		"coords": [
			{
				"x": 3.0838188241,
				"y": -0.7658821511,
				"z": 0.2856270561,
				"element": "N" 
			},
			{
				"x": 2.5214405581,
				"y": 0.4173506507,
				"z": 0.6295454849,
				"element": "C" 
			},
			{
				"x": 3.4187599185,
				"y": 1.7935045829,
				"z": 0.9552683205,
				"element": "S" 
			},
			{
				"x": 1.1484448542,
				"y": 0.4411011096,
				"z": 0.722769503,
				"element": "N" 
			},
			{
				"x": 0.2161354019,
				"y": -0.5691076895,
				"z": 0.4172957167,
				"element": "C" 
			},
			{
				"x": -0.7764408989,
				"y": -0.8694183767,
				"z": 1.3643263398,
				"element": "C" 
			},
			{
				"x": -1.7205088751,
				"y": -1.8654201388,
				"z": 1.1328721219,
				"element": "C" 
			},
			{
				"x": -1.673081893,
				"y": -2.6233907178,
				"z": -0.0403919605,
				"element": "C" 
			},
			{
				"x": -0.6975418832,
				"y": -2.3486237198,
				"z": -0.9925598923,
				"element": "C" 
			},
			{
				"x": 0.2112653013,
				"y": -1.31012782,
				"z": -0.7810450317,
				"element": "C" 
			},
			{
				"x": 1.1009296059,
				"y": -0.9832486584,
				"z": -1.9116206246,
				"element": "N" 
			},
			{
				"x": 1.536557542,
				"y": -1.9319667961,
				"z": -2.5657900213,
				"element": "O" 
			},
			{
				"x": 1.306803225,
				"y": 0.2008300297,
				"z": -2.150278754,
				"element": "O" 
			},
			{
				"x": 4.0901065439,
				"y": -0.7969978767,
				"z": 0.2566031448,
				"element": "H" 
			},
			{
				"x": 2.5776749422,
				"y": -1.6390812983,
				"z": 0.3120497469,
				"element": "H" 
			},
			{
				"x": 0.7928963609,
				"y": 1.3070282968,
				"z": 1.1036234836,
				"element": "H" 
			},
			{
				"x": -0.7773058725,
				"y": -0.3173809324,
				"z": 2.2993295768,
				"element": "H" 
			},
			{
				"x": -2.4783209983,
				"y": -2.0677388786,
				"z": 1.883372472,
				"element": "H" 
			},
			{
				"x": -2.3921831143,
				"y": -3.4165841456,
				"z": -0.2151159243,
				"element": "H" 
			},
			{
				"x": -0.6357495426,
				"y": -2.9050454699,
				"z": -1.9202807585,
				"element": "H" 
			}
		],
		 "valence_orbital": [ 
			{
				"type": "occ",
				"energy": -0.30564,
				"method": "rhf"
			},
			{
				"type": "occ",
				"energy": -0.28628,
				"method": "rhf"
			},
			{
				"type": "occ",
				"energy": -0.26819,
				"method": "rhf"
			},
			{
				"type": "occ",
				"energy": -0.21953,
				"method": "rhf"
			},
			{
				"type": "occ",
				"energy": -0.21109,
				"method": "rhf"
			},
			{
				"type": "unocc",
				"energy": -0.09476,
				"method": "rhf"
			},
			{
				"type": "unocc",
				"energy": -0.04876,
				"method": "rhf"
			},
			{
				"type": "unocc",
				"energy": -0.02787,
				"method": "rhf"
			},
			{
				"type": "unocc",
				"energy": 0.00207,
				"method": "rhf"
			},
			{
				"type": "unocc",
				"energy": 0.06022,
				"method": "rhf"
			}
		],
		"cosmo_sigma_profile": { 
			"-0.025": 0.0,
			"-0.024": 0.0,
			"-0.023": 0.0,
			"-0.022": 0.0,
			"-0.021": 0.0,
			"-0.02": 0.0,
			"-0.019": 0.0,
			"-0.018": 0.0,
			"-0.017": 0.0,
			"-0.016": 0.355902224233,
			"-0.015": 2.57709868434,
			"-0.014": 3.10941343281,
			"-0.013": 3.52855665798,
			"-0.012": 3.03542293813,
			"-0.011": 2.95895281553,
			"-0.01": 3.08903135082,
			"-0.009": 3.46565032622,
			"-0.008": 8.85569181217,
			"-0.007": 11.9594251607,
			"-0.006": 12.174109312,
			"-0.005": 8.7502449398,
			"-0.004": 8.21133193214,
			"-0.003": 9.48657608041,
			"-0.002": 9.53314222462,
			"-0.001": 10.5668077221,
			"0.0": 12.7843449504,
			"0.001": 12.7674567316,
			"0.002": 10.7049387256,
			"0.003": 5.62581347584,
			"0.004": 6.12216979429,
			"0.005": 6.47717577707,
			"0.006": 7.88349515601,
			"0.007": 13.7198830511,
			"0.008": 12.534504106,
			"0.009": 8.57444815215,
			"0.01": 7.28976065663,
			"0.011": 7.76560773134,
			"0.012": 3.0588945031,
			"0.013": 0.00786542880897,
			"0.014": 0.0,
			"0.015": 0.0,
			"0.016": 0.0,
			"0.017": 0.0,
			"0.018": 0.0,
			"0.019": 0.0,
			"0.02": 0.0,
			"0.021": 0.0,
			"0.022": 0.0,
			"0.023": 0.0,
			"0.024": 0.0,
			"0.025": 0.0
		}
	}
}
