{
	 "smiles": "CCCCSCCCC", 
	 "Tm": 193.35, 
	 "num_atms": 27, 
	 "gaussian": { 
		 "optdone": 1, 
		 "sigma_profile": "yes", 
		 "theory": "DFT", 
		 "functional": "B3LYP", 
		 "basiset": "6-31G**", 
		 "properties": { 
			 "R2extent": 2661.8042, 
			 "electric_dipole_moment_norm": 1.6716981456, 
			 "electric_quadrupole_moment_norm": 7.12018614223, 
			 "total_energy": -713.907633518, 
			 "HOMO_LUMO_gap": 0.26102, 
			 "cosmo_polarized_energy": -4.14, 
			 "cosmo_cavitation_energy": 29.08, 
			 "cosmo_dispersion_energy": -20.59, 
			 "cosmo_repulsion_energy": 1.69, 
			 "cosmo_total_nonelectrostatic_energy": 10.17, 
			 "SMD_solvation_energy": 4.2 
		},
		"coords": [
			{
				"x": -2.6716352795,
				"y": 0.1029859386,
				"z": 2.4556577701,
				"element": "C" 
			},
			{
				"x": -2.5135638016,
				"y": -0.9087317492,
				"z": 1.3162701019,
				"element": "C" 
			},
			{
				"x": -2.9398580425,
				"y": -0.346569721,
				"z": -0.0443802117,
				"element": "C" 
			},
			{
				"x": -2.7983561514,
				"y": -1.329170928,
				"z": -1.2136690128,
				"element": "C" 
			},
			{
				"x": -1.09100206,
				"y": -1.8696490561,
				"z": -1.6389754065,
				"element": "S" 
			},
			{
				"x": -0.4125831886,
				"y": -0.3486625259,
				"z": -2.4386226842,
				"element": "C" 
			},
			{
				"x": 0.5026028312,
				"y": 0.5451369106,
				"z": -1.5830613652,
				"element": "C" 
			},
			{
				"x": 1.9723822715,
				"y": 0.1004915539,
				"z": -1.4905038591,
				"element": "C" 
			},
			{
				"x": 2.232472457,
				"y": -1.2094403554,
				"z": -0.7379627967,
				"element": "C" 
			},
			{
				"x": -3.7119314458,
				"y": 0.4339242875,
				"z": 2.5558384262,
				"element": "H" 
			},
			{
				"x": -2.366430503,
				"y": -0.3266262761,
				"z": 3.4153254386,
				"element": "H" 
			},
			{
				"x": -2.0582646383,
				"y": 0.9948519781,
				"z": 2.282166141,
				"element": "H" 
			},
			{
				"x": -1.4713563495,
				"y": -1.2429588025,
				"z": 1.2562846701,
				"element": "H" 
			},
			{
				"x": -3.1096842496,
				"y": -1.8054414607,
				"z": 1.5353599084,
				"element": "H" 
			},
			{
				"x": -2.3737587123,
				"y": 0.5689421317,
				"z": -0.2614662936,
				"element": "H" 
			},
			{
				"x": -3.9957249806,
				"y": -0.04154057,
				"z": 0.0052244921,
				"element": "H" 
			},
			{
				"x": -3.2556461074,
				"y": -0.9186810885,
				"z": -2.1206061583,
				"element": "H" 
			},
			{
				"x": -3.3243213209,
				"y": -2.2635792903,
				"z": -0.9873142669,
				"element": "H" 
			},
			{
				"x": -1.275709679,
				"y": 0.2222651731,
				"z": -2.7959090826,
				"element": "H" 
			},
			{
				"x": 0.1254869438,
				"y": -0.6905657173,
				"z": -3.3294943376,
				"element": "H" 
			},
			{
				"x": 0.4858910415,
				"y": 1.5488421956,
				"z": -2.0311884333,
				"element": "H" 
			},
			{
				"x": 0.0806793702,
				"y": 0.6499904263,
				"z": -0.5763475606,
				"element": "H" 
			},
			{
				"x": 2.537149473,
				"y": 0.9060164483,
				"z": -1.003321241,
				"element": "H" 
			},
			{
				"x": 2.3803839766,
				"y": 0.0235013566,
				"z": -2.5083494984,
				"element": "H" 
			},
			{
				"x": 1.8299760987,
				"y": -1.1690401949,
				"z": 0.2798949314,
				"element": "H" 
			},
			{
				"x": 1.7724870581,
				"y": -2.0694069136,
				"z": -1.2330652545,
				"element": "H" 
			},
			{
				"x": 3.3082149885,
				"y": -1.4037837509,
				"z": -0.6664844168,
				"element": "H" 
			}
		],
		 "valence_orbital": [ 
			{
				"type": "occ",
				"energy": -0.32458,
				"method": "rhf"
			},
			{
				"type": "occ",
				"energy": -0.32445,
				"method": "rhf"
			},
			{
				"type": "occ",
				"energy": -0.31503,
				"method": "rhf"
			},
			{
				"type": "occ",
				"energy": -0.28651,
				"method": "rhf"
			},
			{
				"type": "occ",
				"energy": -0.21265,
				"method": "rhf"
			},
			{
				"type": "unocc",
				"energy": 0.04837,
				"method": "rhf"
			},
			{
				"type": "unocc",
				"energy": 0.0678,
				"method": "rhf"
			},
			{
				"type": "unocc",
				"energy": 0.08125,
				"method": "rhf"
			},
			{
				"type": "unocc",
				"energy": 0.10205,
				"method": "rhf"
			},
			{
				"type": "unocc",
				"energy": 0.10747,
				"method": "rhf"
			}
		],
		"cosmo_sigma_profile": { 
			"-0.025": 0.0,
			"-0.024": 0.0,
			"-0.023": 0.0,
			"-0.022": 0.0,
			"-0.021": 0.0,
			"-0.02": 0.0,
			"-0.019": 0.0,
			"-0.018": 0.0,
			"-0.017": 0.0,
			"-0.016": 0.0,
			"-0.015": 0.0,
			"-0.014": 0.0,
			"-0.013": 0.0,
			"-0.012": 0.0,
			"-0.011": 0.0,
			"-0.01": 0.0,
			"-0.009": 0.0,
			"-0.008": 0.0,
			"-0.007": 0.0,
			"-0.006": 0.0719962094532,
			"-0.005": 4.54032823363,
			"-0.004": 8.19435202481,
			"-0.003": 18.6207113939,
			"-0.002": 40.6705840261,
			"-0.001": 41.6971570703,
			"0.0": 36.9240769859,
			"0.001": 31.7775462679,
			"0.002": 15.7802187824,
			"0.003": 4.87237625822,
			"0.004": 3.44441009732,
			"0.005": 3.07816885246,
			"0.006": 3.80411525866,
			"0.007": 3.40111929503,
			"0.008": 2.9966435988,
			"0.009": 2.50567367196,
			"0.01": 1.26890221322,
			"0.011": 1.23083179425,
			"0.012": 0.63059380864,
			"0.013": 0.0170144069833,
			"0.014": 0.0,
			"0.015": 0.0,
			"0.016": 0.0,
			"0.017": 0.0,
			"0.018": 0.0,
			"0.019": 0.0,
			"0.02": 0.0,
			"0.021": 0.0,
			"0.022": 0.0,
			"0.023": 0.0,
			"0.024": 0.0,
			"0.025": 0.0
		}
	}
}
