{
	 "smiles": "OC1=C(NC(=O)C2=CC=C(C=C2)C2SCCS2)N=CC=C1", 
	 "Tm": 388.15, 
	 "num_atms": 35, 
	 "gaussian": { 
		 "optdone": 1, 
		 "sigma_profile": "yes", 
		 "theory": "DFT", 
		 "functional": "B3LYP", 
		 "basiset": "6-31G**", 
		 "properties": { 
			 "R2extent": 12281.6128, 
			 "electric_dipole_moment_norm": 4.48274368217, 
			 "electric_quadrupole_moment_norm": 22.248721717, 
			 "total_energy": -1636.38623998, 
			 "HOMO_LUMO_gap": 0.14849, 
			 "cosmo_polarized_energy": -15.55, 
			 "cosmo_cavitation_energy": 41.6, 
			 "cosmo_dispersion_energy": -31.58, 
			 "cosmo_repulsion_energy": 2.29, 
			 "cosmo_total_nonelectrostatic_energy": 12.31, 
			 "SMD_solvation_energy": 5.02 
		},
		"coords": [
			{
				"x": -0.0013705564,
				"y": 4.8325397978,
				"z": -0.0938247926,
				"element": "O" 
			},
			{
				"x": -1.3000915928,
				"y": 4.5551361877,
				"z": 0.0884883097,
				"element": "C" 
			},
			{
				"x": -1.8670341,
				"y": 3.2611313438,
				"z": 0.2114401748,
				"element": "C" 
			},
			{
				"x": -1.1591204903,
				"y": 2.0267477602,
				"z": 0.1604689618,
				"element": "N" 
			},
			{
				"x": 0.0786645648,
				"y": 1.6947678842,
				"z": -0.2964906354,
				"element": "C" 
			},
			{
				"x": 0.8890342414,
				"y": 2.514844999,
				"z": -0.7598011173,
				"element": "O" 
			},
			{
				"x": 0.4329053858,
				"y": 0.2422074888,
				"z": -0.2349551826,
				"element": "C" 
			},
			{
				"x": -0.2036092753,
				"y": -0.6813128035,
				"z": 0.6118383344,
				"element": "C" 
			},
			{
				"x": 0.1804817363,
				"y": -2.0168456284,
				"z": 0.6154897803,
				"element": "C" 
			},
			{
				"x": 1.2104705748,
				"y": -2.4658157486,
				"z": -0.2235425268,
				"element": "C" 
			},
			{
				"x": 1.8515387161,
				"y": -1.541038256,
				"z": -1.0568746831,
				"element": "C" 
			},
			{
				"x": 1.4739084427,
				"y": -0.2006232783,
				"z": -1.0592663115,
				"element": "C" 
			},
			{
				"x": 1.6512977806,
				"y": -3.9118894547,
				"z": -0.2369659173,
				"element": "C" 
			},
			{
				"x": 2.3340879985,
				"y": -4.4196371937,
				"z": 1.4015522751,
				"element": "S" 
			},
			{
				"x": 1.95133865,
				"y": -6.1935922807,
				"z": 1.1749897562,
				"element": "C" 
			},
			{
				"x": 0.5122207518,
				"y": -6.2939016879,
				"z": 0.6766518866,
				"element": "C" 
			},
			{
				"x": 0.2799078082,
				"y": -5.0985918037,
				"z": -0.7040913421,
				"element": "S" 
			},
			{
				"x": -3.1674697838,
				"y": 3.0537720617,
				"z": 0.4383325018,
				"element": "N" 
			},
			{
				"x": -3.9912846724,
				"y": 4.097069572,
				"z": 0.5499752524,
				"element": "C" 
			},
			{
				"x": -3.5441319506,
				"y": 5.4128581184,
				"z": 0.4362351784,
				"element": "C" 
			},
			{
				"x": -2.1922572886,
				"y": 5.6315568238,
				"z": 0.20173173,
				"element": "C" 
			},
			{
				"x": 0.4775560331,
				"y": 4.0061463698,
				"z": -0.3831685492,
				"element": "H" 
			},
			{
				"x": -1.7964182258,
				"y": 1.2682637169,
				"z": 0.3691150277,
				"element": "H" 
			},
			{
				"x": -0.9791747091,
				"y": -0.3616513801,
				"z": 1.3019739739,
				"element": "H" 
			},
			{
				"x": -0.3143671576,
				"y": -2.7215387729,
				"z": 1.2753859403,
				"element": "H" 
			},
			{
				"x": 2.6551950487,
				"y": -1.8728224956,
				"z": -1.7087611064,
				"element": "H" 
			},
			{
				"x": 1.9746186457,
				"y": 0.5195863629,
				"z": -1.696446438,
				"element": "H" 
			},
			{
				"x": 2.4326792772,
				"y": -4.0369739001,
				"z": -0.9889689528,
				"element": "H" 
			},
			{
				"x": 2.6497881208,
				"y": -6.6439896024,
				"z": 0.4641494927,
				"element": "H" 
			},
			{
				"x": 2.0747675758,
				"y": -6.6804178865,
				"z": 2.1473224593,
				"element": "H" 
			},
			{
				"x": -0.1930258777,
				"y": -6.0693295849,
				"z": 1.4801306331,
				"element": "H" 
			},
			{
				"x": 0.2967105062,
				"y": -7.2916874849,
				"z": 0.2824852649,
				"element": "H" 
			},
			{
				"x": -5.0368973054,
				"y": 3.8673566685,
				"z": 0.7392953376,
				"element": "H" 
			},
			{
				"x": -4.2356649541,
				"y": 6.243847085,
				"z": 0.5301079564,
				"element": "H" 
			},
			{
				"x": -1.7811539187,
				"y": 6.6315270024,
				"z": 0.1086973277,
				"element": "H" 
			}
		],
		 "valence_orbital": [ 
			{
				"type": "occ",
				"energy": -0.26751,
				"method": "rhf"
			},
			{
				"type": "occ",
				"energy": -0.26252,
				"method": "rhf"
			},
			{
				"type": "occ",
				"energy": -0.24104,
				"method": "rhf"
			},
			{
				"type": "occ",
				"energy": -0.23379,
				"method": "rhf"
			},
			{
				"type": "occ",
				"energy": -0.21227,
				"method": "rhf"
			},
			{
				"type": "unocc",
				"energy": -0.06378,
				"method": "rhf"
			},
			{
				"type": "unocc",
				"energy": -0.02197,
				"method": "rhf"
			},
			{
				"type": "unocc",
				"energy": -0.01684,
				"method": "rhf"
			},
			{
				"type": "unocc",
				"energy": -0.01154,
				"method": "rhf"
			},
			{
				"type": "unocc",
				"energy": 0.00292,
				"method": "rhf"
			}
		],
		"cosmo_sigma_profile": { 
			"-0.025": 0.0,
			"-0.024": 0.0,
			"-0.023": 0.0,
			"-0.022": 0.0,
			"-0.021": 0.0,
			"-0.02": 0.0,
			"-0.019": 0.0,
			"-0.018": 0.0,
			"-0.017": 0.0,
			"-0.016": 0.0,
			"-0.015": 0.0,
			"-0.014": 0.19180042363,
			"-0.013": 1.31458863371,
			"-0.012": 1.21990431313,
			"-0.011": 0.939502351646,
			"-0.01": 1.12475535461,
			"-0.009": 1.3964797898,
			"-0.008": 3.79895526901,
			"-0.007": 12.6226253979,
			"-0.006": 21.2165604405,
			"-0.005": 26.1307336428,
			"-0.004": 24.5621844421,
			"-0.003": 23.339892003,
			"-0.002": 21.6239953289,
			"-0.001": 19.7574722006,
			"0.0": 23.2401559508,
			"0.001": 23.409942649,
			"0.002": 27.6113451668,
			"0.003": 29.4697866598,
			"0.004": 16.3733046762,
			"0.005": 12.0480533568,
			"0.006": 8.58410024162,
			"0.007": 10.140280641,
			"0.008": 7.20753479536,
			"0.009": 7.64131652421,
			"0.01": 5.37125848347,
			"0.011": 3.28962585695,
			"0.012": 2.53292857725,
			"0.013": 0.57793925559,
			"0.014": 0.0336924548819,
			"0.015": 0.0,
			"0.016": 0.0,
			"0.017": 0.0,
			"0.018": 0.0,
			"0.019": 0.0,
			"0.02": 0.0,
			"0.021": 0.0,
			"0.022": 0.0,
			"0.023": 0.0,
			"0.024": 0.0,
			"0.025": 0.0
		}
	}
}
