{
	 "smiles": "CC1=C(N)C=C(C=C1)C(=O)NC1=CC=CC=C1", 
	 "Tm": 425.15, 
	 "num_atms": 31, 
	 "gaussian": { 
		 "optdone": 1, 
		 "sigma_profile": "yes", 
		 "theory": "DFT", 
		 "functional": "B3LYP", 
		 "basiset": "6-31G**", 
		 "properties": { 
			 "R2extent": 4797.1679, 
			 "electric_dipole_moment_norm": 3.62863860422, 
			 "electric_quadrupole_moment_norm": 20.476813664, 
			 "total_energy": -726.679537567, 
			 "HOMO_LUMO_gap": 0.17031, 
			 "cosmo_polarized_energy": -15.92, 
			 "cosmo_cavitation_energy": 34.65, 
			 "cosmo_dispersion_energy": -24.6, 
			 "cosmo_repulsion_energy": 1.92, 
			 "cosmo_total_nonelectrostatic_energy": 11.97, 
			 "SMD_solvation_energy": 6.33 
		},
		"coords": [
			{
				"x": -2.8851848913,
				"y": -0.1744065595,
				"z": -3.4857549233,
				"element": "C" 
			},
			{
				"x": -1.9701903552,
				"y": 0.2300777813,
				"z": -2.3581438991,
				"element": "C" 
			},
			{
				"x": -2.2411236911,
				"y": 1.399085504,
				"z": -1.6072761132,
				"element": "C" 
			},
			{
				"x": -3.3319258239,
				"y": 2.208323467,
				"z": -1.9366047304,
				"element": "N" 
			},
			{
				"x": -1.3672623395,
				"y": 1.7735028964,
				"z": -0.579387248,
				"element": "C" 
			},
			{
				"x": -0.2450942382,
				"y": 1.0009590494,
				"z": -0.2657982729,
				"element": "C" 
			},
			{
				"x": 0.0291584408,
				"y": -0.154722607,
				"z": -1.008162449,
				"element": "C" 
			},
			{
				"x": -0.8327441296,
				"y": -0.5171231618,
				"z": -2.0417628039,
				"element": "C" 
			},
			{
				"x": 0.6670748975,
				"y": 1.5294605101,
				"z": 0.7984279675,
				"element": "C" 
			},
			{
				"x": 0.7968113793,
				"y": 2.7349536059,
				"z": 0.9868092727,
				"element": "O" 
			},
			{
				"x": 1.4395520703,
				"y": 0.643554468,
				"z": 1.5376655764,
				"element": "N" 
			},
			{
				"x": 1.2182106041,
				"y": -0.7054087373,
				"z": 1.9105622492,
				"element": "C" 
			},
			{
				"x": 2.3346026601,
				"y": -1.5041706351,
				"z": 2.1983360586,
				"element": "C" 
			},
			{
				"x": 2.1685038518,
				"y": -2.8223071228,
				"z": 2.620464027,
				"element": "C" 
			},
			{
				"x": 0.8892006656,
				"y": -3.3669241804,
				"z": 2.7442826507,
				"element": "C" 
			},
			{
				"x": -0.2228464761,
				"y": -2.572249755,
				"z": 2.4578229886,
				"element": "C" 
			},
			{
				"x": -0.0676825799,
				"y": -1.2459232337,
				"z": 2.057758473,
				"element": "C" 
			},
			{
				"x": -3.8953671789,
				"y": -0.4217274191,
				"z": -3.1283141556,
				"element": "H" 
			},
			{
				"x": -2.9951091382,
				"y": 0.6338996863,
				"z": -4.2193679481,
				"element": "H" 
			},
			{
				"x": -2.5030330801,
				"y": -1.0555031176,
				"z": -4.006895602,
				"element": "H" 
			},
			{
				"x": -4.1342688726,
				"y": 1.7294303432,
				"z": -2.320784383,
				"element": "H" 
			},
			{
				"x": -3.5962359347,
				"y": 2.8728679018,
				"z": -1.2224989988,
				"element": "H" 
			},
			{
				"x": -1.5404678297,
				"y": 2.6867992589,
				"z": -0.0176262579,
				"element": "H" 
			},
			{
				"x": 0.9080144821,
				"y": -0.7525428334,
				"z": -0.7976700253,
				"element": "H" 
			},
			{
				"x": -0.6158646682,
				"y": -1.4062362585,
				"z": -2.6287479283,
				"element": "H" 
			},
			{
				"x": 2.1266752618,
				"y": 1.1448725227,
				"z": 2.0884305266,
				"element": "H" 
			},
			{
				"x": 3.330683397,
				"y": -1.0855280412,
				"z": 2.0825117248,
				"element": "H" 
			},
			{
				"x": 3.0435498395,
				"y": -3.4262546966,
				"z": 2.842943215,
				"element": "H" 
			},
			{
				"x": 0.7597016793,
				"y": -4.3959081188,
				"z": 3.0654721414,
				"element": "H" 
			},
			{
				"x": -1.2241945035,
				"y": -2.9799215112,
				"z": 2.5635855433,
				"element": "H" 
			},
			{
				"x": -0.9373434985,
				"y": -0.6289290063,
				"z": 1.8636233243,
				"element": "H" 
			}
		],
		 "valence_orbital": [ 
			{
				"type": "occ",
				"energy": -0.25514,
				"method": "rhf"
			},
			{
				"type": "occ",
				"energy": -0.2533,
				"method": "rhf"
			},
			{
				"type": "occ",
				"energy": -0.23666,
				"method": "rhf"
			},
			{
				"type": "occ",
				"energy": -0.22289,
				"method": "rhf"
			},
			{
				"type": "occ",
				"energy": -0.20242,
				"method": "rhf"
			},
			{
				"type": "unocc",
				"energy": -0.03211,
				"method": "rhf"
			},
			{
				"type": "unocc",
				"energy": -0.0068,
				"method": "rhf"
			},
			{
				"type": "unocc",
				"energy": 0.00292,
				"method": "rhf"
			},
			{
				"type": "unocc",
				"energy": 0.01531,
				"method": "rhf"
			},
			{
				"type": "unocc",
				"energy": 0.06583,
				"method": "rhf"
			}
		],
		"cosmo_sigma_profile": { 
			"-0.025": 0.0,
			"-0.024": 0.0,
			"-0.023": 0.0,
			"-0.022": 0.0,
			"-0.021": 0.0,
			"-0.02": 0.0,
			"-0.019": 0.0,
			"-0.018": 0.0,
			"-0.017": 0.0,
			"-0.016": 0.0,
			"-0.015": 0.0,
			"-0.014": 0.36556689255,
			"-0.013": 1.35678579826,
			"-0.012": 3.31494260834,
			"-0.011": 2.68588044625,
			"-0.01": 3.52232195229,
			"-0.009": 4.62971120135,
			"-0.008": 4.48927857213,
			"-0.007": 4.94791484268,
			"-0.006": 9.46199374278,
			"-0.005": 17.8356481314,
			"-0.004": 24.1851658923,
			"-0.003": 19.856422584,
			"-0.002": 18.0282207226,
			"-0.001": 19.3275041491,
			"0.0": 19.5847937585,
			"0.001": 17.8514832504,
			"0.002": 16.5991014279,
			"0.003": 15.584106888,
			"0.004": 16.5330136063,
			"0.005": 20.670199088,
			"0.006": 10.9389840999,
			"0.007": 2.44095919954,
			"0.008": 2.19656666482,
			"0.009": 1.98779356616,
			"0.01": 2.18148373215,
			"0.011": 2.34691448894,
			"0.012": 2.75275463398,
			"0.013": 5.91236010671,
			"0.014": 3.44741191002,
			"0.015": 0.176326348653,
			"0.016": 0.0,
			"0.017": 0.0,
			"0.018": 0.0,
			"0.019": 0.0,
			"0.02": 0.0,
			"0.021": 0.0,
			"0.022": 0.0,
			"0.023": 0.0,
			"0.024": 0.0,
			"0.025": 0.0
		}
	}
}
