{
	 "smiles": "COS(=O)(=O)C1=CC=CC=C1", 
	 "Tm": 269.15, 
	 "num_atms": 19, 
	 "gaussian": { 
		 "optdone": 1, 
		 "sigma_profile": "yes", 
		 "theory": "DFT", 
		 "functional": "B3LYP", 
		 "basiset": "6-31G**", 
		 "properties": { 
			 "R2extent": 2312.9204, 
			 "electric_dipole_moment_norm": 3.59256739533, 
			 "electric_quadrupole_moment_norm": 16.6495765081, 
			 "total_energy": -895.347434361, 
			 "HOMO_LUMO_gap": 0.22948, 
			 "cosmo_polarized_energy": -10.93, 
			 "cosmo_cavitation_energy": 24.61, 
			 "cosmo_dispersion_energy": -18.56, 
			 "cosmo_repulsion_energy": 1.44, 
			 "cosmo_total_nonelectrostatic_energy": 7.49, 
			 "SMD_solvation_energy": 4.03 
		},
		"coords": [
			{
				"x": -1.5369369942,
				"y": 0.0058490091,
				"z": 3.7129887561,
				"element": "C" 
			},
			{
				"x": -1.133848219,
				"y": -0.1880451633,
				"z": 2.3371386176,
				"element": "O" 
			},
			{
				"x": -0.9761505487,
				"y": 1.2018927737,
				"z": 1.4715187087,
				"element": "S" 
			},
			{
				"x": -2.2971621649,
				"y": 1.8145825168,
				"z": 1.33041485,
				"element": "O" 
			},
			{
				"x": 0.134672943,
				"y": 1.973587198,
				"z": 2.0291844406,
				"element": "O" 
			},
			{
				"x": -0.4840219188,
				"y": 0.4597765155,
				"z": -0.0730620328,
				"element": "C" 
			},
			{
				"x": 0.8744014431,
				"y": 0.2634565777,
				"z": -0.3267133352,
				"element": "C" 
			},
			{
				"x": 1.2519719306,
				"y": -0.3118791505,
				"z": -1.5396775202,
				"element": "C" 
			},
			{
				"x": 0.2801047219,
				"y": -0.676380162,
				"z": -2.4749702237,
				"element": "C" 
			},
			{
				"x": -1.0748066288,
				"y": -0.4644156914,
				"z": -2.2077656641,
				"element": "C" 
			},
			{
				"x": -1.4678738656,
				"y": 0.1099381977,
				"z": -0.9992638463,
				"element": "C" 
			},
			{
				"x": -2.5152737618,
				"y": 0.491573485,
				"z": 3.759425556,
				"element": "H" 
			},
			{
				"x": -0.7914272716,
				"y": 0.598984064,
				"z": 4.2492582243,
				"element": "H" 
			},
			{
				"x": -1.5950670844,
				"y": -0.9966658221,
				"z": 4.136888854,
				"element": "H" 
			},
			{
				"x": 1.6108876513,
				"y": 0.5676567987,
				"z": 0.4086490723,
				"element": "H" 
			},
			{
				"x": 2.3038998645,
				"y": -0.470689171,
				"z": -1.7560052263,
				"element": "H" 
			},
			{
				"x": 0.5803287166,
				"y": -1.1220252499,
				"z": -3.4187860071,
				"element": "H" 
			},
			{
				"x": -1.8253538413,
				"y": -0.7413842185,
				"z": -2.9416183165,
				"element": "H" 
			},
			{
				"x": -2.5120449719,
				"y": 0.2974874924,
				"z": -0.7751049074,
				"element": "H" 
			}
		],
		 "valence_orbital": [ 
			{
				"type": "occ",
				"energy": -0.31916,
				"method": "rhf"
			},
			{
				"type": "occ",
				"energy": -0.31731,
				"method": "rhf"
			},
			{
				"type": "occ",
				"energy": -0.28696,
				"method": "rhf"
			},
			{
				"type": "occ",
				"energy": -0.27779,
				"method": "rhf"
			},
			{
				"type": "occ",
				"energy": -0.27399,
				"method": "rhf"
			},
			{
				"type": "unocc",
				"energy": -0.04451,
				"method": "rhf"
			},
			{
				"type": "unocc",
				"energy": -0.02373,
				"method": "rhf"
			},
			{
				"type": "unocc",
				"energy": 0.04862,
				"method": "rhf"
			},
			{
				"type": "unocc",
				"energy": 0.074,
				"method": "rhf"
			},
			{
				"type": "unocc",
				"energy": 0.08748,
				"method": "rhf"
			}
		],
		"cosmo_sigma_profile": { 
			"-0.025": 0.0,
			"-0.024": 0.0,
			"-0.023": 0.0,
			"-0.022": 0.0,
			"-0.021": 0.0,
			"-0.02": 0.0,
			"-0.019": 0.0,
			"-0.018": 0.0,
			"-0.017": 0.0,
			"-0.016": 0.0,
			"-0.015": 0.0,
			"-0.014": 0.0,
			"-0.013": 0.0,
			"-0.012": 0.0,
			"-0.011": 0.0,
			"-0.01": 0.0,
			"-0.009": 0.0,
			"-0.008": 2.19209818196,
			"-0.007": 12.3073467462,
			"-0.006": 17.0525188655,
			"-0.005": 17.9376751171,
			"-0.004": 16.2918372486,
			"-0.003": 11.3754849521,
			"-0.002": 9.85104862349,
			"-0.001": 10.0666791947,
			"0.0": 11.7851483776,
			"0.001": 13.8254856916,
			"0.002": 17.7884087115,
			"0.003": 14.0733026775,
			"0.004": 4.68322397338,
			"0.005": 3.92988756856,
			"0.006": 4.45942344377,
			"0.007": 4.90962796869,
			"0.008": 4.41201277921,
			"0.009": 5.5603838768,
			"0.01": 10.0992918505,
			"0.011": 4.24100780932,
			"0.012": 0.031534152886,
			"0.013": 0.0,
			"0.014": 0.0,
			"0.015": 0.0,
			"0.016": 0.0,
			"0.017": 0.0,
			"0.018": 0.0,
			"0.019": 0.0,
			"0.02": 0.0,
			"0.021": 0.0,
			"0.022": 0.0,
			"0.023": 0.0,
			"0.024": 0.0,
			"0.025": 0.0
		}
	}
}
