{
	 "smiles": "COC1=CC=C(C=C1)C1=CCNCC1", 
	 "Tm": 347.15, 
	 "num_atms": 29, 
	 "gaussian": { 
		 "optdone": 1, 
		 "sigma_profile": "yes", 
		 "theory": "DFT", 
		 "functional": "B3LYP", 
		 "basiset": "6-31G**", 
		 "properties": { 
			 "R2extent": 4360.1437, 
			 "electric_dipole_moment_norm": 2.15436018576, 
			 "electric_quadrupole_moment_norm": 5.22513706232, 
			 "total_energy": -596.262983706, 
			 "HOMO_LUMO_gap": 0.18737, 
			 "cosmo_polarized_energy": -8.87, 
			 "cosmo_cavitation_energy": 30.79, 
			 "cosmo_dispersion_energy": -23.03, 
			 "cosmo_repulsion_energy": 1.8, 
			 "cosmo_total_nonelectrostatic_energy": 9.56, 
			 "SMD_solvation_energy": 2.73 
		},
		"coords": [
			{
				"x": -1.179451276,
				"y": -1.7104764855,
				"z": -3.9980331319,
				"element": "C" 
			},
			{
				"x": -1.0482858535,
				"y": -2.3937518199,
				"z": -2.7626812407,
				"element": "O" 
			},
			{
				"x": -0.5184212787,
				"y": -1.7138018484,
				"z": -1.703552542,
				"element": "C" 
			},
			{
				"x": -0.0896496015,
				"y": -0.383675294,
				"z": -1.73941829,
				"element": "C" 
			},
			{
				"x": 0.4319696423,
				"y": 0.2068770516,
				"z": -0.5851348761,
				"element": "C" 
			},
			{
				"x": 0.5544623761,
				"y": -0.495688846,
				"z": 0.6224336351,
				"element": "C" 
			},
			{
				"x": 0.0988296799,
				"y": -1.8306497619,
				"z": 0.6332864935,
				"element": "C" 
			},
			{
				"x": -0.4226342571,
				"y": -2.4320835728,
				"z": -0.501451807,
				"element": "C" 
			},
			{
				"x": 1.1312051495,
				"y": 0.1455008364,
				"z": 1.8308274636,
				"element": "C" 
			},
			{
				"x": 1.7469161315,
				"y": -0.5592604822,
				"z": 2.7977752316,
				"element": "C" 
			},
			{
				"x": 2.340179614,
				"y": 0.0578958649,
				"z": 4.0432855264,
				"element": "C" 
			},
			{
				"x": 2.4460177357,
				"y": 1.5193158292,
				"z": 4.02544358,
				"element": "N" 
			},
			{
				"x": 1.2656173748,
				"y": 2.1242736246,
				"z": 3.4056311733,
				"element": "C" 
			},
			{
				"x": 1.0223593913,
				"y": 1.6574786404,
				"z": 1.960602921,
				"element": "C" 
			},
			{
				"x": -1.842165274,
				"y": -0.8393800997,
				"z": -3.9118993378,
				"element": "H" 
			},
			{
				"x": -0.2063558723,
				"y": -1.3813199395,
				"z": -4.385497153,
				"element": "H" 
			},
			{
				"x": -1.6182485969,
				"y": -2.4264773139,
				"z": -4.6948790882,
				"element": "H" 
			},
			{
				"x": -0.1540214362,
				"y": 0.2005206635,
				"z": -2.6499348981,
				"element": "H" 
			},
			{
				"x": 0.7632306104,
				"y": 1.2389361677,
				"z": -0.6440314867,
				"element": "H" 
			},
			{
				"x": 0.132166883,
				"y": -2.3986312957,
				"z": 1.5578573109,
				"element": "H" 
			},
			{
				"x": -0.7794197506,
				"y": -3.4569075523,
				"z": -0.481310593,
				"element": "H" 
			},
			{
				"x": 1.8364684241,
				"y": -1.6405463306,
				"z": 2.7106918986,
				"element": "H" 
			},
			{
				"x": 3.3388247069,
				"y": -0.3580310389,
				"z": 4.2283226675,
				"element": "H" 
			},
			{
				"x": 1.7349569944,
				"y": -0.2392038784,
				"z": 4.9159258868,
				"element": "H" 
			},
			{
				"x": 3.2644215668,
				"y": 1.7763042535,
				"z": 3.4768691875,
				"element": "H" 
			},
			{
				"x": 1.3649063962,
				"y": 3.214827617,
				"z": 3.4436959234,
				"element": "H" 
			},
			{
				"x": 0.3968018897,
				"y": 1.8622411125,
				"z": 4.0234100617,
				"element": "H" 
			},
			{
				"x": 1.7476438274,
				"y": 2.1453411953,
				"z": 1.2912575387,
				"element": "H" 
			},
			{
				"x": 0.0327748029,
				"y": 1.9895727031,
				"z": 1.621007945,
				"element": "H" 
			}
		],
		 "valence_orbital": [ 
			{
				"type": "occ",
				"energy": -0.31289,
				"method": "rhf"
			},
			{
				"type": "occ",
				"energy": -0.25515,
				"method": "rhf"
			},
			{
				"type": "occ",
				"energy": -0.24613,
				"method": "rhf"
			},
			{
				"type": "occ",
				"energy": -0.21604,
				"method": "rhf"
			},
			{
				"type": "occ",
				"energy": -0.19853,
				"method": "rhf"
			},
			{
				"type": "unocc",
				"energy": -0.01116,
				"method": "rhf"
			},
			{
				"type": "unocc",
				"energy": 0.00203,
				"method": "rhf"
			},
			{
				"type": "unocc",
				"energy": 0.0599,
				"method": "rhf"
			},
			{
				"type": "unocc",
				"energy": 0.08945,
				"method": "rhf"
			},
			{
				"type": "unocc",
				"energy": 0.09527,
				"method": "rhf"
			}
		],
		"cosmo_sigma_profile": { 
			"-0.025": 0.0,
			"-0.024": 0.0,
			"-0.023": 0.0,
			"-0.022": 0.0,
			"-0.021": 0.0,
			"-0.02": 0.0,
			"-0.019": 0.0,
			"-0.018": 0.0,
			"-0.017": 0.0,
			"-0.016": 0.0,
			"-0.015": 0.0,
			"-0.014": 0.0,
			"-0.013": 0.0,
			"-0.012": 0.0,
			"-0.011": 0.0,
			"-0.01": 0.447858120064,
			"-0.009": 1.32776459649,
			"-0.008": 1.36724662044,
			"-0.007": 1.44190634844,
			"-0.006": 6.03589169866,
			"-0.005": 19.4809942319,
			"-0.004": 25.1039286626,
			"-0.003": 30.5008330239,
			"-0.002": 27.1277491902,
			"-0.001": 23.1852323889,
			"0.0": 15.3746087878,
			"0.001": 11.9509308753,
			"0.002": 10.448818501,
			"0.003": 10.9010435504,
			"0.004": 14.4735931569,
			"0.005": 14.3959829533,
			"0.006": 14.2635772225,
			"0.007": 2.02826824642,
			"0.008": 2.2786100831,
			"0.009": 1.74564837736,
			"0.01": 2.76211525172,
			"0.011": 1.07207684796,
			"0.012": 0.718970273015,
			"0.013": 0.995647554867,
			"0.014": 0.576089146733,
			"0.015": 0.030417195114,
			"0.016": 0.849500892741,
			"0.017": 0.576375033277,
			"0.018": 0.522667707168,
			"0.019": 0.2960096167,
			"0.02": 0.0,
			"0.021": 0.0,
			"0.022": 0.0,
			"0.023": 0.0,
			"0.024": 0.0,
			"0.025": 0.0
		}
	}
}
