{
	 "smiles": "CC1=CC(C(O)=O)=C(C)N1C1=CC(C)=CC(C)=C1", 
	 "Tm": 443.15, 
	 "num_atms": 35, 
	 "gaussian": { 
		 "optdone": 1, 
		 "sigma_profile": "yes", 
		 "theory": "DFT", 
		 "functional": "B3LYP", 
		 "basiset": "6-31G**", 
		 "properties": { 
			 "R2extent": 7101.1619, 
			 "electric_dipole_moment_norm": 8.3909858068, 
			 "electric_quadrupole_moment_norm": 40.2519050379, 
			 "total_energy": -787.071056711, 
			 "HOMO_LUMO_gap": 0.18213, 
			 "cosmo_polarized_energy": -17.1, 
			 "cosmo_cavitation_energy": 38.36, 
			 "cosmo_dispersion_energy": -26.05, 
			 "cosmo_repulsion_energy": 2.05, 
			 "cosmo_total_nonelectrostatic_energy": 14.36, 
			 "SMD_solvation_energy": 7.78 
		},
		"coords": [
			{
				"x": -0.2412954535,
				"y": 3.8886927856,
				"z": -2.0275725239,
				"element": "C" 
			},
			{
				"x": 0.9707067657,
				"y": 3.3360009582,
				"z": -1.3487820257,
				"element": "C" 
			},
			{
				"x": 2.2422750216,
				"y": 3.8371613265,
				"z": -1.254415888,
				"element": "C" 
			},
			{
				"x": 3.0157424411,
				"y": 2.9463198282,
				"z": -0.4480757178,
				"element": "C" 
			},
			{
				"x": 4.4463955066,
				"y": 3.167456827,
				"z": -0.1683872636,
				"element": "C" 
			},
			{
				"x": 4.9755441222,
				"y": 2.5192528485,
				"z": 0.9195412931,
				"element": "O" 
			},
			{
				"x": 5.1611474597,
				"y": 3.8825956851,
				"z": -0.833553402,
				"element": "O" 
			},
			{
				"x": 2.1872054302,
				"y": 1.8895215011,
				"z": -0.0757772672,
				"element": "C" 
			},
			{
				"x": 2.4661302087,
				"y": 0.6222768612,
				"z": 0.6763351158,
				"element": "C" 
			},
			{
				"x": 0.9433679696,
				"y": 2.1385830198,
				"z": -0.6270928827,
				"element": "N" 
			},
			{
				"x": -0.2006484168,
				"y": 1.2856628096,
				"z": -0.4979311662,
				"element": "C" 
			},
			{
				"x": -0.9031076395,
				"y": 1.2463476717,
				"z": 0.7085319279,
				"element": "C" 
			},
			{
				"x": -2.0195955861,
				"y": 0.4138699328,
				"z": 0.8478688874,
				"element": "C" 
			},
			{
				"x": -2.7647146258,
				"y": 0.3355764728,
				"z": 2.1599162034,
				"element": "C" 
			},
			{
				"x": -2.4165857463,
				"y": -0.3595246245,
				"z": -0.2500580276,
				"element": "C" 
			},
			{
				"x": -1.7284404961,
				"y": -0.3275172062,
				"z": -1.4691527162,
				"element": "C" 
			},
			{
				"x": -2.1978513503,
				"y": -1.1509357569,
				"z": -2.645715429,
				"element": "C" 
			},
			{
				"x": -0.6062003628,
				"y": 0.5019565245,
				"z": -1.5805293774,
				"element": "C" 
			},
			{
				"x": 0.0054475237,
				"y": 4.8571211884,
				"z": -2.4686089428,
				"element": "H" 
			},
			{
				"x": -1.07280329,
				"y": 4.037716684,
				"z": -1.3284067502,
				"element": "H" 
			},
			{
				"x": -0.6086800668,
				"y": 3.2386592423,
				"z": -2.8300074556,
				"element": "H" 
			},
			{
				"x": 2.6085751189,
				"y": 4.7533560878,
				"z": -1.6938616487,
				"element": "H" 
			},
			{
				"x": 4.2574817476,
				"y": 2.1709858041,
				"z": 1.4642580744,
				"element": "H" 
			},
			{
				"x": 3.5367476567,
				"y": 0.4049343218,
				"z": 0.6700277606,
				"element": "H" 
			},
			{
				"x": 1.9559661981,
				"y": -0.2286173218,
				"z": 0.2149095122,
				"element": "H" 
			},
			{
				"x": 2.1296853837,
				"y": 0.6615643861,
				"z": 1.721213577,
				"element": "H" 
			},
			{
				"x": -0.5762876842,
				"y": 1.8731560347,
				"z": 1.5333081606,
				"element": "H" 
			},
			{
				"x": -2.6815502875,
				"y": 1.268989332,
				"z": 2.7240950671,
				"element": "H" 
			},
			{
				"x": -3.8270631092,
				"y": 0.1259361569,
				"z": 2.0044416075,
				"element": "H" 
			},
			{
				"x": -2.3643719321,
				"y": -0.4656286464,
				"z": 2.7935569809,
				"element": "H" 
			},
			{
				"x": -3.286773378,
				"y": -1.0053452045,
				"z": -0.1528068864,
				"element": "H" 
			},
			{
				"x": -2.9169542364,
				"y": -0.5908332607,
				"z": -3.2562621571,
				"element": "H" 
			},
			{
				"x": -1.3648216934,
				"y": -1.4287149042,
				"z": -3.2979725418,
				"element": "H" 
			},
			{
				"x": -2.6946623899,
				"y": -2.0689531145,
				"z": -2.3186296267,
				"element": "H" 
			},
			{
				"x": -0.0379108096,
				"y": 0.540275749,
				"z": -2.5054044715,
				"element": "H" 
			}
		],
		 "valence_orbital": [ 
			{
				"type": "occ",
				"energy": -0.26649,
				"method": "rhf"
			},
			{
				"type": "occ",
				"energy": -0.25598,
				"method": "rhf"
			},
			{
				"type": "occ",
				"energy": -0.25201,
				"method": "rhf"
			},
			{
				"type": "occ",
				"energy": -0.23815,
				"method": "rhf"
			},
			{
				"type": "occ",
				"energy": -0.20832,
				"method": "rhf"
			},
			{
				"type": "unocc",
				"energy": -0.02619,
				"method": "rhf"
			},
			{
				"type": "unocc",
				"energy": -0.01934,
				"method": "rhf"
			},
			{
				"type": "unocc",
				"energy": -0.00129,
				"method": "rhf"
			},
			{
				"type": "unocc",
				"energy": 0.04277,
				"method": "rhf"
			},
			{
				"type": "unocc",
				"energy": 0.07235,
				"method": "rhf"
			}
		],
		"cosmo_sigma_profile": { 
			"-0.025": 0.0,
			"-0.024": 0.0,
			"-0.023": 0.0,
			"-0.022": 0.0,
			"-0.021": 0.0,
			"-0.02": 0.0,
			"-0.019": 0.0,
			"-0.018": 0.0,
			"-0.017": 0.0721354487775,
			"-0.016": 0.64659360814,
			"-0.015": 0.570183919731,
			"-0.014": 0.674164862975,
			"-0.013": 0.935894287289,
			"-0.012": 1.08551985691,
			"-0.011": 1.06889017266,
			"-0.01": 1.09553465057,
			"-0.009": 0.988714533953,
			"-0.008": 0.745178121865,
			"-0.007": 1.34368986891,
			"-0.006": 5.70012978036,
			"-0.005": 17.3914368565,
			"-0.004": 33.8807067834,
			"-0.003": 30.9286319876,
			"-0.002": 32.9345566343,
			"-0.001": 36.7024505881,
			"0.0": 32.6593172899,
			"0.001": 18.2521845518,
			"0.002": 14.1109653328,
			"0.003": 11.9128250635,
			"0.004": 11.4842869854,
			"0.005": 9.97952832091,
			"0.006": 6.42743219267,
			"0.007": 4.29000985202,
			"0.008": 3.06090508491,
			"0.009": 2.62378757041,
			"0.01": 3.76369154351,
			"0.011": 4.58151250957,
			"0.012": 5.84996017794,
			"0.013": 5.40229291708,
			"0.014": 1.8490751355,
			"0.015": 0.0750856809059,
			"0.016": 0.0,
			"0.017": 0.0,
			"0.018": 0.0,
			"0.019": 0.0,
			"0.02": 0.0,
			"0.021": 0.0,
			"0.022": 0.0,
			"0.023": 0.0,
			"0.024": 0.0,
			"0.025": 0.0
		}
	}
}
