{
	 "smiles": "CC1=NSC(N)=C1C(O)=O", 
	 "Tm": 432.15, 
	 "num_atms": 16, 
	 "gaussian": { 
		 "optdone": 1, 
		 "sigma_profile": "yes", 
		 "theory": "DFT", 
		 "functional": "B3LYP", 
		 "basiset": "6-31G**", 
		 "properties": { 
			 "R2extent": 1687.6387, 
			 "electric_dipole_moment_norm": 5.38667043729, 
			 "electric_quadrupole_moment_norm": 15.422656196, 
			 "total_energy": -852.286222529, 
			 "HOMO_LUMO_gap": 0.20714, 
			 "cosmo_polarized_energy": -18.46, 
			 "cosmo_cavitation_energy": 21.69, 
			 "cosmo_dispersion_energy": -16.98, 
			 "cosmo_repulsion_energy": 1.33, 
			 "cosmo_total_nonelectrostatic_energy": 6.04, 
			 "SMD_solvation_energy": 3.85 
		},
		"coords": [
			{
				"x": 1.6391243473,
				"y": 1.9153269102,
				"z": 1.0955901739,
				"element": "C" 
			},
			{
				"x": 0.840109329,
				"y": 1.3207010552,
				"z": -0.0263766845,
				"element": "C" 
			},
			{
				"x": 1.1939318288,
				"y": 1.6015344738,
				"z": -1.2661875757,
				"element": "N" 
			},
			{
				"x": 0.1676710399,
				"y": 0.8292513863,
				"z": -2.3519895541,
				"element": "S" 
			},
			{
				"x": -0.7992567441,
				"y": 0.0945496873,
				"z": -1.1143879942,
				"element": "C" 
			},
			{
				"x": -1.9230540718,
				"y": -0.7544559135,
				"z": -1.3356175639,
				"element": "N" 
			},
			{
				"x": -0.3087521872,
				"y": 0.4554947958,
				"z": 0.1218605655,
				"element": "C" 
			},
			{
				"x": -0.8809718853,
				"y": 0.0363484651,
				"z": 1.4422233232,
				"element": "C" 
			},
			{
				"x": -1.9859593649,
				"y": -0.724894886,
				"z": 1.3969857948,
				"element": "O" 
			},
			{
				"x": -0.3813762605,
				"y": 0.3658125919,
				"z": 2.4973265521,
				"element": "O" 
			},
			{
				"x": 1.0024477876,
				"y": 2.5203297001,
				"z": 1.7465688909,
				"element": "H" 
			},
			{
				"x": 2.062437788,
				"y": 1.1300576205,
				"z": 1.7274488792,
				"element": "H" 
			},
			{
				"x": 2.4384487584,
				"y": 2.5305883724,
				"z": 0.6789339082,
				"element": "H" 
			},
			{
				"x": -2.6155069208,
				"y": -0.32462326,
				"z": -1.9441724205,
				"element": "H" 
			},
			{
				"x": -1.652321725,
				"y": -1.6465234658,
				"z": -1.7444371043,
				"element": "H" 
			},
			{
				"x": -2.2383717193,
				"y": -0.8814975333,
				"z": 0.4552308096,
				"element": "H" 
			}
		],
		 "valence_orbital": [ 
			{
				"type": "occ",
				"energy": -0.305,
				"method": "rhf"
			},
			{
				"type": "occ",
				"energy": -0.29103,
				"method": "rhf"
			},
			{
				"type": "occ",
				"energy": -0.28191,
				"method": "rhf"
			},
			{
				"type": "occ",
				"energy": -0.26909,
				"method": "rhf"
			},
			{
				"type": "occ",
				"energy": -0.26706,
				"method": "rhf"
			},
			{
				"type": "unocc",
				"energy": -0.05992,
				"method": "rhf"
			},
			{
				"type": "unocc",
				"energy": -0.01381,
				"method": "rhf"
			},
			{
				"type": "unocc",
				"energy": -0.00428,
				"method": "rhf"
			},
			{
				"type": "unocc",
				"energy": 0.04927,
				"method": "rhf"
			},
			{
				"type": "unocc",
				"energy": 0.07909,
				"method": "rhf"
			}
		],
		"cosmo_sigma_profile": { 
			"-0.025": 0.0,
			"-0.024": 0.0,
			"-0.023": 0.0,
			"-0.022": 0.0,
			"-0.021": 0.0,
			"-0.02": 0.0,
			"-0.019": 0.0,
			"-0.018": 0.0,
			"-0.017": 0.0,
			"-0.016": 0.0,
			"-0.015": 0.997390530081,
			"-0.014": 3.87870855167,
			"-0.013": 3.94249882085,
			"-0.012": 4.09009304204,
			"-0.011": 3.25452103716,
			"-0.01": 2.3552744616,
			"-0.009": 2.29474410564,
			"-0.008": 2.04238337733,
			"-0.007": 2.34206449261,
			"-0.006": 3.57556102526,
			"-0.005": 6.82154429217,
			"-0.004": 9.02505233664,
			"-0.003": 11.5404819236,
			"-0.002": 14.1493498594,
			"-0.001": 18.2773452579,
			"0.0": 16.5947789431,
			"0.001": 9.66792267037,
			"0.002": 8.87053972925,
			"0.003": 6.10916006605,
			"0.004": 3.8950105709,
			"0.005": 4.17246117494,
			"0.006": 3.39769772405,
			"0.007": 3.46990212976,
			"0.008": 4.19176684272,
			"0.009": 5.06372376003,
			"0.01": 3.31400821489,
			"0.011": 5.88907957151,
			"0.012": 5.84603477997,
			"0.013": 4.29469974672,
			"0.014": 1.58092695101,
			"0.015": 0.134252934827,
			"0.016": 0.0,
			"0.017": 0.0,
			"0.018": 0.0,
			"0.019": 0.0,
			"0.02": 0.0,
			"0.021": 0.0,
			"0.022": 0.0,
			"0.023": 0.0,
			"0.024": 0.0,
			"0.025": 0.0
		}
	}
}
