{
	 "smiles": "CCC(Br)C(O)=O", 
	 "Tm": 269.15, 
	 "num_atms": 14, 
	 "gaussian": { 
		 "optdone": 1, 
		 "sigma_profile": "yes", 
		 "theory": "DFT", 
		 "functional": "B3LYP", 
		 "basiset": "6-31G**", 
		 "properties": { 
			 "R2extent": 1683.2605, 
			 "electric_dipole_moment_norm": 1.60539471159, 
			 "electric_quadrupole_moment_norm": 7.41116738105, 
			 "total_energy": -2878.51538919, 
			 "HOMO_LUMO_gap": 0.2279, 
			 "cosmo_polarized_energy": -8.83, 
			 "cosmo_cavitation_energy": 19.56, 
			 "cosmo_dispersion_energy": -14.77, 
			 "cosmo_repulsion_energy": 1.26, 
			 "cosmo_total_nonelectrostatic_energy": 6.05, 
			 "SMD_solvation_energy": 3.56 
		},
		"coords": [
			{
				"x": 1.5071407954,
				"y": -1.5019521478,
				"z": 1.4107845043,
				"element": "C" 
			},
			{
				"x": 1.6876819634,
				"y": -0.5952376561,
				"z": 0.1900498048,
				"element": "C" 
			},
			{
				"x": 0.8415074734,
				"y": 0.6748784411,
				"z": 0.1400896214,
				"element": "C" 
			},
			{
				"x": 1.1391934345,
				"y": 1.8303023383,
				"z": 1.746047665,
				"element": "Br" 
			},
			{
				"x": -0.6572698928,
				"y": 0.4434372925,
				"z": 0.0163933408,
				"element": "C" 
			},
			{
				"x": -1.2990869551,
				"y": 1.565339689,
				"z": -0.3709629532,
				"element": "O" 
			},
			{
				"x": -1.2226693751,
				"y": -0.6120975819,
				"z": 0.1962383346,
				"element": "O" 
			},
			{
				"x": 2.166100769,
				"y": -2.3712854865,
				"z": 1.3238443367,
				"element": "H" 
			},
			{
				"x": 1.7669775574,
				"y": -0.9727763936,
				"z": 2.3315388839,
				"element": "H" 
			},
			{
				"x": 0.4777947248,
				"y": -1.8544111459,
				"z": 1.4895656017,
				"element": "H" 
			},
			{
				"x": 2.7363534114,
				"y": -0.2912778557,
				"z": 0.1029767105,
				"element": "H" 
			},
			{
				"x": 1.4466688712,
				"y": -1.1554798678,
				"z": -0.7238792365,
				"element": "H" 
			},
			{
				"x": 1.153033687,
				"y": 1.321676854,
				"z": -0.680900621,
				"element": "H" 
			},
			{
				"x": -2.2434264645,
				"y": 1.3396835206,
				"z": -0.4159859931,
				"element": "H" 
			}
		],
		 "valence_orbital": [ 
			{
				"type": "occ",
				"energy": -0.34559,
				"method": "rhf"
			},
			{
				"type": "occ",
				"energy": -0.33209,
				"method": "rhf"
			},
			{
				"type": "occ",
				"energy": -0.3003,
				"method": "rhf"
			},
			{
				"type": "occ",
				"energy": -0.27984,
				"method": "rhf"
			},
			{
				"type": "occ",
				"energy": -0.27369,
				"method": "rhf"
			},
			{
				"type": "unocc",
				"energy": -0.04579,
				"method": "rhf"
			},
			{
				"type": "unocc",
				"energy": 0.03435,
				"method": "rhf"
			},
			{
				"type": "unocc",
				"energy": 0.06997,
				"method": "rhf"
			},
			{
				"type": "unocc",
				"energy": 0.0932,
				"method": "rhf"
			},
			{
				"type": "unocc",
				"energy": 0.14095,
				"method": "rhf"
			}
		],
		"cosmo_sigma_profile": { 
			"-0.025": 0.0,
			"-0.024": 0.0,
			"-0.023": 0.0,
			"-0.022": 0.0,
			"-0.021": 0.0,
			"-0.02": 0.0,
			"-0.019": 0.363538781616,
			"-0.018": 1.0570633721,
			"-0.017": 0.927397462093,
			"-0.016": 0.431644504915,
			"-0.015": 0.983433148169,
			"-0.014": 1.24076866178,
			"-0.013": 0.167848108831,
			"-0.012": 0.946563743442,
			"-0.011": 0.933742061121,
			"-0.01": 0.491307086417,
			"-0.009": 2.0236555058,
			"-0.008": 3.7206651014,
			"-0.007": 3.90892062028,
			"-0.006": 3.70766972994,
			"-0.005": 5.94446421477,
			"-0.004": 6.98526762436,
			"-0.003": 10.5026753316,
			"-0.002": 12.833960875,
			"-0.001": 11.9544125527,
			"0.0": 12.58256133,
			"0.001": 14.6223415157,
			"0.002": 9.99286772448,
			"0.003": 7.62717234455,
			"0.004": 9.93395447212,
			"0.005": 10.6548388436,
			"0.006": 5.06398831997,
			"0.007": 3.7177680621,
			"0.008": 3.9043275229,
			"0.009": 2.79966976881,
			"0.01": 3.11310813761,
			"0.011": 3.27898909386,
			"0.012": 0.174261263924,
			"0.013": 0.0,
			"0.014": 0.0,
			"0.015": 0.0,
			"0.016": 0.0,
			"0.017": 0.0,
			"0.018": 0.0,
			"0.019": 0.0,
			"0.02": 0.0,
			"0.021": 0.0,
			"0.022": 0.0,
			"0.023": 0.0,
			"0.024": 0.0,
			"0.025": 0.0
		}
	}
}
