{
	 "smiles": "FC1=CC=CC(Cl)=C1CCl", 
	 "Tm": 280.15, 
	 "num_atms": 15, 
	 "gaussian": { 
		 "optdone": 1, 
		 "sigma_profile": "yes", 
		 "theory": "DFT", 
		 "functional": "B3LYP", 
		 "basiset": "6-31G**", 
		 "properties": { 
			 "R2extent": 2630.0833, 
			 "electric_dipole_moment_norm": 3.2083708171, 
			 "electric_quadrupole_moment_norm": 8.44881720361, 
			 "total_energy": -1289.98069072, 
			 "HOMO_LUMO_gap": 0.21361, 
			 "cosmo_polarized_energy": -5.95, 
			 "cosmo_cavitation_energy": 22.99, 
			 "cosmo_dispersion_energy": -16.88, 
			 "cosmo_repulsion_energy": 1.35, 
			 "cosmo_total_nonelectrostatic_energy": 7.46, 
			 "SMD_solvation_energy": 3.79 
		},
		"coords": [
			{
				"x": 0.9567055758,
				"y": 0.5930744947,
				"z": 0.7042535517,
				"element": "F" 
			},
			{
				"x": 0.1360908883,
				"y": -0.1743729545,
				"z": -0.0410110796,
				"element": "C" 
			},
			{
				"x": 0.6886986826,
				"y": -0.9495460023,
				"z": -1.0503347431,
				"element": "C" 
			},
			{
				"x": -0.1639210734,
				"y": -1.743883298,
				"z": -1.8154911215,
				"element": "C" 
			},
			{
				"x": -1.5360577999,
				"y": -1.7578244117,
				"z": -1.5656358639,
				"element": "C" 
			},
			{
				"x": -2.0528213385,
				"y": -0.9643284308,
				"z": -0.5417776797,
				"element": "C" 
			},
			{
				"x": -3.7847088728,
				"y": -1.0054829646,
				"z": -0.2568692886,
				"element": "Cl" 
			},
			{
				"x": -1.2324570535,
				"y": -0.1497588459,
				"z": 0.2559600736,
				"element": "C" 
			},
			{
				"x": -1.7355673295,
				"y": 0.7160990208,
				"z": 1.3666577124,
				"element": "C" 
			},
			{
				"x": -2.204169794,
				"y": 2.3879027768,
				"z": 0.7794197637,
				"element": "Cl" 
			},
			{
				"x": 1.7587401126,
				"y": -0.9192021017,
				"z": -1.2204506018,
				"element": "H" 
			},
			{
				"x": 0.2420152332,
				"y": -2.3585962727,
				"z": -2.6125644105,
				"element": "H" 
			},
			{
				"x": -2.2040741824,
				"y": -2.3735604322,
				"z": -2.1561667477,
				"element": "H" 
			},
			{
				"x": -0.9628900933,
				"y": 0.8761848515,
				"z": 2.1153507874,
				"element": "H" 
			},
			{
				"x": -2.6300829552,
				"y": 0.3035945707,
				"z": 1.8280596474,
				"element": "H" 
			}
		],
		 "valence_orbital": [ 
			{
				"type": "occ",
				"energy": -0.32659,
				"method": "rhf"
			},
			{
				"type": "occ",
				"energy": -0.29947,
				"method": "rhf"
			},
			{
				"type": "occ",
				"energy": -0.29447,
				"method": "rhf"
			},
			{
				"type": "occ",
				"energy": -0.26759,
				"method": "rhf"
			},
			{
				"type": "occ",
				"energy": -0.25917,
				"method": "rhf"
			},
			{
				"type": "unocc",
				"energy": -0.04556,
				"method": "rhf"
			},
			{
				"type": "unocc",
				"energy": -0.02139,
				"method": "rhf"
			},
			{
				"type": "unocc",
				"energy": 0.01524,
				"method": "rhf"
			},
			{
				"type": "unocc",
				"energy": 0.03568,
				"method": "rhf"
			},
			{
				"type": "unocc",
				"energy": 0.09438,
				"method": "rhf"
			}
		],
		"cosmo_sigma_profile": { 
			"-0.025": 0.0,
			"-0.024": 0.0,
			"-0.023": 0.0,
			"-0.022": 0.0,
			"-0.021": 0.0,
			"-0.02": 0.0,
			"-0.019": 0.0,
			"-0.018": 0.0,
			"-0.017": 0.0,
			"-0.016": 0.0,
			"-0.015": 0.0,
			"-0.014": 0.0,
			"-0.013": 0.0,
			"-0.012": 0.0,
			"-0.011": 0.0,
			"-0.01": 0.0,
			"-0.009": 0.0954717254268,
			"-0.008": 4.11156245846,
			"-0.007": 10.4068588824,
			"-0.006": 9.44519244107,
			"-0.005": 10.9934289968,
			"-0.004": 8.10618095233,
			"-0.003": 8.52802581294,
			"-0.002": 8.25622360613,
			"-0.001": 12.6323862863,
			"0.0": 16.8810412916,
			"0.001": 21.4504158815,
			"0.002": 21.8311271642,
			"0.003": 20.8448188982,
			"0.004": 15.8309943505,
			"0.005": 7.75833673093,
			"0.006": 9.87588045149,
			"0.007": 2.14287420067,
			"0.008": 0.0,
			"0.009": 0.0,
			"0.01": 0.0,
			"0.011": 0.0,
			"0.012": 0.0,
			"0.013": 0.0,
			"0.014": 0.0,
			"0.015": 0.0,
			"0.016": 0.0,
			"0.017": 0.0,
			"0.018": 0.0,
			"0.019": 0.0,
			"0.02": 0.0,
			"0.021": 0.0,
			"0.022": 0.0,
			"0.023": 0.0,
			"0.024": 0.0,
			"0.025": 0.0
		}
	}
}
