{
	 "smiles": "CC(=O)C1=CC2=C(NC(=O)N2)C=C1", 
	 "Tm": 538.15, 
	 "num_atms": 21, 
	 "gaussian": { 
		 "optdone": 1, 
		 "sigma_profile": "yes", 
		 "theory": "DFT", 
		 "functional": "B3LYP", 
		 "basiset": "6-31G**", 
		 "properties": { 
			 "R2extent": 3206.9392, 
			 "electric_dipole_moment_norm": 1.00552427619, 
			 "electric_quadrupole_moment_norm": 26.1413485739, 
			 "total_energy": -607.768992651, 
			 "HOMO_LUMO_gap": 0.16759, 
			 "cosmo_polarized_energy": -19.11, 
			 "cosmo_cavitation_energy": 25.69, 
			 "cosmo_dispersion_energy": -19.21, 
			 "cosmo_repulsion_energy": 1.51, 
			 "cosmo_total_nonelectrostatic_energy": 7.99, 
			 "SMD_solvation_energy": 5.64 
		},
		"coords": [
			{
				"x": 1.2181178857,
				"y": 2.9972175109,
				"z": -0.3011873866,
				"element": "C" 
			},
			{
				"x": 0.5652800885,
				"y": 2.4010414542,
				"z": -1.5391766142,
				"element": "C" 
			},
			{
				"x": 0.4780044212,
				"y": 3.0584470899,
				"z": -2.5666509124,
				"element": "O" 
			},
			{
				"x": 0.0356626217,
				"y": 1.0037366341,
				"z": -1.4746897372,
				"element": "C" 
			},
			{
				"x": 0.1219462643,
				"y": 0.2219407583,
				"z": -0.3045218481,
				"element": "C" 
			},
			{
				"x": -0.3962649073,
				"y": -1.0617935912,
				"z": -0.3391985938,
				"element": "C" 
			},
			{
				"x": -0.9956334126,
				"y": -1.5797030384,
				"z": -1.5101501176,
				"element": "C" 
			},
			{
				"x": -1.4027099743,
				"y": -2.8684235919,
				"z": -1.2096209565,
				"element": "N" 
			},
			{
				"x": -1.0914137564,
				"y": -3.2097822435,
				"z": 0.1125318914,
				"element": "C" 
			},
			{
				"x": -1.313444712,
				"y": -4.2599917494,
				"z": 0.6824751205,
				"element": "O" 
			},
			{
				"x": -0.4699588097,
				"y": -2.0679103743,
				"z": 0.6190322745,
				"element": "N" 
			},
			{
				"x": -1.0850073983,
				"y": -0.8150251792,
				"z": -2.6694967514,
				"element": "C" 
			},
			{
				"x": -0.5630039627,
				"y": 0.477045558,
				"z": -2.6333323728,
				"element": "C" 
			},
			{
				"x": 2.0853193904,
				"y": 2.4052350539,
				"z": 0.012242733,
				"element": "H" 
			},
			{
				"x": 0.5175971124,
				"y": 3.0239341444,
				"z": 0.5409936105,
				"element": "H" 
			},
			{
				"x": 1.540120311,
				"y": 4.0123261244,
				"z": -0.5342360707,
				"element": "H" 
			},
			{
				"x": 0.5793071599,
				"y": 0.6078526512,
				"z": 0.5997844329,
				"element": "H" 
			},
			{
				"x": -1.8664699642,
				"y": -3.5183193856,
				"z": -1.8241304492,
				"element": "H" 
			},
			{
				"x": -0.1349252005,
				"y": -2.030195445,
				"z": 1.5680602666,
				"element": "H" 
			},
			{
				"x": -1.5446619098,
				"y": -1.2102111645,
				"z": -3.5698030746,
				"element": "H" 
			},
			{
				"x": -0.6061612472,
				"y": 1.1157787838,
				"z": -3.5084254443,
				"element": "H" 
			}
		],
		 "valence_orbital": [ 
			{
				"type": "occ",
				"energy": -0.31085,
				"method": "rhf"
			},
			{
				"type": "occ",
				"energy": -0.2792,
				"method": "rhf"
			},
			{
				"type": "occ",
				"energy": -0.25365,
				"method": "rhf"
			},
			{
				"type": "occ",
				"energy": -0.2474,
				"method": "rhf"
			},
			{
				"type": "occ",
				"energy": -0.22026,
				"method": "rhf"
			},
			{
				"type": "unocc",
				"energy": -0.05267,
				"method": "rhf"
			},
			{
				"type": "unocc",
				"energy": -0.01309,
				"method": "rhf"
			},
			{
				"type": "unocc",
				"energy": 0.04609,
				"method": "rhf"
			},
			{
				"type": "unocc",
				"energy": 0.05866,
				"method": "rhf"
			},
			{
				"type": "unocc",
				"energy": 0.06739,
				"method": "rhf"
			}
		],
		"cosmo_sigma_profile": { 
			"-0.025": 0.0,
			"-0.024": 0.0,
			"-0.023": 0.0,
			"-0.022": 0.0,
			"-0.021": 0.0,
			"-0.02": 0.0,
			"-0.019": 0.0,
			"-0.018": 0.0,
			"-0.017": 0.399849091771,
			"-0.016": 2.97307964875,
			"-0.015": 2.59630734599,
			"-0.014": 2.46131534487,
			"-0.013": 1.95888736378,
			"-0.012": 1.81928815102,
			"-0.011": 2.33589895034,
			"-0.01": 1.80009488965,
			"-0.009": 2.82596728816,
			"-0.008": 3.65768585638,
			"-0.007": 6.01064700284,
			"-0.006": 9.59831305398,
			"-0.005": 11.293117326,
			"-0.004": 10.6558893524,
			"-0.003": 10.6169367429,
			"-0.002": 13.705917494,
			"-0.001": 15.6024028851,
			"0.0": 15.0621910596,
			"0.001": 13.986568172,
			"0.002": 11.6224293789,
			"0.003": 12.6357921714,
			"0.004": 10.2281330657,
			"0.005": 3.89514162533,
			"0.006": 2.64339615765,
			"0.007": 2.48003885186,
			"0.008": 3.77753630772,
			"0.009": 1.73945702218,
			"0.01": 2.89412409626,
			"0.011": 4.56667462871,
			"0.012": 6.09012222858,
			"0.013": 9.31244791832,
			"0.014": 4.0417908615,
			"0.015": 0.0158148183127,
			"0.016": 0.0,
			"0.017": 0.0,
			"0.018": 0.0,
			"0.019": 0.0,
			"0.02": 0.0,
			"0.021": 0.0,
			"0.022": 0.0,
			"0.023": 0.0,
			"0.024": 0.0,
			"0.025": 0.0
		}
	}
}
