{
	 "smiles": "OCC#CC1=CC=C(OC2=CC=CC=C2)C=C1", 
	 "Tm": 316.15, 
	 "num_atms": 29, 
	 "gaussian": { 
		 "optdone": 1, 
		 "sigma_profile": "yes", 
		 "theory": "DFT", 
		 "functional": "B3LYP", 
		 "basiset": "6-31G**", 
		 "properties": { 
			 "R2extent": 7589.2305, 
			 "electric_dipole_moment_norm": 1.91971351508, 
			 "electric_quadrupole_moment_norm": 12.7561918632, 
			 "total_energy": -729.192260493, 
			 "HOMO_LUMO_gap": 0.18363, 
			 "cosmo_polarized_energy": -10.74, 
			 "cosmo_cavitation_energy": 35.14, 
			 "cosmo_dispersion_energy": -25.13, 
			 "cosmo_repulsion_energy": 2.0, 
			 "cosmo_total_nonelectrostatic_energy": 12.01, 
			 "SMD_solvation_energy": 6.5 
		},
		"coords": [
			{
				"x": 5.1525100527,
				"y": -3.8564552866,
				"z": -0.7597017494,
				"element": "O" 
			},
			{
				"x": 5.098553249,
				"y": -2.4935032714,
				"z": -1.1702379161,
				"element": "C" 
			},
			{
				"x": 3.7363660585,
				"y": -1.9595203665,
				"z": -1.2627291702,
				"element": "C" 
			},
			{
				"x": 2.589916968,
				"y": -1.5733411808,
				"z": -1.3628392872,
				"element": "C" 
			},
			{
				"x": 1.2470361437,
				"y": -1.099565168,
				"z": -1.466959086,
				"element": "C" 
			},
			{
				"x": 0.6796838256,
				"y": -0.8020062003,
				"z": -2.7223660082,
				"element": "C" 
			},
			{
				"x": -0.6246031238,
				"y": -0.3351228024,
				"z": -2.8216873089,
				"element": "C" 
			},
			{
				"x": -1.393332544,
				"y": -0.1619497125,
				"z": -1.6655313248,
				"element": "C" 
			},
			{
				"x": -2.6942283894,
				"y": 0.2423918191,
				"z": -1.8575631442,
				"element": "O" 
			},
			{
				"x": -3.3792512565,
				"y": 0.9334422,
				"z": -0.8718914525,
				"element": "C" 
			},
			{
				"x": -2.8366310506,
				"y": 2.0582913376,
				"z": -0.2439345424,
				"element": "C" 
			},
			{
				"x": -3.610233286,
				"y": 2.759349921,
				"z": 0.681500484,
				"element": "C" 
			},
			{
				"x": -4.9146030551,
				"y": 2.3516823037,
				"z": 0.9714100589,
				"element": "C" 
			},
			{
				"x": -5.4470256485,
				"y": 1.2322925586,
				"z": 0.3286315054,
				"element": "C" 
			},
			{
				"x": -4.6811155517,
				"y": 0.5165424364,
				"z": -0.592300442,
				"element": "C" 
			},
			{
				"x": -0.8550992974,
				"y": -0.4611156329,
				"z": -0.4086921001,
				"element": "C" 
			},
			{
				"x": 0.454603915,
				"y": -0.9213778548,
				"z": -0.3166773746,
				"element": "C" 
			},
			{
				"x": 4.554602575,
				"y": -4.3525138876,
				"z": -1.3343874487,
				"element": "H" 
			},
			{
				"x": 5.6725067619,
				"y": -1.9362445546,
				"z": -0.4211924727,
				"element": "H" 
			},
			{
				"x": 5.6090861792,
				"y": -2.3442489656,
				"z": -2.1358720244,
				"element": "H" 
			},
			{
				"x": 1.2764506071,
				"y": -0.9353860399,
				"z": -3.6188282312,
				"element": "H" 
			},
			{
				"x": -1.0678682792,
				"y": -0.1011090987,
				"z": -3.7838043763,
				"element": "H" 
			},
			{
				"x": -1.8274829068,
				"y": 2.377250439,
				"z": -0.4824300844,
				"element": "H" 
			},
			{
				"x": -3.1917931836,
				"y": 3.6341929147,
				"z": 1.1707812164,
				"element": "H" 
			},
			{
				"x": -5.5116658153,
				"y": 2.9043844146,
				"z": 1.6902067624,
				"element": "H" 
			},
			{
				"x": -6.4610615998,
				"y": 0.9094680996,
				"z": 0.5457712451,
				"element": "H" 
			},
			{
				"x": -5.0744989559,
				"y": -0.3560586978,
				"z": -1.1031338066,
				"element": "H" 
			},
			{
				"x": -1.4561361316,
				"y": -0.3378560993,
				"z": 0.48500556,
				"element": "H" 
			},
			{
				"x": 0.8755137396,
				"y": -1.1555136244,
				"z": 0.6557525185,
				"element": "H" 
			}
		],
		 "valence_orbital": [ 
			{
				"type": "occ",
				"energy": -0.263,
				"method": "rhf"
			},
			{
				"type": "occ",
				"energy": -0.25864,
				"method": "rhf"
			},
			{
				"type": "occ",
				"energy": -0.25752,
				"method": "rhf"
			},
			{
				"type": "occ",
				"energy": -0.24527,
				"method": "rhf"
			},
			{
				"type": "occ",
				"energy": -0.2135,
				"method": "rhf"
			},
			{
				"type": "unocc",
				"energy": -0.02987,
				"method": "rhf"
			},
			{
				"type": "unocc",
				"energy": -0.01573,
				"method": "rhf"
			},
			{
				"type": "unocc",
				"energy": -0.0036,
				"method": "rhf"
			},
			{
				"type": "unocc",
				"energy": -0.00065,
				"method": "rhf"
			},
			{
				"type": "unocc",
				"energy": 0.05399,
				"method": "rhf"
			}
		],
		"cosmo_sigma_profile": { 
			"-0.025": 0.0,
			"-0.024": 0.0,
			"-0.023": 0.0,
			"-0.022": 0.0,
			"-0.021": 0.0,
			"-0.02": 0.0,
			"-0.019": 0.0,
			"-0.018": 0.0,
			"-0.017": 0.0,
			"-0.016": 0.174087073939,
			"-0.015": 1.15138863205,
			"-0.014": 0.614851465913,
			"-0.013": 1.17974753353,
			"-0.012": 0.890078673463,
			"-0.011": 0.825037228956,
			"-0.01": 0.522652517206,
			"-0.009": 0.622803672293,
			"-0.008": 0.878487648724,
			"-0.007": 5.21210182305,
			"-0.006": 20.1880260626,
			"-0.005": 22.3219896879,
			"-0.004": 24.1061425727,
			"-0.003": 18.080146872,
			"-0.002": 17.4580309623,
			"-0.001": 15.2258443789,
			"0.0": 16.376681515,
			"0.001": 18.0899896006,
			"0.002": 21.5240405709,
			"0.003": 28.2513530538,
			"0.004": 26.7427810153,
			"0.005": 17.5421307907,
			"0.006": 8.92751381059,
			"0.007": 3.51506631575,
			"0.008": 1.46012463534,
			"0.009": 2.14452962523,
			"0.01": 1.46726335831,
			"0.011": 1.186603208,
			"0.012": 1.81139231866,
			"0.013": 2.04653036089,
			"0.014": 1.62135334144,
			"0.015": 0.0,
			"0.016": 0.0,
			"0.017": 0.0,
			"0.018": 0.0,
			"0.019": 0.0,
			"0.02": 0.0,
			"0.021": 0.0,
			"0.022": 0.0,
			"0.023": 0.0,
			"0.024": 0.0,
			"0.025": 0.0
		}
	}
}
