{
	 "smiles": "OC(=O)CCN1C(=O)COC2=C1C=CC=C2", 
	 "Tm": 442.15, 
	 "num_atms": 27, 
	 "gaussian": { 
		 "optdone": 1, 
		 "sigma_profile": "yes", 
		 "theory": "DFT", 
		 "functional": "B3LYP", 
		 "basiset": "6-31G**", 
		 "properties": { 
			 "R2extent": 4487.7223, 
			 "electric_dipole_moment_norm": 3.51648555379, 
			 "electric_quadrupole_moment_norm": 12.6767047753, 
			 "total_energy": -781.465181693, 
			 "HOMO_LUMO_gap": 0.19765, 
			 "cosmo_polarized_energy": -15.8, 
			 "cosmo_cavitation_energy": 31.05, 
			 "cosmo_dispersion_energy": -22.43, 
			 "cosmo_repulsion_energy": 1.75, 
			 "cosmo_total_nonelectrostatic_energy": 10.37, 
			 "SMD_solvation_energy": 6.98 
		},
		"coords": [
			{
				"x": -1.4220505723,
				"y": -0.6858681522,
				"z": 2.5951303577,
				"element": "O" 
			},
			{
				"x": -1.5171842842,
				"y": -1.4841743142,
				"z": 1.4973534489,
				"element": "C" 
			},
			{
				"x": -2.1667107126,
				"y": -2.5037001917,
				"z": 1.4914728586,
				"element": "O" 
			},
			{
				"x": -0.7377661795,
				"y": -0.9132599964,
				"z": 0.3327242298,
				"element": "C" 
			},
			{
				"x": 0.7340151359,
				"y": -0.6096485915,
				"z": 0.6815919923,
				"element": "C" 
			},
			{
				"x": 1.411200768,
				"y": 0.1450906736,
				"z": -0.3739321147,
				"element": "N" 
			},
			{
				"x": 1.9763335333,
				"y": -0.5703679313,
				"z": -1.4077601985,
				"element": "C" 
			},
			{
				"x": 1.9398660305,
				"y": -1.790699949,
				"z": -1.4747406538,
				"element": "O" 
			},
			{
				"x": 2.6118653562,
				"y": 0.2714486095,
				"z": -2.5057157857,
				"element": "C" 
			},
			{
				"x": 3.1636976604,
				"y": 1.4995773915,
				"z": -2.0411176774,
				"element": "O" 
			},
			{
				"x": 2.3238872134,
				"y": 2.2219237372,
				"z": -1.233451126,
				"element": "C" 
			},
			{
				"x": 1.4190076889,
				"y": 1.5633817045,
				"z": -0.3789298482,
				"element": "C" 
			},
			{
				"x": 0.6004345726,
				"y": 2.3326731891,
				"z": 0.4569953935,
				"element": "C" 
			},
			{
				"x": 0.6993018004,
				"y": 3.7259457151,
				"z": 0.4525009108,
				"element": "C" 
			},
			{
				"x": 1.6104013449,
				"y": 4.3660328547,
				"z": -0.3863835562,
				"element": "C" 
			},
			{
				"x": 2.4193289599,
				"y": 3.609841668,
				"z": -1.2360289134,
				"element": "C" 
			},
			{
				"x": -1.9519277008,
				"y": -1.1141270679,
				"z": 3.2885468804,
				"element": "H" 
			},
			{
				"x": -1.2384415919,
				"y": 0.0119673592,
				"z": 0.0233815365,
				"element": "H" 
			},
			{
				"x": -0.7904129978,
				"y": -1.6254328499,
				"z": -0.4916250814,
				"element": "H" 
			},
			{
				"x": 1.2787958113,
				"y": -1.5477587563,
				"z": 0.8003126071,
				"element": "H" 
			},
			{
				"x": 0.806668371,
				"y": -0.0450915048,
				"z": 1.6116485769,
				"element": "H" 
			},
			{
				"x": 1.8560214038,
				"y": 0.4594821536,
				"z": -3.284917334,
				"element": "H" 
			},
			{
				"x": 3.4269379515,
				"y": -0.3038748681,
				"z": -2.9445778766,
				"element": "H" 
			},
			{
				"x": -0.1091619529,
				"y": 1.8519776998,
				"z": 1.1206854436,
				"element": "H" 
			},
			{
				"x": 0.0594986276,
				"y": 4.3049836762,
				"z": 1.1108119643,
				"element": "H" 
			},
			{
				"x": 1.6880536087,
				"y": 5.4486056637,
				"z": -0.3900480528,
				"element": "H" 
			},
			{
				"x": 3.1375401537,
				"y": 4.0736720773,
				"z": -1.9040279817,
				"element": "H" 
			}
		],
		 "valence_orbital": [ 
			{
				"type": "occ",
				"energy": -0.31012,
				"method": "rhf"
			},
			{
				"type": "occ",
				"energy": -0.28182,
				"method": "rhf"
			},
			{
				"type": "occ",
				"energy": -0.26627,
				"method": "rhf"
			},
			{
				"type": "occ",
				"energy": -0.24573,
				"method": "rhf"
			},
			{
				"type": "occ",
				"energy": -0.21906,
				"method": "rhf"
			},
			{
				"type": "unocc",
				"energy": -0.02141,
				"method": "rhf"
			},
			{
				"type": "unocc",
				"energy": -0.00875,
				"method": "rhf"
			},
			{
				"type": "unocc",
				"energy": -0.00232,
				"method": "rhf"
			},
			{
				"type": "unocc",
				"energy": 0.02393,
				"method": "rhf"
			},
			{
				"type": "unocc",
				"energy": 0.06449,
				"method": "rhf"
			}
		],
		"cosmo_sigma_profile": { 
			"-0.025": 0.0,
			"-0.024": 0.0,
			"-0.023": 0.0,
			"-0.022": 0.0,
			"-0.021": 0.0,
			"-0.02": 0.0,
			"-0.019": 0.051074139565,
			"-0.018": 0.770450608026,
			"-0.017": 1.20996207066,
			"-0.016": 0.577277505426,
			"-0.015": 0.694141276891,
			"-0.014": 0.348681430709,
			"-0.013": 0.838733720429,
			"-0.012": 1.07789979226,
			"-0.011": 0.996844376618,
			"-0.01": 0.486047406487,
			"-0.009": 0.3506708049,
			"-0.008": 3.59335112457,
			"-0.007": 9.386159435,
			"-0.006": 16.2059752701,
			"-0.005": 20.3809851007,
			"-0.004": 23.0837484327,
			"-0.003": 20.6138572017,
			"-0.002": 16.2260163845,
			"-0.001": 12.257120574,
			"0.0": 10.1950895176,
			"0.001": 14.8637679838,
			"0.002": 11.7412019374,
			"0.003": 12.7494956235,
			"0.004": 13.7385192278,
			"0.005": 12.644293062,
			"0.006": 6.12288260633,
			"0.007": 5.47745586039,
			"0.008": 3.06506032111,
			"0.009": 4.19624244291,
			"0.01": 5.04152168426,
			"0.011": 7.03819045702,
			"0.012": 7.36009408057,
			"0.013": 3.19596559466,
			"0.014": 0.290762848308,
			"0.015": 0.0,
			"0.016": 0.0,
			"0.017": 0.0,
			"0.018": 0.0,
			"0.019": 0.0,
			"0.02": 0.0,
			"0.021": 0.0,
			"0.022": 0.0,
			"0.023": 0.0,
			"0.024": 0.0,
			"0.025": 0.0
		}
	}
}
