{
	 "smiles": "CC(C)OC(C)=O", 
	 "Tm": 199.95, 
	 "num_atms": 17, 
	 "gaussian": { 
		 "optdone": 1, 
		 "sigma_profile": "yes", 
		 "theory": "DFT", 
		 "functional": "B3LYP", 
		 "basiset": "6-31G**", 
		 "properties": { 
			 "R2extent": 1070.1943, 
			 "electric_dipole_moment_norm": 1.74729907572, 
			 "electric_quadrupole_moment_norm": 6.51495472049, 
			 "total_energy": -347.029813617, 
			 "HOMO_LUMO_gap": 0.27627, 
			 "cosmo_polarized_energy": -5.87, 
			 "cosmo_cavitation_energy": 19.72, 
			 "cosmo_dispersion_energy": -14.44, 
			 "cosmo_repulsion_energy": 1.25, 
			 "cosmo_total_nonelectrostatic_energy": 6.53, 
			 "SMD_solvation_energy": 4.86 
		},
		"coords": [
			{
				"x": -0.7949829749,
				"y": -0.392715424,
				"z": -1.9894831769,
				"element": "C" 
			},
			{
				"x": -1.3445344979,
				"y": 0.5574732587,
				"z": -0.9276523811,
				"element": "C" 
			},
			{
				"x": -1.6782010802,
				"y": 1.9522818631,
				"z": -1.4525524639,
				"element": "C" 
			},
			{
				"x": -0.473766113,
				"y": 0.6166000756,
				"z": 0.2463221378,
				"element": "O" 
			},
			{
				"x": 0.7778801122,
				"y": 1.1117935028,
				"z": 0.1410800781,
				"element": "C" 
			},
			{
				"x": 1.4728169399,
				"y": 1.0661383264,
				"z": 1.4848074015,
				"element": "C" 
			},
			{
				"x": 1.2792960145,
				"y": 1.5339101795,
				"z": -0.8801566724,
				"element": "O" 
			},
			{
				"x": -0.5530848634,
				"y": -1.3633493432,
				"z": -1.5459014319,
				"element": "H" 
			},
			{
				"x": -1.5551532369,
				"y": -0.5535314939,
				"z": -2.7612329595,
				"element": "H" 
			},
			{
				"x": 0.1012926155,
				"y": 0.0160604556,
				"z": -2.4580755332,
				"element": "H" 
			},
			{
				"x": -2.2506293077,
				"y": 0.1178842724,
				"z": -0.4981760654,
				"element": "H" 
			},
			{
				"x": -2.4707434601,
				"y": 1.8772641588,
				"z": -2.2045991894,
				"element": "H" 
			},
			{
				"x": -0.804728265,
				"y": 2.4214670366,
				"z": -1.9073965613,
				"element": "H" 
			},
			{
				"x": -2.0418051904,
				"y": 2.5896385106,
				"z": -0.6407783708,
				"element": "H" 
			},
			{
				"x": 2.4805326719,
				"y": 1.4681213624,
				"z": 1.3846175559,
				"element": "H" 
			},
			{
				"x": 0.9090021546,
				"y": 1.648669605,
				"z": 2.2194237626,
				"element": "H" 
			},
			{
				"x": 1.5156084812,
				"y": 0.0360936536,
				"z": 1.8509538702,
				"element": "H" 
			}
		],
		 "valence_orbital": [ 
			{
				"type": "occ",
				"energy": -0.35627,
				"method": "rhf"
			},
			{
				"type": "occ",
				"energy": -0.34911,
				"method": "rhf"
			},
			{
				"type": "occ",
				"energy": -0.3305,
				"method": "rhf"
			},
			{
				"type": "occ",
				"energy": -0.29268,
				"method": "rhf"
			},
			{
				"type": "occ",
				"energy": -0.25993,
				"method": "rhf"
			},
			{
				"type": "unocc",
				"energy": 0.01634,
				"method": "rhf"
			},
			{
				"type": "unocc",
				"energy": 0.09428,
				"method": "rhf"
			},
			{
				"type": "unocc",
				"energy": 0.11468,
				"method": "rhf"
			},
			{
				"type": "unocc",
				"energy": 0.12206,
				"method": "rhf"
			},
			{
				"type": "unocc",
				"energy": 0.15006,
				"method": "rhf"
			}
		],
		"cosmo_sigma_profile": { 
			"-0.025": 0.0,
			"-0.024": 0.0,
			"-0.023": 0.0,
			"-0.022": 0.0,
			"-0.021": 0.0,
			"-0.02": 0.0,
			"-0.019": 0.0,
			"-0.018": 0.0,
			"-0.017": 0.0,
			"-0.016": 0.0,
			"-0.015": 0.0,
			"-0.014": 0.0,
			"-0.013": 0.0,
			"-0.012": 0.0,
			"-0.011": 0.0,
			"-0.01": 0.0,
			"-0.009": 0.0,
			"-0.008": 0.0,
			"-0.007": 0.209505890504,
			"-0.006": 3.70675072028,
			"-0.005": 8.37379475873,
			"-0.004": 17.6366941425,
			"-0.003": 16.4291370875,
			"-0.002": 21.2926409714,
			"-0.001": 20.6893549832,
			"0.0": 19.3300502048,
			"0.001": 11.4711210393,
			"0.002": 4.43513626037,
			"0.003": 3.86494692416,
			"0.004": 3.74145331072,
			"0.005": 2.8111986358,
			"0.006": 2.8249688673,
			"0.007": 2.4213153779,
			"0.008": 2.58657666989,
			"0.009": 2.82333999229,
			"0.01": 1.67906888336,
			"0.011": 2.22444100215,
			"0.012": 2.84515269974,
			"0.013": 2.16253851538,
			"0.014": 0.26183134561,
			"0.015": 0.0,
			"0.016": 0.0,
			"0.017": 0.0,
			"0.018": 0.0,
			"0.019": 0.0,
			"0.02": 0.0,
			"0.021": 0.0,
			"0.022": 0.0,
			"0.023": 0.0,
			"0.024": 0.0,
			"0.025": 0.0
		}
	}
}
