{
	 "smiles": "CC1=CC=C(C=C1)N1CSC2=NN=C(N2C1)C1=CC=C(C=C1)[N+]([O-])=O", 
	 "Tm": 499.15, 
	 "num_atms": 40, 
	 "gaussian": { 
		 "optdone": 1, 
		 "sigma_profile": "yes", 
		 "theory": "DFT", 
		 "functional": "B3LYP", 
		 "basiset": "6-31G**", 
		 "properties": { 
			 "R2extent": 12188.2272, 
			 "electric_dipole_moment_norm": 7.51598896819, 
			 "electric_quadrupole_moment_norm": 29.266940711, 
			 "total_energy": -1479.11277816, 
			 "HOMO_LUMO_gap": 0.12921, 
			 "cosmo_polarized_energy": -25.73, 
			 "cosmo_cavitation_energy": 45.66, 
			 "cosmo_dispersion_energy": -32.58, 
			 "cosmo_repulsion_energy": 2.38, 
			 "cosmo_total_nonelectrostatic_energy": 15.46, 
			 "SMD_solvation_energy": 5.85 
		},
		"coords": [
			{
				"x": 1.1464574175,
				"y": -2.936539867,
				"z": -4.5782009452,
				"element": "C" 
			},
			{
				"x": 0.7699702231,
				"y": -1.7134697157,
				"z": -3.776620566,
				"element": "C" 
			},
			{
				"x": -0.0003639157,
				"y": -0.6871672688,
				"z": -4.3449512103,
				"element": "C" 
			},
			{
				"x": -0.3436143893,
				"y": 0.447806446,
				"z": -3.6193159695,
				"element": "C" 
			},
			{
				"x": 0.0934091682,
				"y": 0.6059274218,
				"z": -2.2953219127,
				"element": "C" 
			},
			{
				"x": 0.8665290736,
				"y": -0.4068895303,
				"z": -1.7183564173,
				"element": "C" 
			},
			{
				"x": 1.1849796662,
				"y": -1.5521388418,
				"z": -2.4520840683,
				"element": "C" 
			},
			{
				"x": -0.3113181203,
				"y": 1.7785317873,
				"z": -1.5777647749,
				"element": "N" 
			},
			{
				"x": 0.069837476,
				"y": 3.0619608595,
				"z": -2.1009817104,
				"element": "C" 
			},
			{
				"x": 1.8753238529,
				"y": 3.4993504955,
				"z": -1.78535041,
				"element": "S" 
			},
			{
				"x": 1.9861097087,
				"y": 2.8041357213,
				"z": -0.1736721482,
				"element": "C" 
			},
			{
				"x": 3.0712376431,
				"y": 2.8547706154,
				"z": 0.5717754898,
				"element": "N" 
			},
			{
				"x": 2.8029528519,
				"y": 2.1589230915,
				"z": 1.7199910616,
				"element": "N" 
			},
			{
				"x": 1.5656306436,
				"y": 1.704675043,
				"z": 1.656272939,
				"element": "C" 
			},
			{
				"x": 0.9928765379,
				"y": 2.0872111611,
				"z": 0.4507822573,
				"element": "N" 
			},
			{
				"x": -0.3238625422,
				"y": 1.7494241398,
				"z": -0.1416758184,
				"element": "C" 
			},
			{
				"x": 0.9390006793,
				"y": 0.9174115609,
				"z": 2.7206408025,
				"element": "C" 
			},
			{
				"x": 1.7822813712,
				"y": 0.1653760491,
				"z": 3.563898335,
				"element": "C" 
			},
			{
				"x": 1.2570508758,
				"y": -0.5880983926,
				"z": 4.6038057884,
				"element": "C" 
			},
			{
				"x": -0.124590603,
				"y": -0.5941843106,
				"z": 4.8020112171,
				"element": "C" 
			},
			{
				"x": -0.9840250263,
				"y": 0.1495160832,
				"z": 3.9979781612,
				"element": "C" 
			},
			{
				"x": -0.4473017867,
				"y": 0.9084174717,
				"z": 2.9626656551,
				"element": "C" 
			},
			{
				"x": -0.6892993149,
				"y": -1.4004798248,
				"z": 5.89257173,
				"element": "N" 
			},
			{
				"x": 0.0939642754,
				"y": -2.0427240495,
				"z": 6.5914999682,
				"element": "O" 
			},
			{
				"x": -1.9118456459,
				"y": -1.3853657414,
				"z": 6.0397150888,
				"element": "O" 
			},
			{
				"x": 1.9369776885,
				"y": -2.7080526327,
				"z": -5.3034758504,
				"element": "H" 
			},
			{
				"x": 0.2923198692,
				"y": -3.3231442916,
				"z": -5.1440684562,
				"element": "H" 
			},
			{
				"x": 1.5145448812,
				"y": -3.7391908415,
				"z": -3.9333951312,
				"element": "H" 
			},
			{
				"x": -0.3551818218,
				"y": -0.787863321,
				"z": -5.3676896829,
				"element": "H" 
			},
			{
				"x": -0.9785100705,
				"y": 1.2048570759,
				"z": -4.070313813,
				"element": "H" 
			},
			{
				"x": 1.2410724048,
				"y": -0.3096927497,
				"z": -0.705165578,
				"element": "H" 
			},
			{
				"x": 1.7846553858,
				"y": -2.3265064293,
				"z": -1.9809871818,
				"element": "H" 
			},
			{
				"x": -0.033925859,
				"y": 3.0954864651,
				"z": -3.1839533843,
				"element": "H" 
			},
			{
				"x": -0.5525138661,
				"y": 3.8409195256,
				"z": -1.654170018,
				"element": "H" 
			},
			{
				"x": -1.0593137176,
				"y": 2.4794055397,
				"z": 0.2166368768,
				"element": "H" 
			},
			{
				"x": -0.6140948128,
				"y": 0.7573643873,
				"z": 0.2041940711,
				"element": "H" 
			},
			{
				"x": 2.8508755465,
				"y": 0.1910633083,
				"z": 3.3846170605,
				"element": "H" 
			},
			{
				"x": 1.8909303988,
				"y": -1.1746239028,
				"z": 5.2569239403,
				"element": "H" 
			},
			{
				"x": -2.0476419296,
				"y": 0.1344352967,
				"z": 4.1996807407,
				"element": "H" 
			},
			{
				"x": -1.1157842173,
				"y": 1.5221621653,
				"z": 2.3700538634,
				"element": "H" 
			}
		],
		 "valence_orbital": [ 
			{
				"type": "occ",
				"energy": -0.2824,
				"method": "rhf"
			},
			{
				"type": "occ",
				"energy": -0.26736,
				"method": "rhf"
			},
			{
				"type": "occ",
				"energy": -0.26234,
				"method": "rhf"
			},
			{
				"type": "occ",
				"energy": -0.23327,
				"method": "rhf"
			},
			{
				"type": "occ",
				"energy": -0.22616,
				"method": "rhf"
			},
			{
				"type": "unocc",
				"energy": -0.09695,
				"method": "rhf"
			},
			{
				"type": "unocc",
				"energy": -0.03501,
				"method": "rhf"
			},
			{
				"type": "unocc",
				"energy": -0.02851,
				"method": "rhf"
			},
			{
				"type": "unocc",
				"energy": -0.02113,
				"method": "rhf"
			},
			{
				"type": "unocc",
				"energy": -0.02012,
				"method": "rhf"
			}
		],
		"cosmo_sigma_profile": { 
			"-0.025": 0.0,
			"-0.024": 0.0,
			"-0.023": 0.0,
			"-0.022": 0.0,
			"-0.021": 0.0,
			"-0.02": 0.0,
			"-0.019": 0.0,
			"-0.018": 0.0,
			"-0.017": 0.0,
			"-0.016": 0.0,
			"-0.015": 0.0,
			"-0.014": 0.0,
			"-0.013": 0.0,
			"-0.012": 0.000508994089748,
			"-0.011": 1.09272859891,
			"-0.01": 4.38186715509,
			"-0.009": 10.2068444273,
			"-0.008": 13.9833127852,
			"-0.007": 14.0853108362,
			"-0.006": 17.9145499684,
			"-0.005": 20.3688668165,
			"-0.004": 26.2683048816,
			"-0.003": 22.5200009831,
			"-0.002": 24.1633829947,
			"-0.001": 26.8940745164,
			"0.0": 29.8152571576,
			"0.001": 26.3462956457,
			"0.002": 16.4631772964,
			"0.003": 16.3514887692,
			"0.004": 18.203123675,
			"0.005": 18.7211508133,
			"0.006": 12.6686667071,
			"0.007": 12.778258366,
			"0.008": 8.9817659181,
			"0.009": 6.32943798264,
			"0.01": 5.0259208434,
			"0.011": 2.48647998985,
			"0.012": 2.58595692399,
			"0.013": 3.69865103217,
			"0.014": 2.64954869861,
			"0.015": 2.04614056274,
			"0.016": 0.974221929979,
			"0.017": 0.0625491156576,
			"0.018": 0.0,
			"0.019": 0.0,
			"0.02": 0.0,
			"0.021": 0.0,
			"0.022": 0.0,
			"0.023": 0.0,
			"0.024": 0.0,
			"0.025": 0.0
		}
	}
}
