{
	 "smiles": "CCOC1=CC=C(OCC)C(NC(=O)C2=CC=CC=C2)=C1", 
	 "Tm": 361.15, 
	 "num_atms": 40, 
	 "gaussian": { 
		 "optdone": 1, 
		 "sigma_profile": "yes", 
		 "theory": "DFT", 
		 "functional": "B3LYP", 
		 "basiset": "6-31G**", 
		 "properties": { 
			 "R2extent": 8268.4545, 
			 "electric_dipole_moment_norm": 3.12988111116, 
			 "electric_quadrupole_moment_norm": 15.5596663329, 
			 "total_energy": -939.685120799, 
			 "HOMO_LUMO_gap": 0.16612, 
			 "cosmo_polarized_energy": -16.67, 
			 "cosmo_cavitation_energy": 43.41, 
			 "cosmo_dispersion_energy": -30.16, 
			 "cosmo_repulsion_energy": 2.34, 
			 "cosmo_total_nonelectrostatic_energy": 15.59, 
			 "SMD_solvation_energy": 8.37 
		},
		"coords": [
			{
				"x": 5.8242109519,
				"y": 0.7070058374,
				"z": -1.0734634757,
				"element": "C" 
			},
			{
				"x": 5.0701924914,
				"y": 1.9986461624,
				"z": -0.7704980115,
				"element": "C" 
			},
			{
				"x": 4.1022953824,
				"y": 2.3186002177,
				"z": -1.7703010676,
				"element": "O" 
			},
			{
				"x": 2.8793168084,
				"y": 1.7050864857,
				"z": -1.757223747,
				"element": "C" 
			},
			{
				"x": 2.0053737837,
				"y": 2.0757412555,
				"z": -2.7892150746,
				"element": "C" 
			},
			{
				"x": 0.7338198388,
				"y": 1.5227613059,
				"z": -2.8640490141,
				"element": "C" 
			},
			{
				"x": 0.2933788204,
				"y": 0.586286464,
				"z": -1.918695102,
				"element": "C" 
			},
			{
				"x": -0.914729681,
				"y": -0.047359825,
				"z": -2.0245517481,
				"element": "O" 
			},
			{
				"x": -2.079460506,
				"y": 0.7976181257,
				"z": -2.0390810614,
				"element": "C" 
			},
			{
				"x": -3.2975324349,
				"y": -0.1047743585,
				"z": -1.9699151434,
				"element": "C" 
			},
			{
				"x": 1.1588547566,
				"y": 0.2357161752,
				"z": -0.8716352397,
				"element": "C" 
			},
			{
				"x": 0.7753387474,
				"y": -0.7228000246,
				"z": 0.1100255341,
				"element": "N" 
			},
			{
				"x": -0.3265287154,
				"y": -0.6015873324,
				"z": 0.922411195,
				"element": "C" 
			},
			{
				"x": -1.0731026309,
				"y": 0.3704388878,
				"z": 0.8975419389,
				"element": "O" 
			},
			{
				"x": -0.5661570297,
				"y": -1.7489131846,
				"z": 1.8696526371,
				"element": "C" 
			},
			{
				"x": -1.859822877,
				"y": -1.882789001,
				"z": 2.3917160096,
				"element": "C" 
			},
			{
				"x": -2.1630280244,
				"y": -2.9159406286,
				"z": 3.2751580428,
				"element": "C" 
			},
			{
				"x": -1.1711658944,
				"y": -3.8208929968,
				"z": 3.6619003276,
				"element": "C" 
			},
			{
				"x": 0.1261097262,
				"y": -3.6823262777,
				"z": 3.1655891472,
				"element": "C" 
			},
			{
				"x": 0.4275173567,
				"y": -2.6520358305,
				"z": 2.2743268285,
				"element": "C" 
			},
			{
				"x": 2.447684301,
				"y": 0.7827162788,
				"z": -0.8003064362,
				"element": "C" 
			},
			{
				"x": 5.1573606598,
				"y": -0.1594398674,
				"z": -1.0814994721,
				"element": "H" 
			},
			{
				"x": 6.3075440763,
				"y": 0.7725100791,
				"z": -2.0523815244,
				"element": "H" 
			},
			{
				"x": 6.5978449296,
				"y": 0.5368867968,
				"z": -0.3170123412,
				"element": "H" 
			},
			{
				"x": 4.6003852544,
				"y": 1.9689062798,
				"z": 0.2212142133,
				"element": "H" 
			},
			{
				"x": 5.7600662194,
				"y": 2.8475025905,
				"z": -0.7771063673,
				"element": "H" 
			},
			{
				"x": 2.3478458838,
				"y": 2.7956142342,
				"z": -3.5251870732,
				"element": "H" 
			},
			{
				"x": 0.0758377078,
				"y": 1.796610982,
				"z": -3.6823058174,
				"element": "H" 
			},
			{
				"x": -2.0374575852,
				"y": 1.4689837245,
				"z": -1.1756060694,
				"element": "H" 
			},
			{
				"x": -2.0970316126,
				"y": 1.3992820693,
				"z": -2.9587886761,
				"element": "H" 
			},
			{
				"x": -4.2128613023,
				"y": 0.4947479054,
				"z": -2.0052184374,
				"element": "H" 
			},
			{
				"x": -3.2905367248,
				"y": -0.6751733565,
				"z": -1.0375750895,
				"element": "H" 
			},
			{
				"x": -3.3102212969,
				"y": -0.8068024329,
				"z": -2.8092513087,
				"element": "H" 
			},
			{
				"x": 1.2764750127,
				"y": -1.598366183,
				"z": 0.1187004486,
				"element": "H" 
			},
			{
				"x": -2.6092316844,
				"y": -1.1586091065,
				"z": 2.0912301258,
				"element": "H" 
			},
			{
				"x": -3.1717528788,
				"y": -3.0147407475,
				"z": 3.6656934394,
				"element": "H" 
			},
			{
				"x": -1.4056322186,
				"y": -4.6249867956,
				"z": 4.3535491779,
				"element": "H" 
			},
			{
				"x": 0.906116566,
				"y": -4.370615515,
				"z": 3.477925915,
				"element": "H" 
			},
			{
				"x": 1.4521873956,
				"y": -2.5408238553,
				"z": 1.9298934116,
				"element": "H" 
			},
			{
				"x": 3.0788964267,
				"y": 0.4859154615,
				"z": 0.0286389052,
				"element": "H" 
			}
		],
		 "valence_orbital": [ 
			{
				"type": "occ",
				"energy": -0.25914,
				"method": "rhf"
			},
			{
				"type": "occ",
				"energy": -0.25807,
				"method": "rhf"
			},
			{
				"type": "occ",
				"energy": -0.24481,
				"method": "rhf"
			},
			{
				"type": "occ",
				"energy": -0.23853,
				"method": "rhf"
			},
			{
				"type": "occ",
				"energy": -0.20117,
				"method": "rhf"
			},
			{
				"type": "unocc",
				"energy": -0.03505,
				"method": "rhf"
			},
			{
				"type": "unocc",
				"energy": -0.01042,
				"method": "rhf"
			},
			{
				"type": "unocc",
				"energy": -0.00277,
				"method": "rhf"
			},
			{
				"type": "unocc",
				"energy": 0.02001,
				"method": "rhf"
			},
			{
				"type": "unocc",
				"energy": 0.06416,
				"method": "rhf"
			}
		],
		"cosmo_sigma_profile": { 
			"-0.025": 0.0,
			"-0.024": 0.0,
			"-0.023": 0.0,
			"-0.022": 0.0,
			"-0.021": 0.0,
			"-0.02": 0.0,
			"-0.019": 0.0,
			"-0.018": 0.0,
			"-0.017": 0.0,
			"-0.016": 0.0,
			"-0.015": 0.392282294957,
			"-0.014": 1.47325766389,
			"-0.013": 0.934303284994,
			"-0.012": 1.17062816203,
			"-0.011": 0.786168646919,
			"-0.01": 1.54089237942,
			"-0.009": 1.41425416109,
			"-0.008": 1.28139434691,
			"-0.007": 5.02558126319,
			"-0.006": 15.968569452,
			"-0.005": 21.6967890145,
			"-0.004": 29.6896478626,
			"-0.003": 33.5674563575,
			"-0.002": 30.1706791454,
			"-0.001": 26.6781005726,
			"0.0": 28.4654536442,
			"0.001": 22.9279749128,
			"0.002": 19.0534020474,
			"0.003": 22.9307440916,
			"0.004": 26.74745118,
			"0.005": 16.9020100073,
			"0.006": 6.77932787896,
			"0.007": 5.23617612618,
			"0.008": 4.90317656668,
			"0.009": 4.26539597536,
			"0.01": 4.19576852554,
			"0.011": 3.14046947083,
			"0.012": 2.78553630666,
			"0.013": 2.65268604726,
			"0.014": 1.5423390125,
			"0.015": 0.00850949687702,
			"0.016": 0.0,
			"0.017": 0.0,
			"0.018": 0.0,
			"0.019": 0.0,
			"0.02": 0.0,
			"0.021": 0.0,
			"0.022": 0.0,
			"0.023": 0.0,
			"0.024": 0.0,
			"0.025": 0.0
		}
	}
}
