{
	 "smiles": "NC1=C2N=CC=CC2=CC=C1C(O)=O", 
	 "Tm": 481.15, 
	 "num_atms": 22, 
	 "gaussian": { 
		 "optdone": 1, 
		 "sigma_profile": "yes", 
		 "theory": "DFT", 
		 "functional": "B3LYP", 
		 "basiset": "6-31G**", 
		 "properties": { 
			 "R2extent": 3073.5538, 
			 "electric_dipole_moment_norm": 1.96332612166, 
			 "electric_quadrupole_moment_norm": 9.01556813074, 
			 "total_energy": -645.879521575, 
			 "HOMO_LUMO_gap": 0.14211, 
			 "cosmo_polarized_energy": -10.13, 
			 "cosmo_cavitation_energy": 25.95, 
			 "cosmo_dispersion_energy": -19.99, 
			 "cosmo_repulsion_energy": 1.54, 
			 "cosmo_total_nonelectrostatic_energy": 7.5, 
			 "SMD_solvation_energy": 4.29 
		},
		"coords": [
			{
				"x": -2.0615486095,
				"y": 1.097024326,
				"z": 0.9775079433,
				"element": "N" 
			},
			{
				"x": -1.2276088107,
				"y": 0.7142026306,
				"z": -0.0051048185,
				"element": "C" 
			},
			{
				"x": 0.1911617518,
				"y": 0.9605784219,
				"z": 0.1842754036,
				"element": "C" 
			},
			{
				"x": 0.5550772135,
				"y": 1.560190505,
				"z": 1.345018651,
				"element": "N" 
			},
			{
				"x": 1.8381513854,
				"y": 1.8001811922,
				"z": 1.5515946405,
				"element": "C" 
			},
			{
				"x": 2.8481741262,
				"y": 1.4628370049,
				"z": 0.6231142162,
				"element": "C" 
			},
			{
				"x": 2.4873550766,
				"y": 0.8533305706,
				"z": -0.5587164691,
				"element": "C" 
			},
			{
				"x": 1.1223179168,
				"y": 0.5775680694,
				"z": -0.8209287287,
				"element": "C" 
			},
			{
				"x": 0.6597224643,
				"y": -0.0487664539,
				"z": -2.0147146964,
				"element": "C" 
			},
			{
				"x": -0.6796696685,
				"y": -0.2768744603,
				"z": -2.184026273,
				"element": "C" 
			},
			{
				"x": -1.6460202925,
				"y": 0.0910785301,
				"z": -1.2023301534,
				"element": "C" 
			},
			{
				"x": -3.0696336469,
				"y": -0.1683748617,
				"z": -1.4174677208,
				"element": "C" 
			},
			{
				"x": -3.3487011626,
				"y": -0.7701924041,
				"z": -2.6031942305,
				"element": "O" 
			},
			{
				"x": -3.9790946543,
				"y": 0.107883916,
				"z": -0.6373499015,
				"element": "O" 
			},
			{
				"x": -3.0529436645,
				"y": 0.9327957927,
				"z": 0.8635581797,
				"element": "H" 
			},
			{
				"x": -1.6477065697,
				"y": 1.532597485,
				"z": 1.7884685041,
				"element": "H" 
			},
			{
				"x": 2.0992769446,
				"y": 2.2823669907,
				"z": 2.4920938718,
				"element": "H" 
			},
			{
				"x": 3.8865689062,
				"y": 1.6849471658,
				"z": 0.8483429821,
				"element": "H" 
			},
			{
				"x": 3.2359267675,
				"y": 0.5788100325,
				"z": -1.2974702279,
				"element": "H" 
			},
			{
				"x": 1.3764168623,
				"y": -0.3383198832,
				"z": -2.776949677,
				"element": "H" 
			},
			{
				"x": -1.0399648525,
				"y": -0.7526761329,
				"z": -3.0887221214,
				"element": "H" 
			},
			{
				"x": -4.3131574835,
				"y": -0.8806884373,
				"z": -2.6122993743,
				"element": "H" 
			}
		],
		 "valence_orbital": [ 
			{
				"type": "occ",
				"energy": -0.28119,
				"method": "rhf"
			},
			{
				"type": "occ",
				"energy": -0.27345,
				"method": "rhf"
			},
			{
				"type": "occ",
				"energy": -0.26694,
				"method": "rhf"
			},
			{
				"type": "occ",
				"energy": -0.25655,
				"method": "rhf"
			},
			{
				"type": "occ",
				"energy": -0.19856,
				"method": "rhf"
			},
			{
				"type": "unocc",
				"energy": -0.05645,
				"method": "rhf"
			},
			{
				"type": "unocc",
				"energy": -0.0345,
				"method": "rhf"
			},
			{
				"type": "unocc",
				"energy": 0.02431,
				"method": "rhf"
			},
			{
				"type": "unocc",
				"energy": 0.04079,
				"method": "rhf"
			},
			{
				"type": "unocc",
				"energy": 0.08491,
				"method": "rhf"
			}
		],
		"cosmo_sigma_profile": { 
			"-0.025": 0.0,
			"-0.024": 0.0,
			"-0.023": 0.0,
			"-0.022": 0.0,
			"-0.021": 0.0,
			"-0.02": 0.0,
			"-0.019": 0.0,
			"-0.018": 0.291413258149,
			"-0.017": 0.890302666543,
			"-0.016": 0.853967663861,
			"-0.015": 0.647614950313,
			"-0.014": 0.702771251834,
			"-0.013": 0.863365276264,
			"-0.012": 0.833016563967,
			"-0.011": 0.856541605996,
			"-0.01": 1.78004751927,
			"-0.009": 1.996538461,
			"-0.008": 2.53282989065,
			"-0.007": 8.44630238691,
			"-0.006": 11.2561446655,
			"-0.005": 12.6668961964,
			"-0.004": 9.47315327625,
			"-0.003": 9.72264323134,
			"-0.002": 8.00869737586,
			"-0.001": 10.0095574047,
			"0.0": 12.3068083612,
			"0.001": 24.7493929952,
			"0.002": 27.3322234554,
			"0.003": 17.1764286712,
			"0.004": 12.8470015986,
			"0.005": 9.04315706392,
			"0.006": 4.38565518562,
			"0.007": 5.0010991737,
			"0.008": 5.53320301666,
			"0.009": 1.83406595922,
			"0.01": 1.64210551238,
			"0.011": 2.34562961601,
			"0.012": 1.97805801339,
			"0.013": 0.441870504735,
			"0.014": 0.0,
			"0.015": 0.0,
			"0.016": 0.0,
			"0.017": 0.0,
			"0.018": 0.0,
			"0.019": 0.0,
			"0.02": 0.0,
			"0.021": 0.0,
			"0.022": 0.0,
			"0.023": 0.0,
			"0.024": 0.0,
			"0.025": 0.0
		}
	}
}
