{
	 "smiles": "CC1CCCC(C)N1C(=O)CCl", 
	 "Tm": 345.15, 
	 "num_atms": 28, 
	 "gaussian": { 
		 "optdone": 1, 
		 "sigma_profile": "yes", 
		 "theory": "DFT", 
		 "functional": "B3LYP", 
		 "basiset": "6-31G**", 
		 "properties": { 
			 "R2extent": 3403.7097, 
			 "electric_dipole_moment_norm": 5.61619038228, 
			 "electric_quadrupole_moment_norm": 16.1260588207, 
			 "total_energy": -942.788202542, 
			 "HOMO_LUMO_gap": 0.25817, 
			 "cosmo_polarized_energy": -13.39, 
			 "cosmo_cavitation_energy": 29.18, 
			 "cosmo_dispersion_energy": -21.4, 
			 "cosmo_repulsion_energy": 1.7, 
			 "cosmo_total_nonelectrostatic_energy": 9.49, 
			 "SMD_solvation_energy": 4.62 
		},
		"coords": [
			{
				"x": -1.8757950334,
				"y": 0.5115847371,
				"z": -0.1136844781,
				"element": "C" 
			},
			{
				"x": -0.4807672177,
				"y": -0.0112461033,
				"z": -0.4923319373,
				"element": "C" 
			},
			{
				"x": -0.2903487041,
				"y": -1.5027581404,
				"z": -0.1890227626,
				"element": "C" 
			},
			{
				"x": -0.2252702891,
				"y": -1.8236439541,
				"z": 1.3211859966,
				"element": "C" 
			},
			{
				"x": 0.3527948686,
				"y": -0.6488624228,
				"z": 2.1422421237,
				"element": "C" 
			},
			{
				"x": 1.3098930176,
				"y": 0.2449693003,
				"z": 1.334794955,
				"element": "C" 
			},
			{
				"x": 2.624736496,
				"y": -0.4744558404,
				"z": 0.9760149545,
				"element": "C" 
			},
			{
				"x": 0.598439236,
				"y": 0.7837142585,
				"z": 0.1543831941,
				"element": "N" 
			},
			{
				"x": 0.8602724758,
				"y": 2.0097949162,
				"z": -0.4061014923,
				"element": "C" 
			},
			{
				"x": 0.2715780048,
				"y": 2.4173217767,
				"z": -1.397507674,
				"element": "O" 
			},
			{
				"x": 1.9181838151,
				"y": 2.8703831731,
				"z": 0.315141608,
				"element": "C" 
			},
			{
				"x": 2.314061362,
				"y": 4.3616888748,
				"z": -0.5955496732,
				"element": "Cl" 
			},
			{
				"x": -1.9576192132,
				"y": 1.5699997829,
				"z": -0.3690155632,
				"element": "H" 
			},
			{
				"x": -2.0904995373,
				"y": 0.3889129889,
				"z": 0.952360098,
				"element": "H" 
			},
			{
				"x": -2.6417879749,
				"y": -0.0325369139,
				"z": -0.6771299411,
				"element": "H" 
			},
			{
				"x": -0.3587276199,
				"y": 0.1469342373,
				"z": -1.5673327944,
				"element": "H" 
			},
			{
				"x": 0.6279298193,
				"y": -1.8394234854,
				"z": -0.681962729,
				"element": "H" 
			},
			{
				"x": -1.1075440722,
				"y": -2.058108793,
				"z": -0.6613236239,
				"element": "H" 
			},
			{
				"x": -1.2230565092,
				"y": -2.0625754113,
				"z": 1.7033353289,
				"element": "H" 
			},
			{
				"x": 0.3774875506,
				"y": -2.7259560037,
				"z": 1.4691221612,
				"element": "H" 
			},
			{
				"x": -0.4614810264,
				"y": -0.0164707321,
				"z": 2.5111987716,
				"element": "H" 
			},
			{
				"x": 0.8812798692,
				"y": -1.0198489586,
				"z": 3.0270409265,
				"element": "H" 
			},
			{
				"x": 1.5637109316,
				"y": 1.0927547653,
				"z": 1.979323918,
				"element": "H" 
			},
			{
				"x": 2.4479900341,
				"y": -1.3946671741,
				"z": 0.4143941745,
				"element": "H" 
			},
			{
				"x": 3.1683431361,
				"y": -0.736565359,
				"z": 1.8903469825,
				"element": "H" 
			},
			{
				"x": 3.2759740242,
				"y": 0.1599394409,
				"z": 0.3677301689,
				"element": "H" 
			},
			{
				"x": 2.8530716846,
				"y": 2.3302770197,
				"z": 0.4645341686,
				"element": "H" 
			},
			{
				"x": 1.5423508717,
				"y": 3.1833440204,
				"z": 1.2927131383,
				"element": "H" 
			}
		],
		 "valence_orbital": [ 
			{
				"type": "occ",
				"energy": -0.32138,
				"method": "rhf"
			},
			{
				"type": "occ",
				"energy": -0.29112,
				"method": "rhf"
			},
			{
				"type": "occ",
				"energy": -0.29004,
				"method": "rhf"
			},
			{
				"type": "occ",
				"energy": -0.25141,
				"method": "rhf"
			},
			{
				"type": "occ",
				"energy": -0.23902,
				"method": "rhf"
			},
			{
				"type": "unocc",
				"energy": 0.01915,
				"method": "rhf"
			},
			{
				"type": "unocc",
				"energy": 0.03103,
				"method": "rhf"
			},
			{
				"type": "unocc",
				"energy": 0.0571,
				"method": "rhf"
			},
			{
				"type": "unocc",
				"energy": 0.08213,
				"method": "rhf"
			},
			{
				"type": "unocc",
				"energy": 0.09277,
				"method": "rhf"
			}
		],
		"cosmo_sigma_profile": { 
			"-0.025": 0.0,
			"-0.024": 0.0,
			"-0.023": 0.0,
			"-0.022": 0.0,
			"-0.021": 0.0,
			"-0.02": 0.0,
			"-0.019": 0.0,
			"-0.018": 0.0,
			"-0.017": 0.0,
			"-0.016": 0.0,
			"-0.015": 0.0,
			"-0.014": 0.0,
			"-0.013": 0.0,
			"-0.012": 0.0,
			"-0.011": 0.0,
			"-0.01": 0.0589633443276,
			"-0.009": 2.81184099038,
			"-0.008": 4.71543868462,
			"-0.007": 6.22383627866,
			"-0.006": 5.2368619921,
			"-0.005": 5.91558792135,
			"-0.004": 14.2054782505,
			"-0.003": 29.008745438,
			"-0.002": 31.3820164389,
			"-0.001": 28.4400772554,
			"0.0": 27.1178923282,
			"0.001": 18.9114587539,
			"0.002": 6.86462154961,
			"0.003": 4.73900719754,
			"0.004": 5.48974186781,
			"0.005": 6.46738532098,
			"0.006": 8.76226194343,
			"0.007": 3.83124104971,
			"0.008": 2.00286733084,
			"0.009": 2.35026887012,
			"0.01": 1.44111280511,
			"0.011": 1.93730028281,
			"0.012": 2.0207937313,
			"0.013": 3.15192592918,
			"0.014": 4.15541615656,
			"0.015": 1.62002147974,
			"0.016": 0.0832674118785,
			"0.017": 0.0,
			"0.018": 0.0,
			"0.019": 0.0,
			"0.02": 0.0,
			"0.021": 0.0,
			"0.022": 0.0,
			"0.023": 0.0,
			"0.024": 0.0,
			"0.025": 0.0
		}
	}
}
