{
	 "smiles": "FC1=CC=C(C=C1)C(=O)N1CCNCC1", 
	 "Tm": 348.15, 
	 "num_atms": 28, 
	 "gaussian": { 
		 "optdone": 1, 
		 "sigma_profile": "yes", 
		 "theory": "DFT", 
		 "functional": "B3LYP", 
		 "basiset": "6-31G**", 
		 "properties": { 
			 "R2extent": 4685.4527, 
			 "electric_dipole_moment_norm": 3.80285153668, 
			 "electric_quadrupole_moment_norm": 16.1820209977, 
			 "total_energy": -711.561729391, 
			 "HOMO_LUMO_gap": 0.19451, 
			 "cosmo_polarized_energy": -13.43, 
			 "cosmo_cavitation_energy": 30.71, 
			 "cosmo_dispersion_energy": -22.39, 
			 "cosmo_repulsion_energy": 1.73, 
			 "cosmo_total_nonelectrostatic_energy": 10.04, 
			 "SMD_solvation_energy": 2.68 
		},
		"coords": [
			{
				"x": 1.8069882729,
				"y": -4.099878978,
				"z": 0.1267001904,
				"element": "F" 
			},
			{
				"x": 1.249508279,
				"y": -2.8917254853,
				"z": 0.3430639226,
				"element": "C" 
			},
			{
				"x": 0.1973246745,
				"y": -2.7885227973,
				"z": 1.245751259,
				"element": "C" 
			},
			{
				"x": -0.3820595347,
				"y": -1.5373631566,
				"z": 1.4561503006,
				"element": "C" 
			},
			{
				"x": 0.0898499063,
				"y": -0.4042853422,
				"z": 0.7782907892,
				"element": "C" 
			},
			{
				"x": 1.1744483006,
				"y": -0.5413984804,
				"z": -0.1012336827,
				"element": "C" 
			},
			{
				"x": 1.751354962,
				"y": -1.7857005827,
				"z": -0.3366815948,
				"element": "C" 
			},
			{
				"x": -0.418774467,
				"y": 0.9890306382,
				"z": 1.0315293499,
				"element": "C" 
			},
			{
				"x": 0.3709815006,
				"y": 1.932789137,
				"z": 1.0702334249,
				"element": "O" 
			},
			{
				"x": -1.7632298355,
				"y": 1.1823420935,
				"z": 1.2476260118,
				"element": "N" 
			},
			{
				"x": -2.173737893,
				"y": 2.5595854957,
				"z": 1.5720029373,
				"element": "C" 
			},
			{
				"x": -3.6102652411,
				"y": 2.5729980032,
				"z": 2.082271198,
				"element": "C" 
			},
			{
				"x": -4.5346684293,
				"y": 2.1047582537,
				"z": 1.0376399751,
				"element": "N" 
			},
			{
				"x": -3.9575634069,
				"y": 1.0793161989,
				"z": 0.1579126552,
				"element": "C" 
			},
			{
				"x": -2.8330216039,
				"y": 0.2689072568,
				"z": 0.8177054249,
				"element": "C" 
			},
			{
				"x": -0.1465911571,
				"y": -3.6724994349,
				"z": 1.7716601786,
				"element": "H" 
			},
			{
				"x": -1.1900172507,
				"y": -1.4441197001,
				"z": 2.1743315245,
				"element": "H" 
			},
			{
				"x": 1.563293165,
				"y": 0.3471791759,
				"z": -0.5866666792,
				"element": "H" 
			},
			{
				"x": 2.5820206071,
				"y": -1.9100811758,
				"z": -1.0228808022,
				"element": "H" 
			},
			{
				"x": -1.4897294581,
				"y": 2.9517784432,
				"z": 2.3271347772,
				"element": "H" 
			},
			{
				"x": -2.0768034196,
				"y": 3.2077498264,
				"z": 0.6907104536,
				"element": "H" 
			},
			{
				"x": -3.8732519872,
				"y": 3.5986133525,
				"z": 2.3679962364,
				"element": "H" 
			},
			{
				"x": -3.6552442842,
				"y": 1.9636085731,
				"z": 3.0012587948,
				"element": "H" 
			},
			{
				"x": -5.3857382184,
				"y": 1.7582055071,
				"z": 1.4662166226,
				"element": "H" 
			},
			{
				"x": -3.5532922576,
				"y": 1.553934212,
				"z": -0.7466019498,
				"element": "H" 
			},
			{
				"x": -4.7503241549,
				"y": 0.4004529948,
				"z": -0.1725677644,
				"element": "H" 
			},
			{
				"x": -2.4282294162,
				"y": -0.4578589881,
				"z": 0.110406227,
				"element": "H" 
			},
			{
				"x": -3.2389276526,
				"y": -0.2929150406,
				"z": 1.6719402197,
				"element": "H" 
			}
		],
		 "valence_orbital": [ 
			{
				"type": "occ",
				"energy": -0.26739,
				"method": "rhf"
			},
			{
				"type": "occ",
				"energy": -0.25806,
				"method": "rhf"
			},
			{
				"type": "occ",
				"energy": -0.24371,
				"method": "rhf"
			},
			{
				"type": "occ",
				"energy": -0.23461,
				"method": "rhf"
			},
			{
				"type": "occ",
				"energy": -0.22244,
				"method": "rhf"
			},
			{
				"type": "unocc",
				"energy": -0.02793,
				"method": "rhf"
			},
			{
				"type": "unocc",
				"energy": -0.01626,
				"method": "rhf"
			},
			{
				"type": "unocc",
				"energy": 0.0531,
				"method": "rhf"
			},
			{
				"type": "unocc",
				"energy": 0.06524,
				"method": "rhf"
			},
			{
				"type": "unocc",
				"energy": 0.08494,
				"method": "rhf"
			}
		],
		"cosmo_sigma_profile": { 
			"-0.025": 0.0,
			"-0.024": 0.0,
			"-0.023": 0.0,
			"-0.022": 0.0,
			"-0.021": 0.0,
			"-0.02": 0.0,
			"-0.019": 0.0,
			"-0.018": 0.0,
			"-0.017": 0.0,
			"-0.016": 0.0,
			"-0.015": 0.0,
			"-0.014": 0.0,
			"-0.013": 0.0,
			"-0.012": 0.0,
			"-0.011": 0.0798351339024,
			"-0.01": 1.51899193749,
			"-0.009": 1.53200105402,
			"-0.008": 1.87004376232,
			"-0.007": 6.72737175133,
			"-0.006": 9.9050776127,
			"-0.005": 16.7058108656,
			"-0.004": 24.0015697101,
			"-0.003": 30.0070519203,
			"-0.002": 22.8921005766,
			"-0.001": 17.7907753901,
			"0.0": 15.1415478741,
			"0.001": 16.4642280902,
			"0.002": 15.1454834746,
			"0.003": 16.0047837106,
			"0.004": 14.5261249887,
			"0.005": 4.53461118665,
			"0.006": 2.49635162645,
			"0.007": 2.54370742155,
			"0.008": 2.07636987664,
			"0.009": 1.91399591364,
			"0.01": 2.02902860956,
			"0.011": 2.32907650534,
			"0.012": 2.17028037372,
			"0.013": 3.04491937676,
			"0.014": 5.59488504024,
			"0.015": 1.59856373944,
			"0.016": 0.651831050677,
			"0.017": 0.505576046587,
			"0.018": 0.36826852521,
			"0.019": 0.0878474100229,
			"0.02": 0.0,
			"0.021": 0.0,
			"0.022": 0.0,
			"0.023": 0.0,
			"0.024": 0.0,
			"0.025": 0.0
		}
	}
}
