{
	 "smiles": "CC1=NC(N)=NN=C1", 
	 "Tm": 448.15, 
	 "num_atms": 14, 
	 "gaussian": { 
		 "optdone": 1, 
		 "sigma_profile": "yes", 
		 "theory": "DFT", 
		 "functional": "B3LYP", 
		 "basiset": "6-31G**", 
		 "properties": { 
			 "R2extent": 1057.8001, 
			 "electric_dipole_moment_norm": 2.91851045056, 
			 "electric_quadrupole_moment_norm": 11.5765516908, 
			 "total_energy": -375.0209836, 
			 "HOMO_LUMO_gap": 0.17067, 
			 "cosmo_polarized_energy": -12.32, 
			 "cosmo_cavitation_energy": 18.31, 
			 "cosmo_dispersion_energy": -13.95, 
			 "cosmo_repulsion_energy": 1.18, 
			 "cosmo_total_nonelectrostatic_energy": 5.54, 
			 "SMD_solvation_energy": 0.33 
		},
		"coords": [
			{
				"x": -1.846509317,
				"y": 0.0418154304,
				"z": -0.7791066112,
				"element": "C" 
			},
			{
				"x": -0.395942753,
				"y": 0.2093679762,
				"z": -0.41950435,
				"element": "C" 
			},
			{
				"x": 0.5179966607,
				"y": -0.0378452481,
				"z": -1.3516614005,
				"element": "N" 
			},
			{
				"x": 1.8004212974,
				"y": 0.1310813271,
				"z": -0.9590368122,
				"element": "C" 
			},
			{
				"x": 2.7671665891,
				"y": -0.067044194,
				"z": -1.8948831908,
				"element": "N" 
			},
			{
				"x": 2.2224065422,
				"y": 0.4972316313,
				"z": 0.2709601298,
				"element": "N" 
			},
			{
				"x": 1.2953696474,
				"y": 0.7413371468,
				"z": 1.1885899669,
				"element": "N" 
			},
			{
				"x": 0.0099592762,
				"y": 0.6127327781,
				"z": 0.8674005494,
				"element": "C" 
			},
			{
				"x": -2.3898633474,
				"y": 0.9846124394,
				"z": -0.6513165609,
				"element": "H" 
			},
			{
				"x": -2.3265700538,
				"y": -0.6982128755,
				"z": -0.1293361776,
				"element": "H" 
			},
			{
				"x": -1.9369715556,
				"y": -0.2826932382,
				"z": -1.8167989408,
				"element": "H" 
			},
			{
				"x": 3.7211456814,
				"y": -0.1158760789,
				"z": -1.5748923273,
				"element": "H" 
			},
			{
				"x": 2.5080516744,
				"y": -0.5285029765,
				"z": -2.7513597573,
				"element": "H" 
			},
			{
				"x": -0.7064603419,
				"y": 0.8256958818,
				"z": 1.6554454827,
				"element": "H" 
			}
		],
		 "valence_orbital": [ 
			{
				"type": "occ",
				"energy": -0.32288,
				"method": "rhf"
			},
			{
				"type": "occ",
				"energy": -0.31504,
				"method": "rhf"
			},
			{
				"type": "occ",
				"energy": -0.31145,
				"method": "rhf"
			},
			{
				"type": "occ",
				"energy": -0.23666,
				"method": "rhf"
			},
			{
				"type": "occ",
				"energy": -0.22316,
				"method": "rhf"
			},
			{
				"type": "unocc",
				"energy": -0.05249,
				"method": "rhf"
			},
			{
				"type": "unocc",
				"energy": -0.0093,
				"method": "rhf"
			},
			{
				"type": "unocc",
				"energy": 0.08624,
				"method": "rhf"
			},
			{
				"type": "unocc",
				"energy": 0.10973,
				"method": "rhf"
			},
			{
				"type": "unocc",
				"energy": 0.12212,
				"method": "rhf"
			}
		],
		"cosmo_sigma_profile": { 
			"-0.025": 0.0,
			"-0.024": 0.0,
			"-0.023": 0.0,
			"-0.022": 0.0,
			"-0.021": 0.0,
			"-0.02": 0.0,
			"-0.019": 0.0,
			"-0.018": 0.0,
			"-0.017": 0.0,
			"-0.016": 0.0,
			"-0.015": 0.1070934447,
			"-0.014": 1.67391620976,
			"-0.013": 2.07782947449,
			"-0.012": 2.20539448429,
			"-0.011": 1.54123807445,
			"-0.01": 2.29805223292,
			"-0.009": 1.75472755458,
			"-0.008": 2.72888332793,
			"-0.007": 3.25279453468,
			"-0.006": 7.083193013,
			"-0.005": 11.1887490429,
			"-0.004": 9.29422162218,
			"-0.003": 10.7709784094,
			"-0.002": 12.8835017248,
			"-0.001": 12.270930115,
			"0.0": 8.402177214,
			"0.001": 6.59572715674,
			"0.002": 5.43668297547,
			"0.003": 4.61576830439,
			"0.004": 4.99636903089,
			"0.005": 4.39208467811,
			"0.006": 4.13132497115,
			"0.007": 2.74908492168,
			"0.008": 3.57677050967,
			"0.009": 2.8932451717,
			"0.01": 2.4212515184,
			"0.011": 3.04942449237,
			"0.012": 2.92535345629,
			"0.013": 3.34043312001,
			"0.014": 2.32334566102,
			"0.015": 2.25266654562,
			"0.016": 0.495157523336,
			"0.017": 0.0,
			"0.018": 0.0,
			"0.019": 0.0,
			"0.02": 0.0,
			"0.021": 0.0,
			"0.022": 0.0,
			"0.023": 0.0,
			"0.024": 0.0,
			"0.025": 0.0
		}
	}
}
