{
	 "smiles": "NNC(=O)N1N=C(CCC1=O)C1=CC=CC=C1", 
	 "Tm": 440.15, 
	 "num_atms": 29, 
	 "gaussian": { 
		 "optdone": 1, 
		 "sigma_profile": "yes", 
		 "theory": "DFT", 
		 "functional": "B3LYP", 
		 "basiset": "6-31G**", 
		 "properties": { 
			 "R2extent": 5689.7941, 
			 "electric_dipole_moment_norm": 6.27396926435, 
			 "electric_quadrupole_moment_norm": 16.4228603096, 
			 "total_energy": -795.811757668, 
			 "HOMO_LUMO_gap": 0.17058, 
			 "cosmo_polarized_energy": -21.67, 
			 "cosmo_cavitation_energy": 33.3, 
			 "cosmo_dispersion_energy": -23.6, 
			 "cosmo_repulsion_energy": 1.86, 
			 "cosmo_total_nonelectrostatic_energy": 11.56, 
			 "SMD_solvation_energy": 7.22 
		},
		"coords": [
			{
				"x": 0.0424631606,
				"y": -4.0433876989,
				"z": 2.1406398801,
				"element": "N" 
			},
			{
				"x": -1.3532772046,
				"y": -3.889142612,
				"z": 2.1632258869,
				"element": "N" 
			},
			{
				"x": -2.0813022227,
				"y": -2.7534690842,
				"z": 1.9647102491,
				"element": "C" 
			},
			{
				"x": -3.2752720646,
				"y": -2.6715074812,
				"z": 2.1515375178,
				"element": "O" 
			},
			{
				"x": -1.3082547304,
				"y": -1.6288706222,
				"z": 1.455709246,
				"element": "N" 
			},
			{
				"x": -0.5822494183,
				"y": -1.9032971582,
				"z": 0.3021977131,
				"element": "N" 
			},
			{
				"x": -0.2090291818,
				"y": -0.9175926241,
				"z": -0.4448974542,
				"element": "C" 
			},
			{
				"x": -0.5550687003,
				"y": 0.5059810938,
				"z": -0.0735616368,
				"element": "C" 
			},
			{
				"x": -0.5074679183,
				"y": 0.6751301497,
				"z": 1.4458859842,
				"element": "C" 
			},
			{
				"x": -1.2887664087,
				"y": -0.4152247082,
				"z": 2.1547157472,
				"element": "C" 
			},
			{
				"x": -1.7979400343,
				"y": -0.2904495371,
				"z": 3.2504879454,
				"element": "O" 
			},
			{
				"x": 0.5021198298,
				"y": -1.2554556633,
				"z": -1.7015074584,
				"element": "C" 
			},
			{
				"x": 1.3015808427,
				"y": -0.316291228,
				"z": -2.3737979031,
				"element": "C" 
			},
			{
				"x": 1.9665625894,
				"y": -0.6577478021,
				"z": -3.5521535599,
				"element": "C" 
			},
			{
				"x": 1.8421074519,
				"y": -1.9410053121,
				"z": -4.0826965064,
				"element": "C" 
			},
			{
				"x": 1.0465029964,
				"y": -2.8846043363,
				"z": -3.4251229444,
				"element": "C" 
			},
			{
				"x": 0.384314592,
				"y": -2.5476062421,
				"z": -2.2498619092,
				"element": "C" 
			},
			{
				"x": 0.3754954447,
				"y": -3.7293545227,
				"z": 1.2313299123,
				"element": "H" 
			},
			{
				"x": 0.4583625563,
				"y": -3.4443059898,
				"z": 2.8515161494,
				"element": "H" 
			},
			{
				"x": -1.8858493571,
				"y": -4.7005275306,
				"z": 2.4439631081,
				"element": "H" 
			},
			{
				"x": -1.5729300575,
				"y": 0.7031077324,
				"z": -0.4411143496,
				"element": "H" 
			},
			{
				"x": 0.09396286,
				"y": 1.2311864339,
				"z": -0.5659003091,
				"element": "H" 
			},
			{
				"x": 0.5300122847,
				"y": 0.6228494831,
				"z": 1.8028759401,
				"element": "H" 
			},
			{
				"x": -0.9111115342,
				"y": 1.6357535789,
				"z": 1.7723017942,
				"element": "H" 
			},
			{
				"x": 1.42786757,
				"y": 0.6848992536,
				"z": -1.9758363368,
				"element": "H" 
			},
			{
				"x": 2.5841273025,
				"y": 0.0823095234,
				"z": -4.0525402615,
				"element": "H" 
			},
			{
				"x": 2.3562605876,
				"y": -2.2047081024,
				"z": -5.0022047719,
				"element": "H" 
			},
			{
				"x": 0.9362064281,
				"y": -3.8840436582,
				"z": -3.8357766836,
				"element": "H" 
			},
			{
				"x": -0.2438276639,
				"y": -3.2733253351,
				"z": -1.745624989,
				"element": "H" 
			}
		],
		 "valence_orbital": [ 
			{
				"type": "occ",
				"energy": -0.27519,
				"method": "rhf"
			},
			{
				"type": "occ",
				"energy": -0.26624,
				"method": "rhf"
			},
			{
				"type": "occ",
				"energy": -0.25818,
				"method": "rhf"
			},
			{
				"type": "occ",
				"energy": -0.24727,
				"method": "rhf"
			},
			{
				"type": "occ",
				"energy": -0.23198,
				"method": "rhf"
			},
			{
				"type": "unocc",
				"energy": -0.0614,
				"method": "rhf"
			},
			{
				"type": "unocc",
				"energy": -0.01634,
				"method": "rhf"
			},
			{
				"type": "unocc",
				"energy": -0.00443,
				"method": "rhf"
			},
			{
				"type": "unocc",
				"energy": 0.02215,
				"method": "rhf"
			},
			{
				"type": "unocc",
				"energy": 0.04125,
				"method": "rhf"
			}
		],
		"cosmo_sigma_profile": { 
			"-0.025": 0.0,
			"-0.024": 0.0,
			"-0.023": 0.0,
			"-0.022": 0.0,
			"-0.021": 0.0,
			"-0.02": 0.0,
			"-0.019": 0.0,
			"-0.018": 0.0,
			"-0.017": 0.0,
			"-0.016": 0.0,
			"-0.015": 0.325292437658,
			"-0.014": 1.39475019379,
			"-0.013": 0.36430646964,
			"-0.012": 2.31196918891,
			"-0.011": 2.21118382045,
			"-0.01": 2.17135485061,
			"-0.009": 2.65596937223,
			"-0.008": 6.36527100779,
			"-0.007": 11.7323991086,
			"-0.006": 20.0941194451,
			"-0.005": 22.8929075024,
			"-0.004": 22.9301457952,
			"-0.003": 18.4007982886,
			"-0.002": 13.2332749655,
			"-0.001": 11.6300079465,
			"0.0": 13.0692409946,
			"0.001": 15.3764660426,
			"0.002": 13.7889605512,
			"0.003": 14.969638851,
			"0.004": 14.5351831108,
			"0.005": 10.3036198414,
			"0.006": 2.3154072613,
			"0.007": 3.13216616969,
			"0.008": 2.44471204718,
			"0.009": 3.75744736391,
			"0.01": 4.10541128736,
			"0.011": 5.09802728391,
			"0.012": 12.2905214278,
			"0.013": 8.30170796837,
			"0.014": 1.64938483526,
			"0.015": 0.678470553288,
			"0.016": 0.371077533409,
			"0.017": 0.0,
			"0.018": 0.0,
			"0.019": 0.0,
			"0.02": 0.0,
			"0.021": 0.0,
			"0.022": 0.0,
			"0.023": 0.0,
			"0.024": 0.0,
			"0.025": 0.0
		}
	}
}
