{
	 "smiles": "OCC1=NC2=C(N1)C=CC=C2", 
	 "Tm": 441.15, 
	 "num_atms": 19, 
	 "gaussian": { 
		 "optdone": 1, 
		 "sigma_profile": "yes", 
		 "theory": "DFT", 
		 "functional": "B3LYP", 
		 "basiset": "6-31G**", 
		 "properties": { 
			 "R2extent": 1909.8206, 
			 "electric_dipole_moment_norm": 2.34585590777, 
			 "electric_quadrupole_moment_norm": 3.33030895414, 
			 "total_energy": -494.402107008, 
			 "HOMO_LUMO_gap": 0.2057, 
			 "cosmo_polarized_energy": -13.98, 
			 "cosmo_cavitation_energy": 22.99, 
			 "cosmo_dispersion_energy": -17.47, 
			 "cosmo_repulsion_energy": 1.41, 
			 "cosmo_total_nonelectrostatic_energy": 6.93, 
			 "SMD_solvation_energy": 1.72 
		},
		"coords": [
			{
				"x": -0.9148046819,
				"y": -1.022370084,
				"z": -3.3041876568,
				"element": "O" 
			},
			{
				"x": -1.2520753527,
				"y": 0.2571000904,
				"z": -2.7748533357,
				"element": "C" 
			},
			{
				"x": -0.8663523514,
				"y": 0.3824573884,
				"z": -1.329178221,
				"element": "C" 
			},
			{
				"x": -1.4610065256,
				"y": 1.1239570747,
				"z": -0.4265635936,
				"element": "N" 
			},
			{
				"x": -0.7142195615,
				"y": 0.9387350901,
				"z": 0.7316290498,
				"element": "C" 
			},
			{
				"x": 0.3569668703,
				"y": 0.0410004305,
				"z": 0.4913471708,
				"element": "C" 
			},
			{
				"x": 0.2323994305,
				"y": -0.2928643997,
				"z": -0.8457944855,
				"element": "N" 
			},
			{
				"x": 1.2593036186,
				"y": -0.3354400865,
				"z": 1.4880367474,
				"element": "C" 
			},
			{
				"x": 1.0656625372,
				"y": 0.2205257741,
				"z": 2.7505671236,
				"element": "C" 
			},
			{
				"x": 0.0081548313,
				"y": 1.1163548303,
				"z": 3.007500471,
				"element": "C" 
			},
			{
				"x": -0.8893733279,
				"y": 1.4839914308,
				"z": 2.0098029058,
				"element": "C" 
			},
			{
				"x": -1.5104751814,
				"y": -1.6704762178,
				"z": -2.9049368615,
				"element": "H" 
			},
			{
				"x": -2.3166151599,
				"y": 0.5004140196,
				"z": -2.8775827255,
				"element": "H" 
			},
			{
				"x": -0.6912532276,
				"y": 0.9801203818,
				"z": -3.3785409781,
				"element": "H" 
			},
			{
				"x": 0.7849378152,
				"y": -0.9388116198,
				"z": -1.3886372673,
				"element": "H" 
			},
			{
				"x": 2.075935993,
				"y": -1.0243599195,
				"z": 1.2937272051,
				"element": "H" 
			},
			{
				"x": 1.7463574903,
				"y": -0.0420386961,
				"z": 3.5550616481,
				"element": "H" 
			},
			{
				"x": -0.1047356631,
				"y": 1.5261180162,
				"z": 4.0068934104,
				"element": "H" 
			},
			{
				"x": -1.7060075536,
				"y": 2.1723864966,
				"z": 2.2021093929,
				"element": "H" 
			}
		],
		 "valence_orbital": [ 
			{
				"type": "occ",
				"energy": -0.3017,
				"method": "rhf"
			},
			{
				"type": "occ",
				"energy": -0.29724,
				"method": "rhf"
			},
			{
				"type": "occ",
				"energy": -0.26897,
				"method": "rhf"
			},
			{
				"type": "occ",
				"energy": -0.22484,
				"method": "rhf"
			},
			{
				"type": "occ",
				"energy": -0.22047,
				"method": "rhf"
			},
			{
				"type": "unocc",
				"energy": -0.01477,
				"method": "rhf"
			},
			{
				"type": "unocc",
				"energy": 0.02424,
				"method": "rhf"
			},
			{
				"type": "unocc",
				"energy": 0.04686,
				"method": "rhf"
			},
			{
				"type": "unocc",
				"energy": 0.06837,
				"method": "rhf"
			},
			{
				"type": "unocc",
				"energy": 0.10151,
				"method": "rhf"
			}
		],
		"cosmo_sigma_profile": { 
			"-0.025": 0.0,
			"-0.024": 0.0,
			"-0.023": 0.0,
			"-0.022": 0.0,
			"-0.021": 0.0,
			"-0.02": 0.0,
			"-0.019": 0.0,
			"-0.018": 0.0,
			"-0.017": 0.252599547076,
			"-0.016": 1.3120659785,
			"-0.015": 1.97862833287,
			"-0.014": 2.14360881815,
			"-0.013": 1.43477482841,
			"-0.012": 1.58062479615,
			"-0.011": 2.0952387637,
			"-0.01": 1.64417525666,
			"-0.009": 2.37291200712,
			"-0.008": 2.43340957604,
			"-0.007": 4.0806363877,
			"-0.006": 10.6509557637,
			"-0.005": 12.1595562774,
			"-0.004": 13.1848978613,
			"-0.003": 14.0430670235,
			"-0.002": 10.0693903501,
			"-0.001": 8.13148482687,
			"0.0": 8.33159919653,
			"0.001": 7.39939154245,
			"0.002": 10.8187364417,
			"0.003": 9.82059825832,
			"0.004": 10.7455275014,
			"0.005": 13.0074999834,
			"0.006": 11.290941779,
			"0.007": 4.01652842496,
			"0.008": 2.35330774449,
			"0.009": 1.84817338275,
			"0.01": 2.14702815902,
			"0.011": 2.22947488709,
			"0.012": 2.48543846021,
			"0.013": 2.82601078527,
			"0.014": 1.15940688329,
			"0.015": 0.908865398669,
			"0.016": 1.00755591547,
			"0.017": 0.797773035163,
			"0.018": 0.432657224736,
			"0.019": 0.0,
			"0.02": 0.0,
			"0.021": 0.0,
			"0.022": 0.0,
			"0.023": 0.0,
			"0.024": 0.0,
			"0.025": 0.0
		}
	}
}
