{
	 "smiles": "CCCCOC(=O)C(=O)C1C(C)CC2C3CC(F)C4=CC(=O)C=CC4(C)C3C(O)CC12C", 
	 "Tm": 468.15, 
	 "num_atms": 67, 
	 "gaussian": { 
		 "optdone": 1, 
		 "sigma_profile": "yes", 
		 "theory": "DFT", 
		 "functional": "B3LYP", 
		 "basiset": "6-31G**", 
		 "properties": { 
			 "R2extent": 16632.8759, 
			 "electric_dipole_moment_norm": 5.72977674434, 
			 "electric_quadrupole_moment_norm": 43.5786294148, 
			 "total_energy": -1487.7827249, 
			 "HOMO_LUMO_gap": 0.15281, 
			 "cosmo_polarized_energy": -25.9, 
			 "cosmo_cavitation_energy": 61.9, 
			 "cosmo_dispersion_energy": -40.03, 
			 "cosmo_repulsion_energy": 3.0, 
			 "cosmo_total_nonelectrostatic_energy": 24.87, 
			 "SMD_solvation_energy": 11.81 
		},
		"coords": [
			{
				"x": 5.9727998214,
				"y": -0.8926979827,
				"z": 1.8076945795,
				"element": "C" 
			},
			{
				"x": 5.5674068431,
				"y": -2.3396232027,
				"z": 2.1117304001,
				"element": "C" 
			},
			{
				"x": 4.8004628334,
				"y": -2.5201104175,
				"z": 3.4325225648,
				"element": "C" 
			},
			{
				"x": 3.4374918716,
				"y": -1.8464143912,
				"z": 3.4785911371,
				"element": "C" 
			},
			{
				"x": 2.6124387605,
				"y": -2.4462631328,
				"z": 2.4454314247,
				"element": "O" 
			},
			{
				"x": 1.3844291302,
				"y": -1.9462301694,
				"z": 2.3111186483,
				"element": "C" 
			},
			{
				"x": 0.9146850762,
				"y": -1.0477462352,
				"z": 2.9810142509,
				"element": "O" 
			},
			{
				"x": 0.5951785062,
				"y": -2.660861743,
				"z": 1.184440111,
				"element": "C" 
			},
			{
				"x": 1.0581365997,
				"y": -3.6534107691,
				"z": 0.6575817819,
				"element": "O" 
			},
			{
				"x": -0.7396191984,
				"y": -2.0506625794,
				"z": 0.8233228631,
				"element": "C" 
			},
			{
				"x": -1.8014562183,
				"y": -3.0908881315,
				"z": 0.4090352717,
				"element": "C" 
			},
			{
				"x": -2.365650389,
				"y": -3.9032736424,
				"z": 1.5773535642,
				"element": "C" 
			},
			{
				"x": -2.8610548696,
				"y": -2.2542507736,
				"z": -0.3536324765,
				"element": "C" 
			},
			{
				"x": -2.2227458754,
				"y": -0.8624553522,
				"z": -0.6414536249,
				"element": "C" 
			},
			{
				"x": -2.6428538784,
				"y": -0.2139049882,
				"z": -1.9983650644,
				"element": "C" 
			},
			{
				"x": -3.0742979197,
				"y": 1.2597188526,
				"z": -1.7977927785,
				"element": "C" 
			},
			{
				"x": -2.8606221046,
				"y": 2.1155621032,
				"z": -3.0429332478,
				"element": "C" 
			},
			{
				"x": -3.3211076633,
				"y": 3.4038219543,
				"z": -2.787482434,
				"element": "F" 
			},
			{
				"x": -1.3845990674,
				"y": 2.1071088807,
				"z": -3.3157519115,
				"element": "C" 
			},
			{
				"x": -0.6221870054,
				"y": 3.1847240892,
				"z": -3.0582407934,
				"element": "C" 
			},
			{
				"x": 0.850980009,
				"y": 3.1401496681,
				"z": -3.1110549309,
				"element": "C" 
			},
			{
				"x": 1.5443434804,
				"y": 4.1360310643,
				"z": -2.9160844295,
				"element": "O" 
			},
			{
				"x": 1.4377202822,
				"y": 1.8134217922,
				"z": -3.3867473259,
				"element": "C" 
			},
			{
				"x": 0.6812526083,
				"y": 0.7385010207,
				"z": -3.6595684386,
				"element": "C" 
			},
			{
				"x": -0.8257516149,
				"y": 0.7839354128,
				"z": -3.8022344732,
				"element": "C" 
			},
			{
				"x": -1.0473245713,
				"y": 0.7477692256,
				"z": -5.358370431,
				"element": "C" 
			},
			{
				"x": -1.6431522767,
				"y": -0.4582593538,
				"z": -3.2036923358,
				"element": "C" 
			},
			{
				"x": -0.8351312807,
				"y": -1.7348326937,
				"z": -2.8833762872,
				"element": "C" 
			},
			{
				"x": 0.0167780802,
				"y": -2.1544995352,
				"z": -3.9544483482,
				"element": "O" 
			},
			{
				"x": 0.0346420278,
				"y": -1.6435871752,
				"z": -1.6267023462,
				"element": "C" 
			},
			{
				"x": -0.6920437092,
				"y": -1.0357893843,
				"z": -0.3846323356,
				"element": "C" 
			},
			{
				"x": -0.0302365523,
				"y": 0.2913606053,
				"z": 0.0212449829,
				"element": "C" 
			},
			{
				"x": 6.5853616198,
				"y": -0.4722754353,
				"z": 2.6139194433,
				"element": "H" 
			},
			{
				"x": 6.5579332642,
				"y": -0.837666334,
				"z": 0.8843167393,
				"element": "H" 
			},
			{
				"x": 5.1033854301,
				"y": -0.239410753,
				"z": 1.6773147031,
				"element": "H" 
			},
			{
				"x": 6.4682143418,
				"y": -2.9637372322,
				"z": 2.1538946313,
				"element": "H" 
			},
			{
				"x": 4.95777311,
				"y": -2.7355429534,
				"z": 1.2915879684,
				"element": "H" 
			},
			{
				"x": 4.6647189549,
				"y": -3.589080428,
				"z": 3.6349773406,
				"element": "H" 
			},
			{
				"x": 5.3904842945,
				"y": -2.1150032241,
				"z": 4.2658461155,
				"element": "H" 
			},
			{
				"x": 3.4903580286,
				"y": -0.7688082701,
				"z": 3.2967891103,
				"element": "H" 
			},
			{
				"x": 2.9436749767,
				"y": -1.9936255624,
				"z": 4.444288887,
				"element": "H" 
			},
			{
				"x": -1.0881475268,
				"y": -1.4840059129,
				"z": 1.6939662367,
				"element": "H" 
			},
			{
				"x": -1.3203498242,
				"y": -3.7880415447,
				"z": -0.2867173435,
				"element": "H" 
			},
			{
				"x": -3.1304971732,
				"y": -4.6070488954,
				"z": 1.2316900392,
				"element": "H" 
			},
			{
				"x": -2.828493645,
				"y": -3.2493892807,
				"z": 2.326150274,
				"element": "H" 
			},
			{
				"x": -1.5831301431,
				"y": -4.486950864,
				"z": 2.073469237,
				"element": "H" 
			},
			{
				"x": -3.1758454084,
				"y": -2.7637250644,
				"z": -1.2707335184,
				"element": "H" 
			},
			{
				"x": -3.7677138733,
				"y": -2.1307760888,
				"z": 0.2501426571,
				"element": "H" 
			},
			{
				"x": -2.5792090828,
				"y": -0.1916449836,
				"z": 0.1490661856,
				"element": "H" 
			},
			{
				"x": -3.5498264131,
				"y": -0.7480570321,
				"z": -2.303560762,
				"element": "H" 
			},
			{
				"x": -4.1267847051,
				"y": 1.304123289,
				"z": -1.4967889492,
				"element": "H" 
			},
			{
				"x": -2.4934113992,
				"y": 1.7309311083,
				"z": -0.9984934224,
				"element": "H" 
			},
			{
				"x": -3.4373274865,
				"y": 1.729468684,
				"z": -3.8956249483,
				"element": "H" 
			},
			{
				"x": -1.0735590907,
				"y": 4.123442717,
				"z": -2.7555858222,
				"element": "H" 
			},
			{
				"x": 2.5227539068,
				"y": 1.7576367938,
				"z": -3.3806948945,
				"element": "H" 
			},
			{
				"x": 1.1434434602,
				"y": -0.2062467608,
				"z": -3.9225282075,
				"element": "H" 
			},
			{
				"x": -2.1122601202,
				"y": 0.8125446194,
				"z": -5.6053603334,
				"element": "H" 
			},
			{
				"x": -0.5271887493,
				"y": 1.5795949426,
				"z": -5.838638101,
				"element": "H" 
			},
			{
				"x": -0.6560766954,
				"y": -0.1901985784,
				"z": -5.7621074576,
				"element": "H" 
			},
			{
				"x": -2.2984736677,
				"y": -0.7459079781,
				"z": -4.0341724706,
				"element": "H" 
			},
			{
				"x": -1.5844636818,
				"y": -2.5217394573,
				"z": -2.7128903942,
				"element": "H" 
			},
			{
				"x": -0.5395021809,
				"y": -2.479850179,
				"z": -4.6737366514,
				"element": "H" 
			},
			{
				"x": 0.9173633129,
				"y": -1.0419868844,
				"z": -1.8572904485,
				"element": "H" 
			},
			{
				"x": 0.4070348776,
				"y": -2.6501712306,
				"z": -1.4197781465,
				"element": "H" 
			},
			{
				"x": -0.0944664236,
				"y": 1.0284497274,
				"z": -0.7838438218,
				"element": "H" 
			},
			{
				"x": -0.4999951768,
				"y": 0.7138131694,
				"z": 0.915033269,
				"element": "H" 
			},
			{
				"x": 1.0336111533,
				"y": 0.1566428612,
				"z": 0.2414752883,
				"element": "H" 
			}
		],
		 "valence_orbital": [ 
			{
				"type": "occ",
				"energy": -0.27726,
				"method": "rhf"
			},
			{
				"type": "occ",
				"energy": -0.26543,
				"method": "rhf"
			},
			{
				"type": "occ",
				"energy": -0.25473,
				"method": "rhf"
			},
			{
				"type": "occ",
				"energy": -0.25081,
				"method": "rhf"
			},
			{
				"type": "occ",
				"energy": -0.23066,
				"method": "rhf"
			},
			{
				"type": "unocc",
				"energy": -0.07785,
				"method": "rhf"
			},
			{
				"type": "unocc",
				"energy": -0.05625,
				"method": "rhf"
			},
			{
				"type": "unocc",
				"energy": 0.00103,
				"method": "rhf"
			},
			{
				"type": "unocc",
				"energy": 0.03546,
				"method": "rhf"
			},
			{
				"type": "unocc",
				"energy": 0.05077,
				"method": "rhf"
			}
		],
		"cosmo_sigma_profile": { 
			"-0.025": 0.0,
			"-0.024": 0.0,
			"-0.023": 0.0,
			"-0.022": 0.0,
			"-0.021": 0.0,
			"-0.02": 0.0,
			"-0.019": 0.0,
			"-0.018": 0.0,
			"-0.017": 0.0,
			"-0.016": 0.174325248411,
			"-0.015": 1.1039124179,
			"-0.014": 0.779754315101,
			"-0.013": 0.888323622856,
			"-0.012": 1.20774755862,
			"-0.011": 0.859385604055,
			"-0.01": 1.28873356938,
			"-0.009": 1.56745239225,
			"-0.008": 3.17273000342,
			"-0.007": 6.68666968717,
			"-0.006": 11.7389463942,
			"-0.005": 22.5754512829,
			"-0.004": 43.4076619681,
			"-0.003": 54.1929000403,
			"-0.002": 57.5118171305,
			"-0.001": 56.124256746,
			"0.0": 50.0297660244,
			"0.001": 41.304400134,
			"0.002": 23.7967333917,
			"0.003": 14.1446927576,
			"0.004": 9.76120958059,
			"0.005": 12.240809045,
			"0.006": 11.4879691195,
			"0.007": 7.91770419118,
			"0.008": 5.66509318958,
			"0.009": 6.50257378464,
			"0.01": 8.32805794534,
			"0.011": 8.68935806529,
			"0.012": 5.22862780822,
			"0.013": 6.00347648746,
			"0.014": 4.13530890172,
			"0.015": 1.40276972467,
			"0.016": 0.0,
			"0.017": 0.0,
			"0.018": 0.0,
			"0.019": 0.0,
			"0.02": 0.0,
			"0.021": 0.0,
			"0.022": 0.0,
			"0.023": 0.0,
			"0.024": 0.0,
			"0.025": 0.0
		}
	}
}
