{
	 "smiles": "[O-][N+](=O)C1=C(Cl)C=CC(=C1)S(=O)(=O)NCCN1CCOCC1", 
	 "Tm": 393.15, 
	 "num_atms": 38, 
	 "gaussian": { 
		 "optdone": 1, 
		 "sigma_profile": "yes", 
		 "theory": "DFT", 
		 "functional": "B3LYP", 
		 "basiset": "6-31G**", 
		 "properties": { 
			 "R2extent": 11265.5753, 
			 "electric_dipole_moment_norm": 5.78334779864, 
			 "electric_quadrupole_moment_norm": 22.8264945064, 
			 "total_energy": -1865.44741738, 
			 "HOMO_LUMO_gap": 0.09954, 
			 "cosmo_polarized_energy": -23.66, 
			 "cosmo_cavitation_energy": 44.41, 
			 "cosmo_dispersion_energy": -30.88, 
			 "cosmo_repulsion_energy": 2.32, 
			 "cosmo_total_nonelectrostatic_energy": 15.86, 
			 "SMD_solvation_energy": 6.4 
		},
		"coords": [
			{
				"x": -4.5584595119,
				"y": 0.7355881205,
				"z": 0.5155579297,
				"element": "O" 
			},
			{
				"x": -4.4728030718,
				"y": 0.1103420882,
				"z": 1.5717328241,
				"element": "N" 
			},
			{
				"x": -5.3876439356,
				"y": -0.0811594295,
				"z": 2.3631868289,
				"element": "O" 
			},
			{
				"x": -3.1370508577,
				"y": -0.4174844262,
				"z": 1.9125540277,
				"element": "C" 
			},
			{
				"x": -2.9402603238,
				"y": -1.6097168895,
				"z": 2.6276330793,
				"element": "C" 
			},
			{
				"x": -4.2338241284,
				"y": -2.658735009,
				"z": 3.1213014431,
				"element": "Cl" 
			},
			{
				"x": -1.6316792662,
				"y": -2.0102254395,
				"z": 2.9233285157,
				"element": "C" 
			},
			{
				"x": -0.5438541958,
				"y": -1.2428024133,
				"z": 2.5208454706,
				"element": "C" 
			},
			{
				"x": -0.7597840183,
				"y": -0.0676987803,
				"z": 1.7961706467,
				"element": "C" 
			},
			{
				"x": -2.0504884295,
				"y": 0.3478629265,
				"z": 1.48905482,
				"element": "C" 
			},
			{
				"x": 0.6504751596,
				"y": 0.9086872798,
				"z": 1.2360021922,
				"element": "S" 
			},
			{
				"x": 0.1829800974,
				"y": 2.2893568454,
				"z": 1.1196117895,
				"element": "O" 
			},
			{
				"x": 1.7890466346,
				"y": 0.5119874132,
				"z": 2.0641682169,
				"element": "O" 
			},
			{
				"x": 1.0238677089,
				"y": 0.3980529398,
				"z": -0.310085165,
				"element": "N" 
			},
			{
				"x": 0.0984285979,
				"y": 0.611558214,
				"z": -1.4311989342,
				"element": "C" 
			},
			{
				"x": 0.850558133,
				"y": 0.7191663098,
				"z": -2.7812595369,
				"element": "C" 
			},
			{
				"x": 1.6206854305,
				"y": 1.9129641679,
				"z": -3.0431048081,
				"element": "N" 
			},
			{
				"x": 0.8512590275,
				"y": 3.1476602731,
				"z": -3.1704647382,
				"element": "C" 
			},
			{
				"x": 1.8046967463,
				"y": 4.3131089323,
				"z": -3.4166438016,
				"element": "C" 
			},
			{
				"x": 2.706136687,
				"y": 4.5249797261,
				"z": -2.3331293091,
				"element": "O" 
			},
			{
				"x": 2.9562716553,
				"y": 3.3659569344,
				"z": -1.5366566714,
				"element": "C" 
			},
			{
				"x": 2.9179429945,
				"y": 2.0817992314,
				"z": -2.3643465301,
				"element": "C" 
			},
			{
				"x": -1.4810321801,
				"y": -2.9303778359,
				"z": 3.476259663,
				"element": "H" 
			},
			{
				"x": 0.4670905305,
				"y": -1.5398996642,
				"z": 2.7780329246,
				"element": "H" 
			},
			{
				"x": -2.232848675,
				"y": 1.2688162609,
				"z": 0.9493276781,
				"element": "H" 
			},
			{
				"x": 1.5070574564,
				"y": -0.4954007572,
				"z": -0.2918815476,
				"element": "H" 
			},
			{
				"x": -0.6448794202,
				"y": -0.1975756465,
				"z": -1.4957311525,
				"element": "H" 
			},
			{
				"x": -0.4381734119,
				"y": 1.541966399,
				"z": -1.2331638759,
				"element": "H" 
			},
			{
				"x": 1.5057160687,
				"y": -0.155279389,
				"z": -2.893386086,
				"element": "H" 
			},
			{
				"x": 0.0850951461,
				"y": 0.6279917811,
				"z": -3.5651868275,
				"element": "H" 
			},
			{
				"x": 0.2387814227,
				"y": 3.3824064261,
				"z": -2.280622222,
				"element": "H" 
			},
			{
				"x": 0.1595148069,
				"y": 3.0573865986,
				"z": -4.019686502,
				"element": "H" 
			},
			{
				"x": 2.3669358256,
				"y": 4.1235360661,
				"z": -4.3445354477,
				"element": "H" 
			},
			{
				"x": 1.237263035,
				"y": 5.2406251637,
				"z": -3.5503117431,
				"element": "H" 
			},
			{
				"x": 2.2268029451,
				"y": 3.3013545258,
				"z": -0.7164962257,
				"element": "H" 
			},
			{
				"x": 3.9483982126,
				"y": 3.5021188164,
				"z": -1.0932209475,
				"element": "H" 
			},
			{
				"x": 3.1153442401,
				"y": 1.2323528284,
				"z": -1.7053154525,
				"element": "H" 
			},
			{
				"x": 3.7276328641,
				"y": 2.1162294116,
				"z": -3.1091405253,
				"element": "H" 
			}
		],
		 "valence_orbital": [ 
			{
				"type": "occ",
				"energy": -0.29881,
				"method": "rhf"
			},
			{
				"type": "occ",
				"energy": -0.29448,
				"method": "rhf"
			},
			{
				"type": "occ",
				"energy": -0.28279,
				"method": "rhf"
			},
			{
				"type": "occ",
				"energy": -0.24023,
				"method": "rhf"
			},
			{
				"type": "occ",
				"energy": -0.20689,
				"method": "rhf"
			},
			{
				"type": "unocc",
				"energy": -0.10735,
				"method": "rhf"
			},
			{
				"type": "unocc",
				"energy": -0.07089,
				"method": "rhf"
			},
			{
				"type": "unocc",
				"energy": -0.03997,
				"method": "rhf"
			},
			{
				"type": "unocc",
				"energy": -0.0053,
				"method": "rhf"
			},
			{
				"type": "unocc",
				"energy": 0.03863,
				"method": "rhf"
			}
		],
		"cosmo_sigma_profile": { 
			"-0.025": 0.0,
			"-0.024": 0.0,
			"-0.023": 0.0,
			"-0.022": 0.0,
			"-0.021": 0.0,
			"-0.02": 0.0,
			"-0.019": 0.0,
			"-0.018": 0.0,
			"-0.017": 0.0,
			"-0.016": 0.083182289441,
			"-0.015": 0.93184809293,
			"-0.014": 1.31518750321,
			"-0.013": 1.43575401142,
			"-0.012": 1.60026441946,
			"-0.011": 1.21519600108,
			"-0.01": 2.06206308342,
			"-0.009": 5.52598574017,
			"-0.008": 7.38642838001,
			"-0.007": 9.8566902907,
			"-0.006": 8.37139905839,
			"-0.005": 17.8954921341,
			"-0.004": 34.9895744935,
			"-0.003": 36.3265720111,
			"-0.002": 37.7478688079,
			"-0.001": 30.8549362429,
			"0.0": 20.0591503128,
			"0.001": 15.5499200471,
			"0.002": 18.4008701912,
			"0.003": 12.4825758987,
			"0.004": 10.2112794565,
			"0.005": 9.76920900906,
			"0.006": 10.4910467403,
			"0.007": 15.5495979188,
			"0.008": 10.8919994619,
			"0.009": 9.46384392945,
			"0.01": 8.53554304876,
			"0.011": 8.28620113689,
			"0.012": 1.90632941282,
			"0.013": 2.0264938999,
			"0.014": 1.86524366767,
			"0.015": 0.0506309184198,
			"0.016": 0.0,
			"0.017": 0.0,
			"0.018": 0.0,
			"0.019": 0.0,
			"0.02": 0.0,
			"0.021": 0.0,
			"0.022": 0.0,
			"0.023": 0.0,
			"0.024": 0.0,
			"0.025": 0.0
		}
	}
}
