{
	 "smiles": "NC1=NC(=CS1)C1=C(F)C=CC=C1F", 
	 "Tm": 453.15, 
	 "num_atms": 20, 
	 "gaussian": { 
		 "optdone": 1, 
		 "sigma_profile": "yes", 
		 "theory": "DFT", 
		 "functional": "B3LYP", 
		 "basiset": "6-31G**", 
		 "properties": { 
			 "R2extent": 3353.3396, 
			 "electric_dipole_moment_norm": 1.13946065312, 
			 "electric_quadrupole_moment_norm": 16.5014611023, 
			 "total_energy": -1053.9267209, 
			 "HOMO_LUMO_gap": 0.17252, 
			 "cosmo_polarized_energy": -11.5, 
			 "cosmo_cavitation_energy": 27.11, 
			 "cosmo_dispersion_energy": -20.53, 
			 "cosmo_repulsion_energy": 1.53, 
			 "cosmo_total_nonelectrostatic_energy": 8.12, 
			 "SMD_solvation_energy": 4.12 
		},
		"coords": [
			{
				"x": -2.7021972364,
				"y": 1.0983561599,
				"z": -3.3123669417,
				"element": "N" 
			},
			{
				"x": -1.6302008128,
				"y": 0.6678150583,
				"z": -2.5615053725,
				"element": "C" 
			},
			{
				"x": -1.6918366655,
				"y": 0.4025763791,
				"z": -1.2926375764,
				"element": "N" 
			},
			{
				"x": -0.4791548411,
				"y": -0.0838699471,
				"z": -0.8225480242,
				"element": "C" 
			},
			{
				"x": 0.5190858589,
				"y": -0.1714067769,
				"z": -1.7558426798,
				"element": "C" 
			},
			{
				"x": -0.0608702826,
				"y": 0.342519844,
				"z": -3.3159032727,
				"element": "S" 
			},
			{
				"x": -0.3462075594,
				"y": -0.4408322911,
				"z": 0.6035371877,
				"element": "C" 
			},
			{
				"x": 0.868615627,
				"y": -0.3294256639,
				"z": 1.3010786286,
				"element": "C" 
			},
			{
				"x": 1.9631363208,
				"y": 0.102240259,
				"z": 0.6338804206,
				"element": "F" 
			},
			{
				"x": 1.0206868849,
				"y": -0.632105131,
				"z": 2.6469065468,
				"element": "C" 
			},
			{
				"x": -0.0883164799,
				"y": -1.0794780795,
				"z": 3.3638999495,
				"element": "C" 
			},
			{
				"x": -1.3189853195,
				"y": -1.2214470349,
				"z": 2.7261431594,
				"element": "C" 
			},
			{
				"x": -1.4260276734,
				"y": -0.9081897738,
				"z": 1.375595328,
				"element": "C" 
			},
			{
				"x": -2.6226075105,
				"y": -1.0901288202,
				"z": 0.7939331173,
				"element": "F" 
			},
			{
				"x": -3.4770007274,
				"y": 1.4069636069,
				"z": -2.7389930053,
				"element": "H" 
			},
			{
				"x": -2.4963817349,
				"y": 1.7165896668,
				"z": -4.0844094178,
				"element": "H" 
			},
			{
				"x": 1.5395971908,
				"y": -0.4911646938,
				"z": -1.622944258,
				"element": "H" 
			},
			{
				"x": 1.9948660353,
				"y": -0.5093790326,
				"z": 3.1060266979,
				"element": "H" 
			},
			{
				"x": 0.0086313198,
				"y": -1.3224196329,
				"z": 4.4170617178,
				"element": "H" 
			},
			{
				"x": -2.199732394,
				"y": -1.5781140963,
				"z": 3.2478877948,
				"element": "H" 
			}
		],
		 "valence_orbital": [ 
			{
				"type": "occ",
				"energy": -0.28496,
				"method": "rhf"
			},
			{
				"type": "occ",
				"energy": -0.26999,
				"method": "rhf"
			},
			{
				"type": "occ",
				"energy": -0.25421,
				"method": "rhf"
			},
			{
				"type": "occ",
				"energy": -0.2438,
				"method": "rhf"
			},
			{
				"type": "occ",
				"energy": -0.20432,
				"method": "rhf"
			},
			{
				"type": "unocc",
				"energy": -0.0318,
				"method": "rhf"
			},
			{
				"type": "unocc",
				"energy": 0.00168,
				"method": "rhf"
			},
			{
				"type": "unocc",
				"energy": 0.01045,
				"method": "rhf"
			},
			{
				"type": "unocc",
				"energy": 0.01293,
				"method": "rhf"
			},
			{
				"type": "unocc",
				"energy": 0.07024,
				"method": "rhf"
			}
		],
		"cosmo_sigma_profile": { 
			"-0.025": 0.0,
			"-0.024": 0.0,
			"-0.023": 0.0,
			"-0.022": 0.0,
			"-0.021": 0.0,
			"-0.02": 0.0,
			"-0.019": 0.0,
			"-0.018": 0.0,
			"-0.017": 0.0,
			"-0.016": 0.0,
			"-0.015": 0.231956793134,
			"-0.014": 2.00468536946,
			"-0.013": 2.69025314538,
			"-0.012": 2.6264565578,
			"-0.011": 2.64855761503,
			"-0.01": 2.49202980995,
			"-0.009": 2.13491257905,
			"-0.008": 3.81734601255,
			"-0.007": 8.68432435836,
			"-0.006": 8.63444443721,
			"-0.005": 8.71711783875,
			"-0.004": 9.45890597402,
			"-0.003": 7.91325094284,
			"-0.002": 9.41949610525,
			"-0.001": 9.46334067294,
			"0.0": 15.7843812922,
			"0.001": 24.4882251637,
			"0.002": 24.8395780287,
			"0.003": 24.2533748214,
			"0.004": 23.5329463419,
			"0.005": 8.75834880232,
			"0.006": 3.32505368055,
			"0.007": 3.08720340591,
			"0.008": 2.67170028539,
			"0.009": 1.99628115687,
			"0.01": 2.07748076544,
			"0.011": 1.65790011657,
			"0.012": 1.59169122003,
			"0.013": 1.04675121612,
			"0.014": 0.600709678049,
			"0.015": 0.0310253551271,
			"0.016": 0.0,
			"0.017": 0.0,
			"0.018": 0.0,
			"0.019": 0.0,
			"0.02": 0.0,
			"0.021": 0.0,
			"0.022": 0.0,
			"0.023": 0.0,
			"0.024": 0.0,
			"0.025": 0.0
		}
	}
}
