{
	 "smiles": "C[C@@H]1N[C@@H](CC2C1NC1=CC=CC=C21)C(O)=O", 
	 "Tm": 559.15, 
	 "num_atms": 33, 
	 "gaussian": { 
		 "optdone": 1, 
		 "sigma_profile": "yes", 
		 "theory": "DFT", 
		 "functional": "B3LYP", 
		 "basiset": "6-31G**", 
		 "properties": { 
			 "R2extent": 3853.4257, 
			 "electric_dipole_moment_norm": 2.85422063618, 
			 "electric_quadrupole_moment_norm": 4.34345012174, 
			 "total_energy": -764.986161299, 
			 "HOMO_LUMO_gap": 0.18781, 
			 "cosmo_polarized_energy": -16.03, 
			 "cosmo_cavitation_energy": 33.6, 
			 "cosmo_dispersion_energy": -23.94, 
			 "cosmo_repulsion_energy": 1.86, 
			 "cosmo_total_nonelectrostatic_energy": 11.52, 
			 "SMD_solvation_energy": 4.87 
		},
		"coords": [
			{
				"x": -0.0689871484,
				"y": 0.985330617,
				"z": 3.6177236919,
				"element": "C" 
			},
			{
				"x": 0.4905011619,
				"y": 0.4413627569,
				"z": 2.3060113084,
				"element": "C" 
			},
			{
				"x": 0.6626500061,
				"y": 1.5284866876,
				"z": 1.3443429839,
				"element": "N" 
			},
			{
				"x": 1.5353000991,
				"y": 1.1964792273,
				"z": 0.2228091261,
				"element": "C" 
			},
			{
				"x": 1.3367195755,
				"y": -0.2731091098,
				"z": -0.2029572543,
				"element": "C" 
			},
			{
				"x": -0.0519638545,
				"y": -0.8355186602,
				"z": 0.1437046923,
				"element": "C" 
			},
			{
				"x": -0.4413186017,
				"y": -0.6097802317,
				"z": 1.6512542142,
				"element": "C" 
			},
			{
				"x": -1.8411287484,
				"y": -0.1456630002,
				"z": 1.6210773913,
				"element": "N" 
			},
			{
				"x": -2.2649782655,
				"y": 0.03479866,
				"z": 0.3014117696,
				"element": "C" 
			},
			{
				"x": -3.5140348483,
				"y": 0.4735973601,
				"z": -0.139301783,
				"element": "C" 
			},
			{
				"x": -3.711156303,
				"y": 0.6356518277,
				"z": -1.5155439151,
				"element": "C" 
			},
			{
				"x": -2.6855954316,
				"y": 0.3766621566,
				"z": -2.427147609,
				"element": "C" 
			},
			{
				"x": -1.4387717077,
				"y": -0.0762921634,
				"z": -1.9706666011,
				"element": "C" 
			},
			{
				"x": -1.2369672216,
				"y": -0.2540547038,
				"z": -0.6087142892,
				"element": "C" 
			},
			{
				"x": 1.3181487049,
				"y": 2.1642414352,
				"z": -0.9415993198,
				"element": "C" 
			},
			{
				"x": 1.090875472,
				"y": 3.4249901195,
				"z": -0.5085530049,
				"element": "O" 
			},
			{
				"x": 1.4121936054,
				"y": 1.8878771587,
				"z": -2.1177379227,
				"element": "O" 
			},
			{
				"x": -0.243258276,
				"y": 0.1739973149,
				"z": 4.3325589795,
				"element": "H" 
			},
			{
				"x": -1.0157188543,
				"y": 1.4993381864,
				"z": 3.4349385542,
				"element": "H" 
			},
			{
				"x": 0.6341579805,
				"y": 1.6877327664,
				"z": 4.0793015281,
				"element": "H" 
			},
			{
				"x": 1.4492087396,
				"y": -0.0675309364,
				"z": 2.5324025705,
				"element": "H" 
			},
			{
				"x": 0.9455531705,
				"y": 2.3958879851,
				"z": 1.7854054409,
				"element": "H" 
			},
			{
				"x": 2.6096024725,
				"y": 1.3215900234,
				"z": 0.4722769612,
				"element": "H" 
			},
			{
				"x": 2.0916493936,
				"y": -0.8896253905,
				"z": 0.2966647138,
				"element": "H" 
			},
			{
				"x": 1.5259974529,
				"y": -0.3545240141,
				"z": -1.2761680536,
				"element": "H" 
			},
			{
				"x": -0.0125205007,
				"y": -1.9147755617,
				"z": -0.0599795012,
				"element": "H" 
			},
			{
				"x": -0.3631270325,
				"y": -1.5435584338,
				"z": 2.2229637725,
				"element": "H" 
			},
			{
				"x": -2.4865830107,
				"y": -0.5851038414,
				"z": 2.2617564659,
				"element": "H" 
			},
			{
				"x": -4.3083687443,
				"y": 0.696674719,
				"z": 0.5675603867,
				"element": "H" 
			},
			{
				"x": -4.6772593557,
				"y": 0.9795242906,
				"z": -1.8754756958,
				"element": "H" 
			},
			{
				"x": -2.8530269733,
				"y": 0.5213055078,
				"z": -3.4901078048,
				"element": "H" 
			},
			{
				"x": -0.6414673651,
				"y": -0.2832587623,
				"z": -2.6790828387,
				"element": "H" 
			},
			{
				"x": 0.9926744091,
				"y": 3.9706660091,
				"z": -1.3067289581,
				"element": "H" 
			}
		],
		 "valence_orbital": [ 
			{
				"type": "occ",
				"energy": -0.27868,
				"method": "rhf"
			},
			{
				"type": "occ",
				"energy": -0.2737,
				"method": "rhf"
			},
			{
				"type": "occ",
				"energy": -0.23128,
				"method": "rhf"
			},
			{
				"type": "occ",
				"energy": -0.21721,
				"method": "rhf"
			},
			{
				"type": "occ",
				"energy": -0.18106,
				"method": "rhf"
			},
			{
				"type": "unocc",
				"energy": 0.00675,
				"method": "rhf"
			},
			{
				"type": "unocc",
				"energy": 0.01776,
				"method": "rhf"
			},
			{
				"type": "unocc",
				"energy": 0.03013,
				"method": "rhf"
			},
			{
				"type": "unocc",
				"energy": 0.07142,
				"method": "rhf"
			},
			{
				"type": "unocc",
				"energy": 0.08216,
				"method": "rhf"
			}
		],
		"cosmo_sigma_profile": { 
			"-0.025": 0.0,
			"-0.024": 0.0,
			"-0.023": 0.0,
			"-0.022": 0.0,
			"-0.021": 0.0,
			"-0.02": 0.0,
			"-0.019": 0.0085412094337,
			"-0.018": 0.628993043806,
			"-0.017": 0.952550747648,
			"-0.016": 1.02209900158,
			"-0.015": 0.632527067865,
			"-0.014": 0.46813453704,
			"-0.013": 1.21983090805,
			"-0.012": 1.36234443616,
			"-0.011": 1.94503196892,
			"-0.01": 2.2901222147,
			"-0.009": 2.48168519645,
			"-0.008": 2.23913244763,
			"-0.007": 3.58396711547,
			"-0.006": 5.73211508581,
			"-0.005": 12.305164856,
			"-0.004": 22.7098603461,
			"-0.003": 33.9244303591,
			"-0.002": 28.1495203386,
			"-0.001": 21.6186293735,
			"0.0": 17.3608595046,
			"0.001": 14.9831682234,
			"0.002": 10.2267314373,
			"0.003": 8.2325445453,
			"0.004": 9.78336573495,
			"0.005": 9.88613995468,
			"0.006": 10.059692729,
			"0.007": 11.6872467428,
			"0.008": 8.55889329801,
			"0.009": 3.10743930451,
			"0.01": 3.63437893162,
			"0.011": 3.55004533419,
			"0.012": 4.58922620397,
			"0.013": 1.51606361783,
			"0.014": 0.79464297628,
			"0.015": 0.922635549439,
			"0.016": 0.391268447365,
			"0.017": 0.0,
			"0.018": 0.0,
			"0.019": 0.0,
			"0.02": 0.0,
			"0.021": 0.0,
			"0.022": 0.0,
			"0.023": 0.0,
			"0.024": 0.0,
			"0.025": 0.0
		}
	}
}
