{
	 "smiles": "FC1=CC=C(C=C1)S(=O)(=O)N1CCCNCC1", 
	 "Tm": 454.15, 
	 "num_atms": 32, 
	 "gaussian": { 
		 "optdone": 1, 
		 "sigma_profile": "yes", 
		 "theory": "DFT", 
		 "functional": "B3LYP", 
		 "basiset": "6-31G**", 
		 "properties": { 
			 "R2extent": 4709.664, 
			 "electric_dipole_moment_norm": 5.06950735674, 
			 "electric_quadrupole_moment_norm": 15.7216306489, 
			 "total_energy": -1186.09816152, 
			 "HOMO_LUMO_gap": 0.19563, 
			 "cosmo_polarized_energy": -14.58, 
			 "cosmo_cavitation_energy": 34.92, 
			 "cosmo_dispersion_energy": -25.06, 
			 "cosmo_repulsion_energy": 1.87, 
			 "cosmo_total_nonelectrostatic_energy": 11.73, 
			 "SMD_solvation_energy": 2.57 
		},
		"coords": [
			{
				"x": -3.8218550041,
				"y": -2.4160911473,
				"z": -1.4971877971,
				"element": "F" 
			},
			{
				"x": -2.5227020504,
				"y": -2.1256795249,
				"z": -1.2998695803,
				"element": "C" 
			},
			{
				"x": -1.9349162292,
				"y": -2.4744250386,
				"z": -0.0861783407,
				"element": "C" 
			},
			{
				"x": -0.5907520046,
				"y": -2.1726803225,
				"z": 0.117270549,
				"element": "C" 
			},
			{
				"x": 0.1348559486,
				"y": -1.5296401588,
				"z": -0.8913113602,
				"element": "C" 
			},
			{
				"x": -0.4653357251,
				"y": -1.2018546631,
				"z": -2.110280357,
				"element": "C" 
			},
			{
				"x": -1.8119891832,
				"y": -1.4995873812,
				"z": -2.3183172231,
				"element": "C" 
			},
			{
				"x": 1.8621228075,
				"y": -1.1110306185,
				"z": -0.6084503895,
				"element": "S" 
			},
			{
				"x": 2.4593512321,
				"y": -0.9178008955,
				"z": -1.9328631209,
				"element": "O" 
			},
			{
				"x": 2.3875878025,
				"y": -2.0921257548,
				"z": 0.3465635322,
				"element": "O" 
			},
			{
				"x": 1.8718073303,
				"y": 0.3774671424,
				"z": 0.1513632606,
				"element": "N" 
			},
			{
				"x": 1.6306195128,
				"y": 1.5499744475,
				"z": -0.7153019755,
				"element": "C" 
			},
			{
				"x": 1.4518229148,
				"y": 2.8708797296,
				"z": 0.0379015855,
				"element": "C" 
			},
			{
				"x": 0.2481653322,
				"y": 2.939947646,
				"z": 0.9913982689,
				"element": "C" 
			},
			{
				"x": 0.5420639753,
				"y": 2.3716540215,
				"z": 2.3055903441,
				"element": "N" 
			},
			{
				"x": 0.7032126916,
				"y": 0.9213166747,
				"z": 2.336147373,
				"element": "C" 
			},
			{
				"x": 1.9772568606,
				"y": 0.4603091732,
				"z": 1.6136655529,
				"element": "C" 
			},
			{
				"x": -2.525739829,
				"y": -2.9808970222,
				"z": 0.6690706974,
				"element": "H" 
			},
			{
				"x": -0.0963432633,
				"y": -2.4559704855,
				"z": 1.0399030366,
				"element": "H" 
			},
			{
				"x": 0.1285333278,
				"y": -0.74466947,
				"z": -2.8935831388,
				"element": "H" 
			},
			{
				"x": -2.3086914576,
				"y": -1.2653626694,
				"z": -3.2533996788,
				"element": "H" 
			},
			{
				"x": 0.721821547,
				"y": 1.3750638486,
				"z": -1.3089771081,
				"element": "H" 
			},
			{
				"x": 2.4608882319,
				"y": 1.6441796942,
				"z": -1.4220072722,
				"element": "H" 
			},
			{
				"x": 1.3258619365,
				"y": 3.6345402109,
				"z": -0.7391698088,
				"element": "H" 
			},
			{
				"x": 2.3581026185,
				"y": 3.1369770517,
				"z": 0.5919470464,
				"element": "H" 
			},
			{
				"x": -0.0105301941,
				"y": 3.9927404832,
				"z": 1.1491090832,
				"element": "H" 
			},
			{
				"x": -0.6244911698,
				"y": 2.4666659309,
				"z": 0.4985231714,
				"element": "H" 
			},
			{
				"x": -0.1912497241,
				"y": 2.639829995,
				"z": 2.9552110488,
				"element": "H" 
			},
			{
				"x": 0.7906537152,
				"y": 0.6266295116,
				"z": 3.388741458,
				"element": "H" 
			},
			{
				"x": -0.1586147203,
				"y": 0.3716670928,
				"z": 1.9118061855,
				"element": "H" 
			},
			{
				"x": 2.7990873562,
				"y": 1.1352633491,
				"z": 1.8791845077,
				"element": "H" 
			},
			{
				"x": 2.2583954133,
				"y": -0.5357908506,
				"z": 1.9571004497,
				"element": "H" 
			}
		],
		 "valence_orbital": [ 
			{
				"type": "occ",
				"energy": -0.29755,
				"method": "rhf"
			},
			{
				"type": "occ",
				"energy": -0.27978,
				"method": "rhf"
			},
			{
				"type": "occ",
				"energy": -0.27164,
				"method": "rhf"
			},
			{
				"type": "occ",
				"energy": -0.24136,
				"method": "rhf"
			},
			{
				"type": "occ",
				"energy": -0.22952,
				"method": "rhf"
			},
			{
				"type": "unocc",
				"energy": -0.03389,
				"method": "rhf"
			},
			{
				"type": "unocc",
				"energy": -0.03028,
				"method": "rhf"
			},
			{
				"type": "unocc",
				"energy": 0.05484,
				"method": "rhf"
			},
			{
				"type": "unocc",
				"energy": 0.06984,
				"method": "rhf"
			},
			{
				"type": "unocc",
				"energy": 0.08441,
				"method": "rhf"
			}
		],
		"cosmo_sigma_profile": { 
			"-0.025": 0.0,
			"-0.024": 0.0,
			"-0.023": 0.0,
			"-0.022": 0.0,
			"-0.021": 0.0,
			"-0.02": 0.0,
			"-0.019": 0.0,
			"-0.018": 0.0,
			"-0.017": 0.0,
			"-0.016": 0.0,
			"-0.015": 0.0,
			"-0.014": 0.0,
			"-0.013": 0.0,
			"-0.012": 0.0,
			"-0.011": 0.117553516146,
			"-0.01": 1.46050759663,
			"-0.009": 1.16530891871,
			"-0.008": 5.1066091556,
			"-0.007": 7.95570381225,
			"-0.006": 9.79488066523,
			"-0.005": 11.4464235963,
			"-0.004": 28.6233613137,
			"-0.003": 28.1679718121,
			"-0.002": 26.81314988,
			"-0.001": 31.3338442209,
			"0.0": 21.8695355676,
			"0.001": 19.1758672785,
			"0.002": 16.3756893922,
			"0.003": 11.2040484793,
			"0.004": 13.0543879283,
			"0.005": 4.28590878177,
			"0.006": 3.40953906032,
			"0.007": 3.98710939963,
			"0.008": 3.86000999464,
			"0.009": 5.04391369422,
			"0.01": 6.10010021227,
			"0.011": 7.38348594682,
			"0.012": 4.73301691555,
			"0.013": 0.971929768087,
			"0.014": 0.89515093474,
			"0.015": 0.039984627861,
			"0.016": 0.714295380906,
			"0.017": 0.135291984511,
			"0.018": 0.0873567321834,
			"0.019": 0.0,
			"0.02": 0.0,
			"0.021": 0.0,
			"0.022": 0.0,
			"0.023": 0.0,
			"0.024": 0.0,
			"0.025": 0.0
		}
	}
}
