{
	 "smiles": "CC1=C(C=CC=C1NC1=NC=CC=C1C(O)=O)C(F)(F)F", 
	 "Tm": 499.15, 
	 "num_atms": 32, 
	 "gaussian": { 
		 "optdone": 1, 
		 "sigma_profile": "yes", 
		 "theory": "DFT", 
		 "functional": "B3LYP", 
		 "basiset": "6-31G**", 
		 "properties": { 
			 "R2extent": 8445.0776, 
			 "electric_dipole_moment_norm": 3.94313807265, 
			 "electric_quadrupole_moment_norm": 17.6602397121, 
			 "total_energy": -1099.63232346, 
			 "HOMO_LUMO_gap": 0.15846, 
			 "cosmo_polarized_energy": -11.2, 
			 "cosmo_cavitation_energy": 37.23, 
			 "cosmo_dispersion_energy": -26.16, 
			 "cosmo_repulsion_energy": 1.92, 
			 "cosmo_total_nonelectrostatic_energy": 12.99, 
			 "SMD_solvation_energy": 7.92 
		},
		"coords": [
			{
				"x": -1.5875056765,
				"y": 1.1040928486,
				"z": -2.4119017672,
				"element": "C" 
			},
			{
				"x": -0.4470942165,
				"y": 1.1270442405,
				"z": -1.4247352395,
				"element": "C" 
			},
			{
				"x": 0.8735821613,
				"y": 1.4466505741,
				"z": -1.804119169,
				"element": "C" 
			},
			{
				"x": 1.9070230373,
				"y": 1.5256916018,
				"z": -0.8676702031,
				"element": "C" 
			},
			{
				"x": 1.6496393958,
				"y": 1.2809180598,
				"z": 0.4783673209,
				"element": "C" 
			},
			{
				"x": 0.3639907142,
				"y": 0.9302876453,
				"z": 0.8738531199,
				"element": "C" 
			},
			{
				"x": -0.6723632808,
				"y": 0.8389384271,
				"z": -0.0632530345,
				"element": "C" 
			},
			{
				"x": -1.9712741526,
				"y": 0.5248557704,
				"z": 0.4286359634,
				"element": "N" 
			},
			{
				"x": -2.6732140943,
				"y": -0.6155757205,
				"z": 0.1599123423,
				"element": "C" 
			},
			{
				"x": -2.1572134217,
				"y": -1.4686098186,
				"z": -0.746009225,
				"element": "N" 
			},
			{
				"x": -2.8336180161,
				"y": -2.578472352,
				"z": -1.0328834232,
				"element": "C" 
			},
			{
				"x": -4.0570916739,
				"y": -2.9321586235,
				"z": -0.4560326138,
				"element": "C" 
			},
			{
				"x": -4.5918734246,
				"y": -2.0645573628,
				"z": 0.4863273374,
				"element": "C" 
			},
			{
				"x": -3.9155410385,
				"y": -0.8849945407,
				"z": 0.8240354772,
				"element": "C" 
			},
			{
				"x": -4.4506200447,
				"y": 0.0268261194,
				"z": 1.8429876929,
				"element": "C" 
			},
			{
				"x": -5.6492869059,
				"y": -0.3559634282,
				"z": 2.3432109033,
				"element": "O" 
			},
			{
				"x": -3.904740615,
				"y": 1.0499061799,
				"z": 2.2470128988,
				"element": "O" 
			},
			{
				"x": 1.1988946254,
				"y": 1.7421948213,
				"z": -3.2487347508,
				"element": "C" 
			},
			{
				"x": 0.6082624277,
				"y": 2.8856811086,
				"z": -3.6825806931,
				"element": "F" 
			},
			{
				"x": 2.5259947586,
				"y": 1.8948627669,
				"z": -3.4525238589,
				"element": "F" 
			},
			{
				"x": 0.7862487449,
				"y": 0.7555971149,
				"z": -4.0774763762,
				"element": "F" 
			},
			{
				"x": -2.5233045592,
				"y": 1.3539092308,
				"z": -1.9069880368,
				"element": "H" 
			},
			{
				"x": -1.7038479066,
				"y": 0.1039489011,
				"z": -2.8391727212,
				"element": "H" 
			},
			{
				"x": -1.433010742,
				"y": 1.8131204191,
				"z": -3.2244398982,
				"element": "H" 
			},
			{
				"x": 2.9066149623,
				"y": 1.7807905776,
				"z": -1.1977670856,
				"element": "H" 
			},
			{
				"x": 2.4487596525,
				"y": 1.3477059613,
				"z": 1.2097965801,
				"element": "H" 
			},
			{
				"x": 0.1473599516,
				"y": 0.7091396084,
				"z": 1.9149467237,
				"element": "H" 
			},
			{
				"x": -2.3367825598,
				"y": 1.0631258861,
				"z": 1.2112890459,
				"element": "H" 
			},
			{
				"x": -2.3682913889,
				"y": -3.2324191302,
				"z": -1.7695771298,
				"element": "H" 
			},
			{
				"x": -4.5588463583,
				"y": -3.8518908954,
				"z": -0.7338637228,
				"element": "H" 
			},
			{
				"x": -5.5325978675,
				"y": -2.2854359021,
				"z": 0.9779103018,
				"element": "H" 
			},
			{
				"x": -5.8858524882,
				"y": 0.3164899109,
				"z": 3.0027432408,
				"element": "H" 
			}
		],
		 "valence_orbital": [ 
			{
				"type": "occ",
				"energy": -0.29359,
				"method": "rhf"
			},
			{
				"type": "occ",
				"energy": -0.26946,
				"method": "rhf"
			},
			{
				"type": "occ",
				"energy": -0.26112,
				"method": "rhf"
			},
			{
				"type": "occ",
				"energy": -0.25118,
				"method": "rhf"
			},
			{
				"type": "occ",
				"energy": -0.2196,
				"method": "rhf"
			},
			{
				"type": "unocc",
				"energy": -0.06114,
				"method": "rhf"
			},
			{
				"type": "unocc",
				"energy": -0.0245,
				"method": "rhf"
			},
			{
				"type": "unocc",
				"energy": -0.01489,
				"method": "rhf"
			},
			{
				"type": "unocc",
				"energy": 0.00156,
				"method": "rhf"
			},
			{
				"type": "unocc",
				"energy": 0.04199,
				"method": "rhf"
			}
		],
		"cosmo_sigma_profile": { 
			"-0.025": 0.0,
			"-0.024": 0.0,
			"-0.023": 0.0,
			"-0.022": 0.0,
			"-0.021": 0.0,
			"-0.02": 0.0,
			"-0.019": 0.0194258129481,
			"-0.018": 0.965251125702,
			"-0.017": 0.779568858264,
			"-0.016": 1.08378462892,
			"-0.015": 0.373834211765,
			"-0.014": 0.861241813184,
			"-0.013": 0.918498785656,
			"-0.012": 0.495742001826,
			"-0.011": 0.66281727273,
			"-0.01": 0.679566938448,
			"-0.009": 0.57767198002,
			"-0.008": 1.9155470686,
			"-0.007": 8.36973630534,
			"-0.006": 13.1327749774,
			"-0.005": 14.8473115556,
			"-0.004": 12.8872910396,
			"-0.003": 14.7243363187,
			"-0.002": 22.102408973,
			"-0.001": 24.0163545706,
			"0.0": 32.4608440203,
			"0.001": 30.0820097939,
			"0.002": 35.7720436895,
			"0.003": 41.7437306396,
			"0.004": 12.9498524464,
			"0.005": 4.16645847726,
			"0.006": 4.82235969204,
			"0.007": 3.49633580116,
			"0.008": 2.66035511739,
			"0.009": 3.00114238925,
			"0.01": 2.47288419906,
			"0.011": 3.30559457277,
			"0.012": 1.54516004216,
			"0.013": 0.594361250452,
			"0.014": 0.237102621266,
			"0.015": 0.0,
			"0.016": 0.0,
			"0.017": 0.0,
			"0.018": 0.0,
			"0.019": 0.0,
			"0.02": 0.0,
			"0.021": 0.0,
			"0.022": 0.0,
			"0.023": 0.0,
			"0.024": 0.0,
			"0.025": 0.0
		}
	}
}
