{
	 "smiles": "FC(F)(F)C1=C2N=CN=C(Cl)C2=CC=C1", 
	 "Tm": 418.15, 
	 "num_atms": 19, 
	 "gaussian": { 
		 "optdone": 1, 
		 "sigma_profile": "yes", 
		 "theory": "DFT", 
		 "functional": "B3LYP", 
		 "basiset": "6-31G**", 
		 "properties": { 
			 "R2extent": 5219.4383, 
			 "electric_dipole_moment_norm": 3.23109207699, 
			 "electric_quadrupole_moment_norm": 13.0002512187, 
			 "total_energy": -1214.59055129, 
			 "HOMO_LUMO_gap": 0.17767, 
			 "cosmo_polarized_energy": -8.06, 
			 "cosmo_cavitation_energy": 26.8, 
			 "cosmo_dispersion_energy": -19.69, 
			 "cosmo_repulsion_energy": 1.46, 
			 "cosmo_total_nonelectrostatic_energy": 8.57, 
			 "SMD_solvation_energy": 3.17 
		},
		"coords": [
			{
				"x": 0.3314966767,
				"y": 0.4940129844,
				"z": 2.4513297328,
				"element": "F" 
			},
			{
				"x": -0.4313656106,
				"y": -0.1857370441,
				"z": 1.5600586149,
				"element": "C" 
			},
			{
				"x": -1.0409675076,
				"y": 0.7299709508,
				"z": 0.785064257,
				"element": "F" 
			},
			{
				"x": -1.3799803345,
				"y": -0.8295679873,
				"z": 2.264614285,
				"element": "F" 
			},
			{
				"x": 0.4143088426,
				"y": -1.1408573695,
				"z": 0.7471727513,
				"element": "C" 
			},
			{
				"x": -0.194767421,
				"y": -1.9564935747,
				"z": -0.252599174,
				"element": "C" 
			},
			{
				"x": -1.5369620674,
				"y": -1.8696754854,
				"z": -0.4693107168,
				"element": "N" 
			},
			{
				"x": -2.0344489373,
				"y": -2.6455997428,
				"z": -1.4015235864,
				"element": "C" 
			},
			{
				"x": -1.3551795189,
				"y": -3.5331393934,
				"z": -2.1810986857,
				"element": "N" 
			},
			{
				"x": -0.0733615737,
				"y": -3.6181898891,
				"z": -1.9764063675,
				"element": "C" 
			},
			{
				"x": 0.8120337667,
				"y": -4.761844028,
				"z": -2.9784125554,
				"element": "Cl" 
			},
			{
				"x": 0.6319690358,
				"y": -2.8493079065,
				"z": -1.0039838154,
				"element": "C" 
			},
			{
				"x": 2.0241434578,
				"y": -2.9145008032,
				"z": -0.753040035,
				"element": "C" 
			},
			{
				"x": 2.5799202338,
				"y": -2.1143140435,
				"z": 0.2182229838,
				"element": "C" 
			},
			{
				"x": 1.7723408869,
				"y": -1.227639881,
				"z": 0.9675760721,
				"element": "C" 
			},
			{
				"x": -3.1042616245,
				"y": -2.5874811001,
				"z": -1.5860004201,
				"element": "H" 
			},
			{
				"x": 2.6358113141,
				"y": -3.5967614733,
				"z": -1.3318704879,
				"element": "H" 
			},
			{
				"x": 3.6457957766,
				"y": -2.1582999674,
				"z": 0.4166287105,
				"element": "H" 
			},
			{
				"x": 2.2255746042,
				"y": -0.6039742459,
				"z": 1.7291784369,
				"element": "H" 
			}
		],
		 "valence_orbital": [ 
			{
				"type": "occ",
				"energy": -0.32285,
				"method": "rhf"
			},
			{
				"type": "occ",
				"energy": -0.32027,
				"method": "rhf"
			},
			{
				"type": "occ",
				"energy": -0.29739,
				"method": "rhf"
			},
			{
				"type": "occ",
				"energy": -0.27562,
				"method": "rhf"
			},
			{
				"type": "occ",
				"energy": -0.26892,
				"method": "rhf"
			},
			{
				"type": "unocc",
				"energy": -0.09125,
				"method": "rhf"
			},
			{
				"type": "unocc",
				"energy": -0.05596,
				"method": "rhf"
			},
			{
				"type": "unocc",
				"energy": -0.01671,
				"method": "rhf"
			},
			{
				"type": "unocc",
				"energy": 0.01608,
				"method": "rhf"
			},
			{
				"type": "unocc",
				"energy": 0.05016,
				"method": "rhf"
			}
		],
		"cosmo_sigma_profile": { 
			"-0.025": 0.0,
			"-0.024": 0.0,
			"-0.023": 0.0,
			"-0.022": 0.0,
			"-0.021": 0.0,
			"-0.02": 0.0,
			"-0.019": 0.0,
			"-0.018": 0.0,
			"-0.017": 0.0,
			"-0.016": 0.0,
			"-0.015": 0.0,
			"-0.014": 0.0,
			"-0.013": 0.0,
			"-0.012": 0.0,
			"-0.011": 0.0,
			"-0.01": 0.0,
			"-0.009": 0.940837484664,
			"-0.008": 6.23512444086,
			"-0.007": 8.23262407657,
			"-0.006": 7.5883211149,
			"-0.005": 8.31958928628,
			"-0.004": 10.7024826541,
			"-0.003": 18.3948747559,
			"-0.002": 20.024766776,
			"-0.001": 18.9655452952,
			"0.0": 19.5977263783,
			"0.001": 18.0612835262,
			"0.002": 22.6858606557,
			"0.003": 29.1575097988,
			"0.004": 8.42544834714,
			"0.005": 4.05799356205,
			"0.006": 4.26044489876,
			"0.007": 2.83620717608,
			"0.008": 2.28431960987,
			"0.009": 3.11357614861,
			"0.01": 1.87070119003,
			"0.011": 2.53335644178,
			"0.012": 0.85073368968,
			"0.013": 0.55184600921,
			"0.014": 0.0107450052407,
			"0.015": 0.0,
			"0.016": 0.0,
			"0.017": 0.0,
			"0.018": 0.0,
			"0.019": 0.0,
			"0.02": 0.0,
			"0.021": 0.0,
			"0.022": 0.0,
			"0.023": 0.0,
			"0.024": 0.0,
			"0.025": 0.0
		}
	}
}
