{
	 "smiles": "OC(=O)C1=C(C=C(C=C1)C(F)(F)F)C#N", 
	 "Tm": 387.15, 
	 "num_atms": 19, 
	 "gaussian": { 
		 "optdone": 1, 
		 "sigma_profile": "yes", 
		 "theory": "DFT", 
		 "functional": "B3LYP", 
		 "basiset": "6-31G**", 
		 "properties": { 
			 "R2extent": 4099.5371, 
			 "electric_dipole_moment_norm": 2.34586044129, 
			 "electric_quadrupole_moment_norm": 9.24077497616, 
			 "total_energy": -850.08723013, 
			 "HOMO_LUMO_gap": 0.19362, 
			 "cosmo_polarized_energy": -13.5, 
			 "cosmo_cavitation_energy": 27.13, 
			 "cosmo_dispersion_energy": -18.72, 
			 "cosmo_repulsion_energy": 1.4, 
			 "cosmo_total_nonelectrostatic_energy": 9.81, 
			 "SMD_solvation_energy": 8.34 
		},
		"coords": [
			{
				"x": 1.1810297334,
				"y": 2.3223421869,
				"z": -2.0205012667,
				"element": "O" 
			},
			{
				"x": 1.4442419488,
				"y": 1.3674083474,
				"z": -1.1126921789,
				"element": "C" 
			},
			{
				"x": 2.5408809476,
				"y": 1.2085723748,
				"z": -0.6164516857,
				"element": "O" 
			},
			{
				"x": 0.2570431975,
				"y": 0.5196270621,
				"z": -0.7706845617,
				"element": "C" 
			},
			{
				"x": -1.0352872957,
				"y": 0.6598577448,
				"z": -1.3281695134,
				"element": "C" 
			},
			{
				"x": -2.0624093896,
				"y": -0.2065610343,
				"z": -0.9158934372,
				"element": "C" 
			},
			{
				"x": -1.8148092083,
				"y": -1.1954396951,
				"z": 0.0312211417,
				"element": "C" 
			},
			{
				"x": -0.5382433643,
				"y": -1.3383369686,
				"z": 0.5814431582,
				"element": "C" 
			},
			{
				"x": 0.4813666855,
				"y": -0.4844879599,
				"z": 0.1786199369,
				"element": "C" 
			},
			{
				"x": -2.9371913024,
				"y": -2.0860145565,
				"z": 0.5060254556,
				"element": "C" 
			},
			{
				"x": -2.4990717942,
				"y": -3.3391099824,
				"z": 0.7478909376,
				"element": "F" 
			},
			{
				"x": -3.4706903469,
				"y": -1.621844201,
				"z": 1.6563151796,
				"element": "F" 
			},
			{
				"x": -3.9336113444,
				"y": -2.1632912149,
				"z": -0.3983465107,
				"element": "F" 
			},
			{
				"x": -1.396403101,
				"y": 1.6405941487,
				"z": -2.31355119,
				"element": "C" 
			},
			{
				"x": -1.797366666,
				"y": 2.3885676396,
				"z": -3.1079928937,
				"element": "N" 
			},
			{
				"x": 2.0095505408,
				"y": 2.8084333395,
				"z": -2.1683935091,
				"element": "H" 
			},
			{
				"x": -3.0498574244,
				"y": -0.1018452649,
				"z": -1.3491402796,
				"element": "H" 
			},
			{
				"x": -0.3454008996,
				"y": -2.1164083585,
				"z": 1.3118224311,
				"element": "H" 
			},
			{
				"x": 1.480829083,
				"y": -0.5754636077,
				"z": 0.5881787862,
				"element": "H" 
			}
		],
		 "valence_orbital": [ 
			{
				"type": "occ",
				"energy": -0.3423,
				"method": "rhf"
			},
			{
				"type": "occ",
				"energy": -0.33808,
				"method": "rhf"
			},
			{
				"type": "occ",
				"energy": -0.30339,
				"method": "rhf"
			},
			{
				"type": "occ",
				"energy": -0.30151,
				"method": "rhf"
			},
			{
				"type": "occ",
				"energy": -0.2898,
				"method": "rhf"
			},
			{
				"type": "unocc",
				"energy": -0.09618,
				"method": "rhf"
			},
			{
				"type": "unocc",
				"energy": -0.06276,
				"method": "rhf"
			},
			{
				"type": "unocc",
				"energy": 0.01661,
				"method": "rhf"
			},
			{
				"type": "unocc",
				"energy": 0.02365,
				"method": "rhf"
			},
			{
				"type": "unocc",
				"energy": 0.05738,
				"method": "rhf"
			}
		],
		"cosmo_sigma_profile": { 
			"-0.025": 0.0,
			"-0.024": 0.0,
			"-0.023": 0.0,
			"-0.022": 0.0,
			"-0.021": 0.0,
			"-0.02": 0.0394461605067,
			"-0.019": 0.847644592546,
			"-0.018": 1.21918492832,
			"-0.017": 0.755559889042,
			"-0.016": 0.534928456221,
			"-0.015": 1.30181801828,
			"-0.014": 0.797134988085,
			"-0.013": 0.164626444878,
			"-0.012": 0.66389898795,
			"-0.011": 0.707300046483,
			"-0.01": 1.20090797675,
			"-0.009": 3.67229312816,
			"-0.008": 4.87812872685,
			"-0.007": 7.06797124889,
			"-0.006": 6.6227349936,
			"-0.005": 9.71292037501,
			"-0.004": 11.5802631984,
			"-0.003": 15.8188891604,
			"-0.002": 19.7500884278,
			"-0.001": 19.4338891215,
			"0.0": 12.6481549945,
			"0.001": 12.5086375732,
			"0.002": 28.7095137735,
			"0.003": 13.6650235888,
			"0.004": 3.52865114227,
			"0.005": 4.52039901651,
			"0.006": 3.99240859137,
			"0.007": 5.82634281355,
			"0.008": 6.40101404069,
			"0.009": 5.92564086292,
			"0.01": 6.47897754748,
			"0.011": 6.27068722054,
			"0.012": 2.01204381242,
			"0.013": 0.534992712618,
			"0.014": 0.0,
			"0.015": 0.0,
			"0.016": 0.0,
			"0.017": 0.0,
			"0.018": 0.0,
			"0.019": 0.0,
			"0.02": 0.0,
			"0.021": 0.0,
			"0.022": 0.0,
			"0.023": 0.0,
			"0.024": 0.0,
			"0.025": 0.0
		}
	}
}
