{
	 "smiles": "CC(C)(C)C(=O)CBr", 
	 "Tm": 263.15, 
	 "num_atms": 19, 
	 "gaussian": { 
		 "optdone": 1, 
		 "sigma_profile": "yes", 
		 "theory": "DFT", 
		 "functional": "B3LYP", 
		 "basiset": "6-31G**", 
		 "properties": { 
			 "R2extent": 2432.5462, 
			 "electric_dipole_moment_norm": 2.9555142852, 
			 "electric_quadrupole_moment_norm": 8.70502805452, 
			 "total_energy": -2881.90119126, 
			 "HOMO_LUMO_gap": 0.19613, 
			 "cosmo_polarized_energy": -7.72, 
			 "cosmo_cavitation_energy": 23.33, 
			 "cosmo_dispersion_energy": -16.76, 
			 "cosmo_repulsion_energy": 1.38, 
			 "cosmo_total_nonelectrostatic_energy": 7.95, 
			 "SMD_solvation_energy": 3.72 
		},
		"coords": [
			{
				"x": -1.2912804536,
				"y": 0.4456437833,
				"z": -0.5177440914,
				"element": "C" 
			},
			{
				"x": -0.6901226222,
				"y": 0.8398819205,
				"z": 0.847558272,
				"element": "C" 
			},
			{
				"x": -0.433997615,
				"y": -0.4374259166,
				"z": 1.6890742033,
				"element": "C" 
			},
			{
				"x": -1.6584406127,
				"y": 1.7655444173,
				"z": 1.6011960973,
				"element": "C" 
			},
			{
				"x": 0.6670095182,
				"y": 1.551117998,
				"z": 0.6950169667,
				"element": "C" 
			},
			{
				"x": 0.958749226,
				"y": 2.538975861,
				"z": 1.3393798334,
				"element": "O" 
			},
			{
				"x": 1.7216324544,
				"y": 0.9516778041,
				"z": -0.240912702,
				"element": "C" 
			},
			{
				"x": 1.6364275825,
				"y": 1.8456896434,
				"z": -2.006658732,
				"element": "Br" 
			},
			{
				"x": -0.6468396544,
				"y": -0.2354501861,
				"z": -1.0811841225,
				"element": "H" 
			},
			{
				"x": -2.2473094741,
				"y": -0.0640402138,
				"z": -0.3570735418,
				"element": "H" 
			},
			{
				"x": -1.476051442,
				"y": 1.3235679784,
				"z": -1.1428467849,
				"element": "H" 
			},
			{
				"x": -0.010996132,
				"y": -0.1891702656,
				"z": 2.6676434577,
				"element": "H" 
			},
			{
				"x": -1.3810630607,
				"y": -0.9620904411,
				"z": 1.8531651397,
				"element": "H" 
			},
			{
				"x": 0.2453324132,
				"y": -1.1357672652,
				"z": 1.1886005715,
				"element": "H" 
			},
			{
				"x": -1.8528820951,
				"y": 2.6782918355,
				"z": 1.030415907,
				"element": "H" 
			},
			{
				"x": -2.6120705148,
				"y": 1.2536432589,
				"z": 1.7661980321,
				"element": "H" 
			},
			{
				"x": -1.248040983,
				"y": 2.0636581027,
				"z": 2.5683119571,
				"element": "H" 
			},
			{
				"x": 2.7136229326,
				"y": 1.1706319249,
				"z": 0.1484953845,
				"element": "H" 
			},
			{
				"x": 1.5983205327,
				"y": -0.1108802398,
				"z": -0.4402358477,
				"element": "H" 
			}
		],
		 "valence_orbital": [ 
			{
				"type": "occ",
				"energy": -0.34039,
				"method": "rhf"
			},
			{
				"type": "occ",
				"energy": -0.33757,
				"method": "rhf"
			},
			{
				"type": "occ",
				"energy": -0.29101,
				"method": "rhf"
			},
			{
				"type": "occ",
				"energy": -0.28154,
				"method": "rhf"
			},
			{
				"type": "occ",
				"energy": -0.25127,
				"method": "rhf"
			},
			{
				"type": "unocc",
				"energy": -0.05514,
				"method": "rhf"
			},
			{
				"type": "unocc",
				"energy": 0.02111,
				"method": "rhf"
			},
			{
				"type": "unocc",
				"energy": 0.07335,
				"method": "rhf"
			},
			{
				"type": "unocc",
				"energy": 0.10803,
				"method": "rhf"
			},
			{
				"type": "unocc",
				"energy": 0.12405,
				"method": "rhf"
			}
		],
		"cosmo_sigma_profile": { 
			"-0.025": 0.0,
			"-0.024": 0.0,
			"-0.023": 0.0,
			"-0.022": 0.0,
			"-0.021": 0.0,
			"-0.02": 0.0,
			"-0.019": 0.0,
			"-0.018": 0.0,
			"-0.017": 0.0,
			"-0.016": 0.0,
			"-0.015": 0.0,
			"-0.014": 0.0,
			"-0.013": 0.0,
			"-0.012": 0.0,
			"-0.011": 0.0,
			"-0.01": 0.0,
			"-0.009": 0.858202879704,
			"-0.008": 4.98725196556,
			"-0.007": 4.37847595128,
			"-0.006": 5.22563637961,
			"-0.005": 6.54573486068,
			"-0.004": 12.2114166521,
			"-0.003": 22.1784155069,
			"-0.002": 18.0467588863,
			"-0.001": 18.0789772195,
			"0.0": 21.5718044912,
			"0.001": 17.802441545,
			"0.002": 7.2756596591,
			"0.003": 6.70968769022,
			"0.004": 8.79284282496,
			"0.005": 11.915067826,
			"0.006": 3.99519323215,
			"0.007": 1.58702720038,
			"0.008": 1.63285107022,
			"0.009": 2.01678459751,
			"0.01": 2.70000938882,
			"0.011": 3.99524471108,
			"0.012": 2.22730475862,
			"0.013": 0.0610165071209,
			"0.014": 0.0,
			"0.015": 0.0,
			"0.016": 0.0,
			"0.017": 0.0,
			"0.018": 0.0,
			"0.019": 0.0,
			"0.02": 0.0,
			"0.021": 0.0,
			"0.022": 0.0,
			"0.023": 0.0,
			"0.024": 0.0,
			"0.025": 0.0
		}
	}
}
