{
	 "smiles": "ON(C=CC(=O)C1=CC=C2CCCCC2=C1)C1=CC=CC=C1", 
	 "Tm": 421.15, 
	 "num_atms": 41, 
	 "gaussian": { 
		 "optdone": 1, 
		 "sigma_profile": "yes", 
		 "theory": "DFT", 
		 "functional": "B3LYP", 
		 "basiset": "6-31G**", 
		 "properties": { 
			 "R2extent": 9299.9528, 
			 "electric_dipole_moment_norm": 5.58042190609, 
			 "electric_quadrupole_moment_norm": 27.6142375674, 
			 "total_energy": -940.616193389, 
			 "HOMO_LUMO_gap": 0.15997, 
			 "cosmo_polarized_energy": -18.43, 
			 "cosmo_cavitation_energy": 43.96, 
			 "cosmo_dispersion_energy": -30.76, 
			 "cosmo_repulsion_energy": 2.34, 
			 "cosmo_total_nonelectrostatic_energy": 15.53, 
			 "SMD_solvation_energy": 7.96 
		},
		"coords": [
			{
				"x": -0.3717737121,
				"y": 0.5122199777,
				"z": 4.0328114786,
				"element": "O" 
			},
			{
				"x": -0.2126546861,
				"y": -0.001160745,
				"z": 2.7434155741,
				"element": "N" 
			},
			{
				"x": -0.583977458,
				"y": 0.8261224965,
				"z": 1.7159327641,
				"element": "C" 
			},
			{
				"x": -0.9210889808,
				"y": 2.1331206884,
				"z": 1.8346395859,
				"element": "C" 
			},
			{
				"x": -1.4077939302,
				"y": 2.967752673,
				"z": 0.7290826491,
				"element": "C" 
			},
			{
				"x": -2.0462345839,
				"y": 3.9926766886,
				"z": 0.9711726723,
				"element": "O" 
			},
			{
				"x": -1.1524522186,
				"y": 2.5855563841,
				"z": -0.7056113567,
				"element": "C" 
			},
			{
				"x": -2.1325100343,
				"y": 2.9108039909,
				"z": -1.656812027,
				"element": "C" 
			},
			{
				"x": -1.9237630134,
				"y": 2.6216913558,
				"z": -2.9974591285,
				"element": "C" 
			},
			{
				"x": -0.7301686125,
				"y": 2.0312892139,
				"z": -3.4452314896,
				"element": "C" 
			},
			{
				"x": -0.5317916798,
				"y": 1.7775310751,
				"z": -4.9295460949,
				"element": "C" 
			},
			{
				"x": 0.6306451113,
				"y": 0.8253418908,
				"z": -5.2375004742,
				"element": "C" 
			},
			{
				"x": 1.8705604507,
				"y": 1.2198011611,
				"z": -4.4275913199,
				"element": "C" 
			},
			{
				"x": 1.5860187146,
				"y": 1.0913251723,
				"z": -2.9258646277,
				"element": "C" 
			},
			{
				"x": 0.2710896164,
				"y": 1.729142047,
				"z": -2.506205715,
				"element": "C" 
			},
			{
				"x": 0.0412049261,
				"y": 2.007435356,
				"z": -1.1507571017,
				"element": "C" 
			},
			{
				"x": 0.0734438524,
				"y": -1.3810781682,
				"z": 2.6585411744,
				"element": "C" 
			},
			{
				"x": -0.0630186074,
				"y": -2.1947671322,
				"z": 3.7934421876,
				"element": "C" 
			},
			{
				"x": 0.2266407973,
				"y": -3.5552554251,
				"z": 3.7091628012,
				"element": "C" 
			},
			{
				"x": 0.6477687469,
				"y": -4.1257188134,
				"z": 2.507255436,
				"element": "C" 
			},
			{
				"x": 0.7892627165,
				"y": -3.3104945286,
				"z": 1.382904693,
				"element": "C" 
			},
			{
				"x": 0.5173814916,
				"y": -1.9457917051,
				"z": 1.4504783571,
				"element": "C" 
			},
			{
				"x": 0.5088239271,
				"y": 0.8400665283,
				"z": 4.2838374149,
				"element": "H" 
			},
			{
				"x": -0.6118248607,
				"y": 0.3279191341,
				"z": 0.7551451867,
				"element": "H" 
			},
			{
				"x": -0.9804337352,
				"y": 2.5944611741,
				"z": 2.8136897877,
				"element": "H" 
			},
			{
				"x": -3.0451034522,
				"y": 3.3915152709,
				"z": -1.3204021921,
				"element": "H" 
			},
			{
				"x": -2.6954800714,
				"y": 2.863421474,
				"z": -3.7252697894,
				"element": "H" 
			},
			{
				"x": -0.3441787704,
				"y": 2.741592189,
				"z": -5.4252683494,
				"element": "H" 
			},
			{
				"x": -1.4648631616,
				"y": 1.3979071226,
				"z": -5.3633677678,
				"element": "H" 
			},
			{
				"x": 0.8455215939,
				"y": 0.8356354629,
				"z": -6.3119021238,
				"element": "H" 
			},
			{
				"x": 0.3449519272,
				"y": -0.2043837161,
				"z": -4.9826168178,
				"element": "H" 
			},
			{
				"x": 2.7297696076,
				"y": 0.596126253,
				"z": -4.6989157863,
				"element": "H" 
			},
			{
				"x": 2.1442031419,
				"y": 2.2566061959,
				"z": -4.665427225,
				"element": "H" 
			},
			{
				"x": 1.5625353497,
				"y": 0.0231282688,
				"z": -2.6616835409,
				"element": "H" 
			},
			{
				"x": 2.4062934338,
				"y": 1.5253353987,
				"z": -2.3413409057,
				"element": "H" 
			},
			{
				"x": 0.8340852547,
				"y": 1.8024591852,
				"z": -0.4357796345,
				"element": "H" 
			},
			{
				"x": -0.403522917,
				"y": -1.7569006241,
				"z": 4.7228019784,
				"element": "H" 
			},
			{
				"x": 0.1122100557,
				"y": -4.1735223539,
				"z": 4.5949143385,
				"element": "H" 
			},
			{
				"x": 0.8687363001,
				"y": -5.1866611148,
				"z": 2.4481514137,
				"element": "H" 
			},
			{
				"x": 1.130054139,
				"y": -3.7331695541,
				"z": 0.4421862352,
				"element": "H" 
			},
			{
				"x": 0.6729333311,
				"y": -1.327079948,
				"z": 0.5736877393,
				"element": "H" 
			}
		],
		 "valence_orbital": [ 
			{
				"type": "occ",
				"energy": -0.26245,
				"method": "rhf"
			},
			{
				"type": "occ",
				"energy": -0.24271,
				"method": "rhf"
			},
			{
				"type": "occ",
				"energy": -0.23864,
				"method": "rhf"
			},
			{
				"type": "occ",
				"energy": -0.22353,
				"method": "rhf"
			},
			{
				"type": "occ",
				"energy": -0.205,
				"method": "rhf"
			},
			{
				"type": "unocc",
				"energy": -0.04503,
				"method": "rhf"
			},
			{
				"type": "unocc",
				"energy": -0.01384,
				"method": "rhf"
			},
			{
				"type": "unocc",
				"energy": -0.0097,
				"method": "rhf"
			},
			{
				"type": "unocc",
				"energy": -0.00169,
				"method": "rhf"
			},
			{
				"type": "unocc",
				"energy": 0.0191,
				"method": "rhf"
			}
		],
		"cosmo_sigma_profile": { 
			"-0.025": 0.0,
			"-0.024": 0.0,
			"-0.023": 0.0,
			"-0.022": 0.0,
			"-0.021": 0.0,
			"-0.02": 0.0,
			"-0.019": 0.155370508245,
			"-0.018": 1.17649676805,
			"-0.017": 0.86390978532,
			"-0.016": 1.14208938021,
			"-0.015": 1.0671619913,
			"-0.014": 0.992777864589,
			"-0.013": 0.718741885677,
			"-0.012": 0.690374535237,
			"-0.011": 0.601469475173,
			"-0.01": 1.14808340417,
			"-0.009": 1.23126770205,
			"-0.008": 2.53803998195,
			"-0.007": 3.21403374357,
			"-0.006": 10.6912889296,
			"-0.005": 16.7966808455,
			"-0.004": 22.3963939166,
			"-0.003": 33.7797688494,
			"-0.002": 37.8154119539,
			"-0.001": 39.2931184517,
			"0.0": 35.7328058635,
			"0.001": 24.4762377037,
			"0.002": 18.885630638,
			"0.003": 18.1652425261,
			"0.004": 19.8773346404,
			"0.005": 21.9040313333,
			"0.006": 8.12118470896,
			"0.007": 2.98061529638,
			"0.008": 2.93374292582,
			"0.009": 2.96143696264,
			"0.01": 2.23765173797,
			"0.011": 1.94025586512,
			"0.012": 2.03712526233,
			"0.013": 3.87992821238,
			"0.014": 4.47641828811,
			"0.015": 1.459392748,
			"0.016": 0.0,
			"0.017": 0.0,
			"0.018": 0.0,
			"0.019": 0.0,
			"0.02": 0.0,
			"0.021": 0.0,
			"0.022": 0.0,
			"0.023": 0.0,
			"0.024": 0.0,
			"0.025": 0.0
		}
	}
}
