{
	 "smiles": "CC1=CC=CC=C1CC1=CC=CC=C1", 
	 "Tm": 279.95, 
	 "num_atms": 28, 
	 "gaussian": { 
		 "optdone": 1, 
		 "sigma_profile": "yes", 
		 "theory": "DFT", 
		 "functional": "B3LYP", 
		 "basiset": "6-31G**", 
		 "properties": { 
			 "R2extent": 3132.0904, 
			 "electric_dipole_moment_norm": 0.296237641092, 
			 "electric_quadrupole_moment_norm": 3.88673930178, 
			 "total_energy": -541.941964762, 
			 "HOMO_LUMO_gap": 0.2281, 
			 "cosmo_polarized_energy": -5.22, 
			 "cosmo_cavitation_energy": 30.57, 
			 "cosmo_dispersion_energy": -21.61, 
			 "cosmo_repulsion_energy": 1.69, 
			 "cosmo_total_nonelectrostatic_energy": 10.64, 
			 "SMD_solvation_energy": 4.96 
		},
		"coords": [
			{
				"x": 0.9622178789,
				"y": -0.7156835668,
				"z": -2.3448074549,
				"element": "C" 
			},
			{
				"x": -0.4938454507,
				"y": -0.4904846865,
				"z": -2.0101858491,
				"element": "C" 
			},
			{
				"x": -1.470482664,
				"y": -1.3494958842,
				"z": -2.5275144975,
				"element": "C" 
			},
			{
				"x": -2.8265055242,
				"y": -1.1688651445,
				"z": -2.2498155137,
				"element": "C" 
			},
			{
				"x": -3.2271800375,
				"y": -0.1070115921,
				"z": -1.4421781777,
				"element": "C" 
			},
			{
				"x": -2.2640564197,
				"y": 0.7590338338,
				"z": -0.9215726642,
				"element": "C" 
			},
			{
				"x": -0.9006185688,
				"y": 0.5841882235,
				"z": -1.1878190584,
				"element": "C" 
			},
			{
				"x": 0.1080764591,
				"y": 1.5480668107,
				"z": -0.58989836,
				"element": "C" 
			},
			{
				"x": 0.9281536878,
				"y": 1.000485598,
				"z": 0.5742789032,
				"element": "C" 
			},
			{
				"x": 2.2842665203,
				"y": 1.329817187,
				"z": 0.7002724732,
				"element": "C" 
			},
			{
				"x": 3.0360836632,
				"y": 0.8791504256,
				"z": 1.7869347187,
				"element": "C" 
			},
			{
				"x": 2.4409165122,
				"y": 0.0851368364,
				"z": 2.7680918638,
				"element": "C" 
			},
			{
				"x": 1.0910818021,
				"y": -0.2531671147,
				"z": 2.6516967299,
				"element": "C" 
			},
			{
				"x": 0.3426788577,
				"y": 0.1995628323,
				"z": 1.5645733822,
				"element": "C" 
			},
			{
				"x": 1.5697144788,
				"y": -0.8451185831,
				"z": -1.4430259091,
				"element": "H" 
			},
			{
				"x": 1.0869741656,
				"y": -1.6047326111,
				"z": -2.9686766885,
				"element": "H" 
			},
			{
				"x": 1.3864334901,
				"y": 0.1349303651,
				"z": -2.8931995182,
				"element": "H" 
			},
			{
				"x": -1.1590870386,
				"y": -2.1756236345,
				"z": -3.1623461818,
				"element": "H" 
			},
			{
				"x": -3.5615244716,
				"y": -1.8523043398,
				"z": -2.6655924049,
				"element": "H" 
			},
			{
				"x": -4.2785928892,
				"y": 0.0511792596,
				"z": -1.2196450251,
				"element": "H" 
			},
			{
				"x": -2.5747708047,
				"y": 1.5931504351,
				"z": -0.2964469742,
				"element": "H" 
			},
			{
				"x": 0.7994617356,
				"y": 1.8981954942,
				"z": -1.3658431045,
				"element": "H" 
			},
			{
				"x": -0.4303229117,
				"y": 2.4409923985,
				"z": -0.2461265493,
				"element": "H" 
			},
			{
				"x": 2.7559294041,
				"y": 1.9471405613,
				"z": -0.0610450884,
				"element": "H" 
			},
			{
				"x": 4.0868832347,
				"y": 1.1450821746,
				"z": 1.8631794908,
				"element": "H" 
			},
			{
				"x": 3.023610289,
				"y": -0.2696902414,
				"z": 3.6134005348,
				"element": "H" 
			},
			{
				"x": 0.6187706104,
				"y": -0.8737530814,
				"z": 3.4083893291,
				"element": "H" 
			},
			{
				"x": -0.7044660089,
				"y": -0.0757819557,
				"z": 1.4775215937,
				"element": "H" 
			}
		],
		 "valence_orbital": [ 
			{
				"type": "occ",
				"energy": -0.32242,
				"method": "rhf"
			},
			{
				"type": "occ",
				"energy": -0.24605,
				"method": "rhf"
			},
			{
				"type": "occ",
				"energy": -0.24226,
				"method": "rhf"
			},
			{
				"type": "occ",
				"energy": -0.23843,
				"method": "rhf"
			},
			{
				"type": "occ",
				"energy": -0.23078,
				"method": "rhf"
			},
			{
				"type": "unocc",
				"energy": -0.00268,
				"method": "rhf"
			},
			{
				"type": "unocc",
				"energy": 0.00136,
				"method": "rhf"
			},
			{
				"type": "unocc",
				"energy": 0.00432,
				"method": "rhf"
			},
			{
				"type": "unocc",
				"energy": 0.01234,
				"method": "rhf"
			},
			{
				"type": "unocc",
				"energy": 0.09476,
				"method": "rhf"
			}
		],
		"cosmo_sigma_profile": { 
			"-0.025": 0.0,
			"-0.024": 0.0,
			"-0.023": 0.0,
			"-0.022": 0.0,
			"-0.021": 0.0,
			"-0.02": 0.0,
			"-0.019": 0.0,
			"-0.018": 0.0,
			"-0.017": 0.0,
			"-0.016": 0.0,
			"-0.015": 0.0,
			"-0.014": 0.0,
			"-0.013": 0.0,
			"-0.012": 0.0,
			"-0.011": 0.0,
			"-0.01": 0.0,
			"-0.009": 0.0,
			"-0.008": 0.0,
			"-0.007": 0.0,
			"-0.006": 2.03197462276,
			"-0.005": 18.9978232357,
			"-0.004": 26.76166669,
			"-0.003": 27.0724447566,
			"-0.002": 23.1591540291,
			"-0.001": 22.1124208738,
			"0.0": 20.4805548116,
			"0.001": 20.3542105829,
			"0.002": 15.273693798,
			"0.003": 15.0966552381,
			"0.004": 16.1752998493,
			"0.005": 15.2144186752,
			"0.006": 14.6335791755,
			"0.007": 5.51180931544,
			"0.008": 0.0,
			"0.009": 0.0,
			"0.01": 0.0,
			"0.011": 0.0,
			"0.012": 0.0,
			"0.013": 0.0,
			"0.014": 0.0,
			"0.015": 0.0,
			"0.016": 0.0,
			"0.017": 0.0,
			"0.018": 0.0,
			"0.019": 0.0,
			"0.02": 0.0,
			"0.021": 0.0,
			"0.022": 0.0,
			"0.023": 0.0,
			"0.024": 0.0,
			"0.025": 0.0
		}
	}
}
