{
	 "smiles": "CCOC(=O)C1=NN(C(C2=CC=CS2)=C1S(=O)(=O)C1=CC=CC=C1)C1=CC=C(F)C=C1", 
	 "Tm": 424.15, 
	 "num_atms": 48, 
	 "gaussian": { 
		 "optdone": 1, 
		 "sigma_profile": "yes", 
		 "theory": "DFT", 
		 "functional": "B3LYP", 
		 "basiset": "6-31G**", 
		 "properties": { 
			 "R2extent": 14542.3293, 
			 "electric_dipole_moment_norm": 4.40746985696, 
			 "electric_quadrupole_moment_norm": 31.1225439434, 
			 "total_energy": -2155.09526342, 
			 "HOMO_LUMO_gap": 0.18465, 
			 "cosmo_polarized_energy": -19.92, 
			 "cosmo_cavitation_energy": 56.36, 
			 "cosmo_dispersion_energy": -37.42, 
			 "cosmo_repulsion_energy": 2.77, 
			 "cosmo_total_nonelectrostatic_energy": 21.71, 
			 "SMD_solvation_energy": 9.29 
		},
		"coords": [
			{
				"x": -4.5917570759,
				"y": 3.3567867666,
				"z": -0.5281548186,
				"element": "C" 
			},
			{
				"x": -3.9313831863,
				"y": 2.8433937725,
				"z": -1.7982663858,
				"element": "C" 
			},
			{
				"x": -2.5980214223,
				"y": 2.3360590272,
				"z": -1.5283833447,
				"element": "O" 
			},
			{
				"x": -2.5164518163,
				"y": 1.0650147819,
				"z": -1.1164195126,
				"element": "C" 
			},
			{
				"x": -3.4617523531,
				"y": 0.3204552215,
				"z": -0.956452836,
				"element": "O" 
			},
			{
				"x": -1.0997010817,
				"y": 0.6837597083,
				"z": -0.8143461092,
				"element": "C" 
			},
			{
				"x": -0.4019522642,
				"y": 1.4307637298,
				"z": 0.0324865032,
				"element": "N" 
			},
			{
				"x": 0.7788858484,
				"y": 0.7880096479,
				"z": 0.1965613818,
				"element": "N" 
			},
			{
				"x": 0.8587429049,
				"y": -0.3734238321,
				"z": -0.5365904945,
				"element": "C" 
			},
			{
				"x": 1.9919416566,
				"y": -1.2963781295,
				"z": -0.4588261682,
				"element": "C" 
			},
			{
				"x": 2.7797850166,
				"y": -1.7755942399,
				"z": -1.478843486,
				"element": "C" 
			},
			{
				"x": 3.7801191663,
				"y": -2.6865910594,
				"z": -1.0326719862,
				"element": "C" 
			},
			{
				"x": 3.7400341992,
				"y": -2.9005646692,
				"z": 0.3185882074,
				"element": "C" 
			},
			{
				"x": 2.4771293654,
				"y": -1.9949820345,
				"z": 1.0771446751,
				"element": "S" 
			},
			{
				"x": -0.3588387217,
				"y": -0.4566010998,
				"z": -1.2198205299,
				"element": "C" 
			},
			{
				"x": -0.8675099383,
				"y": -1.6605472773,
				"z": -2.4344591273,
				"element": "S" 
			},
			{
				"x": -1.9648384738,
				"y": -1.0382019638,
				"z": -3.1850374209,
				"element": "O" 
			},
			{
				"x": 0.3356528349,
				"y": -2.140414528,
				"z": -3.1336653574,
				"element": "O" 
			},
			{
				"x": -1.5193282922,
				"y": -3.0332639434,
				"z": -1.4746783251,
				"element": "C" 
			},
			{
				"x": -2.78248838,
				"y": -2.9166234957,
				"z": -0.8872843722,
				"element": "C" 
			},
			{
				"x": -3.280338593,
				"y": -3.9983557241,
				"z": -0.1612144006,
				"element": "C" 
			},
			{
				"x": -2.5280638884,
				"y": -5.1696310344,
				"z": -0.0342760337,
				"element": "C" 
			},
			{
				"x": -1.2694671984,
				"y": -5.2686768712,
				"z": -0.6311343905,
				"element": "C" 
			},
			{
				"x": -0.7538742227,
				"y": -4.1947629828,
				"z": -1.3581968771,
				"element": "C" 
			},
			{
				"x": 1.7624201382,
				"y": 1.3996805829,
				"z": 1.0367491605,
				"element": "C" 
			},
			{
				"x": 3.0891984745,
				"y": 1.515175143,
				"z": 0.6126650722,
				"element": "C" 
			},
			{
				"x": 4.025092361,
				"y": 2.1348812481,
				"z": 1.4378790557,
				"element": "C" 
			},
			{
				"x": 3.6091397634,
				"y": 2.6452174302,
				"z": 2.6629308244,
				"element": "C" 
			},
			{
				"x": 4.5123818305,
				"y": 3.2492588351,
				"z": 3.4585089876,
				"element": "F" 
			},
			{
				"x": 2.2880272337,
				"y": 2.555706108,
				"z": 3.0893407307,
				"element": "C" 
			},
			{
				"x": 1.3582317174,
				"y": 1.9235870101,
				"z": 2.2678169764,
				"element": "C" 
			},
			{
				"x": -3.9698242552,
				"y": 4.1164030003,
				"z": -0.0460201858,
				"element": "H" 
			},
			{
				"x": -5.5598991864,
				"y": 3.8069120696,
				"z": -0.7716920857,
				"element": "H" 
			},
			{
				"x": -4.7619722681,
				"y": 2.5386404689,
				"z": 0.1758795185,
				"element": "H" 
			},
			{
				"x": -3.767730774,
				"y": 3.6459034959,
				"z": -2.5204578132,
				"element": "H" 
			},
			{
				"x": -4.5196562087,
				"y": 2.048977285,
				"z": -2.2627915732,
				"element": "H" 
			},
			{
				"x": 2.6219995508,
				"y": -1.4971034058,
				"z": -2.5120336374,
				"element": "H" 
			},
			{
				"x": 4.4971380276,
				"y": -3.1616114077,
				"z": -1.6920398386,
				"element": "H" 
			},
			{
				"x": 4.3773538461,
				"y": -3.5376392494,
				"z": 0.9165085133,
				"element": "H" 
			},
			{
				"x": -3.3483565305,
				"y": -1.9963606878,
				"z": -0.9904582052,
				"element": "H" 
			},
			{
				"x": -4.2594120647,
				"y": -3.9270441385,
				"z": 0.302982785,
				"element": "H" 
			},
			{
				"x": -2.9254970873,
				"y": -6.0083440503,
				"z": 0.5302207244,
				"element": "H" 
			},
			{
				"x": -0.6895290862,
				"y": -6.1816507675,
				"z": -0.534689477,
				"element": "H" 
			},
			{
				"x": 0.2157281871,
				"y": -4.2486739124,
				"z": -1.8402057865,
				"element": "H" 
			},
			{
				"x": 3.3879610004,
				"y": 1.1246852122,
				"z": -0.352866032,
				"element": "H" 
			},
			{
				"x": 5.0616303704,
				"y": 2.2375545933,
				"z": 1.1372214607,
				"element": "H" 
			},
			{
				"x": 2.003885505,
				"y": 2.9721066918,
				"z": 4.0492241945,
				"element": "H" 
			},
			{
				"x": 0.3194653714,
				"y": 1.8414086747,
				"z": 2.5651678394,
				"element": "H" 
			}
		],
		 "valence_orbital": [ 
			{
				"type": "occ",
				"energy": -0.2653,
				"method": "rhf"
			},
			{
				"type": "occ",
				"energy": -0.26265,
				"method": "rhf"
			},
			{
				"type": "occ",
				"energy": -0.26058,
				"method": "rhf"
			},
			{
				"type": "occ",
				"energy": -0.24587,
				"method": "rhf"
			},
			{
				"type": "occ",
				"energy": -0.23656,
				"method": "rhf"
			},
			{
				"type": "unocc",
				"energy": -0.05191,
				"method": "rhf"
			},
			{
				"type": "unocc",
				"energy": -0.03433,
				"method": "rhf"
			},
			{
				"type": "unocc",
				"energy": -0.02986,
				"method": "rhf"
			},
			{
				"type": "unocc",
				"energy": -0.0252,
				"method": "rhf"
			},
			{
				"type": "unocc",
				"energy": -0.01625,
				"method": "rhf"
			}
		],
		"cosmo_sigma_profile": { 
			"-0.025": 0.0,
			"-0.024": 0.0,
			"-0.023": 0.0,
			"-0.022": 0.0,
			"-0.021": 0.0,
			"-0.02": 0.0,
			"-0.019": 0.0,
			"-0.018": 0.0,
			"-0.017": 0.0,
			"-0.016": 0.0,
			"-0.015": 0.0,
			"-0.014": 0.0,
			"-0.013": 0.0,
			"-0.012": 0.0,
			"-0.011": 0.0,
			"-0.01": 0.00388249356891,
			"-0.009": 1.81400569525,
			"-0.008": 5.70157102661,
			"-0.007": 16.5199623009,
			"-0.006": 26.3424304509,
			"-0.005": 28.2539889154,
			"-0.004": 34.5877118612,
			"-0.003": 31.7555436956,
			"-0.002": 30.9148216479,
			"-0.001": 36.6086952884,
			"0.0": 42.4748261939,
			"0.001": 37.7800315189,
			"0.002": 41.6166462725,
			"0.003": 40.3424885311,
			"0.004": 23.6928748466,
			"0.005": 8.47134052974,
			"0.006": 6.37553210959,
			"0.007": 6.29293483886,
			"0.008": 7.57593717257,
			"0.009": 8.0346053378,
			"0.01": 7.96952059991,
			"0.011": 8.81899132465,
			"0.012": 3.40787899795,
			"0.013": 0.0582933473853,
			"0.014": 0.0,
			"0.015": 0.0,
			"0.016": 0.0,
			"0.017": 0.0,
			"0.018": 0.0,
			"0.019": 0.0,
			"0.02": 0.0,
			"0.021": 0.0,
			"0.022": 0.0,
			"0.023": 0.0,
			"0.024": 0.0,
			"0.025": 0.0
		}
	}
}
