{
	 "smiles": "COC(=O)CSC1=C(Cl)C=C(F)C(=C1)N=C1/SC(=O)N2CCCCN12", 
	 "Tm": 379.15, 
	 "num_atms": 40, 
	 "gaussian": { 
		 "optdone": 1, 
		 "sigma_profile": "yes", 
		 "theory": "DFT", 
		 "functional": "B3LYP", 
		 "basiset": "6-31G**", 
		 "properties": { 
			 "R2extent": 13443.9726, 
			 "electric_dipole_moment_norm": 5.7525286692, 
			 "electric_quadrupole_moment_norm": 26.1978864804, 
			 "total_energy": -2326.93435916, 
			 "HOMO_LUMO_gap": 0.17837, 
			 "cosmo_polarized_energy": -18.23, 
			 "cosmo_cavitation_energy": 49.42, 
			 "cosmo_dispersion_energy": -34.48, 
			 "cosmo_repulsion_energy": 2.58, 
			 "cosmo_total_nonelectrostatic_energy": 17.52, 
			 "SMD_solvation_energy": 7.97 
		},
		"coords": [
			{
				"x": -4.7796930884,
				"y": -2.4456706726,
				"z": -2.4532946759,
				"element": "C" 
			},
			{
				"x": -4.0876747127,
				"y": -1.873020886,
				"z": -3.574708144,
				"element": "O" 
			},
			{
				"x": -3.482663199,
				"y": -0.689686394,
				"z": -3.3328017973,
				"element": "C" 
			},
			{
				"x": -3.52103878,
				"y": -0.1147105643,
				"z": -2.2667689036,
				"element": "O" 
			},
			{
				"x": -2.7315401773,
				"y": -0.2016454251,
				"z": -4.5508457013,
				"element": "C" 
			},
			{
				"x": -0.9678654046,
				"y": -0.7541012418,
				"z": -4.5209093065,
				"element": "S" 
			},
			{
				"x": -0.2730643676,
				"y": 0.26905967,
				"z": -3.2288447131,
				"element": "C" 
			},
			{
				"x": 0.016142167,
				"y": 1.6364691159,
				"z": -3.3948851593,
				"element": "C" 
			},
			{
				"x": -0.3746857971,
				"y": 2.4874248699,
				"z": -4.8774456727,
				"element": "Cl" 
			},
			{
				"x": 0.6283470418,
				"y": 2.3610103543,
				"z": -2.3744631288,
				"element": "C" 
			},
			{
				"x": 0.9625361451,
				"y": 1.7175929573,
				"z": -1.1923408251,
				"element": "C" 
			},
			{
				"x": 1.5809150978,
				"y": 2.4304126574,
				"z": -0.2280535815,
				"element": "F" 
			},
			{
				"x": 0.6944461066,
				"y": 0.3573880697,
				"z": -0.9675306401,
				"element": "C" 
			},
			{
				"x": 0.0823641367,
				"y": -0.3401437762,
				"z": -2.0200690961,
				"element": "C" 
			},
			{
				"x": 1.0947900142,
				"y": -0.3286435274,
				"z": 0.1765899679,
				"element": "N" 
			},
			{
				"x": 0.7989322155,
				"y": 0.0301769695,
				"z": 1.3691446234,
				"element": "C" 
			},
			{
				"x": -0.3323226645,
				"y": 1.3036609564,
				"z": 1.9341514624,
				"element": "S" 
			},
			{
				"x": -0.1716767003,
				"y": 0.7411695084,
				"z": 3.651926547,
				"element": "C" 
			},
			{
				"x": -0.7026523394,
				"y": 1.2549861841,
				"z": 4.612402934,
				"element": "O" 
			},
			{
				"x": 0.655605471,
				"y": -0.3498977257,
				"z": 3.6711331146,
				"element": "N" 
			},
			{
				"x": 1.3437261875,
				"y": -0.8003378411,
				"z": 4.878923385,
				"element": "C" 
			},
			{
				"x": 1.5187693587,
				"y": -2.3399023083,
				"z": 4.8445797995,
				"element": "C" 
			},
			{
				"x": 1.2721328491,
				"y": -2.8966944288,
				"z": 3.4283725822,
				"element": "C" 
			},
			{
				"x": 1.8749998322,
				"y": -1.996794766,
				"z": 2.3470967207,
				"element": "C" 
			},
			{
				"x": 1.3226122304,
				"y": -0.6311021925,
				"z": 2.4587424405,
				"element": "N" 
			},
			{
				"x": -5.5628886667,
				"y": -1.7711298668,
				"z": -2.0983603144,
				"element": "H" 
			},
			{
				"x": -5.2118213768,
				"y": -3.3773595296,
				"z": -2.8180269329,
				"element": "H" 
			},
			{
				"x": -4.084996055,
				"y": -2.6402098533,
				"z": -1.6321604142,
				"element": "H" 
			},
			{
				"x": -2.7680118047,
				"y": 0.8868793994,
				"z": -4.5985010709,
				"element": "H" 
			},
			{
				"x": -3.1456928773,
				"y": -0.630518327,
				"z": -5.4652232125,
				"element": "H" 
			},
			{
				"x": 0.8589623807,
				"y": 3.4129567232,
				"z": -2.4917653992,
				"element": "H" 
			},
			{
				"x": -0.1238443782,
				"y": -1.3945286374,
				"z": -1.8776423638,
				"element": "H" 
			},
			{
				"x": 2.315540111,
				"y": -0.293497773,
				"z": 4.9419344966,
				"element": "H" 
			},
			{
				"x": 0.7295839631,
				"y": -0.4609626366,
				"z": 5.7131319683,
				"element": "H" 
			},
			{
				"x": 0.8311186613,
				"y": -2.8185230649,
				"z": 5.5479887571,
				"element": "H" 
			},
			{
				"x": 2.53341942,
				"y": -2.5864234821,
				"z": 5.1743492899,
				"element": "H" 
			},
			{
				"x": 1.7009951202,
				"y": -3.8990527137,
				"z": 3.3325864927,
				"element": "H" 
			},
			{
				"x": 0.1957115444,
				"y": -2.9896245923,
				"z": 3.2490174893,
				"element": "H" 
			},
			{
				"x": 1.6497132825,
				"y": -2.3503826741,
				"z": 1.3383325763,
				"element": "H" 
			},
			{
				"x": 2.9658690531,
				"y": -1.9441225348,
				"z": 2.4455364058,
				"element": "H" 
			}
		],
		 "valence_orbital": [ 
			{
				"type": "occ",
				"energy": -0.27051,
				"method": "rhf"
			},
			{
				"type": "occ",
				"energy": -0.26163,
				"method": "rhf"
			},
			{
				"type": "occ",
				"energy": -0.2395,
				"method": "rhf"
			},
			{
				"type": "occ",
				"energy": -0.23211,
				"method": "rhf"
			},
			{
				"type": "occ",
				"energy": -0.21123,
				"method": "rhf"
			},
			{
				"type": "unocc",
				"energy": -0.03286,
				"method": "rhf"
			},
			{
				"type": "unocc",
				"energy": -0.02663,
				"method": "rhf"
			},
			{
				"type": "unocc",
				"energy": -0.00387,
				"method": "rhf"
			},
			{
				"type": "unocc",
				"energy": 0.00271,
				"method": "rhf"
			},
			{
				"type": "unocc",
				"energy": 0.00615,
				"method": "rhf"
			}
		],
		"cosmo_sigma_profile": { 
			"-0.025": 0.0,
			"-0.024": 0.0,
			"-0.023": 0.0,
			"-0.022": 0.0,
			"-0.021": 0.0,
			"-0.02": 0.0,
			"-0.019": 0.0,
			"-0.018": 0.0,
			"-0.017": 0.0,
			"-0.016": 0.0,
			"-0.015": 0.0,
			"-0.014": 0.0,
			"-0.013": 0.0,
			"-0.012": 0.0,
			"-0.011": 0.0,
			"-0.01": 0.0254415058628,
			"-0.009": 1.31703733028,
			"-0.008": 3.34127774183,
			"-0.007": 5.26164343865,
			"-0.006": 21.3007015467,
			"-0.005": 33.6559201375,
			"-0.004": 42.5891679951,
			"-0.003": 33.8347481924,
			"-0.002": 29.7823296978,
			"-0.001": 32.2200724799,
			"0.0": 31.5402636337,
			"0.001": 30.5919785058,
			"0.002": 24.0435903207,
			"0.003": 26.0295012432,
			"0.004": 24.2706643632,
			"0.005": 11.4568789827,
			"0.006": 7.93694003306,
			"0.007": 8.6231922105,
			"0.008": 6.9164778242,
			"0.009": 4.47168348396,
			"0.01": 5.09153560213,
			"0.011": 8.1686786005,
			"0.012": 6.68574983062,
			"0.013": 0.190204629774,
			"0.014": 0.0,
			"0.015": 0.0,
			"0.016": 0.0,
			"0.017": 0.0,
			"0.018": 0.0,
			"0.019": 0.0,
			"0.02": 0.0,
			"0.021": 0.0,
			"0.022": 0.0,
			"0.023": 0.0,
			"0.024": 0.0,
			"0.025": 0.0
		}
	}
}
