{
	 "smiles": "OC(=O)CCC1=CC=C(N1)C1=CC=CC=C1", 
	 "Tm": 471.15, 
	 "num_atms": 29, 
	 "gaussian": { 
		 "optdone": 1, 
		 "sigma_profile": "yes", 
		 "theory": "DFT", 
		 "functional": "B3LYP", 
		 "basiset": "6-31G**", 
		 "properties": { 
			 "R2extent": 4868.3866, 
			 "electric_dipole_moment_norm": 2.90620532998, 
			 "electric_quadrupole_moment_norm": 12.4303042598, 
			 "total_energy": -708.445730421, 
			 "HOMO_LUMO_gap": 0.17096, 
			 "cosmo_polarized_energy": -12.18, 
			 "cosmo_cavitation_energy": 32.94, 
			 "cosmo_dispersion_energy": -23.65, 
			 "cosmo_repulsion_energy": 1.84, 
			 "cosmo_total_nonelectrostatic_energy": 11.13, 
			 "SMD_solvation_energy": 6.01 
		},
		"coords": [
			{
				"x": -0.3001934315,
				"y": 0.3404582604,
				"z": 4.6773357855,
				"element": "O" 
			},
			{
				"x": 0.2984603447,
				"y": 0.2875562941,
				"z": 3.4693293896,
				"element": "C" 
			},
			{
				"x": 0.5722678709,
				"y": 1.2963796901,
				"z": 2.8451623816,
				"element": "O" 
			},
			{
				"x": 0.5698384695,
				"y": -1.1393807709,
				"z": 3.0463077567,
				"element": "C" 
			},
			{
				"x": 1.3791592382,
				"y": -1.2777041236,
				"z": 1.7419212027,
				"element": "C" 
			},
			{
				"x": 0.6286132848,
				"y": -0.9701393362,
				"z": 0.4809092624,
				"element": "C" 
			},
			{
				"x": 0.2494971312,
				"y": -1.7932346327,
				"z": -0.56715716,
				"element": "C" 
			},
			{
				"x": -0.4183512396,
				"y": -0.9893265699,
				"z": -1.5259646046,
				"element": "C" 
			},
			{
				"x": -0.4410671927,
				"y": 0.3157798447,
				"z": -1.0466928024,
				"element": "C" 
			},
			{
				"x": 0.1997669253,
				"y": 0.298224467,
				"z": 0.1753491045,
				"element": "N" 
			},
			{
				"x": -1.0186259883,
				"y": 1.5355002126,
				"z": -1.6100087737,
				"element": "C" 
			},
			{
				"x": -1.3259492212,
				"y": 2.6473265664,
				"z": -0.8024826156,
				"element": "C" 
			},
			{
				"x": -1.8731665945,
				"y": 3.804497221,
				"z": -1.353966365,
				"element": "C" 
			},
			{
				"x": -2.1394080208,
				"y": 3.8784483793,
				"z": -2.7222618026,
				"element": "C" 
			},
			{
				"x": -1.8464205256,
				"y": 2.7797768868,
				"z": -3.5347138893,
				"element": "C" 
			},
			{
				"x": -1.2882179939,
				"y": 1.6272297209,
				"z": -2.9889135664,
				"element": "C" 
			},
			{
				"x": -0.4458323449,
				"y": 1.281775085,
				"z": 4.8728019121,
				"element": "H" 
			},
			{
				"x": -0.3969984321,
				"y": -1.6499897842,
				"z": 2.9618100205,
				"element": "H" 
			},
			{
				"x": 1.092888067,
				"y": -1.6231679134,
				"z": 3.8801713558,
				"element": "H" 
			},
			{
				"x": 1.7294118715,
				"y": -2.3120324114,
				"z": 1.6751575417,
				"element": "H" 
			},
			{
				"x": 2.2764984396,
				"y": -0.6501432911,
				"z": 1.8202182577,
				"element": "H" 
			},
			{
				"x": 0.4361867916,
				"y": -2.8569910585,
				"z": -0.6294422379,
				"element": "H" 
			},
			{
				"x": -0.8661236915,
				"y": -1.3274686355,
				"z": -2.4498433501,
				"element": "H" 
			},
			{
				"x": 0.3810616051,
				"y": 1.0904380499,
				"z": 0.7769458863,
				"element": "H" 
			},
			{
				"x": -1.1592643362,
				"y": 2.6002612115,
				"z": 0.2703700644,
				"element": "H" 
			},
			{
				"x": -2.1015841709,
				"y": 4.6482963615,
				"z": -0.708497607,
				"element": "H" 
			},
			{
				"x": -2.5687148883,
				"y": 4.77942689,
				"z": -3.1504661529,
				"element": "H" 
			},
			{
				"x": -2.0433406296,
				"y": 2.8253050879,
				"z": -4.6023989236,
				"element": "H" 
			},
			{
				"x": -1.0386913379,
				"y": 0.7909982981,
				"z": -3.6348800704,
				"element": "H" 
			}
		],
		 "valence_orbital": [ 
			{
				"type": "occ",
				"energy": -0.29528,
				"method": "rhf"
			},
			{
				"type": "occ",
				"energy": -0.25795,
				"method": "rhf"
			},
			{
				"type": "occ",
				"energy": -0.24224,
				"method": "rhf"
			},
			{
				"type": "occ",
				"energy": -0.23198,
				"method": "rhf"
			},
			{
				"type": "occ",
				"energy": -0.18089,
				"method": "rhf"
			},
			{
				"type": "unocc",
				"energy": -0.00993,
				"method": "rhf"
			},
			{
				"type": "unocc",
				"energy": -0.00863,
				"method": "rhf"
			},
			{
				"type": "unocc",
				"energy": 0.00776,
				"method": "rhf"
			},
			{
				"type": "unocc",
				"energy": 0.05861,
				"method": "rhf"
			},
			{
				"type": "unocc",
				"energy": 0.07033,
				"method": "rhf"
			}
		],
		"cosmo_sigma_profile": { 
			"-0.025": 0.0,
			"-0.024": 0.0,
			"-0.023": 0.0,
			"-0.022": 0.0,
			"-0.021": 0.0,
			"-0.02": 0.0,
			"-0.019": 0.0591670009376,
			"-0.018": 0.74129371682,
			"-0.017": 1.11130819877,
			"-0.016": 0.636938561282,
			"-0.015": 1.25470577047,
			"-0.014": 0.738294613712,
			"-0.013": 0.288583228001,
			"-0.012": 0.0670638472934,
			"-0.011": 1.08919159556,
			"-0.01": 1.15336092167,
			"-0.009": 0.436979082869,
			"-0.008": 1.0955182623,
			"-0.007": 3.27329462358,
			"-0.006": 9.56751970991,
			"-0.005": 20.4278097523,
			"-0.004": 27.5527864805,
			"-0.003": 27.1571113161,
			"-0.002": 19.8200144306,
			"-0.001": 16.9852047879,
			"0.0": 13.7935467555,
			"0.001": 13.8928483205,
			"0.002": 12.3943754782,
			"0.003": 12.9656360554,
			"0.004": 15.9790087451,
			"0.005": 17.6234103946,
			"0.006": 16.4814857389,
			"0.007": 9.23919615703,
			"0.008": 6.79176613536,
			"0.009": 5.32714998945,
			"0.01": 2.22334255499,
			"0.011": 1.52821802351,
			"0.012": 0.396021233863,
			"0.013": 0.0,
			"0.014": 0.0,
			"0.015": 0.0,
			"0.016": 0.0,
			"0.017": 0.0,
			"0.018": 0.0,
			"0.019": 0.0,
			"0.02": 0.0,
			"0.021": 0.0,
			"0.022": 0.0,
			"0.023": 0.0,
			"0.024": 0.0,
			"0.025": 0.0
		}
	}
}
