{
	 "smiles": "COC1=CC=CC(=C1)[C@@]1(O)CCCC[C@@H]1CN(C)C", 
	 "Tm": 453.65, 
	 "num_atms": 44, 
	 "gaussian": { 
		 "optdone": 1, 
		 "sigma_profile": "yes", 
		 "theory": "DFT", 
		 "functional": "B3LYP", 
		 "basiset": "6-31G**", 
		 "properties": { 
			 "R2extent": 5973.8115, 
			 "electric_dipole_moment_norm": 1.73072579284, 
			 "electric_quadrupole_moment_norm": 7.93569606147, 
			 "total_energy": -829.947660163, 
			 "HOMO_LUMO_gap": 0.19926, 
			 "cosmo_polarized_energy": -10.93, 
			 "cosmo_cavitation_energy": 42.31, 
			 "cosmo_dispersion_energy": -28.55, 
			 "cosmo_repulsion_energy": 2.22, 
			 "cosmo_total_nonelectrostatic_energy": 15.98, 
			 "SMD_solvation_energy": 6.04 
		},
		"coords": [
			{
				"x": -4.4779867897,
				"y": -0.6395329098,
				"z": 0.0405024622,
				"element": "C" 
			},
			{
				"x": -4.0948425961,
				"y": -1.9981801201,
				"z": 0.1668428903,
				"element": "O" 
			},
			{
				"x": -2.8040228928,
				"y": -2.340231309,
				"z": -0.1242430734,
				"element": "C" 
			},
			{
				"x": -2.49107298,
				"y": -3.700160839,
				"z": 0.0258050801,
				"element": "C" 
			},
			{
				"x": -1.199802642,
				"y": -4.1322844105,
				"z": -0.2395778471,
				"element": "C" 
			},
			{
				"x": -0.2118720761,
				"y": -3.2324372343,
				"z": -0.6576604815,
				"element": "C" 
			},
			{
				"x": -0.5167656473,
				"y": -1.8801732463,
				"z": -0.8249424638,
				"element": "C" 
			},
			{
				"x": -1.8243753262,
				"y": -1.4392408276,
				"z": -0.5497491997,
				"element": "C" 
			},
			{
				"x": 0.5560269778,
				"y": -0.8798168578,
				"z": -1.2915904603,
				"element": "C" 
			},
			{
				"x": 1.7835384043,
				"y": -1.5642035821,
				"z": -1.5848407647,
				"element": "O" 
			},
			{
				"x": 0.0679088649,
				"y": -0.1206969302,
				"z": -2.5669338231,
				"element": "C" 
			},
			{
				"x": 0.665830439,
				"y": 1.2904851221,
				"z": -2.7351768574,
				"element": "C" 
			},
			{
				"x": 2.0825263947,
				"y": 1.3655284302,
				"z": -2.1605584592,
				"element": "C" 
			},
			{
				"x": 2.0731304348,
				"y": 1.0848697433,
				"z": -0.6434297999,
				"element": "C" 
			},
			{
				"x": 0.9297873168,
				"y": 0.1428284406,
				"z": -0.1797066333,
				"element": "C" 
			},
			{
				"x": 1.2979425693,
				"y": -0.5481263383,
				"z": 1.1464871814,
				"element": "C" 
			},
			{
				"x": 1.7198764588,
				"y": 0.3898234698,
				"z": 2.191896896,
				"element": "N" 
			},
			{
				"x": 0.6151719929,
				"y": 1.1839674858,
				"z": 2.7113752811,
				"element": "C" 
			},
			{
				"x": 2.4091446742,
				"y": -0.3018125311,
				"z": 3.272745391,
				"element": "C" 
			},
			{
				"x": -3.9008475087,
				"y": 0.0101762173,
				"z": 0.7115704717,
				"element": "H" 
			},
			{
				"x": -4.3641302706,
				"y": -0.27859629,
				"z": -0.990263068,
				"element": "H" 
			},
			{
				"x": -5.531978175,
				"y": -0.5956631258,
				"z": 0.3198707142,
				"element": "H" 
			},
			{
				"x": -3.2696184673,
				"y": -4.3819244201,
				"z": 0.3515883248,
				"element": "H" 
			},
			{
				"x": -0.9516798682,
				"y": -5.1829695543,
				"z": -0.1163639235,
				"element": "H" 
			},
			{
				"x": 0.8003314827,
				"y": -3.5775959585,
				"z": -0.8312322351,
				"element": "H" 
			},
			{
				"x": -2.0686895508,
				"y": -0.3896764882,
				"z": -0.6633058697,
				"element": "H" 
			},
			{
				"x": 1.6248699597,
				"y": -2.13586295,
				"z": -2.3481378074,
				"element": "H" 
			},
			{
				"x": -1.0239530601,
				"y": -0.0603659515,
				"z": -2.5741887149,
				"element": "H" 
			},
			{
				"x": 0.3340023452,
				"y": -0.7468440204,
				"z": -3.4296465618,
				"element": "H" 
			},
			{
				"x": 0.0303982687,
				"y": 2.0235997769,
				"z": -2.2195255163,
				"element": "H" 
			},
			{
				"x": 0.6529351943,
				"y": 1.5708476109,
				"z": -3.7947975861,
				"element": "H" 
			},
			{
				"x": 2.5262993061,
				"y": 2.3478325452,
				"z": -2.3596809092,
				"element": "H" 
			},
			{
				"x": 2.7091804271,
				"y": 0.6229379297,
				"z": -2.6656853572,
				"element": "H" 
			},
			{
				"x": 3.0321886087,
				"y": 0.6541825093,
				"z": -0.34140363,
				"element": "H" 
			},
			{
				"x": 1.9802341837,
				"y": 2.0236704541,
				"z": -0.0877149144,
				"element": "H" 
			},
			{
				"x": 0.0230721014,
				"y": 0.7421198445,
				"z": -0.0228426893,
				"element": "H" 
			},
			{
				"x": 0.4577946382,
				"y": -1.1779386146,
				"z": 1.4916714635,
				"element": "H" 
			},
			{
				"x": 2.1374029976,
				"y": -1.2215436716,
				"z": 0.9445386402,
				"element": "H" 
			},
			{
				"x": 0.9887782547,
				"y": 1.8833174649,
				"z": 3.4665507109,
				"element": "H" 
			},
			{
				"x": -0.1806517635,
				"y": 0.5706327917,
				"z": 3.1795136683,
				"element": "H" 
			},
			{
				"x": 0.1571395672,
				"y": 1.7759662813,
				"z": 1.9136388293,
				"element": "H" 
			},
			{
				"x": 1.7704472328,
				"y": -1.0340312738,
				"z": 3.8056000087,
				"element": "H" 
			},
			{
				"x": 3.2771336433,
				"y": -0.8383558433,
				"z": 2.8768918796,
				"element": "H" 
			},
			{
				"x": 2.7673968758,
				"y": 0.4261791802,
				"z": 4.008608753,
				"element": "H" 
			}
		],
		 "valence_orbital": [ 
			{
				"type": "occ",
				"energy": -0.28956,
				"method": "rhf"
			},
			{
				"type": "occ",
				"energy": -0.26314,
				"method": "rhf"
			},
			{
				"type": "occ",
				"energy": -0.24156,
				"method": "rhf"
			},
			{
				"type": "occ",
				"energy": -0.21665,
				"method": "rhf"
			},
			{
				"type": "occ",
				"energy": -0.20088,
				"method": "rhf"
			},
			{
				"type": "unocc",
				"energy": -0.00162,
				"method": "rhf"
			},
			{
				"type": "unocc",
				"energy": 0.01545,
				"method": "rhf"
			},
			{
				"type": "unocc",
				"energy": 0.06706,
				"method": "rhf"
			},
			{
				"type": "unocc",
				"energy": 0.09062,
				"method": "rhf"
			},
			{
				"type": "unocc",
				"energy": 0.09419,
				"method": "rhf"
			}
		],
		"cosmo_sigma_profile": { 
			"-0.025": 0.0,
			"-0.024": 0.0,
			"-0.023": 0.0,
			"-0.022": 0.0,
			"-0.021": 0.0,
			"-0.02": 0.0,
			"-0.019": 0.0,
			"-0.018": 0.0,
			"-0.017": 0.0,
			"-0.016": 0.0,
			"-0.015": 0.173600079028,
			"-0.014": 0.733263876899,
			"-0.013": 0.880456795733,
			"-0.012": 0.827511625194,
			"-0.011": 1.00860296341,
			"-0.01": 1.06615101223,
			"-0.009": 1.01036335845,
			"-0.008": 0.911115708053,
			"-0.007": 1.10593452802,
			"-0.006": 6.17589692007,
			"-0.005": 16.8525223744,
			"-0.004": 21.6115071675,
			"-0.003": 32.0023675136,
			"-0.002": 31.6738240573,
			"-0.001": 41.852345166,
			"0.0": 47.5177965508,
			"0.001": 34.349165604,
			"0.002": 16.7081528313,
			"0.003": 13.1703443779,
			"0.004": 14.6266718517,
			"0.005": 11.720118805,
			"0.006": 10.5960799405,
			"0.007": 4.82127383421,
			"0.008": 3.418953023,
			"0.009": 3.72042095792,
			"0.01": 3.40694740882,
			"0.011": 2.69977806027,
			"0.012": 1.65346412038,
			"0.013": 0.923929880865,
			"0.014": 0.37548574732,
			"0.015": 0.424381463203,
			"0.016": 0.0,
			"0.017": 0.0,
			"0.018": 0.0,
			"0.019": 0.0,
			"0.02": 0.0,
			"0.021": 0.0,
			"0.022": 0.0,
			"0.023": 0.0,
			"0.024": 0.0,
			"0.025": 0.0
		}
	}
}
