{
	 "smiles": "CN(C)C(=O)C1=C(O)C=CC=C1", 
	 "Tm": 435.15, 
	 "num_atms": 23, 
	 "gaussian": { 
		 "optdone": 1, 
		 "sigma_profile": "yes", 
		 "theory": "DFT", 
		 "functional": "B3LYP", 
		 "basiset": "6-31G**", 
		 "properties": { 
			 "R2extent": 2923.7843, 
			 "electric_dipole_moment_norm": 4.08375002418, 
			 "electric_quadrupole_moment_norm": 12.0429417747, 
			 "total_energy": -554.802629077, 
			 "HOMO_LUMO_gap": 0.18032, 
			 "cosmo_polarized_energy": -9.46, 
			 "cosmo_cavitation_energy": 25.6, 
			 "cosmo_dispersion_energy": -19.21, 
			 "cosmo_repulsion_energy": 1.51, 
			 "cosmo_total_nonelectrostatic_energy": 7.91, 
			 "SMD_solvation_energy": 5.03 
		},
		"coords": [
			{
				"x": 0.7827015186,
				"y": 1.125295107,
				"z": -2.5081716039,
				"element": "C" 
			},
			{
				"x": 0.0343365487,
				"y": 1.9432075771,
				"z": -1.5584609926,
				"element": "N" 
			},
			{
				"x": -0.7969613821,
				"y": 2.9767675127,
				"z": -2.168918757,
				"element": "C" 
			},
			{
				"x": 0.3270426253,
				"y": 2.0703127435,
				"z": -0.2248640803,
				"element": "C" 
			},
			{
				"x": -0.0091645039,
				"y": 3.1079495731,
				"z": 0.3848098501,
				"element": "O" 
			},
			{
				"x": 1.0172786009,
				"y": 0.9756152091,
				"z": 0.5110426289,
				"element": "C" 
			},
			{
				"x": 1.7317389482,
				"y": 1.3228547046,
				"z": 1.6908650951,
				"element": "C" 
			},
			{
				"x": 1.7721183559,
				"y": 2.5776045834,
				"z": 2.1667638999,
				"element": "O" 
			},
			{
				"x": 2.4271476392,
				"y": 0.3274786552,
				"z": 2.397552376,
				"element": "C" 
			},
			{
				"x": 2.3551951538,
				"y": -0.999052514,
				"z": 1.9967690541,
				"element": "C" 
			},
			{
				"x": 1.5827054003,
				"y": -1.368574361,
				"z": 0.8871914184,
				"element": "C" 
			},
			{
				"x": 0.9261312807,
				"y": -0.3846089957,
				"z": 0.159360872,
				"element": "C" 
			},
			{
				"x": 1.1760606727,
				"y": 1.7698066029,
				"z": -3.304172773,
				"element": "H" 
			},
			{
				"x": 0.1470340999,
				"y": 0.3622479852,
				"z": -2.9747051516,
				"element": "H" 
			},
			{
				"x": 1.6242131519,
				"y": 0.636517061,
				"z": -2.0220096533,
				"element": "H" 
			},
			{
				"x": -1.4421020196,
				"y": 3.4176535546,
				"z": -1.4115437086,
				"element": "H" 
			},
			{
				"x": -0.185634924,
				"y": 3.7745919577,
				"z": -2.6117280447,
				"element": "H" 
			},
			{
				"x": -1.4050923278,
				"y": 2.5238928254,
				"z": -2.9584808352,
				"element": "H" 
			},
			{
				"x": 1.0857453811,
				"y": 3.0808578845,
				"z": 1.6582795989,
				"element": "H" 
			},
			{
				"x": 2.9874993968,
				"y": 0.626927269,
				"z": 3.2769621474,
				"element": "H" 
			},
			{
				"x": 2.8842491548,
				"y": -1.7582748428,
				"z": 2.566189758,
				"element": "H" 
			},
			{
				"x": 1.4915584349,
				"y": -2.4114654519,
				"z": 0.6014091982,
				"element": "H" 
			},
			{
				"x": 0.3060987933,
				"y": -0.6735046406,
				"z": -0.6825402966,
				"element": "H" 
			}
		],
		 "valence_orbital": [ 
			{
				"type": "occ",
				"energy": -0.3286,
				"method": "rhf"
			},
			{
				"type": "occ",
				"energy": -0.26907,
				"method": "rhf"
			},
			{
				"type": "occ",
				"energy": -0.25306,
				"method": "rhf"
			},
			{
				"type": "occ",
				"energy": -0.24924,
				"method": "rhf"
			},
			{
				"type": "occ",
				"energy": -0.21774,
				"method": "rhf"
			},
			{
				"type": "unocc",
				"energy": -0.03742,
				"method": "rhf"
			},
			{
				"type": "unocc",
				"energy": 0.00868,
				"method": "rhf"
			},
			{
				"type": "unocc",
				"energy": 0.04997,
				"method": "rhf"
			},
			{
				"type": "unocc",
				"energy": 0.08153,
				"method": "rhf"
			},
			{
				"type": "unocc",
				"energy": 0.10047,
				"method": "rhf"
			}
		],
		"cosmo_sigma_profile": { 
			"-0.025": 0.0,
			"-0.024": 0.0,
			"-0.023": 0.0,
			"-0.022": 0.0,
			"-0.021": 0.0,
			"-0.02": 0.0,
			"-0.019": 0.0,
			"-0.018": 0.0,
			"-0.017": 0.0,
			"-0.016": 0.0,
			"-0.015": 0.0,
			"-0.014": 0.0,
			"-0.013": 0.0,
			"-0.012": 0.0,
			"-0.011": 0.0,
			"-0.01": 0.0,
			"-0.009": 0.0,
			"-0.008": 0.0,
			"-0.007": 0.564523962083,
			"-0.006": 7.66391612224,
			"-0.005": 21.0740493596,
			"-0.004": 24.4858289649,
			"-0.003": 23.5437003589,
			"-0.002": 22.4153505627,
			"-0.001": 13.5879377849,
			"0.0": 10.8499869575,
			"0.001": 10.3876748693,
			"0.002": 11.9330276574,
			"0.003": 12.3773312787,
			"0.004": 11.7838130184,
			"0.005": 9.62482967231,
			"0.006": 3.40594709495,
			"0.007": 2.50459812517,
			"0.008": 3.13067727745,
			"0.009": 2.68577329973,
			"0.01": 3.24837908054,
			"0.011": 3.2024414612,
			"0.012": 4.18846363574,
			"0.013": 0.701189194273,
			"0.014": 0.0,
			"0.015": 0.0,
			"0.016": 0.0,
			"0.017": 0.0,
			"0.018": 0.0,
			"0.019": 0.0,
			"0.02": 0.0,
			"0.021": 0.0,
			"0.022": 0.0,
			"0.023": 0.0,
			"0.024": 0.0,
			"0.025": 0.0
		}
	}
}
