{
	 "smiles": "CC(C)C1=NN=C(S)N1C", 
	 "Tm": 413.15, 
	 "num_atms": 21, 
	 "gaussian": { 
		 "optdone": 1, 
		 "sigma_profile": "yes", 
		 "theory": "DFT", 
		 "functional": "B3LYP", 
		 "basiset": "6-31G**", 
		 "properties": { 
			 "R2extent": 2285.5365, 
			 "electric_dipole_moment_norm": 4.67063264558, 
			 "electric_quadrupole_moment_norm": 7.8615727555, 
			 "total_energy": -797.693435349, 
			 "HOMO_LUMO_gap": 0.23084, 
			 "cosmo_polarized_energy": -15.5, 
			 "cosmo_cavitation_energy": 25.39, 
			 "cosmo_dispersion_energy": -18.82, 
			 "cosmo_repulsion_energy": 1.48, 
			 "cosmo_total_nonelectrostatic_energy": 8.06, 
			 "SMD_solvation_energy": 2.2 
		},
		"coords": [
			{
				"x": -0.7446842793,
				"y": -2.4059070185,
				"z": -0.5578518962,
				"element": "C" 
			},
			{
				"x": 0.1783658108,
				"y": -1.2326263855,
				"z": -0.1969949367,
				"element": "C" 
			},
			{
				"x": 1.1252894826,
				"y": -0.8886008524,
				"z": -1.3668434074,
				"element": "C" 
			},
			{
				"x": -0.6299790302,
				"y": -0.0320980464,
				"z": 0.2157797575,
				"element": "C" 
			},
			{
				"x": -1.8837729012,
				"y": 0.1901500627,
				"z": -0.0994358276,
				"element": "N" 
			},
			{
				"x": -2.254329343,
				"y": 1.4162363496,
				"z": 0.4250293614,
				"element": "N" 
			},
			{
				"x": -1.2026035477,
				"y": 1.8910585273,
				"z": 1.0460673426,
				"element": "C" 
			},
			{
				"x": -1.1052352361,
				"y": 3.4315460669,
				"z": 1.9105060884,
				"element": "S" 
			},
			{
				"x": -0.1385175192,
				"y": 1.0287230911,
				"z": 0.9591777913,
				"element": "N" 
			},
			{
				"x": 1.1873803623,
				"y": 1.2202940648,
				"z": 1.5252655682,
				"element": "C" 
			},
			{
				"x": -1.3771588389,
				"y": -2.6871979615,
				"z": 0.2880210183,
				"element": "H" 
			},
			{
				"x": -1.4047270768,
				"y": -2.1344097721,
				"z": -1.3852537948,
				"element": "H" 
			},
			{
				"x": -0.1480732056,
				"y": -3.2747807802,
				"z": -0.8529498965,
				"element": "H" 
			},
			{
				"x": 0.7962463564,
				"y": -1.5385204263,
				"z": 0.6601745354,
				"element": "H" 
			},
			{
				"x": 1.8041684844,
				"y": -0.0654953741,
				"z": -1.1206689397,
				"element": "H" 
			},
			{
				"x": 0.5466005419,
				"y": -0.5935620868,
				"z": -2.2476791619,
				"element": "H" 
			},
			{
				"x": 1.7349187916,
				"y": -1.7583384692,
				"z": -1.6325953186,
				"element": "H" 
			},
			{
				"x": -2.4133256822,
				"y": 3.6913482978,
				"z": 1.7273933087,
				"element": "H" 
			},
			{
				"x": 1.705595235,
				"y": 0.2618778157,
				"z": 1.5659962353,
				"element": "H" 
			},
			{
				"x": 1.1035451823,
				"y": 1.6105323283,
				"z": 2.5431556145,
				"element": "H" 
			},
			{
				"x": 1.7794964129,
				"y": 1.9178705688,
				"z": 0.9240065576,
				"element": "H" 
			}
		],
		 "valence_orbital": [ 
			{
				"type": "occ",
				"energy": -0.3053,
				"method": "rhf"
			},
			{
				"type": "occ",
				"energy": -0.29961,
				"method": "rhf"
			},
			{
				"type": "occ",
				"energy": -0.28477,
				"method": "rhf"
			},
			{
				"type": "occ",
				"energy": -0.24857,
				"method": "rhf"
			},
			{
				"type": "occ",
				"energy": -0.22484,
				"method": "rhf"
			},
			{
				"type": "unocc",
				"energy": 0.006,
				"method": "rhf"
			},
			{
				"type": "unocc",
				"energy": 0.02096,
				"method": "rhf"
			},
			{
				"type": "unocc",
				"energy": 0.04846,
				"method": "rhf"
			},
			{
				"type": "unocc",
				"energy": 0.06063,
				"method": "rhf"
			},
			{
				"type": "unocc",
				"energy": 0.07549,
				"method": "rhf"
			}
		],
		"cosmo_sigma_profile": { 
			"-0.025": 0.0,
			"-0.024": 0.0,
			"-0.023": 0.0,
			"-0.022": 0.0,
			"-0.021": 0.0,
			"-0.02": 0.0,
			"-0.019": 0.0,
			"-0.018": 0.0,
			"-0.017": 0.0,
			"-0.016": 0.0,
			"-0.015": 0.0,
			"-0.014": 0.0,
			"-0.013": 0.0110713183351,
			"-0.012": 1.02083211505,
			"-0.011": 1.52884690594,
			"-0.01": 1.37061899032,
			"-0.009": 1.33093772182,
			"-0.008": 3.02526453599,
			"-0.007": 6.78259853538,
			"-0.006": 10.2774867356,
			"-0.005": 13.5254060194,
			"-0.004": 17.943870238,
			"-0.003": 19.6080260307,
			"-0.002": 17.6063553188,
			"-0.001": 18.380589591,
			"0.0": 19.0496935429,
			"0.001": 15.9840579599,
			"0.002": 8.00329214086,
			"0.003": 6.19634019462,
			"0.004": 4.76123185188,
			"0.005": 5.07965784937,
			"0.006": 4.07136425621,
			"0.007": 3.70063276442,
			"0.008": 1.44202778693,
			"0.009": 1.81499993114,
			"0.01": 2.56837152884,
			"0.011": 2.16884198295,
			"0.012": 2.66920457394,
			"0.013": 2.14652397793,
			"0.014": 4.02273592879,
			"0.015": 2.67329930121,
			"0.016": 2.45023459093,
			"0.017": 1.0888947498,
			"0.018": 0.0,
			"0.019": 0.0,
			"0.02": 0.0,
			"0.021": 0.0,
			"0.022": 0.0,
			"0.023": 0.0,
			"0.024": 0.0,
			"0.025": 0.0
		}
	}
}
