{
	 "smiles": "CCOC(=O)C1=NN(C=C1)C1=CC(N)=CC=C1", 
	 "Tm": 371.15, 
	 "num_atms": 30, 
	 "gaussian": { 
		 "optdone": 1, 
		 "sigma_profile": "yes", 
		 "theory": "DFT", 
		 "functional": "B3LYP", 
		 "basiset": "6-31G**", 
		 "properties": { 
			 "R2extent": 6519.0239, 
			 "electric_dipole_moment_norm": 4.60141368929, 
			 "electric_quadrupole_moment_norm": 22.8094001655, 
			 "total_energy": -779.810459487, 
			 "HOMO_LUMO_gap": 0.17422, 
			 "cosmo_polarized_energy": -18.93, 
			 "cosmo_cavitation_energy": 35.18, 
			 "cosmo_dispersion_energy": -25.5, 
			 "cosmo_repulsion_energy": 2.0, 
			 "cosmo_total_nonelectrostatic_energy": 11.67, 
			 "SMD_solvation_energy": 6.7 
		},
		"coords": [
			{
				"x": 4.6153226359,
				"y": 1.2279359883,
				"z": 3.3074672174,
				"element": "C" 
			},
			{
				"x": 4.1494460849,
				"y": 0.0706275318,
				"z": 2.4441476706,
				"element": "C" 
			},
			{
				"x": 2.8709611674,
				"y": 0.4349939846,
				"z": 1.8817933612,
				"element": "O" 
			},
			{
				"x": 2.3016965223,
				"y": -0.4963156028,
				"z": 1.075588167,
				"element": "C" 
			},
			{
				"x": 2.8060507354,
				"y": -1.5692297812,
				"z": 0.8235104364,
				"element": "O" 
			},
			{
				"x": 0.9995716277,
				"y": -0.0084419368,
				"z": 0.5667190858,
				"element": "C" 
			},
			{
				"x": 0.2813472482,
				"y": -0.7723646872,
				"z": -0.2611978872,
				"element": "N" 
			},
			{
				"x": -0.8209122851,
				"y": -0.0496733411,
				"z": -0.5305710489,
				"element": "N" 
			},
			{
				"x": -0.8185259446,
				"y": 1.1601851262,
				"z": 0.1175865141,
				"element": "C" 
			},
			{
				"x": 0.3510644927,
				"y": 1.2235605071,
				"z": 0.8366672104,
				"element": "C" 
			},
			{
				"x": -1.8309655291,
				"y": -0.5789780372,
				"z": -1.3843456228,
				"element": "C" 
			},
			{
				"x": -2.678490752,
				"y": 0.2940587364,
				"z": -2.069131868,
				"element": "C" 
			},
			{
				"x": -3.6935817639,
				"y": -0.2150507883,
				"z": -2.8946441768,
				"element": "C" 
			},
			{
				"x": -4.5816742578,
				"y": 0.6492639797,
				"z": -3.53523446,
				"element": "N" 
			},
			{
				"x": -3.8239361016,
				"y": -1.608221809,
				"z": -3.0288511443,
				"element": "C" 
			},
			{
				"x": -2.955425664,
				"y": -2.4597721098,
				"z": -2.3513040387,
				"element": "C" 
			},
			{
				"x": -1.952716844,
				"y": -1.9642476273,
				"z": -1.5195029074,
				"element": "C" 
			},
			{
				"x": 5.5858552158,
				"y": 0.9912111443,
				"z": 3.7546618535,
				"element": "H" 
			},
			{
				"x": 4.7238834507,
				"y": 2.1402483077,
				"z": 2.713657528,
				"element": "H" 
			},
			{
				"x": 3.903905756,
				"y": 1.4251569112,
				"z": 4.1147461071,
				"element": "H" 
			},
			{
				"x": 4.8483678621,
				"y": -0.1413527957,
				"z": 1.628511568,
				"element": "H" 
			},
			{
				"x": 4.0331536628,
				"y": -0.852319726,
				"z": 3.021508816,
				"element": "H" 
			},
			{
				"x": -1.6475297089,
				"y": 1.8459707925,
				"z": 0.0411043483,
				"element": "H" 
			},
			{
				"x": 0.6954497506,
				"y": 2.0220398864,
				"z": 1.4742512865,
				"element": "H" 
			},
			{
				"x": -2.5441641311,
				"y": 1.3681019239,
				"z": -1.9876855467,
				"element": "H" 
			},
			{
				"x": -5.0301232672,
				"y": 0.2706244897,
				"z": -4.357909206,
				"element": "H" 
			},
			{
				"x": -4.2381855388,
				"y": 1.5867814173,
				"z": -3.6917116061,
				"element": "H" 
			},
			{
				"x": -4.6047922642,
				"y": -2.0147382591,
				"z": -3.6660374956,
				"element": "H" 
			},
			{
				"x": -3.0646219902,
				"y": -3.5338684409,
				"z": -2.4694076901,
				"element": "H" 
			},
			{
				"x": -1.2728301702,
				"y": -2.6158857846,
				"z": -0.9865864717,
				"element": "H" 
			}
		],
		 "valence_orbital": [ 
			{
				"type": "occ",
				"energy": -0.28152,
				"method": "rhf"
			},
			{
				"type": "occ",
				"energy": -0.26165,
				"method": "rhf"
			},
			{
				"type": "occ",
				"energy": -0.2552,
				"method": "rhf"
			},
			{
				"type": "occ",
				"energy": -0.23502,
				"method": "rhf"
			},
			{
				"type": "occ",
				"energy": -0.20936,
				"method": "rhf"
			},
			{
				"type": "unocc",
				"energy": -0.03514,
				"method": "rhf"
			},
			{
				"type": "unocc",
				"energy": -0.00355,
				"method": "rhf"
			},
			{
				"type": "unocc",
				"energy": 0.01049,
				"method": "rhf"
			},
			{
				"type": "unocc",
				"energy": 0.04164,
				"method": "rhf"
			},
			{
				"type": "unocc",
				"energy": 0.07268,
				"method": "rhf"
			}
		],
		"cosmo_sigma_profile": { 
			"-0.025": 0.0,
			"-0.024": 0.0,
			"-0.023": 0.0,
			"-0.022": 0.0,
			"-0.021": 0.0,
			"-0.02": 0.0,
			"-0.019": 0.0,
			"-0.018": 0.0,
			"-0.017": 0.0,
			"-0.016": 0.0,
			"-0.015": 0.0,
			"-0.014": 0.0,
			"-0.013": 0.851763433928,
			"-0.012": 2.98358611267,
			"-0.011": 3.17307171196,
			"-0.01": 5.07999713572,
			"-0.009": 6.09112649684,
			"-0.008": 5.51937512262,
			"-0.007": 5.83370064903,
			"-0.006": 9.76244664885,
			"-0.005": 14.1792529706,
			"-0.004": 21.3814173541,
			"-0.003": 23.9356008015,
			"-0.002": 19.8575392543,
			"-0.001": 18.1359717099,
			"0.0": 20.9499814185,
			"0.001": 18.2620922115,
			"0.002": 17.6782976883,
			"0.003": 16.7446276887,
			"0.004": 14.0996956583,
			"0.005": 17.0726397619,
			"0.006": 8.15399114134,
			"0.007": 4.17302821008,
			"0.008": 2.66923823334,
			"0.009": 3.27032867183,
			"0.01": 2.8045838423,
			"0.011": 4.91819312645,
			"0.012": 6.16059464026,
			"0.013": 3.26480598623,
			"0.014": 2.48565191509,
			"0.015": 0.602749376898,
			"0.016": 0.0,
			"0.017": 0.0,
			"0.018": 0.0,
			"0.019": 0.0,
			"0.02": 0.0,
			"0.021": 0.0,
			"0.022": 0.0,
			"0.023": 0.0,
			"0.024": 0.0,
			"0.025": 0.0
		}
	}
}
