{
	 "smiles": "OC1=CC2=C(C=C1)N=CC=N2", 
	 "Tm": 499.15, 
	 "num_atms": 17, 
	 "gaussian": { 
		 "optdone": 1, 
		 "sigma_profile": "yes", 
		 "theory": "DFT", 
		 "functional": "B3LYP", 
		 "basiset": "6-31G**", 
		 "properties": { 
			 "R2extent": 2843.3573, 
			 "electric_dipole_moment_norm": 1.19901767293, 
			 "electric_quadrupole_moment_norm": 4.84878250698, 
			 "total_energy": -493.185886033, 
			 "HOMO_LUMO_gap": 0.16355, 
			 "cosmo_polarized_energy": -10.9, 
			 "cosmo_cavitation_energy": 21.48, 
			 "cosmo_dispersion_energy": -16.43, 
			 "cosmo_repulsion_energy": 1.29, 
			 "cosmo_total_nonelectrostatic_energy": 6.35, 
			 "SMD_solvation_energy": 1.06 
		},
		"coords": [
			{
				"x": -1.7430145738,
				"y": -1.3598308035,
				"z": 2.0154018442,
				"element": "O" 
			},
			{
				"x": -1.4932615636,
				"y": -0.249910471,
				"z": 1.2675820713,
				"element": "C" 
			},
			{
				"x": -2.4087650506,
				"y": 0.7667137684,
				"z": 1.0845022975,
				"element": "C" 
			},
			{
				"x": -2.0654640913,
				"y": 1.887164135,
				"z": 0.2895868082,
				"element": "C" 
			},
			{
				"x": -0.7708562399,
				"y": 1.9568207834,
				"z": -0.3182794994,
				"element": "C" 
			},
			{
				"x": 0.1462340016,
				"y": 0.8911269282,
				"z": -0.1076579369,
				"element": "C" 
			},
			{
				"x": -0.2044811468,
				"y": -0.1862530667,
				"z": 0.6657273799,
				"element": "C" 
			},
			{
				"x": -0.4067450421,
				"y": 3.0174346468,
				"z": -1.0879013551,
				"element": "N" 
			},
			{
				"x": -1.3082103272,
				"y": 3.9682213509,
				"z": -1.2392974565,
				"element": "C" 
			},
			{
				"x": -2.5915319474,
				"y": 3.900429414,
				"z": -0.6374543334,
				"element": "C" 
			},
			{
				"x": -2.9762945998,
				"y": 2.8878134938,
				"z": 0.1136328176,
				"element": "N" 
			},
			{
				"x": -2.6378080586,
				"y": -1.3062607434,
				"z": 2.376976434,
				"element": "H" 
			},
			{
				"x": -3.3979420956,
				"y": 0.7401159763,
				"z": 1.5336603901,
				"element": "H" 
			},
			{
				"x": 1.1225143955,
				"y": 0.9610395424,
				"z": -0.5760357102,
				"element": "H" 
			},
			{
				"x": 0.4802028963,
				"y": -1.0098547703,
				"z": 0.8390602439,
				"element": "H" 
			},
			{
				"x": -1.0364582622,
				"y": 4.8262929748,
				"z": -1.8519325276,
				"element": "H" 
			},
			{
				"x": -3.3059182945,
				"y": 4.7087368409,
				"z": -0.7889714675,
				"element": "H" 
			}
		],
		 "valence_orbital": [ 
			{
				"type": "occ",
				"energy": -0.32459,
				"method": "rhf"
			},
			{
				"type": "occ",
				"energy": -0.30555,
				"method": "rhf"
			},
			{
				"type": "occ",
				"energy": -0.25428,
				"method": "rhf"
			},
			{
				"type": "occ",
				"energy": -0.24464,
				"method": "rhf"
			},
			{
				"type": "occ",
				"energy": -0.23078,
				"method": "rhf"
			},
			{
				"type": "unocc",
				"energy": -0.06723,
				"method": "rhf"
			},
			{
				"type": "unocc",
				"energy": -0.01836,
				"method": "rhf"
			},
			{
				"type": "unocc",
				"energy": 0.01059,
				"method": "rhf"
			},
			{
				"type": "unocc",
				"energy": 0.06323,
				"method": "rhf"
			},
			{
				"type": "unocc",
				"energy": 0.08627,
				"method": "rhf"
			}
		],
		"cosmo_sigma_profile": { 
			"-0.025": 0.0,
			"-0.024": 0.0,
			"-0.023": 0.0,
			"-0.022": 0.0,
			"-0.021": 0.0,
			"-0.02": 0.0,
			"-0.019": 0.0990795206528,
			"-0.018": 0.833265969155,
			"-0.017": 1.15069394665,
			"-0.016": 1.78013806847,
			"-0.015": 0.606696807906,
			"-0.014": 0.74182770727,
			"-0.013": 1.00390321844,
			"-0.012": 0.657063625926,
			"-0.011": 1.51446180167,
			"-0.01": 1.35973462689,
			"-0.009": 0.580794879931,
			"-0.008": 1.79426847957,
			"-0.007": 9.25065681484,
			"-0.006": 9.28571205956,
			"-0.005": 8.1355904891,
			"-0.004": 8.5984698903,
			"-0.003": 7.01964254267,
			"-0.002": 8.51724248497,
			"-0.001": 11.1666105096,
			"0.0": 11.8325174983,
			"0.001": 16.776923786,
			"0.002": 19.5586720239,
			"0.003": 13.0480854523,
			"0.004": 6.3110185457,
			"0.005": 4.47880984692,
			"0.006": 4.32513893858,
			"0.007": 2.47924293661,
			"0.008": 4.39195954622,
			"0.009": 4.13125192913,
			"0.01": 2.96472677764,
			"0.011": 2.47901409417,
			"0.012": 2.37995267255,
			"0.013": 1.02643921635,
			"0.014": 1.82264635369,
			"0.015": 0.922431282582,
			"0.016": 0.0701659627416,
			"0.017": 0.0,
			"0.018": 0.0,
			"0.019": 0.0,
			"0.02": 0.0,
			"0.021": 0.0,
			"0.022": 0.0,
			"0.023": 0.0,
			"0.024": 0.0,
			"0.025": 0.0
		}
	}
}
