{
	 "smiles": "CCC(C)(NC(=O)C1=CC=CC=C1)C(N)=S", 
	 "Tm": 436.15, 
	 "num_atms": 32, 
	 "gaussian": { 
		 "optdone": 1, 
		 "sigma_profile": "yes", 
		 "theory": "DFT", 
		 "functional": "B3LYP", 
		 "basiset": "6-31G**", 
		 "properties": { 
			 "R2extent": 5106.8672, 
			 "electric_dipole_moment_norm": 5.19064805684, 
			 "electric_quadrupole_moment_norm": 20.141102092, 
			 "total_energy": -1049.87357737, 
			 "HOMO_LUMO_gap": 0.1478, 
			 "cosmo_polarized_energy": -16.35, 
			 "cosmo_cavitation_energy": 35.35, 
			 "cosmo_dispersion_energy": -25.28, 
			 "cosmo_repulsion_energy": 1.92, 
			 "cosmo_total_nonelectrostatic_energy": 11.99, 
			 "SMD_solvation_energy": 5.21 
		},
		"coords": [
			{
				"x": -3.4184433461,
				"y": -0.1126516811,
				"z": -1.0856706469,
				"element": "C" 
			},
			{
				"x": -2.9216997083,
				"y": -1.256141148,
				"z": -0.1952181374,
				"element": "C" 
			},
			{
				"x": -1.4347082094,
				"y": -1.6726208228,
				"z": -0.4021131792,
				"element": "C" 
			},
			{
				"x": -1.1807574272,
				"y": -2.0623577302,
				"z": -1.8647457088,
				"element": "C" 
			},
			{
				"x": -0.5077166779,
				"y": -0.5393003691,
				"z": -0.1363911982,
				"element": "N" 
			},
			{
				"x": -0.5132548532,
				"y": 0.3591174601,
				"z": 0.8860424148,
				"element": "C" 
			},
			{
				"x": -1.2259164526,
				"y": 0.2447887569,
				"z": 1.8948020684,
				"element": "O" 
			},
			{
				"x": 0.4287291174,
				"y": 1.5206729851,
				"z": 0.7486152438,
				"element": "C" 
			},
			{
				"x": 0.8890235989,
				"y": 1.9977857965,
				"z": -0.4876450756,
				"element": "C" 
			},
			{
				"x": 1.7586511127,
				"y": 3.0868296425,
				"z": -0.5417048911,
				"element": "C" 
			},
			{
				"x": 2.1742535882,
				"y": 3.7088689494,
				"z": 0.6371064633,
				"element": "C" 
			},
			{
				"x": 1.7075408615,
				"y": 3.2476108057,
				"z": 1.870817351,
				"element": "C" 
			},
			{
				"x": 0.8341870812,
				"y": 2.1642557136,
				"z": 1.9261408413,
				"element": "C" 
			},
			{
				"x": -1.1394220972,
				"y": -2.8650243281,
				"z": 0.5617791518,
				"element": "C" 
			},
			{
				"x": -1.1289151179,
				"y": -2.5260833045,
				"z": 1.8559590122,
				"element": "N" 
			},
			{
				"x": -0.9193450287,
				"y": -4.4395066787,
				"z": 0.0501129245,
				"element": "S" 
			},
			{
				"x": -4.4465807568,
				"y": 0.1442947296,
				"z": -0.8125901006,
				"element": "H" 
			},
			{
				"x": -2.8119487922,
				"y": 0.789672626,
				"z": -0.9603284868,
				"element": "H" 
			},
			{
				"x": -3.4193973326,
				"y": -0.3778357377,
				"z": -2.1468515355,
				"element": "H" 
			},
			{
				"x": -3.0691801242,
				"y": -0.981716862,
				"z": 0.8505542017,
				"element": "H" 
			},
			{
				"x": -3.5192242709,
				"y": -2.1567519506,
				"z": -0.3759847903,
				"element": "H" 
			},
			{
				"x": -0.1612909678,
				"y": -2.4351247807,
				"z": -1.9968779761,
				"element": "H" 
			},
			{
				"x": -1.335191769,
				"y": -1.195350485,
				"z": -2.513034974,
				"element": "H" 
			},
			{
				"x": -1.8552065663,
				"y": -2.8618816176,
				"z": -2.1700008066,
				"element": "H" 
			},
			{
				"x": 0.2407202852,
				"y": -0.4448449609,
				"z": -0.8070025082,
				"element": "H" 
			},
			{
				"x": 0.5441810902,
				"y": 1.5487432054,
				"z": -1.4149127276,
				"element": "H" 
			},
			{
				"x": 2.1028536782,
				"y": 3.454950351,
				"z": -1.5035691787,
				"element": "H" 
			},
			{
				"x": 2.8528697152,
				"y": 4.5557734062,
				"z": 0.5937760793,
				"element": "H" 
			},
			{
				"x": 2.0234253632,
				"y": 3.7345265912,
				"z": 2.7886590646,
				"element": "H" 
			},
			{
				"x": 0.4503806978,
				"y": 1.7985162869,
				"z": 2.8722186639,
				"element": "H" 
			},
			{
				"x": -0.9638488354,
				"y": -3.256341704,
				"z": 2.5339571807,
				"element": "H" 
			},
			{
				"x": -1.2581678559,
				"y": -1.5535731452,
				"z": 2.1505012602,
				"element": "H" 
			}
		],
		 "valence_orbital": [ 
			{
				"type": "occ",
				"energy": -0.27312,
				"method": "rhf"
			},
			{
				"type": "occ",
				"energy": -0.2696,
				"method": "rhf"
			},
			{
				"type": "occ",
				"energy": -0.26553,
				"method": "rhf"
			},
			{
				"type": "occ",
				"energy": -0.22122,
				"method": "rhf"
			},
			{
				"type": "occ",
				"energy": -0.19965,
				"method": "rhf"
			},
			{
				"type": "unocc",
				"energy": -0.05185,
				"method": "rhf"
			},
			{
				"type": "unocc",
				"energy": -0.02402,
				"method": "rhf"
			},
			{
				"type": "unocc",
				"energy": -0.02054,
				"method": "rhf"
			},
			{
				"type": "unocc",
				"energy": 0.04122,
				"method": "rhf"
			},
			{
				"type": "unocc",
				"energy": 0.06252,
				"method": "rhf"
			}
		],
		"cosmo_sigma_profile": { 
			"-0.025": 0.0,
			"-0.024": 0.0,
			"-0.023": 0.0,
			"-0.022": 0.0,
			"-0.021": 0.0,
			"-0.02": 0.0,
			"-0.019": 0.0,
			"-0.018": 0.0,
			"-0.017": 0.0,
			"-0.016": 0.0,
			"-0.015": 0.135163818308,
			"-0.014": 1.29718521926,
			"-0.013": 2.44979560863,
			"-0.012": 2.40147645351,
			"-0.011": 2.39210289164,
			"-0.01": 2.33217521959,
			"-0.009": 3.28255739299,
			"-0.008": 2.47893079813,
			"-0.007": 5.03019034179,
			"-0.006": 10.6400275572,
			"-0.005": 13.7913751583,
			"-0.004": 18.4130172476,
			"-0.003": 24.4100226816,
			"-0.002": 26.7271641523,
			"-0.001": 27.2659546452,
			"0.0": 23.8761160117,
			"0.001": 19.7848901044,
			"0.002": 14.2246546767,
			"0.003": 13.8834946531,
			"0.004": 17.7273389943,
			"0.005": 7.67434502842,
			"0.006": 5.7183316339,
			"0.007": 4.71661966992,
			"0.008": 6.62640931134,
			"0.009": 8.50940040776,
			"0.01": 6.97512346758,
			"0.011": 4.57628338046,
			"0.012": 2.96373685825,
			"0.013": 1.47771895393,
			"0.014": 0.155315650177,
			"0.015": 0.0,
			"0.016": 0.0,
			"0.017": 0.0,
			"0.018": 0.0,
			"0.019": 0.0,
			"0.02": 0.0,
			"0.021": 0.0,
			"0.022": 0.0,
			"0.023": 0.0,
			"0.024": 0.0,
			"0.025": 0.0
		}
	}
}
