{
	 "smiles": "CC1=CC(CO)=NN1C1=CC=CC=N1", 
	 "Tm": 318.15, 
	 "num_atms": 25, 
	 "gaussian": { 
		 "optdone": 1, 
		 "sigma_profile": "yes", 
		 "theory": "DFT", 
		 "functional": "B3LYP", 
		 "basiset": "6-31G**", 
		 "properties": { 
			 "R2extent": 3217.8322, 
			 "electric_dipole_moment_norm": 5.94785652904, 
			 "electric_quadrupole_moment_norm": 11.4108746952, 
			 "total_energy": -627.138787534, 
			 "HOMO_LUMO_gap": 0.19204, 
			 "cosmo_polarized_energy": -15.01, 
			 "cosmo_cavitation_energy": 28.9, 
			 "cosmo_dispersion_energy": -21.25, 
			 "cosmo_repulsion_energy": 1.69, 
			 "cosmo_total_nonelectrostatic_energy": 9.34, 
			 "SMD_solvation_energy": 3.03 
		},
		"coords": [
			{
				"x": -2.1075823142,
				"y": -2.1149698597,
				"z": -0.6134675029,
				"element": "C" 
			},
			{
				"x": -1.3334472724,
				"y": -0.8467372192,
				"z": -0.7995647718,
				"element": "C" 
			},
			{
				"x": -1.6595120454,
				"y": 0.277735897,
				"z": -1.5299149396,
				"element": "C" 
			},
			{
				"x": -0.5981940747,
				"y": 1.1916941186,
				"z": -1.3138336837,
				"element": "C" 
			},
			{
				"x": -0.3948381549,
				"y": 2.5911399903,
				"z": -1.8327672755,
				"element": "C" 
			},
			{
				"x": 0.8470323378,
				"y": 3.1344867045,
				"z": -1.4417701252,
				"element": "O" 
			},
			{
				"x": 0.3167703426,
				"y": 0.6832395788,
				"z": -0.5037166197,
				"element": "N" 
			},
			{
				"x": -0.1255427677,
				"y": -0.5680937361,
				"z": -0.194651595,
				"element": "N" 
			},
			{
				"x": 0.6373871042,
				"y": -1.3711729923,
				"z": 0.6962577304,
				"element": "C" 
			},
			{
				"x": 0.8442417635,
				"y": -2.728533657,
				"z": 0.4203918692,
				"element": "C" 
			},
			{
				"x": 1.5879188938,
				"y": -3.4750766234,
				"z": 1.3310866361,
				"element": "C" 
			},
			{
				"x": 2.1154927727,
				"y": -2.84180103,
				"z": 2.4556143144,
				"element": "C" 
			},
			{
				"x": 1.8699035999,
				"y": -1.4769308486,
				"z": 2.613767983,
				"element": "C" 
			},
			{
				"x": 1.1373067518,
				"y": -0.749917807,
				"z": 1.7648057256,
				"element": "N" 
			},
			{
				"x": -3.1544702291,
				"y": -1.9365963115,
				"z": -0.8698236488,
				"element": "H" 
			},
			{
				"x": -2.0671648734,
				"y": -2.4704305254,
				"z": 0.4204391097,
				"element": "H" 
			},
			{
				"x": -1.7474790991,
				"y": -2.9263740103,
				"z": -1.2567950184,
				"element": "H" 
			},
			{
				"x": -2.551255265,
				"y": 0.4181749992,
				"z": -2.1239932222,
				"element": "H" 
			},
			{
				"x": -1.224640197,
				"y": 3.2255263943,
				"z": -1.4766560452,
				"element": "H" 
			},
			{
				"x": -0.4576990209,
				"y": 2.5881314285,
				"z": -2.9314193256,
				"element": "H" 
			},
			{
				"x": 1.2148771173,
				"y": 2.5288393157,
				"z": -0.7790467997,
				"element": "H" 
			},
			{
				"x": 0.4607714968,
				"y": -3.1745420646,
				"z": -0.4891223303,
				"element": "H" 
			},
			{
				"x": 1.7685495077,
				"y": -4.5305899391,
				"z": 1.1505839874,
				"element": "H" 
			},
			{
				"x": 2.7073812424,
				"y": -3.3837686742,
				"z": 3.1856468627,
				"element": "H" 
			},
			{
				"x": 2.2730923834,
				"y": -0.9398331285,
				"z": 3.4702486849,
				"element": "H" 
			}
		],
		 "valence_orbital": [ 
			{
				"type": "occ",
				"energy": -0.2881,
				"method": "rhf"
			},
			{
				"type": "occ",
				"energy": -0.26984,
				"method": "rhf"
			},
			{
				"type": "occ",
				"energy": -0.25392,
				"method": "rhf"
			},
			{
				"type": "occ",
				"energy": -0.24191,
				"method": "rhf"
			},
			{
				"type": "occ",
				"energy": -0.23124,
				"method": "rhf"
			},
			{
				"type": "unocc",
				"energy": -0.0392,
				"method": "rhf"
			},
			{
				"type": "unocc",
				"energy": -0.02918,
				"method": "rhf"
			},
			{
				"type": "unocc",
				"energy": 0.02592,
				"method": "rhf"
			},
			{
				"type": "unocc",
				"energy": 0.06612,
				"method": "rhf"
			},
			{
				"type": "unocc",
				"energy": 0.07738,
				"method": "rhf"
			}
		],
		"cosmo_sigma_profile": { 
			"-0.025": 0.0,
			"-0.024": 0.0,
			"-0.023": 0.0,
			"-0.022": 0.0,
			"-0.021": 0.0,
			"-0.02": 0.0,
			"-0.019": 0.0,
			"-0.018": 0.0,
			"-0.017": 0.0,
			"-0.016": 0.0,
			"-0.015": 0.0,
			"-0.014": 0.0,
			"-0.013": 0.0,
			"-0.012": 0.0,
			"-0.011": 0.0,
			"-0.01": 0.139352437689,
			"-0.009": 0.586388806937,
			"-0.008": 3.31943249859,
			"-0.007": 10.2219452803,
			"-0.006": 15.1943633685,
			"-0.005": 20.1704409304,
			"-0.004": 20.6869241932,
			"-0.003": 19.0102816587,
			"-0.002": 17.1668758828,
			"-0.001": 17.9351102664,
			"0.0": 14.8378612575,
			"0.001": 17.3626374265,
			"0.002": 16.5228608819,
			"0.003": 9.04532535178,
			"0.004": 9.21740269869,
			"0.005": 7.0676188842,
			"0.006": 3.334847854,
			"0.007": 3.7782620023,
			"0.008": 3.72395549443,
			"0.009": 2.59264238148,
			"0.01": 2.3547371149,
			"0.011": 3.2950902675,
			"0.012": 2.38506264763,
			"0.013": 3.20605499276,
			"0.014": 3.49430132869,
			"0.015": 1.76564577237,
			"0.016": 1.08742451272,
			"0.017": 0.919992122475,
			"0.018": 0.0224363858348,
			"0.019": 0.0,
			"0.02": 0.0,
			"0.021": 0.0,
			"0.022": 0.0,
			"0.023": 0.0,
			"0.024": 0.0,
			"0.025": 0.0
		}
	}
}
