{
	 "smiles": "CC1=CN=CN=C1", 
	 "Tm": 304.15, 
	 "num_atms": 13, 
	 "gaussian": { 
		 "optdone": 1, 
		 "sigma_profile": "yes", 
		 "theory": "DFT", 
		 "functional": "B3LYP", 
		 "basiset": "6-31G**", 
		 "properties": { 
			 "R2extent": 1399.9793, 
			 "electric_dipole_moment_norm": 2.76641413205, 
			 "electric_quadrupole_moment_norm": 5.41203457953, 
			 "total_energy": -303.644669566, 
			 "HOMO_LUMO_gap": 0.20988, 
			 "cosmo_polarized_energy": -7.11, 
			 "cosmo_cavitation_energy": 16.83, 
			 "cosmo_dispersion_energy": -12.67, 
			 "cosmo_repulsion_energy": 1.06, 
			 "cosmo_total_nonelectrostatic_energy": 5.22, 
			 "SMD_solvation_energy": 0.37 
		},
		"coords": [
			{
				"x": -0.5659601873,
				"y": 0.1452802121,
				"z": -0.4349114935,
				"element": "C" 
			},
			{
				"x": 0.8953467476,
				"y": 0.1117378547,
				"z": -0.7972562067,
				"element": "C" 
			},
			{
				"x": 1.3674261737,
				"y": -0.4891925714,
				"z": -1.9688936828,
				"element": "C" 
			},
			{
				"x": 2.6633801491,
				"y": -0.5477505493,
				"z": -2.293631414,
				"element": "N" 
			},
			{
				"x": 3.508340907,
				"y": 0.0132756102,
				"z": -1.4227026004,
				"element": "C" 
			},
			{
				"x": 3.1900587301,
				"y": 0.6263531673,
				"z": -0.2781249076,
				"element": "N" 
			},
			{
				"x": 1.8866041295,
				"y": 0.668191564,
				"z": 0.0179003069,
				"element": "C" 
			},
			{
				"x": -0.8489677596,
				"y": -0.7364867552,
				"z": 0.1525665631,
				"element": "H" 
			},
			{
				"x": -1.1970634603,
				"y": 0.1585791018,
				"z": -1.3284379904,
				"element": "H" 
			},
			{
				"x": -0.8068722676,
				"y": 1.0281006944,
				"z": 0.1646320198,
				"element": "H" 
			},
			{
				"x": 0.6699533187,
				"y": -0.9381251551,
				"z": -2.6766701551,
				"element": "H" 
			},
			{
				"x": 4.5663912199,
				"y": -0.0307420395,
				"z": -1.6735456754,
				"element": "H" 
			},
			{
				"x": 1.6166622992,
				"y": 1.1723788661,
				"z": 0.9462752359,
				"element": "H" 
			}
		],
		 "valence_orbital": [ 
			{
				"type": "occ",
				"energy": -0.40227,
				"method": "rhf"
			},
			{
				"type": "occ",
				"energy": -0.31472,
				"method": "rhf"
			},
			{
				"type": "occ",
				"energy": -0.29933,
				"method": "rhf"
			},
			{
				"type": "occ",
				"energy": -0.27369,
				"method": "rhf"
			},
			{
				"type": "occ",
				"energy": -0.24898,
				"method": "rhf"
			},
			{
				"type": "unocc",
				"energy": -0.0391,
				"method": "rhf"
			},
			{
				"type": "unocc",
				"energy": -0.02491,
				"method": "rhf"
			},
			{
				"type": "unocc",
				"energy": 0.09562,
				"method": "rhf"
			},
			{
				"type": "unocc",
				"energy": 0.11585,
				"method": "rhf"
			},
			{
				"type": "unocc",
				"energy": 0.13052,
				"method": "rhf"
			}
		],
		"cosmo_sigma_profile": { 
			"-0.025": 0.0,
			"-0.024": 0.0,
			"-0.023": 0.0,
			"-0.022": 0.0,
			"-0.021": 0.0,
			"-0.02": 0.0,
			"-0.019": 0.0,
			"-0.018": 0.0,
			"-0.017": 0.0,
			"-0.016": 0.0,
			"-0.015": 0.0,
			"-0.014": 0.0,
			"-0.013": 0.0,
			"-0.012": 0.0,
			"-0.011": 0.0,
			"-0.01": 0.0,
			"-0.009": 0.0,
			"-0.008": 0.258302970941,
			"-0.007": 5.69233900413,
			"-0.006": 8.21127911964,
			"-0.005": 11.6297259993,
			"-0.004": 11.2437572561,
			"-0.003": 11.0263265283,
			"-0.002": 12.5316573457,
			"-0.001": 17.195997608,
			"0.0": 16.0191136679,
			"0.001": 6.57979313981,
			"0.002": 3.5206121203,
			"0.003": 4.0933827195,
			"0.004": 3.50019782523,
			"0.005": 2.00087073063,
			"0.006": 2.57906087041,
			"0.007": 2.41433917863,
			"0.008": 2.24105602061,
			"0.009": 2.26375984744,
			"0.01": 1.96093700951,
			"0.011": 2.0276638927,
			"0.012": 2.021009702,
			"0.013": 1.17671420998,
			"0.014": 2.06315819351,
			"0.015": 1.73831943279,
			"0.016": 0.691651118847,
			"0.017": 0.0,
			"0.018": 0.0,
			"0.019": 0.0,
			"0.02": 0.0,
			"0.021": 0.0,
			"0.022": 0.0,
			"0.023": 0.0,
			"0.024": 0.0,
			"0.025": 0.0
		}
	}
}
