{
	 "smiles": "CCCCCCCC1CCCC1", 
	 "Tm": 220.15, 
	 "num_atms": 36, 
	 "gaussian": { 
		 "optdone": 1, 
		 "sigma_profile": "yes", 
		 "theory": "DFT", 
		 "functional": "B3LYP", 
		 "basiset": "6-31G**", 
		 "properties": { 
			 "R2extent": 3234.726, 
			 "electric_dipole_moment_norm": 0.0689488215998, 
			 "electric_quadrupole_moment_norm": 0.917270734298, 
			 "total_energy": -471.764807541, 
			 "HOMO_LUMO_gap": 0.35495, 
			 "cosmo_polarized_energy": -0.82, 
			 "cosmo_cavitation_energy": 33.72, 
			 "cosmo_dispersion_energy": -23.39, 
			 "cosmo_repulsion_energy": 1.89, 
			 "cosmo_total_nonelectrostatic_energy": 12.22, 
			 "SMD_solvation_energy": 4.33 
		},
		"coords": [
			{
				"x": 1.4649899958,
				"y": -3.5443031942,
				"z": -0.6932763647,
				"element": "C" 
			},
			{
				"x": 0.6257887489,
				"y": -3.724792145,
				"z": 0.5774439731,
				"element": "C" 
			},
			{
				"x": 1.2651387757,
				"y": -3.1164101342,
				"z": 1.8407230859,
				"element": "C" 
			},
			{
				"x": 1.3272498805,
				"y": -1.5720683054,
				"z": 1.9033650188,
				"element": "C" 
			},
			{
				"x": 0.1513104841,
				"y": -0.8902074485,
				"z": 2.6303024651,
				"element": "C" 
			},
			{
				"x": -1.2435204209,
				"y": -1.0327797136,
				"z": 1.9957442073,
				"element": "C" 
			},
			{
				"x": -1.4596149387,
				"y": -0.3977616812,
				"z": 0.6076848642,
				"element": "C" 
			},
			{
				"x": -1.3931461065,
				"y": 1.1484696247,
				"z": 0.5678113299,
				"element": "C" 
			},
			{
				"x": -2.2203029228,
				"y": 1.7446135307,
				"z": -0.593538044,
				"element": "C" 
			},
			{
				"x": -1.3173391202,
				"y": 1.5972313822,
				"z": -1.8376368639,
				"element": "C" 
			},
			{
				"x": 0.1401162669,
				"y": 1.6670326964,
				"z": -1.2944267287,
				"element": "C" 
			},
			{
				"x": 0.0142720153,
				"y": 1.712199453,
				"z": 0.2523121326,
				"element": "C" 
			},
			{
				"x": 1.6174964253,
				"y": -2.4874876986,
				"z": -0.9378740257,
				"element": "H" 
			},
			{
				"x": 2.4552262788,
				"y": -4.0006569578,
				"z": -0.5785750926,
				"element": "H" 
			},
			{
				"x": 0.9809782228,
				"y": -4.0126000071,
				"z": -1.5568176769,
				"element": "H" 
			},
			{
				"x": 0.474321518,
				"y": -4.7985886756,
				"z": 0.7485702558,
				"element": "H" 
			},
			{
				"x": -0.3730877342,
				"y": -3.3023197194,
				"z": 0.4167563229,
				"element": "H" 
			},
			{
				"x": 0.7314555076,
				"y": -3.4850336213,
				"z": 2.727401164,
				"element": "H" 
			},
			{
				"x": 2.2844828585,
				"y": -3.5174242612,
				"z": 1.922097586,
				"element": "H" 
			},
			{
				"x": 2.2434549953,
				"y": -1.280897027,
				"z": 2.4321853589,
				"element": "H" 
			},
			{
				"x": 1.4353679684,
				"y": -1.1614172813,
				"z": 0.8915884702,
				"element": "H" 
			},
			{
				"x": 0.101093101,
				"y": -1.298628167,
				"z": 3.6493777461,
				"element": "H" 
			},
			{
				"x": 0.3848613394,
				"y": 0.1749185105,
				"z": 2.7527493121,
				"element": "H" 
			},
			{
				"x": -1.9765021912,
				"y": -0.5930537733,
				"z": 2.6866093508,
				"element": "H" 
			},
			{
				"x": -1.5016261407,
				"y": -2.0977442463,
				"z": 1.9358675806,
				"element": "H" 
			},
			{
				"x": -2.4547795023,
				"y": -0.7106960679,
				"z": 0.2645632342,
				"element": "H" 
			},
			{
				"x": -0.752481235,
				"y": -0.8233098253,
				"z": -0.1165780789,
				"element": "H" 
			},
			{
				"x": -1.7597249203,
				"y": 1.5307957325,
				"z": 1.5298663122,
				"element": "H" 
			},
			{
				"x": -3.197923253,
				"y": 1.2652497402,
				"z": -0.7140942565,
				"element": "H" 
			},
			{
				"x": -2.4048816617,
				"y": 2.8077968807,
				"z": -0.393348248,
				"element": "H" 
			},
			{
				"x": -1.4963198377,
				"y": 0.6313708903,
				"z": -2.3225509477,
				"element": "H" 
			},
			{
				"x": -1.5225188584,
				"y": 2.3668048508,
				"z": -2.5882740506,
				"element": "H" 
			},
			{
				"x": 0.6776958341,
				"y": 2.5424972779,
				"z": -1.6719365612,
				"element": "H" 
			},
			{
				"x": 0.7133088806,
				"y": 0.7911799626,
				"z": -1.6162213547,
				"element": "H" 
			},
			{
				"x": 0.8224868422,
				"y": 1.1714891723,
				"z": 0.7512693467,
				"element": "H" 
			},
			{
				"x": 0.0668729038,
				"y": 2.7517302465,
				"z": 0.5981591766,
				"element": "H" 
			}
		],
		 "valence_orbital": [ 
			{
				"type": "occ",
				"energy": -0.30856,
				"method": "rhf"
			},
			{
				"type": "occ",
				"energy": -0.30522,
				"method": "rhf"
			},
			{
				"type": "occ",
				"energy": -0.30123,
				"method": "rhf"
			},
			{
				"type": "occ",
				"energy": -0.29533,
				"method": "rhf"
			},
			{
				"type": "occ",
				"energy": -0.29141,
				"method": "rhf"
			},
			{
				"type": "unocc",
				"energy": 0.06354,
				"method": "rhf"
			},
			{
				"type": "unocc",
				"energy": 0.08958,
				"method": "rhf"
			},
			{
				"type": "unocc",
				"energy": 0.09278,
				"method": "rhf"
			},
			{
				"type": "unocc",
				"energy": 0.10688,
				"method": "rhf"
			},
			{
				"type": "unocc",
				"energy": 0.11273,
				"method": "rhf"
			}
		],
		"cosmo_sigma_profile": { 
			"-0.025": 0.0,
			"-0.024": 0.0,
			"-0.023": 0.0,
			"-0.022": 0.0,
			"-0.021": 0.0,
			"-0.02": 0.0,
			"-0.019": 0.0,
			"-0.018": 0.0,
			"-0.017": 0.0,
			"-0.016": 0.0,
			"-0.015": 0.0,
			"-0.014": 0.0,
			"-0.013": 0.0,
			"-0.012": 0.0,
			"-0.011": 0.0,
			"-0.01": 0.0,
			"-0.009": 0.0,
			"-0.008": 0.0,
			"-0.007": 0.0,
			"-0.006": 0.0,
			"-0.005": 0.0,
			"-0.004": 0.0,
			"-0.003": 1.93594708064,
			"-0.002": 29.7145403974,
			"-0.001": 65.0237003861,
			"0.0": 68.374222938,
			"0.001": 56.8947451177,
			"0.002": 33.8507720097,
			"0.003": 1.81448763037,
			"0.004": 0.0,
			"0.005": 0.0,
			"0.006": 0.0,
			"0.007": 0.0,
			"0.008": 0.0,
			"0.009": 0.0,
			"0.01": 0.0,
			"0.011": 0.0,
			"0.012": 0.0,
			"0.013": 0.0,
			"0.014": 0.0,
			"0.015": 0.0,
			"0.016": 0.0,
			"0.017": 0.0,
			"0.018": 0.0,
			"0.019": 0.0,
			"0.02": 0.0,
			"0.021": 0.0,
			"0.022": 0.0,
			"0.023": 0.0,
			"0.024": 0.0,
			"0.025": 0.0
		}
	}
}
