{
	 "smiles": "CC1=CC=C(C#N)C(=C1)C(F)(F)F", 
	 "Tm": 298.15, 
	 "num_atms": 19, 
	 "gaussian": { 
		 "optdone": 1, 
		 "sigma_profile": "yes", 
		 "theory": "DFT", 
		 "functional": "B3LYP", 
		 "basiset": "6-31G**", 
		 "properties": { 
			 "R2extent": 2586.9539, 
			 "electric_dipole_moment_norm": 6.29329496369, 
			 "electric_quadrupole_moment_norm": 6.17757917392, 
			 "total_energy": -700.840331475, 
			 "HOMO_LUMO_gap": 0.20412, 
			 "cosmo_polarized_energy": -9.66, 
			 "cosmo_cavitation_energy": 25.59, 
			 "cosmo_dispersion_energy": -17.59, 
			 "cosmo_repulsion_energy": 1.34, 
			 "cosmo_total_nonelectrostatic_energy": 9.34, 
			 "SMD_solvation_energy": 6.76 
		},
		"coords": [
			{
				"x": -2.8361135586,
				"y": 1.9607892336,
				"z": -1.7289553898,
				"element": "C" 
			},
			{
				"x": -1.5951330947,
				"y": 1.3339728611,
				"z": -1.1435325227,
				"element": "C" 
			},
			{
				"x": -0.7459444348,
				"y": 2.0546795563,
				"z": -0.2969801706,
				"element": "C" 
			},
			{
				"x": 0.4106251958,
				"y": 1.4779583046,
				"z": 0.221211342,
				"element": "C" 
			},
			{
				"x": 0.7478228568,
				"y": 0.1543819864,
				"z": -0.095682917,
				"element": "C" 
			},
			{
				"x": 1.94620772,
				"y": -0.4031072873,
				"z": 0.4611534098,
				"element": "C" 
			},
			{
				"x": 2.9269952266,
				"y": -0.8066622641,
				"z": 0.9376905723,
				"element": "N" 
			},
			{
				"x": -0.102836651,
				"y": -0.583671585,
				"z": -0.9463903672,
				"element": "C" 
			},
			{
				"x": -1.2535001034,
				"y": 0.0091011597,
				"z": -1.4542471124,
				"element": "C" 
			},
			{
				"x": 0.2304380143,
				"y": -2.0143956855,
				"z": -1.3022315002,
				"element": "C" 
			},
			{
				"x": 0.2939273839,
				"y": -2.7921821532,
				"z": -0.2023837749,
				"element": "F" 
			},
			{
				"x": -0.694736988,
				"y": -2.5527974033,
				"z": -2.1252530976,
				"element": "F" 
			},
			{
				"x": 1.4235636876,
				"y": -2.1002663757,
				"z": -1.9248314914,
				"element": "F" 
			},
			{
				"x": -3.1386590706,
				"y": 2.8486804078,
				"z": -1.1678380814,
				"element": "H" 
			},
			{
				"x": -3.6738822353,
				"y": 1.2569120968,
				"z": -1.7340505539,
				"element": "H" 
			},
			{
				"x": -2.6648639103,
				"y": 2.2681561737,
				"z": -2.7677933797,
				"element": "H" 
			},
			{
				"x": -0.9908584761,
				"y": 3.0805306723,
				"z": -0.0368041771,
				"element": "H" 
			},
			{
				"x": 1.0615013979,
				"y": 2.0452300728,
				"z": 0.8777163687,
				"element": "H" 
			},
			{
				"x": -1.8973529599,
				"y": -0.5733097708,
				"z": -2.1038971569,
				"element": "H" 
			}
		],
		 "valence_orbital": [ 
			{
				"type": "occ",
				"energy": -0.36101,
				"method": "rhf"
			},
			{
				"type": "occ",
				"energy": -0.34846,
				"method": "rhf"
			},
			{
				"type": "occ",
				"energy": -0.33366,
				"method": "rhf"
			},
			{
				"type": "occ",
				"energy": -0.29012,
				"method": "rhf"
			},
			{
				"type": "occ",
				"energy": -0.26976,
				"method": "rhf"
			},
			{
				"type": "unocc",
				"energy": -0.06564,
				"method": "rhf"
			},
			{
				"type": "unocc",
				"energy": -0.04198,
				"method": "rhf"
			},
			{
				"type": "unocc",
				"energy": 0.03078,
				"method": "rhf"
			},
			{
				"type": "unocc",
				"energy": 0.0632,
				"method": "rhf"
			},
			{
				"type": "unocc",
				"energy": 0.07695,
				"method": "rhf"
			}
		],
		"cosmo_sigma_profile": { 
			"-0.025": 0.0,
			"-0.024": 0.0,
			"-0.023": 0.0,
			"-0.022": 0.0,
			"-0.021": 0.0,
			"-0.02": 0.0,
			"-0.019": 0.0,
			"-0.018": 0.0,
			"-0.017": 0.0,
			"-0.016": 0.0,
			"-0.015": 0.0,
			"-0.014": 0.0,
			"-0.013": 0.0,
			"-0.012": 0.0,
			"-0.011": 0.0,
			"-0.01": 0.0,
			"-0.009": 0.377617156428,
			"-0.008": 3.14420160725,
			"-0.007": 6.98063241657,
			"-0.006": 8.61755797684,
			"-0.005": 11.9113227791,
			"-0.004": 12.4522838358,
			"-0.003": 14.9109114194,
			"-0.002": 17.4538710507,
			"-0.001": 21.4280674824,
			"0.0": 19.1023686088,
			"0.001": 18.5582590354,
			"0.002": 28.7723867825,
			"0.003": 15.6347785279,
			"0.004": 3.41087789924,
			"0.005": 3.2927760313,
			"0.006": 2.56552498745,
			"0.007": 2.42139467872,
			"0.008": 3.67985157654,
			"0.009": 2.84875390115,
			"0.01": 3.08257035494,
			"0.011": 2.62172702338,
			"0.012": 2.18547862752,
			"0.013": 0.770522699737,
			"0.014": 0.0,
			"0.015": 0.0,
			"0.016": 0.0,
			"0.017": 0.0,
			"0.018": 0.0,
			"0.019": 0.0,
			"0.02": 0.0,
			"0.021": 0.0,
			"0.022": 0.0,
			"0.023": 0.0,
			"0.024": 0.0,
			"0.025": 0.0
		}
	}
}
