{
	 "smiles": "ClCC(=O)NNC(=O)C1=CC(=CC=C1)C#N", 
	 "Tm": 473.15, 
	 "num_atms": 24, 
	 "gaussian": { 
		 "optdone": 1, 
		 "sigma_profile": "yes", 
		 "theory": "DFT", 
		 "functional": "B3LYP", 
		 "basiset": "6-31G**", 
		 "properties": { 
			 "R2extent": 5474.1381, 
			 "electric_dipole_moment_norm": 5.65468191502, 
			 "electric_quadrupole_moment_norm": 20.3856628325, 
			 "total_energy": -1160.75164939, 
			 "HOMO_LUMO_gap": 0.20293, 
			 "cosmo_polarized_energy": -22.18, 
			 "cosmo_cavitation_energy": 32.6, 
			 "cosmo_dispersion_energy": -22.39, 
			 "cosmo_repulsion_energy": 1.79, 
			 "cosmo_total_nonelectrostatic_energy": 12.0, 
			 "SMD_solvation_energy": 8.54 
		},
		"coords": [
			{
				"x": -1.7549711034,
				"y": 3.2978671544,
				"z": -1.6915354569,
				"element": "Cl" 
			},
			{
				"x": -3.0208260826,
				"y": 2.7904962905,
				"z": -0.4952037518,
				"element": "C" 
			},
			{
				"x": -3.134432153,
				"y": 1.2949654232,
				"z": -0.1955862938,
				"element": "C" 
			},
			{
				"x": -4.0310899112,
				"y": 0.9210336051,
				"z": 0.5391211446,
				"element": "O" 
			},
			{
				"x": -2.1864869733,
				"y": 0.4796158789,
				"z": -0.7493637238,
				"element": "N" 
			},
			{
				"x": -2.2763085656,
				"y": -0.8955034959,
				"z": -0.6431082163,
				"element": "N" 
			},
			{
				"x": -1.341862443,
				"y": -1.679798945,
				"z": 0.0276698295,
				"element": "C" 
			},
			{
				"x": -1.1613362411,
				"y": -2.8326937009,
				"z": -0.3290599075,
				"element": "O" 
			},
			{
				"x": -0.6290104193,
				"y": -1.082305467,
				"z": 1.2024294549,
				"element": "C" 
			},
			{
				"x": 0.6928587897,
				"y": -1.4815594458,
				"z": 1.4178974418,
				"element": "C" 
			},
			{
				"x": 1.3928417455,
				"y": -1.0058760959,
				"z": 2.5349155877,
				"element": "C" 
			},
			{
				"x": 0.7546153652,
				"y": -0.1547920039,
				"z": 3.4547110809,
				"element": "C" 
			},
			{
				"x": -0.5734657439,
				"y": 0.2097630164,
				"z": 3.2504629354,
				"element": "C" 
			},
			{
				"x": -1.267574137,
				"y": -0.2440438785,
				"z": 2.1274859778,
				"element": "C" 
			},
			{
				"x": 2.7589378963,
				"y": -1.3920265709,
				"z": 2.7447597797,
				"element": "C" 
			},
			{
				"x": 3.8678019823,
				"y": -1.6973824414,
				"z": 2.9173736563,
				"element": "N" 
			},
			{
				"x": -2.8083777418,
				"y": 3.3111880631,
				"z": 0.4393295583,
				"element": "H" 
			},
			{
				"x": -3.9842392577,
				"y": 3.129592279,
				"z": -0.8756636515,
				"element": "H" 
			},
			{
				"x": -1.5002733201,
				"y": 0.8700120453,
				"z": -1.3847456797,
				"element": "H" 
			},
			{
				"x": -2.7194925692,
				"y": -1.3739946303,
				"z": -1.4209370682,
				"element": "H" 
			},
			{
				"x": 1.1664081346,
				"y": -2.1630365104,
				"z": 0.7201042241,
				"element": "H" 
			},
			{
				"x": 1.3009534747,
				"y": 0.202070382,
				"z": 4.3213507481,
				"element": "H" 
			},
			{
				"x": -1.0738499399,
				"y": 0.846864055,
				"z": 3.9729411102,
				"element": "H" 
			},
			{
				"x": -2.3100207861,
				"y": 0.0229449929,
				"z": 1.9857512202,
				"element": "H" 
			}
		],
		 "valence_orbital": [ 
			{
				"type": "occ",
				"energy": -0.29736,
				"method": "rhf"
			},
			{
				"type": "occ",
				"energy": -0.2944,
				"method": "rhf"
			},
			{
				"type": "occ",
				"energy": -0.28722,
				"method": "rhf"
			},
			{
				"type": "occ",
				"energy": -0.27543,
				"method": "rhf"
			},
			{
				"type": "occ",
				"energy": -0.27091,
				"method": "rhf"
			},
			{
				"type": "unocc",
				"energy": -0.06798,
				"method": "rhf"
			},
			{
				"type": "unocc",
				"energy": -0.05182,
				"method": "rhf"
			},
			{
				"type": "unocc",
				"energy": -0.01672,
				"method": "rhf"
			},
			{
				"type": "unocc",
				"energy": -0.00722,
				"method": "rhf"
			},
			{
				"type": "unocc",
				"energy": 0.01127,
				"method": "rhf"
			}
		],
		"cosmo_sigma_profile": { 
			"-0.025": 0.0,
			"-0.024": 0.0,
			"-0.023": 0.0,
			"-0.022": 0.0,
			"-0.021": 0.0,
			"-0.02": 0.0,
			"-0.019": 0.0,
			"-0.018": 0.0,
			"-0.017": 0.0,
			"-0.016": 0.130813653216,
			"-0.015": 1.54107438879,
			"-0.014": 2.5261565747,
			"-0.013": 1.86012121528,
			"-0.012": 1.43104265052,
			"-0.011": 2.61514027563,
			"-0.01": 3.71446354291,
			"-0.009": 7.18424691019,
			"-0.008": 10.3713256026,
			"-0.007": 13.1426957623,
			"-0.006": 13.7767279088,
			"-0.005": 15.0346347211,
			"-0.004": 12.8175506964,
			"-0.003": 12.3651593671,
			"-0.002": 15.5951795609,
			"-0.001": 15.5127275268,
			"0.0": 18.9210337359,
			"0.001": 19.6332611373,
			"0.002": 12.5327523206,
			"0.003": 8.08808756317,
			"0.004": 9.1826952142,
			"0.005": 12.2244984243,
			"0.006": 6.129913997,
			"0.007": 5.02119022733,
			"0.008": 6.0155072616,
			"0.009": 6.48186396382,
			"0.01": 6.33049999586,
			"0.011": 8.79085869556,
			"0.012": 11.7219879825,
			"0.013": 3.94363611768,
			"0.014": 0.0,
			"0.015": 0.0,
			"0.016": 0.0,
			"0.017": 0.0,
			"0.018": 0.0,
			"0.019": 0.0,
			"0.02": 0.0,
			"0.021": 0.0,
			"0.022": 0.0,
			"0.023": 0.0,
			"0.024": 0.0,
			"0.025": 0.0
		}
	}
}
