{
	 "smiles": "[O-][N+](=O)C1=CC(=CC(F)=C1)S(=O)(=O)C=C", 
	 "Tm": 364.15, 
	 "num_atms": 21, 
	 "gaussian": { 
		 "optdone": 1, 
		 "sigma_profile": "yes", 
		 "theory": "DFT", 
		 "functional": "B3LYP", 
		 "basiset": "6-31G**", 
		 "properties": { 
			 "R2extent": 4162.2439, 
			 "electric_dipole_moment_norm": 4.08158552893, 
			 "electric_quadrupole_moment_norm": 17.8465681858, 
			 "total_energy": -1161.92980477, 
			 "HOMO_LUMO_gap": 0.18033, 
			 "cosmo_polarized_energy": -15.75, 
			 "cosmo_cavitation_energy": 29.28, 
			 "cosmo_dispersion_energy": -20.9, 
			 "cosmo_repulsion_energy": 1.56, 
			 "cosmo_total_nonelectrostatic_energy": 9.94, 
			 "SMD_solvation_energy": 8.23 
		},
		"coords": [
			{
				"x": -3.4027690733,
				"y": -1.8533142927,
				"z": -0.5353157472,
				"element": "O" 
			},
			{
				"x": -3.2164227123,
				"y": -1.2901095455,
				"z": -1.6105387907,
				"element": "N" 
			},
			{
				"x": -3.9496635275,
				"y": -1.3728033905,
				"z": -2.5928475003,
				"element": "O" 
			},
			{
				"x": -2.0087149491,
				"y": -0.447843244,
				"z": -1.7345401832,
				"element": "C" 
			},
			{
				"x": -1.164766606,
				"y": -0.3211364683,
				"z": -0.6361803991,
				"element": "C" 
			},
			{
				"x": -0.0317416109,
				"y": 0.4767994972,
				"z": -0.7883334446,
				"element": "C" 
			},
			{
				"x": 0.2528062507,
				"y": 1.1409181694,
				"z": -1.9812905119,
				"element": "C" 
			},
			{
				"x": -0.6306230832,
				"y": 0.9805359938,
				"z": -3.0458485403,
				"element": "C" 
			},
			{
				"x": -0.3765237774,
				"y": 1.6123076363,
				"z": -4.2011791352,
				"element": "F" 
			},
			{
				"x": -1.7681090096,
				"y": 0.1890918366,
				"z": -2.9501756166,
				"element": "C" 
			},
			{
				"x": 1.0978885591,
				"y": 0.6841280154,
				"z": 0.6099311165,
				"element": "S" 
			},
			{
				"x": 1.9263205271,
				"y": 1.8616431666,
				"z": 0.3134959211,
				"element": "O" 
			},
			{
				"x": 0.2978229895,
				"y": 0.5812717541,
				"z": 1.8378089219,
				"element": "O" 
			},
			{
				"x": 2.1519318496,
				"y": -0.7571701594,
				"z": 0.50121214,
				"element": "C" 
			},
			{
				"x": 2.1403647618,
				"y": -1.6688231247,
				"z": 1.4684292574,
				"element": "C" 
			},
			{
				"x": -1.3984197244,
				"y": -0.8127009079,
				"z": 0.2994094565,
				"element": "H" 
			},
			{
				"x": 1.1227904569,
				"y": 1.781591833,
				"z": -2.0706667554,
				"element": "H" 
			},
			{
				"x": -2.4487530916,
				"y": 0.0723227293,
				"z": -3.783314041,
				"element": "H" 
			},
			{
				"x": 2.8071430075,
				"y": -0.7687439519,
				"z": -0.3644754503,
				"element": "H" 
			},
			{
				"x": 2.8122322251,
				"y": -2.5213278809,
				"z": 1.4397227107,
				"element": "H" 
			},
			{
				"x": 1.465406538,
				"y": -1.574437666,
				"z": 2.3137965916,
				"element": "H" 
			}
		],
		 "valence_orbital": [ 
			{
				"type": "occ",
				"energy": -0.31913,
				"method": "rhf"
			},
			{
				"type": "occ",
				"energy": -0.31314,
				"method": "rhf"
			},
			{
				"type": "occ",
				"energy": -0.31075,
				"method": "rhf"
			},
			{
				"type": "occ",
				"energy": -0.30244,
				"method": "rhf"
			},
			{
				"type": "occ",
				"energy": -0.29184,
				"method": "rhf"
			},
			{
				"type": "unocc",
				"energy": -0.11151,
				"method": "rhf"
			},
			{
				"type": "unocc",
				"energy": -0.07456,
				"method": "rhf"
			},
			{
				"type": "unocc",
				"energy": -0.03865,
				"method": "rhf"
			},
			{
				"type": "unocc",
				"energy": -0.02152,
				"method": "rhf"
			},
			{
				"type": "unocc",
				"energy": 0.03813,
				"method": "rhf"
			}
		],
		"cosmo_sigma_profile": { 
			"-0.025": 0.0,
			"-0.024": 0.0,
			"-0.023": 0.0,
			"-0.022": 0.0,
			"-0.021": 0.0,
			"-0.02": 0.0,
			"-0.019": 0.0,
			"-0.018": 0.0,
			"-0.017": 0.0,
			"-0.016": 0.0,
			"-0.015": 0.0,
			"-0.014": 0.0,
			"-0.013": 0.0,
			"-0.012": 0.0,
			"-0.011": 0.0488296327514,
			"-0.01": 2.89344420278,
			"-0.009": 6.33336312234,
			"-0.008": 8.36079485381,
			"-0.007": 10.0379933777,
			"-0.006": 10.7845117339,
			"-0.005": 13.602089818,
			"-0.004": 15.3958271492,
			"-0.003": 26.3137446627,
			"-0.002": 23.1829732646,
			"-0.001": 11.9367592781,
			"0.0": 10.669441884,
			"0.001": 10.7919104435,
			"0.002": 9.96126430625,
			"0.003": 12.8630130923,
			"0.004": 6.10414951385,
			"0.005": 6.09964752015,
			"0.006": 8.72839115574,
			"0.007": 10.9611699672,
			"0.008": 7.61232612045,
			"0.009": 7.49400956448,
			"0.01": 7.57875176392,
			"0.011": 7.54330729184,
			"0.012": 1.14537232331,
			"0.013": 0.0,
			"0.014": 0.0,
			"0.015": 0.0,
			"0.016": 0.0,
			"0.017": 0.0,
			"0.018": 0.0,
			"0.019": 0.0,
			"0.02": 0.0,
			"0.021": 0.0,
			"0.022": 0.0,
			"0.023": 0.0,
			"0.024": 0.0,
			"0.025": 0.0
		}
	}
}
