{
	 "smiles": "BrC1=CC=C(C=C1)C1=NN=C(O1)C1=CC=CC=C1", 
	 "Tm": 442.65, 
	 "num_atms": 27, 
	 "gaussian": { 
		 "optdone": 1, 
		 "sigma_profile": "yes", 
		 "theory": "DFT", 
		 "functional": "B3LYP", 
		 "basiset": "6-31G**", 
		 "properties": { 
			 "R2extent": 10527.6263, 
			 "electric_dipole_moment_norm": 3.33885739438, 
			 "electric_quadrupole_moment_norm": 12.3862437175, 
			 "total_energy": -3295.02974961, 
			 "HOMO_LUMO_gap": 0.16212, 
			 "cosmo_polarized_energy": -10.66, 
			 "cosmo_cavitation_energy": 35.17, 
			 "cosmo_dispersion_energy": -26.24, 
			 "cosmo_repulsion_energy": 1.98, 
			 "cosmo_total_nonelectrostatic_energy": 10.92, 
			 "SMD_solvation_energy": 3.17 
		},
		"coords": [
			{
				"x": -4.5087509888,
				"y": -0.4160663487,
				"z": 3.8429157288,
				"element": "Br" 
			},
			{
				"x": -3.3323061629,
				"y": -0.0320395945,
				"z": 2.3908415046,
				"element": "C" 
			},
			{
				"x": -2.3629946115,
				"y": -0.9670476714,
				"z": 2.0292699563,
				"element": "C" 
			},
			{
				"x": -1.50573415,
				"y": -0.6842503311,
				"z": 0.9687800536,
				"element": "C" 
			},
			{
				"x": -1.6157570218,
				"y": 0.5281472432,
				"z": 0.2713980775,
				"element": "C" 
			},
			{
				"x": -2.5987845575,
				"y": 1.4574759847,
				"z": 0.6508306904,
				"element": "C" 
			},
			{
				"x": -3.4571279207,
				"y": 1.1800803366,
				"z": 1.7088172205,
				"element": "C" 
			},
			{
				"x": -0.7310061683,
				"y": 0.8456821891,
				"z": -0.8405813716,
				"element": "C" 
			},
			{
				"x": -0.7110219981,
				"y": 1.9194409304,
				"z": -1.577777822,
				"element": "N" 
			},
			{
				"x": 0.3073577262,
				"y": 1.7508241759,
				"z": -2.5014078269,
				"element": "N" 
			},
			{
				"x": 0.8408171873,
				"y": 0.5852302996,
				"z": -2.2659724564,
				"element": "C" 
			},
			{
				"x": 0.2292577987,
				"y": -0.049749235,
				"z": -1.2199657822,
				"element": "O" 
			},
			{
				"x": 1.9466708632,
				"y": -0.0635912076,
				"z": -2.9581279186,
				"element": "C" 
			},
			{
				"x": 2.400725219,
				"y": -1.3343267755,
				"z": -2.5721429473,
				"element": "C" 
			},
			{
				"x": 3.4605221033,
				"y": -1.9299186925,
				"z": -3.2530477528,
				"element": "C" 
			},
			{
				"x": 4.0728262152,
				"y": -1.266815669,
				"z": -4.3185981629,
				"element": "C" 
			},
			{
				"x": 3.6215971563,
				"y": -0.0008667748,
				"z": -4.7042882182,
				"element": "C" 
			},
			{
				"x": 2.5641379926,
				"y": 0.6021497466,
				"z": -4.0307105164,
				"element": "C" 
			},
			{
				"x": -2.2798887133,
				"y": -1.9029875472,
				"z": 2.5693856029,
				"element": "H" 
			},
			{
				"x": -0.7492320932,
				"y": -1.4064230739,
				"z": 0.6814669338,
				"element": "H" 
			},
			{
				"x": -2.6788597467,
				"y": 2.3929931326,
				"z": 0.1078304297,
				"element": "H" 
			},
			{
				"x": -4.2162667746,
				"y": 1.8953765434,
				"z": 2.003327461,
				"element": "H" 
			},
			{
				"x": 1.9237376567,
				"y": -1.8477942427,
				"z": -1.7441689342,
				"element": "H" 
			},
			{
				"x": 3.8084726083,
				"y": -2.9131967366,
				"z": -2.9509141776,
				"element": "H" 
			},
			{
				"x": 4.8985676148,
				"y": -1.7341045266,
				"z": -4.8469823043,
				"element": "H" 
			},
			{
				"x": 4.0959023712,
				"y": 0.5169991193,
				"z": -5.5325275204,
				"element": "H" 
			},
			{
				"x": 2.2031383946,
				"y": 1.5836787259,
				"z": -4.3184499473,
				"element": "H" 
			}
		],
		 "valence_orbital": [ 
			{
				"type": "occ",
				"energy": -0.27823,
				"method": "rhf"
			},
			{
				"type": "occ",
				"energy": -0.27632,
				"method": "rhf"
			},
			{
				"type": "occ",
				"energy": -0.26593,
				"method": "rhf"
			},
			{
				"type": "occ",
				"energy": -0.26424,
				"method": "rhf"
			},
			{
				"type": "occ",
				"energy": -0.2292,
				"method": "rhf"
			},
			{
				"type": "unocc",
				"energy": -0.06708,
				"method": "rhf"
			},
			{
				"type": "unocc",
				"energy": -0.03808,
				"method": "rhf"
			},
			{
				"type": "unocc",
				"energy": -0.02458,
				"method": "rhf"
			},
			{
				"type": "unocc",
				"energy": -0.01458,
				"method": "rhf"
			},
			{
				"type": "unocc",
				"energy": -0.00035,
				"method": "rhf"
			}
		],
		"cosmo_sigma_profile": { 
			"-0.025": 0.0,
			"-0.024": 0.0,
			"-0.023": 0.0,
			"-0.022": 0.0,
			"-0.021": 0.0,
			"-0.02": 0.0,
			"-0.019": 0.0,
			"-0.018": 0.0,
			"-0.017": 0.0,
			"-0.016": 0.0,
			"-0.015": 0.0,
			"-0.014": 0.0,
			"-0.013": 0.0,
			"-0.012": 0.0,
			"-0.011": 0.0,
			"-0.01": 0.0,
			"-0.009": 0.0,
			"-0.008": 2.07472690006,
			"-0.007": 8.8115009933,
			"-0.006": 17.9634444896,
			"-0.005": 18.7877051402,
			"-0.004": 18.8847158932,
			"-0.003": 19.3535527368,
			"-0.002": 21.208342401,
			"-0.001": 23.4859121267,
			"0.0": 24.7295457718,
			"0.001": 31.7477501614,
			"0.002": 31.3709139534,
			"0.003": 22.1384878932,
			"0.004": 22.6142345146,
			"0.005": 4.41258898555,
			"0.006": 2.16396168376,
			"0.007": 2.00509638408,
			"0.008": 1.50534544065,
			"0.009": 2.55391531585,
			"0.01": 2.40858871,
			"0.011": 2.99524468696,
			"0.012": 3.11205884479,
			"0.013": 2.24041094453,
			"0.014": 1.40520385095,
			"0.015": 0.0140825195092,
			"0.016": 0.0,
			"0.017": 0.0,
			"0.018": 0.0,
			"0.019": 0.0,
			"0.02": 0.0,
			"0.021": 0.0,
			"0.022": 0.0,
			"0.023": 0.0,
			"0.024": 0.0,
			"0.025": 0.0
		}
	}
}
