{
	 "smiles": "CC(=O)C1=CC=C(NS(=O)(=O)C2=CC=C(Cl)C=C2)C=C1", 
	 "Tm": 406.15, 
	 "num_atms": 32, 
	 "gaussian": { 
		 "optdone": 1, 
		 "sigma_profile": "yes", 
		 "theory": "DFT", 
		 "functional": "B3LYP", 
		 "basiset": "6-31G**", 
		 "properties": { 
			 "R2extent": 11764.0306, 
			 "electric_dipole_moment_norm": 3.8510385768, 
			 "electric_quadrupole_moment_norm": 25.2469706104, 
			 "total_energy": -1679.45711213, 
			 "HOMO_LUMO_gap": 0.17695, 
			 "cosmo_polarized_energy": -19.63, 
			 "cosmo_cavitation_energy": 40.45, 
			 "cosmo_dispersion_energy": -29.31, 
			 "cosmo_repulsion_energy": 2.19, 
			 "cosmo_total_nonelectrostatic_energy": 13.33, 
			 "SMD_solvation_energy": 6.48 
		},
		"coords": [
			{
				"x": 3.75393577,
				"y": -1.4714962901,
				"z": -4.893267008,
				"element": "C" 
			},
			{
				"x": 3.0137242458,
				"y": -0.14515687,
				"z": -4.8443124156,
				"element": "C" 
			},
			{
				"x": 2.9951683865,
				"y": 0.5925426042,
				"z": -5.819210634,
				"element": "O" 
			},
			{
				"x": 2.3073425229,
				"y": 0.2415682623,
				"z": -3.5828933279,
				"element": "C" 
			},
			{
				"x": 2.3086386211,
				"y": -0.5518126888,
				"z": -2.4257869779,
				"element": "C" 
			},
			{
				"x": 1.6478730169,
				"y": -0.1474246423,
				"z": -1.2695593277,
				"element": "C" 
			},
			{
				"x": 0.9450743084,
				"y": 1.0660050669,
				"z": -1.264852679,
				"element": "C" 
			},
			{
				"x": 0.3078670471,
				"y": 1.5517375693,
				"z": -0.0858407626,
				"element": "N" 
			},
			{
				"x": -0.8520085944,
				"y": 0.5928914256,
				"z": 0.7505601441,
				"element": "S" 
			},
			{
				"x": -0.2002098615,
				"y": -0.6788633855,
				"z": 1.0640218998,
				"element": "O" 
			},
			{
				"x": -2.1466525014,
				"y": 0.6190852525,
				"z": 0.062178837,
				"element": "O" 
			},
			{
				"x": -1.0014513945,
				"y": 1.5778787605,
				"z": 2.2390826423,
				"element": "C" 
			},
			{
				"x": 0.0641655756,
				"y": 1.6224419171,
				"z": 3.1421931763,
				"element": "C" 
			},
			{
				"x": -0.0648745318,
				"y": 2.365745497,
				"z": 4.3116205645,
				"element": "C" 
			},
			{
				"x": -1.2617670434,
				"y": 3.0448059381,
				"z": 4.5593595905,
				"element": "C" 
			},
			{
				"x": -1.4229885007,
				"y": 3.9798905132,
				"z": 6.0307316762,
				"element": "Cl" 
			},
			{
				"x": -2.3304820844,
				"y": 2.9919096264,
				"z": 3.6638636272,
				"element": "C" 
			},
			{
				"x": -2.198406474,
				"y": 2.2481985367,
				"z": 2.4912571842,
				"element": "C" 
			},
			{
				"x": 0.9280440865,
				"y": 1.8637079063,
				"z": -2.4205644551,
				"element": "C" 
			},
			{
				"x": 1.6103662384,
				"y": 1.4594421832,
				"z": -3.5585727307,
				"element": "C" 
			},
			{
				"x": 3.0741252167,
				"y": -2.3090873557,
				"z": -4.7019341442,
				"element": "H" 
			},
			{
				"x": 4.1996488336,
				"y": -1.5853148645,
				"z": -5.8817222968,
				"element": "H" 
			},
			{
				"x": 4.5421226623,
				"y": -1.5107209666,
				"z": -4.1331359084,
				"element": "H" 
			},
			{
				"x": 2.8415670527,
				"y": -1.4969559439,
				"z": -2.4115274778,
				"element": "H" 
			},
			{
				"x": 1.6668958105,
				"y": -0.7611155513,
				"z": -0.3786027435,
				"element": "H" 
			},
			{
				"x": -0.1006656501,
				"y": 2.4728054758,
				"z": -0.231768762,
				"element": "H" 
			},
			{
				"x": 0.9799706766,
				"y": 1.0804579282,
				"z": 2.9334646911,
				"element": "H" 
			},
			{
				"x": 0.7474032801,
				"y": 2.4178899024,
				"z": 5.0275299342,
				"element": "H" 
			},
			{
				"x": -3.2510357101,
				"y": 3.5207477635,
				"z": 3.8828797015,
				"element": "H" 
			},
			{
				"x": -3.0140979386,
				"y": 2.1787289125,
				"z": 1.7800403644,
				"element": "H" 
			},
			{
				"x": 0.3765424975,
				"y": 2.8008888354,
				"z": -2.4210418083,
				"element": "H" 
			},
			{
				"x": 1.6092644357,
				"y": 2.0680786815,
				"z": -4.4564905738,
				"element": "H" 
			}
		],
		 "valence_orbital": [ 
			{
				"type": "occ",
				"energy": -0.29369,
				"method": "rhf"
			},
			{
				"type": "occ",
				"energy": -0.27738,
				"method": "rhf"
			},
			{
				"type": "occ",
				"energy": -0.26654,
				"method": "rhf"
			},
			{
				"type": "occ",
				"energy": -0.24732,
				"method": "rhf"
			},
			{
				"type": "occ",
				"energy": -0.23962,
				"method": "rhf"
			},
			{
				"type": "unocc",
				"energy": -0.06267,
				"method": "rhf"
			},
			{
				"type": "unocc",
				"energy": -0.05496,
				"method": "rhf"
			},
			{
				"type": "unocc",
				"energy": -0.04268,
				"method": "rhf"
			},
			{
				"type": "unocc",
				"energy": -0.01583,
				"method": "rhf"
			},
			{
				"type": "unocc",
				"energy": 0.00813,
				"method": "rhf"
			}
		],
		"cosmo_sigma_profile": { 
			"-0.025": 0.0,
			"-0.024": 0.0,
			"-0.023": 0.0,
			"-0.022": 0.0,
			"-0.021": 0.0,
			"-0.02": 0.0,
			"-0.019": 0.0,
			"-0.018": 0.0,
			"-0.017": 0.0849741428634,
			"-0.016": 0.868063248415,
			"-0.015": 1.52979680144,
			"-0.014": 1.22822227826,
			"-0.013": 1.50155872464,
			"-0.012": 1.26258202084,
			"-0.011": 1.1830395208,
			"-0.01": 1.17674083411,
			"-0.009": 2.92131684208,
			"-0.008": 8.29150023337,
			"-0.007": 12.4361030701,
			"-0.006": 17.2684949804,
			"-0.005": 19.0019556877,
			"-0.004": 16.6753979634,
			"-0.003": 17.5466565788,
			"-0.002": 20.5400282821,
			"-0.001": 25.978598525,
			"0.0": 29.3671472375,
			"0.001": 31.187359518,
			"0.002": 21.582542545,
			"0.003": 27.3240171109,
			"0.004": 16.5019195455,
			"0.005": 5.73259586357,
			"0.006": 4.60969484383,
			"0.007": 5.95642456584,
			"0.008": 4.38236726187,
			"0.009": 7.39097389704,
			"0.01": 9.48120985893,
			"0.011": 7.70391931042,
			"0.012": 3.84316569972,
			"0.013": 1.98786384564,
			"0.014": 0.286583177922,
			"0.015": 0.0,
			"0.016": 0.0,
			"0.017": 0.0,
			"0.018": 0.0,
			"0.019": 0.0,
			"0.02": 0.0,
			"0.021": 0.0,
			"0.022": 0.0,
			"0.023": 0.0,
			"0.024": 0.0,
			"0.0": 0.0
		}
	}
}
