{
	 "smiles": "CC(C)(C)OC(=O)N1CCC(=O)C(Br)C1", 
	 "Tm": 369.15, 
	 "num_atms": 31, 
	 "gaussian": { 
		 "optdone": 1, 
		 "sigma_profile": "yes", 
		 "theory": "DFT", 
		 "functional": "B3LYP", 
		 "basiset": "6-31G**", 
		 "properties": { 
			 "R2extent": 5866.8115, 
			 "electric_dipole_moment_norm": 3.2271295899, 
			 "electric_quadrupole_moment_norm": 16.265886595, 
			 "total_energy": -3242.56776725, 
			 "HOMO_LUMO_gap": 0.22092, 
			 "cosmo_polarized_energy": -13.8, 
			 "cosmo_cavitation_energy": 34.85, 
			 "cosmo_dispersion_energy": -24.28, 
			 "cosmo_repulsion_energy": 1.92, 
			 "cosmo_total_nonelectrostatic_energy": 12.48, 
			 "SMD_solvation_energy": 5.39 
		},
		"coords": [
			{
				"x": 0.8922930107,
				"y": 3.5319686974,
				"z": 0.0821186124,
				"element": "C" 
			},
			{
				"x": 1.3126505402,
				"y": 2.2652638302,
				"z": -0.6693557632,
				"element": "C" 
			},
			{
				"x": 2.5927623311,
				"y": 1.6457471958,
				"z": -0.1001031544,
				"element": "C" 
			},
			{
				"x": 1.4611892491,
				"y": 2.5436783602,
				"z": -2.1669913853,
				"element": "C" 
			},
			{
				"x": 0.2176361054,
				"y": 1.2748035199,
				"z": -0.6382674663,
				"element": "O" 
			},
			{
				"x": -0.2367528895,
				"y": 0.7772503123,
				"z": 0.531672359,
				"element": "C" 
			},
			{
				"x": 0.2022161426,
				"y": 1.0396332707,
				"z": 1.6409035106,
				"element": "O" 
			},
			{
				"x": -1.3039302831,
				"y": -0.0779512951,
				"z": 0.325053622,
				"element": "N" 
			},
			{
				"x": -1.7971625142,
				"y": -0.8619969792,
				"z": 1.4517035285,
				"element": "C" 
			},
			{
				"x": -1.3145352356,
				"y": -2.3256563911,
				"z": 1.3448393945,
				"element": "C" 
			},
			{
				"x": -1.6191877731,
				"y": -2.9202885819,
				"z": -0.0274796542,
				"element": "C" 
			},
			{
				"x": -2.1601555589,
				"y": -3.9928815525,
				"z": -0.172796613,
				"element": "O" 
			},
			{
				"x": -1.1841845782,
				"y": -2.0117291986,
				"z": -1.1860140117,
				"element": "C" 
			},
			{
				"x": -1.7629007673,
				"y": -2.700791757,
				"z": -2.9297221887,
				"element": "Br" 
			},
			{
				"x": -1.7106131108,
				"y": -0.5712084416,
				"z": -0.9832039969,
				"element": "C" 
			},
			{
				"x": -0.0481648343,
				"y": 3.9195763853,
				"z": -0.3220566231,
				"element": "H" 
			},
			{
				"x": 1.6590886412,
				"y": 4.3027941882,
				"z": -0.0453693325,
				"element": "H" 
			},
			{
				"x": 0.766353677,
				"y": 3.3334769929,
				"z": 1.1465703997,
				"element": "H" 
			},
			{
				"x": 2.8386394095,
				"y": 0.7219564096,
				"z": -0.6336793472,
				"element": "H" 
			},
			{
				"x": 2.4829725304,
				"y": 1.4251161821,
				"z": 0.9617302573,
				"element": "H" 
			},
			{
				"x": 3.4259489812,
				"y": 2.3434359942,
				"z": -0.2319956525,
				"element": "H" 
			},
			{
				"x": 1.7137858313,
				"y": 1.6275770189,
				"z": -2.7088610438,
				"element": "H" 
			},
			{
				"x": 0.5315766062,
				"y": 2.9452058494,
				"z": -2.5806420409,
				"element": "H" 
			},
			{
				"x": 2.2578381089,
				"y": 3.2744262516,
				"z": -2.3340915388,
				"element": "H" 
			},
			{
				"x": -1.4387978938,
				"y": -0.4004754364,
				"z": 2.3707621317,
				"element": "H" 
			},
			{
				"x": -2.8937066509,
				"y": -0.8301168321,
				"z": 1.449076871,
				"element": "H" 
			},
			{
				"x": -1.7811501779,
				"y": -2.9624137304,
				"z": 2.1009177789,
				"element": "H" 
			},
			{
				"x": -0.2279230892,
				"y": -2.3441948035,
				"z": 1.5017947128,
				"element": "H" 
			},
			{
				"x": -0.0911589744,
				"y": -1.9861559873,
				"z": -1.222065895,
				"element": "H" 
			},
			{
				"x": -1.3297908228,
				"y": 0.0831081873,
				"z": -1.7624303279,
				"element": "H" 
			},
			{
				"x": -2.8053360108,
				"y": -0.5794576593,
				"z": -1.0428171429,
				"element": "H" 
			}
		],
		 "valence_orbital": [ 
			{
				"type": "occ",
				"energy": -0.28487,
				"method": "rhf"
			},
			{
				"type": "occ",
				"energy": -0.27934,
				"method": "rhf"
			},
			{
				"type": "occ",
				"energy": -0.27474,
				"method": "rhf"
			},
			{
				"type": "occ",
				"energy": -0.2594,
				"method": "rhf"
			},
			{
				"type": "occ",
				"energy": -0.25536,
				"method": "rhf"
			},
			{
				"type": "unocc",
				"energy": -0.03444,
				"method": "rhf"
			},
			{
				"type": "unocc",
				"energy": -0.00464,
				"method": "rhf"
			},
			{
				"type": "unocc",
				"energy": 0.04105,
				"method": "rhf"
			},
			{
				"type": "unocc",
				"energy": 0.07429,
				"method": "rhf"
			},
			{
				"type": "unocc",
				"energy": 0.09071,
				"method": "rhf"
			}
		],
		"cosmo_sigma_profile": { 
			"-0.025": 0.0,
			"-0.024": 0.0,
			"-0.023": 0.0,
			"-0.022": 0.0,
			"-0.021": 0.0,
			"-0.02": 0.0,
			"-0.019": 0.0,
			"-0.018": 0.0,
			"-0.017": 0.0,
			"-0.016": 0.0,
			"-0.015": 0.0,
			"-0.014": 0.0,
			"-0.013": 0.0,
			"-0.012": 0.0,
			"-0.011": 0.0780160530282,
			"-0.01": 1.96963810858,
			"-0.009": 4.04974357299,
			"-0.008": 4.66021209544,
			"-0.007": 6.41737594462,
			"-0.006": 9.60567361573,
			"-0.005": 13.558462644,
			"-0.004": 25.2973979903,
			"-0.003": 27.418649352,
			"-0.002": 24.1753166877,
			"-0.001": 23.5828728847,
			"0.0": 30.1509350087,
			"0.001": 23.2168176076,
			"0.002": 11.9871171082,
			"0.003": 10.1085746407,
			"0.004": 10.6076841126,
			"0.005": 11.3167739813,
			"0.006": 6.8496940987,
			"0.007": 4.11501702015,
			"0.008": 3.99084187972,
			"0.009": 3.69666638378,
			"0.01": 4.86942127462,
			"0.011": 6.3508742775,
			"0.012": 5.09082926832,
			"0.013": 2.42983453957,
			"0.014": 0.000597638425947,
			"0.015": 0.0,
			"0.016": 0.0,
			"0.017": 0.0,
			"0.018": 0.0,
			"0.019": 0.0,
			"0.02": 0.0,
			"0.021": 0.0,
			"0.022": 0.0,
			"0.023": 0.0,
			"0.024": 0.0,
			"0.025": 0.0
		}
	}
}
