{
	 "smiles": "NC1=CC(=CC=C1)C1=CC(Cl)=C(Cl)C=C1", 
	 "Tm": 371.15, 
	 "num_atms": 24, 
	 "gaussian": { 
		 "optdone": 1, 
		 "sigma_profile": "yes", 
		 "theory": "DFT", 
		 "functional": "B3LYP", 
		 "basiset": "6-31G**", 
		 "properties": { 
			 "R2extent": 7099.1789, 
			 "electric_dipole_moment_norm": 4.23814736884, 
			 "electric_quadrupole_moment_norm": 12.6334354077, 
			 "total_energy": -1437.84690309, 
			 "HOMO_LUMO_gap": 0.16991, 
			 "cosmo_polarized_energy": -10.08, 
			 "cosmo_cavitation_energy": 31.79, 
			 "cosmo_dispersion_energy": -23.55, 
			 "cosmo_repulsion_energy": 1.84, 
			 "cosmo_total_nonelectrostatic_energy": 10.08, 
			 "SMD_solvation_energy": 4.56 
		},
		"coords": [
			{
				"x": 2.5873732591,
				"y": -0.7818875092,
				"z": -1.3545847874,
				"element": "N" 
			},
			{
				"x": 1.844914856,
				"y": -0.3747144611,
				"z": -0.2462208114,
				"element": "C" 
			},
			{
				"x": 0.5480107665,
				"y": 0.1386923376,
				"z": -0.404860562,
				"element": "C" 
			},
			{
				"x": -0.230625502,
				"y": 0.5067103451,
				"z": 0.7006518406,
				"element": "C" 
			},
			{
				"x": 0.3028710715,
				"y": 0.3609587743,
				"z": 1.991885962,
				"element": "C" 
			},
			{
				"x": 1.5908098524,
				"y": -0.1482688401,
				"z": 2.1537513941,
				"element": "C" 
			},
			{
				"x": 2.3612743274,
				"y": -0.5147209106,
				"z": 1.0539952392,
				"element": "C" 
			},
			{
				"x": -1.6007783029,
				"y": 1.0463593927,
				"z": 0.5063522849,
				"element": "C" 
			},
			{
				"x": -2.4410924001,
				"y": 0.5303781319,
				"z": -0.490589779,
				"element": "C" 
			},
			{
				"x": -3.7277143341,
				"y": 1.0329534709,
				"z": -0.6837932881,
				"element": "C" 
			},
			{
				"x": -4.7191205567,
				"y": 0.3321009672,
				"z": -1.9425916,
				"element": "Cl" 
			},
			{
				"x": -4.2052619325,
				"y": 2.069253159,
				"z": 0.1285472452,
				"element": "C" 
			},
			{
				"x": -5.8086413525,
				"y": 2.7322008745,
				"z": -0.0737201321,
				"element": "Cl" 
			},
			{
				"x": -3.377917264,
				"y": 2.5884454144,
				"z": 1.1270357425,
				"element": "C" 
			},
			{
				"x": -2.094958322,
				"y": 2.0851999482,
				"z": 1.3124412035,
				"element": "C" 
			},
			{
				"x": 3.5893890108,
				"y": -0.7915434367,
				"z": -1.2242275951,
				"element": "H" 
			},
			{
				"x": 2.323635831,
				"y": -0.3573356485,
				"z": -2.2329158849,
				"element": "H" 
			},
			{
				"x": 0.1542768986,
				"y": 0.2765540987,
				"z": -1.4086627522,
				"element": "H" 
			},
			{
				"x": -0.297188898,
				"y": 0.6126485242,
				"z": 2.8600261197,
				"element": "H" 
			},
			{
				"x": 1.9997298681,
				"y": -0.2685110105,
				"z": 3.153105428,
				"element": "H" 
			},
			{
				"x": 3.3626234593,
				"y": -0.913884695,
				"z": 1.1943999862,
				"element": "H" 
			},
			{
				"x": -2.1065438212,
				"y": -0.2918790689,
				"z": -1.1127251231,
				"element": "H" 
			},
			{
				"x": -3.7480822701,
				"y": 3.3970270228,
				"z": 1.7477360205,
				"element": "H" 
			},
			{
				"x": -1.4596842447,
				"y": 2.5209631192,
				"z": 2.0764638489,
				"element": "H" 
			}
		],
		 "valence_orbital": [ 
			{
				"type": "occ",
				"energy": -0.30583,
				"method": "rhf"
			},
			{
				"type": "occ",
				"energy": -0.26989,
				"method": "rhf"
			},
			{
				"type": "occ",
				"energy": -0.25559,
				"method": "rhf"
			},
			{
				"type": "occ",
				"energy": -0.23233,
				"method": "rhf"
			},
			{
				"type": "occ",
				"energy": -0.20823,
				"method": "rhf"
			},
			{
				"type": "unocc",
				"energy": -0.03832,
				"method": "rhf"
			},
			{
				"type": "unocc",
				"energy": -0.02125,
				"method": "rhf"
			},
			{
				"type": "unocc",
				"energy": 0.00161,
				"method": "rhf"
			},
			{
				"type": "unocc",
				"energy": 0.00944,
				"method": "rhf"
			},
			{
				"type": "unocc",
				"energy": 0.02278,
				"method": "rhf"
			}
		],
		"cosmo_sigma_profile": { 
			"-0.025": 0.0,
			"-0.024": 0.0,
			"-0.023": 0.0,
			"-0.022": 0.0,
			"-0.021": 0.0,
			"-0.02": 0.0,
			"-0.019": 0.0,
			"-0.018": 0.0,
			"-0.017": 0.0,
			"-0.016": 0.0,
			"-0.015": 0.0,
			"-0.014": 0.0,
			"-0.013": 0.229551791622,
			"-0.012": 2.73756139142,
			"-0.011": 2.26191254352,
			"-0.01": 3.37456019999,
			"-0.009": 3.61662941778,
			"-0.008": 3.89660065904,
			"-0.007": 6.87542965201,
			"-0.006": 11.2818807809,
			"-0.005": 14.1596706375,
			"-0.004": 12.0293334029,
			"-0.003": 14.3778133561,
			"-0.002": 13.3587602997,
			"-0.001": 13.9981797449,
			"0.0": 20.7458598733,
			"0.001": 22.9658826714,
			"0.002": 30.1221778314,
			"0.003": 24.5451165485,
			"0.004": 24.0480915423,
			"0.005": 15.4860351622,
			"0.006": 10.8131375758,
			"0.007": 3.192161105,
			"0.008": 0.782075653626,
			"0.009": 0.874225349005,
			"0.01": 0.410420554328,
			"0.011": 0.687624934515,
			"0.012": 0.868643065145,
			"0.013": 0.739297789755,
			"0.014": 0.472384895932,
			"0.015": 0.159632799534,
			"0.016": 0.0,
			"0.017": 0.0,
			"0.018": 0.0,
			"0.019": 0.0,
			"0.02": 0.0,
			"0.021": 0.0,
			"0.022": 0.0,
			"0.023": 0.0,
			"0.024": 0.0,
			"0.025": 0.0
		}
	}
}
