{
	 "smiles": "NC1=CC=CC(COC2=CC=CC=C2)=C1", 
	 "Tm": 319.15, 
	 "num_atms": 28, 
	 "gaussian": { 
		 "optdone": 1, 
		 "sigma_profile": "yes", 
		 "theory": "DFT", 
		 "functional": "B3LYP", 
		 "basiset": "6-31G**", 
		 "properties": { 
			 "R2extent": 3735.3588, 
			 "electric_dipole_moment_norm": 1.70318578552, 
			 "electric_quadrupole_moment_norm": 6.63573743076, 
			 "total_energy": -633.188315311, 
			 "HOMO_LUMO_gap": 0.20164, 
			 "cosmo_polarized_energy": -10.81, 
			 "cosmo_cavitation_energy": 31.58, 
			 "cosmo_dispersion_energy": -22.68, 
			 "cosmo_repulsion_energy": 1.8, 
			 "cosmo_total_nonelectrostatic_energy": 10.7, 
			 "SMD_solvation_energy": 5.39 
		},
		"coords": [
			{
				"x": -0.7771299671,
				"y": 1.1282281811,
				"z": 3.5379913073,
				"element": "N" 
			},
			{
				"x": -0.2954175395,
				"y": 1.6284922987,
				"z": 2.3274292848,
				"element": "C" 
			},
			{
				"x": -0.4424470433,
				"y": 2.9890873105,
				"z": 2.0034952239,
				"element": "C" 
			},
			{
				"x": 0.086120876,
				"y": 3.4859399514,
				"z": 0.815567299,
				"element": "C" 
			},
			{
				"x": 0.7639620819,
				"y": 2.6481757718,
				"z": -0.0719327092,
				"element": "C" 
			},
			{
				"x": 0.921837182,
				"y": 1.2937203559,
				"z": 0.2453745642,
				"element": "C" 
			},
			{
				"x": 1.714764712,
				"y": 0.3900966721,
				"z": -0.6804818757,
				"element": "C" 
			},
			{
				"x": 1.3341437347,
				"y": -0.9834125369,
				"z": -0.6364369543,
				"element": "O" 
			},
			{
				"x": 0.2144053543,
				"y": -1.388969044,
				"z": -1.315280469,
				"element": "C" 
			},
			{
				"x": -0.696944261,
				"y": -0.5293598366,
				"z": -1.9399312069,
				"element": "C" 
			},
			{
				"x": -1.7968294268,
				"y": -1.069717933,
				"z": -2.6137234424,
				"element": "C" 
			},
			{
				"x": -2.001526189,
				"y": -2.4470473412,
				"z": -2.6674244554,
				"element": "C" 
			},
			{
				"x": -1.0892396754,
				"y": -3.296983199,
				"z": -2.0332154285,
				"element": "C" 
			},
			{
				"x": 0.0120374098,
				"y": -2.7760318815,
				"z": -1.3618578938,
				"element": "C" 
			},
			{
				"x": 0.3972491695,
				"y": 0.7921892072,
				"z": 1.4365561791,
				"element": "C" 
			},
			{
				"x": -1.5398366934,
				"y": 1.6503088313,
				"z": 3.946709655,
				"element": "H" 
			},
			{
				"x": -0.9511531743,
				"y": 0.1327078903,
				"z": 3.5515984394,
				"element": "H" 
			},
			{
				"x": -0.9719612343,
				"y": 3.649497273,
				"z": 2.6858437556,
				"element": "H" 
			},
			{
				"x": -0.0424229882,
				"y": 4.5377059454,
				"z": 0.5746677219,
				"element": "H" 
			},
			{
				"x": 1.1647240983,
				"y": 3.0432136256,
				"z": -1.001781526,
				"element": "H" 
			},
			{
				"x": 1.6731060252,
				"y": 0.7654163259,
				"z": -1.711565503,
				"element": "H" 
			},
			{
				"x": 2.7678802884,
				"y": 0.3818829411,
				"z": -0.3779122642,
				"element": "H" 
			},
			{
				"x": -0.5741734608,
				"y": 0.5455138299,
				"z": -1.8871916848,
				"element": "H" 
			},
			{
				"x": -2.5009988976,
				"y": -0.396188996,
				"z": -3.0945620539,
				"element": "H" 
			},
			{
				"x": -2.8596253685,
				"y": -2.8551896676,
				"z": -3.1925042388,
				"element": "H" 
			},
			{
				"x": -1.2336669924,
				"y": -4.3734094836,
				"z": -2.0652627362,
				"element": "H" 
			},
			{
				"x": 0.7342416875,
				"y": -3.4208185818,
				"z": -0.8713180256,
				"element": "H" 
			},
			{
				"x": 0.5212002919,
				"y": -0.26184791,
				"z": 1.6691490375,
				"element": "H" 
			}
		],
		 "valence_orbital": [ 
			{
				"type": "occ",
				"energy": -0.3024,
				"method": "rhf"
			},
			{
				"type": "occ",
				"energy": -0.24629,
				"method": "rhf"
			},
			{
				"type": "occ",
				"energy": -0.23921,
				"method": "rhf"
			},
			{
				"type": "occ",
				"energy": -0.21413,
				"method": "rhf"
			},
			{
				"type": "occ",
				"energy": -0.20195,
				"method": "rhf"
			},
			{
				"type": "unocc",
				"energy": -0.00031,
				"method": "rhf"
			},
			{
				"type": "unocc",
				"energy": 0.00479,
				"method": "rhf"
			},
			{
				"type": "unocc",
				"energy": 0.01618,
				"method": "rhf"
			},
			{
				"type": "unocc",
				"energy": 0.01997,
				"method": "rhf"
			},
			{
				"type": "unocc",
				"energy": 0.08185,
				"method": "rhf"
			}
		],
		"cosmo_sigma_profile": { 
			"-0.025": 0.0,
			"-0.024": 0.0,
			"-0.023": 0.0,
			"-0.022": 0.0,
			"-0.021": 0.0,
			"-0.02": 0.0,
			"-0.019": 0.0,
			"-0.018": 0.0,
			"-0.017": 0.0,
			"-0.016": 0.0,
			"-0.015": 0.0,
			"-0.014": 0.0,
			"-0.013": 0.228012548662,
			"-0.012": 2.28419480252,
			"-0.011": 2.95190657838,
			"-0.01": 2.52839000375,
			"-0.009": 2.67755945517,
			"-0.008": 2.60031077767,
			"-0.007": 3.21039160074,
			"-0.006": 10.861679452,
			"-0.005": 21.7528831179,
			"-0.004": 21.5337228207,
			"-0.003": 21.6605586401,
			"-0.002": 15.9937178114,
			"-0.001": 13.7450888683,
			"0.0": 13.4552731776,
			"0.001": 11.8180715762,
			"0.002": 13.9179730646,
			"0.003": 15.7182020104,
			"0.004": 17.9253660613,
			"0.005": 18.3911352158,
			"0.006": 20.2129375457,
			"0.007": 8.95634472512,
			"0.008": 1.76868666537,
			"0.009": 2.47998846798,
			"0.01": 1.22676948583,
			"0.011": 0.824838029821,
			"0.012": 0.996934834877,
			"0.013": 0.592818202132,
			"0.014": 0.659215317891,
			"0.015": 0.206851067085,
			"0.016": 0.0,
			"0.017": 0.0,
			"0.018": 0.0,
			"0.019": 0.0,
			"0.02": 0.0,
			"0.021": 0.0,
			"0.022": 0.0,
			"0.023": 0.0,
			"0.024": 0.0,
			"0.025": 0.0
		}
	}
}
