{
	 "smiles": "CC1=CC2=C(CC2)C(C)=C1C", 
	 "Tm": 311.15, 
	 "num_atms": 25, 
	 "gaussian": { 
		 "optdone": 1, 
		 "sigma_profile": "yes", 
		 "theory": "DFT", 
		 "functional": "B3LYP", 
		 "basiset": "6-31G**", 
		 "properties": { 
			 "R2extent": 1863.2806, 
			 "electric_dipole_moment_norm": 0.388607179553, 
			 "electric_quadrupole_moment_norm": 3.47808220576, 
			 "total_energy": -427.591528813, 
			 "HOMO_LUMO_gap": 0.22272, 
			 "cosmo_polarized_energy": -3.02, 
			 "cosmo_cavitation_energy": 26.39, 
			 "cosmo_dispersion_energy": -19.43, 
			 "cosmo_repulsion_energy": 1.57, 
			 "cosmo_total_nonelectrostatic_energy": 8.53, 
			 "SMD_solvation_energy": 4.0 
		},
		"coords": [
			{
				"x": -1.2679004685,
				"y": 0.1977528948,
				"z": 2.4958127382,
				"element": "C" 
			},
			{
				"x": -0.584443256,
				"y": -0.0643806596,
				"z": 1.1716890241,
				"element": "C" 
			},
			{
				"x": -0.5427218014,
				"y": -1.3820231791,
				"z": 0.6785019945,
				"element": "C" 
			},
			{
				"x": 0.0922287303,
				"y": -1.576646,
				"z": -0.5361270357,
				"element": "C" 
			},
			{
				"x": 0.6634047538,
				"y": -0.5222375625,
				"z": -1.2392652013,
				"element": "C" 
			},
			{
				"x": 1.136805993,
				"y": -1.4134942519,
				"z": -2.3813595339,
				"element": "C" 
			},
			{
				"x": 0.4858699561,
				"y": -2.6123668111,
				"z": -1.579174019,
				"element": "C" 
			},
			{
				"x": 0.6466349003,
				"y": 0.7945031687,
				"z": -0.7916766266,
				"element": "C" 
			},
			{
				"x": 1.2846672883,
				"y": 1.9019825221,
				"z": -1.5992239588,
				"element": "C" 
			},
			{
				"x": -0.000321409,
				"y": 1.0105908869,
				"z": 0.4514956969,
				"element": "C" 
			},
			{
				"x": -0.0818710129,
				"y": 2.4033038746,
				"z": 1.0408733261,
				"element": "C" 
			},
			{
				"x": -1.6628527063,
				"y": -0.7286021964,
				"z": 2.9212587226,
				"element": "H" 
			},
			{
				"x": -2.1052382239,
				"y": 0.8993341355,
				"z": 2.3938800128,
				"element": "H" 
			},
			{
				"x": -0.5823135866,
				"y": 0.6351576419,
				"z": 3.2322462837,
				"element": "H" 
			},
			{
				"x": -0.9968607973,
				"y": -2.1899473114,
				"z": 1.2472510376,
				"element": "H" 
			},
			{
				"x": 0.6833258458,
				"y": -1.222228025,
				"z": -3.3604383383,
				"element": "H" 
			},
			{
				"x": 2.221924726,
				"y": -1.4907029029,
				"z": -2.5131668071,
				"element": "H" 
			},
			{
				"x": 1.1960581069,
				"y": -3.3781685003,
				"z": -1.2483789765,
				"element": "H" 
			},
			{
				"x": -0.3425154161,
				"y": -3.1096639857,
				"z": -2.0956222867,
				"element": "H" 
			},
			{
				"x": 0.5602483631,
				"y": 2.6725364365,
				"z": -1.8880684024,
				"element": "H" 
			},
			{
				"x": 1.7203220091,
				"y": 1.5001763524,
				"z": -2.5180402004,
				"element": "H" 
			},
			{
				"x": 2.0869959474,
				"y": 2.4058010918,
				"z": -1.0475033716,
				"element": "H" 
			},
			{
				"x": 0.3973426159,
				"y": 3.1496801753,
				"z": 0.4063472544,
				"element": "H" 
			},
			{
				"x": 0.3996555824,
				"y": 2.4534753289,
				"z": 2.0254769973,
				"element": "H" 
			},
			{
				"x": -1.1223461404,
				"y": 2.7187668765,
				"z": 1.1881116703,
				"element": "H" 
			}
		],
		 "valence_orbital": [ 
			{
				"type": "occ",
				"energy": -0.32002,
				"method": "rhf"
			},
			{
				"type": "occ",
				"energy": -0.30688,
				"method": "rhf"
			},
			{
				"type": "occ",
				"energy": -0.29831,
				"method": "rhf"
			},
			{
				"type": "occ",
				"energy": -0.22492,
				"method": "rhf"
			},
			{
				"type": "occ",
				"energy": -0.21418,
				"method": "rhf"
			},
			{
				"type": "unocc",
				"energy": 0.00854,
				"method": "rhf"
			},
			{
				"type": "unocc",
				"energy": 0.01764,
				"method": "rhf"
			},
			{
				"type": "unocc",
				"energy": 0.09299,
				"method": "rhf"
			},
			{
				"type": "unocc",
				"energy": 0.112,
				"method": "rhf"
			},
			{
				"type": "unocc",
				"energy": 0.1189,
				"method": "rhf"
			}
		],
		"cosmo_sigma_profile": { 
			"-0.025": 0.0,
			"-0.024": 0.0,
			"-0.023": 0.0,
			"-0.022": 0.0,
			"-0.021": 0.0,
			"-0.02": 0.0,
			"-0.019": 0.0,
			"-0.018": 0.0,
			"-0.017": 0.0,
			"-0.016": 0.0,
			"-0.015": 0.0,
			"-0.014": 0.0,
			"-0.013": 0.0,
			"-0.012": 0.0,
			"-0.011": 0.0,
			"-0.01": 0.0,
			"-0.009": 0.0,
			"-0.008": 0.0,
			"-0.007": 0.0,
			"-0.006": 0.0,
			"-0.005": 0.85148076479,
			"-0.004": 12.1499670941,
			"-0.003": 29.877887623,
			"-0.002": 25.889286967,
			"-0.001": 31.0209085952,
			"0.0": 32.1412775727,
			"0.001": 29.3894499667,
			"0.002": 12.1303662311,
			"0.003": 7.19517600787,
			"0.004": 6.65820134854,
			"0.005": 6.30561269893,
			"0.006": 5.53841343148,
			"0.007": 5.65533757629,
			"0.008": 2.24431075338,
			"0.009": 0.0,
			"0.01": 0.0,
			"0.011": 0.0,
			"0.012": 0.0,
			"0.013": 0.0,
			"0.014": 0.0,
			"0.015": 0.0,
			"0.016": 0.0,
			"0.017": 0.0,
			"0.018": 0.0,
			"0.019": 0.0,
			"0.02": 0.0,
			"0.021": 0.0,
			"0.022": 0.0,
			"0.023": 0.0,
			"0.024": 0.0,
			"0.025": 0.0
		}
	}
}
