{
	 "smiles": "CCOC(=O)CC[C@H](C)[C@H]1CCC2C3C(CC(=O)[C@]12C)[C@@]1(C)CCC(=O)C[C@H]1CC3=O", 
	 "Tm": 495.15, 
	 "num_atms": 69, 
	 "gaussian": { 
		 "optdone": 1, 
		 "sigma_profile": "yes", 
		 "theory": "DFT", 
		 "functional": "B3LYP", 
		 "basiset": "6-31G**", 
		 "properties": { 
			 "R2extent": 11928.9945, 
			 "electric_dipole_moment_norm": 2.31556945264, 
			 "electric_quadrupole_moment_norm": 21.3690680169, 
			 "total_energy": -1389.81434056, 
			 "HOMO_LUMO_gap": 0.2109, 
			 "cosmo_polarized_energy": -19.77, 
			 "cosmo_cavitation_energy": 59.65, 
			 "cosmo_dispersion_energy": -37.46, 
			 "cosmo_repulsion_energy": 2.71, 
			 "cosmo_total_nonelectrostatic_energy": 24.9, 
			 "SMD_solvation_energy": 10.65 
		},
		"coords": [
			{
				"x": -0.812842472,
				"y": 4.3158996243,
				"z": -3.1858581624,
				"element": "C" 
			},
			{
				"x": 0.5219255133,
				"y": 4.5200141197,
				"z": -2.4861371142,
				"element": "C" 
			},
			{
				"x": 1.4925868282,
				"y": 3.5316753308,
				"z": -2.9326049317,
				"element": "O" 
			},
			{
				"x": 1.558131867,
				"y": 2.3748979133,
				"z": -2.2533427814,
				"element": "C" 
			},
			{
				"x": 0.8665197505,
				"y": 2.1261551708,
				"z": -1.2794706812,
				"element": "O" 
			},
			{
				"x": 2.5811725206,
				"y": 1.4377451492,
				"z": -2.874506375,
				"element": "C" 
			},
			{
				"x": 3.2289617884,
				"y": 0.4315908194,
				"z": -1.8926835808,
				"element": "C" 
			},
			{
				"x": 2.6873604997,
				"y": -1.0217716252,
				"z": -1.897186279,
				"element": "C" 
			},
			{
				"x": 3.0631381003,
				"y": -1.7569479002,
				"z": -3.1938253522,
				"element": "C" 
			},
			{
				"x": 1.1769792184,
				"y": -1.071196023,
				"z": -1.5155497353,
				"element": "C" 
			},
			{
				"x": 0.1305485754,
				"y": -1.3789848801,
				"z": -2.6237006307,
				"element": "C" 
			},
			{
				"x": -1.116658676,
				"y": -1.9564785804,
				"z": -1.8910924867,
				"element": "C" 
			},
			{
				"x": -0.7832691546,
				"y": -1.8848543942,
				"z": -0.3790716699,
				"element": "C" 
			},
			{
				"x": -1.2817700929,
				"y": -0.536747354,
				"z": 0.2069298908,
				"element": "C" 
			},
			{
				"x": -0.4342406368,
				"y": 0.0598948325,
				"z": 1.3909414238,
				"element": "C" 
			},
			{
				"x": 0.4528789533,
				"y": -1.034983321,
				"z": 2.0120845982,
				"element": "C" 
			},
			{
				"x": 1.3871619252,
				"y": -1.6332121132,
				"z": 0.9770061359,
				"element": "C" 
			},
			{
				"x": 2.5760023319,
				"y": -1.7877463821,
				"z": 1.2077200405,
				"element": "O" 
			},
			{
				"x": 0.7611725075,
				"y": -2.0472207168,
				"z": -0.3557686997,
				"element": "C" 
			},
			{
				"x": 1.1755938432,
				"y": -3.5086497066,
				"z": -0.6305032531,
				"element": "C" 
			},
			{
				"x": -1.2605096321,
				"y": 0.862567585,
				"z": 2.4599848877,
				"element": "C" 
			},
			{
				"x": -1.9147754511,
				"y": -0.0708917603,
				"z": 3.5033677081,
				"element": "C" 
			},
			{
				"x": -0.2918346825,
				"y": 1.8494401001,
				"z": 3.2108674895,
				"element": "C" 
			},
			{
				"x": -0.5711851317,
				"y": 3.3530596399,
				"z": 2.9892373934,
				"element": "C" 
			},
			{
				"x": -0.825079645,
				"y": 3.6913609803,
				"z": 1.5325475578,
				"element": "C" 
			},
			{
				"x": -0.3033524717,
				"y": 4.6390778508,
				"z": 0.9728423409,
				"element": "O" 
			},
			{
				"x": -1.7970446379,
				"y": 2.7620418859,
				"z": 0.8154601643,
				"element": "C" 
			},
			{
				"x": -2.3808837548,
				"y": 1.6705800638,
				"z": 1.7329920746,
				"element": "C" 
			},
			{
				"x": -3.3733603718,
				"y": 0.7294795057,
				"z": 1.0054200378,
				"element": "C" 
			},
			{
				"x": -2.7661082956,
				"y": -0.5904541102,
				"z": 0.5442167544,
				"element": "C" 
			},
			{
				"x": -3.4464295862,
				"y": -1.5947796293,
				"z": 0.4335887196,
				"element": "O" 
			},
			{
				"x": -1.2567248203,
				"y": 3.3570189113,
				"z": -2.9037693266,
				"element": "H" 
			},
			{
				"x": -1.5067008231,
				"y": 5.1107346601,
				"z": -2.8933564309,
				"element": "H" 
			},
			{
				"x": -0.6973286435,
				"y": 4.3422330356,
				"z": -4.2735300477,
				"element": "H" 
			},
			{
				"x": 0.9716858361,
				"y": 5.4768389332,
				"z": -2.7611274643,
				"element": "H" 
			},
			{
				"x": 0.4162566088,
				"y": 4.4656402027,
				"z": -1.4008781496,
				"element": "H" 
			},
			{
				"x": 3.3364467913,
				"y": 2.0618543109,
				"z": -3.359872858,
				"element": "H" 
			},
			{
				"x": 2.066324564,
				"y": 0.9172923103,
				"z": -3.6934299328,
				"element": "H" 
			},
			{
				"x": 4.3018747189,
				"y": 0.3890520993,
				"z": -2.1138075,
				"element": "H" 
			},
			{
				"x": 3.1433153149,
				"y": 0.8291017128,
				"z": -0.8757578675,
				"element": "H" 
			},
			{
				"x": 3.2299039134,
				"y": -1.5160996202,
				"z": -1.0838105606,
				"element": "H" 
			},
			{
				"x": 2.7486789775,
				"y": -2.8048821149,
				"z": -3.1709992751,
				"element": "H" 
			},
			{
				"x": 2.6142497439,
				"y": -1.3013957769,
				"z": -4.0840644205,
				"element": "H" 
			},
			{
				"x": 4.1499769218,
				"y": -1.7447023767,
				"z": -3.3326976649,
				"element": "H" 
			},
			{
				"x": 0.9362949563,
				"y": -0.0738767958,
				"z": -1.1452314387,
				"element": "H" 
			},
			{
				"x": 0.5118352294,
				"y": -2.1027928436,
				"z": -3.3484981651,
				"element": "H" 
			},
			{
				"x": -0.1121538968,
				"y": -0.4733864177,
				"z": -3.190203814,
				"element": "H" 
			},
			{
				"x": -1.2961033112,
				"y": -2.9928815162,
				"z": -2.1911994344,
				"element": "H" 
			},
			{
				"x": -2.0352466027,
				"y": -1.4106723246,
				"z": -2.1241995416,
				"element": "H" 
			},
			{
				"x": -1.2792902576,
				"y": -2.6944003428,
				"z": 0.1652910642,
				"element": "H" 
			},
			{
				"x": -1.2290782217,
				"y": 0.2175183303,
				"z": -0.5910053912,
				"element": "H" 
			},
			{
				"x": 0.2462634092,
				"y": 0.785386478,
				"z": 0.9325254898,
				"element": "H" 
			},
			{
				"x": 1.0618175741,
				"y": -0.6581532618,
				"z": 2.8382142291,
				"element": "H" 
			},
			{
				"x": -0.17150232,
				"y": -1.8505287297,
				"z": 2.4028622904,
				"element": "H" 
			},
			{
				"x": 0.7525786066,
				"y": -4.1792207304,
				"z": 0.1260748852,
				"element": "H" 
			},
			{
				"x": 2.2621586809,
				"y": -3.6094526274,
				"z": -0.590399252,
				"element": "H" 
			},
			{
				"x": 0.8281129266,
				"y": -3.8528436905,
				"z": -1.6079344193,
				"element": "H" 
			},
			{
				"x": -2.527207129,
				"y": -0.8591934467,
				"z": 3.0552340447,
				"element": "H" 
			},
			{
				"x": -1.1597080466,
				"y": -0.5585484464,
				"z": 4.1263960193,
				"element": "H" 
			},
			{
				"x": -2.5617807751,
				"y": 0.5087699556,
				"z": 4.1717084025,
				"element": "H" 
			},
			{
				"x": -0.3268611991,
				"y": 1.6559282988,
				"z": 4.2878273707,
				"element": "H" 
			},
			{
				"x": 0.7404838049,
				"y": 1.6485828193,
				"z": 2.9059196825,
				"element": "H" 
			},
			{
				"x": 0.2505594581,
				"y": 3.9712384968,
				"z": 3.3591006246,
				"element": "H" 
			},
			{
				"x": -1.472969238,
				"y": 3.6454402404,
				"z": 3.5467457666,
				"element": "H" 
			},
			{
				"x": -1.2546659414,
				"y": 2.3523232005,
				"z": -0.0441722995,
				"element": "H" 
			},
			{
				"x": -2.600468711,
				"y": 3.3824022735,
				"z": 0.3978605889,
				"element": "H" 
			},
			{
				"x": -2.9564707981,
				"y": 2.1877628627,
				"z": 2.5116871265,
				"element": "H" 
			},
			{
				"x": -4.2365482553,
				"y": 0.4830003751,
				"z": 1.6293166337,
				"element": "H" 
			},
			{
				"x": -3.7766985765,
				"y": 1.2254494801,
				"z": 0.1113755515,
				"element": "H" 
			}
		],
		 "valence_orbital": [ 
			{
				"type": "occ",
				"energy": -0.29199,
				"method": "rhf"
			},
			{
				"type": "occ",
				"energy": -0.27198,
				"method": "rhf"
			},
			{
				"type": "occ",
				"energy": -0.24497,
				"method": "rhf"
			},
			{
				"type": "occ",
				"energy": -0.23928,
				"method": "rhf"
			},
			{
				"type": "occ",
				"energy": -0.23071,
				"method": "rhf"
			},
			{
				"type": "unocc",
				"energy": -0.01981,
				"method": "rhf"
			},
			{
				"type": "unocc",
				"energy": -0.01679,
				"method": "rhf"
			},
			{
				"type": "unocc",
				"energy": -0.0118,
				"method": "rhf"
			},
			{
				"type": "unocc",
				"energy": 0.00647,
				"method": "rhf"
			},
			{
				"type": "unocc",
				"energy": 0.06353,
				"method": "rhf"
			}
		],
		"cosmo_sigma_profile": { 
			"-0.025": 0.0,
			"-0.024": 0.0,
			"-0.023": 0.0,
			"-0.022": 0.0,
			"-0.021": 0.0,
			"-0.02": 0.0,
			"-0.019": 0.0,
			"-0.018": 0.0,
			"-0.017": 0.0,
			"-0.016": 0.0,
			"-0.015": 0.0,
			"-0.014": 0.0,
			"-0.013": 0.0,
			"-0.012": 0.0,
			"-0.011": 0.0,
			"-0.01": 0.0,
			"-0.009": 0.0,
			"-0.008": 0.0411305763776,
			"-0.007": 2.21845215163,
			"-0.006": 11.5996077662,
			"-0.005": 26.4149861839,
			"-0.004": 42.6936121031,
			"-0.003": 60.6194119811,
			"-0.002": 66.1790522429,
			"-0.001": 56.0018639868,
			"0.0": 47.4785446561,
			"0.001": 37.5484181575,
			"0.002": 19.8743982889,
			"0.003": 12.4439995713,
			"0.004": 8.99621684177,
			"0.005": 7.99244095673,
			"0.006": 9.12149719521,
			"0.007": 8.4642635219,
			"0.008": 6.95550963184,
			"0.009": 6.50065643478,
			"0.01": 5.87661707306,
			"0.011": 7.14340588557,
			"0.012": 9.44498699166,
			"0.013": 5.98369711811,
			"0.014": 1.24994288547,
			"0.015": 0.0,
			"0.016": 0.0,
			"0.017": 0.0,
			"0.018": 0.0,
			"0.019": 0.0,
			"0.02": 0.0,
			"0.021": 0.0,
			"0.022": 0.0,
			"0.023": 0.0,
			"0.024": 0.0,
			"0.025": 0.0
		}
	}
}
