{
	 "smiles": "ClCC1=NOC(=N1)C1=CC=CS1", 
	 "Tm": 340.65, 
	 "num_atms": 17, 
	 "gaussian": { 
		 "optdone": 1, 
		 "sigma_profile": "yes", 
		 "theory": "DFT", 
		 "functional": "B3LYP", 
		 "basiset": "6-31G**", 
		 "properties": { 
			 "R2extent": 3397.7676, 
			 "electric_dipole_moment_norm": 3.66637202286, 
			 "electric_quadrupole_moment_norm": 12.3708391567, 
			 "total_energy": -1312.81181032, 
			 "HOMO_LUMO_gap": 0.17377, 
			 "cosmo_polarized_energy": -9.79, 
			 "cosmo_cavitation_energy": 26.03, 
			 "cosmo_dispersion_energy": -19.88, 
			 "cosmo_repulsion_energy": 1.55, 
			 "cosmo_total_nonelectrostatic_energy": 7.7, 
			 "SMD_solvation_energy": 2.13 
		},
		"coords": [
			{
				"x": -2.5890834478,
				"y": -2.8079960598,
				"z": -0.7748834667,
				"element": "Cl" 
			},
			{
				"x": -1.1493558642,
				"y": -2.3037864404,
				"z": -1.7617722135,
				"element": "C" 
			},
			{
				"x": -0.182840671,
				"y": -1.5043929911,
				"z": -0.958262319,
				"element": "C" 
			},
			{
				"x": 0.9686117348,
				"y": -2.0119300884,
				"z": -0.5873669492,
				"element": "N" 
			},
			{
				"x": 1.5676801049,
				"y": -0.9578497562,
				"z": 0.1192047286,
				"element": "O" 
			},
			{
				"x": 0.692604845,
				"y": 0.0715001351,
				"z": 0.088622103,
				"element": "C" 
			},
			{
				"x": -0.4045397031,
				"y": -0.2087969466,
				"z": -0.5662223807,
				"element": "N" 
			},
			{
				"x": 1.0518642942,
				"y": 1.3026991624,
				"z": 0.7446748835,
				"element": "C" 
			},
			{
				"x": 2.214630043,
				"y": 1.5924040799,
				"z": 1.4272791984,
				"element": "C" 
			},
			{
				"x": 2.2266676751,
				"y": 2.9126015278,
				"z": 1.9492168265,
				"element": "C" 
			},
			{
				"x": 1.0775412894,
				"y": 3.6035657067,
				"z": 1.6568025438,
				"element": "C" 
			},
			{
				"x": -0.0429173977,
				"y": 2.6607003385,
				"z": 0.740169637,
				"element": "S" 
			},
			{
				"x": -1.5364282995,
				"y": -1.7134053546,
				"z": -2.5920263021,
				"element": "H" 
			},
			{
				"x": -0.6740977824,
				"y": -3.2124916661,
				"z": -2.1277043537,
				"element": "H" 
			},
			{
				"x": 3.0202615031,
				"y": 0.8773262271,
				"z": 1.5428658329,
				"element": "H" 
			},
			{
				"x": 3.0493135369,
				"y": 3.3316209187,
				"z": 2.5162629885,
				"element": "H" 
			},
			{
				"x": 0.8242881392,
				"y": 4.618831207,
				"z": 1.9303392427,
				"element": "H" 
			}
		],
		 "valence_orbital": [ 
			{
				"type": "occ",
				"energy": -0.30815,
				"method": "rhf"
			},
			{
				"type": "occ",
				"energy": -0.30314,
				"method": "rhf"
			},
			{
				"type": "occ",
				"energy": -0.30075,
				"method": "rhf"
			},
			{
				"type": "occ",
				"energy": -0.27386,
				"method": "rhf"
			},
			{
				"type": "occ",
				"energy": -0.24657,
				"method": "rhf"
			},
			{
				"type": "unocc",
				"energy": -0.0728,
				"method": "rhf"
			},
			{
				"type": "unocc",
				"energy": -0.02519,
				"method": "rhf"
			},
			{
				"type": "unocc",
				"energy": 0.01241,
				"method": "rhf"
			},
			{
				"type": "unocc",
				"energy": 0.01784,
				"method": "rhf"
			},
			{
				"type": "unocc",
				"energy": 0.05233,
				"method": "rhf"
			}
		],
		"cosmo_sigma_profile": { 
			"-0.025": 0.0,
			"-0.024": 0.0,
			"-0.023": 0.0,
			"-0.022": 0.0,
			"-0.021": 0.0,
			"-0.02": 0.0,
			"-0.019": 0.0,
			"-0.018": 0.0,
			"-0.017": 0.0,
			"-0.016": 0.0,
			"-0.015": 0.0,
			"-0.014": 0.0,
			"-0.013": 0.0,
			"-0.012": 0.0,
			"-0.011": 0.0,
			"-0.01": 1.49027376431,
			"-0.009": 6.48921129998,
			"-0.008": 7.54058504003,
			"-0.007": 10.2709565114,
			"-0.006": 10.557788389,
			"-0.005": 9.34965299358,
			"-0.004": 10.4946541665,
			"-0.003": 9.82514684579,
			"-0.002": 12.0649543406,
			"-0.001": 14.0949997339,
			"0.0": 14.4422442313,
			"0.001": 19.751371934,
			"0.002": 22.9096905248,
			"0.003": 16.2653356142,
			"0.004": 9.15552772235,
			"0.005": 15.4608134448,
			"0.006": 10.2978463828,
			"0.007": 2.83215950175,
			"0.008": 2.88159699529,
			"0.009": 2.33955370264,
			"0.01": 2.37194929217,
			"0.011": 1.82081073029,
			"0.012": 1.70590771772,
			"0.013": 0.258839702695,
			"0.014": 0.0,
			"0.015": 0.0,
			"0.016": 0.0,
			"0.017": 0.0,
			"0.018": 0.0,
			"0.019": 0.0,
			"0.02": 0.0,
			"0.021": 0.0,
			"0.022": 0.0,
			"0.023": 0.0,
			"0.024": 0.0,
			"0.025": 0.0
		}
	}
}
