{
	 "smiles": "ClCC(=O)NCCC1=CC2=C(OCCO2)C=C1", 
	 "Tm": 347.15, 
	 "num_atms": 31, 
	 "gaussian": { 
		 "optdone": 1, 
		 "sigma_profile": "yes", 
		 "theory": "DFT", 
		 "functional": "B3LYP", 
		 "basiset": "6-31G**", 
		 "properties": { 
			 "R2extent": 7784.8688, 
			 "electric_dipole_moment_norm": 5.84338248021, 
			 "electric_quadrupole_moment_norm": 35.7413182388, 
			 "total_energy": -1206.32413315, 
			 "HOMO_LUMO_gap": 0.20776, 
			 "cosmo_polarized_energy": -19.71, 
			 "cosmo_cavitation_energy": 36.1, 
			 "cosmo_dispersion_energy": -26.37, 
			 "cosmo_repulsion_energy": 2.09, 
			 "cosmo_total_nonelectrostatic_energy": 11.82, 
			 "SMD_solvation_energy": 5.8 
		},
		"coords": [
			{
				"x": 4.0244102559,
				"y": 0.5614263999,
				"z": 5.5695869521,
				"element": "Cl" 
			},
			{
				"x": 2.495191671,
				"y": 0.8342596571,
				"z": 4.6824418429,
				"element": "C" 
			},
			{
				"x": 2.546887955,
				"y": 0.3037441007,
				"z": 3.2396285027,
				"element": "C" 
			},
			{
				"x": 3.5257018442,
				"y": -0.2392206157,
				"z": 2.7597590797,
				"element": "O" 
			},
			{
				"x": 1.4006172202,
				"y": 0.5146622066,
				"z": 2.5167998124,
				"element": "N" 
			},
			{
				"x": 0.0965712748,
				"y": 0.9546471161,
				"z": 2.9939334105,
				"element": "C" 
			},
			{
				"x": -0.7401728537,
				"y": 1.5495540848,
				"z": 1.8436522567,
				"element": "C" 
			},
			{
				"x": -1.0167630166,
				"y": 0.5642968843,
				"z": 0.7266204708,
				"element": "C" 
			},
			{
				"x": -0.2603043289,
				"y": 0.5881020807,
				"z": -0.4505657751,
				"element": "C" 
			},
			{
				"x": -0.4853897425,
				"y": -0.3395759613,
				"z": -1.4701385916,
				"element": "C" 
			},
			{
				"x": -1.4739941788,
				"y": -1.3248903866,
				"z": -1.3126195772,
				"element": "C" 
			},
			{
				"x": -1.7184970038,
				"y": -2.2686802808,
				"z": -2.279088781,
				"element": "O" 
			},
			{
				"x": -0.6725447625,
				"y": -2.3844434048,
				"z": -3.2449749404,
				"element": "C" 
			},
			{
				"x": -0.2328448063,
				"y": -1.0048398608,
				"z": -3.7078164679,
				"element": "C" 
			},
			{
				"x": 0.2798734833,
				"y": -0.2545265438,
				"z": -2.6055507727,
				"element": "O" 
			},
			{
				"x": -2.2418551645,
				"y": -1.3459092533,
				"z": -0.1471983058,
				"element": "C" 
			},
			{
				"x": -2.0191301523,
				"y": -0.4098148301,
				"z": 0.8586953418,
				"element": "C" 
			},
			{
				"x": 2.3009955231,
				"y": 1.9095877923,
				"z": 4.6863781804,
				"element": "H" 
			},
			{
				"x": 1.6971423475,
				"y": 0.3411559387,
				"z": 5.2428438496,
				"element": "H" 
			},
			{
				"x": 1.4215524159,
				"y": 0.0695760704,
				"z": 1.6060243987,
				"element": "H" 
			},
			{
				"x": 0.2302842683,
				"y": 1.7229686438,
				"z": 3.7616137152,
				"element": "H" 
			},
			{
				"x": -0.4617122352,
				"y": 0.12546783,
				"z": 3.4554391677,
				"element": "H" 
			},
			{
				"x": -0.2169394509,
				"y": 2.4272128519,
				"z": 1.4492773667,
				"element": "H" 
			},
			{
				"x": -1.6853809512,
				"y": 1.9026424278,
				"z": 2.2722061007,
				"element": "H" 
			},
			{
				"x": 0.5066423656,
				"y": 1.3407960601,
				"z": -0.6101627631,
				"element": "H" 
			},
			{
				"x": 0.1802527305,
				"y": -2.9223774338,
				"z": -2.8090783267,
				"element": "H" 
			},
			{
				"x": -1.0784068005,
				"y": -2.9706256811,
				"z": -4.0731273035,
				"element": "H" 
			},
			{
				"x": 0.5752643658,
				"y": -1.06972603,
				"z": -4.440563548,
				"element": "H" 
			},
			{
				"x": -1.0824552361,
				"y": -0.4729754936,
				"z": -4.1572528611,
				"element": "H" 
			},
			{
				"x": -3.008255165,
				"y": -2.1084146545,
				"z": -0.0514330482,
				"element": "H" 
			},
			{
				"x": -2.6298418724,
				"y": -0.4386797149,
				"z": 1.7571706138,
				"element": "H" 
			}
		],
		 "valence_orbital": [ 
			{
				"type": "occ",
				"energy": -0.29166,
				"method": "rhf"
			},
			{
				"type": "occ",
				"energy": -0.25643,
				"method": "rhf"
			},
			{
				"type": "occ",
				"energy": -0.25042,
				"method": "rhf"
			},
			{
				"type": "occ",
				"energy": -0.24363,
				"method": "rhf"
			},
			{
				"type": "occ",
				"energy": -0.21744,
				"method": "rhf"
			},
			{
				"type": "unocc",
				"energy": -0.00968,
				"method": "rhf"
			},
			{
				"type": "unocc",
				"energy": -0.00046,
				"method": "rhf"
			},
			{
				"type": "unocc",
				"energy": 0.02304,
				"method": "rhf"
			},
			{
				"type": "unocc",
				"energy": 0.0309,
				"method": "rhf"
			},
			{
				"type": "unocc",
				"energy": 0.07502,
				"method": "rhf"
			}
		],
		"cosmo_sigma_profile": { 
			"-0.025": 0.0,
			"-0.024": 0.0,
			"-0.023": 0.0,
			"-0.022": 0.0,
			"-0.021": 0.0,
			"-0.02": 0.0,
			"-0.019": 0.0,
			"-0.018": 0.0,
			"-0.017": 0.0,
			"-0.016": 0.0,
			"-0.015": 0.0,
			"-0.014": 0.0,
			"-0.013": 0.0,
			"-0.012": 0.0,
			"-0.011": 0.0,
			"-0.01": 0.311649183344,
			"-0.009": 4.90372566836,
			"-0.008": 7.02645541271,
			"-0.007": 12.6058378219,
			"-0.006": 20.0748296346,
			"-0.005": 29.3596459334,
			"-0.004": 28.2266381248,
			"-0.003": 21.7381185078,
			"-0.002": 14.1823968306,
			"-0.001": 15.1876360178,
			"0.0": 12.0198149366,
			"0.001": 13.250313199,
			"0.002": 12.2565241333,
			"0.003": 16.2836865482,
			"0.004": 16.4332104955,
			"0.005": 14.9781940365,
			"0.006": 12.884938616,
			"0.007": 5.99549407936,
			"0.008": 3.71924764304,
			"0.009": 4.26629286973,
			"0.01": 5.93761340343,
			"0.011": 2.91416815767,
			"0.012": 2.47878914656,
			"0.013": 5.57737726077,
			"0.014": 4.01253017275,
			"0.015": 0.845559479327,
			"0.016": 0.0,
			"0.017": 0.0,
			"0.018": 0.0,
			"0.019": 0.0,
			"0.02": 0.0,
			"0.021": 0.0,
			"0.022": 0.0,
			"0.023": 0.0,
			"0.024": 0.0,
			"0.025": 0.0
		}
	}
}
