{
	 "smiles": "CC(OC1=C(C=CC=C1)C(F)(F)F)C(O)=O", 
	 "Tm": 419.15, 
	 "num_atms": 25, 
	 "gaussian": { 
		 "optdone": 1, 
		 "sigma_profile": "yes", 
		 "theory": "DFT", 
		 "functional": "B3LYP", 
		 "basiset": "6-31G**", 
		 "properties": { 
			 "R2extent": 3734.2654, 
			 "electric_dipole_moment_norm": 3.80930370278, 
			 "electric_quadrupole_moment_norm": 18.0988059526, 
			 "total_energy": -911.691506593, 
			 "HOMO_LUMO_gap": 0.20896, 
			 "cosmo_polarized_energy": -11.88, 
			 "cosmo_cavitation_energy": 30.15, 
			 "cosmo_dispersion_energy": -20.83, 
			 "cosmo_repulsion_energy": 1.56, 
			 "cosmo_total_nonelectrostatic_energy": 10.89, 
			 "SMD_solvation_energy": 7.51 
		},
		"coords": [
			{
				"x": -0.4772308265,
				"y": 3.084239609,
				"z": -1.1281850249,
				"element": "C" 
			},
			{
				"x": 0.3255941098,
				"y": 1.8412083171,
				"z": -0.7507239399,
				"element": "C" 
			},
			{
				"x": -0.5445134098,
				"y": 1.0051353272,
				"z": 0.0251831582,
				"element": "O" 
			},
			{
				"x": -0.2458495422,
				"y": -0.3188608813,
				"z": 0.2286178845,
				"element": "C" 
			},
			{
				"x": -0.8569289426,
				"y": -0.914359459,
				"z": 1.3498894043,
				"element": "C" 
			},
			{
				"x": -0.6535844957,
				"y": -2.2686837502,
				"z": 1.6131700989,
				"element": "C" 
			},
			{
				"x": 0.1598626637,
				"y": -3.0377197671,
				"z": 0.7813710275,
				"element": "C" 
			},
			{
				"x": 0.7758854029,
				"y": -2.4385683354,
				"z": -0.3151715966,
				"element": "C" 
			},
			{
				"x": 0.5800844858,
				"y": -1.0846349284,
				"z": -0.597072207,
				"element": "C" 
			},
			{
				"x": -1.7014255215,
				"y": -0.0766301726,
				"z": 2.2705285516,
				"element": "C" 
			},
			{
				"x": -2.7713853694,
				"y": 0.4616755897,
				"z": 1.6569690536,
				"element": "F" 
			},
			{
				"x": -2.1550888378,
				"y": -0.7864150986,
				"z": 3.3224780235,
				"element": "F" 
			},
			{
				"x": -0.9850697248,
				"y": 0.96758932,
				"z": 2.7925207906,
				"element": "F" 
			},
			{
				"x": 1.5750336235,
				"y": 2.2334216166,
				"z": 0.0571889106,
				"element": "C" 
			},
			{
				"x": 1.4467799516,
				"y": 2.1811236266,
				"z": 1.3941771531,
				"element": "O" 
			},
			{
				"x": 2.5830583501,
				"y": 2.6168149098,
				"z": -0.4838482256,
				"element": "O" 
			},
			{
				"x": 0.1552591982,
				"y": 3.7666345045,
				"z": -1.7004633092,
				"element": "H" 
			},
			{
				"x": -0.8324725754,
				"y": 3.5987659589,
				"z": -0.2309704893,
				"element": "H" 
			},
			{
				"x": -1.341816241,
				"y": 2.800452655,
				"z": -1.7329734485,
				"element": "H" 
			},
			{
				"x": 0.6651808785,
				"y": 1.3346720001,
				"z": -1.6568606003,
				"element": "H" 
			},
			{
				"x": -1.1295596526,
				"y": -2.7117589117,
				"z": 2.4801201421,
				"element": "H" 
			},
			{
				"x": 0.3160606146,
				"y": -4.0898283355,
				"z": 0.9944040255,
				"element": "H" 
			},
			{
				"x": 1.4193898219,
				"y": -3.023321279,
				"z": -0.96560549,
				"element": "H" 
			},
			{
				"x": 1.0718835822,
				"y": -0.643660721,
				"z": -1.4551377959,
				"element": "H" 
			},
			{
				"x": 0.5665524564,
				"y": 1.8423082055,
				"z": 1.6367939032,
				"element": "H" 
			}
		],
		 "valence_orbital": [ 
			{
				"type": "occ",
				"energy": -0.34278,
				"method": "rhf"
			},
			{
				"type": "occ",
				"energy": -0.31635,
				"method": "rhf"
			},
			{
				"type": "occ",
				"energy": -0.28204,
				"method": "rhf"
			},
			{
				"type": "occ",
				"energy": -0.27838,
				"method": "rhf"
			},
			{
				"type": "occ",
				"energy": -0.24918,
				"method": "rhf"
			},
			{
				"type": "unocc",
				"energy": -0.04022,
				"method": "rhf"
			},
			{
				"type": "unocc",
				"energy": -0.0201,
				"method": "rhf"
			},
			{
				"type": "unocc",
				"energy": 0.002,
				"method": "rhf"
			},
			{
				"type": "unocc",
				"energy": 0.07143,
				"method": "rhf"
			},
			{
				"type": "unocc",
				"energy": 0.08002,
				"method": "rhf"
			}
		],
		"cosmo_sigma_profile": { 
			"-0.025": 0.0,
			"-0.024": 0.0,
			"-0.023": 0.0,
			"-0.022": 0.0,
			"-0.021": 0.0,
			"-0.02": 0.0,
			"-0.019": 0.0,
			"-0.018": 0.0,
			"-0.017": 0.0,
			"-0.016": 0.0,
			"-0.015": 0.0,
			"-0.014": 0.0,
			"-0.013": 0.0,
			"-0.012": 6.83717189506e-05,
			"-0.011": 0.467811574137,
			"-0.01": 2.07062894521,
			"-0.009": 3.10091172244,
			"-0.008": 3.44259269598,
			"-0.007": 8.18808934807,
			"-0.006": 13.6404895391,
			"-0.005": 18.2353384873,
			"-0.004": 16.1512262877,
			"-0.003": 16.2297322128,
			"-0.002": 16.9202935256,
			"-0.001": 15.6134335277,
			"0.0": 15.2850801999,
			"0.001": 17.4969680099,
			"0.002": 27.5806546456,
			"0.003": 25.7356673278,
			"0.004": 8.67107735922,
			"0.005": 4.03142471272,
			"0.006": 2.88253801016,
			"0.007": 3.45707351921,
			"0.008": 3.37054832577,
			"0.009": 4.01567129061,
			"0.01": 3.87647569974,
			"0.011": 5.5399743682,
			"0.012": 4.22719002857,
			"0.013": 0.789862135821,
			"0.014": 0.0,
			"0.015": 0.0,
			"0.016": 0.0,
			"0.017": 0.0,
			"0.018": 0.0,
			"0.019": 0.0,
			"0.02": 0.0,
			"0.021": 0.0,
			"0.022": 0.0,
			"0.023": 0.0,
			"0.024": 0.0,
			"0.025": 0.0
		}
	}
}
