{
	 "smiles": "COC1=C(OC)C=C2C(O)=C(C=NC2=C1)C(O)=O", 
	 "Tm": 567.15, 
	 "num_atms": 29, 
	 "gaussian": { 
		 "optdone": 1, 
		 "sigma_profile": "yes", 
		 "theory": "DFT", 
		 "functional": "B3LYP", 
		 "basiset": "6-31G**", 
		 "properties": { 
			 "R2extent": 5956.7013, 
			 "electric_dipole_moment_norm": 3.07642776772, 
			 "electric_quadrupole_moment_norm": 18.0534373223, 
			 "total_energy": -894.771776045, 
			 "HOMO_LUMO_gap": 0.16574, 
			 "cosmo_polarized_energy": -15.99, 
			 "cosmo_cavitation_energy": 33.07, 
			 "cosmo_dispersion_energy": -24.58, 
			 "cosmo_repulsion_energy": 1.86, 
			 "cosmo_total_nonelectrostatic_energy": 10.35, 
			 "SMD_solvation_energy": 6.89 
		},
		"coords": [
			{
				"x": -1.1980491096,
				"y": -2.9963144889,
				"z": -2.4371092987,
				"element": "C" 
			},
			{
				"x": -1.6459205581,
				"y": -2.1374346096,
				"z": -1.3771468683,
				"element": "O" 
			},
			{
				"x": -0.6972987112,
				"y": -1.2900304888,
				"z": -0.865971168,
				"element": "C" 
			},
			{
				"x": -0.1834660633,
				"y": -0.2092884519,
				"z": -1.6493223612,
				"element": "C" 
			},
			{
				"x": -0.5917378708,
				"y": -0.0303900636,
				"z": -2.9492437398,
				"element": "O" 
			},
			{
				"x": -1.9377957496,
				"y": 0.4435918815,
				"z": -3.0982909158,
				"element": "C" 
			},
			{
				"x": 0.7600310682,
				"y": 0.6389273087,
				"z": -1.1115654655,
				"element": "C" 
			},
			{
				"x": 1.211235397,
				"y": 0.4598808275,
				"z": 0.2171831687,
				"element": "C" 
			},
			{
				"x": 2.1852744859,
				"y": 1.3184399679,
				"z": 0.8109438079,
				"element": "C" 
			},
			{
				"x": 2.6884880722,
				"y": 2.3055099702,
				"z": 0.0810404442,
				"element": "O" 
			},
			{
				"x": 2.570125421,
				"y": 1.0817916356,
				"z": 2.1451415472,
				"element": "C" 
			},
			{
				"x": 1.9555607488,
				"y": -0.0099657337,
				"z": 2.8220853647,
				"element": "C" 
			},
			{
				"x": 1.0594342499,
				"y": -0.8181271002,
				"z": 2.3155067429,
				"element": "N" 
			},
			{
				"x": 0.6771915878,
				"y": -0.593997239,
				"z": 1.0153740974,
				"element": "C" 
			},
			{
				"x": -0.277982914,
				"y": -1.4619869645,
				"z": 0.4378613193,
				"element": "C" 
			},
			{
				"x": 3.5739134837,
				"y": 1.9727415926,
				"z": 2.7442918298,
				"element": "C" 
			},
			{
				"x": 3.9686636597,
				"y": 1.7772135922,
				"z": 4.016370459,
				"element": "O" 
			},
			{
				"x": 4.0798559837,
				"y": 2.9079139157,
				"z": 2.1236478967,
				"element": "O" 
			},
			{
				"x": -0.4144627526,
				"y": -3.6729481157,
				"z": -2.0753380456,
				"element": "H" 
			},
			{
				"x": -0.8229479756,
				"y": -2.4193645876,
				"z": -3.2869221188,
				"element": "H" 
			},
			{
				"x": -2.0685839468,
				"y": -3.5809618111,
				"z": -2.73942061,
				"element": "H" 
			},
			{
				"x": -2.0506264611,
				"y": 1.4328897649,
				"z": -2.6383115013,
				"element": "H" 
			},
			{
				"x": -2.6564896071,
				"y": -0.251587629,
				"z": -2.6536264699,
				"element": "H" 
			},
			{
				"x": -2.1151968339,
				"y": 0.522133371,
				"z": -4.1724297172,
				"element": "H" 
			},
			{
				"x": 1.1518930166,
				"y": 1.4500146312,
				"z": -1.7141914735,
				"element": "H" 
			},
			{
				"x": 3.3414508057,
				"y": 2.7814498585,
				"z": 0.6710738983,
				"element": "H" 
			},
			{
				"x": 2.2283783249,
				"y": -0.2260779861,
				"z": 3.8589652401,
				"element": "H" 
			},
			{
				"x": -0.677061238,
				"y": -2.2757269198,
				"z": 1.0324618073,
				"element": "H" 
			},
			{
				"x": 3.5145234867,
				"y": 1.0208038719,
				"z": 4.4123421302,
				"element": "H" 
			}
		],
		 "valence_orbital": [ 
			{
				"type": "occ",
				"energy": -0.28512,
				"method": "rhf"
			},
			{
				"type": "occ",
				"energy": -0.27272,
				"method": "rhf"
			},
			{
				"type": "occ",
				"energy": -0.26718,
				"method": "rhf"
			},
			{
				"type": "occ",
				"energy": -0.24866,
				"method": "rhf"
			},
			{
				"type": "occ",
				"energy": -0.23176,
				"method": "rhf"
			},
			{
				"type": "unocc",
				"energy": -0.06602,
				"method": "rhf"
			},
			{
				"type": "unocc",
				"energy": -0.04492,
				"method": "rhf"
			},
			{
				"type": "unocc",
				"energy": 0.0146,
				"method": "rhf"
			},
			{
				"type": "unocc",
				"energy": 0.02145,
				"method": "rhf"
			},
			{
				"type": "unocc",
				"energy": 0.04275,
				"method": "rhf"
			}
		],
		"cosmo_sigma_profile": { 
			"-0.025": 0.0,
			"-0.024": 0.0,
			"-0.023": 0.0,
			"-0.022": 0.0,
			"-0.021": 0.00140689686208,
			"-0.02": 0.471169049041,
			"-0.019": 1.23384911957,
			"-0.018": 1.10424162144,
			"-0.017": 1.34915711248,
			"-0.016": 0.870541119583,
			"-0.015": 0.670903711451,
			"-0.014": 0.992134977566,
			"-0.013": 1.26025132324,
			"-0.012": 1.1997833018,
			"-0.011": 0.808902927191,
			"-0.01": 1.13841925744,
			"-0.009": 1.68031388195,
			"-0.008": 1.60771958341,
			"-0.007": 2.67753728515,
			"-0.006": 8.06223484365,
			"-0.005": 13.6267652488,
			"-0.004": 22.0456853887,
			"-0.003": 27.1838701817,
			"-0.002": 24.3591040936,
			"-0.001": 22.5613056622,
			"0.0": 19.1073654975,
			"0.001": 20.5278446239,
			"0.002": 19.2887004371,
			"0.003": 9.48173086465,
			"0.004": 7.7682189773,
			"0.005": 7.20680939775,
			"0.006": 7.60197408001,
			"0.007": 7.79869776434,
			"0.008": 7.26962949476,
			"0.009": 7.00878474099,
			"0.01": 6.63703933379,
			"0.011": 4.69873432333,
			"0.012": 2.45154165206,
			"0.013": 1.28431585184,
			"0.014": 0.535351384413,
			"0.015": 0.859094422155,
			"0.016": 0.305664161286,
			"0.017": 0.0,
			"0.018": 0.0,
			"0.019": 0.0,
			"0.02": 0.0,
			"0.021": 0.0,
			"0.022": 0.0,
			"0.023": 0.0,
			"0.024": 0.0,
			"0.025": 0.0
		}
	}
}
