{
	 "smiles": "OC(=O)C1=CN(C2=CC=C(F)C=C2)C2=C(C=C(F)C(=C2)N2CCNCC2)C1=O", 
	 "Tm": 548.15, 
	 "num_atms": 45, 
	 "gaussian": { 
		 "optdone": 1, 
		 "sigma_profile": "yes", 
		 "theory": "DFT", 
		 "functional": "B3LYP", 
		 "basiset": "6-31G**", 
		 "properties": { 
			 "R2extent": 12960.17, 
			 "electric_dipole_moment_norm": 12.221318937, 
			 "electric_quadrupole_moment_norm": 40.6533005583, 
			 "total_energy": -1361.98061097, 
			 "HOMO_LUMO_gap": 0.15804, 
			 "cosmo_polarized_energy": -24.28, 
			 "cosmo_cavitation_energy": 48.68, 
			 "cosmo_dispersion_energy": -33.81, 
			 "cosmo_repulsion_energy": 2.47, 
			 "cosmo_total_nonelectrostatic_energy": 17.34, 
			 "SMD_solvation_energy": 7.57 
		},
		"coords": [
			{
				"x": -2.5124982302,
				"y": -6.0279533368,
				"z": 0.5717590626,
				"element": "O" 
			},
			{
				"x": -1.8335225927,
				"y": -5.2921046772,
				"z": 1.4542637867,
				"element": "C" 
			},
			{
				"x": -1.6350139867,
				"y": -5.6538736261,
				"z": 2.5993027374,
				"element": "O" 
			},
			{
				"x": -1.32796274,
				"y": -3.9789798303,
				"z": 0.9330390076,
				"element": "C" 
			},
			{
				"x": -0.6340208906,
				"y": -3.182900882,
				"z": 1.8009644767,
				"element": "C" 
			},
			{
				"x": -0.1176769308,
				"y": -1.9665248013,
				"z": 1.4705484022,
				"element": "N" 
			},
			{
				"x": 0.58062724,
				"y": -1.2178013081,
				"z": 2.4866947661,
				"element": "C" 
			},
			{
				"x": -0.0694210412,
				"y": -0.1724780165,
				"z": 3.1499975219,
				"element": "C" 
			},
			{
				"x": 0.5938879777,
				"y": 0.5346619804,
				"z": 4.1509708463,
				"element": "C" 
			},
			{
				"x": 1.8992960346,
				"y": 0.1737543046,
				"z": 4.4727129819,
				"element": "C" 
			},
			{
				"x": 2.541014523,
				"y": 0.8526506133,
				"z": 5.4402161477,
				"element": "F" 
			},
			{
				"x": 2.5611753461,
				"y": -0.8654075546,
				"z": 3.8270477861,
				"element": "C" 
			},
			{
				"x": 1.8924972798,
				"y": -1.562889206,
				"z": 2.8215128355,
				"element": "C" 
			},
			{
				"x": -0.2718860535,
				"y": -1.4649801767,
				"z": 0.1655241727,
				"element": "C" 
			},
			{
				"x": -0.9863459707,
				"y": -2.2396084792,
				"z": -0.7738542426,
				"element": "C" 
			},
			{
				"x": -1.1445451288,
				"y": -1.7195603206,
				"z": -2.0728344715,
				"element": "C" 
			},
			{
				"x": -0.6145961241,
				"y": -0.5050632152,
				"z": -2.4129180921,
				"element": "C" 
			},
			{
				"x": -0.863016466,
				"y": -0.0275299868,
				"z": -3.6604171788,
				"element": "F" 
			},
			{
				"x": 0.1533643502,
				"y": 0.2849011227,
				"z": -1.5041723202,
				"element": "C" 
			},
			{
				"x": 0.2930603335,
				"y": -0.2351292239,
				"z": -0.2042758552,
				"element": "C" 
			},
			{
				"x": 0.6837794963,
				"y": 1.5102493548,
				"z": -1.8375843236,
				"element": "N" 
			},
			{
				"x": 1.1017291293,
				"y": 1.9080966887,
				"z": -3.1824006304,
				"element": "C" 
			},
			{
				"x": 0.4722967194,
				"y": 3.260927468,
				"z": -3.5562791945,
				"element": "C" 
			},
			{
				"x": 0.3782779251,
				"y": 4.1097528976,
				"z": -2.3582632426,
				"element": "N" 
			},
			{
				"x": 1.4143760109,
				"y": 3.8138703378,
				"z": -1.3785421937,
				"element": "C" 
			},
			{
				"x": 1.1396918592,
				"y": 2.4196638509,
				"z": -0.7848597637,
				"element": "C" 
			},
			{
				"x": -1.5569266062,
				"y": -3.5409358885,
				"z": -0.4316264101,
				"element": "C" 
			},
			{
				"x": -2.1932598666,
				"y": -4.2258021182,
				"z": -1.2666320538,
				"element": "O" 
			},
			{
				"x": -2.54300084,
				"y": -5.5256977623,
				"z": -0.2916573586,
				"element": "H" 
			},
			{
				"x": -0.4776799952,
				"y": -3.5151359823,
				"z": 2.8213155596,
				"element": "H" 
			},
			{
				"x": -1.0911067423,
				"y": 0.0785066803,
				"z": 2.8843305824,
				"element": "H" 
			},
			{
				"x": 0.1139347278,
				"y": 1.3457762718,
				"z": 4.6870014234,
				"element": "H" 
			},
			{
				"x": 3.5768005832,
				"y": -1.1151918075,
				"z": 4.1126412811,
				"element": "H" 
			},
			{
				"x": 2.3835077613,
				"y": -2.3765941282,
				"z": 2.2976713861,
				"element": "H" 
			},
			{
				"x": -1.720236521,
				"y": -2.2861503966,
				"z": -2.7958648603,
				"element": "H" 
			},
			{
				"x": 0.8732460582,
				"y": 0.3123102304,
				"z": 0.5234697848,
				"element": "H" 
			},
			{
				"x": 2.1986786244,
				"y": 1.9851098088,
				"z": -3.1997334158,
				"element": "H" 
			},
			{
				"x": 0.8259478628,
				"y": 1.1491782589,
				"z": -3.9064816891,
				"element": "H" 
			},
			{
				"x": -0.5361370382,
				"y": 3.0996755132,
				"z": -3.9554619106,
				"element": "H" 
			},
			{
				"x": 1.0818899903,
				"y": 3.7068648465,
				"z": -4.3604948401,
				"element": "H" 
			},
			{
				"x": 0.3802116202,
				"y": 5.0920529984,
				"z": -2.6096446531,
				"element": "H" 
			},
			{
				"x": 1.3672735359,
				"y": 4.5497734603,
				"z": -0.5700546299,
				"element": "H" 
			},
			{
				"x": 2.4429918379,
				"y": 3.8559881735,
				"z": -1.7822771362,
				"element": "H" 
			},
			{
				"x": 2.0502447201,
				"y": 2.0487350276,
				"z": -0.2847361396,
				"element": "H" 
			},
			{
				"x": 0.3478522176,
				"y": 2.4929928365,
				"z": -0.0310179425,
				"element": "H" 
			}
		],
		 "valence_orbital": [ 
			{
				"type": "occ",
				"energy": -0.25651,
				"method": "rhf"
			},
			{
				"type": "occ",
				"energy": -0.24593,
				"method": "rhf"
			},
			{
				"type": "occ",
				"energy": -0.23673,
				"method": "rhf"
			},
			{
				"type": "occ",
				"energy": -0.22911,
				"method": "rhf"
			},
			{
				"type": "occ",
				"energy": -0.21314,
				"method": "rhf"
			},
			{
				"type": "unocc",
				"energy": -0.0551,
				"method": "rhf"
			},
			{
				"type": "unocc",
				"energy": -0.04714,
				"method": "rhf"
			},
			{
				"type": "unocc",
				"energy": -0.03563,
				"method": "rhf"
			},
			{
				"type": "unocc",
				"energy": -0.03223,
				"method": "rhf"
			},
			{
				"type": "unocc",
				"energy": 0.00147,
				"method": "rhf"
			}
		],
		"cosmo_sigma_profile": { 
			"-0.025": 0.0,
			"-0.024": 0.0,
			"-0.023": 0.0,
			"-0.022": 0.0,
			"-0.021": 0.0,
			"-0.02": 0.0,
			"-0.019": 0.0,
			"-0.018": 0.0,
			"-0.017": 0.0,
			"-0.016": 0.0,
			"-0.015": 0.0,
			"-0.014": 0.0,
			"-0.013": 0.0,
			"-0.012": 0.0,
			"-0.011": 0.4436418757,
			"-0.01": 1.26607506003,
			"-0.009": 1.61280641812,
			"-0.008": 8.59797071615,
			"-0.007": 12.0166444757,
			"-0.006": 15.7649885693,
			"-0.005": 21.4983449824,
			"-0.004": 33.3881046273,
			"-0.003": 41.2623594329,
			"-0.002": 36.8386894852,
			"-0.001": 32.6726717766,
			"0.0": 33.9950963523,
			"0.001": 34.285113997,
			"0.002": 26.7890829875,
			"0.003": 15.1964011844,
			"0.004": 18.7479220236,
			"0.005": 4.84332339576,
			"0.006": 4.06294638407,
			"0.007": 4.69181633301,
			"0.008": 4.16107206654,
			"0.009": 5.3789870134,
			"0.01": 5.18433580893,
			"0.011": 6.6427197023,
			"0.012": 9.03959071453,
			"0.013": 5.73689668439,
			"0.014": 2.54695491574,
			"0.015": 1.03391851841,
			"0.016": 0.398087298852,
			"0.017": 0.429396718988,
			"0.018": 0.150103183979,
			"0.019": 0.0,
			"0.02": 0.0,
			"0.021": 0.0,
			"0.022": 0.0,
			"0.023": 0.0,
			"0.024": 0.0,
			"0.025": 0.0
		}
	}
}
