{
	 "smiles": "CC1=NC2=C(C(=CS2)C2=CC=CC=C2)C(=O)N1NC(=O)C1=CC(=CC=C1)C(F)(F)F", 
	 "Tm": 409.15, 
	 "num_atms": 44, 
	 "gaussian": { 
		 "optdone": 1, 
		 "sigma_profile": "yes", 
		 "theory": "DFT", 
		 "functional": "B3LYP", 
		 "basiset": "6-31G**", 
		 "properties": { 
			 "R2extent": 17845.9129, 
			 "electric_dipole_moment_norm": 3.7519515362, 
			 "electric_quadrupole_moment_norm": 19.9698848407, 
			 "total_energy": -1821.09786128, 
			 "HOMO_LUMO_gap": 0.14577, 
			 "cosmo_polarized_energy": -16.93, 
			 "cosmo_cavitation_energy": 52.34, 
			 "cosmo_dispersion_energy": -36.59, 
			 "cosmo_repulsion_energy": 2.61, 
			 "cosmo_total_nonelectrostatic_energy": 18.36, 
			 "SMD_solvation_energy": 9.09 
		},
		"coords": [
			{
				"x": 2.6773550345,
				"y": -2.3581176407,
				"z": -1.2492898604,
				"element": "C" 
			},
			{
				"x": 2.5860681136,
				"y": -0.889303505,
				"z": -0.9722910814,
				"element": "C" 
			},
			{
				"x": 3.5551371602,
				"y": -0.094714708,
				"z": -1.3381422686,
				"element": "N" 
			},
			{
				"x": 3.4052281361,
				"y": 1.2206742458,
				"z": -1.0447094815,
				"element": "C" 
			},
			{
				"x": 2.3373889934,
				"y": 1.8274566911,
				"z": -0.378512515,
				"element": "C" 
			},
			{
				"x": 2.5187145676,
				"y": 3.2521983487,
				"z": -0.1899547984,
				"element": "C" 
			},
			{
				"x": 3.714369902,
				"y": 3.6568947309,
				"z": -0.7260476613,
				"element": "C" 
			},
			{
				"x": 4.643941666,
				"y": 2.3779885488,
				"z": -1.4536152257,
				"element": "S" 
			},
			{
				"x": 1.5944335033,
				"y": 4.2088994812,
				"z": 0.4654815959,
				"element": "C" 
			},
			{
				"x": 0.2145431617,
				"y": 4.2039118697,
				"z": 0.2052014123,
				"element": "C" 
			},
			{
				"x": -0.618158156,
				"y": 5.1589761925,
				"z": 0.7849716321,
				"element": "C" 
			},
			{
				"x": -0.0925808885,
				"y": 6.1344557027,
				"z": 1.6350889253,
				"element": "C" 
			},
			{
				"x": 1.276372592,
				"y": 6.1465041537,
				"z": 1.9055974704,
				"element": "C" 
			},
			{
				"x": 2.1113811401,
				"y": 5.1914590246,
				"z": 1.3268831781,
				"element": "C" 
			},
			{
				"x": 1.2691893221,
				"y": 0.9649814412,
				"z": 0.0656417972,
				"element": "C" 
			},
			{
				"x": 0.2683029763,
				"y": 1.2332114101,
				"z": 0.7249602829,
				"element": "O" 
			},
			{
				"x": 1.4699091576,
				"y": -0.3995750287,
				"z": -0.3272345122,
				"element": "N" 
			},
			{
				"x": 0.4406299786,
				"y": -1.2617868236,
				"z": 0.0621802027,
				"element": "N" 
			},
			{
				"x": -0.4867503854,
				"y": -1.620175575,
				"z": -0.9347467892,
				"element": "C" 
			},
			{
				"x": -0.2576038713,
				"y": -1.4633765428,
				"z": -2.1206655605,
				"element": "O" 
			},
			{
				"x": -1.7353862487,
				"y": -2.2659603548,
				"z": -0.4209807362,
				"element": "C" 
			},
			{
				"x": -2.8104107717,
				"y": -2.3636091742,
				"z": -1.3134626191,
				"element": "C" 
			},
			{
				"x": -4.0046087383,
				"y": -2.9495042847,
				"z": -0.9027476757,
				"element": "C" 
			},
			{
				"x": -4.1339350538,
				"y": -3.4543384632,
				"z": 0.3958124952,
				"element": "C" 
			},
			{
				"x": -3.0601963577,
				"y": -3.372580613,
				"z": 1.2801793479,
				"element": "C" 
			},
			{
				"x": -1.8630735326,
				"y": -2.7807782795,
				"z": 0.8770243693,
				"element": "C" 
			},
			{
				"x": -5.1842845594,
				"y": -2.9980652665,
				"z": -1.8398137956,
				"element": "C" 
			},
			{
				"x": -4.8022508312,
				"y": -2.9780310313,
				"z": -3.1327764389,
				"element": "F" 
			},
			{
				"x": -5.9242890532,
				"y": -4.1127184112,
				"z": -1.6468769038,
				"element": "F" 
			},
			{
				"x": -6.0078084167,
				"y": -1.9424820534,
				"z": -1.6499534108,
				"element": "F" 
			},
			{
				"x": 3.6798395461,
				"y": -2.5691935544,
				"z": -1.6198934893,
				"element": "H" 
			},
			{
				"x": 1.9411946188,
				"y": -2.648770194,
				"z": -2.004508008,
				"element": "H" 
			},
			{
				"x": 2.4812826695,
				"y": -2.9423362827,
				"z": -0.345324067,
				"element": "H" 
			},
			{
				"x": 4.0890129685,
				"y": 4.6703792008,
				"z": -0.761951066,
				"element": "H" 
			},
			{
				"x": -0.2056835345,
				"y": 3.4495859985,
				"z": -0.4489535008,
				"element": "H" 
			},
			{
				"x": -1.6827295981,
				"y": 5.1412140933,
				"z": 0.5697857692,
				"element": "H" 
			},
			{
				"x": -0.7459436205,
				"y": 6.8752820122,
				"z": 2.0870184751,
				"element": "H" 
			},
			{
				"x": 1.695163444,
				"y": 6.8936938554,
				"z": 2.5738255225,
				"element": "H" 
			},
			{
				"x": 3.1726974811,
				"y": 5.1900409038,
				"z": 1.5580017115,
				"element": "H" 
			},
			{
				"x": 0.0149918486,
				"y": -0.8665214967,
				"z": 0.9000433741,
				"element": "H" 
			},
			{
				"x": -2.6903453007,
				"y": -1.9831698361,
				"z": -2.3210436837,
				"element": "H" 
			},
			{
				"x": -5.064491262,
				"y": -3.9197684544,
				"z": 0.7026391678,
				"element": "H" 
			},
			{
				"x": -3.1518754128,
				"y": -3.7790612252,
				"z": 2.2822926184,
				"element": "H" 
			},
			{
				"x": -1.0247423881,
				"y": -2.7512691056,
				"z": 1.5654658013,
				"element": "H" 
			}
		],
		 "valence_orbital": [ 
			{
				"type": "occ",
				"energy": -0.27689,
				"method": "rhf"
			},
			{
				"type": "occ",
				"energy": -0.27012,
				"method": "rhf"
			},
			{
				"type": "occ",
				"energy": -0.24692,
				"method": "rhf"
			},
			{
				"type": "occ",
				"energy": -0.2437,
				"method": "rhf"
			},
			{
				"type": "occ",
				"energy": -0.21651,
				"method": "rhf"
			},
			{
				"type": "unocc",
				"energy": -0.07074,
				"method": "rhf"
			},
			{
				"type": "unocc",
				"energy": -0.04828,
				"method": "rhf"
			},
			{
				"type": "unocc",
				"energy": -0.04127,
				"method": "rhf"
			},
			{
				"type": "unocc",
				"energy": -0.02703,
				"method": "rhf"
			},
			{
				"type": "unocc",
				"energy": -0.00605,
				"method": "rhf"
			}
		],
		"cosmo_sigma_profile": { 
			"-0.025": 0.0,
			"-0.024": 0.0,
			"-0.023": 0.0,
			"-0.022": 0.0,
			"-0.021": 0.0,
			"-0.02": 0.0,
			"-0.019": 0.0,
			"-0.018": 0.0,
			"-0.017": 0.0,
			"-0.016": 0.0,
			"-0.015": 0.0,
			"-0.014": 0.260063315485,
			"-0.013": 0.821156858621,
			"-0.012": 0.844175355506,
			"-0.011": 1.08643921973,
			"-0.01": 1.28312460657,
			"-0.009": 2.53017773203,
			"-0.008": 6.08733673625,
			"-0.007": 9.23049364573,
			"-0.006": 17.7869445573,
			"-0.005": 25.2046998017,
			"-0.004": 28.269032507,
			"-0.003": 32.6151667059,
			"-0.002": 31.5035847927,
			"-0.001": 31.5232389243,
			"0.0": 35.5980198471,
			"0.001": 43.646022039,
			"0.002": 49.0639897557,
			"0.003": 42.3348685627,
			"0.004": 13.9524165853,
			"0.005": 11.8378644829,
			"0.006": 9.82746992444,
			"0.007": 4.45838268615,
			"0.008": 3.50207424284,
			"0.009": 4.64971059195,
			"0.01": 4.35228088933,
			"0.011": 7.11486521083,
			"0.012": 4.05572616866,
			"0.013": 0.478647125216,
			"0.014": 0.0,
			"0.015": 0.0,
			"0.016": 0.0,
			"0.017": 0.0,
			"0.018": 0.0,
			"0.019": 0.0,
			"0.02": 0.0,
			"0.021": 0.0,
			"0.022": 0.0,
			"0.023": 0.0,
			"0.024": 0.0,
			"0.025": 0.0
		}
	}
}
