{
	 "smiles": "COC(=O)CCC1=CC=C2NC(=O)CCC2=C1", 
	 "Tm": 407.15, 
	 "num_atms": 32, 
	 "gaussian": { 
		 "optdone": 1, 
		 "sigma_profile": "yes", 
		 "theory": "DFT", 
		 "functional": "B3LYP", 
		 "basiset": "6-31G**", 
		 "properties": { 
			 "R2extent": 7107.2707, 
			 "electric_dipole_moment_norm": 3.0787546216, 
			 "electric_quadrupole_moment_norm": 23.9030218546, 
			 "total_energy": -784.894220835, 
			 "HOMO_LUMO_gap": 0.20132, 
			 "cosmo_polarized_energy": -16.27, 
			 "cosmo_cavitation_energy": 35.94, 
			 "cosmo_dispersion_energy": -25.89, 
			 "cosmo_repulsion_energy": 2.03, 
			 "cosmo_total_nonelectrostatic_energy": 12.08, 
			 "SMD_solvation_energy": 7.56 
		},
		"coords": [
			{
				"x": -2.3286320254,
				"y": 0.115270411,
				"z": -5.3686111323,
				"element": "C" 
			},
			{
				"x": -1.5675992164,
				"y": -0.1724851169,
				"z": -4.1840486951,
				"element": "O" 
			},
			{
				"x": -2.1498814818,
				"y": 0.1931256799,
				"z": -3.0192606846,
				"element": "C" 
			},
			{
				"x": -3.2361421193,
				"y": 0.7275597773,
				"z": -2.9537649156,
				"element": "O" 
			},
			{
				"x": -1.2640281825,
				"y": -0.1562814965,
				"z": -1.8396060276,
				"element": "C" 
			},
			{
				"x": -1.8868434734,
				"y": 0.2392020089,
				"z": -0.4911983816,
				"element": "C" 
			},
			{
				"x": -0.9967113637,
				"y": -0.1108781653,
				"z": 0.6815297986,
				"element": "C" 
			},
			{
				"x": -1.0893883129,
				"y": -1.3559999843,
				"z": 1.3152547984,
				"element": "C" 
			},
			{
				"x": -0.2407974848,
				"y": -1.6955262506,
				"z": 2.3672555765,
				"element": "C" 
			},
			{
				"x": 0.7165526219,
				"y": -0.7802219965,
				"z": 2.8145594125,
				"element": "C" 
			},
			{
				"x": 1.57369615,
				"y": -1.0976843328,
				"z": 3.8833382902,
				"element": "N" 
			},
			{
				"x": 2.7473278488,
				"y": -0.4398245724,
				"z": 4.1982988739,
				"element": "C" 
			},
			{
				"x": 3.4574975016,
				"y": -0.8096765284,
				"z": 5.1196442095,
				"element": "O" 
			},
			{
				"x": 3.077888996,
				"y": 0.7299795419,
				"z": 3.2817463135,
				"element": "C" 
			},
			{
				"x": 1.8228165638,
				"y": 1.4610903096,
				"z": 2.782021678,
				"element": "C" 
			},
			{
				"x": 0.8200772487,
				"y": 0.4855742571,
				"z": 2.20974737,
				"element": "C" 
			},
			{
				"x": -0.0313703926,
				"y": 0.791918084,
				"z": 1.1494448084,
				"element": "C" 
			},
			{
				"x": -1.7221982991,
				"y": -0.2391370606,
				"z": -6.2020947206,
				"element": "H" 
			},
			{
				"x": -2.5128162916,
				"y": 1.1889220612,
				"z": -5.4579821696,
				"element": "H" 
			},
			{
				"x": -3.2898332765,
				"y": -0.4045323816,
				"z": -5.3457957129,
				"element": "H" 
			},
			{
				"x": -1.0544516491,
				"y": -1.2321811195,
				"z": -1.8759200827,
				"element": "H" 
			},
			{
				"x": -0.293583791,
				"y": 0.3339514798,
				"z": -1.9839026791,
				"element": "H" 
			},
			{
				"x": -2.0969094988,
				"y": 1.3137140199,
				"z": -0.50134443,
				"element": "H" 
			},
			{
				"x": -2.8575643708,
				"y": -0.2571465383,
				"z": -0.391606926,
				"element": "H" 
			},
			{
				"x": -1.8338734799,
				"y": -2.074572337,
				"z": 0.9815108255,
				"element": "H" 
			},
			{
				"x": -0.3198241169,
				"y": -2.6701214793,
				"z": 2.8423514211,
				"element": "H" 
			},
			{
				"x": 1.3942787335,
				"y": -1.9310512404,
				"z": 4.4287920729,
				"element": "H" 
			},
			{
				"x": 3.6366243093,
				"y": 0.3206030709,
				"z": 2.4287691044,
				"element": "H" 
			},
			{
				"x": 3.754653411,
				"y": 1.3919628148,
				"z": 3.825572039,
				"element": "H" 
			},
			{
				"x": 2.0918030493,
				"y": 2.2192069631,
				"z": 2.0397018221,
				"element": "H" 
			},
			{
				"x": 1.3638711731,
				"y": 1.9993373701,
				"z": 3.6243568748,
				"element": "H" 
			},
			{
				"x": 0.0505612194,
				"y": 1.771902751,
				"z": 0.6825412683,
				"element": "H" 
			}
		],
		 "valence_orbital": [ 
			{
				"type": "occ",
				"energy": -0.30103,
				"method": "rhf"
			},
			{
				"type": "occ",
				"energy": -0.2742,
				"method": "rhf"
			},
			{
				"type": "occ",
				"energy": -0.25314,
				"method": "rhf"
			},
			{
				"type": "occ",
				"energy": -0.25157,
				"method": "rhf"
			},
			{
				"type": "occ",
				"energy": -0.21512,
				"method": "rhf"
			},
			{
				"type": "unocc",
				"energy": -0.0138,
				"method": "rhf"
			},
			{
				"type": "unocc",
				"energy": -0.01004,
				"method": "rhf"
			},
			{
				"type": "unocc",
				"energy": 0.01185,
				"method": "rhf"
			},
			{
				"type": "unocc",
				"energy": 0.03581,
				"method": "rhf"
			},
			{
				"type": "unocc",
				"energy": 0.08697,
				"method": "rhf"
			}
		],
		"cosmo_sigma_profile": { 
			"-0.025": 0.0,
			"-0.024": 0.0,
			"-0.023": 0.0,
			"-0.022": 0.0,
			"-0.021": 0.0,
			"-0.02": 0.0,
			"-0.019": 0.0,
			"-0.018": 0.0,
			"-0.017": 0.0,
			"-0.016": 0.0,
			"-0.015": 0.217725636355,
			"-0.014": 1.27690447371,
			"-0.013": 0.67333581156,
			"-0.012": 1.02315118241,
			"-0.011": 1.50214883329,
			"-0.01": 1.46881655867,
			"-0.009": 0.667400371464,
			"-0.008": 1.4951800971,
			"-0.007": 2.21021321833,
			"-0.006": 10.333390799,
			"-0.005": 27.3804274324,
			"-0.004": 37.032397402,
			"-0.003": 34.6571581171,
			"-0.002": 24.5371612799,
			"-0.001": 18.6847120183,
			"0.0": 15.4155888559,
			"0.001": 12.844280042,
			"0.002": 13.2930803457,
			"0.003": 11.8082690356,
			"0.004": 10.1929227817,
			"0.005": 11.5518200601,
			"0.006": 7.24102955852,
			"0.007": 3.82013701326,
			"0.008": 4.94787620717,
			"0.009": 3.53387755241,
			"0.01": 3.43109226402,
			"0.011": 4.51279292192,
			"0.012": 6.65100986458,
			"0.013": 6.2648468762,
			"0.014": 4.01242022401,
			"0.015": 0.517904173487,
			"0.016": 0.0,
			"0.017": 0.0,
			"0.018": 0.0,
			"0.019": 0.0,
			"0.02": 0.0,
			"0.021": 0.0,
			"0.022": 0.0,
			"0.023": 0.0,
			"0.024": 0.0,
			"0.025": 0.0
		}
	}
}
