{
	 "smiles": "OC(=O)CSCC1=CSC=N1", 
	 "Tm": 372.15, 
	 "num_atms": 18, 
	 "gaussian": { 
		 "optdone": 1, 
		 "sigma_profile": "yes", 
		 "theory": "DFT", 
		 "functional": "B3LYP", 
		 "basiset": "6-31G**", 
		 "properties": { 
			 "R2extent": 4256.545, 
			 "electric_dipole_moment_norm": 5.30872608919, 
			 "electric_quadrupole_moment_norm": 12.7353032975, 
			 "total_energy": -1234.42592912, 
			 "HOMO_LUMO_gap": 0.20059, 
			 "cosmo_polarized_energy": -15.1, 
			 "cosmo_cavitation_energy": 25.7, 
			 "cosmo_dispersion_energy": -19.63, 
			 "cosmo_repulsion_energy": 1.5, 
			 "cosmo_total_nonelectrostatic_energy": 7.57, 
			 "SMD_solvation_energy": 4.7 
		},
		"coords": [
			{
				"x": -0.3020423564,
				"y": -1.3134999155,
				"z": -1.459507845,
				"element": "O" 
			},
			{
				"x": -0.766278946,
				"y": -0.8174658892,
				"z": -0.2970237871,
				"element": "C" 
			},
			{
				"x": -1.4886529982,
				"y": -1.4545264852,
				"z": 0.428837676,
				"element": "O" 
			},
			{
				"x": -0.3536954555,
				"y": 0.6192478283,
				"z": 0.0578393252,
				"element": "C" 
			},
			{
				"x": 0.9989113896,
				"y": 1.3472434325,
				"z": -0.9445763784,
				"element": "S" 
			},
			{
				"x": 2.4786728393,
				"y": 0.5569540099,
				"z": -0.1535661661,
				"element": "C" 
			},
			{
				"x": 2.86907132,
				"y": 1.1618558281,
				"z": 1.159693463,
				"element": "C" 
			},
			{
				"x": 3.9785558175,
				"y": 1.9315564217,
				"z": 1.386930667,
				"element": "C" 
			},
			{
				"x": 4.0418039281,
				"y": 2.4194223807,
				"z": 3.0463092821,
				"element": "S" 
			},
			{
				"x": 2.5552237395,
				"y": 1.5451470084,
				"z": 3.314997571,
				"element": "C" 
			},
			{
				"x": 2.0691391687,
				"y": 0.9493894389,
				"z": 2.2672897483,
				"element": "N" 
			},
			{
				"x": 0.2439411074,
				"y": -0.6238890949,
				"z": -1.8880160854,
				"element": "H" 
			},
			{
				"x": -0.0871906266,
				"y": 0.6522876134,
				"z": 1.1159983045,
				"element": "H" 
			},
			{
				"x": -1.2240928716,
				"y": 1.2660957656,
				"z": -0.090010967,
				"element": "H" 
			},
			{
				"x": 2.2707803442,
				"y": -0.5113381794,
				"z": -0.0435563357,
				"element": "H" 
			},
			{
				"x": 3.2819302493,
				"y": 0.6718558734,
				"z": -0.8845871466,
				"element": "H" 
			},
			{
				"x": 4.7421752606,
				"y": 2.2327626665,
				"z": 0.684163263,
				"element": "H" 
			},
			{
				"x": 2.0995480904,
				"y": 1.5164012966,
				"z": 4.2974854112,
				"element": "H" 
			}
		],
		 "valence_orbital": [ 
			{
				"type": "occ",
				"energy": -0.30168,
				"method": "rhf"
			},
			{
				"type": "occ",
				"energy": -0.29466,
				"method": "rhf"
			},
			{
				"type": "occ",
				"energy": -0.28053,
				"method": "rhf"
			},
			{
				"type": "occ",
				"energy": -0.26165,
				"method": "rhf"
			},
			{
				"type": "occ",
				"energy": -0.24514,
				"method": "rhf"
			},
			{
				"type": "unocc",
				"energy": -0.04455,
				"method": "rhf"
			},
			{
				"type": "unocc",
				"energy": -0.00167,
				"method": "rhf"
			},
			{
				"type": "unocc",
				"energy": 0.00498,
				"method": "rhf"
			},
			{
				"type": "unocc",
				"energy": 0.01165,
				"method": "rhf"
			},
			{
				"type": "unocc",
				"energy": 0.03731,
				"method": "rhf"
			}
		],
		"cosmo_sigma_profile": { 
			"-0.025": 0.0,
			"-0.024": 0.0,
			"-0.023": 0.0,
			"-0.022": 0.0,
			"-0.021": 0.0,
			"-0.02": 0.0,
			"-0.019": 0.0,
			"-0.018": 0.0,
			"-0.017": 0.0,
			"-0.016": 0.0,
			"-0.015": 0.0,
			"-0.014": 0.0,
			"-0.013": 0.139975901027,
			"-0.012": 0.584094823048,
			"-0.011": 0.515055564959,
			"-0.01": 2.95956046417,
			"-0.009": 9.43658439953,
			"-0.008": 11.241258062,
			"-0.007": 11.8804391814,
			"-0.006": 10.9315579354,
			"-0.005": 8.78604990092,
			"-0.004": 11.482549561,
			"-0.003": 10.5603800552,
			"-0.002": 6.91574469348,
			"-0.001": 11.8979462714,
			"0.0": 13.338397032,
			"0.001": 16.4312157552,
			"0.002": 17.6938106018,
			"0.003": 11.335674062,
			"0.004": 7.86955002338,
			"0.005": 7.20450147357,
			"0.006": 5.58009076,
			"0.007": 4.65889376376,
			"0.008": 4.22129073321,
			"0.009": 5.03524768208,
			"0.01": 6.12118223525,
			"0.011": 5.07599509221,
			"0.012": 5.87034962976,
			"0.013": 1.92139262015,
			"0.014": 0.0225528912337,
			"0.015": 0.0,
			"0.016": 0.0,
			"0.017": 0.0,
			"0.018": 0.0,
			"0.019": 0.0,
			"0.02": 0.0,
			"0.021": 0.0,
			"0.022": 0.0,
			"0.023": 0.0,
			"0.024": 0.0,
			"0.025": 0.0
		}
	}
}
