{
	 "smiles": "OC(=O)CCOC1=CC=C(F)C=C1", 
	 "Tm": 358.15, 
	 "num_atms": 22, 
	 "gaussian": { 
		 "optdone": 1, 
		 "sigma_profile": "yes", 
		 "theory": "DFT", 
		 "functional": "B3LYP", 
		 "basiset": "6-31G**", 
		 "properties": { 
			 "R2extent": 3120.2737, 
			 "electric_dipole_moment_norm": 2.84018958874, 
			 "electric_quadrupole_moment_norm": 4.10233603207, 
			 "total_energy": -673.888973285, 
			 "HOMO_LUMO_gap": 0.22109, 
			 "cosmo_polarized_energy": -11.5, 
			 "cosmo_cavitation_energy": 27.0, 
			 "cosmo_dispersion_energy": -19.21, 
			 "cosmo_repulsion_energy": 1.51, 
			 "cosmo_total_nonelectrostatic_energy": 9.31, 
			 "SMD_solvation_energy": 6.32 
		},
		"coords": [
			{
				"x": -2.5095607447,
				"y": -0.5847150122,
				"z": 3.301907803,
				"element": "O" 
			},
			{
				"x": -1.1994192646,
				"y": -0.4592914702,
				"z": 2.98044827,
				"element": "C" 
			},
			{
				"x": -0.3696574382,
				"y": -1.2843544508,
				"z": 3.2947383129,
				"element": "O" 
			},
			{
				"x": -0.937625253,
				"y": 0.8031709847,
				"z": 2.1887486784,
				"element": "C" 
			},
			{
				"x": -1.5853153268,
				"y": 0.7491260404,
				"z": 0.7962334169,
				"element": "C" 
			},
			{
				"x": -1.1692095428,
				"y": -0.3928367815,
				"z": 0.0462378112,
				"element": "O" 
			},
			{
				"x": 0.1023337772,
				"y": -0.3340930211,
				"z": -0.4992688193,
				"element": "C" 
			},
			{
				"x": 1.1553705434,
				"y": -1.0106805838,
				"z": 0.1242602202,
				"element": "C" 
			},
			{
				"x": 2.4238331294,
				"y": -1.0062689239,
				"z": -0.457803689,
				"element": "C" 
			},
			{
				"x": 2.6153081013,
				"y": -0.3191296343,
				"z": -1.6513240688,
				"element": "C" 
			},
			{
				"x": 3.8428525582,
				"y": -0.3125768463,
				"z": -2.215252503,
				"element": "F" 
			},
			{
				"x": 1.5799838754,
				"y": 0.3599041872,
				"z": -2.2851546176,
				"element": "C" 
			},
			{
				"x": 0.3129736562,
				"y": 0.3478039542,
				"z": -1.7019238262,
				"element": "C" 
			},
			{
				"x": -2.5948850458,
				"y": -1.4324730667,
				"z": 3.7698255219,
				"element": "H" 
			},
			{
				"x": -1.35315027,
				"y": 1.6602286575,
				"z": 2.7311132899,
				"element": "H" 
			},
			{
				"x": 0.1436688333,
				"y": 0.9289730867,
				"z": 2.1087665871,
				"element": "H" 
			},
			{
				"x": -2.6699401964,
				"y": 0.6569748724,
				"z": 0.8908661934,
				"element": "H" 
			},
			{
				"x": -1.3574632216,
				"y": 1.6748010208,
				"z": 0.2509981893,
				"element": "H" 
			},
			{
				"x": 0.9704538664,
				"y": -1.5277644739,
				"z": 1.0601001741,
				"element": "H" 
			},
			{
				"x": 3.2586690659,
				"y": -1.5239517387,
				"z": 0.0021220847,
				"element": "H" 
			},
			{
				"x": 1.7703649961,
				"y": 0.8751624277,
				"z": -3.2204167304,
				"element": "H" 
			},
			{
				"x": -0.520786099,
				"y": 0.8492907717,
				"z": -2.1834222988,
				"element": "H" 
			}
		],
		 "valence_orbital": [ 
			{
				"type": "occ",
				"energy": -0.32264,
				"method": "rhf"
			},
			{
				"type": "occ",
				"energy": -0.28762,
				"method": "rhf"
			},
			{
				"type": "occ",
				"energy": -0.27506,
				"method": "rhf"
			},
			{
				"type": "occ",
				"energy": -0.26079,
				"method": "rhf"
			},
			{
				"type": "occ",
				"energy": -0.23387,
				"method": "rhf"
			},
			{
				"type": "unocc",
				"energy": -0.01278,
				"method": "rhf"
			},
			{
				"type": "unocc",
				"energy": 0.00047,
				"method": "rhf"
			},
			{
				"type": "unocc",
				"energy": 0.00528,
				"method": "rhf"
			},
			{
				"type": "unocc",
				"energy": 0.07125,
				"method": "rhf"
			},
			{
				"type": "unocc",
				"energy": 0.08885,
				"method": "rhf"
			}
		],
		"cosmo_sigma_profile": { 
			"-0.025": 0.0,
			"-0.024": 0.0,
			"-0.023": 0.0,
			"-0.022": 0.0,
			"-0.021": 0.0,
			"-0.02": 0.0,
			"-0.019": 0.0264944672021,
			"-0.018": 0.853183817641,
			"-0.017": 1.02599591632,
			"-0.016": 0.492503859589,
			"-0.015": 1.02401187993,
			"-0.014": 0.815713922955,
			"-0.013": 0.226579266671,
			"-0.012": 0.781980031462,
			"-0.011": 0.893677946876,
			"-0.01": 0.953690891167,
			"-0.009": 0.333448209781,
			"-0.008": 0.800533638249,
			"-0.007": 7.75389556226,
			"-0.006": 13.4826658936,
			"-0.005": 16.313749841,
			"-0.004": 17.2571931761,
			"-0.003": 14.2769582295,
			"-0.002": 11.6695430225,
			"-0.001": 7.6373561279,
			"0.0": 10.9019420926,
			"0.001": 16.340025744,
			"0.002": 16.1750561472,
			"0.003": 20.4023684802,
			"0.004": 19.4582931505,
			"0.005": 8.06348417992,
			"0.006": 4.32331534438,
			"0.007": 4.07797508583,
			"0.008": 4.07262454794,
			"0.009": 2.9783436819,
			"0.01": 3.10080782885,
			"0.011": 5.30469766791,
			"0.012": 2.92387575169,
			"0.013": 0.0030223344029,
			"0.014": 0.0,
			"0.015": 0.0,
			"0.016": 0.0,
			"0.017": 0.0,
			"0.018": 0.0,
			"0.019": 0.0,
			"0.02": 0.0,
			"0.021": 0.0,
			"0.022": 0.0,
			"0.023": 0.0,
			"0.024": 0.0,
			"0.025": 0.0
		}
	}
}
