{
	 "smiles": "FC1=C(C=CC=C1)S(=O)(=O)NCC=C", 
	 "Tm": 374.15, 
	 "num_atms": 24, 
	 "gaussian": { 
		 "optdone": 1, 
		 "sigma_profile": "yes", 
		 "theory": "DFT", 
		 "functional": "B3LYP", 
		 "basiset": "6-31G**", 
		 "properties": { 
			 "R2extent": 3354.0868, 
			 "electric_dipole_moment_norm": 4.02602097113, 
			 "electric_quadrupole_moment_norm": 19.9073789643, 
			 "total_energy": -1052.10513826, 
			 "HOMO_LUMO_gap": 0.21844, 
			 "cosmo_polarized_energy": -12.84, 
			 "cosmo_cavitation_energy": 29.95, 
			 "cosmo_dispersion_energy": -21.73, 
			 "cosmo_repulsion_energy": 1.65, 
			 "cosmo_total_nonelectrostatic_energy": 9.87, 
			 "SMD_solvation_energy": 5.05 
		},
		"coords": [
			{
				"x": -1.5047956738,
				"y": 1.1306562928,
				"z": -0.2038140581,
				"element": "F" 
			},
			{
				"x": -0.4263870892,
				"y": 1.8832848777,
				"z": 0.0890225638,
				"element": "C" 
			},
			{
				"x": 0.6764752943,
				"y": 1.2966625236,
				"z": 0.7106423651,
				"element": "C" 
			},
			{
				"x": 1.794230648,
				"y": 2.0818561352,
				"z": 0.9997417826,
				"element": "C" 
			},
			{
				"x": 1.798963714,
				"y": 3.4365671417,
				"z": 0.6657332285,
				"element": "C" 
			},
			{
				"x": 0.686632486,
				"y": 4.0056431364,
				"z": 0.0425793584,
				"element": "C" 
			},
			{
				"x": -0.4351796074,
				"y": 3.2282809382,
				"z": -0.2527160875,
				"element": "C" 
			},
			{
				"x": 0.6636618366,
				"y": -0.4294089964,
				"z": 1.2067848106,
				"element": "S" 
			},
			{
				"x": -0.4752628505,
				"y": -0.6347085571,
				"z": 2.1029795218,
				"element": "O" 
			},
			{
				"x": 2.0355601545,
				"y": -0.7510133739,
				"z": 1.615620203,
				"element": "O" 
			},
			{
				"x": 0.3810829403,
				"y": -1.2511355099,
				"z": -0.2348238384,
				"element": "N" 
			},
			{
				"x": -0.8810091272,
				"y": -1.999011185,
				"z": -0.4114735537,
				"element": "C" 
			},
			{
				"x": -1.0654143354,
				"y": -2.3127826598,
				"z": -1.8696459769,
				"element": "C" 
			},
			{
				"x": -1.199488567,
				"y": -3.5463748339,
				"z": -2.3558381391,
				"element": "C" 
			},
			{
				"x": 2.6449989208,
				"y": 1.613137214,
				"z": 1.4816157089,
				"element": "H" 
			},
			{
				"x": 2.6690087676,
				"y": 4.0440823609,
				"z": 0.8921691191,
				"element": "H" 
			},
			{
				"x": 0.6877112198,
				"y": 5.0593006074,
				"z": -0.2190680959,
				"element": "H" 
			},
			{
				"x": -1.3110699861,
				"y": 3.6431077487,
				"z": -0.7394200438,
				"element": "H" 
			},
			{
				"x": 1.2157861503,
				"y": -1.7821615479,
				"z": -0.4682991585,
				"element": "H" 
			},
			{
				"x": -0.9040967814,
				"y": -2.9167731944,
				"z": 0.1891707438,
				"element": "H" 
			},
			{
				"x": -1.6863054277,
				"y": -1.3524894293,
				"z": -0.0542410377,
				"element": "H" 
			},
			{
				"x": -1.0851795815,
				"y": -1.4512788246,
				"z": -2.5353636331,
				"element": "H" 
			},
			{
				"x": -1.1742414268,
				"y": -4.4200417802,
				"z": -1.7085223911,
				"element": "H" 
			},
			{
				"x": -1.3499816779,
				"y": -3.7289990842,
				"z": -3.4155333917,
				"element": "H" 
			}
		],
		 "valence_orbital": [ 
			{
				"type": "occ",
				"energy": -0.30631,
				"method": "rhf"
			},
			{
				"type": "occ",
				"energy": -0.2895,
				"method": "rhf"
			},
			{
				"type": "occ",
				"energy": -0.27501,
				"method": "rhf"
			},
			{
				"type": "occ",
				"energy": -0.26695,
				"method": "rhf"
			},
			{
				"type": "occ",
				"energy": -0.2588,
				"method": "rhf"
			},
			{
				"type": "unocc",
				"energy": -0.04036,
				"method": "rhf"
			},
			{
				"type": "unocc",
				"energy": -0.01964,
				"method": "rhf"
			},
			{
				"type": "unocc",
				"energy": 0.00211,
				"method": "rhf"
			},
			{
				"type": "unocc",
				"energy": 0.05286,
				"method": "rhf"
			},
			{
				"type": "unocc",
				"energy": 0.07183,
				"method": "rhf"
			}
		],
		"cosmo_sigma_profile": { 
			"-0.025": 0.0,
			"-0.024": 0.0,
			"-0.023": 0.0,
			"-0.022": 0.0,
			"-0.021": 0.0,
			"-0.02": 0.0,
			"-0.019": 0.0,
			"-0.018": 0.0,
			"-0.017": 0.0,
			"-0.016": 0.0,
			"-0.015": 0.175539340122,
			"-0.014": 1.04183361773,
			"-0.013": 0.727778009263,
			"-0.012": 0.720025063004,
			"-0.011": 0.959078718737,
			"-0.01": 0.786177008352,
			"-0.009": 1.06031035433,
			"-0.008": 3.80558635935,
			"-0.007": 8.6921070059,
			"-0.006": 12.4856748882,
			"-0.005": 18.7311716788,
			"-0.004": 14.9199249965,
			"-0.003": 16.5955160189,
			"-0.002": 15.4558375725,
			"-0.001": 19.2015801087,
			"0.0": 18.5214901892,
			"0.001": 20.7189815858,
			"0.002": 20.2605864257,
			"0.003": 15.6851010412,
			"0.004": 8.37902037368,
			"0.005": 6.68353675881,
			"0.006": 4.78870092742,
			"0.007": 3.56380956013,
			"0.008": 3.74570099918,
			"0.009": 3.7801866612,
			"0.01": 8.84995727688,
			"0.011": 7.98425731791,
			"0.012": 1.06447742446,
			"0.013": 0.0,
			"0.014": 0.0,
			"0.015": 0.0,
			"0.016": 0.0,
			"0.017": 0.0,
			"0.018": 0.0,
			"0.019": 0.0,
			"0.02": 0.0,
			"0.021": 0.0,
			"0.022": 0.0,
			"0.023": 0.0,
			"0.024": 0.0,
			"0.025": 0.0
		}
	}
}
