{
	 "smiles": "OC(=O)C=CC1=CC=C(Cl)S1", 
	 "Tm": 472.15, 
	 "num_atms": 16, 
	 "gaussian": { 
		 "optdone": 1, 
		 "sigma_profile": "yes", 
		 "theory": "DFT", 
		 "functional": "B3LYP", 
		 "basiset": "6-31G**", 
		 "properties": { 
			 "R2extent": 3346.4507, 
			 "electric_dipole_moment_norm": 0.956360868083, 
			 "electric_quadrupole_moment_norm": 4.3388121727, 
			 "total_energy": -1278.56341766, 
			 "HOMO_LUMO_gap": 0.14855, 
			 "cosmo_polarized_energy": -7.98, 
			 "cosmo_cavitation_energy": 24.59, 
			 "cosmo_dispersion_energy": -18.94, 
			 "cosmo_repulsion_energy": 1.48, 
			 "cosmo_total_nonelectrostatic_energy": 7.12, 
			 "SMD_solvation_energy": 4.97 
		},
		"coords": [
			{
				"x": 1.6822782944,
				"y": -3.0784572433,
				"z": -2.8119937152,
				"element": "O" 
			},
			{
				"x": 1.1814980622,
				"y": -1.9251390685,
				"z": -2.2925955478,
				"element": "C" 
			},
			{
				"x": 0.7405848385,
				"y": -1.0479112809,
				"z": -3.0184720477,
				"element": "O" 
			},
			{
				"x": 1.2688993695,
				"y": -1.944882449,
				"z": -0.8286484598,
				"element": "C" 
			},
			{
				"x": 0.8824527649,
				"y": -0.9963245148,
				"z": 0.0629651388,
				"element": "C" 
			},
			{
				"x": 0.2774239403,
				"y": 0.3083305317,
				"z": -0.07218033,
				"element": "C" 
			},
			{
				"x": -0.1272264178,
				"y": 1.0622913194,
				"z": -1.1602871897,
				"element": "C" 
			},
			{
				"x": -0.6835994893,
				"y": 2.3178718111,
				"z": -0.8112041884,
				"element": "C" 
			},
			{
				"x": -0.7034226186,
				"y": 2.522014513,
				"z": 0.5458820311,
				"element": "C" 
			},
			{
				"x": -1.2994416531,
				"y": 3.9202491038,
				"z": 1.3690901514,
				"element": "Cl" 
			},
			{
				"x": -0.0433747524,
				"y": 1.1860923201,
				"z": 1.4286811031,
				"element": "S" 
			},
			{
				"x": 1.592137097,
				"y": -2.9943021617,
				"z": -3.7753821547,
				"element": "H" 
			},
			{
				"x": 1.7060370918,
				"y": -2.8519458843,
				"z": -0.4251301078,
				"element": "H" 
			},
			{
				"x": 1.0663417959,
				"y": -1.275802787,
				"z": 1.100101083,
				"element": "H" 
			},
			{
				"x": -0.0149507178,
				"y": 0.697229514,
				"z": -2.1716987732,
				"element": "H" 
			},
			{
				"x": -1.0548376053,
				"y": 3.0433862764,
				"z": -1.5243269929,
				"element": "H" 
			}
		],
		 "valence_orbital": [ 
			{
				"type": "occ",
				"energy": -0.32074,
				"method": "rhf"
			},
			{
				"type": "occ",
				"energy": -0.3026,
				"method": "rhf"
			},
			{
				"type": "occ",
				"energy": -0.27736,
				"method": "rhf"
			},
			{
				"type": "occ",
				"energy": -0.26986,
				"method": "rhf"
			},
			{
				"type": "occ",
				"energy": -0.22766,
				"method": "rhf"
			},
			{
				"type": "unocc",
				"energy": -0.07911,
				"method": "rhf"
			},
			{
				"type": "unocc",
				"energy": -0.00587,
				"method": "rhf"
			},
			{
				"type": "unocc",
				"energy": -0.00132,
				"method": "rhf"
			},
			{
				"type": "unocc",
				"energy": 0.01725,
				"method": "rhf"
			},
			{
				"type": "unocc",
				"energy": 0.05109,
				"method": "rhf"
			}
		],
		"cosmo_sigma_profile": { 
			"-0.025": 0.0,
			"-0.024": 0.0,
			"-0.023": 0.0,
			"-0.022": 0.0,
			"-0.021": 0.0,
			"-0.02": 0.0,
			"-0.019": 0.0,
			"-0.018": 0.415214223664,
			"-0.017": 0.990482936305,
			"-0.016": 0.468092167189,
			"-0.015": 1.31286117315,
			"-0.014": 0.577905159939,
			"-0.013": 0.447591051486,
			"-0.012": 0.497400410588,
			"-0.011": 1.17205058386,
			"-0.01": 0.685635291334,
			"-0.009": 1.94760501112,
			"-0.008": 4.57046434059,
			"-0.007": 6.4474110426,
			"-0.006": 6.35228338039,
			"-0.005": 6.04989332663,
			"-0.004": 6.89826042308,
			"-0.003": 9.19492060057,
			"-0.002": 12.1743293343,
			"-0.001": 15.3063845578,
			"0.0": 20.5117259904,
			"0.001": 26.9547380077,
			"0.002": 29.6085340235,
			"0.003": 24.0772478669,
			"0.004": 5.01163468909,
			"0.005": 3.05649308156,
			"0.006": 2.30403369629,
			"0.007": 2.96724284043,
			"0.008": 3.56701980888,
			"0.009": 2.56366851218,
			"0.01": 2.83188343217,
			"0.011": 1.83592801472,
			"0.012": 1.56816090107,
			"0.013": 0.137468519585,
			"0.014": 0.0,
			"0.015": 0.0,
			"0.016": 0.0,
			"0.017": 0.0,
			"0.018": 0.0,
			"0.019": 0.0,
			"0.02": 0.0,
			"0.021": 0.0,
			"0.022": 0.0,
			"0.023": 0.0,
			"0.024": 0.0,
			"0.025": 0.0
		}
	}
}
