{
	 "smiles": "COC1=CC=C(NC(C)=O)C(=C1)[N+]([O-])=O", 
	 "Tm": 390.65, 
	 "num_atms": 25, 
	 "gaussian": { 
		 "optdone": 1, 
		 "sigma_profile": "yes", 
		 "theory": "DFT", 
		 "functional": "B3LYP", 
		 "basiset": "6-31G**", 
		 "properties": { 
			 "R2extent": 4078.5287, 
			 "electric_dipole_moment_norm": 7.63950073041, 
			 "electric_quadrupole_moment_norm": 11.6888720003, 
			 "total_energy": -759.281385063, 
			 "HOMO_LUMO_gap": 0.13053, 
			 "cosmo_polarized_energy": -16.18, 
			 "cosmo_cavitation_energy": 29.73, 
			 "cosmo_dispersion_energy": -21.71, 
			 "cosmo_repulsion_energy": 1.69, 
			 "cosmo_total_nonelectrostatic_energy": 9.72, 
			 "SMD_solvation_energy": 8.78 
		},
		"coords": [
			{
				"x": -2.9148023174,
				"y": 1.1539826994,
				"z": -2.4596394464,
				"element": "C" 
			},
			{
				"x": -2.4183785256,
				"y": -0.050231026,
				"z": -1.8921464794,
				"element": "O" 
			},
			{
				"x": -1.207474183,
				"y": -0.019640201,
				"z": -1.2725678386,
				"element": "C" 
			},
			{
				"x": -0.3952758658,
				"y": 1.1150292255,
				"z": -1.1405419503,
				"element": "C" 
			},
			{
				"x": 0.8256218718,
				"y": 1.0320141337,
				"z": -0.4779309907,
				"element": "C" 
			},
			{
				"x": 1.3139641686,
				"y": -0.1687246431,
				"z": 0.0643342727,
				"element": "C" 
			},
			{
				"x": 2.5458690026,
				"y": -0.2387906262,
				"z": 0.7144355691,
				"element": "N" 
			},
			{
				"x": 3.7576753379,
				"y": 0.4093325159,
				"z": 0.4795297075,
				"element": "C" 
			},
			{
				"x": 3.8975640145,
				"y": 1.3457263294,
				"z": -0.7062291431,
				"element": "C" 
			},
			{
				"x": 4.6960322141,
				"y": 0.1795864854,
				"z": 1.2243376858,
				"element": "O" 
			},
			{
				"x": 0.4559015917,
				"y": -1.295442555,
				"z": -0.062341931,
				"element": "C" 
			},
			{
				"x": -0.7709521008,
				"y": -1.2214233359,
				"z": -0.7183472531,
				"element": "C" 
			},
			{
				"x": 0.7962789579,
				"y": -2.6078635983,
				"z": 0.4968257118,
				"element": "N" 
			},
			{
				"x": 0.1790987191,
				"y": -3.5871847293,
				"z": 0.0864987774,
				"element": "O" 
			},
			{
				"x": 1.675660844,
				"y": -2.6708942815,
				"z": 1.3678135283,
				"element": "O" 
			},
			{
				"x": -2.2471098568,
				"y": 1.5375309745,
				"z": -3.2416936861,
				"element": "H" 
			},
			{
				"x": -3.8780138312,
				"y": 0.9004067366,
				"z": -2.9035474031,
				"element": "H" 
			},
			{
				"x": -3.0623463199,
				"y": 1.9295591266,
				"z": -1.6972774736,
				"element": "H" 
			},
			{
				"x": -0.7118842974,
				"y": 2.0759728105,
				"z": -1.5280613288,
				"element": "H" 
			},
			{
				"x": 1.406374421,
				"y": 1.9357245793,
				"z": -0.3503691526,
				"element": "H" 
			},
			{
				"x": 2.6321954954,
				"y": -1.0005357486,
				"z": 1.3801963274,
				"element": "H" 
			},
			{
				"x": 3.2900719325,
				"y": 1.0508138597,
				"z": -1.5645972573,
				"element": "H" 
			},
			{
				"x": 3.6225359861,
				"y": 2.3675115857,
				"z": -0.4230047547,
				"element": "H" 
			},
			{
				"x": 4.9532063765,
				"y": 1.3526938687,
				"z": -0.979973115,
				"element": "H" 
			},
			{
				"x": -1.3851136359,
				"y": -2.1087541861,
				"z": -0.7956023764,
				"element": "H" 
			}
		],
		 "valence_orbital": [ 
			{
				"type": "occ",
				"energy": -0.30502,
				"method": "rhf"
			},
			{
				"type": "occ",
				"energy": -0.2939,
				"method": "rhf"
			},
			{
				"type": "occ",
				"energy": -0.28636,
				"method": "rhf"
			},
			{
				"type": "occ",
				"energy": -0.26013,
				"method": "rhf"
			},
			{
				"type": "occ",
				"energy": -0.22686,
				"method": "rhf"
			},
			{
				"type": "unocc",
				"energy": -0.09633,
				"method": "rhf"
			},
			{
				"type": "unocc",
				"energy": -0.02955,
				"method": "rhf"
			},
			{
				"type": "unocc",
				"energy": -0.00853,
				"method": "rhf"
			},
			{
				"type": "unocc",
				"energy": 0.0258,
				"method": "rhf"
			},
			{
				"type": "unocc",
				"energy": 0.066,
				"method": "rhf"
			}
		],
		"cosmo_sigma_profile": { 
			"-0.025": 0.0,
			"-0.024": 0.0,
			"-0.023": 0.0,
			"-0.022": 0.0,
			"-0.021": 0.0,
			"-0.02": 0.0,
			"-0.019": 0.0,
			"-0.018": 0.0,
			"-0.017": 0.0,
			"-0.016": 0.0,
			"-0.015": 0.0,
			"-0.014": 0.0,
			"-0.013": 0.0,
			"-0.012": 0.0,
			"-0.011": 0.0,
			"-0.01": 0.0430437856525,
			"-0.009": 1.89186720814,
			"-0.008": 4.8116322657,
			"-0.007": 9.64288898457,
			"-0.006": 16.7228960008,
			"-0.005": 20.328668086,
			"-0.004": 21.8207920437,
			"-0.003": 21.4279899358,
			"-0.002": 18.7086065369,
			"-0.001": 14.5322572489,
			"0.0": 15.4188719551,
			"0.001": 17.5016822761,
			"0.002": 10.7959058961,
			"0.003": 6.53257878765,
			"0.004": 5.57743563954,
			"0.005": 6.06456568148,
			"0.006": 5.64986132071,
			"0.007": 8.68333289783,
			"0.008": 8.04250794848,
			"0.009": 6.74120038559,
			"0.01": 4.0685355417,
			"0.011": 2.12638713356,
			"0.012": 3.33895523266,
			"0.013": 5.29936861921,
			"0.014": 1.41884757335,
			"0.015": 0.018272813647,
			"0.016": 0.0,
			"0.017": 0.0,
			"0.018": 0.0,
			"0.019": 0.0,
			"0.02": 0.0,
			"0.021": 0.0,
			"0.022": 0.0,
			"0.023": 0.0,
			"0.024": 0.0,
			"0.025": 0.0
		}
	}
}
