{
	 "smiles": "CCOC(=O)NC1=NC2=C(S1)C=C(N)C=C2", 
	 "Tm": 613.15, 
	 "num_atms": 27, 
	 "gaussian": { 
		 "optdone": 1, 
		 "sigma_profile": "yes", 
		 "theory": "DFT", 
		 "functional": "B3LYP", 
		 "basiset": "6-31G**", 
		 "properties": { 
			 "R2extent": 6414.9363, 
			 "electric_dipole_moment_norm": 3.8742672675, 
			 "electric_quadrupole_moment_norm": 16.4416376034, 
			 "total_energy": -1100.62057684, 
			 "HOMO_LUMO_gap": 0.17183, 
			 "cosmo_polarized_energy": -15.78, 
			 "cosmo_cavitation_energy": 33.35, 
			 "cosmo_dispersion_energy": -24.83, 
			 "cosmo_repulsion_energy": 1.9, 
			 "cosmo_total_nonelectrostatic_energy": 10.43, 
			 "SMD_solvation_energy": 4.88 
		},
		"coords": [
			{
				"x": 1.9484904361,
				"y": -2.1332350251,
				"z": -1.3264794366,
				"element": "C" 
			},
			{
				"x": 0.5817552604,
				"y": -2.2808123978,
				"z": -1.9653349466,
				"element": "C" 
			},
			{
				"x": -0.3381747456,
				"y": -1.4405333842,
				"z": -1.2244956354,
				"element": "O" 
			},
			{
				"x": -1.6118086881,
				"y": -1.4552366502,
				"z": -1.6624055673,
				"element": "C" 
			},
			{
				"x": -2.0256676306,
				"y": -2.10144082,
				"z": -2.6038225225,
				"element": "O" 
			},
			{
				"x": -2.4256562834,
				"y": -0.6335428702,
				"z": -0.9072656024,
				"element": "N" 
			},
			{
				"x": -2.1709081891,
				"y": 0.1782856883,
				"z": 0.1891145509,
				"element": "C" 
			},
			{
				"x": -3.1317580871,
				"y": 0.8606755478,
				"z": 0.7239163917,
				"element": "N" 
			},
			{
				"x": -2.6680590683,
				"y": 1.6011255932,
				"z": 1.8011163953,
				"element": "C" 
			},
			{
				"x": -1.2912399658,
				"y": 1.4668710164,
				"z": 2.0865284762,
				"element": "C" 
			},
			{
				"x": -0.5613383813,
				"y": 0.3518059519,
				"z": 0.9358685914,
				"element": "S" 
			},
			{
				"x": -0.6788352027,
				"y": 2.1513572465,
				"z": 3.1340307046,
				"element": "C" 
			},
			{
				"x": -1.4627643094,
				"y": 2.9989964534,
				"z": 3.9309978045,
				"element": "C" 
			},
			{
				"x": -0.9023947571,
				"y": 3.6583816712,
				"z": 5.03052985,
				"element": "N" 
			},
			{
				"x": -2.841715646,
				"y": 3.1362569918,
				"z": 3.6515392179,
				"element": "C" 
			},
			{
				"x": -3.4402736386,
				"y": 2.4509543467,
				"z": 2.6039199337,
				"element": "C" 
			},
			{
				"x": 1.9286554583,
				"y": -2.450723659,
				"z": -0.2802052055,
				"element": "H" 
			},
			{
				"x": 2.2903778497,
				"y": -1.0952651483,
				"z": -1.3671191549,
				"element": "H" 
			},
			{
				"x": 2.6720119162,
				"y": -2.7557260971,
				"z": -1.861985814,
				"element": "H" 
			},
			{
				"x": 0.5779817205,
				"y": -1.9622577312,
				"z": -3.0118013237,
				"element": "H" 
			},
			{
				"x": 0.2175680511,
				"y": -3.3116217308,
				"z": -1.9288495708,
				"element": "H" 
			},
			{
				"x": -3.3918329189,
				"y": -0.6207337285,
				"z": -1.2079725834,
				"element": "H" 
			},
			{
				"x": 0.3809310784,
				"y": 2.0330461195,
				"z": 3.3415100365,
				"element": "H" 
			},
			{
				"x": -1.3900900695,
				"y": 4.4975959336,
				"z": 5.3134926396,
				"element": "H" 
			},
			{
				"x": 0.0949735492,
				"y": 3.8132944816,
				"z": 4.9715207273,
				"element": "H" 
			},
			{
				"x": -3.4416837228,
				"y": 3.7908144667,
				"z": 4.2785095115,
				"element": "H" 
			},
			{
				"x": -4.4990440156,
				"y": 2.5646677339,
				"z": 2.3951425321,
				"element": "H" 
			}
		],
		 "valence_orbital": [ 
			{
				"type": "occ",
				"energy": -0.28792,
				"method": "rhf"
			},
			{
				"type": "occ",
				"energy": -0.27633,
				"method": "rhf"
			},
			{
				"type": "occ",
				"energy": -0.26607,
				"method": "rhf"
			},
			{
				"type": "occ",
				"energy": -0.23056,
				"method": "rhf"
			},
			{
				"type": "occ",
				"energy": -0.19103,
				"method": "rhf"
			},
			{
				"type": "unocc",
				"energy": -0.0192,
				"method": "rhf"
			},
			{
				"type": "unocc",
				"energy": -0.00072,
				"method": "rhf"
			},
			{
				"type": "unocc",
				"energy": 0.01827,
				"method": "rhf"
			},
			{
				"type": "unocc",
				"energy": 0.03909,
				"method": "rhf"
			},
			{
				"type": "unocc",
				"energy": 0.06894,
				"method": "rhf"
			}
		],
		"cosmo_sigma_profile": { 
			"-0.025": 0.0,
			"-0.024": 0.0,
			"-0.023": 0.0,
			"-0.022": 0.0,
			"-0.021": 0.0,
			"-0.02": 0.0,
			"-0.019": 0.0,
			"-0.018": 0.0,
			"-0.017": 0.0,
			"-0.016": 0.364143191131,
			"-0.015": 0.91561852312,
			"-0.014": 0.448179542103,
			"-0.013": 1.11633413848,
			"-0.012": 3.51469263971,
			"-0.011": 3.34718844398,
			"-0.01": 4.55505801704,
			"-0.009": 3.79520020138,
			"-0.008": 3.79867898421,
			"-0.007": 5.74328878457,
			"-0.006": 9.21908770748,
			"-0.005": 15.1089819205,
			"-0.004": 20.5387904562,
			"-0.003": 21.4968351202,
			"-0.002": 18.1583739993,
			"-0.001": 19.3042298746,
			"0.0": 18.2741816084,
			"0.001": 13.4549581225,
			"0.002": 15.4111990621,
			"0.003": 16.8729052055,
			"0.004": 17.9995437084,
			"0.005": 17.8358984372,
			"0.006": 7.34498671292,
			"0.007": 3.17608476507,
			"0.008": 3.13099572484,
			"0.009": 3.57068057697,
			"0.01": 3.08106078829,
			"0.011": 4.30519109631,
			"0.012": 7.30976082887,
			"0.013": 2.53738173603,
			"0.014": 1.18524358621,
			"0.015": 0.242366033363,
			"0.016": 0.0,
			"0.017": 0.0,
			"0.018": 0.0,
			"0.019": 0.0,
			"0.02": 0.0,
			"0.021": 0.0,
			"0.022": 0.0,
			"0.023": 0.0,
			"0.024": 0.0,
			"0.025": 0.0
		}
	}
}
