{
	 "smiles": "CCN(CC)S(=O)(=O)C1=CC(=C(OC2=C(OC)C=C(C=O)C=C2)C=C1)[N+]([O-])=O", 
	 "Tm": 408.15, 
	 "num_atms": 48, 
	 "gaussian": { 
		 "optdone": 1, 
		 "sigma_profile": "yes", 
		 "theory": "DFT", 
		 "functional": "B3LYP", 
		 "basiset": "6-31G**", 
		 "properties": { 
			 "R2extent": 15310.5776, 
			 "electric_dipole_moment_norm": 3.01125581278, 
			 "electric_quadrupole_moment_norm": 39.8128279313, 
			 "total_energy": -1732.0137085, 
			 "HOMO_LUMO_gap": 0.15512, 
			 "cosmo_polarized_energy": -23.76, 
			 "cosmo_cavitation_energy": 53.81, 
			 "cosmo_dispersion_energy": -35.75, 
			 "cosmo_repulsion_energy": 2.69, 
			 "cosmo_total_nonelectrostatic_energy": 20.76, 
			 "SMD_solvation_energy": 12.13 
		},
		"coords": [
			{
				"x": 0.9496376615,
				"y": 5.8651121229,
				"z": -0.6689869473,
				"element": "C" 
			},
			{
				"x": 0.4248414561,
				"y": 4.5895055172,
				"z": -0.0090100555,
				"element": "C" 
			},
			{
				"x": 1.482346547,
				"y": 3.5742802327,
				"z": 0.1450251565,
				"element": "N" 
			},
			{
				"x": 2.01088032,
				"y": 2.9310889518,
				"z": -1.0782992112,
				"element": "C" 
			},
			{
				"x": 3.4740822798,
				"y": 3.2766397477,
				"z": -1.351253575,
				"element": "C" 
			},
			{
				"x": 1.5327371309,
				"y": 2.682047595,
				"z": 1.5596997992,
				"element": "S" 
			},
			{
				"x": 2.8054918998,
				"y": 1.9571456061,
				"z": 1.5485518324,
				"element": "O" 
			},
			{
				"x": 1.1480615618,
				"y": 3.5806713959,
				"z": 2.6489815386,
				"element": "O" 
			},
			{
				"x": 0.2456036648,
				"y": 1.4264293096,
				"z": 1.4412885519,
				"element": "C" 
			},
			{
				"x": -1.064898322,
				"y": 1.7459572608,
				"z": 1.7802820372,
				"element": "C" 
			},
			{
				"x": -2.0652988606,
				"y": 0.786894377,
				"z": 1.6359400033,
				"element": "C" 
			},
			{
				"x": -1.7626624735,
				"y": -0.5183631432,
				"z": 1.1943249754,
				"element": "C" 
			},
			{
				"x": -2.7583663566,
				"y": -1.443405938,
				"z": 1.1766853718,
				"element": "O" 
			},
			{
				"x": -2.5877226037,
				"y": -2.6572041553,
				"z": 0.5320486462,
				"element": "C" 
			},
			{
				"x": -2.4880313254,
				"y": -2.7067246362,
				"z": -0.8747731452,
				"element": "C" 
			},
			{
				"x": -2.4286098189,
				"y": -1.5580503684,
				"z": -1.6155474055,
				"element": "O" 
			},
			{
				"x": -3.686305026,
				"y": -0.8802918848,
				"z": -1.8013012684,
				"element": "C" 
			},
			{
				"x": -2.3878474682,
				"y": -3.9481829939,
				"z": -1.4920566313,
				"element": "C" 
			},
			{
				"x": -2.4011170491,
				"y": -5.1254798332,
				"z": -0.7288065697,
				"element": "C" 
			},
			{
				"x": -2.296358829,
				"y": -6.4418639483,
				"z": -1.4012258945,
				"element": "C" 
			},
			{
				"x": -2.1865414635,
				"y": -6.5933204478,
				"z": -2.6023070087,
				"element": "O" 
			},
			{
				"x": -2.5229928486,
				"y": -5.0580448076,
				"z": 0.6641037584,
				"element": "C" 
			},
			{
				"x": -2.6135554757,
				"y": -3.8201299479,
				"z": 1.2977998588,
				"element": "C" 
			},
			{
				"x": -0.4305198607,
				"y": -0.8273498616,
				"z": 0.8899440378,
				"element": "C" 
			},
			{
				"x": 0.564047366,
				"y": 0.1363276444,
				"z": 1.0027587121,
				"element": "C" 
			},
			{
				"x": -3.436535971,
				"y": 1.2049061235,
				"z": 1.9648177357,
				"element": "N" 
			},
			{
				"x": -4.370886719,
				"y": 0.6574441879,
				"z": 1.3819345463,
				"element": "O" 
			},
			{
				"x": -3.5590370356,
				"y": 2.1104876605,
				"z": 2.7880396285,
				"element": "O" 
			},
			{
				"x": 1.7563533799,
				"y": 6.299873453,
				"z": -0.072931549,
				"element": "H" 
			},
			{
				"x": 1.3281134068,
				"y": 5.6786947225,
				"z": -1.6788652215,
				"element": "H" 
			},
			{
				"x": 0.1402061686,
				"y": 6.5979828889,
				"z": -0.7489212744,
				"element": "H" 
			},
			{
				"x": 0.0559583376,
				"y": 4.829805505,
				"z": 0.9890839248,
				"element": "H" 
			},
			{
				"x": -0.4131076827,
				"y": 4.176505834,
				"z": -0.5918917703,
				"element": "H" 
			},
			{
				"x": 1.3747913873,
				"y": 3.2576902886,
				"z": -1.9081090684,
				"element": "H" 
			},
			{
				"x": 1.8899908536,
				"y": 1.8437887199,
				"z": -1.0121653212,
				"element": "H" 
			},
			{
				"x": 3.808255275,
				"y": 2.7953064176,
				"z": -2.2770809306,
				"element": "H" 
			},
			{
				"x": 3.6086429056,
				"y": 4.3569410663,
				"z": -1.4564448395,
				"element": "H" 
			},
			{
				"x": 4.1018604689,
				"y": 2.9285308154,
				"z": -0.5286412459,
				"element": "H" 
			},
			{
				"x": -1.3267944901,
				"y": 2.7197324125,
				"z": 2.1751442415,
				"element": "H" 
			},
			{
				"x": -4.409907053,
				"y": -1.5434329358,
				"z": -2.2892772694,
				"element": "H" 
			},
			{
				"x": -4.090949671,
				"y": -0.520212348,
				"z": -0.8509531024,
				"element": "H" 
			},
			{
				"x": -3.4737160759,
				"y": -0.0335093944,
				"z": -2.4558107708,
				"element": "H" 
			},
			{
				"x": -2.2988988301,
				"y": -4.0095082624,
				"z": -2.5716371251,
				"element": "H" 
			},
			{
				"x": -2.3257712436,
				"y": -7.3157361454,
				"z": -0.7135096795,
				"element": "H" 
			},
			{
				"x": -2.5396939194,
				"y": -5.9722486164,
				"z": 1.2513892036,
				"element": "H" 
			},
			{
				"x": -2.7064277516,
				"y": -3.7351007569,
				"z": 2.3752579922,
				"element": "H" 
			},
			{
				"x": -0.1810752871,
				"y": -1.8341098653,
				"z": 0.5770659321,
				"element": "H" 
			},
			{
				"x": 1.5971274406,
				"y": -0.1137195661,
				"z": 0.7883393961,
				"element": "H" 
			}
		],
		 "valence_orbital": [ 
			{
				"type": "occ",
				"energy": -0.28247,
				"method": "rhf"
			},
			{
				"type": "occ",
				"energy": -0.27629,
				"method": "rhf"
			},
			{
				"type": "occ",
				"energy": -0.26845,
				"method": "rhf"
			},
			{
				"type": "occ",
				"energy": -0.26581,
				"method": "rhf"
			},
			{
				"type": "occ",
				"energy": -0.25379,
				"method": "rhf"
			},
			{
				"type": "unocc",
				"energy": -0.09867,
				"method": "rhf"
			},
			{
				"type": "unocc",
				"energy": -0.07864,
				"method": "rhf"
			},
			{
				"type": "unocc",
				"energy": -0.04997,
				"method": "rhf"
			},
			{
				"type": "unocc",
				"energy": -0.034,
				"method": "rhf"
			},
			{
				"type": "unocc",
				"energy": -0.02481,
				"method": "rhf"
			}
		],
		"cosmo_sigma_profile": { 
			"-0.025": 0.0,
			"-0.024": 0.0,
			"-0.023": 0.0,
			"-0.022": 0.0,
			"-0.021": 0.0,
			"-0.02": 0.0,
			"-0.019": 0.0,
			"-0.018": 0.0,
			"-0.017": 0.0,
			"-0.016": 0.0,
			"-0.015": 0.0,
			"-0.014": 0.0,
			"-0.013": 0.0,
			"-0.012": 0.0,
			"-0.011": 0.0,
			"-0.01": 0.0123096147373,
			"-0.009": 1.91860387906,
			"-0.008": 9.23275488499,
			"-0.007": 13.0845966469,
			"-0.006": 21.4241829918,
			"-0.005": 25.9639040501,
			"-0.004": 38.5920700092,
			"-0.003": 47.6237024774,
			"-0.002": 41.0467734033,
			"-0.001": 37.4391153442,
			"0.0": 36.7682461652,
			"0.001": 28.3100450206,
			"0.002": 16.6209373134,
			"0.003": 10.27411124,
			"0.004": 11.6638267079,
			"0.005": 11.6835101624,
			"0.006": 10.2393335574,
			"0.007": 15.3795706004,
			"0.008": 13.2495584206,
			"0.009": 10.7297712446,
			"0.01": 10.8507680954,
			"0.011": 11.703093243,
			"0.012": 4.0440700565,
			"0.013": 0.375802832763,
			"0.014": 0.0,
			"0.015": 0.0,
			"0.016": 0.0,
			"0.017": 0.0,
			"0.018": 0.0,
			"0.019": 0.0,
			"0.02": 0.0,
			"0.021": 0.0,
			"0.022": 0.0,
			"0.023": 0.0,
			"0.024": 0.0,
			"0.025": 0.0
		}
	}
}
