{
	 "smiles": "CC1=CC=C(C=C1)S(=O)C1=CC=C(C)C=C1", 
	 "Tm": 368.15, 
	 "num_atms": 30, 
	 "gaussian": { 
		 "optdone": 1, 
		 "sigma_profile": "yes", 
		 "theory": "DFT", 
		 "functional": "B3LYP", 
		 "basiset": "6-31G**", 
		 "properties": { 
			 "R2extent": 4933.4133, 
			 "electric_dipole_moment_norm": 4.43123935485, 
			 "electric_quadrupole_moment_norm": 14.1885150372, 
			 "total_energy": -1015.29884456, 
			 "HOMO_LUMO_gap": 0.19533, 
			 "cosmo_polarized_energy": -12.01, 
			 "cosmo_cavitation_energy": 35.12, 
			 "cosmo_dispersion_energy": -25.29, 
			 "cosmo_repulsion_energy": 1.93, 
			 "cosmo_total_nonelectrostatic_energy": 11.77, 
			 "SMD_solvation_energy": 5.46 
		},
		"coords": [
			{
				"x": 3.0638632434,
				"y": -3.6360569168,
				"z": 0.9156283357,
				"element": "C" 
			},
			{
				"x": 2.2725284835,
				"y": -2.3568847354,
				"z": 1.0530067612,
				"element": "C" 
			},
			{
				"x": 2.7566809309,
				"y": -1.1526420772,
				"z": 0.5214508079,
				"element": "C" 
			},
			{
				"x": 2.0214884803,
				"y": 0.0278341672,
				"z": 0.6253102043,
				"element": "C" 
			},
			{
				"x": 0.7778837068,
				"y": 0.0023483442,
				"z": 1.2559565928,
				"element": "C" 
			},
			{
				"x": 0.2822127546,
				"y": -1.1740653882,
				"z": 1.8115656299,
				"element": "C" 
			},
			{
				"x": 1.0306338872,
				"y": -2.3456976102,
				"z": 1.7038699656,
				"element": "C" 
			},
			{
				"x": -0.1966244754,
				"y": 1.5333306451,
				"z": 1.4697873878,
				"element": "S" 
			},
			{
				"x": -1.3072646412,
				"y": 1.1975372281,
				"z": 2.4452105445,
				"element": "O" 
			},
			{
				"x": -0.9661491033,
				"y": 1.5783252266,
				"z": -0.1870944743,
				"element": "C" 
			},
			{
				"x": -0.2797234691,
				"y": 2.1047334018,
				"z": -1.2810155731,
				"element": "C" 
			},
			{
				"x": -0.9167333108,
				"y": 2.1644375651,
				"z": -2.5201437155,
				"element": "C" 
			},
			{
				"x": -2.2371272094,
				"y": 1.7186356276,
				"z": -2.6782949693,
				"element": "C" 
			},
			{
				"x": -2.9119953013,
				"y": 1.7644034953,
				"z": -4.0287866356,
				"element": "C" 
			},
			{
				"x": -2.9099941076,
				"y": 1.2183286748,
				"z": -1.5544879629,
				"element": "C" 
			},
			{
				"x": -2.2846095755,
				"y": 1.1483812995,
				"z": -0.3101037068,
				"element": "C" 
			},
			{
				"x": 2.7965506187,
				"y": -4.1679288944,
				"z": -0.0062104044,
				"element": "H" 
			},
			{
				"x": 4.1396316803,
				"y": -3.4405049503,
				"z": 0.8770371704,
				"element": "H" 
			},
			{
				"x": 2.872176466,
				"y": -4.3169920935,
				"z": 1.7501153485,
				"element": "H" 
			},
			{
				"x": 3.7266517937,
				"y": -1.1366260187,
				"z": 0.0306372118,
				"element": "H" 
			},
			{
				"x": 2.4223429235,
				"y": 0.9551434582,
				"z": 0.2241586961,
				"element": "H" 
			},
			{
				"x": -0.6706540003,
				"y": -1.1466430944,
				"z": 2.3317915365,
				"element": "H" 
			},
			{
				"x": 0.6478877934,
				"y": -3.2662724871,
				"z": 2.1379391005,
				"element": "H" 
			},
			{
				"x": 0.7373719714,
				"y": 2.4729918303,
				"z": -1.1742107904,
				"element": "H" 
			},
			{
				"x": -0.3848312893,
				"y": 2.5742427011,
				"z": -3.3752106077,
				"element": "H" 
			},
			{
				"x": -2.5271098505,
				"y": 2.5843667893,
				"z": -4.6424111763,
				"element": "H" 
			},
			{
				"x": -3.9941323606,
				"y": 1.8920336591,
				"z": -3.9314611857,
				"element": "H" 
			},
			{
				"x": -2.7429418409,
				"y": 0.83412404,
				"z": -4.5856803621,
				"element": "H" 
			},
			{
				"x": -3.9402012574,
				"y": 0.8850969211,
				"z": -1.6544679047,
				"element": "H" 
			},
			{
				"x": -2.8010129408,
				"y": 0.783519192,
				"z": 0.5728141753,
				"element": "H" 
			}
		],
		 "valence_orbital": [ 
			{
				"type": "occ",
				"energy": -0.26511,
				"method": "rhf"
			},
			{
				"type": "occ",
				"energy": -0.25911,
				"method": "rhf"
			},
			{
				"type": "occ",
				"energy": -0.25455,
				"method": "rhf"
			},
			{
				"type": "occ",
				"energy": -0.24091,
				"method": "rhf"
			},
			{
				"type": "occ",
				"energy": -0.22104,
				"method": "rhf"
			},
			{
				"type": "unocc",
				"energy": -0.02571,
				"method": "rhf"
			},
			{
				"type": "unocc",
				"energy": -0.01427,
				"method": "rhf"
			},
			{
				"type": "unocc",
				"energy": -0.00881,
				"method": "rhf"
			},
			{
				"type": "unocc",
				"energy": -0.00361,
				"method": "rhf"
			},
			{
				"type": "unocc",
				"energy": 0.03983,
				"method": "rhf"
			}
		],
		"cosmo_sigma_profile": { 
			"-0.025": 0.0,
			"-0.024": 0.0,
			"-0.023": 0.0,
			"-0.022": 0.0,
			"-0.021": 0.0,
			"-0.02": 0.0,
			"-0.019": 0.0,
			"-0.018": 0.0,
			"-0.017": 0.0,
			"-0.016": 0.0,
			"-0.015": 0.0,
			"-0.014": 0.0,
			"-0.013": 0.0,
			"-0.012": 0.0,
			"-0.011": 0.0,
			"-0.01": 0.0333382556469,
			"-0.009": 0.636504255898,
			"-0.008": 1.60112917155,
			"-0.007": 4.16742271429,
			"-0.006": 10.2700357361,
			"-0.005": 20.065392458,
			"-0.004": 29.1702033656,
			"-0.003": 22.1702075833,
			"-0.002": 25.4260684819,
			"-0.001": 28.4789488862,
			"0.0": 28.9990161954,
			"0.001": 18.9906946686,
			"0.002": 17.671192334,
			"0.003": 19.192770593,
			"0.004": 23.4781164638,
			"0.005": 12.3345791884,
			"0.006": 1.42693568855,
			"0.007": 1.78460285519,
			"0.008": 0.993657247006,
			"0.009": 1.01273313972,
			"0.01": 1.71230544052,
			"0.011": 0.955996523629,
			"0.012": 1.74957404771,
			"0.013": 3.46723362436,
			"0.014": 2.46599153431,
			"0.015": 2.34947667471,
			"0.016": 0.213229730565,
			"0.017": 0.0,
			"0.018": 0.0,
			"0.019": 0.0,
			"0.02": 0.0,
			"0.021": 0.0,
			"0.022": 0.0,
			"0.023": 0.0,
			"0.024": 0.0,
			"0.025": 0.0
		}
	}
}
