{
	 "smiles": "CCC(=O)N(C1CCN(CCC2=CC=CC=C2)CC1)C1=CC=CC=C1", 
	 "Tm": 356.15, 
	 "num_atms": 53, 
	 "gaussian": { 
		 "optdone": 1, 
		 "sigma_profile": "yes", 
		 "theory": "DFT", 
		 "functional": "B3LYP", 
		 "basiset": "6-31G**", 
		 "properties": { 
			 "R2extent": 10849.4619, 
			 "electric_dipole_moment_norm": 3.65615365104, 
			 "electric_quadrupole_moment_norm": 13.5934418077, 
			 "total_energy": -1039.95072353, 
			 "HOMO_LUMO_gap": 0.15795, 
			 "cosmo_polarized_energy": -12.55, 
			 "cosmo_cavitation_energy": 52.48, 
			 "cosmo_dispersion_energy": -34.41, 
			 "cosmo_repulsion_energy": 2.65, 
			 "cosmo_total_nonelectrostatic_energy": 20.72, 
			 "SMD_solvation_energy": 6.56 
		},
		"coords": [
			{
				"x": -0.9146230982,
				"y": -5.5306333742,
				"z": 0.9414036998,
				"element": "C" 
			},
			{
				"x": -1.4907954628,
				"y": -4.2001632548,
				"z": 0.4586779732,
				"element": "C" 
			},
			{
				"x": -0.4315293238,
				"y": -3.0957918656,
				"z": 0.4286008893,
				"element": "C" 
			},
			{
				"x": 0.6864083577,
				"y": -3.2711193057,
				"z": 0.9070585604,
				"element": "O" 
			},
			{
				"x": -0.7763756363,
				"y": -1.9053375936,
				"z": -0.1773013884,
				"element": "N" 
			},
			{
				"x": 0.2048462864,
				"y": -0.7880018711,
				"z": -0.2517243026,
				"element": "C" 
			},
			{
				"x": 1.5303074977,
				"y": -1.1526093445,
				"z": -0.9856465509,
				"element": "C" 
			},
			{
				"x": 2.7565065607,
				"y": -1.038685023,
				"z": -0.0636503678,
				"element": "C" 
			},
			{
				"x": 2.856003726,
				"y": 0.2473616843,
				"z": 0.6344585052,
				"element": "N" 
			},
			{
				"x": 3.9673427843,
				"y": 1.1143059826,
				"z": 0.3089735052,
				"element": "C" 
			},
			{
				"x": 4.0510761028,
				"y": 1.736247306,
				"z": -1.1191746049,
				"element": "C" 
			},
			{
				"x": 3.0310933411,
				"y": 2.8046188033,
				"z": -1.4508334203,
				"element": "C" 
			},
			{
				"x": 3.0317843201,
				"y": 4.0318924467,
				"z": -0.7683980871,
				"element": "C" 
			},
			{
				"x": 2.0948503345,
				"y": 5.0209445258,
				"z": -1.064738617,
				"element": "C" 
			},
			{
				"x": 1.1360440121,
				"y": 4.8064401999,
				"z": -2.0582805267,
				"element": "C" 
			},
			{
				"x": 1.1305314064,
				"y": 3.597847443,
				"z": -2.7552303557,
				"element": "C" 
			},
			{
				"x": 2.0718177223,
				"y": 2.6107594458,
				"z": -2.4544676225,
				"element": "C" 
			},
			{
				"x": 1.594108333,
				"y": 0.8889653258,
				"z": 0.9960994111,
				"element": "C" 
			},
			{
				"x": 0.4834534673,
				"y": -0.1573414829,
				"z": 1.1269912933,
				"element": "C" 
			},
			{
				"x": -2.1018637938,
				"y": -1.639918214,
				"z": -0.6611061536,
				"element": "C" 
			},
			{
				"x": -3.1275512356,
				"y": -1.2898411528,
				"z": 0.2255784625,
				"element": "C" 
			},
			{
				"x": -4.4058603944,
				"y": -1.0041292172,
				"z": -0.2567797751,
				"element": "C" 
			},
			{
				"x": -4.6659799732,
				"y": -1.054866161,
				"z": -1.6274574848,
				"element": "C" 
			},
			{
				"x": -3.6431085564,
				"y": -1.3942837054,
				"z": -2.5159000515,
				"element": "C" 
			},
			{
				"x": -2.3663963383,
				"y": -1.6876036528,
				"z": -2.0358092563,
				"element": "C" 
			},
			{
				"x": -0.1245437838,
				"y": -5.8831176254,
				"z": 0.2728834539,
				"element": "H" 
			},
			{
				"x": -0.4735720014,
				"y": -5.4262659928,
				"z": 1.9351776801,
				"element": "H" 
			},
			{
				"x": -1.6989988729,
				"y": -6.292653203,
				"z": 0.9822387215,
				"element": "H" 
			},
			{
				"x": -1.9369404836,
				"y": -4.3019425449,
				"z": -0.5374482803,
				"element": "H" 
			},
			{
				"x": -2.3128261645,
				"y": -3.8806682066,
				"z": 1.1112040987,
				"element": "H" 
			},
			{
				"x": -0.3058481792,
				"y": -0.0294581083,
				"z": -0.8516673482,
				"element": "H" 
			},
			{
				"x": 1.6499562922,
				"y": -0.4738902389,
				"z": -1.8381473923,
				"element": "H" 
			},
			{
				"x": 1.4733709035,
				"y": -2.1684199788,
				"z": -1.3855944882,
				"element": "H" 
			},
			{
				"x": 3.6686194941,
				"y": -1.1878172584,
				"z": -0.6519284885,
				"element": "H" 
			},
			{
				"x": 2.7051239168,
				"y": -1.8604357157,
				"z": 0.6594260683,
				"element": "H" 
			},
			{
				"x": 4.8969679509,
				"y": 0.5482701823,
				"z": 0.4600576247,
				"element": "H" 
			},
			{
				"x": 3.9846149517,
				"y": 1.9278597038,
				"z": 1.0467408924,
				"element": "H" 
			},
			{
				"x": 3.9957811564,
				"y": 0.9316610661,
				"z": -1.8617778453,
				"element": "H" 
			},
			{
				"x": 5.0580939449,
				"y": 2.1669307687,
				"z": -1.2128982345,
				"element": "H" 
			},
			{
				"x": 3.7773026469,
				"y": 4.2145778634,
				"z": 0.0021954139,
				"element": "H" 
			},
			{
				"x": 2.1151987462,
				"y": 5.9628005721,
				"z": -0.5230729501,
				"element": "H" 
			},
			{
				"x": 0.4064769694,
				"y": 5.5769287941,
				"z": -2.2906399376,
				"element": "H" 
			},
			{
				"x": 0.3963945824,
				"y": 3.4229298939,
				"z": -3.5371516497,
				"element": "H" 
			},
			{
				"x": 2.0668954727,
				"y": 1.6762128902,
				"z": -3.0105034602,
				"element": "H" 
			},
			{
				"x": 1.2722371207,
				"y": 1.6473687288,
				"z": 0.2612355476,
				"element": "H" 
			},
			{
				"x": 1.7214753553,
				"y": 1.4216948862,
				"z": 1.9502832122,
				"element": "H" 
			},
			{
				"x": 0.7805326528,
				"y": -0.9338323938,
				"z": 1.836370034,
				"element": "H" 
			},
			{
				"x": -0.4287047238,
				"y": 0.3171658661,
				"z": 1.5055682414,
				"element": "H" 
			},
			{
				"x": -2.9138822331,
				"y": -1.2413433813,
				"z": 1.2891519459,
				"element": "H" 
			},
			{
				"x": -5.1959448505,
				"y": -0.735543463,
				"z": 0.4384638364,
				"element": "H" 
			},
			{
				"x": -5.6601308004,
				"y": -0.8294686166,
				"z": -2.0019431513,
				"element": "H" 
			},
			{
				"x": -3.8397558863,
				"y": -1.4353591266,
				"z": -3.5833320661,
				"element": "H" 
			},
			{
				"x": -1.5658846172,
				"y": -1.9583433063,
				"z": -2.7179352137,
				"element": "H" 
			}
		],
		 "valence_orbital": [ 
			{
				"type": "occ",
				"energy": -0.24525,
				"method": "rhf"
			},
			{
				"type": "occ",
				"energy": -0.23989,
				"method": "rhf"
			},
			{
				"type": "occ",
				"energy": -0.23847,
				"method": "rhf"
			},
			{
				"type": "occ",
				"energy": -0.23456,
				"method": "rhf"
			},
			{
				"type": "occ",
				"energy": -0.17526,
				"method": "rhf"
			},
			{
				"type": "unocc",
				"energy": -0.01731,
				"method": "rhf"
			},
			{
				"type": "unocc",
				"energy": -0.01509,
				"method": "rhf"
			},
			{
				"type": "unocc",
				"energy": 0.00124,
				"method": "rhf"
			},
			{
				"type": "unocc",
				"energy": 0.00436,
				"method": "rhf"
			},
			{
				"type": "unocc",
				"energy": 0.03269,
				"method": "rhf"
			}
		],
		"cosmo_sigma_profile": { 
			"-0.025": 0.0,
			"-0.024": 0.0,
			"-0.023": 0.0,
			"-0.022": 0.0,
			"-0.021": 0.0,
			"-0.02": 0.0,
			"-0.019": 0.0,
			"-0.018": 0.0,
			"-0.017": 0.0,
			"-0.016": 0.0,
			"-0.015": 0.0,
			"-0.014": 0.0,
			"-0.013": 0.0,
			"-0.012": 0.0,
			"-0.011": 0.0,
			"-0.01": 0.0,
			"-0.009": 0.0,
			"-0.008": 0.0,
			"-0.007": 0.321483678102,
			"-0.006": 8.95780995751,
			"-0.005": 20.0475129438,
			"-0.004": 32.6409677376,
			"-0.003": 50.6472613118,
			"-0.002": 57.9176515208,
			"-0.001": 49.5487309164,
			"0.0": 41.7300462829,
			"0.001": 35.7289596545,
			"0.002": 22.6579919741,
			"0.003": 20.0003533136,
			"0.004": 20.3458723295,
			"0.005": 18.4888816405,
			"0.006": 10.044967745,
			"0.007": 5.85550349957,
			"0.008": 2.749917504,
			"0.009": 1.65845365813,
			"0.01": 2.48033621848,
			"0.011": 2.3267307875,
			"0.012": 1.78497769241,
			"0.013": 2.43857113706,
			"0.014": 2.4321097517,
			"0.015": 0.871795348183,
			"0.016": 0.0,
			"0.017": 0.0,
			"0.018": 0.0,
			"0.019": 0.0,
			"0.02": 0.0,
			"0.021": 0.0,
			"0.022": 0.0,
			"0.023": 0.0,
			"0.024": 0.0,
			"0.025": 0.0
		}
	}
}
