{
	 "smiles": "CCN1C(N)=CC(=O)NC1=O", 
	 "Tm": 399.15, 
	 "num_atms": 20, 
	 "gaussian": { 
		 "optdone": 1, 
		 "sigma_profile": "yes", 
		 "theory": "DFT", 
		 "functional": "B3LYP", 
		 "basiset": "6-31G**", 
		 "properties": { 
			 "R2extent": 1799.8819, 
			 "electric_dipole_moment_norm": 6.17105491225, 
			 "electric_quadrupole_moment_norm": 8.4313921051, 
			 "total_energy": -548.809473584, 
			 "HOMO_LUMO_gap": 0.20846, 
			 "cosmo_polarized_energy": -20.97, 
			 "cosmo_cavitation_energy": 23.53, 
			 "cosmo_dispersion_energy": -17.53, 
			 "cosmo_repulsion_energy": 1.41, 
			 "cosmo_total_nonelectrostatic_energy": 7.41, 
			 "SMD_solvation_energy": 5.61 
		},
		"coords": [
			{
				"x": -1.0656883463,
				"y": -2.3779214654,
				"z": 2.0324324099,
				"element": "C" 
			},
			{
				"x": -0.6220008423,
				"y": -0.9250109285,
				"z": 2.2223511495,
				"element": "C" 
			},
			{
				"x": -0.01997583,
				"y": -0.3393450772,
				"z": 1.0119645932,
				"element": "N" 
			},
			{
				"x": -0.7677425927,
				"y": 0.3347658891,
				"z": 0.0547285395,
				"element": "C" 
			},
			{
				"x": -2.1279492731,
				"y": 0.4220551609,
				"z": 0.2932961587,
				"element": "N" 
			},
			{
				"x": -0.1762643381,
				"y": 0.9307897274,
				"z": -1.0252816504,
				"element": "C" 
			},
			{
				"x": 1.2499808698,
				"y": 0.8860829751,
				"z": -1.2149012525,
				"element": "C" 
			},
			{
				"x": 1.8905847763,
				"y": 1.3811465091,
				"z": -2.1320837405,
				"element": "O" 
			},
			{
				"x": 1.9205697775,
				"y": 0.1528251854,
				"z": -0.2061474046,
				"element": "N" 
			},
			{
				"x": 1.3759008642,
				"y": -0.4735936164,
				"z": 0.8890314145,
				"element": "C" 
			},
			{
				"x": 2.0387857222,
				"y": -1.093929302,
				"z": 1.707457806,
				"element": "O" 
			},
			{
				"x": -0.2054931571,
				"y": -2.9998111488,
				"z": 1.7729899704,
				"element": "H" 
			},
			{
				"x": -1.4990590503,
				"y": -2.7612535312,
				"z": 2.9616215539,
				"element": "H" 
			},
			{
				"x": -1.8155245298,
				"y": -2.4876988582,
				"z": 1.2403483517,
				"element": "H" 
			},
			{
				"x": 0.1465046889,
				"y": -0.8777579246,
				"z": 2.9937839064,
				"element": "H" 
			},
			{
				"x": -1.4494562262,
				"y": -0.2808865658,
				"z": 2.5291579428,
				"element": "H" 
			},
			{
				"x": -2.6484917126,
				"y": 0.8179115973,
				"z": -0.4768763107,
				"element": "H" 
			},
			{
				"x": -2.5777170179,
				"y": -0.3946767153,
				"z": 0.6826444489,
				"element": "H" 
			},
			{
				"x": -0.7707075504,
				"y": 1.436969809,
				"z": -1.7740705356,
				"element": "H" 
			},
			{
				"x": 2.9247437676,
				"y": 0.0689382801,
				"z": -0.3023473511,
				"element": "H" 
			}
		],
		 "valence_orbital": [ 
			{
				"type": "occ",
				"energy": -0.29182,
				"method": "rhf"
			},
			{
				"type": "occ",
				"energy": -0.28598,
				"method": "rhf"
			},
			{
				"type": "occ",
				"energy": -0.27176,
				"method": "rhf"
			},
			{
				"type": "occ",
				"energy": -0.24627,
				"method": "rhf"
			},
			{
				"type": "occ",
				"energy": -0.22276,
				"method": "rhf"
			},
			{
				"type": "unocc",
				"energy": -0.0143,
				"method": "rhf"
			},
			{
				"type": "unocc",
				"energy": 0.02012,
				"method": "rhf"
			},
			{
				"type": "unocc",
				"energy": 0.04692,
				"method": "rhf"
			},
			{
				"type": "unocc",
				"energy": 0.08065,
				"method": "rhf"
			},
			{
				"type": "unocc",
				"energy": 0.1068,
				"method": "rhf"
			}
		],
		"cosmo_sigma_profile": { 
			"-0.025": 0.0,
			"-0.024": 0.0,
			"-0.023": 0.0,
			"-0.022": 0.0,
			"-0.021": 0.0,
			"-0.02": 0.0,
			"-0.019": 0.0,
			"-0.018": 0.0,
			"-0.017": 0.0,
			"-0.016": 0.0701783479878,
			"-0.015": 0.878799073981,
			"-0.014": 3.12742237844,
			"-0.013": 4.02152022113,
			"-0.012": 3.72715917988,
			"-0.011": 3.68655090763,
			"-0.01": 4.23780240938,
			"-0.009": 3.12836904414,
			"-0.008": 3.01124940316,
			"-0.007": 4.52753695467,
			"-0.006": 4.92295617089,
			"-0.005": 7.58446166374,
			"-0.004": 11.7707899458,
			"-0.003": 17.4822016282,
			"-0.002": 14.7183408209,
			"-0.001": 14.5819237619,
			"0.0": 12.9530603303,
			"0.001": 8.50999638877,
			"0.002": 4.99355823859,
			"0.003": 6.51369850545,
			"0.004": 7.3746662493,
			"0.005": 3.7164945392,
			"0.006": 2.89260117958,
			"0.007": 3.80105424214,
			"0.008": 3.53891413736,
			"0.009": 2.53296028647,
			"0.01": 2.63729809749,
			"0.011": 3.45516534843,
			"0.012": 5.16270846509,
			"0.013": 6.95698129858,
			"0.014": 7.01487392479,
			"0.015": 2.15894688656,
			"0.016": 0.102556252105,
			"0.017": 0.0,
			"0.018": 0.0,
			"0.019": 0.0,
			"0.02": 0.0,
			"0.021": 0.0,
			"0.022": 0.0,
			"0.023": 0.0,
			"0.024": 0.0,
			"0.025": 0.0
		}
	}
}
