{
	 "smiles": "CN1CCN(CC2=CC=C(I)C=C2)CC1", 
	 "Tm": 379.15, 
	 "num_atms": 32, 
	 "gaussian": { 
		 "optdone": 1, 
		 "sigma_profile": "no", 
		 "theory": "DFT", 
		 "functional": "B3LYP", 
		 "basiset": "6-31G**", 
		 "properties": { 
			 "R2extent": 5146.2265, 
			 "electric_dipole_moment_norm": 2.63775729172, 
			 "electric_quadrupole_moment_norm": 14.7645447383, 
			 "total_energy": -588.383550932, 
			 "HOMO_LUMO_gap": 0.16978, 
			 "cosmo_polarized_energy": -108494.45, 
			 "cosmo_cavitation_energy": 36.12, 
			 "cosmo_dispersion_energy": -27.32, 
			 "cosmo_repulsion_energy": 2.11, 
			 "cosmo_total_nonelectrostatic_energy": 10.91, 
			 "SMD_solvation_energy": 0.8 
		},
		"coords": [
			{
				"x": 3.69296261,
				"y": -0.4578325425,
				"z": -1.0983828772,
				"element": "C" 
			},
			{
				"x": 2.756341319,
				"y": -0.5497735504,
				"z": 0.0092636215,
				"element": "N" 
			},
			{
				"x": 2.5352366383,
				"y": 0.7541467633,
				"z": 0.6413083437,
				"element": "C" 
			},
			{
				"x": 1.2668774029,
				"y": 0.7111864869,
				"z": 1.4955465468,
				"element": "C" 
			},
			{
				"x": 0.046661413,
				"y": 0.4694169369,
				"z": 0.6992898389,
				"element": "N" 
			},
			{
				"x": -0.7697991958,
				"y": 1.6525329567,
				"z": 0.4567068897,
				"element": "C" 
			},
			{
				"x": -2.1949915633,
				"y": 1.3135763974,
				"z": 0.0517189795,
				"element": "C" 
			},
			{
				"x": -2.8862003098,
				"y": 0.2714817977,
				"z": 0.6825429656,
				"element": "C" 
			},
			{
				"x": -4.210920062,
				"y": -0.0160956412,
				"z": 0.3555559152,
				"element": "C" 
			},
			{
				"x": -4.856265733,
				"y": 0.7528149103,
				"z": -0.615858003,
				"element": "C" 
			},
			{
				"x": -6.8736188057,
				"y": 0.3239029043,
				"z": -1.1233908814,
				"element": "I" 
			},
			{
				"x": -4.1897518163,
				"y": 1.7937802121,
				"z": -1.2613342017,
				"element": "C" 
			},
			{
				"x": -2.8610493538,
				"y": 2.0619611452,
				"z": -0.9233420049,
				"element": "C" 
			},
			{
				"x": 0.3239647532,
				"y": -0.2760189783,
				"z": -0.5380765602,
				"element": "C" 
			},
			{
				"x": 1.4935002271,
				"y": -1.2381698989,
				"z": -0.3195858407,
				"element": "C" 
			},
			{
				"x": 3.912517218,
				"y": -1.4559447935,
				"z": -1.4901394184,
				"element": "H" 
			},
			{
				"x": 4.6357523408,
				"y": -0.0270154949,
				"z": -0.7428727927,
				"element": "H" 
			},
			{
				"x": 3.3371750579,
				"y": 0.1721029314,
				"z": -1.9379354598,
				"element": "H" 
			},
			{
				"x": 3.4036575817,
				"y": 1.0067438074,
				"z": 1.2645438578,
				"element": "H" 
			},
			{
				"x": 2.4370716877,
				"y": 1.5662914958,
				"z": -0.1068297867,
				"element": "H" 
			},
			{
				"x": 1.3792763408,
				"y": -0.0831254573,
				"z": 2.2457040225,
				"element": "H" 
			},
			{
				"x": 1.1574742646,
				"y": 1.6516675437,
				"z": 2.0436176938,
				"element": "H" 
			},
			{
				"x": -0.8059944332,
				"y": 2.2305603073,
				"z": 1.3891346892,
				"element": "H" 
			},
			{
				"x": -0.3337762326,
				"y": 2.3232664499,
				"z": -0.3107072591,
				"element": "H" 
			},
			{
				"x": -2.3666523094,
				"y": -0.3243730553,
				"z": 1.4269941067,
				"element": "H" 
			},
			{
				"x": -4.7314473122,
				"y": -0.827686661,
				"z": 0.8519450058,
				"element": "H" 
			},
			{
				"x": -4.6895418387,
				"y": 2.3846903652,
				"z": -2.0207606771,
				"element": "H" 
			},
			{
				"x": -2.3388212492,
				"y": 2.8685563897,
				"z": -1.43257532,
				"element": "H" 
			},
			{
				"x": 0.5673296161,
				"y": 0.4075837066,
				"z": -1.3746080818,
				"element": "H" 
			},
			{
				"x": -0.5726493743,
				"y": -0.8303988757,
				"z": -0.838531555,
				"element": "H" 
			},
			{
				"x": 1.6400578365,
				"y": -1.8440824338,
				"z": -1.2188444581,
				"element": "H" 
			},
			{
				"x": 1.2290232817,
				"y": -1.9324461249,
				"z": 0.489802701,
				"element": "H" 
			}
		],
		 "valence_orbital": [ 
			{
				"type": "occ",
				"energy": -0.26443,
				"method": "rhf"
			},
			{
				"type": "occ",
				"energy": -0.25952,
				"method": "rhf"
			},
			{
				"type": "occ",
				"energy": -0.23314,
				"method": "rhf"
			},
			{
				"type": "occ",
				"energy": -0.2114,
				"method": "rhf"
			},
			{
				"type": "occ",
				"energy": -0.20428,
				"method": "rhf"
			},
			{
				"type": "unocc",
				"energy": -0.0345,
				"method": "rhf"
			},
			{
				"type": "unocc",
				"energy": -0.01545,
				"method": "rhf"
			},
			{
				"type": "unocc",
				"energy": -0.01106,
				"method": "rhf"
			},
			{
				"type": "unocc",
				"energy": 0.04562,
				"method": "rhf"
			},
			{
				"type": "unocc",
				"energy": 0.05279,
				"method": "rhf"
			}
		],
		"cosmo_sigma_profile": { 
			"0.0": 0.0,
			"0.0": 0.0,
			"0.0": 0.0,
			"0.0": 0.0,
			"0.0": 0.0,
			"0.0": 0.0,
			"0.0": 0.0,
			"0.0": 0.0,
			"0.0": 0.0,
			"0.0": 0.0,
			"0.0": 0.0,
			"0.0": 0.0,
			"0.0": 0.0,
			"0.0": 0.0,
			"0.0": 0.0,
			"0.0": 0.0,
			"0.0": 0.0,
			"0.0": 0.0,
			"0.0": 0.0,
			"0.0": 0.0,
			"0.0": 0.0,
			"0.0": 0.0,
			"0.0": 0.0,
			"0.0": 0.0,
			"0.0": 0.0,
			"0.0": 0.0,
			"0.0": 0.0,
			"0.0": 0.0,
			"0.0": 0.0,
			"0.0": 0.0,
			"0.0": 0.0,
			"0.0": 0.0,
			"0.0": 0.0,
			"0.0": 0.0,
			"0.0": 0.0,
			"0.0": 0.0,
			"0.0": 0.0,
			"0.0": 0.0,
			"0.0": 0.0,
			"0.0": 0.0,
			"0.0": 0.0,
			"0.0": 0.0,
			"0.0": 0.0,
			"0.0": 0.0,
			"0.0": 0.0,
			"0.0": 0.0,
			"0.0": 0.0,
			"0.0": 0.0,
			"0.0": 0.0,
			"0.0": 0.0,
			"0.0": 0.0
		}
	}
}
