{
	 "smiles": "CCCNC1=C(N)N(CC2=CC=CC=C2)C(=O)NC1=O", 
	 "Tm": 484.15, 
	 "num_atms": 38, 
	 "gaussian": { 
		 "optdone": 1, 
		 "sigma_profile": "yes", 
		 "theory": "DFT", 
		 "functional": "B3LYP", 
		 "basiset": "6-31G**", 
		 "properties": { 
			 "R2extent": 8074.1411, 
			 "electric_dipole_moment_norm": 4.72503219142, 
			 "electric_quadrupole_moment_norm": 11.7949863887, 
			 "total_energy": -913.844752357, 
			 "HOMO_LUMO_gap": 0.18055, 
			 "cosmo_polarized_energy": -17.54, 
			 "cosmo_cavitation_energy": 40.29, 
			 "cosmo_dispersion_energy": -28.51, 
			 "cosmo_repulsion_energy": 2.2, 
			 "cosmo_total_nonelectrostatic_energy": 13.99, 
			 "SMD_solvation_energy": 6.69 
		},
		"coords": [
			{
				"x": 0.5549878561,
				"y": -1.0820072078,
				"z": -6.4882413591,
				"element": "C" 
			},
			{
				"x": 0.4964005861,
				"y": -1.800663224,
				"z": -5.1360805988,
				"element": "C" 
			},
			{
				"x": -0.4401711706,
				"y": -1.0937543094,
				"z": -4.1470734413,
				"element": "C" 
			},
			{
				"x": -0.5985791727,
				"y": -1.7305530997,
				"z": -2.8208219698,
				"element": "N" 
			},
			{
				"x": 0.5594335542,
				"y": -1.761873669,
				"z": -1.9924478401,
				"element": "C" 
			},
			{
				"x": 0.75936031,
				"y": -0.7364857544,
				"z": -1.0943544933,
				"element": "C" 
			},
			{
				"x": -0.1070724898,
				"y": 0.3316734947,
				"z": -1.0457975405,
				"element": "N" 
			},
			{
				"x": 1.8646321909,
				"y": -0.7055271812,
				"z": -0.2515929148,
				"element": "N" 
			},
			{
				"x": 2.1861561013,
				"y": 0.4905778557,
				"z": 0.5497654394,
				"element": "C" 
			},
			{
				"x": 1.3685687944,
				"y": 0.6296546786,
				"z": 1.8218592931,
				"element": "C" 
			},
			{
				"x": 1.3770365246,
				"y": -0.3885419914,
				"z": 2.7868932697,
				"element": "C" 
			},
			{
				"x": 0.6389554709,
				"y": -0.2505898284,
				"z": 3.9607830477,
				"element": "C" 
			},
			{
				"x": -0.1126660074,
				"y": 0.9060780863,
				"z": 4.1909752516,
				"element": "C" 
			},
			{
				"x": -0.1184737756,
				"y": 1.9274334656,
				"z": 3.2421354534,
				"element": "C" 
			},
			{
				"x": 0.6193462459,
				"y": 1.7879837887,
				"z": 2.0627238474,
				"element": "C" 
			},
			{
				"x": 2.7583676937,
				"y": -1.7835265076,
				"z": -0.1753997232,
				"element": "C" 
			},
			{
				"x": 3.7070827672,
				"y": -1.7962137457,
				"z": 0.5990056653,
				"element": "O" 
			},
			{
				"x": 2.4797095479,
				"y": -2.8185807622,
				"z": -1.0368746595,
				"element": "N" 
			},
			{
				"x": 1.4328826852,
				"y": -2.9075191821,
				"z": -1.9806701039,
				"element": "C" 
			},
			{
				"x": 1.3077765794,
				"y": -3.9195246586,
				"z": -2.6659271249,
				"element": "O" 
			},
			{
				"x": 0.921048177,
				"y": -0.0542701266,
				"z": -6.3789967259,
				"element": "H" 
			},
			{
				"x": 1.2238377696,
				"y": -1.5986562064,
				"z": -7.1836067609,
				"element": "H" 
			},
			{
				"x": -0.4346101522,
				"y": -1.03035581,
				"z": -6.9575104812,
				"element": "H" 
			},
			{
				"x": 1.5009140499,
				"y": -1.8656775954,
				"z": -4.7037201603,
				"element": "H" 
			},
			{
				"x": 0.1606796107,
				"y": -2.8358181942,
				"z": -5.2725955431,
				"element": "H" 
			},
			{
				"x": -0.0940227249,
				"y": -0.0659022719,
				"z": -3.9804086747,
				"element": "H" 
			},
			{
				"x": -1.4442801293,
				"y": -1.0168175455,
				"z": -4.5851235908,
				"element": "H" 
			},
			{
				"x": -0.9239231427,
				"y": -2.6864030712,
				"z": -2.9490726211,
				"element": "H" 
			},
			{
				"x": -0.9632221321,
				"y": 0.0947357315,
				"z": -1.5422783059,
				"element": "H" 
			},
			{
				"x": -0.2643157677,
				"y": 0.7285431566,
				"z": -0.1269390344,
				"element": "H" 
			},
			{
				"x": 2.0520817068,
				"y": 1.3679391277,
				"z": -0.0887253402,
				"element": "H" 
			},
			{
				"x": 3.2453893475,
				"y": 0.3946564217,
				"z": 0.7941890165,
				"element": "H" 
			},
			{
				"x": 1.9768568832,
				"y": -1.2775802072,
				"z": 2.6155809761,
				"element": "H" 
			},
			{
				"x": 0.6540015461,
				"y": -1.044394106,
				"z": 4.7020812061,
				"element": "H" 
			},
			{
				"x": -0.686009679,
				"y": 1.00985758,
				"z": 5.107513994,
				"element": "H" 
			},
			{
				"x": -0.694000874,
				"y": 2.8321375629,
				"z": 3.4155818122,
				"element": "H" 
			},
			{
				"x": 0.6219358771,
				"y": 2.5925017872,
				"z": 1.3296968474,
				"element": "H" 
			},
			{
				"x": 3.1063053421,
				"y": -3.6118364812,
				"z": -0.982726112,
				"element": "H" 
			}
		],
		 "valence_orbital": [ 
			{
				"type": "occ",
				"energy": -0.26452,
				"method": "rhf"
			},
			{
				"type": "occ",
				"energy": -0.26075,
				"method": "rhf"
			},
			{
				"type": "occ",
				"energy": -0.25443,
				"method": "rhf"
			},
			{
				"type": "occ",
				"energy": -0.24945,
				"method": "rhf"
			},
			{
				"type": "occ",
				"energy": -0.2007,
				"method": "rhf"
			},
			{
				"type": "unocc",
				"energy": -0.02015,
				"method": "rhf"
			},
			{
				"type": "unocc",
				"energy": -0.01723,
				"method": "rhf"
			},
			{
				"type": "unocc",
				"energy": -0.01056,
				"method": "rhf"
			},
			{
				"type": "unocc",
				"energy": 0.02016,
				"method": "rhf"
			},
			{
				"type": "unocc",
				"energy": 0.07993,
				"method": "rhf"
			}
		],
		"cosmo_sigma_profile": { 
			"-0.025": 0.0,
			"-0.024": 0.0,
			"-0.023": 0.0,
			"-0.022": 0.0,
			"-0.021": 0.0,
			"-0.02": 0.0,
			"-0.019": 0.0,
			"-0.018": 0.0,
			"-0.017": 0.0,
			"-0.016": 0.0387124370497,
			"-0.015": 1.03210059721,
			"-0.014": 0.563878416389,
			"-0.013": 1.06542249071,
			"-0.012": 0.972473480636,
			"-0.011": 1.23169330317,
			"-0.01": 2.6725456879,
			"-0.009": 3.62476630207,
			"-0.008": 4.6296055504,
			"-0.007": 6.44669595682,
			"-0.006": 12.3985689914,
			"-0.005": 16.0028534165,
			"-0.004": 20.0965620408,
			"-0.003": 30.676343661,
			"-0.002": 32.1976507877,
			"-0.001": 31.705585827,
			"0.0": 31.4129875441,
			"0.001": 24.7060171646,
			"0.002": 18.5706580969,
			"0.003": 12.2280096403,
			"0.004": 13.3760369562,
			"0.005": 12.297374468,
			"0.006": 4.59048079605,
			"0.007": 3.50371093309,
			"0.008": 4.52927015037,
			"0.009": 3.32138934678,
			"0.01": 3.47301029413,
			"0.011": 3.64165049384,
			"0.012": 5.18127266897,
			"0.013": 6.24095119212,
			"0.014": 4.96572568825,
			"0.015": 0.466764117424,
			"0.016": 0.0,
			"0.017": 0.0,
			"0.018": 0.0,
			"0.019": 0.0,
			"0.02": 0.0,
			"0.021": 0.0,
			"0.022": 0.0,
			"0.023": 0.0,
			"0.024": 0.0,
			"0.025": 0.0
		}
	}
}
