{
	 "smiles": "COC1=C2N=C(NC(=O)OCC(F)(F)F)SC2=CC=C1", 
	 "Tm": 407.15, 
	 "num_atms": 29, 
	 "gaussian": { 
		 "optdone": 1, 
		 "sigma_profile": "yes", 
		 "theory": "DFT", 
		 "functional": "B3LYP", 
		 "basiset": "6-31G**", 
		 "properties": { 
			 "R2extent": 7690.7223, 
			 "electric_dipole_moment_norm": 1.68986228433, 
			 "electric_quadrupole_moment_norm": 9.4363934795, 
			 "total_energy": -1457.48668865, 
			 "HOMO_LUMO_gap": 0.1736, 
			 "cosmo_polarized_energy": -13.28, 
			 "cosmo_cavitation_energy": 36.84, 
			 "cosmo_dispersion_energy": -26.05, 
			 "cosmo_repulsion_energy": 1.87, 
			 "cosmo_total_nonelectrostatic_energy": 12.67, 
			 "SMD_solvation_energy": 7.95 
		},
		"coords": [
			{
				"x": -1.6822985547,
				"y": -1.1266524454,
				"z": -0.2343289472,
				"element": "C" 
			},
			{
				"x": -2.2590803145,
				"y": 0.1652100702,
				"z": -0.4419884856,
				"element": "O" 
			},
			{
				"x": -1.5319855872,
				"y": 1.2086085162,
				"z": -0.9096139935,
				"element": "C" 
			},
			{
				"x": -0.1560028465,
				"y": 1.2040709997,
				"z": -1.241782646,
				"element": "C" 
			},
			{
				"x": 0.7018172524,
				"y": 0.1136294427,
				"z": -1.1737060101,
				"element": "N" 
			},
			{
				"x": 1.8919345755,
				"y": 0.4316721504,
				"z": -1.5395570064,
				"element": "C" 
			},
			{
				"x": 2.9936653365,
				"y": -0.418688093,
				"z": -1.5948956398,
				"element": "N" 
			},
			{
				"x": 3.2154255318,
				"y": -1.6378804982,
				"z": -0.9809413476,
				"element": "C" 
			},
			{
				"x": 4.1820787233,
				"y": -2.3225375673,
				"z": -1.2422590886,
				"element": "O" 
			},
			{
				"x": 2.2734742027,
				"y": -1.9244307222,
				"z": -0.0519101806,
				"element": "O" 
			},
			{
				"x": 2.3737273094,
				"y": -3.2075806952,
				"z": 0.5579519518,
				"element": "C" 
			},
			{
				"x": 1.2606503943,
				"y": -4.1005688643,
				"z": 0.0360657172,
				"element": "C" 
			},
			{
				"x": 1.3865321455,
				"y": -5.3296837223,
				"z": 0.5772084787,
				"element": "F" 
			},
			{
				"x": 1.3078580063,
				"y": -4.2169071884,
				"z": -1.3017644411,
				"element": "F" 
			},
			{
				"x": 0.0393958171,
				"y": -3.6309528081,
				"z": 0.3661910056,
				"element": "F" 
			},
			{
				"x": 2.1403223912,
				"y": 2.1282761081,
				"z": -2.0333980931,
				"element": "S" 
			},
			{
				"x": 0.4311237695,
				"y": 2.4083253117,
				"z": -1.7149440342,
				"element": "C" 
			},
			{
				"x": -0.2805649729,
				"y": 3.5932441702,
				"z": -1.8752495662,
				"element": "C" 
			},
			{
				"x": -1.6350185769,
				"y": 3.5682131898,
				"z": -1.540158865,
				"element": "C" 
			},
			{
				"x": -2.2444070304,
				"y": 2.4053180505,
				"z": -1.0688311235,
				"element": "C" 
			},
			{
				"x": -0.8614251865,
				"y": -1.0946078755,
				"z": 0.4844526444,
				"element": "H" 
			},
			{
				"x": -1.3077121575,
				"y": -1.5564142041,
				"z": -1.1661245281,
				"element": "H" 
			},
			{
				"x": -2.4978356601,
				"y": -1.7383011151,
				"z": 0.1560012584,
				"element": "H" 
			},
			{
				"x": 3.7455181484,
				"y": -0.1706347952,
				"z": -2.2228577894,
				"element": "H" 
			},
			{
				"x": 2.2488077121,
				"y": -3.0781538059,
				"z": 1.6346313328,
				"element": "H" 
			},
			{
				"x": 3.3370593766,
				"y": -3.6685373447,
				"z": 0.3349144729,
				"element": "H" 
			},
			{
				"x": 0.1938813506,
				"y": 4.497096985,
				"z": -2.2404708494,
				"element": "H" 
			},
			{
				"x": -2.2290591661,
				"y": 4.4708935908,
				"z": -1.6465504334,
				"element": "H" 
			},
			{
				"x": -3.2978819899,
				"y": 2.3947731597,
				"z": -0.8106837931,
				"element": "H" 
			}
		],
		 "valence_orbital": [ 
			{
				"type": "occ",
				"energy": -0.30547,
				"method": "rhf"
			},
			{
				"type": "occ",
				"energy": -0.29074,
				"method": "rhf"
			},
			{
				"type": "occ",
				"energy": -0.2824,
				"method": "rhf"
			},
			{
				"type": "occ",
				"energy": -0.23378,
				"method": "rhf"
			},
			{
				"type": "occ",
				"energy": -0.21003,
				"method": "rhf"
			},
			{
				"type": "unocc",
				"energy": -0.03643,
				"method": "rhf"
			},
			{
				"type": "unocc",
				"energy": -0.01088,
				"method": "rhf"
			},
			{
				"type": "unocc",
				"energy": -0.00119,
				"method": "rhf"
			},
			{
				"type": "unocc",
				"energy": 0.01895,
				"method": "rhf"
			},
			{
				"type": "unocc",
				"energy": 0.05138,
				"method": "rhf"
			}
		],
		"cosmo_sigma_profile": { 
			"-0.025": 0.0,
			"-0.024": 0.0,
			"-0.023": 0.0,
			"-0.022": 0.0,
			"-0.021": 0.0,
			"-0.02": 0.0,
			"-0.019": 0.0,
			"-0.018": 0.05978852445,
			"-0.017": 0.914457195662,
			"-0.016": 1.11022468283,
			"-0.015": 1.2633742742,
			"-0.014": 1.07166999978,
			"-0.013": 0.918527952073,
			"-0.012": 1.06621826588,
			"-0.011": 0.749535684879,
			"-0.01": 2.75681550077,
			"-0.009": 3.59786607636,
			"-0.008": 4.23517957059,
			"-0.007": 7.39010026207,
			"-0.006": 11.9178276822,
			"-0.005": 13.2948820568,
			"-0.004": 14.7419890454,
			"-0.003": 16.2403852807,
			"-0.002": 20.2975986599,
			"-0.001": 21.5513415225,
			"0.0": 22.9513420308,
			"0.001": 26.4730009493,
			"0.002": 39.7563694949,
			"0.003": 28.8145084204,
			"0.004": 17.0920764839,
			"0.005": 11.7792083591,
			"0.006": 5.44081676049,
			"0.007": 4.45536891226,
			"0.008": 4.60264215289,
			"0.009": 4.17835696728,
			"0.01": 3.01421617076,
			"0.011": 4.64330486407,
			"0.012": 1.02905816672,
			"0.013": 0.0,
			"0.014": 0.0,
			"0.015": 0.0,
			"0.016": 0.0,
			"0.017": 0.0,
			"0.018": 0.0,
			"0.019": 0.0,
			"0.02": 0.0,
			"0.021": 0.0,
			"0.022": 0.0,
			"0.023": 0.0,
			"0.024": 0.0,
			"0.025": 0.0
		}
	}
}
