{
	 "smiles": "CCC1=C(C)N=C(NC(=O)NS(=O)(=O)C2=CC=CS2)N=C1O", 
	 "Tm": 453.15, 
	 "num_atms": 36, 
	 "gaussian": { 
		 "optdone": 1, 
		 "sigma_profile": "yes", 
		 "theory": "DFT", 
		 "functional": "B3LYP", 
		 "basiset": "6-31G**", 
		 "properties": { 
			 "R2extent": 12643.8208, 
			 "electric_dipole_moment_norm": 5.15886692792, 
			 "electric_quadrupole_moment_norm": 35.6880337301, 
			 "total_energy": -1781.95331113, 
			 "HOMO_LUMO_gap": 0.17239, 
			 "cosmo_polarized_energy": -21.79, 
			 "cosmo_cavitation_energy": 44.38, 
			 "cosmo_dispersion_energy": -31.43, 
			 "cosmo_repulsion_energy": 2.35, 
			 "cosmo_total_nonelectrostatic_energy": 15.29, 
			 "SMD_solvation_energy": 5.92 
		},
		"coords": [
			{
				"x": 0.6305300069,
				"y": 4.3595322409,
				"z": -1.0866020564,
				"element": "C" 
			},
			{
				"x": 1.6062400309,
				"y": 3.1688455706,
				"z": -1.0331945718,
				"element": "C" 
			},
			{
				"x": 0.9597114672,
				"y": 1.8880991996,
				"z": -0.5603508258,
				"element": "C" 
			},
			{
				"x": 0.4862700884,
				"y": 0.8744558351,
				"z": -1.4051225631,
				"element": "C" 
			},
			{
				"x": 0.6014435764,
				"y": 0.9664512464,
				"z": -2.9064333692,
				"element": "C" 
			},
			{
				"x": -0.0906752682,
				"y": -0.2470064122,
				"z": -0.9328611023,
				"element": "N" 
			},
			{
				"x": -0.1953639687,
				"y": -0.3541083185,
				"z": 0.394724426,
				"element": "C" 
			},
			{
				"x": -0.8085771029,
				"y": -1.5407007368,
				"z": 0.8064676985,
				"element": "N" 
			},
			{
				"x": -0.9739958815,
				"y": -2.0084692584,
				"z": 2.0893929688,
				"element": "C" 
			},
			{
				"x": -0.5523030247,
				"y": -1.5268084642,
				"z": 3.1183320218,
				"element": "O" 
			},
			{
				"x": -1.7046480062,
				"y": -3.2340025864,
				"z": 2.1538026183,
				"element": "N" 
			},
			{
				"x": -2.8592824756,
				"y": -3.8767281626,
				"z": 1.0959608683,
				"element": "S" 
			},
			{
				"x": -3.1934108654,
				"y": -5.1771126492,
				"z": 1.6651390147,
				"element": "O" 
			},
			{
				"x": -2.3238483601,
				"y": -3.7086844567,
				"z": -0.2578169208,
				"element": "O" 
			},
			{
				"x": -4.2850840895,
				"y": -2.8413668933,
				"z": 1.2120139404,
				"element": "C" 
			},
			{
				"x": -4.568252897,
				"y": -1.7704032324,
				"z": 0.4002073797,
				"element": "C" 
			},
			{
				"x": -5.774248196,
				"y": -1.1185078152,
				"z": 0.7805381536,
				"element": "C" 
			},
			{
				"x": -6.3712868802,
				"y": -1.7060016406,
				"z": 1.8659128191,
				"element": "C" 
			},
			{
				"x": -5.4899197664,
				"y": -3.0751673848,
				"z": 2.4470583382,
				"element": "S" 
			},
			{
				"x": 0.1961792796,
				"y": 0.5386984971,
				"z": 1.3009320351,
				"element": "N" 
			},
			{
				"x": 0.7642663529,
				"y": 1.6365332032,
				"z": 0.8084932208,
				"element": "C" 
			},
			{
				"x": 1.172150577,
				"y": 2.5557768209,
				"z": 1.705937589,
				"element": "O" 
			},
			{
				"x": -0.2009933459,
				"y": 4.1629785702,
				"z": -1.7716557832,
				"element": "H" 
			},
			{
				"x": 1.1424248242,
				"y": 5.2653782876,
				"z": -1.4274686109,
				"element": "H" 
			},
			{
				"x": 0.2114866977,
				"y": 4.5594366002,
				"z": -0.096279563,
				"element": "H" 
			},
			{
				"x": 2.4304986819,
				"y": 3.4175948137,
				"z": -0.3562415857,
				"element": "H" 
			},
			{
				"x": 2.0500001677,
				"y": 3.0144328203,
				"z": -2.0216881867,
				"element": "H" 
			},
			{
				"x": 1.6508940863,
				"y": 0.9506523526,
				"z": -3.2225990939,
				"element": "H" 
			},
			{
				"x": 0.0908914435,
				"y": 0.1162779898,
				"z": -3.3598653344,
				"element": "H" 
			},
			{
				"x": 0.1629421537,
				"y": 1.8938443151,
				"z": -3.2888922612,
				"element": "H" 
			},
			{
				"x": -1.0761836224,
				"y": -2.1527132629,
				"z": 0.0393499205,
				"element": "H" 
			},
			{
				"x": -1.8104117654,
				"y": -3.5600378985,
				"z": 3.1092305483,
				"element": "H" 
			},
			{
				"x": -3.9408945174,
				"y": -1.479659046,
				"z": -0.4331830874,
				"element": "H" 
			},
			{
				"x": -6.1828401311,
				"y": -0.2566184977,
				"z": 0.2666237296,
				"element": "H" 
			},
			{
				"x": -7.2959608792,
				"y": -1.4241539063,
				"z": 2.3515529854,
				"element": "H" 
			},
			{
				"x": 0.9666516099,
				"y": 2.1842622594,
				"z": 2.5800846399,
				"element": "H" 
			}
		],
		 "valence_orbital": [ 
			{
				"type": "occ",
				"energy": -0.2822,
				"method": "rhf"
			},
			{
				"type": "occ",
				"energy": -0.27669,
				"method": "rhf"
			},
			{
				"type": "occ",
				"energy": -0.26498,
				"method": "rhf"
			},
			{
				"type": "occ",
				"energy": -0.25658,
				"method": "rhf"
			},
			{
				"type": "occ",
				"energy": -0.23453,
				"method": "rhf"
			},
			{
				"type": "unocc",
				"energy": -0.06214,
				"method": "rhf"
			},
			{
				"type": "unocc",
				"energy": -0.02824,
				"method": "rhf"
			},
			{
				"type": "unocc",
				"energy": -0.01512,
				"method": "rhf"
			},
			{
				"type": "unocc",
				"energy": 0.00155,
				"method": "rhf"
			},
			{
				"type": "unocc",
				"energy": 0.0215,
				"method": "rhf"
			}
		],
		"cosmo_sigma_profile": { 
			"-0.025": 0.0,
			"-0.024": 0.0,
			"-0.023": 0.0,
			"-0.022": 0.0,
			"-0.021": 0.0,
			"-0.02": 0.0,
			"-0.019": 0.0,
			"-0.018": 0.172487864107,
			"-0.017": 1.21977999714,
			"-0.016": 1.58270122803,
			"-0.015": 1.1358571586,
			"-0.014": 1.44463104623,
			"-0.013": 1.62793483136,
			"-0.012": 1.6112927568,
			"-0.011": 1.71360032188,
			"-0.01": 3.97295586732,
			"-0.009": 4.07433655157,
			"-0.008": 6.46262455123,
			"-0.007": 7.66468161762,
			"-0.006": 10.4150488378,
			"-0.005": 15.4981540603,
			"-0.004": 21.0282752814,
			"-0.003": 23.5862041306,
			"-0.002": 29.6264733124,
			"-0.001": 39.9731365482,
			"0.0": 40.1627146422,
			"0.001": 34.8232009077,
			"0.002": 21.1494813284,
			"0.003": 13.7211177353,
			"0.004": 8.12984373689,
			"0.005": 8.56438553568,
			"0.006": 6.83355434698,
			"0.007": 7.15197316063,
			"0.008": 7.98534580106,
			"0.009": 11.31195857,
			"0.01": 7.98985616668,
			"0.011": 5.13808304221,
			"0.012": 5.02997796284,
			"0.013": 1.53888403441,
			"0.014": 1.46461536031,
			"0.015": 1.54107248473,
			"0.016": 0.671490829438,
			"0.017": 0.0,
			"0.018": 0.0,
			"0.019": 0.0,
			"0.02": 0.0,
			"0.021": 0.0,
			"0.022": 0.0,
			"0.023": 0.0,
			"0.024": 0.0,
			"0.025": 0.0
		}
	}
}
