{
	 "smiles": "CN(CCCC(O)=O)C(=O)C1=CC(=CN1C)S(N)(=O)=O", 
	 "Tm": 447.15, 
	 "num_atms": 37, 
	 "gaussian": { 
		 "optdone": 1, 
		 "sigma_profile": "yes", 
		 "theory": "DFT", 
		 "functional": "B3LYP", 
		 "basiset": "6-31G**", 
		 "properties": { 
			 "R2extent": 9125.2096, 
			 "electric_dipole_moment_norm": 2.63714499033, 
			 "electric_quadrupole_moment_norm": 33.7756361976, 
			 "total_energy": -1367.9319514, 
			 "HOMO_LUMO_gap": 0.21064, 
			 "cosmo_polarized_energy": -27.36, 
			 "cosmo_cavitation_energy": 42.34, 
			 "cosmo_dispersion_energy": -29.37, 
			 "cosmo_repulsion_energy": 2.26, 
			 "cosmo_total_nonelectrostatic_energy": 15.23, 
			 "SMD_solvation_energy": 8.5 
		},
		"coords": [
			{
				"x": 1.2133363895,
				"y": 0.4071780355,
				"z": -0.379962471,
				"element": "C" 
			},
			{
				"x": 0.4527776996,
				"y": 0.9685961961,
				"z": 0.7337257025,
				"element": "N" 
			},
			{
				"x": 0.5374207837,
				"y": 2.4238656012,
				"z": 0.9486326882,
				"element": "C" 
			},
			{
				"x": -0.7946997604,
				"y": 3.1599114305,
				"z": 0.7398114226,
				"element": "C" 
			},
			{
				"x": -1.406979316,
				"y": 2.9930542341,
				"z": -0.6528293962,
				"element": "C" 
			},
			{
				"x": -0.6082439304,
				"y": 3.6482859096,
				"z": -1.7592846442,
				"element": "C" 
			},
			{
				"x": -1.1683012436,
				"y": 3.4283493321,
				"z": -2.9735983943,
				"element": "O" 
			},
			{
				"x": 0.405864374,
				"y": 4.3001344996,
				"z": -1.6232635585,
				"element": "O" 
			},
			{
				"x": -0.1517477194,
				"y": 0.238463044,
				"z": 1.7264403856,
				"element": "C" 
			},
			{
				"x": -0.5261040493,
				"y": 0.7747046994,
				"z": 2.7761431781,
				"element": "O" 
			},
			{
				"x": -0.4036824937,
				"y": -1.2101311836,
				"z": 1.505462334,
				"element": "C" 
			},
			{
				"x": -0.7479412047,
				"y": -1.9170842004,
				"z": 0.3634346983,
				"element": "C" 
			},
			{
				"x": -1.0500919681,
				"y": -3.2378489014,
				"z": 0.7714880995,
				"element": "C" 
			},
			{
				"x": -0.8768043121,
				"y": -3.3086321707,
				"z": 2.1436833076,
				"element": "C" 
			},
			{
				"x": -0.4999285093,
				"y": -2.0815798664,
				"z": 2.5882312175,
				"element": "N" 
			},
			{
				"x": -0.2368443001,
				"y": -1.7702663561,
				"z": 3.9931534664,
				"element": "C" 
			},
			{
				"x": -1.4790955861,
				"y": -4.6090765392,
				"z": -0.2344502239,
				"element": "S" 
			},
			{
				"x": -2.9783456414,
				"y": -4.1396139604,
				"z": -0.8785804056,
				"element": "N" 
			},
			{
				"x": -1.6505495453,
				"y": -5.757411846,
				"z": 0.6650662076,
				"element": "O" 
			},
			{
				"x": -0.5852398564,
				"y": -4.6795471242,
				"z": -1.3934326862,
				"element": "O" 
			},
			{
				"x": 2.1844399101,
				"y": 0.9085912274,
				"z": -0.4456322255,
				"element": "H" 
			},
			{
				"x": 1.3880524799,
				"y": -0.6562324681,
				"z": -0.2256841554,
				"element": "H" 
			},
			{
				"x": 0.7008559031,
				"y": 0.539898286,
				"z": -1.3415448416,
				"element": "H" 
			},
			{
				"x": 0.8789274938,
				"y": 2.6033677942,
				"z": 1.9722291068,
				"element": "H" 
			},
			{
				"x": 1.2849949767,
				"y": 2.8164860304,
				"z": 0.2576502721,
				"element": "H" 
			},
			{
				"x": -0.6196619776,
				"y": 4.2236316,
				"z": 0.9348819235,
				"element": "H" 
			},
			{
				"x": -1.5085418769,
				"y": 2.8047481806,
				"z": 1.487798125,
				"element": "H" 
			},
			{
				"x": -2.4161248784,
				"y": 3.4218765838,
				"z": -0.6876742196,
				"element": "H" 
			},
			{
				"x": -1.5363100118,
				"y": 1.9343690029,
				"z": -0.9079990436,
				"element": "H" 
			},
			{
				"x": -0.605701831,
				"y": 3.8890543816,
				"z": -3.6188153595,
				"element": "H" 
			},
			{
				"x": -0.8082072143,
				"y": -1.531381631,
				"z": -0.6424377254,
				"element": "H" 
			},
			{
				"x": -0.9856879334,
				"y": -4.1536678074,
				"z": 2.8060488988,
				"element": "H" 
			},
			{
				"x": 0.7549757471,
				"y": -1.3283089767,
				"z": 4.1053668351,
				"element": "H" 
			},
			{
				"x": -0.9717456105,
				"y": -1.0588517744,
				"z": 4.3676216342,
				"element": "H" 
			},
			{
				"x": -0.2806054259,
				"y": -2.7028786105,
				"z": 4.5579688012,
				"element": "H" 
			},
			{
				"x": -3.0451549397,
				"y": -4.5240677911,
				"z": -1.8185588247,
				"element": "H" 
			},
			{
				"x": -3.7366046216,
				"y": -4.4853848616,
				"z": -0.2945901293,
				"element": "H" 
			}
		],
		 "valence_orbital": [ 
			{
				"type": "occ",
				"energy": -0.28218,
				"method": "rhf"
			},
			{
				"type": "occ",
				"energy": -0.26296,
				"method": "rhf"
			},
			{
				"type": "occ",
				"energy": -0.25822,
				"method": "rhf"
			},
			{
				"type": "occ",
				"energy": -0.24693,
				"method": "rhf"
			},
			{
				"type": "occ",
				"energy": -0.23629,
				"method": "rhf"
			},
			{
				"type": "unocc",
				"energy": -0.02565,
				"method": "rhf"
			},
			{
				"type": "unocc",
				"energy": 0.00165,
				"method": "rhf"
			},
			{
				"type": "unocc",
				"energy": 0.00822,
				"method": "rhf"
			},
			{
				"type": "unocc",
				"energy": 0.06279,
				"method": "rhf"
			},
			{
				"type": "unocc",
				"energy": 0.06841,
				"method": "rhf"
			}
		],
		"cosmo_sigma_profile": { 
			"-0.025": 0.0,
			"-0.024": 0.0,
			"-0.023": 0.0,
			"-0.022": 0.0,
			"-0.021": 0.0,
			"-0.02": 0.0,
			"-0.019": 0.00114579990036,
			"-0.018": 0.710422248945,
			"-0.017": 0.810437112035,
			"-0.016": 1.11907875088,
			"-0.015": 1.48681078307,
			"-0.014": 3.05315937147,
			"-0.013": 2.82971435708,
			"-0.012": 3.07396963707,
			"-0.011": 3.99702369421,
			"-0.01": 4.24511048783,
			"-0.009": 3.97254361441,
			"-0.008": 4.68860186926,
			"-0.007": 7.37349196805,
			"-0.006": 14.1501133192,
			"-0.005": 23.4902724332,
			"-0.004": 26.0589867634,
			"-0.003": 35.2251623566,
			"-0.002": 30.6990008549,
			"-0.001": 19.9421464526,
			"0.0": 15.5426941303,
			"0.001": 13.7376492074,
			"0.002": 12.8974919361,
			"0.003": 10.960291075,
			"0.004": 9.33180982049,
			"0.005": 8.39793910124,
			"0.006": 7.82711792921,
			"0.007": 8.60864882913,
			"0.008": 7.52757511817,
			"0.009": 8.61694738629,
			"0.01": 9.48895438276,
			"0.011": 16.2875554157,
			"0.012": 13.0068038246,
			"0.013": 2.92260759467,
			"0.014": 1.39508617481,
			"0.015": 0.0,
			"0.016": 0.0,
			"0.017": 0.0,
			"0.018": 0.0,
			"0.019": 0.0,
			"0.02": 0.0,
			"0.021": 0.0,
			"0.022": 0.0,
			"0.023": 0.0,
			"0.024": 0.0,
			"0.025": 0.0
		}
	}
}
