{
	 "smiles": "OC(C=C)C(O)C=C", 
	 "Tm": 288.15, 
	 "num_atms": 18, 
	 "gaussian": { 
		 "optdone": 1, 
		 "sigma_profile": "yes", 
		 "theory": "DFT", 
		 "functional": "B3LYP", 
		 "basiset": "6-31G**", 
		 "properties": { 
			 "R2extent": 1877.8562, 
			 "electric_dipole_moment_norm": 2.62550191963, 
			 "electric_quadrupole_moment_norm": 8.84968877306, 
			 "total_energy": -385.044933685, 
			 "HOMO_LUMO_gap": 0.2586, 
			 "cosmo_polarized_energy": -10.03, 
			 "cosmo_cavitation_energy": 21.56, 
			 "cosmo_dispersion_energy": -15.15, 
			 "cosmo_repulsion_energy": 1.28, 
			 "cosmo_total_nonelectrostatic_energy": 7.69, 
			 "SMD_solvation_energy": 5.02 
		},
		"coords": [
			{
				"x": -1.4617787827,
				"y": -0.8387757849,
				"z": 0.2644647117,
				"element": "O" 
			},
			{
				"x": -0.2917176687,
				"y": -1.0050836312,
				"z": -0.5363800308,
				"element": "C" 
			},
			{
				"x": 0.4759755113,
				"y": 0.2784115248,
				"z": -0.7283088361,
				"element": "C" 
			},
			{
				"x": 0.0329666489,
				"y": 1.4933469322,
				"z": -0.4072624034,
				"element": "C" 
			},
			{
				"x": -0.8081556346,
				"y": -1.5923665114,
				"z": -1.8781314857,
				"element": "C" 
			},
			{
				"x": -1.8057615173,
				"y": -0.7401850984,
				"z": -2.4205516775,
				"element": "O" 
			},
			{
				"x": -1.3234937486,
				"y": -3.0005693296,
				"z": -1.6973155306,
				"element": "C" 
			},
			{
				"x": -0.8048487333,
				"y": -4.0700614425,
				"z": -2.2989267736,
				"element": "C" 
			},
			{
				"x": -1.2082935587,
				"y": -0.3715792717,
				"z": 1.0708902597,
				"element": "H" 
			},
			{
				"x": 0.378939591,
				"y": -1.7536527639,
				"z": -0.0833718601,
				"element": "H" 
			},
			{
				"x": 1.4651653056,
				"y": 0.1598769815,
				"z": -1.169905441,
				"element": "H" 
			},
			{
				"x": -0.9563345813,
				"y": 1.6451127087,
				"z": 0.0148050339,
				"element": "H" 
			},
			{
				"x": 0.6375282668,
				"y": 2.3798517502,
				"z": -0.5691963246,
				"element": "H" 
			},
			{
				"x": 0.022767152,
				"y": -1.6022781625,
				"z": -2.5934225878,
				"element": "H" 
			},
			{
				"x": -2.3689144743,
				"y": -0.488470184,
				"z": -1.6728057883,
				"element": "H" 
			},
			{
				"x": -2.1734271603,
				"y": -3.1040275535,
				"z": -1.0242580483,
				"element": "H" 
			},
			{
				"x": 0.0414153599,
				"y": -3.9881650894,
				"z": -2.9778778496,
				"element": "H" 
			},
			{
				"x": -1.2059319757,
				"y": -5.0673850744,
				"z": -2.1431453679,
				"element": "H" 
			}
		],
		 "valence_orbital": [ 
			{
				"type": "occ",
				"energy": -0.32655,
				"method": "rhf"
			},
			{
				"type": "occ",
				"energy": -0.29433,
				"method": "rhf"
			},
			{
				"type": "occ",
				"energy": -0.27284,
				"method": "rhf"
			},
			{
				"type": "occ",
				"energy": -0.25773,
				"method": "rhf"
			},
			{
				"type": "occ",
				"energy": -0.25151,
				"method": "rhf"
			},
			{
				"type": "unocc",
				"energy": 0.00709,
				"method": "rhf"
			},
			{
				"type": "unocc",
				"energy": 0.02228,
				"method": "rhf"
			},
			{
				"type": "unocc",
				"energy": 0.06471,
				"method": "rhf"
			},
			{
				"type": "unocc",
				"energy": 0.10693,
				"method": "rhf"
			},
			{
				"type": "unocc",
				"energy": 0.12987,
				"method": "rhf"
			}
		],
		"cosmo_sigma_profile": { 
			"-0.025": 0.0,
			"-0.024": 0.0,
			"-0.023": 0.0,
			"-0.022": 0.0,
			"-0.021": 0.0,
			"-0.02": 0.0,
			"-0.019": 0.0,
			"-0.018": 0.0,
			"-0.017": 0.0,
			"-0.016": 0.309647938847,
			"-0.015": 0.58983915057,
			"-0.014": 0.842270504114,
			"-0.013": 0.709976192711,
			"-0.012": 1.22295862031,
			"-0.011": 1.49843634907,
			"-0.01": 1.07739986278,
			"-0.009": 1.25312701028,
			"-0.008": 1.66976124589,
			"-0.007": 1.72699590946,
			"-0.006": 5.10876516623,
			"-0.005": 16.5549289788,
			"-0.004": 15.8882130636,
			"-0.003": 14.1530717485,
			"-0.002": 13.570708379,
			"-0.001": 12.8983533896,
			"0.0": 12.2345499381,
			"0.001": 8.78145961495,
			"0.002": 8.09462658652,
			"0.003": 8.79652473355,
			"0.004": 7.50699116658,
			"0.005": 6.59653840567,
			"0.006": 5.59101411207,
			"0.007": 4.77653538539,
			"0.008": 2.41497837286,
			"0.009": 3.19437677593,
			"0.01": 2.49658109037,
			"0.011": 2.77117244078,
			"0.012": 1.75950934489,
			"0.013": 1.79521544738,
			"0.014": 2.45111841071,
			"0.015": 0.651963502395,
			"0.016": 0.0,
			"0.017": 0.0,
			"0.018": 0.0,
			"0.019": 0.0,
			"0.02": 0.0,
			"0.021": 0.0,
			"0.022": 0.0,
			"0.023": 0.0,
			"0.024": 0.0,
			"0.025": 0.0
		}
	}
}
