{
	 "smiles": "CCOC1=C(C=C(Br)C=C1)S(N)(=O)=O", 
	 "Tm": 417.15, 
	 "num_atms": 24, 
	 "gaussian": { 
		 "optdone": 1, 
		 "sigma_profile": "yes", 
		 "theory": "DFT", 
		 "functional": "B3LYP", 
		 "basiset": "6-31G**", 
		 "properties": { 
			 "R2extent": 6952.0049, 
			 "electric_dipole_moment_norm": 4.7248458451, 
			 "electric_quadrupole_moment_norm": 11.8979229149, 
			 "total_energy": -3560.81556996, 
			 "HOMO_LUMO_gap": 0.20355, 
			 "cosmo_polarized_energy": -15.23, 
			 "cosmo_cavitation_energy": 31.4, 
			 "cosmo_dispersion_energy": -23.37, 
			 "cosmo_repulsion_energy": 1.81, 
			 "cosmo_total_nonelectrostatic_energy": 9.84, 
			 "SMD_solvation_energy": 4.09 
		},
		"coords": [
			{
				"x": 2.8518870649,
				"y": -0.4378587074,
				"z": -0.1005002996,
				"element": "C" 
			},
			{
				"x": 1.4020268,
				"y": -0.360884976,
				"z": 0.3346792256,
				"element": "C" 
			},
			{
				"x": 0.7284271965,
				"y": 0.5765023247,
				"z": -0.5428026824,
				"element": "O" 
			},
			{
				"x": -0.6078295723,
				"y": 0.7628093649,
				"z": -0.2976935379,
				"element": "C" 
			},
			{
				"x": -1.5479933604,
				"y": 0.2716896868,
				"z": -1.2135122028,
				"element": "C" 
			},
			{
				"x": -2.9127569208,
				"y": 0.5002773591,
				"z": -1.0520065817,
				"element": "C" 
			},
			{
				"x": -3.3388950049,
				"y": 1.2220543229,
				"z": 0.0605655559,
				"element": "C" 
			},
			{
				"x": -5.2019082653,
				"y": 1.5449703639,
				"z": 0.3131007213,
				"element": "Br" 
			},
			{
				"x": -2.4230782871,
				"y": 1.7169616693,
				"z": 0.9896504216,
				"element": "C" 
			},
			{
				"x": -1.059279513,
				"y": 1.4906724354,
				"z": 0.805714847,
				"element": "C" 
			},
			{
				"x": -1.0035408693,
				"y": -0.7259450138,
				"z": -2.601382357,
				"element": "S" 
			},
			{
				"x": -0.0283039782,
				"y": 0.3732278434,
				"z": -3.4285353721,
				"element": "N" 
			},
			{
				"x": -2.1515914595,
				"y": -0.9798415234,
				"z": -3.4744463034,
				"element": "O" 
			},
			{
				"x": -0.2195986558,
				"y": -1.8473565926,
				"z": -2.0676178551,
				"element": "O" 
			},
			{
				"x": 2.9257694663,
				"y": -0.8225874232,
				"z": -1.121590688,
				"element": "H" 
			},
			{
				"x": 3.4018298571,
				"y": -1.1159427075,
				"z": 0.5591628784,
				"element": "H" 
			},
			{
				"x": 3.3258725165,
				"y": 0.5471594835,
				"z": -0.058628977,
				"element": "H" 
			},
			{
				"x": 0.9081358813,
				"y": -1.3340084311,
				"z": 0.2464454913,
				"element": "H" 
			},
			{
				"x": 1.316315076,
				"y": -0.0087120906,
				"z": 1.3705286957,
				"element": "H" 
			},
			{
				"x": -3.6109684326,
				"y": 0.1150389469,
				"z": -1.7854077529,
				"element": "H" 
			},
			{
				"x": -2.7719072014,
				"y": 2.2847596393,
				"z": 1.8446453788,
				"element": "H" 
			},
			{
				"x": -0.3370513767,
				"y": 1.8940411214,
				"z": 1.5081179808,
				"element": "H" 
			},
			{
				"x": 0.8911684048,
				"y": 0.4236481695,
				"z": -2.9958827862,
				"element": "H" 
			},
			{
				"x": 0.0136706338,
				"y": 0.1010247345,
				"z": -4.4079038004,
				"element": "H" 
			}
		],
		 "valence_orbital": [ 
			{
				"type": "occ",
				"energy": -0.29771,
				"method": "rhf"
			},
			{
				"type": "occ",
				"energy": -0.29454,
				"method": "rhf"
			},
			{
				"type": "occ",
				"energy": -0.28731,
				"method": "rhf"
			},
			{
				"type": "occ",
				"energy": -0.27782,
				"method": "rhf"
			},
			{
				"type": "occ",
				"energy": -0.248,
				"method": "rhf"
			},
			{
				"type": "unocc",
				"energy": -0.04445,
				"method": "rhf"
			},
			{
				"type": "unocc",
				"energy": -0.02973,
				"method": "rhf"
			},
			{
				"type": "unocc",
				"energy": -0.00505,
				"method": "rhf"
			},
			{
				"type": "unocc",
				"energy": 0.06018,
				"method": "rhf"
			},
			{
				"type": "unocc",
				"energy": 0.06963,
				"method": "rhf"
			}
		],
		"cosmo_sigma_profile": { 
			"-0.025": 0.0,
			"-0.024": 0.0,
			"-0.023": 0.0,
			"-0.022": 0.0,
			"-0.021": 0.0,
			"-0.02": 0.0,
			"-0.019": 0.0,
			"-0.018": 0.0,
			"-0.017": 0.0,
			"-0.016": 0.2685139968,
			"-0.015": 1.17479165756,
			"-0.014": 1.3368195175,
			"-0.013": 2.18124662741,
			"-0.012": 2.0265167301,
			"-0.011": 1.96976648588,
			"-0.01": 1.66151651574,
			"-0.009": 1.32756829868,
			"-0.008": 5.69871196598,
			"-0.007": 7.36172815759,
			"-0.006": 7.27554784988,
			"-0.005": 10.7660950421,
			"-0.004": 18.7486061683,
			"-0.003": 20.0331364386,
			"-0.002": 17.2580527748,
			"-0.001": 18.3009837358,
			"0.0": 25.3728810691,
			"0.001": 25.8016415053,
			"0.002": 13.9617000573,
			"0.003": 12.3062195719,
			"0.004": 15.1283978141,
			"0.005": 6.36771402792,
			"0.006": 4.24023046898,
			"0.007": 3.87489399334,
			"0.008": 3.99248536282,
			"0.009": 5.71835726509,
			"0.01": 6.44424484546,
			"0.011": 9.18003449328,
			"0.012": 3.12728990019,
			"0.013": 0.00519854441129,
			"0.014": 0.0,
			"0.015": 0.0,
			"0.016": 0.0,
			"0.017": 0.0,
			"0.018": 0.0,
			"0.019": 0.0,
			"0.02": 0.0,
			"0.021": 0.0,
			"0.022": 0.0,
			"0.023": 0.0,
			"0.024": 0.0,
			"0.0": 0.0
		}
	}
}
