{
	 "smiles": "ClS(=O)(=O)C1=CNC(=O)NC1=O", 
	 "Tm": 429.15, 
	 "num_atms": 15, 
	 "gaussian": { 
		 "optdone": 1, 
		 "sigma_profile": "yes", 
		 "theory": "DFT", 
		 "functional": "B3LYP", 
		 "basiset": "6-31G**", 
		 "properties": { 
			 "R2extent": 3201.2856, 
			 "electric_dipole_moment_norm": 5.22123617068, 
			 "electric_quadrupole_moment_norm": 17.3871043768, 
			 "total_energy": -1422.96448168, 
			 "HOMO_LUMO_gap": 0.19664, 
			 "cosmo_polarized_energy": -24.52, 
			 "cosmo_cavitation_energy": 24.02, 
			 "cosmo_dispersion_energy": -18.45, 
			 "cosmo_repulsion_energy": 1.43, 
			 "cosmo_total_nonelectrostatic_energy": 7.01, 
			 "SMD_solvation_energy": 4.8 
		},
		"coords": [
			{
				"x": 3.506045361,
				"y": -0.7889554456,
				"z": -1.4026276585,
				"element": "Cl" 
			},
			{
				"x": 1.9813149912,
				"y": -2.1249233767,
				"z": -0.8145349555,
				"element": "S" 
			},
			{
				"x": 1.6312741571,
				"y": -2.8998459501,
				"z": -2.0025631783,
				"element": "O" 
			},
			{
				"x": 2.4185915189,
				"y": -2.7599150793,
				"z": 0.4161917581,
				"element": "O" 
			},
			{
				"x": 0.6370693245,
				"y": -1.0164211716,
				"z": -0.5023451864,
				"element": "C" 
			},
			{
				"x": -0.4432251358,
				"y": -1.0838247398,
				"z": -1.3247065849,
				"element": "C" 
			},
			{
				"x": -1.5340599666,
				"y": -0.3036921017,
				"z": -1.1170916508,
				"element": "N" 
			},
			{
				"x": -1.6472884971,
				"y": 0.6245112433,
				"z": -0.0651527363,
				"element": "C" 
			},
			{
				"x": -2.6397064488,
				"y": 1.3018496363,
				"z": 0.092291068,
				"element": "O" 
			},
			{
				"x": -0.5207888317,
				"y": 0.6678905399,
				"z": 0.7359771522,
				"element": "N" 
			},
			{
				"x": 0.6720434716,
				"y": -0.0804035222,
				"z": 0.6298296481,
				"element": "C" 
			},
			{
				"x": 1.5869066974,
				"y": 0.0867215632,
				"z": 1.4079544623,
				"element": "O" 
			},
			{
				"x": -0.4702786461,
				"y": -1.7640109134,
				"z": -2.1689152136,
				"element": "H" 
			},
			{
				"x": -2.341907936,
				"y": -0.3607761533,
				"z": -1.7228992192,
				"element": "H" 
			},
			{
				"x": -0.5544900597,
				"y": 1.3299954711,
				"z": 1.5032922949,
				"element": "H" 
			}
		],
		 "valence_orbital": [ 
			{
				"type": "occ",
				"energy": -0.32882,
				"method": "rhf"
			},
			{
				"type": "occ",
				"energy": -0.32066,
				"method": "rhf"
			},
			{
				"type": "occ",
				"energy": -0.31704,
				"method": "rhf"
			},
			{
				"type": "occ",
				"energy": -0.29803,
				"method": "rhf"
			},
			{
				"type": "occ",
				"energy": -0.2932,
				"method": "rhf"
			},
			{
				"type": "unocc",
				"energy": -0.09656,
				"method": "rhf"
			},
			{
				"type": "unocc",
				"energy": -0.07509,
				"method": "rhf"
			},
			{
				"type": "unocc",
				"energy": -0.03071,
				"method": "rhf"
			},
			{
				"type": "unocc",
				"energy": 0.02307,
				"method": "rhf"
			},
			{
				"type": "unocc",
				"energy": 0.04108,
				"method": "rhf"
			}
		],
		"cosmo_sigma_profile": { 
			"-0.025": 0.0,
			"-0.024": 0.0,
			"-0.023": 0.0,
			"-0.022": 0.0,
			"-0.021": 0.0,
			"-0.02": 0.0,
			"-0.019": 1.14636750984,
			"-0.018": 2.14235309592,
			"-0.017": 2.30703056896,
			"-0.016": 2.55434895022,
			"-0.015": 1.87937318519,
			"-0.014": 2.53601117196,
			"-0.013": 2.76625454868,
			"-0.012": 2.54328539291,
			"-0.011": 2.57639375983,
			"-0.01": 2.53017447005,
			"-0.009": 3.3266608084,
			"-0.008": 5.13021540594,
			"-0.007": 6.58426732239,
			"-0.006": 8.66371320306,
			"-0.005": 10.8358900995,
			"-0.004": 8.68055722736,
			"-0.003": 6.80893376591,
			"-0.002": 6.41609349113,
			"-0.001": 6.70437692934,
			"0.0": 7.27736326935,
			"0.001": 9.00111485196,
			"0.002": 10.7894248392,
			"0.003": 13.2046298333,
			"0.004": 7.43272326486,
			"0.005": 5.98231539565,
			"0.006": 6.22776190471,
			"0.007": 9.50656431558,
			"0.008": 12.3559421092,
			"0.009": 7.67853921839,
			"0.01": 6.86202628642,
			"0.011": 11.3288713733,
			"0.012": 2.05768352848,
			"0.013": 0.0,
			"0.014": 0.0,
			"0.015": 0.0,
			"0.016": 0.0,
			"0.017": 0.0,
			"0.018": 0.0,
			"0.019": 0.0,
			"0.02": 0.0,
			"0.021": 0.0,
			"0.022": 0.0,
			"0.023": 0.0,
			"0.024": 0.0,
			"0.025": 0.0
		}
	}
}
