{
	 "smiles": "COC(C)CCO", 
	 "Tm": 188.15, 
	 "num_atms": 19, 
	 "gaussian": { 
		 "optdone": 1, 
		 "sigma_profile": "yes", 
		 "theory": "DFT", 
		 "functional": "B3LYP", 
		 "basiset": "6-31G**", 
		 "properties": { 
			 "R2extent": 940.3352, 
			 "electric_dipole_moment_norm": 3.36189334899, 
			 "electric_quadrupole_moment_norm": 8.27392922015, 
			 "total_energy": -348.196056619, 
			 "HOMO_LUMO_gap": 0.31518, 
			 "cosmo_polarized_energy": -6.99, 
			 "cosmo_cavitation_energy": 20.41, 
			 "cosmo_dispersion_energy": -15.21, 
			 "cosmo_repulsion_energy": 1.3, 
			 "cosmo_total_nonelectrostatic_energy": 6.5, 
			 "SMD_solvation_energy": 4.08 
		},
		"coords": [
			{
				"x": -0.7143717321,
				"y": -1.9132828824,
				"z": 0.4239587712,
				"element": "C" 
			},
			{
				"x": 0.0485394809,
				"y": -0.7470985312,
				"z": 0.1806562265,
				"element": "O" 
			},
			{
				"x": -0.5953169074,
				"y": 0.4954354556,
				"z": 0.5077401903,
				"element": "C" 
			},
			{
				"x": -1.7126130509,
				"y": 0.8312091326,
				"z": -0.4854937494,
				"element": "C" 
			},
			{
				"x": 0.5093335936,
				"y": 1.5616524176,
				"z": 0.5783121845,
				"element": "C" 
			},
			{
				"x": 1.365450827,
				"y": 1.7028093595,
				"z": -0.6881385109,
				"element": "C" 
			},
			{
				"x": 2.2240882399,
				"y": 0.5980398476,
				"z": -0.9036443813,
				"element": "O" 
			},
			{
				"x": -1.5716792486,
				"y": -2.0074340624,
				"z": -0.256577951,
				"element": "H" 
			},
			{
				"x": -0.0515760712,
				"y": -2.7677251602,
				"z": 0.2679692097,
				"element": "H" 
			},
			{
				"x": -1.0857899157,
				"y": -1.9373175278,
				"z": 1.4594901969,
				"element": "H" 
			},
			{
				"x": -1.0399636923,
				"y": 0.3957057147,
				"z": 1.5123117473,
				"element": "H" 
			},
			{
				"x": -2.5043641769,
				"y": 0.0765635513,
				"z": -0.4683898096,
				"element": "H" 
			},
			{
				"x": -1.327283991,
				"y": 0.893993317,
				"z": -1.5071228493,
				"element": "H" 
			},
			{
				"x": -2.1705146579,
				"y": 1.7922521065,
				"z": -0.2297735111,
				"element": "H" 
			},
			{
				"x": 1.1770318432,
				"y": 1.3184779471,
				"z": 1.412740011,
				"element": "H" 
			},
			{
				"x": 0.0357472187,
				"y": 2.5245516731,
				"z": 0.8089719236,
				"element": "H" 
			},
			{
				"x": 0.7188634641,
				"y": 1.8892392593,
				"z": -1.5632058915,
				"element": "H" 
			},
			{
				"x": 2.0093008182,
				"y": 2.5840372524,
				"z": -0.5857725826,
				"element": "H" 
			},
			{
				"x": 1.6812179585,
				"y": -0.1922088702,
				"z": -0.7592312243,
				"element": "H" 
			}
		],
		 "valence_orbital": [ 
			{
				"type": "occ",
				"energy": -0.34601,
				"method": "rhf"
			},
			{
				"type": "occ",
				"energy": -0.33655,
				"method": "rhf"
			},
			{
				"type": "occ",
				"energy": -0.29085,
				"method": "rhf"
			},
			{
				"type": "occ",
				"energy": -0.26567,
				"method": "rhf"
			},
			{
				"type": "occ",
				"energy": -0.24324,
				"method": "rhf"
			},
			{
				"type": "unocc",
				"energy": 0.07194,
				"method": "rhf"
			},
			{
				"type": "unocc",
				"energy": 0.10758,
				"method": "rhf"
			},
			{
				"type": "unocc",
				"energy": 0.11004,
				"method": "rhf"
			},
			{
				"type": "unocc",
				"energy": 0.12437,
				"method": "rhf"
			},
			{
				"type": "unocc",
				"energy": 0.14101,
				"method": "rhf"
			}
		],
		"cosmo_sigma_profile": { 
			"-0.025": 0.0,
			"-0.024": 0.0,
			"-0.023": 0.0,
			"-0.022": 0.0,
			"-0.021": 0.0,
			"-0.02": 0.0,
			"-0.019": 0.0,
			"-0.018": 0.0,
			"-0.017": 0.0,
			"-0.016": 0.0,
			"-0.015": 0.0,
			"-0.014": 0.0,
			"-0.013": 0.0,
			"-0.012": 0.0,
			"-0.011": 0.0,
			"-0.01": 0.0,
			"-0.009": 0.0,
			"-0.008": 0.0,
			"-0.007": 0.0,
			"-0.006": 0.696268139335,
			"-0.005": 2.61960533229,
			"-0.004": 18.1744882745,
			"-0.003": 30.2220883261,
			"-0.002": 27.7936980692,
			"-0.001": 20.3580176584,
			"0.0": 15.3035350875,
			"0.001": 9.54260019995,
			"0.002": 4.87795487683,
			"0.003": 3.24552316543,
			"0.004": 2.91655270077,
			"0.005": 3.19777879388,
			"0.006": 3.1200747046,
			"0.007": 1.35490406999,
			"0.008": 1.96156939405,
			"0.009": 1.38529172628,
			"0.01": 1.67964709409,
			"0.011": 1.20473231813,
			"0.012": 1.09932314659,
			"0.013": 1.54036839068,
			"0.014": 1.7148576419,
			"0.015": 2.62350312549,
			"0.016": 0.981542532928,
			"0.017": 0.0,
			"0.018": 0.0,
			"0.019": 0.0,
			"0.02": 0.0,
			"0.021": 0.0,
			"0.022": 0.0,
			"0.023": 0.0,
			"0.024": 0.0,
			"0.025": 0.0
		}
	}
}
