{
	 "smiles": "CC1=NN(C(=O)C1C(Br)=C1/C(C)=NN(C1=O)C1=CC=CC=C1)C1=CC=CC=C1", 
	 "Tm": 491.15, 
	 "num_atms": 45, 
	 "gaussian": { 
		 "optdone": 1, 
		 "sigma_profile": "yes", 
		 "theory": "DFT", 
		 "functional": "B3LYP", 
		 "basiset": "6-31G**", 
		 "properties": { 
			 "R2extent": 16227.6156, 
			 "electric_dipole_moment_norm": 4.03134539453, 
			 "electric_quadrupole_moment_norm": 7.93679069146, 
			 "total_energy": -3751.29069697, 
			 "HOMO_LUMO_gap": 0.11503, 
			 "cosmo_polarized_energy": -17.32, 
			 "cosmo_cavitation_energy": 51.21, 
			 "cosmo_dispersion_energy": -36.29, 
			 "cosmo_repulsion_energy": 2.69, 
			 "cosmo_total_nonelectrostatic_energy": 17.61, 
			 "SMD_solvation_energy": 7.44 
		},
		"coords": [
			{
				"x": -4.1935622611,
				"y": 0.7481493512,
				"z": 0.3640218223,
				"element": "C" 
			},
			{
				"x": -2.9429558345,
				"y": 1.4003256999,
				"z": 0.8507047444,
				"element": "C" 
			},
			{
				"x": -2.9343106416,
				"y": 2.1845086659,
				"z": 1.8683719248,
				"element": "N" 
			},
			{
				"x": -1.6352052304,
				"y": 2.6678852285,
				"z": 2.0709111413,
				"element": "N" 
			},
			{
				"x": -0.7398162499,
				"y": 2.2056210025,
				"z": 1.1234949956,
				"element": "C" 
			},
			{
				"x": 0.443748728,
				"y": 2.461415368,
				"z": 1.0035866559,
				"element": "O" 
			},
			{
				"x": -1.5867087604,
				"y": 1.3073617134,
				"z": 0.1856708533,
				"element": "C" 
			},
			{
				"x": -0.9916403572,
				"y": -0.0577183001,
				"z": -0.0118943307,
				"element": "C" 
			},
			{
				"x": -1.3285477067,
				"y": -1.2375304768,
				"z": 1.4440919891,
				"element": "Br" 
			},
			{
				"x": -0.2278972145,
				"y": -0.4371345613,
				"z": -1.0598227654,
				"element": "C" 
			},
			{
				"x": 0.258966044,
				"y": 0.3446371263,
				"z": -2.206334357,
				"element": "C" 
			},
			{
				"x": 0.1141211015,
				"y": 1.8039112942,
				"z": -2.5102911395,
				"element": "C" 
			},
			{
				"x": 0.9735442576,
				"y": -0.3950040125,
				"z": -2.9973228293,
				"element": "N" 
			},
			{
				"x": 1.0173606862,
				"y": -1.6902354599,
				"z": -2.5042813605,
				"element": "N" 
			},
			{
				"x": 0.3279175543,
				"y": -1.8175582005,
				"z": -1.3005513616,
				"element": "C" 
			},
			{
				"x": 0.197384435,
				"y": -2.8282436266,
				"z": -0.6293483569,
				"element": "O" 
			},
			{
				"x": 1.7452324425,
				"y": -2.6750456002,
				"z": -3.224861956,
				"element": "C" 
			},
			{
				"x": 2.3815359926,
				"y": -2.3102015148,
				"z": -4.4208082896,
				"element": "C" 
			},
			{
				"x": 3.0970061099,
				"y": -3.2637322133,
				"z": -5.1411259819,
				"element": "C" 
			},
			{
				"x": 3.1886324173,
				"y": -4.5805664053,
				"z": -4.6871064144,
				"element": "C" 
			},
			{
				"x": 2.5525784058,
				"y": -4.9341316059,
				"z": -3.4970507944,
				"element": "C" 
			},
			{
				"x": 1.8306526658,
				"y": -3.9961097766,
				"z": -2.7591443659,
				"element": "C" 
			},
			{
				"x": -1.3984993065,
				"y": 3.5508539308,
				"z": 3.1616015337,
				"element": "C" 
			},
			{
				"x": -0.1100151808,
				"y": 4.0417902114,
				"z": 3.4206159064,
				"element": "C" 
			},
			{
				"x": 0.0856357819,
				"y": 4.9040879581,
				"z": 4.4991286934,
				"element": "C" 
			},
			{
				"x": -0.9769711231,
				"y": 5.2827113035,
				"z": 5.3198910377,
				"element": "C" 
			},
			{
				"x": -2.2541010676,
				"y": 4.7870647577,
				"z": 5.0527513899,
				"element": "C" 
			},
			{
				"x": -2.4734192768,
				"y": 3.924825259,
				"z": 3.9807575222,
				"element": "C" 
			},
			{
				"x": -4.0857186116,
				"y": -0.341372425,
				"z": 0.3555875644,
				"element": "H" 
			},
			{
				"x": -5.0279737146,
				"y": 1.0187030209,
				"z": 1.0135841518,
				"element": "H" 
			},
			{
				"x": -4.4240266547,
				"y": 1.0633357867,
				"z": -0.6607693659,
				"element": "H" 
			},
			{
				"x": -1.6336933879,
				"y": 1.8178431753,
				"z": -0.7812768183,
				"element": "H" 
			},
			{
				"x": -0.919220831,
				"y": 2.0753554773,
				"z": -2.7595448552,
				"element": "H" 
			},
			{
				"x": 0.440450828,
				"y": 2.4148934398,
				"z": -1.6623433516,
				"element": "H" 
			},
			{
				"x": 0.7363356816,
				"y": 2.0392567193,
				"z": -3.3760269761,
				"element": "H" 
			},
			{
				"x": 2.3100080719,
				"y": -1.2885247359,
				"z": -4.7699729686,
				"element": "H" 
			},
			{
				"x": 3.5861822374,
				"y": -2.9695743656,
				"z": -6.0654303355,
				"element": "H" 
			},
			{
				"x": 3.7479667751,
				"y": -5.3196331841,
				"z": -5.2527266925,
				"element": "H" 
			},
			{
				"x": 2.6141889976,
				"y": -5.9543745144,
				"z": -3.1291041278,
				"element": "H" 
			},
			{
				"x": 1.340365558,
				"y": -4.2749815311,
				"z": -1.8374712602,
				"element": "H" 
			},
			{
				"x": 0.716463089,
				"y": 3.751653882,
				"z": 2.7874034825,
				"element": "H" 
			},
			{
				"x": 1.0856881827,
				"y": 5.2801520346,
				"z": 4.6945141323,
				"element": "H" 
			},
			{
				"x": -0.8124576008,
				"y": 5.9543974717,
				"z": 6.1568935718,
				"element": "H" 
			},
			{
				"x": -3.0926438744,
				"y": 5.0706863326,
				"z": 5.6822141777,
				"element": "H" 
			},
			{
				"x": -3.4619811576,
				"y": 3.5377462996,
				"z": 3.7722137646,
				"element": "H" 
			}
		],
		 "valence_orbital": [ 
			{
				"type": "occ",
				"energy": -0.25814,
				"method": "rhf"
			},
			{
				"type": "occ",
				"energy": -0.2543,
				"method": "rhf"
			},
			{
				"type": "occ",
				"energy": -0.24596,
				"method": "rhf"
			},
			{
				"type": "occ",
				"energy": -0.22465,
				"method": "rhf"
			},
			{
				"type": "occ",
				"energy": -0.21261,
				"method": "rhf"
			},
			{
				"type": "unocc",
				"energy": -0.09758,
				"method": "rhf"
			},
			{
				"type": "unocc",
				"energy": -0.05188,
				"method": "rhf"
			},
			{
				"type": "unocc",
				"energy": -0.01974,
				"method": "rhf"
			},
			{
				"type": "unocc",
				"energy": -0.01094,
				"method": "rhf"
			},
			{
				"type": "unocc",
				"energy": -0.00985,
				"method": "rhf"
			}
		],
		"cosmo_sigma_profile": { 
			"-0.025": 0.0,
			"-0.024": 0.0,
			"-0.023": 0.0,
			"-0.022": 0.0,
			"-0.021": 0.0,
			"-0.02": 0.0,
			"-0.019": 0.0,
			"-0.018": 0.0,
			"-0.017": 0.0,
			"-0.016": 0.0,
			"-0.015": 0.0,
			"-0.014": 0.0,
			"-0.013": 0.0,
			"-0.012": 0.444016635897,
			"-0.011": 3.24795463696,
			"-0.01": 2.35238246462,
			"-0.009": 2.98324391651,
			"-0.008": 3.05832128651,
			"-0.007": 3.67686182297,
			"-0.006": 16.7013945758,
			"-0.005": 28.2758969097,
			"-0.004": 35.3764948918,
			"-0.003": 36.1001087653,
			"-0.002": 38.0548167184,
			"-0.001": 31.0378273074,
			"0.0": 27.7774335686,
			"0.001": 30.8766925565,
			"0.002": 31.4271351521,
			"0.003": 29.9697311476,
			"0.004": 26.3126246234,
			"0.005": 27.9722972424,
			"0.006": 11.6066687063,
			"0.007": 5.52448250152,
			"0.008": 6.54123078127,
			"0.009": 4.59069246595,
			"0.01": 4.57579145256,
			"0.011": 4.9663454494,
			"0.012": 1.26484290552,
			"0.013": 0.0,
			"0.014": 0.0,
			"0.015": 0.0,
			"0.016": 0.0,
			"0.017": 0.0,
			"0.018": 0.0,
			"0.019": 0.0,
			"0.02": 0.0,
			"0.021": 0.0,
			"0.022": 0.0,
			"0.023": 0.0,
			"0.024": 0.0,
			"0.025": 0.0
		}
	}
}
