{
	 "smiles": "NC1=CC(F)=C(C=C1)N1C=NC=N1", 
	 "Tm": 400.15, 
	 "num_atms": 20, 
	 "gaussian": { 
		 "optdone": 1, 
		 "sigma_profile": "yes", 
		 "theory": "DFT", 
		 "functional": "B3LYP", 
		 "basiset": "6-31G**", 
		 "properties": { 
			 "R2extent": 2726.8559, 
			 "electric_dipole_moment_norm": 6.14578597252, 
			 "electric_quadrupole_moment_norm": 6.58195431084, 
			 "total_energy": -627.88751293, 
			 "HOMO_LUMO_gap": 0.1998, 
			 "cosmo_polarized_energy": -16.32, 
			 "cosmo_cavitation_energy": 25.51, 
			 "cosmo_dispersion_energy": -18.54, 
			 "cosmo_repulsion_energy": 1.43, 
			 "cosmo_total_nonelectrostatic_energy": 8.4, 
			 "SMD_solvation_energy": 3.07 
		},
		"coords": [
			{
				"x": -1.3909321276,
				"y": 3.1046431085,
				"z": 0.6565713814,
				"element": "N" 
			},
			{
				"x": -0.8425959269,
				"y": 1.8493050016,
				"z": 0.4384757846,
				"element": "C" 
			},
			{
				"x": -1.5926864508,
				"y": 0.6886396859,
				"z": 0.6997982871,
				"element": "C" 
			},
			{
				"x": -1.0522486494,
				"y": -0.5579903048,
				"z": 0.430748861,
				"element": "C" 
			},
			{
				"x": -1.7767039433,
				"y": -1.648810897,
				"z": 0.7192826468,
				"element": "F" 
			},
			{
				"x": 0.2279112634,
				"y": -0.7075575516,
				"z": -0.1141189387,
				"element": "C" 
			},
			{
				"x": 0.9652014689,
				"y": 0.4498211534,
				"z": -0.3798147975,
				"element": "C" 
			},
			{
				"x": 0.4508842267,
				"y": 1.7101995174,
				"z": -0.1001428531,
				"element": "C" 
			},
			{
				"x": 0.7677065556,
				"y": -1.9949435481,
				"z": -0.3678332402,
				"element": "N" 
			},
			{
				"x": 1.9469648766,
				"y": -2.5166801549,
				"z": 0.0617128797,
				"element": "C" 
			},
			{
				"x": 2.1131473583,
				"y": -3.7378387101,
				"z": -0.4095015153,
				"element": "N" 
			},
			{
				"x": 0.975324701,
				"y": -3.9274908098,
				"z": -1.1389945825,
				"element": "C" 
			},
			{
				"x": 0.1280282439,
				"y": -2.9107660813,
				"z": -1.1526497249,
				"element": "N" 
			},
			{
				"x": -2.1581106208,
				"y": 3.1531687597,
				"z": 1.3109916972,
				"element": "H" 
			},
			{
				"x": -0.7365057941,
				"y": 3.866728039,
				"z": 0.7569481219,
				"element": "H" 
			},
			{
				"x": -2.5933740539,
				"y": 0.7433453702,
				"z": 1.1157785851,
				"element": "H" 
			},
			{
				"x": 1.9523914309,
				"y": 0.351055092,
				"z": -0.8202128458,
				"element": "H" 
			},
			{
				"x": 1.0407417274,
				"y": 2.5951795932,
				"z": -0.3196193362,
				"element": "H" 
			},
			{
				"x": 2.6203296427,
				"y": -1.9762275428,
				"z": 0.7122405815,
				"element": "H" 
			},
			{
				"x": 0.7657260714,
				"y": -4.8417797207,
				"z": -1.6772609921,
				"element": "H" 
			}
		],
		 "valence_orbital": [ 
			{
				"type": "occ",
				"energy": -0.28727,
				"method": "rhf"
			},
			{
				"type": "occ",
				"energy": -0.27026,
				"method": "rhf"
			},
			{
				"type": "occ",
				"energy": -0.26292,
				"method": "rhf"
			},
			{
				"type": "occ",
				"energy": -0.25998,
				"method": "rhf"
			},
			{
				"type": "occ",
				"energy": -0.21808,
				"method": "rhf"
			},
			{
				"type": "unocc",
				"energy": -0.01828,
				"method": "rhf"
			},
			{
				"type": "unocc",
				"energy": -0.01032,
				"method": "rhf"
			},
			{
				"type": "unocc",
				"energy": 0.02161,
				"method": "rhf"
			},
			{
				"type": "unocc",
				"energy": 0.05993,
				"method": "rhf"
			},
			{
				"type": "unocc",
				"energy": 0.06439,
				"method": "rhf"
			}
		],
		"cosmo_sigma_profile": { 
			"-0.025": 0.0,
			"-0.024": 0.0,
			"-0.023": 0.0,
			"-0.022": 0.0,
			"-0.021": 0.0,
			"-0.02": 0.0,
			"-0.019": 0.0,
			"-0.018": 0.0,
			"-0.017": 0.0,
			"-0.016": 0.0,
			"-0.015": 0.0,
			"-0.014": 0.0522790371986,
			"-0.013": 2.45246733703,
			"-0.012": 3.18013605946,
			"-0.011": 2.8146363618,
			"-0.01": 5.77233890249,
			"-0.009": 5.68097700991,
			"-0.008": 7.47743246454,
			"-0.007": 9.8126607692,
			"-0.006": 11.0606648613,
			"-0.005": 8.00349175838,
			"-0.004": 8.10225836335,
			"-0.003": 7.26328053445,
			"-0.002": 8.64166408142,
			"-0.001": 9.09403405415,
			"0.0": 11.4398074252,
			"0.001": 14.25224338,
			"0.002": 14.5440765887,
			"0.003": 17.3646035525,
			"0.004": 18.8114529439,
			"0.005": 6.70598108791,
			"0.006": 5.05008461114,
			"0.007": 4.50842132425,
			"0.008": 3.15438137638,
			"0.009": 3.72205918589,
			"0.01": 3.56928752833,
			"0.011": 2.69678099732,
			"0.012": 2.91967501534,
			"0.013": 2.87163152486,
			"0.014": 1.65813128843,
			"0.015": 1.16866922563,
			"0.016": 1.03705206539,
			"0.017": 0.178836176266,
			"0.018": 0.0,
			"0.019": 0.0,
			"0.02": 0.0,
			"0.021": 0.0,
			"0.022": 0.0,
			"0.023": 0.0,
			"0.024": 0.0,
			"0.025": 0.0
		}
	}
}
