{
	 "smiles": "NC1=C(C=C(C#N)C(=O)N1)C(O)=O", 
	 "Tm": 524.15, 
	 "num_atms": 18, 
	 "gaussian": { 
		 "optdone": 1, 
		 "sigma_profile": "yes", 
		 "theory": "DFT", 
		 "functional": "B3LYP", 
		 "basiset": "6-31G**", 
		 "properties": { 
			 "R2extent": 2850.9735, 
			 "electric_dipole_moment_norm": 9.52405558258, 
			 "electric_quadrupole_moment_norm": 20.8150759194, 
			 "total_energy": -659.684425022, 
			 "HOMO_LUMO_gap": 0.16739, 
			 "cosmo_polarized_energy": -36.93, 
			 "cosmo_cavitation_energy": 24.65, 
			 "cosmo_dispersion_energy": -17.74, 
			 "cosmo_repulsion_energy": 1.41, 
			 "cosmo_total_nonelectrostatic_energy": 8.32, 
			 "SMD_solvation_energy": 7.46 
		},
		"coords": [
			{
				"x": 0.5288135827,
				"y": 0.7924501371,
				"z": 1.448034188,
				"element": "N" 
			},
			{
				"x": 0.1544866034,
				"y": 0.3134640412,
				"z": 0.2172788906,
				"element": "C" 
			},
			{
				"x": 0.8892097536,
				"y": -0.6130664952,
				"z": -0.5340898992,
				"element": "C" 
			},
			{
				"x": 0.3343722477,
				"y": -1.0486975747,
				"z": -1.7644517729,
				"element": "C" 
			},
			{
				"x": -0.8373244261,
				"y": -0.5505141504,
				"z": -2.286681083,
				"element": "C" 
			},
			{
				"x": -1.3488004313,
				"y": -0.999005168,
				"z": -3.5407816107,
				"element": "C" 
			},
			{
				"x": -1.7483827548,
				"y": -1.376668827,
				"z": -4.5660210304,
				"element": "N" 
			},
			{
				"x": -1.5952204703,
				"y": 0.4590768534,
				"z": -1.5575367361,
				"element": "C" 
			},
			{
				"x": -2.6343367121,
				"y": 1.0055728636,
				"z": -1.8810443516,
				"element": "O" 
			},
			{
				"x": -1.002554578,
				"y": 0.7977931446,
				"z": -0.3049904828,
				"element": "N" 
			},
			{
				"x": 2.1634799923,
				"y": -1.2300007521,
				"z": -0.0954924777,
				"element": "C" 
			},
			{
				"x": 2.9139471592,
				"y": -0.5162688204,
				"z": 0.8136836288,
				"element": "O" 
			},
			{
				"x": 2.5565924852,
				"y": -2.3033818976,
				"z": -0.4811479219,
				"element": "O" 
			},
			{
				"x": -0.1712292597,
				"y": 1.2723211068,
				"z": 1.9964713643,
				"element": "H" 
			},
			{
				"x": 1.1519684885,
				"y": 0.2046643961,
				"z": 1.986312552,
				"element": "H" 
			},
			{
				"x": 0.8868123341,
				"y": -1.8100256428,
				"z": -2.3056657267,
				"element": "H" 
			},
			{
				"x": -1.5540849175,
				"y": 1.4743866588,
				"z": 0.2111248121,
				"element": "H" 
			},
			{
				"x": 2.7303509032,
				"y": 0.4315001265,
				"z": 0.7227976573,
				"element": "H" 
			}
		],
		 "valence_orbital": [ 
			{
				"type": "occ",
				"energy": -0.32865,
				"method": "rhf"
			},
			{
				"type": "occ",
				"energy": -0.31676,
				"method": "rhf"
			},
			{
				"type": "occ",
				"energy": -0.29611,
				"method": "rhf"
			},
			{
				"type": "occ",
				"energy": -0.28839,
				"method": "rhf"
			},
			{
				"type": "occ",
				"energy": -0.24215,
				"method": "rhf"
			},
			{
				"type": "unocc",
				"energy": -0.07476,
				"method": "rhf"
			},
			{
				"type": "unocc",
				"energy": -0.05408,
				"method": "rhf"
			},
			{
				"type": "unocc",
				"energy": 0.00999,
				"method": "rhf"
			},
			{
				"type": "unocc",
				"energy": 0.01644,
				"method": "rhf"
			},
			{
				"type": "unocc",
				"energy": 0.03564,
				"method": "rhf"
			}
		],
		"cosmo_sigma_profile": { 
			"-0.025": 0.0,
			"-0.024": 0.0,
			"-0.023": 0.0,
			"-0.022": 0.0,
			"-0.021": 0.0464540897751,
			"-0.02": 0.583863350177,
			"-0.019": 1.45512039155,
			"-0.018": 2.3936190791,
			"-0.017": 2.91645920648,
			"-0.016": 3.03800273628,
			"-0.015": 4.14047287916,
			"-0.014": 3.78846070273,
			"-0.013": 4.49725645574,
			"-0.012": 3.64441181059,
			"-0.011": 3.9399821213,
			"-0.01": 3.01064525037,
			"-0.009": 3.01510827004,
			"-0.008": 5.04241172402,
			"-0.007": 3.61393840466,
			"-0.006": 5.37811377883,
			"-0.005": 6.90770100247,
			"-0.004": 10.3304378958,
			"-0.003": 9.83088415983,
			"-0.002": 10.3063032875,
			"-0.001": 11.0407793929,
			"0.0": 6.96629386337,
			"0.001": 5.00468570355,
			"0.002": 5.1560935854,
			"0.003": 5.44551113116,
			"0.004": 4.87454675507,
			"0.005": 5.69893360698,
			"0.006": 6.04227129558,
			"0.007": 6.71303377226,
			"0.008": 7.47727432354,
			"0.009": 8.01166006479,
			"0.01": 10.2674252943,
			"0.011": 11.151817547,
			"0.012": 12.3107581698,
			"0.013": 4.32883176527,
			"0.014": 0.258412391664,
			"0.015": 0.0,
			"0.016": 0.0,
			"0.017": 0.0,
			"0.018": 0.0,
			"0.019": 0.0,
			"0.02": 0.0,
			"0.021": 0.0,
			"0.022": 0.0,
			"0.023": 0.0,
			"0.024": 0.0,
			"0.025": 0.0
		}
	}
}
