{
	 "smiles": "COC1=CC(OC)=C(C(=O)C=CC2=C(C=C3OCOC3=C2)[N+]([O-])=O)C(OC)=C1", 
	 "Tm": 497.0, 
	 "num_atms": 45, 
	 "gaussian": { 
		 "optdone": 1, 
		 "sigma_profile": "yes", 
		 "theory": "DFT", 
		 "functional": "B3LYP", 
		 "basiset": "6-31G**", 
		 "properties": { 
			 "R2extent": 14659.097, 
			 "electric_dipole_moment_norm": 4.07570455627, 
			 "electric_quadrupole_moment_norm": 39.6186471893, 
			 "total_energy": -1390.61494337, 
			 "HOMO_LUMO_gap": 0.12362, 
			 "cosmo_polarized_energy": -22.66, 
			 "cosmo_cavitation_energy": 50.83, 
			 "cosmo_dispersion_energy": -34.64, 
			 "cosmo_repulsion_energy": 2.65, 
			 "cosmo_total_nonelectrostatic_energy": 18.84, 
			 "SMD_solvation_energy": 14.14 
		},
		"coords": [
			{
				"x": -1.8708420897,
				"y": -4.0988135978,
				"z": -5.2426328592,
				"element": "C" 
			},
			{
				"x": -0.6939452509,
				"y": -4.1998264847,
				"z": -4.4541049822,
				"element": "O" 
			},
			{
				"x": -0.1600136011,
				"y": -3.0549505262,
				"z": -3.9443987444,
				"element": "C" 
			},
			{
				"x": -0.6871301045,
				"y": -1.779510195,
				"z": -4.148117058,
				"element": "C" 
			},
			{
				"x": -0.0442031615,
				"y": -0.6798999045,
				"z": -3.5662784685,
				"element": "C" 
			},
			{
				"x": -0.6018744988,
				"y": 0.5666228541,
				"z": -3.7238843202,
				"element": "O" 
			},
			{
				"x": -0.2376654343,
				"y": 1.2423195684,
				"z": -4.9333329139,
				"element": "C" 
			},
			{
				"x": 1.0986410581,
				"y": -0.826258867,
				"z": -2.7726514448,
				"element": "C" 
			},
			{
				"x": 1.7830478417,
				"y": 0.3938637186,
				"z": -2.2121342172,
				"element": "C" 
			},
			{
				"x": 2.2421794576,
				"y": 1.2540718636,
				"z": -2.9565993119,
				"element": "O" 
			},
			{
				"x": 1.8745861741,
				"y": 0.5860220853,
				"z": -0.7475594079,
				"element": "C" 
			},
			{
				"x": 1.2487949481,
				"y": -0.1793168808,
				"z": 0.1659839706,
				"element": "C" 
			},
			{
				"x": 1.3702640935,
				"y": 0.0131816064,
				"z": 1.6197313614,
				"element": "C" 
			},
			{
				"x": 0.3703912531,
				"y": -0.3358453186,
				"z": 2.5569757532,
				"element": "C" 
			},
			{
				"x": 0.535391714,
				"y": -0.2059072329,
				"z": 3.9506780926,
				"element": "C" 
			},
			{
				"x": 1.7320925176,
				"y": 0.3069408592,
				"z": 4.3860284887,
				"element": "C" 
			},
			{
				"x": 2.1508906517,
				"y": 0.5322328793,
				"z": 5.6681545293,
				"element": "O" 
			},
			{
				"x": 3.4617357642,
				"y": 1.1037820572,
				"z": 5.5652797286,
				"element": "C" 
			},
			{
				"x": 3.8253331495,
				"y": 1.124916529,
				"z": 4.1748377164,
				"element": "O" 
			},
			{
				"x": 2.7399637927,
				"y": 0.66667734,
				"z": 3.4887056916,
				"element": "C" 
			},
			{
				"x": 2.59458199,
				"y": 0.5176585624,
				"z": 2.1280261062,
				"element": "C" 
			},
			{
				"x": -0.9432372711,
				"y": -0.8374493986,
				"z": 2.1345958256,
				"element": "N" 
			},
			{
				"x": -1.6345351829,
				"y": -1.401904661,
				"z": 2.9856741996,
				"element": "O" 
			},
			{
				"x": -1.2969118554,
				"y": -0.6600407792,
				"z": 0.9673718716,
				"element": "O" 
			},
			{
				"x": 1.6133805879,
				"y": -2.1301451576,
				"z": -2.5871234665,
				"element": "C" 
			},
			{
				"x": 2.7497816818,
				"y": -2.2117103851,
				"z": -1.8346421392,
				"element": "O" 
			},
			{
				"x": 3.342562307,
				"y": -3.4864624027,
				"z": -1.6384682923,
				"element": "C" 
			},
			{
				"x": 0.9963083785,
				"y": -3.2345267987,
				"z": -3.1683991086,
				"element": "C" 
			},
			{
				"x": -2.1201739376,
				"y": -5.1179268625,
				"z": -5.5417967422,
				"element": "H" 
			},
			{
				"x": -2.7050170244,
				"y": -3.6752864142,
				"z": -4.6696447707,
				"element": "H" 
			},
			{
				"x": -1.7044497118,
				"y": -3.4888222384,
				"z": -6.1394215527,
				"element": "H" 
			},
			{
				"x": -1.5904490061,
				"y": -1.6060190373,
				"z": -4.7179356313,
				"element": "H" 
			},
			{
				"x": -0.5208456341,
				"y": 0.6546886503,
				"z": -5.816633428,
				"element": "H" 
			},
			{
				"x": -0.7922889869,
				"y": 2.1828438579,
				"z": -4.9347286965,
				"element": "H" 
			},
			{
				"x": 0.8375503525,
				"y": 1.4441546645,
				"z": -4.9470733981,
				"element": "H" 
			},
			{
				"x": 2.4508858806,
				"y": 1.4636145459,
				"z": -0.4645700573,
				"element": "H" 
			},
			{
				"x": 0.6135418194,
				"y": -0.9856213027,
				"z": -0.1779724874,
				"element": "H" 
			},
			{
				"x": -0.2607086042,
				"y": -0.4972416512,
				"z": 4.6211782803,
				"element": "H" 
			},
			{
				"x": 4.1757212517,
				"y": 0.4840455091,
				"z": 6.1176240639,
				"element": "H" 
			},
			{
				"x": 3.4478397442,
				"y": 2.1295617697,
				"z": 5.9523393497,
				"element": "H" 
			},
			{
				"x": 3.4093252589,
				"y": 0.7505671634,
				"z": 1.4545656166,
				"element": "H" 
			},
			{
				"x": 4.2288940075,
				"y": -3.3131850581,
				"z": -1.026316919,
				"element": "H" 
			},
			{
				"x": 2.6661268588,
				"y": -4.1708413842,
				"z": -1.1111071495,
				"element": "H" 
			},
			{
				"x": 3.6430831827,
				"y": -3.9412926361,
				"z": -2.5904794589,
				"element": "H" 
			},
			{
				"x": 1.3749956381,
				"y": -4.2405609094,
				"z": -3.0471436195,
				"element": "H" 
			}
		],
		 "valence_orbital": [ 
			{
				"type": "occ",
				"energy": -0.2603,
				"method": "rhf"
			},
			{
				"type": "occ",
				"energy": -0.24391,
				"method": "rhf"
			},
			{
				"type": "occ",
				"energy": -0.23019,
				"method": "rhf"
			},
			{
				"type": "occ",
				"energy": -0.22582,
				"method": "rhf"
			},
			{
				"type": "occ",
				"energy": -0.214,
				"method": "rhf"
			},
			{
				"type": "unocc",
				"energy": -0.09038,
				"method": "rhf"
			},
			{
				"type": "unocc",
				"energy": -0.05934,
				"method": "rhf"
			},
			{
				"type": "unocc",
				"energy": -0.01541,
				"method": "rhf"
			},
			{
				"type": "unocc",
				"energy": 0.00034,
				"method": "rhf"
			},
			{
				"type": "unocc",
				"energy": 0.01217,
				"method": "rhf"
			}
		],
		"cosmo_sigma_profile": { 
			"-0.025": 0.0,
			"-0.024": 0.0,
			"-0.023": 0.0,
			"-0.022": 0.0,
			"-0.021": 0.0,
			"-0.02": 0.0,
			"-0.019": 0.0,
			"-0.018": 0.0,
			"-0.017": 0.0,
			"-0.016": 0.0,
			"-0.015": 0.0,
			"-0.014": 0.0,
			"-0.013": 0.0,
			"-0.012": 0.0,
			"-0.011": 0.0,
			"-0.01": 0.0,
			"-0.009": 4.24224336025,
			"-0.008": 12.643010995,
			"-0.007": 14.1744826777,
			"-0.006": 22.7771758423,
			"-0.005": 32.6867248956,
			"-0.004": 31.922394716,
			"-0.003": 36.0223890524,
			"-0.002": 29.2380692715,
			"-0.001": 26.5221386573,
			"0.0": 28.959209148,
			"0.001": 21.3772853227,
			"0.002": 18.2804454268,
			"0.003": 23.866333647,
			"0.004": 17.979080862,
			"0.005": 13.7362061758,
			"0.006": 15.0957194192,
			"0.007": 16.0606368891,
			"0.008": 14.7946877084,
			"0.009": 8.78561238013,
			"0.01": 8.00683761853,
			"0.011": 4.51004627792,
			"0.012": 3.40252871837,
			"0.013": 1.10078051195,
			"0.014": 0.0446721210522,
			"0.015": 0.0,
			"0.016": 0.0,
			"0.017": 0.0,
			"0.018": 0.0,
			"0.019": 0.0,
			"0.02": 0.0,
			"0.021": 0.0,
			"0.022": 0.0,
			"0.023": 0.0,
			"0.024": 0.0,
			"0.025": 0.0
		}
	}
}
