{
	 "smiles": "CC(=O)C1=CC=C(C=C1)N1CCCC1", 
	 "Tm": 402.15, 
	 "num_atms": 29, 
	 "gaussian": { 
		 "optdone": 1, 
		 "sigma_profile": "yes", 
		 "theory": "DFT", 
		 "functional": "B3LYP", 
		 "basiset": "6-31G**", 
		 "properties": { 
			 "R2extent": 4252.8695, 
			 "electric_dipole_moment_norm": 6.00015937788, 
			 "electric_quadrupole_moment_norm": 19.2811144608, 
			 "total_energy": -596.303871186, 
			 "HOMO_LUMO_gap": 0.16306, 
			 "cosmo_polarized_energy": -11.31, 
			 "cosmo_cavitation_energy": 30.84, 
			 "cosmo_dispersion_energy": -22.86, 
			 "cosmo_repulsion_energy": 1.79, 
			 "cosmo_total_nonelectrostatic_energy": 9.76, 
			 "SMD_solvation_energy": 4.58 
		},
		"coords": [
			{
				"x": -1.1587627057,
				"y": 2.3472277821,
				"z": -4.2937085617,
				"element": "C" 
			},
			{
				"x": 0.0370194377,
				"y": 1.4490608151,
				"z": -4.0031200166,
				"element": "C" 
			},
			{
				"x": 0.8851677214,
				"y": 1.2605183731,
				"z": -4.8682147457,
				"element": "O" 
			},
			{
				"x": 0.1482318737,
				"y": 0.8166165688,
				"z": -2.6643692962,
				"element": "C" 
			},
			{
				"x": -0.7942474772,
				"y": 0.996254809,
				"z": -1.6380838979,
				"element": "C" 
			},
			{
				"x": -0.6480974651,
				"y": 0.3833965168,
				"z": -0.4017320959,
				"element": "C" 
			},
			{
				"x": 0.4670011006,
				"y": -0.4482566769,
				"z": -0.1338379682,
				"element": "C" 
			},
			{
				"x": 1.4194437124,
				"y": -0.6288636137,
				"z": -1.1699980715,
				"element": "C" 
			},
			{
				"x": 1.254339819,
				"y": -0.0101974722,
				"z": -2.3961251824,
				"element": "C" 
			},
			{
				"x": 0.6211791938,
				"y": -1.05805019,
				"z": 1.0849455534,
				"element": "N" 
			},
			{
				"x": -0.2628187937,
				"y": -0.8253774233,
				"z": 2.2274455258,
				"element": "C" 
			},
			{
				"x": 0.4809485427,
				"y": -1.4775840561,
				"z": 3.4023083148,
				"element": "C" 
			},
			{
				"x": 1.2663419276,
				"y": -2.6168204572,
				"z": 2.7336395217,
				"element": "C" 
			},
			{
				"x": 1.6908379113,
				"y": -2.0099160419,
				"z": 1.388322799,
				"element": "C" 
			},
			{
				"x": -1.1946917182,
				"y": 3.1951997383,
				"z": -3.6007340587,
				"element": "H" 
			},
			{
				"x": -1.0724145178,
				"y": 2.7195847867,
				"z": -5.3149843159,
				"element": "H" 
			},
			{
				"x": -2.101079211,
				"y": 1.7983293548,
				"z": -4.1869211474,
				"element": "H" 
			},
			{
				"x": -1.665704919,
				"y": 1.6231009536,
				"z": -1.8017976368,
				"element": "H" 
			},
			{
				"x": -1.4050682123,
				"y": 0.5371251386,
				"z": 0.3586453639,
				"element": "H" 
			},
			{
				"x": 2.2931955451,
				"y": -1.2476149361,
				"z": -1.0000855257,
				"element": "H" 
			},
			{
				"x": 1.9863805368,
				"y": -0.1479919214,
				"z": -3.1854562848,
				"element": "H" 
			},
			{
				"x": -1.2491056991,
				"y": -1.2892154121,
				"z": 2.0684694534,
				"element": "H" 
			},
			{
				"x": -0.426994683,
				"y": 0.2472089816,
				"z": 2.3858887233,
				"element": "H" 
			},
			{
				"x": 1.1724509366,
				"y": -0.755867524,
				"z": 3.8512982635,
				"element": "H" 
			},
			{
				"x": -0.1986016563,
				"y": -1.8220556443,
				"z": 4.1862026946,
				"element": "H" 
			},
			{
				"x": 2.1201068521,
				"y": -2.9588466767,
				"z": 3.3244000084,
				"element": "H" 
			},
			{
				"x": 0.6102204213,
				"y": -3.4776535993,
				"z": 2.5629552735,
				"element": "H" 
			},
			{
				"x": 2.6651694972,
				"y": -1.5024144524,
				"z": 1.4656663496,
				"element": "H" 
			},
			{
				"x": 1.7777520289,
				"y": -2.7681977208,
				"z": 0.6012809607,
				"element": "H" 
			}
		],
		 "valence_orbital": [ 
			{
				"type": "occ",
				"energy": -0.33023,
				"method": "rhf"
			},
			{
				"type": "occ",
				"energy": -0.28284,
				"method": "rhf"
			},
			{
				"type": "occ",
				"energy": -0.24829,
				"method": "rhf"
			},
			{
				"type": "occ",
				"energy": -0.22772,
				"method": "rhf"
			},
			{
				"type": "occ",
				"energy": -0.19358,
				"method": "rhf"
			},
			{
				"type": "unocc",
				"energy": -0.03052,
				"method": "rhf"
			},
			{
				"type": "unocc",
				"energy": 0.00381,
				"method": "rhf"
			},
			{
				"type": "unocc",
				"energy": 0.06193,
				"method": "rhf"
			},
			{
				"type": "unocc",
				"energy": 0.07229,
				"method": "rhf"
			},
			{
				"type": "unocc",
				"energy": 0.09869,
				"method": "rhf"
			}
		],
		"cosmo_sigma_profile": { 
			"-0.025": 0.0,
			"-0.024": 0.0,
			"-0.023": 0.0,
			"-0.022": 0.0,
			"-0.021": 0.0,
			"-0.02": 0.0,
			"-0.019": 0.0,
			"-0.018": 0.0,
			"-0.017": 0.0,
			"-0.016": 0.0,
			"-0.015": 0.0,
			"-0.014": 0.0,
			"-0.013": 0.0,
			"-0.012": 0.0,
			"-0.011": 0.0,
			"-0.01": 0.0,
			"-0.009": 0.0,
			"-0.008": 0.0,
			"-0.007": 0.0,
			"-0.006": 3.46131705762,
			"-0.005": 16.0661612982,
			"-0.004": 29.0706575269,
			"-0.003": 37.2953602542,
			"-0.002": 33.9927139386,
			"-0.001": 23.2013126287,
			"0.0": 20.4600757739,
			"0.001": 10.5773654117,
			"0.002": 7.63407322618,
			"0.003": 10.4692444269,
			"0.004": 12.0439866663,
			"0.005": 11.7355316035,
			"0.006": 7.95381951702,
			"0.007": 2.35794655205,
			"0.008": 1.40281522861,
			"0.009": 1.10953206081,
			"0.01": 2.15048928104,
			"0.011": 1.79215990105,
			"0.012": 3.16588926039,
			"0.013": 4.3206318952,
			"0.014": 2.15954322188,
			"0.015": 0.304601841134,
			"0.016": 0.0,
			"0.017": 0.0,
			"0.018": 0.0,
			"0.019": 0.0,
			"0.02": 0.0,
			"0.021": 0.0,
			"0.022": 0.0,
			"0.023": 0.0,
			"0.024": 0.0,
			"0.025": 0.0
		}
	}
}
