{
	 "smiles": "ClCC(=O)N1CCN(CC1)S(=O)(=O)C1=CC=C(Cl)S1", 
	 "Tm": 515.15, 
	 "num_atms": 31, 
	 "gaussian": { 
		 "optdone": 1, 
		 "sigma_profile": "yes", 
		 "theory": "DFT", 
		 "functional": "B3LYP", 
		 "basiset": "6-31G**", 
		 "properties": { 
			 "R2extent": 10946.8504, 
			 "electric_dipole_moment_norm": 5.21191061032, 
			 "electric_quadrupole_moment_norm": 9.17694857346, 
			 "total_energy": -2440.13665673, 
			 "HOMO_LUMO_gap": 0.17873, 
			 "cosmo_polarized_energy": -18.87, 
			 "cosmo_cavitation_energy": 40.27, 
			 "cosmo_dispersion_energy": -29.3, 
			 "cosmo_repulsion_energy": 2.18, 
			 "cosmo_total_nonelectrostatic_energy": 13.14, 
			 "SMD_solvation_energy": 4.45 
		},
		"coords": [
			{
				"x": -3.7637238295,
				"y": -0.9461158874,
				"z": 2.4566798211,
				"element": "Cl" 
			},
			{
				"x": -2.9476555095,
				"y": 0.6670392988,
				"z": 2.2760454604,
				"element": "C" 
			},
			{
				"x": -1.4530612887,
				"y": 0.6238806541,
				"z": 2.6073032643,
				"element": "C" 
			},
			{
				"x": -1.0552045851,
				"y": 1.2183977728,
				"z": 3.6031477381,
				"element": "O" 
			},
			{
				"x": -0.6158542514,
				"y": -0.0544484145,
				"z": 1.761748051,
				"element": "N" 
			},
			{
				"x": -0.9861344801,
				"y": -0.7563057991,
				"z": 0.533274239,
				"element": "C" 
			},
			{
				"x": -0.1462820889,
				"y": -0.2307490712,
				"z": -0.6422062379,
				"element": "C" 
			},
			{
				"x": 1.3009648986,
				"y": -0.2561404082,
				"z": -0.3615833466,
				"element": "N" 
			},
			{
				"x": 1.6529862937,
				"y": 0.3894269546,
				"z": 0.9213281212,
				"element": "C" 
			},
			{
				"x": 0.8105899647,
				"y": -0.1334989113,
				"z": 2.0889023906,
				"element": "C" 
			},
			{
				"x": 2.107405093,
				"y": -1.6929190454,
				"z": -0.7496148204,
				"element": "S" 
			},
			{
				"x": 1.2665428513,
				"y": -2.875670404,
				"z": -0.5180234078,
				"element": "O" 
			},
			{
				"x": 3.4336847918,
				"y": -1.5915434591,
				"z": -0.1384263559,
				"element": "O" 
			},
			{
				"x": 2.2389415697,
				"y": -1.5430246843,
				"z": -2.5114823032,
				"element": "C" 
			},
			{
				"x": 1.8427621505,
				"y": -2.5069577384,
				"z": -3.4029912847,
				"element": "C" 
			},
			{
				"x": 2.1641665981,
				"y": -2.176742317,
				"z": -4.7493638122,
				"element": "C" 
			},
			{
				"x": 2.8066260645,
				"y": -0.9696861513,
				"z": -4.8365098893,
				"element": "C" 
			},
			{
				"x": 3.3562271045,
				"y": -0.1969222383,
				"z": -6.2803094922,
				"element": "Cl" 
			},
			{
				"x": 3.0357158948,
				"y": -0.2015605386,
				"z": -3.2906128456,
				"element": "S" 
			},
			{
				"x": -3.4061793671,
				"y": 1.3362027167,
				"z": 2.9997713221,
				"element": "H" 
			},
			{
				"x": -3.1524920762,
				"y": 1.0176010963,
				"z": 1.2627554814,
				"element": "H" 
			},
			{
				"x": -2.0455352468,
				"y": -0.6230505429,
				"z": 0.3178591717,
				"element": "H" 
			},
			{
				"x": -0.8045642595,
				"y": -1.8305074104,
				"z": 0.6561868732,
				"element": "H" 
			},
			{
				"x": -0.3500100483,
				"y": -0.8124986446,
				"z": -1.5447328872,
				"element": "H" 
			},
			{
				"x": -0.4089173744,
				"y": 0.8133893467,
				"z": -0.8511899127,
				"element": "H" 
			},
			{
				"x": 2.71634847,
				"y": 0.2365121627,
				"z": 1.1073133638,
				"element": "H" 
			},
			{
				"x": 1.475010373,
				"y": 1.4628197616,
				"z": 0.78656228,
				"element": "H" 
			},
			{
				"x": 0.9773854642,
				"y": 0.461498334,
				"z": 2.9871173002,
				"element": "H" 
			},
			{
				"x": 1.0745211555,
				"y": -1.1779485784,
				"z": 2.302818566,
				"element": "H" 
			},
			{
				"x": 1.3442530928,
				"y": -3.4160250589,
				"z": -3.0897858297,
				"element": "H" 
			},
			{
				"x": 1.9337825749,
				"y": -2.7940527949,
				"z": -5.6082810185,
				"element": "H" 
			}
		],
		 "valence_orbital": [ 
			{
				"type": "occ",
				"energy": -0.29024,
				"method": "rhf"
			},
			{
				"type": "occ",
				"energy": -0.28444,
				"method": "rhf"
			},
			{
				"type": "occ",
				"energy": -0.26286,
				"method": "rhf"
			},
			{
				"type": "occ",
				"energy": -0.26087,
				"method": "rhf"
			},
			{
				"type": "occ",
				"energy": -0.24386,
				"method": "rhf"
			},
			{
				"type": "unocc",
				"energy": -0.06513,
				"method": "rhf"
			},
			{
				"type": "unocc",
				"energy": -0.02414,
				"method": "rhf"
			},
			{
				"type": "unocc",
				"energy": -0.01292,
				"method": "rhf"
			},
			{
				"type": "unocc",
				"energy": -0.00069,
				"method": "rhf"
			},
			{
				"type": "unocc",
				"energy": 0.02189,
				"method": "rhf"
			}
		],
		"cosmo_sigma_profile": { 
			"-0.025": 0.0,
			"-0.024": 0.0,
			"-0.023": 0.0,
			"-0.022": 0.0,
			"-0.021": 0.0,
			"-0.02": 0.0,
			"-0.019": 0.0,
			"-0.018": 0.0,
			"-0.017": 0.0,
			"-0.016": 0.0,
			"-0.015": 0.0,
			"-0.014": 0.0,
			"-0.013": 0.0,
			"-0.012": 0.0,
			"-0.011": 0.175575849289,
			"-0.01": 2.11375860534,
			"-0.009": 5.7827146359,
			"-0.008": 6.83312091176,
			"-0.007": 11.7164735404,
			"-0.006": 19.8534969272,
			"-0.005": 22.2033728667,
			"-0.004": 24.3612721731,
			"-0.003": 21.817238779,
			"-0.002": 19.985227699,
			"-0.001": 25.05204326,
			"0.0": 28.5983281975,
			"0.001": 28.3742736735,
			"0.002": 23.9114401982,
			"0.003": 16.8966021812,
			"0.004": 11.4243630647,
			"0.005": 11.4529401301,
			"0.006": 7.40226302658,
			"0.007": 3.52863540115,
			"0.008": 4.62159909638,
			"0.009": 7.17164502754,
			"0.01": 7.65623619603,
			"0.011": 7.26261810587,
			"0.012": 3.21354349348,
			"0.013": 4.73506941426,
			"0.014": 0.909048433717,
			"0.015": 0.0,
			"0.016": 0.0,
			"0.017": 0.0,
			"0.018": 0.0,
			"0.019": 0.0,
			"0.02": 0.0,
			"0.021": 0.0,
			"0.022": 0.0,
			"0.023": 0.0,
			"0.024": 0.0,
			"0.025": 0.0
		}
	}
}
