{
	 "smiles": "NC(=O)C1=CC=CS1", 
	 "Tm": 455.15, 
	 "num_atms": 13, 
	 "gaussian": { 
		 "optdone": 1, 
		 "sigma_profile": "yes", 
		 "theory": "DFT", 
		 "functional": "B3LYP", 
		 "basiset": "6-31G**", 
		 "properties": { 
			 "R2extent": 1735.4508, 
			 "electric_dipole_moment_norm": 4.048990652, 
			 "electric_quadrupole_moment_norm": 10.8804963228, 
			 "total_energy": -721.708313358, 
			 "HOMO_LUMO_gap": 0.19677, 
			 "cosmo_polarized_energy": -13.86, 
			 "cosmo_cavitation_energy": 18.96, 
			 "cosmo_dispersion_energy": -14.83, 
			 "cosmo_repulsion_energy": 1.19, 
			 "cosmo_total_nonelectrostatic_energy": 5.32, 
			 "SMD_solvation_energy": 4.16 
		},
		"coords": [
			{
				"x": -0.6351038136,
				"y": 0.1768920404,
				"z": 1.0815462961,
				"element": "N" 
			},
			{
				"x": -0.3912337971,
				"y": -1.0983649726,
				"z": 0.6281363979,
				"element": "C" 
			},
			{
				"x": -0.8986786856,
				"y": -2.0860641122,
				"z": 1.1477531228,
				"element": "O" 
			},
			{
				"x": 0.5520063981,
				"y": -1.211970254,
				"z": -0.5097002621,
				"element": "C" 
			},
			{
				"x": 1.3657372739,
				"y": -0.2779213856,
				"z": -1.1113008204,
				"element": "C" 
			},
			{
				"x": 2.1343173898,
				"y": -0.8159926816,
				"z": -2.1804253124,
				"element": "C" 
			},
			{
				"x": 1.8943781531,
				"y": -2.1533617527,
				"z": -2.3707743748,
				"element": "C" 
			},
			{
				"x": 0.7380726462,
				"y": -2.7771432759,
				"z": -1.2502496305,
				"element": "S" 
			},
			{
				"x": -0.4884290192,
				"y": 0.9701320427,
				"z": 0.4772059121,
				"element": "H" 
			},
			{
				"x": -1.3729579732,
				"y": 0.254637469,
				"z": 1.7665539597,
				"element": "H" 
			},
			{
				"x": 1.4357955731,
				"y": 0.7550622108,
				"z": -0.7875791764,
				"element": "H" 
			},
			{
				"x": 2.8342811436,
				"y": -0.23981738,
				"z": -2.7745721889,
				"element": "H" 
			},
			{
				"x": 2.3387147108,
				"y": -2.8072879485,
				"z": -3.108993923,
				"element": "H" 
			}
		],
		 "valence_orbital": [ 
			{
				"type": "occ",
				"energy": -0.34945,
				"method": "rhf"
			},
			{
				"type": "occ",
				"energy": -0.27516,
				"method": "rhf"
			},
			{
				"type": "occ",
				"energy": -0.26007,
				"method": "rhf"
			},
			{
				"type": "occ",
				"energy": -0.25463,
				"method": "rhf"
			},
			{
				"type": "occ",
				"energy": -0.24317,
				"method": "rhf"
			},
			{
				"type": "unocc",
				"energy": -0.0464,
				"method": "rhf"
			},
			{
				"type": "unocc",
				"energy": 0.0307,
				"method": "rhf"
			},
			{
				"type": "unocc",
				"energy": 0.03616,
				"method": "rhf"
			},
			{
				"type": "unocc",
				"energy": 0.06959,
				"method": "rhf"
			},
			{
				"type": "unocc",
				"energy": 0.0941,
				"method": "rhf"
			}
		],
		"cosmo_sigma_profile": { 
			"-0.025": 0.0,
			"-0.024": 0.0,
			"-0.023": 0.0,
			"-0.022": 0.0,
			"-0.021": 0.0,
			"-0.02": 0.0,
			"-0.019": 0.0,
			"-0.018": 0.0,
			"-0.017": 0.0,
			"-0.016": 0.0,
			"-0.015": 0.161639488656,
			"-0.014": 1.46219807839,
			"-0.013": 3.09261158174,
			"-0.012": 2.61742388873,
			"-0.011": 2.15718293711,
			"-0.01": 2.94356767736,
			"-0.009": 3.86959504219,
			"-0.008": 5.47585892513,
			"-0.007": 5.89439638611,
			"-0.006": 7.34438249581,
			"-0.005": 6.95930447564,
			"-0.004": 6.65076714723,
			"-0.003": 4.82910269636,
			"-0.002": 4.97725940008,
			"-0.001": 7.93320601614,
			"0.0": 6.7819049098,
			"0.001": 9.81962973526,
			"0.002": 12.5045165309,
			"0.003": 18.8635735973,
			"0.004": 12.7837575674,
			"0.005": 3.53656353822,
			"0.006": 2.88734346681,
			"0.007": 1.73835557374,
			"0.008": 2.59421933461,
			"0.009": 1.81890685496,
			"0.01": 1.78674153026,
			"0.011": 1.49612266629,
			"0.012": 2.21462289253,
			"0.013": 5.22603259192,
			"0.014": 3.28082646558,
			"0.015": 0.103667337785,
			"0.016": 0.0,
			"0.017": 0.0,
			"0.018": 0.0,
			"0.019": 0.0,
			"0.02": 0.0,
			"0.021": 0.0,
			"0.022": 0.0,
			"0.023": 0.0,
			"0.024": 0.0,
			"0.025": 0.0
		}
	}
}
