{
	 "smiles": "O=P(NN=CC1=CC=CC=C1)(N1CC1)N1CC1", 
	 "Tm": 384.15, 
	 "num_atms": 32, 
	 "gaussian": { 
		 "optdone": 1, 
		 "sigma_profile": "yes", 
		 "theory": "DFT", 
		 "functional": "B3LYP", 
		 "basiset": "6-31G**", 
		 "properties": { 
			 "R2extent": 5694.7286, 
			 "electric_dipole_moment_norm": 2.22228975159, 
			 "electric_quadrupole_moment_norm": 11.7249994269, 
			 "total_energy": -1063.71838174, 
			 "HOMO_LUMO_gap": 0.17458, 
			 "cosmo_polarized_energy": -15.64, 
			 "cosmo_cavitation_energy": 37.43, 
			 "cosmo_dispersion_energy": -25.74, 
			 "cosmo_repulsion_energy": 2.0, 
			 "cosmo_total_nonelectrostatic_energy": 13.68, 
			 "SMD_solvation_energy": 3.42 
		},
		"coords": [
			{
				"x": -0.6505387492,
				"y": 1.1898789195,
				"z": 3.4819545288,
				"element": "O" 
			},
			{
				"x": -0.9054711163,
				"y": 1.1067643433,
				"z": 2.0165108871,
				"element": "P" 
			},
			{
				"x": 0.5454240343,
				"y": 0.6533517486,
				"z": 1.2351869017,
				"element": "N" 
			},
			{
				"x": 0.8860711871,
				"y": 0.257094603,
				"z": -0.0347286735,
				"element": "N" 
			},
			{
				"x": -0.0077214134,
				"y": 0.1455546784,
				"z": -0.9536328848,
				"element": "C" 
			},
			{
				"x": 0.3666353687,
				"y": -0.2665259618,
				"z": -2.3124423111,
				"element": "C" 
			},
			{
				"x": -0.6388714557,
				"y": -0.3915523084,
				"z": -3.2845023442,
				"element": "C" 
			},
			{
				"x": -0.3274288395,
				"y": -0.7805927333,
				"z": -4.5873274759,
				"element": "C" 
			},
			{
				"x": 0.995817258,
				"y": -1.0503200681,
				"z": -4.9379285893,
				"element": "C" 
			},
			{
				"x": 2.0056338335,
				"y": -0.9283154489,
				"z": -3.9762390018,
				"element": "C" 
			},
			{
				"x": 1.6977842523,
				"y": -0.5402783667,
				"z": -2.6767326953,
				"element": "C" 
			},
			{
				"x": -2.0390954731,
				"y": -0.0117100147,
				"z": 1.4476901815,
				"element": "N" 
			},
			{
				"x": -3.2841746395,
				"y": -0.2141980581,
				"z": 2.2020463708,
				"element": "C" 
			},
			{
				"x": -2.2331678766,
				"y": -1.2670336386,
				"z": 2.1908125767,
				"element": "C" 
			},
			{
				"x": -1.5238358955,
				"y": 2.531675292,
				"z": 1.3430159362,
				"element": "N" 
			},
			{
				"x": -0.8950865147,
				"y": 3.2627684592,
				"z": 0.2325556738,
				"element": "C" 
			},
			{
				"x": -0.8691687315,
				"y": 3.8163640038,
				"z": 1.6117464784,
				"element": "C" 
			},
			{
				"x": 1.3352638421,
				"y": 0.6126288079,
				"z": 1.8654708036,
				"element": "H" 
			},
			{
				"x": -1.0686281242,
				"y": 0.3259332524,
				"z": -0.7680715415,
				"element": "H" 
			},
			{
				"x": -1.6709405529,
				"y": -0.1828116983,
				"z": -3.0128503501,
				"element": "H" 
			},
			{
				"x": -1.1177163543,
				"y": -0.872883012,
				"z": -5.3269780642,
				"element": "H" 
			},
			{
				"x": 1.2415193412,
				"y": -1.3531980547,
				"z": -5.951716378,
				"element": "H" 
			},
			{
				"x": 3.0374271357,
				"y": -1.1373921743,
				"z": -4.2450789031,
				"element": "H" 
			},
			{
				"x": 2.4747126025,
				"y": -0.4431369163,
				"z": -1.9258083791,
				"element": "H" 
			},
			{
				"x": -3.4170472344,
				"y": 0.3466830071,
				"z": 3.1242080188,
				"element": "H" 
			},
			{
				"x": -4.1733203897,
				"y": -0.3213413141,
				"z": 1.5865534169,
				"element": "H" 
			},
			{
				"x": -1.6608119881,
				"y": -1.4065240605,
				"z": 3.1051340621,
				"element": "H" 
			},
			{
				"x": -2.3483006341,
				"y": -2.1487625206,
				"z": 1.5661640417,
				"element": "H" 
			},
			{
				"x": 0.0396533043,
				"y": 2.8798730033,
				"z": -0.169496434,
				"element": "H" 
			},
			{
				"x": -1.5906811847,
				"y": 3.6569289889,
				"z": -0.5041132488,
				"element": "H" 
			},
			{
				"x": -1.5468974101,
				"y": 4.6177347753,
				"z": 1.8946356025,
				"element": "H" 
			},
			{
				"x": 0.079862418,
				"y": 3.8104424665,
				"z": 2.1441617941,
				"element": "H" 
			}
		],
		 "valence_orbital": [ 
			{
				"type": "occ",
				"energy": -0.26943,
				"method": "rhf"
			},
			{
				"type": "occ",
				"energy": -0.26364,
				"method": "rhf"
			},
			{
				"type": "occ",
				"energy": -0.25374,
				"method": "rhf"
			},
			{
				"type": "occ",
				"energy": -0.24972,
				"method": "rhf"
			},
			{
				"type": "occ",
				"energy": -0.21231,
				"method": "rhf"
			},
			{
				"type": "unocc",
				"energy": -0.03773,
				"method": "rhf"
			},
			{
				"type": "unocc",
				"energy": 0.00122,
				"method": "rhf"
			},
			{
				"type": "unocc",
				"energy": 0.04981,
				"method": "rhf"
			},
			{
				"type": "unocc",
				"energy": 0.0635,
				"method": "rhf"
			},
			{
				"type": "unocc",
				"energy": 0.06986,
				"method": "rhf"
			}
		],
		"cosmo_sigma_profile": { 
			"-0.025": 0.0,
			"-0.024": 0.0,
			"-0.023": 0.0,
			"-0.022": 0.0,
			"-0.021": 0.0,
			"-0.02": 0.0,
			"-0.019": 0.0,
			"-0.018": 0.0,
			"-0.017": 0.0,
			"-0.016": 0.0,
			"-0.015": 0.120954363749,
			"-0.014": 0.709267559705,
			"-0.013": 0.658453262585,
			"-0.012": 1.20161221179,
			"-0.011": 1.00833060783,
			"-0.01": 0.299964254567,
			"-0.009": 0.357479886522,
			"-0.008": 0.681389124514,
			"-0.007": 6.45721937802,
			"-0.006": 21.6157803589,
			"-0.005": 25.198994859,
			"-0.004": 27.8977391152,
			"-0.003": 28.9671065653,
			"-0.002": 23.8653900562,
			"-0.001": 18.5368964727,
			"0.0": 17.7615785101,
			"0.001": 16.2378522198,
			"0.002": 13.8334005768,
			"0.003": 16.9009992369,
			"0.004": 17.3607289119,
			"0.005": 17.366038771,
			"0.006": 9.46628202987,
			"0.007": 4.20904845897,
			"0.008": 4.69636335656,
			"0.009": 3.40335094407,
			"0.01": 2.27382235093,
			"0.011": 1.65965425138,
			"0.012": 2.87986983088,
			"0.013": 1.79751709646,
			"0.014": 3.03999249514,
			"0.015": 5.08341159231,
			"0.016": 0.281419652224,
			"0.017": 0.0,
			"0.018": 0.0,
			"0.019": 0.0,
			"0.02": 0.0,
			"0.021": 0.0,
			"0.022": 0.0,
			"0.023": 0.0,
			"0.024": 0.0,
			"0.025": 0.0
		}
	}
}
