{
	 "smiles": "OC(=O)C1=CC=C(CN2C=NC3=CC=CC=C23)C=C1", 
	 "Tm": 534.15, 
	 "num_atms": 31, 
	 "gaussian": { 
		 "optdone": 1, 
		 "sigma_profile": "yes", 
		 "theory": "DFT", 
		 "functional": "B3LYP", 
		 "basiset": "6-31G**", 
		 "properties": { 
			 "R2extent": 6541.1088, 
			 "electric_dipole_moment_norm": 2.86583424852, 
			 "electric_quadrupole_moment_norm": 34.2747884554, 
			 "total_energy": -838.796077085, 
			 "HOMO_LUMO_gap": 0.16765, 
			 "cosmo_polarized_energy": -22.99, 
			 "cosmo_cavitation_energy": 35.91, 
			 "cosmo_dispersion_energy": -25.39, 
			 "cosmo_repulsion_energy": 1.93, 
			 "cosmo_total_nonelectrostatic_energy": 12.45, 
			 "SMD_solvation_energy": 5.32 
		},
		"coords": [
			{
				"x": -2.0792359322,
				"y": 2.9564322757,
				"z": 3.7189185555,
				"element": "O" 
			},
			{
				"x": -1.8893207828,
				"y": 1.6126481609,
				"z": 3.6382965575,
				"element": "C" 
			},
			{
				"x": -2.5352532911,
				"y": 0.8686004763,
				"z": 4.338048734,
				"element": "O" 
			},
			{
				"x": -0.8592362698,
				"y": 1.1304786763,
				"z": 2.6603922472,
				"element": "C" 
			},
			{
				"x": -0.3636663832,
				"y": -0.1695708168,
				"z": 2.8279422134,
				"element": "C" 
			},
			{
				"x": 0.5848862276,
				"y": -0.6778371379,
				"z": 1.9475677099,
				"element": "C" 
			},
			{
				"x": 1.0543779598,
				"y": 0.0939679035,
				"z": 0.8757523822,
				"element": "C" 
			},
			{
				"x": 2.1303593478,
				"y": -0.4751301312,
				"z": -0.0376296616,
				"element": "C" 
			},
			{
				"x": 2.1365901609,
				"y": 0.0674945094,
				"z": -1.3827213475,
				"element": "N" 
			},
			{
				"x": 3.0854532365,
				"y": 0.9077882849,
				"z": -1.9328406924,
				"element": "C" 
			},
			{
				"x": 2.8551887161,
				"y": 1.2388972167,
				"z": -3.1755837413,
				"element": "N" 
			},
			{
				"x": 1.6736161826,
				"y": 0.5808707361,
				"z": -3.4971721198,
				"element": "C" 
			},
			{
				"x": 0.9553296187,
				"y": 0.5635538896,
				"z": -4.6996556103,
				"element": "C" 
			},
			{
				"x": -0.2103662147,
				"y": -0.1934604973,
				"z": -4.7535160508,
				"element": "C" 
			},
			{
				"x": -0.6650615588,
				"y": -0.9236720958,
				"z": -3.6362888966,
				"element": "C" 
			},
			{
				"x": 0.0310871634,
				"y": -0.9200655006,
				"z": -2.4301358002,
				"element": "C" 
			},
			{
				"x": 1.2028626219,
				"y": -0.1602254915,
				"z": -2.3860649776,
				"element": "C" 
			},
			{
				"x": 0.54335266,
				"y": 1.3828939628,
				"z": 0.6944237673,
				"element": "C" 
			},
			{
				"x": -0.4054809991,
				"y": 1.8956035822,
				"z": 1.5776101466,
				"element": "C" 
			},
			{
				"x": -1.3915022073,
				"y": 3.4242028948,
				"z": 3.225637387,
				"element": "H" 
			},
			{
				"x": -0.74263492,
				"y": -0.7647735005,
				"z": 3.6516232561,
				"element": "H" 
			},
			{
				"x": 0.9624161056,
				"y": -1.6875515801,
				"z": 2.0901274717,
				"element": "H" 
			},
			{
				"x": 3.1198347539,
				"y": -0.2781394993,
				"z": 0.392173454,
				"element": "H" 
			},
			{
				"x": 2.0270721904,
				"y": -1.5653847507,
				"z": -0.0909158885,
				"element": "H" 
			},
			{
				"x": 3.9361045041,
				"y": 1.2344373053,
				"z": -1.3460009027,
				"element": "H" 
			},
			{
				"x": 1.3107386472,
				"y": 1.1280683206,
				"z": -5.5555665873,
				"element": "H" 
			},
			{
				"x": -0.7867490093,
				"y": -0.2246400587,
				"z": -5.6733391005,
				"element": "H" 
			},
			{
				"x": -1.5818625606,
				"y": -1.5001199404,
				"z": -3.7166480129,
				"element": "H" 
			},
			{
				"x": -0.3295807045,
				"y": -1.4748193782,
				"z": -1.5697511562,
				"element": "H" 
			},
			{
				"x": 0.8733016108,
				"y": 1.9809095362,
				"z": -0.1489180124,
				"element": "H" 
			},
			{
				"x": -0.814220874,
				"y": 2.8843426478,
				"z": 1.3825346761,
				"element": "H" 
			}
		],
		 "valence_orbital": [ 
			{
				"type": "occ",
				"energy": -0.28083,
				"method": "rhf"
			},
			{
				"type": "occ",
				"energy": -0.2749,
				"method": "rhf"
			},
			{
				"type": "occ",
				"energy": -0.2694,
				"method": "rhf"
			},
			{
				"type": "occ",
				"energy": -0.2326,
				"method": "rhf"
			},
			{
				"type": "occ",
				"energy": -0.22787,
				"method": "rhf"
			},
			{
				"type": "unocc",
				"energy": -0.06022,
				"method": "rhf"
			},
			{
				"type": "unocc",
				"energy": -0.03255,
				"method": "rhf"
			},
			{
				"type": "unocc",
				"energy": -0.02,
				"method": "rhf"
			},
			{
				"type": "unocc",
				"energy": 0.01525,
				"method": "rhf"
			},
			{
				"type": "unocc",
				"energy": 0.03551,
				"method": "rhf"
			}
		],
		"cosmo_sigma_profile": { 
			"-0.025": 0.0,
			"-0.024": 0.0,
			"-0.023": 0.0,
			"-0.022": 0.0,
			"-0.021": 0.0,
			"-0.02": 0.0,
			"-0.019": 0.153423473106,
			"-0.018": 0.8230316951,
			"-0.017": 1.18251549326,
			"-0.016": 0.787618617966,
			"-0.015": 1.18613872122,
			"-0.014": 0.786644759237,
			"-0.013": 0.67648533967,
			"-0.012": 1.44210239402,
			"-0.011": 1.38166745354,
			"-0.01": 3.106484283,
			"-0.009": 5.28041260408,
			"-0.008": 6.182205893,
			"-0.007": 12.0240276007,
			"-0.006": 17.6452406282,
			"-0.005": 21.06319704,
			"-0.004": 19.5880378916,
			"-0.003": 18.9582466151,
			"-0.002": 15.0331900972,
			"-0.001": 14.0458888783,
			"0.0": 14.0108403669,
			"0.001": 16.5302015808,
			"0.002": 18.537244472,
			"0.003": 20.5261105151,
			"0.004": 14.0485705258,
			"0.005": 14.1196919307,
			"0.006": 9.9891670416,
			"0.007": 4.10863714121,
			"0.008": 4.81398254198,
			"0.009": 4.98348264588,
			"0.01": 5.23343197772,
			"0.011": 6.48744991105,
			"0.012": 6.47494550925,
			"0.013": 2.56249062047,
			"0.014": 0.920195361705,
			"0.015": 1.25440254592,
			"0.016": 1.0395052497,
			"0.017": 0.969362774391,
			"0.018": 0.295201698394,
			"0.019": 0.0,
			"0.02": 0.0,
			"0.021": 0.0,
			"0.022": 0.0,
			"0.023": 0.0,
			"0.024": 0.0,
			"0.025": 0.0
		}
	}
}
