{
	 "smiles": "CC(=O)OC1CCC2(C)C(CCC3C4CCC5(OCCO5)C4(C)CCC23)C1", 
	 "Tm": 426.15, 
	 "num_atms": 63, 
	 "gaussian": { 
		 "optdone": 1, 
		 "sigma_profile": "yes", 
		 "theory": "DFT", 
		 "functional": "B3LYP", 
		 "basiset": "6-31G**", 
		 "properties": { 
			 "R2extent": 11738.0845, 
			 "electric_dipole_moment_norm": 2.01728291769, 
			 "electric_quadrupole_moment_norm": 15.5788366697, 
			 "total_energy": -1199.05180964, 
			 "HOMO_LUMO_gap": 0.2584, 
			 "cosmo_polarized_energy": -10.78, 
			 "cosmo_cavitation_energy": 53.38, 
			 "cosmo_dispersion_energy": -36.85, 
			 "cosmo_repulsion_energy": 2.73, 
			 "cosmo_total_nonelectrostatic_energy": 19.26, 
			 "SMD_solvation_energy": 8.47 
		},
		"coords": [
			{
				"x": 0.7223701491,
				"y": 3.0749503528,
				"z": -6.3842038064,
				"element": "C" 
			},
			{
				"x": 0.7217766545,
				"y": 2.4765983938,
				"z": -4.9935724725,
				"element": "C" 
			},
			{
				"x": -0.2655191872,
				"y": 2.054135969,
				"z": -4.4280178086,
				"element": "O" 
			},
			{
				"x": 1.9714973892,
				"y": 2.484566268,
				"z": -4.4847694548,
				"element": "O" 
			},
			{
				"x": 2.2430571337,
				"y": 1.9599769997,
				"z": -3.1501571798,
				"element": "C" 
			},
			{
				"x": 1.5314409408,
				"y": 2.7243848244,
				"z": -2.0402321605,
				"element": "C" 
			},
			{
				"x": 2.0677178585,
				"y": 2.240578528,
				"z": -0.6826687065,
				"element": "C" 
			},
			{
				"x": 2.1150736903,
				"y": 0.7003665095,
				"z": -0.396748234,
				"element": "C" 
			},
			{
				"x": 3.2670422885,
				"y": 0.561283349,
				"z": 0.6397973932,
				"element": "C" 
			},
			{
				"x": 2.4665693925,
				"y": -0.1229270086,
				"z": -1.6919521625,
				"element": "C" 
			},
			{
				"x": 1.9925979061,
				"y": -1.5970676582,
				"z": -1.619164316,
				"element": "C" 
			},
			{
				"x": 1.8806187879,
				"y": -2.1469536991,
				"z": -0.198317532,
				"element": "C" 
			},
			{
				"x": 0.8462435783,
				"y": -1.3522950662,
				"z": 0.6465519165,
				"element": "C" 
			},
			{
				"x": -0.5358323883,
				"y": -2.057897966,
				"z": 0.5024399889,
				"element": "C" 
			},
			{
				"x": -0.6044853943,
				"y": -3.3536158099,
				"z": 1.3766544477,
				"element": "C" 
			},
			{
				"x": -1.5350391896,
				"y": -3.0384330227,
				"z": 2.5755239609,
				"element": "C" 
			},
			{
				"x": -1.8692569219,
				"y": -1.5391366954,
				"z": 2.4548275445,
				"element": "C" 
			},
			{
				"x": -0.9082414539,
				"y": -0.7453214778,
				"z": 3.1553299976,
				"element": "O" 
			},
			{
				"x": -1.4631752195,
				"y": -0.4579006473,
				"z": 4.4325919734,
				"element": "C" 
			},
			{
				"x": -2.9481812002,
				"y": -0.3073213467,
				"z": 4.1092923876,
				"element": "C" 
			},
			{
				"x": -3.136935814,
				"y": -1.2316082681,
				"z": 3.0418319775,
				"element": "O" 
			},
			{
				"x": -1.7868699027,
				"y": -1.2357471249,
				"z": 0.9323399303,
				"element": "C" 
			},
			{
				"x": -3.035550195,
				"y": -1.8243330859,
				"z": 0.2385954672,
				"element": "C" 
			},
			{
				"x": -1.6869869312,
				"y": 0.2711604133,
				"z": 0.5916540526,
				"element": "C" 
			},
			{
				"x": -0.5231872038,
				"y": 0.5826018079,
				"z": -0.3584909825,
				"element": "C" 
			},
			{
				"x": 0.8098752273,
				"y": 0.1886047432,
				"z": 0.3046658604,
				"element": "C" 
			},
			{
				"x": 1.9478243367,
				"y": 0.4712298485,
				"z": -3.0226199267,
				"element": "C" 
			},
			{
				"x": 1.3876269643,
				"y": 2.5038526734,
				"z": -7.0385322261,
				"element": "H" 
			},
			{
				"x": 1.1010413207,
				"y": 4.1008070465,
				"z": -6.3517497065,
				"element": "H" 
			},
			{
				"x": -0.2915221204,
				"y": 3.0644407171,
				"z": -6.7831305345,
				"element": "H" 
			},
			{
				"x": 3.323785872,
				"y": 2.1267402957,
				"z": -3.0655155045,
				"element": "H" 
			},
			{
				"x": 0.4558377288,
				"y": 2.5737626071,
				"z": -2.1417824801,
				"element": "H" 
			},
			{
				"x": 1.7243868648,
				"y": 3.7994231488,
				"z": -2.1404423492,
				"element": "H" 
			},
			{
				"x": 1.5144780258,
				"y": 2.7295956404,
				"z": 0.1290426295,
				"element": "H" 
			},
			{
				"x": 3.0962776036,
				"y": 2.617173703,
				"z": -0.6013657457,
				"element": "H" 
			},
			{
				"x": 3.3644885484,
				"y": -0.4402325325,
				"z": 1.0588589612,
				"element": "H" 
			},
			{
				"x": 3.0972283819,
				"y": 1.2471034102,
				"z": 1.4781327412,
				"element": "H" 
			},
			{
				"x": 4.2292867749,
				"y": 0.826085156,
				"z": 0.1873552667,
				"element": "H" 
			},
			{
				"x": 3.5642886879,
				"y": -0.1252754325,
				"z": -1.7577687914,
				"element": "H" 
			},
			{
				"x": 2.6600221355,
				"y": -2.2239469845,
				"z": -2.2229495831,
				"element": "H" 
			},
			{
				"x": 1.0055354572,
				"y": -1.6728120668,
				"z": -2.0949982744,
				"element": "H" 
			},
			{
				"x": 1.5796427619,
				"y": -3.2004074647,
				"z": -0.2420456449,
				"element": "H" 
			},
			{
				"x": 2.8668719049,
				"y": -2.1487677311,
				"z": 0.2764088064,
				"element": "H" 
			},
			{
				"x": 1.1343775129,
				"y": -1.434969402,
				"z": 1.6990540084,
				"element": "H" 
			},
			{
				"x": -0.6556185193,
				"y": -2.3229884947,
				"z": -0.5551500882,
				"element": "H" 
			},
			{
				"x": 0.3942655307,
				"y": -3.6462900316,
				"z": 1.7132061613,
				"element": "H" 
			},
			{
				"x": -0.9951507132,
				"y": -4.1979122716,
				"z": 0.8006731375,
				"element": "H" 
			},
			{
				"x": -2.4649690662,
				"y": -3.6111165181,
				"z": 2.5297728182,
				"element": "H" 
			},
			{
				"x": -1.0728050401,
				"y": -3.2469928815,
				"z": 3.5447457644,
				"element": "H" 
			},
			{
				"x": -1.2896459743,
				"y": -1.2846290835,
				"z": 5.1381652697,
				"element": "H" 
			},
			{
				"x": -0.9913681865,
				"y": 0.4485016966,
				"z": 4.8200977008,
				"element": "H" 
			},
			{
				"x": -3.6072217604,
				"y": -0.5796643503,
				"z": 4.9398733943,
				"element": "H" 
			},
			{
				"x": -3.1865735319,
				"y": 0.7152432581,
				"z": 3.7849295554,
				"element": "H" 
			},
			{
				"x": -2.9890158674,
				"y": -1.6151285509,
				"z": -0.8355497423,
				"element": "H" 
			},
			{
				"x": -3.119871812,
				"y": -2.9087732879,
				"z": 0.3594100178,
				"element": "H" 
			},
			{
				"x": -3.9449639684,
				"y": -1.3698282017,
				"z": 0.6402663136,
				"element": "H" 
			},
			{
				"x": -1.5376063446,
				"y": 0.8490603563,
				"z": 1.5095843507,
				"element": "H" 
			},
			{
				"x": -2.6295508029,
				"y": 0.6150506224,
				"z": 0.1513562942,
				"element": "H" 
			},
			{
				"x": -0.5345236372,
				"y": 1.6542087832,
				"z": -0.5741827788,
				"element": "H" 
			},
			{
				"x": -0.6675534791,
				"y": 0.0739430906,
				"z": -1.3201217836,
				"element": "H" 
			},
			{
				"x": 0.7943510276,
				"y": 0.7081561838,
				"z": 1.2727746204,
				"element": "H" 
			},
			{
				"x": 2.4128435496,
				"y": -0.0736396385,
				"z": -3.8540061711,
				"element": "H" 
			},
			{
				"x": 0.8679798391,
				"y": 0.3256474049,
				"z": -3.1092985628,
				"element": "H" 
			}
		],
		 "valence_orbital": [ 
			{
				"type": "occ",
				"energy": -0.26869,
				"method": "rhf"
			},
			{
				"type": "occ",
				"energy": -0.26583,
				"method": "rhf"
			},
			{
				"type": "occ",
				"energy": -0.26159,
				"method": "rhf"
			},
			{
				"type": "occ",
				"energy": -0.25569,
				"method": "rhf"
			},
			{
				"type": "occ",
				"energy": -0.23941,
				"method": "rhf"
			},
			{
				"type": "unocc",
				"energy": 0.01899,
				"method": "rhf"
			},
			{
				"type": "unocc",
				"energy": 0.07211,
				"method": "rhf"
			},
			{
				"type": "unocc",
				"energy": 0.08007,
				"method": "rhf"
			},
			{
				"type": "unocc",
				"energy": 0.08515,
				"method": "rhf"
			},
			{
				"type": "unocc",
				"energy": 0.09783,
				"method": "rhf"
			}
		],
		"cosmo_sigma_profile": { 
			"-0.025": 0.0,
			"-0.024": 0.0,
			"-0.023": 0.0,
			"-0.022": 0.0,
			"-0.021": 0.0,
			"-0.02": 0.0,
			"-0.019": 0.0,
			"-0.018": 0.0,
			"-0.017": 0.0,
			"-0.016": 0.0,
			"-0.015": 0.0,
			"-0.014": 0.0,
			"-0.013": 0.0,
			"-0.012": 0.0,
			"-0.011": 0.0,
			"-0.01": 0.0,
			"-0.009": 0.0,
			"-0.008": 0.0,
			"-0.007": 0.217239860752,
			"-0.006": 5.96664373957,
			"-0.005": 14.4254711417,
			"-0.004": 25.1566001465,
			"-0.003": 36.137743228,
			"-0.002": 65.0514000478,
			"-0.001": 70.0523615742,
			"0.0": 59.9315681116,
			"0.001": 46.1848503567,
			"0.002": 24.7587749629,
			"0.003": 9.52195955135,
			"0.004": 7.3300356729,
			"0.005": 7.19860423744,
			"0.006": 6.83677226583,
			"0.007": 6.66011794629,
			"0.008": 6.52986108122,
			"0.009": 5.30029801828,
			"0.01": 2.36937853768,
			"0.011": 3.44690058908,
			"0.012": 3.63603366481,
			"0.013": 2.58497350152,
			"0.014": 0.334831601893,
			"0.015": 0.0,
			"0.016": 0.0,
			"0.017": 0.0,
			"0.018": 0.0,
			"0.019": 0.0,
			"0.02": 0.0,
			"0.021": 0.0,
			"0.022": 0.0,
			"0.023": 0.0,
			"0.024": 0.0,
			"0.025": 0.0
		}
	}
}
