{
	 "smiles": "COC1=CC=C(C=C1)N(CCCC(O)=O)C(=O)C1=CC=C(Cl)C=C1", 
	 "Tm": 389.15, 
	 "num_atms": 42, 
	 "gaussian": { 
		 "optdone": 1, 
		 "sigma_profile": "yes", 
		 "theory": "DFT", 
		 "functional": "B3LYP", 
		 "basiset": "6-31G**", 
		 "properties": { 
			 "R2extent": 11973.8267, 
			 "electric_dipole_moment_norm": 3.72035523707, 
			 "electric_quadrupole_moment_norm": 12.2319059198, 
			 "total_energy": -1512.61453367, 
			 "HOMO_LUMO_gap": 0.15565, 
			 "cosmo_polarized_energy": -19.49, 
			 "cosmo_cavitation_energy": 47.03, 
			 "cosmo_dispersion_energy": -32.35, 
			 "cosmo_repulsion_energy": 2.47, 
			 "cosmo_total_nonelectrostatic_energy": 17.16, 
			 "SMD_solvation_energy": 9.65 
		},
		"coords": [
			{
				"x": 4.477131543,
				"y": 4.5191872182,
				"z": -1.6833837908,
				"element": "C" 
			},
			{
				"x": 3.9528764649,
				"y": 4.2628440737,
				"z": -0.3916208764,
				"element": "O" 
			},
			{
				"x": 3.0997505452,
				"y": 3.2064716335,
				"z": -0.2433992852,
				"element": "C" 
			},
			{
				"x": 2.7072038104,
				"y": 2.3428895108,
				"z": -1.2665693147,
				"element": "C" 
			},
			{
				"x": 1.8199845026,
				"y": 1.293581472,
				"z": -0.997211467,
				"element": "C" 
			},
			{
				"x": 1.3208684387,
				"y": 1.0787743968,
				"z": 0.2892554801,
				"element": "C" 
			},
			{
				"x": 1.7360788182,
				"y": 1.9490487919,
				"z": 1.3154134017,
				"element": "C" 
			},
			{
				"x": 2.6025419051,
				"y": 2.9965878361,
				"z": 1.0523896539,
				"element": "C" 
			},
			{
				"x": 0.4593196278,
				"y": -0.0295186512,
				"z": 0.598520159,
				"element": "N" 
			},
			{
				"x": 0.5790380706,
				"y": -1.2841625068,
				"z": -0.1793372275,
				"element": "C" 
			},
			{
				"x": -0.6633175715,
				"y": -1.6534482679,
				"z": -1.010506901,
				"element": "C" 
			},
			{
				"x": -1.136156822,
				"y": -0.6149469247,
				"z": -2.0364977642,
				"element": "C" 
			},
			{
				"x": -0.3086805268,
				"y": -0.5842960662,
				"z": -3.3007058016,
				"element": "C" 
			},
			{
				"x": -0.9605001335,
				"y": 0.0283999286,
				"z": -4.3143574364,
				"element": "O" 
			},
			{
				"x": 0.8135824582,
				"y": -1.0328323247,
				"z": -3.4290071381,
				"element": "O" 
			},
			{
				"x": -0.5827744197,
				"y": 0.1609181138,
				"z": 1.5020725723,
				"element": "C" 
			},
			{
				"x": -1.0053552825,
				"y": 1.2703308415,
				"z": 1.8090327733,
				"element": "O" 
			},
			{
				"x": -1.1814835867,
				"y": -1.0511102839,
				"z": 2.1697654624,
				"element": "C" 
			},
			{
				"x": -2.5719564979,
				"y": -1.0894057456,
				"z": 2.3428485607,
				"element": "C" 
			},
			{
				"x": -3.1772498384,
				"y": -2.13122785,
				"z": 3.040469745,
				"element": "C" 
			},
			{
				"x": -2.3756511725,
				"y": -3.1264319307,
				"z": 3.6024772314,
				"element": "C" 
			},
			{
				"x": -3.1282019591,
				"y": -4.4403775319,
				"z": 4.4920677998,
				"element": "Cl" 
			},
			{
				"x": -0.9871198159,
				"y": -3.0889973686,
				"z": 3.4808608687,
				"element": "C" 
			},
			{
				"x": -0.3971618903,
				"y": -2.0513343224,
				"z": 2.7593310314,
				"element": "C" 
			},
			{
				"x": 5.073245317,
				"y": 3.6751019179,
				"z": -2.0547720652,
				"element": "H" 
			},
			{
				"x": 3.6819529815,
				"y": 4.7398444128,
				"z": -2.4076830565,
				"element": "H" 
			},
			{
				"x": 5.1209356614,
				"y": 5.3942701787,
				"z": -1.5809859076,
				"element": "H" 
			},
			{
				"x": 3.0751378723,
				"y": 2.4659755129,
				"z": -2.2781785422,
				"element": "H" 
			},
			{
				"x": 1.547829166,
				"y": 0.6402424822,
				"z": -1.8168016708,
				"element": "H" 
			},
			{
				"x": 1.364859451,
				"y": 1.8103778119,
				"z": 2.3229045852,
				"element": "H" 
			},
			{
				"x": 2.9189723013,
				"y": 3.6672406003,
				"z": 1.844506248,
				"element": "H" 
			},
			{
				"x": 1.4438899435,
				"y": -1.1792526585,
				"z": -0.8312444105,
				"element": "H" 
			},
			{
				"x": 0.7956776761,
				"y": -2.1191012727,
				"z": 0.4922223723,
				"element": "H" 
			},
			{
				"x": -0.4398559934,
				"y": -2.5963289778,
				"z": -1.522562487,
				"element": "H" 
			},
			{
				"x": -1.4950511246,
				"y": -1.8605773177,
				"z": -0.330997333,
				"element": "H" 
			},
			{
				"x": -2.1770921687,
				"y": -0.7964368587,
				"z": -2.322619885,
				"element": "H" 
			},
			{
				"x": -1.1198081965,
				"y": 0.3961266181,
				"z": -1.6075031397,
				"element": "H" 
			},
			{
				"x": -0.3510939079,
				"y": 0.0261229479,
				"z": -5.0720183507,
				"element": "H" 
			},
			{
				"x": -3.1738590154,
				"y": -0.285141181,
				"z": 1.932583889,
				"element": "H" 
			},
			{
				"x": -4.2542249984,
				"y": -2.1683018349,
				"z": 3.1608477775,
				"element": "H" 
			},
			{
				"x": -0.3790814062,
				"y": -3.8553908751,
				"z": 3.9484613178,
				"element": "H" 
			},
			{
				"x": 0.6849997731,
				"y": -2.0072155487,
				"z": 2.6845329219,
				"element": "H" 
			}
		],
		 "valence_orbital": [ 
			{
				"type": "occ",
				"energy": -0.26739,
				"method": "rhf"
			},
			{
				"type": "occ",
				"energy": -0.26346,
				"method": "rhf"
			},
			{
				"type": "occ",
				"energy": -0.24895,
				"method": "rhf"
			},
			{
				"type": "occ",
				"energy": -0.24205,
				"method": "rhf"
			},
			{
				"type": "occ",
				"energy": -0.19987,
				"method": "rhf"
			},
			{
				"type": "unocc",
				"energy": -0.04422,
				"method": "rhf"
			},
			{
				"type": "unocc",
				"energy": -0.02268,
				"method": "rhf"
			},
			{
				"type": "unocc",
				"energy": -0.0029,
				"method": "rhf"
			},
			{
				"type": "unocc",
				"energy": 0.00055,
				"method": "rhf"
			},
			{
				"type": "unocc",
				"energy": 0.00795,
				"method": "rhf"
			}
		],
		"cosmo_sigma_profile": { 
			"-0.025": 0.0,
			"-0.024": 0.0,
			"-0.023": 0.0,
			"-0.022": 0.0,
			"-0.021": 0.0,
			"-0.02": 0.0,
			"-0.019": 0.157830324126,
			"-0.018": 0.722859907243,
			"-0.017": 0.882117972963,
			"-0.016": 0.904231389691,
			"-0.015": 0.674609867087,
			"-0.014": 0.738715839448,
			"-0.013": 0.444619148147,
			"-0.012": 0.69435821359,
			"-0.011": 0.832948852905,
			"-0.01": 0.812462005591,
			"-0.009": 0.419875261092,
			"-0.008": 2.84132205155,
			"-0.007": 8.919381932,
			"-0.006": 18.2384710233,
			"-0.005": 32.2452910931,
			"-0.004": 35.0889924028,
			"-0.003": 36.3643047069,
			"-0.002": 28.589284647,
			"-0.001": 21.7825741385,
			"0.0": 20.2467855588,
			"0.001": 24.3755618534,
			"0.002": 25.8648020877,
			"0.003": 25.2154657013,
			"0.004": 24.2953864338,
			"0.005": 17.609735608,
			"0.006": 8.17674643626,
			"0.007": 5.72704829189,
			"0.008": 4.92762569246,
			"0.009": 6.65220242555,
			"0.01": 5.3042828243,
			"0.011": 5.88967939626,
			"0.012": 5.02986943971,
			"0.013": 4.53601557794,
			"0.014": 1.20535174858,
			"0.015": 0.0,
			"0.016": 0.0,
			"0.017": 0.0,
			"0.018": 0.0,
			"0.019": 0.0,
			"0.02": 0.0,
			"0.021": 0.0,
			"0.022": 0.0,
			"0.023": 0.0,
			"0.024": 0.0,
			"0.025": 0.0
		}
	}
}
