{
	 "smiles": "ClC1=CC(C#N)=C(C=C1)S(Cl)(=O)=O", 
	 "Tm": 371.15, 
	 "num_atms": 16, 
	 "gaussian": { 
		 "optdone": 1, 
		 "sigma_profile": "yes", 
		 "theory": "DFT", 
		 "functional": "B3LYP", 
		 "basiset": "6-31G**", 
		 "properties": { 
			 "R2extent": 4294.6772, 
			 "electric_dipole_moment_norm": 6.18743936455, 
			 "electric_quadrupole_moment_norm": 5.94273228574, 
			 "total_energy": -1792.21550368, 
			 "HOMO_LUMO_gap": 0.19528, 
			 "cosmo_polarized_energy": -14.11, 
			 "cosmo_cavitation_energy": 27.35, 
			 "cosmo_dispersion_energy": -20.01, 
			 "cosmo_repulsion_energy": 1.53, 
			 "cosmo_total_nonelectrostatic_energy": 8.88, 
			 "SMD_solvation_energy": 4.36 
		},
		"coords": [
			{
				"x": 0.1703448383,
				"y": -4.815126924,
				"z": 0.9085196054,
				"element": "Cl" 
			},
			{
				"x": -0.3484326181,
				"y": -3.1745522436,
				"z": 0.6249524317,
				"element": "C" 
			},
			{
				"x": 0.5571382243,
				"y": -2.2546917597,
				"z": 0.0995950464,
				"element": "C" 
			},
			{
				"x": 0.1524432187,
				"y": -0.9325978314,
				"z": -0.1330200537,
				"element": "C" 
			},
			{
				"x": 1.1215042567,
				"y": -0.0247831374,
				"z": -0.6746234733,
				"element": "C" 
			},
			{
				"x": 1.9479290412,
				"y": 0.6642607817,
				"z": -1.1137182936,
				"element": "N" 
			},
			{
				"x": -1.1748996366,
				"y": -0.5569664786,
				"z": 0.1721391217,
				"element": "C" 
			},
			{
				"x": -2.0668243305,
				"y": -1.4863060689,
				"z": 0.6957785903,
				"element": "C" 
			},
			{
				"x": -1.6568551804,
				"y": -2.8004521197,
				"z": 0.9246349052,
				"element": "C" 
			},
			{
				"x": -1.6281483313,
				"y": 1.1679998846,
				"z": -0.154234457,
				"element": "S" 
			},
			{
				"x": -3.6684337668,
				"y": 1.2437374633,
				"z": 0.4521019889,
				"element": "Cl" 
			},
			{
				"x": -0.8962411135,
				"y": 2.0220653673,
				"z": 0.7680789204,
				"element": "O" 
			},
			{
				"x": -1.6213633224,
				"y": 1.3849466513,
				"z": -1.5925225141,
				"element": "O" 
			},
			{
				"x": 1.5732570303,
				"y": -2.5504642836,
				"z": -0.1317934308,
				"element": "H" 
			},
			{
				"x": -3.0829716459,
				"y": -1.1967087633,
				"z": 0.9287899637,
				"element": "H" 
			},
			{
				"x": -2.3521466639,
				"y": -3.5247605379,
				"z": 1.3328216489,
				"element": "H" 
			}
		],
		 "valence_orbital": [ 
			{
				"type": "occ",
				"energy": -0.35105,
				"method": "rhf"
			},
			{
				"type": "occ",
				"energy": -0.34289,
				"method": "rhf"
			},
			{
				"type": "occ",
				"energy": -0.33121,
				"method": "rhf"
			},
			{
				"type": "occ",
				"energy": -0.31067,
				"method": "rhf"
			},
			{
				"type": "occ",
				"energy": -0.29748,
				"method": "rhf"
			},
			{
				"type": "unocc",
				"energy": -0.1022,
				"method": "rhf"
			},
			{
				"type": "unocc",
				"energy": -0.09978,
				"method": "rhf"
			},
			{
				"type": "unocc",
				"energy": -0.07483,
				"method": "rhf"
			},
			{
				"type": "unocc",
				"energy": -0.0174,
				"method": "rhf"
			},
			{
				"type": "unocc",
				"energy": 0.00528,
				"method": "rhf"
			}
		],
		"cosmo_sigma_profile": { 
			"-0.025": 0.0,
			"-0.024": 0.0,
			"-0.023": 0.0,
			"-0.022": 0.0,
			"-0.021": 0.0,
			"-0.02": 0.0,
			"-0.019": 0.0,
			"-0.018": 0.0,
			"-0.017": 0.0,
			"-0.016": 0.0,
			"-0.015": 0.0,
			"-0.014": 0.0,
			"-0.013": 0.0,
			"-0.012": 0.00109180480996,
			"-0.011": 1.1412767299,
			"-0.01": 5.82006893587,
			"-0.009": 5.02732339383,
			"-0.008": 5.33488991569,
			"-0.007": 6.32724513352,
			"-0.006": 7.25107500175,
			"-0.005": 7.92513289719,
			"-0.004": 16.5180399324,
			"-0.003": 20.2663449133,
			"-0.002": 21.8875782795,
			"-0.001": 13.7735462286,
			"0.0": 11.3697434957,
			"0.001": 13.667057188,
			"0.002": 21.4845869883,
			"0.003": 17.226131327,
			"0.004": 6.57551582154,
			"0.005": 6.51493735404,
			"0.006": 7.6491433983,
			"0.007": 13.7204538582,
			"0.008": 10.0630866195,
			"0.009": 2.72104666172,
			"0.01": 2.55949635349,
			"0.011": 1.89105847917,
			"0.012": 0.480207756529,
			"0.013": 0.0,
			"0.014": 0.0,
			"0.015": 0.0,
			"0.016": 0.0,
			"0.017": 0.0,
			"0.018": 0.0,
			"0.019": 0.0,
			"0.02": 0.0,
			"0.021": 0.0,
			"0.022": 0.0,
			"0.023": 0.0,
			"0.024": 0.0,
			"0.025": 0.0
		}
	}
}
