{
	 "smiles": "OC(=O)C1=C(F)C=CC(Cl)=C1Cl", 
	 "Tm": 408.15, 
	 "num_atms": 15, 
	 "gaussian": { 
		 "optdone": 1, 
		 "sigma_profile": "yes", 
		 "theory": "DFT", 
		 "functional": "B3LYP", 
		 "basiset": "6-31G**", 
		 "properties": { 
			 "R2extent": 2931.4096, 
			 "electric_dipole_moment_norm": 4.35201343403, 
			 "electric_quadrupole_moment_norm": 15.1453736662, 
			 "total_energy": -1439.20960692, 
			 "HOMO_LUMO_gap": 0.20097, 
			 "cosmo_polarized_energy": -12.6, 
			 "cosmo_cavitation_energy": 24.1, 
			 "cosmo_dispersion_energy": -17.84, 
			 "cosmo_repulsion_energy": 1.4, 
			 "cosmo_total_nonelectrostatic_energy": 7.66, 
			 "SMD_solvation_energy": 5.28 
		},
		"coords": [
			{
				"x": -1.8548340753,
				"y": -0.383217545,
				"z": 0.8567870762,
				"element": "O" 
			},
			{
				"x": -1.5606442371,
				"y": -0.8181102141,
				"z": -0.3879445062,
				"element": "C" 
			},
			{
				"x": -2.3066812221,
				"y": -1.5514684581,
				"z": -0.9817260011,
				"element": "O" 
			},
			{
				"x": -0.2778100165,
				"y": -0.3006519653,
				"z": -1.0065163317,
				"element": "C" 
			},
			{
				"x": -0.3587318927,
				"y": 0.3026584757,
				"z": -2.267257157,
				"element": "C" 
			},
			{
				"x": -1.5632665166,
				"y": 0.4790728847,
				"z": -2.8245860641,
				"element": "F" 
			},
			{
				"x": 0.7613847012,
				"y": 0.7544250763,
				"z": -2.9511434536,
				"element": "C" 
			},
			{
				"x": 2.0148976424,
				"y": 0.5883945566,
				"z": -2.3730332273,
				"element": "C" 
			},
			{
				"x": 2.1424893813,
				"y": -0.0131860586,
				"z": -1.1195665906,
				"element": "C" 
			},
			{
				"x": 3.7387583261,
				"y": -0.2027546186,
				"z": -0.4420771042,
				"element": "Cl" 
			},
			{
				"x": 0.9987551731,
				"y": -0.4516295223,
				"z": -0.4356895198,
				"element": "C" 
			},
			{
				"x": 1.1586193384,
				"y": -1.2120644855,
				"z": 1.1315055159,
				"element": "Cl" 
			},
			{
				"x": -1.1412874546,
				"y": 0.1692173068,
				"z": 1.2078608069,
				"element": "H" 
			},
			{
				"x": 0.6403441338,
				"y": 1.2241014313,
				"z": -3.9203564427,
				"element": "H" 
			},
			{
				"x": 2.9066067186,
				"y": 0.9252131361,
				"z": -2.8890570005,
				"element": "H" 
			}
		],
		 "valence_orbital": [ 
			{
				"type": "occ",
				"energy": -0.33373,
				"method": "rhf"
			},
			{
				"type": "occ",
				"energy": -0.32341,
				"method": "rhf"
			},
			{
				"type": "occ",
				"energy": -0.29903,
				"method": "rhf"
			},
			{
				"type": "occ",
				"energy": -0.28108,
				"method": "rhf"
			},
			{
				"type": "occ",
				"energy": -0.26575,
				"method": "rhf"
			},
			{
				"type": "unocc",
				"energy": -0.06478,
				"method": "rhf"
			},
			{
				"type": "unocc",
				"energy": -0.04177,
				"method": "rhf"
			},
			{
				"type": "unocc",
				"energy": -0.02134,
				"method": "rhf"
			},
			{
				"type": "unocc",
				"energy": 0.00423,
				"method": "rhf"
			},
			{
				"type": "unocc",
				"energy": 0.042,
				"method": "rhf"
			}
		],
		"cosmo_sigma_profile": { 
			"-0.025": 0.0,
			"-0.024": 0.0,
			"-0.023": 0.0,
			"-0.022": 0.0,
			"-0.021": 0.0,
			"-0.02": 0.0,
			"-0.019": 0.250575928507,
			"-0.018": 1.02258974101,
			"-0.017": 0.667394313962,
			"-0.016": 0.469362028854,
			"-0.015": 1.0906941814,
			"-0.014": 1.24586132199,
			"-0.013": 0.595173067039,
			"-0.012": 0.902341342782,
			"-0.011": 1.11166509981,
			"-0.01": 1.01028332404,
			"-0.009": 4.40498342575,
			"-0.008": 4.98942027746,
			"-0.007": 5.16904823265,
			"-0.006": 4.57040962512,
			"-0.005": 4.75997789005,
			"-0.004": 7.60921300859,
			"-0.003": 11.2457794485,
			"-0.002": 18.3054987359,
			"-0.001": 21.2038148494,
			"0.0": 18.0130888375,
			"0.001": 14.2904374606,
			"0.002": 13.5314986879,
			"0.003": 21.7344080782,
			"0.004": 10.919244668,
			"0.005": 3.44077510136,
			"0.006": 2.57766721236,
			"0.007": 2.86356672029,
			"0.008": 4.80875098438,
			"0.009": 5.06854660173,
			"0.01": 5.39184957515,
			"0.011": 4.67696871706,
			"0.012": 0.866192417765,
			"0.013": 0.0,
			"0.014": 0.0,
			"0.015": 0.0,
			"0.016": 0.0,
			"0.017": 0.0,
			"0.018": 0.0,
			"0.019": 0.0,
			"0.02": 0.0,
			"0.021": 0.0,
			"0.022": 0.0,
			"0.023": 0.0,
			"0.024": 0.0,
			"0.025": 0.0
		}
	}
}
