{
	 "smiles": "CC1=NNC(=S)N(N)C1=O", 
	 "Tm": 457.15, 
	 "num_atms": 16, 
	 "gaussian": { 
		 "optdone": 1, 
		 "sigma_profile": "yes", 
		 "theory": "DFT", 
		 "functional": "B3LYP", 
		 "basiset": "6-31G**", 
		 "properties": { 
			 "R2extent": 2075.4447, 
			 "electric_dipole_moment_norm": 2.50645463354, 
			 "electric_quadrupole_moment_norm": 10.9751849647, 
			 "total_energy": -848.423273722, 
			 "HOMO_LUMO_gap": 0.16117, 
			 "cosmo_polarized_energy": -14.18, 
			 "cosmo_cavitation_energy": 21.93, 
			 "cosmo_dispersion_energy": -17.16, 
			 "cosmo_repulsion_energy": 1.34, 
			 "cosmo_total_nonelectrostatic_energy": 6.11, 
			 "SMD_solvation_energy": 3.3 
		},
		"coords": [
			{
				"x": 2.2624771344,
				"y": 0.2083284487,
				"z": 1.1450191316,
				"element": "C" 
			},
			{
				"x": 0.8318974885,
				"y": -0.2173394591,
				"z": 1.0362455853,
				"element": "C" 
			},
			{
				"x": 0.0453975241,
				"y": -0.0952655453,
				"z": 2.0630246587,
				"element": "N" 
			},
			{
				"x": -1.23064513,
				"y": -0.5011461501,
				"z": 1.9211820645,
				"element": "N" 
			},
			{
				"x": -1.8347486605,
				"y": -1.0276232583,
				"z": 0.8069364522,
				"element": "C" 
			},
			{
				"x": -3.425936615,
				"y": -1.5323321775,
				"z": 0.804616883,
				"element": "S" 
			},
			{
				"x": -0.9898186717,
				"y": -1.1034138477,
				"z": -0.2756519005,
				"element": "N" 
			},
			{
				"x": -1.4992464426,
				"y": -1.4915214813,
				"z": -1.5194046588,
				"element": "N" 
			},
			{
				"x": 0.372807553,
				"y": -0.7672796708,
				"z": -0.2470135103,
				"element": "C" 
			},
			{
				"x": 1.0736311405,
				"y": -0.9377842801,
				"z": -1.2366541219,
				"element": "O" 
			},
			{
				"x": 2.4606987255,
				"y": 0.5902862075,
				"z": 2.147210518,
				"element": "H" 
			},
			{
				"x": 2.48976775,
				"y": 0.9823659611,
				"z": 0.4046852743,
				"element": "H" 
			},
			{
				"x": 2.9294721255,
				"y": -0.6337318011,
				"z": 0.9332548734,
				"element": "H" 
			},
			{
				"x": -1.8085457174,
				"y": -0.4183410408,
				"z": 2.746711509,
				"element": "H" 
			},
			{
				"x": -2.2412414054,
				"y": -2.1693039555,
				"z": -1.3475453342,
				"element": "H" 
			},
			{
				"x": -0.7131667988,
				"y": -1.8835979497,
				"z": -2.0353174242,
				"element": "H" 
			}
		],
		 "valence_orbital": [ 
			{
				"type": "occ",
				"energy": -0.32024,
				"method": "rhf"
			},
			{
				"type": "occ",
				"energy": -0.28816,
				"method": "rhf"
			},
			{
				"type": "occ",
				"energy": -0.25988,
				"method": "rhf"
			},
			{
				"type": "occ",
				"energy": -0.2402,
				"method": "rhf"
			},
			{
				"type": "occ",
				"energy": -0.23539,
				"method": "rhf"
			},
			{
				"type": "unocc",
				"energy": -0.07422,
				"method": "rhf"
			},
			{
				"type": "unocc",
				"energy": -0.04687,
				"method": "rhf"
			},
			{
				"type": "unocc",
				"energy": 0.0561,
				"method": "rhf"
			},
			{
				"type": "unocc",
				"energy": 0.07965,
				"method": "rhf"
			},
			{
				"type": "unocc",
				"energy": 0.0841,
				"method": "rhf"
			}
		],
		"cosmo_sigma_profile": { 
			"-0.025": 0.0,
			"-0.024": 0.0,
			"-0.023": 0.0,
			"-0.022": 0.0,
			"-0.021": 0.0,
			"-0.02": 0.0,
			"-0.019": 0.0,
			"-0.018": 0.222969567683,
			"-0.017": 0.999731726756,
			"-0.016": 1.00983911076,
			"-0.015": 0.427257118961,
			"-0.014": 0.738661731741,
			"-0.013": 1.87158007967,
			"-0.012": 2.92365263889,
			"-0.011": 3.24208050038,
			"-0.01": 2.49752116814,
			"-0.009": 3.67762895114,
			"-0.008": 4.85594635177,
			"-0.007": 4.78692438594,
			"-0.006": 8.06706392561,
			"-0.005": 12.1044880803,
			"-0.004": 10.3128279162,
			"-0.003": 11.8311264805,
			"-0.002": 12.6777238501,
			"-0.001": 10.0602829845,
			"0.0": 5.40100027453,
			"0.001": 6.06479771522,
			"0.002": 6.05791780481,
			"0.003": 6.90179147808,
			"0.004": 6.39254074233,
			"0.005": 7.02589739062,
			"0.006": 8.68388684363,
			"0.007": 8.63710830131,
			"0.008": 8.78964532428,
			"0.009": 9.18510087094,
			"0.01": 4.59859606639,
			"0.011": 5.14655809197,
			"0.012": 1.67436868802,
			"0.013": 0.453699552902,
			"0.014": 0.266887192902,
			"0.015": 0.0,
			"0.016": 0.0,
			"0.017": 0.0,
			"0.018": 0.0,
			"0.019": 0.0,
			"0.02": 0.0,
			"0.021": 0.0,
			"0.022": 0.0,
			"0.023": 0.0,
			"0.024": 0.0,
			"0.025": 0.0
		}
	}
}
