{
	 "smiles": "NC1=NC(NC2=C(Cl)C=C(Cl)C=C2)=C(N=N1)C1=CC=CC=C1", 
	 "Tm": 495.15, 
	 "num_atms": 33, 
	 "gaussian": { 
		 "optdone": 1, 
		 "sigma_profile": "yes", 
		 "theory": "DFT", 
		 "functional": "B3LYP", 
		 "basiset": "6-31G**", 
		 "properties": { 
			 "R2extent": 9599.0174, 
			 "electric_dipole_moment_norm": 0.993814137553, 
			 "electric_quadrupole_moment_norm": 27.7347390312, 
			 "total_energy": -1772.35875146, 
			 "HOMO_LUMO_gap": 0.15815, 
			 "cosmo_polarized_energy": -15.59, 
			 "cosmo_cavitation_energy": 41.64, 
			 "cosmo_dispersion_energy": -29.69, 
			 "cosmo_repulsion_energy": 2.26, 
			 "cosmo_total_nonelectrostatic_energy": 14.21, 
			 "SMD_solvation_energy": 3.74 
		},
		"coords": [
			{
				"x": 1.9285369639,
				"y": 2.5804436906,
				"z": 2.9454117218,
				"element": "N" 
			},
			{
				"x": 1.2758299061,
				"y": 2.2361748785,
				"z": 1.7997784284,
				"element": "C" 
			},
			{
				"x": 0.9398380872,
				"y": 0.9416515829,
				"z": 1.6444763663,
				"element": "N" 
			},
			{
				"x": 0.3743997122,
				"y": 0.6248737073,
				"z": 0.4851153084,
				"element": "C" 
			},
			{
				"x": -0.0956382662,
				"y": -0.6480749296,
				"z": 0.2647947649,
				"element": "N" 
			},
			{
				"x": -0.0854833522,
				"y": -1.7859231749,
				"z": 1.0783435636,
				"element": "C" 
			},
			{
				"x": -0.802460891,
				"y": -2.9262606281,
				"z": 0.6513385543,
				"element": "C" 
			},
			{
				"x": -1.6998128102,
				"y": -2.8855526743,
				"z": -0.8646526339,
				"element": "Cl" 
			},
			{
				"x": -0.8291407733,
				"y": -4.104509786,
				"z": 1.3888136287,
				"element": "C" 
			},
			{
				"x": -0.1248686268,
				"y": -4.1659378776,
				"z": 2.5887548738,
				"element": "C" 
			},
			{
				"x": -0.153527007,
				"y": -5.6471797015,
				"z": 3.5291968002,
				"element": "Cl" 
			},
			{
				"x": 0.596552453,
				"y": -3.0639366981,
				"z": 3.0401728298,
				"element": "C" 
			},
			{
				"x": 0.616112071,
				"y": -1.8895907204,
				"z": 2.2932807763,
				"element": "C" 
			},
			{
				"x": 0.2056063168,
				"y": 1.6269380182,
				"z": -0.5303653552,
				"element": "C" 
			},
			{
				"x": 0.5106943793,
				"y": 2.8902012663,
				"z": -0.245121519,
				"element": "N" 
			},
			{
				"x": 1.0361513493,
				"y": 3.23192515,
				"z": 0.9269252357,
				"element": "N" 
			},
			{
				"x": -0.3515260155,
				"y": 1.3720412347,
				"z": -1.8841826992,
				"element": "C" 
			},
			{
				"x": -1.295184607,
				"y": 2.2661614283,
				"z": -2.4181217698,
				"element": "C" 
			},
			{
				"x": -1.8098788565,
				"y": 2.0734641715,
				"z": -3.6975439587,
				"element": "C" 
			},
			{
				"x": -1.3917980684,
				"y": 0.9862316816,
				"z": -4.4699528093,
				"element": "C" 
			},
			{
				"x": -0.4445116992,
				"y": 0.0999442906,
				"z": -3.9574749218,
				"element": "C" 
			},
			{
				"x": 0.075828792,
				"y": 0.2919756396,
				"z": -2.6763127781,
				"element": "C" 
			},
			{
				"x": 1.9984403285,
				"y": 3.5672667861,
				"z": 3.1403184339,
				"element": "H" 
			},
			{
				"x": 1.884188347,
				"y": 1.9410317683,
				"z": 3.7223327828,
				"element": "H" 
			},
			{
				"x": -0.602571587,
				"y": -0.7589099489,
				"z": -0.6046245186,
				"element": "H" 
			},
			{
				"x": -1.3919555022,
				"y": -4.9566337904,
				"z": 1.0285916708,
				"element": "H" 
			},
			{
				"x": 1.1453834231,
				"y": -3.1189738775,
				"z": 3.9735190309,
				"element": "H" 
			},
			{
				"x": 1.1682260485,
				"y": -1.0295586828,
				"z": 2.6406278438,
				"element": "H" 
			},
			{
				"x": -1.6075201255,
				"y": 3.1138316353,
				"z": -1.8177290626,
				"element": "H" 
			},
			{
				"x": -2.541499746,
				"y": 2.7720680996,
				"z": -4.0932623652,
				"element": "H" 
			},
			{
				"x": -1.7974262806,
				"y": 0.8356659465,
				"z": -5.4661120722,
				"element": "H" 
			},
			{
				"x": -0.0978929586,
				"y": -0.7366181639,
				"z": -4.5571471781,
				"element": "H" 
			},
			{
				"x": 0.842508995,
				"y": -0.3832303221,
				"z": -2.3065889729,
				"element": "H" 
			}
		],
		 "valence_orbital": [ 
			{
				"type": "occ",
				"energy": -0.26753,
				"method": "rhf"
			},
			{
				"type": "occ",
				"energy": -0.25841,
				"method": "rhf"
			},
			{
				"type": "occ",
				"energy": -0.24012,
				"method": "rhf"
			},
			{
				"type": "occ",
				"energy": -0.22756,
				"method": "rhf"
			},
			{
				"type": "occ",
				"energy": -0.21421,
				"method": "rhf"
			},
			{
				"type": "unocc",
				"energy": -0.05606,
				"method": "rhf"
			},
			{
				"type": "unocc",
				"energy": -0.03684,
				"method": "rhf"
			},
			{
				"type": "unocc",
				"energy": -0.02758,
				"method": "rhf"
			},
			{
				"type": "unocc",
				"energy": -0.01076,
				"method": "rhf"
			},
			{
				"type": "unocc",
				"energy": -0.00078,
				"method": "rhf"
			}
		],
		"cosmo_sigma_profile": { 
			"-0.025": 0.0,
			"-0.024": 0.0,
			"-0.023": 0.0,
			"-0.022": 0.0,
			"-0.021": 0.0,
			"-0.02": 0.0,
			"-0.019": 0.0,
			"-0.018": 0.0,
			"-0.017": 0.0,
			"-0.016": 0.0,
			"-0.015": 0.0814127805057,
			"-0.014": 1.48896368708,
			"-0.013": 1.91781390753,
			"-0.012": 2.76456357824,
			"-0.011": 1.59218276577,
			"-0.01": 2.29878008483,
			"-0.009": 1.78458544659,
			"-0.008": 4.93513630827,
			"-0.007": 6.6368513052,
			"-0.006": 15.8041114991,
			"-0.005": 18.2259621868,
			"-0.004": 20.603713405,
			"-0.003": 19.9382060875,
			"-0.002": 22.8311002851,
			"-0.001": 26.2039146533,
			"0.0": 29.793396384,
			"0.001": 34.4005997585,
			"0.002": 33.4837400544,
			"0.003": 28.6931294479,
			"0.004": 27.3986452514,
			"0.005": 14.4207704928,
			"0.006": 3.80922949861,
			"0.007": 2.52587895382,
			"0.008": 3.26784412674,
			"0.009": 1.92357034955,
			"0.01": 1.6231155591,
			"0.011": 2.4503763098,
			"0.012": 2.16623037037,
			"0.013": 2.40907138133,
			"0.014": 2.59643309942,
			"0.015": 1.70169232324,
			"0.016": 0.515468179145,
			"0.017": 0.0,
			"0.018": 0.0,
			"0.019": 0.0,
			"0.02": 0.0,
			"0.021": 0.0,
			"0.022": 0.0,
			"0.023": 0.0,
			"0.024": 0.0,
			"0.025": 0.0
		}
	}
}
