{
	 "smiles": "COC1=C(OC)C=C2[C@H](CCOC2=C1)C(=O)C1=CC=C2OC(C)(C)C=CC2=C1OC", 
	 "Tm": 391.5, 
	 "num_atms": 56, 
	 "gaussian": { 
		 "optdone": 1, 
		 "sigma_profile": "yes", 
		 "theory": "DFT", 
		 "functional": "B3LYP", 
		 "basiset": "6-31G**", 
		 "properties": { 
			 "R2extent": 12345.6085, 
			 "electric_dipole_moment_norm": 4.78173534818, 
			 "electric_quadrupole_moment_norm": 22.37289555, 
			 "total_energy": -1381.50110681, 
			 "HOMO_LUMO_gap": 0.14288, 
			 "cosmo_polarized_energy": -18.17, 
			 "cosmo_cavitation_energy": 56.18, 
			 "cosmo_dispersion_energy": -35.85, 
			 "cosmo_repulsion_energy": 2.74, 
			 "cosmo_total_nonelectrostatic_energy": 23.06, 
			 "SMD_solvation_energy": 11.94 
		},
		"coords": [
			{
				"x": 1.3949904819,
				"y": -0.2503348807,
				"z": -4.1780093025,
				"element": "C" 
			},
			{
				"x": -0.0029933316,
				"y": -0.190482042,
				"z": -4.4644959626,
				"element": "O" 
			},
			{
				"x": -0.8269367294,
				"y": 0.0138832812,
				"z": -3.3838353437,
				"element": "C" 
			},
			{
				"x": -0.9978163429,
				"y": -0.9678990904,
				"z": -2.3808999955,
				"element": "C" 
			},
			{
				"x": -0.2626875511,
				"y": -2.1167088547,
				"z": -2.5231573279,
				"element": "O" 
			},
			{
				"x": -0.4135561632,
				"y": -3.1254427439,
				"z": -1.5393466596,
				"element": "C" 
			},
			{
				"x": -1.8912693342,
				"y": -0.7208675901,
				"z": -1.3405137752,
				"element": "C" 
			},
			{
				"x": -2.6249515842,
				"y": 0.4745621138,
				"z": -1.2578943886,
				"element": "C" 
			},
			{
				"x": -3.6056660236,
				"y": 0.7135616204,
				"z": -0.1230658727,
				"element": "C" 
			},
			{
				"x": -4.1406517172,
				"y": 2.1638752611,
				"z": -0.1313282912,
				"element": "C" 
			},
			{
				"x": -4.3758504755,
				"y": 2.6147901433,
				"z": -1.5669463156,
				"element": "C" 
			},
			{
				"x": -3.1626273306,
				"y": 2.6028610979,
				"z": -2.3202405225,
				"element": "O" 
			},
			{
				"x": -2.4706447994,
				"y": 1.4150502188,
				"z": -2.2821253931,
				"element": "C" 
			},
			{
				"x": -1.5690732896,
				"y": 1.1858734654,
				"z": -3.3271279283,
				"element": "C" 
			},
			{
				"x": -3.1666580685,
				"y": 0.3228838927,
				"z": 1.3046996403,
				"element": "C" 
			},
			{
				"x": -4.0420607737,
				"y": -0.0656377019,
				"z": 2.0682592764,
				"element": "O" 
			},
			{
				"x": -1.7395823796,
				"y": 0.3081278091,
				"z": 1.7710923425,
				"element": "C" 
			},
			{
				"x": -1.418378951,
				"y": -0.6938932776,
				"z": 2.7089243504,
				"element": "C" 
			},
			{
				"x": -0.1309427976,
				"y": -0.869159957,
				"z": 3.1930659226,
				"element": "C" 
			},
			{
				"x": 0.8871234291,
				"y": -0.0249585464,
				"z": 2.739367759,
				"element": "C" 
			},
			{
				"x": 2.1480344139,
				"y": -0.2588455468,
				"z": 3.180984477,
				"element": "O" 
			},
			{
				"x": 3.1492401324,
				"y": 0.804968503,
				"z": 3.1061463993,
				"element": "C" 
			},
			{
				"x": 4.489485561,
				"y": 0.0670511374,
				"z": 3.0921931282,
				"element": "C" 
			},
			{
				"x": 3.0041757786,
				"y": 1.6767311527,
				"z": 4.364197343,
				"element": "C" 
			},
			{
				"x": 2.9554331793,
				"y": 1.6264560273,
				"z": 1.8502866502,
				"element": "C" 
			},
			{
				"x": 1.750859439,
				"y": 1.7395038001,
				"z": 1.274943034,
				"element": "C" 
			},
			{
				"x": 0.613831258,
				"y": 0.993557413,
				"z": 1.8048072577,
				"element": "C" 
			},
			{
				"x": -0.7079939194,
				"y": 1.1707885083,
				"z": 1.3563805569,
				"element": "C" 
			},
			{
				"x": -0.9810274483,
				"y": 2.2065356097,
				"z": 0.4921232182,
				"element": "O" 
			},
			{
				"x": -0.9482727975,
				"y": 3.5126806405,
				"z": 1.0783817496,
				"element": "C" 
			},
			{
				"x": 1.6372778767,
				"y": -1.0956844016,
				"z": -3.5274907713,
				"element": "H" 
			},
			{
				"x": 1.7393433295,
				"y": 0.6818633696,
				"z": -3.7103298849,
				"element": "H" 
			},
			{
				"x": 1.8971587934,
				"y": -0.374236872,
				"z": -5.1401188907,
				"element": "H" 
			},
			{
				"x": -0.1247365309,
				"y": -2.7690145802,
				"z": -0.541646623,
				"element": "H" 
			},
			{
				"x": -1.444931347,
				"y": -3.5001147029,
				"z": -1.498675714,
				"element": "H" 
			},
			{
				"x": 0.2502556715,
				"y": -3.9391188817,
				"z": -1.8367052367,
				"element": "H" 
			},
			{
				"x": -2.0268124081,
				"y": -1.463578334,
				"z": -0.5627896715,
				"element": "H" 
			},
			{
				"x": -4.4734783582,
				"y": 0.0586990061,
				"z": -0.2772853557,
				"element": "H" 
			},
			{
				"x": -5.0688270951,
				"y": 2.2155969049,
				"z": 0.4463929952,
				"element": "H" 
			},
			{
				"x": -3.4188794867,
				"y": 2.8411438085,
				"z": 0.3297347823,
				"element": "H" 
			},
			{
				"x": -5.117593767,
				"y": 1.9668335013,
				"z": -2.0582512481,
				"element": "H" 
			},
			{
				"x": -4.7381301308,
				"y": 3.6453375698,
				"z": -1.6098943948,
				"element": "H" 
			},
			{
				"x": -1.4558175505,
				"y": 1.9245556774,
				"z": -4.1126668277,
				"element": "H" 
			},
			{
				"x": -2.2244236226,
				"y": -1.3337190823,
				"z": 3.0515496692,
				"element": "H" 
			},
			{
				"x": 0.1078254448,
				"y": -1.6480057521,
				"z": 3.9089872693,
				"element": "H" 
			},
			{
				"x": 5.3167891165,
				"y": 0.7833306372,
				"z": 3.0892983955,
				"element": "H" 
			},
			{
				"x": 4.5811609831,
				"y": -0.566184864,
				"z": 3.97891457,
				"element": "H" 
			},
			{
				"x": 4.5695222938,
				"y": -0.5637466781,
				"z": 2.2030260726,
				"element": "H" 
			},
			{
				"x": 2.0152750657,
				"y": 2.1426296896,
				"z": 4.3949244646,
				"element": "H" 
			},
			{
				"x": 3.7556637367,
				"y": 2.4728512186,
				"z": 4.3658892699,
				"element": "H" 
			},
			{
				"x": 3.1355483865,
				"y": 1.0691108985,
				"z": 5.2651181882,
				"element": "H" 
			},
			{
				"x": 3.8275099398,
				"y": 2.1331403148,
				"z": 1.4461475723,
				"element": "H" 
			},
			{
				"x": 1.6042612689,
				"y": 2.3277553334,
				"z": 0.3748906643,
				"element": "H" 
			},
			{
				"x": 0.0387610021,
				"y": 3.7489306458,
				"z": 1.4909342638,
				"element": "H" 
			},
			{
				"x": -1.1825946514,
				"y": 4.2109185436,
				"z": 0.272908058,
				"element": "H" 
			},
			{
				"x": -1.6974598262,
				"y": 3.6042955658,
				"z": 1.8749723572,
				"element": "H" 
			}
		],
		 "valence_orbital": [ 
			{
				"type": "occ",
				"energy": -0.24329,
				"method": "rhf"
			},
			{
				"type": "occ",
				"energy": -0.23639,
				"method": "rhf"
			},
			{
				"type": "occ",
				"energy": -0.22356,
				"method": "rhf"
			},
			{
				"type": "occ",
				"energy": -0.21454,
				"method": "rhf"
			},
			{
				"type": "occ",
				"energy": -0.18812,
				"method": "rhf"
			},
			{
				"type": "unocc",
				"energy": -0.04524,
				"method": "rhf"
			},
			{
				"type": "unocc",
				"energy": -0.03662,
				"method": "rhf"
			},
			{
				"type": "unocc",
				"energy": 0.00719,
				"method": "rhf"
			},
			{
				"type": "unocc",
				"energy": 0.02232,
				"method": "rhf"
			},
			{
				"type": "unocc",
				"energy": 0.03059,
				"method": "rhf"
			}
		],
		"cosmo_sigma_profile": { 
			"-0.025": 0.0,
			"-0.024": 0.0,
			"-0.023": 0.0,
			"-0.022": 0.0,
			"-0.021": 0.0,
			"-0.02": 0.0,
			"-0.019": 0.0,
			"-0.018": 0.0,
			"-0.017": 0.0,
			"-0.016": 0.0,
			"-0.015": 0.0,
			"-0.014": 0.0,
			"-0.013": 0.0,
			"-0.012": 0.0,
			"-0.011": 0.0,
			"-0.01": 0.0,
			"-0.009": 0.0,
			"-0.008": 0.0,
			"-0.007": 1.1451597434,
			"-0.006": 13.7969731571,
			"-0.005": 38.2672182683,
			"-0.004": 54.7023648981,
			"-0.003": 57.8563029586,
			"-0.002": 44.6497067972,
			"-0.001": 32.8546786595,
			"0.0": 33.2966089439,
			"0.001": 24.1787814572,
			"0.002": 23.8422406819,
			"0.003": 27.5417204971,
			"0.004": 22.4712922552,
			"0.005": 14.0279854449,
			"0.006": 9.50018337629,
			"0.007": 8.70935892511,
			"0.008": 7.7917588328,
			"0.009": 6.69481476038,
			"0.01": 6.37261298352,
			"0.011": 7.22189890406,
			"0.012": 6.2170717552,
			"0.013": 1.80163360918,
			"0.014": 0.100797747234,
			"0.015": 0.0,
			"0.016": 0.0,
			"0.017": 0.0,
			"0.018": 0.0,
			"0.019": 0.0,
			"0.02": 0.0,
			"0.021": 0.0,
			"0.022": 0.0,
			"0.023": 0.0,
			"0.024": 0.0,
			"0.025": 0.0
		}
	}
}
