{
	 "smiles": "NC1=CC(F)=C(C=C1)C(O)=O", 
	 "Tm": 483.15, 
	 "num_atms": 17, 
	 "gaussian": { 
		 "optdone": 1, 
		 "sigma_profile": "yes", 
		 "theory": "DFT", 
		 "functional": "B3LYP", 
		 "basiset": "6-31G**", 
		 "properties": { 
			 "R2extent": 2196.3418, 
			 "electric_dipole_moment_norm": 4.23082620891, 
			 "electric_quadrupole_moment_norm": 13.1512724692, 
			 "total_energy": -575.415385906, 
			 "HOMO_LUMO_gap": 0.18742, 
			 "cosmo_polarized_energy": -15.16, 
			 "cosmo_cavitation_energy": 22.22, 
			 "cosmo_dispersion_energy": -16.57, 
			 "cosmo_repulsion_energy": 1.32, 
			 "cosmo_total_nonelectrostatic_energy": 6.97, 
			 "SMD_solvation_energy": 5.54 
		},
		"coords": [
			{
				"x": 3.2653113071,
				"y": 0.5700348263,
				"z": -1.501914346,
				"element": "N" 
			},
			{
				"x": 2.2493659225,
				"y": 0.4410681876,
				"z": -0.5750568643,
				"element": "C" 
			},
			{
				"x": 1.2826577703,
				"y": 1.4499765378,
				"z": -0.4279089784,
				"element": "C" 
			},
			{
				"x": 0.2979908986,
				"y": 1.3299011168,
				"z": 0.54056056,
				"element": "C" 
			},
			{
				"x": -0.5934184482,
				"y": 2.3310861388,
				"z": 0.62221154,
				"element": "F" 
			},
			{
				"x": 0.215633386,
				"y": 0.2236616086,
				"z": 1.4009003839,
				"element": "C" 
			},
			{
				"x": 1.1951314381,
				"y": -0.7744685889,
				"z": 1.2342642327,
				"element": "C" 
			},
			{
				"x": 2.1892471973,
				"y": -0.682099096,
				"z": 0.2782270506,
				"element": "C" 
			},
			{
				"x": -0.7972207319,
				"y": 0.0099478762,
				"z": 2.4564881322,
				"element": "C" 
			},
			{
				"x": -1.7084157732,
				"y": 1.0051318465,
				"z": 2.574746358,
				"element": "O" 
			},
			{
				"x": -0.8310297139,
				"y": -0.9736725495,
				"z": 3.1757473229,
				"element": "O" 
			},
			{
				"x": 3.7489917166,
				"y": -0.2740453405,
				"z": -1.7700100377,
				"element": "H" 
			},
			{
				"x": 3.1161912461,
				"y": 1.2145788026,
				"z": -2.2638886324,
				"element": "H" 
			},
			{
				"x": 1.2885834074,
				"y": 2.3343816871,
				"z": -1.056578637,
				"element": "H" 
			},
			{
				"x": 1.1395255058,
				"y": -1.6344418477,
				"z": 1.8929638918,
				"element": "H" 
			},
			{
				"x": 2.9306187101,
				"y": -1.4701627595,
				"z": 0.1815990399,
				"element": "H" 
			},
			{
				"x": -2.2939638386,
				"y": 0.7231215538,
				"z": 3.297248984,
				"element": "H" 
			}
		],
		 "valence_orbital": [ 
			{
				"type": "occ",
				"energy": -0.32151,
				"method": "rhf"
			},
			{
				"type": "occ",
				"energy": -0.30136,
				"method": "rhf"
			},
			{
				"type": "occ",
				"energy": -0.26791,
				"method": "rhf"
			},
			{
				"type": "occ",
				"energy": -0.25329,
				"method": "rhf"
			},
			{
				"type": "occ",
				"energy": -0.22072,
				"method": "rhf"
			},
			{
				"type": "unocc",
				"energy": -0.0333,
				"method": "rhf"
			},
			{
				"type": "unocc",
				"energy": -0.00351,
				"method": "rhf"
			},
			{
				"type": "unocc",
				"energy": 0.05999,
				"method": "rhf"
			},
			{
				"type": "unocc",
				"energy": 0.07388,
				"method": "rhf"
			},
			{
				"type": "unocc",
				"energy": 0.09028,
				"method": "rhf"
			}
		],
		"cosmo_sigma_profile": { 
			"-0.025": 0.0,
			"-0.024": 0.0,
			"-0.023": 0.0,
			"-0.022": 0.0,
			"-0.021": 0.0,
			"-0.02": 0.0,
			"-0.019": 0.0,
			"-0.018": 0.357067250305,
			"-0.017": 0.998063165992,
			"-0.016": 0.565406048369,
			"-0.015": 0.896716312391,
			"-0.014": 1.72700206988,
			"-0.013": 3.65947335694,
			"-0.012": 3.68628500041,
			"-0.011": 3.66355459464,
			"-0.01": 4.24334457449,
			"-0.009": 3.49088916094,
			"-0.008": 4.01595173588,
			"-0.007": 4.60239224121,
			"-0.006": 5.87758545807,
			"-0.005": 6.67406530463,
			"-0.004": 5.45191345354,
			"-0.003": 5.03523466451,
			"-0.002": 7.06928783299,
			"-0.001": 7.94377912259,
			"0.0": 10.5970828735,
			"0.001": 13.1159586419,
			"0.002": 13.979613728,
			"0.003": 17.0088613527,
			"0.004": 16.6329477184,
			"0.005": 6.52412799988,
			"0.006": 4.26122750216,
			"0.007": 2.69430562301,
			"0.008": 4.15691453952,
			"0.009": 4.74821049337,
			"0.01": 3.70516168559,
			"0.011": 3.05955212907,
			"0.012": 5.20064391465,
			"0.013": 1.66971743847,
			"0.014": 0.0,
			"0.015": 0.0,
			"0.016": 0.0,
			"0.017": 0.0,
			"0.018": 0.0,
			"0.019": 0.0,
			"0.02": 0.0,
			"0.021": 0.0,
			"0.022": 0.0,
			"0.023": 0.0,
			"0.024": 0.0,
			"0.025": 0.0
		}
	}
}
