{
	 "smiles": "C(CC1=CC=CC=C1)NC1=NC=CS1", 
	 "Tm": 342.15, 
	 "num_atms": 26, 
	 "gaussian": { 
		 "optdone": 1, 
		 "sigma_profile": "yes", 
		 "theory": "DFT", 
		 "functional": "B3LYP", 
		 "basiset": "6-31G**", 
		 "properties": { 
			 "R2extent": 4429.3505, 
			 "electric_dipole_moment_norm": 2.20894996548, 
			 "electric_quadrupole_moment_norm": 4.01056527687, 
			 "total_energy": -934.087740836, 
			 "HOMO_LUMO_gap": 0.18642, 
			 "cosmo_polarized_energy": -9.42, 
			 "cosmo_cavitation_energy": 31.16, 
			 "cosmo_dispersion_energy": -23.06, 
			 "cosmo_repulsion_energy": 1.77, 
			 "cosmo_total_nonelectrostatic_energy": 9.88, 
			 "SMD_solvation_energy": 2.55 
		},
		"coords": [
			{
				"x": -0.0205170128,
				"y": -1.7361810859,
				"z": -1.0685775383,
				"element": "C" 
			},
			{
				"x": -0.6490235236,
				"y": -1.0673218868,
				"z": -2.3041584752,
				"element": "C" 
			},
			{
				"x": -1.691440083,
				"y": -0.0230397498,
				"z": -1.958448635,
				"element": "C" 
			},
			{
				"x": -1.3759681358,
				"y": 1.3429622344,
				"z": -1.9739203463,
				"element": "C" 
			},
			{
				"x": -2.3277237145,
				"y": 2.3029900011,
				"z": -1.6204562337,
				"element": "C" 
			},
			{
				"x": -3.6130326543,
				"y": 1.9096646675,
				"z": -1.2480996008,
				"element": "C" 
			},
			{
				"x": -3.9416258393,
				"y": 0.5516774311,
				"z": -1.2321485947,
				"element": "C" 
			},
			{
				"x": -2.9888186007,
				"y": -0.4037092457,
				"z": -1.5835178499,
				"element": "C" 
			},
			{
				"x": 0.6698917128,
				"y": -0.7571427017,
				"z": -0.2446331124,
				"element": "N" 
			},
			{
				"x": 1.4427203385,
				"y": -1.1089421029,
				"z": 0.8300956762,
				"element": "C" 
			},
			{
				"x": 1.79284012,
				"y": -0.2739316139,
				"z": 1.7720909058,
				"element": "N" 
			},
			{
				"x": 2.6173185722,
				"y": -0.8954718254,
				"z": 2.6838904609,
				"element": "C" 
			},
			{
				"x": 2.9050769909,
				"y": -2.2067375163,
				"z": 2.4667655738,
				"element": "C" 
			},
			{
				"x": 2.0970338722,
				"y": -2.7493858648,
				"z": 1.0115606013,
				"element": "S" 
			},
			{
				"x": -0.7970835978,
				"y": -2.2738647426,
				"z": -0.5003478912,
				"element": "H" 
			},
			{
				"x": 0.7090820223,
				"y": -2.4824554207,
				"z": -1.4048411705,
				"element": "H" 
			},
			{
				"x": -1.1008737392,
				"y": -1.8578692626,
				"z": -2.9141146571,
				"element": "H" 
			},
			{
				"x": 0.1502014713,
				"y": -0.6148680434,
				"z": -2.900670703,
				"element": "H" 
			},
			{
				"x": -0.3791822148,
				"y": 1.6569963465,
				"z": -2.2745686641,
				"element": "H" 
			},
			{
				"x": -2.0637003927,
				"y": 3.3564944903,
				"z": -1.6407044404,
				"element": "H" 
			},
			{
				"x": -4.355368922,
				"y": 2.6542329746,
				"z": -0.9759039381,
				"element": "H" 
			},
			{
				"x": -4.9422820266,
				"y": 0.2373456866,
				"z": -0.9491292418,
				"element": "H" 
			},
			{
				"x": -3.2547403989,
				"y": -1.4583315697,
				"z": -1.5730043256,
				"element": "H" 
			},
			{
				"x": 0.1823427281,
				"y": 0.1194953286,
				"z": -0.0971005112,
				"element": "H" 
			},
			{
				"x": 2.9910473925,
				"y": -0.3197944658,
				"z": 3.5235206681,
				"element": "H" 
			},
			{
				"x": 3.5155256351,
				"y": -2.8810120627,
				"z": 3.048622043,
				"element": "H" 
			}
		],
		 "valence_orbital": [ 
			{
				"type": "occ",
				"energy": -0.26469,
				"method": "rhf"
			},
			{
				"type": "occ",
				"energy": -0.26321,
				"method": "rhf"
			},
			{
				"type": "occ",
				"energy": -0.25676,
				"method": "rhf"
			},
			{
				"type": "occ",
				"energy": -0.25053,
				"method": "rhf"
			},
			{
				"type": "occ",
				"energy": -0.1974,
				"method": "rhf"
			},
			{
				"type": "unocc",
				"energy": -0.01098,
				"method": "rhf"
			},
			{
				"type": "unocc",
				"energy": -0.0089,
				"method": "rhf"
			},
			{
				"type": "unocc",
				"energy": 0.00667,
				"method": "rhf"
			},
			{
				"type": "unocc",
				"energy": 0.02613,
				"method": "rhf"
			},
			{
				"type": "unocc",
				"energy": 0.07196,
				"method": "rhf"
			}
		],
		"cosmo_sigma_profile": { 
			"-0.025": 0.0,
			"-0.024": 0.0,
			"-0.023": 0.0,
			"-0.022": 0.0,
			"-0.021": 0.0,
			"-0.02": 0.0,
			"-0.019": 0.0,
			"-0.018": 0.0,
			"-0.017": 0.0,
			"-0.016": 0.0,
			"-0.015": 0.0,
			"-0.014": 0.0,
			"-0.013": 0.0,
			"-0.012": 0.0,
			"-0.011": 0.0,
			"-0.01": 0.0,
			"-0.009": 0.447854733725,
			"-0.008": 2.52396552346,
			"-0.007": 3.98082227825,
			"-0.006": 8.46128769305,
			"-0.005": 22.2520738293,
			"-0.004": 29.9574245513,
			"-0.003": 26.2630793096,
			"-0.002": 19.3714425153,
			"-0.001": 16.8647658581,
			"0.0": 12.8503896732,
			"0.001": 14.8485894817,
			"0.002": 16.0176383013,
			"0.003": 16.3322266159,
			"0.004": 17.5768368086,
			"0.005": 17.938424116,
			"0.006": 11.0404015601,
			"0.007": 2.53435729125,
			"0.008": 2.277226649,
			"0.009": 2.15727448425,
			"0.01": 0.858592795199,
			"0.011": 0.477987067737,
			"0.012": 1.22255679461,
			"0.013": 1.51860509813,
			"0.014": 0.913333249623,
			"0.015": 0.815416437382,
			"0.016": 0.809128384761,
			"0.017": 0.0161473570671,
			"0.018": 0.0,
			"0.019": 0.0,
			"0.02": 0.0,
			"0.021": 0.0,
			"0.022": 0.0,
			"0.023": 0.0,
			"0.024": 0.0,
			"0.025": 0.0
		}
	}
}
