{
	 "smiles": "OC(=O)C1CN(C2CC2)C(=O)C1", 
	 "Tm": 367.15, 
	 "num_atms": 23, 
	 "gaussian": { 
		 "optdone": 1, 
		 "sigma_profile": "yes", 
		 "theory": "DFT", 
		 "functional": "B3LYP", 
		 "basiset": "6-31G**", 
		 "properties": { 
			 "R2extent": 2836.1898, 
			 "electric_dipole_moment_norm": 2.46189840164, 
			 "electric_quadrupole_moment_norm": 22.4686321326, 
			 "total_energy": -591.891081606, 
			 "HOMO_LUMO_gap": 0.23921, 
			 "cosmo_polarized_energy": -20.45, 
			 "cosmo_cavitation_energy": 26.34, 
			 "cosmo_dispersion_energy": -18.95, 
			 "cosmo_repulsion_energy": 1.54, 
			 "cosmo_total_nonelectrostatic_energy": 8.93, 
			 "SMD_solvation_energy": 5.32 
		},
		"coords": [
			{
				"x": 1.6260816088,
				"y": 3.3093165876,
				"z": -3.0004848233,
				"element": "O" 
			},
			{
				"x": 1.7483699687,
				"y": 2.5676677809,
				"z": -1.8679680029,
				"element": "C" 
			},
			{
				"x": 2.8321718176,
				"y": 2.4025929109,
				"z": -1.3663831972,
				"element": "O" 
			},
			{
				"x": 0.4454904185,
				"y": 1.9990663927,
				"z": -1.3233071583,
				"element": "C" 
			},
			{
				"x": 0.6457018792,
				"y": 1.1275693325,
				"z": -0.0693313832,
				"element": "C" 
			},
			{
				"x": -0.4852732691,
				"y": 0.2028102196,
				"z": -0.1197639991,
				"element": "N" 
			},
			{
				"x": -0.7465716741,
				"y": -0.7083286497,
				"z": 0.9558349473,
				"element": "C" 
			},
			{
				"x": -2.1687697657,
				"y": -0.949696749,
				"z": 1.3762768209,
				"element": "C" 
			},
			{
				"x": -1.2535429881,
				"y": -0.1518552023,
				"z": 2.2686560178,
				"element": "C" 
			},
			{
				"x": -1.0205308978,
				"y": 0.0592023936,
				"z": -1.3815019652,
				"element": "C" 
			},
			{
				"x": -1.8835420622,
				"y": -0.729194368,
				"z": -1.7222767648,
				"element": "O" 
			},
			{
				"x": -0.3127275994,
				"y": 1.0677260489,
				"z": -2.2968472165,
				"element": "C" 
			},
			{
				"x": 0.7014369749,
				"y": 3.3420246685,
				"z": -3.2850881665,
				"element": "H" 
			},
			{
				"x": -0.2065230966,
				"y": 2.845915294,
				"z": -1.0699551901,
				"element": "H" 
			},
			{
				"x": 0.6284450355,
				"y": 1.7126567757,
				"z": 0.8544408068,
				"element": "H" 
			},
			{
				"x": 1.6094189526,
				"y": 0.6043158594,
				"z": -0.1144271256,
				"element": "H" 
			},
			{
				"x": -0.059995596,
				"y": -1.5537154933,
				"z": 1.0098603872,
				"element": "H" 
			},
			{
				"x": -2.9401863518,
				"y": -0.4225217529,
				"z": 0.8280439927,
				"element": "H" 
			},
			{
				"x": -2.4358522085,
				"y": -1.9603085143,
				"z": 1.6670428827,
				"element": "H" 
			},
			{
				"x": -1.4171028804,
				"y": 0.9200817138,
				"z": 2.3259405212,
				"element": "H" 
			},
			{
				"x": -0.8846131558,
				"y": -0.6020094066,
				"z": 3.1848969469,
				"element": "H" 
			},
			{
				"x": -1.0419635038,
				"y": 1.5663469921,
				"z": -2.940556992,
				"element": "H" 
			},
			{
				"x": 0.3726783935,
				"y": 0.506437166,
				"z": -2.9436013389,
				"element": "H" 
			}
		],
		 "valence_orbital": [ 
			{
				"type": "occ",
				"energy": -0.31664,
				"method": "rhf"
			},
			{
				"type": "occ",
				"energy": -0.30321,
				"method": "rhf"
			},
			{
				"type": "occ",
				"energy": -0.28545,
				"method": "rhf"
			},
			{
				"type": "occ",
				"energy": -0.25707,
				"method": "rhf"
			},
			{
				"type": "occ",
				"energy": -0.24241,
				"method": "rhf"
			},
			{
				"type": "unocc",
				"energy": -0.0032,
				"method": "rhf"
			},
			{
				"type": "unocc",
				"energy": 0.0146,
				"method": "rhf"
			},
			{
				"type": "unocc",
				"energy": 0.044,
				"method": "rhf"
			},
			{
				"type": "unocc",
				"energy": 0.07947,
				"method": "rhf"
			},
			{
				"type": "unocc",
				"energy": 0.09431,
				"method": "rhf"
			}
		],
		"cosmo_sigma_profile": { 
			"-0.025": 0.0,
			"-0.024": 0.0,
			"-0.023": 0.0,
			"-0.022": 0.0,
			"-0.021": 0.0,
			"-0.02": 0.0,
			"-0.019": 0.496628249533,
			"-0.018": 1.01634904721,
			"-0.017": 1.1763874133,
			"-0.016": 1.00115582486,
			"-0.015": 0.799457530418,
			"-0.014": 0.816701613378,
			"-0.013": 1.56385659471,
			"-0.012": 1.12380837947,
			"-0.011": 1.57939149059,
			"-0.01": 1.21703334144,
			"-0.009": 1.4964674427,
			"-0.008": 4.34221119941,
			"-0.007": 9.14481498263,
			"-0.006": 10.1706679646,
			"-0.005": 17.0792197678,
			"-0.004": 21.038406701,
			"-0.003": 15.8125945343,
			"-0.002": 15.0839383413,
			"-0.001": 11.6735357425,
			"0.0": 10.7578137052,
			"0.001": 8.62633749091,
			"0.002": 7.32011568758,
			"0.003": 5.01795850989,
			"0.004": 5.60653598196,
			"0.005": 5.12084866557,
			"0.006": 3.31563187446,
			"0.007": 3.94225184587,
			"0.008": 5.34751958604,
			"0.009": 4.59443920453,
			"0.01": 6.59656583071,
			"0.011": 6.95684585293,
			"0.012": 6.0977368032,
			"0.013": 5.10857651222,
			"0.014": 5.0905121896,
			"0.015": 0.779828831147,
			"0.016": 0.0,
			"0.017": 0.0,
			"0.018": 0.0,
			"0.019": 0.0,
			"0.02": 0.0,
			"0.021": 0.0,
			"0.022": 0.0,
			"0.023": 0.0,
			"0.024": 0.0,
			"0.025": 0.0
		}
	}
}
