{
	 "smiles": "NC1=C(F)C=C(C=C1)S(N)(=O)=O", 
	 "Tm": 440.15, 
	 "num_atms": 19, 
	 "gaussian": { 
		 "optdone": 1, 
		 "sigma_profile": "yes", 
		 "theory": "DFT", 
		 "functional": "B3LYP", 
		 "basiset": "6-31G**", 
		 "properties": { 
			 "R2extent": 3659.1483, 
			 "electric_dipole_moment_norm": 5.45143463686, 
			 "electric_quadrupole_moment_norm": 24.4804750399, 
			 "total_energy": -990.763913652, 
			 "HOMO_LUMO_gap": 0.19716, 
			 "cosmo_polarized_energy": -18.89, 
			 "cosmo_cavitation_energy": 25.21, 
			 "cosmo_dispersion_energy": -19.2, 
			 "cosmo_repulsion_energy": 1.47, 
			 "cosmo_total_nonelectrostatic_energy": 7.48, 
			 "SMD_solvation_energy": 4.4 
		},
		"coords": [
			{
				"x": -1.2851418734,
				"y": -3.6265575798,
				"z": -1.3219430098,
				"element": "N" 
			},
			{
				"x": -1.3864645283,
				"y": -2.5456611408,
				"z": -0.4713272659,
				"element": "C" 
			},
			{
				"x": -0.2168085651,
				"y": -1.9886093253,
				"z": 0.0823900652,
				"element": "C" 
			},
			{
				"x": 0.9644142389,
				"y": -2.5276964592,
				"z": -0.3132444519,
				"element": "F" 
			},
			{
				"x": -0.2328373254,
				"y": -0.9440323195,
				"z": 0.9800081939,
				"element": "C" 
			},
			{
				"x": -1.4741215985,
				"y": -0.4123044627,
				"z": 1.3522814853,
				"element": "C" 
			},
			{
				"x": -2.6592879584,
				"y": -0.9333184458,
				"z": 0.8332568387,
				"element": "C" 
			},
			{
				"x": -2.6135855336,
				"y": -1.9909335606,
				"z": -0.0718706057,
				"element": "C" 
			},
			{
				"x": -1.5301734535,
				"y": 0.9382402904,
				"z": 2.5117036787,
				"element": "S" 
			},
			{
				"x": -1.1165198404,
				"y": 2.2883669043,
				"z": 1.5641733253,
				"element": "N" 
			},
			{
				"x": -0.4241123547,
				"y": 0.7863190053,
				"z": 3.4620169267,
				"element": "O" 
			},
			{
				"x": -2.9221568488,
				"y": 1.0809432238,
				"z": 2.9541583566,
				"element": "O" 
			},
			{
				"x": -0.3756419876,
				"y": -3.7840422594,
				"z": -1.7296529125,
				"element": "H" 
			},
			{
				"x": -2.0621018544,
				"y": -3.7997697516,
				"z": -1.9411429762,
				"element": "H" 
			},
			{
				"x": 0.6962650824,
				"y": -0.5622813844,
				"z": 1.3867921855,
				"element": "H" 
			},
			{
				"x": -3.6092388982,
				"y": -0.5195334092,
				"z": 1.1516115405,
				"element": "H" 
			},
			{
				"x": -3.5355384419,
				"y": -2.4055603193,
				"z": -0.4695688199,
				"element": "H" 
			},
			{
				"x": -0.4615568342,
				"y": 2.8546379353,
				"z": 2.0985916639,
				"element": "H" 
			},
			{
				"x": -1.953691425,
				"y": 2.8207930583,
				"z": 1.3395657816,
				"element": "H" 
			}
		],
		 "valence_orbital": [ 
			{
				"type": "occ",
				"energy": -0.31084,
				"method": "rhf"
			},
			{
				"type": "occ",
				"energy": -0.29941,
				"method": "rhf"
			},
			{
				"type": "occ",
				"energy": -0.28544,
				"method": "rhf"
			},
			{
				"type": "occ",
				"energy": -0.26411,
				"method": "rhf"
			},
			{
				"type": "occ",
				"energy": -0.22392,
				"method": "rhf"
			},
			{
				"type": "unocc",
				"energy": -0.02676,
				"method": "rhf"
			},
			{
				"type": "unocc",
				"energy": -0.01219,
				"method": "rhf"
			},
			{
				"type": "unocc",
				"energy": 0.05527,
				"method": "rhf"
			},
			{
				"type": "unocc",
				"energy": 0.06596,
				"method": "rhf"
			},
			{
				"type": "unocc",
				"energy": 0.08755,
				"method": "rhf"
			}
		],
		"cosmo_sigma_profile": { 
			"-0.025": 0.0,
			"-0.024": 0.0,
			"-0.023": 0.0,
			"-0.022": 0.0,
			"-0.021": 0.0,
			"-0.02": 0.0,
			"-0.019": 0.0,
			"-0.018": 0.0,
			"-0.017": 0.0,
			"-0.016": 0.0,
			"-0.015": 0.487394472964,
			"-0.014": 3.5297842927,
			"-0.013": 4.50828313716,
			"-0.012": 5.76572121856,
			"-0.011": 4.70003282006,
			"-0.01": 3.97313111847,
			"-0.009": 4.66942954169,
			"-0.008": 5.22769808907,
			"-0.007": 6.37870154797,
			"-0.006": 8.66893624871,
			"-0.005": 6.98299446499,
			"-0.004": 6.21687806502,
			"-0.003": 7.53767072051,
			"-0.002": 6.80389135442,
			"-0.001": 9.13008459576,
			"0.0": 12.7108173001,
			"0.001": 14.393991341,
			"0.002": 14.9562319657,
			"0.003": 16.4160383842,
			"0.004": 11.4877664281,
			"0.005": 3.93662310387,
			"0.006": 4.93542729569,
			"0.007": 5.29394108963,
			"0.008": 4.03458528976,
			"0.009": 3.82562485944,
			"0.01": 7.43687316665,
			"0.011": 10.9580639732,
			"0.012": 5.7615893187,
			"0.013": 0.205435360902,
			"0.014": 0.0,
			"0.015": 0.0,
			"0.016": 0.0,
			"0.017": 0.0,
			"0.018": 0.0,
			"0.019": 0.0,
			"0.02": 0.0,
			"0.021": 0.0,
			"0.022": 0.0,
			"0.023": 0.0,
			"0.024": 0.0,
			"0.025": 0.0
		}
	}
}
