{
	 "smiles": "CCC(C)(N=NC(C)(CC)C#N)C#N", 
	 "Tm": 323.15, 
	 "num_atms": 30, 
	 "gaussian": { 
		 "optdone": 1, 
		 "sigma_profile": "yes", 
		 "theory": "DFT", 
		 "functional": "B3LYP", 
		 "basiset": "6-31G**", 
		 "properties": { 
			 "R2extent": 3158.3586, 
			 "electric_dipole_moment_norm": 0.234246792934, 
			 "electric_quadrupole_moment_norm": 32.3424179275, 
			 "total_energy": -609.641303703, 
			 "HOMO_LUMO_gap": 0.19069, 
			 "cosmo_polarized_energy": -14.48, 
			 "cosmo_cavitation_energy": 34.48, 
			 "cosmo_dispersion_energy": -21.32, 
			 "cosmo_repulsion_energy": 1.74, 
			 "cosmo_total_nonelectrostatic_energy": 14.91, 
			 "SMD_solvation_energy": 7.02 
		},
		"coords": [
			{
				"x": -3.2280261628,
				"y": 0.218077368,
				"z": -0.365662096,
				"element": "C" 
			},
			{
				"x": -2.3386532452,
				"y": 0.4995976458,
				"z": 0.8498415772,
				"element": "C" 
			},
			{
				"x": -1.155363986,
				"y": -0.494944058,
				"z": 1.0436767266,
				"element": "C" 
			},
			{
				"x": -1.6174675648,
				"y": -1.9640789397,
				"z": 1.1371932193,
				"element": "C" 
			},
			{
				"x": -0.3100432792,
				"y": -0.3988560219,
				"z": -0.1784630319,
				"element": "N" 
			},
			{
				"x": 0.867259755,
				"y": -0.0826926637,
				"z": 0.027095168,
				"element": "N" 
			},
			{
				"x": 1.7077005637,
				"y": 0.03762795,
				"z": -1.1975577495,
				"element": "C" 
			},
			{
				"x": 2.159196999,
				"y": 1.5124705078,
				"z": -1.2511197459,
				"element": "C" 
			},
			{
				"x": 2.9248235485,
				"y": -0.9051621468,
				"z": -1.0010211566,
				"element": "C" 
			},
			{
				"x": 2.5774618883,
				"y": -2.3943599902,
				"z": -0.9506226648,
				"element": "C" 
			},
			{
				"x": 0.9821022605,
				"y": -0.3059794143,
				"z": -2.4405841877,
				"element": "C" 
			},
			{
				"x": 0.4563811273,
				"y": -0.5653615009,
				"z": -3.4421564982,
				"element": "N" 
			},
			{
				"x": -0.4299054584,
				"y": -0.1279137956,
				"z": 2.2812473856,
				"element": "C" 
			},
			{
				"x": 0.0856996014,
				"y": 0.1545099231,
				"z": 3.2816673365,
				"element": "N" 
			},
			{
				"x": -3.9715530945,
				"y": 1.0144764067,
				"z": -0.4662231601,
				"element": "H" 
			},
			{
				"x": -2.6435312065,
				"y": 0.1766267922,
				"z": -1.2875503229,
				"element": "H" 
			},
			{
				"x": -3.7723792952,
				"y": -0.7253073624,
				"z": -0.2641297491,
				"element": "H" 
			},
			{
				"x": -1.9102210778,
				"y": 1.5054743095,
				"z": 0.7755746148,
				"element": "H" 
			},
			{
				"x": -2.9326226556,
				"y": 0.4811065568,
				"z": 1.7703263462,
				"element": "H" 
			},
			{
				"x": -2.0557241739,
				"y": -2.2736276913,
				"z": 0.1866506458,
				"element": "H" 
			},
			{
				"x": -0.7694153265,
				"y": -2.6165245222,
				"z": 1.3590439786,
				"element": "H" 
			},
			{
				"x": -2.3605602778,
				"y": -2.0757792826,
				"z": 1.9310539403,
				"element": "H" 
			},
			{
				"x": 1.3011733282,
				"y": 2.174305546,
				"z": -1.3920675937,
				"element": "H" 
			},
			{
				"x": 2.6527692846,
				"y": 1.7708965268,
				"z": -0.3110176758,
				"element": "H" 
			},
			{
				"x": 2.8574368162,
				"y": 1.6624716612,
				"z": -2.0782370346,
				"element": "H" 
			},
			{
				"x": 3.6302518616,
				"y": -0.7065384842,
				"z": -1.8153240212,
				"element": "H" 
			},
			{
				"x": 3.4082337729,
				"y": -0.5952672025,
				"z": -0.0682758963,
				"element": "H" 
			},
			{
				"x": 2.1013857275,
				"y": -2.7260104793,
				"z": -1.8783470189,
				"element": "H" 
			},
			{
				"x": 3.4846808346,
				"y": -2.9880358585,
				"z": -0.8061069094,
				"element": "H" 
			},
			{
				"x": 1.8989094349,
				"y": -2.6160017796,
				"z": -0.1216044262,
				"element": "H" 
			}
		],
		 "valence_orbital": [ 
			{
				"type": "occ",
				"energy": -0.33323,
				"method": "rhf"
			},
			{
				"type": "occ",
				"energy": -0.32729,
				"method": "rhf"
			},
			{
				"type": "occ",
				"energy": -0.32683,
				"method": "rhf"
			},
			{
				"type": "occ",
				"energy": -0.32148,
				"method": "rhf"
			},
			{
				"type": "occ",
				"energy": -0.25621,
				"method": "rhf"
			},
			{
				"type": "unocc",
				"energy": -0.06552,
				"method": "rhf"
			},
			{
				"type": "unocc",
				"energy": 0.01575,
				"method": "rhf"
			},
			{
				"type": "unocc",
				"energy": 0.03064,
				"method": "rhf"
			},
			{
				"type": "unocc",
				"energy": 0.03111,
				"method": "rhf"
			},
			{
				"type": "unocc",
				"energy": 0.03357,
				"method": "rhf"
			}
		],
		"cosmo_sigma_profile": { 
			"-0.025": 0.0,
			"-0.024": 0.0,
			"-0.023": 0.0,
			"-0.022": 0.0,
			"-0.021": 0.0,
			"-0.02": 0.0,
			"-0.019": 0.0,
			"-0.018": 0.0,
			"-0.017": 0.0,
			"-0.016": 0.0,
			"-0.015": 0.0,
			"-0.014": 0.0,
			"-0.013": 0.0,
			"-0.012": 0.0,
			"-0.011": 0.0,
			"-0.01": 0.0,
			"-0.009": 0.0,
			"-0.008": 0.0644058487573,
			"-0.007": 2.1673529295,
			"-0.006": 13.9304070943,
			"-0.005": 25.1006653406,
			"-0.004": 28.5718817812,
			"-0.003": 32.6468610772,
			"-0.002": 37.5274564633,
			"-0.001": 29.3128926395,
			"0.0": 21.0411951724,
			"0.001": 9.96661491729,
			"0.002": 5.08977395323,
			"0.003": 5.64438351032,
			"0.004": 4.2264330259,
			"0.005": 5.9694631793,
			"0.006": 4.59738095649,
			"0.007": 6.72493521154,
			"0.008": 8.51808153118,
			"0.009": 9.70098986372,
			"0.01": 7.32391961937,
			"0.011": 5.63946872759,
			"0.012": 4.82105819688,
			"0.013": 2.55677346939,
			"0.014": 0.0360995541807,
			"0.015": 0.0,
			"0.016": 0.0,
			"0.017": 0.0,
			"0.018": 0.0,
			"0.019": 0.0,
			"0.02": 0.0,
			"0.021": 0.0,
			"0.022": 0.0,
			"0.023": 0.0,
			"0.024": 0.0,
			"0.025": 0.0
		}
	}
}
