{
	 "smiles": "CC1=C(F)C=C(NC(N)=O)C=C1", 
	 "Tm": 464.15, 
	 "num_atms": 21, 
	 "gaussian": { 
		 "optdone": 1, 
		 "sigma_profile": "yes", 
		 "theory": "DFT", 
		 "functional": "B3LYP", 
		 "basiset": "6-31G**", 
		 "properties": { 
			 "R2extent": 2625.707, 
			 "electric_dipole_moment_norm": 3.31677763198, 
			 "electric_quadrupole_moment_norm": 14.1169009655, 
			 "total_energy": -594.871809809, 
			 "HOMO_LUMO_gap": 0.20716, 
			 "cosmo_polarized_energy": -13.56, 
			 "cosmo_cavitation_energy": 25.57, 
			 "cosmo_dispersion_energy": -18.73, 
			 "cosmo_repulsion_energy": 1.49, 
			 "cosmo_total_nonelectrostatic_energy": 8.32, 
			 "SMD_solvation_energy": 5.91 
		},
		"coords": [
			{
				"x": -0.4388820683,
				"y": 4.1398484579,
				"z": 0.607496431,
				"element": "C" 
			},
			{
				"x": -0.6035890911,
				"y": 2.6965384841,
				"z": 0.2081316608,
				"element": "C" 
			},
			{
				"x": 0.4941188922,
				"y": 1.9376537762,
				"z": -0.1996755832,
				"element": "C" 
			},
			{
				"x": 1.705478724,
				"y": 2.5402295536,
				"z": -0.2369255872,
				"element": "F" 
			},
			{
				"x": 0.4201756751,
				"y": 0.607776132,
				"z": -0.5900091344,
				"element": "C" 
			},
			{
				"x": -0.8255555396,
				"y": -0.0396068863,
				"z": -0.5520122506,
				"element": "C" 
			},
			{
				"x": -0.9962427014,
				"y": -1.3778921233,
				"z": -0.950005706,
				"element": "N" 
			},
			{
				"x": -0.1557324464,
				"y": -2.4850806892,
				"z": -0.8716524652,
				"element": "C" 
			},
			{
				"x": 1.0545741068,
				"y": -2.3001237367,
				"z": -0.2307887366,
				"element": "N" 
			},
			{
				"x": -0.4894608122,
				"y": -3.5510547878,
				"z": -1.3687441469,
				"element": "O" 
			},
			{
				"x": -1.954294288,
				"y": 0.6923819393,
				"z": -0.150329871,
				"element": "C" 
			},
			{
				"x": -1.8357683033,
				"y": 2.0324859856,
				"z": 0.2108045333,
				"element": "C" 
			},
			{
				"x": -1.3973735802,
				"y": 4.5716736831,
				"z": 0.9061356251,
				"element": "H" 
			},
			{
				"x": -0.0373557005,
				"y": 4.7396900201,
				"z": -0.2166043352,
				"element": "H" 
			},
			{
				"x": 0.2589123898,
				"y": 4.2464972907,
				"z": 1.4452357921,
				"element": "H" 
			},
			{
				"x": 1.312470097,
				"y": 0.1093465777,
				"z": -0.9472719474,
				"element": "H" 
			},
			{
				"x": -1.9004973583,
				"y": -1.6359899781,
				"z": -1.3190959888,
				"element": "H" 
			},
			{
				"x": 1.1193288826,
				"y": -1.5985245018,
				"z": 0.4935705117,
				"element": "H" 
			},
			{
				"x": 1.5207935225,
				"y": -3.1741666595,
				"z": -0.0346707017,
				"element": "H" 
			},
			{
				"x": -2.9234583222,
				"y": 0.2032662559,
				"z": -0.1152387947,
				"element": "H" 
			},
			{
				"x": -2.7239420782,
				"y": 2.5785512064,
				"z": 0.5174506948,
				"element": "H" 
			}
		],
		 "valence_orbital": [ 
			{
				"type": "occ",
				"energy": -0.30022,
				"method": "rhf"
			},
			{
				"type": "occ",
				"energy": -0.27641,
				"method": "rhf"
			},
			{
				"type": "occ",
				"energy": -0.25926,
				"method": "rhf"
			},
			{
				"type": "occ",
				"energy": -0.25573,
				"method": "rhf"
			},
			{
				"type": "occ",
				"energy": -0.2215,
				"method": "rhf"
			},
			{
				"type": "unocc",
				"energy": -0.01434,
				"method": "rhf"
			},
			{
				"type": "unocc",
				"energy": -0.00895,
				"method": "rhf"
			},
			{
				"type": "unocc",
				"energy": 0.06104,
				"method": "rhf"
			},
			{
				"type": "unocc",
				"energy": 0.08468,
				"method": "rhf"
			},
			{
				"type": "unocc",
				"energy": 0.09444,
				"method": "rhf"
			}
		],
		"cosmo_sigma_profile": { 
			"-0.025": 0.0,
			"-0.024": 0.0,
			"-0.023": 0.0,
			"-0.022": 0.0,
			"-0.021": 0.0,
			"-0.02": 0.0,
			"-0.019": 0.0,
			"-0.018": 0.0,
			"-0.017": 0.0,
			"-0.016": 0.0,
			"-0.015": 0.0538909295539,
			"-0.014": 1.01078518657,
			"-0.013": 3.01131886895,
			"-0.012": 3.14607777881,
			"-0.011": 3.06434608245,
			"-0.01": 3.70625626249,
			"-0.009": 2.91062887119,
			"-0.008": 3.648814917,
			"-0.007": 3.91944917941,
			"-0.006": 7.16359252818,
			"-0.005": 8.77527510986,
			"-0.004": 14.1083451632,
			"-0.003": 10.4507493675,
			"-0.002": 12.5129312828,
			"-0.001": 14.2083379636,
			"0.0": 17.9087606171,
			"0.001": 16.1612776273,
			"0.002": 12.7300755435,
			"0.003": 14.5851477868,
			"0.004": 17.4998927379,
			"0.005": 9.88591476033,
			"0.006": 2.39560869508,
			"0.007": 1.78520183145,
			"0.008": 1.71966410194,
			"0.009": 1.14360594615,
			"0.01": 1.31754114927,
			"0.011": 1.21880775047,
			"0.012": 1.52370500728,
			"0.013": 3.54015160377,
			"0.014": 6.51256540524,
			"0.015": 1.28608916588,
			"0.016": 0.0,
			"0.017": 0.0,
			"0.018": 0.0,
			"0.019": 0.0,
			"0.02": 0.0,
			"0.021": 0.0,
			"0.022": 0.0,
			"0.023": 0.0,
			"0.024": 0.0,
			"0.025": 0.0
		}
	}
}
