{
	 "smiles": "CCCC(=O)C1=CC(=CC=C1)[N+]([O-])=O", 
	 "Tm": 334.15, 
	 "num_atms": 25, 
	 "gaussian": { 
		 "optdone": 1, 
		 "sigma_profile": "yes", 
		 "theory": "DFT", 
		 "functional": "B3LYP", 
		 "basiset": "6-31G**", 
		 "properties": { 
			 "R2extent": 4039.8134, 
			 "electric_dipole_moment_norm": 6.21002423828, 
			 "electric_quadrupole_moment_norm": 15.3018179825, 
			 "total_energy": -668.024147972, 
			 "HOMO_LUMO_gap": 0.16618, 
			 "cosmo_polarized_energy": -12.37, 
			 "cosmo_cavitation_energy": 29.78, 
			 "cosmo_dispersion_energy": -21.2, 
			 "cosmo_repulsion_energy": 1.68, 
			 "cosmo_total_nonelectrostatic_energy": 10.26, 
			 "SMD_solvation_energy": 7.83 
		},
		"coords": [
			{
				"x": -2.836643114,
				"y": 0.5285028952,
				"z": 3.4097490596,
				"element": "C" 
			},
			{
				"x": -2.4842228376,
				"y": 0.3418012918,
				"z": 1.9312114245,
				"element": "C" 
			},
			{
				"x": -1.3682128384,
				"y": 1.3042888603,
				"z": 1.4668828956,
				"element": "C" 
			},
			{
				"x": -1.0704539565,
				"y": 1.1540365018,
				"z": -0.017257772,
				"element": "C" 
			},
			{
				"x": -1.6029139799,
				"y": 1.8904827277,
				"z": -0.8326344335,
				"element": "O" 
			},
			{
				"x": -0.1452376925,
				"y": 0.0617326952,
				"z": -0.4903042328,
				"element": "C" 
			},
			{
				"x": 0.0490736213,
				"y": -0.064227843,
				"z": -1.872896113,
				"element": "C" 
			},
			{
				"x": 0.8942829395,
				"y": -1.0564643687,
				"z": -2.3481260706,
				"element": "C" 
			},
			{
				"x": 1.5608606276,
				"y": -1.9401899615,
				"z": -1.4979489644,
				"element": "C" 
			},
			{
				"x": 1.3645025616,
				"y": -1.8134014346,
				"z": -0.1255953954,
				"element": "C" 
			},
			{
				"x": 0.5191294371,
				"y": -0.8203395148,
				"z": 0.3755089107,
				"element": "C" 
			},
			{
				"x": 1.0979771182,
				"y": -1.1859704206,
				"z": -3.8044271583,
				"element": "N" 
			},
			{
				"x": 0.5015013685,
				"y": -0.3992451712,
				"z": -4.5353739559,
				"element": "O" 
			},
			{
				"x": 1.8537308403,
				"y": -2.0758403634,
				"z": -4.1934112995,
				"element": "O" 
			},
			{
				"x": -3.1775850102,
				"y": 1.5501816985,
				"z": 3.6087594713,
				"element": "H" 
			},
			{
				"x": -1.971040495,
				"y": 0.3360054366,
				"z": 4.0537719076,
				"element": "H" 
			},
			{
				"x": -3.6358731422,
				"y": -0.1553682373,
				"z": 3.712203665,
				"element": "H" 
			},
			{
				"x": -2.1792761575,
				"y": -0.6965635231,
				"z": 1.7510635186,
				"element": "H" 
			},
			{
				"x": -3.3716229509,
				"y": 0.5147149531,
				"z": 1.31124926,
				"element": "H" 
			},
			{
				"x": -0.4665286239,
				"y": 1.1491655885,
				"z": 2.070908498,
				"element": "H" 
			},
			{
				"x": -1.6944656158,
				"y": 2.3377508718,
				"z": 1.61461529,
				"element": "H" 
			},
			{
				"x": -0.4579566584,
				"y": 0.6099788412,
				"z": -2.5516344494,
				"element": "H" 
			},
			{
				"x": 2.2098509305,
				"y": -2.69748207,
				"z": -1.919465483,
				"element": "H" 
			},
			{
				"x": 1.8719264938,
				"y": -2.4887300419,
				"z": 0.5557319302,
				"element": "H" 
			},
			{
				"x": 0.3818971345,
				"y": -0.7392194115,
				"z": 1.4483194966,
				"element": "H" 
			}
		],
		 "valence_orbital": [ 
			{
				"type": "occ",
				"energy": -0.31107,
				"method": "rhf"
			},
			{
				"type": "occ",
				"energy": -0.29519,
				"method": "rhf"
			},
			{
				"type": "occ",
				"energy": -0.29239,
				"method": "rhf"
			},
			{
				"type": "occ",
				"energy": -0.28408,
				"method": "rhf"
			},
			{
				"type": "occ",
				"energy": -0.26116,
				"method": "rhf"
			},
			{
				"type": "unocc",
				"energy": -0.09498,
				"method": "rhf"
			},
			{
				"type": "unocc",
				"energy": -0.0739,
				"method": "rhf"
			},
			{
				"type": "unocc",
				"energy": -0.01566,
				"method": "rhf"
			},
			{
				"type": "unocc",
				"energy": 0.02589,
				"method": "rhf"
			},
			{
				"type": "unocc",
				"energy": 0.06446,
				"method": "rhf"
			}
		],
		"cosmo_sigma_profile": { 
			"-0.025": 0.0,
			"-0.024": 0.0,
			"-0.023": 0.0,
			"-0.022": 0.0,
			"-0.021": 0.0,
			"-0.02": 0.0,
			"-0.019": 0.0,
			"-0.018": 0.0,
			"-0.017": 0.0,
			"-0.016": 0.0,
			"-0.015": 0.0,
			"-0.014": 0.0,
			"-0.013": 0.0,
			"-0.012": 0.0,
			"-0.011": 0.0,
			"-0.01": 0.0,
			"-0.009": 0.482906862062,
			"-0.008": 4.99846896458,
			"-0.007": 8.78508753329,
			"-0.006": 9.01525498498,
			"-0.005": 9.40050284324,
			"-0.004": 14.4475997026,
			"-0.003": 26.526232427,
			"-0.002": 26.8595834418,
			"-0.001": 29.2143916726,
			"0.0": 27.7022935938,
			"0.001": 18.5309994816,
			"0.002": 7.32494513749,
			"0.003": 3.63561344338,
			"0.004": 4.08290122494,
			"0.005": 4.56122511618,
			"0.006": 5.87447522109,
			"0.007": 10.3745385054,
			"0.008": 8.28312095819,
			"0.009": 5.48143287049,
			"0.01": 3.8305585759,
			"0.011": 3.91060656262,
			"0.012": 2.45862433727,
			"0.013": 0.711360723526,
			"0.014": 0.0,
			"0.015": 0.0,
			"0.016": 0.0,
			"0.017": 0.0,
			"0.018": 0.0,
			"0.019": 0.0,
			"0.02": 0.0,
			"0.021": 0.0,
			"0.022": 0.0,
			"0.023": 0.0,
			"0.024": 0.0,
			"0.025": 0.0
		}
	}
}
