{
	 "smiles": "CC1CC(=N/NC(N)=O)C2=CC(C)=CC=C12", 
	 "Tm": 500.15, 
	 "num_atms": 31, 
	 "gaussian": { 
		 "optdone": 1, 
		 "sigma_profile": "yes", 
		 "theory": "DFT", 
		 "functional": "B3LYP", 
		 "basiset": "6-31G**", 
		 "properties": { 
			 "R2extent": 4924.5997, 
			 "electric_dipole_moment_norm": 4.34165945463, 
			 "electric_quadrupole_moment_norm": 20.8927861787, 
			 "total_energy": -705.817289449, 
			 "HOMO_LUMO_gap": 0.16658, 
			 "cosmo_polarized_energy": -15.2, 
			 "cosmo_cavitation_energy": 34.41, 
			 "cosmo_dispersion_energy": -24.74, 
			 "cosmo_repulsion_energy": 1.96, 
			 "cosmo_total_nonelectrostatic_energy": 11.63, 
			 "SMD_solvation_energy": 6.03 
		},
		"coords": [
			{
				"x": -2.8426590659,
				"y": -2.2441566906,
				"z": -2.4470759139,
				"element": "C" 
			},
			{
				"x": -1.5372866908,
				"y": -1.4413517966,
				"z": -2.3399425598,
				"element": "C" 
			},
			{
				"x": -1.7659835047,
				"y": 0.051543469,
				"z": -1.9491938662,
				"element": "C" 
			},
			{
				"x": -0.89489895,
				"y": 0.3008153203,
				"z": -0.7262740608,
				"element": "C" 
			},
			{
				"x": -0.731726679,
				"y": 1.4001604173,
				"z": -0.0760819987,
				"element": "N" 
			},
			{
				"x": -1.4023381807,
				"y": 2.5042127412,
				"z": -0.4988197064,
				"element": "N" 
			},
			{
				"x": -1.2513232875,
				"y": 3.7448384656,
				"z": 0.1221773295,
				"element": "C" 
			},
			{
				"x": -0.4776627426,
				"y": 3.7218385873,
				"z": 1.2469814183,
				"element": "N" 
			},
			{
				"x": -1.8139704005,
				"y": 4.7325417344,
				"z": -0.3310619793,
				"element": "O" 
			},
			{
				"x": -0.2329356383,
				"y": -0.9520322523,
				"z": -0.3589659889,
				"element": "C" 
			},
			{
				"x": 0.6364698191,
				"y": -1.2141311784,
				"z": 0.7059567553,
				"element": "C" 
			},
			{
				"x": 1.1597535453,
				"y": -2.4978073415,
				"z": 0.8724754904,
				"element": "C" 
			},
			{
				"x": 2.0931734621,
				"y": -2.8181690519,
				"z": 2.0172045728,
				"element": "C" 
			},
			{
				"x": 0.7960121388,
				"y": -3.5010104926,
				"z": -0.0473983881,
				"element": "C" 
			},
			{
				"x": -0.0706574402,
				"y": -3.2413402653,
				"z": -1.1092129632,
				"element": "C" 
			},
			{
				"x": -0.5916852618,
				"y": -1.9571016593,
				"z": -1.2664059109,
				"element": "C" 
			},
			{
				"x": -3.4935925446,
				"y": -1.8303625316,
				"z": -3.2246740669,
				"element": "H" 
			},
			{
				"x": -2.6451433348,
				"y": -3.2907151043,
				"z": -2.6999449255,
				"element": "H" 
			},
			{
				"x": -3.3892992052,
				"y": -2.2261885028,
				"z": -1.4981161092,
				"element": "H" 
			},
			{
				"x": -1.032332546,
				"y": -1.4857949319,
				"z": -3.3143688969,
				"element": "H" 
			},
			{
				"x": -2.8218559906,
				"y": 0.2405759444,
				"z": -1.7109047748,
				"element": "H" 
			},
			{
				"x": -1.5039899152,
				"y": 0.731967491,
				"z": -2.7697851308,
				"element": "H" 
			},
			{
				"x": -1.9828176998,
				"y": 2.5090787402,
				"z": -1.3301523329,
				"element": "H" 
			},
			{
				"x": 0.0732337055,
				"y": 2.900141868,
				"z": 1.4430763909,
				"element": "H" 
			},
			{
				"x": -0.2035580859,
				"y": 4.6167605707,
				"z": 1.6161487455,
				"element": "H" 
			},
			{
				"x": 0.8979337967,
				"y": -0.4179278913,
				"z": 1.3970851378,
				"element": "H" 
			},
			{
				"x": 1.6390451928,
				"y": -3.5332109414,
				"z": 2.713465339,
				"element": "H" 
			},
			{
				"x": 3.0259584531,
				"y": -3.2677407675,
				"z": 1.6586758382,
				"element": "H" 
			},
			{
				"x": 2.3505212356,
				"y": -1.9200402189,
				"z": 2.585060483,
				"element": "H" 
			},
			{
				"x": 1.2036709848,
				"y": -4.5017515767,
				"z": 0.0752893605,
				"element": "H" 
			},
			{
				"x": -0.3298551695,
				"y": -4.0365421545,
				"z": -1.8036172883,
				"element": "H" 
			}
		],
		 "valence_orbital": [ 
			{
				"type": "occ",
				"energy": -0.27399,
				"method": "rhf"
			},
			{
				"type": "occ",
				"energy": -0.25872,
				"method": "rhf"
			},
			{
				"type": "occ",
				"energy": -0.25242,
				"method": "rhf"
			},
			{
				"type": "occ",
				"energy": -0.24407,
				"method": "rhf"
			},
			{
				"type": "occ",
				"energy": -0.208,
				"method": "rhf"
			},
			{
				"type": "unocc",
				"energy": -0.04142,
				"method": "rhf"
			},
			{
				"type": "unocc",
				"energy": -0.00374,
				"method": "rhf"
			},
			{
				"type": "unocc",
				"energy": 0.04337,
				"method": "rhf"
			},
			{
				"type": "unocc",
				"energy": 0.07925,
				"method": "rhf"
			},
			{
				"type": "unocc",
				"energy": 0.08519,
				"method": "rhf"
			}
		],
		"cosmo_sigma_profile": { 
			"-0.025": 0.0,
			"-0.024": 0.0,
			"-0.023": 0.0,
			"-0.022": 0.0,
			"-0.021": 0.0,
			"-0.02": 0.0,
			"-0.019": 0.0,
			"-0.018": 0.0,
			"-0.017": 0.0,
			"-0.016": 0.0,
			"-0.015": 0.0,
			"-0.014": 0.658674815228,
			"-0.013": 1.81763044768,
			"-0.012": 1.99565604328,
			"-0.011": 2.32613709816,
			"-0.01": 3.37032913873,
			"-0.009": 4.2897338362,
			"-0.008": 2.73544594282,
			"-0.007": 3.18983663173,
			"-0.006": 5.06066627381,
			"-0.005": 12.2096652292,
			"-0.004": 22.1621979137,
			"-0.003": 28.7737851483,
			"-0.002": 27.4754203137,
			"-0.001": 23.4771124521,
			"0.0": 22.1534313936,
			"0.001": 21.0906015979,
			"0.002": 13.8554569243,
			"0.003": 13.7466507619,
			"0.004": 14.4782765163,
			"0.005": 14.9104780591,
			"0.006": 7.38170571041,
			"0.007": 3.74054911853,
			"0.008": 2.21844698681,
			"0.009": 2.39746541798,
			"0.01": 1.10182936125,
			"0.011": 0.783256472435,
			"0.012": 1.12797217186,
			"0.013": 2.37120332088,
			"0.014": 7.04229964268,
			"0.015": 3.10730620934,
			"0.016": 0.0544127470472,
			"0.017": 0.0,
			"0.018": 0.0,
			"0.019": 0.0,
			"0.02": 0.0,
			"0.021": 0.0,
			"0.022": 0.0,
			"0.023": 0.0,
			"0.024": 0.0,
			"0.025": 0.0
		}
	}
}
