{
	 "smiles": "COC(=O)C(=O)CC(=O)C1=CC(OC)=C(OC)C=C1", 
	 "Tm": 419.15, 
	 "num_atms": 33, 
	 "gaussian": { 
		 "optdone": 1, 
		 "sigma_profile": "yes", 
		 "theory": "DFT", 
		 "functional": "B3LYP", 
		 "basiset": "6-31G**", 
		 "properties": { 
			 "R2extent": 7332.2955, 
			 "electric_dipole_moment_norm": 2.33337779624, 
			 "electric_quadrupole_moment_norm": 14.964160217, 
			 "total_energy": -955.12429835, 
			 "HOMO_LUMO_gap": 0.13598, 
			 "cosmo_polarized_energy": -18.0, 
			 "cosmo_cavitation_energy": 38.71, 
			 "cosmo_dispersion_energy": -27.12, 
			 "cosmo_repulsion_energy": 2.12, 
			 "cosmo_total_nonelectrostatic_energy": 13.71, 
			 "SMD_solvation_energy": 11.05 
		},
		"coords": [
			{
				"x": 1.2037352589,
				"y": -5.8389576026,
				"z": -1.1870784628,
				"element": "C" 
			},
			{
				"x": 0.2834768875,
				"y": -4.7904898601,
				"z": -0.8298260221,
				"element": "O" 
			},
			{
				"x": -0.063584291,
				"y": -3.9749836038,
				"z": -1.8288009867,
				"element": "C" 
			},
			{
				"x": 0.3265961668,
				"y": -4.0584263689,
				"z": -2.9734064325,
				"element": "O" 
			},
			{
				"x": -1.0735433506,
				"y": -2.9031243254,
				"z": -1.360121088,
				"element": "C" 
			},
			{
				"x": -1.7460561414,
				"y": -3.0787299452,
				"z": -0.366863241,
				"element": "O" 
			},
			{
				"x": -1.1536971566,
				"y": -1.6719864413,
				"z": -2.242698551,
				"element": "C" 
			},
			{
				"x": -0.1484925583,
				"y": -0.5845317591,
				"z": -1.7864584554,
				"element": "C" 
			},
			{
				"x": 0.9285899273,
				"y": -0.5015358184,
				"z": -2.3567221812,
				"element": "O" 
			},
			{
				"x": -0.5259494775,
				"y": 0.3287559309,
				"z": -0.679647147,
				"element": "C" 
			},
			{
				"x": 0.3590986828,
				"y": 1.3916741508,
				"z": -0.3920105512,
				"element": "C" 
			},
			{
				"x": 0.0872370617,
				"y": 2.2909492435,
				"z": 0.6249937761,
				"element": "C" 
			},
			{
				"x": 0.869963778,
				"y": 3.3478411233,
				"z": 0.9714046409,
				"element": "O" 
			},
			{
				"x": 2.0693087625,
				"y": 3.5474915447,
				"z": 0.2383052799,
				"element": "C" 
			},
			{
				"x": -1.0992791316,
				"y": 2.1325179496,
				"z": 1.3978327877,
				"element": "C" 
			},
			{
				"x": -1.2859114388,
				"y": 3.0552617159,
				"z": 2.3710222994,
				"element": "O" 
			},
			{
				"x": -2.4458315899,
				"y": 2.9517048067,
				"z": 3.1848139118,
				"element": "C" 
			},
			{
				"x": -1.9655286711,
				"y": 1.0749247473,
				"z": 1.1191958634,
				"element": "C" 
			},
			{
				"x": -1.6864035649,
				"y": 0.1789688366,
				"z": 0.0833972886,
				"element": "C" 
			},
			{
				"x": 0.7559444429,
				"y": -6.4990566815,
				"z": -1.9339701516,
				"element": "H" 
			},
			{
				"x": 1.4018267642,
				"y": -6.3807471397,
				"z": -0.2632606215,
				"element": "H" 
			},
			{
				"x": 2.1248122792,
				"y": -5.4148414781,
				"z": -1.5940917117,
				"element": "H" 
			},
			{
				"x": -0.8725370402,
				"y": -1.9384621917,
				"z": -3.2615094377,
				"element": "H" 
			},
			{
				"x": -2.1764398115,
				"y": -1.2922633473,
				"z": -2.2075480133,
				"element": "H" 
			},
			{
				"x": 1.2532562206,
				"y": 1.4738031001,
				"z": -0.9967539186,
				"element": "H" 
			},
			{
				"x": 2.5400721782,
				"y": 4.4315109132,
				"z": 0.6706082762,
				"element": "H" 
			},
			{
				"x": 1.8675313606,
				"y": 3.7264865098,
				"z": -0.8254781223,
				"element": "H" 
			},
			{
				"x": 2.7482355774,
				"y": 2.6905887443,
				"z": 0.3333385564,
				"element": "H" 
			},
			{
				"x": -3.3639041583,
				"y": 3.0390248434,
				"z": 2.5904335577,
				"element": "H" 
			},
			{
				"x": -2.4645504612,
				"y": 2.006132898,
				"z": 3.7408225169,
				"element": "H" 
			},
			{
				"x": -2.3909607371,
				"y": 3.7832372715,
				"z": 3.8884025421,
				"element": "H" 
			},
			{
				"x": -2.8638119088,
				"y": 0.938731545,
				"z": 1.7088403436,
				"element": "H" 
			},
			{
				"x": -2.3615038596,
				"y": -0.6513693113,
				"z": -0.0863665452,
				"element": "H" 
			}
		],
		 "valence_orbital": [ 
			{
				"type": "occ",
				"energy": -0.31424,
				"method": "rhf"
			},
			{
				"type": "occ",
				"energy": -0.25943,
				"method": "rhf"
			},
			{
				"type": "occ",
				"energy": -0.24878,
				"method": "rhf"
			},
			{
				"type": "occ",
				"energy": -0.24538,
				"method": "rhf"
			},
			{
				"type": "occ",
				"energy": -0.21464,
				"method": "rhf"
			},
			{
				"type": "unocc",
				"energy": -0.07866,
				"method": "rhf"
			},
			{
				"type": "unocc",
				"energy": -0.04847,
				"method": "rhf"
			},
			{
				"type": "unocc",
				"energy": 0.00327,
				"method": "rhf"
			},
			{
				"type": "unocc",
				"energy": 0.04059,
				"method": "rhf"
			},
			{
				"type": "unocc",
				"energy": 0.06019,
				"method": "rhf"
			}
		],
		"cosmo_sigma_profile": { 
			"-0.025": 0.0,
			"-0.024": 0.0,
			"-0.023": 0.0,
			"-0.022": 0.0,
			"-0.021": 0.0,
			"-0.02": 0.0,
			"-0.019": 0.0,
			"-0.018": 0.0,
			"-0.017": 0.0,
			"-0.016": 0.0,
			"-0.015": 0.0,
			"-0.014": 0.0,
			"-0.013": 0.0,
			"-0.012": 0.0,
			"-0.011": 0.0,
			"-0.01": 0.0,
			"-0.009": 0.278957633324,
			"-0.008": 2.36096508957,
			"-0.007": 12.429394311,
			"-0.006": 28.3763672636,
			"-0.005": 36.1251262436,
			"-0.004": 34.5288625472,
			"-0.003": 26.7225195145,
			"-0.002": 16.070936081,
			"-0.001": 10.6926877707,
			"0.0": 11.8404520274,
			"0.001": 15.1498539336,
			"0.002": 17.6133561947,
			"0.003": 17.0664183283,
			"0.004": 12.5038207427,
			"0.005": 8.23940299047,
			"0.006": 7.24060761814,
			"0.007": 7.63354343055,
			"0.008": 8.71577972148,
			"0.009": 8.67826734607,
			"0.01": 10.4212016284,
			"0.011": 9.02708112116,
			"0.012": 3.72006663616,
			"0.013": 1.88390292479,
			"0.014": 0.718822661514,
			"0.015": 0.000778336020594,
			"0.016": 0.0,
			"0.017": 0.0,
			"0.018": 0.0,
			"0.019": 0.0,
			"0.02": 0.0,
			"0.021": 0.0,
			"0.022": 0.0,
			"0.023": 0.0,
			"0.024": 0.0,
			"0.025": 0.0
		}
	}
}
