{
	 "smiles": "C1SC2=NN=C(N2CN1C1=NC=CC=C1)C1=CC=CC=C1", 
	 "Tm": 497.15, 
	 "num_atms": 34, 
	 "gaussian": { 
		 "optdone": 1, 
		 "sigma_profile": "yes", 
		 "theory": "DFT", 
		 "functional": "B3LYP", 
		 "basiset": "6-31G**", 
		 "properties": { 
			 "R2extent": 6977.4188, 
			 "electric_dipole_moment_norm": 6.85595473001, 
			 "electric_quadrupole_moment_norm": 23.787125789, 
			 "total_energy": -1251.34235198, 
			 "HOMO_LUMO_gap": 0.17672, 
			 "cosmo_polarized_energy": -23.05, 
			 "cosmo_cavitation_energy": 38.86, 
			 "cosmo_dispersion_energy": -27.99, 
			 "cosmo_repulsion_energy": 2.06, 
			 "cosmo_total_nonelectrostatic_energy": 12.93, 
			 "SMD_solvation_energy": 1.51 
		},
		"coords": [
			{
				"x": -1.0806391475,
				"y": 1.5349810671,
				"z": 3.074404021,
				"element": "C" 
			},
			{
				"x": -2.2733720362,
				"y": 2.5744109799,
				"z": 2.0534515937,
				"element": "S" 
			},
			{
				"x": -1.3928529774,
				"y": 2.537772342,
				"z": 0.5255749118,
				"element": "C" 
			},
			{
				"x": -1.8344979489,
				"y": 3.0699381825,
				"z": -0.5912904706,
				"element": "N" 
			},
			{
				"x": -0.9069964403,
				"y": 2.7862010734,
				"z": -1.5688247794,
				"element": "N" 
			},
			{
				"x": 0.0702759653,
				"y": 2.0896082711,
				"z": -1.0268670692,
				"element": "C" 
			},
			{
				"x": -0.1902880462,
				"y": 1.8992345558,
				"z": 0.3228485537,
				"element": "N" 
			},
			{
				"x": 0.5175116931,
				"y": 1.1040144306,
				"z": 1.3390621062,
				"element": "C" 
			},
			{
				"x": -0.3981108491,
				"y": 0.5379725876,
				"z": 2.2930494467,
				"element": "N" 
			},
			{
				"x": -1.0641537604,
				"y": -0.680210919,
				"z": 2.0242847868,
				"element": "C" 
			},
			{
				"x": -1.9402046396,
				"y": -1.063294277,
				"z": 2.9603485118,
				"element": "N" 
			},
			{
				"x": -2.5640105947,
				"y": -2.2350141354,
				"z": 2.8094361177,
				"element": "C" 
			},
			{
				"x": -2.3510954974,
				"y": -3.0913129535,
				"z": 1.732091786,
				"element": "C" 
			},
			{
				"x": -1.450558643,
				"y": -2.6771498196,
				"z": 0.7501189713,
				"element": "C" 
			},
			{
				"x": -0.7985954698,
				"y": -1.4553807847,
				"z": 0.880245206,
				"element": "C" 
			},
			{
				"x": 1.2364976137,
				"y": 1.5812851161,
				"z": -1.7591982834,
				"element": "C" 
			},
			{
				"x": 2.5113910992,
				"y": 1.4671610397,
				"z": -1.1789866302,
				"element": "C" 
			},
			{
				"x": 3.5888477792,
				"y": 0.9889134611,
				"z": -1.9258167044,
				"element": "C" 
			},
			{
				"x": 3.4131469465,
				"y": 0.63164969,
				"z": -3.2628543087,
				"element": "C" 
			},
			{
				"x": 2.152990864,
				"y": 0.7626729002,
				"z": -3.8540037442,
				"element": "C" 
			},
			{
				"x": 1.0726940717,
				"y": 1.2300844948,
				"z": -3.1114173554,
				"element": "C" 
			},
			{
				"x": -1.6923828338,
				"y": 1.0530998837,
				"z": 3.8328652709,
				"element": "H" 
			},
			{
				"x": -0.3480821166,
				"y": 2.2008750624,
				"z": 3.5340234699,
				"element": "H" 
			},
			{
				"x": 1.0955599725,
				"y": 0.3280390794,
				"z": 0.8404711141,
				"element": "H" 
			},
			{
				"x": 1.2165777734,
				"y": 1.7508892915,
				"z": 1.8807466126,
				"element": "H" 
			},
			{
				"x": -3.2700655911,
				"y": -2.4978055473,
				"z": 3.5949995037,
				"element": "H" 
			},
			{
				"x": -2.8814288297,
				"y": -4.0342059044,
				"z": 1.6584357089,
				"element": "H" 
			},
			{
				"x": -1.2642250207,
				"y": -3.2925900191,
				"z": -0.1251253871,
				"element": "H" 
			},
			{
				"x": -0.1328530918,
				"y": -1.1170122234,
				"z": 0.0961478714,
				"element": "H" 
			},
			{
				"x": 2.6787320498,
				"y": 1.7897030836,
				"z": -0.1559479344,
				"element": "H" 
			},
			{
				"x": 4.5689318984,
				"y": 0.9105954837,
				"z": -1.4643229331,
				"element": "H" 
			},
			{
				"x": 4.2530857734,
				"y": 0.2613305917,
				"z": -3.8431489953,
				"element": "H" 
			},
			{
				"x": 2.0111495498,
				"y": 0.4947505958,
				"z": -4.8969545643,
				"element": "H" 
			},
			{
				"x": 0.090820484,
				"y": 1.3369933197,
				"z": -3.5594464045,
				"element": "H" 
			}
		],
		 "valence_orbital": [ 
			{
				"type": "occ",
				"energy": -0.2648,
				"method": "rhf"
			},
			{
				"type": "occ",
				"energy": -0.26172,
				"method": "rhf"
			},
			{
				"type": "occ",
				"energy": -0.24837,
				"method": "rhf"
			},
			{
				"type": "occ",
				"energy": -0.23423,
				"method": "rhf"
			},
			{
				"type": "occ",
				"energy": -0.21158,
				"method": "rhf"
			},
			{
				"type": "unocc",
				"energy": -0.03486,
				"method": "rhf"
			},
			{
				"type": "unocc",
				"energy": -0.03465,
				"method": "rhf"
			},
			{
				"type": "unocc",
				"energy": -0.01801,
				"method": "rhf"
			},
			{
				"type": "unocc",
				"energy": -0.01442,
				"method": "rhf"
			},
			{
				"type": "unocc",
				"energy": 0.01845,
				"method": "rhf"
			}
		],
		"cosmo_sigma_profile": { 
			"-0.025": 0.0,
			"-0.024": 0.0,
			"-0.023": 0.0,
			"-0.022": 0.0,
			"-0.021": 0.0,
			"-0.02": 0.0,
			"-0.019": 0.0,
			"-0.018": 0.0,
			"-0.017": 0.0,
			"-0.016": 0.0,
			"-0.015": 0.0,
			"-0.014": 0.0,
			"-0.013": 0.0,
			"-0.012": 0.0,
			"-0.011": 0.452619978331,
			"-0.01": 2.83146951909,
			"-0.009": 7.88682118415,
			"-0.008": 9.44445270694,
			"-0.007": 13.7759676755,
			"-0.006": 23.1441413837,
			"-0.005": 23.0399131424,
			"-0.004": 22.0348349399,
			"-0.003": 17.0519922255,
			"-0.002": 16.7014447086,
			"-0.001": 14.0570838656,
			"0.0": 16.4343462858,
			"0.001": 18.0440890245,
			"0.002": 25.9680091548,
			"0.003": 26.9632235971,
			"0.004": 22.9828353544,
			"0.005": 13.952847544,
			"0.006": 6.66621348436,
			"0.007": 6.78634524641,
			"0.008": 3.36476813513,
			"0.009": 3.06634234897,
			"0.01": 3.07123327648,
			"0.011": 2.77934208259,
			"0.012": 2.67621009237,
			"0.013": 3.40499179899,
			"0.014": 3.26327579622,
			"0.015": 2.32373373782,
			"0.016": 2.07680580399,
			"0.017": 0.506850941541,
			"0.018": 0.0,
			"0.019": 0.0,
			"0.02": 0.0,
			"0.021": 0.0,
			"0.022": 0.0,
			"0.023": 0.0,
			"0.024": 0.0,
			"0.025": 0.0
		}
	}
}
