{
	 "smiles": "N#CN=CNC1=CC=CC=C1", 
	 "Tm": 413.15, 
	 "num_atms": 18, 
	 "gaussian": { 
		 "optdone": 1, 
		 "sigma_profile": "yes", 
		 "theory": "DFT", 
		 "functional": "B3LYP", 
		 "basiset": "6-31G**", 
		 "properties": { 
			 "R2extent": 2267.2226, 
			 "electric_dipole_moment_norm": 7.13069173222, 
			 "electric_quadrupole_moment_norm": 26.0699151498, 
			 "total_energy": -473.296529197, 
			 "HOMO_LUMO_gap": 0.18268, 
			 "cosmo_polarized_energy": -19.46, 
			 "cosmo_cavitation_energy": 23.71, 
			 "cosmo_dispersion_energy": -17.09, 
			 "cosmo_repulsion_energy": 1.37, 
			 "cosmo_total_nonelectrostatic_energy": 7.98, 
			 "SMD_solvation_energy": 6.55 
		},
		"coords": [
			{
				"x": 3.5081073926,
				"y": 3.3342944639,
				"z": 0.4734972008,
				"element": "N" 
			},
			{
				"x": 2.728137262,
				"y": 2.4859240672,
				"z": 0.2749676866,
				"element": "C" 
			},
			{
				"x": 1.829816133,
				"y": 1.5058459427,
				"z": 0.1625439323,
				"element": "N" 
			},
			{
				"x": 1.4625303095,
				"y": 1.13498095,
				"z": -1.0250126285,
				"element": "C" 
			},
			{
				"x": 0.5627269588,
				"y": 0.1567491667,
				"z": -1.2727436844,
				"element": "N" 
			},
			{
				"x": -0.1758598704,
				"y": -0.6746642055,
				"z": -0.3967383256,
				"element": "C" 
			},
			{
				"x": -0.0805889404,
				"y": -0.605836325,
				"z": 1.000483445,
				"element": "C" 
			},
			{
				"x": -0.8531104954,
				"y": -1.4719392277,
				"z": 1.775655108,
				"element": "C" 
			},
			{
				"x": -1.7129822179,
				"y": -2.3990621788,
				"z": 1.1867068303,
				"element": "C" 
			},
			{
				"x": -1.8024356842,
				"y": -2.4615768312,
				"z": -0.2057227101,
				"element": "C" 
			},
			{
				"x": -1.0398843887,
				"y": -1.606027186,
				"z": -0.9942855702,
				"element": "C" 
			},
			{
				"x": 1.858775107,
				"y": 1.5924655886,
				"z": -1.93577851,
				"element": "H" 
			},
			{
				"x": 0.3873891626,
				"y": -0.009636186,
				"z": -2.2533681315,
				"element": "H" 
			},
			{
				"x": 0.5846265138,
				"y": 0.1112335048,
				"z": 1.4598937505,
				"element": "H" 
			},
			{
				"x": -0.775752259,
				"y": -1.414722992,
				"z": 2.8573672143,
				"element": "H" 
			},
			{
				"x": -2.3071546016,
				"y": -3.0657850422,
				"z": 1.8037104156,
				"element": "H" 
			},
			{
				"x": -2.4664080961,
				"y": -3.1768938558,
				"z": -0.6816217896,
				"element": "H" 
			},
			{
				"x": -1.1128322855,
				"y": -1.6583496539,
				"z": -2.0786542334,
				"element": "H" 
			}
		],
		 "valence_orbital": [ 
			{
				"type": "occ",
				"energy": -0.33732,
				"method": "rhf"
			},
			{
				"type": "occ",
				"energy": -0.28269,
				"method": "rhf"
			},
			{
				"type": "occ",
				"energy": -0.26937,
				"method": "rhf"
			},
			{
				"type": "occ",
				"energy": -0.26742,
				"method": "rhf"
			},
			{
				"type": "occ",
				"energy": -0.23364,
				"method": "rhf"
			},
			{
				"type": "unocc",
				"energy": -0.05096,
				"method": "rhf"
			},
			{
				"type": "unocc",
				"energy": -0.0178,
				"method": "rhf"
			},
			{
				"type": "unocc",
				"energy": 0.01209,
				"method": "rhf"
			},
			{
				"type": "unocc",
				"energy": 0.03876,
				"method": "rhf"
			},
			{
				"type": "unocc",
				"energy": 0.06917,
				"method": "rhf"
			}
		],
		"cosmo_sigma_profile": { 
			"-0.025": 0.0,
			"-0.024": 0.0,
			"-0.023": 0.0,
			"-0.022": 0.0,
			"-0.021": 0.0,
			"-0.02": 0.0,
			"-0.019": 0.0,
			"-0.018": 0.321661817686,
			"-0.017": 2.01651005494,
			"-0.016": 1.42135520454,
			"-0.015": 1.66754912385,
			"-0.014": 2.1148635576,
			"-0.013": 1.44219259427,
			"-0.012": 1.5915588018,
			"-0.011": 3.12318617812,
			"-0.01": 3.1409297405,
			"-0.009": 2.31816248096,
			"-0.008": 2.5433948199,
			"-0.007": 3.95569001408,
			"-0.006": 9.08010221758,
			"-0.005": 10.6176166073,
			"-0.004": 12.2337089809,
			"-0.003": 8.58679237176,
			"-0.002": 10.4577559783,
			"-0.001": 9.93621098432,
			"0.0": 10.2057015175,
			"0.001": 11.653433145,
			"0.002": 12.5307280421,
			"0.003": 14.3842246937,
			"0.004": 14.5208752287,
			"0.005": 14.253590854,
			"0.006": 3.11335183622,
			"0.007": 2.14367539664,
			"0.008": 2.10295367825,
			"0.009": 2.48853795639,
			"0.01": 2.93036250224,
			"0.011": 3.47501410563,
			"0.012": 3.70506302509,
			"0.013": 3.41661268813,
			"0.014": 2.71425264614,
			"0.015": 1.62995206726,
			"0.016": 0.0316698694964,
			"0.017": 0.0,
			"0.018": 0.0,
			"0.019": 0.0,
			"0.02": 0.0,
			"0.021": 0.0,
			"0.022": 0.0,
			"0.023": 0.0,
			"0.024": 0.0,
			"0.025": 0.0
		}
	}
}
