{
	 "smiles": "OC1=C(Cl)C=CC=C1C1=CC=CC=C1", 
	 "Tm": 279.15, 
	 "num_atms": 23, 
	 "gaussian": { 
		 "optdone": 1, 
		 "sigma_profile": "yes", 
		 "theory": "DFT", 
		 "functional": "B3LYP", 
		 "basiset": "6-31G**", 
		 "properties": { 
			 "R2extent": 3905.3235, 
			 "electric_dipole_moment_norm": 3.6032368712, 
			 "electric_quadrupole_moment_norm": 11.319730351, 
			 "total_energy": -998.119753615, 
			 "HOMO_LUMO_gap": 0.18857, 
			 "cosmo_polarized_energy": -8.39, 
			 "cosmo_cavitation_energy": 28.6, 
			 "cosmo_dispersion_energy": -21.18, 
			 "cosmo_repulsion_energy": 1.66, 
			 "cosmo_total_nonelectrostatic_energy": 9.07, 
			 "SMD_solvation_energy": 4.65 
		},
		"coords": [
			{
				"x": 1.6604790267,
				"y": -1.2228628404,
				"z": -1.8132030965,
				"element": "O" 
			},
			{
				"x": 0.737507615,
				"y": -1.6806809749,
				"z": -0.9287672163,
				"element": "C" 
			},
			{
				"x": 0.4528846256,
				"y": -3.0553380775,
				"z": -0.9286733796,
				"element": "C" 
			},
			{
				"x": 1.2767251516,
				"y": -4.0991197367,
				"z": -2.0699650891,
				"element": "Cl" 
			},
			{
				"x": -0.4622142147,
				"y": -3.6011520332,
				"z": -0.0326790871,
				"element": "C" 
			},
			{
				"x": -1.1056126335,
				"y": -2.7748071505,
				"z": 0.8883636503,
				"element": "C" 
			},
			{
				"x": -0.8334971378,
				"y": -1.4091228647,
				"z": 0.8975471776,
				"element": "C" 
			},
			{
				"x": 0.0745187474,
				"y": -0.8397089123,
				"z": -0.0062990337,
				"element": "C" 
			},
			{
				"x": 0.3521375861,
				"y": 0.6234681766,
				"z": 0.0192385484,
				"element": "C" 
			},
			{
				"x": 0.6892826771,
				"y": 1.2626756205,
				"z": 1.2249503845,
				"element": "C" 
			},
			{
				"x": 0.9308695514,
				"y": 2.6349607632,
				"z": 1.2632145801,
				"element": "C" 
			},
			{
				"x": 0.849753809,
				"y": 3.3976503537,
				"z": 0.095573729,
				"element": "C" 
			},
			{
				"x": 0.5168084645,
				"y": 2.7785614058,
				"z": -1.1095203131,
				"element": "C" 
			},
			{
				"x": 0.2672154773,
				"y": 1.4051934841,
				"z": -1.1487340271,
				"element": "C" 
			},
			{
				"x": 1.8229201662,
				"y": -0.2845513012,
				"z": -1.6335287585,
				"element": "H" 
			},
			{
				"x": -0.6594668698,
				"y": -4.6670978537,
				"z": -0.0630831803,
				"element": "H" 
			},
			{
				"x": -1.8206211033,
				"y": -3.1963406545,
				"z": 1.5873507162,
				"element": "H" 
			},
			{
				"x": -1.3449082268,
				"y": -0.7564405055,
				"z": 1.5985963418,
				"element": "H" 
			},
			{
				"x": 0.7722858378,
				"y": 0.670553667,
				"z": 2.1315742011,
				"element": "H" 
			},
			{
				"x": 1.1915869608,
				"y": 3.1088869663,
				"z": 2.2052532783,
				"element": "H" 
			},
			{
				"x": 1.0426288426,
				"y": 4.4659003127,
				"z": 0.126209063,
				"element": "H" 
			},
			{
				"x": 0.4379423697,
				"y": 3.3646161723,
				"z": -2.0206610648,
				"element": "H" 
			},
			{
				"x": -0.0310267232,
				"y": 0.9398559827,
				"z": -2.0845574241,
				"element": "H" 
			}
		],
		 "valence_orbital": [ 
			{
				"type": "occ",
				"energy": -0.30216,
				"method": "rhf"
			},
			{
				"type": "occ",
				"energy": -0.27562,
				"method": "rhf"
			},
			{
				"type": "occ",
				"energy": -0.26505,
				"method": "rhf"
			},
			{
				"type": "occ",
				"energy": -0.23791,
				"method": "rhf"
			},
			{
				"type": "occ",
				"energy": -0.22269,
				"method": "rhf"
			},
			{
				"type": "unocc",
				"energy": -0.03412,
				"method": "rhf"
			},
			{
				"type": "unocc",
				"energy": -0.01896,
				"method": "rhf"
			},
			{
				"type": "unocc",
				"energy": -0.00106,
				"method": "rhf"
			},
			{
				"type": "unocc",
				"energy": 0.01223,
				"method": "rhf"
			},
			{
				"type": "unocc",
				"energy": 0.038,
				"method": "rhf"
			}
		],
		"cosmo_sigma_profile": { 
			"-0.025": 0.0,
			"-0.024": 0.0,
			"-0.023": 0.0,
			"-0.022": 0.0,
			"-0.021": 0.0,
			"-0.02": 0.0,
			"-0.019": 0.0,
			"-0.018": 0.0,
			"-0.017": 0.0,
			"-0.016": 0.0,
			"-0.015": 0.0,
			"-0.014": 0.359242381144,
			"-0.013": 0.709241915093,
			"-0.012": 0.317862928537,
			"-0.011": 0.927633802384,
			"-0.01": 0.961047590087,
			"-0.009": 0.786117407453,
			"-0.008": 0.956974760779,
			"-0.007": 2.85068400203,
			"-0.006": 15.2053015587,
			"-0.005": 18.3630078347,
			"-0.004": 20.0327678361,
			"-0.003": 14.775976077,
			"-0.002": 13.741334779,
			"-0.001": 12.5731333978,
			"0.0": 13.613585174,
			"0.001": 17.3958186608,
			"0.002": 22.5600153055,
			"0.003": 21.0999953745,
			"0.004": 24.1285918649,
			"0.005": 17.6043743493,
			"0.006": 2.95387157879,
			"0.007": 1.93466574198,
			"0.008": 2.4221578018,
			"0.009": 1.60726349715,
			"0.01": 2.07069223067,
			"0.011": 1.83624957642,
			"0.012": 0.0952481243168,
			"0.013": 0.0,
			"0.014": 0.0,
			"0.015": 0.0,
			"0.016": 0.0,
			"0.017": 0.0,
			"0.018": 0.0,
			"0.019": 0.0,
			"0.02": 0.0,
			"0.021": 0.0,
			"0.022": 0.0,
			"0.023": 0.0,
			"0.024": 0.0,
			"0.025": 0.0
		}
	}
}
