{
	 "smiles": "O=C(CCC#N)C1=CC=CO1", 
	 "Tm": 355.15, 
	 "num_atms": 18, 
	 "gaussian": { 
		 "optdone": 1, 
		 "sigma_profile": "yes", 
		 "theory": "DFT", 
		 "functional": "B3LYP", 
		 "basiset": "6-31G**", 
		 "properties": { 
			 "R2extent": 2653.6847, 
			 "electric_dipole_moment_norm": 5.87012103282, 
			 "electric_quadrupole_moment_norm": 14.6719137794, 
			 "total_energy": -514.224716888, 
			 "HOMO_LUMO_gap": 0.18668, 
			 "cosmo_polarized_energy": -14.84, 
			 "cosmo_cavitation_energy": 24.11, 
			 "cosmo_dispersion_energy": -16.78, 
			 "cosmo_repulsion_energy": 1.37, 
			 "cosmo_total_nonelectrostatic_energy": 8.7, 
			 "SMD_solvation_energy": 7.03 
		},
		"coords": [
			{
				"x": 0.4096435787,
				"y": -1.4733599,
				"z": -0.5710018202,
				"element": "O" 
			},
			{
				"x": -0.5400648798,
				"y": -0.9111401287,
				"z": -1.0994358308,
				"element": "C" 
			},
			{
				"x": -1.8752327106,
				"y": -1.6206792367,
				"z": -1.3209233616,
				"element": "C" 
			},
			{
				"x": -1.9735414311,
				"y": -2.9251491978,
				"z": -0.5124507379,
				"element": "C" 
			},
			{
				"x": -2.2146077012,
				"y": -2.6889551542,
				"z": 0.9141906114,
				"element": "C" 
			},
			{
				"x": -2.4267767917,
				"y": -2.4918322027,
				"z": 2.0379965386,
				"element": "N" 
			},
			{
				"x": -0.4181814663,
				"y": 0.4681486667,
				"z": -1.572289651,
				"element": "C" 
			},
			{
				"x": 0.6374945516,
				"y": 1.3447844728,
				"z": -1.5482089719,
				"element": "C" 
			},
			{
				"x": 0.178303428,
				"y": 2.549317231,
				"z": -2.1512085378,
				"element": "C" 
			},
			{
				"x": -1.1242744623,
				"y": 2.3241245472,
				"z": -2.5018680045,
				"element": "C" 
			},
			{
				"x": -1.5055198622,
				"y": 1.070127386,
				"z": -2.1606909127,
				"element": "O" 
			},
			{
				"x": -2.7056154056,
				"y": -0.9449148362,
				"z": -1.0965449353,
				"element": "H" 
			},
			{
				"x": -1.9539484424,
				"y": -1.8520826135,
				"z": -2.3913613745,
				"element": "H" 
			},
			{
				"x": -1.0389708701,
				"y": -3.4853397515,
				"z": -0.6141380842,
				"element": "H" 
			},
			{
				"x": -2.788034534,
				"y": -3.5468258897,
				"z": -0.8984382604,
				"element": "H" 
			},
			{
				"x": 1.6143323485,
				"y": 1.1311489144,
				"z": -1.1405797882,
				"element": "H" 
			},
			{
				"x": 0.7346205011,
				"y": 3.4626021924,
				"z": -2.3040673236,
				"element": "H" 
			},
			{
				"x": -1.8772258507,
				"y": 2.9332255004,
				"z": -2.9786795552,
				"element": "H" 
			}
		],
		 "valence_orbital": [ 
			{
				"type": "occ",
				"energy": -0.319,
				"method": "rhf"
			},
			{
				"type": "occ",
				"energy": -0.31625,
				"method": "rhf"
			},
			{
				"type": "occ",
				"energy": -0.30281,
				"method": "rhf"
			},
			{
				"type": "occ",
				"energy": -0.26705,
				"method": "rhf"
			},
			{
				"type": "occ",
				"energy": -0.25244,
				"method": "rhf"
			},
			{
				"type": "unocc",
				"energy": -0.06576,
				"method": "rhf"
			},
			{
				"type": "unocc",
				"energy": 0.02241,
				"method": "rhf"
			},
			{
				"type": "unocc",
				"energy": 0.03734,
				"method": "rhf"
			},
			{
				"type": "unocc",
				"energy": 0.04661,
				"method": "rhf"
			},
			{
				"type": "unocc",
				"energy": 0.08088,
				"method": "rhf"
			}
		],
		"cosmo_sigma_profile": { 
			"-0.025": 0.0,
			"-0.024": 0.0,
			"-0.023": 0.0,
			"-0.022": 0.0,
			"-0.021": 0.0,
			"-0.02": 0.0,
			"-0.019": 0.0,
			"-0.018": 0.0,
			"-0.017": 0.0,
			"-0.016": 0.0,
			"-0.015": 0.0,
			"-0.014": 0.0,
			"-0.013": 0.0,
			"-0.012": 0.0,
			"-0.011": 0.0,
			"-0.01": 1.50342592552,
			"-0.009": 3.13354415386,
			"-0.008": 9.55793338007,
			"-0.007": 13.9505346906,
			"-0.006": 16.1386787065,
			"-0.005": 15.2078114712,
			"-0.004": 11.107751913,
			"-0.003": 8.92594091462,
			"-0.002": 8.70276887192,
			"-0.001": 8.94589324722,
			"0.0": 9.58864688535,
			"0.001": 13.2294165033,
			"0.002": 13.6400243836,
			"0.003": 9.67914814061,
			"0.004": 6.62168998256,
			"0.005": 5.39700793635,
			"0.006": 4.91720523224,
			"0.007": 4.39972973143,
			"0.008": 4.86722360943,
			"0.009": 5.07150491047,
			"0.01": 5.33582815848,
			"0.011": 6.3209294393,
			"0.012": 5.20059167547,
			"0.013": 2.25823995945,
			"0.014": 0.332124287471,
			"0.015": 0.0,
			"0.016": 0.0,
			"0.017": 0.0,
			"0.018": 0.0,
			"0.019": 0.0,
			"0.02": 0.0,
			"0.021": 0.0,
			"0.022": 0.0,
			"0.023": 0.0,
			"0.024": 0.0,
			"0.025": 0.0
		}
	}
}
