{
	 "smiles": "CCCN(CCC)C(=O)C1=CC(=CC=C1)C(O)=O", 
	 "Tm": 368.15, 
	 "num_atms": 37, 
	 "gaussian": { 
		 "optdone": 1, 
		 "sigma_profile": "yes", 
		 "theory": "DFT", 
		 "functional": "B3LYP", 
		 "basiset": "6-31G**", 
		 "properties": { 
			 "R2extent": 5927.115, 
			 "electric_dipole_moment_norm": 4.01160210639, 
			 "electric_quadrupole_moment_norm": 25.8130974652, 
			 "total_energy": -825.397564809, 
			 "HOMO_LUMO_gap": 0.18903, 
			 "cosmo_polarized_energy": -19.18, 
			 "cosmo_cavitation_energy": 39.67, 
			 "cosmo_dispersion_energy": -26.17, 
			 "cosmo_repulsion_energy": 2.06, 
			 "cosmo_total_nonelectrostatic_energy": 15.56, 
			 "SMD_solvation_energy": 8.52 
		},
		"coords": [
			{
				"x": -2.7388472238,
				"y": 1.9772314548,
				"z": 1.7745008179,
				"element": "C" 
			},
			{
				"x": -2.9587827547,
				"y": 0.4619250745,
				"z": 1.769399293,
				"element": "C" 
			},
			{
				"x": -2.3449189463,
				"y": -0.2495130292,
				"z": 0.5545346793,
				"element": "C" 
			},
			{
				"x": -0.886188915,
				"y": -0.0902360856,
				"z": 0.4530434503,
				"element": "N" 
			},
			{
				"x": -0.0683786001,
				"y": -0.7103979678,
				"z": 1.5043939092,
				"element": "C" 
			},
			{
				"x": -0.2191809677,
				"y": -2.2392465568,
				"z": 1.6087118602,
				"element": "C" 
			},
			{
				"x": 0.1488474857,
				"y": -2.9857991281,
				"z": 0.323625239,
				"element": "C" 
			},
			{
				"x": -0.3807958988,
				"y": 0.3580561228,
				"z": -0.7493873718,
				"element": "C" 
			},
			{
				"x": -1.0813101419,
				"y": 0.5296659576,
				"z": -1.7452556107,
				"element": "O" 
			},
			{
				"x": 1.0851399326,
				"y": 0.7119535308,
				"z": -0.840856719,
				"element": "C" 
			},
			{
				"x": 1.7073503688,
				"y": 1.5758413008,
				"z": 0.0675339413,
				"element": "C" 
			},
			{
				"x": 3.0383577663,
				"y": 1.9727606962,
				"z": -0.1205672527,
				"element": "C" 
			},
			{
				"x": 3.7605306622,
				"y": 1.4729425816,
				"z": -1.2119164525,
				"element": "C" 
			},
			{
				"x": 3.1379952181,
				"y": 0.6331315275,
				"z": -2.1327024928,
				"element": "C" 
			},
			{
				"x": 1.8019943883,
				"y": 0.2704850553,
				"z": -1.9602943828,
				"element": "C" 
			},
			{
				"x": 3.7495376901,
				"y": 2.8909152728,
				"z": 0.8284269497,
				"element": "C" 
			},
			{
				"x": 2.9693620063,
				"y": 3.7175348972,
				"z": 1.5766689646,
				"element": "O" 
			},
			{
				"x": 4.9512144544,
				"y": 2.9182014894,
				"z": 0.9503422009,
				"element": "O" 
			},
			{
				"x": -3.219348359,
				"y": 2.4429981336,
				"z": 2.6405192448,
				"element": "H" 
			},
			{
				"x": -1.6727090389,
				"y": 2.2240936302,
				"z": 1.8122789528,
				"element": "H" 
			},
			{
				"x": -3.1516917205,
				"y": 2.4385729826,
				"z": 0.8708689267,
				"element": "H" 
			},
			{
				"x": -4.0340837806,
				"y": 0.2441754977,
				"z": 1.7569180844,
				"element": "H" 
			},
			{
				"x": -2.5790345379,
				"y": 0.0259374171,
				"z": 2.7023624054,
				"element": "H" 
			},
			{
				"x": -2.5994220516,
				"y": -1.3165192059,
				"z": 0.5826552945,
				"element": "H" 
			},
			{
				"x": -2.7589145149,
				"y": 0.1522033871,
				"z": -0.3710346978,
				"element": "H" 
			},
			{
				"x": -0.3187245545,
				"y": -0.253249689,
				"z": 2.4694790473,
				"element": "H" 
			},
			{
				"x": 0.9774885044,
				"y": -0.4777529436,
				"z": 1.3057694733,
				"element": "H" 
			},
			{
				"x": -1.2391440708,
				"y": -2.5000079689,
				"z": 1.9149636934,
				"element": "H" 
			},
			{
				"x": 0.431559117,
				"y": -2.565698435,
				"z": 2.4297828128,
				"element": "H" 
			},
			{
				"x": 0.0697783651,
				"y": -4.0682011568,
				"z": 0.4637554047,
				"element": "H" 
			},
			{
				"x": 1.1772035108,
				"y": -2.7636899031,
				"z": 0.0169806455,
				"element": "H" 
			},
			{
				"x": -0.5116448435,
				"y": -2.7092331835,
				"z": -0.504525586,
				"element": "H" 
			},
			{
				"x": 1.1473804434,
				"y": 1.915617949,
				"z": 0.9353333984,
				"element": "H" 
			},
			{
				"x": 4.7991480938,
				"y": 1.7650813699,
				"z": -1.3230213159,
				"element": "H" 
			},
			{
				"x": 3.6913702398,
				"y": 0.2661583374,
				"z": -2.9917585632,
				"element": "H" 
			},
			{
				"x": 1.2979813199,
				"y": -0.3554237296,
				"z": -2.6893472802,
				"element": "H" 
			},
			{
				"x": 2.0621813539,
				"y": 3.7128853167,
				"z": 1.2408190361,
				"element": "H" 
			}
		],
		 "valence_orbital": [ 
			{
				"type": "occ",
				"energy": -0.28626,
				"method": "rhf"
			},
			{
				"type": "occ",
				"energy": -0.27617,
				"method": "rhf"
			},
			{
				"type": "occ",
				"energy": -0.26983,
				"method": "rhf"
			},
			{
				"type": "occ",
				"energy": -0.25174,
				"method": "rhf"
			},
			{
				"type": "occ",
				"energy": -0.24452,
				"method": "rhf"
			},
			{
				"type": "unocc",
				"energy": -0.05549,
				"method": "rhf"
			},
			{
				"type": "unocc",
				"energy": -0.03973,
				"method": "rhf"
			},
			{
				"type": "unocc",
				"energy": 0.02489,
				"method": "rhf"
			},
			{
				"type": "unocc",
				"energy": 0.04447,
				"method": "rhf"
			},
			{
				"type": "unocc",
				"energy": 0.05248,
				"method": "rhf"
			}
		],
		"cosmo_sigma_profile": { 
			"-0.025": 0.0,
			"-0.024": 0.0,
			"-0.023": 0.0,
			"-0.022": 0.0,
			"-0.021": 0.0,
			"-0.02": 0.0,
			"-0.019": 0.275631265683,
			"-0.018": 0.840628240717,
			"-0.017": 1.39599211002,
			"-0.016": 0.458016780454,
			"-0.015": 0.502675659943,
			"-0.014": 1.10995827167,
			"-0.013": 1.62749970615,
			"-0.012": 0.925035325567,
			"-0.011": 1.2973687812,
			"-0.01": 1.00710590539,
			"-0.009": 0.879974487675,
			"-0.008": 1.11496805002,
			"-0.007": 4.80635037019,
			"-0.006": 7.6985620629,
			"-0.005": 11.0572902988,
			"-0.004": 20.7689977375,
			"-0.003": 37.7916599936,
			"-0.002": 40.7659335829,
			"-0.001": 36.6005074964,
			"0.0": 33.128339584,
			"0.001": 26.8351741019,
			"0.002": 17.1938910807,
			"0.003": 10.0366663938,
			"0.004": 3.71308257161,
			"0.005": 3.45462665736,
			"0.006": 5.12191523426,
			"0.007": 3.56157994637,
			"0.008": 4.08958059624,
			"0.009": 5.6370491008,
			"0.01": 5.46501615783,
			"0.011": 7.05926306787,
			"0.012": 6.53907921903,
			"0.013": 5.31649904662,
			"0.014": 3.36756875339,
			"0.015": 0.37791178135,
			"0.016": 0.0,
			"0.017": 0.0,
			"0.018": 0.0,
			"0.019": 0.0,
			"0.02": 0.0,
			"0.021": 0.0,
			"0.022": 0.0,
			"0.023": 0.0,
			"0.024": 0.0,
			"0.025": 0.0
		}
	}
}
