{
	 "smiles": "CCOP(=O)(N1CC2=C(C[C@@H]1C(=O)NO)C=CC=C2)C1=CC=C(OC)C=C1", 
	 "Tm": 440.25, 
	 "num_atms": 50, 
	 "gaussian": { 
		 "optdone": 1, 
		 "sigma_profile": "yes", 
		 "theory": "DFT", 
		 "functional": "B3LYP", 
		 "basiset": "6-31G**", 
		 "properties": { 
			 "R2extent": 11158.6744, 
			 "electric_dipole_moment_norm": 5.10925354724, 
			 "electric_quadrupole_moment_norm": 32.2475630844, 
			 "total_energy": -1564.84549877, 
			 "HOMO_LUMO_gap": 0.20766, 
			 "cosmo_polarized_energy": -24.34, 
			 "cosmo_cavitation_energy": 52.46, 
			 "cosmo_dispersion_energy": -35.16, 
			 "cosmo_repulsion_energy": 2.65, 
			 "cosmo_total_nonelectrostatic_energy": 19.95, 
			 "SMD_solvation_energy": 11.01 
		},
		"coords": [
			{
				"x": 3.8387332935,
				"y": -2.7194011508,
				"z": 1.1015449815,
				"element": "C" 
			},
			{
				"x": 2.3253278512,
				"y": -2.6000539263,
				"z": 1.1002736385,
				"element": "C" 
			},
			{
				"x": 1.9643056154,
				"y": -1.354376758,
				"z": 0.4494970342,
				"element": "O" 
			},
			{
				"x": 0.7195117041,
				"y": -0.4635867134,
				"z": 1.0105550004,
				"element": "P" 
			},
			{
				"x": 0.4170121837,
				"y": -0.639413209,
				"z": 2.4591009458,
				"element": "O" 
			},
			{
				"x": -0.5618457246,
				"y": -0.8413681833,
				"z": -0.0626073553,
				"element": "N" 
			},
			{
				"x": -0.3550333867,
				"y": -1.9982298006,
				"z": -0.9606232083,
				"element": "C" 
			},
			{
				"x": -1.411696036,
				"y": -2.1252364157,
				"z": -2.0362838627,
				"element": "C" 
			},
			{
				"x": -2.6643589914,
				"y": -1.5185676588,
				"z": -1.894636521,
				"element": "C" 
			},
			{
				"x": -2.9491945342,
				"y": -0.6315611804,
				"z": -0.7062594158,
				"element": "C" 
			},
			{
				"x": -1.9537145292,
				"y": -0.8276059236,
				"z": 0.4591299925,
				"element": "C" 
			},
			{
				"x": -2.2897057717,
				"y": 0.20645509,
				"z": 1.5427875199,
				"element": "C" 
			},
			{
				"x": -2.9309225536,
				"y": -0.1033583688,
				"z": 2.5315643111,
				"element": "O" 
			},
			{
				"x": -1.8726485533,
				"y": 1.5177001203,
				"z": 1.3769342427,
				"element": "N" 
			},
			{
				"x": -1.7329087334,
				"y": 2.0515068699,
				"z": 0.0833801741,
				"element": "O" 
			},
			{
				"x": -3.6337262928,
				"y": -1.712357033,
				"z": -2.8887375882,
				"element": "C" 
			},
			{
				"x": -3.3670519591,
				"y": -2.4970485807,
				"z": -4.0075555271,
				"element": "C" 
			},
			{
				"x": -2.1144178835,
				"y": -3.101321788,
				"z": -4.1474846082,
				"element": "C" 
			},
			{
				"x": -1.1465315925,
				"y": -2.9129997988,
				"z": -3.1645859307,
				"element": "C" 
			},
			{
				"x": 1.2934249242,
				"y": 1.1982013483,
				"z": 0.5822802461,
				"element": "C" 
			},
			{
				"x": 1.6604725883,
				"y": 2.0647953858,
				"z": 1.6188770596,
				"element": "C" 
			},
			{
				"x": 2.1616327413,
				"y": 3.3390729543,
				"z": 1.3497114442,
				"element": "C" 
			},
			{
				"x": 2.3025233702,
				"y": 3.7618028304,
				"z": 0.0205498792,
				"element": "C" 
			},
			{
				"x": 2.7770954833,
				"y": 4.9770740895,
				"z": -0.357854826,
				"element": "O" 
			},
			{
				"x": 3.1700432561,
				"y": 5.8976558925,
				"z": 0.6518990455,
				"element": "C" 
			},
			{
				"x": 1.9303777732,
				"y": 2.9029680928,
				"z": -1.0285319781,
				"element": "C" 
			},
			{
				"x": 1.4331681875,
				"y": 1.6369768625,
				"z": -0.7489779256,
				"element": "C" 
			},
			{
				"x": 4.1362076739,
				"y": -3.6738482213,
				"z": 1.5485384787,
				"element": "H" 
			},
			{
				"x": 4.2346551788,
				"y": -2.6773508753,
				"z": 0.0826419455,
				"element": "H" 
			},
			{
				"x": 4.2897601296,
				"y": -1.909436825,
				"z": 1.6813647528,
				"element": "H" 
			},
			{
				"x": 1.9204562228,
				"y": -2.6029659534,
				"z": 2.1161467934,
				"element": "H" 
			},
			{
				"x": 1.8664942129,
				"y": -3.4226409241,
				"z": 0.5386017617,
				"element": "H" 
			},
			{
				"x": -0.3441376299,
				"y": -2.9385521827,
				"z": -0.3804215093,
				"element": "H" 
			},
			{
				"x": 0.6284184548,
				"y": -1.9057943731,
				"z": -1.423821666,
				"element": "H" 
			},
			{
				"x": -3.9594848935,
				"y": -0.8202058297,
				"z": -0.3248003625,
				"element": "H" 
			},
			{
				"x": -2.9107113756,
				"y": 0.4158993295,
				"z": -1.020896664,
				"element": "H" 
			},
			{
				"x": -2.1640258759,
				"y": -1.7856499514,
				"z": 0.9528399658,
				"element": "H" 
			},
			{
				"x": -2.345657779,
				"y": 2.1678390119,
				"z": 1.9973625258,
				"element": "H" 
			},
			{
				"x": -0.770706592,
				"y": 2.1291080393,
				"z": -0.039467227,
				"element": "H" 
			},
			{
				"x": -4.6069381133,
				"y": -1.2397522563,
				"z": -2.7777639401,
				"element": "H" 
			},
			{
				"x": -4.1306970548,
				"y": -2.6380229198,
				"z": -4.7670905593,
				"element": "H" 
			},
			{
				"x": -1.8940673686,
				"y": -3.7119737616,
				"z": -5.0182936416,
				"element": "H" 
			},
			{
				"x": -0.1703633587,
				"y": -3.3818512616,
				"z": -3.2701103093,
				"element": "H" 
			},
			{
				"x": 1.5410041081,
				"y": 1.7341405885,
				"z": 2.6456731304,
				"element": "H" 
			},
			{
				"x": 2.4322525167,
				"y": 3.9885610292,
				"z": 2.1734683936,
				"element": "H" 
			},
			{
				"x": 3.9876494625,
				"y": 5.4985174008,
				"z": 1.2646873795,
				"element": "H" 
			},
			{
				"x": 2.3284059899,
				"y": 6.165553023,
				"z": 1.3025203628,
				"element": "H" 
			},
			{
				"x": 3.5159067726,
				"y": 6.7883824559,
				"z": 0.1261101127,
				"element": "H" 
			},
			{
				"x": 2.0406920863,
				"y": 3.2544744103,
				"z": -2.0489862836,
				"element": "H" 
			},
			{
				"x": 1.1404148025,
				"y": 0.985647,
				"z": -1.5669502081,
				"element": "H" 
			}
		],
		 "valence_orbital": [ 
			{
				"type": "occ",
				"energy": -0.24881,
				"method": "rhf"
			},
			{
				"type": "occ",
				"energy": -0.24162,
				"method": "rhf"
			},
			{
				"type": "occ",
				"energy": -0.24098,
				"method": "rhf"
			},
			{
				"type": "occ",
				"energy": -0.2374,
				"method": "rhf"
			},
			{
				"type": "occ",
				"energy": -0.23076,
				"method": "rhf"
			},
			{
				"type": "unocc",
				"energy": -0.0231,
				"method": "rhf"
			},
			{
				"type": "unocc",
				"energy": -0.02002,
				"method": "rhf"
			},
			{
				"type": "unocc",
				"energy": -0.0045,
				"method": "rhf"
			},
			{
				"type": "unocc",
				"energy": 0.00202,
				"method": "rhf"
			},
			{
				"type": "unocc",
				"energy": 0.01226,
				"method": "rhf"
			}
		],
		"cosmo_sigma_profile": { 
			"-0.025": 0.0,
			"-0.024": 0.0,
			"-0.023": 0.0,
			"-0.022": 0.0,
			"-0.021": 0.0,
			"-0.02": 0.0,
			"-0.019": 0.0,
			"-0.018": 0.0,
			"-0.017": 0.0,
			"-0.016": 0.0,
			"-0.015": 0.319519425909,
			"-0.014": 1.05184010328,
			"-0.013": 1.21594251085,
			"-0.012": 0.998283396474,
			"-0.011": 0.531267772431,
			"-0.01": 0.440411915757,
			"-0.009": 0.775516637023,
			"-0.008": 1.53098059641,
			"-0.007": 5.89939080021,
			"-0.006": 22.1055764783,
			"-0.005": 42.6342044894,
			"-0.004": 46.3001292909,
			"-0.003": 44.3595687731,
			"-0.002": 31.3461849871,
			"-0.001": 26.9138885806,
			"0.0": 25.2461185027,
			"0.001": 23.0448659981,
			"0.002": 20.175103583,
			"0.003": 21.22872287,
			"0.004": 19.0820790685,
			"0.005": 16.9726918435,
			"0.006": 13.0890570915,
			"0.007": 7.01402432866,
			"0.008": 5.89635898412,
			"0.009": 6.53260449183,
			"0.01": 4.19661871228,
			"0.011": 4.44332463926,
			"0.012": 7.46269003208,
			"0.013": 5.9682769292,
			"0.014": 3.96611511156,
			"0.015": 2.4628459653,
			"0.016": 0.023460597581,
			"0.017": 0.0,
			"0.018": 0.0,
			"0.019": 0.0,
			"0.02": 0.0,
			"0.021": 0.0,
			"0.022": 0.0,
			"0.023": 0.0,
			"0.024": 0.0,
			"0.025": 0.0
		}
	}
}
