{
	 "smiles": "OC(=O)CC1=CC=C(OCC=C)C(Cl)=C1", 
	 "Tm": 365.15, 
	 "num_atms": 26, 
	 "gaussian": { 
		 "optdone": 1, 
		 "sigma_profile": "yes", 
		 "theory": "DFT", 
		 "functional": "B3LYP", 
		 "basiset": "6-31G**", 
		 "properties": { 
			 "R2extent": 5228.7976, 
			 "electric_dipole_moment_norm": 2.058775539, 
			 "electric_quadrupole_moment_norm": 13.9393456952, 
			 "total_energy": -1111.64356461, 
			 "HOMO_LUMO_gap": 0.20885, 
			 "cosmo_polarized_energy": -13.73, 
			 "cosmo_cavitation_energy": 32.9, 
			 "cosmo_dispersion_energy": -23.37, 
			 "cosmo_repulsion_energy": 1.85, 
			 "cosmo_total_nonelectrostatic_energy": 11.39, 
			 "SMD_solvation_energy": 7.38 
		},
		"coords": [
			{
				"x": 3.0555718039,
				"y": 4.4516793457,
				"z": -1.7294127896,
				"element": "O" 
			},
			{
				"x": 1.9953574073,
				"y": 3.8720614981,
				"z": -1.1182695489,
				"element": "C" 
			},
			{
				"x": 0.8547937276,
				"y": 4.2255835634,
				"z": -1.3177607058,
				"element": "O" 
			},
			{
				"x": 2.4418199927,
				"y": 2.7918825992,
				"z": -0.1442344609,
				"element": "C" 
			},
			{
				"x": 1.5255166369,
				"y": 1.5878554158,
				"z": -0.0849750506,
				"element": "C" 
			},
			{
				"x": 0.1779753578,
				"y": 1.7022504176,
				"z": 0.2684771057,
				"element": "C" 
			},
			{
				"x": -0.6460461893,
				"y": 0.579315328,
				"z": 0.3343500204,
				"element": "C" 
			},
			{
				"x": -0.1435132668,
				"y": -0.6979478555,
				"z": 0.0508834159,
				"element": "C" 
			},
			{
				"x": -0.8678195184,
				"y": -1.8441273313,
				"z": 0.0922908761,
				"element": "O" 
			},
			{
				"x": -2.2450994803,
				"y": -1.7742164843,
				"z": 0.4347766997,
				"element": "C" 
			},
			{
				"x": -2.8436097834,
				"y": -3.1501052389,
				"z": 0.4091797229,
				"element": "C" 
			},
			{
				"x": -2.1922527681,
				"y": -4.2713475089,
				"z": 0.1087171679,
				"element": "C" 
			},
			{
				"x": 1.2134893999,
				"y": -0.8094695293,
				"z": -0.3030477623,
				"element": "C" 
			},
			{
				"x": 1.8868125186,
				"y": -2.3865990057,
				"z": -0.666463994,
				"element": "Cl" 
			},
			{
				"x": 2.0302484131,
				"y": 0.3138811348,
				"z": -0.3704566326,
				"element": "C" 
			},
			{
				"x": 2.6909958868,
				"y": 5.1524974115,
				"z": -2.2968057876,
				"element": "H" 
			},
			{
				"x": 3.463256578,
				"y": 2.4947970058,
				"z": -0.3912075834,
				"element": "H" 
			},
			{
				"x": 2.4906687181,
				"y": 3.2829607291,
				"z": 0.8382759312,
				"element": "H" 
			},
			{
				"x": -0.2413006526,
				"y": 2.68038858,
				"z": 0.4752272816,
				"element": "H" 
			},
			{
				"x": -1.6864704846,
				"y": 0.7044724515,
				"z": 0.6085084476,
				"element": "H" 
			},
			{
				"x": -2.364641995,
				"y": -1.3305227958,
				"z": 1.4362907445,
				"element": "H" 
			},
			{
				"x": -2.7784190226,
				"y": -1.1182662117,
				"z": -0.2718087515,
				"element": "H" 
			},
			{
				"x": -3.9021028774,
				"y": -3.175872419,
				"z": 0.6653093691,
				"element": "H" 
			},
			{
				"x": -2.7007021457,
				"y": -5.230298458,
				"z": 0.1129513279,
				"element": "H" 
			},
			{
				"x": -1.1388330011,
				"y": -4.2611726261,
				"z": -0.1485344183,
				"element": "H" 
			},
			{
				"x": 3.0712047446,
				"y": 0.184019984,
				"z": -0.6490606252,
				"element": "H" 
			}
		],
		 "valence_orbital": [ 
			{
				"type": "occ",
				"energy": -0.30482,
				"method": "rhf"
			},
			{
				"type": "occ",
				"energy": -0.28263,
				"method": "rhf"
			},
			{
				"type": "occ",
				"energy": -0.26028,
				"method": "rhf"
			},
			{
				"type": "occ",
				"energy": -0.24983,
				"method": "rhf"
			},
			{
				"type": "occ",
				"energy": -0.22243,
				"method": "rhf"
			},
			{
				"type": "unocc",
				"energy": -0.01358,
				"method": "rhf"
			},
			{
				"type": "unocc",
				"energy": -0.003,
				"method": "rhf"
			},
			{
				"type": "unocc",
				"energy": 0.00864,
				"method": "rhf"
			},
			{
				"type": "unocc",
				"energy": 0.01872,
				"method": "rhf"
			},
			{
				"type": "unocc",
				"energy": 0.03356,
				"method": "rhf"
			}
		],
		"cosmo_sigma_profile": { 
			"-0.025": 0.0,
			"-0.024": 0.0,
			"-0.023": 0.0,
			"-0.022": 0.0,
			"-0.021": 0.0,
			"-0.02": 0.0,
			"-0.019": 0.0823975537087,
			"-0.018": 0.733116755099,
			"-0.017": 0.918082058825,
			"-0.016": 0.923807073489,
			"-0.015": 0.486980162293,
			"-0.014": 1.13105804476,
			"-0.013": 0.532221587037,
			"-0.012": 0.659515791632,
			"-0.011": 0.614574746959,
			"-0.01": 0.503787698154,
			"-0.009": 0.61549837265,
			"-0.008": 3.39826720309,
			"-0.007": 10.8308314126,
			"-0.006": 18.5520834377,
			"-0.005": 19.0262244905,
			"-0.004": 15.4811482789,
			"-0.003": 16.4361957483,
			"-0.002": 15.1468042199,
			"-0.001": 14.7936217112,
			"0.0": 13.1910295454,
			"0.001": 16.4659089205,
			"0.002": 20.6550933493,
			"0.003": 20.7755388002,
			"0.004": 21.0708158855,
			"0.005": 17.4535969761,
			"0.006": 10.2656608774,
			"0.007": 6.56631082672,
			"0.008": 4.22454718339,
			"0.009": 3.38464631157,
			"0.01": 2.84059079301,
			"0.011": 3.77092730388,
			"0.012": 2.51354412904,
			"0.013": 0.0200112640512,
			"0.014": 0.0,
			"0.015": 0.0,
			"0.016": 0.0,
			"0.017": 0.0,
			"0.018": 0.0,
			"0.019": 0.0,
			"0.02": 0.0,
			"0.021": 0.0,
			"0.022": 0.0,
			"0.023": 0.0,
			"0.024": 0.0,
			"0.025": 0.0
		}
	}
}
