{
	 "smiles": "OC(C(O)=O)C1=CC(Cl)=CC(Cl)=C1", 
	 "Tm": 373.15, 
	 "num_atms": 19, 
	 "gaussian": { 
		 "optdone": 1, 
		 "sigma_profile": "yes", 
		 "theory": "DFT", 
		 "functional": "B3LYP", 
		 "basiset": "6-31G**", 
		 "properties": { 
			 "R2extent": 4085.0178, 
			 "electric_dipole_moment_norm": 4.70711750544, 
			 "electric_quadrupole_moment_norm": 11.5397704449, 
			 "total_energy": -1454.52451816, 
			 "HOMO_LUMO_gap": 0.21978, 
			 "cosmo_polarized_energy": -15.82, 
			 "cosmo_cavitation_energy": 27.69, 
			 "cosmo_dispersion_energy": -20.33, 
			 "cosmo_repulsion_energy": 1.64, 
			 "cosmo_total_nonelectrostatic_energy": 9.0, 
			 "SMD_solvation_energy": 5.5 
		},
		"coords": [
			{
				"x": -0.9957952504,
				"y": 0.1546110008,
				"z": 2.320438494,
				"element": "O" 
			},
			{
				"x": 0.0259119393,
				"y": -0.2628766745,
				"z": 1.4212096452,
				"element": "C" 
			},
			{
				"x": 0.4977869335,
				"y": -1.6627952742,
				"z": 1.8826758367,
				"element": "C" 
			},
			{
				"x": -0.1359950361,
				"y": -2.1460420502,
				"z": 2.9594703273,
				"element": "O" 
			},
			{
				"x": 1.3849487641,
				"y": -2.2508680779,
				"z": 1.317096779,
				"element": "O" 
			},
			{
				"x": -0.4253604241,
				"y": -0.2850218691,
				"z": -0.0334906365,
				"element": "C" 
			},
			{
				"x": 0.5294230843,
				"y": -0.4067112929,
				"z": -1.049509112,
				"element": "C" 
			},
			{
				"x": 0.1061198524,
				"y": -0.4282317956,
				"z": -2.3754721133,
				"element": "C" 
			},
			{
				"x": 1.2963301547,
				"y": -0.5744875334,
				"z": -3.6552493124,
				"element": "Cl" 
			},
			{
				"x": -1.2428478605,
				"y": -0.3287389934,
				"z": -2.7202380894,
				"element": "C" 
			},
			{
				"x": -2.1708231709,
				"y": -0.2133462632,
				"z": -1.6884767795,
				"element": "C" 
			},
			{
				"x": -3.8759455792,
				"y": -0.0894462145,
				"z": -2.0869988301,
				"element": "Cl" 
			},
			{
				"x": -1.7826006951,
				"y": -0.1929169166,
				"z": -0.3492402596,
				"element": "C" 
			},
			{
				"x": -1.160320151,
				"y": 1.0999138698,
				"z": 2.212966386,
				"element": "H" 
			},
			{
				"x": 0.9099148448,
				"y": 0.3836147462,
				"z": 1.5123134484,
				"element": "H" 
			},
			{
				"x": -0.7859122489,
				"y": -1.4785336604,
				"z": 3.2474447856,
				"element": "H" 
			},
			{
				"x": 1.580991434,
				"y": -0.5052461118,
				"z": -0.8089556943,
				"element": "H" 
			},
			{
				"x": -1.556445026,
				"y": -0.3408206841,
				"z": -3.7564787112,
				"element": "H" 
			},
			{
				"x": -2.5238815647,
				"y": -0.1124562051,
				"z": 0.435993836,
				"element": "H" 
			}
		],
		 "valence_orbital": [ 
			{
				"type": "occ",
				"energy": -0.32105,
				"method": "rhf"
			},
			{
				"type": "occ",
				"energy": -0.31576,
				"method": "rhf"
			},
			{
				"type": "occ",
				"energy": -0.28485,
				"method": "rhf"
			},
			{
				"type": "occ",
				"energy": -0.26654,
				"method": "rhf"
			},
			{
				"type": "occ",
				"energy": -0.25881,
				"method": "rhf"
			},
			{
				"type": "unocc",
				"energy": -0.03903,
				"method": "rhf"
			},
			{
				"type": "unocc",
				"energy": -0.032,
				"method": "rhf"
			},
			{
				"type": "unocc",
				"energy": -0.00337,
				"method": "rhf"
			},
			{
				"type": "unocc",
				"energy": 0.00843,
				"method": "rhf"
			},
			{
				"type": "unocc",
				"energy": 0.03479,
				"method": "rhf"
			}
		],
		"cosmo_sigma_profile": { 
			"-0.025": 0.0,
			"-0.024": 0.0,
			"-0.023": 0.0,
			"-0.022": 0.0,
			"-0.021": 0.0,
			"-0.02": 0.0,
			"-0.019": 0.0850247153458,
			"-0.018": 1.164022593,
			"-0.017": 0.820299370655,
			"-0.016": 1.04623229126,
			"-0.015": 0.941778088646,
			"-0.014": 2.02219504998,
			"-0.013": 1.11173325715,
			"-0.012": 1.29947705097,
			"-0.011": 1.89960628727,
			"-0.01": 1.96426961731,
			"-0.009": 3.88934137213,
			"-0.008": 7.04555244749,
			"-0.007": 7.23986838971,
			"-0.006": 8.60954919452,
			"-0.005": 7.08823315258,
			"-0.004": 7.51232705416,
			"-0.003": 9.19787469542,
			"-0.002": 11.6856688179,
			"-0.001": 12.9912316489,
			"0.0": 17.8790656407,
			"0.001": 27.9064009992,
			"0.002": 19.9881720086,
			"0.003": 16.4741466181,
			"0.004": 23.2540941186,
			"0.005": 6.70001078092,
			"0.006": 3.22273758888,
			"0.007": 2.58870102406,
			"0.008": 3.24818816738,
			"0.009": 4.47960738451,
			"0.01": 4.46797632601,
			"0.011": 4.3239543973,
			"0.012": 3.10306583892,
			"0.013": 0.658067697583,
			"0.014": 0.0,
			"0.015": 0.0,
			"0.016": 0.0,
			"0.017": 0.0,
			"0.018": 0.0,
			"0.019": 0.0,
			"0.02": 0.0,
			"0.021": 0.0,
			"0.022": 0.0,
			"0.023": 0.0,
			"0.024": 0.0,
			"0.025": 0.0
		}
	}
}
