{
	 "smiles": "ClC1=C(C=O)C(=O)N(N1)C1=CC=CC=C1", 
	 "Tm": 440.15, 
	 "num_atms": 22, 
	 "gaussian": { 
		 "optdone": 1, 
		 "sigma_profile": "yes", 
		 "theory": "DFT", 
		 "functional": "B3LYP", 
		 "basiset": "6-31G**", 
		 "properties": { 
			 "R2extent": 4845.8383, 
			 "electric_dipole_moment_norm": 6.70320849519, 
			 "electric_quadrupole_moment_norm": 24.7822144654, 
			 "total_energy": -1105.37318921, 
			 "HOMO_LUMO_gap": 0.15873, 
			 "cosmo_polarized_energy": -21.97, 
			 "cosmo_cavitation_energy": 29.36, 
			 "cosmo_dispersion_energy": -21.43, 
			 "cosmo_repulsion_energy": 1.66, 
			 "cosmo_total_nonelectrostatic_energy": 9.59, 
			 "SMD_solvation_energy": 6.62 
		},
		"coords": [
			{
				"x": -0.4106415265,
				"y": -4.7880716037,
				"z": 0.8015207568,
				"element": "Cl" 
			},
			{
				"x": -0.6986119541,
				"y": -3.0960218001,
				"z": 0.9391011493,
				"element": "C" 
			},
			{
				"x": -1.7623766807,
				"y": -2.4292013953,
				"z": 1.4741475751,
				"element": "C" 
			},
			{
				"x": -3.0001682384,
				"y": -3.0212349703,
				"z": 1.9891880162,
				"element": "C" 
			},
			{
				"x": -3.907892274,
				"y": -2.3984193837,
				"z": 2.5026004929,
				"element": "O" 
			},
			{
				"x": -1.4255631325,
				"y": -0.9893145936,
				"z": 1.4199170362,
				"element": "C" 
			},
			{
				"x": -2.0588572816,
				"y": -0.0087577663,
				"z": 1.75521053,
				"element": "O" 
			},
			{
				"x": -0.1257479316,
				"y": -0.9490071944,
				"z": 0.8368591345,
				"element": "N" 
			},
			{
				"x": 0.257239717,
				"y": -2.2436637801,
				"z": 0.4542289399,
				"element": "N" 
			},
			{
				"x": 0.5316116497,
				"y": 0.1617976078,
				"z": 0.2512735188,
				"element": "C" 
			},
			{
				"x": 1.3789719065,
				"y": -0.0154521967,
				"z": -0.8513045339,
				"element": "C" 
			},
			{
				"x": 2.0510406023,
				"y": 1.0824226734,
				"z": -1.388169692,
				"element": "C" 
			},
			{
				"x": 1.8759753314,
				"y": 2.3553659167,
				"z": -0.8458262695,
				"element": "C" 
			},
			{
				"x": 1.0197274743,
				"y": 2.5232715985,
				"z": 0.2446930031,
				"element": "C" 
			},
			{
				"x": 0.3510744995,
				"y": 1.4378452903,
				"z": 0.8065468374,
				"element": "C" 
			},
			{
				"x": -3.0510460515,
				"y": -4.1256887561,
				"z": 1.876101471,
				"element": "H" 
			},
			{
				"x": 1.2353536636,
				"y": -2.4629178918,
				"z": 0.6283354957,
				"element": "H" 
			},
			{
				"x": 1.491471507,
				"y": -0.9949392333,
				"z": -1.3030645366,
				"element": "H" 
			},
			{
				"x": 2.7047338322,
				"y": 0.9369953373,
				"z": -2.2431749653,
				"element": "H" 
			},
			{
				"x": 2.3975598211,
				"y": 3.2077184706,
				"z": -1.2698764088,
				"element": "H" 
			},
			{
				"x": 0.8720205753,
				"y": 3.5101095814,
				"z": 0.673238748,
				"element": "H" 
			},
			{
				"x": -0.3164755091,
				"y": 1.5648640896,
				"z": 1.6477537011,
				"element": "H" 
			}
		],
		 "valence_orbital": [ 
			{
				"type": "occ",
				"energy": -0.27671,
				"method": "rhf"
			},
			{
				"type": "occ",
				"energy": -0.26393,
				"method": "rhf"
			},
			{
				"type": "occ",
				"energy": -0.26329,
				"method": "rhf"
			},
			{
				"type": "occ",
				"energy": -0.24958,
				"method": "rhf"
			},
			{
				"type": "occ",
				"energy": -0.22919,
				"method": "rhf"
			},
			{
				"type": "unocc",
				"energy": -0.07046,
				"method": "rhf"
			},
			{
				"type": "unocc",
				"energy": -0.02644,
				"method": "rhf"
			},
			{
				"type": "unocc",
				"energy": -0.01415,
				"method": "rhf"
			},
			{
				"type": "unocc",
				"energy": -0.00542,
				"method": "rhf"
			},
			{
				"type": "unocc",
				"energy": 0.01057,
				"method": "rhf"
			}
		],
		"cosmo_sigma_profile": { 
			"-0.025": 0.0,
			"-0.024": 0.0,
			"-0.023": 0.0,
			"-0.022": 0.0,
			"-0.021": 0.0,
			"-0.02": 0.0,
			"-0.019": 0.0301902947936,
			"-0.018": 1.21514221336,
			"-0.017": 1.32395764991,
			"-0.016": 1.17526210306,
			"-0.015": 1.83711907515,
			"-0.014": 0.974587685791,
			"-0.013": 1.42921739893,
			"-0.012": 1.10079308004,
			"-0.011": 1.11275126886,
			"-0.01": 1.0356045617,
			"-0.009": 1.17653207177,
			"-0.008": 1.83949085033,
			"-0.007": 3.08901457091,
			"-0.006": 12.8844142191,
			"-0.005": 17.5360695139,
			"-0.004": 20.3712331813,
			"-0.003": 17.6505748473,
			"-0.002": 19.1945960318,
			"-0.001": 18.0809818316,
			"0.0": 17.1394547861,
			"0.001": 17.3991102556,
			"0.002": 10.7342178122,
			"0.003": 10.7313457436,
			"0.004": 12.5594438598,
			"0.005": 10.6482342002,
			"0.006": 2.92894991946,
			"0.007": 2.49837124802,
			"0.008": 2.8994987749,
			"0.009": 3.65078293524,
			"0.01": 4.0153250695,
			"0.011": 6.12299795693,
			"0.012": 7.2324811149,
			"0.013": 3.69474330948,
			"0.014": 2.28436124523,
			"0.015": 1.27708546015,
			"0.016": 0.203251782153,
			"0.017": 0.0,
			"0.018": 0.0,
			"0.019": 0.0,
			"0.02": 0.0,
			"0.021": 0.0,
			"0.022": 0.0,
			"0.023": 0.0,
			"0.024": 0.0,
			"0.025": 0.0
		}
	}
}
