{
	 "smiles": "[O-][N+](=O)C1=CC(C=O)=C(OC(F)F)C=C1", 
	 "Tm": 320.15, 
	 "num_atms": 20, 
	 "gaussian": { 
		 "optdone": 1, 
		 "sigma_profile": "yes", 
		 "theory": "DFT", 
		 "functional": "B3LYP", 
		 "basiset": "6-31G**", 
		 "properties": { 
			 "R2extent": 4031.5022, 
			 "electric_dipole_moment_norm": 4.7147974071, 
			 "electric_quadrupole_moment_norm": 12.3934613983, 
			 "total_energy": -863.064785601, 
			 "HOMO_LUMO_gap": 0.16909, 
			 "cosmo_polarized_energy": -13.8, 
			 "cosmo_cavitation_energy": 27.38, 
			 "cosmo_dispersion_energy": -19.25, 
			 "cosmo_repulsion_energy": 1.46, 
			 "cosmo_total_nonelectrostatic_energy": 9.59, 
			 "SMD_solvation_energy": 9.26 
		},
		"coords": [
			{
				"x": -2.7911911671,
				"y": -1.9070418223,
				"z": -2.6926273635,
				"element": "O" 
			},
			{
				"x": -1.9273019748,
				"y": -2.4887013866,
				"z": -2.0421410798,
				"element": "N" 
			},
			{
				"x": -1.4710708896,
				"y": -3.6007972601,
				"z": -2.3035396366,
				"element": "O" 
			},
			{
				"x": -1.3916640759,
				"y": -1.8004620614,
				"z": -0.8527705349,
				"element": "C" 
			},
			{
				"x": -1.8756202061,
				"y": -0.5428681204,
				"z": -0.5238128915,
				"element": "C" 
			},
			{
				"x": -1.3656902495,
				"y": 0.1159539694,
				"z": 0.6011958191,
				"element": "C" 
			},
			{
				"x": -1.8905067969,
				"y": 1.4709476645,
				"z": 0.9434573463,
				"element": "C" 
			},
			{
				"x": -2.7515091374,
				"y": 2.0204303904,
				"z": 0.2853568623,
				"element": "O" 
			},
			{
				"x": -0.3801100489,
				"y": -0.5246925225,
				"z": 1.3696177656,
				"element": "C" 
			},
			{
				"x": 0.0883843309,
				"y": 0.0848140871,
				"z": 2.523480256,
				"element": "O" 
			},
			{
				"x": 1.3211121318,
				"y": 0.7100897548,
				"z": 2.436371257,
				"element": "C" 
			},
			{
				"x": 1.1876021202,
				"y": 1.899451799,
				"z": 1.7909670138,
				"element": "F" 
			},
			{
				"x": 1.7168311816,
				"y": 0.9548639889,
				"z": 3.6920076318,
				"element": "F" 
			},
			{
				"x": 0.0901157519,
				"y": -1.7971508146,
				"z": 1.0340525413,
				"element": "C" 
			},
			{
				"x": -0.414196819,
				"y": -2.4426279935,
				"z": -0.0896362916,
				"element": "C" 
			},
			{
				"x": -2.6379429455,
				"y": -0.0603616556,
				"z": -1.1239241625,
				"element": "H" 
			},
			{
				"x": -1.4460032234,
				"y": 1.9483448614,
				"z": 1.832720924,
				"element": "H" 
			},
			{
				"x": 2.0691477229,
				"y": 0.1096359715,
				"z": 1.9054594719,
				"element": "H" 
			},
			{
				"x": 0.8291013968,
				"y": -2.277934104,
				"z": 1.666329209,
				"element": "H" 
			},
			{
				"x": -0.075887102,
				"y": -3.429494746,
				"z": -0.3796641377,
				"element": "H" 
			}
		],
		 "valence_orbital": [ 
			{
				"type": "occ",
				"energy": -0.32221,
				"method": "rhf"
			},
			{
				"type": "occ",
				"energy": -0.306,
				"method": "rhf"
			},
			{
				"type": "occ",
				"energy": -0.30255,
				"method": "rhf"
			},
			{
				"type": "occ",
				"energy": -0.29929,
				"method": "rhf"
			},
			{
				"type": "occ",
				"energy": -0.27587,
				"method": "rhf"
			},
			{
				"type": "unocc",
				"energy": -0.10678,
				"method": "rhf"
			},
			{
				"type": "unocc",
				"energy": -0.09075,
				"method": "rhf"
			},
			{
				"type": "unocc",
				"energy": -0.03054,
				"method": "rhf"
			},
			{
				"type": "unocc",
				"energy": 0.01562,
				"method": "rhf"
			},
			{
				"type": "unocc",
				"energy": 0.06378,
				"method": "rhf"
			}
		],
		"cosmo_sigma_profile": { 
			"-0.025": 0.0,
			"-0.024": 0.0,
			"-0.023": 0.0,
			"-0.022": 0.0,
			"-0.021": 0.0,
			"-0.02": 0.0,
			"-0.019": 0.0,
			"-0.018": 0.0,
			"-0.017": 0.0,
			"-0.016": 0.0,
			"-0.015": 0.0,
			"-0.014": 0.0,
			"-0.013": 0.0,
			"-0.012": 0.0799861936306,
			"-0.011": 3.15141138388,
			"-0.01": 4.4718818345,
			"-0.009": 5.43412481983,
			"-0.008": 5.82868879275,
			"-0.007": 7.3564018387,
			"-0.006": 6.77180083264,
			"-0.005": 11.1398846914,
			"-0.004": 11.8919376958,
			"-0.003": 18.4744301855,
			"-0.002": 23.74754246,
			"-0.001": 15.965428274,
			"0.0": 9.42601620984,
			"0.001": 8.2889009818,
			"0.002": 10.8440392016,
			"0.003": 21.6300222436,
			"0.004": 9.34131900579,
			"0.005": 6.23152135503,
			"0.006": 7.67282680069,
			"0.007": 11.5939580007,
			"0.008": 7.57097204331,
			"0.009": 5.70726108526,
			"0.01": 4.77897163775,
			"0.011": 2.61119051787,
			"0.012": 0.803842585206,
			"0.013": 0.0,
			"0.014": 0.0,
			"0.015": 0.0,
			"0.016": 0.0,
			"0.017": 0.0,
			"0.018": 0.0,
			"0.019": 0.0,
			"0.02": 0.0,
			"0.021": 0.0,
			"0.022": 0.0,
			"0.023": 0.0,
			"0.024": 0.0,
			"0.025": 0.0
		}
	}
}
