{
	 "smiles": "COC1=CC(CNC(=O)CCl)=CC=C1", 
	 "Tm": 375.15, 
	 "num_atms": 26, 
	 "gaussian": { 
		 "optdone": 1, 
		 "sigma_profile": "yes", 
		 "theory": "DFT", 
		 "functional": "B3LYP", 
		 "basiset": "6-31G**", 
		 "properties": { 
			 "R2extent": 5368.4172, 
			 "electric_dipole_moment_norm": 0.636546337669, 
			 "electric_quadrupole_moment_norm": 11.5813030143, 
			 "total_energy": -1053.69704618, 
			 "HOMO_LUMO_gap": 0.21068, 
			 "cosmo_polarized_energy": -12.07, 
			 "cosmo_cavitation_energy": 31.65, 
			 "cosmo_dispersion_energy": -22.55, 
			 "cosmo_repulsion_energy": 1.82, 
			 "cosmo_total_nonelectrostatic_energy": 10.92, 
			 "SMD_solvation_energy": 5.8 
		},
		"coords": [
			{
				"x": -2.1142060574,
				"y": 1.0571927633,
				"z": -0.8140980781,
				"element": "C" 
			},
			{
				"x": -1.1467232501,
				"y": 1.9263665479,
				"z": -0.2440754023,
				"element": "O" 
			},
			{
				"x": 0.1694184106,
				"y": 1.6904664534,
				"z": -0.514518294,
				"element": "C" 
			},
			{
				"x": 0.6359673603,
				"y": 0.6458088068,
				"z": -1.3168773887,
				"element": "C" 
			},
			{
				"x": 2.0153811665,
				"y": 0.4928938959,
				"z": -1.5337052725,
				"element": "C" 
			},
			{
				"x": 2.5050686377,
				"y": -0.6571779137,
				"z": -2.3943054462,
				"element": "C" 
			},
			{
				"x": 2.4023585514,
				"y": -1.9641753429,
				"z": -1.7417930683,
				"element": "N" 
			},
			{
				"x": 1.3279348165,
				"y": -2.7643599874,
				"z": -1.9113257565,
				"element": "C" 
			},
			{
				"x": 0.3694050514,
				"y": -2.5122015803,
				"z": -2.6365143871,
				"element": "O" 
			},
			{
				"x": 1.2944718116,
				"y": -4.1002322242,
				"z": -1.1644543035,
				"element": "C" 
			},
			{
				"x": 2.7084025552,
				"y": -4.4765080202,
				"z": -0.0869570129,
				"element": "Cl" 
			},
			{
				"x": 2.9160562131,
				"y": 1.3855877816,
				"z": -0.9526625997,
				"element": "C" 
			},
			{
				"x": 2.44074623,
				"y": 2.4313285229,
				"z": -0.1518438007,
				"element": "C" 
			},
			{
				"x": 1.0794148578,
				"y": 2.5872018353,
				"z": 0.0705477167,
				"element": "C" 
			},
			{
				"x": -3.0841110727,
				"y": 1.42073691,
				"z": -0.4711466605,
				"element": "H" 
			},
			{
				"x": -2.0851434233,
				"y": 1.0823962008,
				"z": -1.9107248315,
				"element": "H" 
			},
			{
				"x": -1.9763307132,
				"y": 0.021391452,
				"z": -0.4791825957,
				"element": "H" 
			},
			{
				"x": -0.0440450705,
				"y": -0.05881072,
				"z": -1.7813883033,
				"element": "H" 
			},
			{
				"x": 3.5515873835,
				"y": -0.5014943101,
				"z": -2.6732837233,
				"element": "H" 
			},
			{
				"x": 1.9146461216,
				"y": -0.726545662,
				"z": -3.3112803696,
				"element": "H" 
			},
			{
				"x": 3.0904721966,
				"y": -2.223773852,
				"z": -1.0488982158,
				"element": "H" 
			},
			{
				"x": 0.4016142058,
				"y": -4.1216842939,
				"z": -0.5394918391,
				"element": "H" 
			},
			{
				"x": 1.2286319601,
				"y": -4.9015880586,
				"z": -1.900634669,
				"element": "H" 
			},
			{
				"x": 3.9831305499,
				"y": 1.2716960505,
				"z": -1.1248611268,
				"element": "H" 
			},
			{
				"x": 3.1403282698,
				"y": 3.1288923127,
				"z": 0.2999358243,
				"element": "H" 
			},
			{
				"x": 0.6913232378,
				"y": 3.3918924322,
				"z": 0.686339604,
				"element": "H" 
			}
		],
		 "valence_orbital": [ 
			{
				"type": "occ",
				"energy": -0.31216,
				"method": "rhf"
			},
			{
				"type": "occ",
				"energy": -0.26933,
				"method": "rhf"
			},
			{
				"type": "occ",
				"energy": -0.26041,
				"method": "rhf"
			},
			{
				"type": "occ",
				"energy": -0.24582,
				"method": "rhf"
			},
			{
				"type": "occ",
				"energy": -0.21921,
				"method": "rhf"
			},
			{
				"type": "unocc",
				"energy": -0.00853,
				"method": "rhf"
			},
			{
				"type": "unocc",
				"energy": 0.0108,
				"method": "rhf"
			},
			{
				"type": "unocc",
				"energy": 0.01286,
				"method": "rhf"
			},
			{
				"type": "unocc",
				"energy": 0.01786,
				"method": "rhf"
			},
			{
				"type": "unocc",
				"energy": 0.09056,
				"method": "rhf"
			}
		],
		"cosmo_sigma_profile": { 
			"-0.025": 0.0,
			"-0.024": 0.0,
			"-0.023": 0.0,
			"-0.022": 0.0,
			"-0.021": 0.0,
			"-0.02": 0.0,
			"-0.019": 0.0,
			"-0.018": 0.0,
			"-0.017": 0.0,
			"-0.016": 0.0,
			"-0.015": 0.0,
			"-0.014": 0.0,
			"-0.013": 0.384340521526,
			"-0.012": 1.12458492782,
			"-0.011": 0.463258402673,
			"-0.01": 0.925471870731,
			"-0.009": 3.54656439393,
			"-0.008": 5.33553609482,
			"-0.007": 5.50081580561,
			"-0.006": 12.7608625849,
			"-0.005": 21.0978470021,
			"-0.004": 23.9053711055,
			"-0.003": 22.4003949788,
			"-0.002": 16.1814899703,
			"-0.001": 14.9178050948,
			"0.0": 13.864228812,
			"0.001": 13.9070554722,
			"0.002": 13.9091436994,
			"0.003": 15.1489216231,
			"0.004": 16.68992834,
			"0.005": 18.5062099637,
			"0.006": 12.4920791036,
			"0.007": 2.51749039455,
			"0.008": 3.20949255997,
			"0.009": 1.81879513812,
			"0.01": 2.68088507274,
			"0.011": 2.08793505047,
			"0.012": 2.08617836571,
			"0.013": 3.89974208035,
			"0.014": 1.92539795402,
			"0.015": 0.0453385745295,
			"0.016": 0.0,
			"0.017": 0.0,
			"0.018": 0.0,
			"0.019": 0.0,
			"0.02": 0.0,
			"0.021": 0.0,
			"0.022": 0.0,
			"0.023": 0.0,
			"0.024": 0.0,
			"0.025": 0.0
		}
	}
}
