{
	 "smiles": "[O-][N+](=O)C1=CC=CC2=C1C(=O)C1=C(C=CC=C1)C2=O", 
	 "Tm": 505.15, 
	 "num_atms": 26, 
	 "gaussian": { 
		 "optdone": 1, 
		 "sigma_profile": "yes", 
		 "theory": "DFT", 
		 "functional": "B3LYP", 
		 "basiset": "6-31G**", 
		 "properties": { 
			 "R2extent": 5246.195, 
			 "electric_dipole_moment_norm": 3.84048478711, 
			 "electric_quadrupole_moment_norm": 39.14246892, 
			 "total_energy": -893.253911492, 
			 "HOMO_LUMO_gap": 0.15445, 
			 "cosmo_polarized_energy": -14.92, 
			 "cosmo_cavitation_energy": 31.96, 
			 "cosmo_dispersion_energy": -23.03, 
			 "cosmo_repulsion_energy": 1.7, 
			 "cosmo_total_nonelectrostatic_energy": 10.62, 
			 "SMD_solvation_energy": 8.55 
		},
		"coords": [
			{
				"x": -0.352158579,
				"y": -1.3364497485,
				"z": -4.42254638,
				"element": "O" 
			},
			{
				"x": -0.758458204,
				"y": -0.2783614756,
				"z": -3.9596734769,
				"element": "N" 
			},
			{
				"x": -0.9579868988,
				"y": 0.7616309371,
				"z": -4.5740711147,
				"element": "O" 
			},
			{
				"x": -1.1523880626,
				"y": -0.2890055303,
				"z": -2.5320579548,
				"element": "C" 
			},
			{
				"x": -2.4696634748,
				"y": -0.6510506398,
				"z": -2.2722041433,
				"element": "C" 
			},
			{
				"x": -2.9222586574,
				"y": -0.6863268636,
				"z": -0.9524722097,
				"element": "C" 
			},
			{
				"x": -2.0579696442,
				"y": -0.3610064642,
				"z": 0.0887134874,
				"element": "C" 
			},
			{
				"x": -0.7352488585,
				"y": 0.0018597763,
				"z": -0.1818672078,
				"element": "C" 
			},
			{
				"x": -0.2565067559,
				"y": 0.0441651585,
				"z": -1.5081282656,
				"element": "C" 
			},
			{
				"x": 1.1563447283,
				"y": 0.431140257,
				"z": -1.8044457521,
				"element": "C" 
			},
			{
				"x": 1.5712261564,
				"y": 0.4673851892,
				"z": -2.9552612501,
				"element": "O" 
			},
			{
				"x": 2.0349974627,
				"y": 0.7687569222,
				"z": -0.6502343002,
				"element": "C" 
			},
			{
				"x": 1.5595140315,
				"y": 0.7273794153,
				"z": 0.6747535064,
				"element": "C" 
			},
			{
				"x": 2.4171654218,
				"y": 1.0519149651,
				"z": 1.7324673816,
				"element": "C" 
			},
			{
				"x": 3.7364581714,
				"y": 1.4145053596,
				"z": 1.474314072,
				"element": "C" 
			},
			{
				"x": 4.2091869016,
				"y": 1.4556540985,
				"z": 0.1570162814,
				"element": "C" 
			},
			{
				"x": 3.3628252921,
				"y": 1.1343599077,
				"z": -0.9010642896,
				"element": "C" 
			},
			{
				"x": 0.154789192,
				"y": 0.3429775964,
				"z": 0.9735533553,
				"element": "C" 
			},
			{
				"x": -0.2709572275,
				"y": 0.3029669602,
				"z": 2.1219479564,
				"element": "O" 
			},
			{
				"x": -3.1291620963,
				"y": -0.9014381674,
				"z": -3.0965249844,
				"element": "H" 
			},
			{
				"x": -3.9494658184,
				"y": -0.9683063678,
				"z": -0.7445464905,
				"element": "H" 
			},
			{
				"x": -2.3804336742,
				"y": -0.3793037569,
				"z": 1.123835824,
				"element": "H" 
			},
			{
				"x": 2.0256716092,
				"y": 1.011992749,
				"z": 2.7432671986,
				"element": "H" 
			},
			{
				"x": 4.399451383,
				"y": 1.6657466942,
				"z": 2.2967960512,
				"element": "H" 
			},
			{
				"x": 5.2385497109,
				"y": 1.7388154599,
				"z": -0.0413830132,
				"element": "H" 
			},
			{
				"x": 3.7048778907,
				"y": 1.158697568,
				"z": -1.9300842813,
				"element": "H" 
			}
		],
		 "valence_orbital": [ 
			{
				"type": "occ",
				"energy": -0.28307,
				"method": "rhf"
			},
			{
				"type": "occ",
				"energy": -0.28138,
				"method": "rhf"
			},
			{
				"type": "occ",
				"energy": -0.27867,
				"method": "rhf"
			},
			{
				"type": "occ",
				"energy": -0.274,
				"method": "rhf"
			},
			{
				"type": "occ",
				"energy": -0.27277,
				"method": "rhf"
			},
			{
				"type": "unocc",
				"energy": -0.11832,
				"method": "rhf"
			},
			{
				"type": "unocc",
				"energy": -0.07514,
				"method": "rhf"
			},
			{
				"type": "unocc",
				"energy": -0.06808,
				"method": "rhf"
			},
			{
				"type": "unocc",
				"energy": -0.04049,
				"method": "rhf"
			},
			{
				"type": "unocc",
				"energy": -0.02928,
				"method": "rhf"
			}
		],
		"cosmo_sigma_profile": { 
			"-0.025": 0.0,
			"-0.024": 0.0,
			"-0.023": 0.0,
			"-0.022": 0.0,
			"-0.021": 0.0,
			"-0.02": 0.0,
			"-0.019": 0.0,
			"-0.018": 0.0,
			"-0.017": 0.0,
			"-0.016": 0.0,
			"-0.015": 0.0,
			"-0.014": 0.0,
			"-0.013": 0.0,
			"-0.012": 0.0428139591924,
			"-0.011": 0.834206352971,
			"-0.01": 1.92907108098,
			"-0.009": 3.02624319627,
			"-0.008": 7.24065601916,
			"-0.007": 13.970701563,
			"-0.006": 17.0006654773,
			"-0.005": 14.9899073108,
			"-0.004": 12.6810840727,
			"-0.003": 14.8227690262,
			"-0.002": 18.1355730699,
			"-0.001": 21.8552206771,
			"0.0": 26.606318479,
			"0.001": 19.021529007,
			"0.002": 14.8092840794,
			"0.003": 6.12900364341,
			"0.004": 4.9367539965,
			"0.005": 6.38281226467,
			"0.006": 9.90474700934,
			"0.007": 18.4591375174,
			"0.008": 11.2330082361,
			"0.009": 6.47379537809,
			"0.01": 5.7127455182,
			"0.011": 2.7671308643,
			"0.012": 0.0,
			"0.013": 0.0,
			"0.014": 0.0,
			"0.015": 0.0,
			"0.016": 0.0,
			"0.017": 0.0,
			"0.018": 0.0,
			"0.019": 0.0,
			"0.02": 0.0,
			"0.021": 0.0,
			"0.022": 0.0,
			"0.023": 0.0,
			"0.024": 0.0,
			"0.025": 0.0
		}
	}
}
