{
	 "smiles": "COC1=CC2=C(C=C1)C(=CC(Cl)=N2)C1=CC=CC=C1", 
	 "Tm": 374.15, 
	 "num_atms": 31, 
	 "gaussian": { 
		 "optdone": 1, 
		 "sigma_profile": "yes", 
		 "theory": "DFT", 
		 "functional": "B3LYP", 
		 "basiset": "6-31G**", 
		 "properties": { 
			 "R2extent": 7236.0814, 
			 "electric_dipole_moment_norm": 5.74346476093, 
			 "electric_quadrupole_moment_norm": 18.6684543843, 
			 "total_energy": -1207.10643546, 
			 "HOMO_LUMO_gap": 0.15984, 
			 "cosmo_polarized_energy": -10.98, 
			 "cosmo_cavitation_energy": 36.89, 
			 "cosmo_dispersion_energy": -26.94, 
			 "cosmo_repulsion_energy": 2.06, 
			 "cosmo_total_nonelectrostatic_energy": 12.02, 
			 "SMD_solvation_energy": 4.87 
		},
		"coords": [
			{
				"x": 1.4447145253,
				"y": -3.8529205233,
				"z": 1.3552429264,
				"element": "C" 
			},
			{
				"x": 0.1638234065,
				"y": -3.4207404109,
				"z": 0.9203669036,
				"element": "O" 
			},
			{
				"x": -0.0006504554,
				"y": -2.1222327422,
				"z": 0.5454978045,
				"element": "C" 
			},
			{
				"x": -1.2739569333,
				"y": -1.7558253848,
				"z": 0.1411211907,
				"element": "C" 
			},
			{
				"x": -1.5450580277,
				"y": -0.4340857493,
				"z": -0.2656591329,
				"element": "C" 
			},
			{
				"x": -0.4925062562,
				"y": 0.5421153178,
				"z": -0.2832466615,
				"element": "C" 
			},
			{
				"x": 0.790663345,
				"y": 0.1372374067,
				"z": 0.1592243002,
				"element": "C" 
			},
			{
				"x": 1.0396890564,
				"y": -1.1581748917,
				"z": 0.563032899,
				"element": "C" 
			},
			{
				"x": -0.8189834401,
				"y": 1.8717359665,
				"z": -0.7122172354,
				"element": "C" 
			},
			{
				"x": -2.1323425215,
				"y": 2.1433649008,
				"z": -1.0452983767,
				"element": "C" 
			},
			{
				"x": -3.079438933,
				"y": 1.0934036974,
				"z": -0.9734120711,
				"element": "C" 
			},
			{
				"x": -4.7464917205,
				"y": 1.4844068918,
				"z": -1.421720365,
				"element": "Cl" 
			},
			{
				"x": -2.8339004502,
				"y": -0.1307431058,
				"z": -0.6222423394,
				"element": "N" 
			},
			{
				"x": 0.1949479515,
				"y": 2.9567876379,
				"z": -0.8113264116,
				"element": "C" 
			},
			{
				"x": 1.3625129412,
				"y": 2.7969125705,
				"z": -1.5765093371,
				"element": "C" 
			},
			{
				"x": 2.2812105911,
				"y": 3.8393962074,
				"z": -1.6961399292,
				"element": "C" 
			},
			{
				"x": 2.0520936486,
				"y": 5.0563094214,
				"z": -1.0509025594,
				"element": "C" 
			},
			{
				"x": 0.8944709264,
				"y": 5.2272808087,
				"z": -0.2897471837,
				"element": "C" 
			},
			{
				"x": -0.0283478955,
				"y": 4.1879510832,
				"z": -0.1740348104,
				"element": "C" 
			},
			{
				"x": 1.7725053489,
				"y": -3.3147172011,
				"z": 2.2536260892,
				"element": "H" 
			},
			{
				"x": 1.3366467219,
				"y": -4.9119173194,
				"z": 1.593699193,
				"element": "H" 
			},
			{
				"x": 2.2016814367,
				"y": -3.7375623237,
				"z": 0.5691829578,
				"element": "H" 
			},
			{
				"x": -2.0790398255,
				"y": -2.4810273182,
				"z": 0.1428307009,
				"element": "H" 
			},
			{
				"x": 1.5933855659,
				"y": 0.8648899639,
				"z": 0.1947257767,
				"element": "H" 
			},
			{
				"x": 2.0338141121,
				"y": -1.4259079342,
				"z": 0.9001187793,
				"element": "H" 
			},
			{
				"x": -2.4332650933,
				"y": 3.1255564942,
				"z": -1.3878537336,
				"element": "H" 
			},
			{
				"x": 1.5364871983,
				"y": 1.8599454446,
				"z": -2.096705226,
				"element": "H" 
			},
			{
				"x": 3.173600375,
				"y": 3.7024176113,
				"z": -2.3000978835,
				"element": "H" 
			},
			{
				"x": 2.7697364638,
				"y": 5.8663027333,
				"z": -1.1428386356,
				"element": "H" 
			},
			{
				"x": 0.7092228391,
				"y": 6.1699952718,
				"z": 0.2169424583,
				"element": "H" 
			},
			{
				"x": -0.9237249014,
				"y": 4.3201454754,
				"z": 0.4262399127,
				"element": "H" 
			}
		],
		 "valence_orbital": [ 
			{
				"type": "occ",
				"energy": -0.26746,
				"method": "rhf"
			},
			{
				"type": "occ",
				"energy": -0.26193,
				"method": "rhf"
			},
			{
				"type": "occ",
				"energy": -0.25701,
				"method": "rhf"
			},
			{
				"type": "occ",
				"energy": -0.23987,
				"method": "rhf"
			},
			{
				"type": "occ",
				"energy": -0.22008,
				"method": "rhf"
			},
			{
				"type": "unocc",
				"energy": -0.06024,
				"method": "rhf"
			},
			{
				"type": "unocc",
				"energy": -0.0187,
				"method": "rhf"
			},
			{
				"type": "unocc",
				"energy": -0.01374,
				"method": "rhf"
			},
			{
				"type": "unocc",
				"energy": -0.01167,
				"method": "rhf"
			},
			{
				"type": "unocc",
				"energy": 0.02297,
				"method": "rhf"
			}
		],
		"cosmo_sigma_profile": { 
			"-0.025": 0.0,
			"-0.024": 0.0,
			"-0.023": 0.0,
			"-0.022": 0.0,
			"-0.021": 0.0,
			"-0.02": 0.0,
			"-0.019": 0.0,
			"-0.018": 0.0,
			"-0.017": 0.0,
			"-0.016": 0.0,
			"-0.015": 0.0,
			"-0.014": 0.0,
			"-0.013": 0.0,
			"-0.012": 0.0,
			"-0.011": 0.0,
			"-0.01": 0.0,
			"-0.009": 0.0,
			"-0.008": 0.261811466462,
			"-0.007": 4.21500605501,
			"-0.006": 19.4327616073,
			"-0.005": 25.4061417712,
			"-0.004": 26.5206662348,
			"-0.003": 23.1406128511,
			"-0.002": 17.900726033,
			"-0.001": 18.7561803785,
			"0.0": 25.4037690161,
			"0.001": 25.317527172,
			"0.002": 25.5412966553,
			"0.003": 27.3499817176,
			"0.004": 22.9314832494,
			"0.005": 17.2356395268,
			"0.006": 4.63951036373,
			"0.007": 3.10473068727,
			"0.008": 2.33307377587,
			"0.009": 3.46238229312,
			"0.01": 2.29301169242,
			"0.011": 1.21519350886,
			"0.012": 0.689567732549,
			"0.013": 0.93300538249,
			"0.014": 0.61675453388,
			"0.015": 0.0450403471984,
			"0.016": 0.0,
			"0.017": 0.0,
			"0.018": 0.0,
			"0.019": 0.0,
			"0.02": 0.0,
			"0.021": 0.0,
			"0.022": 0.0,
			"0.023": 0.0,
			"0.024": 0.0,
			"0.025": 0.0
		}
	}
}
