{
	 "smiles": "CCCCCCCCCCCCCCC=C", 
	 "Tm": 277.2, 
	 "num_atms": 48, 
	 "gaussian": { 
		 "optdone": 1, 
		 "sigma_profile": "yes", 
		 "theory": "DFT", 
		 "functional": "B3LYP", 
		 "basiset": "6-31G**", 
		 "properties": { 
			 "R2extent": 8223.5485, 
			 "electric_dipole_moment_norm": 0.466926396769, 
			 "electric_quadrupole_moment_norm": 3.022271955, 
			 "total_energy": -629.007750031, 
			 "HOMO_LUMO_gap": 0.27779, 
			 "cosmo_polarized_energy": -2.07, 
			 "cosmo_cavitation_energy": 47.08, 
			 "cosmo_dispersion_energy": -31.47, 
			 "cosmo_repulsion_energy": 2.6, 
			 "cosmo_total_nonelectrostatic_energy": 18.21, 
			 "SMD_solvation_energy": 6.84 
		},
		"coords": [
			{
				"x": -2.2763901313,
				"y": 5.0707057773,
				"z": 0.362679183,
				"element": "C" 
			},
			{
				"x": -2.9267955457,
				"y": 4.575187755,
				"z": 1.6600334779,
				"element": "C" 
			},
			{
				"x": -3.7287700712,
				"y": 3.2713864771,
				"z": 1.513461905,
				"element": "C" 
			},
			{
				"x": -2.8887643505,
				"y": 2.035080543,
				"z": 1.1620870356,
				"element": "C" 
			},
			{
				"x": -3.7224032942,
				"y": 0.7472826135,
				"z": 1.0905192353,
				"element": "C" 
			},
			{
				"x": -2.9391545747,
				"y": -0.5062768016,
				"z": 0.6657694862,
				"element": "C" 
			},
			{
				"x": -1.8734946506,
				"y": -0.962905383,
				"z": 1.6738399948,
				"element": "C" 
			},
			{
				"x": -1.2057580059,
				"y": -2.3055855433,
				"z": 1.3260883752,
				"element": "C" 
			},
			{
				"x": -0.39741062,
				"y": -2.3379085784,
				"z": 0.0167307079,
				"element": "C" 
			},
			{
				"x": 0.8117550468,
				"y": -1.3916511956,
				"z": -0.0149808513,
				"element": "C" 
			},
			{
				"x": 1.6471532014,
				"y": -1.5436825894,
				"z": -1.2940367142,
				"element": "C" 
			},
			{
				"x": 2.8081114513,
				"y": -0.5486077622,
				"z": -1.4737970659,
				"element": "C" 
			},
			{
				"x": 3.9434038363,
				"y": -0.6341863322,
				"z": -0.4290132618,
				"element": "C" 
			},
			{
				"x": 3.7731012821,
				"y": 0.2979120413,
				"z": 0.7775954498,
				"element": "C" 
			},
			{
				"x": 4.8691158376,
				"y": 0.2474848075,
				"z": 1.8115970477,
				"element": "C" 
			},
			{
				"x": 5.9525099979,
				"y": -0.5307042657,
				"z": 1.7971759148,
				"element": "C" 
			},
			{
				"x": -1.7647060126,
				"y": 6.0263307737,
				"z": 0.5181545755,
				"element": "H" 
			},
			{
				"x": -3.0273163517,
				"y": 5.220456471,
				"z": -0.4221046317,
				"element": "H" 
			},
			{
				"x": -1.5354712635,
				"y": 4.3615828638,
				"z": -0.0205073762,
				"element": "H" 
			},
			{
				"x": -2.1525132928,
				"y": 4.4379178526,
				"z": 2.4275883093,
				"element": "H" 
			},
			{
				"x": -3.5955887562,
				"y": 5.3568856303,
				"z": 2.0426859595,
				"element": "H" 
			},
			{
				"x": -4.2621364936,
				"y": 3.0778643468,
				"z": 2.4543244133,
				"element": "H" 
			},
			{
				"x": -4.5067401012,
				"y": 3.409979735,
				"z": 0.7485107094,
				"element": "H" 
			},
			{
				"x": -2.3856905769,
				"y": 2.1854802545,
				"z": 0.1972303405,
				"element": "H" 
			},
			{
				"x": -2.0907565182,
				"y": 1.9245117921,
				"z": 1.9086887951,
				"element": "H" 
			},
			{
				"x": -4.1937250539,
				"y": 0.5661380851,
				"z": 2.0674543349,
				"element": "H" 
			},
			{
				"x": -4.5477137535,
				"y": 0.9032730338,
				"z": 0.3822615911,
				"element": "H" 
			},
			{
				"x": -2.474923329,
				"y": -0.3206363709,
				"z": -0.3123798808,
				"element": "H" 
			},
			{
				"x": -3.6500321836,
				"y": -1.3299386682,
				"z": 0.510819355,
				"element": "H" 
			},
			{
				"x": -1.1054444087,
				"y": -0.1875898625,
				"z": 1.7842152294,
				"element": "H" 
			},
			{
				"x": -2.3446855478,
				"y": -1.058513944,
				"z": 2.6620565276,
				"element": "H" 
			},
			{
				"x": -1.9822348401,
				"y": -3.0814622568,
				"z": 1.2773501435,
				"element": "H" 
			},
			{
				"x": -0.5433366757,
				"y": -2.5930005234,
				"z": 2.1542217396,
				"element": "H" 
			},
			{
				"x": -0.0437281378,
				"y": -3.3656484913,
				"z": -0.1436692678,
				"element": "H" 
			},
			{
				"x": -1.0537520244,
				"y": -2.1142046084,
				"z": -0.8349763973,
				"element": "H" 
			},
			{
				"x": 0.4746984736,
				"y": -0.3498608562,
				"z": 0.0725344297,
				"element": "H" 
			},
			{
				"x": 1.4370667319,
				"y": -1.5878241415,
				"z": 0.8662804853,
				"element": "H" 
			},
			{
				"x": 0.9778408889,
				"y": -1.4473045389,
				"z": -2.1604444205,
				"element": "H" 
			},
			{
				"x": 2.0476331052,
				"y": -2.5667972065,
				"z": -1.3385462711,
				"element": "H" 
			},
			{
				"x": 3.2360786244,
				"y": -0.7241815271,
				"z": -2.4685354297,
				"element": "H" 
			},
			{
				"x": 2.4109564219,
				"y": 0.4762646311,
				"z": -1.4995162466,
				"element": "H" 
			},
			{
				"x": 4.0436890119,
				"y": -1.6719478967,
				"z": -0.0833326871,
				"element": "H" 
			},
			{
				"x": 4.8955206794,
				"y": -0.3867837607,
				"z": -0.9144891239,
				"element": "H" 
			},
			{
				"x": 3.6872018831,
				"y": 1.3348905119,
				"z": 0.4171478535,
				"element": "H" 
			},
			{
				"x": 2.8166393695,
				"y": 0.0999391262,
				"z": 1.2806486746,
				"element": "H" 
			},
			{
				"x": 4.7351272393,
				"y": 0.9318874376,
				"z": 2.6506721599,
				"element": "H" 
			},
			{
				"x": 6.6858366111,
				"y": -0.4880222052,
				"z": 2.5970784658,
				"element": "H" 
			},
			{
				"x": 6.1532968718,
				"y": -1.2361172506,
				"z": 0.9963277206,
				"element": "H" 
			}
		],
		 "valence_orbital": [ 
			{
				"type": "occ",
				"energy": -0.30709,
				"method": "rhf"
			},
			{
				"type": "occ",
				"energy": -0.30154,
				"method": "rhf"
			},
			{
				"type": "occ",
				"energy": -0.29753,
				"method": "rhf"
			},
			{
				"type": "occ",
				"energy": -0.29597,
				"method": "rhf"
			},
			{
				"type": "occ",
				"energy": -0.24802,
				"method": "rhf"
			},
			{
				"type": "unocc",
				"energy": 0.02977,
				"method": "rhf"
			},
			{
				"type": "unocc",
				"energy": 0.08036,
				"method": "rhf"
			},
			{
				"type": "unocc",
				"energy": 0.09247,
				"method": "rhf"
			},
			{
				"type": "unocc",
				"energy": 0.09923,
				"method": "rhf"
			},
			{
				"type": "unocc",
				"energy": 0.10414,
				"method": "rhf"
			}
		],
		"cosmo_sigma_profile": { 
			"-0.025": 0.0,
			"-0.024": 0.0,
			"-0.023": 0.0,
			"-0.022": 0.0,
			"-0.021": 0.0,
			"-0.02": 0.0,
			"-0.019": 0.0,
			"-0.018": 0.0,
			"-0.017": 0.0,
			"-0.016": 0.0,
			"-0.015": 0.0,
			"-0.014": 0.0,
			"-0.013": 0.0,
			"-0.012": 0.0,
			"-0.011": 0.0,
			"-0.01": 0.0,
			"-0.009": 0.0,
			"-0.008": 0.0,
			"-0.007": 0.0,
			"-0.006": 0.0,
			"-0.005": 0.56988144431,
			"-0.004": 4.34155400034,
			"-0.003": 9.65996775165,
			"-0.002": 44.9146149311,
			"-0.001": 88.18390596,
			"0.0": 90.987218034,
			"0.001": 72.3303059898,
			"0.002": 30.4800913526,
			"0.003": 4.78830260459,
			"0.004": 4.02244360855,
			"0.005": 2.9509767959,
			"0.006": 3.16892812223,
			"0.007": 2.56825307831,
			"0.008": 1.51867538269,
			"0.009": 0.0159479139748,
			"0.01": 0.0,
			"0.011": 0.0,
			"0.012": 0.0,
			"0.013": 0.0,
			"0.014": 0.0,
			"0.015": 0.0,
			"0.016": 0.0,
			"0.017": 0.0,
			"0.018": 0.0,
			"0.019": 0.0,
			"0.02": 0.0,
			"0.021": 0.0,
			"0.022": 0.0,
			"0.023": 0.0,
			"0.024": 0.0,
			"0.025": 0.0
		}
	}
}
