{
	 "smiles": "CC(=O)NC1=NC(C)=C(S1)S(Cl)(=O)=O", 
	 "Tm": 432.15, 
	 "num_atms": 21, 
	 "gaussian": { 
		 "optdone": 1, 
		 "sigma_profile": "yes", 
		 "theory": "DFT", 
		 "functional": "B3LYP", 
		 "basiset": "6-31G**", 
		 "properties": { 
			 "R2extent": 6191.3479, 
			 "electric_dipole_moment_norm": 2.74797929395, 
			 "electric_quadrupole_moment_norm": 19.5797429166, 
			 "total_energy": -1824.53537965, 
			 "HOMO_LUMO_gap": 0.15967, 
			 "cosmo_polarized_energy": -14.62, 
			 "cosmo_cavitation_energy": 30.62, 
			 "cosmo_dispersion_energy": -23.14, 
			 "cosmo_repulsion_energy": 1.75, 
			 "cosmo_total_nonelectrostatic_energy": 9.23, 
			 "SMD_solvation_energy": 3.42 
		},
		"coords": [
			{
				"x": 0.4062244547,
				"y": -4.4626600815,
				"z": -2.1971147286,
				"element": "C" 
			},
			{
				"x": 0.9811305822,
				"y": -4.547178742,
				"z": -0.8040950226,
				"element": "C" 
			},
			{
				"x": 1.7212542936,
				"y": -5.4376955807,
				"z": -0.4354409317,
				"element": "O" 
			},
			{
				"x": 0.6485494793,
				"y": -3.5449756577,
				"z": 0.123862038,
				"element": "N" 
			},
			{
				"x": -0.1394525424,
				"y": -2.4213248968,
				"z": 0.0899882439,
				"element": "C" 
			},
			{
				"x": -0.2770453865,
				"y": -1.7034164049,
				"z": 1.1831110531,
				"element": "N" 
			},
			{
				"x": -1.0751101612,
				"y": -0.6112867502,
				"z": 0.9829152008,
				"element": "C" 
			},
			{
				"x": -1.355058735,
				"y": 0.2844265457,
				"z": 2.149097723,
				"element": "C" 
			},
			{
				"x": -1.5361184157,
				"y": -0.4841090877,
				"z": -0.3122345667,
				"element": "C" 
			},
			{
				"x": -0.9781001054,
				"y": -1.8069293312,
				"z": -1.3249174712,
				"element": "S" 
			},
			{
				"x": -2.6169937549,
				"y": 0.7013388621,
				"z": -1.0012785669,
				"element": "S" 
			},
			{
				"x": -4.5471732433,
				"y": -0.0337218152,
				"z": -0.4441201011,
				"element": "Cl" 
			},
			{
				"x": -2.4768741199,
				"y": 1.9785734034,
				"z": -0.3141523622,
				"element": "O" 
			},
			{
				"x": -2.5492813876,
				"y": 0.5787456954,
				"z": -2.4525824803,
				"element": "O" 
			},
			{
				"x": 0.7359677198,
				"y": -3.5535595376,
				"z": -2.7110176697,
				"element": "H" 
			},
			{
				"x": -0.6885994904,
				"y": -4.4683740456,
				"z": -2.1815391711,
				"element": "H" 
			},
			{
				"x": 0.7600140019,
				"y": -5.3314755641,
				"z": -2.7512575974,
				"element": "H" 
			},
			{
				"x": 1.0761414007,
				"y": -3.6967567909,
				"z": 1.03290129,
				"element": "H" 
			},
			{
				"x": -0.4071602814,
				"y": 0.6227010079,
				"z": 2.5791201902,
				"element": "H" 
			},
			{
				"x": -1.8772554342,
				"y": -0.2846162786,
				"z": 2.9253051474,
				"element": "H" 
			},
			{
				"x": -1.9508588745,
				"y": 1.1513950505,
				"z": 1.8702497832,
				"element": "H" 
			}
		],
		 "valence_orbital": [ 
			{
				"type": "occ",
				"energy": -0.31805,
				"method": "rhf"
			},
			{
				"type": "occ",
				"energy": -0.31535,
				"method": "rhf"
			},
			{
				"type": "occ",
				"energy": -0.31369,
				"method": "rhf"
			},
			{
				"type": "occ",
				"energy": -0.29241,
				"method": "rhf"
			},
			{
				"type": "occ",
				"energy": -0.2602,
				"method": "rhf"
			},
			{
				"type": "unocc",
				"energy": -0.10053,
				"method": "rhf"
			},
			{
				"type": "unocc",
				"energy": -0.06117,
				"method": "rhf"
			},
			{
				"type": "unocc",
				"energy": -0.02512,
				"method": "rhf"
			},
			{
				"type": "unocc",
				"energy": -0.01712,
				"method": "rhf"
			},
			{
				"type": "unocc",
				"energy": 0.01772,
				"method": "rhf"
			}
		],
		"cosmo_sigma_profile": { 
			"-0.025": 0.0,
			"-0.024": 0.0,
			"-0.023": 0.0,
			"-0.022": 0.0,
			"-0.021": 0.0,
			"-0.02": 0.0,
			"-0.019": 0.0,
			"-0.018": 0.0,
			"-0.017": 0.0,
			"-0.016": 0.21264570863,
			"-0.015": 0.961354750197,
			"-0.014": 0.654317964011,
			"-0.013": 0.795171373256,
			"-0.012": 0.604323197001,
			"-0.011": 0.971413106557,
			"-0.01": 1.5093276105,
			"-0.009": 2.55752152581,
			"-0.008": 4.57558017021,
			"-0.007": 6.59511645213,
			"-0.006": 11.0741850389,
			"-0.005": 15.0493042182,
			"-0.004": 19.3745394856,
			"-0.003": 25.2771327496,
			"-0.002": 25.2962244333,
			"-0.001": 17.1351137667,
			"0.0": 14.7983557056,
			"0.001": 12.5784394592,
			"0.002": 11.6234955959,
			"0.003": 15.1251694993,
			"0.004": 12.8032120817,
			"0.005": 6.18012798408,
			"0.006": 6.44430072852,
			"0.007": 9.10551065889,
			"0.008": 10.4366204063,
			"0.009": 4.72996273146,
			"0.01": 3.34864194299,
			"0.011": 5.43827084039,
			"0.012": 3.74121188539,
			"0.013": 0.434700869701,
			"0.014": 0.0,
			"0.015": 0.0,
			"0.016": 0.0,
			"0.017": 0.0,
			"0.018": 0.0,
			"0.019": 0.0,
			"0.02": 0.0,
			"0.021": 0.0,
			"0.022": 0.0,
			"0.023": 0.0,
			"0.024": 0.0,
			"0.025": 0.0
		}
	}
}
