{
	 "smiles": "NC(=O)N=NC(N)=O", 
	 "Tm": 471.15, 
	 "num_atms": 12, 
	 "gaussian": { 
		 "optdone": 1, 
		 "sigma_profile": "yes", 
		 "theory": "DFT", 
		 "functional": "B3LYP", 
		 "basiset": "6-31G**", 
		 "properties": { 
			 "R2extent": 1299.8759, 
			 "electric_dipole_moment_norm": 0.000714142842854, 
			 "electric_quadrupole_moment_norm": 21.8356210979, 
			 "total_energy": -448.043402598, 
			 "HOMO_LUMO_gap": 0.13715, 
			 "cosmo_polarized_energy": -21.39, 
			 "cosmo_cavitation_energy": 18.34, 
			 "cosmo_dispersion_energy": -13.55, 
			 "cosmo_repulsion_energy": 1.21, 
			 "cosmo_total_nonelectrostatic_energy": 6.0, 
			 "SMD_solvation_energy": 4.47 
		},
		"coords": [
			{
				"x": -1.0819987055,
				"y": -1.7872077906,
				"z": 1.0066717821,
				"element": "N" 
			},
			{
				"x": -0.2077947432,
				"y": -1.5773004922,
				"z": -0.0069324502,
				"element": "C" 
			},
			{
				"x": 0.5008593506,
				"y": -2.399660716,
				"z": -0.5412258615,
				"element": "O" 
			},
			{
				"x": -0.2801376218,
				"y": -0.1259987565,
				"z": -0.3476045547,
				"element": "N" 
			},
			{
				"x": 0.4914273709,
				"y": 0.1620936672,
				"z": -1.2718362062,
				"element": "N" 
			},
			{
				"x": 0.4187587661,
				"y": 1.6133099302,
				"z": -1.6127981565,
				"element": "C" 
			},
			{
				"x": 1.2932940957,
				"y": 1.8233101354,
				"z": -2.6260968593,
				"element": "N" 
			},
			{
				"x": -0.2899134133,
				"y": 2.4356630231,
				"z": -1.0785169399,
				"element": "O" 
			},
			{
				"x": -1.6198158902,
				"y": -1.016134729,
				"z": 1.3698334952,
				"element": "H" 
			},
			{
				"x": -1.1867870609,
				"y": -2.713233224,
				"z": 1.3887499502,
				"element": "H" 
			},
			{
				"x": 1.3981836444,
				"y": 2.749364009,
				"z": -3.0080777347,
				"element": "H" 
			},
			{
				"x": 1.8313242071,
				"y": 1.0522949433,
				"z": -2.9890664644,
				"element": "H" 
			}
		],
		 "valence_orbital": [ 
			{
				"type": "occ",
				"energy": -0.30735,
				"method": "rhf"
			},
			{
				"type": "occ",
				"energy": -0.28644,
				"method": "rhf"
			},
			{
				"type": "occ",
				"energy": -0.28578,
				"method": "rhf"
			},
			{
				"type": "occ",
				"energy": -0.2751,
				"method": "rhf"
			},
			{
				"type": "occ",
				"energy": -0.23608,
				"method": "rhf"
			},
			{
				"type": "unocc",
				"energy": -0.09893,
				"method": "rhf"
			},
			{
				"type": "unocc",
				"energy": 0.04414,
				"method": "rhf"
			},
			{
				"type": "unocc",
				"energy": 0.0743,
				"method": "rhf"
			},
			{
				"type": "unocc",
				"energy": 0.07568,
				"method": "rhf"
			},
			{
				"type": "unocc",
				"energy": 0.07848,
				"method": "rhf"
			}
		],
		"cosmo_sigma_profile": { 
			"-0.025": 0.0,
			"-0.024": 0.0,
			"-0.023": 0.0,
			"-0.022": 0.0,
			"-0.021": 0.0,
			"-0.02": 0.0,
			"-0.019": 0.0,
			"-0.018": 0.0,
			"-0.017": 0.0,
			"-0.016": 1.37840657772,
			"-0.015": 4.82082575659,
			"-0.014": 4.45933482928,
			"-0.013": 4.37235505486,
			"-0.012": 4.82950090148,
			"-0.011": 4.16070042534,
			"-0.01": 2.99867504444,
			"-0.009": 3.44944120891,
			"-0.008": 2.3451382779,
			"-0.007": 2.80991680152,
			"-0.006": 3.17007719019,
			"-0.005": 5.54380460375,
			"-0.004": 7.56053962871,
			"-0.003": 7.31475674676,
			"-0.002": 7.40189730395,
			"-0.001": 7.93483243192,
			"0.0": 7.24817931718,
			"0.001": 6.40833719819,
			"0.002": 4.62455450483,
			"0.003": 3.42248111407,
			"0.004": 2.86625115559,
			"0.005": 2.25434442291,
			"0.006": 2.49425849308,
			"0.007": 3.37684520302,
			"0.008": 2.94873456434,
			"0.009": 3.36237489794,
			"0.01": 2.93063542983,
			"0.011": 6.35198627245,
			"0.012": 11.4695413026,
			"0.013": 5.37786874898,
			"0.014": 3.31578459431,
			"0.015": 1.8732667549,
			"0.016": 0.978528180492,
			"0.017": 0.0,
			"0.018": 0.0,
			"0.019": 0.0,
			"0.02": 0.0,
			"0.021": 0.0,
			"0.022": 0.0,
			"0.023": 0.0,
			"0.024": 0.0,
			"0.025": 0.0
		}
	}
}
