{
	 "smiles": "CC(C)N1C(C)=CC(C=O)=C1C", 
	 "Tm": 319.15, 
	 "num_atms": 27, 
	 "gaussian": { 
		 "optdone": 1, 
		 "sigma_profile": "yes", 
		 "theory": "DFT", 
		 "functional": "B3LYP", 
		 "basiset": "6-31G**", 
		 "properties": { 
			 "R2extent": 2446.1604, 
			 "electric_dipole_moment_norm": 6.3617540773, 
			 "electric_quadrupole_moment_norm": 14.6474198015, 
			 "total_energy": -520.083740499, 
			 "HOMO_LUMO_gap": 0.18547, 
			 "cosmo_polarized_energy": -12.66, 
			 "cosmo_cavitation_energy": 28.75, 
			 "cosmo_dispersion_energy": -20.12, 
			 "cosmo_repulsion_energy": 1.59, 
			 "cosmo_total_nonelectrostatic_energy": 10.22, 
			 "SMD_solvation_energy": 6.26 
		},
		"coords": [
			{
				"x": -1.9791478017,
				"y": 0.3281021604,
				"z": -1.8473028765,
				"element": "C" 
			},
			{
				"x": -1.2961007052,
				"y": 1.0621826401,
				"z": -0.6831115754,
				"element": "C" 
			},
			{
				"x": -2.2890144316,
				"y": 1.8128090892,
				"z": 0.2156190819,
				"element": "C" 
			},
			{
				"x": -0.3824819039,
				"y": 0.1781310309,
				"z": 0.0680168067,
				"element": "N" 
			},
			{
				"x": 1.0141968647,
				"y": 0.2481741096,
				"z": -0.0596051565,
				"element": "C" 
			},
			{
				"x": 1.713782139,
				"y": 1.2646792279,
				"z": -0.9072686505,
				"element": "C" 
			},
			{
				"x": 1.5586875223,
				"y": -0.7441215104,
				"z": 0.7084798191,
				"element": "C" 
			},
			{
				"x": 0.4869010356,
				"y": -1.4556328679,
				"z": 1.3273837074,
				"element": "C" 
			},
			{
				"x": 0.6420671161,
				"y": -2.5871154981,
				"z": 2.2274321059,
				"element": "C" 
			},
			{
				"x": 1.717526357,
				"y": -3.0596164514,
				"z": 2.5677185867,
				"element": "O" 
			},
			{
				"x": -0.7084236106,
				"y": -0.8657423759,
				"z": 0.909850375,
				"element": "C" 
			},
			{
				"x": -2.1060853563,
				"y": -1.2368465317,
				"z": 1.3049347283,
				"element": "C" 
			},
			{
				"x": -2.5370615647,
				"y": 1.042552991,
				"z": -2.461362425,
				"element": "H" 
			},
			{
				"x": -2.6841320988,
				"y": -0.4306064486,
				"z": -1.4972019665,
				"element": "H" 
			},
			{
				"x": -1.2377376643,
				"y": -0.165056352,
				"z": -2.4821904162,
				"element": "H" 
			},
			{
				"x": -0.6426162654,
				"y": 1.8191115867,
				"z": -1.1217843473,
				"element": "H" 
			},
			{
				"x": -1.7747685106,
				"y": 2.2745632728,
				"z": 1.0632728086,
				"element": "H" 
			},
			{
				"x": -3.0782176732,
				"y": 1.1641741606,
				"z": 0.6011061945,
				"element": "H" 
			},
			{
				"x": -2.7707901373,
				"y": 2.6064232709,
				"z": -0.3642993186,
				"element": "H" 
			},
			{
				"x": 1.4490080152,
				"y": 1.1939909263,
				"z": -1.9698479346,
				"element": "H" 
			},
			{
				"x": 1.5180492138,
				"y": 2.2961216436,
				"z": -0.5872374486,
				"element": "H" 
			},
			{
				"x": 2.7910490937,
				"y": 1.1004005543,
				"z": -0.8296368606,
				"element": "H" 
			},
			{
				"x": 2.6095643039,
				"y": -0.9600167179,
				"z": 0.8350312986,
				"element": "H" 
			},
			{
				"x": -0.3034652915,
				"y": -3.0301338536,
				"z": 2.6137813836,
				"element": "H" 
			},
			{
				"x": -2.7803921924,
				"y": -1.324726937,
				"z": 0.4478856561,
				"element": "H" 
			},
			{
				"x": -2.5487490648,
				"y": -0.5134863114,
				"z": 1.9995912296,
				"element": "H" 
			},
			{
				"x": -2.0989473892,
				"y": -2.2045148084,
				"z": 1.8094451944,
				"element": "H" 
			}
		],
		 "valence_orbital": [ 
			{
				"type": "occ",
				"energy": -0.34521,
				"method": "rhf"
			},
			{
				"type": "occ",
				"energy": -0.34158,
				"method": "rhf"
			},
			{
				"type": "occ",
				"energy": -0.23593,
				"method": "rhf"
			},
			{
				"type": "occ",
				"energy": -0.22656,
				"method": "rhf"
			},
			{
				"type": "occ",
				"energy": -0.20573,
				"method": "rhf"
			},
			{
				"type": "unocc",
				"energy": -0.02026,
				"method": "rhf"
			},
			{
				"type": "unocc",
				"energy": 0.03823,
				"method": "rhf"
			},
			{
				"type": "unocc",
				"energy": 0.06343,
				"method": "rhf"
			},
			{
				"type": "unocc",
				"energy": 0.08625,
				"method": "rhf"
			},
			{
				"type": "unocc",
				"energy": 0.10724,
				"method": "rhf"
			}
		],
		"cosmo_sigma_profile": { 
			"-0.025": 0.0,
			"-0.024": 0.0,
			"-0.023": 0.0,
			"-0.022": 0.0,
			"-0.021": 0.0,
			"-0.02": 0.0,
			"-0.019": 0.0,
			"-0.018": 0.0,
			"-0.017": 0.0,
			"-0.016": 0.0,
			"-0.015": 0.0,
			"-0.014": 0.0,
			"-0.013": 0.0,
			"-0.012": 0.0,
			"-0.011": 0.0,
			"-0.01": 0.0,
			"-0.009": 0.0,
			"-0.008": 0.0,
			"-0.007": 0.413521190239,
			"-0.006": 5.09031608207,
			"-0.005": 16.2144734583,
			"-0.004": 31.0211594449,
			"-0.003": 27.6343118427,
			"-0.002": 26.4352554726,
			"-0.001": 27.4594360384,
			"0.0": 24.6035098259,
			"0.001": 11.4711571859,
			"0.002": 6.04795015672,
			"0.003": 5.73743636386,
			"0.004": 5.84289853641,
			"0.005": 6.26115761945,
			"0.006": 6.96950981611,
			"0.007": 5.11268389204,
			"0.008": 2.34622995607,
			"0.009": 1.64113000142,
			"0.01": 1.51350783241,
			"0.011": 2.19355880237,
			"0.012": 3.23209778769,
			"0.013": 5.18921979344,
			"0.014": 2.85376330503,
			"0.015": 0.539177900006,
			"0.016": 0.0,
			"0.017": 0.0,
			"0.018": 0.0,
			"0.019": 0.0,
			"0.02": 0.0,
			"0.021": 0.0,
			"0.022": 0.0,
			"0.023": 0.0,
			"0.024": 0.0,
			"0.025": 0.0
		}
	}
}
