{
	 "smiles": "OC(=O)CCC1=NC(=NO1)C1=COC=C1", 
	 "Tm": 417.15, 
	 "num_atms": 23, 
	 "gaussian": { 
		 "optdone": 1, 
		 "sigma_profile": "yes", 
		 "theory": "DFT", 
		 "functional": "B3LYP", 
		 "basiset": "6-31G**", 
		 "properties": { 
			 "R2extent": 4078.6226, 
			 "electric_dipole_moment_norm": 1.26369920867, 
			 "electric_quadrupole_moment_norm": 17.5138014183, 
			 "total_energy": -758.129197753, 
			 "HOMO_LUMO_gap": 0.20066, 
			 "cosmo_polarized_energy": -15.55, 
			 "cosmo_cavitation_energy": 29.29, 
			 "cosmo_dispersion_energy": -20.89, 
			 "cosmo_repulsion_energy": 1.66, 
			 "cosmo_total_nonelectrostatic_energy": 10.06, 
			 "SMD_solvation_energy": 6.14 
		},
		"coords": [
			{
				"x": 2.8808463195,
				"y": 2.454973946,
				"z": 0.009202256,
				"element": "O" 
			},
			{
				"x": 1.8459833129,
				"y": 2.9193282102,
				"z": -0.7342115951,
				"element": "C" 
			},
			{
				"x": 1.9614528363,
				"y": 3.2237771193,
				"z": -1.8982474855,
				"element": "O" 
			},
			{
				"x": 0.5713556679,
				"y": 3.0674485207,
				"z": 0.0761960393,
				"element": "C" 
			},
			{
				"x": 0.4316525848,
				"y": 2.1235606501,
				"z": 1.2751732223,
				"element": "C" 
			},
			{
				"x": 0.3387942089,
				"y": 0.6888919378,
				"z": 0.8686680656,
				"element": "C" 
			},
			{
				"x": 0.3103492952,
				"y": 0.1913738107,
				"z": -0.3308328809,
				"element": "N" 
			},
			{
				"x": 0.2149476818,
				"y": -1.1686330108,
				"z": -0.0859252955,
				"element": "C" 
			},
			{
				"x": 0.1837655368,
				"y": -1.490547794,
				"z": 1.1881483593,
				"element": "N" 
			},
			{
				"x": 0.2676094629,
				"y": -0.2408339045,
				"z": 1.8353556682,
				"element": "O" 
			},
			{
				"x": 0.1549299718,
				"y": -2.1535133581,
				"z": -1.1499208528,
				"element": "C" 
			},
			{
				"x": 0.1910209219,
				"y": -1.8832578894,
				"z": -2.4906306289,
				"element": "C" 
			},
			{
				"x": 0.1154556498,
				"y": -3.0328809052,
				"z": -3.2046070683,
				"element": "O" 
			},
			{
				"x": 0.0294739731,
				"y": -4.0604601015,
				"z": -2.3042269418,
				"element": "C" 
			},
			{
				"x": 0.0492192632,
				"y": -3.5849180465,
				"z": -1.033228938,
				"element": "C" 
			},
			{
				"x": 3.6442420484,
				"y": 2.4095147398,
				"z": -0.5906586227,
				"element": "H" 
			},
			{
				"x": 0.5458137983,
				"y": 4.1032422531,
				"z": 0.4364143482,
				"element": "H" 
			},
			{
				"x": -0.2593490649,
				"y": 2.9500245538,
				"z": -0.622187039,
				"element": "H" 
			},
			{
				"x": -0.4683753405,
				"y": 2.38154637,
				"z": 1.846054706,
				"element": "H" 
			},
			{
				"x": 1.2783032706,
				"y": 2.2381407736,
				"z": 1.9591474326,
				"element": "H" 
			},
			{
				"x": 0.266267928,
				"y": -0.9640243663,
				"z": -3.0492321968,
				"element": "H" 
			},
			{
				"x": -0.0380886167,
				"y": -5.0498548022,
				"z": -2.7282613741,
				"element": "H" 
			},
			{
				"x": -0.0034707101,
				"y": -4.1549987067,
				"z": -0.1179891781,
				"element": "H" 
			}
		],
		 "valence_orbital": [ 
			{
				"type": "occ",
				"energy": -0.30412,
				"method": "rhf"
			},
			{
				"type": "occ",
				"energy": -0.29951,
				"method": "rhf"
			},
			{
				"type": "occ",
				"energy": -0.27838,
				"method": "rhf"
			},
			{
				"type": "occ",
				"energy": -0.2668,
				"method": "rhf"
			},
			{
				"type": "occ",
				"energy": -0.23394,
				"method": "rhf"
			},
			{
				"type": "unocc",
				"energy": -0.03328,
				"method": "rhf"
			},
			{
				"type": "unocc",
				"energy": -0.00149,
				"method": "rhf"
			},
			{
				"type": "unocc",
				"energy": 0.006,
				"method": "rhf"
			},
			{
				"type": "unocc",
				"energy": 0.02906,
				"method": "rhf"
			},
			{
				"type": "unocc",
				"energy": 0.06735,
				"method": "rhf"
			}
		],
		"cosmo_sigma_profile": { 
			"-0.025": 0.0,
			"-0.024": 0.0,
			"-0.023": 0.0,
			"-0.022": 0.0,
			"-0.021": 0.0,
			"-0.02": 0.0,
			"-0.019": 0.143228118631,
			"-0.018": 0.835854451779,
			"-0.017": 0.970833214051,
			"-0.016": 0.701200307141,
			"-0.015": 0.811233414025,
			"-0.014": 0.286663219373,
			"-0.013": 0.261033997369,
			"-0.012": 1.39904095031,
			"-0.011": 0.952554703848,
			"-0.01": 1.84044694517,
			"-0.009": 3.66241115362,
			"-0.008": 8.38654519305,
			"-0.007": 13.0130016437,
			"-0.006": 14.2936117328,
			"-0.005": 14.589572065,
			"-0.004": 13.4364543195,
			"-0.003": 10.643925533,
			"-0.002": 9.20197540085,
			"-0.001": 10.908339161,
			"0.0": 12.9542804034,
			"0.001": 17.834560178,
			"0.002": 18.0396980486,
			"0.003": 14.4791515195,
			"0.004": 11.6735405275,
			"0.005": 8.41208426815,
			"0.006": 7.82936985098,
			"0.007": 11.1865610227,
			"0.008": 6.09785603289,
			"0.009": 3.44305047469,
			"0.01": 3.26314429383,
			"0.011": 5.95215125988,
			"0.012": 5.59700993847,
			"0.013": 1.44197077117,
			"0.014": 0.0,
			"0.015": 0.0,
			"0.016": 0.0,
			"0.017": 0.0,
			"0.018": 0.0,
			"0.019": 0.0,
			"0.02": 0.0,
			"0.021": 0.0,
			"0.022": 0.0,
			"0.023": 0.0,
			"0.024": 0.0,
			"0.025": 0.0
		}
	}
}
