{
	 "smiles": "NC(=O)NC1=CC2=C(OCCO2)C=C1", 
	 "Tm": 433.15, 
	 "num_atms": 24, 
	 "gaussian": { 
		 "optdone": 1, 
		 "sigma_profile": "yes", 
		 "theory": "DFT", 
		 "functional": "B3LYP", 
		 "basiset": "6-31G**", 
		 "properties": { 
			 "R2extent": 3436.8613, 
			 "electric_dipole_moment_norm": 5.03538300231, 
			 "electric_quadrupole_moment_norm": 12.0063875471, 
			 "total_energy": -684.164511622, 
			 "HOMO_LUMO_gap": 0.19554, 
			 "cosmo_polarized_energy": -16.86, 
			 "cosmo_cavitation_energy": 27.66, 
			 "cosmo_dispersion_energy": -21.04, 
			 "cosmo_repulsion_energy": 1.67, 
			 "cosmo_total_nonelectrostatic_energy": 8.28, 
			 "SMD_solvation_energy": 5.98 
		},
		"coords": [
			{
				"x": -0.3927633231,
				"y": 2.7340520684,
				"z": -1.0328493497,
				"element": "N" 
			},
			{
				"x": -1.6507263313,
				"y": 2.391924943,
				"z": -0.5741852983,
				"element": "C" 
			},
			{
				"x": -2.5841062199,
				"y": 3.1827741436,
				"z": -0.5445752234,
				"element": "O" 
			},
			{
				"x": -1.8107361822,
				"y": 1.0910284412,
				"z": -0.1119123965,
				"element": "N" 
			},
			{
				"x": -0.8977687535,
				"y": 0.017986292,
				"z": -0.0198030104,
				"element": "C" 
			},
			{
				"x": 0.4322883115,
				"y": 0.2034129034,
				"z": 0.3805251053,
				"element": "C" 
			},
			{
				"x": 1.2955037902,
				"y": -0.8892003604,
				"z": 0.4771575352,
				"element": "C" 
			},
			{
				"x": 0.828513715,
				"y": -2.1892219866,
				"z": 0.2242467713,
				"element": "C" 
			},
			{
				"x": 1.6427797091,
				"y": -3.291826517,
				"z": 0.3406591822,
				"element": "O" 
			},
			{
				"x": 2.8277283224,
				"y": -3.0439013166,
				"z": 1.0957697012,
				"element": "C" 
			},
			{
				"x": 3.4770439909,
				"y": -1.747690368,
				"z": 0.637768995,
				"element": "C" 
			},
			{
				"x": 2.5929175641,
				"y": -0.6468157678,
				"z": 0.8544715154,
				"element": "O" 
			},
			{
				"x": -0.5005275076,
				"y": -2.3718723322,
				"z": -0.1567854722,
				"element": "C" 
			},
			{
				"x": -1.3539034361,
				"y": -1.2821269783,
				"z": -0.2952259212,
				"element": "C" 
			},
			{
				"x": 0.2082573135,
				"y": 2.0085118666,
				"z": -1.3975050974,
				"element": "H" 
			},
			{
				"x": -0.391600872,
				"y": 3.60630812,
				"z": -1.5407651069,
				"element": "H" 
			},
			{
				"x": -2.7796732775,
				"y": 0.8944100337,
				"z": 0.094378586,
				"element": "H" 
			},
			{
				"x": 0.8111416781,
				"y": 1.1843969796,
				"z": 0.6417066726,
				"element": "H" 
			},
			{
				"x": 3.4882707404,
				"y": -3.8983947943,
				"z": 0.9285911347,
				"element": "H" 
			},
			{
				"x": 2.5851478611,
				"y": -2.9823269071,
				"z": 2.1657257395,
				"element": "H" 
			},
			{
				"x": 3.7330095786,
				"y": -1.815754147,
				"z": -0.4284222927,
				"element": "H" 
			},
			{
				"x": 4.3838113638,
				"y": -1.5327004405,
				"z": 1.2087146751,
				"element": "H" 
			},
			{
				"x": -0.8461384487,
				"y": -3.3820413263,
				"z": -0.3511580382,
				"element": "H" 
			},
			{
				"x": -2.3804695866,
				"y": -1.4341325497,
				"z": -0.6147284067,
				"element": "H" 
			}
		],
		 "valence_orbital": [ 
			{
				"type": "occ",
				"energy": -0.27553,
				"method": "rhf"
			},
			{
				"type": "occ",
				"energy": -0.26639,
				"method": "rhf"
			},
			{
				"type": "occ",
				"energy": -0.25096,
				"method": "rhf"
			},
			{
				"type": "occ",
				"energy": -0.23663,
				"method": "rhf"
			},
			{
				"type": "occ",
				"energy": -0.20358,
				"method": "rhf"
			},
			{
				"type": "unocc",
				"energy": -0.00804,
				"method": "rhf"
			},
			{
				"type": "unocc",
				"energy": 0.00358,
				"method": "rhf"
			},
			{
				"type": "unocc",
				"energy": 0.06874,
				"method": "rhf"
			},
			{
				"type": "unocc",
				"energy": 0.07932,
				"method": "rhf"
			},
			{
				"type": "unocc",
				"energy": 0.09373,
				"method": "rhf"
			}
		],
		"cosmo_sigma_profile": { 
			"-0.025": 0.0,
			"-0.024": 0.0,
			"-0.023": 0.0,
			"-0.022": 0.0,
			"-0.021": 0.0,
			"-0.02": 0.0,
			"-0.019": 0.0,
			"-0.018": 0.0,
			"-0.017": 0.0,
			"-0.016": 0.0,
			"-0.015": 0.0,
			"-0.014": 0.711808500333,
			"-0.013": 2.32245246981,
			"-0.012": 2.92184020147,
			"-0.011": 2.92296109627,
			"-0.01": 3.30926959681,
			"-0.009": 3.19029333353,
			"-0.008": 3.38587960012,
			"-0.007": 10.2309185347,
			"-0.006": 16.9521634606,
			"-0.005": 16.5908120827,
			"-0.004": 15.3835953607,
			"-0.003": 11.8943329432,
			"-0.002": 9.82082355485,
			"-0.001": 10.3467201995,
			"0.0": 8.48488479787,
			"0.001": 11.426899235,
			"0.002": 11.887716284,
			"0.003": 14.3075287288,
			"0.004": 15.4354875095,
			"0.005": 10.2497673394,
			"0.006": 4.65637723109,
			"0.007": 4.32239527064,
			"0.008": 3.87110273306,
			"0.009": 4.55608415022,
			"0.01": 4.80703237389,
			"0.011": 1.89370834605,
			"0.012": 1.65451239921,
			"0.013": 2.07926444536,
			"0.014": 6.80277745817,
			"0.015": 2.83008099269,
			"0.016": 0.0127622702845,
			"0.017": 0.0,
			"0.018": 0.0,
			"0.019": 0.0,
			"0.02": 0.0,
			"0.021": 0.0,
			"0.022": 0.0,
			"0.023": 0.0,
			"0.024": 0.0,
			"0.025": 0.0
		}
	}
}
