{
	 "smiles": "COC1=CC(=CC=C1C)C(O)=O", 
	 "Tm": 432.15, 
	 "num_atms": 22, 
	 "gaussian": { 
		 "optdone": 1, 
		 "sigma_profile": "yes", 
		 "theory": "DFT", 
		 "functional": "B3LYP", 
		 "basiset": "6-31G**", 
		 "properties": { 
			 "R2extent": 2490.9212, 
			 "electric_dipole_moment_norm": 4.10391961666, 
			 "electric_quadrupole_moment_norm": 18.3898712113, 
			 "total_energy": -574.662053, 
			 "HOMO_LUMO_gap": 0.18783, 
			 "cosmo_polarized_energy": -13.97, 
			 "cosmo_cavitation_energy": 25.96, 
			 "cosmo_dispersion_energy": -19.01, 
			 "cosmo_repulsion_energy": 1.52, 
			 "cosmo_total_nonelectrostatic_energy": 8.46, 
			 "SMD_solvation_energy": 6.46 
		},
		"coords": [
			{
				"x": -1.608786575,
				"y": 1.3464976113,
				"z": -2.5520931325,
				"element": "C" 
			},
			{
				"x": -1.8189222996,
				"y": 1.190493418,
				"z": -1.1546350176,
				"element": "O" 
			},
			{
				"x": -0.7630509449,
				"y": 0.8130639917,
				"z": -0.3791740711,
				"element": "C" 
			},
			{
				"x": 0.521325851,
				"y": 0.5809626011,
				"z": -0.8665331404,
				"element": "C" 
			},
			{
				"x": 1.550440902,
				"y": 0.2071231387,
				"z": 0.0106313945,
				"element": "C" 
			},
			{
				"x": 1.2753516882,
				"y": 0.0418819693,
				"z": 1.3706052407,
				"element": "C" 
			},
			{
				"x": -0.0187792952,
				"y": 0.2703438025,
				"z": 1.8455092017,
				"element": "C" 
			},
			{
				"x": -1.0530658074,
				"y": 0.6627469409,
				"z": 0.9976923648,
				"element": "C" 
			},
			{
				"x": -2.4486319834,
				"y": 0.9164102691,
				"z": 1.5016164353,
				"element": "C" 
			},
			{
				"x": 2.9031320288,
				"y": -0.0248139204,
				"z": -0.5901673349,
				"element": "C" 
			},
			{
				"x": 3.9621877359,
				"y": -0.0100357058,
				"z": 0.2636272332,
				"element": "O" 
			},
			{
				"x": 3.0853149047,
				"y": -0.2145361155,
				"z": -1.7709314646,
				"element": "O" 
			},
			{
				"x": -2.5725063095,
				"y": 1.6425603559,
				"z": -2.9685773485,
				"element": "H" 
			},
			{
				"x": -1.2843407182,
				"y": 0.4077949291,
				"z": -3.0173889092,
				"element": "H" 
			},
			{
				"x": -0.867008991,
				"y": 2.1266732676,
				"z": -2.7627200636,
				"element": "H" 
			},
			{
				"x": 0.7658101129,
				"y": 0.6766592387,
				"z": -1.916618532,
				"element": "H" 
			},
			{
				"x": 2.0364763131,
				"y": -0.3066330069,
				"z": 2.0639564068,
				"element": "H" 
			},
			{
				"x": -0.2330426703,
				"y": 0.1329392828,
				"z": 2.9019300115,
				"element": "H" 
			},
			{
				"x": -3.1716646462,
				"y": 0.2583620726,
				"z": 1.0075283797,
				"element": "H" 
			},
			{
				"x": -2.7657586308,
				"y": 1.9421555179,
				"z": 1.2840171607,
				"element": "H" 
			},
			{
				"x": -2.511415207,
				"y": 0.7545179503,
				"z": 2.5805234002,
				"element": "H" 
			},
			{
				"x": 3.6802345421,
				"y": 0.3083323911,
				"z": 1.1323017852,
				"element": "H" 
			}
		],
		 "valence_orbital": [ 
			{
				"type": "occ",
				"energy": -0.33266,
				"method": "rhf"
			},
			{
				"type": "occ",
				"energy": -0.31042,
				"method": "rhf"
			},
			{
				"type": "occ",
				"energy": -0.27093,
				"method": "rhf"
			},
			{
				"type": "occ",
				"energy": -0.25661,
				"method": "rhf"
			},
			{
				"type": "occ",
				"energy": -0.23236,
				"method": "rhf"
			},
			{
				"type": "unocc",
				"energy": -0.04453,
				"method": "rhf"
			},
			{
				"type": "unocc",
				"energy": -0.00574,
				"method": "rhf"
			},
			{
				"type": "unocc",
				"energy": 0.05554,
				"method": "rhf"
			},
			{
				"type": "unocc",
				"energy": 0.06666,
				"method": "rhf"
			},
			{
				"type": "unocc",
				"energy": 0.09894,
				"method": "rhf"
			}
		],
		"cosmo_sigma_profile": { 
			"-0.025": 0.0,
			"-0.024": 0.0,
			"-0.023": 0.0,
			"-0.022": 0.0,
			"-0.021": 0.0,
			"-0.02": 0.0,
			"-0.019": 0.136272280235,
			"-0.018": 0.544820569741,
			"-0.017": 0.818839512488,
			"-0.016": 1.31487444313,
			"-0.015": 0.869131999691,
			"-0.014": 0.517883606436,
			"-0.013": 0.759556689666,
			"-0.012": 1.12843930739,
			"-0.011": 1.63244967661,
			"-0.01": 0.767264709531,
			"-0.009": 1.15140150997,
			"-0.008": 1.60840482343,
			"-0.007": 2.46806661211,
			"-0.006": 10.7700618905,
			"-0.005": 15.7339996316,
			"-0.004": 17.4776496539,
			"-0.003": 17.747739752,
			"-0.002": 13.6602073507,
			"-0.001": 13.2395342459,
			"0.0": 16.9027507895,
			"0.001": 11.7725913493,
			"0.002": 11.8660859832,
			"0.003": 13.9503235555,
			"0.004": 11.0199788566,
			"0.005": 4.26319218695,
			"0.006": 4.81691244787,
			"0.007": 4.10347723046,
			"0.008": 4.48629586009,
			"0.009": 3.28736753331,
			"0.01": 4.3488643087,
			"0.011": 5.28498063365,
			"0.012": 5.3552944199,
			"0.013": 2.06059984804,
			"0.014": 0.204594183,
			"0.015": 0.0,
			"0.016": 0.0,
			"0.017": 0.0,
			"0.018": 0.0,
			"0.019": 0.0,
			"0.02": 0.0,
			"0.021": 0.0,
			"0.022": 0.0,
			"0.023": 0.0,
			"0.024": 0.0,
			"0.025": 0.0
		}
	}
}
