{
	 "smiles": "OC(=O)CCC1=C(F)C=C(F)C=C1", 
	 "Tm": 382.15, 
	 "num_atms": 21, 
	 "gaussian": { 
		 "optdone": 1, 
		 "sigma_profile": "yes", 
		 "theory": "DFT", 
		 "functional": "B3LYP", 
		 "basiset": "6-31G**", 
		 "properties": { 
			 "R2extent": 2986.947, 
			 "electric_dipole_moment_norm": 3.14511123333, 
			 "electric_quadrupole_moment_norm": 14.1060763574, 
			 "total_energy": -697.909726033, 
			 "HOMO_LUMO_gap": 0.23013, 
			 "cosmo_polarized_energy": -14.03, 
			 "cosmo_cavitation_energy": 26.38, 
			 "cosmo_dispersion_energy": -18.62, 
			 "cosmo_repulsion_energy": 1.45, 
			 "cosmo_total_nonelectrostatic_energy": 9.2, 
			 "SMD_solvation_energy": 6.37 
		},
		"coords": [
			{
				"x": -0.0017414154,
				"y": -3.5487153498,
				"z": -0.9753144002,
				"element": "O" 
			},
			{
				"x": 0.4750516424,
				"y": -2.7440564932,
				"z": 0.0105875436,
				"element": "C" 
			},
			{
				"x": 0.3474274591,
				"y": -3.067532199,
				"z": 1.1657270807,
				"element": "O" 
			},
			{
				"x": 1.1954290597,
				"y": -1.4846736827,
				"z": -0.4592264477,
				"element": "C" 
			},
			{
				"x": 1.396153945,
				"y": -0.4577828615,
				"z": 0.6683141266,
				"element": "C" 
			},
			{
				"x": 0.1205004902,
				"y": 0.2441671859,
				"z": 1.0775835022,
				"element": "C" 
			},
			{
				"x": -0.3775999434,
				"y": 1.3055807036,
				"z": 0.3178505336,
				"element": "C" 
			},
			{
				"x": 0.3077375826,
				"y": 1.6783059485,
				"z": -0.7912978317,
				"element": "F" 
			},
			{
				"x": -1.5383460237,
				"y": 1.9994629803,
				"z": 0.6326930286,
				"element": "C" 
			},
			{
				"x": -2.2321207196,
				"y": 1.5943810491,
				"z": 1.7678810496,
				"element": "C" 
			},
			{
				"x": -3.3625661295,
				"y": 2.2490066612,
				"z": 2.0993749884,
				"element": "F" 
			},
			{
				"x": -1.7974348404,
				"y": 0.539511027,
				"z": 2.5619264923,
				"element": "C" 
			},
			{
				"x": -0.6237851014,
				"y": -0.1260919277,
				"z": 2.2054006573,
				"element": "C" 
			},
			{
				"x": 0.1606454464,
				"y": -3.1490621505,
				"z": -1.8416169063,
				"element": "H" 
			},
			{
				"x": 2.1704481724,
				"y": -1.8020595782,
				"z": -0.8550728081,
				"element": "H" 
			},
			{
				"x": 0.6545997083,
				"y": -1.0277225107,
				"z": -1.297064283,
				"element": "H" 
			},
			{
				"x": 1.8217007281,
				"y": -0.9727742584,
				"z": 1.5330332585,
				"element": "H" 
			},
			{
				"x": 2.1261811589,
				"y": 0.2833998484,
				"z": 0.3291147453,
				"element": "H" 
			},
			{
				"x": -1.8862965965,
				"y": 2.8212612957,
				"z": 0.0189980352,
				"element": "H" 
			},
			{
				"x": -2.3720330447,
				"y": 0.2516338834,
				"z": 3.4348444974,
				"element": "H" 
			},
			{
				"x": -0.2781515784,
				"y": -0.9641395712,
				"z": 2.8012631377,
				"element": "H" 
			}
		],
		 "valence_orbital": [ 
			{
				"type": "occ",
				"energy": -0.34766,
				"method": "rhf"
			},
			{
				"type": "occ",
				"energy": -0.32087,
				"method": "rhf"
			},
			{
				"type": "occ",
				"energy": -0.27825,
				"method": "rhf"
			},
			{
				"type": "occ",
				"energy": -0.25955,
				"method": "rhf"
			},
			{
				"type": "occ",
				"energy": -0.24302,
				"method": "rhf"
			},
			{
				"type": "unocc",
				"energy": -0.01289,
				"method": "rhf"
			},
			{
				"type": "unocc",
				"energy": -0.00433,
				"method": "rhf"
			},
			{
				"type": "unocc",
				"energy": 0.00513,
				"method": "rhf"
			},
			{
				"type": "unocc",
				"energy": 0.05232,
				"method": "rhf"
			},
			{
				"type": "unocc",
				"energy": 0.08033,
				"method": "rhf"
			}
		],
		"cosmo_sigma_profile": { 
			"-0.025": 0.0,
			"-0.024": 0.0,
			"-0.023": 0.0,
			"-0.022": 0.0,
			"-0.021": 0.0,
			"-0.02": 0.0,
			"-0.019": 0.756545242363,
			"-0.018": 0.943196739213,
			"-0.017": 0.940592665038,
			"-0.016": 1.57834340555,
			"-0.015": 0.955305852506,
			"-0.014": 0.898960727888,
			"-0.013": 0.69031001554,
			"-0.012": 1.32696766029,
			"-0.011": 1.45992697958,
			"-0.01": 1.17674577638,
			"-0.009": 1.2762972433,
			"-0.008": 4.38067027376,
			"-0.007": 6.99478436775,
			"-0.006": 7.32573669929,
			"-0.005": 10.2931324169,
			"-0.004": 12.681659642,
			"-0.003": 12.3050388935,
			"-0.002": 12.1904569496,
			"-0.001": 11.7874921398,
			"0.0": 15.3860004441,
			"0.001": 17.2163707754,
			"0.002": 17.5237889766,
			"0.003": 15.6750965688,
			"0.004": 23.2384938896,
			"0.005": 6.20667906471,
			"0.006": 2.30160446375,
			"0.007": 2.3051238672,
			"0.008": 2.33473167953,
			"0.009": 3.5814816912,
			"0.01": 4.08978550626,
			"0.011": 4.90886064274,
			"0.012": 3.45685789298,
			"0.013": 1.761347359,
			"0.014": 0.0714558919143,
			"0.015": 0.0,
			"0.016": 0.0,
			"0.017": 0.0,
			"0.018": 0.0,
			"0.019": 0.0,
			"0.02": 0.0,
			"0.021": 0.0,
			"0.022": 0.0,
			"0.023": 0.0,
			"0.024": 0.0,
			"0.025": 0.0
		}
	}
}
