{
	 "smiles": "OC1=CC=C(C=C1)N1C=NC2=C1C=CC=C2", 
	 "Tm": 552.15, 
	 "num_atms": 26, 
	 "gaussian": { 
		 "optdone": 1, 
		 "sigma_profile": "yes", 
		 "theory": "DFT", 
		 "functional": "B3LYP", 
		 "basiset": "6-31G**", 
		 "properties": { 
			 "R2extent": 4551.1733, 
			 "electric_dipole_moment_norm": 4.39231591305, 
			 "electric_quadrupole_moment_norm": 11.2141818743, 
			 "total_energy": -686.139902556, 
			 "HOMO_LUMO_gap": 0.19099, 
			 "cosmo_polarized_energy": -14.84, 
			 "cosmo_cavitation_energy": 30.4, 
			 "cosmo_dispersion_energy": -22.29, 
			 "cosmo_repulsion_energy": 1.7, 
			 "cosmo_total_nonelectrostatic_energy": 9.81, 
			 "SMD_solvation_energy": 3.76 
		},
		"coords": [
			{
				"x": -1.8274707497,
				"y": 1.1523450149,
				"z": 5.6583937216,
				"element": "O" 
			},
			{
				"x": -1.5511320014,
				"y": 0.842977946,
				"z": 4.3590450308,
				"element": "C" 
			},
			{
				"x": -1.9535363337,
				"y": 1.6446127387,
				"z": 3.2847057214,
				"element": "C" 
			},
			{
				"x": -1.6480349189,
				"y": 1.2691274141,
				"z": 1.978077874,
				"element": "C" 
			},
			{
				"x": -0.918889901,
				"y": 0.1010809806,
				"z": 1.7338622076,
				"element": "C" 
			},
			{
				"x": -0.5071093361,
				"y": -0.6923820087,
				"z": 2.8126349282,
				"element": "C" 
			},
			{
				"x": -0.8302411689,
				"y": -0.3323152125,
				"z": 4.1162745245,
				"element": "C" 
			},
			{
				"x": -0.6117356391,
				"y": -0.2927729714,
				"z": 0.402722595,
				"element": "N" 
			},
			{
				"x": -0.8284350747,
				"y": -1.5451272781,
				"z": -0.1489277071,
				"element": "C" 
			},
			{
				"x": -0.4670002338,
				"y": -1.652349059,
				"z": -1.3993297897,
				"element": "N" 
			},
			{
				"x": 0.0296914825,
				"y": -0.3973340807,
				"z": -1.7284107024,
				"element": "C" 
			},
			{
				"x": -0.0509701972,
				"y": 0.4756092591,
				"z": -0.6162231929,
				"element": "C" 
			},
			{
				"x": 0.4074545243,
				"y": 1.7947124509,
				"z": -0.6658266856,
				"element": "C" 
			},
			{
				"x": 0.939039963,
				"y": 2.228704458,
				"z": -1.8775924413,
				"element": "C" 
			},
			{
				"x": 1.0150766177,
				"y": 1.3768529568,
				"z": -2.9983380792,
				"element": "C" 
			},
			{
				"x": 0.5676618298,
				"y": 0.0614265298,
				"z": -2.9376704175,
				"element": "C" 
			},
			{
				"x": -2.3232877702,
				"y": 1.9806586496,
				"z": 5.6928319537,
				"element": "H" 
			},
			{
				"x": -2.5195646324,
				"y": 2.5555993324,
				"z": 3.4660884938,
				"element": "H" 
			},
			{
				"x": -1.9866132231,
				"y": 1.8756754518,
				"z": 1.144801631,
				"element": "H" 
			},
			{
				"x": 0.0789740511,
				"y": -1.5867221487,
				"z": 2.6260363013,
				"element": "H" 
			},
			{
				"x": -0.5181682662,
				"y": -0.9399246155,
				"z": 4.9588158924,
				"element": "H" 
			},
			{
				"x": -1.2819024524,
				"y": -2.3302849158,
				"z": 0.4427657963,
				"element": "H" 
			},
			{
				"x": 0.3604492953,
				"y": 2.4500564528,
				"z": 0.1975113389,
				"element": "H" 
			},
			{
				"x": 1.3062362049,
				"y": 3.2475788459,
				"z": -1.9593288839,
				"element": "H" 
			},
			{
				"x": 1.4359712141,
				"y": 1.7582479302,
				"z": -3.9239771903,
				"element": "H" 
			},
			{
				"x": 0.6304367162,
				"y": -0.6043541214,
				"z": -3.7923429206,
				"element": "H" 
			}
		],
		 "valence_orbital": [ 
			{
				"type": "occ",
				"energy": -0.27107,
				"method": "rhf"
			},
			{
				"type": "occ",
				"energy": -0.2689,
				"method": "rhf"
			},
			{
				"type": "occ",
				"energy": -0.24327,
				"method": "rhf"
			},
			{
				"type": "occ",
				"energy": -0.22343,
				"method": "rhf"
			},
			{
				"type": "occ",
				"energy": -0.21314,
				"method": "rhf"
			},
			{
				"type": "unocc",
				"energy": -0.02215,
				"method": "rhf"
			},
			{
				"type": "unocc",
				"energy": -0.01639,
				"method": "rhf"
			},
			{
				"type": "unocc",
				"energy": -0.00697,
				"method": "rhf"
			},
			{
				"type": "unocc",
				"energy": 0.02837,
				"method": "rhf"
			},
			{
				"type": "unocc",
				"energy": 0.05586,
				"method": "rhf"
			}
		],
		"cosmo_sigma_profile": { 
			"-0.025": 0.0,
			"-0.024": 0.0,
			"-0.023": 0.0,
			"-0.022": 0.0,
			"-0.021": 0.0,
			"-0.02": 0.0,
			"-0.019": 0.0222417362233,
			"-0.018": 0.77838949517,
			"-0.017": 1.21719272167,
			"-0.016": 0.934073842389,
			"-0.015": 1.01454543199,
			"-0.014": 1.06927588139,
			"-0.013": 1.14076656239,
			"-0.012": 0.551043576154,
			"-0.011": 0.969884050777,
			"-0.01": 1.46011768126,
			"-0.009": 2.83820147472,
			"-0.008": 2.93393152136,
			"-0.007": 7.66575184861,
			"-0.006": 12.341232986,
			"-0.005": 17.6562054001,
			"-0.004": 18.5769626738,
			"-0.003": 14.760167657,
			"-0.002": 12.9376299461,
			"-0.001": 13.9952024339,
			"0.0": 14.2283319276,
			"0.001": 15.3444589237,
			"0.002": 16.1431749332,
			"0.003": 19.4295379251,
			"0.004": 22.5241273145,
			"0.005": 13.258650697,
			"0.006": 9.28699714728,
			"0.007": 2.82038662697,
			"0.008": 3.43052873079,
			"0.009": 2.58448065161,
			"0.01": 2.36328358808,
			"0.011": 3.42604134081,
			"0.012": 1.28183482547,
			"0.013": 1.14842923958,
			"0.014": 1.29163014433,
			"0.015": 0.830460116773,
			"0.016": 1.000742042,
			"0.017": 1.03659228164,
			"0.018": 0.127141991469,
			"0.019": 0.0,
			"0.02": 0.0,
			"0.021": 0.0,
			"0.022": 0.0,
			"0.023": 0.0,
			"0.024": 0.0,
			"0.025": 0.0
		}
	}
}
