{
	 "smiles": "CCC(=O)N(C1=CC=CC=C1)C1(CCN(CCC2=CC=CC=C2)CC1C)C(=O)OC", 
	 "Tm": 450.15, 
	 "num_atms": 62, 
	 "gaussian": { 
		 "optdone": 1, 
		 "sigma_profile": "yes", 
		 "theory": "DFT", 
		 "functional": "B3LYP", 
		 "basiset": "6-31G**", 
		 "properties": { 
			 "R2extent": 11584.9057, 
			 "electric_dipole_moment_norm": 4.08597226985, 
			 "electric_quadrupole_moment_norm": 10.8336129269, 
			 "total_energy": -1307.12858159, 
			 "HOMO_LUMO_gap": 0.19919, 
			 "cosmo_polarized_energy": -15.59, 
			 "cosmo_cavitation_energy": 58.67, 
			 "cosmo_dispersion_energy": -36.21, 
			 "cosmo_repulsion_energy": 2.72, 
			 "cosmo_total_nonelectrostatic_energy": 25.18, 
			 "SMD_solvation_energy": 10.05 
		},
		"coords": [
			{
				"x": 3.9496549364,
				"y": -1.0352429063,
				"z": 1.7957722999,
				"element": "C" 
			},
			{
				"x": 2.481591806,
				"y": -0.605202139,
				"z": 1.9120456683,
				"element": "C" 
			},
			{
				"x": 2.0743465392,
				"y": 0.3312048886,
				"z": 0.7763015852,
				"element": "C" 
			},
			{
				"x": 2.7134595272,
				"y": 1.3624405859,
				"z": 0.5845257511,
				"element": "O" 
			},
			{
				"x": 0.9450170674,
				"y": 0.0236746817,
				"z": 0.0292523115,
				"element": "N" 
			},
			{
				"x": 0.5847660023,
				"y": -1.3702142263,
				"z": -0.1059457422,
				"element": "C" 
			},
			{
				"x": -0.6007341052,
				"y": -1.8646889479,
				"z": 0.4447914572,
				"element": "C" 
			},
			{
				"x": -0.9050512041,
				"y": -3.2231399159,
				"z": 0.3332131138,
				"element": "C" 
			},
			{
				"x": -0.0312805761,
				"y": -4.09181202,
				"z": -0.3236451653,
				"element": "C" 
			},
			{
				"x": 1.1496938067,
				"y": -3.5972058243,
				"z": -0.8812223993,
				"element": "C" 
			},
			{
				"x": 1.4558915915,
				"y": -2.2399909973,
				"z": -0.7778039432,
				"element": "C" 
			},
			{
				"x": 0.495129726,
				"y": 1.0582852879,
				"z": -0.9672406394,
				"element": "C" 
			},
			{
				"x": -0.4432210414,
				"y": 0.4497614781,
				"z": -2.0705966513,
				"element": "C" 
			},
			{
				"x": -1.9322233635,
				"y": 0.7948364347,
				"z": -1.9014522178,
				"element": "C" 
			},
			{
				"x": -2.3428369502,
				"y": 0.7692547118,
				"z": -0.5010216703,
				"element": "N" 
			},
			{
				"x": -3.7946982695,
				"y": 0.8835267418,
				"z": -0.3791687212,
				"element": "C" 
			},
			{
				"x": -4.3481799919,
				"y": 0.7408336578,
				"z": 1.0506759415,
				"element": "C" 
			},
			{
				"x": -4.1779240198,
				"y": -0.6192228833,
				"z": 1.6972231508,
				"element": "C" 
			},
			{
				"x": -3.4160983986,
				"y": -0.7746865533,
				"z": 2.8624549891,
				"element": "C" 
			},
			{
				"x": -3.2926842709,
				"y": -2.0201443732,
				"z": 3.4835227908,
				"element": "C" 
			},
			{
				"x": -3.9368701067,
				"y": -3.1359010987,
				"z": 2.9480563136,
				"element": "C" 
			},
			{
				"x": -4.7027821523,
				"y": -2.9956704546,
				"z": 1.7870024519,
				"element": "C" 
			},
			{
				"x": -4.8203789878,
				"y": -1.7500185944,
				"z": 1.1708681563,
				"element": "C" 
			},
			{
				"x": -1.6267114446,
				"y": 1.7832240087,
				"z": 0.2889643514,
				"element": "C" 
			},
			{
				"x": -0.2860297224,
				"y": 2.2404981559,
				"z": -0.317964006,
				"element": "C" 
			},
			{
				"x": 0.4370984429,
				"y": 3.1213865869,
				"z": 0.7102175375,
				"element": "C" 
			},
			{
				"x": 1.7097134238,
				"y": 1.6076722482,
				"z": -1.7461782518,
				"element": "C" 
			},
			{
				"x": 1.8359215117,
				"y": 2.7588425035,
				"z": -2.10166892,
				"element": "O" 
			},
			{
				"x": 2.5297252702,
				"y": 0.6119989229,
				"z": -2.1552244989,
				"element": "O" 
			},
			{
				"x": 3.6817006852,
				"y": 1.0461057064,
				"z": -2.8942059488,
				"element": "C" 
			},
			{
				"x": 4.2663410999,
				"y": -1.5739495899,
				"z": 2.6937850254,
				"element": "H" 
			},
			{
				"x": 4.5890214202,
				"y": -0.1582431285,
				"z": 1.6696213715,
				"element": "H" 
			},
			{
				"x": 4.1005217314,
				"y": -1.6966407735,
				"z": 0.9363379464,
				"element": "H" 
			},
			{
				"x": 2.3552120132,
				"y": -0.0102285645,
				"z": 2.8254221826,
				"element": "H" 
			},
			{
				"x": 1.822588632,
				"y": -1.4697633501,
				"z": 1.9945374146,
				"element": "H" 
			},
			{
				"x": -1.2859427113,
				"y": -1.1870764562,
				"z": 0.9368129583,
				"element": "H" 
			},
			{
				"x": -1.8273614671,
				"y": -3.5954655158,
				"z": 0.7678367369,
				"element": "H" 
			},
			{
				"x": -0.2706448874,
				"y": -5.1484551579,
				"z": -0.4038749505,
				"element": "H" 
			},
			{
				"x": 1.8317300066,
				"y": -4.2652302859,
				"z": -1.3997022978,
				"element": "H" 
			},
			{
				"x": 2.3569754389,
				"y": -1.8346977781,
				"z": -1.22567686,
				"element": "H" 
			},
			{
				"x": -0.3115257964,
				"y": -0.6303703936,
				"z": -2.1074064963,
				"element": "H" 
			},
			{
				"x": -0.1261967612,
				"y": 0.8315388981,
				"z": -3.0461453901,
				"element": "H" 
			},
			{
				"x": -2.5236876624,
				"y": 0.0512615261,
				"z": -2.4472090509,
				"element": "H" 
			},
			{
				"x": -2.1535623066,
				"y": 1.7710989505,
				"z": -2.3764182723,
				"element": "H" 
			},
			{
				"x": -4.2438324123,
				"y": 0.1090278323,
				"z": -1.0126430942,
				"element": "H" 
			},
			{
				"x": -4.147597981,
				"y": 1.8585195293,
				"z": -0.7753397148,
				"element": "H" 
			},
			{
				"x": -3.9108198689,
				"y": 1.5093639386,
				"z": 1.6961885195,
				"element": "H" 
			},
			{
				"x": -5.4193302198,
				"y": 0.9754310699,
				"z": 0.9920416886,
				"element": "H" 
			},
			{
				"x": -2.9203831888,
				"y": 0.0918979686,
				"z": 3.2935152818,
				"element": "H" 
			},
			{
				"x": -2.6978132203,
				"y": -2.115533851,
				"z": 4.3876045807,
				"element": "H" 
			},
			{
				"x": -3.8498720348,
				"y": -4.1040393602,
				"z": 3.4329153028,
				"element": "H" 
			},
			{
				"x": -5.2162665104,
				"y": -3.856155324,
				"z": 1.3666052805,
				"element": "H" 
			},
			{
				"x": -5.429703261,
				"y": -1.6521965118,
				"z": 0.2753368589,
				"element": "H" 
			},
			{
				"x": -2.241758654,
				"y": 2.6938750346,
				"z": 0.4097413862,
				"element": "H" 
			},
			{
				"x": -1.448382896,
				"y": 1.3894885331,
				"z": 1.298334964,
				"element": "H" 
			},
			{
				"x": -0.50698502,
				"y": 2.8913260406,
				"z": -1.1715725756,
				"element": "H" 
			},
			{
				"x": 0.6676338926,
				"y": 2.5768172414,
				"z": 1.6293140999,
				"element": "H" 
			},
			{
				"x": 1.3658313298,
				"y": 3.5218720329,
				"z": 0.3085251709,
				"element": "H" 
			},
			{
				"x": -0.218915087,
				"y": 3.9590536683,
				"z": 0.976539155,
				"element": "H" 
			},
			{
				"x": 4.3142908088,
				"y": 1.6769752032,
				"z": -2.2648869269,
				"element": "H" 
			},
			{
				"x": 4.2118985589,
				"y": 0.1365374253,
				"z": -3.1778058899,
				"element": "H" 
			},
			{
				"x": 3.3842312832,
				"y": 1.6107554815,
				"z": -3.7810834997,
				"element": "H" 
			}
		],
		 "valence_orbital": [ 
			{
				"type": "occ",
				"energy": -0.24999,
				"method": "rhf"
			},
			{
				"type": "occ",
				"energy": -0.24332,
				"method": "rhf"
			},
			{
				"type": "occ",
				"energy": -0.24169,
				"method": "rhf"
			},
			{
				"type": "occ",
				"energy": -0.23266,
				"method": "rhf"
			},
			{
				"type": "occ",
				"energy": -0.20964,
				"method": "rhf"
			},
			{
				"type": "unocc",
				"energy": -0.01045,
				"method": "rhf"
			},
			{
				"type": "unocc",
				"energy": -0.00743,
				"method": "rhf"
			},
			{
				"type": "unocc",
				"energy": -0.00613,
				"method": "rhf"
			},
			{
				"type": "unocc",
				"energy": -0.0012,
				"method": "rhf"
			},
			{
				"type": "unocc",
				"energy": 0.02103,
				"method": "rhf"
			}
		],
		"cosmo_sigma_profile": { 
			"-0.025": 0.0,
			"-0.024": 0.0,
			"-0.023": 0.0,
			"-0.022": 0.0,
			"-0.021": 0.0,
			"-0.02": 0.0,
			"-0.019": 0.0,
			"-0.018": 0.0,
			"-0.017": 0.0,
			"-0.016": 0.0,
			"-0.015": 0.0,
			"-0.014": 0.0,
			"-0.013": 0.0,
			"-0.012": 0.0,
			"-0.011": 0.0,
			"-0.01": 0.0,
			"-0.009": 0.0,
			"-0.008": 0.0,
			"-0.007": 0.291367503085,
			"-0.006": 7.55698357862,
			"-0.005": 24.4091397856,
			"-0.004": 42.4982424746,
			"-0.003": 59.5923096494,
			"-0.002": 60.889033467,
			"-0.001": 54.1957514181,
			"0.0": 44.4583975533,
			"0.001": 35.9999574069,
			"0.002": 27.231089741,
			"0.003": 27.3633749242,
			"0.004": 18.7282398156,
			"0.005": 14.8191090648,
			"0.006": 10.2707887018,
			"0.007": 5.79348077607,
			"0.008": 4.41191818758,
			"0.009": 4.60484994157,
			"0.01": 3.30312223831,
			"0.011": 4.26292849147,
			"0.012": 5.03307450425,
			"0.013": 2.48335144082,
			"0.014": 1.22980327909,
			"0.015": 0.135587045779,
			"0.016": 0.0,
			"0.017": 0.0,
			"0.018": 0.0,
			"0.019": 0.0,
			"0.02": 0.0,
			"0.021": 0.0,
			"0.022": 0.0,
			"0.023": 0.0,
			"0.024": 0.0,
			"0.025": 0.0
		}
	}
}
