{
	 "smiles": "CC1=CC(C)=C(C)C=C1S(N)(=O)=O", 
	 "Tm": 453.15, 
	 "num_atms": 26, 
	 "gaussian": { 
		 "optdone": 1, 
		 "sigma_profile": "yes", 
		 "theory": "DFT", 
		 "functional": "B3LYP", 
		 "basiset": "6-31G**", 
		 "properties": { 
			 "R2extent": 3934.1416, 
			 "electric_dipole_moment_norm": 4.13332915336, 
			 "electric_quadrupole_moment_norm": 22.8117790873, 
			 "total_energy": -954.133836366, 
			 "HOMO_LUMO_gap": 0.21238, 
			 "cosmo_polarized_energy": -14.4, 
			 "cosmo_cavitation_energy": 29.62, 
			 "cosmo_dispersion_energy": -22.11, 
			 "cosmo_repulsion_energy": 1.69, 
			 "cosmo_total_nonelectrostatic_energy": 9.2, 
			 "SMD_solvation_energy": 4.89 
		},
		"coords": [
			{
				"x": 1.2951805397,
				"y": 2.6785358972,
				"z": 0.8340726117,
				"element": "C" 
			},
			{
				"x": 0.6374235401,
				"y": 1.325362954,
				"z": 0.7270007689,
				"element": "C" 
			},
			{
				"x": 0.8344373801,
				"y": 0.5391819407,
				"z": -0.4138578205,
				"element": "C" 
			},
			{
				"x": 0.2619833693,
				"y": -0.7255712857,
				"z": -0.587695656,
				"element": "C" 
			},
			{
				"x": 0.5301158632,
				"y": -1.5087968594,
				"z": -1.8493213267,
				"element": "C" 
			},
			{
				"x": -0.5604242684,
				"y": -1.252749705,
				"z": 0.4284478366,
				"element": "C" 
			},
			{
				"x": -1.1989513698,
				"y": -2.6141945533,
				"z": 0.2950971473,
				"element": "C" 
			},
			{
				"x": -0.7744923092,
				"y": -0.4845763406,
				"z": 1.5743535797,
				"element": "C" 
			},
			{
				"x": -0.1937408942,
				"y": 0.7769843201,
				"z": 1.7206752713,
				"element": "C" 
			},
			{
				"x": -0.5189810968,
				"y": 1.6274045407,
				"z": 3.2667455016,
				"element": "S" 
			},
			{
				"x": -1.342447219,
				"y": 3.0282638413,
				"z": 2.761064638,
				"element": "N" 
			},
			{
				"x": 0.7377669648,
				"y": 2.1104458764,
				"z": 3.8495208881,
				"element": "O" 
			},
			{
				"x": -1.4351202538,
				"y": 0.7899796271,
				"z": 4.0508223675,
				"element": "O" 
			},
			{
				"x": 1.9363938533,
				"y": 2.7375757718,
				"z": 1.7174826392,
				"element": "H" 
			},
			{
				"x": 1.898405393,
				"y": 2.88004536,
				"z": -0.0545001451,
				"element": "H" 
			},
			{
				"x": 0.544024733,
				"y": 3.469289269,
				"z": 0.9297240305,
				"element": "H" 
			},
			{
				"x": 1.469210772,
				"y": 0.9347799601,
				"z": -1.2033200528,
				"element": "H" 
			},
			{
				"x": -0.3988270468,
				"y": -1.7366061005,
				"z": -2.385763784,
				"element": "H" 
			},
			{
				"x": 1.1830018793,
				"y": -0.9558959758,
				"z": -2.5291164474,
				"element": "H" 
			},
			{
				"x": 1.0098347609,
				"y": -2.4702373913,
				"z": -1.6300890489,
				"element": "H" 
			},
			{
				"x": -1.8547716752,
				"y": -2.6698465958,
				"z": -0.5822530384,
				"element": "H" 
			},
			{
				"x": -1.7988680415,
				"y": -2.854959096,
				"z": 1.176083972,
				"element": "H" 
			},
			{
				"x": -0.4466846053,
				"y": -3.4034814776,
				"z": 0.1772551141,
				"element": "H" 
			},
			{
				"x": -1.3993301453,
				"y": -0.8636611881,
				"z": 2.3757876616,
				"element": "H" 
			},
			{
				"x": -2.3460484415,
				"y": 2.8878336739,
				"z": 2.8545263778,
				"element": "H" 
			},
			{
				"x": -1.0328916818,
				"y": 3.7975935368,
				"z": 3.3512569136,
				"element": "H" 
			}
		],
		 "valence_orbital": [ 
			{
				"type": "occ",
				"energy": -0.30448,
				"method": "rhf"
			},
			{
				"type": "occ",
				"energy": -0.2986,
				"method": "rhf"
			},
			{
				"type": "occ",
				"energy": -0.28995,
				"method": "rhf"
			},
			{
				"type": "occ",
				"energy": -0.25486,
				"method": "rhf"
			},
			{
				"type": "occ",
				"energy": -0.24261,
				"method": "rhf"
			},
			{
				"type": "unocc",
				"energy": -0.03023,
				"method": "rhf"
			},
			{
				"type": "unocc",
				"energy": -0.0054,
				"method": "rhf"
			},
			{
				"type": "unocc",
				"energy": 0.06024,
				"method": "rhf"
			},
			{
				"type": "unocc",
				"energy": 0.08332,
				"method": "rhf"
			},
			{
				"type": "unocc",
				"energy": 0.09192,
				"method": "rhf"
			}
		],
		"cosmo_sigma_profile": { 
			"-0.025": 0.0,
			"-0.024": 0.0,
			"-0.023": 0.0,
			"-0.022": 0.0,
			"-0.021": 0.0,
			"-0.02": 0.0,
			"-0.019": 0.0,
			"-0.018": 0.0,
			"-0.017": 0.0,
			"-0.016": 0.0,
			"-0.015": 0.644877274476,
			"-0.014": 2.72645480437,
			"-0.013": 2.27700314671,
			"-0.012": 2.42200069982,
			"-0.011": 2.3337300618,
			"-0.01": 1.91481612658,
			"-0.009": 1.82128788883,
			"-0.008": 2.24901205646,
			"-0.007": 1.56694659282,
			"-0.006": 3.90623627314,
			"-0.005": 12.0949150249,
			"-0.004": 20.1668127849,
			"-0.003": 17.103205626,
			"-0.002": 20.867213698,
			"-0.001": 24.3475127313,
			"0.0": 27.15950309,
			"0.001": 15.0504611337,
			"0.002": 11.88545411,
			"0.003": 11.095366841,
			"0.004": 12.7454939762,
			"0.005": 3.62906250339,
			"0.006": 3.97655597347,
			"0.007": 3.52469560297,
			"0.008": 3.63324149497,
			"0.009": 4.0749940543,
			"0.01": 5.90284306177,
			"0.011": 8.60479975052,
			"0.012": 5.56225774673,
			"0.013": 0.0279955158018,
			"0.014": 0.0,
			"0.015": 0.0,
			"0.016": 0.0,
			"0.017": 0.0,
			"0.018": 0.0,
			"0.019": 0.0,
			"0.02": 0.0,
			"0.021": 0.0,
			"0.022": 0.0,
			"0.023": 0.0,
			"0.024": 0.0,
			"0.025": 0.0
		}
	}
}
