{
	 "smiles": "N#CC1(C#N)C2COC(C3=C2CCCC3)C1(C#N)C#N", 
	 "Tm": 446.15, 
	 "num_atms": 32, 
	 "gaussian": { 
		 "optdone": 1, 
		 "sigma_profile": "yes", 
		 "theory": "DFT", 
		 "functional": "B3LYP", 
		 "basiset": "6-31G**", 
		 "properties": { 
			 "R2extent": 4427.895, 
			 "electric_dipole_moment_norm": 7.56535450656, 
			 "electric_quadrupole_moment_norm": 10.6863331634, 
			 "total_energy": -872.917305919, 
			 "HOMO_LUMO_gap": 0.22855, 
			 "cosmo_polarized_energy": -19.55, 
			 "cosmo_cavitation_energy": 36.5, 
			 "cosmo_dispersion_energy": -23.13, 
			 "cosmo_repulsion_energy": 1.77, 
			 "cosmo_total_nonelectrostatic_energy": 15.14, 
			 "SMD_solvation_energy": 9.67 
		},
		"coords": [
			{
				"x": -2.4151770386,
				"y": -3.3410518619,
				"z": 0.073838229,
				"element": "N" 
			},
			{
				"x": -1.8390583066,
				"y": -2.3793679358,
				"z": 0.3723226528,
				"element": "C" 
			},
			{
				"x": -1.1343748238,
				"y": -1.1190246028,
				"z": 0.6639902258,
				"element": "C" 
			},
			{
				"x": -2.0858091583,
				"y": -0.2220254653,
				"z": 1.3413146346,
				"element": "C" 
			},
			{
				"x": -2.8544552871,
				"y": 0.5054774081,
				"z": 1.8163242285,
				"element": "N" 
			},
			{
				"x": -0.6745963166,
				"y": -0.4321057952,
				"z": -0.694991506,
				"element": "C" 
			},
			{
				"x": 0.3230076848,
				"y": -1.3751724638,
				"z": -1.3887103012,
				"element": "C" 
			},
			{
				"x": 1.4418764882,
				"y": -1.6158660887,
				"z": -0.5238100967,
				"element": "O" 
			},
			{
				"x": 1.4173125954,
				"y": -0.8202770017,
				"z": 0.6511000721,
				"element": "C" 
			},
			{
				"x": 1.1721954185,
				"y": 0.6400868745,
				"z": 0.3595796315,
				"element": "C" 
			},
			{
				"x": 0.0466239467,
				"y": 0.8493971206,
				"z": -0.3438894365,
				"element": "C" 
			},
			{
				"x": -0.4532369178,
				"y": 2.2100825051,
				"z": -0.748853113,
				"element": "C" 
			},
			{
				"x": 0.2795783503,
				"y": 3.3204763807,
				"z": 0.0248925132,
				"element": "C" 
			},
			{
				"x": 1.79199829,
				"y": 3.0561235165,
				"z": 0.0948116137,
				"element": "C" 
			},
			{
				"x": 2.098888773,
				"y": 1.7333788061,
				"z": 0.8193131167,
				"element": "C" 
			},
			{
				"x": 0.209461869,
				"y": -1.3616918239,
				"z": 1.5472840098,
				"element": "C" 
			},
			{
				"x": 0.4268895601,
				"y": -2.7856767461,
				"z": 1.8445996623,
				"element": "C" 
			},
			{
				"x": 0.6500685685,
				"y": -3.8955504703,
				"z": 2.0965529237,
				"element": "N" 
			},
			{
				"x": 0.1903461708,
				"y": -0.6210422576,
				"z": 2.8168596547,
				"element": "C" 
			},
			{
				"x": 0.2555641571,
				"y": -0.0185970177,
				"z": 3.8064054784,
				"element": "N" 
			},
			{
				"x": -1.5598632767,
				"y": -0.2742843386,
				"z": -1.3154222219,
				"element": "H" 
			},
			{
				"x": -0.130193256,
				"y": -2.3432014706,
				"z": -1.6262481404,
				"element": "H" 
			},
			{
				"x": 0.67256184,
				"y": -0.9123360282,
				"z": -2.318708911,
				"element": "H" 
			},
			{
				"x": 2.3519223346,
				"y": -1.0120988606,
				"z": 1.1804673385,
				"element": "H" 
			},
			{
				"x": -0.3174917022,
				"y": 2.3413864738,
				"z": -1.8331999874,
				"element": "H" 
			},
			{
				"x": -1.5346355062,
				"y": 2.2712502766,
				"z": -0.5722348389,
				"element": "H" 
			},
			{
				"x": -0.1263354947,
				"y": 3.3707955772,
				"z": 1.0429010807,
				"element": "H" 
			},
			{
				"x": 0.0823198871,
				"y": 4.2905650859,
				"z": -0.4426706802,
				"element": "H" 
			},
			{
				"x": 2.1998546522,
				"y": 3.0116860817,
				"z": -0.923512919,
				"element": "H" 
			},
			{
				"x": 2.2999988293,
				"y": 3.8825883897,
				"z": 0.6021461278,
				"element": "H" 
			},
			{
				"x": 3.1409073887,
				"y": 1.4334780335,
				"z": 0.6475575515,
				"element": "H" 
			},
			{
				"x": 1.9972502803,
				"y": 1.8590976985,
				"z": 1.9071914073,
				"element": "H" 
			}
		],
		 "valence_orbital": [ 
			{
				"type": "occ",
				"energy": -0.35035,
				"method": "rhf"
			},
			{
				"type": "occ",
				"energy": -0.34492,
				"method": "rhf"
			},
			{
				"type": "occ",
				"energy": -0.33656,
				"method": "rhf"
			},
			{
				"type": "occ",
				"energy": -0.29543,
				"method": "rhf"
			},
			{
				"type": "occ",
				"energy": -0.27807,
				"method": "rhf"
			},
			{
				"type": "unocc",
				"energy": -0.04952,
				"method": "rhf"
			},
			{
				"type": "unocc",
				"energy": -0.04617,
				"method": "rhf"
			},
			{
				"type": "unocc",
				"energy": -0.03366,
				"method": "rhf"
			},
			{
				"type": "unocc",
				"energy": -0.01859,
				"method": "rhf"
			},
			{
				"type": "unocc",
				"energy": -0.01031,
				"method": "rhf"
			}
		],
		"cosmo_sigma_profile": { 
			"-0.025": 0.0,
			"-0.024": 0.0,
			"-0.023": 0.0,
			"-0.022": 0.0,
			"-0.021": 0.0,
			"-0.02": 0.0,
			"-0.019": 0.0,
			"-0.018": 0.0,
			"-0.017": 0.0,
			"-0.016": 0.104915866634,
			"-0.015": 0.248960004094,
			"-0.014": 0.324625017774,
			"-0.013": 0.639184711894,
			"-0.012": 1.34314642775,
			"-0.011": 2.66171425016,
			"-0.01": 4.46051792378,
			"-0.009": 6.75344426655,
			"-0.008": 6.33733777581,
			"-0.007": 10.5063214776,
			"-0.006": 10.5692423374,
			"-0.005": 13.0524142854,
			"-0.004": 16.6919007926,
			"-0.003": 27.7014908277,
			"-0.002": 31.040200961,
			"-0.001": 27.6183745327,
			"0.0": 17.365962894,
			"0.001": 10.2579096917,
			"0.002": 9.03842052101,
			"0.003": 10.8673908473,
			"0.004": 10.3591034729,
			"0.005": 13.0886258809,
			"0.006": 11.6608160363,
			"0.007": 12.1202176714,
			"0.008": 11.6551814801,
			"0.009": 10.6654999733,
			"0.01": 10.4035560383,
			"0.011": 3.95753854218,
			"0.012": 0.0,
			"0.013": 0.0,
			"0.014": 0.0,
			"0.015": 0.0,
			"0.016": 0.0,
			"0.017": 0.0,
			"0.018": 0.0,
			"0.019": 0.0,
			"0.02": 0.0,
			"0.021": 0.0,
			"0.022": 0.0,
			"0.023": 0.0,
			"0.024": 0.0,
			"0.025": 0.0
		}
	}
}
