{
	 "smiles": "NC1=NN=C(N)S1", 
	 "Tm": 466.15, 
	 "num_atms": 11, 
	 "gaussian": { 
		 "optdone": 1, 
		 "sigma_profile": "yes", 
		 "theory": "DFT", 
		 "functional": "B3LYP", 
		 "basiset": "6-31G**", 
		 "properties": { 
			 "R2extent": 957.3698, 
			 "electric_dipole_moment_norm": 3.44411109432, 
			 "electric_quadrupole_moment_norm": 12.9813821548, 
			 "total_energy": -695.784005845, 
			 "HOMO_LUMO_gap": 0.2049, 
			 "cosmo_polarized_energy": -17.68, 
			 "cosmo_cavitation_energy": 17.13, 
			 "cosmo_dispersion_energy": -13.72, 
			 "cosmo_repulsion_energy": 1.13, 
			 "cosmo_total_nonelectrostatic_energy": 4.54, 
			 "SMD_solvation_energy": 0.92 
		},
		"coords": [
			{
				"x": 1.0261988385,
				"y": 0.1034215893,
				"z": -1.9239351568,
				"element": "N" 
			},
			{
				"x": 0.3952740792,
				"y": -0.2111685516,
				"z": -0.7344475936,
				"element": "C" 
			},
			{
				"x": -0.5541054874,
				"y": 0.4928223164,
				"z": -0.2016432082,
				"element": "N" 
			},
			{
				"x": -0.9654726698,
				"y": 0.0130232462,
				"z": 1.0234127437,
				"element": "N" 
			},
			{
				"x": -0.3215467687,
				"y": -1.0472408647,
				"z": 1.4002523564,
				"element": "C" 
			},
			{
				"x": -0.4991986747,
				"y": -1.6758209154,
				"z": 2.6189542374,
				"element": "N" 
			},
			{
				"x": 0.9296626565,
				"y": -1.5833286399,
				"z": 0.2590047985,
				"element": "S" 
			},
			{
				"x": 0.5353841363,
				"y": 0.8448023636,
				"z": -2.4110127509,
				"element": "H" 
			},
			{
				"x": 1.2316194821,
				"y": -0.6823237367,
				"z": -2.5277015943,
				"element": "H" 
			},
			{
				"x": -1.3148874607,
				"y": -1.3134089257,
				"z": 3.0996753872,
				"element": "H" 
			},
			{
				"x": -0.4874281313,
				"y": -2.6873778814,
				"z": 2.5917407806,
				"element": "H" 
			}
		],
		 "valence_orbital": [ 
			{
				"type": "occ",
				"energy": -0.30565,
				"method": "rhf"
			},
			{
				"type": "occ",
				"energy": -0.29315,
				"method": "rhf"
			},
			{
				"type": "occ",
				"energy": -0.27584,
				"method": "rhf"
			},
			{
				"type": "occ",
				"energy": -0.25395,
				"method": "rhf"
			},
			{
				"type": "occ",
				"energy": -0.21012,
				"method": "rhf"
			},
			{
				"type": "unocc",
				"energy": -0.00522,
				"method": "rhf"
			},
			{
				"type": "unocc",
				"energy": -0.00245,
				"method": "rhf"
			},
			{
				"type": "unocc",
				"energy": 0.0593,
				"method": "rhf"
			},
			{
				"type": "unocc",
				"energy": 0.06252,
				"method": "rhf"
			},
			{
				"type": "unocc",
				"energy": 0.08383,
				"method": "rhf"
			}
		],
		"cosmo_sigma_profile": { 
			"-0.025": 0.0,
			"-0.024": 0.0,
			"-0.023": 0.0,
			"-0.022": 0.0,
			"-0.021": 0.0,
			"-0.02": 0.0,
			"-0.019": 0.0,
			"-0.018": 0.0,
			"-0.017": 0.0,
			"-0.016": 0.0,
			"-0.015": 0.45572683778,
			"-0.014": 4.01003805693,
			"-0.013": 5.26533036304,
			"-0.012": 5.43997890636,
			"-0.011": 5.65197072976,
			"-0.01": 4.52967965358,
			"-0.009": 3.8787254461,
			"-0.008": 3.45061344194,
			"-0.007": 3.75605364843,
			"-0.006": 3.70748685276,
			"-0.005": 2.41841275175,
			"-0.004": 3.73088314027,
			"-0.003": 3.62265177467,
			"-0.002": 4.90788262,
			"-0.001": 5.15689123254,
			"0.0": 7.84067007867,
			"0.001": 8.73399388202,
			"0.002": 8.85536932725,
			"0.003": 8.28826228168,
			"0.004": 6.14777488614,
			"0.005": 4.16274820021,
			"0.006": 3.57830216462,
			"0.007": 2.61447603495,
			"0.008": 2.87759000718,
			"0.009": 3.84927045771,
			"0.01": 3.28823127511,
			"0.011": 3.88112885853,
			"0.012": 3.39535914352,
			"0.013": 4.73755243997,
			"0.014": 2.64057335772,
			"0.015": 2.63818151409,
			"0.016": 0.848960324688,
			"0.017": 0.0,
			"0.018": 0.0,
			"0.019": 0.0,
			"0.02": 0.0,
			"0.021": 0.0,
			"0.022": 0.0,
			"0.023": 0.0,
			"0.024": 0.0,
			"0.025": 0.0
		}
	}
}
