{
	 "smiles": "FC(F)(F)C(F)(F)C(F)(F)C(=O)N1C=CN=C1", 
	 "Tm": 284.15, 
	 "num_atms": 20, 
	 "gaussian": { 
		 "optdone": 1, 
		 "sigma_profile": "yes", 
		 "theory": "DFT", 
		 "functional": "B3LYP", 
		 "basiset": "6-31G**", 
		 "properties": { 
			 "R2extent": 5797.2331, 
			 "electric_dipole_moment_norm": 0.23848999979, 
			 "electric_quadrupole_moment_norm": 10.2338219307, 
			 "total_energy": -1152.11945149, 
			 "HOMO_LUMO_gap": 0.17867, 
			 "cosmo_polarized_energy": -7.6, 
			 "cosmo_cavitation_energy": 28.01, 
			 "cosmo_dispersion_energy": -19.18, 
			 "cosmo_repulsion_energy": 1.33, 
			 "cosmo_total_nonelectrostatic_energy": 10.17, 
			 "SMD_solvation_energy": 6.97 
		},
		"coords": [
			{
				"x": -1.918893802,
				"y": 4.1040835854,
				"z": 2.7149336271,
				"element": "F" 
			},
			{
				"x": -1.7326670664,
				"y": 2.8387774348,
				"z": 3.0983926381,
				"element": "C" 
			},
			{
				"x": -0.4938351259,
				"y": 2.7026410138,
				"z": 3.5907918232,
				"element": "F" 
			},
			{
				"x": -2.6158129923,
				"y": 2.5418364034,
				"z": 4.0588226452,
				"element": "F" 
			},
			{
				"x": -1.9412580538,
				"y": 1.8721960057,
				"z": 1.9049244048,
				"element": "C" 
			},
			{
				"x": -1.9934390013,
				"y": 0.6096144095,
				"z": 2.3983160516,
				"element": "F" 
			},
			{
				"x": -3.1296951083,
				"y": 2.1648621809,
				"z": 1.3288833992,
				"element": "F" 
			},
			{
				"x": -0.8407683612,
				"y": 1.9282331699,
				"z": 0.812276274,
				"element": "C" 
			},
			{
				"x": 0.2920413263,
				"y": 1.3536383964,
				"z": 1.3029293409,
				"element": "F" 
			},
			{
				"x": -0.5792578758,
				"y": 3.222589306,
				"z": 0.5419936594,
				"element": "F" 
			},
			{
				"x": -1.2805078606,
				"y": 1.2544207282,
				"z": -0.5225183976,
				"element": "C" 
			},
			{
				"x": -1.6954657348,
				"y": 1.9446558463,
				"z": -1.422031902,
				"element": "O" 
			},
			{
				"x": -1.1844934956,
				"y": -0.1343746973,
				"z": -0.618715866,
				"element": "N" 
			},
			{
				"x": -1.5809856666,
				"y": -0.8361491976,
				"z": -1.7654174242,
				"element": "C" 
			},
			{
				"x": -1.3348656769,
				"y": -2.1440844839,
				"z": -1.4939275174,
				"element": "C" 
			},
			{
				"x": -0.795533162,
				"y": -2.2995962191,
				"z": -0.2189204591,
				"element": "N" 
			},
			{
				"x": -0.7129012368,
				"y": -1.1040929966,
				"z": 0.2802458171,
				"element": "C" 
			},
			{
				"x": -1.9846618887,
				"y": -0.3139156246,
				"z": -2.6164653055,
				"element": "H" 
			},
			{
				"x": -1.5093928345,
				"y": -2.9986925833,
				"z": -2.1318830739,
				"element": "H" 
			},
			{
				"x": -0.3388063829,
				"y": -0.846842678,
				"z": 1.2563702652,
				"element": "H" 
			}
		],
		 "valence_orbital": [ 
			{
				"type": "occ",
				"energy": -0.37953,
				"method": "rhf"
			},
			{
				"type": "occ",
				"energy": -0.32252,
				"method": "rhf"
			},
			{
				"type": "occ",
				"energy": -0.31265,
				"method": "rhf"
			},
			{
				"type": "occ",
				"energy": -0.28986,
				"method": "rhf"
			},
			{
				"type": "occ",
				"energy": -0.26097,
				"method": "rhf"
			},
			{
				"type": "unocc",
				"energy": -0.0823,
				"method": "rhf"
			},
			{
				"type": "unocc",
				"energy": 0.01091,
				"method": "rhf"
			},
			{
				"type": "unocc",
				"energy": 0.03058,
				"method": "rhf"
			},
			{
				"type": "unocc",
				"energy": 0.04492,
				"method": "rhf"
			},
			{
				"type": "unocc",
				"energy": 0.07186,
				"method": "rhf"
			}
		],
		"cosmo_sigma_profile": { 
			"-0.025": 0.0,
			"-0.024": 0.0,
			"-0.023": 0.0,
			"-0.022": 0.0,
			"-0.021": 0.0,
			"-0.02": 0.0,
			"-0.019": 0.0,
			"-0.018": 0.0,
			"-0.017": 0.0,
			"-0.016": 0.0,
			"-0.015": 0.0,
			"-0.014": 0.0,
			"-0.013": 0.0,
			"-0.012": 0.0,
			"-0.011": 0.0364893216306,
			"-0.01": 1.30485188712,
			"-0.009": 2.98229460676,
			"-0.008": 5.57193317016,
			"-0.007": 5.79978921828,
			"-0.006": 6.08775224614,
			"-0.005": 7.96894570331,
			"-0.004": 7.81490453243,
			"-0.003": 14.9412392888,
			"-0.002": 17.4750035102,
			"-0.001": 21.5605125537,
			"0.0": 33.6708450238,
			"0.001": 53.8336762902,
			"0.002": 10.9202414196,
			"0.003": 6.65380059856,
			"0.004": 4.28422794038,
			"0.005": 2.80601546848,
			"0.006": 3.78883562301,
			"0.007": 4.05582886787,
			"0.008": 4.68033415415,
			"0.009": 2.93998973105,
			"0.01": 1.79473206449,
			"0.011": 0.846529365596,
			"0.012": 1.38095500396,
			"0.013": 0.848204479441,
			"0.014": 1.03984816972,
			"0.015": 1.01996269108,
			"0.016": 0.448309685031,
			"0.017": 0.0,
			"0.018": 0.0,
			"0.019": 0.0,
			"0.02": 0.0,
			"0.021": 0.0,
			"0.022": 0.0,
			"0.023": 0.0,
			"0.024": 0.0,
			"0.025": 0.0
		}
	}
}
