{
	 "smiles": "O=C1OC(C=CC2=CC=CC=C2)=N/C/1=CC1=CN=CC=C1", 
	 "Tm": 439.15, 
	 "num_atms": 33, 
	 "gaussian": { 
		 "optdone": 1, 
		 "sigma_profile": "yes", 
		 "theory": "DFT", 
		 "functional": "B3LYP", 
		 "basiset": "6-31G**", 
		 "properties": { 
			 "R2extent": 9659.3394, 
			 "electric_dipole_moment_norm": 2.83979487992, 
			 "electric_quadrupole_moment_norm": 29.7313497151, 
			 "total_energy": -914.976113578, 
			 "HOMO_LUMO_gap": 0.11584, 
			 "cosmo_polarized_energy": -14.18, 
			 "cosmo_cavitation_energy": 39.8, 
			 "cosmo_dispersion_energy": -28.63, 
			 "cosmo_repulsion_energy": 2.14, 
			 "cosmo_total_nonelectrostatic_energy": 13.32, 
			 "SMD_solvation_energy": 5.52 
		},
		"coords": [
			{
				"x": -2.3537632919,
				"y": 3.6906485541,
				"z": -1.6661380381,
				"element": "O" 
			},
			{
				"x": -1.8198607001,
				"y": 2.7028419295,
				"z": -1.2374930323,
				"element": "C" 
			},
			{
				"x": -2.3616159592,
				"y": 1.9400046996,
				"z": -0.1907026301,
				"element": "O" 
			},
			{
				"x": -1.4765894815,
				"y": 0.902863867,
				"z": 0.0158236159,
				"element": "C" 
			},
			{
				"x": -1.830449713,
				"y": -0.0254873669,
				"z": 1.0605411401,
				"element": "C" 
			},
			{
				"x": -1.0528467152,
				"y": -1.0886246569,
				"z": 1.3682383042,
				"element": "C" 
			},
			{
				"x": -1.2953960161,
				"y": -2.0953034037,
				"z": 2.3950437734,
				"element": "C" 
			},
			{
				"x": -2.4261683781,
				"y": -2.0852848534,
				"z": 3.2375257099,
				"element": "C" 
			},
			{
				"x": -2.6026600522,
				"y": -3.0734742139,
				"z": 4.1989785661,
				"element": "C" 
			},
			{
				"x": -1.6572736223,
				"y": -4.0951220201,
				"z": 4.3442861269,
				"element": "C" 
			},
			{
				"x": -0.5320579837,
				"y": -4.1204452195,
				"z": 3.518873454,
				"element": "C" 
			},
			{
				"x": -0.3541409025,
				"y": -3.1307416376,
				"z": 2.5551369123,
				"element": "C" 
			},
			{
				"x": -0.429821661,
				"y": 0.8868464122,
				"z": -0.7558695238,
				"element": "N" 
			},
			{
				"x": -0.5615025736,
				"y": 1.99431596,
				"z": -1.5867638368,
				"element": "C" 
			},
			{
				"x": 0.2594443147,
				"y": 2.4377830617,
				"z": -2.5749808601,
				"element": "C" 
			},
			{
				"x": 1.5134643493,
				"y": 1.8856750332,
				"z": -3.0521726577,
				"element": "C" 
			},
			{
				"x": 2.1154325035,
				"y": 0.7195624379,
				"z": -2.5235391827,
				"element": "C" 
			},
			{
				"x": 3.2687760485,
				"y": 0.2135901681,
				"z": -2.964011811,
				"element": "N" 
			},
			{
				"x": 3.8896914129,
				"y": 0.8517751191,
				"z": -3.9668889434,
				"element": "C" 
			},
			{
				"x": 3.393263289,
				"y": 2.0100890944,
				"z": -4.5680511697,
				"element": "C" 
			},
			{
				"x": 2.1919087875,
				"y": 2.530830646,
				"z": -4.1039553613,
				"element": "C" 
			},
			{
				"x": -2.7592065547,
				"y": 0.1885661846,
				"z": 1.5785161336,
				"element": "H" 
			},
			{
				"x": -0.1408112363,
				"y": -1.2132509875,
				"z": 0.7873122914,
				"element": "H" 
			},
			{
				"x": -3.1696590991,
				"y": -1.3005842275,
				"z": 3.1391092352,
				"element": "H" 
			},
			{
				"x": -3.4794034608,
				"y": -3.0504954237,
				"z": 4.8394762726,
				"element": "H" 
			},
			{
				"x": -1.7996494228,
				"y": -4.8649144143,
				"z": 5.0969516438,
				"element": "H" 
			},
			{
				"x": 0.2059102388,
				"y": -4.9098746394,
				"z": 3.6255399901,
				"element": "H" 
			},
			{
				"x": 0.5223209229,
				"y": -3.1512460654,
				"z": 1.9128989124,
				"element": "H" 
			},
			{
				"x": -0.087461315,
				"y": 3.3411187102,
				"z": -3.0733007595,
				"element": "H" 
			},
			{
				"x": 1.6262046121,
				"y": 0.1910571376,
				"z": -1.7115455908,
				"element": "H" 
			},
			{
				"x": 4.8280489358,
				"y": 0.4151872734,
				"z": -4.304389196,
				"element": "H" 
			},
			{
				"x": 3.9372880032,
				"y": 2.4868296636,
				"z": -5.37729957,
				"element": "H" 
			},
			{
				"x": 1.7706847209,
				"y": 3.4309631777,
				"z": -4.5445499186,
				"element": "H" 
			}
		],
		 "valence_orbital": [ 
			{
				"type": "occ",
				"energy": -0.27277,
				"method": "rhf"
			},
			{
				"type": "occ",
				"energy": -0.26764,
				"method": "rhf"
			},
			{
				"type": "occ",
				"energy": -0.2561,
				"method": "rhf"
			},
			{
				"type": "occ",
				"energy": -0.25515,
				"method": "rhf"
			},
			{
				"type": "occ",
				"energy": -0.21697,
				"method": "rhf"
			},
			{
				"type": "unocc",
				"energy": -0.10113,
				"method": "rhf"
			},
			{
				"type": "unocc",
				"energy": -0.05617,
				"method": "rhf"
			},
			{
				"type": "unocc",
				"energy": -0.02549,
				"method": "rhf"
			},
			{
				"type": "unocc",
				"energy": -0.01617,
				"method": "rhf"
			},
			{
				"type": "unocc",
				"energy": 0.00595,
				"method": "rhf"
			}
		],
		"cosmo_sigma_profile": { 
			"-0.025": 0.0,
			"-0.024": 0.0,
			"-0.023": 0.0,
			"-0.022": 0.0,
			"-0.021": 0.0,
			"-0.02": 0.0,
			"-0.019": 0.0,
			"-0.018": 0.0,
			"-0.017": 0.0,
			"-0.016": 0.0,
			"-0.015": 0.0,
			"-0.014": 0.0,
			"-0.013": 0.0,
			"-0.012": 0.0,
			"-0.011": 0.0,
			"-0.01": 0.0764993153989,
			"-0.009": 2.9045606293,
			"-0.008": 6.31732830809,
			"-0.007": 13.0047599477,
			"-0.006": 21.2155106984,
			"-0.005": 22.7080784759,
			"-0.004": 19.6725315626,
			"-0.003": 18.9909053535,
			"-0.002": 20.086316619,
			"-0.001": 20.2153377814,
			"0.0": 26.1991003152,
			"0.001": 37.672705133,
			"0.002": 29.3069773704,
			"0.003": 18.8644034222,
			"0.004": 19.7152659757,
			"0.005": 8.69469979318,
			"0.006": 5.47821027492,
			"0.007": 7.25298321297,
			"0.008": 4.21227430129,
			"0.009": 4.26690257745,
			"0.01": 5.98023609082,
			"0.011": 3.99042643546,
			"0.012": 1.47976157327,
			"0.013": 1.17158593199,
			"0.014": 0.603222703354,
			"0.015": 0.711525331316,
			"0.016": 0.9672269808,
			"0.017": 0.100652358483,
			"0.018": 0.0,
			"0.019": 0.0,
			"0.02": 0.0,
			"0.021": 0.0,
			"0.022": 0.0,
			"0.023": 0.0,
			"0.024": 0.0,
			"0.025": 0.0
		}
	}
}
