{
	 "smiles": "S=C=NC(C1=CC=CC=C1)C1=CC=CC=C1", 
	 "Tm": 332.15, 
	 "num_atms": 27, 
	 "gaussian": { 
		 "optdone": 1, 
		 "sigma_profile": "yes", 
		 "theory": "DFT", 
		 "functional": "B3LYP", 
		 "basiset": "6-31G**", 
		 "properties": { 
			 "R2extent": 5161.1959, 
			 "electric_dipole_moment_norm": 3.62127839582, 
			 "electric_quadrupole_moment_norm": 12.0390181319, 
			 "total_energy": -993.050390699, 
			 "HOMO_LUMO_gap": 0.21232, 
			 "cosmo_polarized_energy": -7.9, 
			 "cosmo_cavitation_energy": 34.22, 
			 "cosmo_dispersion_energy": -23.79, 
			 "cosmo_repulsion_energy": 1.86, 
			 "cosmo_total_nonelectrostatic_energy": 12.29, 
			 "SMD_solvation_energy": 5.6 
		},
		"coords": [
			{
				"x": 1.7550404545,
				"y": -3.1672872489,
				"z": -2.619794566,
				"element": "S" 
			},
			{
				"x": 1.2388696767,
				"y": -1.9730693717,
				"z": -1.7043864854,
				"element": "C" 
			},
			{
				"x": 0.8392774211,
				"y": -1.1379194795,
				"z": -0.9476190075,
				"element": "N" 
			},
			{
				"x": 0.5067126911,
				"y": 0.2584695108,
				"z": -0.749211969,
				"element": "C" 
			},
			{
				"x": -0.0044944495,
				"y": 0.5011687905,
				"z": 0.6690600638,
				"element": "C" 
			},
			{
				"x": 0.0195571276,
				"y": -0.4924487835,
				"z": 1.6502260362,
				"element": "C" 
			},
			{
				"x": -0.4615860318,
				"y": -0.2265074134,
				"z": 2.9354495929,
				"element": "C" 
			},
			{
				"x": -0.9741434783,
				"y": 1.0314935643,
				"z": 3.2482491791,
				"element": "C" 
			},
			{
				"x": -1.0033677329,
				"y": 2.0279716327,
				"z": 2.2683587117,
				"element": "C" 
			},
			{
				"x": -0.5204207098,
				"y": 1.764513771,
				"z": 0.9886124433,
				"element": "C" 
			},
			{
				"x": 1.6945854163,
				"y": 1.1455104612,
				"z": -1.122500173,
				"element": "C" 
			},
			{
				"x": 2.8282944272,
				"y": 1.2056547815,
				"z": -0.3018835385,
				"element": "C" 
			},
			{
				"x": 3.9161608388,
				"y": 1.9966552044,
				"z": -0.6651197303,
				"element": "C" 
			},
			{
				"x": 3.8809930514,
				"y": 2.7406763558,
				"z": -1.8482864758,
				"element": "C" 
			},
			{
				"x": 2.7539528075,
				"y": 2.6866683763,
				"z": -2.6676602778,
				"element": "C" 
			},
			{
				"x": 1.6659683828,
				"y": 1.8881656739,
				"z": -2.3064392527,
				"element": "C" 
			},
			{
				"x": -0.3117640763,
				"y": 0.487315084,
				"z": -1.4451755811,
				"element": "H" 
			},
			{
				"x": 0.4084851173,
				"y": -1.475225553,
				"z": 1.4050078614,
				"element": "H" 
			},
			{
				"x": -0.4364381648,
				"y": -1.0080787468,
				"z": 3.6894361492,
				"element": "H" 
			},
			{
				"x": -1.3501708196,
				"y": 1.2364551445,
				"z": 4.2463465173,
				"element": "H" 
			},
			{
				"x": -1.4025549978,
				"y": 3.0108472628,
				"z": 2.501772383,
				"element": "H" 
			},
			{
				"x": -0.5368433848,
				"y": 2.5459758399,
				"z": 0.2330437035,
				"element": "H" 
			},
			{
				"x": 2.8523193207,
				"y": 0.6357276717,
				"z": 0.6223579714,
				"element": "H" 
			},
			{
				"x": 4.7916559592,
				"y": 2.0364337055,
				"z": -0.0235212003,
				"element": "H" 
			},
			{
				"x": 4.7288600206,
				"y": 3.3592797505,
				"z": -2.127677083,
				"element": "H" 
			},
			{
				"x": 2.7190721719,
				"y": 3.2619272191,
				"z": -3.5882479406,
				"element": "H" 
			},
			{
				"x": 0.7912789609,
				"y": 1.8419267965,
				"z": -2.950797332,
				"element": "H" 
			}
		],
		 "valence_orbital": [ 
			{
				"type": "occ",
				"energy": -0.26093,
				"method": "rhf"
			},
			{
				"type": "occ",
				"energy": -0.25661,
				"method": "rhf"
			},
			{
				"type": "occ",
				"energy": -0.25323,
				"method": "rhf"
			},
			{
				"type": "occ",
				"energy": -0.24446,
				"method": "rhf"
			},
			{
				"type": "occ",
				"energy": -0.24197,
				"method": "rhf"
			},
			{
				"type": "unocc",
				"energy": -0.02965,
				"method": "rhf"
			},
			{
				"type": "unocc",
				"energy": -0.01625,
				"method": "rhf"
			},
			{
				"type": "unocc",
				"energy": -0.01415,
				"method": "rhf"
			},
			{
				"type": "unocc",
				"energy": -0.00597,
				"method": "rhf"
			},
			{
				"type": "unocc",
				"energy": 0.00094,
				"method": "rhf"
			}
		],
		"cosmo_sigma_profile": { 
			"-0.025": 0.0,
			"-0.024": 0.0,
			"-0.023": 0.0,
			"-0.022": 0.0,
			"-0.021": 0.0,
			"-0.02": 0.0,
			"-0.019": 0.0,
			"-0.018": 0.0,
			"-0.017": 0.0,
			"-0.016": 0.0,
			"-0.015": 0.0,
			"-0.014": 0.0,
			"-0.013": 0.0,
			"-0.012": 0.0,
			"-0.011": 0.0,
			"-0.01": 0.0,
			"-0.009": 0.314323411705,
			"-0.008": 3.47218821589,
			"-0.007": 3.90557233005,
			"-0.006": 13.7824432018,
			"-0.005": 21.6382959976,
			"-0.004": 24.6547746474,
			"-0.003": 20.3459489547,
			"-0.002": 16.2488201684,
			"-0.001": 19.1947709349,
			"0.0": 19.0321390722,
			"0.001": 26.2989021993,
			"0.002": 21.737073589,
			"0.003": 20.9192360448,
			"0.004": 23.8284790603,
			"0.005": 27.5023022978,
			"0.006": 14.8144743213,
			"0.007": 0.791419826666,
			"0.008": 0.0,
			"0.009": 0.0,
			"0.01": 0.0,
			"0.011": 0.0,
			"0.012": 0.0,
			"0.013": 0.0,
			"0.014": 0.0,
			"0.015": 0.0,
			"0.016": 0.0,
			"0.017": 0.0,
			"0.018": 0.0,
			"0.019": 0.0,
			"0.02": 0.0,
			"0.021": 0.0,
			"0.022": 0.0,
			"0.023": 0.0,
			"0.024": 0.0,
			"0.025": 0.0
		}
	}
}
