{
	 "smiles": "CC1=NC(=CS1)C1=CC2=C(CCNC2)S1", 
	 "Tm": 385.15, 
	 "num_atms": 27, 
	 "gaussian": { 
		 "optdone": 1, 
		 "sigma_profile": "yes", 
		 "theory": "DFT", 
		 "functional": "B3LYP", 
		 "basiset": "6-31G**", 
		 "properties": { 
			 "R2extent": 6100.7952, 
			 "electric_dipole_moment_norm": 1.1699563838, 
			 "electric_quadrupole_moment_norm": 12.9541962132, 
			 "total_energy": -1332.2688836, 
			 "HOMO_LUMO_gap": 0.16095, 
			 "cosmo_polarized_energy": -9.7, 
			 "cosmo_cavitation_energy": 32.84, 
			 "cosmo_dispersion_energy": -25.55, 
			 "cosmo_repulsion_energy": 1.92, 
			 "cosmo_total_nonelectrostatic_energy": 9.2, 
			 "SMD_solvation_energy": 0.95 
		},
		"coords": [
			{
				"x": 3.3670390406,
				"y": 1.8857995385,
				"z": -3.9243577431,
				"element": "C" 
			},
			{
				"x": 3.1907081216,
				"y": 0.75180004,
				"z": -2.9609257787,
				"element": "C" 
			},
			{
				"x": 2.2198338228,
				"y": 0.6634334707,
				"z": -2.1043736871,
				"element": "N" 
			},
			{
				"x": 2.303304816,
				"y": -0.4914687061,
				"z": -1.3376926648,
				"element": "C" 
			},
			{
				"x": 3.3757978073,
				"y": -1.2971217826,
				"z": -1.6307378496,
				"element": "C" 
			},
			{
				"x": 4.3216747627,
				"y": -0.6035535235,
				"z": -2.9050460285,
				"element": "S" 
			},
			{
				"x": 1.2754626542,
				"y": -0.7233564182,
				"z": -0.3314528658,
				"element": "C" 
			},
			{
				"x": 0.2120637733,
				"y": 0.0930948331,
				"z": -0.0331521593,
				"element": "C" 
			},
			{
				"x": -0.6167814766,
				"y": -0.4127843213,
				"z": 1.0131436882,
				"element": "C" 
			},
			{
				"x": -0.1869141414,
				"y": -1.6182541668,
				"z": 1.5028242527,
				"element": "C" 
			},
			{
				"x": -0.8731768867,
				"y": -2.3823744674,
				"z": 2.598193302,
				"element": "C" 
			},
			{
				"x": -2.3006891455,
				"y": -1.8313995886,
				"z": 2.7525227471,
				"element": "C" 
			},
			{
				"x": -2.247702313,
				"y": -0.3707691142,
				"z": 2.8239865911,
				"element": "N" 
			},
			{
				"x": -1.8628940391,
				"y": 0.2456625201,
				"z": 1.5516063211,
				"element": "C" 
			},
			{
				"x": 1.2622796582,
				"y": -2.1512808052,
				"z": 0.688096433,
				"element": "S" 
			},
			{
				"x": 2.5533369219,
				"y": 2.5975952696,
				"z": -3.7743042501,
				"element": "H" 
			},
			{
				"x": 4.3202328824,
				"y": 2.4015498571,
				"z": -3.767127725,
				"element": "H" 
			},
			{
				"x": 3.3444036978,
				"y": 1.5378625221,
				"z": -4.9624994748,
				"element": "H" 
			},
			{
				"x": 3.6550749416,
				"y": -2.2368898654,
				"z": -1.1764882737,
				"element": "H" 
			},
			{
				"x": 0.0470971844,
				"y": 1.0279912526,
				"z": -0.5556186687,
				"element": "H" 
			},
			{
				"x": -0.3314932149,
				"y": -2.2634351469,
				"z": 3.5456529668,
				"element": "H" 
			},
			{
				"x": -0.908604339,
				"y": -3.4558751753,
				"z": 2.376444855,
				"element": "H" 
			},
			{
				"x": -2.7463402988,
				"y": -2.209417848,
				"z": 3.6782662142,
				"element": "H" 
			},
			{
				"x": -2.9185720783,
				"y": -2.20138193,
				"z": 1.9121787138,
				"element": "H" 
			},
			{
				"x": -3.1465465857,
				"y": -0.0035364734,
				"z": 3.1204606035,
				"element": "H" 
			},
			{
				"x": -2.658429031,
				"y": 0.1808054466,
				"z": 0.782303098,
				"element": "H" 
			},
			{
				"x": -1.679566535,
				"y": 1.3138045824,
				"z": 1.7224973828,
				"element": "H" 
			}
		],
		 "valence_orbital": [ 
			{
				"type": "occ",
				"energy": -0.27158,
				"method": "rhf"
			},
			{
				"type": "occ",
				"energy": -0.25915,
				"method": "rhf"
			},
			{
				"type": "occ",
				"energy": -0.24093,
				"method": "rhf"
			},
			{
				"type": "occ",
				"energy": -0.2203,
				"method": "rhf"
			},
			{
				"type": "occ",
				"energy": -0.19589,
				"method": "rhf"
			},
			{
				"type": "unocc",
				"energy": -0.03494,
				"method": "rhf"
			},
			{
				"type": "unocc",
				"energy": -0.00286,
				"method": "rhf"
			},
			{
				"type": "unocc",
				"energy": 0.01867,
				"method": "rhf"
			},
			{
				"type": "unocc",
				"energy": 0.03021,
				"method": "rhf"
			},
			{
				"type": "unocc",
				"energy": 0.05422,
				"method": "rhf"
			}
		],
		"cosmo_sigma_profile": { 
			"-0.025": 0.0,
			"-0.024": 0.0,
			"-0.023": 0.0,
			"-0.022": 0.0,
			"-0.021": 0.0,
			"-0.02": 0.0,
			"-0.019": 0.0,
			"-0.018": 0.0,
			"-0.017": 0.0,
			"-0.016": 0.0,
			"-0.015": 0.0,
			"-0.014": 0.0,
			"-0.013": 0.0,
			"-0.012": 0.0,
			"-0.011": 0.209359139904,
			"-0.01": 1.4746063894,
			"-0.009": 2.19225959042,
			"-0.008": 2.94123686548,
			"-0.007": 3.26743514431,
			"-0.006": 7.28852244918,
			"-0.005": 14.9816238357,
			"-0.004": 23.0534219339,
			"-0.003": 24.7976928523,
			"-0.002": 33.6957922206,
			"-0.001": 26.283919525,
			"0.0": 14.1104153364,
			"0.001": 16.6935421621,
			"0.002": 17.7199014472,
			"0.003": 20.6944553573,
			"0.004": 18.239954032,
			"0.005": 16.302096837,
			"0.006": 5.59076549713,
			"0.007": 2.86553115961,
			"0.008": 1.86991186385,
			"0.009": 1.991996078,
			"0.01": 1.8161157433,
			"0.011": 2.38479494722,
			"0.012": 1.62681142909,
			"0.013": 0.400094461802,
			"0.014": 0.371530697918,
			"0.015": 0.268135770148,
			"0.016": 0.834775073552,
			"0.017": 0.441851902648,
			"0.018": 0.224929895607,
			"0.019": 0.0,
			"0.02": 0.0,
			"0.021": 0.0,
			"0.022": 0.0,
			"0.023": 0.0,
			"0.024": 0.0,
			"0.025": 0.0
		}
	}
}
