{
	 "smiles": "COC(=O)C1=C(NC(C)=O)C(=CC=C1)[N+]([O-])=O", 
	 "Tm": 393.15, 
	 "num_atms": 27, 
	 "gaussian": { 
		 "optdone": 1, 
		 "sigma_profile": "yes", 
		 "theory": "DFT", 
		 "functional": "B3LYP", 
		 "basiset": "6-31G**", 
		 "properties": { 
			 "R2extent": 4482.463, 
			 "electric_dipole_moment_norm": 4.06770022126, 
			 "electric_quadrupole_moment_norm": 17.1679680647, 
			 "total_energy": -872.624460421, 
			 "HOMO_LUMO_gap": 0.15286, 
			 "cosmo_polarized_energy": -15.95, 
			 "cosmo_cavitation_energy": 31.97, 
			 "cosmo_dispersion_energy": -22.44, 
			 "cosmo_repulsion_energy": 1.72, 
			 "cosmo_total_nonelectrostatic_energy": 11.25, 
			 "SMD_solvation_energy": 10.02 
		},
		"coords": [
			{
				"x": 3.3171545401,
				"y": -0.9773515291,
				"z": 0.0011475526,
				"element": "C" 
			},
			{
				"x": 1.8787618886,
				"y": -1.0228701094,
				"z": -0.1023700066,
				"element": "O" 
			},
			{
				"x": 1.2292766038,
				"y": -1.5274223122,
				"z": 0.9737191277,
				"element": "C" 
			},
			{
				"x": 1.8190638049,
				"y": -1.940142805,
				"z": 1.9510588114,
				"element": "O" 
			},
			{
				"x": -0.2624954216,
				"y": -1.5776153273,
				"z": 0.8275219609,
				"element": "C" 
			},
			{
				"x": -1.0325611975,
				"y": -0.8516354505,
				"z": -0.1313246725,
				"element": "C" 
			},
			{
				"x": -0.4142263684,
				"y": 0.0452014963,
				"z": -0.9920732074,
				"element": "N" 
			},
			{
				"x": -0.7467156655,
				"y": 1.3376346756,
				"z": -1.4199208588,
				"element": "C" 
			},
			{
				"x": -1.9804595662,
				"y": 2.0244375163,
				"z": -0.8753497044,
				"element": "C" 
			},
			{
				"x": 0.0242898813,
				"y": 1.900874043,
				"z": -2.1761353412,
				"element": "O" 
			},
			{
				"x": -2.4273527668,
				"y": -1.1019972631,
				"z": -0.128203993,
				"element": "C" 
			},
			{
				"x": -3.0428195732,
				"y": -1.9125070092,
				"z": 0.8263098246,
				"element": "C" 
			},
			{
				"x": -2.2783884005,
				"y": -2.5694349769,
				"z": 1.7806141203,
				"element": "C" 
			},
			{
				"x": -0.8970848762,
				"y": -2.4113653056,
				"z": 1.7569503268,
				"element": "C" 
			},
			{
				"x": -3.3169508349,
				"y": -0.6129758823,
				"z": -1.1967899617,
				"element": "N" 
			},
			{
				"x": -2.8500693218,
				"y": -0.4802726407,
				"z": -2.3259340985,
				"element": "O" 
			},
			{
				"x": -4.4937140733,
				"y": -0.4079954936,
				"z": -0.8982953476,
				"element": "O" 
			},
			{
				"x": 3.6155980979,
				"y": -0.3707761459,
				"z": 0.8583712628,
				"element": "H" 
			},
			{
				"x": 3.7177933651,
				"y": -1.986259355,
				"z": 0.1181106274,
				"element": "H" 
			},
			{
				"x": 3.6598431356,
				"y": -0.5285501194,
				"z": -0.9300924897,
				"element": "H" 
			},
			{
				"x": 0.5541850506,
				"y": -0.1675452231,
				"z": -1.2035629878,
				"element": "H" 
			},
			{
				"x": -2.7706895864,
				"y": 2.0053302363,
				"z": -1.6307704993,
				"element": "H" 
			},
			{
				"x": -1.7129991218,
				"y": 3.0677072917,
				"z": -0.6988879475,
				"element": "H" 
			},
			{
				"x": -2.3650008165,
				"y": 1.5869293918,
				"z": 0.0480255581,
				"element": "H" 
			},
			{
				"x": -4.1184671166,
				"y": -2.0295398513,
				"z": 0.7768744449,
				"element": "H" 
			},
			{
				"x": -2.7500739471,
				"y": -3.2101752081,
				"z": 2.5172033999,
				"element": "H" 
			},
			{
				"x": -0.2652977137,
				"y": -2.9212826434,
				"z": 2.4755040988,
				"element": "H" 
			}
		],
		 "valence_orbital": [ 
			{
				"type": "occ",
				"energy": -0.30717,
				"method": "rhf"
			},
			{
				"type": "occ",
				"energy": -0.30115,
				"method": "rhf"
			},
			{
				"type": "occ",
				"energy": -0.28419,
				"method": "rhf"
			},
			{
				"type": "occ",
				"energy": -0.26443,
				"method": "rhf"
			},
			{
				"type": "occ",
				"energy": -0.24951,
				"method": "rhf"
			},
			{
				"type": "unocc",
				"energy": -0.09665,
				"method": "rhf"
			},
			{
				"type": "unocc",
				"energy": -0.073,
				"method": "rhf"
			},
			{
				"type": "unocc",
				"energy": -0.02466,
				"method": "rhf"
			},
			{
				"type": "unocc",
				"energy": 0.01779,
				"method": "rhf"
			},
			{
				"type": "unocc",
				"energy": 0.02789,
				"method": "rhf"
			}
		],
		"cosmo_sigma_profile": { 
			"-0.025": 0.0,
			"-0.024": 0.0,
			"-0.023": 0.0,
			"-0.022": 0.0,
			"-0.021": 0.0,
			"-0.02": 0.0,
			"-0.019": 0.0,
			"-0.018": 0.0,
			"-0.017": 0.0,
			"-0.016": 0.0,
			"-0.015": 0.0,
			"-0.014": 0.0,
			"-0.013": 0.0,
			"-0.012": 0.0,
			"-0.011": 0.0,
			"-0.01": 0.0,
			"-0.009": 0.318637504558,
			"-0.008": 3.76766068749,
			"-0.007": 12.1330337524,
			"-0.006": 19.6977042566,
			"-0.005": 22.9767734,
			"-0.004": 26.9386406475,
			"-0.003": 23.8546588744,
			"-0.002": 21.4933710416,
			"-0.001": 17.7700475779,
			"0.0": 14.6012430694,
			"0.001": 12.4612833441,
			"0.002": 7.0103761306,
			"0.003": 5.53625505666,
			"0.004": 5.36639748189,
			"0.005": 6.89776700995,
			"0.006": 6.94957998959,
			"0.007": 12.5925807784,
			"0.008": 7.99843152175,
			"0.009": 6.3300983203,
			"0.01": 4.82535046127,
			"0.011": 6.65151919051,
			"0.012": 5.03205889577,
			"0.013": 3.84551898764,
			"0.014": 0.46833465363,
			"0.015": 0.0,
			"0.016": 0.0,
			"0.017": 0.0,
			"0.018": 0.0,
			"0.019": 0.0,
			"0.02": 0.0,
			"0.021": 0.0,
			"0.022": 0.0,
			"0.023": 0.0,
			"0.024": 0.0,
			"0.025": 0.0
		}
	}
}
