{
	 "smiles": "FC1=C2N=CC=C(Cl)C2=CC(Br)=C1", 
	 "Tm": 423.15, 
	 "num_atms": 17, 
	 "gaussian": { 
		 "optdone": 1, 
		 "sigma_profile": "yes", 
		 "theory": "DFT", 
		 "functional": "B3LYP", 
		 "basiset": "6-31G**", 
		 "properties": { 
			 "R2extent": 4983.0739, 
			 "electric_dipole_moment_norm": 1.51127420742, 
			 "electric_quadrupole_moment_norm": 7.87506982572, 
			 "total_energy": -3531.54920519, 
			 "HOMO_LUMO_gap": 0.16673, 
			 "cosmo_polarized_energy": -6.27, 
			 "cosmo_cavitation_energy": 26.25, 
			 "cosmo_dispersion_energy": -20.0, 
			 "cosmo_repulsion_energy": 1.54, 
			 "cosmo_total_nonelectrostatic_energy": 7.8, 
			 "SMD_solvation_energy": 2.1 
		},
		"coords": [
			{
				"x": -1.7457955396,
				"y": -1.607311008,
				"z": 1.4914862608,
				"element": "F" 
			},
			{
				"x": -0.5705218279,
				"y": -1.4143453322,
				"z": 0.8847607774,
				"element": "C" 
			},
			{
				"x": -0.5017746934,
				"y": -0.4383437086,
				"z": -0.1511247612,
				"element": "C" 
			},
			{
				"x": -1.6278599076,
				"y": 0.2475959364,
				"z": -0.4728900473,
				"element": "N" 
			},
			{
				"x": -1.5352464547,
				"y": 1.1431752177,
				"z": -1.4336408169,
				"element": "C" 
			},
			{
				"x": -0.3442738759,
				"y": 1.4302488395,
				"z": -2.1433063526,
				"element": "C" 
			},
			{
				"x": 0.7955080653,
				"y": 0.7355380995,
				"z": -1.8171695203,
				"element": "C" 
			},
			{
				"x": 2.2822773525,
				"y": 1.0702920466,
				"z": -2.6785259816,
				"element": "Cl" 
			},
			{
				"x": 0.7705401666,
				"y": -0.2488424321,
				"z": -0.7877707688,
				"element": "C" 
			},
			{
				"x": 1.8943464868,
				"y": -1.0134495493,
				"z": -0.3837377381,
				"element": "C" 
			},
			{
				"x": 1.7509233949,
				"y": -1.9376644759,
				"z": 0.6241771347,
				"element": "C" 
			},
			{
				"x": 3.2529281198,
				"y": -2.972847108,
				"z": 1.1775203872,
				"element": "Br" 
			},
			{
				"x": 0.5166674069,
				"y": -2.1541728662,
				"z": 1.2757569512,
				"element": "C" 
			},
			{
				"x": -2.4442439461,
				"y": 1.6876596734,
				"z": -1.6838397831,
				"element": "H" 
			},
			{
				"x": -0.3353002552,
				"y": 2.1809471321,
				"z": -2.924863393,
				"element": "H" 
			},
			{
				"x": 2.8504871713,
				"y": -0.8656491346,
				"z": -0.8678166141,
				"element": "H" 
			},
			{
				"x": 0.4170383364,
				"y": -2.8851313303,
				"z": 2.0681842656,
				"element": "H" 
			}
		],
		 "valence_orbital": [ 
			{
				"type": "occ",
				"energy": -0.30007,
				"method": "rhf"
			},
			{
				"type": "occ",
				"energy": -0.29981,
				"method": "rhf"
			},
			{
				"type": "occ",
				"energy": -0.27726,
				"method": "rhf"
			},
			{
				"type": "occ",
				"energy": -0.26872,
				"method": "rhf"
			},
			{
				"type": "occ",
				"energy": -0.24242,
				"method": "rhf"
			},
			{
				"type": "unocc",
				"energy": -0.07569,
				"method": "rhf"
			},
			{
				"type": "unocc",
				"energy": -0.04391,
				"method": "rhf"
			},
			{
				"type": "unocc",
				"energy": -0.00708,
				"method": "rhf"
			},
			{
				"type": "unocc",
				"energy": 0.00347,
				"method": "rhf"
			},
			{
				"type": "unocc",
				"energy": 0.01213,
				"method": "rhf"
			}
		],
		"cosmo_sigma_profile": { 
			"-0.025": 0.0,
			"-0.024": 0.0,
			"-0.023": 0.0,
			"-0.022": 0.0,
			"-0.021": 0.0,
			"-0.02": 0.0,
			"-0.019": 0.0,
			"-0.018": 0.0,
			"-0.017": 0.0,
			"-0.016": 0.0,
			"-0.015": 0.0,
			"-0.014": 0.0,
			"-0.013": 0.0,
			"-0.012": 0.0,
			"-0.011": 0.0,
			"-0.01": 0.00338290154016,
			"-0.009": 1.81221254745,
			"-0.008": 5.75604353833,
			"-0.007": 6.20323126744,
			"-0.006": 6.68620905902,
			"-0.005": 6.9486504201,
			"-0.004": 7.94357385609,
			"-0.003": 10.0554019227,
			"-0.002": 19.4438452308,
			"-0.001": 31.3301149868,
			"0.0": 30.6530342109,
			"0.001": 22.0445042334,
			"0.002": 15.4068186135,
			"0.003": 23.8203620262,
			"0.004": 16.4939317963,
			"0.005": 2.39084581214,
			"0.006": 1.97898077042,
			"0.007": 1.67949042565,
			"0.008": 1.14698756453,
			"0.009": 1.03293401702,
			"0.01": 1.45024747851,
			"0.011": 1.24269605847,
			"0.012": 0.807920879372,
			"0.013": 1.0090387394,
			"0.014": 0.941912550534,
			"0.015": 0.183906311446,
			"0.016": 0.0,
			"0.017": 0.0,
			"0.018": 0.0,
			"0.019": 0.0,
			"0.02": 0.0,
			"0.021": 0.0,
			"0.022": 0.0,
			"0.023": 0.0,
			"0.024": 0.0,
			"0.025": 0.0
		}
	}
}
