{
	 "smiles": "OC(=O)C1CCCN(C1)C(=O)CCOC1=CC=CC=C1", 
	 "Tm": 445.15, 
	 "num_atms": 39, 
	 "gaussian": { 
		 "optdone": 1, 
		 "sigma_profile": "yes", 
		 "theory": "DFT", 
		 "functional": "B3LYP", 
		 "basiset": "6-31G**", 
		 "properties": { 
			 "R2extent": 8673.361, 
			 "electric_dipole_moment_norm": 5.3646540401, 
			 "electric_quadrupole_moment_norm": 15.8619035144, 
			 "total_energy": -938.714515146, 
			 "HOMO_LUMO_gap": 0.20552, 
			 "cosmo_polarized_energy": -21.01, 
			 "cosmo_cavitation_energy": 40.97, 
			 "cosmo_dispersion_energy": -28.77, 
			 "cosmo_repulsion_energy": 2.23, 
			 "cosmo_total_nonelectrostatic_energy": 14.43, 
			 "SMD_solvation_energy": 7.71 
		},
		"coords": [
			{
				"x": -1.7437357632,
				"y": -1.566537129,
				"z": -4.6167020873,
				"element": "O" 
			},
			{
				"x": -1.4761695364,
				"y": -0.7384780426,
				"z": -3.5816789089,
				"element": "C" 
			},
			{
				"x": -1.9059816398,
				"y": 0.3962061526,
				"z": -3.5364621359,
				"element": "O" 
			},
			{
				"x": -0.5835777251,
				"y": -1.4059087404,
				"z": -2.5486458504,
				"element": "C" 
			},
			{
				"x": -1.1551462041,
				"y": -2.7789598283,
				"z": -2.0987590682,
				"element": "C" 
			},
			{
				"x": -0.6192826557,
				"y": -3.1250101579,
				"z": -0.7054619961,
				"element": "C" 
			},
			{
				"x": -1.1542650897,
				"y": -2.1256744295,
				"z": 0.3348025989,
				"element": "C" 
			},
			{
				"x": -1.2401383746,
				"y": -0.7717890944,
				"z": -0.235005711,
				"element": "N" 
			},
			{
				"x": -0.3267401179,
				"y": -0.4838623234,
				"z": -1.331726996,
				"element": "C" 
			},
			{
				"x": -2.1756270677,
				"y": 0.0862851211,
				"z": 0.305532796,
				"element": "C" 
			},
			{
				"x": -2.9136686835,
				"y": -0.2837406073,
				"z": 1.2122913946,
				"element": "O" 
			},
			{
				"x": -2.2820952,
				"y": 1.5076640321,
				"z": -0.2528399058,
				"element": "C" 
			},
			{
				"x": -1.1876977536,
				"y": 2.4598562753,
				"z": 0.2299370291,
				"element": "C" 
			},
			{
				"x": -1.2227736293,
				"y": 2.4894544039,
				"z": 1.650515361,
				"element": "O" 
			},
			{
				"x": -0.324623445,
				"y": 3.2762749553,
				"z": 2.3136755253,
				"element": "C" 
			},
			{
				"x": 0.6237777156,
				"y": 4.0992573078,
				"z": 1.6938529402,
				"element": "C" 
			},
			{
				"x": 1.4913279568,
				"y": 4.8631060187,
				"z": 2.4824064067,
				"element": "C" 
			},
			{
				"x": 1.4245428576,
				"y": 4.8162999751,
				"z": 3.8726418642,
				"element": "C" 
			},
			{
				"x": 0.4725842814,
				"y": 3.9910006921,
				"z": 4.4829146695,
				"element": "C" 
			},
			{
				"x": -0.3964741988,
				"y": 3.2254869695,
				"z": 3.7143437941,
				"element": "C" 
			},
			{
				"x": -2.312570219,
				"y": -1.0676479334,
				"z": -5.2274160467,
				"element": "H" 
			},
			{
				"x": 0.3755033116,
				"y": -1.5825234064,
				"z": -3.0549423783,
				"element": "H" 
			},
			{
				"x": -0.9029720492,
				"y": -3.5473953148,
				"z": -2.8336265701,
				"element": "H" 
			},
			{
				"x": -2.2494548056,
				"y": -2.7292685509,
				"z": -2.0562583593,
				"element": "H" 
			},
			{
				"x": -0.9227513301,
				"y": -4.1359570753,
				"z": -0.4149348901,
				"element": "H" 
			},
			{
				"x": 0.478138232,
				"y": -3.125445861,
				"z": -0.7220700439,
				"element": "H" 
			},
			{
				"x": -0.5255179552,
				"y": -2.1215992329,
				"z": 1.2359938662,
				"element": "H" 
			},
			{
				"x": -2.1620937308,
				"y": -2.3986709226,
				"z": 0.6547046354,
				"element": "H" 
			},
			{
				"x": 0.7062392764,
				"y": -0.6263342905,
				"z": -0.9878351986,
				"element": "H" 
			},
			{
				"x": -0.4239016753,
				"y": 0.553314699,
				"z": -1.6416030422,
				"element": "H" 
			},
			{
				"x": -3.2464860516,
				"y": 1.8789045252,
				"z": 0.0998901903,
				"element": "H" 
			},
			{
				"x": -2.2930435898,
				"y": 1.50787247,
				"z": -1.3473706209,
				"element": "H" 
			},
			{
				"x": -0.1922217782,
				"y": 2.1420327428,
				"z": -0.1109015512,
				"element": "H" 
			},
			{
				"x": -1.3725072975,
				"y": 3.4638166034,
				"z": -0.1785265856,
				"element": "H" 
			},
			{
				"x": 0.6937870903,
				"y": 4.1563824059,
				"z": 0.6139746413,
				"element": "H" 
			},
			{
				"x": 2.22385909,
				"y": 5.4999579555,
				"z": 1.9938814403,
				"element": "H" 
			},
			{
				"x": 2.1018466968,
				"y": 5.4130682473,
				"z": 4.4757223779,
				"element": "H" 
			},
			{
				"x": 0.4076774424,
				"y": 3.9436652738,
				"z": 5.5664367106,
				"element": "H" 
			},
			{
				"x": -1.1403663843,
				"y": 2.5786961141,
				"z": 4.1679497051,
				"element": "H" 
			}
		],
		 "valence_orbital": [ 
			{
				"type": "occ",
				"energy": -0.2899,
				"method": "rhf"
			},
			{
				"type": "occ",
				"energy": -0.24367,
				"method": "rhf"
			},
			{
				"type": "occ",
				"energy": -0.23567,
				"method": "rhf"
			},
			{
				"type": "occ",
				"energy": -0.23085,
				"method": "rhf"
			},
			{
				"type": "occ",
				"energy": -0.21256,
				"method": "rhf"
			},
			{
				"type": "unocc",
				"energy": -0.00704,
				"method": "rhf"
			},
			{
				"type": "unocc",
				"energy": 0.00578,
				"method": "rhf"
			},
			{
				"type": "unocc",
				"energy": 0.01933,
				"method": "rhf"
			},
			{
				"type": "unocc",
				"energy": 0.03164,
				"method": "rhf"
			},
			{
				"type": "unocc",
				"energy": 0.06445,
				"method": "rhf"
			}
		],
		"cosmo_sigma_profile": { 
			"-0.025": 0.0,
			"-0.024": 0.0,
			"-0.023": 0.0,
			"-0.022": 0.0,
			"-0.021": 0.0,
			"-0.02": 0.0,
			"-0.019": 0.0932828067041,
			"-0.018": 0.791723104075,
			"-0.017": 1.14405533113,
			"-0.016": 0.709264225987,
			"-0.015": 0.524679022432,
			"-0.014": 0.374449012671,
			"-0.013": 0.392269183121,
			"-0.012": 1.39149765487,
			"-0.011": 1.34390890243,
			"-0.01": 0.362751539572,
			"-0.009": 0.0877181487817,
			"-0.008": 0.856606208982,
			"-0.007": 3.90627068924,
			"-0.006": 16.6176312118,
			"-0.005": 28.5417551202,
			"-0.004": 34.9892810402,
			"-0.003": 37.8955802875,
			"-0.002": 29.0869558013,
			"-0.001": 24.250060636,
			"0.0": 17.2757379902,
			"0.001": 11.7493198269,
			"0.002": 13.0912570988,
			"0.003": 14.6643058902,
			"0.004": 13.839276566,
			"0.005": 14.0961225869,
			"0.006": 13.6784041384,
			"0.007": 6.54417836713,
			"0.008": 5.94811649478,
			"0.009": 4.00014580421,
			"0.01": 5.08871734964,
			"0.011": 3.7203898082,
			"0.012": 3.80542113646,
			"0.013": 3.06150825679,
			"0.014": 5.60885872626,
			"0.015": 2.5029238661,
			"0.016": 0.18310890597,
			"0.017": 0.0,
			"0.018": 0.0,
			"0.019": 0.0,
			"0.02": 0.0,
			"0.021": 0.0,
			"0.022": 0.0,
			"0.023": 0.0,
			"0.024": 0.0,
			"0.025": 0.0
		}
	}
}
