{
	 "smiles": "CC(=O)NNC(=O)CCl", 
	 "Tm": 431.15, 
	 "num_atms": 16, 
	 "gaussian": { 
		 "optdone": 1, 
		 "sigma_profile": "yes", 
		 "theory": "DFT", 
		 "functional": "B3LYP", 
		 "basiset": "6-31G**", 
		 "properties": { 
			 "R2extent": 1997.058, 
			 "electric_dipole_moment_norm": 1.85784405427, 
			 "electric_quadrupole_moment_norm": 21.1398459926, 
			 "total_energy": -876.77672148, 
			 "HOMO_LUMO_gap": 0.22442, 
			 "cosmo_polarized_energy": -17.49, 
			 "cosmo_cavitation_energy": 22.32, 
			 "cosmo_dispersion_energy": -15.91, 
			 "cosmo_repulsion_energy": 1.34, 
			 "cosmo_total_nonelectrostatic_energy": 7.76, 
			 "SMD_solvation_energy": 6.21 
		},
		"coords": [
			{
				"x": 0.0181309537,
				"y": -1.3468609185,
				"z": -0.5370755612,
				"element": "C" 
			},
			{
				"x": 0.7498273283,
				"y": -1.5816619011,
				"z": 0.7649331579,
				"element": "C" 
			},
			{
				"x": 1.0473750103,
				"y": -2.676700817,
				"z": 1.2031402757,
				"element": "O" 
			},
			{
				"x": 1.086118036,
				"y": -0.4461044999,
				"z": 1.5110336948,
				"element": "N" 
			},
			{
				"x": 1.0568604755,
				"y": 0.833089081,
				"z": 0.9943545375,
				"element": "N" 
			},
			{
				"x": 0.2197948545,
				"y": 1.8383537222,
				"z": 1.4374198766,
				"element": "C" 
			},
			{
				"x": 0.3505951113,
				"y": 2.9784550151,
				"z": 1.0321112031,
				"element": "O" 
			},
			{
				"x": -0.8560264725,
				"y": 1.4511732951,
				"z": 2.4474113782,
				"element": "C" 
			},
			{
				"x": -2.3218494618,
				"y": 0.7839899621,
				"z": 1.6153886963,
				"element": "Cl" 
			},
			{
				"x": -0.8754740012,
				"y": -0.7369094749,
				"z": -0.3834762454,
				"element": "H" 
			},
			{
				"x": 0.657211785,
				"y": -0.8206235387,
				"z": -1.2540230532,
				"element": "H" 
			},
			{
				"x": -0.2559478408,
				"y": -2.3187913455,
				"z": -0.9459505055,
				"element": "H" 
			},
			{
				"x": 1.7420337962,
				"y": -0.6302848175,
				"z": 2.2647680559,
				"element": "H" 
			},
			{
				"x": 1.8057578157,
				"y": 1.1393568259,
				"z": 0.3804489342,
				"element": "H" 
			},
			{
				"x": -0.5223191217,
				"y": 0.6925258228,
				"z": 3.1536463438,
				"element": "H" 
			},
			{
				"x": -1.1665882688,
				"y": 2.359693589,
				"z": 2.9589692113,
				"element": "H" 
			}
		],
		 "valence_orbital": [ 
			{
				"type": "occ",
				"energy": -0.31554,
				"method": "rhf"
			},
			{
				"type": "occ",
				"energy": -0.30396,
				"method": "rhf"
			},
			{
				"type": "occ",
				"energy": -0.2935,
				"method": "rhf"
			},
			{
				"type": "occ",
				"energy": -0.27611,
				"method": "rhf"
			},
			{
				"type": "occ",
				"energy": -0.26364,
				"method": "rhf"
			},
			{
				"type": "unocc",
				"energy": -0.03922,
				"method": "rhf"
			},
			{
				"type": "unocc",
				"energy": 0.00233,
				"method": "rhf"
			},
			{
				"type": "unocc",
				"energy": 0.04468,
				"method": "rhf"
			},
			{
				"type": "unocc",
				"energy": 0.0677,
				"method": "rhf"
			},
			{
				"type": "unocc",
				"energy": 0.07832,
				"method": "rhf"
			}
		],
		"cosmo_sigma_profile": { 
			"-0.025": 0.0,
			"-0.024": 0.0,
			"-0.023": 0.0,
			"-0.022": 0.0,
			"-0.021": 0.0,
			"-0.02": 0.0,
			"-0.019": 0.0,
			"-0.018": 0.0,
			"-0.017": 0.0,
			"-0.016": 0.0589722243167,
			"-0.015": 1.56653179656,
			"-0.014": 2.74062422684,
			"-0.013": 2.77245674722,
			"-0.012": 1.80674288133,
			"-0.011": 3.19751106047,
			"-0.01": 3.14772789937,
			"-0.009": 4.49497622962,
			"-0.008": 6.92309347151,
			"-0.007": 6.45856864582,
			"-0.006": 7.85563157215,
			"-0.005": 8.38068273181,
			"-0.004": 6.99071123158,
			"-0.003": 8.5009876062,
			"-0.002": 12.5985999236,
			"-0.001": 13.53635336,
			"0.0": 11.3415211525,
			"0.001": 7.62197820005,
			"0.002": 7.19047886291,
			"0.003": 7.50096455848,
			"0.004": 7.28968859676,
			"0.005": 8.72824111888,
			"0.006": 4.2038081126,
			"0.007": 2.95210998659,
			"0.008": 2.81706167235,
			"0.009": 1.53760647471,
			"0.01": 3.75053770489,
			"0.011": 5.33524629063,
			"0.012": 9.59530497951,
			"0.013": 6.49236131883,
			"0.014": 1.04201449797,
			"0.015": 0.0,
			"0.016": 0.0,
			"0.017": 0.0,
			"0.018": 0.0,
			"0.019": 0.0,
			"0.02": 0.0,
			"0.021": 0.0,
			"0.022": 0.0,
			"0.023": 0.0,
			"0.024": 0.0,
			"0.025": 0.0
		}
	}
}
