{
	 "smiles": "CC(=O)COC1=CC2=C(C=C1)C=C(Br)C=C2", 
	 "Tm": 380.15, 
	 "num_atms": 27, 
	 "gaussian": { 
		 "optdone": 1, 
		 "sigma_profile": "yes", 
		 "theory": "DFT", 
		 "functional": "B3LYP", 
		 "basiset": "6-31G**", 
		 "properties": { 
			 "R2extent": 8823.5552, 
			 "electric_dipole_moment_norm": 2.51304970504, 
			 "electric_quadrupole_moment_norm": 12.4133149239, 
			 "total_energy": -3223.86299422, 
			 "HOMO_LUMO_gap": 0.16741, 
			 "cosmo_polarized_energy": -10.27, 
			 "cosmo_cavitation_energy": 33.6, 
			 "cosmo_dispersion_energy": -24.34, 
			 "cosmo_repulsion_energy": 1.89, 
			 "cosmo_total_nonelectrostatic_energy": 11.15, 
			 "SMD_solvation_energy": 5.24 
		},
		"coords": [
			{
				"x": -1.7150120294,
				"y": 1.6600697354,
				"z": -3.062444839,
				"element": "C" 
			},
			{
				"x": -1.8313076921,
				"y": 2.1587898649,
				"z": -1.639786285,
				"element": "C" 
			},
			{
				"x": -2.8237969135,
				"y": 2.0031938033,
				"z": -0.9558808825,
				"element": "O" 
			},
			{
				"x": -0.6464359124,
				"y": 2.9508384495,
				"z": -1.0651179767,
				"element": "C" 
			},
			{
				"x": 0.6140735893,
				"y": 2.643108342,
				"z": -1.6414926014,
				"element": "O" 
			},
			{
				"x": 1.2392956803,
				"y": 1.4869007541,
				"z": -1.2543530393,
				"element": "C" 
			},
			{
				"x": 0.7034876821,
				"y": 0.5347934732,
				"z": -0.4099905758,
				"element": "C" 
			},
			{
				"x": 1.4552688019,
				"y": -0.6271879698,
				"z": -0.0796579481,
				"element": "C" 
			},
			{
				"x": 2.764949006,
				"y": -0.8041468504,
				"z": -0.6282086589,
				"element": "C" 
			},
			{
				"x": 3.2777675646,
				"y": 0.1999140851,
				"z": -1.4973430453,
				"element": "C" 
			},
			{
				"x": 2.5396829801,
				"y": 1.3139620792,
				"z": -1.8035277516,
				"element": "C" 
			},
			{
				"x": 3.511260936,
				"y": -1.9644222586,
				"z": -0.2969935565,
				"element": "C" 
			},
			{
				"x": 2.9719728866,
				"y": -2.9078456937,
				"z": 0.545497163,
				"element": "C" 
			},
			{
				"x": 3.9772144193,
				"y": -4.4723364623,
				"z": 0.9925919552,
				"element": "Br" 
			},
			{
				"x": 1.6799547079,
				"y": -2.751186481,
				"z": 1.096109489,
				"element": "C" 
			},
			{
				"x": 0.9424418129,
				"y": -1.6305930101,
				"z": 0.7850735283,
				"element": "C" 
			},
			{
				"x": -1.3788067806,
				"y": 2.4600430688,
				"z": -3.7304940607,
				"element": "H" 
			},
			{
				"x": -2.6798439018,
				"y": 1.2705073056,
				"z": -3.389134343,
				"element": "H" 
			},
			{
				"x": -0.9618858036,
				"y": 0.8664235022,
				"z": -3.1176483331,
				"element": "H" 
			},
			{
				"x": -0.6405850179,
				"y": 2.8427181456,
				"z": 0.0251206157,
				"element": "H" 
			},
			{
				"x": -0.8186729309,
				"y": 4.0081489412,
				"z": -1.2986140672,
				"element": "H" 
			},
			{
				"x": -0.289443608,
				"y": 0.6416380129,
				"z": 0.0123849917,
				"element": "H" 
			},
			{
				"x": 4.271568927,
				"y": 0.0738123726,
				"z": -1.918063707,
				"element": "H" 
			},
			{
				"x": 2.9225826411,
				"y": 2.0870324607,
				"z": -2.4614918531,
				"element": "H" 
			},
			{
				"x": 4.5044780412,
				"y": -2.0986615437,
				"z": -0.7121939912,
				"element": "H" 
			},
			{
				"x": 1.2818462366,
				"y": -3.5125050596,
				"z": 1.7570719125,
				"element": "H" 
			},
			{
				"x": -0.0514553228,
				"y": -1.5059090673,
				"z": 1.2063878599,
				"element": "H" 
			}
		],
		 "valence_orbital": [ 
			{
				"type": "occ",
				"energy": -0.2863,
				"method": "rhf"
			},
			{
				"type": "occ",
				"energy": -0.27928,
				"method": "rhf"
			},
			{
				"type": "occ",
				"energy": -0.25753,
				"method": "rhf"
			},
			{
				"type": "occ",
				"energy": -0.24149,
				"method": "rhf"
			},
			{
				"type": "occ",
				"energy": -0.21663,
				"method": "rhf"
			},
			{
				"type": "unocc",
				"energy": -0.04922,
				"method": "rhf"
			},
			{
				"type": "unocc",
				"energy": -0.0302,
				"method": "rhf"
			},
			{
				"type": "unocc",
				"energy": -0.01699,
				"method": "rhf"
			},
			{
				"type": "unocc",
				"energy": 0.00798,
				"method": "rhf"
			},
			{
				"type": "unocc",
				"energy": 0.0201,
				"method": "rhf"
			}
		],
		"cosmo_sigma_profile": { 
			"-0.025": 0.0,
			"-0.024": 0.0,
			"-0.023": 0.0,
			"-0.022": 0.0,
			"-0.021": 0.0,
			"-0.02": 0.0,
			"-0.019": 0.0,
			"-0.018": 0.0,
			"-0.017": 0.0,
			"-0.016": 0.0,
			"-0.015": 0.0,
			"-0.014": 0.0,
			"-0.013": 0.0,
			"-0.012": 0.0,
			"-0.011": 0.0,
			"-0.01": 0.0,
			"-0.009": 1.66255335862,
			"-0.008": 3.52378248875,
			"-0.007": 12.8439470745,
			"-0.006": 17.7337370429,
			"-0.005": 17.7880314066,
			"-0.004": 20.2363085353,
			"-0.003": 17.1729260651,
			"-0.002": 18.5056773439,
			"-0.001": 17.742389673,
			"0.0": 14.4667218395,
			"0.001": 16.2038028151,
			"0.002": 23.283282247,
			"0.003": 36.9315045411,
			"0.004": 22.1824679764,
			"0.005": 10.7868844494,
			"0.006": 2.57295708002,
			"0.007": 2.57293804081,
			"0.008": 2.17079758265,
			"0.009": 2.56184116438,
			"0.01": 2.82415298824,
			"0.011": 3.79691812692,
			"0.012": 3.60070536337,
			"0.013": 0.670341608433,
			"0.014": 0.0,
			"0.015": 0.0,
			"0.016": 0.0,
			"0.017": 0.0,
			"0.018": 0.0,
			"0.019": 0.0,
			"0.02": 0.0,
			"0.021": 0.0,
			"0.022": 0.0,
			"0.023": 0.0,
			"0.024": 0.0,
			"0.025": 0.0
		}
	}
}
