{
	 "smiles": "[O-][N+](=O)C1=CC=CC2=C1C=CN=C2", 
	 "Tm": 382.15, 
	 "num_atms": 19, 
	 "gaussian": { 
		 "optdone": 1, 
		 "sigma_profile": "yes", 
		 "theory": "DFT", 
		 "functional": "B3LYP", 
		 "basiset": "6-31G**", 
		 "properties": { 
			 "R2extent": 3180.5639, 
			 "electric_dipole_moment_norm": 3.75412683057, 
			 "electric_quadrupole_moment_norm": 21.1729163256, 
			 "total_energy": -606.420307841, 
			 "HOMO_LUMO_gap": 0.15017, 
			 "cosmo_polarized_energy": -10.37, 
			 "cosmo_cavitation_energy": 23.77, 
			 "cosmo_dispersion_energy": -17.93, 
			 "cosmo_repulsion_energy": 1.37, 
			 "cosmo_total_nonelectrostatic_energy": 7.21, 
			 "SMD_solvation_energy": 4.62 
		},
		"coords": [
			{
				"x": -0.1577082052,
				"y": 0.3117991084,
				"z": -4.7310694018,
				"element": "O" 
			},
			{
				"x": 0.0252071807,
				"y": -0.2128546682,
				"z": -3.6324892337,
				"element": "N" 
			},
			{
				"x": -0.0735151414,
				"y": -1.4228050905,
				"z": -3.4236210343,
				"element": "O" 
			},
			{
				"x": 0.3612553612,
				"y": 0.6726289352,
				"z": -2.502691725,
				"element": "C" 
			},
			{
				"x": 0.0889635058,
				"y": 2.013299704,
				"z": -2.6903145243,
				"element": "C" 
			},
			{
				"x": 0.3450817105,
				"y": 2.9516029673,
				"z": -1.6720004334,
				"element": "C" 
			},
			{
				"x": 0.8876488042,
				"y": 2.5289942508,
				"z": -0.4795786281,
				"element": "C" 
			},
			{
				"x": 1.1916794384,
				"y": 1.1615851268,
				"z": -0.2700006517,
				"element": "C" 
			},
			{
				"x": 0.9295646046,
				"y": 0.1808703156,
				"z": -1.2836250333,
				"element": "C" 
			},
			{
				"x": 1.2897858601,
				"y": -1.1577091541,
				"z": -0.9730251654,
				"element": "C" 
			},
			{
				"x": 1.8523003399,
				"y": -1.4384525778,
				"z": 0.2528532139,
				"element": "C" 
			},
			{
				"x": 2.0963545584,
				"y": -0.5191396358,
				"z": 1.2251160576,
				"element": "N" 
			},
			{
				"x": 1.7722764729,
				"y": 0.725358961,
				"z": 0.9541804916,
				"element": "C" 
			},
			{
				"x": -0.3298220916,
				"y": 2.3236638863,
				"z": -3.6393232388,
				"element": "H" 
			},
			{
				"x": 0.1115830505,
				"y": 3.9978222369,
				"z": -1.8383319854,
				"element": "H" 
			},
			{
				"x": 1.0937821246,
				"y": 3.2376116884,
				"z": 0.3181391728,
				"element": "H" 
			},
			{
				"x": 1.1208624551,
				"y": -1.9486226088,
				"z": -1.6873992463,
				"element": "H" 
			},
			{
				"x": 2.1316150912,
				"y": -2.4608043865,
				"z": 0.4959324605,
				"element": "H" 
			},
			{
				"x": 1.96998488,
				"y": 1.4678509411,
				"z": 1.7282489051,
				"element": "H" 
			}
		],
		 "valence_orbital": [ 
			{
				"type": "occ",
				"energy": -0.31285,
				"method": "rhf"
			},
			{
				"type": "occ",
				"energy": -0.29483,
				"method": "rhf"
			},
			{
				"type": "occ",
				"energy": -0.28809,
				"method": "rhf"
			},
			{
				"type": "occ",
				"energy": -0.26926,
				"method": "rhf"
			},
			{
				"type": "occ",
				"energy": -0.25356,
				"method": "rhf"
			},
			{
				"type": "unocc",
				"energy": -0.10339,
				"method": "rhf"
			},
			{
				"type": "unocc",
				"energy": -0.05399,
				"method": "rhf"
			},
			{
				"type": "unocc",
				"energy": -0.04275,
				"method": "rhf"
			},
			{
				"type": "unocc",
				"energy": 0.01303,
				"method": "rhf"
			},
			{
				"type": "unocc",
				"energy": 0.06793,
				"method": "rhf"
			}
		],
		"cosmo_sigma_profile": { 
			"-0.025": 0.0,
			"-0.024": 0.0,
			"-0.023": 0.0,
			"-0.022": 0.0,
			"-0.021": 0.0,
			"-0.02": 0.0,
			"-0.019": 0.0,
			"-0.018": 0.0,
			"-0.017": 0.0,
			"-0.016": 0.0,
			"-0.015": 0.0,
			"-0.014": 0.0,
			"-0.013": 0.0,
			"-0.012": 0.0,
			"-0.011": 0.0,
			"-0.01": 0.00211566035823,
			"-0.009": 1.71295253565,
			"-0.008": 6.9802737729,
			"-0.007": 10.6381329147,
			"-0.006": 12.5392321685,
			"-0.005": 10.5932492487,
			"-0.004": 10.0709014642,
			"-0.003": 11.0551859994,
			"-0.002": 10.7687568072,
			"-0.001": 21.5302106211,
			"0.0": 21.0042993439,
			"0.001": 17.195857373,
			"0.002": 9.07233450388,
			"0.003": 5.31493038253,
			"0.004": 5.6521414973,
			"0.005": 3.62657832611,
			"0.006": 5.516209964,
			"0.007": 8.22640056156,
			"0.008": 7.18707559326,
			"0.009": 5.04120933977,
			"0.01": 3.24190659916,
			"0.011": 1.37340895624,
			"0.012": 0.8017575259,
			"0.013": 1.09414133078,
			"0.014": 0.70257355777,
			"0.015": 0.851226329126,
			"0.016": 0.612749616962,
			"0.017": 0.00307296410518,
			"0.018": 0.0,
			"0.019": 0.0,
			"0.02": 0.0,
			"0.021": 0.0,
			"0.022": 0.0,
			"0.023": 0.0,
			"0.024": 0.0,
			"0.025": 0.0
		}
	}
}
