{
	 "smiles": "CC(NC(=O)C1=COC=C1)C(O)=O", 
	 "Tm": 440.15, 
	 "num_atms": 22, 
	 "gaussian": { 
		 "optdone": 1, 
		 "sigma_profile": "yes", 
		 "theory": "DFT", 
		 "functional": "B3LYP", 
		 "basiset": "6-31G**", 
		 "properties": { 
			 "R2extent": 2752.6937, 
			 "electric_dipole_moment_norm": 1.97016107463, 
			 "electric_quadrupole_moment_norm": 17.6177832124, 
			 "total_energy": -665.914747342, 
			 "HOMO_LUMO_gap": 0.2097, 
			 "cosmo_polarized_energy": -17.69, 
			 "cosmo_cavitation_energy": 26.61, 
			 "cosmo_dispersion_energy": -18.9, 
			 "cosmo_repulsion_energy": 1.5, 
			 "cosmo_total_nonelectrostatic_energy": 9.21, 
			 "SMD_solvation_energy": 8.08 
		},
		"coords": [
			{
				"x": -1.4362334345,
				"y": 1.9228095692,
				"z": -1.6904780868,
				"element": "C" 
			},
			{
				"x": -0.7553810754,
				"y": 0.870973071,
				"z": -0.80913197,
				"element": "C" 
			},
			{
				"x": -0.9811261941,
				"y": 1.1159784098,
				"z": 0.6272676223,
				"element": "N" 
			},
			{
				"x": 0.0107147343,
				"y": 1.5196693026,
				"z": 1.5342944148,
				"element": "C" 
			},
			{
				"x": -0.2608965751,
				"y": 2.3125663851,
				"z": 2.4247023413,
				"element": "O" 
			},
			{
				"x": 1.3516852554,
				"y": 0.9071455389,
				"z": 1.4095680208,
				"element": "C" 
			},
			{
				"x": 2.4720597848,
				"y": 1.4757563857,
				"z": 1.9543570115,
				"element": "C" 
			},
			{
				"x": 3.5537331607,
				"y": 0.6957841533,
				"z": 1.7415106747,
				"element": "O" 
			},
			{
				"x": 3.1258974259,
				"y": -0.4121165963,
				"z": 1.0615713051,
				"element": "C" 
			},
			{
				"x": 1.7904028523,
				"y": -0.3390525692,
				"z": 0.8264339682,
				"element": "C" 
			},
			{
				"x": -1.1952199217,
				"y": -0.552849471,
				"z": -1.2165117831,
				"element": "C" 
			},
			{
				"x": -1.4567988759,
				"y": -1.3818945355,
				"z": -0.1874445703,
				"element": "O" 
			},
			{
				"x": -1.2585873814,
				"y": -0.9071387173,
				"z": -2.3683350658,
				"element": "O" 
			},
			{
				"x": -2.5134972145,
				"y": 1.9601483647,
				"z": -1.4939058274,
				"element": "H" 
			},
			{
				"x": -1.2969797862,
				"y": 1.6600563255,
				"z": -2.7404103004,
				"element": "H" 
			},
			{
				"x": -1.0128043023,
				"y": 2.9132433604,
				"z": -1.5047139793,
				"element": "H" 
			},
			{
				"x": 0.3232878018,
				"y": 0.9037062326,
				"z": -0.9922357215,
				"element": "H" 
			},
			{
				"x": -1.8310225575,
				"y": 1.6379887877,
				"z": 0.8240256952,
				"element": "H" 
			},
			{
				"x": 2.6280762696,
				"y": 2.396818084,
				"z": 2.4931501353,
				"element": "H" 
			},
			{
				"x": 3.8830755475,
				"y": -1.1455171002,
				"z": 0.8335276885,
				"element": "H" 
			},
			{
				"x": 1.1856910713,
				"y": -1.0915250769,
				"z": 0.3420063254,
				"element": "H" 
			},
			{
				"x": -1.4009765852,
				"y": -0.8390499038,
				"z": 0.6249521014,
				"element": "H" 
			}
		],
		 "valence_orbital": [ 
			{
				"type": "occ",
				"energy": -0.30748,
				"method": "rhf"
			},
			{
				"type": "occ",
				"energy": -0.29983,
				"method": "rhf"
			},
			{
				"type": "occ",
				"energy": -0.28272,
				"method": "rhf"
			},
			{
				"type": "occ",
				"energy": -0.26047,
				"method": "rhf"
			},
			{
				"type": "occ",
				"energy": -0.25163,
				"method": "rhf"
			},
			{
				"type": "unocc",
				"energy": -0.04193,
				"method": "rhf"
			},
			{
				"type": "unocc",
				"energy": 0.00115,
				"method": "rhf"
			},
			{
				"type": "unocc",
				"energy": 0.00173,
				"method": "rhf"
			},
			{
				"type": "unocc",
				"energy": 0.06836,
				"method": "rhf"
			},
			{
				"type": "unocc",
				"energy": 0.08389,
				"method": "rhf"
			}
		],
		"cosmo_sigma_profile": { 
			"-0.025": 0.0,
			"-0.024": 0.0,
			"-0.023": 0.0,
			"-0.022": 0.0,
			"-0.021": 0.0,
			"-0.02": 0.0,
			"-0.019": 0.0,
			"-0.018": 0.0,
			"-0.017": 0.0,
			"-0.016": 0.0,
			"-0.015": 0.0,
			"-0.014": 0.73652733827,
			"-0.013": 1.68965352103,
			"-0.012": 2.11669934261,
			"-0.011": 3.03806279466,
			"-0.01": 5.64436478015,
			"-0.009": 6.12549115224,
			"-0.008": 6.53322548554,
			"-0.007": 9.9054262183,
			"-0.006": 9.55753303704,
			"-0.005": 13.2105563664,
			"-0.004": 12.6193271289,
			"-0.003": 13.2816372089,
			"-0.002": 12.6964891651,
			"-0.001": 12.5701627531,
			"0.0": 11.32460348,
			"0.001": 13.8431910999,
			"0.002": 10.5109084018,
			"0.003": 8.41431906776,
			"0.004": 5.37730353715,
			"0.005": 5.53327179839,
			"0.006": 5.2587581214,
			"0.007": 5.19619600223,
			"0.008": 5.08146869822,
			"0.009": 4.17309331349,
			"0.01": 6.4210366665,
			"0.011": 6.85739591678,
			"0.012": 9.11475954322,
			"0.013": 5.03022750886,
			"0.014": 0.162857538995,
			"0.015": 0.0,
			"0.016": 0.0,
			"0.017": 0.0,
			"0.018": 0.0,
			"0.019": 0.0,
			"0.02": 0.0,
			"0.021": 0.0,
			"0.022": 0.0,
			"0.023": 0.0,
			"0.024": 0.0,
			"0.025": 0.0
		}
	}
}
