{
	 "smiles": "NC1=NC(=O)N(C=C1)C1CCC(CO)O1", 
	 "Tm": 491.15, 
	 "num_atms": 28, 
	 "gaussian": { 
		 "optdone": 1, 
		 "sigma_profile": "yes", 
		 "theory": "DFT", 
		 "functional": "B3LYP", 
		 "basiset": "6-31G**", 
		 "properties": { 
			 "R2extent": 3833.6799, 
			 "electric_dipole_moment_norm": 4.90197614131, 
			 "electric_quadrupole_moment_norm": 20.1868325727, 
			 "total_energy": -740.725096198, 
			 "HOMO_LUMO_gap": 0.19727, 
			 "cosmo_polarized_energy": -24.15, 
			 "cosmo_cavitation_energy": 30.49, 
			 "cosmo_dispersion_energy": -22.51, 
			 "cosmo_repulsion_energy": 1.78, 
			 "cosmo_total_nonelectrostatic_energy": 9.76, 
			 "SMD_solvation_energy": 3.99 
		},
		"coords": [
			{
				"x": 1.5224034661,
				"y": -1.594246987,
				"z": 3.7751827432,
				"element": "N" 
			},
			{
				"x": 0.997611279,
				"y": -1.1053955149,
				"z": 2.6158764787,
				"element": "C" 
			},
			{
				"x": 1.1605587066,
				"y": 0.1851179469,
				"z": 2.3830925852,
				"element": "N" 
			},
			{
				"x": 0.6315104099,
				"y": 0.7566988937,
				"z": 1.2604083519,
				"element": "C" 
			},
			{
				"x": 0.7108677416,
				"y": 1.9469927935,
				"z": 0.9735186968,
				"element": "O" 
			},
			{
				"x": -0.0577665577,
				"y": -0.1063922247,
				"z": 0.3419536591,
				"element": "N" 
			},
			{
				"x": -0.2390511911,
				"y": -1.4223552426,
				"z": 0.6113161358,
				"element": "C" 
			},
			{
				"x": 0.2795160443,
				"y": -1.9839143435,
				"z": 1.738689131,
				"element": "C" 
			},
			{
				"x": -0.6401706669,
				"y": 0.5544883482,
				"z": -0.8593738146,
				"element": "C" 
			},
			{
				"x": 0.4331297948,
				"y": 0.9734551131,
				"z": -1.8722761729,
				"element": "C" 
			},
			{
				"x": 0.5490874185,
				"y": -0.266710023,
				"z": -2.7722772255,
				"element": "C" 
			},
			{
				"x": -0.8793873235,
				"y": -0.826462613,
				"z": -2.7710728611,
				"element": "C" 
			},
			{
				"x": -1.7564063226,
				"y": -0.3399302416,
				"z": -3.9233084156,
				"element": "C" 
			},
			{
				"x": -3.1035144016,
				"y": -0.7253363773,
				"z": -3.74292992,
				"element": "O" 
			},
			{
				"x": -1.4899341696,
				"y": -0.3488898111,
				"z": -1.5352795194,
				"element": "O" 
			},
			{
				"x": 2.1208344599,
				"y": -0.9724995983,
				"z": 4.297648176,
				"element": "H" 
			},
			{
				"x": 1.6285686586,
				"y": -2.5857198057,
				"z": 3.9107487749,
				"element": "H" 
			},
			{
				"x": -0.8278549572,
				"y": -1.974372385,
				"z": -0.1107813711,
				"element": "H" 
			},
			{
				"x": 0.128557156,
				"y": -3.0321869661,
				"z": 1.9636967191,
				"element": "H" 
			},
			{
				"x": -1.2214759534,
				"y": 1.4010163469,
				"z": -0.4892648735,
				"element": "H" 
			},
			{
				"x": 1.3595033592,
				"y": 1.271842426,
				"z": -1.3838672,
				"element": "H" 
			},
			{
				"x": 0.0616660614,
				"y": 1.8341908848,
				"z": -2.4371116083,
				"element": "H" 
			},
			{
				"x": 0.897796232,
				"y": -0.0275394493,
				"z": -3.7812774911,
				"element": "H" 
			},
			{
				"x": 1.2471874895,
				"y": -0.9926819021,
				"z": -2.3442336733,
				"element": "H" 
			},
			{
				"x": -0.9121772919,
				"y": -1.9217451343,
				"z": -2.7409087387,
				"element": "H" 
			},
			{
				"x": -1.6542786231,
				"y": 0.7542028061,
				"z": -4.0230153336,
				"element": "H" 
			},
			{
				"x": -1.4138520471,
				"y": -0.7917698259,
				"z": -4.8609061457,
				"element": "H" 
			},
			{
				"x": -3.3439287718,
				"y": -0.4341571141,
				"z": -2.8512470872,
				"element": "H" 
			}
		],
		 "valence_orbital": [ 
			{
				"type": "occ",
				"energy": -0.2665,
				"method": "rhf"
			},
			{
				"type": "occ",
				"energy": -0.26149,
				"method": "rhf"
			},
			{
				"type": "occ",
				"energy": -0.24761,
				"method": "rhf"
			},
			{
				"type": "occ",
				"energy": -0.24449,
				"method": "rhf"
			},
			{
				"type": "occ",
				"energy": -0.22408,
				"method": "rhf"
			},
			{
				"type": "unocc",
				"energy": -0.02681,
				"method": "rhf"
			},
			{
				"type": "unocc",
				"energy": 0.02259,
				"method": "rhf"
			},
			{
				"type": "unocc",
				"energy": 0.07207,
				"method": "rhf"
			},
			{
				"type": "unocc",
				"energy": 0.07491,
				"method": "rhf"
			},
			{
				"type": "unocc",
				"energy": 0.08392,
				"method": "rhf"
			}
		],
		"cosmo_sigma_profile": { 
			"-0.025": 0.0,
			"-0.024": 0.0,
			"-0.023": 0.0,
			"-0.022": 0.0,
			"-0.021": 0.0,
			"-0.02": 0.0,
			"-0.019": 0.0,
			"-0.018": 0.0,
			"-0.017": 0.0,
			"-0.016": 0.0,
			"-0.015": 0.350022752463,
			"-0.014": 1.89601568024,
			"-0.013": 2.07365134601,
			"-0.012": 3.55523458845,
			"-0.011": 3.18888524206,
			"-0.01": 3.57745440216,
			"-0.009": 2.91978341414,
			"-0.008": 3.798342468,
			"-0.007": 5.00655876573,
			"-0.006": 10.0664215045,
			"-0.005": 21.9042772522,
			"-0.004": 24.2520865545,
			"-0.003": 21.0431485792,
			"-0.002": 17.9882627519,
			"-0.001": 18.2699913167,
			"0.0": 12.5245996263,
			"0.001": 10.0480785505,
			"0.002": 8.95194214961,
			"0.003": 8.65494633478,
			"0.004": 6.91567881244,
			"0.005": 5.23213139909,
			"0.006": 4.19147543057,
			"0.007": 4.79664181994,
			"0.008": 3.54940614314,
			"0.009": 3.46349237896,
			"0.01": 3.36385710305,
			"0.011": 3.25074125236,
			"0.012": 3.25164265047,
			"0.013": 4.71646056251,
			"0.014": 7.00647142744,
			"0.015": 4.22895582824,
			"0.016": 2.88865062678,
			"0.017": 2.24095357818,
			"0.018": 0.279135385498,
			"0.019": 0.0,
			"0.02": 0.0,
			"0.021": 0.0,
			"0.022": 0.0,
			"0.023": 0.0,
			"0.024": 0.0,
			"0.025": 0.0
		}
	}
}
