{
	 "smiles": "CC(OC1=CC(C)=CC=C1)C(O)=O", 
	 "Tm": 359.15, 
	 "num_atms": 25, 
	 "gaussian": { 
		 "optdone": 1, 
		 "sigma_profile": "yes", 
		 "theory": "DFT", 
		 "functional": "B3LYP", 
		 "basiset": "6-31G**", 
		 "properties": { 
			 "R2extent": 2941.3783, 
			 "electric_dipole_moment_norm": 4.29489320589, 
			 "electric_quadrupole_moment_norm": 15.6617877431, 
			 "total_energy": -613.968294982, 
			 "HOMO_LUMO_gap": 0.23148, 
			 "cosmo_polarized_energy": -17.22, 
			 "cosmo_cavitation_energy": 29.01, 
			 "cosmo_dispersion_energy": -20.48, 
			 "cosmo_repulsion_energy": 1.65, 
			 "cosmo_total_nonelectrostatic_energy": 10.17, 
			 "SMD_solvation_energy": 6.25 
		},
		"coords": [
			{
				"x": 0.6493557819,
				"y": -2.8336741691,
				"z": 0.3972259964,
				"element": "C" 
			},
			{
				"x": 0.1799898082,
				"y": -1.5467939908,
				"z": -0.2872954539,
				"element": "C" 
			},
			{
				"x": 0.9857014908,
				"y": -0.4942305725,
				"z": 0.2034238942,
				"element": "O" 
			},
			{
				"x": 0.5098756057,
				"y": 0.797013451,
				"z": 0.0069690267,
				"element": "C" 
			},
			{
				"x": -0.4856365484,
				"y": 1.2993573868,
				"z": 0.847788809,
				"element": "C" 
			},
			{
				"x": -0.9393460835,
				"y": 2.616489364,
				"z": 0.7052582512,
				"element": "C" 
			},
			{
				"x": -1.9888455147,
				"y": 3.1754759257,
				"z": 1.6381231021,
				"element": "C" 
			},
			{
				"x": -0.3694997679,
				"y": 3.4121536234,
				"z": -0.2981401077,
				"element": "C" 
			},
			{
				"x": 0.630386957,
				"y": 2.9064346242,
				"z": -1.1301792204,
				"element": "C" 
			},
			{
				"x": 1.0781708495,
				"y": 1.5927003517,
				"z": -0.9874090828,
				"element": "C" 
			},
			{
				"x": 0.3098835649,
				"y": -1.6896374141,
				"z": -1.8178827771,
				"element": "C" 
			},
			{
				"x": -0.6723946971,
				"y": -2.4289968712,
				"z": -2.4029604822,
				"element": "O" 
			},
			{
				"x": 1.21275445,
				"y": -1.2443103597,
				"z": -2.4750089332,
				"element": "O" 
			},
			{
				"x": 0.5297021993,
				"y": -2.7393267364,
				"z": 1.4789785123,
				"element": "H" 
			},
			{
				"x": 0.0802309821,
				"y": -3.7015196053,
				"z": 0.0508860068,
				"element": "H" 
			},
			{
				"x": 1.7066241117,
				"y": -2.9989381528,
				"z": 0.1748057563,
				"element": "H" 
			},
			{
				"x": -0.8789050554,
				"y": -1.3551066597,
				"z": -0.0457610614,
				"element": "H" 
			},
			{
				"x": -0.8908802457,
				"y": 0.660408618,
				"z": 1.628541673,
				"element": "H" 
			},
			{
				"x": -2.6649203175,
				"y": 2.3939057654,
				"z": 1.9980580062,
				"element": "H" 
			},
			{
				"x": -1.5286762826,
				"y": 3.6385736746,
				"z": 2.5200161026,
				"element": "H" 
			},
			{
				"x": -2.5915909959,
				"y": 3.9445118416,
				"z": 1.1457256311,
				"element": "H" 
			},
			{
				"x": -0.7107783337,
				"y": 4.43633248,
				"z": -0.4255015983,
				"element": "H" 
			},
			{
				"x": 1.0597285168,
				"y": 3.5376403358,
				"z": -1.9030457331,
				"element": "H" 
			},
			{
				"x": 1.8370420267,
				"y": 1.1663155927,
				"z": -1.6322521013,
				"element": "H" 
			},
			{
				"x": -1.3482725023,
				"y": -2.6716785035,
				"z": -1.7535642164,
				"element": "H" 
			}
		],
		 "valence_orbital": [ 
			{
				"type": "occ",
				"energy": -0.32055,
				"method": "rhf"
			},
			{
				"type": "occ",
				"energy": -0.29266,
				"method": "rhf"
			},
			{
				"type": "occ",
				"energy": -0.26903,
				"method": "rhf"
			},
			{
				"type": "occ",
				"energy": -0.24426,
				"method": "rhf"
			},
			{
				"type": "occ",
				"energy": -0.2341,
				"method": "rhf"
			},
			{
				"type": "unocc",
				"energy": -0.00262,
				"method": "rhf"
			},
			{
				"type": "unocc",
				"energy": 0.00261,
				"method": "rhf"
			},
			{
				"type": "unocc",
				"energy": 0.00402,
				"method": "rhf"
			},
			{
				"type": "unocc",
				"energy": 0.04491,
				"method": "rhf"
			},
			{
				"type": "unocc",
				"energy": 0.09637,
				"method": "rhf"
			}
		],
		"cosmo_sigma_profile": { 
			"-0.025": 0.0,
			"-0.024": 0.0,
			"-0.023": 0.0,
			"-0.022": 0.0,
			"-0.021": 0.0,
			"-0.02": 0.101930426095,
			"-0.019": 0.836714425928,
			"-0.018": 1.3335714401,
			"-0.017": 0.919650436137,
			"-0.016": 1.40084320885,
			"-0.015": 1.06468425381,
			"-0.014": 1.35365869197,
			"-0.013": 1.07688528057,
			"-0.012": 1.03009835829,
			"-0.011": 1.20752793138,
			"-0.01": 1.29912511224,
			"-0.009": 1.40723964181,
			"-0.008": 1.19357831258,
			"-0.007": 2.74958086027,
			"-0.006": 5.75573894992,
			"-0.005": 14.1220426846,
			"-0.004": 21.6435059665,
			"-0.003": 21.5550233913,
			"-0.002": 19.6112338391,
			"-0.001": 18.5443718418,
			"0.0": 16.3933078214,
			"0.001": 10.4138569444,
			"0.002": 9.42491299536,
			"0.003": 10.4373432581,
			"0.004": 12.257729219,
			"0.005": 13.1597454616,
			"0.006": 7.87144406876,
			"0.007": 4.25911920138,
			"0.008": 4.20616100388,
			"0.009": 4.69444716614,
			"0.01": 7.24302788187,
			"0.011": 6.65653933065,
			"0.012": 3.1070197436,
			"0.013": 0.6591664566,
			"0.014": 0.0,
			"0.015": 0.0,
			"0.016": 0.0,
			"0.017": 0.0,
			"0.018": 0.0,
			"0.019": 0.0,
			"0.02": 0.0,
			"0.021": 0.0,
			"0.022": 0.0,
			"0.023": 0.0,
			"0.024": 0.0,
			"0.025": 0.0
		}
	}
}
