{
	 "smiles": "OCCC(F)(F)C(F)(F)C(F)(F)C(F)(F)C(F)(F)C(F)(F)C(F)(F)C(F)(F)F", 
	 "Tm": 319.35, 
	 "num_atms": 33, 
	 "gaussian": { 
		 "optdone": 1, 
		 "sigma_profile": "yes", 
		 "theory": "DFT", 
		 "functional": "B3LYP", 
		 "basiset": "6-31G**", 
		 "properties": { 
			 "R2extent": 9452.7649, 
			 "electric_dipole_moment_norm": 3.16885876934, 
			 "electric_quadrupole_moment_norm": 17.4977417757, 
			 "total_energy": -2156.51135561, 
			 "HOMO_LUMO_gap": 0.29354, 
			 "cosmo_polarized_energy": -7.44, 
			 "cosmo_cavitation_energy": 40.68, 
			 "cosmo_dispersion_energy": -26.82, 
			 "cosmo_repulsion_energy": 1.74, 
			 "cosmo_total_nonelectrostatic_energy": 15.6, 
			 "SMD_solvation_energy": 11.93 
		},
		"coords": [
			{
				"x": 0.3007188944,
				"y": 3.348206307,
				"z": 3.0837727045,
				"element": "O" 
			},
			{
				"x": 1.4960999281,
				"y": 3.9257993996,
				"z": 2.5860038654,
				"element": "C" 
			},
			{
				"x": 2.0021361638,
				"y": 3.08825407,
				"z": 1.4125915265,
				"element": "C" 
			},
			{
				"x": 2.826029295,
				"y": 1.8586568663,
				"z": 1.7712177506,
				"element": "C" 
			},
			{
				"x": 3.8287828593,
				"y": 2.2208086591,
				"z": 2.6301586426,
				"element": "F" 
			},
			{
				"x": 3.4250402237,
				"y": 1.3892904655,
				"z": 0.6319740954,
				"element": "F" 
			},
			{
				"x": 2.1535437541,
				"y": 0.6301637218,
				"z": 2.4397668045,
				"element": "C" 
			},
			{
				"x": 3.1011031588,
				"y": -0.3280295271,
				"z": 2.5867166595,
				"element": "F" 
			},
			{
				"x": 1.726663087,
				"y": 0.990094015,
				"z": 3.6742923751,
				"element": "F" 
			},
			{
				"x": 0.9267635836,
				"y": -0.0309613727,
				"z": 1.736974112,
				"element": "C" 
			},
			{
				"x": -0.0957726752,
				"y": 0.854750451,
				"z": 1.7354446707,
				"element": "F" 
			},
			{
				"x": 0.5811693113,
				"y": -1.0935232869,
				"z": 2.5033326184,
				"element": "F" 
			},
			{
				"x": 1.1373530565,
				"y": -0.5257656049,
				"z": 0.2782158163,
				"element": "C" 
			},
			{
				"x": 1.1728390683,
				"y": 0.5561350855,
				"z": -0.5444712709,
				"element": "F" 
			},
			{
				"x": 2.3190509045,
				"y": -1.175516423,
				"z": 0.1999965866,
				"element": "F" 
			},
			{
				"x": 0.0805728058,
				"y": -1.5148476314,
				"z": -0.3047731037,
				"element": "C" 
			},
			{
				"x": 0.5045926857,
				"y": -1.8189489967,
				"z": -1.5537578951,
				"element": "F" 
			},
			{
				"x": 0.0975546381,
				"y": -2.6428643211,
				"z": 0.4394779511,
				"element": "F" 
			},
			{
				"x": -1.4141002043,
				"y": -1.0831514037,
				"z": -0.4063399234,
				"element": "C" 
			},
			{
				"x": -1.8966245593,
				"y": -0.9064437718,
				"z": 0.843504133,
				"element": "F" 
			},
			{
				"x": -2.0550596193,
				"y": -2.1363865167,
				"z": -0.9743151633,
				"element": "F" 
			},
			{
				"x": -1.7471383109,
				"y": 0.1786193453,
				"z": -1.2508459766,
				"element": "C" 
			},
			{
				"x": -1.0290827472,
				"y": 0.1660574294,
				"z": -2.3962169204,
				"element": "F" 
			},
			{
				"x": -1.4291826956,
				"y": 1.2824602921,
				"z": -0.5385802702,
				"element": "F" 
			},
			{
				"x": -3.2466018601,
				"y": 0.2927503895,
				"z": -1.6414488419,
				"element": "C" 
			},
			{
				"x": -3.4691842811,
				"y": 1.5164402953,
				"z": -2.1363101751,
				"element": "F" 
			},
			{
				"x": -4.0266917537,
				"y": 0.1113873805,
				"z": -0.5677669997,
				"element": "F" 
			},
			{
				"x": -3.5621647538,
				"y": -0.6114673797,
				"z": -2.5730819625,
				"element": "F" 
			},
			{
				"x": 0.1226111123,
				"y": 3.717904975,
				"z": 3.9566001166,
				"element": "H" 
			},
			{
				"x": 1.3169117764,
				"y": 4.9480509285,
				"z": 2.2185596326,
				"element": "H" 
			},
			{
				"x": 2.279099871,
				"y": 3.9849871365,
				"z": 3.3540049314,
				"element": "H" 
			},
			{
				"x": 2.6833539069,
				"y": 3.6962534422,
				"z": 0.8078521967,
				"element": "H" 
			},
			{
				"x": 1.1650133761,
				"y": 2.7993355806,
				"z": 0.7739513137,
				"element": "H" 
			}
		],
		 "valence_orbital": [ 
			{
				"type": "occ",
				"energy": -0.3663,
				"method": "rhf"
			},
			{
				"type": "occ",
				"energy": -0.3536,
				"method": "rhf"
			},
			{
				"type": "occ",
				"energy": -0.34605,
				"method": "rhf"
			},
			{
				"type": "occ",
				"energy": -0.33744,
				"method": "rhf"
			},
			{
				"type": "occ",
				"energy": -0.28106,
				"method": "rhf"
			},
			{
				"type": "unocc",
				"energy": 0.01248,
				"method": "rhf"
			},
			{
				"type": "unocc",
				"energy": 0.01845,
				"method": "rhf"
			},
			{
				"type": "unocc",
				"energy": 0.04225,
				"method": "rhf"
			},
			{
				"type": "unocc",
				"energy": 0.04675,
				"method": "rhf"
			},
			{
				"type": "unocc",
				"energy": 0.06498,
				"method": "rhf"
			}
		],
		"cosmo_sigma_profile": { 
			"-0.025": 0.0,
			"-0.024": 0.0,
			"-0.023": 0.0,
			"-0.022": 0.0,
			"-0.021": 0.0,
			"-0.02": 0.0,
			"-0.019": 0.0,
			"-0.018": 0.0,
			"-0.017": 0.079119250598,
			"-0.016": 0.717680684522,
			"-0.015": 1.23937166458,
			"-0.014": 0.857631723111,
			"-0.013": 0.604933092005,
			"-0.012": 1.29217620425,
			"-0.011": 0.815150785037,
			"-0.01": 0.498310610474,
			"-0.009": 0.494867908605,
			"-0.008": 1.62509267633,
			"-0.007": 3.57633338786,
			"-0.006": 4.19977662963,
			"-0.005": 8.13404786097,
			"-0.004": 12.9887886827,
			"-0.003": 15.2281752771,
			"-0.002": 17.0603703054,
			"-0.001": 24.9352163386,
			"0.0": 56.6696585162,
			"0.001": 99.5635632776,
			"0.002": 37.0611379517,
			"0.003": 21.903393131,
			"0.004": 3.31240099838,
			"0.005": 1.24934854778,
			"0.006": 2.2322464912,
			"0.007": 1.4452703076,
			"0.008": 1.06697307458,
			"0.009": 2.02339758788,
			"0.01": 1.16812103858,
			"0.011": 0.892464975292,
			"0.012": 0.613858476814,
			"0.013": 0.712111319369,
			"0.014": 0.019737501138,
			"0.015": 0.0,
			"0.016": 0.0,
			"0.017": 0.0,
			"0.018": 0.0,
			"0.019": 0.0,
			"0.02": 0.0,
			"0.021": 0.0,
			"0.022": 0.0,
			"0.023": 0.0,
			"0.024": 0.0,
			"0.025": 0.0
		}
	}
}
