{
	 "smiles": "[O-][N+](=O)C1=CC(C(Cl)=O)=C(Cl)C=C1", 
	 "Tm": 332.15, 
	 "num_atms": 16, 
	 "gaussian": { 
		 "optdone": 1, 
		 "sigma_profile": "yes", 
		 "theory": "DFT", 
		 "functional": "B3LYP", 
		 "basiset": "6-31G**", 
		 "properties": { 
			 "R2extent": 4885.1997, 
			 "electric_dipole_moment_norm": 3.47947571482, 
			 "electric_quadrupole_moment_norm": 12.5817870181, 
			 "total_energy": -1469.24952637, 
			 "HOMO_LUMO_gap": 0.18135, 
			 "cosmo_polarized_energy": -9.55, 
			 "cosmo_cavitation_energy": 25.94, 
			 "cosmo_dispersion_energy": -18.93, 
			 "cosmo_repulsion_energy": 1.5, 
			 "cosmo_total_nonelectrostatic_energy": 8.52, 
			 "SMD_solvation_energy": 7.07 
		},
		"coords": [
			{
				"x": 1.1160780587,
				"y": -1.9611160709,
				"z": 0.6472248715,
				"element": "O" 
			},
			{
				"x": 1.4813537739,
				"y": -0.899106241,
				"z": 0.1473817763,
				"element": "N" 
			},
			{
				"x": 2.5503689524,
				"y": -0.7166755258,
				"z": -0.4301321865,
				"element": "O" 
			},
			{
				"x": 0.5607180525,
				"y": 0.2460972268,
				"z": 0.2500197771,
				"element": "C" 
			},
			{
				"x": 0.9426856894,
				"y": 1.4652866954,
				"z": -0.2926922554,
				"element": "C" 
			},
			{
				"x": 0.0683571556,
				"y": 2.5571759033,
				"z": -0.2250898126,
				"element": "C" 
			},
			{
				"x": 0.5763820167,
				"y": 3.814277633,
				"z": -0.86077912,
				"element": "C" 
			},
			{
				"x": -0.538880132,
				"y": 4.5617266828,
				"z": -2.0640187506,
				"element": "Cl" 
			},
			{
				"x": 1.6715766269,
				"y": 4.2558570871,
				"z": -0.6948374405,
				"element": "O" 
			},
			{
				"x": -1.157427547,
				"y": 2.4042314999,
				"z": 0.4487629362,
				"element": "C" 
			},
			{
				"x": -2.2443160525,
				"y": 3.7434337769,
				"z": 0.6940014482,
				"element": "Cl" 
			},
			{
				"x": -1.5144362462,
				"y": 1.1710775094,
				"z": 1.0037669802,
				"element": "C" 
			},
			{
				"x": -0.6615972406,
				"y": 0.0790348061,
				"z": 0.8962700048,
				"element": "C" 
			},
			{
				"x": 1.9072902489,
				"y": 1.562289187,
				"z": -0.7749910056,
				"element": "H" 
			},
			{
				"x": -2.459957611,
				"y": 1.0803032317,
				"z": 1.5255192393,
				"element": "H" 
			},
			{
				"x": -0.9214957456,
				"y": -0.8867934014,
				"z": 1.3110935376,
				"element": "H" 
			}
		],
		 "valence_orbital": [ 
			{
				"type": "occ",
				"energy": -0.32638,
				"method": "rhf"
			},
			{
				"type": "occ",
				"energy": -0.32172,
				"method": "rhf"
			},
			{
				"type": "occ",
				"energy": -0.31119,
				"method": "rhf"
			},
			{
				"type": "occ",
				"energy": -0.30445,
				"method": "rhf"
			},
			{
				"type": "occ",
				"energy": -0.29474,
				"method": "rhf"
			},
			{
				"type": "unocc",
				"energy": -0.11339,
				"method": "rhf"
			},
			{
				"type": "unocc",
				"energy": -0.0886,
				"method": "rhf"
			},
			{
				"type": "unocc",
				"energy": -0.04529,
				"method": "rhf"
			},
			{
				"type": "unocc",
				"energy": -0.02834,
				"method": "rhf"
			},
			{
				"type": "unocc",
				"energy": -0.00143,
				"method": "rhf"
			}
		],
		"cosmo_sigma_profile": { 
			"-0.025": 0.0,
			"-0.024": 0.0,
			"-0.023": 0.0,
			"-0.022": 0.0,
			"-0.021": 0.0,
			"-0.02": 0.0,
			"-0.019": 0.0,
			"-0.018": 0.0,
			"-0.017": 0.0,
			"-0.016": 0.0,
			"-0.015": 0.0,
			"-0.014": 0.0,
			"-0.013": 0.0,
			"-0.012": 0.0,
			"-0.011": 0.0,
			"-0.01": 0.941110759455,
			"-0.009": 4.86063747116,
			"-0.008": 6.78682513354,
			"-0.007": 6.54705302881,
			"-0.006": 7.57239874917,
			"-0.005": 8.11812201367,
			"-0.004": 12.7933738019,
			"-0.003": 19.2378766573,
			"-0.002": 23.9983589373,
			"-0.001": 14.5657073933,
			"0.0": 12.0515675913,
			"0.001": 13.847368562,
			"0.002": 16.5464095971,
			"0.003": 18.0054663848,
			"0.004": 9.15352388101,
			"0.005": 5.5670108878,
			"0.006": 8.50163137157,
			"0.007": 12.6879725895,
			"0.008": 8.18010491866,
			"0.009": 3.62983536238,
			"0.01": 0.58330221927,
			"0.011": 0.0,
			"0.012": 0.0,
			"0.013": 0.0,
			"0.014": 0.0,
			"0.015": 0.0,
			"0.016": 0.0,
			"0.017": 0.0,
			"0.018": 0.0,
			"0.019": 0.0,
			"0.02": 0.0,
			"0.021": 0.0,
			"0.022": 0.0,
			"0.023": 0.0,
			"0.024": 0.0,
			"0.025": 0.0
		}
	}
}
