{
	 "smiles": "CC1=CC=CC=C1CBr", 
	 "Tm": 293.15, 
	 "num_atms": 18, 
	 "gaussian": { 
		 "optdone": 1, 
		 "sigma_profile": "yes", 
		 "theory": "DFT", 
		 "functional": "B3LYP", 
		 "basiset": "6-31G**", 
		 "properties": { 
			 "R2extent": 3033.0479, 
			 "electric_dipole_moment_norm": 2.23660158723, 
			 "electric_quadrupole_moment_norm": 10.7520763651, 
			 "total_energy": -2881.69317935, 
			 "HOMO_LUMO_gap": 0.20635, 
			 "cosmo_polarized_energy": -5.8, 
			 "cosmo_cavitation_energy": 23.12, 
			 "cosmo_dispersion_energy": -17.29, 
			 "cosmo_repulsion_energy": 1.41, 
			 "cosmo_total_nonelectrostatic_energy": 7.24, 
			 "SMD_solvation_energy": 2.8 
		},
		"coords": [
			{
				"x": -3.1433295941,
				"y": -0.3812571186,
				"z": -0.7985463004,
				"element": "C" 
			},
			{
				"x": -1.7968101427,
				"y": 0.2786644857,
				"z": -0.6192157039,
				"element": "C" 
			},
			{
				"x": -1.7094368416,
				"y": 1.6628676178,
				"z": -0.435632844,
				"element": "C" 
			},
			{
				"x": -0.4794297661,
				"y": 2.3024726793,
				"z": -0.2740600523,
				"element": "C" 
			},
			{
				"x": 0.6987044628,
				"y": 1.5569436934,
				"z": -0.295261617,
				"element": "C" 
			},
			{
				"x": 0.6304612652,
				"y": 0.1772726439,
				"z": -0.4775909954,
				"element": "C" 
			},
			{
				"x": -0.6005373435,
				"y": -0.473511576,
				"z": -0.6368783606,
				"element": "C" 
			},
			{
				"x": -0.6165075244,
				"y": -1.9571004396,
				"z": -0.8013412509,
				"element": "C" 
			},
			{
				"x": -0.7721588052,
				"y": -2.5254584492,
				"z": -2.7302725978,
				"element": "Br" 
			},
			{
				"x": -3.9410417695,
				"y": 0.3647394136,
				"z": -0.8374132603,
				"element": "H" 
			},
			{
				"x": -3.1791438324,
				"y": -0.9690091472,
				"z": -1.7218729569,
				"element": "H" 
			},
			{
				"x": -3.3739102158,
				"y": -1.0652434267,
				"z": 0.0281037092,
				"element": "H" 
			},
			{
				"x": -2.6246564873,
				"y": 2.249152554,
				"z": -0.4203897685,
				"element": "H" 
			},
			{
				"x": -0.4441745905,
				"y": 3.3790043655,
				"z": -0.1332462402,
				"element": "H" 
			},
			{
				"x": 1.6616404786,
				"y": 2.0432963761,
				"z": -0.1714227079,
				"element": "H" 
			},
			{
				"x": 1.5447781323,
				"y": -0.4105883155,
				"z": -0.4993631838,
				"element": "H" 
			},
			{
				"x": -1.4664640143,
				"y": -2.4420795612,
				"z": -0.32601278,
				"element": "H" 
			},
			{
				"x": 0.3095165884,
				"y": -2.4211657952,
				"z": -0.4686830893,
				"element": "H" 
			}
		],
		 "valence_orbital": [ 
			{
				"type": "occ",
				"energy": -0.3432,
				"method": "rhf"
			},
			{
				"type": "occ",
				"energy": -0.27095,
				"method": "rhf"
			},
			{
				"type": "occ",
				"energy": -0.26766,
				"method": "rhf"
			},
			{
				"type": "occ",
				"energy": -0.25092,
				"method": "rhf"
			},
			{
				"type": "occ",
				"energy": -0.24317,
				"method": "rhf"
			},
			{
				"type": "unocc",
				"energy": -0.03682,
				"method": "rhf"
			},
			{
				"type": "unocc",
				"energy": -0.00317,
				"method": "rhf"
			},
			{
				"type": "unocc",
				"energy": 0.02974,
				"method": "rhf"
			},
			{
				"type": "unocc",
				"energy": 0.08844,
				"method": "rhf"
			},
			{
				"type": "unocc",
				"energy": 0.10229,
				"method": "rhf"
			}
		],
		"cosmo_sigma_profile": { 
			"-0.025": 0.0,
			"-0.024": 0.0,
			"-0.023": 0.0,
			"-0.022": 0.0,
			"-0.021": 0.0,
			"-0.02": 0.0,
			"-0.019": 0.0,
			"-0.018": 0.0,
			"-0.017": 0.0,
			"-0.016": 0.0,
			"-0.015": 0.0,
			"-0.014": 0.0,
			"-0.013": 0.0,
			"-0.012": 0.0,
			"-0.011": 0.0,
			"-0.01": 0.0,
			"-0.009": 0.0,
			"-0.008": 1.2094027318,
			"-0.007": 4.82196302582,
			"-0.006": 9.780725337,
			"-0.005": 14.8100116077,
			"-0.004": 16.3328876927,
			"-0.003": 13.841697237,
			"-0.002": 12.8841725659,
			"-0.001": 15.2560258181,
			"0.0": 14.6089110318,
			"0.001": 12.8625529871,
			"0.002": 10.3349240152,
			"0.003": 11.5962433788,
			"0.004": 12.5683277174,
			"0.005": 17.1460084046,
			"0.006": 13.7419342214,
			"0.007": 5.00300768181,
			"0.008": 0.0,
			"0.009": 0.0,
			"0.01": 0.0,
			"0.011": 0.0,
			"0.012": 0.0,
			"0.013": 0.0,
			"0.014": 0.0,
			"0.015": 0.0,
			"0.016": 0.0,
			"0.017": 0.0,
			"0.018": 0.0,
			"0.019": 0.0,
			"0.02": 0.0,
			"0.021": 0.0,
			"0.022": 0.0,
			"0.023": 0.0,
			"0.024": 0.0,
			"0.025": 0.0
		}
	}
}
