{
	 "smiles": "CC(C)C(C(O)=O)C1=CC(Cl)=CC=C1", 
	 "Tm": 356.15, 
	 "num_atms": 27, 
	 "gaussian": { 
		 "optdone": 1, 
		 "sigma_profile": "yes", 
		 "theory": "DFT", 
		 "functional": "B3LYP", 
		 "basiset": "6-31G**", 
		 "properties": { 
			 "R2extent": 4289.3688, 
			 "electric_dipole_moment_norm": 3.21060933313, 
			 "electric_quadrupole_moment_norm": 10.1646845686, 
			 "total_energy": -1037.67432933, 
			 "HOMO_LUMO_gap": 0.22514, 
			 "cosmo_polarized_energy": -9.75, 
			 "cosmo_cavitation_energy": 31.44, 
			 "cosmo_dispersion_energy": -22.07, 
			 "cosmo_repulsion_energy": 1.76, 
			 "cosmo_total_nonelectrostatic_energy": 11.13, 
			 "SMD_solvation_energy": 6.02 
		},
		"coords": [
			{
				"x": -1.4956236856,
				"y": 3.1412986438,
				"z": -1.5701857533,
				"element": "C" 
			},
			{
				"x": -0.9701329845,
				"y": 1.8783110156,
				"z": -2.2638177765,
				"element": "C" 
			},
			{
				"x": -0.5085749348,
				"y": 2.1829906514,
				"z": -3.6974969822,
				"element": "C" 
			},
			{
				"x": 0.150979122,
				"y": 1.1200283067,
				"z": -1.4673248243,
				"element": "C" 
			},
			{
				"x": 1.4213192023,
				"y": 1.9517376886,
				"z": -1.3817335767,
				"element": "C" 
			},
			{
				"x": 2.4308598936,
				"y": 1.3966225974,
				"z": -2.0928108703,
				"element": "O" 
			},
			{
				"x": 1.559863558,
				"y": 2.9999295533,
				"z": -0.7840306343,
				"element": "O" 
			},
			{
				"x": -0.3241710885,
				"y": 0.6208606153,
				"z": -0.1055705907,
				"element": "C" 
			},
			{
				"x": -0.2216251517,
				"y": 1.3874283741,
				"z": 1.0634811073,
				"element": "C" 
			},
			{
				"x": -0.7099851883,
				"y": 0.8753021828,
				"z": 2.2647125189,
				"element": "C" 
			},
			{
				"x": -0.5688800575,
				"y": 1.8473688729,
				"z": 3.7257048054,
				"element": "Cl" 
			},
			{
				"x": -1.3049576635,
				"y": -0.3823950247,
				"z": 2.3420109675,
				"element": "C" 
			},
			{
				"x": -1.4043513656,
				"y": -1.1415231411,
				"z": 1.1758113397,
				"element": "C" 
			},
			{
				"x": -0.9170683209,
				"y": -0.6478312761,
				"z": -0.0334074199,
				"element": "C" 
			},
			{
				"x": -2.3088579434,
				"y": 3.5755555914,
				"z": -2.1613180864,
				"element": "H" 
			},
			{
				"x": -1.8882458351,
				"y": 2.9221063813,
				"z": -0.5737349861,
				"element": "H" 
			},
			{
				"x": -0.7097185876,
				"y": 3.8939534814,
				"z": -1.4645933847,
				"element": "H" 
			},
			{
				"x": -1.7967617189,
				"y": 1.1571009937,
				"z": -2.3218229565,
				"element": "H" 
			},
			{
				"x": -1.3366704648,
				"y": 2.5915673905,
				"z": -4.2853209679,
				"element": "H" 
			},
			{
				"x": -0.1441448315,
				"y": 1.2847739969,
				"z": -4.2074326147,
				"element": "H" 
			},
			{
				"x": 0.2971086055,
				"y": 2.9259435469,
				"z": -3.7089381956,
				"element": "H" 
			},
			{
				"x": 0.4034487661,
				"y": 0.2378048293,
				"z": -2.0629276847,
				"element": "H" 
			},
			{
				"x": 3.1918217551,
				"y": 1.9949589698,
				"z": -1.9940618259,
				"element": "H" 
			},
			{
				"x": 0.2432740173,
				"y": 2.36510646,
				"z": 1.0363824175,
				"element": "H" 
			},
			{
				"x": -1.6752108705,
				"y": -0.7558888842,
				"z": 3.2900685724,
				"element": "H" 
			},
			{
				"x": -1.8587111068,
				"y": -2.1271510149,
				"z": 1.2153640461,
				"element": "H" 
			},
			{
				"x": -0.9936831203,
				"y": -1.254660802,
				"z": -0.9318066441,
				"element": "H" 
			}
		],
		 "valence_orbital": [ 
			{
				"type": "occ",
				"energy": -0.32277,
				"method": "rhf"
			},
			{
				"type": "occ",
				"energy": -0.3076,
				"method": "rhf"
			},
			{
				"type": "occ",
				"energy": -0.27854,
				"method": "rhf"
			},
			{
				"type": "occ",
				"energy": -0.25651,
				"method": "rhf"
			},
			{
				"type": "occ",
				"energy": -0.24407,
				"method": "rhf"
			},
			{
				"type": "unocc",
				"energy": -0.01893,
				"method": "rhf"
			},
			{
				"type": "unocc",
				"energy": -0.01326,
				"method": "rhf"
			},
			{
				"type": "unocc",
				"energy": 0.00436,
				"method": "rhf"
			},
			{
				"type": "unocc",
				"energy": 0.03409,
				"method": "rhf"
			},
			{
				"type": "unocc",
				"energy": 0.07328,
				"method": "rhf"
			}
		],
		"cosmo_sigma_profile": { 
			"-0.025": 0.0,
			"-0.024": 0.0,
			"-0.023": 0.0,
			"-0.022": 0.0,
			"-0.021": 0.0,
			"-0.02": 0.0,
			"-0.019": 0.104900947403,
			"-0.018": 0.599259861273,
			"-0.017": 0.880089363425,
			"-0.016": 0.923749360647,
			"-0.015": 0.819913024384,
			"-0.014": 0.812075790471,
			"-0.013": 0.223004529599,
			"-0.012": 0.652974864158,
			"-0.011": 1.05551030458,
			"-0.01": 0.905783043894,
			"-0.009": 0.336545795791,
			"-0.008": 0.599229845471,
			"-0.007": 4.32950804373,
			"-0.006": 10.0920106376,
			"-0.005": 9.70963562965,
			"-0.004": 10.6985746091,
			"-0.003": 19.0516656908,
			"-0.002": 22.8152283386,
			"-0.001": 25.3966823821,
			"0.0": 24.7186277429,
			"0.001": 28.2775899543,
			"0.002": 19.8543993516,
			"0.003": 18.5102750182,
			"0.004": 18.9805783679,
			"0.005": 12.1954975758,
			"0.006": 2.82137681619,
			"0.007": 2.88267254553,
			"0.008": 2.3236962602,
			"0.009": 3.43348372297,
			"0.01": 1.64773044723,
			"0.011": 2.61448320303,
			"0.012": 1.74685828245,
			"0.013": 0.0,
			"0.014": 0.0,
			"0.015": 0.0,
			"0.016": 0.0,
			"0.017": 0.0,
			"0.018": 0.0,
			"0.019": 0.0,
			"0.02": 0.0,
			"0.021": 0.0,
			"0.022": 0.0,
			"0.023": 0.0,
			"0.024": 0.0,
			"0.025": 0.0
		}
	}
}
