{
	 "smiles": "COCCOC1=CC=C(CCC(O)=O)C=C1N", 
	 "Tm": 368.95, 
	 "num_atms": 34, 
	 "gaussian": { 
		 "optdone": 1, 
		 "sigma_profile": "yes", 
		 "theory": "DFT", 
		 "functional": "B3LYP", 
		 "basiset": "6-31G**", 
		 "properties": { 
			 "R2extent": 6561.7739, 
			 "electric_dipole_moment_norm": 1.43302552664, 
			 "electric_quadrupole_moment_norm": 15.9367664098, 
			 "total_energy": -823.16473742, 
			 "HOMO_LUMO_gap": 0.20151, 
			 "cosmo_polarized_energy": -16.18, 
			 "cosmo_cavitation_energy": 37.91, 
			 "cosmo_dispersion_energy": -26.43, 
			 "cosmo_repulsion_energy": 2.13, 
			 "cosmo_total_nonelectrostatic_energy": 13.6, 
			 "SMD_solvation_energy": 7.82 
		},
		"coords": [
			{
				"x": 3.95628147,
				"y": -3.7757495853,
				"z": -1.8418834622,
				"element": "C" 
			},
			{
				"x": 3.2294029622,
				"y": -4.4173669283,
				"z": -0.8113606988,
				"element": "O" 
			},
			{
				"x": 3.0378575475,
				"y": -3.626820494,
				"z": 0.347029137,
				"element": "C" 
			},
			{
				"x": 1.861027855,
				"y": -2.6628050516,
				"z": 0.2001853198,
				"element": "C" 
			},
			{
				"x": 1.7303790879,
				"y": -1.9721741186,
				"z": 1.4503880827,
				"element": "O" 
			},
			{
				"x": 0.7018541694,
				"y": -1.0405117158,
				"z": 1.4838182292,
				"element": "C" 
			},
			{
				"x": -0.5870448362,
				"y": -1.4073070101,
				"z": 1.852533001,
				"element": "C" 
			},
			{
				"x": -1.5989107522,
				"y": -0.4477713157,
				"z": 1.9241782944,
				"element": "C" 
			},
			{
				"x": -1.3211499938,
				"y": 0.8929179287,
				"z": 1.6265840924,
				"element": "C" 
			},
			{
				"x": -2.4243341659,
				"y": 1.932408428,
				"z": 1.6799828604,
				"element": "C" 
			},
			{
				"x": -3.1213676633,
				"y": 2.1653305911,
				"z": 0.3268696207,
				"element": "C" 
			},
			{
				"x": -2.2997620084,
				"y": 2.9902179115,
				"z": -0.6417092867,
				"element": "C" 
			},
			{
				"x": -2.7171376347,
				"y": 2.822159893,
				"z": -1.9188650437,
				"element": "O" 
			},
			{
				"x": -1.40050309,
				"y": 3.7504044489,
				"z": -0.3499155167,
				"element": "O" 
			},
			{
				"x": -0.0174482173,
				"y": 1.2546967797,
				"z": 1.2653544703,
				"element": "C" 
			},
			{
				"x": 1.0080850518,
				"y": 0.3023468392,
				"z": 1.1854112861,
				"element": "C" 
			},
			{
				"x": 2.3048359813,
				"y": 0.6307005876,
				"z": 0.7862031199,
				"element": "N" 
			},
			{
				"x": 4.9463413484,
				"y": -3.444203341,
				"z": -1.4916449452,
				"element": "H" 
			},
			{
				"x": 4.0937634637,
				"y": -4.5106062729,
				"z": -2.6389212628,
				"element": "H" 
			},
			{
				"x": 3.4296064863,
				"y": -2.9052401516,
				"z": -2.2591213529,
				"element": "H" 
			},
			{
				"x": 3.9494505269,
				"y": -3.0636614153,
				"z": 0.6030435703,
				"element": "H" 
			},
			{
				"x": 2.8304310745,
				"y": -4.316092811,
				"z": 1.1717029383,
				"element": "H" 
			},
			{
				"x": 0.9462381861,
				"y": -3.2261869003,
				"z": -0.0250563809,
				"element": "H" 
			},
			{
				"x": 2.0283320939,
				"y": -1.9427227398,
				"z": -0.6116169522,
				"element": "H" 
			},
			{
				"x": -0.7813333745,
				"y": -2.4471263462,
				"z": 2.0988935345,
				"element": "H" 
			},
			{
				"x": -2.6016557021,
				"y": -0.7417081516,
				"z": 2.2226600497,
				"element": "H" 
			},
			{
				"x": -2.0273786711,
				"y": 2.8899238584,
				"z": 2.0310790122,
				"element": "H" 
			},
			{
				"x": -3.1839480368,
				"y": 1.6130000345,
				"z": 2.4013193418,
				"element": "H" 
			},
			{
				"x": -4.0599421505,
				"y": 2.7172922842,
				"z": 0.4750663657,
				"element": "H" 
			},
			{
				"x": -3.3933353512,
				"y": 1.2208450728,
				"z": -0.1538266527,
				"element": "H" 
			},
			{
				"x": -2.165997299,
				"y": 3.4106895187,
				"z": -2.4621122555,
				"element": "H" 
			},
			{
				"x": 0.2004963915,
				"y": 2.2932949007,
				"z": 1.0319923617,
				"element": "H" 
			},
			{
				"x": 2.9995669291,
				"y": -0.0096202254,
				"z": 1.1494858467,
				"element": "H" 
			},
			{
				"x": 2.5570983214,
				"y": 1.5989454976,
				"z": 0.9310532755,
				"element": "H" 
			}
		],
		 "valence_orbital": [ 
			{
				"type": "occ",
				"energy": -0.27655,
				"method": "rhf"
			},
			{
				"type": "occ",
				"energy": -0.27042,
				"method": "rhf"
			},
			{
				"type": "occ",
				"energy": -0.2554,
				"method": "rhf"
			},
			{
				"type": "occ",
				"energy": -0.23074,
				"method": "rhf"
			},
			{
				"type": "occ",
				"energy": -0.19641,
				"method": "rhf"
			},
			{
				"type": "unocc",
				"energy": 0.0051,
				"method": "rhf"
			},
			{
				"type": "unocc",
				"energy": 0.01038,
				"method": "rhf"
			},
			{
				"type": "unocc",
				"energy": 0.02136,
				"method": "rhf"
			},
			{
				"type": "unocc",
				"energy": 0.07978,
				"method": "rhf"
			},
			{
				"type": "unocc",
				"energy": 0.08083,
				"method": "rhf"
			}
		],
		"cosmo_sigma_profile": { 
			"-0.025": 0.0,
			"-0.024": 0.0,
			"-0.023": 0.0,
			"-0.022": 0.0,
			"-0.021": 0.0,
			"-0.02": 0.0,
			"-0.019": 0.0,
			"-0.018": 0.585978666361,
			"-0.017": 0.824666581567,
			"-0.016": 1.06829873673,
			"-0.015": 1.14157533402,
			"-0.014": 0.364063353706,
			"-0.013": 0.317173694226,
			"-0.012": 1.32572715855,
			"-0.011": 3.32906872603,
			"-0.01": 2.90009096944,
			"-0.009": 2.34463855073,
			"-0.008": 3.13644414463,
			"-0.007": 4.78431021424,
			"-0.006": 5.90747538748,
			"-0.005": 15.5765144422,
			"-0.004": 31.8414876864,
			"-0.003": 33.9707994977,
			"-0.002": 31.603083257,
			"-0.001": 22.226726261,
			"0.0": 16.6308486935,
			"0.001": 13.7653678172,
			"0.002": 11.8390741566,
			"0.003": 12.9302165535,
			"0.004": 12.8384127592,
			"0.005": 12.8083602396,
			"0.006": 13.2851908827,
			"0.007": 8.77780630741,
			"0.008": 5.31741605157,
			"0.009": 5.47119504573,
			"0.01": 5.9903180015,
			"0.011": 5.12567980344,
			"0.012": 5.6258683605,
			"0.013": 2.52654632696,
			"0.014": 0.784595946571,
			"0.015": 0.0691274009186,
			"0.016": 0.0,
			"0.017": 0.0,
			"0.018": 0.0,
			"0.019": 0.0,
			"0.02": 0.0,
			"0.021": 0.0,
			"0.022": 0.0,
			"0.023": 0.0,
			"0.024": 0.0,
			"0.025": 0.0
		}
	}
}
