{
	 "smiles": "NC(=O)CCCOC1=CC=C(F)C=C1", 
	 "Tm": 399.15, 
	 "num_atms": 26, 
	 "gaussian": { 
		 "optdone": 1, 
		 "sigma_profile": "yes", 
		 "theory": "DFT", 
		 "functional": "B3LYP", 
		 "basiset": "6-31G**", 
		 "properties": { 
			 "R2extent": 5164.566, 
			 "electric_dipole_moment_norm": 2.40873206065, 
			 "electric_quadrupole_moment_norm": 26.0156950426, 
			 "total_energy": -693.342761223, 
			 "HOMO_LUMO_gap": 0.20563, 
			 "cosmo_polarized_energy": -15.38, 
			 "cosmo_cavitation_energy": 30.92, 
			 "cosmo_dispersion_energy": -22.23, 
			 "cosmo_repulsion_energy": 1.77, 
			 "cosmo_total_nonelectrostatic_energy": 10.46, 
			 "SMD_solvation_energy": 6.58 
		},
		"coords": [
			{
				"x": -4.0255362551,
				"y": 0.7171298662,
				"z": 3.1965951346,
				"element": "N" 
			},
			{
				"x": -2.889805438,
				"y": -0.0429267619,
				"z": 3.2144898313,
				"element": "C" 
			},
			{
				"x": -2.7307176797,
				"y": -0.9586494035,
				"z": 4.0097856919,
				"element": "O" 
			},
			{
				"x": -1.8253546175,
				"y": 0.3583219767,
				"z": 2.1936100352,
				"element": "C" 
			},
			{
				"x": -0.967019421,
				"y": -0.8370546567,
				"z": 1.7714753313,
				"element": "C" 
			},
			{
				"x": 0.2330327609,
				"y": -0.4461970972,
				"z": 0.9241176528,
				"element": "C" 
			},
			{
				"x": -0.2488460283,
				"y": 0.1629167474,
				"z": -0.274187788,
				"element": "O" 
			},
			{
				"x": 0.6567019608,
				"y": 0.6084561596,
				"z": -1.1957776096,
				"element": "C" 
			},
			{
				"x": 2.046893673,
				"y": 0.512658552,
				"z": -1.0577702235,
				"element": "C" 
			},
			{
				"x": 2.8831470761,
				"y": 1.0035159157,
				"z": -2.0661912143,
				"element": "C" 
			},
			{
				"x": 2.323510653,
				"y": 1.5810822793,
				"z": -3.1952442131,
				"element": "C" 
			},
			{
				"x": 3.1334432087,
				"y": 2.0555977481,
				"z": -4.1693110123,
				"element": "F" 
			},
			{
				"x": 0.9433351728,
				"y": 1.6842410424,
				"z": -3.3509744736,
				"element": "C" 
			},
			{
				"x": 0.1128717406,
				"y": 1.1963735048,
				"z": -2.3486160338,
				"element": "C" 
			},
			{
				"x": -4.1687089105,
				"y": 1.463327804,
				"z": 2.5364575139,
				"element": "H" 
			},
			{
				"x": -4.7418110214,
				"y": 0.5204576993,
				"z": 3.8790324631,
				"element": "H" 
			},
			{
				"x": -1.1911579357,
				"y": 1.11854532,
				"z": 2.6721733661,
				"element": "H" 
			},
			{
				"x": -2.276430304,
				"y": 0.8372862357,
				"z": 1.318576861,
				"element": "H" 
			},
			{
				"x": -0.6168674114,
				"y": -1.3533229036,
				"z": 2.670645207,
				"element": "H" 
			},
			{
				"x": -1.5789770039,
				"y": -1.5560770094,
				"z": 1.2152563369,
				"element": "H" 
			},
			{
				"x": 0.8336563467,
				"y": -1.3330689663,
				"z": 0.6776742323,
				"element": "H" 
			},
			{
				"x": 0.8794314606,
				"y": 0.2598128894,
				"z": 1.4674060289,
				"element": "H" 
			},
			{
				"x": 2.4915783299,
				"y": 0.0616743142,
				"z": -0.17920759,
				"element": "H" 
			},
			{
				"x": 3.9621821611,
				"y": 0.9379426216,
				"z": -1.9767939589,
				"element": "H" 
			},
			{
				"x": 0.5371935435,
				"y": 2.1405918482,
				"z": -4.2473003283,
				"element": "H" 
			},
			{
				"x": -0.9665460615,
				"y": 1.2590642738,
				"z": -2.4381212409,
				"element": "H" 
			}
		],
		 "valence_orbital": [ 
			{
				"type": "occ",
				"energy": -0.31197,
				"method": "rhf"
			},
			{
				"type": "occ",
				"energy": -0.26816,
				"method": "rhf"
			},
			{
				"type": "occ",
				"energy": -0.25993,
				"method": "rhf"
			},
			{
				"type": "occ",
				"energy": -0.24896,
				"method": "rhf"
			},
			{
				"type": "occ",
				"energy": -0.21639,
				"method": "rhf"
			},
			{
				"type": "unocc",
				"energy": -0.01076,
				"method": "rhf"
			},
			{
				"type": "unocc",
				"energy": 0.0161,
				"method": "rhf"
			},
			{
				"type": "unocc",
				"energy": 0.0288,
				"method": "rhf"
			},
			{
				"type": "unocc",
				"energy": 0.07124,
				"method": "rhf"
			},
			{
				"type": "unocc",
				"energy": 0.08601,
				"method": "rhf"
			}
		],
		"cosmo_sigma_profile": { 
			"-0.025": 0.0,
			"-0.024": 0.0,
			"-0.023": 0.0,
			"-0.022": 0.0,
			"-0.021": 0.0,
			"-0.02": 0.0,
			"-0.019": 0.0,
			"-0.018": 0.0,
			"-0.017": 0.0,
			"-0.016": 0.0,
			"-0.015": 0.0820670235474,
			"-0.014": 1.48363929624,
			"-0.013": 2.46512404336,
			"-0.012": 2.09158434568,
			"-0.011": 2.53345798302,
			"-0.01": 2.37875837056,
			"-0.009": 2.69228258255,
			"-0.008": 1.6849390712,
			"-0.007": 6.96413327508,
			"-0.006": 10.1829673822,
			"-0.005": 18.8430820287,
			"-0.004": 21.4605003203,
			"-0.003": 19.8102241179,
			"-0.002": 13.7852048715,
			"-0.001": 11.5386522125,
			"0.0": 12.5020183337,
			"0.001": 12.374990998,
			"0.002": 16.0953726668,
			"0.003": 17.8024521899,
			"0.004": 24.4222021867,
			"0.005": 17.1087731711,
			"0.006": 3.78312007464,
			"0.007": 2.51689853785,
			"0.008": 3.01505529768,
			"0.009": 1.62191945973,
			"0.01": 0.965613337749,
			"0.011": 1.80514768289,
			"0.012": 1.92655670581,
			"0.013": 2.9259698813,
			"0.014": 5.70849143246,
			"0.015": 1.67529221147,
			"0.016": 0.0,
			"0.017": 0.0,
			"0.018": 0.0,
			"0.019": 0.0,
			"0.02": 0.0,
			"0.021": 0.0,
			"0.022": 0.0,
			"0.023": 0.0,
			"0.024": 0.0,
			"0.025": 0.0
		}
	}
}
