{
	 "smiles": "OC(=O)C1=C2N=CC(Br)=CN2N=C1", 
	 "Tm": 473.15, 
	 "num_atms": 17, 
	 "gaussian": { 
		 "optdone": 1, 
		 "sigma_profile": "yes", 
		 "theory": "DFT", 
		 "functional": "B3LYP", 
		 "basiset": "6-31G**", 
		 "properties": { 
			 "R2extent": 5315.7946, 
			 "electric_dipole_moment_norm": 2.87581396825, 
			 "electric_quadrupole_moment_norm": 4.91863481263, 
			 "total_energy": -3155.23803198, 
			 "HOMO_LUMO_gap": 0.16536, 
			 "cosmo_polarized_energy": -14.54, 
			 "cosmo_cavitation_energy": 25.4, 
			 "cosmo_dispersion_energy": -19.29, 
			 "cosmo_repulsion_energy": 1.51, 
			 "cosmo_total_nonelectrostatic_energy": 7.62, 
			 "SMD_solvation_energy": 2.72 
		},
		"coords": [
			{
				"x": -2.2706745008,
				"y": -0.8831177163,
				"z": -2.9682608589,
				"element": "O" 
			},
			{
				"x": -1.6543386295,
				"y": -1.7155499447,
				"z": -2.0986105401,
				"element": "C" 
			},
			{
				"x": -1.9997629588,
				"y": -2.8717916878,
				"z": -1.9362624204,
				"element": "O" 
			},
			{
				"x": -0.5431728209,
				"y": -1.0901185125,
				"z": -1.3794527149,
				"element": "C" 
			},
			{
				"x": -0.0139168418,
				"y": 0.2091997744,
				"z": -1.4375420843,
				"element": "C" 
			},
			{
				"x": -0.3136858509,
				"y": 1.3167827583,
				"z": -2.14208918,
				"element": "N" 
			},
			{
				"x": 0.416452359,
				"y": 2.3921844722,
				"z": -1.935368409,
				"element": "C" 
			},
			{
				"x": 1.4972279141,
				"y": 2.4320993918,
				"z": -1.0088367669,
				"element": "C" 
			},
			{
				"x": 2.4970106152,
				"y": 4.0257433282,
				"z": -0.7743016903,
				"element": "Br" 
			},
			{
				"x": 1.804894874,
				"y": 1.3069394474,
				"z": -0.290434676,
				"element": "C" 
			},
			{
				"x": 1.0443942832,
				"y": 0.2037112767,
				"z": -0.5123515827,
				"element": "N" 
			},
			{
				"x": 1.2080293383,
				"y": -0.9912479189,
				"z": 0.1084420182,
				"element": "N" 
			},
			{
				"x": 0.2504016875,
				"y": -1.753956961,
				"z": -0.421368952,
				"element": "C" 
			},
			{
				"x": -2.9791539791,
				"y": -1.4093233302,
				"z": -3.3749923993,
				"element": "H" 
			},
			{
				"x": 0.1697902653,
				"y": 3.2832313402,
				"z": -2.5071308392,
				"element": "H" 
			},
			{
				"x": 2.5993132653,
				"y": 1.216086117,
				"z": 0.4387033487,
				"element": "H" 
			},
			{
				"x": 0.1421909797,
				"y": -2.7820718348,
				"z": -0.1043422529,
				"element": "H" 
			}
		],
		 "valence_orbital": [ 
			{
				"type": "occ",
				"energy": -0.31167,
				"method": "rhf"
			},
			{
				"type": "occ",
				"energy": -0.28849,
				"method": "rhf"
			},
			{
				"type": "occ",
				"energy": -0.27627,
				"method": "rhf"
			},
			{
				"type": "occ",
				"energy": -0.27559,
				"method": "rhf"
			},
			{
				"type": "occ",
				"energy": -0.24616,
				"method": "rhf"
			},
			{
				"type": "unocc",
				"energy": -0.0808,
				"method": "rhf"
			},
			{
				"type": "unocc",
				"energy": -0.0444,
				"method": "rhf"
			},
			{
				"type": "unocc",
				"energy": -0.02212,
				"method": "rhf"
			},
			{
				"type": "unocc",
				"energy": -0.00858,
				"method": "rhf"
			},
			{
				"type": "unocc",
				"energy": 0.07414,
				"method": "rhf"
			}
		],
		"cosmo_sigma_profile": { 
			"-0.025": 0.0,
			"-0.024": 0.0,
			"-0.023": 0.0,
			"-0.022": 0.0,
			"-0.021": 0.0,
			"-0.02": 0.0,
			"-0.019": 0.0263864706616,
			"-0.018": 0.683361906962,
			"-0.017": 0.939471724159,
			"-0.016": 1.43056198581,
			"-0.015": 0.105509564302,
			"-0.014": 0.415974520735,
			"-0.013": 0.453039222163,
			"-0.012": 2.61853388418,
			"-0.011": 1.74876594443,
			"-0.01": 2.8124594843,
			"-0.009": 4.94837156497,
			"-0.008": 4.12608601319,
			"-0.007": 6.61628274606,
			"-0.006": 8.15466409036,
			"-0.005": 10.2859975061,
			"-0.004": 13.1048087318,
			"-0.003": 13.6947367767,
			"-0.002": 16.864391747,
			"-0.001": 13.7628513068,
			"0.0": 16.97800678,
			"0.001": 13.4484799979,
			"0.002": 12.1710313778,
			"0.003": 14.2152562947,
			"0.004": 5.89000951699,
			"0.005": 5.6368958227,
			"0.006": 3.88803091155,
			"0.007": 3.34019659182,
			"0.008": 4.61355914873,
			"0.009": 3.36176643966,
			"0.01": 5.10703650937,
			"0.011": 4.8709756629,
			"0.012": 8.01770485537,
			"0.013": 2.33301253383,
			"0.014": 1.72396982505,
			"0.015": 0.47512522875,
			"0.016": 0.0,
			"0.017": 0.0,
			"0.018": 0.0,
			"0.019": 0.0,
			"0.02": 0.0,
			"0.021": 0.0,
			"0.022": 0.0,
			"0.023": 0.0,
			"0.024": 0.0,
			"0.025": 0.0
		}
	}
}
