{
	 "smiles": "CNCC(O)C1=CC=C(O)C=C1", 
	 "Tm": 457.15, 
	 "num_atms": 25, 
	 "gaussian": { 
		 "optdone": 1, 
		 "sigma_profile": "yes", 
		 "theory": "DFT", 
		 "functional": "B3LYP", 
		 "basiset": "6-31G**", 
		 "properties": { 
			 "R2extent": 3596.7857, 
			 "electric_dipole_moment_norm": 3.2185252772, 
			 "electric_quadrupole_moment_norm": 10.7337151304, 
			 "total_energy": -555.971326638, 
			 "HOMO_LUMO_gap": 0.20117, 
			 "cosmo_polarized_energy": -13.98, 
			 "cosmo_cavitation_energy": 27.91, 
			 "cosmo_dispersion_energy": -19.93, 
			 "cosmo_repulsion_energy": 1.61, 
			 "cosmo_total_nonelectrostatic_energy": 9.59, 
			 "SMD_solvation_energy": 2.82 
		},
		"coords": [
			{
				"x": -2.0279631692,
				"y": 1.0375165026,
				"z": -1.6175669874,
				"element": "C" 
			},
			{
				"x": -1.1530809566,
				"y": 1.1414585308,
				"z": -0.456917056,
				"element": "N" 
			},
			{
				"x": 0.0923576081,
				"y": 0.3967350988,
				"z": -0.5341676086,
				"element": "C" 
			},
			{
				"x": -0.0068255081,
				"y": -1.1498303751,
				"z": -0.4997842882,
				"element": "C" 
			},
			{
				"x": 1.3304849481,
				"y": -1.6041381008,
				"z": -0.7064133401,
				"element": "O" 
			},
			{
				"x": -0.5948518324,
				"y": -1.6630297423,
				"z": 0.8013845765,
				"element": "C" 
			},
			{
				"x": 0.2127807538,
				"y": -1.8160884363,
				"z": 1.9399157331,
				"element": "C" 
			},
			{
				"x": -0.3187444724,
				"y": -2.247471385,
				"z": 3.1503068394,
				"element": "C" 
			},
			{
				"x": -1.6867548661,
				"y": -2.5312382433,
				"z": 3.2486400689,
				"element": "C" 
			},
			{
				"x": -2.1570224105,
				"y": -2.9520246684,
				"z": 4.4606095632,
				"element": "O" 
			},
			{
				"x": -2.507229002,
				"y": -2.3851583809,
				"z": 2.1260476147,
				"element": "C" 
			},
			{
				"x": -1.9578219793,
				"y": -1.9578175798,
				"z": 0.9156789111,
				"element": "C" 
			},
			{
				"x": -1.4976027541,
				"y": 1.4080683338,
				"z": -2.5023496855,
				"element": "H" 
			},
			{
				"x": -2.3940621482,
				"y": 0.0227581917,
				"z": -1.8568349924,
				"element": "H" 
			},
			{
				"x": -2.9034041343,
				"y": 1.6776679012,
				"z": -1.4677485693,
				"element": "H" 
			},
			{
				"x": -1.6556226121,
				"y": 0.8942181264,
				"z": 0.391055198,
				"element": "H" 
			},
			{
				"x": 0.6096033692,
				"y": 0.6720927882,
				"z": -1.4610978465,
				"element": "H" 
			},
			{
				"x": 0.7404776174,
				"y": 0.7017168164,
				"z": 0.2961854769,
				"element": "H" 
			},
			{
				"x": -0.6528322888,
				"y": -1.480112611,
				"z": -1.3292766125,
				"element": "H" 
			},
			{
				"x": 1.3283498338,
				"y": -2.5674137019,
				"z": -0.6293209904,
				"element": "H" 
			},
			{
				"x": 1.2743299506,
				"y": -1.6014541568,
				"z": 1.8610157736,
				"element": "H" 
			},
			{
				"x": 0.3054083849,
				"y": -2.3712796966,
				"z": 4.0293923601,
				"element": "H" 
			},
			{
				"x": -3.1075006044,
				"y": -3.1107358857,
				"z": 4.3940157451,
				"element": "H" 
			},
			{
				"x": -3.568955123,
				"y": -2.6146757367,
				"z": 2.1933023682,
				"element": "H" 
			},
			{
				"x": -2.6034186044,
				"y": -1.8665635895,
				"z": 0.045127748,
				"element": "H" 
			}
		],
		 "valence_orbital": [ 
			{
				"type": "occ",
				"energy": -0.32543,
				"method": "rhf"
			},
			{
				"type": "occ",
				"energy": -0.27281,
				"method": "rhf"
			},
			{
				"type": "occ",
				"energy": -0.25569,
				"method": "rhf"
			},
			{
				"type": "occ",
				"energy": -0.22327,
				"method": "rhf"
			},
			{
				"type": "occ",
				"energy": -0.20905,
				"method": "rhf"
			},
			{
				"type": "unocc",
				"energy": -0.00788,
				"method": "rhf"
			},
			{
				"type": "unocc",
				"energy": 0.00555,
				"method": "rhf"
			},
			{
				"type": "unocc",
				"energy": 0.0673,
				"method": "rhf"
			},
			{
				"type": "unocc",
				"energy": 0.08109,
				"method": "rhf"
			},
			{
				"type": "unocc",
				"energy": 0.08971,
				"method": "rhf"
			}
		],
		"cosmo_sigma_profile": { 
			"-0.025": 0.0,
			"-0.024": 0.0,
			"-0.023": 0.0,
			"-0.022": 0.0,
			"-0.021": 0.0,
			"-0.02": 0.0,
			"-0.019": 0.0,
			"-0.018": 0.236040881495,
			"-0.017": 0.900885139507,
			"-0.016": 1.42676844419,
			"-0.015": 1.4812271988,
			"-0.014": 2.01988906041,
			"-0.013": 1.67271580052,
			"-0.012": 1.65699190278,
			"-0.011": 1.65344096453,
			"-0.01": 2.02229248571,
			"-0.009": 2.06543196334,
			"-0.008": 1.86966091448,
			"-0.007": 2.94956598047,
			"-0.006": 4.96453109492,
			"-0.005": 9.18132856501,
			"-0.004": 16.0074492797,
			"-0.003": 23.0146555531,
			"-0.002": 19.8750616411,
			"-0.001": 19.722044336,
			"0.0": 17.9961485969,
			"0.001": 10.4515689395,
			"0.002": 9.35259112275,
			"0.003": 10.5150221614,
			"0.004": 12.3567393654,
			"0.005": 11.8447641245,
			"0.006": 6.70652883594,
			"0.007": 3.31941629377,
			"0.008": 3.20717634265,
			"0.009": 3.72483012235,
			"0.01": 3.67762153828,
			"0.011": 3.60672074407,
			"0.012": 2.51435458552,
			"0.013": 1.94933356092,
			"0.014": 2.02144280791,
			"0.015": 0.863621903343,
			"0.016": 0.614171592005,
			"0.017": 0.505462792308,
			"0.018": 0.417418945348,
			"0.019": 0.0266997790341,
			"0.02": 0.0,
			"0.021": 0.0,
			"0.022": 0.0,
			"0.023": 0.0,
			"0.024": 0.0,
			"0.025": 0.0
		}
	}
}
