{
	 "smiles": "ClCCCCCCCl", 
	 "Tm": 260.15, 
	 "num_atms": 20, 
	 "gaussian": { 
		 "optdone": 1, 
		 "sigma_profile": "yes", 
		 "theory": "DFT", 
		 "functional": "B3LYP", 
		 "basiset": "6-31G**", 
		 "properties": { 
			 "R2extent": 3528.3633, 
			 "electric_dipole_moment_norm": 3.01111099928, 
			 "electric_quadrupole_moment_norm": 11.4727008446, 
			 "total_energy": -1156.27893589, 
			 "HOMO_LUMO_gap": 0.31598, 
			 "cosmo_polarized_energy": -7.64, 
			 "cosmo_cavitation_energy": 25.32, 
			 "cosmo_dispersion_energy": -18.48, 
			 "cosmo_repulsion_energy": 1.57, 
			 "cosmo_total_nonelectrostatic_energy": 8.42, 
			 "SMD_solvation_energy": 3.18 
		},
		"coords": [
			{
				"x": 3.4920977705,
				"y": 0.6175522574,
				"z": -0.6659651358,
				"element": "Cl" 
			},
			{
				"x": 1.7640322926,
				"y": 0.0642893993,
				"z": -0.8480097858,
				"element": "C" 
			},
			{
				"x": 1.2990148238,
				"y": -0.8002145999,
				"z": 0.3178601869,
				"element": "C" 
			},
			{
				"x": 1.2117444661,
				"y": -0.0622742124,
				"z": 1.6601079804,
				"element": "C" 
			},
			{
				"x": 0.8164006031,
				"y": -0.9549025215,
				"z": 2.8485170829,
				"element": "C" 
			},
			{
				"x": -0.5795433218,
				"y": -1.5961504073,
				"z": 2.7797771513,
				"element": "C" 
			},
			{
				"x": -1.7538565637,
				"y": -0.6258039139,
				"z": 2.7171956976,
				"element": "C" 
			},
			{
				"x": -1.8776429652,
				"y": 0.420287329,
				"z": 4.205746032,
				"element": "Cl" 
			},
			{
				"x": 1.1676795097,
				"y": 0.9744021275,
				"z": -0.9422637727,
				"element": "H" 
			},
			{
				"x": 1.7293375051,
				"y": -0.4824846049,
				"z": -1.7913210324,
				"element": "H" 
			},
			{
				"x": 0.312277586,
				"y": -1.1913893763,
				"z": 0.031525447,
				"element": "H" 
			},
			{
				"x": 1.9623449945,
				"y": -1.6693275215,
				"z": 0.4074889353,
				"element": "H" 
			},
			{
				"x": 0.5114054302,
				"y": 0.7792362218,
				"z": 1.5683244219,
				"element": "H" 
			},
			{
				"x": 2.1875692227,
				"y": 0.3852259237,
				"z": 1.8776458503,
				"element": "H" 
			},
			{
				"x": 0.8834448537,
				"y": -0.3641998583,
				"z": 3.7686395549,
				"element": "H" 
			},
			{
				"x": 1.5547665919,
				"y": -1.7610446936,
				"z": 2.9481035892,
				"element": "H" 
			},
			{
				"x": -0.7150624164,
				"y": -2.2555476726,
				"z": 3.6443593595,
				"element": "H" 
			},
			{
				"x": -0.661259668,
				"y": -2.2379413051,
				"z": 1.8910642356,
				"element": "H" 
			},
			{
				"x": -1.6804440338,
				"y": 0.0647845269,
				"z": 1.8755030348,
				"element": "H" 
			},
			{
				"x": -2.7033066809,
				"y": -1.1589970982,
				"z": 2.651601167,
				"element": "H" 
			}
		],
		 "valence_orbital": [ 
			{
				"type": "occ",
				"energy": -0.33263,
				"method": "rhf"
			},
			{
				"type": "occ",
				"energy": -0.29689,
				"method": "rhf"
			},
			{
				"type": "occ",
				"energy": -0.2943,
				"method": "rhf"
			},
			{
				"type": "occ",
				"energy": -0.29384,
				"method": "rhf"
			},
			{
				"type": "occ",
				"energy": -0.29152,
				"method": "rhf"
			},
			{
				"type": "unocc",
				"energy": 0.02446,
				"method": "rhf"
			},
			{
				"type": "unocc",
				"energy": 0.02534,
				"method": "rhf"
			},
			{
				"type": "unocc",
				"energy": 0.06761,
				"method": "rhf"
			},
			{
				"type": "unocc",
				"energy": 0.09685,
				"method": "rhf"
			},
			{
				"type": "unocc",
				"energy": 0.10612,
				"method": "rhf"
			}
		],
		"cosmo_sigma_profile": { 
			"-0.025": 0.0,
			"-0.024": 0.0,
			"-0.023": 0.0,
			"-0.022": 0.0,
			"-0.021": 0.0,
			"-0.02": 0.0,
			"-0.019": 0.0,
			"-0.018": 0.0,
			"-0.017": 0.0,
			"-0.016": 0.0,
			"-0.015": 0.0,
			"-0.014": 0.0,
			"-0.013": 0.0,
			"-0.012": 0.0,
			"-0.011": 0.0,
			"-0.01": 0.0,
			"-0.009": 0.0,
			"-0.008": 0.0,
			"-0.007": 1.91944672284,
			"-0.006": 9.54231131078,
			"-0.005": 16.7471643972,
			"-0.004": 20.2063188452,
			"-0.003": 20.1527686662,
			"-0.002": 18.9510291565,
			"-0.001": 18.1228130518,
			"0.0": 15.1829828587,
			"0.001": 11.8173801129,
			"0.002": 9.37022387124,
			"0.003": 8.25392467345,
			"0.004": 9.78298720088,
			"0.005": 9.84733322284,
			"0.006": 14.1605553034,
			"0.007": 16.1272448356,
			"0.008": 1.14130315938,
			"0.009": 0.0,
			"0.01": 0.0,
			"0.011": 0.0,
			"0.012": 0.0,
			"0.013": 0.0,
			"0.014": 0.0,
			"0.015": 0.0,
			"0.016": 0.0,
			"0.017": 0.0,
			"0.018": 0.0,
			"0.019": 0.0,
			"0.02": 0.0,
			"0.021": 0.0,
			"0.022": 0.0,
			"0.023": 0.0,
			"0.024": 0.0,
			"0.025": 0.0
		}
	}
}
