{
	 "smiles": "NC1=NN=C(CC2CCCCC2)S1", 
	 "Tm": 524.15, 
	 "num_atms": 28, 
	 "gaussian": { 
		 "optdone": 1, 
		 "sigma_profile": "yes", 
		 "theory": "DFT", 
		 "functional": "B3LYP", 
		 "basiset": "6-31G**", 
		 "properties": { 
			 "R2extent": 3132.3112, 
			 "electric_dipole_moment_norm": 3.10097058032, 
			 "electric_quadrupole_moment_norm": 14.3753975816, 
			 "total_energy": -914.424434374, 
			 "HOMO_LUMO_gap": 0.21085, 
			 "cosmo_polarized_energy": -13.42, 
			 "cosmo_cavitation_energy": 30.31, 
			 "cosmo_dispersion_energy": -22.44, 
			 "cosmo_repulsion_energy": 1.75, 
			 "cosmo_total_nonelectrostatic_energy": 9.63, 
			 "SMD_solvation_energy": 2.0 
		},
		"coords": [
			{
				"x": 1.8441897082,
				"y": 0.931033825,
				"z": 3.559889133,
				"element": "N" 
			},
			{
				"x": 0.7931097264,
				"y": 0.9300983694,
				"z": 2.6717458063,
				"element": "C" 
			},
			{
				"x": -0.3430867436,
				"y": 0.3310001985,
				"z": 2.9049275374,
				"element": "N" 
			},
			{
				"x": -1.2668066794,
				"y": 0.5499977709,
				"z": 1.9175554299,
				"element": "N" 
			},
			{
				"x": -0.8427669166,
				"y": 1.2775869867,
				"z": 0.9301239734,
				"element": "C" 
			},
			{
				"x": -1.6768584847,
				"y": 1.6230662228,
				"z": -0.2702390033,
				"element": "C" 
			},
			{
				"x": -1.5655613481,
				"y": 0.6651396145,
				"z": -1.4890841331,
				"element": "C" 
			},
			{
				"x": -1.8671825274,
				"y": -0.8193750992,
				"z": -1.1235380039,
				"element": "C" 
			},
			{
				"x": -0.6016829868,
				"y": -1.6889551936,
				"z": -1.1206808521,
				"element": "C" 
			},
			{
				"x": 0.0811163807,
				"y": -1.7099386365,
				"z": -2.5060218871,
				"element": "C" 
			},
			{
				"x": -0.0365492572,
				"y": -0.347786271,
				"z": -3.2368314469,
				"element": "C" 
			},
			{
				"x": -0.2235632997,
				"y": 0.8054599432,
				"z": -2.2414033321,
				"element": "C" 
			},
			{
				"x": 0.8311494269,
				"y": 1.8335479616,
				"z": 1.1613562748,
				"element": "S" 
			},
			{
				"x": 1.7215850678,
				"y": 0.2510324676,
				"z": 4.3002368533,
				"element": "H" 
			},
			{
				"x": 2.7732325479,
				"y": 0.9350703423,
				"z": 3.1634438966,
				"element": "H" 
			},
			{
				"x": -1.447452193,
				"y": 2.6450177131,
				"z": -0.5952227883,
				"element": "H" 
			},
			{
				"x": -2.7141433278,
				"y": 1.6219496269,
				"z": 0.0801083149,
				"element": "H" 
			},
			{
				"x": -2.3499224947,
				"y": 1.0036232247,
				"z": -2.179587445,
				"element": "H" 
			},
			{
				"x": -2.5768299143,
				"y": -1.2322556928,
				"z": -1.8517786676,
				"element": "H" 
			},
			{
				"x": -2.3566075979,
				"y": -0.8733057015,
				"z": -0.1458619427,
				"element": "H" 
			},
			{
				"x": -0.84674534,
				"y": -2.7093008314,
				"z": -0.8050744811,
				"element": "H" 
			},
			{
				"x": 0.0952215262,
				"y": -1.301883832,
				"z": -0.3674887483,
				"element": "H" 
			},
			{
				"x": 1.1368759288,
				"y": -1.9802655647,
				"z": -2.3841037175,
				"element": "H" 
			},
			{
				"x": -0.3647265776,
				"y": -2.4953203796,
				"z": -3.1281577611,
				"element": "H" 
			},
			{
				"x": -0.8974261697,
				"y": -0.3623368154,
				"z": -3.9184530081,
				"element": "H" 
			},
			{
				"x": 0.8441986354,
				"y": -0.1743961693,
				"z": -3.8650988768,
				"element": "H" 
			},
			{
				"x": 0.615511597,
				"y": 0.8061059842,
				"z": -1.5339862545,
				"element": "H" 
			},
			{
				"x": -0.1914786869,
				"y": 1.7731899355,
				"z": -2.7571748703,
				"element": "H" 
			}
		],
		 "valence_orbital": [ 
			{
				"type": "occ",
				"energy": -0.29288,
				"method": "rhf"
			},
			{
				"type": "occ",
				"energy": -0.28924,
				"method": "rhf"
			},
			{
				"type": "occ",
				"energy": -0.28206,
				"method": "rhf"
			},
			{
				"type": "occ",
				"energy": -0.25394,
				"method": "rhf"
			},
			{
				"type": "occ",
				"energy": -0.22766,
				"method": "rhf"
			},
			{
				"type": "unocc",
				"energy": -0.01681,
				"method": "rhf"
			},
			{
				"type": "unocc",
				"energy": 0.00096,
				"method": "rhf"
			},
			{
				"type": "unocc",
				"energy": 0.04437,
				"method": "rhf"
			},
			{
				"type": "unocc",
				"energy": 0.06815,
				"method": "rhf"
			},
			{
				"type": "unocc",
				"energy": 0.08141,
				"method": "rhf"
			}
		],
		"cosmo_sigma_profile": { 
			"-0.025": 0.0,
			"-0.024": 0.0,
			"-0.023": 0.0,
			"-0.022": 0.0,
			"-0.021": 0.0,
			"-0.02": 0.0,
			"-0.019": 0.0,
			"-0.018": 0.0,
			"-0.017": 0.0,
			"-0.016": 0.0,
			"-0.015": 0.6216388533,
			"-0.014": 2.0387915147,
			"-0.013": 3.2445936535,
			"-0.012": 2.35422409744,
			"-0.011": 2.70518287971,
			"-0.01": 2.41110229113,
			"-0.009": 2.22580005218,
			"-0.008": 1.71893580737,
			"-0.007": 1.88562641059,
			"-0.006": 2.17462959268,
			"-0.005": 4.64517398185,
			"-0.004": 6.5187630892,
			"-0.003": 11.745588307,
			"-0.002": 30.7678300272,
			"-0.001": 38.6218548027,
			"0.0": 38.0616706868,
			"0.001": 29.5573981289,
			"0.002": 14.7054710736,
			"0.003": 6.31620953171,
			"0.004": 3.91290820175,
			"0.005": 4.3449958044,
			"0.006": 3.53000554235,
			"0.007": 2.04022675473,
			"0.008": 2.28712374893,
			"0.009": 3.07355713617,
			"0.01": 2.59945428275,
			"0.011": 3.03278694511,
			"0.012": 2.990117976,
			"0.013": 3.00647776829,
			"0.014": 2.23744095134,
			"0.015": 2.17428936381,
			"0.016": 0.493904302938,
			"0.017": 0.0,
			"0.018": 0.0,
			"0.019": 0.0,
			"0.02": 0.0,
			"0.021": 0.0,
			"0.022": 0.0,
			"0.023": 0.0,
			"0.024": 0.0,
			"0.025": 0.0
		}
	}
}
