{
	 "smiles": "OC(=O)C1=NC2=C(C=CC=C2O)C=C1", 
	 "Tm": 492.15, 
	 "num_atms": 21, 
	 "gaussian": { 
		 "optdone": 1, 
		 "sigma_profile": "yes", 
		 "theory": "DFT", 
		 "functional": "B3LYP", 
		 "basiset": "6-31G**", 
		 "properties": { 
			 "R2extent": 3244.4541, 
			 "electric_dipole_moment_norm": 4.73137411119, 
			 "electric_quadrupole_moment_norm": 16.8391762269, 
			 "total_energy": -665.732595252, 
			 "HOMO_LUMO_gap": 0.14535, 
			 "cosmo_polarized_energy": -13.64, 
			 "cosmo_cavitation_energy": 25.82, 
			 "cosmo_dispersion_energy": -19.43, 
			 "cosmo_repulsion_energy": 1.49, 
			 "cosmo_total_nonelectrostatic_energy": 7.88, 
			 "SMD_solvation_energy": 5.26 
		},
		"coords": [
			{
				"x": 0.348543141,
				"y": 2.2790643101,
				"z": -3.8898619834,
				"element": "O" 
			},
			{
				"x": 0.0032124367,
				"y": 2.9300071755,
				"z": -2.7662774175,
				"element": "C" 
			},
			{
				"x": -0.3166728174,
				"y": 4.0967551616,
				"z": -2.7563020955,
				"element": "O" 
			},
			{
				"x": 0.0471747419,
				"y": 2.0846530566,
				"z": -1.5177447981,
				"element": "C" 
			},
			{
				"x": 0.4132606846,
				"y": 0.8184535776,
				"z": -1.6568334395,
				"element": "N" 
			},
			{
				"x": 0.4620414907,
				"y": 0.0326845937,
				"z": -0.5490330517,
				"element": "C" 
			},
			{
				"x": 0.1351141729,
				"y": 0.5160799011,
				"z": 0.7568055046,
				"element": "C" 
			},
			{
				"x": 0.211355862,
				"y": -0.3679252998,
				"z": 1.8607969785,
				"element": "C" 
			},
			{
				"x": 0.5985092704,
				"y": -1.6774095211,
				"z": 1.6605740373,
				"element": "C" 
			},
			{
				"x": 0.9241382299,
				"y": -2.168208525,
				"z": 0.3767342595,
				"element": "C" 
			},
			{
				"x": 0.8596647617,
				"y": -1.3312536696,
				"z": -0.7203745608,
				"element": "C" 
			},
			{
				"x": 1.1675589721,
				"y": -1.7845003795,
				"z": -1.9543533482,
				"element": "O" 
			},
			{
				"x": -0.2510695257,
				"y": 1.8786354643,
				"z": 0.8538778731,
				"element": "C" 
			},
			{
				"x": -0.2967714423,
				"y": 2.6638796987,
				"z": -0.2734894928,
				"element": "C" 
			},
			{
				"x": 0.5589522793,
				"y": 1.3632695285,
				"z": -3.6261211314,
				"element": "H" 
			},
			{
				"x": -0.0361984969,
				"y": -0.0037867561,
				"z": 2.8531496067,
				"element": "H" 
			},
			{
				"x": 0.6573432665,
				"y": -2.3560602344,
				"z": 2.5063793808,
				"element": "H" 
			},
			{
				"x": 1.2268015231,
				"y": -3.1998978523,
				"z": 0.2345858544,
				"element": "H" 
			},
			{
				"x": 1.0525508874,
				"y": -1.0319735307,
				"z": -2.5595805468,
				"element": "H" 
			},
			{
				"x": -0.5083049239,
				"y": 2.2884502257,
				"z": 1.8270376321,
				"element": "H" 
			},
			{
				"x": -0.584904514,
				"y": 3.7078830752,
				"z": -0.2510692613,
				"element": "H" 
			}
		],
		 "valence_orbital": [ 
			{
				"type": "occ",
				"energy": -0.31654,
				"method": "rhf"
			},
			{
				"type": "occ",
				"energy": -0.31137,
				"method": "rhf"
			},
			{
				"type": "occ",
				"energy": -0.27436,
				"method": "rhf"
			},
			{
				"type": "occ",
				"energy": -0.27336,
				"method": "rhf"
			},
			{
				"type": "occ",
				"energy": -0.23058,
				"method": "rhf"
			},
			{
				"type": "unocc",
				"energy": -0.08523,
				"method": "rhf"
			},
			{
				"type": "unocc",
				"energy": -0.04932,
				"method": "rhf"
			},
			{
				"type": "unocc",
				"energy": 0.00437,
				"method": "rhf"
			},
			{
				"type": "unocc",
				"energy": 0.03113,
				"method": "rhf"
			},
			{
				"type": "unocc",
				"energy": 0.05506,
				"method": "rhf"
			}
		],
		"cosmo_sigma_profile": { 
			"-0.025": 0.0,
			"-0.024": 0.0,
			"-0.023": 0.0,
			"-0.022": 0.0,
			"-0.021": 0.0,
			"-0.02": 0.0,
			"-0.019": 0.0,
			"-0.018": 0.0,
			"-0.017": 0.0,
			"-0.016": 0.219349412109,
			"-0.015": 1.22869568006,
			"-0.014": 1.8880513391,
			"-0.013": 1.15366616867,
			"-0.012": 1.27488132362,
			"-0.011": 1.10645563418,
			"-0.01": 1.62564334473,
			"-0.009": 1.0023031466,
			"-0.008": 3.71898764844,
			"-0.007": 9.14223894477,
			"-0.006": 12.2463602039,
			"-0.005": 11.6862299438,
			"-0.004": 12.9673090235,
			"-0.003": 10.5927115647,
			"-0.002": 10.521290691,
			"-0.001": 17.1876806863,
			"0.0": 19.1656679595,
			"0.001": 19.3460719714,
			"0.002": 12.3496388285,
			"0.003": 11.7112389596,
			"0.004": 8.84729039321,
			"0.005": 3.55356923927,
			"0.006": 3.54068301661,
			"0.007": 4.23890782818,
			"0.008": 4.30580505633,
			"0.009": 5.71297088674,
			"0.01": 7.0708603913,
			"0.011": 6.40709366424,
			"0.012": 3.22638602771,
			"0.013": 0.887594248058,
			"0.014": 0.0,
			"0.015": 0.0,
			"0.016": 0.0,
			"0.017": 0.0,
			"0.018": 0.0,
			"0.019": 0.0,
			"0.02": 0.0,
			"0.021": 0.0,
			"0.022": 0.0,
			"0.023": 0.0,
			"0.024": 0.0,
			"0.025": 0.0
		}
	}
}
