{
	 "smiles": "OC(=O)CCC1=CNC2=CC=CC=C12", 
	 "Tm": 407.15, 
	 "num_atms": 25, 
	 "gaussian": { 
		 "optdone": 1, 
		 "sigma_profile": "yes", 
		 "theory": "DFT", 
		 "functional": "B3LYP", 
		 "basiset": "6-31G**", 
		 "properties": { 
			 "R2extent": 4053.3851, 
			 "electric_dipole_moment_norm": 5.11228892865, 
			 "electric_quadrupole_moment_norm": 25.6639964996, 
			 "total_energy": -631.016505239, 
			 "HOMO_LUMO_gap": 0.19192, 
			 "cosmo_polarized_energy": -19.57, 
			 "cosmo_cavitation_energy": 29.34, 
			 "cosmo_dispersion_energy": -21.14, 
			 "cosmo_repulsion_energy": 1.68, 
			 "cosmo_total_nonelectrostatic_energy": 9.88, 
			 "SMD_solvation_energy": 5.8 
		},
		"coords": [
			{
				"x": -4.7292821615,
				"y": -2.6081446064,
				"z": 1.5639071668,
				"element": "O" 
			},
			{
				"x": -4.2387184089,
				"y": -1.7077874148,
				"z": 0.6657251851,
				"element": "C" 
			},
			{
				"x": -4.9411354838,
				"y": -1.3076219553,
				"z": -0.2283095754,
				"element": "O" 
			},
			{
				"x": -2.7966275343,
				"y": -1.2786369395,
				"z": 0.8982747075,
				"element": "C" 
			},
			{
				"x": -2.2881346855,
				"y": -0.2859501635,
				"z": -0.1607663838,
				"element": "C" 
			},
			{
				"x": -0.8642287634,
				"y": 0.1325416642,
				"z": 0.0669912941,
				"element": "C" 
			},
			{
				"x": -0.4320494971,
				"y": 1.3460170372,
				"z": 0.5410844699,
				"element": "C" 
			},
			{
				"x": 0.9475537714,
				"y": 1.3530091043,
				"z": 0.6470920372,
				"element": "N" 
			},
			{
				"x": 1.439560234,
				"y": 0.1326095221,
				"z": 0.2322867972,
				"element": "C" 
			},
			{
				"x": 2.7551660197,
				"y": -0.3358578602,
				"z": 0.1484411966,
				"element": "C" 
			},
			{
				"x": 2.9473353982,
				"y": -1.6305345421,
				"z": -0.3203423252,
				"element": "C" 
			},
			{
				"x": 1.8564603407,
				"y": -2.4391743165,
				"z": -0.7007903238,
				"element": "C" 
			},
			{
				"x": 0.5517211818,
				"y": -1.9692582532,
				"z": -0.6157974943,
				"element": "C" 
			},
			{
				"x": 0.3220397179,
				"y": -0.665302185,
				"z": -0.140754872,
				"element": "C" 
			},
			{
				"x": -4.048764272,
				"y": -2.8329390352,
				"z": 2.2143915522,
				"element": "H" 
			},
			{
				"x": -2.1616234056,
				"y": -2.1744733081,
				"z": 0.9222701698,
				"element": "H" 
			},
			{
				"x": -2.7222564022,
				"y": -0.8328641456,
				"z": 1.8997833803,
				"element": "H" 
			},
			{
				"x": -2.9450857111,
				"y": 0.5892388489,
				"z": -0.1633723614,
				"element": "H" 
			},
			{
				"x": -2.4016421748,
				"y": -0.7455354341,
				"z": -1.1492981079,
				"element": "H" 
			},
			{
				"x": -1.0075264468,
				"y": 2.2207370162,
				"z": 0.8116558719,
				"element": "H" 
			},
			{
				"x": 1.5041787711,
				"y": 2.1372236848,
				"z": 0.9441961304,
				"element": "H" 
			},
			{
				"x": 3.5966595758,
				"y": 0.2880853708,
				"z": 0.436902838,
				"element": "H" 
			},
			{
				"x": 3.9563045805,
				"y": -2.0248114732,
				"z": -0.3981005133,
				"element": "H" 
			},
			{
				"x": 2.043421947,
				"y": -3.4438609921,
				"z": -1.0685098089,
				"element": "H" 
			},
			{
				"x": -0.2786265912,
				"y": -2.6000096237,
				"z": -0.922461031,
				"element": "H" 
			}
		],
		 "valence_orbital": [ 
			{
				"type": "occ",
				"energy": -0.31267,
				"method": "rhf"
			},
			{
				"type": "occ",
				"energy": -0.27577,
				"method": "rhf"
			},
			{
				"type": "occ",
				"energy": -0.26593,
				"method": "rhf"
			},
			{
				"type": "occ",
				"energy": -0.22221,
				"method": "rhf"
			},
			{
				"type": "occ",
				"energy": -0.20286,
				"method": "rhf"
			},
			{
				"type": "unocc",
				"energy": -0.01094,
				"method": "rhf"
			},
			{
				"type": "unocc",
				"energy": 0.01309,
				"method": "rhf"
			},
			{
				"type": "unocc",
				"energy": 0.02664,
				"method": "rhf"
			},
			{
				"type": "unocc",
				"energy": 0.05505,
				"method": "rhf"
			},
			{
				"type": "unocc",
				"energy": 0.0683,
				"method": "rhf"
			}
		],
		"cosmo_sigma_profile": { 
			"-0.025": 0.0,
			"-0.024": 0.0,
			"-0.023": 0.0,
			"-0.022": 0.0,
			"-0.021": 0.0,
			"-0.02": 0.0,
			"-0.019": 0.368694203667,
			"-0.018": 1.11676657522,
			"-0.017": 1.06833209747,
			"-0.016": 1.06641614391,
			"-0.015": 2.72008844972,
			"-0.014": 2.58079208374,
			"-0.013": 1.8329780529,
			"-0.012": 2.34169737124,
			"-0.011": 2.37144767095,
			"-0.01": 2.91310876804,
			"-0.009": 2.5791721554,
			"-0.008": 3.75629470802,
			"-0.007": 6.40618832775,
			"-0.006": 8.18338749216,
			"-0.005": 14.0470939278,
			"-0.004": 17.4884402944,
			"-0.003": 16.8030815688,
			"-0.002": 13.5378104716,
			"-0.001": 11.5219721465,
			"0.0": 11.1656651219,
			"0.001": 10.3474105152,
			"0.002": 9.98689001539,
			"0.003": 9.98362035005,
			"0.004": 11.8764976675,
			"0.005": 15.3388103249,
			"0.006": 14.1744194857,
			"0.007": 10.9219134714,
			"0.008": 4.90822641597,
			"0.009": 3.13651462374,
			"0.01": 4.26787384356,
			"0.011": 5.6302701162,
			"0.012": 5.75592758481,
			"0.013": 2.42892508369,
			"0.014": 0.145230099789,
			"0.015": 0.0,
			"0.016": 0.0,
			"0.017": 0.0,
			"0.018": 0.0,
			"0.019": 0.0,
			"0.02": 0.0,
			"0.021": 0.0,
			"0.022": 0.0,
			"0.023": 0.0,
			"0.024": 0.0,
			"0.025": 0.0
		}
	}
}
