{
	 "smiles": "CCOC(=O)C1SC(=N)NC1=O", 
	 "Tm": 449.15, 
	 "num_atms": 20, 
	 "gaussian": { 
		 "optdone": 1, 
		 "sigma_profile": "yes", 
		 "theory": "DFT", 
		 "functional": "B3LYP", 
		 "basiset": "6-31G**", 
		 "properties": { 
			 "R2extent": 3569.5431, 
			 "electric_dipole_moment_norm": 3.10568841644, 
			 "electric_quadrupole_moment_norm": 13.2785266566, 
			 "total_energy": -966.837828582, 
			 "HOMO_LUMO_gap": 0.22394, 
			 "cosmo_polarized_energy": -15.34, 
			 "cosmo_cavitation_energy": 26.84, 
			 "cosmo_dispersion_energy": -19.46, 
			 "cosmo_repulsion_energy": 1.56, 
			 "cosmo_total_nonelectrostatic_energy": 8.94, 
			 "SMD_solvation_energy": 5.19 
		},
		"coords": [
			{
				"x": -1.5045956423,
				"y": -4.1968289093,
				"z": 0.8969502181,
				"element": "C" 
			},
			{
				"x": -2.7254274579,
				"y": -3.3714924979,
				"z": 1.2702464882,
				"element": "C" 
			},
			{
				"x": -2.3425284455,
				"y": -2.0437653827,
				"z": 1.7251277951,
				"element": "O" 
			},
			{
				"x": -2.1528140458,
				"y": -1.1183076867,
				"z": 0.7713449983,
				"element": "C" 
			},
			{
				"x": -2.2812306292,
				"y": -1.2929398087,
				"z": -0.4182961274,
				"element": "O" 
			},
			{
				"x": -1.7215907603,
				"y": 0.2080436021,
				"z": 1.3997517817,
				"element": "C" 
			},
			{
				"x": 0.089043391,
				"y": 0.4769989582,
				"z": 1.192803855,
				"element": "S" 
			},
			{
				"x": -0.1597567545,
				"y": 1.9108053665,
				"z": 0.1285094926,
				"element": "C" 
			},
			{
				"x": 0.7018593765,
				"y": 2.6251080822,
				"z": -0.4629881753,
				"element": "N" 
			},
			{
				"x": -1.5217969434,
				"y": 2.1833700046,
				"z": 0.0511975624,
				"element": "N" 
			},
			{
				"x": -2.4307477114,
				"y": 1.3759037831,
				"z": 0.6908841304,
				"element": "C" 
			},
			{
				"x": -3.6308156305,
				"y": 1.5396071536,
				"z": 0.7091230327,
				"element": "O" 
			},
			{
				"x": -0.8052988245,
				"y": -4.2621105738,
				"z": 1.7355066074,
				"element": "H" 
			},
			{
				"x": -1.8154678794,
				"y": -5.2119940704,
				"z": 0.6293598219,
				"element": "H" 
			},
			{
				"x": -0.9904937523,
				"y": -3.7595154203,
				"z": 0.0376425468,
				"element": "H" 
			},
			{
				"x": -3.4091041167,
				"y": -3.2640549303,
				"z": 0.4253621681,
				"element": "H" 
			},
			{
				"x": -3.2597505554,
				"y": -3.7992592867,
				"z": 2.1209654724,
				"element": "H" 
			},
			{
				"x": -1.9782033808,
				"y": 0.2222373764,
				"z": 2.4599983516,
				"element": "H" 
			},
			{
				"x": 1.6533603469,
				"y": 2.2951327417,
				"z": -0.3099523503,
				"element": "H" 
			},
			{
				"x": -1.8331405845,
				"y": 2.9755614984,
				"z": -0.4970376698,
				"element": "H" 
			}
		],
		 "valence_orbital": [ 
			{
				"type": "occ",
				"energy": -0.30123,
				"method": "rhf"
			},
			{
				"type": "occ",
				"energy": -0.29406,
				"method": "rhf"
			},
			{
				"type": "occ",
				"energy": -0.28208,
				"method": "rhf"
			},
			{
				"type": "occ",
				"energy": -0.27673,
				"method": "rhf"
			},
			{
				"type": "occ",
				"energy": -0.25898,
				"method": "rhf"
			},
			{
				"type": "unocc",
				"energy": -0.03504,
				"method": "rhf"
			},
			{
				"type": "unocc",
				"energy": -0.02617,
				"method": "rhf"
			},
			{
				"type": "unocc",
				"energy": -0.00053,
				"method": "rhf"
			},
			{
				"type": "unocc",
				"energy": 0.03131,
				"method": "rhf"
			},
			{
				"type": "unocc",
				"energy": 0.07127,
				"method": "rhf"
			}
		],
		"cosmo_sigma_profile": { 
			"-0.025": 0.0,
			"-0.024": 0.0,
			"-0.023": 0.0,
			"-0.022": 0.0,
			"-0.021": 0.0,
			"-0.02": 0.0,
			"-0.019": 0.0,
			"-0.018": 0.0,
			"-0.017": 0.777823763718,
			"-0.016": 1.15322199928,
			"-0.015": 0.799645905409,
			"-0.014": 0.58339624243,
			"-0.013": 1.72340047297,
			"-0.012": 2.24226310784,
			"-0.011": 2.71002409863,
			"-0.01": 4.15690620957,
			"-0.009": 3.20745669157,
			"-0.008": 3.91006435464,
			"-0.007": 3.8896985638,
			"-0.006": 7.42555822832,
			"-0.005": 11.4876842011,
			"-0.004": 17.8370916696,
			"-0.003": 17.9280917478,
			"-0.002": 15.3785674079,
			"-0.001": 17.5212139057,
			"0.0": 16.1400410163,
			"0.001": 10.3880738192,
			"0.002": 7.97971041019,
			"0.003": 8.31104330784,
			"0.004": 8.61450779933,
			"0.005": 7.34964348121,
			"0.006": 5.85130395851,
			"0.007": 5.53152304938,
			"0.008": 4.18399333623,
			"0.009": 4.72104280198,
			"0.01": 7.52378446567,
			"0.011": 9.93728583822,
			"0.012": 2.23805081431,
			"0.013": 1.02283261081,
			"0.014": 1.28281155026,
			"0.015": 0.911133059509,
			"0.016": 0.159754071627,
			"0.017": 0.0,
			"0.018": 0.0,
			"0.019": 0.0,
			"0.02": 0.0,
			"0.021": 0.0,
			"0.022": 0.0,
			"0.023": 0.0,
			"0.024": 0.0,
			"0.025": 0.0
		}
	}
}
