{
	 "smiles": "CCC1=C(Cl)N=C(N)N=C1C", 
	 "Tm": 487.15, 
	 "num_atms": 21, 
	 "gaussian": { 
		 "optdone": 1, 
		 "sigma_profile": "yes", 
		 "theory": "DFT", 
		 "functional": "B3LYP", 
		 "basiset": "6-31G**", 
		 "properties": { 
			 "R2extent": 3370.798, 
			 "electric_dipole_moment_norm": 2.17996733462, 
			 "electric_quadrupole_moment_norm": 13.598389683, 
			 "total_energy": -897.250814707, 
			 "HOMO_LUMO_gap": 0.19459, 
			 "cosmo_polarized_energy": -9.27, 
			 "cosmo_cavitation_energy": 25.88, 
			 "cosmo_dispersion_energy": -19.14, 
			 "cosmo_repulsion_energy": 1.56, 
			 "cosmo_total_nonelectrostatic_energy": 8.3, 
			 "SMD_solvation_energy": 1.5 
		},
		"coords": [
			{
				"x": -0.2284715606,
				"y": -0.584042619,
				"z": -1.1042960705,
				"element": "C" 
			},
			{
				"x": 0.8518151806,
				"y": -1.0913798239,
				"z": -0.13056841,
				"element": "C" 
			},
			{
				"x": 1.2703688118,
				"y": -0.0634714078,
				"z": 0.8951621149,
				"element": "C" 
			},
			{
				"x": 2.2605887154,
				"y": 0.9017173333,
				"z": 0.6721411005,
				"element": "C" 
			},
			{
				"x": 3.1054368958,
				"y": 0.9446284404,
				"z": -0.883490899,
				"element": "Cl" 
			},
			{
				"x": 2.6451168981,
				"y": 1.8206321388,
				"z": 1.534142444,
				"element": "N" 
			},
			{
				"x": 2.0088437444,
				"y": 1.8017763308,
				"z": 2.7199798958,
				"element": "C" 
			},
			{
				"x": 2.4138931411,
				"y": 2.7131504746,
				"z": 3.650427568,
				"element": "N" 
			},
			{
				"x": 1.0307424045,
				"y": 0.9528327992,
				"z": 3.0750815183,
				"element": "N" 
			},
			{
				"x": 0.6710535499,
				"y": 0.0337968215,
				"z": 2.1718003396,
				"element": "C" 
			},
			{
				"x": -0.4225483039,
				"y": -0.9122415294,
				"z": 2.6045541918,
				"element": "C" 
			},
			{
				"x": -1.1358027018,
				"y": -0.2799786296,
				"z": -0.5718857979,
				"element": "H" 
			},
			{
				"x": 0.1320053298,
				"y": 0.2795764855,
				"z": -1.6703793892,
				"element": "H" 
			},
			{
				"x": -0.5028929848,
				"y": -1.36698753,
				"z": -1.8188267387,
				"element": "H" 
			},
			{
				"x": 1.7294422115,
				"y": -1.4049657804,
				"z": -0.7035223882,
				"element": "H" 
			},
			{
				"x": 0.4851778542,
				"y": -1.9859411929,
				"z": 0.3828393836,
				"element": "H" 
			},
			{
				"x": 2.9900219676,
				"y": 3.4765898296,
				"z": 3.3349081722,
				"element": "H" 
			},
			{
				"x": 1.820825188,
				"y": 2.847945303,
				"z": 4.45301342,
				"element": "H" 
			},
			{
				"x": -0.0451662069,
				"y": -1.9381217678,
				"z": 2.6877465876,
				"element": "H" 
			},
			{
				"x": -0.7992339067,
				"y": -0.6011602744,
				"z": 3.5793851793,
				"element": "H" 
			},
			{
				"x": -1.2505162279,
				"y": -0.9298554017,
				"z": 1.8887877781,
				"element": "H" 
			}
		],
		 "valence_orbital": [ 
			{
				"type": "occ",
				"energy": -0.30976,
				"method": "rhf"
			},
			{
				"type": "occ",
				"energy": -0.30643,
				"method": "rhf"
			},
			{
				"type": "occ",
				"energy": -0.28685,
				"method": "rhf"
			},
			{
				"type": "occ",
				"energy": -0.25224,
				"method": "rhf"
			},
			{
				"type": "occ",
				"energy": -0.22428,
				"method": "rhf"
			},
			{
				"type": "unocc",
				"energy": -0.02969,
				"method": "rhf"
			},
			{
				"type": "unocc",
				"energy": -0.00362,
				"method": "rhf"
			},
			{
				"type": "unocc",
				"energy": 0.03759,
				"method": "rhf"
			},
			{
				"type": "unocc",
				"energy": 0.08675,
				"method": "rhf"
			},
			{
				"type": "unocc",
				"energy": 0.09052,
				"method": "rhf"
			}
		],
		"cosmo_sigma_profile": { 
			"-0.025": 0.0,
			"-0.024": 0.0,
			"-0.023": 0.0,
			"-0.022": 0.0,
			"-0.021": 0.0,
			"-0.02": 0.0,
			"-0.019": 0.0,
			"-0.018": 0.0,
			"-0.017": 0.0,
			"-0.016": 0.0,
			"-0.015": 0.0,
			"-0.014": 1.03251594203,
			"-0.013": 2.09539321638,
			"-0.012": 1.97085021661,
			"-0.011": 1.89523761132,
			"-0.01": 1.87558517333,
			"-0.009": 1.99833100222,
			"-0.008": 1.61388823865,
			"-0.007": 2.3001124036,
			"-0.006": 2.10965191263,
			"-0.005": 7.39157390581,
			"-0.004": 11.4458663657,
			"-0.003": 14.447592216,
			"-0.002": 18.5659940416,
			"-0.001": 26.9479972553,
			"0.0": 28.5939612973,
			"0.001": 21.3659318633,
			"0.002": 10.320816253,
			"0.003": 9.93347331546,
			"0.004": 9.20354188663,
			"0.005": 8.33541236143,
			"0.006": 4.45937555476,
			"0.007": 4.10750577329,
			"0.008": 3.40039878204,
			"0.009": 3.2899952563,
			"0.01": 2.22825615996,
			"0.011": 1.47752778822,
			"0.012": 1.87658384795,
			"0.013": 1.69174645737,
			"0.014": 0.50598561578,
			"0.015": 0.0,
			"0.016": 0.0,
			"0.017": 0.0,
			"0.018": 0.0,
			"0.019": 0.0,
			"0.02": 0.0,
			"0.021": 0.0,
			"0.022": 0.0,
			"0.023": 0.0,
			"0.024": 0.0,
			"0.025": 0.0
		}
	}
}
