{
	 "smiles": "NC1=CC(N)=C(F)C=C1F", 
	 "Tm": 385.15, 
	 "num_atms": 16, 
	 "gaussian": { 
		 "optdone": 1, 
		 "sigma_profile": "yes", 
		 "theory": "DFT", 
		 "functional": "B3LYP", 
		 "basiset": "6-31G**", 
		 "properties": { 
			 "R2extent": 2725.8002, 
			 "electric_dipole_moment_norm": 3.19834175941, 
			 "electric_quadrupole_moment_norm": 7.74265766452, 
			 "total_energy": -541.425383644, 
			 "HOMO_LUMO_gap": 0.19198, 
			 "cosmo_polarized_energy": -10.76, 
			 "cosmo_cavitation_energy": 20.85, 
			 "cosmo_dispersion_energy": -15.55, 
			 "cosmo_repulsion_energy": 1.23, 
			 "cosmo_total_nonelectrostatic_energy": 6.53, 
			 "SMD_solvation_energy": 4.37 
		},
		"coords": [
			{
				"x": 0.781827839,
				"y": -1.6545351521,
				"z": -1.5356285146,
				"element": "N" 
			},
			{
				"x": 1.4383826283,
				"y": -0.6286627806,
				"z": -0.8519659557,
				"element": "C" 
			},
			{
				"x": 0.8309690529,
				"y": 0.6057471755,
				"z": -0.5805552906,
				"element": "C" 
			},
			{
				"x": 1.5241897956,
				"y": 1.6458088597,
				"z": 0.0551361301,
				"element": "C" 
			},
			{
				"x": 0.9536657319,
				"y": 2.900543081,
				"z": 0.2810298154,
				"element": "N" 
			},
			{
				"x": 2.8583488889,
				"y": 1.4140084443,
				"z": 0.4126351912,
				"element": "C" 
			},
			{
				"x": 3.5286408768,
				"y": 2.4159179801,
				"z": 1.0466535102,
				"element": "F" 
			},
			{
				"x": 3.4953388948,
				"y": 0.2090607267,
				"z": 0.16207087,
				"element": "C" 
			},
			{
				"x": 2.7750731325,
				"y": -0.7934323892,
				"z": -0.4677371587,
				"element": "C" 
			},
			{
				"x": 3.3621309754,
				"y": -1.9976061387,
				"z": -0.7135551953,
				"element": "F" 
			},
			{
				"x": 1.2188475728,
				"y": -2.5587349854,
				"z": -1.4182903883,
				"element": "H" 
			},
			{
				"x": -0.2171334934,
				"y": -1.6912570811,
				"z": -1.3868111132,
				"element": "H" 
			},
			{
				"x": -0.1992611656,
				"y": 0.7671525214,
				"z": -0.8877927474,
				"element": "H" 
			},
			{
				"x": -0.0443105561,
				"y": 2.8897458979,
				"z": 0.4402294776,
				"element": "H" 
			},
			{
				"x": 1.445363003,
				"y": 3.4455956659,
				"z": 0.9763621022,
				"element": "H" 
			},
			{
				"x": 4.5249268231,
				"y": 0.0513481746,
				"z": 0.460119267,
				"element": "H" 
			}
		],
		 "valence_orbital": [ 
			{
				"type": "occ",
				"energy": -0.35791,
				"method": "rhf"
			},
			{
				"type": "occ",
				"energy": -0.33208,
				"method": "rhf"
			},
			{
				"type": "occ",
				"energy": -0.28375,
				"method": "rhf"
			},
			{
				"type": "occ",
				"energy": -0.22017,
				"method": "rhf"
			},
			{
				"type": "occ",
				"energy": -0.18826,
				"method": "rhf"
			},
			{
				"type": "unocc",
				"energy": 0.00372,
				"method": "rhf"
			},
			{
				"type": "unocc",
				"energy": 0.03124,
				"method": "rhf"
			},
			{
				"type": "unocc",
				"energy": 0.08021,
				"method": "rhf"
			},
			{
				"type": "unocc",
				"energy": 0.08317,
				"method": "rhf"
			},
			{
				"type": "unocc",
				"energy": 0.09443,
				"method": "rhf"
			}
		],
		"cosmo_sigma_profile": { 
			"-0.025": 0.0,
			"-0.024": 0.0,
			"-0.023": 0.0,
			"-0.022": 0.0,
			"-0.021": 0.0,
			"-0.02": 0.0,
			"-0.019": 0.0,
			"-0.018": 0.0,
			"-0.017": 0.0,
			"-0.016": 0.0,
			"-0.015": 0.0,
			"-0.014": 0.0,
			"-0.013": 0.940493172651,
			"-0.012": 2.9079304581,
			"-0.011": 4.77324666565,
			"-0.01": 4.25165843464,
			"-0.009": 5.41102437764,
			"-0.008": 6.40251259604,
			"-0.007": 7.54998426065,
			"-0.006": 6.40280020049,
			"-0.005": 5.45717024749,
			"-0.004": 5.37899519726,
			"-0.003": 5.40937105771,
			"-0.002": 5.89867962994,
			"-0.001": 5.29582267269,
			"0.0": 5.39004857735,
			"0.001": 7.82846214754,
			"0.002": 14.7458448674,
			"0.003": 17.3358460128,
			"0.004": 21.5228324304,
			"0.005": 17.1466651569,
			"0.006": 3.91661518308,
			"0.007": 1.60309084456,
			"0.008": 1.36512239481,
			"0.009": 1.61518423611,
			"0.01": 1.68749781091,
			"0.011": 1.515827719,
			"0.012": 1.14439498082,
			"0.013": 1.22475535295,
			"0.014": 1.24350639167,
			"0.015": 0.590821737757,
			"0.016": 0.0,
			"0.017": 0.0,
			"0.018": 0.0,
			"0.019": 0.0,
			"0.02": 0.0,
			"0.021": 0.0,
			"0.022": 0.0,
			"0.023": 0.0,
			"0.024": 0.0,
			"0.025": 0.0
		}
	}
}
