{
	 "smiles": "CC(O)CN(C)C", 
	 "Tm": 397.15, 
	 "num_atms": 20, 
	 "gaussian": { 
		 "optdone": 1, 
		 "sigma_profile": "yes", 
		 "theory": "DFT", 
		 "functional": "B3LYP", 
		 "basiset": "6-31G**", 
		 "properties": { 
			 "R2extent": 1070.5257, 
			 "electric_dipole_moment_norm": 2.42424305093, 
			 "electric_quadrupole_moment_norm": 7.38416961818, 
			 "total_energy": -328.32806926, 
			 "HOMO_LUMO_gap": 0.29736, 
			 "cosmo_polarized_energy": -5.69, 
			 "cosmo_cavitation_energy": 21.12, 
			 "cosmo_dispersion_energy": -15.4, 
			 "cosmo_repulsion_energy": 1.3, 
			 "cosmo_total_nonelectrostatic_energy": 7.02, 
			 "SMD_solvation_energy": 3.52 
		},
		"coords": [
			{
				"x": -0.724103116,
				"y": -0.7798449903,
				"z": -1.9203377517,
				"element": "C" 
			},
			{
				"x": -0.3909470173,
				"y": -1.5745395698,
				"z": -0.6532342236,
				"element": "C" 
			},
			{
				"x": -1.5575145408,
				"y": -2.1794809038,
				"z": -0.1135007149,
				"element": "O" 
			},
			{
				"x": 0.2935134357,
				"y": -0.7482516327,
				"z": 0.457408026,
				"element": "C" 
			},
			{
				"x": -0.6767327146,
				"y": 0.1397536142,
				"z": 1.1250354591,
				"element": "N" 
			},
			{
				"x": -0.5530003356,
				"y": 1.5382456803,
				"z": 0.7232020676,
				"element": "C" 
			},
			{
				"x": -0.66562801,
				"y": 0.0104667564,
				"z": 2.5804196971,
				"element": "C" 
			},
			{
				"x": 0.1728961346,
				"y": -0.3361294195,
				"z": -2.3683840358,
				"element": "H" 
			},
			{
				"x": -1.187836163,
				"y": -1.4409626654,
				"z": -2.6578855579,
				"element": "H" 
			},
			{
				"x": -1.4363982039,
				"y": 0.0228186629,
				"z": -1.702267336,
				"element": "H" 
			},
			{
				"x": 0.2857205747,
				"y": -2.3954479736,
				"z": -0.9245083319,
				"element": "H" 
			},
			{
				"x": -1.9853161821,
				"y": -1.4523620841,
				"z": 0.3722484307,
				"element": "H" 
			},
			{
				"x": 0.6860037333,
				"y": -1.4549763261,
				"z": 1.1956672867,
				"element": "H" 
			},
			{
				"x": 1.1540475383,
				"y": -0.1868679304,
				"z": 0.0620687056,
				"element": "H" 
			},
			{
				"x": 0.3905890185,
				"y": 2.0007713316,
				"z": 1.0684010723,
				"element": "H" 
			},
			{
				"x": -1.3840978031,
				"y": 2.1180103727,
				"z": 1.1384839402,
				"element": "H" 
			},
			{
				"x": -0.5930704619,
				"y": 1.6269077343,
				"z": -0.3644623184,
				"element": "H" 
			},
			{
				"x": -0.838098179,
				"y": -1.0323141476,
				"z": 2.860299019,
				"element": "H" 
			},
			{
				"x": 0.2833249328,
				"y": 0.3420147463,
				"z": 3.0412941269,
				"element": "H" 
			},
			{
				"x": -1.4738526406,
				"y": 0.6132887446,
				"z": 3.0080524391,
				"element": "H" 
			}
		],
		 "valence_orbital": [ 
			{
				"type": "occ",
				"energy": -0.34986,
				"method": "rhf"
			},
			{
				"type": "occ",
				"energy": -0.3418,
				"method": "rhf"
			},
			{
				"type": "occ",
				"energy": -0.30476,
				"method": "rhf"
			},
			{
				"type": "occ",
				"energy": -0.25271,
				"method": "rhf"
			},
			{
				"type": "occ",
				"energy": -0.221,
				"method": "rhf"
			},
			{
				"type": "unocc",
				"energy": 0.07636,
				"method": "rhf"
			},
			{
				"type": "unocc",
				"energy": 0.11365,
				"method": "rhf"
			},
			{
				"type": "unocc",
				"energy": 0.12301,
				"method": "rhf"
			},
			{
				"type": "unocc",
				"energy": 0.12844,
				"method": "rhf"
			},
			{
				"type": "unocc",
				"energy": 0.13394,
				"method": "rhf"
			}
		],
		"cosmo_sigma_profile": { 
			"-0.025": 0.0,
			"-0.024": 0.0,
			"-0.023": 0.0,
			"-0.022": 0.0,
			"-0.021": 0.0,
			"-0.02": 0.0,
			"-0.019": 0.0,
			"-0.018": 0.0,
			"-0.017": 0.0,
			"-0.016": 0.0,
			"-0.015": 0.0,
			"-0.014": 0.0,
			"-0.013": 0.0,
			"-0.012": 0.0,
			"-0.011": 0.0,
			"-0.01": 0.0,
			"-0.009": 0.0888330395908,
			"-0.008": 0.605513063066,
			"-0.007": 0.402593475934,
			"-0.006": 0.628301215409,
			"-0.005": 0.532438945568,
			"-0.004": 8.38206151817,
			"-0.003": 25.8394995291,
			"-0.002": 31.1001953051,
			"-0.001": 31.6954002289,
			"0.0": 25.0986193591,
			"0.001": 10.534778404,
			"0.002": 5.37298321103,
			"0.003": 2.42526096817,
			"0.004": 2.29640298507,
			"0.005": 1.89698675808,
			"0.006": 1.68162996182,
			"0.007": 1.50899748647,
			"0.008": 1.24500711313,
			"0.009": 1.33247172245,
			"0.01": 1.58214391424,
			"0.011": 1.29827327007,
			"0.012": 0.795243676771,
			"0.013": 1.05597997107,
			"0.014": 2.03560146929,
			"0.015": 2.45239906196,
			"0.016": 0.671575844432,
			"0.017": 0.0,
			"0.018": 0.0,
			"0.019": 0.0,
			"0.02": 0.0,
			"0.021": 0.0,
			"0.022": 0.0,
			"0.023": 0.0,
			"0.024": 0.0,
			"0.025": 0.0
		}
	}
}
