{
	 "smiles": "CCC(=CC(O)=O)C1=CC(Cl)=CC=C1", 
	 "Tm": 353.15, 
	 "num_atms": 25, 
	 "gaussian": { 
		 "optdone": 1, 
		 "sigma_profile": "yes", 
		 "theory": "DFT", 
		 "functional": "B3LYP", 
		 "basiset": "6-31G**", 
		 "properties": { 
			 "R2extent": 5188.2371, 
			 "electric_dipole_moment_norm": 1.92986112972, 
			 "electric_quadrupole_moment_norm": 13.5633293151, 
			 "total_energy": -1036.44482898, 
			 "HOMO_LUMO_gap": 0.19224, 
			 "cosmo_polarized_energy": -11.23, 
			 "cosmo_cavitation_energy": 31.24, 
			 "cosmo_dispersion_energy": -21.62, 
			 "cosmo_repulsion_energy": 1.76, 
			 "cosmo_total_nonelectrostatic_energy": 11.38, 
			 "SMD_solvation_energy": 6.45 
		},
		"coords": [
			{
				"x": -1.2353954867,
				"y": -0.5700183507,
				"z": 3.4143723622,
				"element": "C" 
			},
			{
				"x": -0.0632817195,
				"y": -1.4324356259,
				"z": 2.9129968356,
				"element": "C" 
			},
			{
				"x": 0.4630137381,
				"y": -0.9972062599,
				"z": 1.5569826141,
				"element": "C" 
			},
			{
				"x": 0.2735202089,
				"y": -1.7994012574,
				"z": 0.4887752967,
				"element": "C" 
			},
			{
				"x": 0.724020605,
				"y": -1.654720898,
				"z": -0.9112209757,
				"element": "C" 
			},
			{
				"x": 1.6213134513,
				"y": -0.6651556915,
				"z": -1.1407935383,
				"element": "O" 
			},
			{
				"x": 0.3434176342,
				"y": -2.3941917719,
				"z": -1.8001546827,
				"element": "O" 
			},
			{
				"x": 1.1161184205,
				"y": 0.3444539278,
				"z": 1.5248543027,
				"element": "C" 
			},
			{
				"x": 2.2552640827,
				"y": 0.5851699527,
				"z": 2.307251834,
				"element": "C" 
			},
			{
				"x": 2.8334924831,
				"y": 1.8524764332,
				"z": 2.3135430159,
				"element": "C" 
			},
			{
				"x": 4.2759540909,
				"y": 2.1298807628,
				"z": 3.2819617204,
				"element": "Cl" 
			},
			{
				"x": 2.2926338601,
				"y": 2.9040048573,
				"z": 1.5757649777,
				"element": "C" 
			},
			{
				"x": 1.1497391721,
				"y": 2.6642763399,
				"z": 0.8115793724,
				"element": "C" 
			},
			{
				"x": 0.5665995852,
				"y": 1.3991590327,
				"z": 0.7811634636,
				"element": "C" 
			},
			{
				"x": -1.5641643097,
				"y": -0.9104614897,
				"z": 4.4009331401,
				"element": "H" 
			},
			{
				"x": -0.9487477594,
				"y": 0.482240139,
				"z": 3.4972639603,
				"element": "H" 
			},
			{
				"x": -2.0878633594,
				"y": -0.6359772952,
				"z": 2.7309048061,
				"element": "H" 
			},
			{
				"x": -0.3690478951,
				"y": -2.4824810621,
				"z": 2.8639960567,
				"element": "H" 
			},
			{
				"x": 0.7547085599,
				"y": -1.3737618405,
				"z": 3.643217137,
				"element": "H" 
			},
			{
				"x": -0.2807969363,
				"y": -2.7232950002,
				"z": 0.6265440868,
				"element": "H" 
			},
			{
				"x": 1.825845877,
				"y": -0.719896165,
				"z": -2.0893213453,
				"element": "H" 
			},
			{
				"x": 2.704072751,
				"y": -0.2111965236,
				"z": 2.8907485517,
				"element": "H" 
			},
			{
				"x": 2.754888875,
				"y": 3.8843346606,
				"z": 1.6030034708,
				"element": "H" 
			},
			{
				"x": 0.7132198808,
				"y": 3.4746931931,
				"z": 0.2354063519,
				"element": "H" 
			},
			{
				"x": -0.3205258098,
				"y": 1.2220099323,
				"z": 0.1825271853,
				"element": "H" 
			}
		],
		 "valence_orbital": [ 
			{
				"type": "occ",
				"energy": -0.31511,
				"method": "rhf"
			},
			{
				"type": "occ",
				"energy": -0.28266,
				"method": "rhf"
			},
			{
				"type": "occ",
				"energy": -0.27251,
				"method": "rhf"
			},
			{
				"type": "occ",
				"energy": -0.25755,
				"method": "rhf"
			},
			{
				"type": "occ",
				"energy": -0.24774,
				"method": "rhf"
			},
			{
				"type": "unocc",
				"energy": -0.0555,
				"method": "rhf"
			},
			{
				"type": "unocc",
				"energy": -0.01773,
				"method": "rhf"
			},
			{
				"type": "unocc",
				"energy": -0.0108,
				"method": "rhf"
			},
			{
				"type": "unocc",
				"energy": 0.02653,
				"method": "rhf"
			},
			{
				"type": "unocc",
				"energy": 0.07553,
				"method": "rhf"
			}
		],
		"cosmo_sigma_profile": { 
			"-0.025": 0.0,
			"-0.024": 0.0,
			"-0.023": 0.0,
			"-0.022": 0.0,
			"-0.021": 0.0,
			"-0.02": 0.0,
			"-0.019": 0.0,
			"-0.018": 0.329376259002,
			"-0.017": 0.996878190268,
			"-0.016": 0.714616261011,
			"-0.015": 0.698077709466,
			"-0.014": 0.889026230021,
			"-0.013": 0.258845113197,
			"-0.012": 1.06192666088,
			"-0.011": 1.00800906644,
			"-0.01": 0.693014118391,
			"-0.009": 0.392096110889,
			"-0.008": 1.01612845281,
			"-0.007": 6.375769339,
			"-0.006": 11.6094184673,
			"-0.005": 14.1699934965,
			"-0.004": 13.0079200908,
			"-0.003": 17.0029784837,
			"-0.002": 22.4931734186,
			"-0.001": 26.8640827009,
			"0.0": 22.175077418,
			"0.001": 22.0584084505,
			"0.002": 19.0751531411,
			"0.003": 17.0744986953,
			"0.004": 14.1930390973,
			"0.005": 11.5912053635,
			"0.006": 3.10284930181,
			"0.007": 2.82887255144,
			"0.008": 2.88779979192,
			"0.009": 3.07624407894,
			"0.01": 2.05410926282,
			"0.011": 2.36520307624,
			"0.012": 5.39649235647,
			"0.013": 2.51150468765,
			"0.014": 0.201627506946,
			"0.015": 0.0,
			"0.016": 0.0,
			"0.017": 0.0,
			"0.018": 0.0,
			"0.019": 0.0,
			"0.02": 0.0,
			"0.021": 0.0,
			"0.022": 0.0,
			"0.023": 0.0,
			"0.024": 0.0,
			"0.025": 0.0
		}
	}
}
