{
	 "smiles": "CNC(=O)N(C)C1=NN=C(S1)C(C)(C)C", 
	 "Tm": 436.0, 
	 "num_atms": 31, 
	 "gaussian": { 
		 "optdone": 1, 
		 "sigma_profile": "yes", 
		 "theory": "DFT", 
		 "functional": "B3LYP", 
		 "basiset": "6-31G**", 
		 "properties": { 
			 "R2extent": 4533.2961, 
			 "electric_dipole_moment_norm": 3.60314644443, 
			 "electric_quadrupole_moment_norm": 12.4889142995, 
			 "total_energy": -1045.01233323, 
			 "HOMO_LUMO_gap": 0.20398, 
			 "cosmo_polarized_energy": -15.11, 
			 "cosmo_cavitation_energy": 34.39, 
			 "cosmo_dispersion_energy": -24.55, 
			 "cosmo_repulsion_energy": 1.9, 
			 "cosmo_total_nonelectrostatic_energy": 11.74, 
			 "SMD_solvation_energy": 5.06 
		},
		"coords": [
			{
				"x": -3.0424401168,
				"y": -0.6328367235,
				"z": 1.1297576255,
				"element": "C" 
			},
			{
				"x": -3.1201087979,
				"y": 0.2281663538,
				"z": -0.0378490482,
				"element": "N" 
			},
			{
				"x": -2.2588399439,
				"y": 1.1828974312,
				"z": -0.4740210623,
				"element": "C" 
			},
			{
				"x": -2.5568474847,
				"y": 2.0055114219,
				"z": -1.3284945063,
				"element": "O" 
			},
			{
				"x": -0.9819289869,
				"y": 1.2557850479,
				"z": 0.1855235406,
				"element": "N" 
			},
			{
				"x": -0.3518704101,
				"y": 2.5832738107,
				"z": 0.1709576668,
				"element": "C" 
			},
			{
				"x": -0.1516884101,
				"y": 0.1541051037,
				"z": 0.2837053291,
				"element": "C" 
			},
			{
				"x": -0.4267720039,
				"y": -1.0401249926,
				"z": -0.1690284663,
				"element": "N" 
			},
			{
				"x": 0.5610059337,
				"y": -1.950575935,
				"z": 0.0965005412,
				"element": "N" 
			},
			{
				"x": 1.5920896557,
				"y": -1.4690022391,
				"z": 0.7173942239,
				"element": "C" 
			},
			{
				"x": 1.424634961,
				"y": 0.2621030285,
				"z": 1.0789456964,
				"element": "S" 
			},
			{
				"x": 2.8317886551,
				"y": -2.2641556606,
				"z": 1.0865933994,
				"element": "C" 
			},
			{
				"x": 4.0564303231,
				"y": -1.6863431001,
				"z": 0.3391426987,
				"element": "C" 
			},
			{
				"x": 3.0717020337,
				"y": -2.1818139845,
				"z": 2.611540519,
				"element": "C" 
			},
			{
				"x": 2.6261453246,
				"y": -3.7348685026,
				"z": 0.6763763768,
				"element": "C" 
			},
			{
				"x": -2.5958859949,
				"y": -1.6026763579,
				"z": 0.8932889616,
				"element": "H" 
			},
			{
				"x": -2.4401313049,
				"y": -0.1535403211,
				"z": 1.904766943,
				"element": "H" 
			},
			{
				"x": -4.0522867876,
				"y": -0.7753173465,
				"z": 1.5245730143,
				"element": "H" 
			},
			{
				"x": -3.9573595138,
				"y": 0.1937625309,
				"z": -0.6007275658,
				"element": "H" 
			},
			{
				"x": -1.1325181192,
				"y": 3.3263376559,
				"z": 0.0255674068,
				"element": "H" 
			},
			{
				"x": 0.3750406147,
				"y": 2.6798208254,
				"z": -0.6425690788,
				"element": "H" 
			},
			{
				"x": 0.1486446923,
				"y": 2.762114831,
				"z": 1.1273904407,
				"element": "H" 
			},
			{
				"x": 4.9515837388,
				"y": -2.267082736,
				"z": 0.5857935277,
				"element": "H" 
			},
			{
				"x": 4.2459146269,
				"y": -0.6442647866,
				"z": 0.6167318441,
				"element": "H" 
			},
			{
				"x": 3.9099982159,
				"y": -1.7277976993,
				"z": -0.7444658108,
				"element": "H" 
			},
			{
				"x": 3.2448778982,
				"y": -1.1516402598,
				"z": 2.9403566076,
				"element": "H" 
			},
			{
				"x": 2.2148343212,
				"y": -2.5756595261,
				"z": 3.1669408823,
				"element": "H" 
			},
			{
				"x": 3.9539165362,
				"y": -2.771231293,
				"z": 2.8826534976,
				"element": "H" 
			},
			{
				"x": 3.5188904348,
				"y": -4.3126224042,
				"z": 0.9377121637,
				"element": "H" 
			},
			{
				"x": 1.7650623767,
				"y": -4.1719379227,
				"z": 1.1879911078,
				"element": "H" 
			},
			{
				"x": 2.4516175322,
				"y": -3.8253862497,
				"z": -0.3981484762,
				"element": "H" 
			}
		],
		 "valence_orbital": [ 
			{
				"type": "occ",
				"energy": -0.28762,
				"method": "rhf"
			},
			{
				"type": "occ",
				"energy": -0.27121,
				"method": "rhf"
			},
			{
				"type": "occ",
				"energy": -0.25681,
				"method": "rhf"
			},
			{
				"type": "occ",
				"energy": -0.24945,
				"method": "rhf"
			},
			{
				"type": "occ",
				"energy": -0.22794,
				"method": "rhf"
			},
			{
				"type": "unocc",
				"energy": -0.02396,
				"method": "rhf"
			},
			{
				"type": "unocc",
				"energy": 0.00208,
				"method": "rhf"
			},
			{
				"type": "unocc",
				"energy": 0.02675,
				"method": "rhf"
			},
			{
				"type": "unocc",
				"energy": 0.05426,
				"method": "rhf"
			},
			{
				"type": "unocc",
				"energy": 0.07479,
				"method": "rhf"
			}
		],
		"cosmo_sigma_profile": { 
			"-0.025": 0.0,
			"-0.024": 0.0,
			"-0.023": 0.0,
			"-0.022": 0.0,
			"-0.021": 0.0,
			"-0.02": 0.0,
			"-0.019": 0.0,
			"-0.018": 0.0,
			"-0.017": 0.0,
			"-0.016": 0.0,
			"-0.015": 0.133352217949,
			"-0.014": 1.22552561376,
			"-0.013": 0.814547075644,
			"-0.012": 1.01273211674,
			"-0.011": 1.36932094364,
			"-0.01": 0.520417017964,
			"-0.009": 0.899194097886,
			"-0.008": 1.46990248379,
			"-0.007": 1.83238771959,
			"-0.006": 7.42544262664,
			"-0.005": 12.6691852839,
			"-0.004": 22.826216651,
			"-0.003": 35.2196285007,
			"-0.002": 35.4185359067,
			"-0.001": 30.9864038766,
			"0.0": 32.6885794202,
			"0.001": 21.5836421453,
			"0.002": 9.45195691073,
			"0.003": 6.9582148231,
			"0.004": 4.31143378273,
			"0.005": 4.08343169162,
			"0.006": 3.40629479055,
			"0.007": 3.56666417656,
			"0.008": 3.59001154935,
			"0.009": 3.06105347652,
			"0.01": 3.73511837423,
			"0.011": 4.19763665468,
			"0.012": 4.75589077279,
			"0.013": 7.4022356422,
			"0.014": 4.46367512115,
			"0.015": 0.118166212768,
			"0.016": 0.0,
			"0.017": 0.0,
			"0.018": 0.0,
			"0.019": 0.0,
			"0.02": 0.0,
			"0.021": 0.0,
			"0.022": 0.0,
			"0.023": 0.0,
			"0.024": 0.0,
			"0.025": 0.0
		}
	}
}
