{
	 "smiles": "IC1=CC=CC2=NSN=C12", 
	 "Tm": 369.65, 
	 "num_atms": 13, 
	 "gaussian": { 
		 "optdone": 1, 
		 "sigma_profile": "no", 
		 "theory": "DFT", 
		 "functional": "B3LYP", 
		 "basiset": "6-31G**", 
		 "properties": { 
			 "R2extent": 2670.3698, 
			 "electric_dipole_moment_norm": 2.07280190081, 
			 "electric_quadrupole_moment_norm": 3.91946743449, 
			 "total_energy": -749.493353938, 
			 "HOMO_LUMO_gap": 0.14303, 
			 "cosmo_polarized_energy": -91877.53, 
			 "cosmo_cavitation_energy": 22.32, 
			 "cosmo_dispersion_energy": -18.94, 
			 "cosmo_repulsion_energy": 1.43, 
			 "cosmo_total_nonelectrostatic_energy": 4.81, 
			 "SMD_solvation_energy": -0.25 
		},
		"coords": [
			{
				"x": -1.8066479485,
				"y": 3.3835739566,
				"z": -1.748263757,
				"element": "I" 
			},
			{
				"x": -1.2265854909,
				"y": 1.6616380076,
				"z": -0.6826474843,
				"element": "C" 
			},
			{
				"x": -0.2328866687,
				"y": 0.8376552073,
				"z": -1.1476799087,
				"element": "C" 
			},
			{
				"x": 0.1647103778,
				"y": -0.3341163555,
				"z": -0.4263926409,
				"element": "C" 
			},
			{
				"x": -0.4207981374,
				"y": -0.6939235738,
				"z": 0.7584354044,
				"element": "C" 
			},
			{
				"x": -1.4562479206,
				"y": 0.1386032449,
				"z": 1.2710432621,
				"element": "C" 
			},
			{
				"x": -2.1355526776,
				"y": -0.0581554933,
				"z": 2.4080226984,
				"element": "N" 
			},
			{
				"x": -3.204860712,
				"y": 1.1817640743,
				"z": 2.5270479466,
				"element": "S" 
			},
			{
				"x": -2.8512976008,
				"y": 2.0095916381,
				"z": 1.1546988555,
				"element": "N" 
			},
			{
				"x": -1.8715717556,
				"y": 1.3328783207,
				"z": 0.5496630744,
				"element": "C" 
			},
			{
				"x": 0.2686921194,
				"y": 1.0698161782,
				"z": -2.080607031,
				"element": "H" 
			},
			{
				"x": 0.9573685164,
				"y": -0.9458211282,
				"z": -0.8463776865,
				"element": "H" 
			},
			{
				"x": -0.1234221014,
				"y": -1.5797040769,
				"z": 1.308057267,
				"element": "H" 
			}
		],
		 "valence_orbital": [ 
			{
				"type": "occ",
				"energy": -0.3113,
				"method": "rhf"
			},
			{
				"type": "occ",
				"energy": -0.28755,
				"method": "rhf"
			},
			{
				"type": "occ",
				"energy": -0.27569,
				"method": "rhf"
			},
			{
				"type": "occ",
				"energy": -0.26896,
				"method": "rhf"
			},
			{
				"type": "occ",
				"energy": -0.23984,
				"method": "rhf"
			},
			{
				"type": "unocc",
				"energy": -0.09681,
				"method": "rhf"
			},
			{
				"type": "unocc",
				"energy": -0.04271,
				"method": "rhf"
			},
			{
				"type": "unocc",
				"energy": -0.00608,
				"method": "rhf"
			},
			{
				"type": "unocc",
				"energy": -0.00357,
				"method": "rhf"
			},
			{
				"type": "unocc",
				"energy": 0.00418,
				"method": "rhf"
			}
		],
		"cosmo_sigma_profile": { 
			"0.0": 0.0,
			"0.0": 0.0,
			"0.0": 0.0,
			"0.0": 0.0,
			"0.0": 0.0,
			"0.0": 0.0,
			"0.0": 0.0,
			"0.0": 0.0,
			"0.0": 0.0,
			"0.0": 0.0,
			"0.0": 0.0,
			"0.0": 0.0,
			"0.0": 0.0,
			"0.0": 0.0,
			"0.0": 0.0,
			"0.0": 0.0,
			"0.0": 0.0,
			"0.0": 0.0,
			"0.0": 0.0,
			"0.0": 0.0,
			"0.0": 0.0,
			"0.0": 0.0,
			"0.0": 0.0,
			"0.0": 0.0,
			"0.0": 0.0,
			"0.0": 0.0,
			"0.0": 0.0,
			"0.0": 0.0,
			"0.0": 0.0,
			"0.0": 0.0,
			"0.0": 0.0,
			"0.0": 0.0,
			"0.0": 0.0,
			"0.0": 0.0,
			"0.0": 0.0,
			"0.0": 0.0,
			"0.0": 0.0,
			"0.0": 0.0,
			"0.0": 0.0,
			"0.0": 0.0,
			"0.0": 0.0,
			"0.0": 0.0,
			"0.0": 0.0,
			"0.0": 0.0,
			"0.0": 0.0,
			"0.0": 0.0,
			"0.0": 0.0,
			"0.0": 0.0,
			"0.0": 0.0,
			"0.0": 0.0,
			"0.0": 0.0
		}
	}
}
