{
	 "smiles": "OC(=O)C1=CC=C(C=C1)C1CCCCC1", 
	 "Tm": 469.15, 
	 "num_atms": 31, 
	 "gaussian": { 
		 "optdone": 1, 
		 "sigma_profile": "yes", 
		 "theory": "DFT", 
		 "functional": "B3LYP", 
		 "basiset": "6-31G**", 
		 "properties": { 
			 "R2extent": 4862.0362, 
			 "electric_dipole_moment_norm": 5.43104787863, 
			 "electric_quadrupole_moment_norm": 24.9961688496, 
			 "total_energy": -655.50803943, 
			 "HOMO_LUMO_gap": 0.2075, 
			 "cosmo_polarized_energy": -13.48, 
			 "cosmo_cavitation_energy": 32.61, 
			 "cosmo_dispersion_energy": -23.73, 
			 "cosmo_repulsion_energy": 1.86, 
			 "cosmo_total_nonelectrostatic_energy": 10.74, 
			 "SMD_solvation_energy": 5.69 
		},
		"coords": [
			{
				"x": -0.8347763815,
				"y": -5.0041694292,
				"z": -0.9168553025,
				"element": "O" 
			},
			{
				"x": 0.0998646706,
				"y": -4.2580889091,
				"z": -0.2647277145,
				"element": "C" 
			},
			{
				"x": 1.0857291923,
				"y": -4.7921103089,
				"z": 0.1873630942,
				"element": "O" 
			},
			{
				"x": -0.1698987393,
				"y": -2.789737702,
				"z": -0.1500447948,
				"element": "C" 
			},
			{
				"x": 0.5303887319,
				"y": -2.0702577919,
				"z": 0.8286827038,
				"element": "C" 
			},
			{
				"x": 0.3254435472,
				"y": -0.7042163692,
				"z": 0.9824502129,
				"element": "C" 
			},
			{
				"x": -0.5705597707,
				"y": -0.0049429767,
				"z": 0.1553650307,
				"element": "C" 
			},
			{
				"x": -1.248972414,
				"y": -0.7283400578,
				"z": -0.8345688951,
				"element": "C" 
			},
			{
				"x": -1.0555181604,
				"y": -2.100212521,
				"z": -0.9885469097,
				"element": "C" 
			},
			{
				"x": -0.7951243816,
				"y": 1.4881490324,
				"z": 0.3118721853,
				"element": "C" 
			},
			{
				"x": 0.4886230237,
				"y": 2.306383992,
				"z": 0.0354162173,
				"element": "C" 
			},
			{
				"x": 0.2400752055,
				"y": 3.8164800855,
				"z": 0.1693152599,
				"element": "C" 
			},
			{
				"x": -0.3493961201,
				"y": 4.1737852299,
				"z": 1.5416827044,
				"element": "C" 
			},
			{
				"x": -1.6239640184,
				"y": 3.3659297853,
				"z": 1.8278123883,
				"element": "C" 
			},
			{
				"x": -1.3784459309,
				"y": 1.8549499023,
				"z": 1.6968089609,
				"element": "C" 
			},
			{
				"x": -1.6302938,
				"y": -4.4767829533,
				"z": -1.072201997,
				"element": "H" 
			},
			{
				"x": 1.2307717104,
				"y": -2.6070289097,
				"z": 1.4596747615,
				"element": "H" 
			},
			{
				"x": 0.8729528017,
				"y": -0.1721572919,
				"z": 1.7551647072,
				"element": "H" 
			},
			{
				"x": -1.9329052997,
				"y": -0.2078515268,
				"z": -1.499935987,
				"element": "H" 
			},
			{
				"x": -1.5736059539,
				"y": -2.6126059037,
				"z": -1.7963658831,
				"element": "H" 
			},
			{
				"x": -1.5381461603,
				"y": 1.7869710064,
				"z": -0.4418291167,
				"element": "H" 
			},
			{
				"x": 1.2696577534,
				"y": 2.0026655858,
				"z": 0.7458737717,
				"element": "H" 
			},
			{
				"x": 0.8695557373,
				"y": 2.0675539687,
				"z": -0.9644145523,
				"element": "H" 
			},
			{
				"x": -0.4555341458,
				"y": 4.1392260986,
				"z": -0.6185011324,
				"element": "H" 
			},
			{
				"x": 1.1748225313,
				"y": 4.3641366273,
				"z": 0.0004549644,
				"element": "H" 
			},
			{
				"x": -0.5599296084,
				"y": 5.2483513192,
				"z": 1.5972282899,
				"element": "H" 
			},
			{
				"x": 0.3958560892,
				"y": 3.9612629921,
				"z": 2.3215270043,
				"element": "H" 
			},
			{
				"x": -2.4094430305,
				"y": 3.666707862,
				"z": 1.1198291335,
				"element": "H" 
			},
			{
				"x": -2.0054992841,
				"y": 3.5957638686,
				"z": 2.8297257591,
				"element": "H" 
			},
			{
				"x": -0.6793054085,
				"y": 1.5320520348,
				"z": 2.4803413446,
				"element": "H" 
			},
			{
				"x": -2.3089223862,
				"y": 1.2996332606,
				"z": 1.8638037912,
				"element": "H" 
			}
		],
		 "valence_orbital": [ 
			{
				"type": "occ",
				"energy": -0.30765,
				"method": "rhf"
			},
			{
				"type": "occ",
				"energy": -0.30681,
				"method": "rhf"
			},
			{
				"type": "occ",
				"energy": -0.27091,
				"method": "rhf"
			},
			{
				"type": "occ",
				"energy": -0.26606,
				"method": "rhf"
			},
			{
				"type": "occ",
				"energy": -0.254,
				"method": "rhf"
			},
			{
				"type": "unocc",
				"energy": -0.0465,
				"method": "rhf"
			},
			{
				"type": "unocc",
				"energy": -0.01815,
				"method": "rhf"
			},
			{
				"type": "unocc",
				"energy": 0.05093,
				"method": "rhf"
			},
			{
				"type": "unocc",
				"energy": 0.06455,
				"method": "rhf"
			},
			{
				"type": "unocc",
				"energy": 0.08035,
				"method": "rhf"
			}
		],
		"cosmo_sigma_profile": { 
			"-0.025": 0.0,
			"-0.024": 0.0,
			"-0.023": 0.0,
			"-0.022": 0.0,
			"-0.021": 0.0,
			"-0.02": 0.0,
			"-0.019": 0.114197835867,
			"-0.018": 0.604527951569,
			"-0.017": 1.0611026296,
			"-0.016": 0.778206604683,
			"-0.015": 1.14020925825,
			"-0.014": 0.924199473146,
			"-0.013": 0.709142107001,
			"-0.012": 1.28640999208,
			"-0.011": 1.2071529113,
			"-0.01": 0.926806656921,
			"-0.009": 1.5543405824,
			"-0.008": 1.43552716289,
			"-0.007": 1.96762588474,
			"-0.006": 4.99441013473,
			"-0.005": 10.9692793464,
			"-0.004": 10.5039820111,
			"-0.003": 14.8643561412,
			"-0.002": 32.6677087937,
			"-0.001": 35.8020329938,
			"0.0": 36.0975845562,
			"0.001": 28.5245967922,
			"0.002": 12.1988825585,
			"0.003": 11.187442355,
			"0.004": 12.9778424332,
			"0.005": 2.33021530151,
			"0.006": 2.57613228614,
			"0.007": 2.63739318754,
			"0.008": 2.81435776497,
			"0.009": 2.86138377327,
			"0.01": 4.2897189781,
			"0.011": 5.45588037559,
			"0.012": 5.52294627406,
			"0.013": 2.07282012377,
			"0.014": 0.198594837574,
			"0.015": 0.0,
			"0.016": 0.0,
			"0.017": 0.0,
			"0.018": 0.0,
			"0.019": 0.0,
			"0.02": 0.0,
			"0.021": 0.0,
			"0.022": 0.0,
			"0.023": 0.0,
			"0.024": 0.0,
			"0.025": 0.0
		}
	}
}
