{
	 "smiles": "COC1=C(OC)C=C(C=C1)C1=CSC(C)=N1", 
	 "Tm": 348.15, 
	 "num_atms": 29, 
	 "gaussian": { 
		 "optdone": 1, 
		 "sigma_profile": "yes", 
		 "theory": "DFT", 
		 "functional": "B3LYP", 
		 "basiset": "6-31G**", 
		 "properties": { 
			 "R2extent": 5873.8317, 
			 "electric_dipole_moment_norm": 2.64831953321, 
			 "electric_quadrupole_moment_norm": 14.2170238693, 
			 "total_energy": -1068.47107208, 
			 "HOMO_LUMO_gap": 0.16698, 
			 "cosmo_polarized_energy": -11.17, 
			 "cosmo_cavitation_energy": 34.39, 
			 "cosmo_dispersion_energy": -25.4, 
			 "cosmo_repulsion_energy": 1.94, 
			 "cosmo_total_nonelectrostatic_energy": 10.92, 
			 "SMD_solvation_energy": 6.16 
		},
		"coords": [
			{
				"x": 0.2446452282,
				"y": -1.8781850019,
				"z": -3.9287276724,
				"element": "C" 
			},
			{
				"x": 0.4529974695,
				"y": -2.5666690113,
				"z": -2.6934978187,
				"element": "O" 
			},
			{
				"x": 0.1148786545,
				"y": -1.880327605,
				"z": -1.5541615835,
				"element": "C" 
			},
			{
				"x": 0.8391725001,
				"y": -0.7424998483,
				"z": -1.1253326657,
				"element": "C" 
			},
			{
				"x": 1.8660044458,
				"y": -0.346502373,
				"z": -1.9373909567,
				"element": "O" 
			},
			{
				"x": 2.6551364579,
				"y": 0.7592698605,
				"z": -1.5318299369,
				"element": "C" 
			},
			{
				"x": 0.4912004769,
				"y": -0.1145908858,
				"z": 0.0690587613,
				"element": "C" 
			},
			{
				"x": -0.5637602995,
				"y": -0.6009778569,
				"z": 0.8654949554,
				"element": "C" 
			},
			{
				"x": -1.2605195752,
				"y": -1.7382329467,
				"z": 0.4418251985,
				"element": "C" 
			},
			{
				"x": -0.9208848637,
				"y": -2.360757769,
				"z": -0.759406625,
				"element": "C" 
			},
			{
				"x": -0.9381854661,
				"y": 0.0631260857,
				"z": 2.1287445755,
				"element": "C" 
			},
			{
				"x": -0.4195026993,
				"y": 1.2291401406,
				"z": 2.6350179836,
				"element": "C" 
			},
			{
				"x": -1.1649256282,
				"y": 1.6265368686,
				"z": 4.1466634887,
				"element": "S" 
			},
			{
				"x": -2.1527306156,
				"y": 0.170809141,
				"z": 4.0010832422,
				"element": "C" 
			},
			{
				"x": -3.156402412,
				"y": -0.2110628705,
				"z": 5.0460901607,
				"element": "C" 
			},
			{
				"x": -1.9196603188,
				"y": -0.5127120263,
				"z": 2.9233238623,
				"element": "N" 
			},
			{
				"x": 0.5148399034,
				"y": -2.5833061113,
				"z": -4.7177098109,
				"element": "H" 
			},
			{
				"x": 0.8732103421,
				"y": -0.9863249228,
				"z": -4.0045092827,
				"element": "H" 
			},
			{
				"x": -0.8096273404,
				"y": -1.5944206145,
				"z": -4.0452204546,
				"element": "H" 
			},
			{
				"x": 3.4155676596,
				"y": 0.8857173213,
				"z": -2.3040630217,
				"element": "H" 
			},
			{
				"x": 3.1471568599,
				"y": 0.5725297289,
				"z": -0.5686120933,
				"element": "H" 
			},
			{
				"x": 2.0602379953,
				"y": 1.6792419485,
				"z": -1.4578452672,
				"element": "H" 
			},
			{
				"x": 1.0529982088,
				"y": 0.7507292347,
				"z": 0.3981104289,
				"element": "H" 
			},
			{
				"x": -2.0674690791,
				"y": -2.1206724276,
				"z": 1.0548459721,
				"element": "H" 
			},
			{
				"x": -1.4522114499,
				"y": -3.2433107931,
				"z": -1.1015710547,
				"element": "H" 
			},
			{
				"x": 0.3368545962,
				"y": 1.8743659353,
				"z": 2.213696777,
				"element": "H" 
			},
			{
				"x": -3.9189372881,
				"y": 0.564552815,
				"z": 5.1737021252,
				"element": "H" 
			},
			{
				"x": -3.6444710634,
				"y": -1.1365027792,
				"z": 4.7352342952,
				"element": "H" 
			},
			{
				"x": -2.6810126989,
				"y": -0.3732632369,
				"z": 6.0192864174,
				"element": "H" 
			}
		],
		 "valence_orbital": [ 
			{
				"type": "occ",
				"energy": -0.27337,
				"method": "rhf"
			},
			{
				"type": "occ",
				"energy": -0.26854,
				"method": "rhf"
			},
			{
				"type": "occ",
				"energy": -0.25497,
				"method": "rhf"
			},
			{
				"type": "occ",
				"energy": -0.2275,
				"method": "rhf"
			},
			{
				"type": "occ",
				"energy": -0.19968,
				"method": "rhf"
			},
			{
				"type": "unocc",
				"energy": -0.0327,
				"method": "rhf"
			},
			{
				"type": "unocc",
				"energy": 0.00071,
				"method": "rhf"
			},
			{
				"type": "unocc",
				"energy": 0.01475,
				"method": "rhf"
			},
			{
				"type": "unocc",
				"energy": 0.01927,
				"method": "rhf"
			},
			{
				"type": "unocc",
				"energy": 0.07801,
				"method": "rhf"
			}
		],
		"cosmo_sigma_profile": { 
			"-0.025": 0.0,
			"-0.024": 0.0,
			"-0.023": 0.0,
			"-0.022": 0.0,
			"-0.021": 0.0,
			"-0.02": 0.0,
			"-0.019": 0.0,
			"-0.018": 0.0,
			"-0.017": 0.0,
			"-0.016": 0.0,
			"-0.015": 0.0,
			"-0.014": 0.0,
			"-0.013": 0.0,
			"-0.012": 0.0,
			"-0.011": 0.0,
			"-0.01": 0.363842752569,
			"-0.009": 2.53064110749,
			"-0.008": 2.46320632292,
			"-0.007": 2.32388775022,
			"-0.006": 12.3527953834,
			"-0.005": 22.352111757,
			"-0.004": 24.9884741821,
			"-0.003": 27.8266993744,
			"-0.002": 25.4012649681,
			"-0.001": 18.8046583363,
			"0.0": 14.3221178138,
			"0.001": 17.3584022859,
			"0.002": 19.429606375,
			"0.003": 26.7637866617,
			"0.004": 20.720569353,
			"0.005": 12.7433433617,
			"0.006": 5.75265159773,
			"0.007": 3.42779774811,
			"0.008": 3.57702794108,
			"0.009": 3.61006314823,
			"0.01": 4.08946347578,
			"0.011": 3.81615535634,
			"0.012": 1.31059841115,
			"0.013": 0.00642423887888,
			"0.014": 0.0,
			"0.015": 0.0,
			"0.016": 0.0,
			"0.017": 0.0,
			"0.018": 0.0,
			"0.019": 0.0,
			"0.02": 0.0,
			"0.021": 0.0,
			"0.022": 0.0,
			"0.023": 0.0,
			"0.024": 0.0,
			"0.0": 0.0
		}
	}
}
