{
	 "smiles": "CCCSC1=C2C(CCCC2=O)=C(S1)C(=O)OCC", 
	 "Tm": 411.15, 
	 "num_atms": 37, 
	 "gaussian": { 
		 "optdone": 1, 
		 "sigma_profile": "yes", 
		 "theory": "DFT", 
		 "functional": "B3LYP", 
		 "basiset": "6-31G**", 
		 "properties": { 
			 "R2extent": 7776.0405, 
			 "electric_dipole_moment_norm": 2.02961317989, 
			 "electric_quadrupole_moment_norm": 7.03089465289, 
			 "total_energy": -1566.41177077, 
			 "HOMO_LUMO_gap": 0.15209, 
			 "cosmo_polarized_energy": -10.58, 
			 "cosmo_cavitation_energy": 41.86, 
			 "cosmo_dispersion_energy": -30.7, 
			 "cosmo_repulsion_energy": 2.35, 
			 "cosmo_total_nonelectrostatic_energy": 13.51, 
			 "SMD_solvation_energy": 7.27 
		},
		"coords": [
			{
				"x": 0.742523267,
				"y": -0.4753277636,
				"z": -5.4086090182,
				"element": "C" 
			},
			{
				"x": -0.5680565215,
				"y": 0.1248766282,
				"z": -4.8882519055,
				"element": "C" 
			},
			{
				"x": -0.8548628648,
				"y": -0.1327955948,
				"z": -3.4048049811,
				"element": "C" 
			},
			{
				"x": 0.362305154,
				"y": 0.7906507162,
				"z": -2.3581186709,
				"element": "S" 
			},
			{
				"x": -0.0255489089,
				"y": 0.275093879,
				"z": -0.7186415968,
				"element": "C" 
			},
			{
				"x": -1.1764210405,
				"y": 0.3967078727,
				"z": 0.0658996194,
				"element": "C" 
			},
			{
				"x": -0.9839474859,
				"y": -0.0791758813,
				"z": 1.4105558725,
				"element": "C" 
			},
			{
				"x": -2.0870755571,
				"y": -0.0065224958,
				"z": 2.4358673438,
				"element": "C" 
			},
			{
				"x": -3.0164109417,
				"y": 1.1797163828,
				"z": 2.1453025258,
				"element": "C" 
			},
			{
				"x": -3.5456850085,
				"y": 1.1191014828,
				"z": 0.7095239973,
				"element": "C" 
			},
			{
				"x": -2.4560364749,
				"y": 1.0156525379,
				"z": -0.3551848189,
				"element": "C" 
			},
			{
				"x": -2.6684568466,
				"y": 1.4154940231,
				"z": -1.4931113862,
				"element": "O" 
			},
			{
				"x": 0.2956964893,
				"y": -0.5504305033,
				"z": 1.6276116049,
				"element": "C" 
			},
			{
				"x": 1.2719624491,
				"y": -0.4343788058,
				"z": 0.1840050827,
				"element": "S" 
			},
			{
				"x": 0.8560702037,
				"y": -1.083771132,
				"z": 2.8774728003,
				"element": "C" 
			},
			{
				"x": 0.2362707054,
				"y": -1.2404156051,
				"z": 3.9151476459,
				"element": "O" 
			},
			{
				"x": 2.1691522198,
				"y": -1.3849723909,
				"z": 2.7315184707,
				"element": "O" 
			},
			{
				"x": 2.8448491907,
				"y": -1.9340035057,
				"z": 3.888248306,
				"element": "C" 
			},
			{
				"x": 2.6627267486,
				"y": -3.4419325124,
				"z": 3.9713084977,
				"element": "C" 
			},
			{
				"x": 0.8528413191,
				"y": -0.2945241183,
				"z": -6.4825537665,
				"element": "H" 
			},
			{
				"x": 1.6137133942,
				"y": -0.0447258115,
				"z": -4.9059943069,
				"element": "H" 
			},
			{
				"x": 0.7695585394,
				"y": -1.5589931072,
				"z": -5.2474832324,
				"element": "H" 
			},
			{
				"x": -0.593672008,
				"y": 1.2046587215,
				"z": -5.0804718655,
				"element": "H" 
			},
			{
				"x": -1.4111654746,
				"y": -0.3002543104,
				"z": -5.4478869186,
				"element": "H" 
			},
			{
				"x": -0.7609315091,
				"y": -1.1964386094,
				"z": -3.1656603705,
				"element": "H" 
			},
			{
				"x": -1.8450907783,
				"y": 0.2257768319,
				"z": -3.1241477237,
				"element": "H" 
			},
			{
				"x": -1.6593986893,
				"y": 0.0442046061,
				"z": 3.4378458918,
				"element": "H" 
			},
			{
				"x": -2.6661892577,
				"y": -0.9414689229,
				"z": 2.402081243,
				"element": "H" 
			},
			{
				"x": -3.8509078766,
				"y": 1.1830259771,
				"z": 2.8544282329,
				"element": "H" 
			},
			{
				"x": -2.4682491504,
				"y": 2.117964418,
				"z": 2.2974419697,
				"element": "H" 
			},
			{
				"x": -4.1813903752,
				"y": 0.2282332883,
				"z": 0.5898541593,
				"element": "H" 
			},
			{
				"x": -4.1679235296,
				"y": 1.9808548068,
				"z": 0.4520229324,
				"element": "H" 
			},
			{
				"x": 2.4628542495,
				"y": -1.4393832948,
				"z": 4.784247739,
				"element": "H" 
			},
			{
				"x": 3.892848055,
				"y": -1.6629417086,
				"z": 3.7416665966,
				"element": "H" 
			},
			{
				"x": 3.245496977,
				"y": -3.83958269,
				"z": 4.8088812875,
				"element": "H" 
			},
			{
				"x": 1.6121227045,
				"y": -3.6938126027,
				"z": 4.1350533043,
				"element": "H" 
			},
			{
				"x": 3.0057286328,
				"y": -3.9272608059,
				"z": 3.0529354379,
				"element": "H" 
			}
		],
		 "valence_orbital": [ 
			{
				"type": "occ",
				"energy": -0.28023,
				"method": "rhf"
			},
			{
				"type": "occ",
				"energy": -0.26217,
				"method": "rhf"
			},
			{
				"type": "occ",
				"energy": -0.25912,
				"method": "rhf"
			},
			{
				"type": "occ",
				"energy": -0.24602,
				"method": "rhf"
			},
			{
				"type": "occ",
				"energy": -0.22289,
				"method": "rhf"
			},
			{
				"type": "unocc",
				"energy": -0.0708,
				"method": "rhf"
			},
			{
				"type": "unocc",
				"energy": -0.03958,
				"method": "rhf"
			},
			{
				"type": "unocc",
				"energy": 0.02126,
				"method": "rhf"
			},
			{
				"type": "unocc",
				"energy": 0.0388,
				"method": "rhf"
			},
			{
				"type": "unocc",
				"energy": 0.05615,
				"method": "rhf"
			}
		],
		"cosmo_sigma_profile": { 
			"-0.025": 0.0,
			"-0.024": 0.0,
			"-0.023": 0.0,
			"-0.022": 0.0,
			"-0.021": 0.0,
			"-0.02": 0.0,
			"-0.019": 0.0,
			"-0.018": 0.0,
			"-0.017": 0.0,
			"-0.016": 0.0,
			"-0.015": 0.0,
			"-0.014": 0.0,
			"-0.013": 0.0,
			"-0.012": 0.0,
			"-0.011": 0.0,
			"-0.01": 0.0,
			"-0.009": 0.0,
			"-0.008": 0.0,
			"-0.007": 0.139615955517,
			"-0.006": 5.73267629504,
			"-0.005": 14.8570733898,
			"-0.004": 29.0820698857,
			"-0.003": 41.3147954671,
			"-0.002": 45.4874275621,
			"-0.001": 44.5780408435,
			"0.0": 42.1532468565,
			"0.001": 29.3577627837,
			"0.002": 17.5511592492,
			"0.003": 10.9328658552,
			"0.004": 9.10936462181,
			"0.005": 8.65617053837,
			"0.006": 7.59313245338,
			"0.007": 3.67903799763,
			"0.008": 3.64117316945,
			"0.009": 3.48145183256,
			"0.01": 4.32820540167,
			"0.011": 5.76672017481,
			"0.012": 4.32583012969,
			"0.013": 1.32083189852,
			"0.014": 0.16505080571,
			"0.015": 0.0,
			"0.016": 0.0,
			"0.017": 0.0,
			"0.018": 0.0,
			"0.019": 0.0,
			"0.02": 0.0,
			"0.021": 0.0,
			"0.022": 0.0,
			"0.023": 0.0,
			"0.024": 0.0,
			"0.025": 0.0
		}
	}
}
