{
	 "smiles": "NCCC1=CC=CC=C1", 
	 "Tm": 213.15, 
	 "num_atms": 20, 
	 "gaussian": { 
		 "optdone": 1, 
		 "sigma_profile": "yes", 
		 "theory": "DFT", 
		 "functional": "B3LYP", 
		 "basiset": "6-31G**", 
		 "properties": { 
			 "R2extent": 1851.21, 
			 "electric_dipole_moment_norm": 1.31412213664, 
			 "electric_quadrupole_moment_norm": 6.98807796393, 
			 "total_energy": -366.232360845, 
			 "HOMO_LUMO_gap": 0.23484, 
			 "cosmo_polarized_energy": -7.13, 
			 "cosmo_cavitation_energy": 23.01, 
			 "cosmo_dispersion_energy": -16.83, 
			 "cosmo_repulsion_energy": 1.41, 
			 "cosmo_total_nonelectrostatic_energy": 7.59, 
			 "SMD_solvation_energy": 2.56 
		},
		"coords": [
			{
				"x": 2.0688229783,
				"y": -1.37592987,
				"z": -1.6737586531,
				"element": "N" 
			},
			{
				"x": 1.0927937137,
				"y": -0.3178416646,
				"z": -1.3974080086,
				"element": "C" 
			},
			{
				"x": -0.1720758961,
				"y": -0.911917767,
				"z": -0.7536970454,
				"element": "C" 
			},
			{
				"x": -1.1947292919,
				"y": 0.1428255319,
				"z": -0.3929714787,
				"element": "C" 
			},
			{
				"x": -2.1773949346,
				"y": 0.5400666723,
				"z": -1.3103043142,
				"element": "C" 
			},
			{
				"x": -3.0963946037,
				"y": 1.5409830845,
				"z": -0.9914376102,
				"element": "C" 
			},
			{
				"x": -3.0480295013,
				"y": 2.1641100842,
				"z": 0.2568431758,
				"element": "C" 
			},
			{
				"x": -2.075701473,
				"y": 1.7778114446,
				"z": 1.1814593318,
				"element": "C" 
			},
			{
				"x": -1.1590898056,
				"y": 0.7768781228,
				"z": 0.8569913016,
				"element": "C" 
			},
			{
				"x": 1.7144719344,
				"y": -1.9870222649,
				"z": -2.4069159851,
				"element": "H" 
			},
			{
				"x": 2.9279073569,
				"y": -0.9697777875,
				"z": -2.0361926207,
				"element": "H" 
			},
			{
				"x": 0.796276199,
				"y": 0.2725573121,
				"z": -2.2827571289,
				"element": "H" 
			},
			{
				"x": 1.5490847257,
				"y": 0.3889500809,
				"z": -0.6939548221,
				"element": "H" 
			},
			{
				"x": 0.132168304,
				"y": -1.4757139171,
				"z": 0.1346904266,
				"element": "H" 
			},
			{
				"x": -0.6164511106,
				"y": -1.635457244,
				"z": -1.4503271937,
				"element": "H" 
			},
			{
				"x": -2.2254698766,
				"y": 0.054818502,
				"z": -2.2826717832,
				"element": "H" 
			},
			{
				"x": -3.8527149085,
				"y": 1.8306530815,
				"z": -1.7158883822,
				"element": "H" 
			},
			{
				"x": -3.7647383326,
				"y": 2.9405617655,
				"z": 0.5088066066,
				"element": "H" 
			},
			{
				"x": -2.0335551186,
				"y": 2.2527020098,
				"z": 2.1578951388,
				"element": "H" 
			},
			{
				"x": -0.4077803587,
				"y": 0.477142823,
				"z": 1.5840990449,
				"element": "H" 
			}
		],
		 "valence_orbital": [ 
			{
				"type": "occ",
				"energy": -0.33061,
				"method": "rhf"
			},
			{
				"type": "occ",
				"energy": -0.32866,
				"method": "rhf"
			},
			{
				"type": "occ",
				"energy": -0.24504,
				"method": "rhf"
			},
			{
				"type": "occ",
				"energy": -0.23814,
				"method": "rhf"
			},
			{
				"type": "occ",
				"energy": -0.23097,
				"method": "rhf"
			},
			{
				"type": "unocc",
				"energy": 0.00387,
				"method": "rhf"
			},
			{
				"type": "unocc",
				"energy": 0.00428,
				"method": "rhf"
			},
			{
				"type": "unocc",
				"energy": 0.08523,
				"method": "rhf"
			},
			{
				"type": "unocc",
				"energy": 0.09478,
				"method": "rhf"
			},
			{
				"type": "unocc",
				"energy": 0.12548,
				"method": "rhf"
			}
		],
		"cosmo_sigma_profile": { 
			"-0.025": 0.0,
			"-0.024": 0.0,
			"-0.023": 0.0,
			"-0.022": 0.0,
			"-0.021": 0.0,
			"-0.02": 0.0,
			"-0.019": 0.0,
			"-0.018": 0.0,
			"-0.017": 0.0,
			"-0.016": 0.0,
			"-0.015": 0.0,
			"-0.014": 0.0,
			"-0.013": 0.0,
			"-0.012": 0.0,
			"-0.011": 0.0,
			"-0.01": 0.686703151679,
			"-0.009": 2.63814726255,
			"-0.008": 3.10208653663,
			"-0.007": 2.02268273567,
			"-0.006": 4.18165879451,
			"-0.005": 12.7092195085,
			"-0.004": 15.4873324426,
			"-0.003": 21.5321606935,
			"-0.002": 18.1988228905,
			"-0.001": 16.2925678961,
			"0.0": 13.142100357,
			"0.001": 12.3062674907,
			"0.002": 9.11954060457,
			"0.003": 9.02675938828,
			"0.004": 8.90351354993,
			"0.005": 9.27382113977,
			"0.006": 9.0257028241,
			"0.007": 4.65169902115,
			"0.008": 0.552788283112,
			"0.009": 0.943504307636,
			"0.01": 1.05723497033,
			"0.011": 0.49422997458,
			"0.012": 0.572331583653,
			"0.013": 0.619244586245,
			"0.014": 0.972587923257,
			"0.015": 0.395936531953,
			"0.016": 0.317419701254,
			"0.017": 0.837910016088,
			"0.018": 0.589088280211,
			"0.019": 0.503565592478,
			"0.02": 0.346995942584,
			"0.021": 0.0482724877794,
			"0.022": 0.0,
			"0.023": 0.0,
			"0.024": 0.0,
			"0.025": 0.0
		}
	}
}
