{
	 "smiles": "OCCOC1=CC(OCCO)=C(C=C1[N+]([O-])=O)[N+]([O-])=O", 
	 "Tm": 409.15, 
	 "num_atms": 32, 
	 "gaussian": { 
		 "optdone": 1, 
		 "sigma_profile": "yes", 
		 "theory": "DFT", 
		 "functional": "B3LYP", 
		 "basiset": "6-31G**", 
		 "properties": { 
			 "R2extent": 7867.3384, 
			 "electric_dipole_moment_norm": 8.01220567073, 
			 "electric_quadrupole_moment_norm": 13.4095595509, 
			 "total_energy": -1099.32373745, 
			 "HOMO_LUMO_gap": 0.16974, 
			 "cosmo_polarized_energy": -25.27, 
			 "cosmo_cavitation_energy": 37.85, 
			 "cosmo_dispersion_energy": -26.77, 
			 "cosmo_repulsion_energy": 2.1, 
			 "cosmo_total_nonelectrostatic_energy": 13.18, 
			 "SMD_solvation_energy": 10.97 
		},
		"coords": [
			{
				"x": -0.7917678551,
				"y": 0.6627911831,
				"z": -4.3768356985,
				"element": "O" 
			},
			{
				"x": -0.485631394,
				"y": -0.5021797793,
				"z": -3.6379602455,
				"element": "C" 
			},
			{
				"x": 0.4891290389,
				"y": -0.1407086602,
				"z": -2.5382056535,
				"element": "C" 
			},
			{
				"x": -0.2085710292,
				"y": 0.6570875645,
				"z": -1.5545223833,
				"element": "O" 
			},
			{
				"x": 0.4161190192,
				"y": 0.8735972419,
				"z": -0.3728650172,
				"element": "C" 
			},
			{
				"x": 0.1848306849,
				"y": -0.0342335206,
				"z": 0.6655427709,
				"element": "C" 
			},
			{
				"x": 0.7079543272,
				"y": 0.1513124306,
				"z": 1.9505529865,
				"element": "C" 
			},
			{
				"x": 0.565777432,
				"y": -0.7338573558,
				"z": 2.9422105359,
				"element": "O" 
			},
			{
				"x": -0.5199579477,
				"y": -1.6806643621,
				"z": 2.9538762493,
				"element": "C" 
			},
			{
				"x": -0.7180845214,
				"y": -2.0176791151,
				"z": 4.4265314392,
				"element": "C" 
			},
			{
				"x": -1.049272161,
				"y": -0.8699408448,
				"z": 5.1715051872,
				"element": "O" 
			},
			{
				"x": 1.472656465,
				"y": 1.3190028136,
				"z": 2.1932396131,
				"element": "C" 
			},
			{
				"x": 1.7173903741,
				"y": 2.2263481982,
				"z": 1.1735879491,
				"element": "C" 
			},
			{
				"x": 1.2090675939,
				"y": 2.0119878056,
				"z": -0.1026247213,
				"element": "C" 
			},
			{
				"x": 1.5107464593,
				"y": 3.027462474,
				"z": -1.1156576324,
				"element": "N" 
			},
			{
				"x": 1.7874109248,
				"y": 4.1564902679,
				"z": -0.7100714468,
				"element": "O" 
			},
			{
				"x": 1.488898629,
				"y": 2.6920415805,
				"z": -2.2975431808,
				"element": "O" 
			},
			{
				"x": 1.9986619749,
				"y": 1.6508422774,
				"z": 3.5231794106,
				"element": "N" 
			},
			{
				"x": 2.9845035225,
				"y": 2.3842343249,
				"z": 3.5625879427,
				"element": "O" 
			},
			{
				"x": 1.4173592678,
				"y": 1.2144712244,
				"z": 4.5180275663,
				"element": "O" 
			},
			{
				"x": -1.5009791642,
				"y": 0.4536034668,
				"z": -4.9964084109,
				"element": "H" 
			},
			{
				"x": -0.0016442164,
				"y": -1.2728128975,
				"z": -4.2623561284,
				"element": "H" 
			},
			{
				"x": -1.381374906,
				"y": -0.9540433382,
				"z": -3.1839242551,
				"element": "H" 
			},
			{
				"x": 1.3254948206,
				"y": 0.4371002535,
				"z": -2.9393046268,
				"element": "H" 
			},
			{
				"x": 0.8616180511,
				"y": -1.0580835787,
				"z": -2.0629965228,
				"element": "H" 
			},
			{
				"x": -0.4239128375,
				"y": -0.9015866199,
				"z": 0.4424224671,
				"element": "H" 
			},
			{
				"x": -0.2578074662,
				"y": -2.5634844619,
				"z": 2.3568762236,
				"element": "H" 
			},
			{
				"x": -1.4203841063,
				"y": -1.2093393538,
				"z": 2.5455872928,
				"element": "H" 
			},
			{
				"x": -1.5487862926,
				"y": -2.72527185,
				"z": 4.5214752118,
				"element": "H" 
			},
			{
				"x": 0.1900872213,
				"y": -2.5136757966,
				"z": 4.8040192944,
				"element": "H" 
			},
			{
				"x": -0.316863414,
				"y": -0.2410052846,
				"z": 5.0719162418,
				"element": "H" 
			},
			{
				"x": 2.2984315049,
				"y": 3.1163937118,
				"z": 1.3755375409,
				"element": "H" 
			}
		],
		 "valence_orbital": [ 
			{
				"type": "occ",
				"energy": -0.29859,
				"method": "rhf"
			},
			{
				"type": "occ",
				"energy": -0.28891,
				"method": "rhf"
			},
			{
				"type": "occ",
				"energy": -0.28058,
				"method": "rhf"
			},
			{
				"type": "occ",
				"energy": -0.27793,
				"method": "rhf"
			},
			{
				"type": "occ",
				"energy": -0.27022,
				"method": "rhf"
			},
			{
				"type": "unocc",
				"energy": -0.10048,
				"method": "rhf"
			},
			{
				"type": "unocc",
				"energy": -0.09219,
				"method": "rhf"
			},
			{
				"type": "unocc",
				"energy": -0.0335,
				"method": "rhf"
			},
			{
				"type": "unocc",
				"energy": -0.00941,
				"method": "rhf"
			},
			{
				"type": "unocc",
				"energy": 0.05359,
				"method": "rhf"
			}
		],
		"cosmo_sigma_profile": { 
			"-0.025": 0.0,
			"-0.024": 0.0,
			"-0.023": 0.0,
			"-0.022": 0.0,
			"-0.021": 0.0,
			"-0.02": 0.0,
			"-0.019": 0.0,
			"-0.018": 0.0,
			"-0.017": 0.0122898052199,
			"-0.016": 0.749297115122,
			"-0.015": 1.41660198438,
			"-0.014": 0.648178988183,
			"-0.013": 0.83817296088,
			"-0.012": 1.06528275906,
			"-0.011": 1.1057443954,
			"-0.01": 0.715478683152,
			"-0.009": 3.22131578589,
			"-0.008": 4.93843545968,
			"-0.007": 13.0268201158,
			"-0.006": 23.0584446296,
			"-0.005": 28.106084042,
			"-0.004": 31.4030207197,
			"-0.003": 27.4447128597,
			"-0.002": 19.4455680222,
			"-0.001": 15.1539759424,
			"0.0": 10.9345707638,
			"0.001": 6.91179059333,
			"0.002": 10.524204517,
			"0.003": 8.25442517016,
			"0.004": 7.27093251885,
			"0.005": 9.31398016765,
			"0.006": 11.0451532373,
			"0.007": 16.4335040054,
			"0.008": 13.0450174202,
			"0.009": 11.8639614129,
			"0.01": 5.95906627382,
			"0.011": 2.97700158239,
			"0.012": 4.40943366241,
			"0.013": 5.08695719959,
			"0.014": 3.19795088878,
			"0.015": 0.359312071213,
			"0.016": 0.0,
			"0.017": 0.0,
			"0.018": 0.0,
			"0.019": 0.0,
			"0.02": 0.0,
			"0.021": 0.0,
			"0.022": 0.0,
			"0.023": 0.0,
			"0.024": 0.0,
			"0.025": 0.0
		}
	}
}
