{
	 "smiles": "CCCC(=O)N1CCCC1C(O)=O", 
	 "Tm": 389.15, 
	 "num_atms": 28, 
	 "gaussian": { 
		 "optdone": 1, 
		 "sigma_profile": "yes", 
		 "theory": "DFT", 
		 "functional": "B3LYP", 
		 "basiset": "6-31G**", 
		 "properties": { 
			 "R2extent": 3989.0211, 
			 "electric_dipole_moment_norm": 4.80603503733, 
			 "electric_quadrupole_moment_norm": 20.0199798918, 
			 "total_energy": -632.460450217, 
			 "HOMO_LUMO_gap": 0.24644, 
			 "cosmo_polarized_energy": -16.44, 
			 "cosmo_cavitation_energy": 30.26, 
			 "cosmo_dispersion_energy": -21.49, 
			 "cosmo_repulsion_energy": 1.76, 
			 "cosmo_total_nonelectrostatic_energy": 10.53, 
			 "SMD_solvation_energy": 5.98 
		},
		"coords": [
			{
				"x": 0.3735322412,
				"y": 3.6215068577,
				"z": -1.6139427678,
				"element": "C" 
			},
			{
				"x": 1.291226072,
				"y": 2.4740861744,
				"z": -1.1832827,
				"element": "C" 
			},
			{
				"x": 0.6552106056,
				"y": 1.0993430019,
				"z": -1.4020817813,
				"element": "C" 
			},
			{
				"x": 1.5515661282,
				"y": -0.0434755329,
				"z": -0.9359059582,
				"element": "C" 
			},
			{
				"x": 2.6004179538,
				"y": 0.1406264077,
				"z": -0.3231831106,
				"element": "O" 
			},
			{
				"x": 1.1311551232,
				"y": -1.3135016426,
				"z": -1.2329424537,
				"element": "N" 
			},
			{
				"x": -0.1256653542,
				"y": -1.7076382637,
				"z": -1.8824640481,
				"element": "C" 
			},
			{
				"x": -0.2060625534,
				"y": -3.2198420063,
				"z": -1.6157068945,
				"element": "C" 
			},
			{
				"x": 1.2687408814,
				"y": -3.6453872714,
				"z": -1.5261076623,
				"element": "C" 
			},
			{
				"x": 1.9443045964,
				"y": -2.4507334824,
				"z": -0.8127716292,
				"element": "C" 
			},
			{
				"x": 1.9923130907,
				"y": -2.6601471959,
				"z": 0.7009548826,
				"element": "C" 
			},
			{
				"x": 0.9034349223,
				"y": -2.1764962863,
				"z": 1.3441706604,
				"element": "O" 
			},
			{
				"x": 2.8790692125,
				"y": -3.2587981418,
				"z": 1.2655350475,
				"element": "O" 
			},
			{
				"x": 0.8518059029,
				"y": 4.5920263391,
				"z": -1.4479777282,
				"element": "H" 
			},
			{
				"x": -0.5669995566,
				"y": 3.6156497123,
				"z": -1.050433289,
				"element": "H" 
			},
			{
				"x": 0.1193651851,
				"y": 3.5559571227,
				"z": -2.6785184729,
				"element": "H" 
			},
			{
				"x": 2.2378652065,
				"y": 2.5202738757,
				"z": -1.7329332097,
				"element": "H" 
			},
			{
				"x": 1.5590625429,
				"y": 2.5744082872,
				"z": -0.1267878753,
				"element": "H" 
			},
			{
				"x": -0.2990495165,
				"y": 1.0336378061,
				"z": -0.8588618305,
				"element": "H" 
			},
			{
				"x": 0.4009538626,
				"y": 0.9556924911,
				"z": -2.4613486948,
				"element": "H" 
			},
			{
				"x": -0.979442525,
				"y": -1.1680460601,
				"z": -1.4611361141,
				"element": "H" 
			},
			{
				"x": -0.0934092311,
				"y": -1.4946859681,
				"z": -2.9606415008,
				"element": "H" 
			},
			{
				"x": -0.7596027075,
				"y": -3.7506565627,
				"z": -2.3946239325,
				"element": "H" 
			},
			{
				"x": -0.7070008555,
				"y": -3.3993602374,
				"z": -0.6595490648,
				"element": "H" 
			},
			{
				"x": 1.4244502288,
				"y": -4.5879427406,
				"z": -0.9962427207,
				"element": "H" 
			},
			{
				"x": 1.7004465371,
				"y": -3.74927761,
				"z": -2.5272041923,
				"element": "H" 
			},
			{
				"x": 2.9850266765,
				"y": -2.3189375127,
				"z": -1.1167729892,
				"element": "H" 
			},
			{
				"x": 1.0437853302,
				"y": -2.376481561,
				"z": 2.28516003,
				"element": "H" 
			}
		],
		 "valence_orbital": [ 
			{
				"type": "occ",
				"energy": -0.32704,
				"method": "rhf"
			},
			{
				"type": "occ",
				"energy": -0.31454,
				"method": "rhf"
			},
			{
				"type": "occ",
				"energy": -0.28055,
				"method": "rhf"
			},
			{
				"type": "occ",
				"energy": -0.24393,
				"method": "rhf"
			},
			{
				"type": "occ",
				"energy": -0.23638,
				"method": "rhf"
			},
			{
				"type": "unocc",
				"energy": 0.01006,
				"method": "rhf"
			},
			{
				"type": "unocc",
				"energy": 0.02825,
				"method": "rhf"
			},
			{
				"type": "unocc",
				"energy": 0.06637,
				"method": "rhf"
			},
			{
				"type": "unocc",
				"energy": 0.08653,
				"method": "rhf"
			},
			{
				"type": "unocc",
				"energy": 0.09937,
				"method": "rhf"
			}
		],
		"cosmo_sigma_profile": { 
			"-0.025": 0.0,
			"-0.024": 0.0,
			"-0.023": 0.0,
			"-0.022": 0.0,
			"-0.021": 0.0,
			"-0.02": 0.0,
			"-0.019": 0.0825998157295,
			"-0.018": 0.685591112315,
			"-0.017": 1.16040530099,
			"-0.016": 0.647829454489,
			"-0.015": 0.655659946198,
			"-0.014": 1.03036384338,
			"-0.013": 0.752539590764,
			"-0.012": 0.157644990554,
			"-0.011": 1.11889897515,
			"-0.01": 0.950096805968,
			"-0.009": 0.211271201423,
			"-0.008": 0.514262120648,
			"-0.007": 0.919835896715,
			"-0.006": 4.53306285536,
			"-0.005": 16.525828879,
			"-0.004": 24.9741130933,
			"-0.003": 28.5504573844,
			"-0.002": 30.5673853871,
			"-0.001": 24.9682374853,
			"0.0": 17.7778011391,
			"0.001": 15.8049406299,
			"0.002": 7.56280720037,
			"0.003": 4.34254954289,
			"0.004": 4.51717496028,
			"0.005": 4.53466643726,
			"0.006": 5.62415954986,
			"0.007": 4.5213046148,
			"0.008": 4.31160058146,
			"0.009": 3.50794590917,
			"0.01": 3.57012578148,
			"0.011": 5.50462496056,
			"0.012": 6.6026518711,
			"0.013": 3.32590438626,
			"0.014": 3.70765360054,
			"0.015": 0.753672189294,
			"0.016": 0.0,
			"0.017": 0.0,
			"0.018": 0.0,
			"0.019": 0.0,
			"0.02": 0.0,
			"0.021": 0.0,
			"0.022": 0.0,
			"0.023": 0.0,
			"0.024": 0.0,
			"0.025": 0.0
		}
	}
}
