{
	 "smiles": "CC1=CC2=C(C=CC=C2)N=C1Cl", 
	 "Tm": 356.65, 
	 "num_atms": 20, 
	 "gaussian": { 
		 "optdone": 1, 
		 "sigma_profile": "yes", 
		 "theory": "DFT", 
		 "functional": "B3LYP", 
		 "basiset": "6-31G**", 
		 "properties": { 
			 "R2extent": 4131.5154, 
			 "electric_dipole_moment_norm": 3.40795994548, 
			 "electric_quadrupole_moment_norm": 13.607532733, 
			 "total_energy": -900.848078165, 
			 "HOMO_LUMO_gap": 0.17973, 
			 "cosmo_polarized_energy": -7.25, 
			 "cosmo_cavitation_energy": 25.47, 
			 "cosmo_dispersion_energy": -19.17, 
			 "cosmo_repulsion_energy": 1.5, 
			 "cosmo_total_nonelectrostatic_energy": 7.8, 
			 "SMD_solvation_energy": 2.49 
		},
		"coords": [
			{
				"x": -1.7572441906,
				"y": -1.3610115472,
				"z": -3.6739327227,
				"element": "C" 
			},
			{
				"x": -0.6236810662,
				"y": -0.7436167418,
				"z": -2.901994501,
				"element": "C" 
			},
			{
				"x": -0.8206820409,
				"y": -0.0723907983,
				"z": -1.7143886002,
				"element": "C" 
			},
			{
				"x": 0.2615706529,
				"y": 0.5032606374,
				"z": -1.0007109169,
				"element": "C" 
			},
			{
				"x": 1.5658331757,
				"y": 0.3590342432,
				"z": -1.5632754931,
				"element": "C" 
			},
			{
				"x": 2.6823922692,
				"y": 0.9159942216,
				"z": -0.889624834,
				"element": "C" 
			},
			{
				"x": 2.5049068727,
				"y": 1.5904554954,
				"z": 0.2986507132,
				"element": "C" 
			},
			{
				"x": 1.2116713117,
				"y": 1.735443016,
				"z": 0.8597394754,
				"element": "C" 
			},
			{
				"x": 0.1112824899,
				"y": 1.2031767698,
				"z": 0.2241188896,
				"element": "C" 
			},
			{
				"x": 1.7666917236,
				"y": -0.3051256542,
				"z": -2.7398691102,
				"element": "N" 
			},
			{
				"x": 0.7360177963,
				"y": -0.8097274875,
				"z": -3.3455350369,
				"element": "C" 
			},
			{
				"x": 1.0657780346,
				"y": -1.6583398763,
				"z": -4.8669551892,
				"element": "Cl" 
			},
			{
				"x": -1.6150307525,
				"y": -2.4399216616,
				"z": -3.7955541318,
				"element": "H" 
			},
			{
				"x": -2.7068316766,
				"y": -1.1939651259,
				"z": -3.159204313,
				"element": "H" 
			},
			{
				"x": -1.8305940059,
				"y": -0.9371903885,
				"z": -4.6809341955,
				"element": "H" 
			},
			{
				"x": -1.827294833,
				"y": 0.0199065488,
				"z": -1.3124909328,
				"element": "H" 
			},
			{
				"x": 3.6611892443,
				"y": 0.7907741454,
				"z": -1.3405908013,
				"element": "H" 
			},
			{
				"x": 3.3607052201,
				"y": 2.0166732829,
				"z": 0.813833072,
				"element": "H" 
			},
			{
				"x": 1.0919423244,
				"y": 2.2704460136,
				"z": 1.7971401706,
				"element": "H" 
			},
			{
				"x": -0.8824225497,
				"y": 1.3121249073,
				"z": 0.6510784577,
				"element": "H" 
			}
		],
		 "valence_orbital": [ 
			{
				"type": "occ",
				"energy": -0.30975,
				"method": "rhf"
			},
			{
				"type": "occ",
				"energy": -0.30765,
				"method": "rhf"
			},
			{
				"type": "occ",
				"energy": -0.26998,
				"method": "rhf"
			},
			{
				"type": "occ",
				"energy": -0.24761,
				"method": "rhf"
			},
			{
				"type": "occ",
				"energy": -0.23722,
				"method": "rhf"
			},
			{
				"type": "unocc",
				"energy": -0.05749,
				"method": "rhf"
			},
			{
				"type": "unocc",
				"energy": -0.02326,
				"method": "rhf"
			},
			{
				"type": "unocc",
				"energy": 0.01414,
				"method": "rhf"
			},
			{
				"type": "unocc",
				"energy": 0.0366,
				"method": "rhf"
			},
			{
				"type": "unocc",
				"energy": 0.07859,
				"method": "rhf"
			}
		],
		"cosmo_sigma_profile": { 
			"-0.025": 0.0,
			"-0.024": 0.0,
			"-0.023": 0.0,
			"-0.022": 0.0,
			"-0.021": 0.0,
			"-0.02": 0.0,
			"-0.019": 0.0,
			"-0.018": 0.0,
			"-0.017": 0.0,
			"-0.016": 0.0,
			"-0.015": 0.0,
			"-0.014": 0.0,
			"-0.013": 0.0,
			"-0.012": 0.0,
			"-0.011": 0.0,
			"-0.01": 0.0,
			"-0.009": 0.0,
			"-0.008": 0.543004371634,
			"-0.007": 6.09585402423,
			"-0.006": 11.0400085068,
			"-0.005": 13.57608433,
			"-0.004": 14.2046176652,
			"-0.003": 14.434382612,
			"-0.002": 13.9275331278,
			"-0.001": 19.9460252624,
			"0.0": 19.5019963419,
			"0.001": 17.9096457653,
			"0.002": 20.0688926767,
			"0.003": 18.5910780692,
			"0.004": 16.8802098198,
			"0.005": 6.92865234299,
			"0.006": 3.25304750432,
			"0.007": 2.43612225989,
			"0.008": 1.41827487337,
			"0.009": 0.84695118656,
			"0.01": 1.42832945455,
			"0.011": 1.16154117008,
			"0.012": 0.593459417759,
			"0.013": 1.01457316916,
			"0.014": 0.609559986448,
			"0.015": 0.0760342429312,
			"0.016": 0.0,
			"0.017": 0.0,
			"0.018": 0.0,
			"0.019": 0.0,
			"0.02": 0.0,
			"0.021": 0.0,
			"0.022": 0.0,
			"0.023": 0.0,
			"0.024": 0.0,
			"0.025": 0.0
		}
	}
}
