{
	 "smiles": "ClC1=NC=C(C=C1)S(=O)(=O)NC1CCCC1", 
	 "Tm": 371.15, 
	 "num_atms": 29, 
	 "gaussian": { 
		 "optdone": 1, 
		 "sigma_profile": "yes", 
		 "theory": "DFT", 
		 "functional": "B3LYP", 
		 "basiset": "6-31G**", 
		 "properties": { 
			 "R2extent": 6105.3095, 
			 "electric_dipole_moment_norm": 2.96765274417, 
			 "electric_quadrupole_moment_norm": 17.8915794043, 
			 "total_energy": -1507.15348828, 
			 "HOMO_LUMO_gap": 0.20441, 
			 "cosmo_polarized_energy": -14.31, 
			 "cosmo_cavitation_energy": 34.46, 
			 "cosmo_dispersion_energy": -25.54, 
			 "cosmo_repulsion_energy": 1.94, 
			 "cosmo_total_nonelectrostatic_energy": 10.87, 
			 "SMD_solvation_energy": 2.56 
		},
		"coords": [
			{
				"x": -2.7901907858,
				"y": 3.7845736655,
				"z": -3.6779006185,
				"element": "Cl" 
			},
			{
				"x": -2.0608744577,
				"y": 2.5427873814,
				"z": -2.674092871,
				"element": "C" 
			},
			{
				"x": -0.9595779606,
				"y": 2.8818245216,
				"z": -2.0211274468,
				"element": "N" 
			},
			{
				"x": -0.3882956732,
				"y": 1.9503213344,
				"z": -1.251033308,
				"element": "C" 
			},
			{
				"x": -0.9137538435,
				"y": 0.664086947,
				"z": -1.1152500626,
				"element": "C" 
			},
			{
				"x": -2.0736952437,
				"y": 0.3213981441,
				"z": -1.8112429713,
				"element": "C" 
			},
			{
				"x": -2.6711639936,
				"y": 1.2861036036,
				"z": -2.6161093952,
				"element": "C" 
			},
			{
				"x": -0.0761218728,
				"y": -0.5759284931,
				"z": -0.1234672412,
				"element": "S" 
			},
			{
				"x": -0.9813282947,
				"y": -1.7320126012,
				"z": -0.0606500256,
				"element": "O" 
			},
			{
				"x": 1.296093941,
				"y": -0.727797582,
				"z": -0.6149616148,
				"element": "O" 
			},
			{
				"x": 0.0031744975,
				"y": 0.2004163574,
				"z": 1.3734010871,
				"element": "N" 
			},
			{
				"x": 1.162567973,
				"y": -0.0141442634,
				"z": 2.2846343587,
				"element": "C" 
			},
			{
				"x": 1.6463271805,
				"y": -1.4862176126,
				"z": 2.5099777348,
				"element": "C" 
			},
			{
				"x": 3.1482136364,
				"y": -1.4865717834,
				"z": 2.1573864437,
				"element": "C" 
			},
			{
				"x": 3.5925433166,
				"y": -0.0369211532,
				"z": 2.4238981418,
				"element": "C" 
			},
			{
				"x": 2.4193395215,
				"y": 0.7934624005,
				"z": 1.8792786121,
				"element": "C" 
			},
			{
				"x": 0.5105892157,
				"y": 2.2452602197,
				"z": -0.7169918001,
				"element": "H" 
			},
			{
				"x": -2.488484075,
				"y": -0.6761576634,
				"z": -1.7142619419,
				"element": "H" 
			},
			{
				"x": -3.5734790146,
				"y": 1.080362556,
				"z": -3.1789067651,
				"element": "H" 
			},
			{
				"x": -0.8847909383,
				"y": 0.038103105,
				"z": 1.8428854017,
				"element": "H" 
			},
			{
				"x": 0.78510551,
				"y": 0.3817697257,
				"z": 3.2330464342,
				"element": "H" 
			},
			{
				"x": 1.4998365566,
				"y": -1.7537527842,
				"z": 3.5625571609,
				"element": "H" 
			},
			{
				"x": 1.0729246777,
				"y": -2.2045696547,
				"z": 1.9191114505,
				"element": "H" 
			},
			{
				"x": 3.2742745285,
				"y": -1.7171916199,
				"z": 1.0946984043,
				"element": "H" 
			},
			{
				"x": 3.716934632,
				"y": -2.2245740349,
				"z": 2.7312592445,
				"element": "H" 
			},
			{
				"x": 4.5447045771,
				"y": 0.2167490549,
				"z": 1.9480942252,
				"element": "H" 
			},
			{
				"x": 3.711902583,
				"y": 0.1304137692,
				"z": 3.502830221,
				"element": "H" 
			},
			{
				"x": 2.385682309,
				"y": 1.8172103917,
				"z": 2.264329852,
				"element": "H" 
			},
			{
				"x": 2.4838414972,
				"y": 0.8418960684,
				"z": 0.7897072896,
				"element": "H" 
			}
		],
		 "valence_orbital": [ 
			{
				"type": "occ",
				"energy": -0.31615,
				"method": "rhf"
			},
			{
				"type": "occ",
				"energy": -0.30856,
				"method": "rhf"
			},
			{
				"type": "occ",
				"energy": -0.28841,
				"method": "rhf"
			},
			{
				"type": "occ",
				"energy": -0.28474,
				"method": "rhf"
			},
			{
				"type": "occ",
				"energy": -0.26448,
				"method": "rhf"
			},
			{
				"type": "unocc",
				"energy": -0.06007,
				"method": "rhf"
			},
			{
				"type": "unocc",
				"energy": -0.05281,
				"method": "rhf"
			},
			{
				"type": "unocc",
				"energy": 0.0221,
				"method": "rhf"
			},
			{
				"type": "unocc",
				"energy": 0.05391,
				"method": "rhf"
			},
			{
				"type": "unocc",
				"energy": 0.05508,
				"method": "rhf"
			}
		],
		"cosmo_sigma_profile": { 
			"-0.025": 0.0,
			"-0.024": 0.0,
			"-0.023": 0.0,
			"-0.022": 0.0,
			"-0.021": 0.0,
			"-0.02": 0.0,
			"-0.019": 0.0,
			"-0.018": 0.0,
			"-0.017": 0.0,
			"-0.016": 0.00654574444602,
			"-0.015": 0.813983780768,
			"-0.014": 1.20292457513,
			"-0.013": 1.35354634968,
			"-0.012": 1.39546963583,
			"-0.011": 1.33245254078,
			"-0.01": 1.07774208467,
			"-0.009": 4.03371325195,
			"-0.008": 6.08767597776,
			"-0.007": 5.64308558064,
			"-0.006": 6.67965846538,
			"-0.005": 8.03717968604,
			"-0.004": 11.7152076227,
			"-0.003": 23.0729472109,
			"-0.002": 32.2000197202,
			"-0.001": 34.9413179559,
			"0.0": 29.1894791314,
			"0.001": 23.8202389304,
			"0.002": 13.7064875799,
			"0.003": 13.3332475489,
			"0.004": 10.9905057111,
			"0.005": 6.88958292733,
			"0.006": 5.24457683701,
			"0.007": 5.6355320961,
			"0.008": 4.49826239287,
			"0.009": 4.70404956432,
			"0.01": 7.41860375279,
			"0.011": 7.26724269721,
			"0.012": 1.91872440848,
			"0.013": 0.691936457594,
			"0.014": 0.129612702822,
			"0.015": 0.0,
			"0.016": 0.0,
			"0.017": 0.0,
			"0.018": 0.0,
			"0.019": 0.0,
			"0.02": 0.0,
			"0.021": 0.0,
			"0.022": 0.0,
			"0.023": 0.0,
			"0.024": 0.0,
			"0.025": 0.0
		}
	}
}
