{
	 "smiles": "CC1=CC(Br)=CC(C)=C1I", 
	 "Tm": 316.15, 
	 "num_atms": 18, 
	 "gaussian": { 
		 "optdone": 1, 
		 "sigma_profile": "no", 
		 "theory": "DFT", 
		 "functional": "B3LYP", 
		 "basiset": "6-31G**", 
		 "properties": { 
			 "R2extent": 3713.531, 
			 "electric_dipole_moment_norm": 0.547251797622, 
			 "electric_quadrupole_moment_norm": 7.51750473828, 
			 "total_energy": -2892.47587057, 
			 "HOMO_LUMO_gap": 0.19632, 
			 "cosmo_polarized_energy": -74742.73, 
			 "cosmo_cavitation_energy": 26.36, 
			 "cosmo_dispersion_energy": -21.01, 
			 "cosmo_repulsion_energy": 1.65, 
			 "cosmo_total_nonelectrostatic_energy": 6.99, 
			 "SMD_solvation_energy": 2.63 
		},
		"coords": [
			{
				"x": -1.5077296189,
				"y": -0.9381772054,
				"z": -0.6690595891,
				"element": "C" 
			},
			{
				"x": -0.3022736198,
				"y": -0.4593843211,
				"z": 0.10125195,
				"element": "C" 
			},
			{
				"x": 0.3026409801,
				"y": -1.3277610918,
				"z": 1.0205973585,
				"element": "C" 
			},
			{
				"x": 1.4141798334,
				"y": -0.9195412121,
				"z": 1.7468975389,
				"element": "C" 
			},
			{
				"x": 2.2165568573,
				"y": -2.1255923953,
				"z": 2.9927010397,
				"element": "Br" 
			},
			{
				"x": 1.9521269792,
				"y": 0.350659169,
				"z": 1.5828547577,
				"element": "C" 
			},
			{
				"x": 1.3794277443,
				"y": 1.2518270144,
				"z": 0.6744808653,
				"element": "C" 
			},
			{
				"x": 1.9913671324,
				"y": 2.6224280748,
				"z": 0.5236649001,
				"element": "C" 
			},
			{
				"x": 0.2546463669,
				"y": 0.8228635664,
				"z": -0.0527850749,
				"element": "C" 
			},
			{
				"x": -0.6419520697,
				"y": 2.1701024037,
				"z": -1.4444375054,
				"element": "I" 
			},
			{
				"x": -2.379996792,
				"y": -0.3038495529,
				"z": -0.4792937791,
				"element": "H" 
			},
			{
				"x": -1.3263281891,
				"y": -0.914302997,
				"z": -1.7487646662,
				"element": "H" 
			},
			{
				"x": -1.7616926708,
				"y": -1.9627049055,
				"z": -0.38719017,
				"element": "H" 
			},
			{
				"x": -0.1034588482,
				"y": -2.3229997883,
				"z": 1.1618678752,
				"element": "H" 
			},
			{
				"x": 2.8201039768,
				"y": 0.6518577536,
				"z": 2.1584342962,
				"element": "H" 
			},
			{
				"x": 1.2698386326,
				"y": 3.4100368957,
				"z": 0.7651398121,
				"element": "H" 
			},
			{
				"x": 2.8534173081,
				"y": 2.7332203917,
				"z": 1.1856270518,
				"element": "H" 
			},
			{
				"x": 2.3233259972,
				"y": 2.8000181999,
				"z": -0.5046866607,
				"element": "H" 
			}
		],
		 "valence_orbital": [ 
			{
				"type": "occ",
				"energy": -0.29025,
				"method": "rhf"
			},
			{
				"type": "occ",
				"energy": -0.28114,
				"method": "rhf"
			},
			{
				"type": "occ",
				"energy": -0.2687,
				"method": "rhf"
			},
			{
				"type": "occ",
				"energy": -0.25801,
				"method": "rhf"
			},
			{
				"type": "occ",
				"energy": -0.23546,
				"method": "rhf"
			},
			{
				"type": "unocc",
				"energy": -0.03914,
				"method": "rhf"
			},
			{
				"type": "unocc",
				"energy": -0.02523,
				"method": "rhf"
			},
			{
				"type": "unocc",
				"energy": -0.01663,
				"method": "rhf"
			},
			{
				"type": "unocc",
				"energy": 0.00435,
				"method": "rhf"
			},
			{
				"type": "unocc",
				"energy": 0.03609,
				"method": "rhf"
			}
		],
		"cosmo_sigma_profile": { 
			"0.0": 0.0,
			"0.0": 0.0,
			"0.0": 0.0,
			"0.0": 0.0,
			"0.0": 0.0,
			"0.0": 0.0,
			"0.0": 0.0,
			"0.0": 0.0,
			"0.0": 0.0,
			"0.0": 0.0,
			"0.0": 0.0,
			"0.0": 0.0,
			"0.0": 0.0,
			"0.0": 0.0,
			"0.0": 0.0,
			"0.0": 0.0,
			"0.0": 0.0,
			"0.0": 0.0,
			"0.0": 0.0,
			"0.0": 0.0,
			"0.0": 0.0,
			"0.0": 0.0,
			"0.0": 0.0,
			"0.0": 0.0,
			"0.0": 0.0,
			"0.0": 0.0,
			"0.0": 0.0,
			"0.0": 0.0,
			"0.0": 0.0,
			"0.0": 0.0,
			"0.0": 0.0,
			"0.0": 0.0,
			"0.0": 0.0,
			"0.0": 0.0,
			"0.0": 0.0,
			"0.0": 0.0,
			"0.0": 0.0,
			"0.0": 0.0,
			"0.0": 0.0,
			"0.0": 0.0,
			"0.0": 0.0,
			"0.0": 0.0,
			"0.0": 0.0,
			"0.0": 0.0,
			"0.0": 0.0,
			"0.0": 0.0,
			"0.0": 0.0,
			"0.0": 0.0,
			"0.0": 0.0,
			"0.0": 0.0,
			"0.0": 0.0
		}
	}
}
