{
	 "smiles": "CC(C)C(=O)C1=CC=CC=C1", 
	 "Tm": 273.0, 
	 "num_atms": 23, 
	 "gaussian": { 
		 "optdone": 1, 
		 "sigma_profile": "yes", 
		 "theory": "DFT", 
		 "functional": "B3LYP", 
		 "basiset": "6-31G**", 
		 "properties": { 
			 "R2extent": 2170.7342, 
			 "electric_dipole_moment_norm": 2.82067741686, 
			 "electric_quadrupole_moment_norm": 10.5539155274, 
			 "total_energy": -463.525547989, 
			 "HOMO_LUMO_gap": 0.18701, 
			 "cosmo_polarized_energy": -7.39, 
			 "cosmo_cavitation_energy": 25.49, 
			 "cosmo_dispersion_energy": -18.51, 
			 "cosmo_repulsion_energy": 1.49, 
			 "cosmo_total_nonelectrostatic_energy": 8.47, 
			 "SMD_solvation_energy": 5.1 
		},
		"coords": [
			{
				"x": -1.2681706448,
				"y": -1.6227805999,
				"z": -0.1949895102,
				"element": "C" 
			},
			{
				"x": -0.0561061236,
				"y": -1.5935311293,
				"z": -1.1469987364,
				"element": "C" 
			},
			{
				"x": 1.136300784,
				"y": -2.4189303078,
				"z": -0.6243889019,
				"element": "C" 
			},
			{
				"x": 0.3340202123,
				"y": -0.1740770891,
				"z": -1.5939987306,
				"element": "C" 
			},
			{
				"x": 0.2156683464,
				"y": 0.1097237514,
				"z": -2.7790332059,
				"element": "O" 
			},
			{
				"x": 0.851409863,
				"y": 0.8718607684,
				"z": -0.6407640704,
				"element": "C" 
			},
			{
				"x": 1.0332576612,
				"y": 0.6768639338,
				"z": 0.7378899789,
				"element": "C" 
			},
			{
				"x": 1.5192172922,
				"y": 1.7074435222,
				"z": 1.5435285262,
				"element": "C" 
			},
			{
				"x": 1.8306874937,
				"y": 2.9474088416,
				"z": 0.9848663414,
				"element": "C" 
			},
			{
				"x": 1.6542011824,
				"y": 3.1547773341,
				"z": -0.3864879626,
				"element": "C" 
			},
			{
				"x": 1.1697952535,
				"y": 2.1271518198,
				"z": -1.1888072775,
				"element": "C" 
			},
			{
				"x": -2.1047009035,
				"y": -1.0489414414,
				"z": -0.6062520248,
				"element": "H" 
			},
			{
				"x": -1.0441363794,
				"y": -1.2212442113,
				"z": 0.7966149997,
				"element": "H" 
			},
			{
				"x": -1.6062288205,
				"y": -2.6563009927,
				"z": -0.0640464095,
				"element": "H" 
			},
			{
				"x": -0.3759438731,
				"y": -2.051156676,
				"z": -2.0892394616,
				"element": "H" 
			},
			{
				"x": 1.9699377707,
				"y": -2.3973536833,
				"z": -1.3334748919,
				"element": "H" 
			},
			{
				"x": 0.8321770952,
				"y": -3.4637766562,
				"z": -0.500273563,
				"element": "H" 
			},
			{
				"x": 1.5105428069,
				"y": -2.0678278818,
				"z": 0.3406924635,
				"element": "H" 
			},
			{
				"x": 0.799341395,
				"y": -0.2752554494,
				"z": 1.1963760794,
				"element": "H" 
			},
			{
				"x": 1.654057707,
				"y": 1.5399509513,
				"z": 2.6081784883,
				"element": "H" 
			},
			{
				"x": 2.2089139842,
				"y": 3.7483327345,
				"z": 1.6139162584,
				"element": "H" 
			},
			{
				"x": 1.895051119,
				"y": 4.1181516671,
				"z": -0.8267554201,
				"element": "H" 
			},
			{
				"x": 1.0251067783,
				"y": 2.265610794,
				"z": -2.2546529695,
				"element": "H" 
			}
		],
		 "valence_orbital": [ 
			{
				"type": "occ",
				"energy": -0.3387,
				"method": "rhf"
			},
			{
				"type": "occ",
				"energy": -0.3263,
				"method": "rhf"
			},
			{
				"type": "occ",
				"energy": -0.25945,
				"method": "rhf"
			},
			{
				"type": "occ",
				"energy": -0.25583,
				"method": "rhf"
			},
			{
				"type": "occ",
				"energy": -0.24092,
				"method": "rhf"
			},
			{
				"type": "unocc",
				"energy": -0.05391,
				"method": "rhf"
			},
			{
				"type": "unocc",
				"energy": -0.00838,
				"method": "rhf"
			},
			{
				"type": "unocc",
				"energy": 0.04106,
				"method": "rhf"
			},
			{
				"type": "unocc",
				"energy": 0.07878,
				"method": "rhf"
			},
			{
				"type": "unocc",
				"energy": 0.10275,
				"method": "rhf"
			}
		],
		"cosmo_sigma_profile": { 
			"-0.025": 0.0,
			"-0.024": 0.0,
			"-0.023": 0.0,
			"-0.022": 0.0,
			"-0.021": 0.0,
			"-0.02": 0.0,
			"-0.019": 0.0,
			"-0.018": 0.0,
			"-0.017": 0.0,
			"-0.016": 0.0,
			"-0.015": 0.0,
			"-0.014": 0.0,
			"-0.013": 0.0,
			"-0.012": 0.0,
			"-0.011": 0.0,
			"-0.01": 0.0,
			"-0.009": 0.0,
			"-0.008": 0.0211734651539,
			"-0.007": 2.66584850666,
			"-0.006": 8.68351772119,
			"-0.005": 10.2710781495,
			"-0.004": 18.1290653185,
			"-0.003": 21.2826179869,
			"-0.002": 22.3161061149,
			"-0.001": 20.5959639621,
			"0.0": 23.5609085374,
			"0.001": 16.4983764651,
			"0.002": 10.3474449189,
			"0.003": 11.4474957175,
			"0.004": 13.5877367746,
			"0.005": 5.0859123055,
			"0.006": 1.76580099794,
			"0.007": 1.70658552409,
			"0.008": 1.90837228414,
			"0.009": 1.10693687649,
			"0.01": 2.12791555595,
			"0.011": 2.77248514038,
			"0.012": 3.8164842611,
			"0.013": 1.77199530061,
			"0.014": 0.254731625483,
			"0.015": 0.0,
			"0.016": 0.0,
			"0.017": 0.0,
			"0.018": 0.0,
			"0.019": 0.0,
			"0.02": 0.0,
			"0.021": 0.0,
			"0.022": 0.0,
			"0.023": 0.0,
			"0.024": 0.0,
			"0.025": 0.0
		}
	}
}
