{
	 "smiles": "CS(=O)(=O)C1=C(Cl)C=CC(=C1)C(O)=O", 
	 "Tm": 490.15, 
	 "num_atms": 21, 
	 "gaussian": { 
		 "optdone": 1, 
		 "sigma_profile": "yes", 
		 "theory": "DFT", 
		 "functional": "B3LYP", 
		 "basiset": "6-31G**", 
		 "properties": { 
			 "R2extent": 3861.5702, 
			 "electric_dipole_moment_norm": 3.82057521324, 
			 "electric_quadrupole_moment_norm": 17.0961528974, 
			 "total_energy": -1468.29117886, 
			 "HOMO_LUMO_gap": 0.20091, 
			 "cosmo_polarized_energy": -18.41, 
			 "cosmo_cavitation_energy": 28.84, 
			 "cosmo_dispersion_energy": -21.54, 
			 "cosmo_repulsion_energy": 1.64, 
			 "cosmo_total_nonelectrostatic_energy": 8.93, 
			 "SMD_solvation_energy": 5.85 
		},
		"coords": [
			{
				"x": -2.3482351065,
				"y": 2.3504577226,
				"z": -0.7651453998,
				"element": "C" 
			},
			{
				"x": -2.3733279874,
				"y": 0.6379921194,
				"z": -0.1937273992,
				"element": "S" 
			},
			{
				"x": -2.8010160743,
				"y": -0.2236155335,
				"z": -1.3009205455,
				"element": "O" 
			},
			{
				"x": -3.0932961628,
				"y": 0.618959056,
				"z": 1.0884752803,
				"element": "O" 
			},
			{
				"x": -0.6330410095,
				"y": 0.2715868597,
				"z": 0.2021440906,
				"element": "C" 
			},
			{
				"x": 0.3986537502,
				"y": 0.1750453349,
				"z": -0.7446378682,
				"element": "C" 
			},
			{
				"x": 0.1411210675,
				"y": 0.4821154999,
				"z": -2.4470613961,
				"element": "Cl" 
			},
			{
				"x": 1.6928175852,
				"y": -0.1662751314,
				"z": -0.341181188,
				"element": "C" 
			},
			{
				"x": 1.9573448254,
				"y": -0.418843446,
				"z": 0.9996035901,
				"element": "C" 
			},
			{
				"x": 0.9347311506,
				"y": -0.3295448635,
				"z": 1.9508241578,
				"element": "C" 
			},
			{
				"x": -0.3580708936,
				"y": 0.01578469,
				"z": 1.5464664037,
				"element": "C" 
			},
			{
				"x": 1.2742607914,
				"y": -0.6105260801,
				"z": 3.3736879965,
				"element": "C" 
			},
			{
				"x": 0.2113710945,
				"y": -0.4932302291,
				"z": 4.2006454621,
				"element": "O" 
			},
			{
				"x": 2.3833156076,
				"y": -0.9126512408,
				"z": 3.7652614541,
				"element": "O" 
			},
			{
				"x": -1.9784260568,
				"y": 2.9842865375,
				"z": 0.0418928689,
				"element": "H" 
			},
			{
				"x": -1.7296732779,
				"y": 2.4319546739,
				"z": -1.6583941764,
				"element": "H" 
			},
			{
				"x": -3.386575594,
				"y": 2.5975427429,
				"z": -0.9963580819,
				"element": "H" 
			},
			{
				"x": 2.4789283261,
				"y": -0.2342275328,
				"z": -1.0846084276,
				"element": "H" 
			},
			{
				"x": 2.9553896439,
				"y": -0.6877898212,
				"z": 1.3283014123,
				"element": "H" 
			},
			{
				"x": -1.166672669,
				"y": 0.0848276052,
				"z": 2.2644622103,
				"element": "H" 
			},
			{
				"x": 0.5356009895,
				"y": -0.6992489637,
				"z": 5.0928695562,
				"element": "H" 
			}
		],
		 "valence_orbital": [ 
			{
				"type": "occ",
				"energy": -0.3059,
				"method": "rhf"
			},
			{
				"type": "occ",
				"energy": -0.30267,
				"method": "rhf"
			},
			{
				"type": "occ",
				"energy": -0.29413,
				"method": "rhf"
			},
			{
				"type": "occ",
				"energy": -0.28936,
				"method": "rhf"
			},
			{
				"type": "occ",
				"energy": -0.27804,
				"method": "rhf"
			},
			{
				"type": "unocc",
				"energy": -0.07713,
				"method": "rhf"
			},
			{
				"type": "unocc",
				"energy": -0.05159,
				"method": "rhf"
			},
			{
				"type": "unocc",
				"energy": -0.00048,
				"method": "rhf"
			},
			{
				"type": "unocc",
				"energy": 0.02047,
				"method": "rhf"
			},
			{
				"type": "unocc",
				"energy": 0.06688,
				"method": "rhf"
			}
		],
		"cosmo_sigma_profile": { 
			"-0.025": 0.0,
			"-0.024": 0.0,
			"-0.023": 0.0,
			"-0.022": 0.0,
			"-0.021": 0.0,
			"-0.02": 0.0,
			"-0.019": 0.408233529702,
			"-0.018": 0.977338504147,
			"-0.017": 0.929475469322,
			"-0.016": 0.47662677265,
			"-0.015": 0.972903204368,
			"-0.014": 1.15998350879,
			"-0.013": 0.289154431685,
			"-0.012": 0.613783534073,
			"-0.011": 0.781785776006,
			"-0.01": 1.21667863235,
			"-0.009": 5.44777432364,
			"-0.008": 8.56565551592,
			"-0.007": 10.1485276764,
			"-0.006": 9.26895170496,
			"-0.005": 12.6601762746,
			"-0.004": 12.2304883116,
			"-0.003": 15.2771652368,
			"-0.002": 19.3887015347,
			"-0.001": 24.9924259742,
			"0.0": 18.1066770765,
			"0.001": 10.1734612187,
			"0.002": 9.51882026846,
			"0.003": 9.14204441815,
			"0.004": 4.64799574419,
			"0.005": 6.15496781353,
			"0.006": 5.4998119765,
			"0.007": 5.65569495699,
			"0.008": 3.40402032936,
			"0.009": 6.64065359169,
			"0.01": 8.98399637987,
			"0.011": 15.0178815411,
			"0.012": 4.56196041605,
			"0.013": 0.0,
			"0.014": 0.0,
			"0.015": 0.0,
			"0.016": 0.0,
			"0.017": 0.0,
			"0.018": 0.0,
			"0.019": 0.0,
			"0.02": 0.0,
			"0.021": 0.0,
			"0.022": 0.0,
			"0.023": 0.0,
			"0.024": 0.0,
			"0.025": 0.0
		}
	}
}
