{
	 "smiles": "NC1=NC(=NS1)C1=CC(OC2=CC=CC=C2)=CC=C1", 
	 "Tm": 412.15, 
	 "num_atms": 30, 
	 "gaussian": { 
		 "optdone": 1, 
		 "sigma_profile": "yes", 
		 "theory": "DFT", 
		 "functional": "B3LYP", 
		 "basiset": "6-31G**", 
		 "properties": { 
			 "R2extent": 7751.6296, 
			 "electric_dipole_moment_norm": 3.93160699333, 
			 "electric_quadrupole_moment_norm": 23.6091626711, 
			 "total_energy": -1177.78029396, 
			 "HOMO_LUMO_gap": 0.17185, 
			 "cosmo_polarized_energy": -15.61, 
			 "cosmo_cavitation_energy": 36.98, 
			 "cosmo_dispersion_energy": -27.31, 
			 "cosmo_repulsion_energy": 2.07, 
			 "cosmo_total_nonelectrostatic_energy": 11.74, 
			 "SMD_solvation_energy": 3.69 
		},
		"coords": [
			{
				"x": -3.4484067539,
				"y": 3.7218502032,
				"z": 4.2415031745,
				"element": "N" 
			},
			{
				"x": -2.9394890731,
				"y": 2.814795127,
				"z": 3.3609594616,
				"element": "C" 
			},
			{
				"x": -1.692138519,
				"y": 2.7938928918,
				"z": 2.9697489332,
				"element": "N" 
			},
			{
				"x": -1.49874919,
				"y": 1.7197970782,
				"z": 2.1264741539,
				"element": "C" 
			},
			{
				"x": -2.5079359065,
				"y": 0.9217489957,
				"z": 1.8404352788,
				"element": "N" 
			},
			{
				"x": -3.8645008968,
				"y": 1.4833374172,
				"z": 2.6690137316,
				"element": "S" 
			},
			{
				"x": -0.1608035779,
				"y": 1.4783972383,
				"z": 1.5465522919,
				"element": "C" 
			},
			{
				"x": 0.034857394,
				"y": 0.4053312665,
				"z": 0.6644659373,
				"element": "C" 
			},
			{
				"x": 1.3005050566,
				"y": 0.1828501014,
				"z": 0.1252870285,
				"element": "C" 
			},
			{
				"x": 1.5562617601,
				"y": -0.8078017144,
				"z": -0.8017985037,
				"element": "O" 
			},
			{
				"x": 0.936080051,
				"y": -2.0404154052,
				"z": -0.7218950027,
				"element": "C" 
			},
			{
				"x": 0.5962174169,
				"y": -2.6467805073,
				"z": -1.9331553462,
				"element": "C" 
			},
			{
				"x": 0.043371952,
				"y": -3.9270389773,
				"z": -1.9300283899,
				"element": "C" 
			},
			{
				"x": -0.1775554927,
				"y": -4.5989079654,
				"z": -0.7257669009,
				"element": "C" 
			},
			{
				"x": 0.1671522467,
				"y": -3.9823797732,
				"z": 0.4789016344,
				"element": "C" 
			},
			{
				"x": 0.7294978643,
				"y": -2.7054598551,
				"z": 0.4905145833,
				"element": "C" 
			},
			{
				"x": 2.3719910439,
				"y": 1.0240497233,
				"z": 0.4431522808,
				"element": "C" 
			},
			{
				"x": 2.1664671913,
				"y": 2.0934453855,
				"z": 1.3125104866,
				"element": "C" 
			},
			{
				"x": 0.9094343733,
				"y": 2.3244952228,
				"z": 1.8702814646,
				"element": "C" 
			},
			{
				"x": -4.4430317115,
				"y": 3.8854015516,
				"z": 4.2536196095,
				"element": "H" 
			},
			{
				"x": -2.8664006296,
				"y": 4.5301952233,
				"z": 4.4108080748,
				"element": "H" 
			},
			{
				"x": -0.7997133256,
				"y": -0.2372859114,
				"z": 0.4110143723,
				"element": "H" 
			},
			{
				"x": 0.7742348337,
				"y": -2.1063976889,
				"z": -2.8570199924,
				"element": "H" 
			},
			{
				"x": -0.2200472383,
				"y": -4.3969886834,
				"z": -2.8732786409,
				"element": "H" 
			},
			{
				"x": -0.6131787275,
				"y": -5.5933631932,
				"z": -0.7256787915,
				"element": "H" 
			},
			{
				"x": 0.0047661207,
				"y": -4.4988472706,
				"z": 1.4206685855,
				"element": "H" 
			},
			{
				"x": 1.0051032217,
				"y": -2.2294300407,
				"z": 1.4251479252,
				"element": "H" 
			},
			{
				"x": 3.3427087263,
				"y": 0.8266739317,
				"z": 0.0006449929,
				"element": "H" 
			},
			{
				"x": 2.99639516,
				"y": 2.7484713936,
				"z": 1.5609856414,
				"element": "H" 
			},
			{
				"x": 0.7426066298,
				"y": 3.149964235,
				"z": 2.5518319258,
				"element": "H" 
			}
		],
		 "valence_orbital": [ 
			{
				"type": "occ",
				"energy": -0.25846,
				"method": "rhf"
			},
			{
				"type": "occ",
				"energy": -0.24949,
				"method": "rhf"
			},
			{
				"type": "occ",
				"energy": -0.24488,
				"method": "rhf"
			},
			{
				"type": "occ",
				"energy": -0.22347,
				"method": "rhf"
			},
			{
				"type": "occ",
				"energy": -0.21237,
				"method": "rhf"
			},
			{
				"type": "unocc",
				"energy": -0.04052,
				"method": "rhf"
			},
			{
				"type": "unocc",
				"energy": -0.00575,
				"method": "rhf"
			},
			{
				"type": "unocc",
				"energy": -0.00177,
				"method": "rhf"
			},
			{
				"type": "unocc",
				"energy": 0.00121,
				"method": "rhf"
			},
			{
				"type": "unocc",
				"energy": 0.01044,
				"method": "rhf"
			}
		],
		"cosmo_sigma_profile": { 
			"-0.025": 0.0,
			"-0.024": 0.0,
			"-0.023": 0.0,
			"-0.022": 0.0,
			"-0.021": 0.0,
			"-0.02": 0.0,
			"-0.019": 0.0,
			"-0.018": 0.0,
			"-0.017": 0.0,
			"-0.016": 0.765980034573,
			"-0.015": 2.35021458054,
			"-0.014": 2.88766196032,
			"-0.013": 2.4314315908,
			"-0.012": 3.19360153687,
			"-0.011": 2.01626230956,
			"-0.01": 2.9627007787,
			"-0.009": 1.29300943933,
			"-0.008": 1.32993290605,
			"-0.007": 3.11634825138,
			"-0.006": 12.7633020632,
			"-0.005": 17.1648236686,
			"-0.004": 17.7834662731,
			"-0.003": 17.6219339711,
			"-0.002": 16.1046440843,
			"-0.001": 19.7010964344,
			"0.0": 21.2926161941,
			"0.001": 24.2884576837,
			"0.002": 25.9385324287,
			"0.003": 33.2907643591,
			"0.004": 26.7017370152,
			"0.005": 17.3225182463,
			"0.006": 8.9822147969,
			"0.007": 4.28853738862,
			"0.008": 3.65676825769,
			"0.009": 4.6958512663,
			"0.01": 2.46400945267,
			"0.011": 2.00828418646,
			"0.012": 1.07935341859,
			"0.013": 0.236925792716,
			"0.014": 0.0,
			"0.015": 0.0,
			"0.016": 0.0,
			"0.017": 0.0,
			"0.018": 0.0,
			"0.019": 0.0,
			"0.02": 0.0,
			"0.021": 0.0,
			"0.022": 0.0,
			"0.023": 0.0,
			"0.024": 0.0,
			"0.025": 0.0
		}
	}
}
