{
	 "smiles": "CC1(C)CCCCC1", 
	 "Tm": 240.05, 
	 "num_atms": 24, 
	 "gaussian": { 
		 "optdone": 1, 
		 "sigma_profile": "yes", 
		 "theory": "DFT", 
		 "functional": "B3LYP", 
		 "basiset": "6-31G**", 
		 "properties": { 
			 "R2extent": 1468.8546, 
			 "electric_dipole_moment_norm": 0.0828783445781, 
			 "electric_quadrupole_moment_norm": 0.460164611851, 
			 "total_energy": -314.5234857, 
			 "HOMO_LUMO_gap": 0.36181, 
			 "cosmo_polarized_energy": -0.59, 
			 "cosmo_cavitation_energy": 22.91, 
			 "cosmo_dispersion_energy": -17.09, 
			 "cosmo_repulsion_energy": 1.4, 
			 "cosmo_total_nonelectrostatic_energy": 7.22, 
			 "SMD_solvation_energy": 3.28 
		},
		"coords": [
			{
				"x": 1.0179600338,
				"y": -1.5670344402,
				"z": 2.6360052248,
				"element": "C" 
			},
			{
				"x": 0.8916865324,
				"y": -0.6835626941,
				"z": 1.3818124556,
				"element": "C" 
			},
			{
				"x": -0.2957786636,
				"y": 0.2799442259,
				"z": 1.5853721782,
				"element": "C" 
			},
			{
				"x": 0.6581445179,
				"y": -1.5889106351,
				"z": 0.1447903076,
				"element": "C" 
			},
			{
				"x": 0.729623587,
				"y": -0.8426249353,
				"z": -1.1973486094,
				"element": "C" 
			},
			{
				"x": 2.0552397564,
				"y": -0.080874558,
				"z": -1.3442891105,
				"element": "C" 
			},
			{
				"x": 2.2913853814,
				"y": 0.8609863357,
				"z": -0.1542410019,
				"element": "C" 
			},
			{
				"x": 2.2113272129,
				"y": 0.105884984,
				"z": 1.1824727287,
				"element": "C" 
			},
			{
				"x": 0.1040685559,
				"y": -2.1491171794,
				"z": 2.8033495486,
				"element": "H" 
			},
			{
				"x": 1.8511883802,
				"y": -2.272922409,
				"z": 2.5419298772,
				"element": "H" 
			},
			{
				"x": 1.1940789127,
				"y": -0.9595501688,
				"z": 3.5315377136,
				"element": "H" 
			},
			{
				"x": -0.1358764548,
				"y": 0.9096629895,
				"z": 2.4682522837,
				"element": "H" 
			},
			{
				"x": -1.2256037214,
				"y": -0.2794894621,
				"z": 1.7404527509,
				"element": "H" 
			},
			{
				"x": -0.4520429024,
				"y": 0.9454993222,
				"z": 0.7318096699,
				"element": "H" 
			},
			{
				"x": 1.4249020395,
				"y": -2.3772521614,
				"z": 0.1454591811,
				"element": "H" 
			},
			{
				"x": -0.3083988785,
				"y": -2.1007087473,
				"z": 0.2433460938,
				"element": "H" 
			},
			{
				"x": -0.1073086185,
				"y": -0.1366488342,
				"z": -1.2803502391,
				"element": "H" 
			},
			{
				"x": 0.6087508116,
				"y": -1.5560611042,
				"z": -2.0216997982,
				"element": "H" 
			},
			{
				"x": 2.0713226788,
				"y": 0.4810279935,
				"z": -2.2860661953,
				"element": "H" 
			},
			{
				"x": 2.8812364409,
				"y": -0.8049064308,
				"z": -1.3985876893,
				"element": "H" 
			},
			{
				"x": 1.547430452,
				"y": 1.6683558812,
				"z": -0.1755083702,
				"element": "H" 
			},
			{
				"x": 3.2705527223,
				"y": 1.3471564357,
				"z": -0.2438388653,
				"element": "H" 
			},
			{
				"x": 2.3513493976,
				"y": 0.8017866871,
				"z": 2.0203058091,
				"element": "H" 
			},
			{
				"x": 3.0485618261,
				"y": -0.6055410949,
				"z": 1.2305340562,
				"element": "H" 
			}
		],
		 "valence_orbital": [ 
			{
				"type": "occ",
				"energy": -0.32793,
				"method": "rhf"
			},
			{
				"type": "occ",
				"energy": -0.32598,
				"method": "rhf"
			},
			{
				"type": "occ",
				"energy": -0.30162,
				"method": "rhf"
			},
			{
				"type": "occ",
				"energy": -0.28955,
				"method": "rhf"
			},
			{
				"type": "occ",
				"energy": -0.28461,
				"method": "rhf"
			},
			{
				"type": "unocc",
				"energy": 0.0772,
				"method": "rhf"
			},
			{
				"type": "unocc",
				"energy": 0.10956,
				"method": "rhf"
			},
			{
				"type": "unocc",
				"energy": 0.11603,
				"method": "rhf"
			},
			{
				"type": "unocc",
				"energy": 0.13739,
				"method": "rhf"
			},
			{
				"type": "unocc",
				"energy": 0.13873,
				"method": "rhf"
			}
		],
		"cosmo_sigma_profile": { 
			"-0.025": 0.0,
			"-0.024": 0.0,
			"-0.023": 0.0,
			"-0.022": 0.0,
			"-0.021": 0.0,
			"-0.02": 0.0,
			"-0.019": 0.0,
			"-0.018": 0.0,
			"-0.017": 0.0,
			"-0.016": 0.0,
			"-0.015": 0.0,
			"-0.014": 0.0,
			"-0.013": 0.0,
			"-0.012": 0.0,
			"-0.011": 0.0,
			"-0.01": 0.0,
			"-0.009": 0.0,
			"-0.008": 0.0,
			"-0.007": 0.0,
			"-0.006": 0.0,
			"-0.005": 0.0,
			"-0.004": 0.0,
			"-0.003": 1.73474738848,
			"-0.002": 23.9707097043,
			"-0.001": 43.8124515134,
			"0.0": 37.991613828,
			"0.001": 38.1706713743,
			"0.002": 27.0620699319,
			"0.003": 1.83711168261,
			"0.004": 0.0,
			"0.005": 0.0,
			"0.006": 0.0,
			"0.007": 0.0,
			"0.008": 0.0,
			"0.009": 0.0,
			"0.01": 0.0,
			"0.011": 0.0,
			"0.012": 0.0,
			"0.013": 0.0,
			"0.014": 0.0,
			"0.015": 0.0,
			"0.016": 0.0,
			"0.017": 0.0,
			"0.018": 0.0,
			"0.019": 0.0,
			"0.02": 0.0,
			"0.021": 0.0,
			"0.022": 0.0,
			"0.023": 0.0,
			"0.024": 0.0,
			"0.025": 0.0
		}
	}
}
