{
	 "smiles": "ClCC1=CC=C(Cl)C=C1", 
	 "Tm": 302.65, 
	 "num_atms": 15, 
	 "gaussian": { 
		 "optdone": 1, 
		 "sigma_profile": "yes", 
		 "theory": "DFT", 
		 "functional": "B3LYP", 
		 "basiset": "6-31G**", 
		 "properties": { 
			 "R2extent": 3454.9224, 
			 "electric_dipole_moment_norm": 1.96541474758, 
			 "electric_quadrupole_moment_norm": 11.1242589218, 
			 "total_energy": -1190.75223972, 
			 "HOMO_LUMO_gap": 0.21253, 
			 "cosmo_polarized_energy": -6.67, 
			 "cosmo_cavitation_energy": 22.68, 
			 "cosmo_dispersion_energy": -16.87, 
			 "cosmo_repulsion_energy": 1.4, 
			 "cosmo_total_nonelectrostatic_energy": 7.21, 
			 "SMD_solvation_energy": 3.24 
		},
		"coords": [
			{
				"x": 2.2908475969,
				"y": 3.0389073466,
				"z": 0.3538180066,
				"element": "Cl" 
			},
			{
				"x": 1.0870473812,
				"y": 3.0676953754,
				"z": 1.7421737093,
				"element": "C" 
			},
			{
				"x": 0.469710445,
				"y": 1.7249227916,
				"z": 1.9908783797,
				"element": "C" 
			},
			{
				"x": 1.0619603258,
				"y": 0.8215028882,
				"z": 2.8825418772,
				"element": "C" 
			},
			{
				"x": 0.4930890911,
				"y": -0.4277576857,
				"z": 3.1225515796,
				"element": "C" 
			},
			{
				"x": -0.6833318497,
				"y": -0.7746047832,
				"z": 2.458206184,
				"element": "C" 
			},
			{
				"x": -1.4120236672,
				"y": -2.3446133984,
				"z": 2.7568214102,
				"element": "Cl" 
			},
			{
				"x": -1.2932914366,
				"y": 0.1048537217,
				"z": 1.5637171552,
				"element": "C" 
			},
			{
				"x": -0.7103272588,
				"y": 1.3499098342,
				"z": 1.3359949348,
				"element": "C" 
			},
			{
				"x": 0.3435042566,
				"y": 3.8141615079,
				"z": 1.4627090353,
				"element": "H" 
			},
			{
				"x": 1.6507057179,
				"y": 3.424627284,
				"z": 2.6041814174,
				"element": "H" 
			},
			{
				"x": 1.9802968123,
				"y": 1.0949362692,
				"z": 3.3951077424,
				"element": "H" 
			},
			{
				"x": 0.9520452317,
				"y": -1.1238008726,
				"z": 3.8156674412,
				"element": "H" 
			},
			{
				"x": -2.2084449985,
				"y": -0.1814973585,
				"z": 1.0577299342,
				"element": "H" 
			},
			{
				"x": -1.1798876478,
				"y": 2.0371570798,
				"z": 0.6374011929,
				"element": "H" 
			}
		],
		 "valence_orbital": [ 
			{
				"type": "occ",
				"energy": -0.3185,
				"method": "rhf"
			},
			{
				"type": "occ",
				"energy": -0.29968,
				"method": "rhf"
			},
			{
				"type": "occ",
				"energy": -0.29796,
				"method": "rhf"
			},
			{
				"type": "occ",
				"energy": -0.27269,
				"method": "rhf"
			},
			{
				"type": "occ",
				"energy": -0.25233,
				"method": "rhf"
			},
			{
				"type": "unocc",
				"energy": -0.0398,
				"method": "rhf"
			},
			{
				"type": "unocc",
				"energy": -0.0234,
				"method": "rhf"
			},
			{
				"type": "unocc",
				"energy": 0.02287,
				"method": "rhf"
			},
			{
				"type": "unocc",
				"energy": 0.0347,
				"method": "rhf"
			},
			{
				"type": "unocc",
				"energy": 0.09361,
				"method": "rhf"
			}
		],
		"cosmo_sigma_profile": { 
			"-0.025": 0.0,
			"-0.024": 0.0,
			"-0.023": 0.0,
			"-0.022": 0.0,
			"-0.021": 0.0,
			"-0.02": 0.0,
			"-0.019": 0.0,
			"-0.018": 0.0,
			"-0.017": 0.0,
			"-0.016": 0.0,
			"-0.015": 0.0,
			"-0.014": 0.0,
			"-0.013": 0.0,
			"-0.012": 0.0,
			"-0.011": 0.0,
			"-0.01": 0.0,
			"-0.009": 0.0,
			"-0.008": 5.12618135381,
			"-0.007": 12.922577763,
			"-0.006": 12.7800029064,
			"-0.005": 9.95566807706,
			"-0.004": 10.1045594628,
			"-0.003": 8.06345541351,
			"-0.002": 7.53505148377,
			"-0.001": 8.96543874339,
			"0.0": 11.6703579993,
			"0.001": 15.4302801073,
			"0.002": 16.5608978505,
			"0.003": 22.1273036893,
			"0.004": 18.0861088241,
			"0.005": 10.9428302477,
			"0.006": 8.82246146715,
			"0.007": 6.9609303379,
			"0.008": 0.0,
			"0.009": 0.0,
			"0.01": 0.0,
			"0.011": 0.0,
			"0.012": 0.0,
			"0.013": 0.0,
			"0.014": 0.0,
			"0.015": 0.0,
			"0.016": 0.0,
			"0.017": 0.0,
			"0.018": 0.0,
			"0.019": 0.0,
			"0.02": 0.0,
			"0.021": 0.0,
			"0.022": 0.0,
			"0.023": 0.0,
			"0.024": 0.0,
			"0.025": 0.0
		}
	}
}
