{
	 "smiles": "O=C(NC1=NC=CS1)C1CCNCC1", 
	 "Tm": 470.15, 
	 "num_atms": 27, 
	 "gaussian": { 
		 "optdone": 1, 
		 "sigma_profile": "yes", 
		 "theory": "DFT", 
		 "functional": "B3LYP", 
		 "basiset": "6-31G**", 
		 "properties": { 
			 "R2extent": 3832.6539, 
			 "electric_dipole_moment_norm": 2.75523952498, 
			 "electric_quadrupole_moment_norm": 13.9842653393, 
			 "total_energy": -988.443402309, 
			 "HOMO_LUMO_gap": 0.17346, 
			 "cosmo_polarized_energy": -12.61, 
			 "cosmo_cavitation_energy": 30.23, 
			 "cosmo_dispersion_energy": -22.58, 
			 "cosmo_repulsion_energy": 1.73, 
			 "cosmo_total_nonelectrostatic_energy": 9.39, 
			 "SMD_solvation_energy": 2.71 
		},
		"coords": [
			{
				"x": 2.8528125538,
				"y": 1.2219798504,
				"z": -1.1169776135,
				"element": "O" 
			},
			{
				"x": 2.0127647562,
				"y": 0.5570538184,
				"z": -0.5309742352,
				"element": "C" 
			},
			{
				"x": 2.3127472586,
				"y": -0.815442345,
				"z": -0.3893729478,
				"element": "N" 
			},
			{
				"x": 1.6890328234,
				"y": -1.9126253668,
				"z": 0.1756556941,
				"element": "C" 
			},
			{
				"x": 0.5593091595,
				"y": -1.9427996728,
				"z": 0.8186607701,
				"element": "N" 
			},
			{
				"x": 0.2672011513,
				"y": -3.2247341147,
				"z": 1.2369312693,
				"element": "C" 
			},
			{
				"x": 1.1701931602,
				"y": -4.1906129785,
				"z": 0.9210858716,
				"element": "C" 
			},
			{
				"x": 2.4957379763,
				"y": -3.4877665993,
				"z": 0.0327009776,
				"element": "S" 
			},
			{
				"x": 0.729010185,
				"y": 1.1745599906,
				"z": -0.0037387392,
				"element": "C" 
			},
			{
				"x": -0.5470148701,
				"y": 0.6614447892,
				"z": -0.7058774561,
				"element": "C" 
			},
			{
				"x": -1.7550135086,
				"y": 1.5491651195,
				"z": -0.3039037503,
				"element": "C" 
			},
			{
				"x": -1.6816202425,
				"y": 2.1029129649,
				"z": 1.0598616588,
				"element": "N" 
			},
			{
				"x": -0.8938472633,
				"y": 1.2548703288,
				"z": 1.9565445371,
				"element": "C" 
			},
			{
				"x": 0.5914351709,
				"y": 1.1265467181,
				"z": 1.5461459749,
				"element": "C" 
			},
			{
				"x": 3.2091046892,
				"y": -0.9975153484,
				"z": -0.8254769281,
				"element": "H" 
			},
			{
				"x": -0.650007842,
				"y": -3.3958284715,
				"z": 1.7877917414,
				"element": "H" 
			},
			{
				"x": 1.1465311839,
				"y": -5.2464759574,
				"z": 1.1465185705,
				"element": "H" 
			},
			{
				"x": 0.8550012129,
				"y": 2.2217848832,
				"z": -0.2969189526,
				"element": "H" 
			},
			{
				"x": -0.7269084846,
				"y": -0.3759840703,
				"z": -0.4190860953,
				"element": "H" 
			},
			{
				"x": -0.4174061936,
				"y": 0.683858959,
				"z": -1.794064929,
				"element": "H" 
			},
			{
				"x": -2.6744333132,
				"y": 0.9554060402,
				"z": -0.3989684728,
				"element": "H" 
			},
			{
				"x": -1.8536118818,
				"y": 2.3892759957,
				"z": -1.0003254434,
				"element": "H" 
			},
			{
				"x": -1.2591183217,
				"y": 3.0270193789,
				"z": 1.0263254933,
				"element": "H" 
			},
			{
				"x": -1.3559561302,
				"y": 0.2609317131,
				"z": 1.9635925211,
				"element": "H" 
			},
			{
				"x": -0.9720991265,
				"y": 1.6449485241,
				"z": 2.9773342463,
				"element": "H" 
			},
			{
				"x": 1.1759745419,
				"y": 1.9525131563,
				"z": 1.9689382657,
				"element": "H" 
			},
			{
				"x": 0.998281355,
				"y": 0.1982126944,
				"z": 1.9531979716,
				"element": "H" 
			}
		],
		 "valence_orbital": [ 
			{
				"type": "occ",
				"energy": -0.29298,
				"method": "rhf"
			},
			{
				"type": "occ",
				"energy": -0.28724,
				"method": "rhf"
			},
			{
				"type": "occ",
				"energy": -0.26358,
				"method": "rhf"
			},
			{
				"type": "occ",
				"energy": -0.22954,
				"method": "rhf"
			},
			{
				"type": "occ",
				"energy": -0.21041,
				"method": "rhf"
			},
			{
				"type": "unocc",
				"energy": -0.03695,
				"method": "rhf"
			},
			{
				"type": "unocc",
				"energy": -0.0086,
				"method": "rhf"
			},
			{
				"type": "unocc",
				"energy": 0.01399,
				"method": "rhf"
			},
			{
				"type": "unocc",
				"energy": 0.05713,
				"method": "rhf"
			},
			{
				"type": "unocc",
				"energy": 0.07279,
				"method": "rhf"
			}
		],
		"cosmo_sigma_profile": { 
			"-0.025": 0.0,
			"-0.024": 0.0,
			"-0.023": 0.0,
			"-0.022": 0.0,
			"-0.021": 0.0,
			"-0.02": 0.0,
			"-0.019": 0.0,
			"-0.018": 0.0,
			"-0.017": 0.0,
			"-0.016": 0.148260578431,
			"-0.015": 1.40566041991,
			"-0.014": 0.60555940968,
			"-0.013": 1.14107546171,
			"-0.012": 1.10541377524,
			"-0.011": 0.545659836892,
			"-0.01": 1.26844619781,
			"-0.009": 3.78944785542,
			"-0.008": 5.4696960611,
			"-0.007": 6.38388629714,
			"-0.006": 7.2592099561,
			"-0.005": 7.786490266,
			"-0.004": 10.9649010425,
			"-0.003": 22.1679193308,
			"-0.002": 25.2529134099,
			"-0.001": 25.6591727444,
			"0.0": 25.7326110708,
			"0.001": 18.6060704335,
			"0.002": 14.808357547,
			"0.003": 14.4771603879,
			"0.004": 11.2984839044,
			"0.005": 5.54569125581,
			"0.006": 4.32134004278,
			"0.007": 2.07496053311,
			"0.008": 1.48391592869,
			"0.009": 2.24042739632,
			"0.01": 2.87751674607,
			"0.011": 2.62902299138,
			"0.012": 5.83793491974,
			"0.013": 3.81494572107,
			"0.014": 0.840421771237,
			"0.015": 0.322346241611,
			"0.016": 1.00245318374,
			"0.017": 0.453382706112,
			"0.018": 0.549819478748,
			"0.019": 0.245875832949,
			"0.02": 0.0,
			"0.021": 0.0,
			"0.022": 0.0,
			"0.023": 0.0,
			"0.024": 0.0,
			"0.025": 0.0
		}
	}
}
