{
	 "smiles": "OC1=CC=C(CNC(=O)C(=O)C2=CNC3=CC=C(C=C23)N(=O)=O)C=C1", 
	 "Tm": 513.15, 
	 "num_atms": 38, 
	 "gaussian": { 
		 "optdone": 1, 
		 "sigma_profile": "yes", 
		 "theory": "DFT", 
		 "functional": "B3LYP", 
		 "basiset": "6-31G**", 
		 "properties": { 
			 "R2extent": 13384.5704, 
			 "electric_dipole_moment_norm": 6.07127474835, 
			 "electric_quadrupole_moment_norm": 35.7656396779, 
			 "total_energy": -1195.93427127, 
			 "HOMO_LUMO_gap": 0.13481, 
			 "cosmo_polarized_energy": -28.23, 
			 "cosmo_cavitation_energy": 44.47, 
			 "cosmo_dispersion_energy": -31.93, 
			 "cosmo_repulsion_energy": 2.39, 
			 "cosmo_total_nonelectrostatic_energy": 14.93, 
			 "SMD_solvation_energy": 10.38 
		},
		"coords": [
			{
				"x": -5.9331818529,
				"y": 4.1714067026,
				"z": 3.7352759491,
				"element": "O" 
			},
			{
				"x": -5.2916699989,
				"y": 3.5556103122,
				"z": 2.6986763419,
				"element": "C" 
			},
			{
				"x": -6.0258330876,
				"y": 3.3214727518,
				"z": 1.5321438696,
				"element": "C" 
			},
			{
				"x": -5.4125236253,
				"y": 2.6957942502,
				"z": 0.4489310438,
				"element": "C" 
			},
			{
				"x": -4.0725850552,
				"y": 2.2933219069,
				"z": 0.5023197835,
				"element": "C" 
			},
			{
				"x": -3.4127730785,
				"y": 1.6258020176,
				"z": -0.6878837307,
				"element": "C" 
			},
			{
				"x": -2.4863546403,
				"y": 2.5162137109,
				"z": -1.4014905059,
				"element": "N" 
			},
			{
				"x": -1.138627965,
				"y": 2.4880873082,
				"z": -1.5515277287,
				"element": "C" 
			},
			{
				"x": -0.5430901243,
				"y": 3.3315916658,
				"z": -2.2247639249,
				"element": "O" 
			},
			{
				"x": -0.337604284,
				"y": 1.3830374521,
				"z": -0.8296418623,
				"element": "C" 
			},
			{
				"x": -0.7006263091,
				"y": 0.9539192444,
				"z": 0.264994937,
				"element": "O" 
			},
			{
				"x": 0.8790280558,
				"y": 0.9106742723,
				"z": -1.4754644342,
				"element": "C" 
			},
			{
				"x": 1.4467105151,
				"y": 1.3516633889,
				"z": -2.6604233946,
				"element": "C" 
			},
			{
				"x": 2.5757872523,
				"y": 0.6289627824,
				"z": -2.92296986,
				"element": "N" 
			},
			{
				"x": 2.7883969692,
				"y": -0.3023124731,
				"z": -1.9201176009,
				"element": "C" 
			},
			{
				"x": 3.8086180232,
				"y": -1.2471827451,
				"z": -1.770517725,
				"element": "C" 
			},
			{
				"x": 3.7656912576,
				"y": -2.0615343932,
				"z": -0.6490258564,
				"element": "C" 
			},
			{
				"x": 2.7201837351,
				"y": -1.914170117,
				"z": 0.28059275,
				"element": "C" 
			},
			{
				"x": 1.6997055639,
				"y": -0.9796134549,
				"z": 0.1458186086,
				"element": "C" 
			},
			{
				"x": 1.7334999783,
				"y": -0.1529564301,
				"z": -0.9820487549,
				"element": "C" 
			},
			{
				"x": 2.7112055737,
				"y": -2.7966406411,
				"z": 1.4565915882,
				"element": "N" 
			},
			{
				"x": 3.6239111507,
				"y": -3.6180176402,
				"z": 1.5629792268,
				"element": "O" 
			},
			{
				"x": 1.7939958937,
				"y": -2.6658997175,
				"z": 2.2663614008,
				"element": "O" 
			},
			{
				"x": -3.3501941432,
				"y": 2.5328285218,
				"z": 1.6789781236,
				"element": "C" 
			},
			{
				"x": -3.9503705263,
				"y": 3.1577119085,
				"z": 2.7688529956,
				"element": "C" 
			},
			{
				"x": -5.3196747692,
				"y": 4.2657221978,
				"z": 4.4754742208,
				"element": "H" 
			},
			{
				"x": -7.0648959429,
				"y": 3.6311680241,
				"z": 1.4933232869,
				"element": "H" 
			},
			{
				"x": -5.9926178048,
				"y": 2.5128866107,
				"z": -0.4530912597,
				"element": "H" 
			},
			{
				"x": -2.8575130599,
				"y": 0.7432262308,
				"z": -0.3770882806,
				"element": "H" 
			},
			{
				"x": -4.1822997942,
				"y": 1.3061683785,
				"z": -1.4007163508,
				"element": "H" 
			},
			{
				"x": -2.8977468973,
				"y": 3.3272934767,
				"z": -1.8500170341,
				"element": "H" 
			},
			{
				"x": 1.1152015609,
				"y": 2.1504424918,
				"z": -3.304837524,
				"element": "H" 
			},
			{
				"x": 3.1770278352,
				"y": 0.77337036,
				"z": -3.7197369804,
				"element": "H" 
			},
			{
				"x": 4.6068715361,
				"y": -1.3446112435,
				"z": -2.4995333204,
				"element": "H" 
			},
			{
				"x": 4.5219411558,
				"y": -2.813823177,
				"z": -0.4673164667,
				"element": "H" 
			},
			{
				"x": 0.9176382832,
				"y": -0.8966736882,
				"z": 0.8874120092,
				"element": "H" 
			},
			{
				"x": -2.3124582612,
				"y": 2.2185549148,
				"z": 1.7359843807,
				"element": "H" 
			},
			{
				"x": -3.3791731197,
				"y": 3.332704839,
				"z": 3.6786020791,
				"element": "H" 
			}
		],
		 "valence_orbital": [ 
			{
				"type": "occ",
				"energy": -0.26091,
				"method": "rhf"
			},
			{
				"type": "occ",
				"energy": -0.25293,
				"method": "rhf"
			},
			{
				"type": "occ",
				"energy": -0.24713,
				"method": "rhf"
			},
			{
				"type": "occ",
				"energy": -0.23798,
				"method": "rhf"
			},
			{
				"type": "occ",
				"energy": -0.21998,
				"method": "rhf"
			},
			{
				"type": "unocc",
				"energy": -0.08517,
				"method": "rhf"
			},
			{
				"type": "unocc",
				"energy": -0.06533,
				"method": "rhf"
			},
			{
				"type": "unocc",
				"energy": -0.03509,
				"method": "rhf"
			},
			{
				"type": "unocc",
				"energy": -0.00432,
				"method": "rhf"
			},
			{
				"type": "unocc",
				"energy": 0.00553,
				"method": "rhf"
			}
		],
		"cosmo_sigma_profile": { 
			"-0.025": 0.0,
			"-0.024": 0.0,
			"-0.023": 0.0,
			"-0.022": 0.0,
			"-0.021": 0.0,
			"-0.02": 0.0,
			"-0.019": 0.0,
			"-0.018": 0.782520894859,
			"-0.017": 3.29371399155,
			"-0.016": 2.75858144094,
			"-0.015": 2.79715283079,
			"-0.014": 2.9552659943,
			"-0.013": 2.63431228344,
			"-0.012": 3.16943920552,
			"-0.011": 3.23074634207,
			"-0.01": 4.75761224854,
			"-0.009": 4.84753549401,
			"-0.008": 5.71671649862,
			"-0.007": 6.53584275318,
			"-0.006": 13.7393010829,
			"-0.005": 17.6151304847,
			"-0.004": 17.9329096487,
			"-0.003": 17.8293355618,
			"-0.002": 19.3895653722,
			"-0.001": 23.8034602253,
			"0.0": 29.2090005484,
			"0.001": 32.3074400179,
			"0.002": 25.8389067447,
			"0.003": 17.2302979341,
			"0.004": 16.6877587891,
			"0.005": 16.4032532476,
			"0.006": 12.4427701946,
			"0.007": 11.365544649,
			"0.008": 13.1659818964,
			"0.009": 9.72031409156,
			"0.01": 6.98714236507,
			"0.011": 4.78304468242,
			"0.012": 3.08634927442,
			"0.013": 2.95493401913,
			"0.014": 0.905599588336,
			"0.015": 0.0,
			"0.016": 0.0,
			"0.017": 0.0,
			"0.018": 0.0,
			"0.019": 0.0,
			"0.02": 0.0,
			"0.021": 0.0,
			"0.022": 0.0,
			"0.023": 0.0,
			"0.024": 0.0,
			"0.025": 0.0
		}
	}
}
