{
	 "smiles": "OCC(O)CN1CCCC1", 
	 "Tm": 318.65, 
	 "num_atms": 25, 
	 "gaussian": { 
		 "optdone": 1, 
		 "sigma_profile": "yes", 
		 "theory": "DFT", 
		 "functional": "B3LYP", 
		 "basiset": "6-31G**", 
		 "properties": { 
			 "R2extent": 2396.694, 
			 "electric_dipole_moment_norm": 4.41286840955, 
			 "electric_quadrupole_moment_norm": 14.2857659228, 
			 "total_energy": -480.957020939, 
			 "HOMO_LUMO_gap": 0.28716, 
			 "cosmo_polarized_energy": -11.42, 
			 "cosmo_cavitation_energy": 25.32, 
			 "cosmo_dispersion_energy": -18.68, 
			 "cosmo_repulsion_energy": 1.53, 
			 "cosmo_total_nonelectrostatic_energy": 8.17, 
			 "SMD_solvation_energy": 3.36 
		},
		"coords": [
			{
				"x": 1.356622793,
				"y": 2.2888879209,
				"z": -2.8622341605,
				"element": "O" 
			},
			{
				"x": 1.3504574084,
				"y": 1.0370130265,
				"z": -3.515583418,
				"element": "C" 
			},
			{
				"x": 0.1312162328,
				"y": 0.1910310889,
				"z": -3.1290029397,
				"element": "C" 
			},
			{
				"x": 0.1355885374,
				"y": -0.9500193474,
				"z": -3.9830103076,
				"element": "O" 
			},
			{
				"x": 0.1800463416,
				"y": -0.2712254772,
				"z": -1.6601691282,
				"element": "C" 
			},
			{
				"x": 0.2600205126,
				"y": 0.8494908756,
				"z": -0.7033146841,
				"element": "N" 
			},
			{
				"x": -1.057735554,
				"y": 1.4558617959,
				"z": -0.4103653787,
				"element": "C" 
			},
			{
				"x": -1.6927017085,
				"y": 0.6189067165,
				"z": 0.7360660879,
				"element": "C" 
			},
			{
				"x": -0.4876945088,
				"y": -0.1024723258,
				"z": 1.3995153347,
				"element": "C" 
			},
			{
				"x": 0.7410779271,
				"y": 0.4479484926,
				"z": 0.6330183635,
				"element": "C" 
			},
			{
				"x": 1.2020518093,
				"y": 2.0802641061,
				"z": -1.9198163663,
				"element": "H" 
			},
			{
				"x": 1.3188403407,
				"y": 1.2186659782,
				"z": -4.5949181241,
				"element": "H" 
			},
			{
				"x": 2.2632420127,
				"y": 0.4493853026,
				"z": -3.3116011293,
				"element": "H" 
			},
			{
				"x": -0.7653394873,
				"y": 0.8074516295,
				"z": -3.3025863852,
				"element": "H" 
			},
			{
				"x": -0.6710793341,
				"y": -1.4548517142,
				"z": -3.8185845172,
				"element": "H" 
			},
			{
				"x": -0.6812852977,
				"y": -0.9378024288,
				"z": -1.4630802364,
				"element": "H" 
			},
			{
				"x": 1.083065698,
				"y": -0.8812160164,
				"z": -1.5485306865,
				"element": "H" 
			},
			{
				"x": -1.6730100343,
				"y": 1.5006850103,
				"z": -1.3115528728,
				"element": "H" 
			},
			{
				"x": -0.8913902656,
				"y": 2.4872279549,
				"z": -0.0788862819,
				"element": "H" 
			},
			{
				"x": -2.2330920257,
				"y": 1.2604070453,
				"z": 1.437886318,
				"element": "H" 
			},
			{
				"x": -2.4152936749,
				"y": -0.103992183,
				"z": 0.3459300619,
				"element": "H" 
			},
			{
				"x": -0.567018617,
				"y": -1.1869368945,
				"z": 1.2754135489,
				"element": "H" 
			},
			{
				"x": -0.41658349,
				"y": 0.0936380616,
				"z": 2.4731173158,
				"element": "H" 
			},
			{
				"x": 1.5669228,
				"y": -0.2628468758,
				"z": 0.5484318015,
				"element": "H" 
			},
			{
				"x": 1.124971584,
				"y": 1.3441982577,
				"z": 1.1356577844,
				"element": "H" 
			}
		],
		 "valence_orbital": [ 
			{
				"type": "occ",
				"energy": -0.32945,
				"method": "rhf"
			},
			{
				"type": "occ",
				"energy": -0.30772,
				"method": "rhf"
			},
			{
				"type": "occ",
				"energy": -0.27075,
				"method": "rhf"
			},
			{
				"type": "occ",
				"energy": -0.24311,
				"method": "rhf"
			},
			{
				"type": "occ",
				"energy": -0.22778,
				"method": "rhf"
			},
			{
				"type": "unocc",
				"energy": 0.05938,
				"method": "rhf"
			},
			{
				"type": "unocc",
				"energy": 0.0683,
				"method": "rhf"
			},
			{
				"type": "unocc",
				"energy": 0.08728,
				"method": "rhf"
			},
			{
				"type": "unocc",
				"energy": 0.11196,
				"method": "rhf"
			},
			{
				"type": "unocc",
				"energy": 0.11911,
				"method": "rhf"
			}
		],
		"cosmo_sigma_profile": { 
			"-0.025": 0.0,
			"-0.024": 0.0,
			"-0.023": 0.0,
			"-0.022": 0.0,
			"-0.021": 0.0,
			"-0.02": 0.0,
			"-0.019": 0.0,
			"-0.018": 0.0,
			"-0.017": 0.0,
			"-0.016": 0.234971194288,
			"-0.015": 0.909528353278,
			"-0.014": 1.07263374221,
			"-0.013": 0.852308580189,
			"-0.012": 0.84258493203,
			"-0.011": 1.38219549529,
			"-0.01": 0.926287948602,
			"-0.009": 0.722430386341,
			"-0.008": 0.978346741714,
			"-0.007": 0.861729456487,
			"-0.006": 1.49315597596,
			"-0.005": 4.99584006085,
			"-0.004": 12.6284530308,
			"-0.003": 28.7379924636,
			"-0.002": 32.0341661385,
			"-0.001": 27.9312197989,
			"0.0": 21.5693049341,
			"0.001": 12.5956990511,
			"0.002": 7.52049349422,
			"0.003": 4.0742320375,
			"0.004": 2.42367404462,
			"0.005": 2.77722251137,
			"0.006": 2.67915771853,
			"0.007": 2.45168697932,
			"0.008": 2.03338743941,
			"0.009": 2.30122075297,
			"0.01": 2.3287696025,
			"0.011": 2.74519091473,
			"0.012": 2.58540528655,
			"0.013": 3.09080187158,
			"0.014": 3.02131728894,
			"0.015": 2.35975781056,
			"0.016": 1.49238819295,
			"0.017": 0.0,
			"0.018": 0.0,
			"0.019": 0.0,
			"0.02": 0.0,
			"0.021": 0.0,
			"0.022": 0.0,
			"0.023": 0.0,
			"0.024": 0.0,
			"0.025": 0.0
		}
	}
}
