{
	 "smiles": "COC1=CC=C(C=C2CCCC3=C2N=C2C=CC=CC2=C3C(O)=O)C=C1", 
	 "Tm": 431.15, 
	 "num_atms": 45, 
	 "gaussian": { 
		 "optdone": 1, 
		 "sigma_profile": "yes", 
		 "theory": "DFT", 
		 "functional": "B3LYP", 
		 "basiset": "6-31G**", 
		 "properties": { 
			 "R2extent": 10955.9025, 
			 "electric_dipole_moment_norm": 2.47556790656, 
			 "electric_quadrupole_moment_norm": 16.8714308068, 
			 "total_energy": -1130.21986827, 
			 "HOMO_LUMO_gap": 0.12423, 
			 "cosmo_polarized_energy": -16.49, 
			 "cosmo_cavitation_energy": 47.69, 
			 "cosmo_dispersion_energy": -33.38, 
			 "cosmo_repulsion_energy": 2.52, 
			 "cosmo_total_nonelectrostatic_energy": 16.83, 
			 "SMD_solvation_energy": 8.1 
		},
		"coords": [
			{
				"x": 2.2328945476,
				"y": 5.993912866,
				"z": 1.4057263735,
				"element": "C" 
			},
			{
				"x": 0.8439082462,
				"y": 6.0110754018,
				"z": 1.1195929518,
				"element": "O" 
			},
			{
				"x": 0.3024732202,
				"y": 4.9349495675,
				"z": 0.4781626818,
				"element": "C" 
			},
			{
				"x": -1.071199625,
				"y": 5.0085920014,
				"z": 0.2097055466,
				"element": "C" 
			},
			{
				"x": -1.7043046629,
				"y": 3.9626707884,
				"z": -0.4454378858,
				"element": "C" 
			},
			{
				"x": -1.0133485675,
				"y": 2.7948793921,
				"z": -0.8321291135,
				"element": "C" 
			},
			{
				"x": -1.7660907393,
				"y": 1.7707409885,
				"z": -1.5694550583,
				"element": "C" 
			},
			{
				"x": -1.6273386547,
				"y": 0.4341783915,
				"z": -1.7544753452,
				"element": "C" 
			},
			{
				"x": -2.534457814,
				"y": -0.2619690703,
				"z": -2.750285548,
				"element": "C" 
			},
			{
				"x": -1.6761850207,
				"y": -1.0463202289,
				"z": -3.7493933619,
				"element": "C" 
			},
			{
				"x": -0.8983560043,
				"y": -2.1514618995,
				"z": -3.0276007846,
				"element": "C" 
			},
			{
				"x": -0.3006744878,
				"y": -1.7258372805,
				"z": -1.6938853414,
				"element": "C" 
			},
			{
				"x": -0.6644337034,
				"y": -0.4721336888,
				"z": -1.0776633359,
				"element": "C" 
			},
			{
				"x": -0.210889184,
				"y": -0.1098241189,
				"z": 0.1128376733,
				"element": "N" 
			},
			{
				"x": 0.6244259251,
				"y": -0.9250248538,
				"z": 0.7990481112,
				"element": "C" 
			},
			{
				"x": 1.0870100104,
				"y": -0.486935961,
				"z": 2.0711670298,
				"element": "C" 
			},
			{
				"x": 1.9333792606,
				"y": -1.2761386986,
				"z": 2.8133242033,
				"element": "C" 
			},
			{
				"x": 2.3484838665,
				"y": -2.5373140634,
				"z": 2.3177786637,
				"element": "C" 
			},
			{
				"x": 1.9173404742,
				"y": -2.9901341209,
				"z": 1.0904373607,
				"element": "C" 
			},
			{
				"x": 1.0464205038,
				"y": -2.1954628585,
				"z": 0.2963673689,
				"element": "C" 
			},
			{
				"x": 0.5602378088,
				"y": -2.5612866443,
				"z": -0.9956983311,
				"element": "C" 
			},
			{
				"x": 0.971766559,
				"y": -3.897920054,
				"z": -1.5442920256,
				"element": "C" 
			},
			{
				"x": 1.6267607216,
				"y": -3.8063753906,
				"z": -2.7271353599,
				"element": "O" 
			},
			{
				"x": 0.7824865967,
				"y": -4.9616761537,
				"z": -0.9942078792,
				"element": "O" 
			},
			{
				"x": 0.3647549853,
				"y": 2.7521797722,
				"z": -0.5665245572,
				"element": "C" 
			},
			{
				"x": 1.0210629782,
				"y": 3.8012019831,
				"z": 0.0741207376,
				"element": "C" 
			},
			{
				"x": 2.4475225473,
				"y": 6.9340629651,
				"z": 1.9164477126,
				"element": "H" 
			},
			{
				"x": 2.8355967036,
				"y": 5.9358985533,
				"z": 0.4900445607,
				"element": "H" 
			},
			{
				"x": 2.5016503326,
				"y": 5.1570799843,
				"z": 2.0633319158,
				"element": "H" 
			},
			{
				"x": -1.6148042581,
				"y": 5.8967562384,
				"z": 0.5148517669,
				"element": "H" 
			},
			{
				"x": -2.7674648935,
				"y": 4.0415854013,
				"z": -0.6592316288,
				"element": "H" 
			},
			{
				"x": -2.6173560045,
				"y": 2.2005237896,
				"z": -2.0998475814,
				"element": "H" 
			},
			{
				"x": -3.1644171665,
				"y": 0.469104148,
				"z": -3.2654529564,
				"element": "H" 
			},
			{
				"x": -3.2090346414,
				"y": -0.9622664624,
				"z": -2.2340499247,
				"element": "H" 
			},
			{
				"x": -0.9817230752,
				"y": -0.3551383751,
				"z": -4.2424842122,
				"element": "H" 
			},
			{
				"x": -2.2961327068,
				"y": -1.49236119,
				"z": -4.5351519659,
				"element": "H" 
			},
			{
				"x": -0.1115325066,
				"y": -2.5465659408,
				"z": -3.6744153596,
				"element": "H" 
			},
			{
				"x": -1.5807167237,
				"y": -2.9918483745,
				"z": -2.8316737088,
				"element": "H" 
			},
			{
				"x": 0.7448204217,
				"y": 0.482433986,
				"z": 2.4181152141,
				"element": "H" 
			},
			{
				"x": 2.284524216,
				"y": -0.9387390667,
				"z": 3.7842265271,
				"element": "H" 
			},
			{
				"x": 3.0103929644,
				"y": -3.1566702585,
				"z": 2.9160065019,
				"element": "H" 
			},
			{
				"x": 2.2254585214,
				"y": -3.9658573516,
				"z": 0.7333202319,
				"element": "H" 
			},
			{
				"x": 1.8390590477,
				"y": -4.7203579172,
				"z": -2.9854523418,
				"element": "H" 
			},
			{
				"x": 0.9424355515,
				"y": 1.890123584,
				"z": -0.8738434383,
				"element": "H" 
			},
			{
				"x": 2.0879944297,
				"y": 3.72657022,
				"z": 0.2489739121,
				"element": "H" 
			}
		],
		 "valence_orbital": [ 
			{
				"type": "occ",
				"energy": -0.25201,
				"method": "rhf"
			},
			{
				"type": "occ",
				"energy": -0.24377,
				"method": "rhf"
			},
			{
				"type": "occ",
				"energy": -0.23678,
				"method": "rhf"
			},
			{
				"type": "occ",
				"energy": -0.22953,
				"method": "rhf"
			},
			{
				"type": "occ",
				"energy": -0.1921,
				"method": "rhf"
			},
			{
				"type": "unocc",
				"energy": -0.06787,
				"method": "rhf"
			},
			{
				"type": "unocc",
				"energy": -0.03406,
				"method": "rhf"
			},
			{
				"type": "unocc",
				"energy": -0.00842,
				"method": "rhf"
			},
			{
				"type": "unocc",
				"energy": 0.00376,
				"method": "rhf"
			},
			{
				"type": "unocc",
				"energy": 0.00867,
				"method": "rhf"
			}
		],
		"cosmo_sigma_profile": { 
			"-0.025": 0.0,
			"-0.024": 0.0,
			"-0.023": 0.0,
			"-0.022": 0.0,
			"-0.021": 0.0,
			"-0.02": 0.0,
			"-0.019": 0.205154429258,
			"-0.018": 1.33387275582,
			"-0.017": 0.573427832827,
			"-0.016": 0.928086095344,
			"-0.015": 0.700074495278,
			"-0.014": 0.659359758571,
			"-0.013": 0.501468122729,
			"-0.012": 0.616621950002,
			"-0.011": 0.925455590062,
			"-0.01": 0.799516505968,
			"-0.009": 0.480710924684,
			"-0.008": 0.895510569063,
			"-0.007": 2.02097377727,
			"-0.006": 12.1375677856,
			"-0.005": 30.595521521,
			"-0.004": 34.3305831096,
			"-0.003": 39.5728994007,
			"-0.002": 31.9280018511,
			"-0.001": 31.0809960137,
			"0.0": 29.8087401948,
			"0.001": 23.3174603375,
			"0.002": 22.9889541378,
			"0.003": 25.8580581891,
			"0.004": 27.819662218,
			"0.005": 17.5247669911,
			"0.006": 11.3697286666,
			"0.007": 4.92858114397,
			"0.008": 6.15468123753,
			"0.009": 4.50853314121,
			"0.01": 6.01282790196,
			"0.011": 5.76561584905,
			"0.012": 1.65097605864,
			"0.013": 0.829145417153,
			"0.014": 0.776854858549,
			"0.015": 0.0920391885157,
			"0.016": 0.0,
			"0.017": 0.0,
			"0.018": 0.0,
			"0.019": 0.0,
			"0.02": 0.0,
			"0.021": 0.0,
			"0.022": 0.0,
			"0.023": 0.0,
			"0.024": 0.0,
			"0.0": 0.0
		}
	}
}
