{
	 "smiles": "CC(C)(C)OC(=O)NC1=CC=C(C=C1)C(O)=O", 
	 "Tm": 453.15, 
	 "num_atms": 32, 
	 "gaussian": { 
		 "optdone": 1, 
		 "sigma_profile": "yes", 
		 "theory": "DFT", 
		 "functional": "B3LYP", 
		 "basiset": "6-31G**", 
		 "properties": { 
			 "R2extent": 6169.0892, 
			 "electric_dipole_moment_norm": 5.32962264424, 
			 "electric_quadrupole_moment_norm": 34.7496184127, 
			 "total_energy": -822.014363872, 
			 "HOMO_LUMO_gap": 0.18666, 
			 "cosmo_polarized_energy": -19.48, 
			 "cosmo_cavitation_energy": 35.68, 
			 "cosmo_dispersion_energy": -25.15, 
			 "cosmo_repulsion_energy": 1.93, 
			 "cosmo_total_nonelectrostatic_energy": 12.46, 
			 "SMD_solvation_energy": 8.31 
		},
		"coords": [
			{
				"x": -1.6424365163,
				"y": 1.1504221816,
				"z": -2.7470835862,
				"element": "C" 
			},
			{
				"x": -0.7880243148,
				"y": -0.0912362578,
				"z": -3.0114333864,
				"element": "C" 
			},
			{
				"x": -1.6608032466,
				"y": -1.2729613211,
				"z": -3.4429968705,
				"element": "C" 
			},
			{
				"x": 0.3251127697,
				"y": 0.2161563116,
				"z": -4.016884342,
				"element": "C" 
			},
			{
				"x": -0.1992282497,
				"y": -0.3629301976,
				"z": -1.6782528769,
				"element": "O" 
			},
			{
				"x": 0.6315871618,
				"y": -1.4009678174,
				"z": -1.4978540947,
				"element": "C" 
			},
			{
				"x": 0.991256191,
				"y": -2.2034295857,
				"z": -2.3414670018,
				"element": "O" 
			},
			{
				"x": 1.0885346636,
				"y": -1.5069139902,
				"z": -0.1922092237,
				"element": "N" 
			},
			{
				"x": 0.8798198704,
				"y": -0.7730742105,
				"z": 0.9828009006,
				"element": "C" 
			},
			{
				"x": 1.5796874574,
				"y": -1.2074838759,
				"z": 2.1273544621,
				"element": "C" 
			},
			{
				"x": 1.4395013041,
				"y": -0.5525119541,
				"z": 3.3390438694,
				"element": "C" 
			},
			{
				"x": 0.6097600591,
				"y": 0.5729187472,
				"z": 3.4529076003,
				"element": "C" 
			},
			{
				"x": -0.0958461368,
				"y": 0.9920585054,
				"z": 2.3175454548,
				"element": "C" 
			},
			{
				"x": 0.0271245296,
				"y": 0.3377409505,
				"z": 1.0949058996,
				"element": "C" 
			},
			{
				"x": 0.5016384791,
				"y": 1.2286435506,
				"z": 4.7904600107,
				"element": "C" 
			},
			{
				"x": -0.00283245,
				"y": 2.4940329725,
				"z": 4.8176697255,
				"element": "O" 
			},
			{
				"x": 0.8369885094,
				"y": 0.6950769909,
				"z": 5.8230599526,
				"element": "O" 
			},
			{
				"x": -1.0233957108,
				"y": 1.9796897929,
				"z": -2.3921994944,
				"element": "H" 
			},
			{
				"x": -2.4109934263,
				"y": 0.941218721,
				"z": -1.9970887396,
				"element": "H" 
			},
			{
				"x": -2.1394986965,
				"y": 1.4630221852,
				"z": -3.6698679216,
				"element": "H" 
			},
			{
				"x": -1.0582698103,
				"y": -2.1647416146,
				"z": -3.615530523,
				"element": "H" 
			},
			{
				"x": -2.1857212639,
				"y": -1.0169783017,
				"z": -4.3688652002,
				"element": "H" 
			},
			{
				"x": -2.4116097889,
				"y": -1.4920758454,
				"z": -2.6773731901,
				"element": "H" 
			},
			{
				"x": 0.9471644558,
				"y": -0.6608624425,
				"z": -4.1955514423,
				"element": "H" 
			},
			{
				"x": 0.9555184954,
				"y": 1.0322733925,
				"z": -3.6501454932,
				"element": "H" 
			},
			{
				"x": -0.1203662054,
				"y": 0.5321686044,
				"z": -4.9655561365,
				"element": "H" 
			},
			{
				"x": 1.7131431627,
				"y": -2.2973960363,
				"z": -0.1096497324,
				"element": "H" 
			},
			{
				"x": 2.236200719,
				"y": -2.0711791405,
				"z": 2.0551209275,
				"element": "H" 
			},
			{
				"x": 1.9700352198,
				"y": -0.8955100094,
				"z": 4.2206212909,
				"element": "H" 
			},
			{
				"x": -0.7947655689,
				"y": 1.8237947708,
				"z": 2.374391355,
				"element": "H" 
			},
			{
				"x": -0.5361163909,
				"y": 0.6754747007,
				"z": 0.2386422457,
				"element": "H" 
			},
			{
				"x": -0.0627652719,
				"y": 2.8475602228,
				"z": 3.919785561,
				"element": "H" 
			}
		],
		 "valence_orbital": [ 
			{
				"type": "occ",
				"energy": -0.30617,
				"method": "rhf"
			},
			{
				"type": "occ",
				"energy": -0.28461,
				"method": "rhf"
			},
			{
				"type": "occ",
				"energy": -0.27302,
				"method": "rhf"
			},
			{
				"type": "occ",
				"energy": -0.26844,
				"method": "rhf"
			},
			{
				"type": "occ",
				"energy": -0.23457,
				"method": "rhf"
			},
			{
				"type": "unocc",
				"energy": -0.04791,
				"method": "rhf"
			},
			{
				"type": "unocc",
				"energy": -0.02206,
				"method": "rhf"
			},
			{
				"type": "unocc",
				"energy": 0.02982,
				"method": "rhf"
			},
			{
				"type": "unocc",
				"energy": 0.05877,
				"method": "rhf"
			},
			{
				"type": "unocc",
				"energy": 0.06602,
				"method": "rhf"
			}
		],
		"cosmo_sigma_profile": { 
			"-0.025": 0.0,
			"-0.024": 0.0,
			"-0.023": 0.0,
			"-0.022": 0.0,
			"-0.021": 0.0,
			"-0.02": 0.0,
			"-0.019": 0.10559157301,
			"-0.018": 0.770987936972,
			"-0.017": 1.16276399996,
			"-0.016": 0.706436712332,
			"-0.015": 1.80108128896,
			"-0.014": 2.60018377958,
			"-0.013": 1.75123598249,
			"-0.012": 1.96296984426,
			"-0.011": 2.35021978998,
			"-0.01": 2.39976594193,
			"-0.009": 2.3239684948,
			"-0.008": 3.48562855383,
			"-0.007": 4.00983456225,
			"-0.006": 6.14019785321,
			"-0.005": 8.55236897149,
			"-0.004": 19.3771236477,
			"-0.003": 21.3956490338,
			"-0.002": 25.8798604327,
			"-0.001": 29.8210787235,
			"0.0": 34.1797989377,
			"0.001": 23.1574398766,
			"0.002": 16.3513484379,
			"0.003": 17.8979529625,
			"0.004": 7.57655394651,
			"0.005": 4.1035282416,
			"0.006": 3.59452539738,
			"0.007": 4.78948709761,
			"0.008": 2.92933487313,
			"0.009": 4.81530078916,
			"0.01": 5.56841152419,
			"0.011": 6.92362087024,
			"0.012": 8.69468184189,
			"0.013": 4.56883565537,
			"0.014": 0.288971575445,
			"0.015": 0.0,
			"0.016": 0.0,
			"0.017": 0.0,
			"0.018": 0.0,
			"0.019": 0.0,
			"0.02": 0.0,
			"0.021": 0.0,
			"0.022": 0.0,
			"0.023": 0.0,
			"0.024": 0.0,
			"0.025": 0.0
		}
	}
}
