{
	 "smiles": "CC1=CC=C(Br)C(Br)=C1", 
	 "Tm": 263.15, 
	 "num_atms": 15, 
	 "gaussian": { 
		 "optdone": 1, 
		 "sigma_profile": "yes", 
		 "theory": "DFT", 
		 "functional": "B3LYP", 
		 "basiset": "6-31G**", 
		 "properties": { 
			 "R2extent": 7843.2769, 
			 "electric_dipole_moment_norm": 2.97581027957, 
			 "electric_quadrupole_moment_norm": 9.85179502324, 
			 "total_energy": -5413.1721691, 
			 "HOMO_LUMO_gap": 0.21576, 
			 "cosmo_polarized_energy": -4.46, 
			 "cosmo_cavitation_energy": 23.27, 
			 "cosmo_dispersion_energy": -18.03, 
			 "cosmo_repulsion_energy": 1.47, 
			 "cosmo_total_nonelectrostatic_energy": 6.71, 
			 "SMD_solvation_energy": 1.92 
		},
		"coords": [
			{
				"x": 1.3844599395,
				"y": 0.0202664344,
				"z": 0.5700584917,
				"element": "C" 
			},
			{
				"x": 0.6890727271,
				"y": -0.4405229506,
				"z": -0.6886451581,
				"element": "C" 
			},
			{
				"x": -0.654997488,
				"y": -0.1206672028,
				"z": -0.9281533661,
				"element": "C" 
			},
			{
				"x": -1.2967435807,
				"y": -0.5456536071,
				"z": -2.0860663121,
				"element": "C" 
			},
			{
				"x": -0.6104538001,
				"y": -1.304141231,
				"z": -3.0390133758,
				"element": "C" 
			},
			{
				"x": -1.5479797503,
				"y": -1.8532922502,
				"z": -4.6004271547,
				"element": "Br" 
			},
			{
				"x": 0.7290594026,
				"y": -1.6304400802,
				"z": -2.8144758163,
				"element": "C" 
			},
			{
				"x": 1.7427195711,
				"y": -2.6580609468,
				"z": -4.0549877076,
				"element": "Br" 
			},
			{
				"x": 1.3655130901,
				"y": -1.1984541268,
				"z": -1.6472451942,
				"element": "C" 
			},
			{
				"x": 0.8916911886,
				"y": -0.3796273822,
				"z": 1.4634841792,
				"element": "H" 
			},
			{
				"x": 1.3681957586,
				"y": 1.1126752598,
				"z": 0.6542270806,
				"element": "H" 
			},
			{
				"x": 2.428608114,
				"y": -0.3018398772,
				"z": 0.5915436889,
				"element": "H" 
			},
			{
				"x": -1.2083059435,
				"y": 0.468013565,
				"z": -0.2013412197,
				"element": "H" 
			},
			{
				"x": -2.3362147911,
				"y": -0.2936468456,
				"z": -2.2630019344,
				"element": "H" 
			},
			{
				"x": 2.406075562,
				"y": -1.4635087589,
				"z": -1.4939562016,
				"element": "H" 
			}
		],
		 "valence_orbital": [ 
			{
				"type": "occ",
				"energy": -0.31174,
				"method": "rhf"
			},
			{
				"type": "occ",
				"energy": -0.30354,
				"method": "rhf"
			},
			{
				"type": "occ",
				"energy": -0.27482,
				"method": "rhf"
			},
			{
				"type": "occ",
				"energy": -0.25486,
				"method": "rhf"
			},
			{
				"type": "occ",
				"energy": -0.23952,
				"method": "rhf"
			},
			{
				"type": "unocc",
				"energy": -0.02376,
				"method": "rhf"
			},
			{
				"type": "unocc",
				"energy": -0.01903,
				"method": "rhf"
			},
			{
				"type": "unocc",
				"energy": -0.0187,
				"method": "rhf"
			},
			{
				"type": "unocc",
				"energy": 0.03931,
				"method": "rhf"
			},
			{
				"type": "unocc",
				"energy": 0.10196,
				"method": "rhf"
			}
		],
		"cosmo_sigma_profile": { 
			"-0.025": 0.0,
			"-0.024": 0.0,
			"-0.023": 0.0,
			"-0.022": 0.0,
			"-0.021": 0.0,
			"-0.02": 0.0,
			"-0.019": 0.0,
			"-0.018": 0.0,
			"-0.017": 0.0,
			"-0.016": 0.0,
			"-0.015": 0.0,
			"-0.014": 0.0,
			"-0.013": 0.0,
			"-0.012": 0.0,
			"-0.011": 0.0,
			"-0.01": 0.0,
			"-0.009": 0.0,
			"-0.008": 0.287597252869,
			"-0.007": 3.53919407649,
			"-0.006": 7.15751273718,
			"-0.005": 10.9201018912,
			"-0.004": 13.4729605985,
			"-0.003": 15.7579514866,
			"-0.002": 13.3192154007,
			"-0.001": 15.6109615003,
			"0.0": 16.612321319,
			"0.001": 20.2140453021,
			"0.002": 22.1716396349,
			"0.003": 23.2442224466,
			"0.004": 20.0350879526,
			"0.005": 8.3917068275,
			"0.006": 1.76821389042,
			"0.007": 0.0,
			"0.008": 0.0,
			"0.009": 0.0,
			"0.01": 0.0,
			"0.011": 0.0,
			"0.012": 0.0,
			"0.013": 0.0,
			"0.014": 0.0,
			"0.015": 0.0,
			"0.016": 0.0,
			"0.017": 0.0,
			"0.018": 0.0,
			"0.019": 0.0,
			"0.02": 0.0,
			"0.021": 0.0,
			"0.022": 0.0,
			"0.023": 0.0,
			"0.024": 0.0,
			"0.025": 0.0
		}
	}
}
