{
	 "smiles": "CC(C)OC1=CC=C(NC2=CC=CC=C2)C=C1", 
	 "Tm": 352.15, 
	 "num_atms": 34, 
	 "gaussian": { 
		 "optdone": 1, 
		 "sigma_profile": "yes", 
		 "theory": "DFT", 
		 "functional": "B3LYP", 
		 "basiset": "6-31G**", 
		 "properties": { 
			 "R2extent": 6893.683, 
			 "electric_dipole_moment_norm": 2.33186175834, 
			 "electric_quadrupole_moment_norm": 8.69442320284, 
			 "total_energy": -711.821397587, 
			 "HOMO_LUMO_gap": 0.1747, 
			 "cosmo_polarized_energy": -9.76, 
			 "cosmo_cavitation_energy": 36.75, 
			 "cosmo_dispersion_energy": -26.68, 
			 "cosmo_repulsion_energy": 2.08, 
			 "cosmo_total_nonelectrostatic_energy": 12.15, 
			 "SMD_solvation_energy": 6.3 
		},
		"coords": [
			{
				"x": 0.5563938318,
				"y": 5.0143515677,
				"z": 2.6996175139,
				"element": "C" 
			},
			{
				"x": 0.1143523397,
				"y": 4.1934277437,
				"z": 1.4929037238,
				"element": "C" 
			},
			{
				"x": 0.2903219436,
				"y": 4.9488374106,
				"z": 0.1743151601,
				"element": "C" 
			},
			{
				"x": 0.9263948445,
				"y": 3.0080692862,
				"z": 1.5119535959,
				"element": "O" 
			},
			{
				"x": 0.5265524894,
				"y": 1.8815719511,
				"z": 0.8459330578,
				"element": "C" 
			},
			{
				"x": 1.4267770737,
				"y": 0.8060017101,
				"z": 0.8841698353,
				"element": "C" 
			},
			{
				"x": 1.1319236828,
				"y": -0.3980893088,
				"z": 0.2588816097,
				"element": "C" 
			},
			{
				"x": -0.0939310706,
				"y": -0.5781960404,
				"z": -0.4085519245,
				"element": "C" 
			},
			{
				"x": -0.4148769791,
				"y": -1.7632412183,
				"z": -1.093583855,
				"element": "N" 
			},
			{
				"x": -0.1194340449,
				"y": -3.0829577765,
				"z": -0.7483469233,
				"element": "C" 
			},
			{
				"x": -0.2907976201,
				"y": -4.0845202884,
				"z": -1.7239101955,
				"element": "C" 
			},
			{
				"x": -0.0408742621,
				"y": -5.4199939619,
				"z": -1.4243432083,
				"element": "C" 
			},
			{
				"x": 0.3986950722,
				"y": -5.7944292614,
				"z": -0.152031657,
				"element": "C" 
			},
			{
				"x": 0.5677070179,
				"y": -4.8056583742,
				"z": 0.8184207269,
				"element": "C" 
			},
			{
				"x": 0.3079090129,
				"y": -3.4651011043,
				"z": 0.5365692345,
				"element": "C" 
			},
			{
				"x": -0.9872844086,
				"y": 0.4994398207,
				"z": -0.4435154436,
				"element": "C" 
			},
			{
				"x": -0.6831597185,
				"y": 1.7216699282,
				"z": 0.1603860646,
				"element": "C" 
			},
			{
				"x": -0.0257346302,
				"y": 5.9385155647,
				"z": 2.7674128483,
				"element": "H" 
			},
			{
				"x": 1.6153400807,
				"y": 5.2770900359,
				"z": 2.6126154857,
				"element": "H" 
			},
			{
				"x": 0.4183362983,
				"y": 4.4456488272,
				"z": 3.6230318457,
				"element": "H" 
			},
			{
				"x": -0.9385845129,
				"y": 3.90855314,
				"z": 1.6258239056,
				"element": "H" 
			},
			{
				"x": 1.3345320878,
				"y": 5.2549327096,
				"z": 0.0557013826,
				"element": "H" 
			},
			{
				"x": 0.0182473269,
				"y": 4.3287428178,
				"z": -0.6837683298,
				"element": "H" 
			},
			{
				"x": -0.3369177152,
				"y": 5.8462904331,
				"z": 0.1603035233,
				"element": "H" 
			},
			{
				"x": 2.3701433331,
				"y": 0.9432886237,
				"z": 1.4029131155,
				"element": "H" 
			},
			{
				"x": 1.8616481719,
				"y": -1.1999516992,
				"z": 0.2716973597,
				"element": "H" 
			},
			{
				"x": -1.0268417877,
				"y": -1.6527521353,
				"z": -1.8875602552,
				"element": "H" 
			},
			{
				"x": -0.6172247493,
				"y": -3.8023614711,
				"z": -2.722467983,
				"element": "H" 
			},
			{
				"x": -0.1832784058,
				"y": -6.1721404908,
				"z": -2.1956283835,
				"element": "H" 
			},
			{
				"x": 0.6023764242,
				"y": -6.8354763326,
				"z": 0.0779268605,
				"element": "H" 
			},
			{
				"x": 0.8950732237,
				"y": -5.0774658705,
				"z": 1.8184777526,
				"element": "H" 
			},
			{
				"x": 0.4148654537,
				"y": -2.7189523096,
				"z": 1.3151391527,
				"element": "H" 
			},
			{
				"x": -1.9410749519,
				"y": 0.3840007698,
				"z": -0.9527615245,
				"element": "H" 
			},
			{
				"x": -1.404574852,
				"y": 2.5273553034,
				"z": 0.0965759283,
				"element": "H" 
			}
		],
		 "valence_orbital": [ 
			{
				"type": "occ",
				"energy": -0.29001,
				"method": "rhf"
			},
			{
				"type": "occ",
				"energy": -0.24878,
				"method": "rhf"
			},
			{
				"type": "occ",
				"energy": -0.24192,
				"method": "rhf"
			},
			{
				"type": "occ",
				"energy": -0.22743,
				"method": "rhf"
			},
			{
				"type": "occ",
				"energy": -0.1762,
				"method": "rhf"
			},
			{
				"type": "unocc",
				"energy": -0.0015,
				"method": "rhf"
			},
			{
				"type": "unocc",
				"energy": 0.00422,
				"method": "rhf"
			},
			{
				"type": "unocc",
				"energy": 0.00755,
				"method": "rhf"
			},
			{
				"type": "unocc",
				"energy": 0.04023,
				"method": "rhf"
			},
			{
				"type": "unocc",
				"energy": 0.08849,
				"method": "rhf"
			}
		],
		"cosmo_sigma_profile": { 
			"-0.025": 0.0,
			"-0.024": 0.0,
			"-0.023": 0.0,
			"-0.022": 0.0,
			"-0.021": 0.0,
			"-0.02": 0.0,
			"-0.019": 0.0,
			"-0.018": 0.0,
			"-0.017": 0.0,
			"-0.016": 0.0,
			"-0.015": 0.0,
			"-0.014": 0.178748460662,
			"-0.013": 1.04483558091,
			"-0.012": 1.2460007749,
			"-0.011": 1.23735897964,
			"-0.01": 1.3116882132,
			"-0.009": 1.32049544038,
			"-0.008": 2.17026447926,
			"-0.007": 2.44302925787,
			"-0.006": 7.45059990519,
			"-0.005": 15.2555035295,
			"-0.004": 24.5107926122,
			"-0.003": 33.7902980759,
			"-0.002": 26.5796719108,
			"-0.001": 23.1261537402,
			"0.0": 26.8369622203,
			"0.001": 20.3105156039,
			"0.002": 13.4933420604,
			"0.003": 16.4554940352,
			"0.004": 19.2437965045,
			"0.005": 21.3228162343,
			"0.006": 17.3455733879,
			"0.007": 8.81894054726,
			"0.008": 2.18742979942,
			"0.009": 1.39007606843,
			"0.01": 1.61532465092,
			"0.011": 0.489955624897,
			"0.012": 0.0,
			"0.013": 0.0,
			"0.014": 0.0,
			"0.015": 0.0,
			"0.016": 0.0,
			"0.017": 0.0,
			"0.018": 0.0,
			"0.019": 0.0,
			"0.02": 0.0,
			"0.021": 0.0,
			"0.022": 0.0,
			"0.023": 0.0,
			"0.024": 0.0,
			"0.025": 0.0
		}
	}
}
