{
	 "smiles": "COC1=CC2=CC=C(C=C2N1)N(C)S(=O)(=O)C1=CC=C(C)C=C1", 
	 "Tm": 476.15, 
	 "num_atms": 41, 
	 "gaussian": { 
		 "optdone": 1, 
		 "sigma_profile": "yes", 
		 "theory": "DFT", 
		 "functional": "B3LYP", 
		 "basiset": "6-31G**", 
		 "properties": { 
			 "R2extent": 12225.5297, 
			 "electric_dipole_moment_norm": 3.12893968622, 
			 "electric_quadrupole_moment_norm": 36.5833775558, 
			 "total_energy": -1391.94181319, 
			 "HOMO_LUMO_gap": 0.16157, 
			 "cosmo_polarized_energy": -20.65, 
			 "cosmo_cavitation_energy": 46.18, 
			 "cosmo_dispersion_energy": -32.46, 
			 "cosmo_repulsion_energy": 2.42, 
			 "cosmo_total_nonelectrostatic_energy": 16.14, 
			 "SMD_solvation_energy": 7.52 
		},
		"coords": [
			{
				"x": -3.239544985,
				"y": -4.7641800344,
				"z": -4.1684209311,
				"element": "C" 
			},
			{
				"x": -2.9683455827,
				"y": -4.4745380752,
				"z": -2.7998959346,
				"element": "O" 
			},
			{
				"x": -2.588371477,
				"y": -3.2081721369,
				"z": -2.5437825107,
				"element": "C" 
			},
			{
				"x": -2.4127673504,
				"y": -2.0989507828,
				"z": -3.3378638412,
				"element": "C" 
			},
			{
				"x": -1.9841967697,
				"y": -1.043121943,
				"z": -2.4594952542,
				"element": "C" 
			},
			{
				"x": -1.6364345779,
				"y": 0.3039332895,
				"z": -2.6460577415,
				"element": "C" 
			},
			{
				"x": -1.2407752488,
				"y": 1.0625106285,
				"z": -1.5497101564,
				"element": "C" 
			},
			{
				"x": -1.1988470056,
				"y": 0.506984782,
				"z": -0.2581398848,
				"element": "C" 
			},
			{
				"x": -1.5463045981,
				"y": -0.8285354442,
				"z": -0.0352354149,
				"element": "C" 
			},
			{
				"x": -1.9248061174,
				"y": -1.5822034814,
				"z": -1.1419850535,
				"element": "C" 
			},
			{
				"x": -2.3085363482,
				"y": -2.9111062305,
				"z": -1.2277307617,
				"element": "N" 
			},
			{
				"x": -0.8245446737,
				"y": 1.3738721576,
				"z": 0.8400614566,
				"element": "N" 
			},
			{
				"x": -1.9356035576,
				"y": 1.7685596907,
				"z": 1.7226858387,
				"element": "C" 
			},
			{
				"x": 0.5865326836,
				"y": 0.8887440094,
				"z": 1.6803428241,
				"element": "S" 
			},
			{
				"x": 0.2395389347,
				"y": 0.0326968013,
				"z": 2.8287622478,
				"element": "O" 
			},
			{
				"x": 1.5341862709,
				"y": 0.4205683765,
				"z": 0.6676103809,
				"element": "O" 
			},
			{
				"x": 1.1631364624,
				"y": 2.4561559948,
				"z": 2.3349624223,
				"element": "C" 
			},
			{
				"x": 1.1650965144,
				"y": 2.6692044809,
				"z": 3.7119537975,
				"element": "C" 
			},
			{
				"x": 1.6564750657,
				"y": 3.8767165711,
				"z": 4.2118549413,
				"element": "C" 
			},
			{
				"x": 2.1487461887,
				"y": 4.8681391638,
				"z": 3.3549595073,
				"element": "C" 
			},
			{
				"x": 2.699654191,
				"y": 6.1647917118,
				"z": 3.8978398405,
				"element": "C" 
			},
			{
				"x": 2.1385667455,
				"y": 4.6232394578,
				"z": 1.9711008518,
				"element": "C" 
			},
			{
				"x": 1.654448832,
				"y": 3.4259221828,
				"z": 1.4556611693,
				"element": "C" 
			},
			{
				"x": -2.3498079267,
				"y": -4.5966261662,
				"z": -4.786676392,
				"element": "H" 
			},
			{
				"x": -3.5232537745,
				"y": -5.816183443,
				"z": -4.2074250242,
				"element": "H" 
			},
			{
				"x": -4.062722493,
				"y": -4.1443747782,
				"z": -4.5431571732,
				"element": "H" 
			},
			{
				"x": -2.5643494934,
				"y": -2.0377136163,
				"z": -4.4042418993,
				"element": "H" 
			},
			{
				"x": -1.6653834537,
				"y": 0.7479176777,
				"z": -3.636965496,
				"element": "H" 
			},
			{
				"x": -0.9549579868,
				"y": 2.1023092216,
				"z": -1.6696269074,
				"element": "H" 
			},
			{
				"x": -1.500186693,
				"y": -1.2537491108,
				"z": 0.9626405049,
				"element": "H" 
			},
			{
				"x": -2.323054367,
				"y": -3.587493935,
				"z": -0.4815212711,
				"element": "H" 
			},
			{
				"x": -2.3657453868,
				"y": 0.92245044,
				"z": 2.2724334157,
				"element": "H" 
			},
			{
				"x": -1.5886017294,
				"y": 2.5177125464,
				"z": 2.4393069483,
				"element": "H" 
			},
			{
				"x": -2.7077977673,
				"y": 2.2219672491,
				"z": 1.0974926757,
				"element": "H" 
			},
			{
				"x": 0.7916105632,
				"y": 1.8944896609,
				"z": 4.3726433316,
				"element": "H" 
			},
			{
				"x": 1.6586804428,
				"y": 4.0477537537,
				"z": 5.2850654993,
				"element": "H" 
			},
			{
				"x": 3.7929619358,
				"y": 6.1917720026,
				"z": 3.815691672,
				"element": "H" 
			},
			{
				"x": 2.4439173791,
				"y": 6.2991580237,
				"z": 4.9521833232,
				"element": "H" 
			},
			{
				"x": 2.3142358757,
				"y": 7.0258783067,
				"z": 3.3419216754,
				"element": "H" 
			},
			{
				"x": 2.5192120346,
				"y": 5.3816147955,
				"z": 1.2916333551,
				"element": "H" 
			},
			{
				"x": 1.6571392435,
				"y": 3.2373862016,
				"z": 0.3875239684,
				"element": "H" 
			}
		],
		 "valence_orbital": [ 
			{
				"type": "occ",
				"energy": -0.26267,
				"method": "rhf"
			},
			{
				"type": "occ",
				"energy": -0.25959,
				"method": "rhf"
			},
			{
				"type": "occ",
				"energy": -0.24025,
				"method": "rhf"
			},
			{
				"type": "occ",
				"energy": -0.21403,
				"method": "rhf"
			},
			{
				"type": "occ",
				"energy": -0.19169,
				"method": "rhf"
			},
			{
				"type": "unocc",
				"energy": -0.03012,
				"method": "rhf"
			},
			{
				"type": "unocc",
				"energy": -0.01314,
				"method": "rhf"
			},
			{
				"type": "unocc",
				"energy": -0.00193,
				"method": "rhf"
			},
			{
				"type": "unocc",
				"energy": 0.02641,
				"method": "rhf"
			},
			{
				"type": "unocc",
				"energy": 0.07246,
				"method": "rhf"
			}
		],
		"cosmo_sigma_profile": { 
			"-0.025": 0.0,
			"-0.024": 0.0,
			"-0.023": 0.0,
			"-0.022": 0.0,
			"-0.021": 0.0,
			"-0.02": 0.0,
			"-0.019": 0.0,
			"-0.018": 0.0,
			"-0.017": 0.0,
			"-0.016": 0.695970521733,
			"-0.015": 1.38280447164,
			"-0.014": 1.36497168586,
			"-0.013": 1.11450405751,
			"-0.012": 0.91952043881,
			"-0.011": 0.876960066427,
			"-0.01": 1.28387960937,
			"-0.009": 1.17421202432,
			"-0.008": 0.935828184523,
			"-0.007": 5.0814634443,
			"-0.006": 16.7769067759,
			"-0.005": 31.3105153088,
			"-0.004": 36.2721609358,
			"-0.003": 35.980335888,
			"-0.002": 29.3694058422,
			"-0.001": 23.4459487151,
			"0.0": 24.9757526696,
			"0.001": 20.1788496979,
			"0.002": 22.6454674354,
			"0.003": 26.6534422121,
			"0.004": 16.9073996562,
			"0.005": 13.9412267272,
			"0.006": 14.86804387,
			"0.007": 7.28047831685,
			"0.008": 4.89204553381,
			"0.009": 5.40855647033,
			"0.01": 6.33970140441,
			"0.011": 10.4799947025,
			"0.012": 4.65690982409,
			"0.013": 0.0216428665072,
			"0.014": 0.0,
			"0.015": 0.0,
			"0.016": 0.0,
			"0.017": 0.0,
			"0.018": 0.0,
			"0.019": 0.0,
			"0.02": 0.0,
			"0.021": 0.0,
			"0.022": 0.0,
			"0.023": 0.0,
			"0.024": 0.0,
			"0.025": 0.0
		}
	}
}
