{
	 "smiles": "CCC1=CC=C(S1)C(=O)CCl", 
	 "Tm": 326.15, 
	 "num_atms": 20, 
	 "gaussian": { 
		 "optdone": 1, 
		 "sigma_profile": "yes", 
		 "theory": "DFT", 
		 "functional": "B3LYP", 
		 "basiset": "6-31G**", 
		 "properties": { 
			 "R2extent": 3805.8596, 
			 "electric_dipole_moment_norm": 4.04209443358, 
			 "electric_quadrupole_moment_norm": 13.1208656151, 
			 "total_energy": -1243.87154912, 
			 "HOMO_LUMO_gap": 0.16891, 
			 "cosmo_polarized_energy": -8.9, 
			 "cosmo_cavitation_energy": 27.26, 
			 "cosmo_dispersion_energy": -20.07, 
			 "cosmo_repulsion_energy": 1.6, 
			 "cosmo_total_nonelectrostatic_energy": 8.79, 
			 "SMD_solvation_energy": 4.74 
		},
		"coords": [
			{
				"x": -1.9417855923,
				"y": -0.7096948108,
				"z": 2.4952387041,
				"element": "C" 
			},
			{
				"x": -0.7589676568,
				"y": 0.2753484295,
				"z": 2.5342025557,
				"element": "C" 
			},
			{
				"x": 0.0771214985,
				"y": 0.273469261,
				"z": 1.2842591732,
				"element": "C" 
			},
			{
				"x": 0.1644487781,
				"y": 1.2568146338,
				"z": 0.3227688235,
				"element": "C" 
			},
			{
				"x": 1.0347729705,
				"y": 0.9294310159,
				"z": -0.7438769126,
				"element": "C" 
			},
			{
				"x": 1.625998566,
				"y": -0.309598953,
				"z": -0.6066888307,
				"element": "C" 
			},
			{
				"x": 1.0950576219,
				"y": -1.0783601543,
				"z": 0.8761174511,
				"element": "S" 
			},
			{
				"x": 2.5377934535,
				"y": -0.9085033679,
				"z": -1.5908645885,
				"element": "C" 
			},
			{
				"x": 2.8259580054,
				"y": -0.3253710305,
				"z": -2.6263019053,
				"element": "O" 
			},
			{
				"x": 3.1102801354,
				"y": -2.3064414687,
				"z": -1.3420571006,
				"element": "C" 
			},
			{
				"x": 4.3565553038,
				"y": -2.2939753991,
				"z": -0.0217604427,
				"element": "Cl" 
			},
			{
				"x": -2.6067220046,
				"y": -0.4890173901,
				"z": 1.6549097884,
				"element": "H" 
			},
			{
				"x": -2.5236588236,
				"y": -0.6449139912,
				"z": 3.4199118443,
				"element": "H" 
			},
			{
				"x": -1.594913976,
				"y": -1.7419047021,
				"z": 2.3865362579,
				"element": "H" 
			},
			{
				"x": -0.1283778091,
				"y": 0.0514355766,
				"z": 3.4035581845,
				"element": "H" 
			},
			{
				"x": -1.1338036371,
				"y": 1.2946614231,
				"z": 2.6793834847,
				"element": "H" 
			},
			{
				"x": -0.3865404006,
				"y": 2.1885895092,
				"z": 0.3914379036,
				"element": "H" 
			},
			{
				"x": 1.2377709703,
				"y": 1.5601096132,
				"z": -1.6010172886,
				"element": "H" 
			},
			{
				"x": 2.3402430486,
				"y": -3.0210021438,
				"z": -1.0431177545,
				"element": "H" 
			},
			{
				"x": 3.6063695482,
				"y": -2.6357760509,
				"z": -2.2531393474,
				"element": "H" 
			}
		],
		 "valence_orbital": [ 
			{
				"type": "occ",
				"energy": -0.31421,
				"method": "rhf"
			},
			{
				"type": "occ",
				"energy": -0.30393,
				"method": "rhf"
			},
			{
				"type": "occ",
				"energy": -0.26437,
				"method": "rhf"
			},
			{
				"type": "occ",
				"energy": -0.25943,
				"method": "rhf"
			},
			{
				"type": "occ",
				"energy": -0.24246,
				"method": "rhf"
			},
			{
				"type": "unocc",
				"energy": -0.07355,
				"method": "rhf"
			},
			{
				"type": "unocc",
				"energy": -0.00319,
				"method": "rhf"
			},
			{
				"type": "unocc",
				"energy": 0.01509,
				"method": "rhf"
			},
			{
				"type": "unocc",
				"energy": 0.03943,
				"method": "rhf"
			},
			{
				"type": "unocc",
				"energy": 0.07198,
				"method": "rhf"
			}
		],
		"cosmo_sigma_profile": { 
			"-0.025": 0.0,
			"-0.024": 0.0,
			"-0.023": 0.0,
			"-0.022": 0.0,
			"-0.021": 0.0,
			"-0.02": 0.0,
			"-0.019": 0.0,
			"-0.018": 0.0,
			"-0.017": 0.0,
			"-0.016": 0.0,
			"-0.015": 0.0,
			"-0.014": 0.0,
			"-0.013": 0.0,
			"-0.012": 0.0,
			"-0.011": 0.0,
			"-0.01": 0.0,
			"-0.009": 1.94733589161,
			"-0.008": 4.47280970681,
			"-0.007": 6.90831591008,
			"-0.006": 9.36677738453,
			"-0.005": 13.519816408,
			"-0.004": 14.6448847778,
			"-0.003": 16.8709416881,
			"-0.002": 17.4801063186,
			"-0.001": 17.9999698215,
			"0.0": 18.6675463505,
			"0.001": 18.8642993361,
			"0.002": 20.2145277962,
			"0.003": 16.4887219948,
			"0.004": 11.8874806277,
			"0.005": 12.0582339765,
			"0.006": 4.71567601487,
			"0.007": 1.6715036333,
			"0.008": 1.61350278271,
			"0.009": 1.85686902093,
			"0.01": 2.23856807132,
			"0.011": 4.58675641236,
			"0.012": 2.17445762392,
			"0.013": 0.129295300762,
			"0.014": 0.0,
			"0.015": 0.0,
			"0.016": 0.0,
			"0.017": 0.0,
			"0.018": 0.0,
			"0.019": 0.0,
			"0.02": 0.0,
			"0.021": 0.0,
			"0.022": 0.0,
			"0.023": 0.0,
			"0.024": 0.0,
			"0.025": 0.0
		}
	}
}
