{
	 "smiles": "O=C1NC=NC2=C1SN=C2C1=CC=CC=C1", 
	 "Tm": 530.15, 
	 "num_atms": 23, 
	 "gaussian": { 
		 "optdone": 1, 
		 "sigma_profile": "yes", 
		 "theory": "DFT", 
		 "functional": "B3LYP", 
		 "basiset": "6-31G**", 
		 "properties": { 
			 "R2extent": 4301.7975, 
			 "electric_dipole_moment_norm": 3.88068701521, 
			 "electric_quadrupole_moment_norm": 13.6997046895, 
			 "total_energy": -1061.06256639, 
			 "HOMO_LUMO_gap": 0.15692, 
			 "cosmo_polarized_energy": -14.9, 
			 "cosmo_cavitation_energy": 29.42, 
			 "cosmo_dispersion_energy": -22.74, 
			 "cosmo_repulsion_energy": 1.68, 
			 "cosmo_total_nonelectrostatic_energy": 8.37, 
			 "SMD_solvation_energy": 3.72 
		},
		"coords": [
			{
				"x": -2.4230711819,
				"y": -2.7726608504,
				"z": 1.2869772156,
				"element": "O" 
			},
			{
				"x": -1.8442909126,
				"y": -2.1320432939,
				"z": 0.4244784006,
				"element": "C" 
			},
			{
				"x": -2.0946584535,
				"y": -2.3408046959,
				"z": -0.9501474905,
				"element": "N" 
			},
			{
				"x": -1.4805528824,
				"y": -1.6572653911,
				"z": -1.9661538876,
				"element": "C" 
			},
			{
				"x": -0.5908315079,
				"y": -0.730908571,
				"z": -1.8003354681,
				"element": "N" 
			},
			{
				"x": -0.2647572365,
				"y": -0.4401138449,
				"z": -0.4909435771,
				"element": "C" 
			},
			{
				"x": -0.8476247923,
				"y": -1.0935910727,
				"z": 0.591782645,
				"element": "C" 
			},
			{
				"x": -0.2084596895,
				"y": -0.4814280338,
				"z": 2.064660158,
				"element": "S" 
			},
			{
				"x": 0.8015392398,
				"y": 0.607716414,
				"z": 1.2919520392,
				"element": "N" 
			},
			{
				"x": 0.6958552406,
				"y": 0.5485507879,
				"z": -0.0260430616,
				"element": "C" 
			},
			{
				"x": 1.5313263509,
				"y": 1.4556779596,
				"z": -0.8477479888,
				"element": "C" 
			},
			{
				"x": 2.411506213,
				"y": 2.3434157332,
				"z": -0.2006700284,
				"element": "C" 
			},
			{
				"x": 3.2116983685,
				"y": 3.2103722995,
				"z": -0.936974831,
				"element": "C" 
			},
			{
				"x": 3.1511030787,
				"y": 3.2104465219,
				"z": -2.3336735916,
				"element": "C" 
			},
			{
				"x": 2.282131389,
				"y": 2.3345272803,
				"z": -2.9835547174,
				"element": "C" 
			},
			{
				"x": 1.4759960538,
				"y": 1.4615403814,
				"z": -2.2518751227,
				"element": "C" 
			},
			{
				"x": -2.7830440316,
				"y": -3.0544273674,
				"z": -1.1605035229,
				"element": "H" 
			},
			{
				"x": -1.7852837222,
				"y": -1.9375422222,
				"z": -2.9715920688,
				"element": "H" 
			},
			{
				"x": 2.4552700192,
				"y": 2.3399770995,
				"z": 0.8825423257,
				"element": "H" 
			},
			{
				"x": 3.8851118885,
				"y": 3.888486804,
				"z": -0.4205386763,
				"element": "H" 
			},
			{
				"x": 3.7765855213,
				"y": 3.888018278,
				"z": -2.9079867236,
				"element": "H" 
			},
			{
				"x": 2.2278168366,
				"y": 2.3270573477,
				"z": -4.0685541042,
				"element": "H" 
			},
			{
				"x": 0.8040342106,
				"y": 0.7841984361,
				"z": -2.7627979237,
				"element": "H" 
			}
		],
		 "valence_orbital": [ 
			{
				"type": "occ",
				"energy": -0.28855,
				"method": "rhf"
			},
			{
				"type": "occ",
				"energy": -0.28211,
				"method": "rhf"
			},
			{
				"type": "occ",
				"energy": -0.25603,
				"method": "rhf"
			},
			{
				"type": "occ",
				"energy": -0.24913,
				"method": "rhf"
			},
			{
				"type": "occ",
				"energy": -0.22895,
				"method": "rhf"
			},
			{
				"type": "unocc",
				"energy": -0.07203,
				"method": "rhf"
			},
			{
				"type": "unocc",
				"energy": -0.04365,
				"method": "rhf"
			},
			{
				"type": "unocc",
				"energy": -0.01372,
				"method": "rhf"
			},
			{
				"type": "unocc",
				"energy": 0.00216,
				"method": "rhf"
			},
			{
				"type": "unocc",
				"energy": 0.00553,
				"method": "rhf"
			}
		],
		"cosmo_sigma_profile": { 
			"-0.025": 0.0,
			"-0.024": 0.0,
			"-0.023": 0.0,
			"-0.022": 0.0,
			"-0.021": 0.0,
			"-0.02": 0.0,
			"-0.019": 0.0,
			"-0.018": 0.369946411184,
			"-0.017": 1.67986955253,
			"-0.016": 1.61718487293,
			"-0.015": 1.87161684396,
			"-0.014": 0.618673743347,
			"-0.013": 0.661456832917,
			"-0.012": 1.6610326641,
			"-0.011": 2.40073185929,
			"-0.01": 3.15204725089,
			"-0.009": 1.99837610908,
			"-0.008": 2.95884560524,
			"-0.007": 1.39422750842,
			"-0.006": 6.19576606496,
			"-0.005": 11.0269753896,
			"-0.004": 14.993673561,
			"-0.003": 18.8688093021,
			"-0.002": 19.8111203669,
			"-0.001": 19.483131689,
			"0.0": 16.9693556244,
			"0.001": 17.7620723825,
			"0.002": 19.198749411,
			"0.003": 17.283069075,
			"0.004": 14.3527912364,
			"0.005": 16.1013705731,
			"0.006": 5.23528205216,
			"0.007": 4.31825048203,
			"0.008": 3.40415136967,
			"0.009": 2.14218028701,
			"0.01": 3.20641342509,
			"0.011": 2.69068202737,
			"0.012": 5.70737215177,
			"0.013": 1.50529470917,
			"0.014": 0.0,
			"0.015": 0.0,
			"0.016": 0.0,
			"0.017": 0.0,
			"0.018": 0.0,
			"0.019": 0.0,
			"0.02": 0.0,
			"0.021": 0.0,
			"0.022": 0.0,
			"0.023": 0.0,
			"0.024": 0.0,
			"0.025": 0.0
		}
	}
}
