{
	 "smiles": "CCN1C(C)=CC(C(O)=O)=C1C", 
	 "Tm": 290.15, 
	 "num_atms": 25, 
	 "gaussian": { 
		 "optdone": 1, 
		 "sigma_profile": "yes", 
		 "theory": "DFT", 
		 "functional": "B3LYP", 
		 "basiset": "6-31G**", 
		 "properties": { 
			 "R2extent": 2685.5886, 
			 "electric_dipole_moment_norm": 3.86268829056, 
			 "electric_quadrupole_moment_norm": 8.70798672829, 
			 "total_energy": -556.025329095, 
			 "HOMO_LUMO_gap": 0.19744, 
			 "cosmo_polarized_energy": -11.67, 
			 "cosmo_cavitation_energy": 28.14, 
			 "cosmo_dispersion_energy": -19.88, 
			 "cosmo_repulsion_energy": 1.58, 
			 "cosmo_total_nonelectrostatic_energy": 9.85, 
			 "SMD_solvation_energy": 5.97 
		},
		"coords": [
			{
				"x": -0.4610440887,
				"y": 2.5676415854,
				"z": 0.2007943243,
				"element": "C" 
			},
			{
				"x": -1.3022232749,
				"y": 1.3212579201,
				"z": 0.4969320569,
				"element": "C" 
			},
			{
				"x": -0.6737761763,
				"y": 0.0806224317,
				"z": 0.0516805009,
				"element": "N" 
			},
			{
				"x": 0.2268782023,
				"y": -0.6744346991,
				"z": 0.8072395936,
				"element": "C" 
			},
			{
				"x": 0.5829411672,
				"y": -0.3331786257,
				"z": 2.2192494048,
				"element": "C" 
			},
			{
				"x": 0.6448923627,
				"y": -1.7195892165,
				"z": 0.0250713472,
				"element": "C" 
			},
			{
				"x": -0.0089701835,
				"y": -1.6073650646,
				"z": -1.2423324326,
				"element": "C" 
			},
			{
				"x": 0.1339370129,
				"y": -2.5072722289,
				"z": -2.3810723321,
				"element": "C" 
			},
			{
				"x": 1.0032813541,
				"y": -3.5269697324,
				"z": -2.1272222181,
				"element": "O" 
			},
			{
				"x": -0.4254335741,
				"y": -2.4199425072,
				"z": -3.4648848172,
				"element": "O" 
			},
			{
				"x": -0.8223903856,
				"y": -0.4754962047,
				"z": -1.1970891438,
				"element": "C" 
			},
			{
				"x": -1.7307699923,
				"y": 0.0969134338,
				"z": -2.2378032533,
				"element": "C" 
			},
			{
				"x": 0.5120298954,
				"y": 2.5138668459,
				"z": 0.6973840803,
				"element": "H" 
			},
			{
				"x": -0.9779038022,
				"y": 3.4649551427,
				"z": 0.5563874178,
				"element": "H" 
			},
			{
				"x": -0.2848727447,
				"y": 2.6767225481,
				"z": -0.8730873407,
				"element": "H" 
			},
			{
				"x": -2.2785571027,
				"y": 1.3997020042,
				"z": 0.0115391953,
				"element": "H" 
			},
			{
				"x": -1.4905904352,
				"y": 1.2378666258,
				"z": 1.5709369399,
				"element": "H" 
			},
			{
				"x": 1.0433977465,
				"y": 0.657956709,
				"z": 2.3164960378,
				"element": "H" 
			},
			{
				"x": -0.2857005735,
				"y": -0.3560355939,
				"z": 2.890206851,
				"element": "H" 
			},
			{
				"x": 1.3017967476,
				"y": -1.0660143364,
				"z": 2.5930186217,
				"element": "H" 
			},
			{
				"x": 1.3378845635,
				"y": -2.495190231,
				"z": 0.3157309046,
				"element": "H" 
			},
			{
				"x": 1.0186757263,
				"y": -4.0526761769,
				"z": -2.9433877558,
				"element": "H" 
			},
			{
				"x": -1.6612024622,
				"y": -0.5189434891,
				"z": -3.1341048952,
				"element": "H" 
			},
			{
				"x": -2.7771108595,
				"y": 0.1055512075,
				"z": -1.9059066722,
				"element": "H" 
			},
			{
				"x": -1.4626691232,
				"y": 1.1274516522,
				"z": -2.5009764153,
				"element": "H" 
			}
		],
		 "valence_orbital": [ 
			{
				"type": "occ",
				"energy": -0.35075,
				"method": "rhf"
			},
			{
				"type": "occ",
				"energy": -0.29642,
				"method": "rhf"
			},
			{
				"type": "occ",
				"energy": -0.25431,
				"method": "rhf"
			},
			{
				"type": "occ",
				"energy": -0.23706,
				"method": "rhf"
			},
			{
				"type": "occ",
				"energy": -0.20178,
				"method": "rhf"
			},
			{
				"type": "unocc",
				"energy": -0.00434,
				"method": "rhf"
			},
			{
				"type": "unocc",
				"energy": 0.04364,
				"method": "rhf"
			},
			{
				"type": "unocc",
				"energy": 0.07331,
				"method": "rhf"
			},
			{
				"type": "unocc",
				"energy": 0.09682,
				"method": "rhf"
			},
			{
				"type": "unocc",
				"energy": 0.09879,
				"method": "rhf"
			}
		],
		"cosmo_sigma_profile": { 
			"-0.025": 0.0,
			"-0.024": 0.0,
			"-0.023": 0.0,
			"-0.022": 0.0,
			"-0.021": 0.0,
			"-0.02": 0.0,
			"-0.019": 0.0,
			"-0.018": 0.0731804430587,
			"-0.017": 0.603049254066,
			"-0.016": 0.931372217458,
			"-0.015": 0.885834416158,
			"-0.014": 0.918122956517,
			"-0.013": 0.243606977083,
			"-0.012": 0.547797313851,
			"-0.011": 0.722737573073,
			"-0.01": 0.594314136303,
			"-0.009": 0.69565381914,
			"-0.008": 0.636127914843,
			"-0.007": 0.629902494527,
			"-0.006": 4.24954515983,
			"-0.005": 15.876128182,
			"-0.004": 22.6481287795,
			"-0.003": 24.6341463868,
			"-0.002": 21.1949417461,
			"-0.001": 21.217471985,
			"0.0": 22.7733536437,
			"0.001": 12.2183612849,
			"0.002": 8.58523802214,
			"0.003": 9.07453758725,
			"0.004": 9.55232368907,
			"0.005": 9.39282503681,
			"0.006": 7.09841630088,
			"0.007": 6.6245472424,
			"0.008": 3.93459102713,
			"0.009": 3.58371111641,
			"0.01": 2.10657968926,
			"0.011": 2.10757021658,
			"0.012": 3.12786449391,
			"0.013": 3.29633780153,
			"0.014": 0.162107493887,
			"0.015": 0.0,
			"0.016": 0.0,
			"0.017": 0.0,
			"0.018": 0.0,
			"0.019": 0.0,
			"0.02": 0.0,
			"0.021": 0.0,
			"0.022": 0.0,
			"0.023": 0.0,
			"0.024": 0.0,
			"0.025": 0.0
		}
	}
}
