{
	 "smiles": "CC1(C)CCC(C#N)=C1N", 
	 "Tm": 382.15, 
	 "num_atms": 22, 
	 "gaussian": { 
		 "optdone": 1, 
		 "sigma_profile": "yes", 
		 "theory": "DFT", 
		 "functional": "B3LYP", 
		 "basiset": "6-31G**", 
		 "properties": { 
			 "R2extent": 2062.82, 
			 "electric_dipole_moment_norm": 5.44125115484, 
			 "electric_quadrupole_moment_norm": 21.4188454019, 
			 "total_energy": -421.579440543, 
			 "HOMO_LUMO_gap": 0.20071, 
			 "cosmo_polarized_energy": -12.96, 
			 "cosmo_cavitation_energy": 24.67, 
			 "cosmo_dispersion_energy": -17.22, 
			 "cosmo_repulsion_energy": 1.41, 
			 "cosmo_total_nonelectrostatic_energy": 8.86, 
			 "SMD_solvation_energy": 5.4 
		},
		"coords": [
			{
				"x": -0.0308718637,
				"y": 0.6004745004,
				"z": -1.6830675418,
				"element": "C" 
			},
			{
				"x": 0.4043724205,
				"y": 1.0400046059,
				"z": -0.2743870952,
				"element": "C" 
			},
			{
				"x": -0.8188672871,
				"y": 1.5682800045,
				"z": 0.5106998576,
				"element": "C" 
			},
			{
				"x": 1.5467951549,
				"y": 2.0946790005,
				"z": -0.3218323449,
				"element": "C" 
			},
			{
				"x": 2.4431712297,
				"y": 1.8221757974,
				"z": 0.9084476791,
				"element": "C" 
			},
			{
				"x": 2.1841268632,
				"y": 0.3504444199,
				"z": 1.1700910688,
				"element": "C" 
			},
			{
				"x": 2.9540414244,
				"y": -0.4757120448,
				"z": 2.0231096663,
				"element": "C" 
			},
			{
				"x": 3.5733446201,
				"y": -1.1886257462,
				"z": 2.7104216667,
				"element": "N" 
			},
			{
				"x": 1.0652402449,
				"y": -0.0825294902,
				"z": 0.5226132547,
				"element": "C" 
			},
			{
				"x": 0.4778040958,
				"y": -1.3120386275,
				"z": 0.624298628,
				"element": "N" 
			},
			{
				"x": -0.387360975,
				"y": 1.4647223216,
				"z": -2.2532294285,
				"element": "H" 
			},
			{
				"x": 0.7997578823,
				"y": 0.151478996,
				"z": -2.2375943163,
				"element": "H" 
			},
			{
				"x": -0.8569991621,
				"y": -0.1207582309,
				"z": -1.6533594328,
				"element": "H" 
			},
			{
				"x": -0.5238727597,
				"y": 1.948561987,
				"z": 1.4934359649,
				"element": "H" 
			},
			{
				"x": -1.3009683662,
				"y": 2.3827565333,
				"z": -0.0409152258,
				"element": "H" 
			},
			{
				"x": -1.5590138255,
				"y": 0.7774235862,
				"z": 0.667854994,
				"element": "H" 
			},
			{
				"x": 1.1569248796,
				"y": 3.1169631738,
				"z": -0.3496712716,
				"element": "H" 
			},
			{
				"x": 2.1349943449,
				"y": 1.9425386205,
				"z": -1.2336745046,
				"element": "H" 
			},
			{
				"x": 3.4975616709,
				"y": 2.0384093322,
				"z": 0.7070324179,
				"element": "H" 
			},
			{
				"x": 2.1534996426,
				"y": 2.4398514698,
				"z": 1.7699919852,
				"element": "H" 
			},
			{
				"x": 1.0033591757,
				"y": -2.0414484149,
				"z": 1.0872421703,
				"element": "H" 
			},
			{
				"x": -0.1041394102,
				"y": -1.6241517945,
				"z": -0.1379081923,
				"element": "H" 
			}
		],
		 "valence_orbital": [ 
			{
				"type": "occ",
				"energy": -0.33228,
				"method": "rhf"
			},
			{
				"type": "occ",
				"energy": -0.32741,
				"method": "rhf"
			},
			{
				"type": "occ",
				"energy": -0.32181,
				"method": "rhf"
			},
			{
				"type": "occ",
				"energy": -0.30512,
				"method": "rhf"
			},
			{
				"type": "occ",
				"energy": -0.20932,
				"method": "rhf"
			},
			{
				"type": "unocc",
				"energy": -0.00861,
				"method": "rhf"
			},
			{
				"type": "unocc",
				"energy": 0.0403,
				"method": "rhf"
			},
			{
				"type": "unocc",
				"energy": 0.06149,
				"method": "rhf"
			},
			{
				"type": "unocc",
				"energy": 0.08854,
				"method": "rhf"
			},
			{
				"type": "unocc",
				"energy": 0.10876,
				"method": "rhf"
			}
		],
		"cosmo_sigma_profile": { 
			"-0.025": 0.0,
			"-0.024": 0.0,
			"-0.023": 0.0,
			"-0.022": 0.0,
			"-0.021": 0.0,
			"-0.02": 0.0,
			"-0.019": 0.0,
			"-0.018": 0.0,
			"-0.017": 0.0,
			"-0.016": 0.0,
			"-0.015": 0.0,
			"-0.014": 0.14376763058,
			"-0.013": 2.10837414839,
			"-0.012": 1.46338333982,
			"-0.011": 3.31603489428,
			"-0.01": 2.26593491533,
			"-0.009": 2.43343861402,
			"-0.008": 1.86566497549,
			"-0.007": 2.65177275403,
			"-0.006": 2.00401237928,
			"-0.005": 2.70577513322,
			"-0.004": 7.71097560863,
			"-0.003": 25.8633218167,
			"-0.002": 27.3695163433,
			"-0.001": 23.105825689,
			"0.0": 24.2344274071,
			"0.001": 15.01626257,
			"0.002": 6.48629362987,
			"0.003": 6.96638367521,
			"0.004": 3.84386779929,
			"0.005": 3.25045677331,
			"0.006": 2.51814156667,
			"0.007": 2.58420001982,
			"0.008": 3.12039559668,
			"0.009": 3.30305488938,
			"0.01": 3.27076839705,
			"0.011": 3.69841811158,
			"0.012": 3.48518439638,
			"0.013": 2.80335100114,
			"0.014": 2.54266846824,
			"0.015": 1.03788419816,
			"0.016": 0.0,
			"0.017": 0.0,
			"0.018": 0.0,
			"0.019": 0.0,
			"0.02": 0.0,
			"0.021": 0.0,
			"0.022": 0.0,
			"0.023": 0.0,
			"0.024": 0.0,
			"0.025": 0.0
		}
	}
}
