{
	 "smiles": "NC1=C(N)C=C2OCCCOC2=C1", 
	 "Tm": 396.15, 
	 "num_atms": 25, 
	 "gaussian": { 
		 "optdone": 1, 
		 "sigma_profile": "yes", 
		 "theory": "DFT", 
		 "functional": "B3LYP", 
		 "basiset": "6-31G**", 
		 "properties": { 
			 "R2extent": 2867.8154, 
			 "electric_dipole_moment_norm": 0.8341742324, 
			 "electric_quadrupole_moment_norm": 20.3553962504, 
			 "total_energy": -610.116129894, 
			 "HOMO_LUMO_gap": 0.19199, 
			 "cosmo_polarized_energy": -14.75, 
			 "cosmo_cavitation_energy": 27.18, 
			 "cosmo_dispersion_energy": -20.71, 
			 "cosmo_repulsion_energy": 1.65, 
			 "cosmo_total_nonelectrostatic_energy": 8.12, 
			 "SMD_solvation_energy": 4.59 
		},
		"coords": [
			{
				"x": 1.9996586848,
				"y": -2.3752568423,
				"z": -2.4332804891,
				"element": "N" 
			},
			{
				"x": 1.3479919639,
				"y": -1.4649643091,
				"z": -1.6006107172,
				"element": "C" 
			},
			{
				"x": -0.0078617591,
				"y": -1.6665755325,
				"z": -1.2511324281,
				"element": "C" 
			},
			{
				"x": -0.6501982856,
				"y": -2.8585188861,
				"z": -1.7077845028,
				"element": "N" 
			},
			{
				"x": -0.6719878637,
				"y": -0.6894025987,
				"z": -0.5114736583,
				"element": "C" 
			},
			{
				"x": -0.0301728734,
				"y": 0.4715099189,
				"z": -0.0702069616,
				"element": "C" 
			},
			{
				"x": -0.7480193234,
				"y": 1.3301080793,
				"z": 0.7378763818,
				"element": "O" 
			},
			{
				"x": -0.8462392606,
				"y": 2.6889277563,
				"z": 0.3090087532,
				"element": "C" 
			},
			{
				"x": 0.4268220324,
				"y": 3.4896933399,
				"z": 0.5668777255,
				"element": "C" 
			},
			{
				"x": 1.6188794176,
				"y": 3.0244139392,
				"z": -0.264617006,
				"element": "C" 
			},
			{
				"x": 2.07350645,
				"y": 1.7147330603,
				"z": 0.0822346609,
				"element": "O" 
			},
			{
				"x": 1.3280380429,
				"y": 0.6509218431,
				"z": -0.3794858861,
				"element": "C" 
			},
			{
				"x": 1.9912617543,
				"y": -0.3074813588,
				"z": -1.1487378,
				"element": "C" 
			},
			{
				"x": 2.9744654143,
				"y": -2.5508372086,
				"z": -2.2425188047,
				"element": "H" 
			},
			{
				"x": 1.4632425754,
				"y": -3.1970451409,
				"z": -2.6673144493,
				"element": "H" 
			},
			{
				"x": -0.3164186927,
				"y": -3.6769194126,
				"z": -1.2014366015,
				"element": "H" 
			},
			{
				"x": -1.6547396325,
				"y": -2.8084115267,
				"z": -1.5763338474,
				"element": "H" 
			},
			{
				"x": -1.7108085505,
				"y": -0.8306350358,
				"z": -0.2252016127,
				"element": "H" 
			},
			{
				"x": -1.1139093224,
				"y": 2.7249152848,
				"z": -0.7581252937,
				"element": "H" 
			},
			{
				"x": -1.6780217585,
				"y": 3.109807044,
				"z": 0.8823949589,
				"element": "H" 
			},
			{
				"x": 0.230423825,
				"y": 4.5457973883,
				"z": 0.3353240077,
				"element": "H" 
			},
			{
				"x": 0.6827721553,
				"y": 3.4267107397,
				"z": 1.6306761071,
				"element": "H" 
			},
			{
				"x": 2.4783754037,
				"y": 3.678211462,
				"z": -0.0879647133,
				"element": "H" 
			},
			{
				"x": 1.3770726982,
				"y": 3.0611972135,
				"z": -1.3376630208,
				"element": "H" 
			},
			{
				"x": 3.0301669046,
				"y": -0.1228992171,
				"z": -1.4047048025,
				"element": "H" 
			}
		],
		 "valence_orbital": [ 
			{
				"type": "occ",
				"energy": -0.2841,
				"method": "rhf"
			},
			{
				"type": "occ",
				"energy": -0.2776,
				"method": "rhf"
			},
			{
				"type": "occ",
				"energy": -0.25025,
				"method": "rhf"
			},
			{
				"type": "occ",
				"energy": -0.21256,
				"method": "rhf"
			},
			{
				"type": "occ",
				"energy": -0.17623,
				"method": "rhf"
			},
			{
				"type": "unocc",
				"energy": 0.01576,
				"method": "rhf"
			},
			{
				"type": "unocc",
				"energy": 0.03239,
				"method": "rhf"
			},
			{
				"type": "unocc",
				"energy": 0.07621,
				"method": "rhf"
			},
			{
				"type": "unocc",
				"energy": 0.09397,
				"method": "rhf"
			},
			{
				"type": "unocc",
				"energy": 0.10972,
				"method": "rhf"
			}
		],
		"cosmo_sigma_profile": { 
			"-0.025": 0.0,
			"-0.024": 0.0,
			"-0.023": 0.0,
			"-0.022": 0.0,
			"-0.021": 0.0,
			"-0.02": 0.0,
			"-0.019": 0.0,
			"-0.018": 0.0,
			"-0.017": 0.0,
			"-0.016": 0.0,
			"-0.015": 0.0,
			"-0.014": 0.0,
			"-0.013": 0.0268696344652,
			"-0.012": 1.51321183154,
			"-0.011": 3.63993437932,
			"-0.01": 4.8661594,
			"-0.009": 5.33163051891,
			"-0.008": 6.18111685851,
			"-0.007": 5.61498173602,
			"-0.006": 6.48236993659,
			"-0.005": 13.4202779483,
			"-0.004": 23.5339691402,
			"-0.003": 18.5380132732,
			"-0.002": 15.7479459966,
			"-0.001": 11.5120741263,
			"0.0": 7.90421401048,
			"0.001": 7.35460206362,
			"0.002": 7.25319242577,
			"0.003": 6.83894908826,
			"0.004": 9.11183893222,
			"0.005": 10.3265439995,
			"0.006": 13.7843582513,
			"0.007": 7.59145750534,
			"0.008": 5.11666318968,
			"0.009": 5.36035970102,
			"0.01": 4.52021568567,
			"0.011": 3.24081180769,
			"0.012": 4.53329203461,
			"0.013": 1.73938221895,
			"0.014": 1.11680209555,
			"0.015": 0.702319373642,
			"0.016": 0.0693249087523,
			"0.017": 0.0,
			"0.018": 0.0,
			"0.019": 0.0,
			"0.02": 0.0,
			"0.021": 0.0,
			"0.022": 0.0,
			"0.023": 0.0,
			"0.024": 0.0,
			"0.025": 0.0
		}
	}
}
