{
	 "smiles": "CNC(=O)SC1=CC=C(OS(C)(=O)=O)C=C1", 
	 "Tm": 411.15, 
	 "num_atms": 27, 
	 "gaussian": { 
		 "optdone": 1, 
		 "sigma_profile": "yes", 
		 "theory": "DFT", 
		 "functional": "B3LYP", 
		 "basiset": "6-31G**", 
		 "properties": { 
			 "R2extent": 7633.1462, 
			 "electric_dipole_moment_norm": 2.73662132748, 
			 "electric_quadrupole_moment_norm": 42.109035541, 
			 "total_energy": -1501.54881311, 
			 "HOMO_LUMO_gap": 0.20808, 
			 "cosmo_polarized_energy": -19.96, 
			 "cosmo_cavitation_energy": 35.15, 
			 "cosmo_dispersion_energy": -26.04, 
			 "cosmo_repulsion_energy": 1.97, 
			 "cosmo_total_nonelectrostatic_energy": 11.08, 
			 "SMD_solvation_energy": 5.81 
		},
		"coords": [
			{
				"x": 1.1643981397,
				"y": 1.6545101054,
				"z": 5.169294318,
				"element": "C" 
			},
			{
				"x": 2.1474194699,
				"y": 1.0965031624,
				"z": 4.2531321551,
				"element": "N" 
			},
			{
				"x": 2.0188779197,
				"y": 0.9147961672,
				"z": 2.9101090908,
				"element": "C" 
			},
			{
				"x": 2.8906537722,
				"y": 0.454053255,
				"z": 2.2011279774,
				"element": "O" 
			},
			{
				"x": 0.3794855278,
				"y": 1.4690367092,
				"z": 2.2807667803,
				"element": "S" 
			},
			{
				"x": 0.4853721774,
				"y": 0.9526107111,
				"z": 0.5732633258,
				"element": "C" 
			},
			{
				"x": -0.5298379405,
				"y": 0.1326889813,
				"z": 0.0657025004,
				"element": "C" 
			},
			{
				"x": -0.5297941878,
				"y": -0.2361499813,
				"z": -1.2791387447,
				"element": "C" 
			},
			{
				"x": 0.5044780437,
				"y": 0.2109228477,
				"z": -2.0977452797,
				"element": "C" 
			},
			{
				"x": 0.5651629517,
				"y": -0.2127551905,
				"z": -3.4352768638,
				"element": "O" 
			},
			{
				"x": -0.3898499763,
				"y": 0.615073395,
				"z": -4.5267940806,
				"element": "S" 
			},
			{
				"x": 0.1801429123,
				"y": -0.2880425888,
				"z": -5.9672526328,
				"element": "C" 
			},
			{
				"x": 0.0565845271,
				"y": 2.0027957232,
				"z": -4.5928128274,
				"element": "O" 
			},
			{
				"x": -1.7925259017,
				"y": 0.3023651751,
				"z": -4.2680437005,
				"element": "O" 
			},
			{
				"x": 1.5236261294,
				"y": 1.0262964223,
				"z": -1.6096422807,
				"element": "C" 
			},
			{
				"x": 1.5100528733,
				"y": 1.4033766504,
				"z": -0.2691415453,
				"element": "C" 
			},
			{
				"x": 1.5610229937,
				"y": 1.5760220732,
				"z": 6.1830133601,
				"element": "H" 
			},
			{
				"x": 0.2209906133,
				"y": 1.10049957,
				"z": 5.1289058089,
				"element": "H" 
			},
			{
				"x": 0.958805287,
				"y": 2.7110596094,
				"z": 4.9618778499,
				"element": "H" 
			},
			{
				"x": 3.0588258246,
				"y": 0.8380647149,
				"z": 4.6045861659,
				"element": "H" 
			},
			{
				"x": -1.3171411291,
				"y": -0.2208954521,
				"z": 0.7231860205,
				"element": "H" 
			},
			{
				"x": -1.3090061489,
				"y": -0.8668918299,
				"z": -1.6907476738,
				"element": "H" 
			},
			{
				"x": -0.36419597,
				"y": 0.1175714668,
				"z": -6.8213710532,
				"element": "H" 
			},
			{
				"x": 1.2518048378,
				"y": -0.1260678707,
				"z": -6.0793438551,
				"element": "H" 
			},
			{
				"x": -0.0500972126,
				"y": -1.3441981609,
				"z": -5.8294750049,
				"element": "H" 
			},
			{
				"x": 2.30769588,
				"y": 1.3612502394,
				"z": -2.2792746917,
				"element": "H" 
			},
			{
				"x": 2.2955485865,
				"y": 2.0362040953,
				"z": 0.1243948809,
				"element": "H" 
			}
		],
		 "valence_orbital": [ 
			{
				"type": "occ",
				"energy": -0.27763,
				"method": "rhf"
			},
			{
				"type": "occ",
				"energy": -0.26618,
				"method": "rhf"
			},
			{
				"type": "occ",
				"energy": -0.26397,
				"method": "rhf"
			},
			{
				"type": "occ",
				"energy": -0.25498,
				"method": "rhf"
			},
			{
				"type": "occ",
				"energy": -0.2347,
				"method": "rhf"
			},
			{
				"type": "unocc",
				"energy": -0.02662,
				"method": "rhf"
			},
			{
				"type": "unocc",
				"energy": -0.01092,
				"method": "rhf"
			},
			{
				"type": "unocc",
				"energy": 0.02621,
				"method": "rhf"
			},
			{
				"type": "unocc",
				"energy": 0.03177,
				"method": "rhf"
			},
			{
				"type": "unocc",
				"energy": 0.03685,
				"method": "rhf"
			}
		],
		"cosmo_sigma_profile": { 
			"-0.025": 0.0,
			"-0.024": 0.0,
			"-0.023": 0.0,
			"-0.022": 0.0,
			"-0.021": 0.0,
			"-0.02": 0.0,
			"-0.019": 0.0,
			"-0.018": 0.0,
			"-0.017": 0.0,
			"-0.016": 0.0,
			"-0.015": 0.347678192081,
			"-0.014": 1.58060984155,
			"-0.013": 0.874618420881,
			"-0.012": 1.44935020769,
			"-0.011": 1.59341002162,
			"-0.01": 4.19143329405,
			"-0.009": 6.72515931289,
			"-0.008": 6.84453703025,
			"-0.007": 14.3192142098,
			"-0.006": 14.7904938518,
			"-0.005": 20.1277671553,
			"-0.004": 16.3506156621,
			"-0.003": 16.9239766657,
			"-0.002": 15.9714565336,
			"-0.001": 13.3471312916,
			"0.0": 15.329117202,
			"0.001": 20.4810847745,
			"0.002": 20.6567585041,
			"0.003": 17.2844536578,
			"0.004": 11.0121431985,
			"0.005": 8.56209541465,
			"0.006": 8.47800493883,
			"0.007": 5.25643055155,
			"0.008": 5.633843782,
			"0.009": 10.0698870995,
			"0.01": 12.2837607198,
			"0.011": 4.10842145778,
			"0.012": 5.20039963276,
			"0.013": 1.9770285222,
			"0.014": 0.0,
			"0.015": 0.0,
			"0.016": 0.0,
			"0.017": 0.0,
			"0.018": 0.0,
			"0.019": 0.0,
			"0.02": 0.0,
			"0.021": 0.0,
			"0.022": 0.0,
			"0.023": 0.0,
			"0.024": 0.0,
			"0.025": 0.0
		}
	}
}
