{
	 "smiles": "OC(=O)C1=C(O)C=CC(=C1)[N+]([O-])=O", 
	 "Tm": 504.15, 
	 "num_atms": 18, 
	 "gaussian": { 
		 "optdone": 1, 
		 "sigma_profile": "yes", 
		 "theory": "DFT", 
		 "functional": "B3LYP", 
		 "basiset": "6-31G**", 
		 "properties": { 
			 "R2extent": 3109.0604, 
			 "electric_dipole_moment_norm": 6.4683262897, 
			 "electric_quadrupole_moment_norm": 14.610575321, 
			 "total_energy": -700.536443806, 
			 "HOMO_LUMO_gap": 0.17679, 
			 "cosmo_polarized_energy": -19.93, 
			 "cosmo_cavitation_energy": 24.17, 
			 "cosmo_dispersion_energy": -17.94, 
			 "cosmo_repulsion_energy": 1.42, 
			 "cosmo_total_nonelectrostatic_energy": 7.65, 
			 "SMD_solvation_energy": 8.22 
		},
		"coords": [
			{
				"x": 0.8139375897,
				"y": 2.7855776861,
				"z": 1.8294215094,
				"element": "O" 
			},
			{
				"x": -0.4388464415,
				"y": 2.4384237819,
				"z": 1.4744174466,
				"element": "C" 
			},
			{
				"x": -1.413895128,
				"y": 3.0605504313,
				"z": 1.8495030324,
				"element": "O" 
			},
			{
				"x": -0.5317380635,
				"y": 1.2373752599,
				"z": 0.5900307241,
				"element": "C" 
			},
			{
				"x": 0.5569119636,
				"y": 0.4656528504,
				"z": 0.1149613194,
				"element": "C" 
			},
			{
				"x": 1.8173677308,
				"y": 0.7985828808,
				"z": 0.4607954014,
				"element": "O" 
			},
			{
				"x": 0.3130240173,
				"y": -0.6448569465,
				"z": -0.7154789471,
				"element": "C" 
			},
			{
				"x": -0.9751361313,
				"y": -0.9982338303,
				"z": -1.0781596019,
				"element": "C" 
			},
			{
				"x": -2.0407841141,
				"y": -0.2303429625,
				"z": -0.6040013466,
				"element": "C" 
			},
			{
				"x": -1.8282500857,
				"y": 0.8683982838,
				"z": 0.2155044097,
				"element": "C" 
			},
			{
				"x": -3.4082097063,
				"y": -0.5959572779,
				"z": -0.9820398826,
				"element": "N" 
			},
			{
				"x": -3.5509400541,
				"y": -1.5783584186,
				"z": -1.7123418988,
				"element": "O" 
			},
			{
				"x": -4.3274883267,
				"y": 0.0970741506,
				"z": -0.5492622019,
				"element": "O" 
			},
			{
				"x": 0.7113362454,
				"y": 3.5706391268,
				"z": 2.3938885463,
				"element": "H" 
			},
			{
				"x": 2.4347400418,
				"y": 0.1748112336,
				"z": 0.0543360609,
				"element": "H" 
			},
			{
				"x": 1.155339382,
				"y": -1.2312810901,
				"z": -1.074855996,
				"element": "H" 
			},
			{
				"x": -1.1727948697,
				"y": -1.8503312174,
				"z": -1.716413966,
				"element": "H" 
			},
			{
				"x": -2.6631740495,
				"y": 1.4554760581,
				"z": 0.5764953907,
				"element": "H" 
			}
		],
		 "valence_orbital": [ 
			{
				"type": "occ",
				"energy": -0.30793,
				"method": "rhf"
			},
			{
				"type": "occ",
				"energy": -0.29162,
				"method": "rhf"
			},
			{
				"type": "occ",
				"energy": -0.29007,
				"method": "rhf"
			},
			{
				"type": "occ",
				"energy": -0.28835,
				"method": "rhf"
			},
			{
				"type": "occ",
				"energy": -0.26482,
				"method": "rhf"
			},
			{
				"type": "unocc",
				"energy": -0.08803,
				"method": "rhf"
			},
			{
				"type": "unocc",
				"energy": -0.06593,
				"method": "rhf"
			},
			{
				"type": "unocc",
				"energy": -0.00713,
				"method": "rhf"
			},
			{
				"type": "unocc",
				"energy": 0.03963,
				"method": "rhf"
			},
			{
				"type": "unocc",
				"energy": 0.04657,
				"method": "rhf"
			}
		],
		"cosmo_sigma_profile": { 
			"-0.025": 0.0,
			"-0.024": 0.0,
			"-0.023": 0.0,
			"-0.022": 0.0,
			"-0.021": 0.0,
			"-0.02": 0.267630867987,
			"-0.019": 1.3555468359,
			"-0.018": 2.44407500543,
			"-0.017": 2.05476300231,
			"-0.016": 1.87914436926,
			"-0.015": 1.55760743485,
			"-0.014": 1.63432475929,
			"-0.013": 1.9575511545,
			"-0.012": 1.8841037304,
			"-0.011": 1.94899762806,
			"-0.01": 1.45315677036,
			"-0.009": 2.66637368096,
			"-0.008": 4.62157955206,
			"-0.007": 5.00453532905,
			"-0.006": 5.44871397001,
			"-0.005": 5.0380751209,
			"-0.004": 6.90921746522,
			"-0.003": 10.4272870524,
			"-0.002": 16.6290008661,
			"-0.001": 22.1277543711,
			"0.0": 14.0822145437,
			"0.001": 8.74797904799,
			"0.002": 5.45725615917,
			"0.003": 4.65660619837,
			"0.004": 6.43422452824,
			"0.005": 5.55902891079,
			"0.006": 5.51695439676,
			"0.007": 9.9127287062,
			"0.008": 11.6644325844,
			"0.009": 7.3751666097,
			"0.01": 6.48913715869,
			"0.011": 5.87007168633,
			"0.012": 3.83819815094,
			"0.013": 0.945545313856,
			"0.014": 0.00192525070658,
			"0.015": 0.0,
			"0.016": 0.0,
			"0.017": 0.0,
			"0.018": 0.0,
			"0.019": 0.0,
			"0.02": 0.0,
			"0.021": 0.0,
			"0.022": 0.0,
			"0.023": 0.0,
			"0.024": 0.0,
			"0.025": 0.0
		}
	}
}
