{
	 "smiles": "OC(C(O)=O)C1=CC=C(Cl)C=C1", 
	 "Tm": 392.65, 
	 "num_atms": 19, 
	 "gaussian": { 
		 "optdone": 1, 
		 "sigma_profile": "yes", 
		 "theory": "DFT", 
		 "functional": "B3LYP", 
		 "basiset": "6-31G**", 
		 "properties": { 
			 "R2extent": 3118.9009, 
			 "electric_dipole_moment_norm": 2.4362319204, 
			 "electric_quadrupole_moment_norm": 9.98081914424, 
			 "total_energy": -994.937633157, 
			 "HOMO_LUMO_gap": 0.22138, 
			 "cosmo_polarized_energy": -11.8, 
			 "cosmo_cavitation_energy": 25.46, 
			 "cosmo_dispersion_energy": -18.82, 
			 "cosmo_repulsion_energy": 1.51, 
			 "cosmo_total_nonelectrostatic_energy": 8.15, 
			 "SMD_solvation_energy": 5.2 
		},
		"coords": [
			{
				"x": -1.7065722973,
				"y": 2.322811763,
				"z": -0.2085082359,
				"element": "O" 
			},
			{
				"x": -1.8947537621,
				"y": 1.1571160712,
				"z": 0.5636254585,
				"element": "C" 
			},
			{
				"x": -2.0514099889,
				"y": 1.4685288881,
				"z": 2.0544191175,
				"element": "C" 
			},
			{
				"x": -1.3820185577,
				"y": 2.5942641447,
				"z": 2.3975548957,
				"element": "O" 
			},
			{
				"x": -2.6599440758,
				"y": 0.7896328262,
				"z": 2.8488252372,
				"element": "O" 
			},
			{
				"x": -0.7880821609,
				"y": 0.1098654695,
				"z": 0.3699522091,
				"element": "C" 
			},
			{
				"x": 0.198934185,
				"y": 0.3140048925,
				"z": -0.597201677,
				"element": "C" 
			},
			{
				"x": 1.1999579459,
				"y": -0.6358976449,
				"z": -0.8067484046,
				"element": "C" 
			},
			{
				"x": 1.2037385159,
				"y": -1.799142818,
				"z": -0.0405132039,
				"element": "C" 
			},
			{
				"x": 2.4611414721,
				"y": -3.0014833796,
				"z": -0.2958930605,
				"element": "Cl" 
			},
			{
				"x": 0.2225975399,
				"y": -2.0270913194,
				"z": 0.9248984528,
				"element": "C" 
			},
			{
				"x": -0.7706117545,
				"y": -1.070255873,
				"z": 1.1251902285,
				"element": "C" 
			},
			{
				"x": -1.0556713313,
				"y": 2.8746431878,
				"z": 0.2482183488,
				"element": "H" 
			},
			{
				"x": -2.8500113177,
				"y": 0.7260207344,
				"z": 0.244675049,
				"element": "H" 
			},
			{
				"x": -1.4988487169,
				"y": 2.712723514,
				"z": 3.3550837585,
				"element": "H" 
			},
			{
				"x": 0.1725316636,
				"y": 1.2158956181,
				"z": -1.1984166727,
				"element": "H" 
			},
			{
				"x": 1.9653950019,
				"y": -0.476257076,
				"z": -1.5582147841,
				"element": "H" 
			},
			{
				"x": 0.237161353,
				"y": -2.9397594486,
				"z": 1.5103365885,
				"element": "H" 
			},
			{
				"x": -1.5341337143,
				"y": -1.2417195501,
				"z": 1.8776166945,
				"element": "H" 
			}
		],
		 "valence_orbital": [ 
			{
				"type": "occ",
				"energy": -0.31413,
				"method": "rhf"
			},
			{
				"type": "occ",
				"energy": -0.31309,
				"method": "rhf"
			},
			{
				"type": "occ",
				"energy": -0.27889,
				"method": "rhf"
			},
			{
				"type": "occ",
				"energy": -0.26638,
				"method": "rhf"
			},
			{
				"type": "occ",
				"energy": -0.24584,
				"method": "rhf"
			},
			{
				"type": "unocc",
				"energy": -0.02446,
				"method": "rhf"
			},
			{
				"type": "unocc",
				"energy": -0.01878,
				"method": "rhf"
			},
			{
				"type": "unocc",
				"energy": -0.00116,
				"method": "rhf"
			},
			{
				"type": "unocc",
				"energy": 0.02965,
				"method": "rhf"
			},
			{
				"type": "unocc",
				"energy": 0.05043,
				"method": "rhf"
			}
		],
		"cosmo_sigma_profile": { 
			"-0.025": 0.0,
			"-0.024": 0.0,
			"-0.023": 0.0,
			"-0.022": 0.0,
			"-0.021": 0.0,
			"-0.02": 0.0184578381627,
			"-0.019": 0.666707652276,
			"-0.018": 0.938957605042,
			"-0.017": 0.78793465725,
			"-0.016": 1.37693149336,
			"-0.015": 0.569282818651,
			"-0.014": 1.36831825964,
			"-0.013": 1.13355830645,
			"-0.012": 1.41072192369,
			"-0.011": 0.926211073257,
			"-0.01": 1.14675579373,
			"-0.009": 1.8996026621,
			"-0.008": 3.78174336415,
			"-0.007": 7.16416526311,
			"-0.006": 8.48003776955,
			"-0.005": 11.5400969435,
			"-0.004": 9.70987273125,
			"-0.003": 10.2747010995,
			"-0.002": 10.4527610227,
			"-0.001": 10.8272830884,
			"0.0": 13.6022581123,
			"0.001": 16.6957421832,
			"0.002": 18.5266083689,
			"0.003": 21.8427073459,
			"0.004": 17.8670798963,
			"0.005": 10.527318715,
			"0.006": 2.33650959253,
			"0.007": 1.63845287479,
			"0.008": 2.42294623367,
			"0.009": 2.76462406455,
			"0.01": 4.20944753046,
			"0.011": 5.34883496641,
			"0.012": 2.26423926609,
			"0.013": 0.751701293202,
			"0.014": 0.0,
			"0.015": 0.0,
			"0.016": 0.0,
			"0.017": 0.0,
			"0.018": 0.0,
			"0.019": 0.0,
			"0.02": 0.0,
			"0.021": 0.0,
			"0.022": 0.0,
			"0.023": 0.0,
			"0.024": 0.0,
			"0.025": 0.0
		}
	}
}
