{
	 "smiles": "CC1=N(=O)C=C(N=C1)C(O)=O", 
	 "Tm": 451.15, 
	 "num_atms": 17, 
	 "gaussian": { 
		 "optdone": 1, 
		 "sigma_profile": "yes", 
		 "theory": "DFT", 
		 "functional": "B3LYP", 
		 "basiset": "6-31G**", 
		 "properties": { 
			 "R2extent": 2060.5069, 
			 "electric_dipole_moment_norm": 5.33101077939, 
			 "electric_quadrupole_moment_norm": 9.88286251144, 
			 "total_energy": -567.379727843, 
			 "HOMO_LUMO_gap": 0.17169, 
			 "cosmo_polarized_energy": -14.6, 
			 "cosmo_cavitation_energy": 22.11, 
			 "cosmo_dispersion_energy": -16.52, 
			 "cosmo_repulsion_energy": 1.32, 
			 "cosmo_total_nonelectrostatic_energy": 6.91, 
			 "SMD_solvation_energy": 5.79 
		},
		"coords": [
			{
				"x": 2.5328700115,
				"y": -0.1299026871,
				"z": 0.8397033559,
				"element": "C" 
			},
			{
				"x": 1.1461334945,
				"y": 0.1279482253,
				"z": 0.3615456757,
				"element": "C" 
			},
			{
				"x": 0.4783597891,
				"y": 1.1813217406,
				"z": 0.9728886211,
				"element": "N" 
			},
			{
				"x": 1.0447048567,
				"y": 1.8585568592,
				"z": 1.8769182449,
				"element": "O" 
			},
			{
				"x": -0.8027047449,
				"y": 1.4615102661,
				"z": 0.5690424035,
				"element": "C" 
			},
			{
				"x": -1.3847959402,
				"y": 0.6967122458,
				"z": -0.4224420738,
				"element": "C" 
			},
			{
				"x": -0.7678235845,
				"y": -0.3269806688,
				"z": -1.0328586521,
				"element": "N" 
			},
			{
				"x": 0.4799312572,
				"y": -0.5854693798,
				"z": -0.6265386981,
				"element": "C" 
			},
			{
				"x": -2.794945735,
				"y": 1.0005745644,
				"z": -0.8713325272,
				"element": "C" 
			},
			{
				"x": -3.2324488481,
				"y": 0.180928386,
				"z": -1.8361729349,
				"element": "O" 
			},
			{
				"x": -3.4562509572,
				"y": 1.8954145709,
				"z": -0.3987731661,
				"element": "O" 
			},
			{
				"x": 2.9731066318,
				"y": -0.9719735486,
				"z": 0.3028252588,
				"element": "H" 
			},
			{
				"x": 3.1556594189,
				"y": 0.7603860495,
				"z": 0.7018695683,
				"element": "H" 
			},
			{
				"x": 2.5331202042,
				"y": -0.3384608832,
				"z": 1.9148690518,
				"element": "H" 
			},
			{
				"x": -1.2908213838,
				"y": 2.2872576105,
				"z": 1.0662998986,
				"element": "H" 
			},
			{
				"x": 0.998115426,
				"y": -1.4108369702,
				"z": -1.1080860078,
				"element": "H" 
			},
			{
				"x": -2.5035098963,
				"y": -0.4449863807,
				"z": -2.0291580184,
				"element": "H" 
			}
		],
		 "valence_orbital": [ 
			{
				"type": "occ",
				"energy": -0.3232,
				"method": "rhf"
			},
			{
				"type": "occ",
				"energy": -0.30162,
				"method": "rhf"
			},
			{
				"type": "occ",
				"energy": -0.28653,
				"method": "rhf"
			},
			{
				"type": "occ",
				"energy": -0.27912,
				"method": "rhf"
			},
			{
				"type": "occ",
				"energy": -0.25955,
				"method": "rhf"
			},
			{
				"type": "unocc",
				"energy": -0.08786,
				"method": "rhf"
			},
			{
				"type": "unocc",
				"energy": -0.06838,
				"method": "rhf"
			},
			{
				"type": "unocc",
				"energy": 0.02496,
				"method": "rhf"
			},
			{
				"type": "unocc",
				"energy": 0.08273,
				"method": "rhf"
			},
			{
				"type": "unocc",
				"energy": 0.09532,
				"method": "rhf"
			}
		],
		"cosmo_sigma_profile": { 
			"-0.025": 0.0,
			"-0.024": 0.0,
			"-0.023": 0.0,
			"-0.022": 0.0,
			"-0.021": 0.0,
			"-0.02": 0.0,
			"-0.019": 0.0,
			"-0.018": 0.0,
			"-0.017": 0.0,
			"-0.016": 0.0,
			"-0.015": 0.0,
			"-0.014": 0.147348673083,
			"-0.013": 0.866613385447,
			"-0.012": 0.374119627196,
			"-0.011": 0.751827995962,
			"-0.01": 1.13704190221,
			"-0.009": 5.04965079397,
			"-0.008": 3.68266220603,
			"-0.007": 6.59100504477,
			"-0.006": 11.6214773894,
			"-0.005": 15.3982440826,
			"-0.004": 16.7117801867,
			"-0.003": 19.2614631049,
			"-0.002": 15.4192924875,
			"-0.001": 8.50791755215,
			"0.0": 6.15857137984,
			"0.001": 4.66941962326,
			"0.002": 4.65623926612,
			"0.003": 4.96509245791,
			"0.004": 4.89690144114,
			"0.005": 4.77507500364,
			"0.006": 3.40087944835,
			"0.007": 3.78098331944,
			"0.008": 4.58499830887,
			"0.009": 6.35159054913,
			"0.01": 6.72477651159,
			"0.011": 11.1877590468,
			"0.012": 4.83974383208,
			"0.013": 0.528296585896,
			"0.014": 0.0,
			"0.015": 0.0,
			"0.016": 0.0,
			"0.017": 0.0,
			"0.018": 0.0,
			"0.019": 0.0,
			"0.02": 0.0,
			"0.021": 0.0,
			"0.022": 0.0,
			"0.023": 0.0,
			"0.024": 0.0,
			"0.025": 0.0
		}
	}
}
