{
	 "smiles": "NC1=NN2C(NC(=O)C=C2C(F)(F)F)=C1N=NC1=CC=CC=C1", 
	 "Tm": 556.15, 
	 "num_atms": 32, 
	 "gaussian": { 
		 "optdone": 1, 
		 "sigma_profile": "yes", 
		 "theory": "DFT", 
		 "functional": "B3LYP", 
		 "basiset": "6-31G**", 
		 "properties": { 
			 "R2extent": 10054.58, 
			 "electric_dipole_moment_norm": 3.75719658522, 
			 "electric_quadrupole_moment_norm": 7.23630258627, 
			 "total_energy": -1204.0155859, 
			 "HOMO_LUMO_gap": 0.13349, 
			 "cosmo_polarized_energy": -16.07, 
			 "cosmo_cavitation_energy": 39.72, 
			 "cosmo_dispersion_energy": -28.42, 
			 "cosmo_repulsion_energy": 2.09, 
			 "cosmo_total_nonelectrostatic_energy": 13.39, 
			 "SMD_solvation_energy": 6.8 
		},
		"coords": [
			{
				"x": -1.3445619422,
				"y": -1.2677420082,
				"z": 1.4993469339,
				"element": "N" 
			},
			{
				"x": -0.1509743933,
				"y": -0.6968736798,
				"z": 1.224180264,
				"element": "C" 
			},
			{
				"x": 0.8692889132,
				"y": -0.699515959,
				"z": 2.0758820008,
				"element": "N" 
			},
			{
				"x": 1.8830415205,
				"y": -0.0475592161,
				"z": 1.3822069171,
				"element": "N" 
			},
			{
				"x": 1.4956735871,
				"y": 0.3516892985,
				"z": 0.1328966421,
				"element": "C" 
			},
			{
				"x": 2.3830561396,
				"y": 1.0069733834,
				"z": -0.6615444065,
				"element": "N" 
			},
			{
				"x": 3.7079666146,
				"y": 1.3126930847,
				"z": -0.282121581,
				"element": "C" 
			},
			{
				"x": 4.4538234289,
				"y": 1.9040719587,
				"z": -1.0452813635,
				"element": "O" 
			},
			{
				"x": 4.0456838298,
				"y": 0.8539375679,
				"z": 1.0657108853,
				"element": "C" 
			},
			{
				"x": 3.1495831863,
				"y": 0.2006011549,
				"z": 1.8495974021,
				"element": "C" 
			},
			{
				"x": 3.485548946,
				"y": -0.2796945598,
				"z": 3.249004411,
				"element": "C" 
			},
			{
				"x": 2.6888832104,
				"y": 0.2929044173,
				"z": 4.1644028158,
				"element": "F" 
			},
			{
				"x": 4.7590130494,
				"y": 0.0406880009,
				"z": 3.5518512307,
				"element": "F" 
			},
			{
				"x": 3.3614221742,
				"y": -1.6116252636,
				"z": 3.3499113243,
				"element": "F" 
			},
			{
				"x": 0.1688455173,
				"y": -0.0412964704,
				"z": -0.0311833704,
				"element": "C" 
			},
			{
				"x": -0.5589103855,
				"y": 0.2115253446,
				"z": -1.1611293175,
				"element": "N" 
			},
			{
				"x": -1.7675715367,
				"y": -0.1927971442,
				"z": -1.1341727366,
				"element": "N" 
			},
			{
				"x": -2.5135172446,
				"y": 0.0753315606,
				"z": -2.305703024,
				"element": "C" 
			},
			{
				"x": -2.0093122828,
				"y": 0.7275649313,
				"z": -3.4451458917,
				"element": "C" 
			},
			{
				"x": -2.8360523134,
				"y": 0.938107407,
				"z": -4.5427139517,
				"element": "C" 
			},
			{
				"x": -4.1679597498,
				"y": 0.5057034207,
				"z": -4.5235535374,
				"element": "C" 
			},
			{
				"x": -4.671037144,
				"y": -0.142442937,
				"z": -3.3941341093,
				"element": "C" 
			},
			{
				"x": -3.847758017,
				"y": -0.3568778346,
				"z": -2.2904634155,
				"element": "C" 
			},
			{
				"x": -1.5368955666,
				"y": -1.5819600079,
				"z": 2.4367673511,
				"element": "H" 
			},
			{
				"x": -2.0845988481,
				"y": -1.1056929578,
				"z": 0.8303271696,
				"element": "H" 
			},
			{
				"x": 2.0838525523,
				"y": 1.2975315741,
				"z": -1.5849935642,
				"element": "H" 
			},
			{
				"x": 5.0451799423,
				"y": 1.0547634618,
				"z": 1.4217903781,
				"element": "H" 
			},
			{
				"x": -0.9770039281,
				"y": 1.0571896018,
				"z": -3.4484678329,
				"element": "H" 
			},
			{
				"x": -2.4440383784,
				"y": 1.4421031219,
				"z": -5.4216938017,
				"element": "H" 
			},
			{
				"x": -4.8066412312,
				"y": 0.6742693672,
				"z": -5.385594454,
				"element": "H" 
			},
			{
				"x": -5.7027748603,
				"y": -0.48074789,
				"z": -3.3729220871,
				"element": "H" 
			},
			{
				"x": -4.21875479,
				"y": -0.8596227288,
				"z": -1.4025572808,
				"element": "H" 
			}
		],
		 "valence_orbital": [ 
			{
				"type": "occ",
				"energy": -0.27807,
				"method": "rhf"
			},
			{
				"type": "occ",
				"energy": -0.26032,
				"method": "rhf"
			},
			{
				"type": "occ",
				"energy": -0.24276,
				"method": "rhf"
			},
			{
				"type": "occ",
				"energy": -0.22581,
				"method": "rhf"
			},
			{
				"type": "occ",
				"energy": -0.21812,
				"method": "rhf"
			},
			{
				"type": "unocc",
				"energy": -0.08463,
				"method": "rhf"
			},
			{
				"type": "unocc",
				"energy": -0.06391,
				"method": "rhf"
			},
			{
				"type": "unocc",
				"energy": -0.00914,
				"method": "rhf"
			},
			{
				"type": "unocc",
				"energy": 0.00039,
				"method": "rhf"
			},
			{
				"type": "unocc",
				"energy": 0.022,
				"method": "rhf"
			}
		],
		"cosmo_sigma_profile": { 
			"-0.025": 0.0,
			"-0.024": 0.0,
			"-0.023": 0.0,
			"-0.022": 0.0,
			"-0.021": 0.0,
			"-0.02": 0.0,
			"-0.019": 0.0,
			"-0.018": 0.0,
			"-0.017": 0.287287293637,
			"-0.016": 0.587887012282,
			"-0.015": 0.893814587758,
			"-0.014": 2.27472477616,
			"-0.013": 1.48892363388,
			"-0.012": 2.30647193854,
			"-0.011": 1.82785665078,
			"-0.01": 1.93308059615,
			"-0.009": 3.11648644677,
			"-0.008": 4.36229075531,
			"-0.007": 5.69198292424,
			"-0.006": 13.5178146745,
			"-0.005": 18.2767508391,
			"-0.004": 23.2251870202,
			"-0.003": 21.7862792876,
			"-0.002": 20.4651663876,
			"-0.001": 18.4625343666,
			"0.0": 19.5646813374,
			"0.001": 28.5025331053,
			"0.002": 41.3309679389,
			"0.003": 24.3641211933,
			"0.004": 20.0120016827,
			"0.005": 14.0297222885,
			"0.006": 4.59742376137,
			"0.007": 3.85697160167,
			"0.008": 3.58598106049,
			"0.009": 3.00287176653,
			"0.01": 3.24339998662,
			"0.011": 4.01111881603,
			"0.012": 6.17933684861,
			"0.013": 3.33313214862,
			"0.014": 0.160500461919,
			"0.015": 0.0,
			"0.016": 0.0,
			"0.017": 0.0,
			"0.018": 0.0,
			"0.019": 0.0,
			"0.02": 0.0,
			"0.021": 0.0,
			"0.022": 0.0,
			"0.023": 0.0,
			"0.024": 0.0,
			"0.025": 0.0
		}
	}
}
