{
	 "smiles": "CC(C(O)=O)C(O)=O", 
	 "Tm": 405.15, 
	 "num_atms": 14, 
	 "gaussian": { 
		 "optdone": 1, 
		 "sigma_profile": "yes", 
		 "theory": "DFT", 
		 "functional": "B3LYP", 
		 "basiset": "6-31G**", 
		 "properties": { 
			 "R2extent": 1325.1602, 
			 "electric_dipole_moment_norm": 5.05945877145, 
			 "electric_quadrupole_moment_norm": 6.15802757383, 
			 "total_energy": -456.966467089, 
			 "HOMO_LUMO_gap": 0.23781, 
			 "cosmo_polarized_energy": -14.65, 
			 "cosmo_cavitation_energy": 18.36, 
			 "cosmo_dispersion_energy": -13.57, 
			 "cosmo_repulsion_energy": 1.15, 
			 "cosmo_total_nonelectrostatic_energy": 5.95, 
			 "SMD_solvation_energy": 5.84 
		},
		"coords": [
			{
				"x": 0.3919058044,
				"y": 1.0996427625,
				"z": 2.3843450982,
				"element": "C" 
			},
			{
				"x": -0.161483568,
				"y": 0.3317472803,
				"z": 1.1552234976,
				"element": "C" 
			},
			{
				"x": -1.5463536896,
				"y": -0.1957070146,
				"z": 1.4617786848,
				"element": "C" 
			},
			{
				"x": -1.5172122129,
				"y": -1.2753546637,
				"z": 2.2555600955,
				"element": "O" 
			},
			{
				"x": -2.5988798468,
				"y": 0.2937989541,
				"z": 1.0766698906,
				"element": "O" 
			},
			{
				"x": -0.0490621387,
				"y": 1.2362496232,
				"z": -0.0922587358,
				"element": "C" 
			},
			{
				"x": -1.1707680547,
				"y": 1.7734554678,
				"z": -0.582924957,
				"element": "O" 
			},
			{
				"x": 1.0403520021,
				"y": 1.4705661372,
				"z": -0.559650804,
				"element": "O" 
			},
			{
				"x": 1.3967433592,
				"y": 1.4536095429,
				"z": 2.1477361952,
				"element": "H" 
			},
			{
				"x": -0.2371318653,
				"y": 1.9632335011,
				"z": 2.6200274287,
				"element": "H" 
			},
			{
				"x": 0.4357971034,
				"y": 0.4455713752,
				"z": 3.2581181159,
				"element": "H" 
			},
			{
				"x": 0.4933263565,
				"y": -0.5253568973,
				"z": 0.9739699979,
				"element": "H" 
			},
			{
				"x": -2.440659235,
				"y": -1.5304019529,
				"z": 2.4268181327,
				"element": "H" 
			},
			{
				"x": -1.9440740145,
				"y": 1.4261458841,
				"z": -0.0821126404,
				"element": "H" 
			}
		],
		 "valence_orbital": [ 
			{
				"type": "occ",
				"energy": -0.36165,
				"method": "rhf"
			},
			{
				"type": "occ",
				"energy": -0.35791,
				"method": "rhf"
			},
			{
				"type": "occ",
				"energy": -0.31616,
				"method": "rhf"
			},
			{
				"type": "occ",
				"energy": -0.30599,
				"method": "rhf"
			},
			{
				"type": "occ",
				"energy": -0.26885,
				"method": "rhf"
			},
			{
				"type": "unocc",
				"energy": -0.03104,
				"method": "rhf"
			},
			{
				"type": "unocc",
				"energy": 0.01024,
				"method": "rhf"
			},
			{
				"type": "unocc",
				"energy": 0.05054,
				"method": "rhf"
			},
			{
				"type": "unocc",
				"energy": 0.09728,
				"method": "rhf"
			},
			{
				"type": "unocc",
				"energy": 0.12658,
				"method": "rhf"
			}
		],
		"cosmo_sigma_profile": { 
			"-0.025": 0.0,
			"-0.024": 0.0,
			"-0.023": 0.0,
			"-0.022": 0.0,
			"-0.021": 0.0,
			"-0.02": 0.0649585543001,
			"-0.019": 1.16295326361,
			"-0.018": 0.85426901484,
			"-0.017": 0.838021652809,
			"-0.016": 0.72971375428,
			"-0.015": 0.617855900807,
			"-0.014": 0.751224933288,
			"-0.013": 0.870909260149,
			"-0.012": 0.863437741478,
			"-0.011": 0.913363603383,
			"-0.01": 0.510401885853,
			"-0.009": 2.69670570468,
			"-0.008": 6.02176857101,
			"-0.007": 5.61413855963,
			"-0.006": 6.17495184152,
			"-0.005": 9.42753260259,
			"-0.004": 11.226139179,
			"-0.003": 11.4697304839,
			"-0.002": 10.8234958823,
			"-0.001": 9.02818553265,
			"0.0": 6.32242700102,
			"0.001": 3.37633792218,
			"0.002": 3.40241299427,
			"0.003": 4.23986474033,
			"0.004": 4.04404566367,
			"0.005": 3.85354960816,
			"0.006": 4.76013948115,
			"0.007": 5.01260466139,
			"0.008": 4.75730362569,
			"0.009": 5.252791884,
			"0.01": 5.65821469911,
			"0.011": 5.27649224735,
			"0.012": 5.565181599,
			"0.013": 2.45635585507,
			"0.014": 0.195701184529,
			"0.015": 0.0,
			"0.016": 0.0,
			"0.017": 0.0,
			"0.018": 0.0,
			"0.019": 0.0,
			"0.02": 0.0,
			"0.021": 0.0,
			"0.022": 0.0,
			"0.023": 0.0,
			"0.024": 0.0,
			"0.025": 0.0
		}
	}
}
