{
	 "smiles": "FC(F)(F)C1=NC(Cl)=NC=C1C(=O)OCC1=CC=CC=C1", 
	 "Tm": 319.15, 
	 "num_atms": 29, 
	 "gaussian": { 
		 "optdone": 1, 
		 "sigma_profile": "yes", 
		 "theory": "DFT", 
		 "functional": "B3LYP", 
		 "basiset": "6-31G**", 
		 "properties": { 
			 "R2extent": 8322.1179, 
			 "electric_dipole_moment_norm": 4.35578732837, 
			 "electric_quadrupole_moment_norm": 7.58602282952, 
			 "total_energy": -1519.86263454, 
			 "HOMO_LUMO_gap": 0.16973, 
			 "cosmo_polarized_energy": -11.26, 
			 "cosmo_cavitation_energy": 38.22, 
			 "cosmo_dispersion_energy": -26.67, 
			 "cosmo_repulsion_energy": 2.0, 
			 "cosmo_total_nonelectrostatic_energy": 13.55, 
			 "SMD_solvation_energy": 5.37 
		},
		"coords": [
			{
				"x": 1.1938284921,
				"y": 2.9311328362,
				"z": 2.6579418302,
				"element": "F" 
			},
			{
				"x": 0.9961776881,
				"y": 2.3860467224,
				"z": 1.4518369446,
				"element": "C" 
			},
			{
				"x": 1.6466342756,
				"y": 3.1336648722,
				"z": 0.547069301,
				"element": "F" 
			},
			{
				"x": 1.5365291386,
				"y": 1.1529445678,
				"z": 1.4676765332,
				"element": "F" 
			},
			{
				"x": -0.5010824769,
				"y": 2.3145089277,
				"z": 1.1255133179,
				"element": "C" 
			},
			{
				"x": -1.2753966656,
				"y": 3.0452457721,
				"z": 1.9265300363,
				"element": "N" 
			},
			{
				"x": -2.5835728235,
				"y": 2.9910075125,
				"z": 1.706025471,
				"element": "C" 
			},
			{
				"x": -3.5755405163,
				"y": 3.980890628,
				"z": 2.7413853931,
				"element": "Cl" 
			},
			{
				"x": -3.2235684323,
				"y": 2.2652759318,
				"z": 0.7961376574,
				"element": "N" 
			},
			{
				"x": -2.4384643143,
				"y": 1.5376767444,
				"z": -0.0008554223,
				"element": "C" 
			},
			{
				"x": -1.0394659346,
				"y": 1.5274071921,
				"z": 0.092111661,
				"element": "C" 
			},
			{
				"x": -0.2244826278,
				"y": 0.7528923592,
				"z": -0.8983031606,
				"element": "C" 
			},
			{
				"x": 0.9065399245,
				"y": 1.0390422916,
				"z": -1.2253809549,
				"element": "O" 
			},
			{
				"x": -0.9395773184,
				"y": -0.2717734213,
				"z": -1.3998176692,
				"element": "O" 
			},
			{
				"x": -0.2854497927,
				"y": -1.0932182083,
				"z": -2.4203524756,
				"element": "C" 
			},
			{
				"x": 0.4194900721,
				"y": -2.2769104999,
				"z": -1.8108918589,
				"element": "C" 
			},
			{
				"x": 1.7491858485,
				"y": -2.1703776567,
				"z": -1.3789963622,
				"element": "C" 
			},
			{
				"x": 2.3922531261,
				"y": -3.2677731355,
				"z": -0.8065444324,
				"element": "C" 
			},
			{
				"x": 1.7152778259,
				"y": -4.4808467183,
				"z": -0.6612208396,
				"element": "C" 
			},
			{
				"x": 0.3913343217,
				"y": -4.5948143543,
				"z": -1.0896886403,
				"element": "C" 
			},
			{
				"x": -0.252013215,
				"y": -3.496825982,
				"z": -1.6612999194,
				"element": "C" 
			},
			{
				"x": -2.9349322093,
				"y": 0.9361284821,
				"z": -0.7559203859,
				"element": "H" 
			},
			{
				"x": 0.4020593074,
				"y": -0.4564731583,
				"z": -2.9791143497,
				"element": "H" 
			},
			{
				"x": -1.1071698262,
				"y": -1.4091552913,
				"z": -3.0653993126,
				"element": "H" 
			},
			{
				"x": 2.2686708091,
				"y": -1.2231184481,
				"z": -1.4857781522,
				"element": "H" 
			},
			{
				"x": 3.4227900665,
				"y": -3.1765742424,
				"z": -0.4759569487,
				"element": "H" 
			},
			{
				"x": 2.2187092735,
				"y": -5.3352286935,
				"z": -0.217953951,
				"element": "H" 
			},
			{
				"x": -0.1380570606,
				"y": -5.5370111752,
				"z": -0.9816509038,
				"element": "H" 
			},
			{
				"x": -1.2822069562,
				"y": -3.5872638553,
				"z": -1.9973024066,
				"element": "H" 
			}
		],
		 "valence_orbital": [ 
			{
				"type": "occ",
				"energy": -0.30384,
				"method": "rhf"
			},
			{
				"type": "occ",
				"energy": -0.29495,
				"method": "rhf"
			},
			{
				"type": "occ",
				"energy": -0.28819,
				"method": "rhf"
			},
			{
				"type": "occ",
				"energy": -0.26093,
				"method": "rhf"
			},
			{
				"type": "occ",
				"energy": -0.25967,
				"method": "rhf"
			},
			{
				"type": "unocc",
				"energy": -0.08994,
				"method": "rhf"
			},
			{
				"type": "unocc",
				"energy": -0.07785,
				"method": "rhf"
			},
			{
				"type": "unocc",
				"energy": -0.02298,
				"method": "rhf"
			},
			{
				"type": "unocc",
				"energy": -0.01187,
				"method": "rhf"
			},
			{
				"type": "unocc",
				"energy": 0.00961,
				"method": "rhf"
			}
		],
		"cosmo_sigma_profile": { 
			"-0.025": 0.0,
			"-0.024": 0.0,
			"-0.023": 0.0,
			"-0.022": 0.0,
			"-0.021": 0.0,
			"-0.02": 0.0,
			"-0.019": 0.0,
			"-0.018": 0.0,
			"-0.017": 0.0,
			"-0.016": 0.0,
			"-0.015": 0.0,
			"-0.014": 0.0,
			"-0.013": 0.0,
			"-0.012": 0.0,
			"-0.011": 0.0,
			"-0.01": 0.317437318471,
			"-0.009": 1.64408607119,
			"-0.008": 2.99827753245,
			"-0.007": 8.91093809062,
			"-0.006": 17.8775727878,
			"-0.005": 23.7566041778,
			"-0.004": 26.1691990304,
			"-0.003": 20.4042561516,
			"-0.002": 18.7424171227,
			"-0.001": 18.2274510049,
			"0.0": 19.5236297723,
			"0.001": 22.8162236624,
			"0.002": 41.1386718317,
			"0.003": 26.6912108476,
			"0.004": 18.8068821114,
			"0.005": 17.0475191868,
			"0.006": 6.624305756,
			"0.007": 4.18281088583,
			"0.008": 4.03623019175,
			"0.009": 4.43065322705,
			"0.01": 4.39721903535,
			"0.011": 1.42510638406,
			"0.012": 0.530165651707,
			"0.013": 0.00211957613648,
			"0.014": 0.0,
			"0.015": 0.0,
			"0.016": 0.0,
			"0.017": 0.0,
			"0.018": 0.0,
			"0.019": 0.0,
			"0.02": 0.0,
			"0.021": 0.0,
			"0.022": 0.0,
			"0.023": 0.0,
			"0.024": 0.0,
			"0.025": 0.0
		}
	}
}
