{
	 "smiles": "CCCC(C1=CC=C(O)C=C1)C1=CC=C(O)C=C1", 
	 "Tm": 410.15, 
	 "num_atms": 36, 
	 "gaussian": { 
		 "optdone": 1, 
		 "sigma_profile": "yes", 
		 "theory": "DFT", 
		 "functional": "B3LYP", 
		 "basiset": "6-31G**", 
		 "properties": { 
			 "R2extent": 5869.8138, 
			 "electric_dipole_moment_norm": 2.52802620833, 
			 "electric_quadrupole_moment_norm": 13.5937867947, 
			 "total_energy": -771.001308387, 
			 "HOMO_LUMO_gap": 0.2021, 
			 "cosmo_polarized_energy": -14.87, 
			 "cosmo_cavitation_energy": 38.4, 
			 "cosmo_dispersion_energy": -26.4, 
			 "cosmo_repulsion_energy": 2.07, 
			 "cosmo_total_nonelectrostatic_energy": 14.07, 
			 "SMD_solvation_energy": 6.81 
		},
		"coords": [
			{
				"x": 0.2429281766,
				"y": 3.4630931224,
				"z": -0.9605288888,
				"element": "C" 
			},
			{
				"x": 1.387732639,
				"y": 2.4420723847,
				"z": -0.9196151953,
				"element": "C" 
			},
			{
				"x": 0.9754335033,
				"y": 0.9580077631,
				"z": -0.9973413282,
				"element": "C" 
			},
			{
				"x": 0.5187601605,
				"y": 0.3082417024,
				"z": 0.3333756766,
				"element": "C" 
			},
			{
				"x": -0.8084167035,
				"y": 0.8515190632,
				"z": 0.8632504474,
				"element": "C" 
			},
			{
				"x": -0.8625999716,
				"y": 1.5800835856,
				"z": 2.0555269888,
				"element": "C" 
			},
			{
				"x": -2.0678400229,
				"y": 2.0848032215,
				"z": 2.5506148962,
				"element": "C" 
			},
			{
				"x": -3.2547933078,
				"y": 1.8594674144,
				"z": 1.850126914,
				"element": "C" 
			},
			{
				"x": -4.4694209518,
				"y": 2.3235694722,
				"z": 2.2749985082,
				"element": "O" 
			},
			{
				"x": -3.2242709085,
				"y": 1.1237665518,
				"z": 0.6589356673,
				"element": "C" 
			},
			{
				"x": -2.0160975582,
				"y": 0.6277974871,
				"z": 0.1823900118,
				"element": "C" 
			},
			{
				"x": 0.4890986775,
				"y": -1.2217959127,
				"z": 0.2666861066,
				"element": "C" 
			},
			{
				"x": 0.6687128085,
				"y": -1.9634434417,
				"z": 1.4420596013,
				"element": "C" 
			},
			{
				"x": 0.6259693741,
				"y": -3.3559350145,
				"z": 1.4442836655,
				"element": "C" 
			},
			{
				"x": 0.3955229905,
				"y": -4.0475417751,
				"z": 0.2501906093,
				"element": "C" 
			},
			{
				"x": 0.3431033866,
				"y": -5.4129414624,
				"z": 0.18209596,
				"element": "O" 
			},
			{
				"x": 0.2134734685,
				"y": -3.3301134965,
				"z": -0.9343644785,
				"element": "C" 
			},
			{
				"x": 0.262005408,
				"y": -1.9367925313,
				"z": -0.9181124726,
				"element": "C" 
			},
			{
				"x": -0.4192503538,
				"y": 3.3783771452,
				"z": -0.0964382408,
				"element": "H" 
			},
			{
				"x": -0.3682579408,
				"y": 3.3272814428,
				"z": -1.8603531397,
				"element": "H" 
			},
			{
				"x": 0.6391430163,
				"y": 4.4843399211,
				"z": -0.9824321365,
				"element": "H" 
			},
			{
				"x": 2.0572078743,
				"y": 2.6450827876,
				"z": -1.7653146767,
				"element": "H" 
			},
			{
				"x": 1.9948736068,
				"y": 2.6016931258,
				"z": -0.017588564,
				"element": "H" 
			},
			{
				"x": 1.8362098015,
				"y": 0.3804994241,
				"z": -1.3561100508,
				"element": "H" 
			},
			{
				"x": 0.1932930561,
				"y": 0.8454585102,
				"z": -1.7596629944,
				"element": "H" 
			},
			{
				"x": 1.2814214205,
				"y": 0.5693680267,
				"z": 1.079785657,
				"element": "H" 
			},
			{
				"x": 0.0534272244,
				"y": 1.7670999655,
				"z": 2.610953782,
				"element": "H" 
			},
			{
				"x": -2.081349151,
				"y": 2.6505832273,
				"z": 3.4803653049,
				"element": "H" 
			},
			{
				"x": -4.3494518371,
				"y": 2.8065396285,
				"z": 3.102773261,
				"element": "H" 
			},
			{
				"x": -4.154451075,
				"y": 0.9481203712,
				"z": 0.1282788864,
				"element": "H" 
			},
			{
				"x": -2.0141435977,
				"y": 0.0443567607,
				"z": -0.7342905622,
				"element": "H" 
			},
			{
				"x": 0.842307035,
				"y": -1.4408970688,
				"z": 2.3797809978,
				"element": "H" 
			},
			{
				"x": 0.7742806826,
				"y": -3.9049604359,
				"z": 2.3724277975,
				"element": "H" 
			},
			{
				"x": 0.4793371488,
				"y": -5.776965271,
				"z": 1.0662479482,
				"element": "H" 
			},
			{
				"x": 0.0392738388,
				"y": -3.8749929182,
				"z": -1.856549168,
				"element": "H" 
			},
			{
				"x": 0.1256280818,
				"y": -1.4067427771,
				"z": -1.855446791,
				"element": "H" 
			}
		],
		 "valence_orbital": [ 
			{
				"type": "occ",
				"energy": -0.30429,
				"method": "rhf"
			},
			{
				"type": "occ",
				"energy": -0.24848,
				"method": "rhf"
			},
			{
				"type": "occ",
				"energy": -0.24633,
				"method": "rhf"
			},
			{
				"type": "occ",
				"energy": -0.21925,
				"method": "rhf"
			},
			{
				"type": "occ",
				"energy": -0.20484,
				"method": "rhf"
			},
			{
				"type": "unocc",
				"energy": -0.00274,
				"method": "rhf"
			},
			{
				"type": "unocc",
				"energy": 0.0015,
				"method": "rhf"
			},
			{
				"type": "unocc",
				"energy": 0.01048,
				"method": "rhf"
			},
			{
				"type": "unocc",
				"energy": 0.02771,
				"method": "rhf"
			},
			{
				"type": "unocc",
				"energy": 0.07286,
				"method": "rhf"
			}
		],
		"cosmo_sigma_profile": { 
			"-0.025": 0.0,
			"-0.024": 0.0,
			"-0.023": 0.0,
			"-0.022": 0.0,
			"-0.021": 0.0,
			"-0.02": 0.0,
			"-0.019": 0.0,
			"-0.018": 0.388457555414,
			"-0.017": 1.83185123318,
			"-0.016": 2.31217740312,
			"-0.015": 1.85437887392,
			"-0.014": 2.36015876309,
			"-0.013": 2.26898223431,
			"-0.012": 0.943872478542,
			"-0.011": 1.43533381657,
			"-0.01": 2.89024725827,
			"-0.009": 2.30906990119,
			"-0.008": 2.07022612535,
			"-0.007": 2.55600471394,
			"-0.006": 4.98490277792,
			"-0.005": 13.9490987932,
			"-0.004": 19.9522078309,
			"-0.003": 20.7974765144,
			"-0.002": 24.6252835794,
			"-0.001": 27.373489593,
			"0.0": 25.9043017177,
			"0.001": 25.1212518609,
			"0.002": 21.852752886,
			"0.003": 16.384796822,
			"0.004": 21.2365524257,
			"0.005": 18.5443351793,
			"0.006": 17.3483781473,
			"0.007": 5.45416407722,
			"0.008": 3.60158036749,
			"0.009": 1.75839090823,
			"0.01": 3.79853495847,
			"0.011": 3.59295053214,
			"0.012": 2.6456280566,
			"0.013": 0.000599550419841,
			"0.014": 0.0,
			"0.015": 0.0,
			"0.016": 0.0,
			"0.017": 0.0,
			"0.018": 0.0,
			"0.019": 0.0,
			"0.02": 0.0,
			"0.021": 0.0,
			"0.022": 0.0,
			"0.023": 0.0,
			"0.024": 0.0,
			"0.025": 0.0
		}
	}
}
