{
	 "smiles": "OC(=O)CCCCCNC1=NS(=O)(=O)C2=C1C=CC=C2", 
	 "Tm": 463.15, 
	 "num_atms": 36, 
	 "gaussian": { 
		 "optdone": 1, 
		 "sigma_profile": "yes", 
		 "theory": "DFT", 
		 "functional": "B3LYP", 
		 "basiset": "6-31G**", 
		 "properties": { 
			 "R2extent": 7535.3766, 
			 "electric_dipole_moment_norm": 11.0079540088, 
			 "electric_quadrupole_moment_norm": 35.5244705096, 
			 "total_energy": -1313.57930028, 
			 "HOMO_LUMO_gap": 0.179, 
			 "cosmo_polarized_energy": -26.94, 
			 "cosmo_cavitation_energy": 39.93, 
			 "cosmo_dispersion_energy": -28.58, 
			 "cosmo_repulsion_energy": 2.16, 
			 "cosmo_total_nonelectrostatic_energy": 13.5, 
			 "SMD_solvation_energy": 4.75 
		},
		"coords": [
			{
				"x": 1.8872557906,
				"y": -3.7514181485,
				"z": -0.6014419163,
				"element": "O" 
			},
			{
				"x": 1.7357901728,
				"y": -2.6915087434,
				"z": 0.2132694004,
				"element": "C" 
			},
			{
				"x": 0.6513788107,
				"y": -2.1578023983,
				"z": 0.3782987411,
				"element": "O" 
			},
			{
				"x": 3.0383214006,
				"y": -2.2984285517,
				"z": 0.8773262797,
				"element": "C" 
			},
			{
				"x": 2.9218244031,
				"y": -1.035471517,
				"z": 1.7351202813,
				"element": "C" 
			},
			{
				"x": 2.764777097,
				"y": 0.2512737208,
				"z": 0.903401629,
				"element": "C" 
			},
			{
				"x": 2.1634188394,
				"y": 1.4420910182,
				"z": 1.6669518081,
				"element": "C" 
			},
			{
				"x": 0.7347257487,
				"y": 1.1991947457,
				"z": 2.1913040691,
				"element": "C" 
			},
			{
				"x": -0.1789986182,
				"y": 0.693267817,
				"z": 1.1705013844,
				"element": "N" 
			},
			{
				"x": -0.9638288668,
				"y": 1.4934597306,
				"z": 0.4281715336,
				"element": "C" 
			},
			{
				"x": -1.0162986256,
				"y": 2.7885330792,
				"z": 0.6189162268,
				"element": "N" 
			},
			{
				"x": -2.1258238966,
				"y": 3.488129566,
				"z": -0.4373556719,
				"element": "S" 
			},
			{
				"x": -3.2692401384,
				"y": 4.0208826665,
				"z": 0.3077801307,
				"element": "O" 
			},
			{
				"x": -1.4299653213,
				"y": 4.3569244082,
				"z": -1.3903745445,
				"element": "O" 
			},
			{
				"x": -2.5775154406,
				"y": 1.9356939165,
				"z": -1.2375689426,
				"element": "C" 
			},
			{
				"x": -1.8347664395,
				"y": 0.918591781,
				"z": -0.6437347548,
				"element": "C" 
			},
			{
				"x": -1.9792026973,
				"y": -0.3990483691,
				"z": -1.0798016643,
				"element": "C" 
			},
			{
				"x": -2.8861471117,
				"y": -0.6557805663,
				"z": -2.1134246876,
				"element": "C" 
			},
			{
				"x": -3.6291998926,
				"y": 0.3764462654,
				"z": -2.6967343182,
				"element": "C" 
			},
			{
				"x": -3.4804757878,
				"y": 1.6983193374,
				"z": -2.261477204,
				"element": "C" 
			},
			{
				"x": 1.0120825443,
				"y": -3.9515508382,
				"z": -0.9749380496,
				"element": "H" 
			},
			{
				"x": 3.7943894265,
				"y": -2.1911370125,
				"z": 0.0897367104,
				"element": "H" 
			},
			{
				"x": 3.3578903752,
				"y": -3.1620167928,
				"z": 1.4744441776,
				"element": "H" 
			},
			{
				"x": 3.808538244,
				"y": -0.957747108,
				"z": 2.3742995776,
				"element": "H" 
			},
			{
				"x": 2.0694796915,
				"y": -1.1657952724,
				"z": 2.409839609,
				"element": "H" 
			},
			{
				"x": 2.1295029827,
				"y": 0.0480337087,
				"z": 0.033775104,
				"element": "H" 
			},
			{
				"x": 3.7429901556,
				"y": 0.5396916876,
				"z": 0.4995356448,
				"element": "H" 
			},
			{
				"x": 2.1453785892,
				"y": 2.3148080117,
				"z": 1.0052493212,
				"element": "H" 
			},
			{
				"x": 2.7967159044,
				"y": 1.708184061,
				"z": 2.5237180142,
				"element": "H" 
			},
			{
				"x": 0.3170727525,
				"y": 2.1324135714,
				"z": 2.5735832908,
				"element": "H" 
			},
			{
				"x": 0.7383214213,
				"y": 0.4762420376,
				"z": 3.013623077,
				"element": "H" 
			},
			{
				"x": -0.0941574783,
				"y": -0.2845541437,
				"z": 0.9168288731,
				"element": "H" 
			},
			{
				"x": -1.402764729,
				"y": -1.2098749684,
				"z": -0.6447938422,
				"element": "H" 
			},
			{
				"x": -3.0161907746,
				"y": -1.6737009135,
				"z": -2.4686474947,
				"element": "H" 
			},
			{
				"x": -4.327604253,
				"y": 0.1500913578,
				"z": -3.4968436075,
				"element": "H" 
			},
			{
				"x": -4.0497742789,
				"y": 2.5066628553,
				"z": -2.7084381857,
				"element": "H" 
			}
		],
		 "valence_orbital": [ 
			{
				"type": "occ",
				"energy": -0.29374,
				"method": "rhf"
			},
			{
				"type": "occ",
				"energy": -0.27428,
				"method": "rhf"
			},
			{
				"type": "occ",
				"energy": -0.27082,
				"method": "rhf"
			},
			{
				"type": "occ",
				"energy": -0.26041,
				"method": "rhf"
			},
			{
				"type": "occ",
				"energy": -0.23505,
				"method": "rhf"
			},
			{
				"type": "unocc",
				"energy": -0.05605,
				"method": "rhf"
			},
			{
				"type": "unocc",
				"energy": -0.03082,
				"method": "rhf"
			},
			{
				"type": "unocc",
				"energy": -0.0258,
				"method": "rhf"
			},
			{
				"type": "unocc",
				"energy": 0.04288,
				"method": "rhf"
			},
			{
				"type": "unocc",
				"energy": 0.049,
				"method": "rhf"
			}
		],
		"cosmo_sigma_profile": { 
			"-0.025": 0.0,
			"-0.024": 0.0,
			"-0.023": 0.0,
			"-0.022": 0.0,
			"-0.021": 0.0,
			"-0.02": 0.0,
			"-0.019": 0.108137256904,
			"-0.018": 0.925849126407,
			"-0.017": 0.992292947672,
			"-0.016": 1.01910772323,
			"-0.015": 0.595074530656,
			"-0.014": 0.460655077258,
			"-0.013": 0.261032896323,
			"-0.012": 0.879649137722,
			"-0.011": 1.42227718176,
			"-0.01": 0.572800985831,
			"-0.009": 0.73494597011,
			"-0.008": 4.87741593257,
			"-0.007": 9.90894412158,
			"-0.006": 16.7624550906,
			"-0.005": 18.4244402067,
			"-0.004": 20.802494359,
			"-0.003": 36.0779392478,
			"-0.002": 35.1205201508,
			"-0.001": 26.2466547307,
			"0.0": 23.5448975009,
			"0.001": 21.1656513071,
			"0.002": 19.077235154,
			"0.003": 7.47778296079,
			"0.004": 5.21439255509,
			"0.005": 5.04530968014,
			"0.006": 5.58544662177,
			"0.007": 5.23107073346,
			"0.008": 6.00938827637,
			"0.009": 6.47679325148,
			"0.01": 8.54288750591,
			"0.011": 15.7228078121,
			"0.012": 11.2948093661,
			"0.013": 0.235492832135,
			"0.014": 0.0,
			"0.015": 0.0,
			"0.016": 0.0,
			"0.017": 0.0,
			"0.018": 0.0,
			"0.019": 0.0,
			"0.02": 0.0,
			"0.021": 0.0,
			"0.022": 0.0,
			"0.023": 0.0,
			"0.024": 0.0,
			"0.025": 0.0
		}
	}
}
