{
	 "smiles": "NC(=O)C1=CC=C(N=C1O)C(F)(F)F", 
	 "Tm": 495.15, 
	 "num_atms": 19, 
	 "gaussian": { 
		 "optdone": 1, 
		 "sigma_profile": "yes", 
		 "theory": "DFT", 
		 "functional": "B3LYP", 
		 "basiset": "6-31G**", 
		 "properties": { 
			 "R2extent": 3410.7806, 
			 "electric_dipole_moment_norm": 2.54509238732, 
			 "electric_quadrupole_moment_norm": 17.7444926011, 
			 "total_energy": -829.259682811, 
			 "HOMO_LUMO_gap": 0.1925, 
			 "cosmo_polarized_energy": -12.98, 
			 "cosmo_cavitation_energy": 25.54, 
			 "cosmo_dispersion_energy": -18.74, 
			 "cosmo_repulsion_energy": 1.42, 
			 "cosmo_total_nonelectrostatic_energy": 8.22, 
			 "SMD_solvation_energy": 5.61 
		},
		"coords": [
			{
				"x": -1.7560479932,
				"y": 1.3178229886,
				"z": 2.2679481835,
				"element": "N" 
			},
			{
				"x": -0.9145282673,
				"y": 0.2562140891,
				"z": 2.1707191541,
				"element": "C" 
			},
			{
				"x": -0.5285902911,
				"y": -0.3745089138,
				"z": 3.1502728381,
				"element": "O" 
			},
			{
				"x": -0.4530037807,
				"y": -0.1396906196,
				"z": 0.7866367486,
				"element": "C" 
			},
			{
				"x": 0.4095428864,
				"y": -1.231785319,
				"z": 0.7036352818,
				"element": "C" 
			},
			{
				"x": 0.8904353033,
				"y": -1.674236849,
				"z": -0.5291782477,
				"element": "C" 
			},
			{
				"x": 0.4748112984,
				"y": -0.9836593096,
				"z": -1.6607646363,
				"element": "C" 
			},
			{
				"x": -0.3509145835,
				"y": 0.0678335671,
				"z": -1.6218499303,
				"element": "N" 
			},
			{
				"x": -0.7961050605,
				"y": 0.4718203812,
				"z": -0.4400726834,
				"element": "C" 
			},
			{
				"x": -1.6302950681,
				"y": 1.542559472,
				"z": -0.4611606654,
				"element": "O" 
			},
			{
				"x": 0.9340278766,
				"y": -1.3770873712,
				"z": -3.0504401827,
				"element": "C" 
			},
			{
				"x": -0.1113286919,
				"y": -1.7007120214,
				"z": -3.8351463507,
				"element": "F" 
			},
			{
				"x": 1.5939247663,
				"y": -0.3675034355,
				"z": -3.6491799683,
				"element": "F" 
			},
			{
				"x": 1.7625112901,
				"y": -2.4424359804,
				"z": -3.0102373332,
				"element": "F" 
			},
			{
				"x": -2.0596960463,
				"y": 1.5769437957,
				"z": 3.1937401113,
				"element": "H" 
			},
			{
				"x": -2.0686056469,
				"y": 1.8317761964,
				"z": 1.4590074378,
				"element": "H" 
			},
			{
				"x": 0.6855347565,
				"y": -1.7156069786,
				"z": 1.6345509637,
				"element": "H" 
			},
			{
				"x": 1.5603838112,
				"y": -2.520333801,
				"z": -0.6089700094,
				"element": "H" 
			},
			{
				"x": -1.7242565593,
				"y": 1.7936901089,
				"z": -1.3946107117,
				"element": "H" 
			}
		],
		 "valence_orbital": [ 
			{
				"type": "occ",
				"energy": -0.30696,
				"method": "rhf"
			},
			{
				"type": "occ",
				"energy": -0.3067,
				"method": "rhf"
			},
			{
				"type": "occ",
				"energy": -0.27204,
				"method": "rhf"
			},
			{
				"type": "occ",
				"energy": -0.26586,
				"method": "rhf"
			},
			{
				"type": "occ",
				"energy": -0.26068,
				"method": "rhf"
			},
			{
				"type": "unocc",
				"energy": -0.06818,
				"method": "rhf"
			},
			{
				"type": "unocc",
				"energy": -0.02904,
				"method": "rhf"
			},
			{
				"type": "unocc",
				"energy": 0.04069,
				"method": "rhf"
			},
			{
				"type": "unocc",
				"energy": 0.06169,
				"method": "rhf"
			},
			{
				"type": "unocc",
				"energy": 0.09829,
				"method": "rhf"
			}
		],
		"cosmo_sigma_profile": { 
			"-0.025": 0.0,
			"-0.024": 0.0,
			"-0.023": 0.0,
			"-0.022": 0.0,
			"-0.021": 0.0,
			"-0.02": 0.0,
			"-0.019": 0.0188471335402,
			"-0.018": 0.823299331731,
			"-0.017": 0.898764722965,
			"-0.016": 0.638910094402,
			"-0.015": 0.933123334751,
			"-0.014": 1.51038426149,
			"-0.013": 1.73253543734,
			"-0.012": 1.84331833211,
			"-0.011": 2.02592462585,
			"-0.01": 2.45375675861,
			"-0.009": 2.02181469318,
			"-0.008": 3.05064000775,
			"-0.007": 6.36681874658,
			"-0.006": 6.18743999742,
			"-0.005": 4.59786894076,
			"-0.004": 6.5156464398,
			"-0.003": 9.86507032749,
			"-0.002": 17.2611042973,
			"-0.001": 18.4726897393,
			"0.0": 18.4778130534,
			"0.001": 14.2191815867,
			"0.002": 27.8884506191,
			"0.003": 23.5698201664,
			"0.004": 6.67187341381,
			"0.005": 3.74564302823,
			"0.006": 3.61636453476,
			"0.007": 2.78385795858,
			"0.008": 2.68268667608,
			"0.009": 1.23306190673,
			"0.01": 1.24843596556,
			"0.011": 1.6526949151,
			"0.012": 2.28802204027,
			"0.013": 4.78561014611,
			"0.014": 2.73627524794,
			"0.015": 0.211424596881,
			"0.016": 0.0,
			"0.017": 0.0,
			"0.018": 0.0,
			"0.019": 0.0,
			"0.02": 0.0,
			"0.021": 0.0,
			"0.022": 0.0,
			"0.023": 0.0,
			"0.024": 0.0,
			"0.025": 0.0
		}
	}
}
