{
	 "smiles": "OCC1=CC(Br)=C2OCOC2=C1", 
	 "Tm": 408.15, 
	 "num_atms": 19, 
	 "gaussian": { 
		 "optdone": 1, 
		 "sigma_profile": "yes", 
		 "theory": "DFT", 
		 "functional": "B3LYP", 
		 "basiset": "6-31G**", 
		 "properties": { 
			 "R2extent": 3183.4349, 
			 "electric_dipole_moment_norm": 2.58303518753, 
			 "electric_quadrupole_moment_norm": 5.40993709206, 
			 "total_energy": -3106.10392232, 
			 "HOMO_LUMO_gap": 0.20213, 
			 "cosmo_polarized_energy": -10.17, 
			 "cosmo_cavitation_energy": 25.41, 
			 "cosmo_dispersion_energy": -19.62, 
			 "cosmo_repulsion_energy": 1.58, 
			 "cosmo_total_nonelectrostatic_energy": 7.37, 
			 "SMD_solvation_energy": 3.91 
		},
		"coords": [
			{
				"x": 3.5938030814,
				"y": 1.7127920097,
				"z": 0.5511794264,
				"element": "O" 
			},
			{
				"x": 3.0477505621,
				"y": 0.9475414674,
				"z": 1.6124297594,
				"element": "C" 
			},
			{
				"x": 1.6615930274,
				"y": 0.3957502177,
				"z": 1.3239451127,
				"element": "C" 
			},
			{
				"x": 0.8272702131,
				"y": 1.0555474778,
				"z": 0.4195529769,
				"element": "C" 
			},
			{
				"x": -0.4701163889,
				"y": 0.5860527535,
				"z": 0.1564738857,
				"element": "C" 
			},
			{
				"x": -1.6022096939,
				"y": 1.4694741065,
				"z": -1.0881387706,
				"element": "Br" 
			},
			{
				"x": -0.9034643078,
				"y": -0.5404914745,
				"z": 0.8261108238,
				"element": "C" 
			},
			{
				"x": -2.095856484,
				"y": -1.205014518,
				"z": 0.7260296289,
				"element": "O" 
			},
			{
				"x": -2.0541246089,
				"y": -2.2215034773,
				"z": 1.7360443956,
				"element": "C" 
			},
			{
				"x": -0.7116878355,
				"y": -2.2968602149,
				"z": 2.2313354759,
				"element": "O" 
			},
			{
				"x": -0.0657047593,
				"y": -1.1931546358,
				"z": 1.7305243651,
				"element": "C" 
			},
			{
				"x": 1.2170285401,
				"y": -0.761857806,
				"z": 1.9972590432,
				"element": "C" 
			},
			{
				"x": 3.6371368138,
				"y": 1.1417590983,
				"z": -0.2278276089,
				"element": "H" 
			},
			{
				"x": 3.0076937512,
				"y": 1.6325702054,
				"z": 2.4679564327,
				"element": "H" 
			},
			{
				"x": 3.7152260541,
				"y": 0.1200271431,
				"z": 1.9017634064,
				"element": "H" 
			},
			{
				"x": 1.1895688264,
				"y": 1.9437716574,
				"z": -0.0838268104,
				"element": "H" 
			},
			{
				"x": -2.335153703,
				"y": -3.182338092,
				"z": 1.2952667877,
				"element": "H" 
			},
			{
				"x": -2.7340022088,
				"y": -1.9506536337,
				"z": 2.5560039137,
				"element": "H" 
			},
			{
				"x": 1.8548491206,
				"y": -1.2967122846,
				"z": 2.6932177558,
				"element": "H" 
			}
		],
		 "valence_orbital": [ 
			{
				"type": "occ",
				"energy": -0.30322,
				"method": "rhf"
			},
			{
				"type": "occ",
				"energy": -0.28786,
				"method": "rhf"
			},
			{
				"type": "occ",
				"energy": -0.27881,
				"method": "rhf"
			},
			{
				"type": "occ",
				"energy": -0.24102,
				"method": "rhf"
			},
			{
				"type": "occ",
				"energy": -0.21563,
				"method": "rhf"
			},
			{
				"type": "unocc",
				"energy": -0.0135,
				"method": "rhf"
			},
			{
				"type": "unocc",
				"energy": -0.00247,
				"method": "rhf"
			},
			{
				"type": "unocc",
				"energy": 0.00756,
				"method": "rhf"
			},
			{
				"type": "unocc",
				"energy": 0.08061,
				"method": "rhf"
			},
			{
				"type": "unocc",
				"energy": 0.09328,
				"method": "rhf"
			}
		],
		"cosmo_sigma_profile": { 
			"-0.025": 0.0,
			"-0.024": 0.0,
			"-0.023": 0.0,
			"-0.022": 0.0,
			"-0.021": 0.0,
			"-0.02": 0.0,
			"-0.019": 0.0,
			"-0.018": 0.0,
			"-0.017": 0.0,
			"-0.016": 0.270275307571,
			"-0.015": 0.809474490931,
			"-0.014": 1.03461870368,
			"-0.013": 0.916271993897,
			"-0.012": 0.756854899939,
			"-0.011": 0.438508453667,
			"-0.01": 1.09210016063,
			"-0.009": 1.10976482674,
			"-0.008": 5.59837023745,
			"-0.007": 10.7367098492,
			"-0.006": 10.7307202101,
			"-0.005": 12.3797558403,
			"-0.004": 11.3133390453,
			"-0.003": 11.8936895565,
			"-0.002": 11.5159604307,
			"-0.001": 10.7867005239,
			"0.0": 10.8336824709,
			"0.001": 15.3240995092,
			"0.002": 20.2861597213,
			"0.003": 18.8752121722,
			"0.004": 16.8322861818,
			"0.005": 7.95506883855,
			"0.006": 3.56365845896,
			"0.007": 5.0235876431,
			"0.008": 4.54969139516,
			"0.009": 3.88125104191,
			"0.01": 1.74838451325,
			"0.011": 1.13618077582,
			"0.012": 1.1757332124,
			"0.013": 2.02860131574,
			"0.014": 1.32762691007,
			"0.015": 0.0,
			"0.016": 0.0,
			"0.017": 0.0,
			"0.018": 0.0,
			"0.019": 0.0,
			"0.02": 0.0,
			"0.021": 0.0,
			"0.022": 0.0,
			"0.023": 0.0,
			"0.024": 0.0,
			"0.025": 0.0
		}
	}
}
