{
	 "smiles": "CC1=C(C)C=C(C=C1)C1=NN(C=C1C(O)=O)C1=CC=CC=C1", 
	 "Tm": 489.15, 
	 "num_atms": 38, 
	 "gaussian": { 
		 "optdone": 1, 
		 "sigma_profile": "yes", 
		 "theory": "DFT", 
		 "functional": "B3LYP", 
		 "basiset": "6-31G**", 
		 "properties": { 
			 "R2extent": 9610.1144, 
			 "electric_dipole_moment_norm": 1.44468947875, 
			 "electric_quadrupole_moment_norm": 19.5375312379, 
			 "total_energy": -955.528744968, 
			 "HOMO_LUMO_gap": 0.17614, 
			 "cosmo_polarized_energy": -14.37, 
			 "cosmo_cavitation_energy": 42.46, 
			 "cosmo_dispersion_energy": -30.22, 
			 "cosmo_repulsion_energy": 2.29, 
			 "cosmo_total_nonelectrostatic_energy": 14.53, 
			 "SMD_solvation_energy": 7.81 
		},
		"coords": [
			{
				"x": 0.4118382442,
				"y": 0.599139098,
				"z": 6.0495840236,
				"element": "C" 
			},
			{
				"x": 0.6252172608,
				"y": 0.6902306001,
				"z": 4.5580178845,
				"element": "C" 
			},
			{
				"x": -0.3892753439,
				"y": 0.3056488439,
				"z": 3.6538784922,
				"element": "C" 
			},
			{
				"x": -1.7185623559,
				"y": -0.2085915752,
				"z": 4.1545039832,
				"element": "C" 
			},
			{
				"x": -0.1496844214,
				"y": 0.403131676,
				"z": 2.282406911,
				"element": "C" 
			},
			{
				"x": 1.0729752741,
				"y": 0.8667653764,
				"z": 1.76973878,
				"element": "C" 
			},
			{
				"x": 2.0695115034,
				"y": 1.2522079459,
				"z": 2.6734607525,
				"element": "C" 
			},
			{
				"x": 1.8382945007,
				"y": 1.1603493397,
				"z": 4.0442382641,
				"element": "C" 
			},
			{
				"x": 1.2347453205,
				"y": 0.9931157559,
				"z": 0.3065009111,
				"element": "C" 
			},
			{
				"x": 0.1776243379,
				"y": 1.3773118954,
				"z": -0.4101773576,
				"element": "N" 
			},
			{
				"x": 0.5884249853,
				"y": 1.40718261,
				"z": -1.7085212518,
				"element": "N" 
			},
			{
				"x": 1.8889807195,
				"y": 1.0607434239,
				"z": -1.8304490151,
				"element": "C" 
			},
			{
				"x": 2.3609387107,
				"y": 0.7714031381,
				"z": -0.5600086046,
				"element": "C" 
			},
			{
				"x": 3.731747201,
				"y": 0.2784356261,
				"z": -0.3814643425,
				"element": "C" 
			},
			{
				"x": 4.0354114384,
				"y": -0.1012369318,
				"z": 0.8828990233,
				"element": "O" 
			},
			{
				"x": 4.54165614,
				"y": 0.1900428905,
				"z": -1.288105632,
				"element": "O" 
			},
			{
				"x": -0.3187688551,
				"y": 1.8009368364,
				"z": -2.7312028823,
				"element": "C" 
			},
			{
				"x": -1.462318302,
				"y": 2.5291371619,
				"z": -2.386932001,
				"element": "C" 
			},
			{
				"x": -2.3484048517,
				"y": 2.9226884259,
				"z": -3.3876368153,
				"element": "C" 
			},
			{
				"x": -2.1007007354,
				"y": 2.6025965966,
				"z": -4.7242553778,
				"element": "C" 
			},
			{
				"x": -0.9589334039,
				"y": 1.8716289199,
				"z": -5.056334477,
				"element": "C" 
			},
			{
				"x": -0.0686204727,
				"y": 1.4611062888,
				"z": -4.0650639876,
				"element": "C" 
			},
			{
				"x": -0.4394094806,
				"y": 1.2093627545,
				"z": 6.3758272821,
				"element": "H" 
			},
			{
				"x": 1.2951441872,
				"y": 0.9400137036,
				"z": 6.5960777096,
				"element": "H" 
			},
			{
				"x": 0.1991372402,
				"y": -0.4293626587,
				"z": 6.3665786183,
				"element": "H" 
			},
			{
				"x": -2.2307804348,
				"y": 0.5330676886,
				"z": 4.7797397129,
				"element": "H" 
			},
			{
				"x": -1.5999572498,
				"y": -1.1093320393,
				"z": 4.7693386031,
				"element": "H" 
			},
			{
				"x": -2.3823385197,
				"y": -0.4580660952,
				"z": 3.3227410074,
				"element": "H" 
			},
			{
				"x": -0.9273622119,
				"y": 0.1129086118,
				"z": 1.5826445626,
				"element": "H" 
			},
			{
				"x": 3.0190435617,
				"y": 1.6253381556,
				"z": 2.3103503611,
				"element": "H" 
			},
			{
				"x": 2.6197892284,
				"y": 1.4672531848,
				"z": 4.7351595361,
				"element": "H" 
			},
			{
				"x": 2.4163341819,
				"y": 1.0391640386,
				"z": -2.7705340566,
				"element": "H" 
			},
			{
				"x": 4.9529256439,
				"y": -0.4190222759,
				"z": 0.8422589346,
				"element": "H" 
			},
			{
				"x": -1.6373527458,
				"y": 2.7711941861,
				"z": -1.3461424933,
				"element": "H" 
			},
			{
				"x": -3.2352610728,
				"y": 3.4887104859,
				"z": -3.1185412142,
				"element": "H" 
			},
			{
				"x": -2.7932633432,
				"y": 2.9154202496,
				"z": -5.4995599473,
				"element": "H" 
			},
			{
				"x": -0.7616255781,
				"y": 1.6059195638,
				"z": -6.0905074298,
				"element": "H" 
			},
			{
				"x": 0.7987796992,
				"y": 0.8662565039,
				"z": -4.3300084674,
				"element": "H" 
			}
		],
		 "valence_orbital": [ 
			{
				"type": "occ",
				"energy": -0.26436,
				"method": "rhf"
			},
			{
				"type": "occ",
				"energy": -0.26126,
				"method": "rhf"
			},
			{
				"type": "occ",
				"energy": -0.24372,
				"method": "rhf"
			},
			{
				"type": "occ",
				"energy": -0.23538,
				"method": "rhf"
			},
			{
				"type": "occ",
				"energy": -0.21593,
				"method": "rhf"
			},
			{
				"type": "unocc",
				"energy": -0.03979,
				"method": "rhf"
			},
			{
				"type": "unocc",
				"energy": -0.02644,
				"method": "rhf"
			},
			{
				"type": "unocc",
				"energy": -0.01214,
				"method": "rhf"
			},
			{
				"type": "unocc",
				"energy": 0.01013,
				"method": "rhf"
			},
			{
				"type": "unocc",
				"energy": 0.01368,
				"method": "rhf"
			}
		],
		"cosmo_sigma_profile": { 
			"-0.025": 0.0,
			"-0.024": 0.0,
			"-0.023": 0.0,
			"-0.022": 0.0,
			"-0.021": 0.0,
			"-0.02": 0.0,
			"-0.019": 0.000595500333638,
			"-0.018": 0.508947819251,
			"-0.017": 1.07840400963,
			"-0.016": 0.937849045285,
			"-0.015": 0.532523982511,
			"-0.014": 0.370325578659,
			"-0.013": 0.854261123495,
			"-0.012": 0.618764291899,
			"-0.011": 2.25777176436,
			"-0.01": 2.17019169453,
			"-0.009": 2.38456565469,
			"-0.008": 2.87043266826,
			"-0.007": 3.68320570877,
			"-0.006": 10.565604017,
			"-0.005": 15.9429077558,
			"-0.004": 29.7642954446,
			"-0.003": 28.6274639616,
			"-0.002": 25.9367537138,
			"-0.001": 26.7307563306,
			"0.0": 35.4675447575,
			"0.001": 29.6937879675,
			"0.002": 21.8616714712,
			"0.003": 20.651800184,
			"0.004": 22.5897770739,
			"0.005": 15.748295578,
			"0.006": 11.1518041128,
			"0.007": 5.84281003872,
			"0.008": 4.30830182569,
			"0.009": 3.86295285637,
			"0.01": 3.31694315655,
			"0.011": 2.75015379519,
			"0.012": 5.30917822602,
			"0.013": 0.677694282517,
			"0.014": 0.0,
			"0.015": 0.0,
			"0.016": 0.0,
			"0.017": 0.0,
			"0.018": 0.0,
			"0.019": 0.0,
			"0.02": 0.0,
			"0.021": 0.0,
			"0.022": 0.0,
			"0.023": 0.0,
			"0.024": 0.0,
			"0.025": 0.0
		}
	}
}
