{
	 "smiles": "NNC(=O)C1=CC=C(OC(F)(F)F)C=C1", 
	 "Tm": 384.15, 
	 "num_atms": 22, 
	 "gaussian": { 
		 "optdone": 1, 
		 "sigma_profile": "yes", 
		 "theory": "DFT", 
		 "functional": "B3LYP", 
		 "basiset": "6-31G**", 
		 "properties": { 
			 "R2extent": 5831.9865, 
			 "electric_dipole_moment_norm": 1.4950570056, 
			 "electric_quadrupole_moment_norm": 11.0850480513, 
			 "total_energy": -868.526358661, 
			 "HOMO_LUMO_gap": 0.20791, 
			 "cosmo_polarized_energy": -11.88, 
			 "cosmo_cavitation_energy": 28.53, 
			 "cosmo_dispersion_energy": -20.68, 
			 "cosmo_repulsion_energy": 1.56, 
			 "cosmo_total_nonelectrostatic_energy": 9.42, 
			 "SMD_solvation_energy": 7.5 
		},
		"coords": [
			{
				"x": -6.1532236897,
				"y": 1.3838058404,
				"z": 0.4402764057,
				"element": "N" 
			},
			{
				"x": -4.8350043701,
				"y": 0.8804560589,
				"z": 0.5330576981,
				"element": "N" 
			},
			{
				"x": -4.6078823706,
				"y": -0.4651694007,
				"z": 0.3473545009,
				"element": "C" 
			},
			{
				"x": -5.5359437826,
				"y": -1.2615876515,
				"z": 0.2361977877,
				"element": "O" 
			},
			{
				"x": -3.1726927923,
				"y": -0.8882474633,
				"z": 0.2841512126,
				"element": "C" 
			},
			{
				"x": -2.8852792579,
				"y": -2.126243061,
				"z": -0.3077391561,
				"element": "C" 
			},
			{
				"x": -1.5759600155,
				"y": -2.5784479519,
				"z": -0.4010565868,
				"element": "C" 
			},
			{
				"x": -0.5406218743,
				"y": -1.7963933422,
				"z": 0.1151872712,
				"element": "C" 
			},
			{
				"x": 0.7254254257,
				"y": -2.3610156498,
				"z": -0.0245690916,
				"element": "O" 
			},
			{
				"x": 1.8496138793,
				"y": -1.6547025222,
				"z": 0.2576419306,
				"element": "C" 
			},
			{
				"x": 1.9397017828,
				"y": -1.3285044703,
				"z": 1.5630873039,
				"element": "F" 
			},
			{
				"x": 1.9281363044,
				"y": -0.5103387038,
				"z": -0.4462476087,
				"element": "F" 
			},
			{
				"x": 2.8895511692,
				"y": -2.4230071278,
				"z": -0.0562340319,
				"element": "F" 
			},
			{
				"x": -0.7999381389,
				"y": -0.5718617775,
				"z": 0.7321661007,
				"element": "C" 
			},
			{
				"x": -2.1203447379,
				"y": -0.1286180778,
				"z": 0.8095841294,
				"element": "C" 
			},
			{
				"x": -6.6711893238,
				"y": 0.7219927941,
				"z": -0.141208189,
				"element": "H" 
			},
			{
				"x": -6.5699200638,
				"y": 1.3073040539,
				"z": 1.3676796017,
				"element": "H" 
			},
			{
				"x": -4.1324833965,
				"y": 1.5358630148,
				"z": 0.2202986688,
				"element": "H" 
			},
			{
				"x": -3.7082217774,
				"y": -2.7201605811,
				"z": -0.6899147539,
				"element": "H" 
			},
			{
				"x": -1.3352907972,
				"y": -3.5286646074,
				"z": -0.8651558149,
				"element": "H" 
			},
			{
				"x": -0.0040814308,
				"y": 0.0227893295,
				"z": 1.159756201,
				"element": "H" 
			},
			{
				"x": -2.3221507421,
				"y": 0.8075512967,
				"z": 1.3209864205,
				"element": "H" 
			}
		],
		 "valence_orbital": [ 
			{
				"type": "occ",
				"energy": -0.2952,
				"method": "rhf"
			},
			{
				"type": "occ",
				"energy": -0.27688,
				"method": "rhf"
			},
			{
				"type": "occ",
				"energy": -0.26857,
				"method": "rhf"
			},
			{
				"type": "occ",
				"energy": -0.25807,
				"method": "rhf"
			},
			{
				"type": "occ",
				"energy": -0.25427,
				"method": "rhf"
			},
			{
				"type": "unocc",
				"energy": -0.04636,
				"method": "rhf"
			},
			{
				"type": "unocc",
				"energy": -0.02614,
				"method": "rhf"
			},
			{
				"type": "unocc",
				"energy": 0.04623,
				"method": "rhf"
			},
			{
				"type": "unocc",
				"energy": 0.07363,
				"method": "rhf"
			},
			{
				"type": "unocc",
				"energy": 0.08933,
				"method": "rhf"
			}
		],
		"cosmo_sigma_profile": { 
			"-0.025": 0.0,
			"-0.024": 0.0,
			"-0.023": 0.0,
			"-0.022": 0.0,
			"-0.021": 0.0,
			"-0.02": 0.0,
			"-0.019": 0.0,
			"-0.018": 0.0,
			"-0.017": 0.0,
			"-0.016": 0.0,
			"-0.015": 0.065151924794,
			"-0.014": 0.843696275294,
			"-0.013": 1.31441149034,
			"-0.012": 1.42699142345,
			"-0.011": 2.79787486615,
			"-0.01": 3.2586281394,
			"-0.009": 4.1755789809,
			"-0.008": 5.04338113278,
			"-0.007": 7.99500647399,
			"-0.006": 8.04128472613,
			"-0.005": 9.48591406862,
			"-0.004": 7.64140354729,
			"-0.003": 9.97233325648,
			"-0.002": 11.1411433925,
			"-0.001": 17.0685339787,
			"0.0": 22.7839904101,
			"0.001": 33.3032910776,
			"0.002": 38.4961789844,
			"0.003": 11.3389011328,
			"0.004": 4.19124457494,
			"0.005": 4.26758332553,
			"0.006": 2.16025957025,
			"0.007": 2.29169350141,
			"0.008": 1.44894357082,
			"0.009": 2.13581242313,
			"0.01": 2.2792929829,
			"0.011": 2.35088065636,
			"0.012": 2.87102500288,
			"0.013": 5.20503127671,
			"0.014": 1.56210989977,
			"0.015": 0.458573726358,
			"0.016": 0.669458299444,
			"0.017": 0.179846327826,
			"0.018": 0.0,
			"0.019": 0.0,
			"0.02": 0.0,
			"0.021": 0.0,
			"0.022": 0.0,
			"0.023": 0.0,
			"0.024": 0.0,
			"0.025": 0.0
		}
	}
}
