{
	 "smiles": "FC1=CC=CC=C1C=C1/CCCCCCC1=O", 
	 "Tm": 465.5, 
	 "num_atms": 34, 
	 "gaussian": { 
		 "optdone": 1, 
		 "sigma_profile": "yes", 
		 "theory": "DFT", 
		 "functional": "B3LYP", 
		 "basiset": "6-31G**", 
		 "properties": { 
			 "R2extent": 5416.7444, 
			 "electric_dipole_moment_norm": 3.88230707441, 
			 "electric_quadrupole_moment_norm": 13.067168362, 
			 "total_energy": -756.887047327, 
			 "HOMO_LUMO_gap": 0.16569, 
			 "cosmo_polarized_energy": -9.0, 
			 "cosmo_cavitation_energy": 34.86, 
			 "cosmo_dispersion_energy": -25.01, 
			 "cosmo_repulsion_energy": 1.92, 
			 "cosmo_total_nonelectrostatic_energy": 11.76, 
			 "SMD_solvation_energy": 5.92 
		},
		"coords": [
			{
				"x": -0.7502667458,
				"y": 1.0704921319,
				"z": -4.210177864,
				"element": "F" 
			},
			{
				"x": -1.824370135,
				"y": 0.6616596904,
				"z": -3.5012456769,
				"element": "C" 
			},
			{
				"x": -3.0825556042,
				"y": 0.8336318131,
				"z": -4.0589485484,
				"element": "C" 
			},
			{
				"x": -4.200495497,
				"y": 0.4076598048,
				"z": -3.3400621833,
				"element": "C" 
			},
			{
				"x": -4.036979434,
				"y": -0.1860551167,
				"z": -2.0868441831,
				"element": "C" 
			},
			{
				"x": -2.7617883365,
				"y": -0.3408170517,
				"z": -1.5451306062,
				"element": "C" 
			},
			{
				"x": -1.6106672893,
				"y": 0.0937969085,
				"z": -2.2323344024,
				"element": "C" 
			},
			{
				"x": -0.2314696556,
				"y": -0.0796258317,
				"z": -1.766249615,
				"element": "C" 
			},
			{
				"x": 0.2854541436,
				"y": -0.0095898032,
				"z": -0.5142790783,
				"element": "C" 
			},
			{
				"x": -0.5653529906,
				"y": 0.3333856847,
				"z": 0.7042725829,
				"element": "C" 
			},
			{
				"x": -0.032222199,
				"y": 1.232197931,
				"z": 1.8466832991,
				"element": "C" 
			},
			{
				"x": 0.616536564,
				"y": 2.5698246892,
				"z": 1.4564385113,
				"element": "C" 
			},
			{
				"x": 1.8627463746,
				"y": 2.4959899999,
				"z": 0.5553926365,
				"element": "C" 
			},
			{
				"x": 2.9401103792,
				"y": 1.471485751,
				"z": 0.9562670135,
				"element": "C" 
			},
			{
				"x": 2.5595267401,
				"y": -0.0310836903,
				"z": 0.8193751063,
				"element": "C" 
			},
			{
				"x": 1.7700459382,
				"y": -0.3142249189,
				"z": -0.4497796381,
				"element": "C" 
			},
			{
				"x": 2.3605813646,
				"y": -0.7569305366,
				"z": -1.4266943822,
				"element": "O" 
			},
			{
				"x": -3.1678525187,
				"y": 1.2916200045,
				"z": -5.0383855184,
				"element": "H" 
			},
			{
				"x": -5.1923005036,
				"y": 0.5326508168,
				"z": -3.7637215317,
				"element": "H" 
			},
			{
				"x": -4.9021103364,
				"y": -0.5394213776,
				"z": -1.5344526913,
				"element": "H" 
			},
			{
				"x": -2.6470332937,
				"y": -0.8414280897,
				"z": -0.5909243112,
				"element": "H" 
			},
			{
				"x": 0.4943399767,
				"y": -0.2809673928,
				"z": -2.5503375448,
				"element": "H" 
			},
			{
				"x": -1.4752944074,
				"y": 0.8096410604,
				"z": 0.3260230733,
				"element": "H" 
			},
			{
				"x": -0.9016858609,
				"y": -0.6044524123,
				"z": 1.1723595455,
				"element": "H" 
			},
			{
				"x": 0.6500382587,
				"y": 0.6761553686,
				"z": 2.4947568246,
				"element": "H" 
			},
			{
				"x": -0.9003779199,
				"y": 1.4528825065,
				"z": 2.4810138246,
				"element": "H" 
			},
			{
				"x": -0.1301741885,
				"y": 3.2071224282,
				"z": 0.9638995629,
				"element": "H" 
			},
			{
				"x": 0.8836175355,
				"y": 3.0850837641,
				"z": 2.3890652851,
				"element": "H" 
			},
			{
				"x": 1.5581504118,
				"y": 2.3060712249,
				"z": -0.4797316856,
				"element": "H" 
			},
			{
				"x": 2.3301554095,
				"y": 3.4886445928,
				"z": 0.5435978254,
				"element": "H" 
			},
			{
				"x": 3.2709043258,
				"y": 1.6566668327,
				"z": 1.9862988175,
				"element": "H" 
			},
			{
				"x": 3.8131777643,
				"y": 1.6434290868,
				"z": 0.3166195814,
				"element": "H" 
			},
			{
				"x": 3.4761060613,
				"y": -0.6223370611,
				"z": 0.7500321738,
				"element": "H" 
			},
			{
				"x": 2.0085056681,
				"y": -0.3803588084,
				"z": 1.6949037972,
				"element": "H" 
			}
		],
		 "valence_orbital": [ 
			{
				"type": "occ",
				"energy": -0.3071,
				"method": "rhf"
			},
			{
				"type": "occ",
				"energy": -0.28601,
				"method": "rhf"
			},
			{
				"type": "occ",
				"energy": -0.25447,
				"method": "rhf"
			},
			{
				"type": "occ",
				"energy": -0.23839,
				"method": "rhf"
			},
			{
				"type": "occ",
				"energy": -0.22805,
				"method": "rhf"
			},
			{
				"type": "unocc",
				"energy": -0.06236,
				"method": "rhf"
			},
			{
				"type": "unocc",
				"energy": -0.00771,
				"method": "rhf"
			},
			{
				"type": "unocc",
				"energy": 0.00506,
				"method": "rhf"
			},
			{
				"type": "unocc",
				"energy": 0.06411,
				"method": "rhf"
			},
			{
				"type": "unocc",
				"energy": 0.07667,
				"method": "rhf"
			}
		],
		"cosmo_sigma_profile": { 
			"-0.025": 0.0,
			"-0.024": 0.0,
			"-0.023": 0.0,
			"-0.022": 0.0,
			"-0.021": 0.0,
			"-0.02": 0.0,
			"-0.019": 0.0,
			"-0.018": 0.0,
			"-0.017": 0.0,
			"-0.016": 0.0,
			"-0.015": 0.0,
			"-0.014": 0.0,
			"-0.013": 0.0,
			"-0.012": 0.0,
			"-0.011": 0.0,
			"-0.01": 0.0,
			"-0.009": 0.0,
			"-0.008": 0.223258795037,
			"-0.007": 2.85737841975,
			"-0.006": 8.56569904415,
			"-0.005": 12.8405758237,
			"-0.004": 16.5226258016,
			"-0.003": 24.0332694145,
			"-0.002": 36.20408005,
			"-0.001": 40.2010537406,
			"0.0": 33.3038805104,
			"0.001": 25.5289279676,
			"0.002": 17.3914091913,
			"0.003": 16.498292453,
			"0.004": 17.6337172204,
			"0.005": 4.63725415801,
			"0.006": 2.35656115792,
			"0.007": 1.13906800086,
			"0.008": 1.64737212615,
			"0.009": 1.26669423118,
			"0.01": 2.46953078941,
			"0.011": 2.25060121894,
			"0.012": 3.81051883171,
			"0.013": 2.6623592849,
			"0.014": 0.507859221809,
			"0.015": 0.0,
			"0.016": 0.0,
			"0.017": 0.0,
			"0.018": 0.0,
			"0.019": 0.0,
			"0.02": 0.0,
			"0.021": 0.0,
			"0.022": 0.0,
			"0.023": 0.0,
			"0.024": 0.0,
			"0.025": 0.0
		}
	}
}
