{
	 "smiles": "O=C1NCC2(CCCC2)O1", 
	 "Tm": 363.15, 
	 "num_atms": 21, 
	 "gaussian": { 
		 "optdone": 1, 
		 "sigma_profile": "yes", 
		 "theory": "DFT", 
		 "functional": "B3LYP", 
		 "basiset": "6-31G**", 
		 "properties": { 
			 "R2extent": 2090.0526, 
			 "electric_dipole_moment_norm": 4.94952148495, 
			 "electric_quadrupole_moment_norm": 20.0851248246, 
			 "total_energy": -478.599192587, 
			 "HOMO_LUMO_gap": 0.31101, 
			 "cosmo_polarized_energy": -13.17, 
			 "cosmo_cavitation_energy": 22.72, 
			 "cosmo_dispersion_energy": -17.19, 
			 "cosmo_repulsion_energy": 1.41, 
			 "cosmo_total_nonelectrostatic_energy": 6.95, 
			 "SMD_solvation_energy": 3.55 
		},
		"coords": [
			{
				"x": -0.8441809006,
				"y": -3.0424497723,
				"z": 3.2561882974,
				"element": "O" 
			},
			{
				"x": -0.5519440446,
				"y": -1.9580696241,
				"z": 2.8143551086,
				"element": "C" 
			},
			{
				"x": -0.6925516785,
				"y": -0.7264559852,
				"z": 3.4252201308,
				"element": "N" 
			},
			{
				"x": 0.0589517949,
				"y": 0.2931696272,
				"z": 2.7168855314,
				"element": "C" 
			},
			{
				"x": 0.1309204289,
				"y": -0.3310062573,
				"z": 1.3066807764,
				"element": "C" 
			},
			{
				"x": -0.97349618,
				"y": 0.0892474882,
				"z": 0.3233854008,
				"element": "C" 
			},
			{
				"x": -0.4613698517,
				"y": -0.4486099574,
				"z": -1.0209629842,
				"element": "C" 
			},
			{
				"x": 1.0591843947,
				"y": -0.1563281035,
				"z": -0.9835282519,
				"element": "C" 
			},
			{
				"x": 1.438020173,
				"y": -0.1089183803,
				"z": 0.5247988746,
				"element": "C" 
			},
			{
				"x": -0.0184798649,
				"y": -1.7585406297,
				"z": 1.5695596492,
				"element": "O" 
			},
			{
				"x": -0.7935762549,
				"y": -0.7243324552,
				"z": 4.4291714956,
				"element": "H" 
			},
			{
				"x": 1.0638035481,
				"y": 0.4427779391,
				"z": 3.139847515,
				"element": "H" 
			},
			{
				"x": -0.4585182832,
				"y": 1.2576211254,
				"z": 2.7058341566,
				"element": "H" 
			},
			{
				"x": -1.9542907809,
				"y": -0.2934180166,
				"z": 0.6190747814,
				"element": "H" 
			},
			{
				"x": -1.0282479357,
				"y": 1.1860279585,
				"z": 0.3010729037,
				"element": "H" 
			},
			{
				"x": -0.960693827,
				"y": 0.0048308809,
				"z": -1.8820251747,
				"element": "H" 
			},
			{
				"x": -0.6371914667,
				"y": -1.5279832241,
				"z": -1.0647422958,
				"element": "H" 
			},
			{
				"x": 1.2735667088,
				"y": 0.8083813382,
				"z": -1.4555939826,
				"element": "H" 
			},
			{
				"x": 1.6330850125,
				"y": -0.9104271912,
				"z": -1.5285155188,
				"element": "H" 
			},
			{
				"x": 2.1675149969,
				"y": -0.8708260714,
				"z": 0.811348062,
				"element": "H" 
			},
			{
				"x": 1.8616940109,
				"y": 0.8652093107,
				"z": 0.7940455247,
				"element": "H" 
			}
		],
		 "valence_orbital": [ 
			{
				"type": "occ",
				"energy": -0.34056,
				"method": "rhf"
			},
			{
				"type": "occ",
				"energy": -0.32678,
				"method": "rhf"
			},
			{
				"type": "occ",
				"energy": -0.28142,
				"method": "rhf"
			},
			{
				"type": "occ",
				"energy": -0.26881,
				"method": "rhf"
			},
			{
				"type": "occ",
				"energy": -0.25761,
				"method": "rhf"
			},
			{
				"type": "unocc",
				"energy": 0.0534,
				"method": "rhf"
			},
			{
				"type": "unocc",
				"energy": 0.06856,
				"method": "rhf"
			},
			{
				"type": "unocc",
				"energy": 0.0869,
				"method": "rhf"
			},
			{
				"type": "unocc",
				"energy": 0.09203,
				"method": "rhf"
			},
			{
				"type": "unocc",
				"energy": 0.10959,
				"method": "rhf"
			}
		],
		"cosmo_sigma_profile": { 
			"-0.025": 0.0,
			"-0.024": 0.0,
			"-0.023": 0.0,
			"-0.022": 0.0,
			"-0.021": 0.0,
			"-0.02": 0.0,
			"-0.019": 0.0,
			"-0.018": 0.0,
			"-0.017": 0.0,
			"-0.016": 0.0,
			"-0.015": 0.505771771238,
			"-0.014": 1.30433227553,
			"-0.013": 0.912821016453,
			"-0.012": 1.21461636923,
			"-0.011": 1.0246410784,
			"-0.01": 1.11241412228,
			"-0.009": 0.680379815454,
			"-0.008": 1.08212495322,
			"-0.007": 1.03425479498,
			"-0.006": 4.08001280008,
			"-0.005": 12.2850060343,
			"-0.004": 17.4505305843,
			"-0.003": 20.3931114533,
			"-0.002": 20.9622384466,
			"-0.001": 19.7601427333,
			"0.0": 16.4772762237,
			"0.001": 13.9569583841,
			"0.002": 3.4291545192,
			"0.003": 2.66010903682,
			"0.004": 3.54844619064,
			"0.005": 3.38644673692,
			"0.006": 2.20505344051,
			"0.007": 2.72583458808,
			"0.008": 2.41251272804,
			"0.009": 2.77996368892,
			"0.01": 2.39213986628,
			"0.011": 3.51360108144,
			"0.012": 3.55537432307,
			"0.013": 7.22955551211,
			"0.014": 2.69563577771,
			"0.015": 0.120118273746,
			"0.016": 0.0,
			"0.017": 0.0,
			"0.018": 0.0,
			"0.019": 0.0,
			"0.02": 0.0,
			"0.021": 0.0,
			"0.022": 0.0,
			"0.023": 0.0,
			"0.024": 0.0,
			"0.025": 0.0
		}
	}
}
