{
	 "smiles": "[O-][N+](=O)C1=CC2=C(C=C1Br)N=CC=N2", 
	 "Tm": 497.15, 
	 "num_atms": 18, 
	 "gaussian": { 
		 "optdone": 1, 
		 "sigma_profile": "yes", 
		 "theory": "DFT", 
		 "functional": "B3LYP", 
		 "basiset": "6-31G**", 
		 "properties": { 
			 "R2extent": 4088.1201, 
			 "electric_dipole_moment_norm": 4.67096961026, 
			 "electric_quadrupole_moment_norm": 9.64263254148, 
			 "total_energy": -3193.24444967, 
			 "HOMO_LUMO_gap": 0.15722, 
			 "cosmo_polarized_energy": -10.66, 
			 "cosmo_cavitation_energy": 26.16, 
			 "cosmo_dispersion_energy": -19.82, 
			 "cosmo_repulsion_energy": 1.53, 
			 "cosmo_total_nonelectrostatic_energy": 7.86, 
			 "SMD_solvation_energy": 2.64 
		},
		"coords": [
			{
				"x": -3.4988355,
				"y": -0.5412381968,
				"z": -0.2872338697,
				"element": "O" 
			},
			{
				"x": -2.7890861622,
				"y": -0.7564869166,
				"z": 0.6931363497,
				"element": "N" 
			},
			{
				"x": -3.18411635,
				"y": -1.122301628,
				"z": 1.7944316464,
				"element": "O" 
			},
			{
				"x": -1.3322317659,
				"y": -0.6039326225,
				"z": 0.505470961,
				"element": "C" 
			},
			{
				"x": -0.8358375764,
				"y": -1.0135111852,
				"z": -0.7111879027,
				"element": "C" 
			},
			{
				"x": 0.5541130647,
				"y": -0.9684121343,
				"z": -0.9611888708,
				"element": "C" 
			},
			{
				"x": 1.4233141973,
				"y": -0.4700926871,
				"z": 0.0538533795,
				"element": "C" 
			},
			{
				"x": 0.8799698274,
				"y": -0.025523076,
				"z": 1.2836285922,
				"element": "C" 
			},
			{
				"x": -0.4752852308,
				"y": -0.0932066311,
				"z": 1.5223225504,
				"element": "C" 
			},
			{
				"x": -1.1173248517,
				"y": 0.592124228,
				"z": 3.1712014979,
				"element": "Br" 
			},
			{
				"x": 2.7731134038,
				"y": -0.4019120313,
				"z": -0.1424674236,
				"element": "N" 
			},
			{
				"x": 3.2068979055,
				"y": -0.8221181275,
				"z": -1.3105850457,
				"element": "C" 
			},
			{
				"x": 2.3370960928,
				"y": -1.320783892,
				"z": -2.3241929159,
				"element": "C" 
			},
			{
				"x": 1.0343044329,
				"y": -1.3975953033,
				"z": -2.1643154447,
				"element": "N" 
			},
			{
				"x": -1.5055930906,
				"y": -1.3775679044,
				"z": -1.4806884802,
				"element": "H" 
			},
			{
				"x": 1.5558997852,
				"y": 0.3765582855,
				"z": 2.0285506919,
				"element": "H" 
			},
			{
				"x": 4.2797817462,
				"y": -0.778747656,
				"z": -1.490928858,
				"element": "H" 
			},
			{
				"x": 2.7472200718,
				"y": -1.6561525214,
				"z": -3.2751068577,
				"element": "H" 
			}
		],
		 "valence_orbital": [ 
			{
				"type": "occ",
				"energy": -0.31448,
				"method": "rhf"
			},
			{
				"type": "occ",
				"energy": -0.29305,
				"method": "rhf"
			},
			{
				"type": "occ",
				"energy": -0.28258,
				"method": "rhf"
			},
			{
				"type": "occ",
				"energy": -0.27405,
				"method": "rhf"
			},
			{
				"type": "occ",
				"energy": -0.26613,
				"method": "rhf"
			},
			{
				"type": "unocc",
				"energy": -0.10891,
				"method": "rhf"
			},
			{
				"type": "unocc",
				"energy": -0.08604,
				"method": "rhf"
			},
			{
				"type": "unocc",
				"energy": -0.04367,
				"method": "rhf"
			},
			{
				"type": "unocc",
				"energy": -0.02255,
				"method": "rhf"
			},
			{
				"type": "unocc",
				"energy": -0.01746,
				"method": "rhf"
			}
		],
		"cosmo_sigma_profile": { 
			"-0.025": 0.0,
			"-0.024": 0.0,
			"-0.023": 0.0,
			"-0.022": 0.0,
			"-0.021": 0.0,
			"-0.02": 0.0,
			"-0.019": 0.0,
			"-0.018": 0.0,
			"-0.017": 0.0,
			"-0.016": 0.0,
			"-0.015": 0.0,
			"-0.014": 0.0,
			"-0.013": 0.0,
			"-0.012": 0.0,
			"-0.011": 0.0,
			"-0.01": 0.0,
			"-0.009": 4.53925590154,
			"-0.008": 9.95482254204,
			"-0.007": 7.58004720867,
			"-0.006": 9.07956694254,
			"-0.005": 10.3385860531,
			"-0.004": 13.9663346689,
			"-0.003": 19.2307353868,
			"-0.002": 19.5802812138,
			"-0.001": 19.2545112111,
			"0.0": 13.1489244996,
			"0.001": 10.5332322031,
			"0.002": 11.9181985676,
			"0.003": 12.4814181998,
			"0.004": 7.41284481305,
			"0.005": 6.58246084481,
			"0.006": 8.23524639682,
			"0.007": 12.9007570251,
			"0.008": 7.70001152881,
			"0.009": 4.29940572176,
			"0.01": 2.18827501833,
			"0.011": 1.47802974611,
			"0.012": 1.23256840682,
			"0.013": 1.46943985164,
			"0.014": 0.262127118208,
			"0.015": 0.0,
			"0.016": 0.0,
			"0.017": 0.0,
			"0.018": 0.0,
			"0.019": 0.0,
			"0.02": 0.0,
			"0.021": 0.0,
			"0.022": 0.0,
			"0.023": 0.0,
			"0.024": 0.0,
			"0.025": 0.0
		}
	}
}
