{
	 "smiles": "NNC1=C(N=C(O1)C1=CC=CC=C1)C(N)=O", 
	 "Tm": 447.15, 
	 "num_atms": 26, 
	 "gaussian": { 
		 "optdone": 1, 
		 "sigma_profile": "yes", 
		 "theory": "DFT", 
		 "functional": "B3LYP", 
		 "basiset": "6-31G**", 
		 "properties": { 
			 "R2extent": 4719.2424, 
			 "electric_dipole_moment_norm": 4.74159908681, 
			 "electric_quadrupole_moment_norm": 18.2270147487, 
			 "total_energy": -756.516030785, 
			 "HOMO_LUMO_gap": 0.16342, 
			 "cosmo_polarized_energy": -22.86, 
			 "cosmo_cavitation_energy": 31.47, 
			 "cosmo_dispersion_energy": -22.94, 
			 "cosmo_repulsion_energy": 1.81, 
			 "cosmo_total_nonelectrostatic_energy": 10.33, 
			 "SMD_solvation_energy": 5.54 
		},
		"coords": [
			{
				"x": 1.4224458233,
				"y": -0.5580531831,
				"z": 2.9024003475,
				"element": "N" 
			},
			{
				"x": 1.8371611116,
				"y": -0.792758186,
				"z": 1.5689335348,
				"element": "N" 
			},
			{
				"x": 0.9429621482,
				"y": -0.6880403588,
				"z": 0.5321758536,
				"element": "C" 
			},
			{
				"x": 1.072673628,
				"y": -0.4812873656,
				"z": -0.8281263256,
				"element": "C" 
			},
			{
				"x": -0.1989644309,
				"y": -0.4867314039,
				"z": -1.3873901713,
				"element": "N" 
			},
			{
				"x": -1.019438569,
				"y": -0.6970043166,
				"z": -0.41137573,
				"element": "C" 
			},
			{
				"x": -0.3719407549,
				"y": -0.8292044595,
				"z": 0.8211719529,
				"element": "O" 
			},
			{
				"x": -2.4716381301,
				"y": -0.8059943066,
				"z": -0.4296415418,
				"element": "C" 
			},
			{
				"x": -3.1488509293,
				"y": -0.6534234121,
				"z": -1.6524110265,
				"element": "C" 
			},
			{
				"x": -4.5356871385,
				"y": -0.7519066074,
				"z": -1.6970897435,
				"element": "C" 
			},
			{
				"x": -5.264758638,
				"y": -1.0021985608,
				"z": -0.5301970374,
				"element": "C" 
			},
			{
				"x": -4.5953642897,
				"y": -1.154133856,
				"z": 0.6855681837,
				"element": "C" 
			},
			{
				"x": -3.2060660153,
				"y": -1.0577047398,
				"z": 0.7403858823,
				"element": "C" 
			},
			{
				"x": 2.2986870761,
				"y": -0.2119054698,
				"z": -1.5956512019,
				"element": "C" 
			},
			{
				"x": 3.4739134667,
				"y": -0.5984951102,
				"z": -0.9274212745,
				"element": "N" 
			},
			{
				"x": 2.3258733943,
				"y": 0.3525166097,
				"z": -2.6757933058,
				"element": "O" 
			},
			{
				"x": 0.7323751409,
				"y": 0.193392714,
				"z": 2.9273052384,
				"element": "H" 
			},
			{
				"x": 0.9626844611,
				"y": -1.4004137661,
				"z": 3.23830283,
				"element": "H" 
			},
			{
				"x": 2.7417937096,
				"y": -0.3854296109,
				"z": 1.3578254372,
				"element": "H" 
			},
			{
				"x": -2.5712087275,
				"y": -0.4584477134,
				"z": -2.5496588033,
				"element": "H" 
			},
			{
				"x": -5.0513557705,
				"y": -0.6324171215,
				"z": -2.6454357465,
				"element": "H" 
			},
			{
				"x": -6.3474205649,
				"y": -1.0781449238,
				"z": -0.5693759936,
				"element": "H" 
			},
			{
				"x": -5.1559231085,
				"y": -1.3491131962,
				"z": 1.595239428,
				"element": "H" 
			},
			{
				"x": -2.6875836144,
				"y": -1.1775661095,
				"z": 1.6856748722,
				"element": "H" 
			},
			{
				"x": 3.4483414242,
				"y": -1.5063003735,
				"z": -0.4761146164,
				"element": "H" 
			},
			{
				"x": 4.2930892974,
				"y": -0.4713351725,
				"z": -1.5109010425,
				"element": "H" 
			}
		],
		 "valence_orbital": [ 
			{
				"type": "occ",
				"energy": -0.2803,
				"method": "rhf"
			},
			{
				"type": "occ",
				"energy": -0.26906,
				"method": "rhf"
			},
			{
				"type": "occ",
				"energy": -0.25694,
				"method": "rhf"
			},
			{
				"type": "occ",
				"energy": -0.24829,
				"method": "rhf"
			},
			{
				"type": "occ",
				"energy": -0.20456,
				"method": "rhf"
			},
			{
				"type": "unocc",
				"energy": -0.04114,
				"method": "rhf"
			},
			{
				"type": "unocc",
				"energy": -0.01405,
				"method": "rhf"
			},
			{
				"type": "unocc",
				"energy": -0.00515,
				"method": "rhf"
			},
			{
				"type": "unocc",
				"energy": 0.05506,
				"method": "rhf"
			},
			{
				"type": "unocc",
				"energy": 0.0612,
				"method": "rhf"
			}
		],
		"cosmo_sigma_profile": { 
			"-0.025": 0.0,
			"-0.024": 0.0,
			"-0.023": 0.0,
			"-0.022": 0.0,
			"-0.021": 0.0,
			"-0.02": 0.0,
			"-0.019": 0.0,
			"-0.018": 0.0,
			"-0.017": 0.0,
			"-0.016": 0.0,
			"-0.015": 0.0,
			"-0.014": 0.34124577575,
			"-0.013": 2.17288534687,
			"-0.012": 4.3356389459,
			"-0.011": 5.83285959479,
			"-0.01": 6.90986400658,
			"-0.009": 6.48981667135,
			"-0.008": 5.50020036796,
			"-0.007": 5.47221032942,
			"-0.006": 12.0843356385,
			"-0.005": 14.8832899182,
			"-0.004": 15.3564964332,
			"-0.003": 12.8053818532,
			"-0.002": 14.7092099951,
			"-0.001": 14.5454489701,
			"0.0": 16.2889109583,
			"0.001": 16.2058509593,
			"0.002": 15.5498298582,
			"0.003": 14.9991659667,
			"0.004": 15.2452713099,
			"0.005": 10.9727619332,
			"0.006": 4.10325515407,
			"0.007": 4.37863569089,
			"0.008": 2.99677763637,
			"0.009": 2.91482112039,
			"0.01": 2.80694578761,
			"0.011": 2.83697158861,
			"0.012": 3.44237429332,
			"0.013": 7.44301008859,
			"0.014": 5.45203929499,
			"0.015": 2.87083560008,
			"0.016": 1.1831927274,
			"0.017": 0.0,
			"0.018": 0.0,
			"0.019": 0.0,
			"0.02": 0.0,
			"0.021": 0.0,
			"0.022": 0.0,
			"0.023": 0.0,
			"0.024": 0.0,
			"0.025": 0.0
		}
	}
}
