{
	 "smiles": "CC1=CC=C(C=C1)C1CCCCC1O", 
	 "Tm": 346.15, 
	 "num_atms": 32, 
	 "gaussian": { 
		 "optdone": 1, 
		 "sigma_profile": "yes", 
		 "theory": "DFT", 
		 "functional": "B3LYP", 
		 "basiset": "6-31G**", 
		 "properties": { 
			 "R2extent": 3315.6803, 
			 "electric_dipole_moment_norm": 1.59573762881, 
			 "electric_quadrupole_moment_norm": 5.97446108699, 
			 "total_energy": -581.468725621, 
			 "HOMO_LUMO_gap": 0.23139, 
			 "cosmo_polarized_energy": -7.5, 
			 "cosmo_cavitation_energy": 31.49, 
			 "cosmo_dispersion_energy": -23.24, 
			 "cosmo_repulsion_energy": 1.83, 
			 "cosmo_total_nonelectrostatic_energy": 10.09, 
			 "SMD_solvation_energy": 4.64 
		},
		"coords": [
			{
				"x": 4.1819459016,
				"y": 2.5376344632,
				"z": 1.0471208985,
				"element": "C" 
			},
			{
				"x": 2.9672813083,
				"y": 1.6638694663,
				"z": 0.8403769729,
				"element": "C" 
			},
			{
				"x": 2.1580387016,
				"y": 1.2811270385,
				"z": 1.9198959037,
				"element": "C" 
			},
			{
				"x": 1.0267490411,
				"y": 0.4925218833,
				"z": 1.7344910405,
				"element": "C" 
			},
			{
				"x": 0.6385896004,
				"y": 0.0530232627,
				"z": 0.4545721981,
				"element": "C" 
			},
			{
				"x": 1.4624686036,
				"y": 0.4206228325,
				"z": -0.617167026,
				"element": "C" 
			},
			{
				"x": 2.6003035187,
				"y": 1.2106702291,
				"z": -0.4283684015,
				"element": "C" 
			},
			{
				"x": -0.5815279391,
				"y": -0.8633698663,
				"z": 0.3095523494,
				"element": "C" 
			},
			{
				"x": -0.7792947612,
				"y": -1.4928521375,
				"z": -1.0928684213,
				"element": "C" 
			},
			{
				"x": -1.3661822494,
				"y": -0.537455229,
				"z": -2.1518401102,
				"element": "C" 
			},
			{
				"x": -2.6432265467,
				"y": 0.1596792779,
				"z": -1.6602888992,
				"element": "C" 
			},
			{
				"x": -2.4162327745,
				"y": 0.8161583337,
				"z": -0.290807942,
				"element": "C" 
			},
			{
				"x": -1.9352383804,
				"y": -0.2265552143,
				"z": 0.7226639889,
				"element": "C" 
			},
			{
				"x": -1.8311895725,
				"y": 0.3007345975,
				"z": 2.0405117755,
				"element": "O" 
			},
			{
				"x": 3.8968640164,
				"y": 3.5822497573,
				"z": 1.2250940014,
				"element": "H" 
			},
			{
				"x": 4.8398390398,
				"y": 2.522100506,
				"z": 0.1731903552,
				"element": "H" 
			},
			{
				"x": 4.7664037819,
				"y": 2.2133383877,
				"z": 1.914929364,
				"element": "H" 
			},
			{
				"x": 2.4241575917,
				"y": 1.5988117248,
				"z": 2.9259574363,
				"element": "H" 
			},
			{
				"x": 0.4258723143,
				"y": 0.2121771123,
				"z": 2.5910373319,
				"element": "H" 
			},
			{
				"x": 1.2418835355,
				"y": 0.0803012963,
				"z": -1.6220898114,
				"element": "H" 
			},
			{
				"x": 3.2132859899,
				"y": 1.4709393942,
				"z": -1.2884466196,
				"element": "H" 
			},
			{
				"x": -0.4200376161,
				"y": -1.6904830327,
				"z": 1.0143427272,
				"element": "H" 
			},
			{
				"x": -1.4671248949,
				"y": -2.3414546344,
				"z": -0.9801529402,
				"element": "H" 
			},
			{
				"x": 0.1670761394,
				"y": -1.9174756841,
				"z": -1.4453622653,
				"element": "H" 
			},
			{
				"x": -1.5734766421,
				"y": -1.100213388,
				"z": -3.0701630104,
				"element": "H" 
			},
			{
				"x": -0.6340207017,
				"y": 0.231504318,
				"z": -2.4205217874,
				"element": "H" 
			},
			{
				"x": -3.4547679261,
				"y": -0.5769468662,
				"z": -1.5741503753,
				"element": "H" 
			},
			{
				"x": -2.9758430437,
				"y": 0.9040782063,
				"z": -2.3927667063,
				"element": "H" 
			},
			{
				"x": -1.6729109831,
				"y": 1.619868407,
				"z": -0.3617986274,
				"element": "H" 
			},
			{
				"x": -3.349727325,
				"y": 1.2714305124,
				"z": 0.0697110156,
				"element": "H" 
			},
			{
				"x": -2.6686868433,
				"y": -1.0535078614,
				"z": 0.7206765085,
				"element": "H" 
			},
			{
				"x": -2.6602708844,
				"y": 0.753272907,
				"z": 2.2414690759,
				"element": "H" 
			}
		],
		 "valence_orbital": [ 
			{
				"type": "occ",
				"energy": -0.306,
				"method": "rhf"
			},
			{
				"type": "occ",
				"energy": -0.29401,
				"method": "rhf"
			},
			{
				"type": "occ",
				"energy": -0.26145,
				"method": "rhf"
			},
			{
				"type": "occ",
				"energy": -0.23319,
				"method": "rhf"
			},
			{
				"type": "occ",
				"energy": -0.22012,
				"method": "rhf"
			},
			{
				"type": "unocc",
				"energy": 0.01127,
				"method": "rhf"
			},
			{
				"type": "unocc",
				"energy": 0.01378,
				"method": "rhf"
			},
			{
				"type": "unocc",
				"energy": 0.07541,
				"method": "rhf"
			},
			{
				"type": "unocc",
				"energy": 0.09089,
				"method": "rhf"
			},
			{
				"type": "unocc",
				"energy": 0.1054,
				"method": "rhf"
			}
		],
		"cosmo_sigma_profile": { 
			"-0.025": 0.0,
			"-0.024": 0.0,
			"-0.023": 0.0,
			"-0.022": 0.0,
			"-0.021": 0.0,
			"-0.02": 0.0,
			"-0.019": 0.0,
			"-0.018": 0.0,
			"-0.017": 0.0,
			"-0.016": 0.0,
			"-0.015": 0.479196046822,
			"-0.014": 1.27159330252,
			"-0.013": 0.547711518311,
			"-0.012": 0.835152899056,
			"-0.011": 1.11763763724,
			"-0.01": 1.05954203927,
			"-0.009": 0.575689230552,
			"-0.008": 0.817338928077,
			"-0.007": 1.24979783295,
			"-0.006": 1.56543425839,
			"-0.005": 3.13912491247,
			"-0.004": 12.6325657843,
			"-0.003": 24.1343954378,
			"-0.002": 39.2247344271,
			"-0.001": 33.5872656274,
			"0.0": 37.6992349538,
			"0.001": 25.402753177,
			"0.002": 9.62675404453,
			"0.003": 7.18081023976,
			"0.004": 7.65388015878,
			"0.005": 7.99012804912,
			"0.006": 8.50997991385,
			"0.007": 8.51558953983,
			"0.008": 3.10140817288,
			"0.009": 1.83638353107,
			"0.01": 1.74437661334,
			"0.011": 1.66599435899,
			"0.012": 0.863155543649,
			"0.013": 0.470429589175,
			"0.014": 0.284563186992,
			"0.015": 0.0,
			"0.016": 0.0,
			"0.017": 0.0,
			"0.018": 0.0,
			"0.019": 0.0,
			"0.02": 0.0,
			"0.021": 0.0,
			"0.022": 0.0,
			"0.023": 0.0,
			"0.024": 0.0,
			"0.025": 0.0
		}
	}
}
