{
	 "smiles": "O=C1CCCCC1C1CCCCC1", 
	 "Tm": 241.15, 
	 "num_atms": 33, 
	 "gaussian": { 
		 "optdone": 1, 
		 "sigma_profile": "yes", 
		 "theory": "DFT", 
		 "functional": "B3LYP", 
		 "basiset": "6-31G**", 
		 "properties": { 
			 "R2extent": 3093.1839, 
			 "electric_dipole_moment_norm": 2.79310884321, 
			 "electric_quadrupole_moment_norm": 10.5054208445, 
			 "total_energy": -544.577755533, 
			 "HOMO_LUMO_gap": 0.21754, 
			 "cosmo_polarized_energy": -6.57, 
			 "cosmo_cavitation_energy": 30.81, 
			 "cosmo_dispersion_energy": -22.55, 
			 "cosmo_repulsion_energy": 1.79, 
			 "cosmo_total_nonelectrostatic_energy": 10.05, 
			 "SMD_solvation_energy": 4.21 
		},
		"coords": [
			{
				"x": -2.3928813591,
				"y": 1.0428581642,
				"z": 1.6289659442,
				"element": "O" 
			},
			{
				"x": -1.2573546509,
				"y": 1.4407892855,
				"z": 1.4386477108,
				"element": "C" 
			},
			{
				"x": -0.8343159461,
				"y": 2.8520202392,
				"z": 1.8435991578,
				"element": "C" 
			},
			{
				"x": 0.2756226829,
				"y": 3.4226250812,
				"z": 0.9474333963,
				"element": "C" 
			},
			{
				"x": 1.5238671587,
				"y": 2.5036836221,
				"z": 0.8979806761,
				"element": "C" 
			},
			{
				"x": 1.2065409701,
				"y": 1.0469427791,
				"z": 1.3004076354,
				"element": "C" 
			},
			{
				"x": -0.1722903108,
				"y": 0.5561634006,
				"z": 0.8092600162,
				"element": "C" 
			},
			{
				"x": -0.3355868889,
				"y": 0.4794736996,
				"z": -0.7445027564,
				"element": "C" 
			},
			{
				"x": 0.8339980761,
				"y": -0.2742824558,
				"z": -1.4135655855,
				"element": "C" 
			},
			{
				"x": 0.6656363944,
				"y": -0.369811511,
				"z": -2.9392324193,
				"element": "C" 
			},
			{
				"x": -0.675016519,
				"y": -1.0044308789,
				"z": -3.3312980919,
				"element": "C" 
			},
			{
				"x": -1.8440522161,
				"y": -0.2624787503,
				"z": -2.6702200768,
				"element": "C" 
			},
			{
				"x": -1.6724615472,
				"y": -0.1799268428,
				"z": -1.1459479107,
				"element": "C" 
			},
			{
				"x": -0.4828430596,
				"y": 2.793436043,
				"z": 2.8846586749,
				"element": "H" 
			},
			{
				"x": -1.7280397769,
				"y": 3.4824132672,
				"z": 1.854770255,
				"element": "H" 
			},
			{
				"x": -0.1288057624,
				"y": 3.5549175967,
				"z": -0.0627567868,
				"element": "H" 
			},
			{
				"x": 0.5509773136,
				"y": 4.424816723,
				"z": 1.2924337101,
				"element": "H" 
			},
			{
				"x": 1.9522262469,
				"y": 2.5309632311,
				"z": -0.1101237981,
				"element": "H" 
			},
			{
				"x": 2.3022335583,
				"y": 2.8879841907,
				"z": 1.566840608,
				"element": "H" 
			},
			{
				"x": 2.0006719222,
				"y": 0.3777701175,
				"z": 0.9566463449,
				"element": "H" 
			},
			{
				"x": 1.2132091044,
				"y": 0.9687561151,
				"z": 2.3950657628,
				"element": "H" 
			},
			{
				"x": -0.3495340162,
				"y": -0.4566511295,
				"z": 1.1947053632,
				"element": "H" 
			},
			{
				"x": -0.3352971028,
				"y": 1.5041859745,
				"z": -1.1474039488,
				"element": "H" 
			},
			{
				"x": 1.7891503416,
				"y": 0.2127116553,
				"z": -1.1898504161,
				"element": "H" 
			},
			{
				"x": 0.8918224979,
				"y": -1.287408371,
				"z": -0.9882323289,
				"element": "H" 
			},
			{
				"x": 0.7255364564,
				"y": 0.6403513414,
				"z": -3.3694875077,
				"element": "H" 
			},
			{
				"x": 1.4999573355,
				"y": -0.9379319259,
				"z": -3.3684311805,
				"element": "H" 
			},
			{
				"x": -0.7888677629,
				"y": -1.0106717846,
				"z": -4.4221020302,
				"element": "H" 
			},
			{
				"x": -0.685942034,
				"y": -2.0556448249,
				"z": -3.0095292579,
				"element": "H" 
			},
			{
				"x": -2.7942374706,
				"y": -0.7545373895,
				"z": -2.9100020672,
				"element": "H" 
			},
			{
				"x": -1.9088990505,
				"y": 0.7539522257,
				"z": -3.085105483,
				"element": "H" 
			},
			{
				"x": -1.7000396854,
				"y": -1.1953800548,
				"z": -0.7239430114,
				"element": "H" 
			},
			{
				"x": -2.5128848995,
				"y": 0.3545411666,
				"z": -0.6961805984,
				"element": "H" 
			}
		],
		 "valence_orbital": [ 
			{
				"type": "occ",
				"energy": -0.31799,
				"method": "rhf"
			},
			{
				"type": "occ",
				"energy": -0.30938,
				"method": "rhf"
			},
			{
				"type": "occ",
				"energy": -0.29774,
				"method": "rhf"
			},
			{
				"type": "occ",
				"energy": -0.28899,
				"method": "rhf"
			},
			{
				"type": "occ",
				"energy": -0.22905,
				"method": "rhf"
			},
			{
				"type": "unocc",
				"energy": -0.01151,
				"method": "rhf"
			},
			{
				"type": "unocc",
				"energy": 0.06712,
				"method": "rhf"
			},
			{
				"type": "unocc",
				"energy": 0.08969,
				"method": "rhf"
			},
			{
				"type": "unocc",
				"energy": 0.09541,
				"method": "rhf"
			},
			{
				"type": "unocc",
				"energy": 0.11352,
				"method": "rhf"
			}
		],
		"cosmo_sigma_profile": { 
			"-0.025": 0.0,
			"-0.024": 0.0,
			"-0.023": 0.0,
			"-0.022": 0.0,
			"-0.021": 0.0,
			"-0.02": 0.0,
			"-0.019": 0.0,
			"-0.018": 0.0,
			"-0.017": 0.0,
			"-0.016": 0.0,
			"-0.015": 0.0,
			"-0.014": 0.0,
			"-0.013": 0.0,
			"-0.012": 0.0,
			"-0.011": 0.0,
			"-0.01": 0.0,
			"-0.009": 0.0,
			"-0.008": 0.0,
			"-0.007": 0.0,
			"-0.006": 0.75128378174,
			"-0.005": 4.7821216426,
			"-0.004": 8.4775105879,
			"-0.003": 20.4619506828,
			"-0.002": 44.6733232018,
			"-0.001": 52.1716354732,
			"0.0": 41.1153690858,
			"0.001": 31.0455908365,
			"0.002": 8.35288904233,
			"0.003": 2.08473679274,
			"0.004": 1.64066011169,
			"0.005": 1.40785925752,
			"0.006": 1.85536540701,
			"0.007": 1.41278867461,
			"0.008": 2.04663348563,
			"0.009": 1.81584265102,
			"0.01": 1.47586077231,
			"0.011": 2.4103913313,
			"0.012": 3.46412875521,
			"0.013": 3.63001597469,
			"0.014": 1.08269655063,
			"0.015": 0.00949575591209,
			"0.016": 0.0,
			"0.017": 0.0,
			"0.018": 0.0,
			"0.019": 0.0,
			"0.02": 0.0,
			"0.021": 0.0,
			"0.022": 0.0,
			"0.023": 0.0,
			"0.024": 0.0,
			"0.025": 0.0
		}
	}
}
