{
	 "smiles": "CC1=CC=C(OCCCC(=O)NC2=CC=C(C=C2)C#N)C=C1", 
	 "Tm": 400.15, 
	 "num_atms": 40, 
	 "gaussian": { 
		 "optdone": 1, 
		 "sigma_profile": "yes", 
		 "theory": "DFT", 
		 "functional": "B3LYP", 
		 "basiset": "6-31G**", 
		 "properties": { 
			 "R2extent": 7173.7916, 
			 "electric_dipole_moment_norm": 2.05398610268, 
			 "electric_quadrupole_moment_norm": 45.5713032716, 
			 "total_energy": -956.711509579, 
			 "HOMO_LUMO_gap": 0.1628, 
			 "cosmo_polarized_energy": -20.48, 
			 "cosmo_cavitation_energy": 43.98, 
			 "cosmo_dispersion_energy": -28.14, 
			 "cosmo_repulsion_energy": 2.15, 
			 "cosmo_total_nonelectrostatic_energy": 17.98, 
			 "SMD_solvation_energy": 9.25 
		},
		"coords": [
			{
				"x": 1.122057496,
				"y": 4.1762790578,
				"z": -0.0706989149,
				"element": "C" 
			},
			{
				"x": 0.2556053078,
				"y": 3.0259958716,
				"z": -0.5283746088,
				"element": "C" 
			},
			{
				"x": -0.933478961,
				"y": 2.69969296,
				"z": 0.128257843,
				"element": "C" 
			},
			{
				"x": -1.757721459,
				"y": 1.6545508371,
				"z": -0.3035675221,
				"element": "C" 
			},
			{
				"x": -1.3932586851,
				"y": 0.9060813601,
				"z": -1.4274238381,
				"element": "C" 
			},
			{
				"x": -2.1098971338,
				"y": -0.1283659678,
				"z": -1.9637663054,
				"element": "O" 
			},
			{
				"x": -3.2923471463,
				"y": -0.5960645806,
				"z": -1.3171073916,
				"element": "C" 
			},
			{
				"x": -3.0096689551,
				"y": -1.5220405369,
				"z": -0.1304097747,
				"element": "C" 
			},
			{
				"x": -2.3682270126,
				"y": -2.8726204589,
				"z": -0.5139633286,
				"element": "C" 
			},
			{
				"x": -1.0062702831,
				"y": -2.7725932267,
				"z": -1.1947800504,
				"element": "C" 
			},
			{
				"x": -0.8453077879,
				"y": -3.0877410326,
				"z": -2.3618215116,
				"element": "O" 
			},
			{
				"x": 0.0734523123,
				"y": -2.2620213676,
				"z": -0.4768540369,
				"element": "N" 
			},
			{
				"x": 0.2136077471,
				"y": -1.9069519786,
				"z": 0.8792106941,
				"element": "C" 
			},
			{
				"x": 0.8313082945,
				"y": -0.6860738365,
				"z": 1.2016497858,
				"element": "C" 
			},
			{
				"x": 1.0296823669,
				"y": -0.3242647485,
				"z": 2.5272309683,
				"element": "C" 
			},
			{
				"x": 0.6006006732,
				"y": -1.1710746166,
				"z": 3.5642870822,
				"element": "C" 
			},
			{
				"x": -0.0097169791,
				"y": -2.3955346301,
				"z": 3.2447445068,
				"element": "C" 
			},
			{
				"x": -0.1853542178,
				"y": -2.7659650002,
				"z": 1.9167022409,
				"element": "C" 
			},
			{
				"x": 0.7889033056,
				"y": -0.7924818031,
				"z": 4.9328724401,
				"element": "C" 
			},
			{
				"x": 0.9396402221,
				"y": -0.4833132615,
				"z": 6.0445797203,
				"element": "N" 
			},
			{
				"x": -0.1994560955,
				"y": 1.2156502002,
				"z": -2.0985945655,
				"element": "C" 
			},
			{
				"x": 0.6054156202,
				"y": 2.2573340398,
				"z": -1.6520809385,
				"element": "C" 
			},
			{
				"x": 1.0015293087,
				"y": 5.0522015763,
				"z": -0.7203740168,
				"element": "H" 
			},
			{
				"x": 0.8679581112,
				"y": 4.4878453423,
				"z": 0.9466073171,
				"element": "H" 
			},
			{
				"x": 2.1849536776,
				"y": 3.9118166426,
				"z": -0.0850319674,
				"element": "H" 
			},
			{
				"x": -1.23275778,
				"y": 3.2704225378,
				"z": 1.00407984,
				"element": "H" 
			},
			{
				"x": -2.6659284559,
				"y": 1.4385835381,
				"z": 0.2467268021,
				"element": "H" 
			},
			{
				"x": -3.919834954,
				"y": 0.2484541466,
				"z": -1.0054191496,
				"element": "H" 
			},
			{
				"x": -3.833714967,
				"y": -1.1386649922,
				"z": -2.097975796,
				"element": "H" 
			},
			{
				"x": -2.3923194797,
				"y": -1.0011236763,
				"z": 0.6079599309,
				"element": "H" 
			},
			{
				"x": -3.9683265474,
				"y": -1.731723476,
				"z": 0.3607717854,
				"element": "H" 
			},
			{
				"x": -2.3056294993,
				"y": -3.4965661906,
				"z": 0.382086677,
				"element": "H" 
			},
			{
				"x": -3.0030171213,
				"y": -3.3994778742,
				"z": -1.2310714203,
				"element": "H" 
			},
			{
				"x": 0.8372452365,
				"y": -2.0109019029,
				"z": -1.0928133201,
				"element": "H" 
			},
			{
				"x": 1.1281435308,
				"y": -0.0125129062,
				"z": 0.4038324326,
				"element": "H" 
			},
			{
				"x": 1.5005262244,
				"y": 0.6229081766,
				"z": 2.7674603398,
				"element": "H" 
			},
			{
				"x": -0.3200559564,
				"y": -3.0637166931,
				"z": 4.0410717086,
				"element": "H" 
			},
			{
				"x": -0.6001568813,
				"y": -3.73958921,
				"z": 1.6826892869,
				"element": "H" 
			},
			{
				"x": 0.0671819231,
				"y": 0.6280471919,
				"z": -2.9715242797,
				"element": "H" 
			},
			{
				"x": 1.5230350007,
				"y": 2.4837204889,
				"z": -2.1904686649,
				"element": "H" 
			}
		],
		 "valence_orbital": [ 
			{
				"type": "occ",
				"energy": -0.28201,
				"method": "rhf"
			},
			{
				"type": "occ",
				"energy": -0.25886,
				"method": "rhf"
			},
			{
				"type": "occ",
				"energy": -0.25706,
				"method": "rhf"
			},
			{
				"type": "occ",
				"energy": -0.2414,
				"method": "rhf"
			},
			{
				"type": "occ",
				"energy": -0.2192,
				"method": "rhf"
			},
			{
				"type": "unocc",
				"energy": -0.0564,
				"method": "rhf"
			},
			{
				"type": "unocc",
				"energy": -0.03144,
				"method": "rhf"
			},
			{
				"type": "unocc",
				"energy": -0.01009,
				"method": "rhf"
			},
			{
				"type": "unocc",
				"energy": 0.00565,
				"method": "rhf"
			},
			{
				"type": "unocc",
				"energy": 0.01369,
				"method": "rhf"
			}
		],
		"cosmo_sigma_profile": { 
			"-0.025": 0.0,
			"-0.024": 0.0,
			"-0.023": 0.0,
			"-0.022": 0.0,
			"-0.021": 0.0,
			"-0.02": 0.0,
			"-0.019": 0.0,
			"-0.018": 0.0,
			"-0.017": 0.0,
			"-0.016": 0.0,
			"-0.015": 0.0400768186287,
			"-0.014": 0.634227591875,
			"-0.013": 0.841993964679,
			"-0.012": 0.745142349732,
			"-0.011": 1.1072682963,
			"-0.01": 0.697629673301,
			"-0.009": 2.94066944092,
			"-0.008": 7.10128242531,
			"-0.007": 8.45808917988,
			"-0.006": 14.2080076349,
			"-0.005": 25.0139212609,
			"-0.004": 33.1140258935,
			"-0.003": 31.8400098821,
			"-0.002": 29.1148828653,
			"-0.001": 29.7034541182,
			"0.0": 27.5898965669,
			"0.001": 27.53710244,
			"0.002": 23.3107158101,
			"0.003": 12.7703285082,
			"0.004": 10.9179017259,
			"0.005": 9.33881220953,
			"0.006": 9.59551454207,
			"0.007": 4.42844811083,
			"0.008": 5.38597088198,
			"0.009": 6.23089925089,
			"0.01": 5.45290758289,
			"0.011": 5.75456911796,
			"0.012": 5.87715823442,
			"0.013": 7.60924220391,
			"0.014": 2.53279435942,
			"0.015": 0.114476396516,
			"0.016": 0.0,
			"0.017": 0.0,
			"0.018": 0.0,
			"0.019": 0.0,
			"0.02": 0.0,
			"0.021": 0.0,
			"0.022": 0.0,
			"0.023": 0.0,
			"0.024": 0.0,
			"0.025": 0.0
		}
	}
}
