{
	 "smiles": "CN1N=NN=C1SCC(O)=O", 
	 "Tm": 382.15, 
	 "num_atms": 17, 
	 "gaussian": { 
		 "optdone": 1, 
		 "sigma_profile": "yes", 
		 "theory": "DFT", 
		 "functional": "B3LYP", 
		 "basiset": "6-31G**", 
		 "properties": { 
			 "R2extent": 2573.5975, 
			 "electric_dipole_moment_norm": 6.90560239661, 
			 "electric_quadrupole_moment_norm": 22.2200599315, 
			 "total_energy": -923.634442216, 
			 "HOMO_LUMO_gap": 0.22015, 
			 "cosmo_polarized_energy": -18.47, 
			 "cosmo_cavitation_energy": 23.42, 
			 "cosmo_dispersion_energy": -17.79, 
			 "cosmo_repulsion_energy": 1.38, 
			 "cosmo_total_nonelectrostatic_energy": 7.02, 
			 "SMD_solvation_energy": 3.87 
		},
		"coords": [
			{
				"x": -1.5747838053,
				"y": -2.0478160825,
				"z": -1.6027280822,
				"element": "C" 
			},
			{
				"x": -0.9243222243,
				"y": -0.7885017685,
				"z": -1.2766940432,
				"element": "N" 
			},
			{
				"x": -0.0482917024,
				"y": -0.1952154733,
				"z": -2.1364496576,
				"element": "N" 
			},
			{
				"x": 0.3518564639,
				"y": 0.8889677501,
				"z": -1.5738155527,
				"element": "N" 
			},
			{
				"x": -0.2233321529,
				"y": 1.0381918321,
				"z": -0.3508911367,
				"element": "N" 
			},
			{
				"x": -1.0173368869,
				"y": -0.0105804253,
				"z": -0.1782563048,
				"element": "C" 
			},
			{
				"x": -2.0212147833,
				"y": -0.3544642781,
				"z": 1.213054685,
				"element": "S" 
			},
			{
				"x": -2.0902484107,
				"y": 1.3260008147,
				"z": 1.9792110435,
				"element": "C" 
			},
			{
				"x": -0.874494686,
				"y": 1.7125304463,
				"z": 2.8394207611,
				"element": "C" 
			},
			{
				"x": 0.2640312988,
				"y": 1.9617822671,
				"z": 2.1913221042,
				"element": "O" 
			},
			{
				"x": -0.9780005601,
				"y": 1.8094338278,
				"z": 4.0396581163,
				"element": "O" 
			},
			{
				"x": -2.6499166331,
				"y": -1.9639442103,
				"z": -1.4268305786,
				"element": "H" 
			},
			{
				"x": -1.165528006,
				"y": -2.8604286205,
				"z": -0.9967531171,
				"element": "H" 
			},
			{
				"x": -1.3850549355,
				"y": -2.2455157786,
				"z": -2.6569922923,
				"element": "H" 
			},
			{
				"x": -2.9580212041,
				"y": 1.2820637302,
				"z": 2.6374223533,
				"element": "H" 
			},
			{
				"x": -2.2696787004,
				"y": 2.0503476296,
				"z": 1.1802937215,
				"element": "H" 
			},
			{
				"x": 0.1771369284,
				"y": 1.8184483393,
				"z": 1.2147279804,
				"element": "H" 
			}
		],
		 "valence_orbital": [ 
			{
				"type": "occ",
				"energy": -0.32622,
				"method": "rhf"
			},
			{
				"type": "occ",
				"energy": -0.31763,
				"method": "rhf"
			},
			{
				"type": "occ",
				"energy": -0.30695,
				"method": "rhf"
			},
			{
				"type": "occ",
				"energy": -0.28404,
				"method": "rhf"
			},
			{
				"type": "occ",
				"energy": -0.26151,
				"method": "rhf"
			},
			{
				"type": "unocc",
				"energy": -0.04136,
				"method": "rhf"
			},
			{
				"type": "unocc",
				"energy": -0.03421,
				"method": "rhf"
			},
			{
				"type": "unocc",
				"energy": -0.00901,
				"method": "rhf"
			},
			{
				"type": "unocc",
				"energy": 0.01321,
				"method": "rhf"
			},
			{
				"type": "unocc",
				"energy": 0.04608,
				"method": "rhf"
			}
		],
		"cosmo_sigma_profile": { 
			"-0.025": 0.0,
			"-0.024": 0.0,
			"-0.023": 0.0,
			"-0.022": 0.0,
			"-0.021": 0.0,
			"-0.02": 0.0,
			"-0.019": 0.0,
			"-0.018": 0.0,
			"-0.017": 0.0,
			"-0.016": 0.0,
			"-0.015": 0.0,
			"-0.014": 0.0,
			"-0.013": 0.0,
			"-0.012": 0.0,
			"-0.011": 0.00787526175747,
			"-0.01": 2.05088089128,
			"-0.009": 7.11601570623,
			"-0.008": 12.2824662391,
			"-0.007": 11.9607936672,
			"-0.006": 14.2051106145,
			"-0.005": 18.5560054671,
			"-0.004": 11.2140941273,
			"-0.003": 9.8232239942,
			"-0.002": 7.88040508711,
			"-0.001": 7.49508080335,
			"0.0": 7.41769315501,
			"0.001": 7.39244570173,
			"0.002": 6.97828006214,
			"0.003": 5.6583289796,
			"0.004": 5.93285126189,
			"0.005": 5.6891178746,
			"0.006": 5.60422941311,
			"0.007": 6.76567396684,
			"0.008": 5.54980110053,
			"0.009": 6.64614670302,
			"0.01": 6.59762036119,
			"0.011": 8.13133621759,
			"0.012": 6.40772694329,
			"0.013": 2.2051519695,
			"0.014": 0.0602825598155,
			"0.015": 0.0,
			"0.016": 0.0,
			"0.017": 0.0,
			"0.018": 0.0,
			"0.019": 0.0,
			"0.02": 0.0,
			"0.021": 0.0,
			"0.022": 0.0,
			"0.023": 0.0,
			"0.024": 0.0,
			"0.025": 0.0
		}
	}
}
