{
	 "smiles": "CC1=CC=C(N)C(O)=C1", 
	 "Tm": 430.15, 
	 "num_atms": 18, 
	 "gaussian": { 
		 "optdone": 1, 
		 "sigma_profile": "yes", 
		 "theory": "DFT", 
		 "functional": "B3LYP", 
		 "basiset": "6-31G**", 
		 "properties": { 
			 "R2extent": 1389.3683, 
			 "electric_dipole_moment_norm": 1.4481579679, 
			 "electric_quadrupole_moment_norm": 7.27262992046, 
			 "total_energy": -402.148389719, 
			 "HOMO_LUMO_gap": 0.1976, 
			 "cosmo_polarized_energy": -10.56, 
			 "cosmo_cavitation_energy": 21.26, 
			 "cosmo_dispersion_energy": -16.07, 
			 "cosmo_repulsion_energy": 1.33, 
			 "cosmo_total_nonelectrostatic_energy": 6.52, 
			 "SMD_solvation_energy": 3.93 
		},
		"coords": [
			{
				"x": 2.3990932826,
				"y": 1.9492718678,
				"z": 0.5109834913,
				"element": "C" 
			},
			{
				"x": 1.2793141711,
				"y": 1.1322646839,
				"z": -0.0897553349,
				"element": "C" 
			},
			{
				"x": 1.5288031225,
				"y": -0.0278364222,
				"z": -0.8248153654,
				"element": "C" 
			},
			{
				"x": 0.4832271513,
				"y": -0.7810750234,
				"z": -1.366872413,
				"element": "C" 
			},
			{
				"x": -0.8498791662,
				"y": -0.4000415249,
				"z": -1.1938991542,
				"element": "C" 
			},
			{
				"x": -1.9252177165,
				"y": -1.15458703,
				"z": -1.6712467582,
				"element": "N" 
			},
			{
				"x": -1.1021086935,
				"y": 0.7762738094,
				"z": -0.4556451329,
				"element": "C" 
			},
			{
				"x": -2.42774324,
				"y": 1.1258942219,
				"z": -0.3248060231,
				"element": "O" 
			},
			{
				"x": -0.0598401107,
				"y": 1.5206079867,
				"z": 0.082277595,
				"element": "C" 
			},
			{
				"x": 2.3510332971,
				"y": 2.9983675516,
				"z": 0.195195234,
				"element": "H" 
			},
			{
				"x": 2.3629407473,
				"y": 1.9432256639,
				"z": 1.6075572453,
				"element": "H" 
			},
			{
				"x": 3.3761476293,
				"y": 1.5586059692,
				"z": 0.2127235543,
				"element": "H" 
			},
			{
				"x": 2.5535069685,
				"y": -0.3547199009,
				"z": -0.9803755536,
				"element": "H" 
			},
			{
				"x": 0.7022432766,
				"y": -1.6842219432,
				"z": -1.9315614868,
				"element": "H" 
			},
			{
				"x": -2.7842548251,
				"y": -0.6273261172,
				"z": -1.752926289,
				"element": "H" 
			},
			{
				"x": -1.7239745012,
				"y": -1.6930857105,
				"z": -2.5025807901,
				"element": "H" 
			},
			{
				"x": -2.4873677557,
				"y": 1.9510607086,
				"z": 0.1722645956,
				"element": "H" 
			},
			{
				"x": -0.2926236373,
				"y": 2.4253212092,
				"z": 0.6436825857,
				"element": "H" 
			}
		],
		 "valence_orbital": [ 
			{
				"type": "occ",
				"energy": -0.33728,
				"method": "rhf"
			},
			{
				"type": "occ",
				"energy": -0.32975,
				"method": "rhf"
			},
			{
				"type": "occ",
				"energy": -0.28982,
				"method": "rhf"
			},
			{
				"type": "occ",
				"energy": -0.2229,
				"method": "rhf"
			},
			{
				"type": "occ",
				"energy": -0.18306,
				"method": "rhf"
			},
			{
				"type": "unocc",
				"energy": 0.01454,
				"method": "rhf"
			},
			{
				"type": "unocc",
				"energy": 0.03243,
				"method": "rhf"
			},
			{
				"type": "unocc",
				"energy": 0.06959,
				"method": "rhf"
			},
			{
				"type": "unocc",
				"energy": 0.10102,
				"method": "rhf"
			},
			{
				"type": "unocc",
				"energy": 0.10813,
				"method": "rhf"
			}
		],
		"cosmo_sigma_profile": { 
			"-0.025": 0.0,
			"-0.024": 0.0,
			"-0.023": 0.0,
			"-0.022": 0.0,
			"-0.021": 0.0,
			"-0.02": 0.0,
			"-0.019": 0.0,
			"-0.018": 0.0691587835236,
			"-0.017": 0.82939579927,
			"-0.016": 1.39710838715,
			"-0.015": 0.599177497918,
			"-0.014": 0.887307415651,
			"-0.013": 1.11455754122,
			"-0.012": 2.01423777436,
			"-0.011": 2.74175499061,
			"-0.01": 2.45960883916,
			"-0.009": 2.8183452638,
			"-0.008": 3.79298433642,
			"-0.007": 3.47130494268,
			"-0.006": 4.18240516023,
			"-0.005": 5.65903805983,
			"-0.004": 8.95129426727,
			"-0.003": 11.7155804226,
			"-0.002": 12.5566830216,
			"-0.001": 13.0301734704,
			"0.0": 11.9491833856,
			"0.001": 11.0981985864,
			"0.002": 8.61485769448,
			"0.003": 6.69899334214,
			"0.004": 8.39977183787,
			"0.005": 8.43510560521,
			"0.006": 8.81518600931,
			"0.007": 11.0119075883,
			"0.008": 6.58203680347,
			"0.009": 2.06413682209,
			"0.01": 1.48873692265,
			"0.011": 1.07019934475,
			"0.012": 0.818278407128,
			"0.013": 0.539805107253,
			"0.014": 0.874182205578,
			"0.015": 0.480460201211,
			"0.016": 0.195586084789,
			"0.017": 0.0,
			"0.018": 0.0,
			"0.019": 0.0,
			"0.02": 0.0,
			"0.021": 0.0,
			"0.022": 0.0,
			"0.023": 0.0,
			"0.024": 0.0,
			"0.025": 0.0
		}
	}
}
