{
	 "smiles": "COC1=CC(OC)=C(NS(=O)(=O)C2=CC=C(N)C=C2)C=C1", 
	 "Tm": 393.15, 
	 "num_atms": 37, 
	 "gaussian": { 
		 "optdone": 1, 
		 "sigma_profile": "yes", 
		 "theory": "DFT", 
		 "functional": "B3LYP", 
		 "basiset": "6-31G**", 
		 "properties": { 
			 "R2extent": 7152.8938, 
			 "electric_dipole_moment_norm": 7.71171372005, 
			 "electric_quadrupole_moment_norm": 34.7742572175, 
			 "total_energy": -1351.63176158, 
			 "HOMO_LUMO_gap": 0.18176, 
			 "cosmo_polarized_energy": -23.86, 
			 "cosmo_cavitation_energy": 42.41, 
			 "cosmo_dispersion_energy": -29.23, 
			 "cosmo_repulsion_energy": 2.24, 
			 "cosmo_total_nonelectrostatic_energy": 15.41, 
			 "SMD_solvation_energy": 7.69 
		},
		"coords": [
			{
				"x": -4.0714055008,
				"y": -0.2955223725,
				"z": -3.3930797747,
				"element": "C" 
			},
			{
				"x": -3.1241032394,
				"y": 0.6151265719,
				"z": -2.8587234806,
				"element": "O" 
			},
			{
				"x": -1.9398701654,
				"y": 0.1130316364,
				"z": -2.3981499906,
				"element": "C" 
			},
			{
				"x": -1.044223847,
				"y": 1.0740855014,
				"z": -1.9003127836,
				"element": "C" 
			},
			{
				"x": 0.1874325068,
				"y": 0.6754407881,
				"z": -1.3937106578,
				"element": "C" 
			},
			{
				"x": 1.1294216855,
				"y": 1.5267483981,
				"z": -0.8859142696,
				"element": "O" 
			},
			{
				"x": 0.8440230562,
				"y": 2.9179279083,
				"z": -0.8717706597,
				"element": "C" 
			},
			{
				"x": 0.5553042702,
				"y": -0.6911283999,
				"z": -1.3981555865,
				"element": "C" 
			},
			{
				"x": 1.8412342792,
				"y": -1.0641489953,
				"z": -0.9187744667,
				"element": "N" 
			},
			{
				"x": 2.010777726,
				"y": -2.0874901254,
				"z": 0.4351924116,
				"element": "S" 
			},
			{
				"x": 3.4523366068,
				"y": -2.0876473851,
				"z": 0.6960629658,
				"element": "O" 
			},
			{
				"x": 1.2696113758,
				"y": -3.3116574451,
				"z": 0.1245155775,
				"element": "O" 
			},
			{
				"x": 1.1986751239,
				"y": -1.300802269,
				"z": 1.8153594354,
				"element": "C" 
			},
			{
				"x": -0.1689574305,
				"y": -1.5001577921,
				"z": 2.0321091461,
				"element": "C" 
			},
			{
				"x": -0.7992341951,
				"y": -0.8651629603,
				"z": 3.0943491932,
				"element": "C" 
			},
			{
				"x": -0.0747133055,
				"y": -0.0231767231,
				"z": 3.9605359682,
				"element": "C" 
			},
			{
				"x": -0.713923101,
				"y": 0.6468625858,
				"z": 4.9929373853,
				"element": "N" 
			},
			{
				"x": 1.3035058806,
				"y": 0.1608224546,
				"z": 3.7314591722,
				"element": "C" 
			},
			{
				"x": 1.9336670383,
				"y": -0.469710464,
				"z": 2.6672718254,
				"element": "C" 
			},
			{
				"x": -0.3364156817,
				"y": -1.6246396942,
				"z": -1.9175938905,
				"element": "C" 
			},
			{
				"x": -1.5906557223,
				"y": -1.2390211133,
				"z": -2.4030188724,
				"element": "C" 
			},
			{
				"x": -4.3947432456,
				"y": -1.0301976956,
				"z": -2.6442938134,
				"element": "H" 
			},
			{
				"x": -4.9289280585,
				"y": 0.3059607961,
				"z": -3.6990024606,
				"element": "H" 
			},
			{
				"x": -3.6736660594,
				"y": -0.8277473422,
				"z": -4.2666924506,
				"element": "H" 
			},
			{
				"x": -1.3501728012,
				"y": 2.112265908,
				"z": -1.9179875891,
				"element": "H" 
			},
			{
				"x": -0.0379743328,
				"y": 3.1384621526,
				"z": -0.2582487961,
				"element": "H" 
			},
			{
				"x": 1.7185679678,
				"y": 3.4008597192,
				"z": -0.4336818611,
				"element": "H" 
			},
			{
				"x": 0.6844385187,
				"y": 3.304461116,
				"z": -1.8859086016,
				"element": "H" 
			},
			{
				"x": 2.4627696592,
				"y": -0.2675691468,
				"z": -0.8057599718,
				"element": "H" 
			},
			{
				"x": -0.7253613941,
				"y": -2.165995281,
				"z": 1.3823134879,
				"element": "H" 
			},
			{
				"x": -1.8610780378,
				"y": -1.0225115097,
				"z": 3.264878204,
				"element": "H" 
			},
			{
				"x": -0.1282589902,
				"y": 0.9619967811,
				"z": 5.7527891746,
				"element": "H" 
			},
			{
				"x": -1.5900311304,
				"y": 0.2547370795,
				"z": 5.3065165996,
				"element": "H" 
			},
			{
				"x": 1.8768404258,
				"y": 0.7986817256,
				"z": 4.3992310955,
				"element": "H" 
			},
			{
				"x": 2.9986876469,
				"y": -0.3437010139,
				"z": 2.5043210626,
				"element": "H" 
			},
			{
				"x": -0.0421642054,
				"y": -2.667443016,
				"z": -1.9281693377,
				"element": "H" 
			},
			{
				"x": -2.2626133238,
				"y": -1.9937403783,
				"z": -2.79159339,
				"element": "H" 
			}
		],
		 "valence_orbital": [ 
			{
				"type": "occ",
				"energy": -0.27996,
				"method": "rhf"
			},
			{
				"type": "occ",
				"energy": -0.26214,
				"method": "rhf"
			},
			{
				"type": "occ",
				"energy": -0.23425,
				"method": "rhf"
			},
			{
				"type": "occ",
				"energy": -0.22013,
				"method": "rhf"
			},
			{
				"type": "occ",
				"energy": -0.19983,
				"method": "rhf"
			},
			{
				"type": "unocc",
				"energy": -0.01807,
				"method": "rhf"
			},
			{
				"type": "unocc",
				"energy": -0.01142,
				"method": "rhf"
			},
			{
				"type": "unocc",
				"energy": 0.00234,
				"method": "rhf"
			},
			{
				"type": "unocc",
				"energy": 0.01636,
				"method": "rhf"
			},
			{
				"type": "unocc",
				"energy": 0.06531,
				"method": "rhf"
			}
		],
		"cosmo_sigma_profile": { 
			"-0.025": 0.0,
			"-0.024": 0.0,
			"-0.023": 0.0,
			"-0.022": 0.0,
			"-0.021": 0.0,
			"-0.02": 0.0,
			"-0.019": 0.0,
			"-0.018": 0.0,
			"-0.017": 0.0,
			"-0.016": 0.0,
			"-0.015": 0.0,
			"-0.014": 0.0862033416158,
			"-0.013": 2.67959670652,
			"-0.012": 3.36246919913,
			"-0.011": 3.06427706363,
			"-0.01": 4.59310382903,
			"-0.009": 4.81894218242,
			"-0.008": 3.18769392042,
			"-0.007": 7.77131739223,
			"-0.006": 21.0686317213,
			"-0.005": 29.3052362862,
			"-0.004": 27.9821299566,
			"-0.003": 24.9870247773,
			"-0.002": 17.018801438,
			"-0.001": 15.194008403,
			"0.0": 14.1919493702,
			"0.001": 15.3236083702,
			"0.002": 20.2513536524,
			"0.003": 26.2469314385,
			"0.004": 32.2899816248,
			"0.005": 13.5521084633,
			"0.006": 6.51156949755,
			"0.007": 6.64627482372,
			"0.008": 8.19370402111,
			"0.009": 5.47923753797,
			"0.01": 8.26355239809,
			"0.011": 8.72704964089,
			"0.012": 6.22434501843,
			"0.013": 0.162339404468,
			"0.014": 0.0,
			"0.015": 0.0,
			"0.016": 0.0,
			"0.017": 0.0,
			"0.018": 0.0,
			"0.019": 0.0,
			"0.02": 0.0,
			"0.021": 0.0,
			"0.022": 0.0,
			"0.023": 0.0,
			"0.024": 0.0,
			"0.025": 0.0
		}
	}
}
