{
	 "smiles": "NCC1=CC=C(C=C1)N1CCC(CO)CC1", 
	 "Tm": 412.15, 
	 "num_atms": 36, 
	 "gaussian": { 
		 "optdone": 1, 
		 "sigma_profile": "yes", 
		 "theory": "DFT", 
		 "functional": "B3LYP", 
		 "basiset": "6-31G**", 
		 "properties": { 
			 "R2extent": 5227.9837, 
			 "electric_dipole_moment_norm": 1.89128305655, 
			 "electric_quadrupole_moment_norm": 15.3593163953, 
			 "total_energy": -692.142523505, 
			 "HOMO_LUMO_gap": 0.18671, 
			 "cosmo_polarized_energy": -13.71, 
			 "cosmo_cavitation_energy": 36.07, 
			 "cosmo_dispersion_energy": -25.69, 
			 "cosmo_repulsion_energy": 2.03, 
			 "cosmo_total_nonelectrostatic_energy": 12.41, 
			 "SMD_solvation_energy": 2.72 
		},
		"coords": [
			{
				"x": -4.8894259247,
				"y": -0.1895242147,
				"z": 2.5521909937,
				"element": "N" 
			},
			{
				"x": -3.9880359373,
				"y": -1.2788537333,
				"z": 2.9748102763,
				"element": "C" 
			},
			{
				"x": -2.6376948762,
				"y": -1.3281015176,
				"z": 2.2861191025,
				"element": "C" 
			},
			{
				"x": -1.5533967241,
				"y": -0.5668392756,
				"z": 2.7465202645,
				"element": "C" 
			},
			{
				"x": -0.326397737,
				"y": -0.5669294224,
				"z": 2.0945007519,
				"element": "C" 
			},
			{
				"x": -0.1151500956,
				"y": -1.3315532068,
				"z": 0.9244474393,
				"element": "C" 
			},
			{
				"x": -1.2063018136,
				"y": -2.0951908883,
				"z": 0.4605685609,
				"element": "C" 
			},
			{
				"x": -2.4269027179,
				"y": -2.0943100247,
				"z": 1.1362731179,
				"element": "C" 
			},
			{
				"x": 1.1528014232,
				"y": -1.3435514353,
				"z": 0.3153564652,
				"element": "N" 
			},
			{
				"x": 1.8893097638,
				"y": -0.0870804239,
				"z": 0.1678877349,
				"element": "C" 
			},
			{
				"x": 1.3671407617,
				"y": 0.7505543472,
				"z": -1.0307952762,
				"element": "C" 
			},
			{
				"x": 0.7101219573,
				"y": -0.1557486061,
				"z": -2.0959634963,
				"element": "C" 
			},
			{
				"x": 0.6269981136,
				"y": 0.5512349619,
				"z": -3.4524177997,
				"element": "C" 
			},
			{
				"x": -0.0540220154,
				"y": -0.2073790356,
				"z": -4.4448309425,
				"element": "O" 
			},
			{
				"x": 1.4448323828,
				"y": -1.502032458,
				"z": -2.1851538395,
				"element": "C" 
			},
			{
				"x": 1.4556695859,
				"y": -2.2330024225,
				"z": -0.8100298611,
				"element": "C" 
			},
			{
				"x": -5.0259984133,
				"y": -0.2505858866,
				"z": 1.5443521779,
				"element": "H" 
			},
			{
				"x": -4.4200799401,
				"y": 0.7020753346,
				"z": 2.7032467368,
				"element": "H" 
			},
			{
				"x": -3.8481658978,
				"y": -1.1827237151,
				"z": 4.0581309174,
				"element": "H" 
			},
			{
				"x": -4.5187489866,
				"y": -2.2242621252,
				"z": 2.8124521984,
				"element": "H" 
			},
			{
				"x": -1.6641365843,
				"y": 0.0277372677,
				"z": 3.6517897754,
				"element": "H" 
			},
			{
				"x": 0.4907035741,
				"y": 0.0062336309,
				"z": 2.5189660498,
				"element": "H" 
			},
			{
				"x": -1.1180596321,
				"y": -2.69576856,
				"z": -0.437160095,
				"element": "H" 
			},
			{
				"x": -3.2382368882,
				"y": -2.7061898706,
				"z": 0.7458805285,
				"element": "H" 
			},
			{
				"x": 1.8578952055,
				"y": 0.4926425337,
				"z": 1.0908469111,
				"element": "H" 
			},
			{
				"x": 2.9412833142,
				"y": -0.3530765626,
				"z": 0.0087063067,
				"element": "H" 
			},
			{
				"x": 0.6398726452,
				"y": 1.4939941852,
				"z": -0.685725379,
				"element": "H" 
			},
			{
				"x": 2.204252437,
				"y": 1.3098803164,
				"z": -1.471013483,
				"element": "H" 
			},
			{
				"x": -0.3207503814,
				"y": -0.3578627059,
				"z": -1.768018828,
				"element": "H" 
			},
			{
				"x": 1.6363531037,
				"y": 0.7143002374,
				"z": -3.8486820752,
				"element": "H" 
			},
			{
				"x": 0.1663179461,
				"y": 1.5447290581,
				"z": -3.3245439987,
				"element": "H" 
			},
			{
				"x": -0.9715724813,
				"y": -0.3059100547,
				"z": -4.1587486955,
				"element": "H" 
			},
			{
				"x": 0.98335995,
				"y": -2.1238354575,
				"z": -2.9575217891,
				"element": "H" 
			},
			{
				"x": 2.4756739235,
				"y": -1.3163832247,
				"z": -2.5159144033,
				"element": "H" 
			},
			{
				"x": 2.4526154271,
				"y": -2.6594766126,
				"z": -0.6340678335,
				"element": "H" 
			},
			{
				"x": 0.7627755322,
				"y": -3.0734104329,
				"z": -0.7999585136,
				"element": "H" 
			}
		],
		 "valence_orbital": [ 
			{
				"type": "occ",
				"energy": -0.27505,
				"method": "rhf"
			},
			{
				"type": "occ",
				"energy": -0.26593,
				"method": "rhf"
			},
			{
				"type": "occ",
				"energy": -0.24493,
				"method": "rhf"
			},
			{
				"type": "occ",
				"energy": -0.23204,
				"method": "rhf"
			},
			{
				"type": "occ",
				"energy": -0.18543,
				"method": "rhf"
			},
			{
				"type": "unocc",
				"energy": 0.00128,
				"method": "rhf"
			},
			{
				"type": "unocc",
				"energy": 0.01312,
				"method": "rhf"
			},
			{
				"type": "unocc",
				"energy": 0.06712,
				"method": "rhf"
			},
			{
				"type": "unocc",
				"energy": 0.07986,
				"method": "rhf"
			},
			{
				"type": "unocc",
				"energy": 0.09251,
				"method": "rhf"
			}
		],
		"cosmo_sigma_profile": { 
			"-0.025": 0.0,
			"-0.024": 0.0,
			"-0.023": 0.0,
			"-0.022": 0.0,
			"-0.021": 0.0,
			"-0.02": 0.0,
			"-0.019": 0.0,
			"-0.018": 0.0,
			"-0.017": 0.0,
			"-0.016": 0.0333972950655,
			"-0.015": 0.770163496213,
			"-0.014": 0.728471959968,
			"-0.013": 1.23907735918,
			"-0.012": 0.963045889242,
			"-0.011": 0.516820216646,
			"-0.01": 0.821782035008,
			"-0.009": 2.57855272557,
			"-0.008": 3.32776201779,
			"-0.007": 4.25954295513,
			"-0.006": 7.20292953945,
			"-0.005": 11.852056545,
			"-0.004": 21.0778580496,
			"-0.003": 39.2260399485,
			"-0.002": 39.3705296812,
			"-0.001": 30.618656854,
			"0.0": 20.1202555883,
			"0.001": 13.8426145699,
			"0.002": 11.0533670182,
			"0.003": 9.27455226995,
			"0.004": 9.07680447942,
			"0.005": 8.51022619677,
			"0.006": 9.7065934468,
			"0.007": 9.40037032706,
			"0.008": 5.86126458981,
			"0.009": 2.31907959773,
			"0.01": 2.32546772749,
			"0.011": 2.13429451738,
			"0.012": 1.65886005883,
			"0.013": 2.44807296494,
			"0.014": 2.65801206386,
			"0.015": 2.09768416389,
			"0.016": 0.738175340118,
			"0.017": 0.281162242984,
			"0.018": 0.570042605485,
			"0.019": 0.943038333477,
			"0.02": 0.442390699143,
			"0.021": 0.0461113307996,
			"0.022": 0.0,
			"0.023": 0.0,
			"0.024": 0.0,
			"0.025": 0.0
		}
	}
}
