{
	 "smiles": "NC1=C(Cl)C=C(C=C1Cl)S(N)(=O)=O", 
	 "Tm": 480.15, 
	 "num_atms": 19, 
	 "gaussian": { 
		 "optdone": 1, 
		 "sigma_profile": "yes", 
		 "theory": "DFT", 
		 "functional": "B3LYP", 
		 "basiset": "6-31G**", 
		 "properties": { 
			 "R2extent": 5242.5073, 
			 "electric_dipole_moment_norm": 5.97650948464, 
			 "electric_quadrupole_moment_norm": 20.8887428777, 
			 "total_energy": -1810.71217865, 
			 "HOMO_LUMO_gap": 0.1967, 
			 "cosmo_polarized_energy": -20.26, 
			 "cosmo_cavitation_energy": 28.3, 
			 "cosmo_dispersion_energy": -21.75, 
			 "cosmo_repulsion_energy": 1.69, 
			 "cosmo_total_nonelectrostatic_energy": 8.23, 
			 "SMD_solvation_energy": 3.87 
		},
		"coords": [
			{
				"x": -1.1024504011,
				"y": -0.6212326321,
				"z": -3.2088852864,
				"element": "N" 
			},
			{
				"x": -0.5497114845,
				"y": 0.2425265349,
				"z": -2.3079614533,
				"element": "C" 
			},
			{
				"x": -0.1791492179,
				"y": -0.1678448842,
				"z": -1.0043123805,
				"element": "C" 
			},
			{
				"x": -0.3787710121,
				"y": -1.8616160179,
				"z": -0.5744046091,
				"element": "Cl" 
			},
			{
				"x": 0.3436685439,
				"y": 0.7091031133,
				"z": -0.0665749817,
				"element": "C" 
			},
			{
				"x": 0.5111819852,
				"y": 2.0514153754,
				"z": -0.4114458727,
				"element": "C" 
			},
			{
				"x": 0.1790268799,
				"y": 2.5063861305,
				"z": -1.6887546255,
				"element": "C" 
			},
			{
				"x": -0.3420687323,
				"y": 1.6104783045,
				"z": -2.6093532606,
				"element": "C" 
			},
			{
				"x": -0.7491907862,
				"y": 2.180571647,
				"z": -4.2226638875,
				"element": "Cl" 
			},
			{
				"x": 1.1538873339,
				"y": 3.2051519072,
				"z": 0.8013810297,
				"element": "S" 
			},
			{
				"x": -0.1603830172,
				"y": 3.8393090379,
				"z": 1.6356312052,
				"element": "N" 
			},
			{
				"x": 1.7267839626,
				"y": 4.3292929812,
				"z": 0.0638253398,
				"element": "O" 
			},
			{
				"x": 1.8999614312,
				"y": 2.423275086,
				"z": 1.7852088749,
				"element": "O" 
			},
			{
				"x": -1.0203095664,
				"y": -1.6091949243,
				"z": -3.0258840207,
				"element": "H" 
			},
			{
				"x": -1.1368393081,
				"y": -0.3358463395,
				"z": -4.1751532838,
				"element": "H" 
			},
			{
				"x": 0.6425555623,
				"y": 0.3516712189,
				"z": 0.9119047432,
				"element": "H" 
			},
			{
				"x": 0.3504888743,
				"y": 3.5399959495,
				"z": -1.9658289431,
				"element": "H" 
			},
			{
				"x": -0.657050669,
				"y": 3.1432002644,
				"z": 2.1824350905,
				"element": "H" 
			},
			{
				"x": -0.7710303784,
				"y": 4.3983572471,
				"z": 1.0484363217,
				"element": "H" 
			}
		],
		 "valence_orbital": [ 
			{
				"type": "occ",
				"energy": -0.3091,
				"method": "rhf"
			},
			{
				"type": "occ",
				"energy": -0.30801,
				"method": "rhf"
			},
			{
				"type": "occ",
				"energy": -0.30748,
				"method": "rhf"
			},
			{
				"type": "occ",
				"energy": -0.27012,
				"method": "rhf"
			},
			{
				"type": "occ",
				"energy": -0.2366,
				"method": "rhf"
			},
			{
				"type": "unocc",
				"energy": -0.0399,
				"method": "rhf"
			},
			{
				"type": "unocc",
				"energy": -0.03952,
				"method": "rhf"
			},
			{
				"type": "unocc",
				"energy": -0.01233,
				"method": "rhf"
			},
			{
				"type": "unocc",
				"energy": 0.03179,
				"method": "rhf"
			},
			{
				"type": "unocc",
				"energy": 0.05231,
				"method": "rhf"
			}
		],
		"cosmo_sigma_profile": { 
			"-0.025": 0.0,
			"-0.024": 0.0,
			"-0.023": 0.0,
			"-0.022": 0.0,
			"-0.021": 0.0,
			"-0.02": 0.0,
			"-0.019": 0.0,
			"-0.018": 0.0,
			"-0.017": 0.0,
			"-0.016": 0.149953515999,
			"-0.015": 2.42074068717,
			"-0.014": 3.12233448332,
			"-0.013": 4.04797195906,
			"-0.012": 5.50486396826,
			"-0.011": 4.87510611703,
			"-0.01": 4.29008462311,
			"-0.009": 2.52773817983,
			"-0.008": 5.36209327792,
			"-0.007": 7.46521147595,
			"-0.006": 6.75731517566,
			"-0.005": 5.14067074192,
			"-0.004": 5.97173262465,
			"-0.003": 8.43975366053,
			"-0.002": 12.6907045716,
			"-0.001": 14.2492406575,
			"0.0": 22.607094832,
			"0.001": 25.5310670837,
			"0.002": 16.1668693433,
			"0.003": 14.6144446643,
			"0.004": 12.4808909959,
			"0.005": 4.48295819988,
			"0.006": 4.27016112448,
			"0.007": 4.58979637591,
			"0.008": 5.09162823836,
			"0.009": 4.75587394715,
			"0.01": 8.22579900649,
			"0.011": 10.2703336652,
			"0.012": 4.55815547791,
			"0.013": 0.0437349539549,
			"0.014": 0.0,
			"0.015": 0.0,
			"0.016": 0.0,
			"0.017": 0.0,
			"0.018": 0.0,
			"0.019": 0.0,
			"0.02": 0.0,
			"0.021": 0.0,
			"0.022": 0.0,
			"0.023": 0.0,
			"0.024": 0.0,
			"0.025": 0.0
		}
	}
}
