{
	 "smiles": "OC(=O)C1=C(SC2=NN=NN2C2=CC=CC=C2)C=CC(=C1)[N+]([O-])=O", 
	 "Tm": 492.15, 
	 "num_atms": 33, 
	 "gaussian": { 
		 "optdone": 1, 
		 "sigma_profile": "yes", 
		 "theory": "DFT", 
		 "functional": "B3LYP", 
		 "basiset": "6-31G**", 
		 "properties": { 
			 "R2extent": 11753.97, 
			 "electric_dipole_moment_norm": 8.68918834702, 
			 "electric_quadrupole_moment_norm": 17.4137347645, 
			 "total_energy": -1511.58537705, 
			 "HOMO_LUMO_gap": 0.1633, 
			 "cosmo_polarized_energy": -24.21, 
			 "cosmo_cavitation_energy": 41.76, 
			 "cosmo_dispersion_energy": -29.08, 
			 "cosmo_repulsion_energy": 2.14, 
			 "cosmo_total_nonelectrostatic_energy": 14.82, 
			 "SMD_solvation_energy": 8.42 
		},
		"coords": [
			{
				"x": -1.1734576915,
				"y": -0.1085376585,
				"z": -1.0645062806,
				"element": "O" 
			},
			{
				"x": -2.2171436238,
				"y": -0.9414910395,
				"z": -0.884624914,
				"element": "C" 
			},
			{
				"x": -2.681083836,
				"y": -1.5481203421,
				"z": -1.8200929411,
				"element": "O" 
			},
			{
				"x": -2.8230396276,
				"y": -1.0708457957,
				"z": 0.5049098311,
				"element": "C" 
			},
			{
				"x": -2.2553530577,
				"y": -0.702122829,
				"z": 1.7451088995,
				"element": "C" 
			},
			{
				"x": -0.6316491556,
				"y": 0.0809992105,
				"z": 1.9033301272,
				"element": "S" 
			},
			{
				"x": 0.4051408587,
				"y": -1.3562807501,
				"z": 1.9082078955,
				"element": "C" 
			},
			{
				"x": 0.0797257183,
				"y": -2.5484272472,
				"z": 2.3678938801,
				"element": "N" 
			},
			{
				"x": 1.2068023533,
				"y": -3.3015819814,
				"z": 2.2573582873,
				"element": "N" 
			},
			{
				"x": 2.1865147513,
				"y": -2.6203527469,
				"z": 1.7695845632,
				"element": "N" 
			},
			{
				"x": 1.7058607614,
				"y": -1.3665439878,
				"z": 1.5219668383,
				"element": "N" 
			},
			{
				"x": 2.5385100309,
				"y": -0.3446115286,
				"z": 0.9601278365,
				"element": "C" 
			},
			{
				"x": 2.2235633915,
				"y": 0.19445577,
				"z": -0.2894492731,
				"element": "C" 
			},
			{
				"x": 3.0507638421,
				"y": 1.1823563875,
				"z": -0.8243385329,
				"element": "C" 
			},
			{
				"x": 4.182799781,
				"y": 1.6069360325,
				"z": -0.1256461192,
				"element": "C" 
			},
			{
				"x": 4.4942589371,
				"y": 1.0448324663,
				"z": 1.1146875279,
				"element": "C" 
			},
			{
				"x": 3.6699185705,
				"y": 0.0659229901,
				"z": 1.6676492508,
				"element": "C" 
			},
			{
				"x": -2.9568301137,
				"y": -0.8982488061,
				"z": 2.9408171859,
				"element": "C" 
			},
			{
				"x": -4.2293277424,
				"y": -1.4591551321,
				"z": 2.9345434332,
				"element": "C" 
			},
			{
				"x": -4.7763830855,
				"y": -1.8270126068,
				"z": 1.7098103935,
				"element": "C" 
			},
			{
				"x": -4.0981300063,
				"y": -1.6516696255,
				"z": 0.5128258249,
				"element": "C" 
			},
			{
				"x": -6.1279161144,
				"y": -2.4258455857,
				"z": 1.6838612808,
				"element": "N" 
			},
			{
				"x": -6.6989882529,
				"y": -2.5669908162,
				"z": 2.7631325416,
				"element": "O" 
			},
			{
				"x": -6.5884296083,
				"y": -2.7377406578,
				"z": 0.5899791983,
				"element": "O" 
			},
			{
				"x": -0.908140843,
				"y": 0.3093608537,
				"z": -0.2213648191,
				"element": "H" 
			},
			{
				"x": 1.3585846738,
				"y": -0.1638739879,
				"z": -0.8378243755,
				"element": "H" 
			},
			{
				"x": 2.8151788573,
				"y": 1.607843489,
				"z": -1.7946609103,
				"element": "H" 
			},
			{
				"x": 4.8262278484,
				"y": 2.3712366356,
				"z": -0.5505471027,
				"element": "H" 
			},
			{
				"x": 5.3783645535,
				"y": 1.3687323171,
				"z": 1.6546852344,
				"element": "H" 
			},
			{
				"x": 3.8950689464,
				"y": -0.3845239539,
				"z": 2.6282367741,
				"element": "H" 
			},
			{
				"x": -2.4929317622,
				"y": -0.6175811651,
				"z": 3.8792522061,
				"element": "H" 
			},
			{
				"x": -4.7887293765,
				"y": -1.619396355,
				"z": 3.8474657278,
				"element": "H" 
			},
			{
				"x": -4.543049978,
				"y": -1.9609215534,
				"z": -0.4241794691,
				"element": "H" 
			}
		],
		 "valence_orbital": [ 
			{
				"type": "occ",
				"energy": -0.30355,
				"method": "rhf"
			},
			{
				"type": "occ",
				"energy": -0.29413,
				"method": "rhf"
			},
			{
				"type": "occ",
				"energy": -0.28685,
				"method": "rhf"
			},
			{
				"type": "occ",
				"energy": -0.2842,
				"method": "rhf"
			},
			{
				"type": "occ",
				"energy": -0.27764,
				"method": "rhf"
			},
			{
				"type": "unocc",
				"energy": -0.11434,
				"method": "rhf"
			},
			{
				"type": "unocc",
				"energy": -0.07906,
				"method": "rhf"
			},
			{
				"type": "unocc",
				"energy": -0.05411,
				"method": "rhf"
			},
			{
				"type": "unocc",
				"energy": -0.04289,
				"method": "rhf"
			},
			{
				"type": "unocc",
				"energy": -0.03743,
				"method": "rhf"
			}
		],
		"cosmo_sigma_profile": { 
			"-0.025": 0.0,
			"-0.024": 0.0,
			"-0.023": 0.0,
			"-0.022": 0.0,
			"-0.021": 0.0,
			"-0.02": 0.0,
			"-0.019": 0.0,
			"-0.018": 0.0,
			"-0.017": 0.0,
			"-0.016": 0.00107965801472,
			"-0.015": 0.213141837363,
			"-0.014": 0.689396445068,
			"-0.013": 0.4984588792,
			"-0.012": 0.664987620623,
			"-0.011": 1.52823416913,
			"-0.01": 2.23439605081,
			"-0.009": 5.93178654082,
			"-0.008": 8.7464058102,
			"-0.007": 17.6869804975,
			"-0.006": 21.0938517504,
			"-0.005": 26.2006617287,
			"-0.004": 22.6336372744,
			"-0.003": 26.1910987203,
			"-0.002": 25.9234112391,
			"-0.001": 19.6579919266,
			"0.0": 14.5330304559,
			"0.001": 16.8382570152,
			"0.002": 18.2534610229,
			"0.003": 18.0282967841,
			"0.004": 9.66569523301,
			"0.005": 8.20568772204,
			"0.006": 13.6641190063,
			"0.007": 15.6128088562,
			"0.008": 12.3364302873,
			"0.009": 12.2651838079,
			"0.01": 8.88766864433,
			"0.011": 7.31235813765,
			"0.012": 3.65388718861,
			"0.013": 1.01093560335,
			"0.014": 0.0,
			"0.015": 0.0,
			"0.016": 0.0,
			"0.017": 0.0,
			"0.018": 0.0,
			"0.019": 0.0,
			"0.02": 0.0,
			"0.021": 0.0,
			"0.022": 0.0,
			"0.023": 0.0,
			"0.024": 0.0,
			"0.025": 0.0
		}
	}
}
