{
	 "smiles": "CCCCCCCCC(O)CO", 
	 "Tm": 334.15, 
	 "num_atms": 34, 
	 "gaussian": { 
		 "optdone": 1, 
		 "sigma_profile": "yes", 
		 "theory": "DFT", 
		 "functional": "B3LYP", 
		 "basiset": "6-31G**", 
		 "properties": { 
			 "R2extent": 5111.1651, 
			 "electric_dipole_moment_norm": 2.08249075388, 
			 "electric_quadrupole_moment_norm": 10.3440692728, 
			 "total_energy": -544.778605796, 
			 "HOMO_LUMO_gap": 0.31572, 
			 "cosmo_polarized_energy": -9.3, 
			 "cosmo_cavitation_energy": 34.16, 
			 "cosmo_dispersion_energy": -24.05, 
			 "cosmo_repulsion_energy": 1.99, 
			 "cosmo_total_nonelectrostatic_energy": 12.1, 
			 "SMD_solvation_energy": 4.96 
		},
		"coords": [
			{
				"x": 2.9668883433,
				"y": -2.1540699914,
				"z": -0.9838630995,
				"element": "C" 
			},
			{
				"x": 1.6712098944,
				"y": -1.7358495525,
				"z": -0.2813535617,
				"element": "C" 
			},
			{
				"x": 1.8865919632,
				"y": -0.6275072817,
				"z": 0.7612129363,
				"element": "C" 
			},
			{
				"x": 0.613113998,
				"y": -0.1686516622,
				"z": 1.5074180797,
				"element": "C" 
			},
			{
				"x": -0.111225388,
				"y": 1.0560602998,
				"z": 0.9178106425,
				"element": "C" 
			},
			{
				"x": -0.6807364122,
				"y": 0.8801179136,
				"z": -0.4971267486,
				"element": "C" 
			},
			{
				"x": -1.4320979954,
				"y": 2.1089900115,
				"z": -1.0405755005,
				"element": "C" 
			},
			{
				"x": -2.7185442593,
				"y": 2.5038666597,
				"z": -0.29307229,
				"element": "C" 
			},
			{
				"x": -3.8172294741,
				"y": 1.4425763598,
				"z": -0.3308794703,
				"element": "C" 
			},
			{
				"x": -4.100375375,
				"y": 1.1242297705,
				"z": -1.6852832382,
				"element": "O" 
			},
			{
				"x": -5.104709943,
				"y": 1.908696401,
				"z": 0.352666819,
				"element": "C" 
			},
			{
				"x": -6.1520684827,
				"y": 0.9558725169,
				"z": 0.1488855235,
				"element": "O" 
			},
			{
				"x": 2.790373037,
				"y": -2.9573942828,
				"z": -1.7067660622,
				"element": "H" 
			},
			{
				"x": 3.7110112181,
				"y": -2.5127172955,
				"z": -0.2630729084,
				"element": "H" 
			},
			{
				"x": 3.413670923,
				"y": -1.3123605115,
				"z": -1.5256210037,
				"element": "H" 
			},
			{
				"x": 1.2282757142,
				"y": -2.6085755122,
				"z": 0.2179932795,
				"element": "H" 
			},
			{
				"x": 0.9381387385,
				"y": -1.4142508015,
				"z": -1.0303081261,
				"element": "H" 
			},
			{
				"x": 2.6171905935,
				"y": -0.9954355422,
				"z": 1.4940383517,
				"element": "H" 
			},
			{
				"x": 2.3624521913,
				"y": 0.2399006247,
				"z": 0.2810881411,
				"element": "H" 
			},
			{
				"x": 0.8800936928,
				"y": 0.0771212901,
				"z": 2.5429043401,
				"element": "H" 
			},
			{
				"x": -0.0906298071,
				"y": -1.0107429275,
				"z": 1.5750775007,
				"element": "H" 
			},
			{
				"x": 0.5808427126,
				"y": 1.9110374745,
				"z": 0.9178153868,
				"element": "H" 
			},
			{
				"x": -0.9220564589,
				"y": 1.3292201394,
				"z": 1.6061193899,
				"element": "H" 
			},
			{
				"x": -1.3387955289,
				"y": 0.0010925393,
				"z": -0.5241744409,
				"element": "H" 
			},
			{
				"x": 0.1389719147,
				"y": 0.659285192,
				"z": -1.1913193011,
				"element": "H" 
			},
			{
				"x": -0.7528228996,
				"y": 2.972142947,
				"z": -1.0348030218,
				"element": "H" 
			},
			{
				"x": -1.6955769622,
				"y": 1.9258268301,
				"z": -2.0873811709,
				"element": "H" 
			},
			{
				"x": -3.1174314309,
				"y": 3.419570008,
				"z": -0.7482185871,
				"element": "H" 
			},
			{
				"x": -2.4999253729,
				"y": 2.7429745296,
				"z": 0.7557240912,
				"element": "H" 
			},
			{
				"x": -3.4662213008,
				"y": 0.5375440743,
				"z": 0.2031911431,
				"element": "H" 
			},
			{
				"x": -4.9747203105,
				"y": 0.7042780351,
				"z": -1.6721169898,
				"element": "H" 
			},
			{
				"x": -5.4547665275,
				"y": 2.8339158679,
				"z": -0.1161090781,
				"element": "H" 
			},
			{
				"x": -4.937371682,
				"y": 2.1044047093,
				"z": 1.4217593637,
				"element": "H" 
			},
			{
				"x": -5.9526193237,
				"y": 0.1783311668,
				"z": 0.6878396103,
				"element": "H" 
			}
		],
		 "valence_orbital": [ 
			{
				"type": "occ",
				"energy": -0.31289,
				"method": "rhf"
			},
			{
				"type": "occ",
				"energy": -0.30046,
				"method": "rhf"
			},
			{
				"type": "occ",
				"energy": -0.29728,
				"method": "rhf"
			},
			{
				"type": "occ",
				"energy": -0.28515,
				"method": "rhf"
			},
			{
				"type": "occ",
				"energy": -0.25552,
				"method": "rhf"
			},
			{
				"type": "unocc",
				"energy": 0.0602,
				"method": "rhf"
			},
			{
				"type": "unocc",
				"energy": 0.08304,
				"method": "rhf"
			},
			{
				"type": "unocc",
				"energy": 0.10001,
				"method": "rhf"
			},
			{
				"type": "unocc",
				"energy": 0.109,
				"method": "rhf"
			},
			{
				"type": "unocc",
				"energy": 0.11501,
				"method": "rhf"
			}
		],
		"cosmo_sigma_profile": { 
			"-0.025": 0.0,
			"-0.024": 0.0,
			"-0.023": 0.0,
			"-0.022": 0.0,
			"-0.021": 0.0,
			"-0.02": 0.0,
			"-0.019": 0.0,
			"-0.018": 0.0,
			"-0.017": 0.0,
			"-0.016": 0.33893347621,
			"-0.015": 1.14626172673,
			"-0.014": 1.06834023003,
			"-0.013": 0.967431843759,
			"-0.012": 0.870553044646,
			"-0.011": 1.32183252501,
			"-0.01": 1.76381214572,
			"-0.009": 1.49952261362,
			"-0.008": 1.61450660309,
			"-0.007": 2.46027530807,
			"-0.006": 1.87532485894,
			"-0.005": 3.32345522628,
			"-0.004": 8.75641254861,
			"-0.003": 13.5989940408,
			"-0.002": 30.7318787439,
			"-0.001": 47.7872966069,
			"0.0": 49.8947656598,
			"0.001": 39.7211304889,
			"0.002": 20.978408497,
			"0.003": 3.29706027979,
			"0.004": 2.65568688863,
			"0.005": 2.34891187418,
			"0.006": 2.51113690679,
			"0.007": 2.36501342041,
			"0.008": 2.34079126899,
			"0.009": 2.22347270506,
			"0.01": 2.9200019566,
			"0.011": 2.24524918738,
			"0.012": 2.50206801684,
			"0.013": 3.18571962479,
			"0.014": 2.64063920735,
			"0.015": 0.14129133927,
			"0.016": 0.0,
			"0.017": 0.0,
			"0.018": 0.0,
			"0.019": 0.0,
			"0.02": 0.0,
			"0.021": 0.0,
			"0.022": 0.0,
			"0.023": 0.0,
			"0.024": 0.0,
			"0.025": 0.0
		}
	}
}
