{
	 "smiles": "CC(C)(C)OC(=O)NCC1=CC=C(C=O)C=C1", 
	 "Tm": 356.65, 
	 "num_atms": 34, 
	 "gaussian": { 
		 "optdone": 1, 
		 "sigma_profile": "yes", 
		 "theory": "DFT", 
		 "functional": "B3LYP", 
		 "basiset": "6-31G**", 
		 "properties": { 
			 "R2extent": 6658.5959, 
			 "electric_dipole_moment_norm": 2.9587978133, 
			 "electric_quadrupole_moment_norm": 25.0455164429, 
			 "total_energy": -786.084876762, 
			 "HOMO_LUMO_gap": 0.18632, 
			 "cosmo_polarized_energy": -14.47, 
			 "cosmo_cavitation_energy": 37.62, 
			 "cosmo_dispersion_energy": -25.58, 
			 "cosmo_repulsion_energy": 1.99, 
			 "cosmo_total_nonelectrostatic_energy": 14.03, 
			 "SMD_solvation_energy": 8.04 
		},
		"coords": [
			{
				"x": -3.2845424102,
				"y": -1.3300891668,
				"z": 1.3813579287,
				"element": "C" 
			},
			{
				"x": -2.4502529904,
				"y": -0.8926181988,
				"z": 0.1730218607,
				"element": "C" 
			},
			{
				"x": -3.012448841,
				"y": 0.3923851429,
				"z": -0.4399612679,
				"element": "C" 
			},
			{
				"x": -2.3360160443,
				"y": -1.9961405477,
				"z": -0.8837671693,
				"element": "C" 
			},
			{
				"x": -1.1068404532,
				"y": -0.4757244804,
				"z": 0.6128712254,
				"element": "O" 
			},
			{
				"x": -0.2841455418,
				"y": -1.3451920949,
				"z": 1.2487624389,
				"element": "C" 
			},
			{
				"x": -0.5064670828,
				"y": -2.5263424398,
				"z": 1.4604219064,
				"element": "O" 
			},
			{
				"x": 0.8748711837,
				"y": -0.7286372738,
				"z": 1.6425539672,
				"element": "N" 
			},
			{
				"x": 1.2566444165,
				"y": 0.6601318559,
				"z": 1.4414874009,
				"element": "C" 
			},
			{
				"x": 2.2953842682,
				"y": 0.871594996,
				"z": 0.3507478438,
				"element": "C" 
			},
			{
				"x": 2.1190697663,
				"y": 0.3068726296,
				"z": -0.9203721384,
				"element": "C" 
			},
			{
				"x": 3.0614768954,
				"y": 0.5220187731,
				"z": -1.9211090423,
				"element": "C" 
			},
			{
				"x": 4.1964654507,
				"y": 1.3058278723,
				"z": -1.6692889791,
				"element": "C" 
			},
			{
				"x": 5.1956930241,
				"y": 1.5294322825,
				"z": -2.737437219,
				"element": "C" 
			},
			{
				"x": 6.2077581046,
				"y": 2.1927307784,
				"z": -2.610717322,
				"element": "O" 
			},
			{
				"x": 4.3767061308,
				"y": 1.8730443334,
				"z": -0.4001120124,
				"element": "C" 
			},
			{
				"x": 3.4334705353,
				"y": 1.6534146872,
				"z": 0.5980419004,
				"element": "C" 
			},
			{
				"x": -2.8751155927,
				"y": -2.2342846387,
				"z": 1.8321555612,
				"element": "H" 
			},
			{
				"x": -4.3135277303,
				"y": -1.5272441579,
				"z": 1.0637967312,
				"element": "H" 
			},
			{
				"x": -3.3085244023,
				"y": -0.5359334194,
				"z": 2.1344154107,
				"element": "H" 
			},
			{
				"x": -2.3861833605,
				"y": 0.7315499826,
				"z": -1.2703597734,
				"element": "H" 
			},
			{
				"x": -3.0579472445,
				"y": 1.1904929536,
				"z": 0.3068910561,
				"element": "H" 
			},
			{
				"x": -4.0233314532,
				"y": 0.2159124424,
				"z": -0.8190731673,
				"element": "H" 
			},
			{
				"x": -1.9041694932,
				"y": -2.9010114605,
				"z": -0.4562590626,
				"element": "H" 
			},
			{
				"x": -3.329803909,
				"y": -2.2289459385,
				"z": -1.2798930128,
				"element": "H" 
			},
			{
				"x": -1.7103784619,
				"y": -1.661653085,
				"z": -1.7177790343,
				"element": "H" 
			},
			{
				"x": 1.5436898415,
				"y": -1.3649906589,
				"z": 2.0506484562,
				"element": "H" 
			},
			{
				"x": 1.6357300709,
				"y": 1.0669791519,
				"z": 2.3864340258,
				"element": "H" 
			},
			{
				"x": 0.3454435734,
				"y": 1.2112790498,
				"z": 1.1984492945,
				"element": "H" 
			},
			{
				"x": 1.2395407598,
				"y": -0.2981751606,
				"z": -1.1177486377,
				"element": "H" 
			},
			{
				"x": 2.921306444,
				"y": 0.0833632929,
				"z": -2.9066467852,
				"element": "H" 
			},
			{
				"x": 4.9560261896,
				"y": 1.0341469706,
				"z": -3.7052418057,
				"element": "H" 
			},
			{
				"x": 5.2631215566,
				"y": 2.4734991725,
				"z": -0.2211487834,
				"element": "H" 
			},
			{
				"x": 3.5778967998,
				"y": 2.0895063541,
				"z": 1.5836582046,
				"element": "H" 
			}
		],
		 "valence_orbital": [ 
			{
				"type": "occ",
				"energy": -0.26921,
				"method": "rhf"
			},
			{
				"type": "occ",
				"energy": -0.2683,
				"method": "rhf"
			},
			{
				"type": "occ",
				"energy": -0.26537,
				"method": "rhf"
			},
			{
				"type": "occ",
				"energy": -0.25568,
				"method": "rhf"
			},
			{
				"type": "occ",
				"energy": -0.25177,
				"method": "rhf"
			},
			{
				"type": "unocc",
				"energy": -0.06545,
				"method": "rhf"
			},
			{
				"type": "unocc",
				"energy": -0.01766,
				"method": "rhf"
			},
			{
				"type": "unocc",
				"energy": 0.03241,
				"method": "rhf"
			},
			{
				"type": "unocc",
				"energy": 0.05314,
				"method": "rhf"
			},
			{
				"type": "unocc",
				"energy": 0.07195,
				"method": "rhf"
			}
		],
		"cosmo_sigma_profile": { 
			"-0.025": 0.0,
			"-0.024": 0.0,
			"-0.023": 0.0,
			"-0.022": 0.0,
			"-0.021": 0.0,
			"-0.02": 0.0,
			"-0.019": 0.0,
			"-0.018": 0.0,
			"-0.017": 0.0,
			"-0.016": 0.0,
			"-0.015": 0.0,
			"-0.014": 0.730120265996,
			"-0.013": 1.01153395854,
			"-0.012": 1.33514485701,
			"-0.011": 1.0626332209,
			"-0.01": 0.450278067431,
			"-0.009": 0.807846771593,
			"-0.008": 1.49598753541,
			"-0.007": 7.15030025993,
			"-0.006": 13.8246342178,
			"-0.005": 14.0644548718,
			"-0.004": 24.1273694325,
			"-0.003": 27.3876251418,
			"-0.002": 25.8600091503,
			"-0.001": 26.7549620676,
			"0.0": 32.7786600753,
			"0.001": 31.4275016184,
			"0.002": 17.7796080491,
			"0.003": 18.5763656058,
			"0.004": 10.8421825704,
			"0.005": 5.48720997124,
			"0.006": 3.05944278094,
			"0.007": 3.34821929272,
			"0.008": 3.1416877145,
			"0.009": 2.1369194182,
			"0.01": 4.37395674505,
			"0.011": 5.61482326195,
			"0.012": 4.98223553493,
			"0.013": 4.12005449149,
			"0.014": 2.55205575357,
			"0.015": 0.113298974867,
			"0.016": 0.0,
			"0.017": 0.0,
			"0.018": 0.0,
			"0.019": 0.0,
			"0.02": 0.0,
			"0.021": 0.0,
			"0.022": 0.0,
			"0.023": 0.0,
			"0.024": 0.0,
			"0.025": 0.0
		}
	}
}
