{
	 "smiles": "CC(F)C1=NC(N)=NC(NC2C(C)CC3=CC=C(C)C=C23)=N1", 
	 "Tm": 456.15, 
	 "num_atms": 42, 
	 "gaussian": { 
		 "optdone": 1, 
		 "sigma_profile": "yes", 
		 "theory": "DFT", 
		 "functional": "B3LYP", 
		 "basiset": "6-31G**", 
		 "properties": { 
			 "R2extent": 9721.7104, 
			 "electric_dipole_moment_norm": 3.05405614552, 
			 "electric_quadrupole_moment_norm": 15.2859016617, 
			 "total_energy": -995.418768255, 
			 "HOMO_LUMO_gap": 0.21137, 
			 "cosmo_polarized_energy": -15.22, 
			 "cosmo_cavitation_energy": 45.59, 
			 "cosmo_dispersion_energy": -31.29, 
			 "cosmo_repulsion_energy": 2.45, 
			 "cosmo_total_nonelectrostatic_energy": 16.75, 
			 "SMD_solvation_energy": 3.9 
		},
		"coords": [
			{
				"x": 4.7998643876,
				"y": -0.7594590649,
				"z": 4.2440088548,
				"element": "C" 
			},
			{
				"x": 4.10042092,
				"y": 0.5656966478,
				"z": 3.9607947358,
				"element": "C" 
			},
			{
				"x": 4.1279386632,
				"y": 1.3409313869,
				"z": 5.1125014173,
				"element": "F" 
			},
			{
				"x": 2.6667917857,
				"y": 0.3495819145,
				"z": 3.507744396,
				"element": "C" 
			},
			{
				"x": 1.7060251015,
				"y": 0.4152625099,
				"z": 4.4268177255,
				"element": "N" 
			},
			{
				"x": 0.4712154993,
				"y": 0.1758912585,
				"z": 3.9327196315,
				"element": "C" 
			},
			{
				"x": -0.5535522939,
				"y": 0.2180765438,
				"z": 4.8185929473,
				"element": "N" 
			},
			{
				"x": 0.170656822,
				"y": -0.1164919797,
				"z": 2.6582515935,
				"element": "N" 
			},
			{
				"x": 1.2350113944,
				"y": -0.1614099532,
				"z": 1.8419130243,
				"element": "C" 
			},
			{
				"x": 1.0456463786,
				"y": -0.4514831357,
				"z": 0.5299463721,
				"element": "N" 
			},
			{
				"x": -0.2247254967,
				"y": -0.7238364021,
				"z": -0.1158808994,
				"element": "C" 
			},
			{
				"x": -0.3965968417,
				"y": -2.2005961093,
				"z": -0.5885221263,
				"element": "C" 
			},
			{
				"x": -0.8053080713,
				"y": -3.17287847,
				"z": 0.515092931,
				"element": "C" 
			},
			{
				"x": -1.3818629675,
				"y": -2.100641223,
				"z": -1.7816054358,
				"element": "C" 
			},
			{
				"x": -1.1173809678,
				"y": -0.7183729214,
				"z": -2.3381092558,
				"element": "C" 
			},
			{
				"x": -1.44723749,
				"y": -0.1746740259,
				"z": -3.577182453,
				"element": "C" 
			},
			{
				"x": -1.100384679,
				"y": 1.1509445516,
				"z": -3.8547818878,
				"element": "C" 
			},
			{
				"x": -0.4285993018,
				"y": 1.947515621,
				"z": -2.914740461,
				"element": "C" 
			},
			{
				"x": -0.0299348567,
				"y": 3.3667476389,
				"z": -3.2493304249,
				"element": "C" 
			},
			{
				"x": -0.1094843996,
				"y": 1.3895436768,
				"z": -1.6670462799,
				"element": "C" 
			},
			{
				"x": -0.451843404,
				"y": 0.0692255307,
				"z": -1.391792231,
				"element": "C" 
			},
			{
				"x": 2.5178772268,
				"y": 0.0706172215,
				"z": 2.2119930933,
				"element": "N" 
			},
			{
				"x": 4.2706029158,
				"y": -1.295819399,
				"z": 5.0369075458,
				"element": "H" 
			},
			{
				"x": 4.815827816,
				"y": -1.3797349917,
				"z": 3.3439566022,
				"element": "H" 
			},
			{
				"x": 5.8278932558,
				"y": -0.5759489114,
				"z": 4.5685783658,
				"element": "H" 
			},
			{
				"x": 4.6257672279,
				"y": 1.1122655965,
				"z": 3.1684238696,
				"element": "H" 
			},
			{
				"x": -0.3655680846,
				"y": 0.5646370946,
				"z": 5.7448047311,
				"element": "H" 
			},
			{
				"x": -1.4973139256,
				"y": 0.177118009,
				"z": 4.4716577543,
				"element": "H" 
			},
			{
				"x": 1.8893202446,
				"y": -0.4602235526,
				"z": -0.0262952266,
				"element": "H" 
			},
			{
				"x": -0.9944006243,
				"y": -0.4819360606,
				"z": 0.6259585505,
				"element": "H" 
			},
			{
				"x": 0.5784852618,
				"y": -2.5095746286,
				"z": -0.9925456646,
				"element": "H" 
			},
			{
				"x": -0.0790414632,
				"y": -3.1673388201,
				"z": 1.333948548,
				"element": "H" 
			},
			{
				"x": -0.8749570187,
				"y": -4.1977535924,
				"z": 0.1347442484,
				"element": "H" 
			},
			{
				"x": -1.7815538689,
				"y": -2.9034523148,
				"z": 0.9344402744,
				"element": "H" 
			},
			{
				"x": -1.2400004783,
				"y": -2.9021117111,
				"z": -2.5150521914,
				"element": "H" 
			},
			{
				"x": -2.4191399055,
				"y": -2.180431848,
				"z": -1.4232252702,
				"element": "H" 
			},
			{
				"x": -1.963995235,
				"y": -0.7697754288,
				"z": -4.3262175469,
				"element": "H" 
			},
			{
				"x": -1.3522614804,
				"y": 1.5763319895,
				"z": -4.8234074713,
				"element": "H" 
			},
			{
				"x": -0.0281162526,
				"y": 4.0025072919,
				"z": -2.3586233263,
				"element": "H" 
			},
			{
				"x": 0.9797577246,
				"y": 3.406736165,
				"z": -3.6776107613,
				"element": "H" 
			},
			{
				"x": -0.710258113,
				"y": 3.8121983562,
				"z": -3.9814563736,
				"element": "H" 
			},
			{
				"x": 0.4100145947,
				"y": 1.9866155396,
				"z": -0.9206719253,
				"element": "H" 
			}
		],
		 "valence_orbital": [ 
			{
				"type": "occ",
				"energy": -0.25548,
				"method": "rhf"
			},
			{
				"type": "occ",
				"energy": -0.24882,
				"method": "rhf"
			},
			{
				"type": "occ",
				"energy": -0.2434,
				"method": "rhf"
			},
			{
				"type": "occ",
				"energy": -0.23129,
				"method": "rhf"
			},
			{
				"type": "occ",
				"energy": -0.22402,
				"method": "rhf"
			},
			{
				"type": "unocc",
				"energy": -0.01265,
				"method": "rhf"
			},
			{
				"type": "unocc",
				"energy": -0.00321,
				"method": "rhf"
			},
			{
				"type": "unocc",
				"energy": 0.00275,
				"method": "rhf"
			},
			{
				"type": "unocc",
				"energy": 0.01246,
				"method": "rhf"
			},
			{
				"type": "unocc",
				"energy": 0.08987,
				"method": "rhf"
			}
		],
		"cosmo_sigma_profile": { 
			"-0.025": 0.0,
			"-0.024": 0.0,
			"-0.023": 0.0,
			"-0.022": 0.0,
			"-0.021": 0.0,
			"-0.02": 0.0,
			"-0.019": 0.0,
			"-0.018": 0.0,
			"-0.017": 0.0,
			"-0.016": 0.0,
			"-0.015": 0.108069638509,
			"-0.014": 1.51620156802,
			"-0.013": 3.09743471564,
			"-0.012": 2.06190496318,
			"-0.011": 3.24741522956,
			"-0.01": 3.12079138971,
			"-0.009": 2.14353290256,
			"-0.008": 2.50728684954,
			"-0.007": 2.52986353058,
			"-0.006": 5.23160517143,
			"-0.005": 10.0145827683,
			"-0.004": 24.4521104595,
			"-0.003": 37.7588679136,
			"-0.002": 37.20961761,
			"-0.001": 41.6325409301,
			"0.0": 43.4924301587,
			"0.001": 27.9568376983,
			"0.002": 19.4536934161,
			"0.003": 15.4047989771,
			"0.004": 12.7376439978,
			"0.005": 15.5559103741,
			"0.006": 17.6918765315,
			"0.007": 10.9475308838,
			"0.008": 4.62559392741,
			"0.009": 3.5965541674,
			"0.01": 2.95128089507,
			"0.011": 2.14278659541,
			"0.012": 1.65802334248,
			"0.013": 1.39404324338,
			"0.014": 1.26863853294,
			"0.015": 1.0726976831,
			"0.016": 0.184005628208,
			"0.017": 0.0,
			"0.018": 0.0,
			"0.019": 0.0,
			"0.02": 0.0,
			"0.021": 0.0,
			"0.022": 0.0,
			"0.023": 0.0,
			"0.024": 0.0,
			"0.025": 0.0
		}
	}
}
