{
	 "smiles": "CN1N=C(C=C1N)C1=CC=CS1", 
	 "Tm": 413.15, 
	 "num_atms": 21, 
	 "gaussian": { 
		 "optdone": 1, 
		 "sigma_profile": "yes", 
		 "theory": "DFT", 
		 "functional": "B3LYP", 
		 "basiset": "6-31G**", 
		 "properties": { 
			 "R2extent": 6114.6182, 
			 "electric_dipole_moment_norm": 3.32604561153, 
			 "electric_quadrupole_moment_norm": 8.23498666483, 
			 "total_energy": -872.684382219, 
			 "HOMO_LUMO_gap": 0.17569, 
			 "cosmo_polarized_energy": -13.6, 
			 "cosmo_cavitation_energy": 26.73, 
			 "cosmo_dispersion_energy": -20.34, 
			 "cosmo_repulsion_energy": 1.58, 
			 "cosmo_total_nonelectrostatic_energy": 7.97, 
			 "SMD_solvation_energy": 3.85 
		},
		"coords": [
			{
				"x": 0.6827812597,
				"y": -0.1478555505,
				"z": -0.4100655552,
				"element": "C" 
			},
			{
				"x": -0.2839968521,
				"y": -0.5122134279,
				"z": 0.6032569472,
				"element": "N" 
			},
			{
				"x": -1.0617558715,
				"y": -1.6122316759,
				"z": 0.4411879929,
				"element": "N" 
			},
			{
				"x": -1.8196086122,
				"y": -1.6617388282,
				"z": 1.543833579,
				"element": "C" 
			},
			{
				"x": -1.5466841177,
				"y": -0.5704282307,
				"z": 2.4097766661,
				"element": "C" 
			},
			{
				"x": -0.5565205034,
				"y": 0.1503956904,
				"z": 1.7646346944,
				"element": "C" 
			},
			{
				"x": 0.1764425497,
				"y": 1.2881552928,
				"z": 2.1312147565,
				"element": "N" 
			},
			{
				"x": -2.7807265651,
				"y": -2.7435452281,
				"z": 1.7187227035,
				"element": "C" 
			},
			{
				"x": -3.0711940314,
				"y": -3.7703593451,
				"z": 0.8511148942,
				"element": "C" 
			},
			{
				"x": -4.0700303107,
				"y": -4.6594675403,
				"z": 1.3427303172,
				"element": "C" 
			},
			{
				"x": -4.5367035556,
				"y": -4.307785792,
				"z": 2.5798705894,
				"element": "C" 
			},
			{
				"x": -3.7543720456,
				"y": -2.8741656906,
				"z": 3.1677136729,
				"element": "S" 
			},
			{
				"x": 1.0423170703,
				"y": -1.0631595965,
				"z": -0.8813300838,
				"element": "H" 
			},
			{
				"x": 1.5151379405,
				"y": 0.3751645765,
				"z": 0.0666265056,
				"element": "H" 
			},
			{
				"x": 0.2427288552,
				"y": 0.4966408453,
				"z": -1.1809044639,
				"element": "H" 
			},
			{
				"x": -2.0094134987,
				"y": -0.3348921852,
				"z": 3.356841887,
				"element": "H" 
			},
			{
				"x": -0.0462433149,
				"y": 1.5805747733,
				"z": 3.0748033545,
				"element": "H" 
			},
			{
				"x": 0.0420947345,
				"y": 2.0738101211,
				"z": 1.5015860096,
				"element": "H" 
			},
			{
				"x": -2.57428754,
				"y": -3.8689891868,
				"z": -0.106176089,
				"element": "H" 
			},
			{
				"x": -4.4269888231,
				"y": -5.5257066834,
				"z": 0.796762254,
				"element": "H" 
			},
			{
				"x": -5.2876767679,
				"y": -4.7984023383,
				"z": 3.182999368,
				"element": "H" 
			}
		],
		 "valence_orbital": [ 
			{
				"type": "occ",
				"energy": -0.27839,
				"method": "rhf"
			},
			{
				"type": "occ",
				"energy": -0.26583,
				"method": "rhf"
			},
			{
				"type": "occ",
				"energy": -0.23974,
				"method": "rhf"
			},
			{
				"type": "occ",
				"energy": -0.21736,
				"method": "rhf"
			},
			{
				"type": "occ",
				"energy": -0.19301,
				"method": "rhf"
			},
			{
				"type": "unocc",
				"energy": -0.01732,
				"method": "rhf"
			},
			{
				"type": "unocc",
				"energy": 0.03688,
				"method": "rhf"
			},
			{
				"type": "unocc",
				"energy": 0.04065,
				"method": "rhf"
			},
			{
				"type": "unocc",
				"energy": 0.06589,
				"method": "rhf"
			},
			{
				"type": "unocc",
				"energy": 0.07256,
				"method": "rhf"
			}
		],
		"cosmo_sigma_profile": { 
			"-0.025": 0.0,
			"-0.024": 0.0,
			"-0.023": 0.0,
			"-0.022": 0.0,
			"-0.021": 0.0,
			"-0.02": 0.0,
			"-0.019": 0.0,
			"-0.018": 0.0,
			"-0.017": 0.0,
			"-0.016": 0.0,
			"-0.015": 0.0,
			"-0.014": 0.000756155844006,
			"-0.013": 1.73809217578,
			"-0.012": 3.11889999606,
			"-0.011": 3.08660755489,
			"-0.01": 2.55401880163,
			"-0.009": 3.53317711136,
			"-0.008": 4.28164891688,
			"-0.007": 5.73908089768,
			"-0.006": 11.2659830676,
			"-0.005": 13.982068285,
			"-0.004": 14.8392150241,
			"-0.003": 16.1074727627,
			"-0.002": 12.1088401914,
			"-0.001": 8.90193861802,
			"0.0": 8.4981661749,
			"0.001": 9.27181916256,
			"0.002": 13.3693029349,
			"0.003": 13.5127490333,
			"0.004": 19.2841006218,
			"0.005": 20.8122536515,
			"0.006": 12.2182854178,
			"0.007": 3.4356298751,
			"0.008": 2.46403467401,
			"0.009": 1.90092022487,
			"0.01": 1.84813054847,
			"0.011": 2.97500979242,
			"0.012": 1.56470172721,
			"0.013": 1.16577065798,
			"0.014": 1.47863947966,
			"0.015": 0.295571859656,
			"0.016": 0.0,
			"0.017": 0.0,
			"0.018": 0.0,
			"0.019": 0.0,
			"0.02": 0.0,
			"0.021": 0.0,
			"0.022": 0.0,
			"0.023": 0.0,
			"0.024": 0.0,
			"0.025": 0.0
		}
	}
}
