{
	 "smiles": "C1CNC(CN1)C1=CC=CC=C1", 
	 "Tm": 358.15, 
	 "num_atms": 26, 
	 "gaussian": { 
		 "optdone": 1, 
		 "sigma_profile": "yes", 
		 "theory": "DFT", 
		 "functional": "B3LYP", 
		 "basiset": "6-31G**", 
		 "properties": { 
			 "R2extent": 2657.8328, 
			 "electric_dipole_moment_norm": 1.75868487797, 
			 "electric_quadrupole_moment_norm": 5.17495159784, 
			 "total_energy": -498.982747738, 
			 "HOMO_LUMO_gap": 0.21413, 
			 "cosmo_polarized_energy": -7.62, 
			 "cosmo_cavitation_energy": 27.0, 
			 "cosmo_dispersion_energy": -20.21, 
			 "cosmo_repulsion_energy": 1.61, 
			 "cosmo_total_nonelectrostatic_energy": 8.4, 
			 "SMD_solvation_energy": 0.58 
		},
		"coords": [
			{
				"x": -2.7626966172,
				"y": 0.6788690034,
				"z": 0.029152861,
				"element": "C" 
			},
			{
				"x": -1.6310465668,
				"y": 1.2259432173,
				"z": -0.8863949477,
				"element": "C" 
			},
			{
				"x": -0.3315706836,
				"y": 0.6037745057,
				"z": -0.6422603682,
				"element": "N" 
			},
			{
				"x": -0.3709182357,
				"y": -0.8567988164,
				"z": -0.880806846,
				"element": "C" 
			},
			{
				"x": -1.7698930236,
				"y": -1.4586077597,
				"z": -0.5258448749,
				"element": "C" 
			},
			{
				"x": -2.3680740974,
				"y": -0.643671912,
				"z": 0.5297783081,
				"element": "N" 
			},
			{
				"x": 0.772808515,
				"y": -1.5206782882,
				"z": -0.1327919026,
				"element": "C" 
			},
			{
				"x": 0.7215488478,
				"y": -1.686793076,
				"z": 1.2604521033,
				"element": "C" 
			},
			{
				"x": 1.7832617551,
				"y": -2.2798434172,
				"z": 1.9441559904,
				"element": "C" 
			},
			{
				"x": 2.9138329975,
				"y": -2.7147957152,
				"z": 1.248307647,
				"element": "C" 
			},
			{
				"x": 2.9754230164,
				"y": -2.5516925411,
				"z": -0.1361260462,
				"element": "C" 
			},
			{
				"x": 1.9119855678,
				"y": -1.9571373311,
				"z": -0.818568464,
				"element": "C" 
			},
			{
				"x": -3.7109083961,
				"y": 0.6606902793,
				"z": -0.5397095966,
				"element": "H" 
			},
			{
				"x": -2.9168303987,
				"y": 1.3408625472,
				"z": 0.8904819944,
				"element": "H" 
			},
			{
				"x": -1.8863170036,
				"y": 1.0529501681,
				"z": -1.9391119315,
				"element": "H" 
			},
			{
				"x": -1.5370064645,
				"y": 2.3098605559,
				"z": -0.7648639246,
				"element": "H" 
			},
			{
				"x": -0.06752845,
				"y": 0.7575122755,
				"z": 0.327865704,
				"element": "H" 
			},
			{
				"x": -0.2064542323,
				"y": -1.0164635383,
				"z": -1.9555985132,
				"element": "H" 
			},
			{
				"x": -1.660689627,
				"y": -2.4867572444,
				"z": -0.1688863494,
				"element": "H" 
			},
			{
				"x": -2.3931882807,
				"y": -1.4988149882,
				"z": -1.4391809372,
				"element": "H" 
			},
			{
				"x": -3.1644176317,
				"y": -1.1169980994,
				"z": 0.9443648275,
				"element": "H" 
			},
			{
				"x": -0.1617426344,
				"y": -1.3528764074,
				"z": 1.7985264627,
				"element": "H" 
			},
			{
				"x": 1.7275248814,
				"y": -2.4043886414,
				"z": 3.0223219877,
				"element": "H" 
			},
			{
				"x": 3.7397985048,
				"y": -3.1771051193,
				"z": 1.7815875317,
				"element": "H" 
			},
			{
				"x": 3.8509809388,
				"y": -2.8856805655,
				"z": -0.686135158,
				"element": "H" 
			},
			{
				"x": 1.9666173187,
				"y": -1.8273590914,
				"z": -1.8966155576,
				"element": "H" 
			}
		],
		 "valence_orbital": [ 
			{
				"type": "occ",
				"energy": -0.31775,
				"method": "rhf"
			},
			{
				"type": "occ",
				"energy": -0.24271,
				"method": "rhf"
			},
			{
				"type": "occ",
				"energy": -0.23971,
				"method": "rhf"
			},
			{
				"type": "occ",
				"energy": -0.22091,
				"method": "rhf"
			},
			{
				"type": "occ",
				"energy": -0.21095,
				"method": "rhf"
			},
			{
				"type": "unocc",
				"energy": 0.00318,
				"method": "rhf"
			},
			{
				"type": "unocc",
				"energy": 0.00647,
				"method": "rhf"
			},
			{
				"type": "unocc",
				"energy": 0.07632,
				"method": "rhf"
			},
			{
				"type": "unocc",
				"energy": 0.09972,
				"method": "rhf"
			},
			{
				"type": "unocc",
				"energy": 0.11168,
				"method": "rhf"
			}
		],
		"cosmo_sigma_profile": { 
			"-0.025": 0.0,
			"-0.024": 0.0,
			"-0.023": 0.0,
			"-0.022": 0.0,
			"-0.021": 0.0,
			"-0.02": 0.0,
			"-0.019": 0.0,
			"-0.018": 0.0,
			"-0.017": 0.0,
			"-0.016": 0.0,
			"-0.015": 0.0,
			"-0.014": 0.0,
			"-0.013": 0.0,
			"-0.012": 0.0,
			"-0.011": 0.00629040100487,
			"-0.01": 1.22868019665,
			"-0.009": 1.14367947613,
			"-0.008": 1.8662851272,
			"-0.007": 2.32182353885,
			"-0.006": 3.5056461527,
			"-0.005": 9.75420381925,
			"-0.004": 14.6350589376,
			"-0.003": 27.7288703733,
			"-0.002": 31.0937176461,
			"-0.001": 28.9858391577,
			"0.0": 16.4143634932,
			"0.001": 9.71771428803,
			"0.002": 9.63983085472,
			"0.003": 9.3686890656,
			"0.004": 9.04568722637,
			"0.005": 9.56310360593,
			"0.006": 10.6110607184,
			"0.007": 4.3525436917,
			"0.008": 1.99244252983,
			"0.009": 0.909773252538,
			"0.01": 1.57010499083,
			"0.011": 1.59312076831,
			"0.012": 0.713720094815,
			"0.013": 0.544652930905,
			"0.014": 0.353095995731,
			"0.015": 0.782405235561,
			"0.016": 0.558225045044,
			"0.017": 0.65534905126,
			"0.018": 0.512327947036,
			"0.019": 0.145094503516,
			"0.02": 0.0,
			"0.021": 0.0,
			"0.022": 0.0,
			"0.023": 0.0,
			"0.024": 0.0,
			"0.025": 0.0
		}
	}
}
