{
	 "smiles": "OC(=O)CSC1=NN=C(O1)C1=CC=CC=C1", 
	 "Tm": 443.15, 
	 "num_atms": 24, 
	 "gaussian": { 
		 "optdone": 1, 
		 "sigma_profile": "yes", 
		 "theory": "DFT", 
		 "functional": "B3LYP", 
		 "basiset": "6-31G**", 
		 "properties": { 
			 "R2extent": 5714.7461, 
			 "electric_dipole_moment_norm": 1.2581629187, 
			 "electric_quadrupole_moment_norm": 27.2289073534, 
			 "total_energy": -1119.2171362, 
			 "HOMO_LUMO_gap": 0.18204, 
			 "cosmo_polarized_energy": -18.77, 
			 "cosmo_cavitation_energy": 31.57, 
			 "cosmo_dispersion_energy": -22.74, 
			 "cosmo_repulsion_energy": 1.71, 
			 "cosmo_total_nonelectrostatic_energy": 10.54, 
			 "SMD_solvation_energy": 4.46 
		},
		"coords": [
			{
				"x": -2.4146002734,
				"y": 1.4454358613,
				"z": -2.0130836969,
				"element": "O" 
			},
			{
				"x": -1.5970758161,
				"y": 2.2228967129,
				"z": -1.2818861233,
				"element": "C" 
			},
			{
				"x": -0.4160286347,
				"y": 2.3002382849,
				"z": -1.5089226144,
				"element": "O" 
			},
			{
				"x": -2.2450699345,
				"y": 3.0698645161,
				"z": -0.1769368351,
				"element": "C" 
			},
			{
				"x": -3.7712998401,
				"y": 2.3900006064,
				"z": 0.5882772028,
				"element": "S" 
			},
			{
				"x": -3.0736402786,
				"y": 1.0629324053,
				"z": 1.5081409557,
				"element": "C" 
			},
			{
				"x": -3.6108171431,
				"y": 0.4381149644,
				"z": 2.506293743,
				"element": "N" 
			},
			{
				"x": -2.7087943056,
				"y": -0.5697649236,
				"z": 2.85219046,
				"element": "N" 
			},
			{
				"x": -1.6926801581,
				"y": -0.4671944726,
				"z": 2.0466446282,
				"element": "C" 
			},
			{
				"x": -1.8617730916,
				"y": 0.5604643969,
				"z": 1.1472529215,
				"element": "O" 
			},
			{
				"x": -0.4676299686,
				"y": -1.2536023404,
				"z": 1.9951088821,
				"element": "C" 
			},
			{
				"x": -0.2925872968,
				"y": -2.3032011698,
				"z": 2.9126286376,
				"element": "C" 
			},
			{
				"x": 0.8708227638,
				"y": -3.0651196517,
				"z": 2.8767676391,
				"element": "C" 
			},
			{
				"x": 1.8642906623,
				"y": -2.7886327751,
				"z": 1.9324143047,
				"element": "C" 
			},
			{
				"x": 1.690828224,
				"y": -1.7450230108,
				"z": 1.0208917789,
				"element": "C" 
			},
			{
				"x": 0.5295139845,
				"y": -0.9752730389,
				"z": 1.0463888331,
				"element": "C" 
			},
			{
				"x": -3.3117724296,
				"y": 1.4623137492,
				"z": -1.6351574909,
				"element": "H" 
			},
			{
				"x": -1.4924700586,
				"y": 3.2798785962,
				"z": 0.5825264277,
				"element": "H" 
			},
			{
				"x": -2.5629660791,
				"y": 4.0225898287,
				"z": -0.6141996046,
				"element": "H" 
			},
			{
				"x": -1.0720055767,
				"y": -2.50515972,
				"z": 3.6395646133,
				"element": "H" 
			},
			{
				"x": 1.0042443559,
				"y": -3.8761351937,
				"z": 3.5862808298,
				"element": "H" 
			},
			{
				"x": 2.7710671003,
				"y": -3.3858105391,
				"z": 1.9077578113,
				"element": "H" 
			},
			{
				"x": 2.4604368319,
				"y": -1.528318266,
				"z": 0.286460068,
				"element": "H" 
			},
			{
				"x": 0.3961069623,
				"y": -0.1645948207,
				"z": 0.3372966285,
				"element": "H" 
			}
		],
		 "valence_orbital": [ 
			{
				"type": "occ",
				"energy": -0.29807,
				"method": "rhf"
			},
			{
				"type": "occ",
				"energy": -0.28989,
				"method": "rhf"
			},
			{
				"type": "occ",
				"energy": -0.27904,
				"method": "rhf"
			},
			{
				"type": "occ",
				"energy": -0.26622,
				"method": "rhf"
			},
			{
				"type": "occ",
				"energy": -0.2413,
				"method": "rhf"
			},
			{
				"type": "unocc",
				"energy": -0.05926,
				"method": "rhf"
			},
			{
				"type": "unocc",
				"energy": -0.02664,
				"method": "rhf"
			},
			{
				"type": "unocc",
				"energy": -0.01568,
				"method": "rhf"
			},
			{
				"type": "unocc",
				"energy": -0.00558,
				"method": "rhf"
			},
			{
				"type": "unocc",
				"energy": 0.00675,
				"method": "rhf"
			}
		],
		"cosmo_sigma_profile": { 
			"-0.025": 0.0,
			"-0.024": 0.0,
			"-0.023": 0.0,
			"-0.022": 0.0,
			"-0.021": 0.0,
			"-0.02": 0.0,
			"-0.019": 0.0,
			"-0.018": 0.0,
			"-0.017": 0.0,
			"-0.016": 0.291078939403,
			"-0.015": 0.565756214869,
			"-0.014": 1.34226781105,
			"-0.013": 1.39260151006,
			"-0.012": 2.98709220645,
			"-0.011": 4.61996157743,
			"-0.01": 3.66175236668,
			"-0.009": 4.53684339101,
			"-0.008": 4.08861599314,
			"-0.007": 8.43703667268,
			"-0.006": 14.6589535542,
			"-0.005": 15.06452278,
			"-0.004": 14.0904081084,
			"-0.003": 14.1173101408,
			"-0.002": 16.6268109189,
			"-0.001": 17.7726313639,
			"0.0": 18.6636954807,
			"0.001": 17.1147780315,
			"0.002": 15.4937318206,
			"0.003": 17.4414696637,
			"0.004": 13.9986381596,
			"0.005": 4.10473603313,
			"0.006": 4.33833276988,
			"0.007": 3.93794134788,
			"0.008": 5.29513243427,
			"0.009": 7.15656467652,
			"0.01": 6.92511800288,
			"0.011": 7.79634426993,
			"0.012": 5.85945277516,
			"0.013": 2.43552122486,
			"0.014": 1.31217816063,
			"0.015": 0.0630934537952,
			"0.016": 0.0,
			"0.017": 0.0,
			"0.018": 0.0,
			"0.019": 0.0,
			"0.02": 0.0,
			"0.021": 0.0,
			"0.022": 0.0,
			"0.023": 0.0,
			"0.024": 0.0,
			"0.025": 0.0
		}
	}
}
