{
	 "smiles": "CC1=CSC(NS(=O)(=O)C2=CC=C(N)C=C2)=N1", 
	 "Tm": 510.15, 
	 "num_atms": 28, 
	 "gaussian": { 
		 "optdone": 1, 
		 "sigma_profile": "yes", 
		 "theory": "DFT", 
		 "functional": "B3LYP", 
		 "basiset": "6-31G**", 
		 "properties": { 
			 "R2extent": 5881.079, 
			 "electric_dipole_moment_norm": 6.3186124719, 
			 "electric_quadrupole_moment_norm": 15.9303089681, 
			 "total_energy": -1498.69962838, 
			 "HOMO_LUMO_gap": 0.19158, 
			 "cosmo_polarized_energy": -21.41, 
			 "cosmo_cavitation_energy": 35.51, 
			 "cosmo_dispersion_energy": -26.14, 
			 "cosmo_repulsion_energy": 1.96, 
			 "cosmo_total_nonelectrostatic_energy": 11.33, 
			 "SMD_solvation_energy": 4.59 
		},
		"coords": [
			{
				"x": 4.8032750574,
				"y": 0.4118099859,
				"z": -1.4984008378,
				"element": "C" 
			},
			{
				"x": 3.5573577456,
				"y": -0.0364213522,
				"z": -2.201986984,
				"element": "C" 
			},
			{
				"x": 3.4403839697,
				"y": -0.2866188166,
				"z": -3.5368429703,
				"element": "C" 
			},
			{
				"x": 1.8175275429,
				"y": -0.8027385432,
				"z": -3.9234597705,
				"element": "S" 
			},
			{
				"x": 1.4192335017,
				"y": -0.6097993038,
				"z": -2.2112366759,
				"element": "C" 
			},
			{
				"x": 0.129686052,
				"y": -0.8470693041,
				"z": -1.7605291346,
				"element": "N" 
			},
			{
				"x": -0.2312715108,
				"y": -1.4744708859,
				"z": -0.1859007196,
				"element": "S" 
			},
			{
				"x": 0.8392464559,
				"y": -2.3727608387,
				"z": 0.2350892079,
				"element": "O" 
			},
			{
				"x": -1.607391485,
				"y": -1.943513906,
				"z": -0.3753717635,
				"element": "O" 
			},
			{
				"x": -0.2449731802,
				"y": -0.0503158186,
				"z": 0.8686842592,
				"element": "C" 
			},
			{
				"x": 0.9428576521,
				"y": 0.397455482,
				"z": 1.4566697692,
				"element": "C" 
			},
			{
				"x": 0.9128516513,
				"y": 1.500051485,
				"z": 2.2976027272,
				"element": "C" 
			},
			{
				"x": -0.2990369318,
				"y": 2.1683644514,
				"z": 2.5682544426,
				"element": "C" 
			},
			{
				"x": -0.3321106253,
				"y": 3.2353972338,
				"z": 3.4467743727,
				"element": "N" 
			},
			{
				"x": -1.4845737353,
				"y": 1.6966021513,
				"z": 1.9686963763,
				"element": "C" 
			},
			{
				"x": -1.4586642847,
				"y": 0.5956510245,
				"z": 1.124696634,
				"element": "C" 
			},
			{
				"x": 2.4002150665,
				"y": -0.2140211848,
				"z": -1.4599822198,
				"element": "N" 
			},
			{
				"x": 5.6338364749,
				"y": 0.52682952,
				"z": -2.1989350455,
				"element": "H" 
			},
			{
				"x": 5.0941140388,
				"y": -0.3146707388,
				"z": -0.7318206253,
				"element": "H" 
			},
			{
				"x": 4.6392531323,
				"y": 1.3698764672,
				"z": -0.9930970635,
				"element": "H" 
			},
			{
				"x": 4.1895861183,
				"y": -0.1957162716,
				"z": -4.3096169038,
				"element": "H" 
			},
			{
				"x": -0.5434808951,
				"y": -1.2128467392,
				"z": -2.4246921544,
				"element": "H" 
			},
			{
				"x": 1.8752674842,
				"y": -0.1074795279,
				"z": 1.2353976029,
				"element": "H" 
			},
			{
				"x": 1.8315868881,
				"y": 1.8513514077,
				"z": 2.7596714316,
				"element": "H" 
			},
			{
				"x": 0.5394835897,
				"y": 3.7126387249,
				"z": 3.6222279069,
				"element": "H" 
			},
			{
				"x": -1.1293791667,
				"y": 3.8514713788,
				"z": 3.3915802486,
				"element": "H" 
			},
			{
				"x": -2.4269691852,
				"y": 2.1951010517,
				"z": 2.1790348794,
				"element": "H" 
			},
			{
				"x": -2.3718114214,
				"y": 0.2234428672,
				"z": 0.6736930098,
				"element": "H" 
			}
		],
		 "valence_orbital": [ 
			{
				"type": "occ",
				"energy": -0.27852,
				"method": "rhf"
			},
			{
				"type": "occ",
				"energy": -0.27588,
				"method": "rhf"
			},
			{
				"type": "occ",
				"energy": -0.26322,
				"method": "rhf"
			},
			{
				"type": "occ",
				"energy": -0.22538,
				"method": "rhf"
			},
			{
				"type": "occ",
				"energy": -0.21452,
				"method": "rhf"
			},
			{
				"type": "unocc",
				"energy": -0.02294,
				"method": "rhf"
			},
			{
				"type": "unocc",
				"energy": -0.01334,
				"method": "rhf"
			},
			{
				"type": "unocc",
				"energy": -0.01257,
				"method": "rhf"
			},
			{
				"type": "unocc",
				"energy": 0.00307,
				"method": "rhf"
			},
			{
				"type": "unocc",
				"energy": 0.04206,
				"method": "rhf"
			}
		],
		"cosmo_sigma_profile": { 
			"-0.025": 0.0,
			"-0.024": 0.0,
			"-0.023": 0.0,
			"-0.022": 0.0,
			"-0.021": 0.0,
			"-0.02": 0.0,
			"-0.019": 0.0,
			"-0.018": 0.0,
			"-0.017": 0.539625222611,
			"-0.016": 0.840241478256,
			"-0.015": 1.09242511182,
			"-0.014": 1.46368359234,
			"-0.013": 3.78132022094,
			"-0.012": 4.24617683503,
			"-0.011": 4.17393668806,
			"-0.01": 4.0060778591,
			"-0.009": 4.29880319581,
			"-0.008": 6.21365010739,
			"-0.007": 8.55239460118,
			"-0.006": 10.0523889778,
			"-0.005": 14.4099478485,
			"-0.004": 14.902057677,
			"-0.003": 12.9068920319,
			"-0.002": 15.2668311975,
			"-0.001": 18.6839245726,
			"0.0": 19.1346444753,
			"0.001": 18.1399281498,
			"0.002": 20.6800413671,
			"0.003": 24.1910081736,
			"0.004": 23.1886989688,
			"0.005": 10.4629137269,
			"0.006": 6.28486369703,
			"0.007": 6.60238683434,
			"0.008": 4.97241163922,
			"0.009": 5.63979460918,
			"0.01": 11.5031681272,
			"0.011": 8.43858688881,
			"0.012": 1.04493707104,
			"0.013": 0.0,
			"0.014": 0.0,
			"0.015": 0.0,
			"0.016": 0.0,
			"0.017": 0.0,
			"0.018": 0.0,
			"0.019": 0.0,
			"0.02": 0.0,
			"0.021": 0.0,
			"0.022": 0.0,
			"0.023": 0.0,
			"0.024": 0.0,
			"0.025": 0.0
		}
	}
}
