{
	 "smiles": "OC(=O)C1CCN(CC1)C1=NN2N=NN=C2C=C1", 
	 "Tm": 473.15, 
	 "num_atms": 30, 
	 "gaussian": { 
		 "optdone": 1, 
		 "sigma_profile": "yes", 
		 "theory": "DFT", 
		 "functional": "B3LYP", 
		 "basiset": "6-31G**", 
		 "properties": { 
			 "R2extent": 5836.0975, 
			 "electric_dipole_moment_norm": 8.47515616021, 
			 "electric_quadrupole_moment_norm": 32.6314103184, 
			 "total_energy": -867.182094149, 
			 "HOMO_LUMO_gap": 0.16424, 
			 "cosmo_polarized_energy": -24.01, 
			 "cosmo_cavitation_energy": 33.15, 
			 "cosmo_dispersion_energy": -24.61, 
			 "cosmo_repulsion_energy": 1.87, 
			 "cosmo_total_nonelectrostatic_energy": 10.4, 
			 "SMD_solvation_energy": 2.61 
		},
		"coords": [
			{
				"x": 1.2918776298,
				"y": 2.0222304169,
				"z": 4.2878302494,
				"element": "O" 
			},
			{
				"x": 0.3234425707,
				"y": 1.2088450177,
				"z": 3.8040903206,
				"element": "C" 
			},
			{
				"x": 0.1933141554,
				"y": 0.0631915703,
				"z": 4.1805096747,
				"element": "O" 
			},
			{
				"x": -0.5539329062,
				"y": 1.9230798083,
				"z": 2.7837793072,
				"element": "C" 
			},
			{
				"x": 0.2662140301,
				"y": 2.5056200655,
				"z": 1.6117641636,
				"element": "C" 
			},
			{
				"x": 0.7768767191,
				"y": 1.419996853,
				"z": 0.6606831599,
				"element": "C" 
			},
			{
				"x": -0.3346632839,
				"y": 0.5857147238,
				"z": 0.1810074134,
				"element": "N" 
			},
			{
				"x": -1.0996455371,
				"y": -0.0482316097,
				"z": 1.268479069,
				"element": "C" 
			},
			{
				"x": -1.6538631398,
				"y": 0.9992624454,
				"z": 2.2404830063,
				"element": "C" 
			},
			{
				"x": -0.1978570436,
				"y": -0.0375413334,
				"z": -1.0441301251,
				"element": "C" 
			},
			{
				"x": 0.9445444586,
				"y": 0.1577730441,
				"z": -1.6916171668,
				"element": "N" 
			},
			{
				"x": 0.992405496,
				"y": -0.3801053779,
				"z": -2.9215036665,
				"element": "N" 
			},
			{
				"x": 2.0593004552,
				"y": -0.2629484699,
				"z": -3.7354752215,
				"element": "N" 
			},
			{
				"x": 1.7440579083,
				"y": -0.9305692068,
				"z": -4.8177529812,
				"element": "N" 
			},
			{
				"x": 0.5170112415,
				"y": -1.4806724163,
				"z": -4.7476552608,
				"element": "N" 
			},
			{
				"x": 0.0417389595,
				"y": -1.1352702626,
				"z": -3.5517389878,
				"element": "C" 
			},
			{
				"x": -1.1699059501,
				"y": -1.357843986,
				"z": -2.8505333822,
				"element": "C" 
			},
			{
				"x": -1.2888796882,
				"y": -0.8083874911,
				"z": -1.6096255005,
				"element": "C" 
			},
			{
				"x": 1.7929178559,
				"y": 1.4966807338,
				"z": 4.9343670342,
				"element": "H" 
			},
			{
				"x": -1.0102223785,
				"y": 2.7599314608,
				"z": 3.3285871676,
				"element": "H" 
			},
			{
				"x": -0.3781319982,
				"y": 3.1915942203,
				"z": 1.0506668174,
				"element": "H" 
			},
			{
				"x": 1.1141044823,
				"y": 3.0838703965,
				"z": 1.9883411254,
				"element": "H" 
			},
			{
				"x": 1.2640383002,
				"y": 1.8722404381,
				"z": -0.2021637675,
				"element": "H" 
			},
			{
				"x": 1.5345642576,
				"y": 0.7909450004,
				"z": 1.1560826274,
				"element": "H" 
			},
			{
				"x": -0.4552968352,
				"y": -0.7495804874,
				"z": 1.8170685527,
				"element": "H" 
			},
			{
				"x": -1.9274212818,
				"y": -0.6242034933,
				"z": 0.8559037488,
				"element": "H" 
			},
			{
				"x": -2.3985344473,
				"y": 1.6129673604,
				"z": 1.7211887712,
				"element": "H" 
			},
			{
				"x": -2.156385854,
				"y": 0.4813489734,
				"z": 3.062069405,
				"element": "H" 
			},
			{
				"x": -1.9642303139,
				"y": -1.9309271268,
				"z": -3.3141003157,
				"element": "H" 
			},
			{
				"x": -2.2127378622,
				"y": -0.9207112674,
				"z": -1.058705238,
				"element": "H" 
			}
		],
		 "valence_orbital": [ 
			{
				"type": "occ",
				"energy": -0.29406,
				"method": "rhf"
			},
			{
				"type": "occ",
				"energy": -0.29061,
				"method": "rhf"
			},
			{
				"type": "occ",
				"energy": -0.2683,
				"method": "rhf"
			},
			{
				"type": "occ",
				"energy": -0.26654,
				"method": "rhf"
			},
			{
				"type": "occ",
				"energy": -0.23551,
				"method": "rhf"
			},
			{
				"type": "unocc",
				"energy": -0.07127,
				"method": "rhf"
			},
			{
				"type": "unocc",
				"energy": -0.0197,
				"method": "rhf"
			},
			{
				"type": "unocc",
				"energy": -0.01214,
				"method": "rhf"
			},
			{
				"type": "unocc",
				"energy": 0.02644,
				"method": "rhf"
			},
			{
				"type": "unocc",
				"energy": 0.0597,
				"method": "rhf"
			}
		],
		"cosmo_sigma_profile": { 
			"-0.025": 0.0,
			"-0.024": 0.0,
			"-0.023": 0.0,
			"-0.022": 0.0,
			"-0.021": 0.0,
			"-0.02": 0.0,
			"-0.019": 0.0349790405501,
			"-0.018": 0.663862384345,
			"-0.017": 1.13486665727,
			"-0.016": 0.952856651841,
			"-0.015": 0.678850640537,
			"-0.014": 0.418806454518,
			"-0.013": 0.304408018785,
			"-0.012": 0.856635520869,
			"-0.011": 1.74985238031,
			"-0.01": 4.5830933476,
			"-0.009": 5.26737989727,
			"-0.008": 4.84087093419,
			"-0.007": 5.41581948966,
			"-0.006": 9.99736348932,
			"-0.005": 15.5719070937,
			"-0.004": 32.2379815063,
			"-0.003": 29.5640704211,
			"-0.002": 21.7036229754,
			"-0.001": 19.6684024398,
			"0.0": 12.0597139254,
			"0.001": 7.42038220831,
			"0.002": 6.62890954192,
			"0.003": 6.64940609735,
			"0.004": 6.69658960641,
			"0.005": 6.82763802827,
			"0.006": 7.17455030145,
			"0.007": 6.91399187304,
			"0.008": 8.53367430221,
			"0.009": 8.88960529642,
			"0.01": 8.67020691901,
			"0.011": 8.47360430486,
			"0.012": 7.42880137805,
			"0.013": 2.42164677123,
			"0.014": 2.21106111309,
			"0.015": 0.688640439646,
			"0.016": 0.0,
			"0.017": 0.0,
			"0.018": 0.0,
			"0.019": 0.0,
			"0.02": 0.0,
			"0.021": 0.0,
			"0.022": 0.0,
			"0.023": 0.0,
			"0.024": 0.0,
			"0.025": 0.0
		}
	}
}
