{
	 "smiles": "NC1=CC=C(C=C1)S(=O)(=O)NC1=NC=CC=N1", 
	 "Tm": 527.15, 
	 "num_atms": 27, 
	 "gaussian": { 
		 "optdone": 1, 
		 "sigma_profile": "yes", 
		 "theory": "DFT", 
		 "functional": "B3LYP", 
		 "basiset": "6-31G**", 
		 "properties": { 
			 "R2extent": 5116.3669, 
			 "electric_dipole_moment_norm": 7.22162627183, 
			 "electric_quadrupole_moment_norm": 16.7322280082, 
			 "total_energy": -1154.66686313, 
			 "HOMO_LUMO_gap": 0.1768, 
			 "cosmo_polarized_energy": -21.92, 
			 "cosmo_cavitation_energy": 33.26, 
			 "cosmo_dispersion_energy": -24.52, 
			 "cosmo_repulsion_energy": 1.86, 
			 "cosmo_total_nonelectrostatic_energy": 10.6, 
			 "SMD_solvation_energy": 3.18 
		},
		"coords": [
			{
				"x": -1.9490656266,
				"y": -2.2127758136,
				"z": -3.4923989375,
				"element": "N" 
			},
			{
				"x": -1.5302225928,
				"y": -1.5336098238,
				"z": -2.3624053192,
				"element": "C" 
			},
			{
				"x": -0.8739580734,
				"y": -2.2168729723,
				"z": -1.3181905132,
				"element": "C" 
			},
			{
				"x": -0.4986914601,
				"y": -1.5465624367,
				"z": -0.1628941735,
				"element": "C" 
			},
			{
				"x": -0.7710198757,
				"y": -0.1805442759,
				"z": -0.0354985978,
				"element": "C" 
			},
			{
				"x": -1.4264527021,
				"y": 0.514478208,
				"z": -1.0563859183,
				"element": "C" 
			},
			{
				"x": -1.8013500129,
				"y": -0.1586327421,
				"z": -2.2104200003,
				"element": "C" 
			},
			{
				"x": -0.3123091682,
				"y": 0.6583573654,
				"z": 1.4583361938,
				"element": "S" 
			},
			{
				"x": -0.151179695,
				"y": -0.3304531181,
				"z": 2.5282061931,
				"element": "O" 
			},
			{
				"x": -1.1631499345,
				"y": 1.8337012685,
				"z": 1.6216932425,
				"element": "O" 
			},
			{
				"x": 1.3125536984,
				"y": 1.1526017466,
				"z": 1.2076702883,
				"element": "N" 
			},
			{
				"x": 1.7346884681,
				"y": 2.2708215726,
				"z": 0.5048898381,
				"element": "C" 
			},
			{
				"x": 2.9521406656,
				"y": 2.7260707345,
				"z": 0.8471713801,
				"element": "N" 
			},
			{
				"x": 3.3895659117,
				"y": 3.7799295939,
				"z": 0.1557250737,
				"element": "C" 
			},
			{
				"x": 2.6387852676,
				"y": 4.3875990377,
				"z": -0.8505052371,
				"element": "C" 
			},
			{
				"x": 1.3939785486,
				"y": 3.8188638186,
				"z": -1.1105463983,
				"element": "C" 
			},
			{
				"x": 0.9295956015,
				"y": 2.7551349349,
				"z": -0.4499354828,
				"element": "N" 
			},
			{
				"x": -1.4951571187,
				"y": -3.0913782949,
				"z": -3.693327273,
				"element": "H" 
			},
			{
				"x": -2.1428768243,
				"y": -1.6592554077,
				"z": -4.3136011702,
				"element": "H" 
			},
			{
				"x": -0.6726986826,
				"y": -3.2802246662,
				"z": -1.4167633042,
				"element": "H" 
			},
			{
				"x": -0.0098714716,
				"y": -2.0763368664,
				"z": 0.6473567023,
				"element": "H" 
			},
			{
				"x": -1.6283961088,
				"y": 1.5718851874,
				"z": -0.9378200686,
				"element": "H" 
			},
			{
				"x": -2.3168189618,
				"y": 0.3754729551,
				"z": -3.0042427362,
				"element": "H" 
			},
			{
				"x": 1.9137003768,
				"y": 0.868661829,
				"z": 1.9737638964,
				"element": "H" 
			},
			{
				"x": 4.3769013344,
				"y": 4.1521593795,
				"z": 0.4242191252,
				"element": "H" 
			},
			{
				"x": 3.0022775197,
				"y": 5.2491568973,
				"z": -1.3977313107,
				"element": "H" 
			},
			{
				"x": 0.7415309166,
				"y": 4.2245518888,
				"z": -1.8819654927,
				"element": "H" 
			}
		],
		 "valence_orbital": [ 
			{
				"type": "occ",
				"energy": -0.29508,
				"method": "rhf"
			},
			{
				"type": "occ",
				"energy": -0.26486,
				"method": "rhf"
			},
			{
				"type": "occ",
				"energy": -0.25616,
				"method": "rhf"
			},
			{
				"type": "occ",
				"energy": -0.24909,
				"method": "rhf"
			},
			{
				"type": "occ",
				"energy": -0.2196,
				"method": "rhf"
			},
			{
				"type": "unocc",
				"energy": -0.0428,
				"method": "rhf"
			},
			{
				"type": "unocc",
				"energy": -0.02122,
				"method": "rhf"
			},
			{
				"type": "unocc",
				"energy": -0.01647,
				"method": "rhf"
			},
			{
				"type": "unocc",
				"energy": -0.01102,
				"method": "rhf"
			},
			{
				"type": "unocc",
				"energy": 0.05841,
				"method": "rhf"
			}
		],
		"cosmo_sigma_profile": { 
			"-0.025": 0.0,
			"-0.024": 0.0,
			"-0.023": 0.0,
			"-0.022": 0.0,
			"-0.021": 0.0,
			"-0.02": 0.0,
			"-0.019": 0.0,
			"-0.018": 0.0,
			"-0.017": 0.0,
			"-0.016": 0.0,
			"-0.015": 0.427699907512,
			"-0.014": 1.1639400829,
			"-0.013": 3.38355288072,
			"-0.012": 3.67474882858,
			"-0.011": 3.98873589397,
			"-0.01": 3.73450857964,
			"-0.009": 3.874668715,
			"-0.008": 8.92906126423,
			"-0.007": 12.8764090284,
			"-0.006": 15.7137458322,
			"-0.005": 13.3814035606,
			"-0.004": 11.4520706984,
			"-0.003": 10.5036778589,
			"-0.002": 13.0151777412,
			"-0.001": 16.4008514546,
			"0.0": 17.5275963579,
			"0.001": 16.9537713748,
			"0.002": 15.8477608446,
			"0.003": 17.3757176857,
			"0.004": 18.3445439605,
			"0.005": 7.80659974787,
			"0.006": 7.31956470263,
			"0.007": 5.62783826579,
			"0.008": 6.1563244637,
			"0.009": 6.00080246033,
			"0.01": 10.8876785569,
			"0.011": 10.6865313766,
			"0.012": 2.6851678641,
			"0.013": 0.721429007998,
			"0.014": 0.139839971875,
			"0.015": 0.0,
			"0.016": 0.0,
			"0.017": 0.0,
			"0.018": 0.0,
			"0.019": 0.0,
			"0.02": 0.0,
			"0.021": 0.0,
			"0.022": 0.0,
			"0.023": 0.0,
			"0.024": 0.0,
			"0.025": 0.0
		}
	}
}
