{
	 "smiles": "ClCC(CCl)OP(=O)(OC(CCl)CCl)OC(CCl)CCl", 
	 "Tm": 300.15, 
	 "num_atms": 35, 
	 "gaussian": { 
		 "optdone": 1, 
		 "sigma_profile": "yes", 
		 "theory": "DFT", 
		 "functional": "B3LYP", 
		 "basiset": "6-31G**", 
		 "properties": { 
			 "R2extent": 12550.1485, 
			 "electric_dipole_moment_norm": 2.89105380441, 
			 "electric_quadrupole_moment_norm": 7.98007013942, 
			 "total_energy": -3755.49897432, 
			 "HOMO_LUMO_gap": 0.28792, 
			 "cosmo_polarized_energy": -20.12, 
			 "cosmo_cavitation_energy": 50.61, 
			 "cosmo_dispersion_energy": -32.24, 
			 "cosmo_repulsion_energy": 2.58, 
			 "cosmo_total_nonelectrostatic_energy": 20.96, 
			 "SMD_solvation_energy": 7.56 
		},
		"coords": [
			{
				"x": 2.7612046763,
				"y": 2.4415561257,
				"z": -4.8265052101,
				"element": "Cl" 
			},
			{
				"x": 2.0723438355,
				"y": 0.9919349849,
				"z": -3.9964942257,
				"element": "C" 
			},
			{
				"x": 2.0202484116,
				"y": 1.2079194343,
				"z": -2.4856070799,
				"element": "C" 
			},
			{
				"x": 3.3696022071,
				"y": 1.3509606582,
				"z": -1.7917857988,
				"element": "C" 
			},
			{
				"x": 4.4618626481,
				"y": -0.0662708835,
				"z": -2.0577447596,
				"element": "Cl" 
			},
			{
				"x": 1.3035835137,
				"y": 0.05223475,
				"z": -1.9747348897,
				"element": "O" 
			},
			{
				"x": 0.286824029,
				"y": 0.193958068,
				"z": -0.7467315821,
				"element": "P" 
			},
			{
				"x": -0.524555029,
				"y": 1.4350480278,
				"z": -0.7015101183,
				"element": "O" 
			},
			{
				"x": -0.5420817188,
				"y": -1.1842365523,
				"z": -0.8178384926,
				"element": "O" 
			},
			{
				"x": -1.6223443007,
				"y": -1.3376749389,
				"z": -1.7738730307,
				"element": "C" 
			},
			{
				"x": -1.7022637613,
				"y": -2.814777093,
				"z": -2.1242150561,
				"element": "C" 
			},
			{
				"x": -0.2833000549,
				"y": -3.3584108575,
				"z": -3.0964866892,
				"element": "Cl" 
			},
			{
				"x": -2.8968882094,
				"y": -0.8154556136,
				"z": -1.1003117834,
				"element": "C" 
			},
			{
				"x": -4.3011184327,
				"y": -0.8297679215,
				"z": -2.2397895292,
				"element": "Cl" 
			},
			{
				"x": 1.2368921458,
				"y": -0.0739021648,
				"z": 0.5218981497,
				"element": "O" 
			},
			{
				"x": 0.7554743194,
				"y": 0.1671241634,
				"z": 1.8665137631,
				"element": "C" 
			},
			{
				"x": 1.5402115887,
				"y": -0.8167297969,
				"z": 2.7314169605,
				"element": "C" 
			},
			{
				"x": 0.9144552799,
				"y": -0.8173413852,
				"z": 4.4269535726,
				"element": "Cl" 
			},
			{
				"x": 0.8932412995,
				"y": 1.6386943906,
				"z": 2.2408900707,
				"element": "C" 
			},
			{
				"x": 2.6058929127,
				"y": 2.2267516921,
				"z": 2.1688483142,
				"element": "Cl" 
			},
			{
				"x": 1.0647400114,
				"y": 0.843991524,
				"z": -4.3834633351,
				"element": "H" 
			},
			{
				"x": 2.6973834855,
				"y": 0.1358315465,
				"z": -4.2486224771,
				"element": "H" 
			},
			{
				"x": 1.4400529038,
				"y": 2.1122193812,
				"z": -2.2667403833,
				"element": "H" 
			},
			{
				"x": 3.885577379,
				"y": 2.2309232877,
				"z": -2.176875847,
				"element": "H" 
			},
			{
				"x": 3.2333637817,
				"y": 1.4475274909,
				"z": -0.7144654231,
				"element": "H" 
			},
			{
				"x": -1.4145705396,
				"y": -0.7517162589,
				"z": -2.6743716609,
				"element": "H" 
			},
			{
				"x": -2.5955634435,
				"y": -3.0102186398,
				"z": -2.7165407991,
				"element": "H" 
			},
			{
				"x": -1.7219370363,
				"y": -3.4173345806,
				"z": -1.2142182276,
				"element": "H" 
			},
			{
				"x": -3.1648857745,
				"y": -1.4288219942,
				"z": -0.2380619447,
				"element": "H" 
			},
			{
				"x": -2.7407209746,
				"y": 0.217601769,
				"z": -0.7912094841,
				"element": "H" 
			},
			{
				"x": -0.3123114111,
				"y": -0.0775875114,
				"z": 1.9289890894,
				"element": "H" 
			},
			{
				"x": 2.5965155851,
				"y": -0.5513250587,
				"z": 2.766602387,
				"element": "H" 
			},
			{
				"x": 1.4237005624,
				"y": -1.8256097298,
				"z": 2.3375208137,
				"element": "H" 
			},
			{
				"x": 0.3168714792,
				"y": 2.2482816935,
				"z": 1.5459035589,
				"element": "H" 
			},
			{
				"x": 0.5449986311,
				"y": 1.7959219928,
				"z": 3.2618611477,
				"element": "H" 
			}
		],
		 "valence_orbital": [ 
			{
				"type": "occ",
				"energy": -0.31067,
				"method": "rhf"
			},
			{
				"type": "occ",
				"energy": -0.30885,
				"method": "rhf"
			},
			{
				"type": "occ",
				"energy": -0.30496,
				"method": "rhf"
			},
			{
				"type": "occ",
				"energy": -0.30336,
				"method": "rhf"
			},
			{
				"type": "occ",
				"energy": -0.30197,
				"method": "rhf"
			},
			{
				"type": "unocc",
				"energy": -0.01405,
				"method": "rhf"
			},
			{
				"type": "unocc",
				"energy": 0.00229,
				"method": "rhf"
			},
			{
				"type": "unocc",
				"energy": 0.00428,
				"method": "rhf"
			},
			{
				"type": "unocc",
				"energy": 0.00754,
				"method": "rhf"
			},
			{
				"type": "unocc",
				"energy": 0.0087,
				"method": "rhf"
			}
		],
		"cosmo_sigma_profile": { 
			"-0.025": 0.0,
			"-0.024": 0.0,
			"-0.023": 0.0,
			"-0.022": 0.0,
			"-0.021": 0.0,
			"-0.02": 0.0,
			"-0.019": 0.0,
			"-0.018": 0.0,
			"-0.017": 0.0,
			"-0.016": 0.0,
			"-0.015": 0.0,
			"-0.014": 0.0,
			"-0.013": 0.0,
			"-0.012": 0.0,
			"-0.011": 0.0,
			"-0.01": 0.784187104034,
			"-0.009": 7.08209765443,
			"-0.008": 18.4825217711,
			"-0.007": 22.8474171362,
			"-0.006": 23.6997906861,
			"-0.005": 25.8001385805,
			"-0.004": 21.7091530233,
			"-0.003": 18.3582981226,
			"-0.002": 16.6814328573,
			"-0.001": 24.4554001927,
			"0.0": 24.482897279,
			"0.001": 22.8260110564,
			"0.002": 27.0771309763,
			"0.003": 32.4768167291,
			"0.004": 33.2277536805,
			"0.005": 43.2118139561,
			"0.006": 32.4631219817,
			"0.007": 6.15866044354,
			"0.008": 1.38646855561,
			"0.009": 0.887225975554,
			"0.01": 1.05921926551,
			"0.011": 1.49810144886,
			"0.012": 2.04113396047,
			"0.013": 1.68602474157,
			"0.014": 0.0693447424505,
			"0.015": 0.0,
			"0.016": 0.0,
			"0.017": 0.0,
			"0.018": 0.0,
			"0.019": 0.0,
			"0.02": 0.0,
			"0.021": 0.0,
			"0.022": 0.0,
			"0.023": 0.0,
			"0.024": 0.0,
			"0.025": 0.0
		}
	}
}
