{
	 "smiles": "CC1=CSC(=N1)C1=CC(C)=NNC1=O", 
	 "Tm": 541.15, 
	 "num_atms": 23, 
	 "gaussian": { 
		 "optdone": 1, 
		 "sigma_profile": "yes", 
		 "theory": "DFT", 
		 "functional": "B3LYP", 
		 "basiset": "6-31G**", 
		 "properties": { 
			 "R2extent": 3676.1146, 
			 "electric_dipole_moment_norm": 2.42748263434, 
			 "electric_quadrupole_moment_norm": 10.719905924, 
			 "total_energy": -986.041795803, 
			 "HOMO_LUMO_gap": 0.1395, 
			 "cosmo_polarized_energy": -12.12, 
			 "cosmo_cavitation_energy": 29.01, 
			 "cosmo_dispersion_energy": -22.19, 
			 "cosmo_repulsion_energy": 1.71, 
			 "cosmo_total_nonelectrostatic_energy": 8.52, 
			 "SMD_solvation_energy": 3.72 
		},
		"coords": [
			{
				"x": 0.7186020915,
				"y": 2.8392258663,
				"z": 2.3406822131,
				"element": "C" 
			},
			{
				"x": -0.1113147192,
				"y": 2.1424693347,
				"z": 1.302028389,
				"element": "C" 
			},
			{
				"x": -1.3588216265,
				"y": 2.5240178353,
				"z": 0.8697077019,
				"element": "C" 
			},
			{
				"x": -1.9599644921,
				"y": 1.4449570276,
				"z": -0.3364404347,
				"element": "S" 
			},
			{
				"x": -0.4673115401,
				"y": 0.5262252268,
				"z": -0.1843167037,
				"element": "C" 
			},
			{
				"x": 0.3765843134,
				"y": 1.0135713304,
				"z": 0.6971882801,
				"element": "N" 
			},
			{
				"x": -0.1842401179,
				"y": -0.6712197958,
				"z": -0.9640897235,
				"element": "C" 
			},
			{
				"x": 0.9902928039,
				"y": -1.3653280185,
				"z": -0.8214762416,
				"element": "C" 
			},
			{
				"x": 1.2534345346,
				"y": -2.5379304021,
				"z": -1.5935254556,
				"element": "C" 
			},
			{
				"x": 2.5420630638,
				"y": -3.3000048235,
				"z": -1.4376167544,
				"element": "C" 
			},
			{
				"x": 0.3885218812,
				"y": -2.999556562,
				"z": -2.4674165172,
				"element": "N" 
			},
			{
				"x": -0.7574434894,
				"y": -2.3074106825,
				"z": -2.5947874241,
				"element": "N" 
			},
			{
				"x": -1.1697485929,
				"y": -1.1590648851,
				"z": -1.9296898772,
				"element": "C" 
			},
			{
				"x": -2.2646362158,
				"y": -0.6497455902,
				"z": -2.1715642323,
				"element": "O" 
			},
			{
				"x": 0.204273602,
				"y": 3.7197944227,
				"z": 2.7330838615,
				"element": "H" 
			},
			{
				"x": 0.9387770347,
				"y": 2.1661477797,
				"z": 3.1761532412,
				"element": "H" 
			},
			{
				"x": 1.678299169,
				"y": 3.1578469288,
				"z": 1.9199960756,
				"element": "H" 
			},
			{
				"x": -1.9409964561,
				"y": 3.3738671748,
				"z": 1.1986603928,
				"element": "H" 
			},
			{
				"x": 1.7257595768,
				"y": -1.00883507,
				"z": -0.106914831,
				"element": "H" 
			},
			{
				"x": 2.5497472029,
				"y": -4.1585027114,
				"z": -2.1110272801,
				"element": "H" 
			},
			{
				"x": 3.4050031851,
				"y": -2.6647849071,
				"z": -1.6668051103,
				"element": "H" 
			},
			{
				"x": 2.6653584253,
				"y": -3.657945668,
				"z": -0.4093125049,
				"element": "H" 
			},
			{
				"x": -1.4107396345,
				"y": -2.6800938108,
				"z": -3.2741170647,
				"element": "H" 
			}
		],
		 "valence_orbital": [ 
			{
				"type": "occ",
				"energy": -0.27937,
				"method": "rhf"
			},
			{
				"type": "occ",
				"energy": -0.27573,
				"method": "rhf"
			},
			{
				"type": "occ",
				"energy": -0.25744,
				"method": "rhf"
			},
			{
				"type": "occ",
				"energy": -0.25138,
				"method": "rhf"
			},
			{
				"type": "occ",
				"energy": -0.22164,
				"method": "rhf"
			},
			{
				"type": "unocc",
				"energy": -0.08214,
				"method": "rhf"
			},
			{
				"type": "unocc",
				"energy": -0.00806,
				"method": "rhf"
			},
			{
				"type": "unocc",
				"energy": 0.00761,
				"method": "rhf"
			},
			{
				"type": "unocc",
				"energy": 0.039,
				"method": "rhf"
			},
			{
				"type": "unocc",
				"energy": 0.05136,
				"method": "rhf"
			}
		],
		"cosmo_sigma_profile": { 
			"-0.025": 0.0,
			"-0.024": 0.0,
			"-0.023": 0.0,
			"-0.022": 0.0,
			"-0.021": 0.0,
			"-0.02": 0.0,
			"-0.019": 0.0,
			"-0.018": 0.0,
			"-0.017": 0.0363703247947,
			"-0.016": 1.11527259605,
			"-0.015": 1.1218501219,
			"-0.014": 0.725184418918,
			"-0.013": 1.07675430739,
			"-0.012": 0.781141871426,
			"-0.011": 0.696560771572,
			"-0.01": 0.642119937434,
			"-0.009": 1.53788458136,
			"-0.008": 3.05342579691,
			"-0.007": 3.85889260957,
			"-0.006": 6.48230405687,
			"-0.005": 15.0266511883,
			"-0.004": 16.822474002,
			"-0.003": 18.8616045976,
			"-0.002": 22.5710982652,
			"-0.001": 25.7281166882,
			"0.0": 24.1987628087,
			"0.001": 14.1953396228,
			"0.002": 15.6784219594,
			"0.003": 13.3211959797,
			"0.004": 7.60481500845,
			"0.005": 6.12810083014,
			"0.006": 4.70324713527,
			"0.007": 3.98165120835,
			"0.008": 4.14810365002,
			"0.009": 3.3791947159,
			"0.01": 3.42593580892,
			"0.011": 4.37650549675,
			"0.012": 3.44697709511,
			"0.013": 4.07217531251,
			"0.014": 0.965104953452,
			"0.015": 0.0,
			"0.016": 0.0,
			"0.017": 0.0,
			"0.018": 0.0,
			"0.019": 0.0,
			"0.02": 0.0,
			"0.021": 0.0,
			"0.022": 0.0,
			"0.023": 0.0,
			"0.024": 0.0,
			"0.025": 0.0
		}
	}
}
