{
	 "smiles": "CC1=NN(C(=O)C1C(C1C(C)=NN(C1=O)C1=CC=CC=C1)C1=CC=C(O)C=C1)C1=CC=CC=C1", 
	 "Tm": 514.15, 
	 "num_atms": 58, 
	 "gaussian": { 
		 "optdone": 1, 
		 "sigma_profile": "yes", 
		 "theory": "DFT", 
		 "functional": "B3LYP", 
		 "basiset": "6-31G**", 
		 "properties": { 
			 "R2extent": 15719.9037, 
			 "electric_dipole_moment_norm": 2.7357499374, 
			 "electric_quadrupole_moment_norm": 16.6336819983, 
			 "total_energy": -1487.98870036, 
			 "HOMO_LUMO_gap": 0.16491, 
			 "cosmo_polarized_energy": -21.22, 
			 "cosmo_cavitation_energy": 59.4, 
			 "cosmo_dispersion_energy": -38.48, 
			 "cosmo_repulsion_energy": 2.88, 
			 "cosmo_total_nonelectrostatic_energy": 23.79, 
			 "SMD_solvation_energy": 9.37 
		},
		"coords": [
			{
				"x": 0.5564239287,
				"y": -2.8880713454,
				"z": -0.6926228591,
				"element": "C" 
			},
			{
				"x": 0.4480348769,
				"y": -1.7149668797,
				"z": 0.2250806747,
				"element": "C" 
			},
			{
				"x": -0.6587443115,
				"y": -1.4305340457,
				"z": 0.8156740036,
				"element": "N" 
			},
			{
				"x": -0.4522259072,
				"y": -0.3156138724,
				"z": 1.6454384774,
				"element": "N" 
			},
			{
				"x": 0.8544919451,
				"y": 0.1297731043,
				"z": 1.6182019537,
				"element": "C" 
			},
			{
				"x": 1.3329674465,
				"y": 1.0482171508,
				"z": 2.2747936491,
				"element": "O" 
			},
			{
				"x": 1.5828916101,
				"y": -0.8059854253,
				"z": 0.642734569,
				"element": "C" 
			},
			{
				"x": 2.4551652578,
				"y": -0.1903998587,
				"z": -0.4953483444,
				"element": "C" 
			},
			{
				"x": 1.8092452203,
				"y": 0.9787872754,
				"z": -1.305351228,
				"element": "C" 
			},
			{
				"x": 1.3339946167,
				"y": 2.2646819113,
				"z": -0.6697708008,
				"element": "C" 
			},
			{
				"x": 2.1516828379,
				"y": 3.2275466244,
				"z": 0.1269079193,
				"element": "C" 
			},
			{
				"x": 0.1217239841,
				"y": 2.5499075559,
				"z": -1.0009652625,
				"element": "N" 
			},
			{
				"x": -0.3850563681,
				"y": 1.524087038,
				"z": -1.8182150377,
				"element": "N" 
			},
			{
				"x": 0.5552526341,
				"y": 0.5459658849,
				"z": -2.071705005,
				"element": "C" 
			},
			{
				"x": 0.4356812367,
				"y": -0.4565733488,
				"z": -2.7646858404,
				"element": "O" 
			},
			{
				"x": -1.7229808848,
				"y": 1.6250807085,
				"z": -2.283942637,
				"element": "C" 
			},
			{
				"x": -2.2539114694,
				"y": 0.6647268031,
				"z": -3.1590483546,
				"element": "C" 
			},
			{
				"x": -3.5717852364,
				"y": 0.7948989802,
				"z": -3.5960042784,
				"element": "C" 
			},
			{
				"x": -4.3666516983,
				"y": 1.8625834579,
				"z": -3.1779528207,
				"element": "C" 
			},
			{
				"x": -3.8283157211,
				"y": 2.8115716138,
				"z": -2.3073177122,
				"element": "C" 
			},
			{
				"x": -2.5145876399,
				"y": 2.7014432567,
				"z": -1.8573744881,
				"element": "C" 
			},
			{
				"x": 3.8949955367,
				"y": 0.1155301482,
				"z": -0.0871303391,
				"element": "C" 
			},
			{
				"x": 4.2719867752,
				"y": 0.5293831075,
				"z": 1.1959929432,
				"element": "C" 
			},
			{
				"x": 5.6093470379,
				"y": 0.7876004285,
				"z": 1.5035334593,
				"element": "C" 
			},
			{
				"x": 6.5988856264,
				"y": 0.641125355,
				"z": 0.5281143054,
				"element": "C" 
			},
			{
				"x": 7.9213686766,
				"y": 0.8787650024,
				"z": 0.7685086336,
				"element": "O" 
			},
			{
				"x": 6.2403460612,
				"y": 0.2283215056,
				"z": -0.760653335,
				"element": "C" 
			},
			{
				"x": 4.9061404278,
				"y": -0.0316459124,
				"z": -1.0519736122,
				"element": "C" 
			},
			{
				"x": -1.5541089842,
				"y": 0.1816086021,
				"z": 2.3936267876,
				"element": "C" 
			},
			{
				"x": -1.4000220316,
				"y": 1.2571481012,
				"z": 3.2821860083,
				"element": "C" 
			},
			{
				"x": -2.5059888255,
				"y": 1.7144074544,
				"z": 3.9983020541,
				"element": "C" 
			},
			{
				"x": -3.758897471,
				"y": 1.1204871964,
				"z": 3.8454768348,
				"element": "C" 
			},
			{
				"x": -3.9011649674,
				"y": 0.0521924263,
				"z": 2.9585040923,
				"element": "C" 
			},
			{
				"x": -2.8106719798,
				"y": -0.4210375725,
				"z": 2.2326163187,
				"element": "C" 
			},
			{
				"x": 0.7689970875,
				"y": -2.5577009745,
				"z": -1.7137146378,
				"element": "H" 
			},
			{
				"x": 1.3624796269,
				"y": -3.5591542914,
				"z": -0.372711465,
				"element": "H" 
			},
			{
				"x": -0.3859135389,
				"y": -3.4393604353,
				"z": -0.6910867337,
				"element": "H" 
			},
			{
				"x": 2.2717382376,
				"y": -1.4078987871,
				"z": 1.2536120937,
				"element": "H" 
			},
			{
				"x": 2.5202764782,
				"y": -0.9869075935,
				"z": -1.2464880788,
				"element": "H" 
			},
			{
				"x": 2.5588827651,
				"y": 1.2482362947,
				"z": -2.0632077471,
				"element": "H" 
			},
			{
				"x": 3.0698537377,
				"y": 3.4898561557,
				"z": -0.4108985344,
				"element": "H" 
			},
			{
				"x": 2.4371048758,
				"y": 2.790248232,
				"z": 1.085984833,
				"element": "H" 
			},
			{
				"x": 1.569685351,
				"y": 4.1340316928,
				"z": 0.3057723107,
				"element": "H" 
			},
			{
				"x": -1.6404276091,
				"y": -0.1637860998,
				"z": -3.4836392902,
				"element": "H" 
			},
			{
				"x": -3.9760055692,
				"y": 0.047771799,
				"z": -4.273228668,
				"element": "H" 
			},
			{
				"x": -5.3915167175,
				"y": 1.9539129085,
				"z": -3.5250014461,
				"element": "H" 
			},
			{
				"x": -4.4333633033,
				"y": 3.6483662792,
				"z": -1.9700517785,
				"element": "H" 
			},
			{
				"x": -2.0938650447,
				"y": 3.4341517624,
				"z": -1.1816233738,
				"element": "H" 
			},
			{
				"x": 3.516967276,
				"y": 0.6694961722,
				"z": 1.9629673785,
				"element": "H" 
			},
			{
				"x": 5.8788201129,
				"y": 1.1073973393,
				"z": 2.5082481364,
				"element": "H" 
			},
			{
				"x": 8.0324820625,
				"y": 1.1526826025,
				"z": 1.6882590232,
				"element": "H" 
			},
			{
				"x": 7.0158006129,
				"y": 0.1062457269,
				"z": -1.5095695641,
				"element": "H" 
			},
			{
				"x": 4.6460467303,
				"y": -0.3669351208,
				"z": -2.0540656466,
				"element": "H" 
			},
			{
				"x": -0.4317334186,
				"y": 1.720780186,
				"z": 3.4031573685,
				"element": "H" 
			},
			{
				"x": -2.3783673142,
				"y": 2.5474250709,
				"z": 4.6838602289,
				"element": "H" 
			},
			{
				"x": -4.6127973085,
				"y": 1.4851025597,
				"z": 4.4085156208,
				"element": "H" 
			},
			{
				"x": -4.8696214461,
				"y": -0.4212822961,
				"z": 2.8246862718,
				"element": "H" 
			},
			{
				"x": -2.9182359247,
				"y": -1.2476916153,
				"z": 1.5431929701,
				"element": "H" 
			}
		],
		 "valence_orbital": [ 
			{
				"type": "occ",
				"energy": -0.24503,
				"method": "rhf"
			},
			{
				"type": "occ",
				"energy": -0.24372,
				"method": "rhf"
			},
			{
				"type": "occ",
				"energy": -0.22665,
				"method": "rhf"
			},
			{
				"type": "occ",
				"energy": -0.21343,
				"method": "rhf"
			},
			{
				"type": "occ",
				"energy": -0.2112,
				"method": "rhf"
			},
			{
				"type": "unocc",
				"energy": -0.04629,
				"method": "rhf"
			},
			{
				"type": "unocc",
				"energy": -0.02498,
				"method": "rhf"
			},
			{
				"type": "unocc",
				"energy": -0.01297,
				"method": "rhf"
			},
			{
				"type": "unocc",
				"energy": -0.01089,
				"method": "rhf"
			},
			{
				"type": "unocc",
				"energy": -0.00478,
				"method": "rhf"
			}
		],
		"cosmo_sigma_profile": { 
			"-0.025": 0.0,
			"-0.024": 0.0,
			"-0.023": 0.0,
			"-0.022": 0.0,
			"-0.021": 0.0,
			"-0.02": 0.0,
			"-0.019": 0.0,
			"-0.018": 0.387809805898,
			"-0.017": 0.97216827945,
			"-0.016": 1.06983871396,
			"-0.015": 1.17984421245,
			"-0.014": 0.860262858706,
			"-0.013": 0.98947474937,
			"-0.012": 0.728161201128,
			"-0.011": 1.29762805047,
			"-0.01": 1.28295313682,
			"-0.009": 4.72061404021,
			"-0.008": 8.10256719858,
			"-0.007": 9.21552094281,
			"-0.006": 21.6723341765,
			"-0.005": 31.612390575,
			"-0.004": 34.9300981099,
			"-0.003": 35.7797726244,
			"-0.002": 30.7429882532,
			"-0.001": 35.5190596815,
			"0.0": 29.720648231,
			"0.001": 26.5019243951,
			"0.002": 34.3276657914,
			"0.003": 39.8774435337,
			"0.004": 37.7946598202,
			"0.005": 37.6206462791,
			"0.006": 17.6339272233,
			"0.007": 7.27880913436,
			"0.008": 6.70465582121,
			"0.009": 5.30734171942,
			"0.01": 5.31565742441,
			"0.011": 3.77846800749,
			"0.012": 1.76342690429,
			"0.013": 0.0209793635288,
			"0.014": 0.0,
			"0.015": 0.0,
			"0.016": 0.0,
			"0.017": 0.0,
			"0.018": 0.0,
			"0.019": 0.0,
			"0.02": 0.0,
			"0.021": 0.0,
			"0.022": 0.0,
			"0.023": 0.0,
			"0.024": 0.0,
			"0.025": 0.0
		}
	}
}
