{
	 "smiles": "BrC1=CC=C(OC2CCCCNC2=O)C=C1", 
	 "Tm": 450.15, 
	 "num_atms": 30, 
	 "gaussian": { 
		 "optdone": 1, 
		 "sigma_profile": "yes", 
		 "theory": "DFT", 
		 "functional": "B3LYP", 
		 "basiset": "6-31G**", 
		 "properties": { 
			 "R2extent": 9546.913, 
			 "electric_dipole_moment_norm": 4.81406802715, 
			 "electric_quadrupole_moment_norm": 10.3520127313, 
			 "total_energy": -3242.33005778, 
			 "HOMO_LUMO_gap": 0.20616, 
			 "cosmo_polarized_energy": -11.8, 
			 "cosmo_cavitation_energy": 34.15, 
			 "cosmo_dispersion_energy": -25.16, 
			 "cosmo_repulsion_energy": 1.98, 
			 "cosmo_total_nonelectrostatic_energy": 10.96, 
			 "SMD_solvation_energy": 4.07 
		},
		"coords": [
			{
				"x": -0.3472878078,
				"y": 0.2720588202,
				"z": 6.7730975009,
				"element": "Br" 
			},
			{
				"x": -0.1073516337,
				"y": 0.6152227718,
				"z": 4.9060698573,
				"element": "C" 
			},
			{
				"x": 0.8724784533,
				"y": -0.0717400309,
				"z": 4.1976978945,
				"element": "C" 
			},
			{
				"x": 1.0529394468,
				"y": 0.1720753453,
				"z": 2.8327940888,
				"element": "C" 
			},
			{
				"x": 0.2430145164,
				"y": 1.1151943562,
				"z": 2.1893160048,
				"element": "C" 
			},
			{
				"x": 0.3283841691,
				"y": 1.4450618111,
				"z": 0.8598750301,
				"element": "O" 
			},
			{
				"x": 1.4181593679,
				"y": 0.9443187682,
				"z": 0.0775756252,
				"element": "C" 
			},
			{
				"x": 1.5367180061,
				"y": 1.8363698958,
				"z": -1.167715626,
				"element": "C" 
			},
			{
				"x": 0.2260220388,
				"y": 2.1078580264,
				"z": -1.9232782152,
				"element": "C" 
			},
			{
				"x": -0.4872703941,
				"y": 0.8767343627,
				"z": -2.5015642501,
				"element": "C" 
			},
			{
				"x": -0.9327981759,
				"y": -0.1497359592,
				"z": -1.4496798748,
				"element": "C" 
			},
			{
				"x": 0.1580576008,
				"y": -0.9651351728,
				"z": -0.9121644181,
				"element": "N" 
			},
			{
				"x": 1.2807279077,
				"y": -0.5545423016,
				"z": -0.2628803051,
				"element": "C" 
			},
			{
				"x": 2.1801346766,
				"y": -1.3352253525,
				"z": 0.0388941955,
				"element": "O" 
			},
			{
				"x": -0.743844853,
				"y": 1.8001777985,
				"z": 2.9118528453,
				"element": "C" 
			},
			{
				"x": -0.9222301095,
				"y": 1.5521177253,
				"z": 4.2681159948,
				"element": "C" 
			},
			{
				"x": 1.4960049202,
				"y": -0.8031820335,
				"z": 4.6992255258,
				"element": "H" 
			},
			{
				"x": 1.8028266107,
				"y": -0.3916024826,
				"z": 2.2902595364,
				"element": "H" 
			},
			{
				"x": 2.3480140756,
				"y": 1.0092643395,
				"z": 0.6518932307,
				"element": "H" 
			},
			{
				"x": 2.2797326192,
				"y": 1.3781826702,
				"z": -1.8329243769,
				"element": "H" 
			},
			{
				"x": 1.9543079827,
				"y": 2.7966625604,
				"z": -0.8449151103,
				"element": "H" 
			},
			{
				"x": 0.4476268336,
				"y": 2.8033831602,
				"z": -2.7414446044,
				"element": "H" 
			},
			{
				"x": -0.4607936731,
				"y": 2.6317273115,
				"z": -1.2491104776,
				"element": "H" 
			},
			{
				"x": 0.1508151956,
				"y": 0.3725338584,
				"z": -3.2391668247,
				"element": "H" 
			},
			{
				"x": -1.381122632,
				"y": 1.2175941188,
				"z": -3.0391750074,
				"element": "H" 
			},
			{
				"x": -1.4585722413,
				"y": 0.3564752082,
				"z": -0.6326924782,
				"element": "H" 
			},
			{
				"x": -1.6389160686,
				"y": -0.8520621283,
				"z": -1.9009304352,
				"element": "H" 
			},
			{
				"x": 0.1589746156,
				"y": -1.9567652726,
				"z": -1.1113642556,
				"element": "H" 
			},
			{
				"x": -1.3584618853,
				"y": 2.5298734711,
				"z": 2.3948329507,
				"element": "H" 
			},
			{
				"x": -1.6840895624,
				"y": 2.0843043543,
				"z": 4.8263059787,
				"element": "H" 
			}
		],
		 "valence_orbital": [ 
			{
				"type": "occ",
				"energy": -0.28076,
				"method": "rhf"
			},
			{
				"type": "occ",
				"energy": -0.2604,
				"method": "rhf"
			},
			{
				"type": "occ",
				"energy": -0.25611,
				"method": "rhf"
			},
			{
				"type": "occ",
				"energy": -0.25239,
				"method": "rhf"
			},
			{
				"type": "occ",
				"energy": -0.21845,
				"method": "rhf"
			},
			{
				"type": "unocc",
				"energy": -0.01229,
				"method": "rhf"
			},
			{
				"type": "unocc",
				"energy": 0.00127,
				"method": "rhf"
			},
			{
				"type": "unocc",
				"energy": 0.00828,
				"method": "rhf"
			},
			{
				"type": "unocc",
				"energy": 0.01395,
				"method": "rhf"
			},
			{
				"type": "unocc",
				"energy": 0.06301,
				"method": "rhf"
			}
		],
		"cosmo_sigma_profile": { 
			"-0.025": 0.0,
			"-0.024": 0.0,
			"-0.023": 0.0,
			"-0.022": 0.0,
			"-0.021": 0.0,
			"-0.02": 0.0,
			"-0.019": 0.0,
			"-0.018": 0.0,
			"-0.017": 0.0,
			"-0.016": 0.0,
			"-0.015": 0.0,
			"-0.014": 0.484457723359,
			"-0.013": 1.41799547523,
			"-0.012": 0.631906806723,
			"-0.011": 1.38755609757,
			"-0.01": 1.12930073997,
			"-0.009": 0.841134705683,
			"-0.008": 1.48141586867,
			"-0.007": 4.93355401048,
			"-0.006": 9.36032592223,
			"-0.005": 12.4503997027,
			"-0.004": 21.2414605983,
			"-0.003": 27.6394780687,
			"-0.002": 30.0346863855,
			"-0.001": 24.6184180965,
			"0.0": 19.6256912492,
			"0.001": 19.0719344994,
			"0.002": 19.4977414927,
			"0.003": 25.2194595411,
			"0.004": 19.8201693096,
			"0.005": 12.7032298394,
			"0.006": 3.0259403607,
			"0.007": 1.32660219162,
			"0.008": 1.15515633426,
			"0.009": 0.727493094177,
			"0.01": 1.2452917687,
			"0.011": 1.58076143331,
			"0.012": 1.16612668914,
			"0.013": 4.08346967389,
			"0.014": 4.18917006909,
			"0.015": 0.504465872009,
			"0.016": 0.0,
			"0.017": 0.0,
			"0.018": 0.0,
			"0.019": 0.0,
			"0.02": 0.0,
			"0.021": 0.0,
			"0.022": 0.0,
			"0.023": 0.0,
			"0.024": 0.0,
			"0.025": 0.0
		}
	}
}
