{
	 "smiles": "ClC1=C2C=CC=NC2=C(CBr)C=C1", 
	 "Tm": 368.15, 
	 "num_atms": 20, 
	 "gaussian": { 
		 "optdone": 1, 
		 "sigma_profile": "yes", 
		 "theory": "DFT", 
		 "functional": "B3LYP", 
		 "basiset": "6-31G**", 
		 "properties": { 
			 "R2extent": 4647.8605, 
			 "electric_dipole_moment_norm": 2.48316029688, 
			 "electric_quadrupole_moment_norm": 17.2962797581, 
			 "total_energy": -3471.6428863, 
			 "HOMO_LUMO_gap": 0.16287, 
			 "cosmo_polarized_energy": -8.17, 
			 "cosmo_cavitation_energy": 28.03, 
			 "cosmo_dispersion_energy": -21.02, 
			 "cosmo_repulsion_energy": 1.66, 
			 "cosmo_total_nonelectrostatic_energy": 8.67, 
			 "SMD_solvation_energy": 2.17 
		},
		"coords": [
			{
				"x": -0.7424429447,
				"y": 1.4391965177,
				"z": -2.7617773699,
				"element": "Cl" 
			},
			{
				"x": -0.2039918305,
				"y": 1.0825534748,
				"z": -1.1255478074,
				"element": "C" 
			},
			{
				"x": -0.5193747432,
				"y": -0.1721917862,
				"z": -0.5329278174,
				"element": "C" 
			},
			{
				"x": -1.258673475,
				"y": -1.1979636436,
				"z": -1.1753230272,
				"element": "C" 
			},
			{
				"x": -1.5013148978,
				"y": -2.3745171724,
				"z": -0.5080162971,
				"element": "C" 
			},
			{
				"x": -0.9949650831,
				"y": -2.5295390724,
				"z": 0.8044735922,
				"element": "C" 
			},
			{
				"x": -0.3046713095,
				"y": -1.6039671301,
				"z": 1.4380070712,
				"element": "N" 
			},
			{
				"x": -0.060608238,
				"y": -0.4236038573,
				"z": 0.803796005,
				"element": "C" 
			},
			{
				"x": 0.6850875548,
				"y": 0.5772793936,
				"z": 1.5059102636,
				"element": "C" 
			},
			{
				"x": 1.1519233498,
				"y": 0.3184311614,
				"z": 2.8980966951,
				"element": "C" 
			},
			{
				"x": -0.1719273574,
				"y": 0.973473526,
				"z": 4.2571476472,
				"element": "Br" 
			},
			{
				"x": 0.9602927497,
				"y": 1.7720405769,
				"z": 0.8695528694,
				"element": "C" 
			},
			{
				"x": 0.5218869067,
				"y": 2.0331660503,
				"z": -0.4457995103,
				"element": "C" 
			},
			{
				"x": -1.6224653844,
				"y": -1.0402898909,
				"z": -2.1844320007,
				"element": "H" 
			},
			{
				"x": -2.06492655,
				"y": -3.1777957186,
				"z": -0.9711189729,
				"element": "H" 
			},
			{
				"x": -1.1684376839,
				"y": -3.4587578739,
				"z": 1.345608864,
				"element": "H" 
			},
			{
				"x": 2.0670835338,
				"y": 0.8561627732,
				"z": 3.1368468853,
				"element": "H" 
			},
			{
				"x": 1.2430626586,
				"y": -0.7430794374,
				"z": 3.1062376042,
				"element": "H" 
			},
			{
				"x": 1.52047604,
				"y": 2.5407745115,
				"z": 1.394362204,
				"element": "H" 
			},
			{
				"x": 0.7524867043,
				"y": 2.9802275976,
				"z": -0.9201968983,
				"element": "H" 
			}
		],
		 "valence_orbital": [ 
			{
				"type": "occ",
				"energy": -0.2742,
				"method": "rhf"
			},
			{
				"type": "occ",
				"energy": -0.27068,
				"method": "rhf"
			},
			{
				"type": "occ",
				"energy": -0.26383,
				"method": "rhf"
			},
			{
				"type": "occ",
				"energy": -0.26333,
				"method": "rhf"
			},
			{
				"type": "occ",
				"energy": -0.23776,
				"method": "rhf"
			},
			{
				"type": "unocc",
				"energy": -0.07489,
				"method": "rhf"
			},
			{
				"type": "unocc",
				"energy": -0.03354,
				"method": "rhf"
			},
			{
				"type": "unocc",
				"energy": -0.01967,
				"method": "rhf"
			},
			{
				"type": "unocc",
				"energy": 0.0204,
				"method": "rhf"
			},
			{
				"type": "unocc",
				"energy": 0.03127,
				"method": "rhf"
			}
		],
		"cosmo_sigma_profile": { 
			"-0.025": 0.0,
			"-0.024": 0.0,
			"-0.023": 0.0,
			"-0.022": 0.0,
			"-0.021": 0.0,
			"-0.02": 0.0,
			"-0.019": 0.0,
			"-0.018": 0.0,
			"-0.017": 0.0,
			"-0.016": 0.0,
			"-0.015": 0.0,
			"-0.014": 0.0,
			"-0.013": 0.0,
			"-0.012": 0.0,
			"-0.011": 0.0,
			"-0.01": 0.0,
			"-0.009": 0.033215397284,
			"-0.008": 5.05176857812,
			"-0.007": 12.7582796425,
			"-0.006": 14.1028496383,
			"-0.005": 10.731280802,
			"-0.004": 10.9761251437,
			"-0.003": 11.1987341965,
			"-0.002": 12.5392718291,
			"-0.001": 14.9219734358,
			"0.0": 27.7181970121,
			"0.001": 28.7409752944,
			"0.002": 19.4092945782,
			"0.003": 14.7504283892,
			"0.004": 14.7807904901,
			"0.005": 8.91017270578,
			"0.006": 12.0828806535,
			"0.007": 7.65997917196,
			"0.008": 1.92287367747,
			"0.009": 0.989907271962,
			"0.01": 1.06499582169,
			"0.011": 0.75333806079,
			"0.012": 0.0435471496602,
			"0.013": 0.0,
			"0.014": 0.0,
			"0.015": 0.0,
			"0.016": 0.0,
			"0.017": 0.0,
			"0.018": 0.0,
			"0.019": 0.0,
			"0.02": 0.0,
			"0.021": 0.0,
			"0.022": 0.0,
			"0.023": 0.0,
			"0.024": 0.0,
			"0.025": 0.0
		}
	}
}
