{
	 "smiles": "NC(CCCN1CCCCC1)=NO", 
	 "Tm": 363.15, 
	 "num_atms": 32, 
	 "gaussian": { 
		 "optdone": 1, 
		 "sigma_profile": "yes", 
		 "theory": "DFT", 
		 "functional": "B3LYP", 
		 "basiset": "6-31G**", 
		 "properties": { 
			 "R2extent": 4258.8959, 
			 "electric_dipole_moment_norm": 1.53275146061, 
			 "electric_quadrupole_moment_norm": 8.27463192656, 
			 "total_energy": -593.844630914, 
			 "HOMO_LUMO_gap": 0.24359, 
			 "cosmo_polarized_energy": -12.39, 
			 "cosmo_cavitation_energy": 32.56, 
			 "cosmo_dispersion_energy": -23.51, 
			 "cosmo_repulsion_energy": 1.93, 
			 "cosmo_total_nonelectrostatic_energy": 10.99, 
			 "SMD_solvation_energy": 2.16 
		},
		"coords": [
			{
				"x": -3.5756084331,
				"y": 1.4416453856,
				"z": -1.3730436716,
				"element": "N" 
			},
			{
				"x": -3.1344833691,
				"y": 0.3615506396,
				"z": -2.1088359593,
				"element": "C" 
			},
			{
				"x": -2.7894806805,
				"y": -0.9059425367,
				"z": -1.3697808728,
				"element": "C" 
			},
			{
				"x": -1.6311171712,
				"y": -0.7555418266,
				"z": -0.3623872487,
				"element": "C" 
			},
			{
				"x": -0.2961834328,
				"y": -0.416830386,
				"z": -1.0368941369,
				"element": "C" 
			},
			{
				"x": 0.8373288167,
				"y": -0.4416807671,
				"z": -0.1085912005,
				"element": "N" 
			},
			{
				"x": 2.1134680681,
				"y": -0.5758297652,
				"z": -0.8173028192,
				"element": "C" 
			},
			{
				"x": 3.2761049979,
				"y": -0.7571639388,
				"z": 0.1636895205,
				"element": "C" 
			},
			{
				"x": 3.3377690122,
				"y": 0.4070298945,
				"z": 1.1607760152,
				"element": "C" 
			},
			{
				"x": 1.9712979989,
				"y": 0.5967215427,
				"z": 1.8310489073,
				"element": "C" 
			},
			{
				"x": 0.8600355747,
				"y": 0.7217709132,
				"z": 0.7831842673,
				"element": "C" 
			},
			{
				"x": -2.9385691863,
				"y": 0.3818760141,
				"z": -3.3843854188,
				"element": "N" 
			},
			{
				"x": -3.3196721528,
				"y": 1.6620423677,
				"z": -3.9016652662,
				"element": "O" 
			},
			{
				"x": -4.0691912953,
				"y": 1.235348836,
				"z": -0.5174116486,
				"element": "H" 
			},
			{
				"x": -3.9690883695,
				"y": 2.189477632,
				"z": -1.9279730034,
				"element": "H" 
			},
			{
				"x": -3.6839682397,
				"y": -1.2574373963,
				"z": -0.8361250255,
				"element": "H" 
			},
			{
				"x": -2.5462754682,
				"y": -1.6633129372,
				"z": -2.1205187477,
				"element": "H" 
			},
			{
				"x": -1.8934243157,
				"y": 0.0102201388,
				"z": 0.3763721711,
				"element": "H" 
			},
			{
				"x": -1.5119561208,
				"y": -1.6959978584,
				"z": 0.187342488,
				"element": "H" 
			},
			{
				"x": -0.3755234244,
				"y": 0.5523104282,
				"z": -1.5640577109,
				"element": "H" 
			},
			{
				"x": -0.1057028042,
				"y": -1.1705390544,
				"z": -1.8106187618,
				"element": "H" 
			},
			{
				"x": 2.3141324523,
				"y": 0.305805891,
				"z": -1.4620779103,
				"element": "H" 
			},
			{
				"x": 2.0470588067,
				"y": -1.444979998,
				"z": -1.4817422129,
				"element": "H" 
			},
			{
				"x": 3.1321054469,
				"y": -1.6996331698,
				"z": 0.7068265925,
				"element": "H" 
			},
			{
				"x": 4.2158331427,
				"y": -0.8423237951,
				"z": -0.3950153486,
				"element": "H" 
			},
			{
				"x": 3.6097748576,
				"y": 1.3281889158,
				"z": 0.6259942398,
				"element": "H" 
			},
			{
				"x": 4.1188140768,
				"y": 0.2358382892,
				"z": 1.910884809,
				"element": "H" 
			},
			{
				"x": 1.7528034419,
				"y": -0.2660008457,
				"z": 2.4729162853,
				"element": "H" 
			},
			{
				"x": 1.9711501228,
				"y": 1.4874697312,
				"z": 2.4706932301,
				"element": "H" 
			},
			{
				"x": 1.0008546321,
				"y": 1.6610028887,
				"z": 0.2073379224,
				"element": "H" 
			},
			{
				"x": -0.1085917595,
				"y": 0.8035107495,
				"z": 1.2855032388,
				"element": "H" 
			},
			{
				"x": -3.1904952252,
				"y": 1.5356040172,
				"z": -4.8488427234,
				"element": "H" 
			}
		],
		 "valence_orbital": [ 
			{
				"type": "occ",
				"energy": -0.30351,
				"method": "rhf"
			},
			{
				"type": "occ",
				"energy": -0.29684,
				"method": "rhf"
			},
			{
				"type": "occ",
				"energy": -0.26471,
				"method": "rhf"
			},
			{
				"type": "occ",
				"energy": -0.20983,
				"method": "rhf"
			},
			{
				"type": "occ",
				"energy": -0.20189,
				"method": "rhf"
			},
			{
				"type": "unocc",
				"energy": 0.0417,
				"method": "rhf"
			},
			{
				"type": "unocc",
				"energy": 0.07378,
				"method": "rhf"
			},
			{
				"type": "unocc",
				"energy": 0.09199,
				"method": "rhf"
			},
			{
				"type": "unocc",
				"energy": 0.09534,
				"method": "rhf"
			},
			{
				"type": "unocc",
				"energy": 0.11624,
				"method": "rhf"
			}
		],
		"cosmo_sigma_profile": { 
			"-0.025": 0.0,
			"-0.024": 0.0,
			"-0.023": 0.0,
			"-0.022": 0.0,
			"-0.021": 0.0,
			"-0.02": 0.0,
			"-0.019": 0.0,
			"-0.018": 0.0,
			"-0.017": 0.0558293336761,
			"-0.016": 0.687497700992,
			"-0.015": 1.2230381029,
			"-0.014": 0.328959954547,
			"-0.013": 1.53969804234,
			"-0.012": 2.44702499172,
			"-0.011": 2.37697888351,
			"-0.01": 3.86932513783,
			"-0.009": 2.58469850377,
			"-0.008": 2.40833979181,
			"-0.007": 2.70579440905,
			"-0.006": 3.35360670869,
			"-0.005": 4.68725300239,
			"-0.004": 9.14128690199,
			"-0.003": 17.9214436536,
			"-0.002": 27.6027766655,
			"-0.001": 40.5586084004,
			"0.0": 44.625579946,
			"0.001": 23.0546084155,
			"0.002": 7.78191253357,
			"0.003": 5.17344433163,
			"0.004": 5.10231572884,
			"0.005": 4.97406073482,
			"0.006": 6.12119391287,
			"0.007": 4.0498921305,
			"0.008": 5.58123093217,
			"0.009": 4.98943794646,
			"0.01": 4.67176031927,
			"0.011": 3.83278047223,
			"0.012": 2.10210895727,
			"0.013": 1.40448728677,
			"0.014": 1.18719756222,
			"0.015": 1.59445249635,
			"0.016": 0.65003743582,
			"0.017": 0.0,
			"0.018": 0.0,
			"0.019": 0.0,
			"0.02": 0.0,
			"0.021": 0.0,
			"0.022": 0.0,
			"0.023": 0.0,
			"0.024": 0.0,
			"0.025": 0.0
		}
	}
}
