{
	 "smiles": "CC1=CC=C(C=C1)N1CCC(N)C1=O", 
	 "Tm": 371.15, 
	 "num_atms": 28, 
	 "gaussian": { 
		 "optdone": 1, 
		 "sigma_profile": "yes", 
		 "theory": "DFT", 
		 "functional": "B3LYP", 
		 "basiset": "6-31G**", 
		 "properties": { 
			 "R2extent": 3625.9508, 
			 "electric_dipole_moment_norm": 2.81186831306, 
			 "electric_quadrupole_moment_norm": 5.35141056545, 
			 "total_energy": -612.35847787, 
			 "HOMO_LUMO_gap": 0.2013, 
			 "cosmo_polarized_energy": -12.43, 
			 "cosmo_cavitation_energy": 30.21, 
			 "cosmo_dispersion_energy": -22.38, 
			 "cosmo_repulsion_energy": 1.75, 
			 "cosmo_total_nonelectrostatic_energy": 9.59, 
			 "SMD_solvation_energy": 3.8 
		},
		"coords": [
			{
				"x": 3.1545699451,
				"y": 0.7958819109,
				"z": -3.1503958529,
				"element": "C" 
			},
			{
				"x": 2.077792484,
				"y": 0.4073010512,
				"z": -2.1652178551,
				"element": "C" 
			},
			{
				"x": 1.7703757037,
				"y": 1.2253091893,
				"z": -1.0682325487,
				"element": "C" 
			},
			{
				"x": 0.7950063381,
				"y": 0.8817146433,
				"z": -0.1382478935,
				"element": "C" 
			},
			{
				"x": 0.0774421598,
				"y": -0.3200804028,
				"z": -0.2863000436,
				"element": "C" 
			},
			{
				"x": 0.36929114,
				"y": -1.1452097272,
				"z": -1.3829733917,
				"element": "C" 
			},
			{
				"x": 1.3550135493,
				"y": -0.7805204371,
				"z": -2.3007248192,
				"element": "C" 
			},
			{
				"x": -0.917439474,
				"y": -0.7118692939,
				"z": 0.6439953108,
				"element": "N" 
			},
			{
				"x": -1.5194123251,
				"y": -2.0538060048,
				"z": 0.605285266,
				"element": "C" 
			},
			{
				"x": -2.2774920057,
				"y": -2.1624702434,
				"z": 1.9375238556,
				"element": "C" 
			},
			{
				"x": -2.660809361,
				"y": -0.7144546642,
				"z": 2.2482316415,
				"element": "C" 
			},
			{
				"x": -2.8885451611,
				"y": -0.4350385004,
				"z": 3.6565250674,
				"element": "N" 
			},
			{
				"x": -1.5240718648,
				"y": 0.0919130811,
				"z": 1.5928895327,
				"element": "C" 
			},
			{
				"x": -1.2415681683,
				"y": 1.2447120923,
				"z": 1.885737804,
				"element": "O" 
			},
			{
				"x": 3.0149878947,
				"y": 1.8200965099,
				"z": -3.5137813912,
				"element": "H" 
			},
			{
				"x": 3.1603498997,
				"y": 0.1307973688,
				"z": -4.0187270822,
				"element": "H" 
			},
			{
				"x": 4.1508731667,
				"y": 0.751176231,
				"z": -2.6935652134,
				"element": "H" 
			},
			{
				"x": 2.3100077492,
				"y": 2.1599434845,
				"z": -0.9328238095,
				"element": "H" 
			},
			{
				"x": 0.5706819673,
				"y": 1.5332821333,
				"z": 0.6940578334,
				"element": "H" 
			},
			{
				"x": -0.1740905157,
				"y": -2.0697032487,
				"z": -1.5405240908,
				"element": "H" 
			},
			{
				"x": 1.5578020601,
				"y": -1.4390301654,
				"z": -3.141806741,
				"element": "H" 
			},
			{
				"x": -0.7399658585,
				"y": -2.8141090374,
				"z": 0.5016741234,
				"element": "H" 
			},
			{
				"x": -2.197442898,
				"y": -2.1480663919,
				"z": -0.254409626,
				"element": "H" 
			},
			{
				"x": -3.1325542296,
				"y": -2.8390887488,
				"z": 1.8815469369,
				"element": "H" 
			},
			{
				"x": -1.6044418499,
				"y": -2.5343434339,
				"z": 2.7193820463,
				"element": "H" 
			},
			{
				"x": -3.5791999113,
				"y": -0.451094716,
				"z": 1.7021523402,
				"element": "H" 
			},
			{
				"x": -3.0285135711,
				"y": 0.5691758959,
				"z": 3.7590526469,
				"element": "H" 
			},
			{
				"x": -2.0355468636,
				"y": -0.6383185755,
				"z": 4.1762759535,
				"element": "H" 
			}
		],
		 "valence_orbital": [ 
			{
				"type": "occ",
				"energy": -0.28787,
				"method": "rhf"
			},
			{
				"type": "occ",
				"energy": -0.26799,
				"method": "rhf"
			},
			{
				"type": "occ",
				"energy": -0.24674,
				"method": "rhf"
			},
			{
				"type": "occ",
				"energy": -0.23222,
				"method": "rhf"
			},
			{
				"type": "occ",
				"energy": -0.21154,
				"method": "rhf"
			},
			{
				"type": "unocc",
				"energy": -0.01024,
				"method": "rhf"
			},
			{
				"type": "unocc",
				"energy": 0.00191,
				"method": "rhf"
			},
			{
				"type": "unocc",
				"energy": 0.04181,
				"method": "rhf"
			},
			{
				"type": "unocc",
				"energy": 0.08557,
				"method": "rhf"
			},
			{
				"type": "unocc",
				"energy": 0.09473,
				"method": "rhf"
			}
		],
		"cosmo_sigma_profile": { 
			"-0.025": 0.0,
			"-0.024": 0.0,
			"-0.023": 0.0,
			"-0.022": 0.0,
			"-0.021": 0.0,
			"-0.02": 0.0,
			"-0.019": 0.0,
			"-0.018": 0.0,
			"-0.017": 0.0,
			"-0.016": 0.0,
			"-0.015": 0.0,
			"-0.014": 0.0,
			"-0.013": 0.0,
			"-0.012": 0.0,
			"-0.011": 0.065343052716,
			"-0.01": 1.36004710425,
			"-0.009": 2.73708544467,
			"-0.008": 2.48896005859,
			"-0.007": 4.09670119801,
			"-0.006": 10.5988985852,
			"-0.005": 21.8377009627,
			"-0.004": 26.7742882105,
			"-0.003": 24.8994350482,
			"-0.002": 18.4115782893,
			"-0.001": 18.0737670985,
			"0.0": 15.804606712,
			"0.001": 12.3668170415,
			"0.002": 11.6993129105,
			"0.003": 10.6995331395,
			"0.004": 10.4140056066,
			"0.005": 11.2588083347,
			"0.006": 10.3669798827,
			"0.007": 2.78488473705,
			"0.008": 2.63926997594,
			"0.009": 2.08411968017,
			"0.01": 2.39515892556,
			"0.011": 2.51125015919,
			"0.012": 3.92839848495,
			"0.013": 3.94931495124,
			"0.014": 0.558118997714,
			"0.015": 0.451718609115,
			"0.016": 0.844527385882,
			"0.017": 0.744556179166,
			"0.018": 0.625145008788,
			"0.019": 0.312586231672,
			"0.02": 0.000713183394034,
			"0.021": 0.0,
			"0.022": 0.0,
			"0.023": 0.0,
			"0.024": 0.0,
			"0.025": 0.0
		}
	}
}
