{
	 "smiles": "CC1=C(SC2=C1C=CC=C2)C=O", 
	 "Tm": 362.65, 
	 "num_atms": 20, 
	 "gaussian": { 
		 "optdone": 1, 
		 "sigma_profile": "yes", 
		 "theory": "DFT", 
		 "functional": "B3LYP", 
		 "basiset": "6-31G**", 
		 "properties": { 
			 "R2extent": 2418.2194, 
			 "electric_dipole_moment_norm": 4.44791022504, 
			 "electric_quadrupole_moment_norm": 10.7437032591, 
			 "total_energy": -859.295893711, 
			 "HOMO_LUMO_gap": 0.15026, 
			 "cosmo_polarized_energy": -9.99, 
			 "cosmo_cavitation_energy": 25.47, 
			 "cosmo_dispersion_energy": -19.22, 
			 "cosmo_repulsion_energy": 1.46, 
			 "cosmo_total_nonelectrostatic_energy": 7.7, 
			 "SMD_solvation_energy": 4.9 
		},
		"coords": [
			{
				"x": -0.2769976109,
				"y": -0.9587526417,
				"z": -2.3918330818,
				"element": "C" 
			},
			{
				"x": -0.0499465605,
				"y": -0.608751594,
				"z": -0.9421686072,
				"element": "C" 
			},
			{
				"x": -1.0496602882,
				"y": -0.4947851318,
				"z": 0.0003035012,
				"element": "C" 
			},
			{
				"x": -0.467039576,
				"y": -0.0738341225,
				"z": 1.6073162724,
				"element": "S" 
			},
			{
				"x": 1.1767519867,
				"y": -0.0448207613,
				"z": 1.0151785279,
				"element": "C" 
			},
			{
				"x": 1.248963791,
				"y": -0.3509098017,
				"z": -0.3706478297,
				"element": "C" 
			},
			{
				"x": 2.5141174938,
				"y": -0.3667556737,
				"z": -0.9953859577,
				"element": "C" 
			},
			{
				"x": 3.650808662,
				"y": -0.0866440978,
				"z": -0.2544301068,
				"element": "C" 
			},
			{
				"x": 3.5579923892,
				"y": 0.2145291016,
				"z": 1.1186945981,
				"element": "C" 
			},
			{
				"x": 2.3274391706,
				"y": 0.2379341675,
				"z": 1.7617010564,
				"element": "C" 
			},
			{
				"x": -2.482858263,
				"y": -0.6799772954,
				"z": -0.1910412588,
				"element": "C" 
			},
			{
				"x": -3.3148496192,
				"y": -0.5622704564,
				"z": 0.6942855668,
				"element": "O" 
			},
			{
				"x": 0.6647694784,
				"y": -0.9903685311,
				"z": -2.9427336112,
				"element": "H" 
			},
			{
				"x": -0.7518716806,
				"y": -1.9392738172,
				"z": -2.499862489,
				"element": "H" 
			},
			{
				"x": -0.920912749,
				"y": -0.2248952374,
				"z": -2.8872417867,
				"element": "H" 
			},
			{
				"x": 2.5994920149,
				"y": -0.5973058849,
				"z": -2.0528582403,
				"element": "H" 
			},
			{
				"x": 4.6243856899,
				"y": -0.0987475051,
				"z": -0.7347823203,
				"element": "H" 
			},
			{
				"x": 4.460515089,
				"y": 0.4313587288,
				"z": 1.6823810883,
				"element": "H" 
			},
			{
				"x": 2.2577850129,
				"y": 0.4702018244,
				"z": 2.8198338642,
				"element": "H" 
			},
			{
				"x": -2.7846844309,
				"y": -0.9438312702,
				"z": -1.2261091858,
				"element": "H" 
			}
		],
		 "valence_orbital": [ 
			{
				"type": "occ",
				"energy": -0.32824,
				"method": "rhf"
			},
			{
				"type": "occ",
				"energy": -0.29008,
				"method": "rhf"
			},
			{
				"type": "occ",
				"energy": -0.25617,
				"method": "rhf"
			},
			{
				"type": "occ",
				"energy": -0.24492,
				"method": "rhf"
			},
			{
				"type": "occ",
				"energy": -0.226,
				"method": "rhf"
			},
			{
				"type": "unocc",
				"energy": -0.07574,
				"method": "rhf"
			},
			{
				"type": "unocc",
				"energy": -0.01288,
				"method": "rhf"
			},
			{
				"type": "unocc",
				"energy": 0.00863,
				"method": "rhf"
			},
			{
				"type": "unocc",
				"energy": 0.02188,
				"method": "rhf"
			},
			{
				"type": "unocc",
				"energy": 0.06997,
				"method": "rhf"
			}
		],
		"cosmo_sigma_profile": { 
			"-0.025": 0.0,
			"-0.024": 0.0,
			"-0.023": 0.0,
			"-0.022": 0.0,
			"-0.021": 0.0,
			"-0.02": 0.0,
			"-0.019": 0.0,
			"-0.018": 0.0,
			"-0.017": 0.0,
			"-0.016": 0.0,
			"-0.015": 0.0,
			"-0.014": 0.0,
			"-0.013": 0.0,
			"-0.012": 0.0,
			"-0.011": 0.0,
			"-0.01": 0.0,
			"-0.009": 0.0,
			"-0.008": 1.20616831765,
			"-0.007": 7.31598805127,
			"-0.006": 17.7732367426,
			"-0.005": 17.3775319436,
			"-0.004": 14.6173222927,
			"-0.003": 13.7469338621,
			"-0.002": 15.1766426887,
			"-0.001": 14.3206291586,
			"0.0": 11.0645420823,
			"0.001": 14.4999579,
			"0.002": 18.1236696965,
			"0.003": 17.5138422779,
			"0.004": 17.8641844595,
			"0.005": 6.98562432189,
			"0.006": 1.75404767926,
			"0.007": 1.84626529388,
			"0.008": 2.16627573558,
			"0.009": 1.90634715908,
			"0.01": 2.50059012445,
			"0.011": 4.09843046033,
			"0.012": 3.56323726925,
			"0.013": 1.1867637897,
			"0.014": 0.0247828171417,
			"0.015": 0.0,
			"0.016": 0.0,
			"0.017": 0.0,
			"0.018": 0.0,
			"0.019": 0.0,
			"0.02": 0.0,
			"0.021": 0.0,
			"0.022": 0.0,
			"0.023": 0.0,
			"0.024": 0.0,
			"0.025": 0.0
		}
	}
}
