{
	 "smiles": "SC1=NN=C(N1CC1=CC=CO1)C1=CNC2=C1C=CC=C2", 
	 "Tm": 290.15, 
	 "num_atms": 33, 
	 "gaussian": { 
		 "optdone": 1, 
		 "sigma_profile": "yes", 
		 "theory": "DFT", 
		 "functional": "B3LYP", 
		 "basiset": "6-31G**", 
		 "properties": { 
			 "R2extent": 7447.5173, 
			 "electric_dipole_moment_norm": 6.09774581792, 
			 "electric_quadrupole_moment_norm": 16.3490319194, 
			 "total_energy": -1271.19660894, 
			 "HOMO_LUMO_gap": 0.17762, 
			 "cosmo_polarized_energy": -22.78, 
			 "cosmo_cavitation_energy": 39.26, 
			 "cosmo_dispersion_energy": -28.22, 
			 "cosmo_repulsion_energy": 2.09, 
			 "cosmo_total_nonelectrostatic_energy": 13.13, 
			 "SMD_solvation_energy": 5.02 
		},
		"coords": [
			{
				"x": -2.1638270472,
				"y": -1.5967754827,
				"z": -2.7062082698,
				"element": "S" 
			},
			{
				"x": -0.775853149,
				"y": -1.3651879488,
				"z": -1.6346940896,
				"element": "C" 
			},
			{
				"x": 0.3536779681,
				"y": -2.0265450534,
				"z": -1.6805632605,
				"element": "N" 
			},
			{
				"x": 1.1528516172,
				"y": -1.5304103786,
				"z": -0.6708172477,
				"element": "N" 
			},
			{
				"x": 0.4837899081,
				"y": -0.5884157265,
				"z": -0.0352259503,
				"element": "C" 
			},
			{
				"x": -0.7684737089,
				"y": -0.4341453947,
				"z": -0.6212587527,
				"element": "N" 
			},
			{
				"x": -1.7667698164,
				"y": 0.5946172067,
				"z": -0.3757485732,
				"element": "C" 
			},
			{
				"x": -2.8469357459,
				"y": 0.1402138548,
				"z": 0.5606197687,
				"element": "C" 
			},
			{
				"x": -3.0531787249,
				"y": -0.9857763699,
				"z": 1.3013539642,
				"element": "C" 
			},
			{
				"x": -4.2983082541,
				"y": -0.7883230258,
				"z": 1.9904021611,
				"element": "C" 
			},
			{
				"x": -4.7497946031,
				"y": 0.4380825783,
				"z": 1.6173292592,
				"element": "C" 
			},
			{
				"x": -3.8742792098,
				"y": 1.0218433465,
				"z": 0.7434149201,
				"element": "O" 
			},
			{
				"x": 0.9966751853,
				"y": 0.1784015518,
				"z": 1.0861636364,
				"element": "C" 
			},
			{
				"x": 0.289521422,
				"y": 0.7861862663,
				"z": 2.1057923855,
				"element": "C" 
			},
			{
				"x": 1.16525046,
				"y": 1.3980487322,
				"z": 2.9723468856,
				"element": "N" 
			},
			{
				"x": 2.4644610107,
				"y": 1.1933780149,
				"z": 2.5425886886,
				"element": "C" 
			},
			{
				"x": 2.3994705162,
				"y": 0.4198920169,
				"z": 1.3557443124,
				"element": "C" 
			},
			{
				"x": 3.5914465177,
				"y": 0.0602184391,
				"z": 0.7046813123,
				"element": "C" 
			},
			{
				"x": 4.7980463001,
				"y": 0.482941129,
				"z": 1.2476377898,
				"element": "C" 
			},
			{
				"x": 4.8413848382,
				"y": 1.2551989161,
				"z": 2.4272315802,
				"element": "C" 
			},
			{
				"x": 3.677478053,
				"y": 1.6216867901,
				"z": 3.0924098906,
				"element": "C" 
			},
			{
				"x": -1.4381236258,
				"y": -2.280735219,
				"z": -3.6104831386,
				"element": "H" 
			},
			{
				"x": -2.2028015099,
				"y": 0.8910793134,
				"z": -1.3369329062,
				"element": "H" 
			},
			{
				"x": -1.2479732713,
				"y": 1.47304063,
				"z": 0.0240540374,
				"element": "H" 
			},
			{
				"x": -2.4080695403,
				"y": -1.8509689577,
				"z": 1.34466587,
				"element": "H" 
			},
			{
				"x": -4.7850659338,
				"y": -1.4758844129,
				"z": 2.6667501742,
				"element": "H" 
			},
			{
				"x": -5.6256847539,
				"y": 1.0189557304,
				"z": 1.8604186986,
				"element": "H" 
			},
			{
				"x": -0.7721314724,
				"y": 0.7892893652,
				"z": 2.3054227996,
				"element": "H" 
			},
			{
				"x": 0.89696054,
				"y": 1.8939398899,
				"z": 3.8066106332,
				"element": "H" 
			},
			{
				"x": 3.5507792208,
				"y": -0.550020252,
				"z": -0.1905377702,
				"element": "H" 
			},
			{
				"x": 5.7289597544,
				"y": 0.2111010615,
				"z": 0.7589005526,
				"element": "H" 
			},
			{
				"x": 5.8023746972,
				"y": 1.5668396317,
				"z": 2.826014518,
				"element": "H" 
			},
			{
				"x": 3.7093423576,
				"y": 2.2144337569,
				"z": 4.0022161202,
				"element": "H" 
			}
		],
		 "valence_orbital": [ 
			{
				"type": "occ",
				"energy": -0.24975,
				"method": "rhf"
			},
			{
				"type": "occ",
				"energy": -0.2373,
				"method": "rhf"
			},
			{
				"type": "occ",
				"energy": -0.23531,
				"method": "rhf"
			},
			{
				"type": "occ",
				"energy": -0.22542,
				"method": "rhf"
			},
			{
				"type": "occ",
				"energy": -0.19818,
				"method": "rhf"
			},
			{
				"type": "unocc",
				"energy": -0.02056,
				"method": "rhf"
			},
			{
				"type": "unocc",
				"energy": -0.00351,
				"method": "rhf"
			},
			{
				"type": "unocc",
				"energy": 0.0081,
				"method": "rhf"
			},
			{
				"type": "unocc",
				"energy": 0.01033,
				"method": "rhf"
			},
			{
				"type": "unocc",
				"energy": 0.02679,
				"method": "rhf"
			}
		],
		"cosmo_sigma_profile": { 
			"-0.025": 0.0,
			"-0.024": 0.0,
			"-0.023": 0.0,
			"-0.022": 0.0,
			"-0.021": 0.0,
			"-0.02": 0.0,
			"-0.019": 0.0,
			"-0.018": 0.0,
			"-0.017": 0.0916440533117,
			"-0.016": 1.59783654785,
			"-0.015": 1.78413625678,
			"-0.014": 1.31518123739,
			"-0.013": 1.00456119642,
			"-0.012": 2.28946593871,
			"-0.011": 3.45779550837,
			"-0.01": 2.71997231095,
			"-0.009": 3.92007209987,
			"-0.008": 7.43078737786,
			"-0.007": 12.5085724468,
			"-0.006": 16.1445411123,
			"-0.005": 17.9405631196,
			"-0.004": 19.9453452632,
			"-0.003": 19.5249617516,
			"-0.002": 19.2828525693,
			"-0.001": 17.2049686642,
			"0.0": 17.4459830956,
			"0.001": 18.7287676592,
			"0.002": 21.4019828814,
			"0.003": 26.06345679,
			"0.004": 20.546767172,
			"0.005": 21.3023269172,
			"0.006": 15.5102947249,
			"0.007": 6.4603112397,
			"0.008": 3.54789622765,
			"0.009": 2.46589673827,
			"0.01": 1.82764796931,
			"0.011": 2.74780213038,
			"0.012": 2.28872682153,
			"0.013": 2.74856383423,
			"0.014": 3.50615688167,
			"0.015": 2.28506056344,
			"0.016": 1.30138591199,
			"0.017": 0.262067916222,
			"0.018": 0.0,
			"0.019": 0.0,
			"0.02": 0.0,
			"0.021": 0.0,
			"0.022": 0.0,
			"0.023": 0.0,
			"0.024": 0.0,
			"0.025": 0.0
		}
	}
}
