{
	 "smiles": "CN1C(=O)C(C2=NNC(=O)C2=N/NC2=CC=CC=C2)=C(O)C2=CC=CC=C12", 
	 "Tm": 486.15, 
	 "num_atms": 42, 
	 "gaussian": { 
		 "optdone": 1, 
		 "sigma_profile": "yes", 
		 "theory": "DFT", 
		 "functional": "B3LYP", 
		 "basiset": "6-31G**", 
		 "properties": { 
			 "R2extent": 12092.8524, 
			 "electric_dipole_moment_norm": 5.61821751359, 
			 "electric_quadrupole_moment_norm": 22.8586102611, 
			 "total_energy": -1232.46301048, 
			 "HOMO_LUMO_gap": 0.1258, 
			 "cosmo_polarized_energy": -27.55, 
			 "cosmo_cavitation_energy": 47.12, 
			 "cosmo_dispersion_energy": -33.4, 
			 "cosmo_repulsion_energy": 2.49, 
			 "cosmo_total_nonelectrostatic_energy": 16.21, 
			 "SMD_solvation_energy": 7.5 
		},
		"coords": [
			{
				"x": 1.61413501,
				"y": 3.6106720189,
				"z": 0.2589487827,
				"element": "C" 
			},
			{
				"x": 2.007567731,
				"y": 2.205422545,
				"z": 0.3535469772,
				"element": "N" 
			},
			{
				"x": 1.3776408147,
				"y": 1.4367262032,
				"z": 1.3603946024,
				"element": "C" 
			},
			{
				"x": 0.5551959186,
				"y": 1.9513244316,
				"z": 2.1137081436,
				"element": "O" 
			},
			{
				"x": 1.7489064465,
				"y": 0.0247574125,
				"z": 1.4307820822,
				"element": "C" 
			},
			{
				"x": 1.0458574019,
				"y": -0.7968212493,
				"z": 2.4323900194,
				"element": "C" 
			},
			{
				"x": 1.6868735799,
				"y": -1.4288114779,
				"z": 3.3825106201,
				"element": "N" 
			},
			{
				"x": 0.7341765355,
				"y": -2.1102258602,
				"z": 4.1257754307,
				"element": "N" 
			},
			{
				"x": -0.5523646101,
				"y": -1.932134823,
				"z": 3.6897114578,
				"element": "C" 
			},
			{
				"x": -1.5985660112,
				"y": -2.4104148547,
				"z": 4.1535226389,
				"element": "O" 
			},
			{
				"x": -0.3810217483,
				"y": -1.0472503926,
				"z": 2.5226465821,
				"element": "C" 
			},
			{
				"x": -1.3244298715,
				"y": -0.6177113229,
				"z": 1.7197456391,
				"element": "N" 
			},
			{
				"x": -2.5547118915,
				"y": -0.9886169855,
				"z": 1.993111804,
				"element": "N" 
			},
			{
				"x": -3.6384301515,
				"y": -0.5821877123,
				"z": 1.2029447795,
				"element": "C" 
			},
			{
				"x": -4.9123759758,
				"y": -1.064167263,
				"z": 1.535380388,
				"element": "C" 
			},
			{
				"x": -6.0152984687,
				"y": -0.6831583626,
				"z": 0.7744261862,
				"element": "C" 
			},
			{
				"x": -5.8589657787,
				"y": 0.174226224,
				"z": -0.3163808531,
				"element": "C" 
			},
			{
				"x": -4.5846873657,
				"y": 0.6512243792,
				"z": -0.6389308343,
				"element": "C" 
			},
			{
				"x": -3.4719987048,
				"y": 0.2820392812,
				"z": 0.1114382009,
				"element": "C" 
			},
			{
				"x": 2.6920147758,
				"y": -0.5001072591,
				"z": 0.5912129082,
				"element": "C" 
			},
			{
				"x": 2.9809180902,
				"y": -1.8207629334,
				"z": 0.6725992292,
				"element": "O" 
			},
			{
				"x": 3.3746263053,
				"y": 0.3352805005,
				"z": -0.3780397661,
				"element": "C" 
			},
			{
				"x": 4.4058293217,
				"y": -0.1487543882,
				"z": -1.2045216935,
				"element": "C" 
			},
			{
				"x": 5.0231805041,
				"y": 0.6608865827,
				"z": -2.145062118,
				"element": "C" 
			},
			{
				"x": 4.6141186847,
				"y": 1.9942599888,
				"z": -2.2673131555,
				"element": "C" 
			},
			{
				"x": 3.6168081607,
				"y": 2.509380866,
				"z": -1.4510054715,
				"element": "C" 
			},
			{
				"x": 2.9849220303,
				"y": 1.6977772242,
				"z": -0.4857573716,
				"element": "C" 
			},
			{
				"x": 0.8510408389,
				"y": 3.7764618998,
				"z": 1.0161849259,
				"element": "H" 
			},
			{
				"x": 2.4684688278,
				"y": 4.2677161277,
				"z": 0.4506462456,
				"element": "H" 
			},
			{
				"x": 1.2054115822,
				"y": 3.8316910536,
				"z": -0.7320881715,
				"element": "H" 
			},
			{
				"x": 1.0276081839,
				"y": -2.6429581642,
				"z": 4.9294274611,
				"element": "H" 
			},
			{
				"x": -2.7028683312,
				"y": -1.5888408114,
				"z": 2.8152639266,
				"element": "H" 
			},
			{
				"x": -5.0323180725,
				"y": -1.7327969706,
				"z": 2.383741636,
				"element": "H" 
			},
			{
				"x": -6.9994791988,
				"y": -1.0597733323,
				"z": 1.0369724572,
				"element": "H" 
			},
			{
				"x": -6.7199601481,
				"y": 0.4697098238,
				"z": -0.9078758712,
				"element": "H" 
			},
			{
				"x": -4.4551726065,
				"y": 1.3219790286,
				"z": -1.483529469,
				"element": "H" 
			},
			{
				"x": -2.4813552442,
				"y": 0.6515360692,
				"z": -0.1239012057,
				"element": "H" 
			},
			{
				"x": 3.4612510238,
				"y": -2.0992233877,
				"z": -0.1172019678,
				"element": "H" 
			},
			{
				"x": 4.7584125961,
				"y": -1.171448884,
				"z": -1.0936548674,
				"element": "H" 
			},
			{
				"x": 5.8178951659,
				"y": 0.267055315,
				"z": -2.7697043477,
				"element": "H" 
			},
			{
				"x": 5.0853068634,
				"y": 2.6420038718,
				"z": -3.0005649052,
				"element": "H" 
			},
			{
				"x": 3.3292377862,
				"y": 3.5470355878,
				"z": -1.5578010555,
				"element": "H" 
			}
		],
		 "valence_orbital": [ 
			{
				"type": "occ",
				"energy": -0.25201,
				"method": "rhf"
			},
			{
				"type": "occ",
				"energy": -0.24097,
				"method": "rhf"
			},
			{
				"type": "occ",
				"energy": -0.23239,
				"method": "rhf"
			},
			{
				"type": "occ",
				"energy": -0.21677,
				"method": "rhf"
			},
			{
				"type": "occ",
				"energy": -0.20226,
				"method": "rhf"
			},
			{
				"type": "unocc",
				"energy": -0.07646,
				"method": "rhf"
			},
			{
				"type": "unocc",
				"energy": -0.0549,
				"method": "rhf"
			},
			{
				"type": "unocc",
				"energy": -0.01523,
				"method": "rhf"
			},
			{
				"type": "unocc",
				"energy": -0.00419,
				"method": "rhf"
			},
			{
				"type": "unocc",
				"energy": 0.01699,
				"method": "rhf"
			}
		],
		"cosmo_sigma_profile": { 
			"-0.025": 0.0,
			"-0.024": 0.0,
			"-0.023": 0.0,
			"-0.022": 0.0,
			"-0.021": 0.0,
			"-0.02": 0.00605865074567,
			"-0.019": 0.728953126777,
			"-0.018": 0.665166419931,
			"-0.017": 1.05231191369,
			"-0.016": 2.34107520941,
			"-0.015": 2.23448299541,
			"-0.014": 1.52561817166,
			"-0.013": 1.57661276895,
			"-0.012": 2.37991721669,
			"-0.011": 3.26487968406,
			"-0.01": 2.78025826772,
			"-0.009": 2.95009739664,
			"-0.008": 2.72672813004,
			"-0.007": 9.86317152849,
			"-0.006": 24.0069845447,
			"-0.005": 24.2712804834,
			"-0.004": 25.7002573267,
			"-0.003": 21.9470619603,
			"-0.002": 26.2011823219,
			"-0.001": 25.8613954802,
			"0.0": 25.791849948,
			"0.001": 27.4109197191,
			"0.002": 25.1591756767,
			"0.003": 24.9621947896,
			"0.004": 24.2524186392,
			"0.005": 14.0359273649,
			"0.006": 6.89656000718,
			"0.007": 5.51223374347,
			"0.008": 5.65496525576,
			"0.009": 5.17631327454,
			"0.01": 5.87816166378,
			"0.011": 6.68884008803,
			"0.012": 6.84114964243,
			"0.013": 7.78367469187,
			"0.014": 4.52476888521,
			"0.015": 0.354531208825,
			"0.016": 0.0,
			"0.017": 0.0,
			"0.018": 0.0,
			"0.019": 0.0,
			"0.02": 0.0,
			"0.021": 0.0,
			"0.022": 0.0,
			"0.023": 0.0,
			"0.024": 0.0,
			"0.025": 0.0
		}
	}
}
