{
	 "smiles": "C1CCC(NC1)C1=NC2=C(S1)C=CC=C2", 
	 "Tm": 474.15, 
	 "num_atms": 29, 
	 "gaussian": { 
		 "optdone": 1, 
		 "sigma_profile": "yes", 
		 "theory": "DFT", 
		 "functional": "B3LYP", 
		 "basiset": "6-31G**", 
		 "properties": { 
			 "R2extent": 4385.233, 
			 "electric_dipole_moment_norm": 1.04232507885, 
			 "electric_quadrupole_moment_norm": 5.72465928418, 
			 "total_energy": -973.418979411, 
			 "HOMO_LUMO_gap": 0.18978, 
			 "cosmo_polarized_energy": -6.84, 
			 "cosmo_cavitation_energy": 31.57, 
			 "cosmo_dispersion_energy": -23.97, 
			 "cosmo_repulsion_energy": 1.82, 
			 "cosmo_total_nonelectrostatic_energy": 9.43, 
			 "SMD_solvation_energy": 0.65 
		},
		"coords": [
			{
				"x": 2.2996639348,
				"y": -2.1793867996,
				"z": -2.4030843292,
				"element": "C" 
			},
			{
				"x": 2.3455123087,
				"y": -1.881127597,
				"z": -0.8979199242,
				"element": "C" 
			},
			{
				"x": 2.9743551246,
				"y": -0.5033654155,
				"z": -0.6481385799,
				"element": "C" 
			},
			{
				"x": 2.2789528773,
				"y": 0.6059565778,
				"z": -1.4629469099,
				"element": "C" 
			},
			{
				"x": 2.2450594451,
				"y": 0.2347077482,
				"z": -2.8756308498,
				"element": "N" 
			},
			{
				"x": 1.5813805314,
				"y": -1.0502244283,
				"z": -3.145809735,
				"element": "C" 
			},
			{
				"x": 0.908305719,
				"y": 1.0048425068,
				"z": -0.916261377,
				"element": "C" 
			},
			{
				"x": -0.0848554657,
				"y": 1.342899589,
				"z": -1.6719462679,
				"element": "N" 
			},
			{
				"x": -1.1844595166,
				"y": 1.7531215435,
				"z": -0.9313004224,
				"element": "C" 
			},
			{
				"x": -1.008880734,
				"y": 1.7312877854,
				"z": 0.4732580674,
				"element": "C" 
			},
			{
				"x": 0.6067335476,
				"y": 1.1594865032,
				"z": 0.8410854666,
				"element": "S" 
			},
			{
				"x": -2.0334617833,
				"y": 2.1177479965,
				"z": 1.3409600987,
				"element": "C" 
			},
			{
				"x": -3.2419725079,
				"y": 2.5318874616,
				"z": 0.7857209749,
				"element": "C" 
			},
			{
				"x": -3.4279612921,
				"y": 2.5587809293,
				"z": -0.6072824721,
				"element": "C" 
			},
			{
				"x": -2.4092308635,
				"y": 2.1720716277,
				"z": -1.4702506148,
				"element": "C" 
			},
			{
				"x": 1.7902437686,
				"y": -3.1309829913,
				"z": -2.5940062662,
				"element": "H" 
			},
			{
				"x": 3.3221827149,
				"y": -2.2697008698,
				"z": -2.7911662789,
				"element": "H" 
			},
			{
				"x": 1.3261502248,
				"y": -1.9018657309,
				"z": -0.4892490363,
				"element": "H" 
			},
			{
				"x": 2.9131134126,
				"y": -2.6522837818,
				"z": -0.3645283122,
				"element": "H" 
			},
			{
				"x": 2.9637462825,
				"y": -0.2534745981,
				"z": 0.4190695706,
				"element": "H" 
			},
			{
				"x": 4.0246415963,
				"y": -0.520935154,
				"z": -0.9602177799,
				"element": "H" 
			},
			{
				"x": 2.8984848895,
				"y": 1.5116764929,
				"z": -1.3819470311,
				"element": "H" 
			},
			{
				"x": 1.7612015535,
				"y": 0.9677013186,
				"z": -3.3875145048,
				"element": "H" 
			},
			{
				"x": 0.5166698144,
				"y": -1.0440080735,
				"z": -2.8578845838,
				"element": "H" 
			},
			{
				"x": 1.6225335284,
				"y": -1.2198880029,
				"z": -4.2274525852,
				"element": "H" 
			},
			{
				"x": -1.8950828371,
				"y": 2.0980146488,
				"z": 2.4172200678,
				"element": "H" 
			},
			{
				"x": -4.0516999015,
				"y": 2.838181838,
				"z": 1.4413292153,
				"element": "H" 
			},
			{
				"x": -4.3806484544,
				"y": 2.8859884105,
				"z": -1.0127140276,
				"element": "H" 
			},
			{
				"x": -2.5377779179,
				"y": 2.1867904651,
				"z": -2.547591573,
				"element": "H" 
			}
		],
		 "valence_orbital": [ 
			{
				"type": "occ",
				"energy": -0.30102,
				"method": "rhf"
			},
			{
				"type": "occ",
				"energy": -0.27521,
				"method": "rhf"
			},
			{
				"type": "occ",
				"energy": -0.23653,
				"method": "rhf"
			},
			{
				"type": "occ",
				"energy": -0.23434,
				"method": "rhf"
			},
			{
				"type": "occ",
				"energy": -0.22255,
				"method": "rhf"
			},
			{
				"type": "unocc",
				"energy": -0.03277,
				"method": "rhf"
			},
			{
				"type": "unocc",
				"energy": -0.00559,
				"method": "rhf"
			},
			{
				"type": "unocc",
				"energy": 0.01306,
				"method": "rhf"
			},
			{
				"type": "unocc",
				"energy": 0.03367,
				"method": "rhf"
			},
			{
				"type": "unocc",
				"energy": 0.0863,
				"method": "rhf"
			}
		],
		"cosmo_sigma_profile": { 
			"-0.025": 0.0,
			"-0.024": 0.0,
			"-0.023": 0.0,
			"-0.022": 0.0,
			"-0.021": 0.0,
			"-0.02": 0.0,
			"-0.019": 0.0,
			"-0.018": 0.0,
			"-0.017": 0.0,
			"-0.016": 0.0,
			"-0.015": 0.0,
			"-0.014": 0.0,
			"-0.013": 0.0,
			"-0.012": 0.0,
			"-0.011": 0.0,
			"-0.01": 0.0,
			"-0.009": 0.334196144632,
			"-0.008": 0.913272511551,
			"-0.007": 3.46506409328,
			"-0.006": 9.55491084671,
			"-0.005": 13.9633317908,
			"-0.004": 15.7194670314,
			"-0.003": 20.7873398124,
			"-0.002": 26.0041833317,
			"-0.001": 31.6295211412,
			"0.0": 30.7303275375,
			"0.001": 21.3499796156,
			"0.002": 16.1780151521,
			"0.003": 17.7833863989,
			"0.004": 17.6284927797,
			"0.005": 10.5282492199,
			"0.006": 2.81272782957,
			"0.007": 1.57791239111,
			"0.008": 1.80540180046,
			"0.009": 2.43010535329,
			"0.01": 1.33191120066,
			"0.011": 1.46420352158,
			"0.012": 0.803946264789,
			"0.013": 0.263284077764,
			"0.014": 0.0772824016184,
			"0.015": 0.801340933838,
			"0.016": 0.783631567733,
			"0.017": 0.208206250409,
			"0.018": 0.219222958846,
			"0.019": 0.0,
			"0.02": 0.0,
			"0.021": 0.0,
			"0.022": 0.0,
			"0.023": 0.0,
			"0.024": 0.0,
			"0.025": 0.0
		}
	}
}
