{
	 "smiles": "CCOC(=O)C1=C(C)NC(C(=O)CCl)=C1C", 
	 "Tm": 462.15, 
	 "num_atms": 30, 
	 "gaussian": { 
		 "optdone": 1, 
		 "sigma_profile": "yes", 
		 "theory": "DFT", 
		 "functional": "B3LYP", 
		 "basiset": "6-31G**", 
		 "properties": { 
			 "R2extent": 6637.1576, 
			 "electric_dipole_moment_norm": 4.06908504826, 
			 "electric_quadrupole_moment_norm": 34.8953719357, 
			 "total_energy": -1168.25188391, 
			 "HOMO_LUMO_gap": 0.18176, 
			 "cosmo_polarized_energy": -20.56, 
			 "cosmo_cavitation_energy": 35.51, 
			 "cosmo_dispersion_energy": -25.27, 
			 "cosmo_repulsion_energy": 2.0, 
			 "cosmo_total_nonelectrostatic_energy": 12.24, 
			 "SMD_solvation_energy": 7.12 
		},
		"coords": [
			{
				"x": -1.4784870233,
				"y": 4.0881750733,
				"z": 1.5547894553,
				"element": "C" 
			},
			{
				"x": -1.1774397745,
				"y": 2.9886208634,
				"z": 2.5624884886,
				"element": "C" 
			},
			{
				"x": -0.3028388546,
				"y": 1.9819066409,
				"z": 2.0010946692,
				"element": "O" 
			},
			{
				"x": -0.8973067068,
				"y": 0.9965998794,
				"z": 1.2866562547,
				"element": "C" 
			},
			{
				"x": -2.1048787721,
				"y": 0.9322334455,
				"z": 1.112563413,
				"element": "O" 
			},
			{
				"x": 0.0630540658,
				"y": 0.0225629504,
				"z": 0.7542361328,
				"element": "C" 
			},
			{
				"x": -0.3532203529,
				"y": -1.0728385576,
				"z": -0.0164214866,
				"element": "C" 
			},
			{
				"x": -1.7145098314,
				"y": -1.5031787291,
				"z": -0.4543483769,
				"element": "C" 
			},
			{
				"x": 0.7580772944,
				"y": -1.7687897899,
				"z": -0.3490391273,
				"element": "N" 
			},
			{
				"x": 1.9056297017,
				"y": -1.1659417917,
				"z": 0.1799710633,
				"element": "C" 
			},
			{
				"x": 3.2461754855,
				"y": -1.7100609995,
				"z": -0.0272024716,
				"element": "C" 
			},
			{
				"x": 4.2593442284,
				"y": -1.201149121,
				"z": 0.4245734063,
				"element": "O" 
			},
			{
				"x": 3.3085944811,
				"y": -3.0006414857,
				"z": -0.8735714201,
				"element": "C" 
			},
			{
				"x": 4.971146196,
				"y": -3.6181262284,
				"z": -1.0948115623,
				"element": "Cl" 
			},
			{
				"x": 1.486819604,
				"y": -0.032430042,
				"z": 0.8804877289,
				"element": "C" 
			},
			{
				"x": 2.3740434406,
				"y": 0.9269208361,
				"z": 1.6151937003,
				"element": "C" 
			},
			{
				"x": -2.075560759,
				"y": 4.8740464508,
				"z": 2.0295325496,
				"element": "H" 
			},
			{
				"x": -2.045737829,
				"y": 3.6890424695,
				"z": 0.7106139948,
				"element": "H" 
			},
			{
				"x": -0.5539956275,
				"y": 4.5382164095,
				"z": 1.1809709992,
				"element": "H" 
			},
			{
				"x": -0.6262461078,
				"y": 3.3751475864,
				"z": 3.4231725405,
				"element": "H" 
			},
			{
				"x": -2.0961638215,
				"y": 2.5070412334,
				"z": 2.9051448384,
				"element": "H" 
			},
			{
				"x": -1.6614281022,
				"y": -2.4114429526,
				"z": -1.0633609758,
				"element": "H" 
			},
			{
				"x": -2.3593458171,
				"y": -1.691206647,
				"z": 0.408309269,
				"element": "H" 
			},
			{
				"x": -2.2036477986,
				"y": -0.7150356376,
				"z": -1.0327406318,
				"element": "H" 
			},
			{
				"x": 0.7380857568,
				"y": -2.6095671977,
				"z": -0.9047672414,
				"element": "H" 
			},
			{
				"x": 2.7268867249,
				"y": -3.7934091312,
				"z": -0.3932401842,
				"element": "H" 
			},
			{
				"x": 2.8928891777,
				"y": -2.8174001105,
				"z": -1.8691460032,
				"element": "H" 
			},
			{
				"x": 2.2550400405,
				"y": 1.9402067141,
				"z": 1.2193047028,
				"element": "H" 
			},
			{
				"x": 2.0936012528,
				"y": 0.9765822222,
				"z": 2.671965858,
				"element": "H" 
			},
			{
				"x": 3.4155197279,
				"y": 0.6229156469,
				"z": 1.5298804166,
				"element": "H" 
			}
		],
		 "valence_orbital": [ 
			{
				"type": "occ",
				"energy": -0.29632,
				"method": "rhf"
			},
			{
				"type": "occ",
				"energy": -0.27242,
				"method": "rhf"
			},
			{
				"type": "occ",
				"energy": -0.26124,
				"method": "rhf"
			},
			{
				"type": "occ",
				"energy": -0.25724,
				"method": "rhf"
			},
			{
				"type": "occ",
				"energy": -0.23184,
				"method": "rhf"
			},
			{
				"type": "unocc",
				"energy": -0.05008,
				"method": "rhf"
			},
			{
				"type": "unocc",
				"energy": -0.02054,
				"method": "rhf"
			},
			{
				"type": "unocc",
				"energy": 0.01464,
				"method": "rhf"
			},
			{
				"type": "unocc",
				"energy": 0.05994,
				"method": "rhf"
			},
			{
				"type": "unocc",
				"energy": 0.07356,
				"method": "rhf"
			}
		],
		"cosmo_sigma_profile": { 
			"-0.025": 0.0,
			"-0.024": 0.0,
			"-0.023": 0.0,
			"-0.022": 0.0,
			"-0.021": 0.0,
			"-0.02": 0.0,
			"-0.019": 0.0,
			"-0.018": 0.0,
			"-0.017": 0.685325797737,
			"-0.016": 1.61716813503,
			"-0.015": 1.8262898219,
			"-0.014": 1.28321979988,
			"-0.013": 2.08948229779,
			"-0.012": 2.1835642233,
			"-0.011": 2.10096607653,
			"-0.01": 3.74128991835,
			"-0.009": 4.88450771244,
			"-0.008": 3.47884429152,
			"-0.007": 3.70495397738,
			"-0.006": 5.16348593146,
			"-0.005": 9.8953380198,
			"-0.004": 17.3109791912,
			"-0.003": 22.5375441865,
			"-0.002": 23.3636770052,
			"-0.001": 26.5536152077,
			"0.0": 27.09085909,
			"0.001": 24.8031413718,
			"0.002": 18.5266013162,
			"0.003": 15.5915328781,
			"0.004": 11.2696928765,
			"0.005": 11.3327310766,
			"0.006": 10.1489637615,
			"0.007": 5.12091583157,
			"0.008": 4.19415862364,
			"0.009": 4.00671077575,
			"0.01": 3.63464570263,
			"0.011": 5.26169110064,
			"0.012": 4.99424815893,
			"0.013": 3.66035929147,
			"0.014": 0.625005780745,
			"0.015": 0.0,
			"0.016": 0.0,
			"0.017": 0.0,
			"0.018": 0.0,
			"0.019": 0.0,
			"0.02": 0.0,
			"0.021": 0.0,
			"0.022": 0.0,
			"0.023": 0.0,
			"0.024": 0.0,
			"0.025": 0.0
		}
	}
}
