{
	 "smiles": "COC(=O)C(=CC1=CC=C(OC)C=C1)C#N", 
	 "Tm": 379.15, 
	 "num_atms": 27, 
	 "gaussian": { 
		 "optdone": 1, 
		 "sigma_profile": "yes", 
		 "theory": "DFT", 
		 "functional": "B3LYP", 
		 "basiset": "6-31G**", 
		 "properties": { 
			 "R2extent": 5627.299, 
			 "electric_dipole_moment_norm": 8.17815816734, 
			 "electric_quadrupole_moment_norm": 18.402448098, 
			 "total_energy": -744.29465119, 
			 "HOMO_LUMO_gap": 0.14579, 
			 "cosmo_polarized_energy": -16.67, 
			 "cosmo_cavitation_energy": 33.09, 
			 "cosmo_dispersion_energy": -23.43, 
			 "cosmo_repulsion_energy": 1.82, 
			 "cosmo_total_nonelectrostatic_energy": 11.48, 
			 "SMD_solvation_energy": 9.31 
		},
		"coords": [
			{
				"x": 4.1088537216,
				"y": 3.0694938487,
				"z": -2.3169596671,
				"element": "C" 
			},
			{
				"x": 3.1356754094,
				"y": 2.240212666,
				"z": -1.6615793843,
				"element": "O" 
			},
			{
				"x": 3.6526854073,
				"y": 1.29418472,
				"z": -0.8426126328,
				"element": "C" 
			},
			{
				"x": 4.8430948139,
				"y": 1.1424289882,
				"z": -0.6624612303,
				"element": "O" 
			},
			{
				"x": 2.6002563239,
				"y": 0.4630730116,
				"z": -0.1894369971,
				"element": "C" 
			},
			{
				"x": 1.2716845415,
				"y": 0.6710956508,
				"z": -0.4253557856,
				"element": "C" 
			},
			{
				"x": 0.0824410759,
				"y": 0.0119504218,
				"z": 0.0762755705,
				"element": "C" 
			},
			{
				"x": -1.1595752529,
				"y": 0.4928949991,
				"z": -0.3865489688,
				"element": "C" 
			},
			{
				"x": -2.3678979526,
				"y": -0.0585435414,
				"z": 0.023444907,
				"element": "C" 
			},
			{
				"x": -2.3587005314,
				"y": -1.1302914853,
				"z": 0.92830237,
				"element": "C" 
			},
			{
				"x": -3.4662432202,
				"y": -1.7501969426,
				"z": 1.4010044452,
				"element": "O" 
			},
			{
				"x": -4.7426340785,
				"y": -1.3010105809,
				"z": 0.9608009445,
				"element": "C" 
			},
			{
				"x": -1.1309965918,
				"y": -1.6279735878,
				"z": 1.4045493152,
				"element": "C" 
			},
			{
				"x": 0.0639678581,
				"y": -1.0716215496,
				"z": 0.9897409525,
				"element": "C" 
			},
			{
				"x": 3.1158179537,
				"y": -0.5450940265,
				"z": 0.6840225311,
				"element": "C" 
			},
			{
				"x": 3.5186498264,
				"y": -1.3708881261,
				"z": 1.3988111558,
				"element": "N" 
			},
			{
				"x": 4.7712176659,
				"y": 2.4648895379,
				"z": -2.9412209997,
				"element": "H" 
			},
			{
				"x": 3.5355023024,
				"y": 3.7663875335,
				"z": -2.9281544421,
				"element": "H" 
			},
			{
				"x": 4.7121400837,
				"y": 3.6081288404,
				"z": -1.5821931487,
				"element": "H" 
			},
			{
				"x": 1.0717934093,
				"y": 1.4829222315,
				"z": -1.1191422356,
				"element": "H" 
			},
			{
				"x": -1.1739276548,
				"y": 1.3231734762,
				"z": -1.0878014785,
				"element": "H" 
			},
			{
				"x": -3.2975395299,
				"y": 0.3445684977,
				"z": -0.3591741237,
				"element": "H" 
			},
			{
				"x": -4.9187322348,
				"y": -0.255624075,
				"z": 1.2418233371,
				"element": "H" 
			},
			{
				"x": -4.8531764801,
				"y": -1.4089959414,
				"z": -0.1249691543,
				"element": "H" 
			},
			{
				"x": -5.4721093227,
				"y": -1.9372846018,
				"z": 1.4627738867,
				"element": "H" 
			},
			{
				"x": -1.1487455132,
				"y": -2.4572886783,
				"z": 2.1036098186,
				"element": "H" 
			},
			{
				"x": 0.9904979701,
				"y": -1.4776912867,
				"z": 1.3747510145,
				"element": "H" 
			}
		],
		 "valence_orbital": [ 
			{
				"type": "occ",
				"energy": -0.30623,
				"method": "rhf"
			},
			{
				"type": "occ",
				"energy": -0.28946,
				"method": "rhf"
			},
			{
				"type": "occ",
				"energy": -0.27842,
				"method": "rhf"
			},
			{
				"type": "occ",
				"energy": -0.27245,
				"method": "rhf"
			},
			{
				"type": "occ",
				"energy": -0.22878,
				"method": "rhf"
			},
			{
				"type": "unocc",
				"energy": -0.08299,
				"method": "rhf"
			},
			{
				"type": "unocc",
				"energy": -0.01989,
				"method": "rhf"
			},
			{
				"type": "unocc",
				"energy": 0.01708,
				"method": "rhf"
			},
			{
				"type": "unocc",
				"energy": 0.03043,
				"method": "rhf"
			},
			{
				"type": "unocc",
				"energy": 0.03454,
				"method": "rhf"
			}
		],
		"cosmo_sigma_profile": { 
			"-0.025": 0.0,
			"-0.024": 0.0,
			"-0.023": 0.0,
			"-0.022": 0.0,
			"-0.021": 0.0,
			"-0.02": 0.0,
			"-0.019": 0.0,
			"-0.018": 0.0,
			"-0.017": 0.0,
			"-0.016": 0.0,
			"-0.015": 0.0,
			"-0.014": 0.0,
			"-0.013": 0.0,
			"-0.012": 0.0,
			"-0.011": 0.0560706471169,
			"-0.01": 0.801501246978,
			"-0.009": 1.38689554155,
			"-0.008": 2.49592210199,
			"-0.007": 8.90331532302,
			"-0.006": 20.5220189949,
			"-0.005": 21.8642259322,
			"-0.004": 22.141716598,
			"-0.003": 23.28312273,
			"-0.002": 19.5336155586,
			"-0.001": 19.8923017736,
			"0.0": 18.721170435,
			"0.001": 15.5779550105,
			"0.002": 18.7971327055,
			"0.003": 16.7959209989,
			"0.004": 6.61927978999,
			"0.005": 6.54205172386,
			"0.006": 4.14518399365,
			"0.007": 5.75512037716,
			"0.008": 7.2457036782,
			"0.009": 5.57893612948,
			"0.01": 5.28500513841,
			"0.011": 6.76817946179,
			"0.012": 5.71103804536,
			"0.013": 1.35893834159,
			"0.014": 0.00010375770617,
			"0.015": 0.0,
			"0.016": 0.0,
			"0.017": 0.0,
			"0.018": 0.0,
			"0.019": 0.0,
			"0.02": 0.0,
			"0.021": 0.0,
			"0.022": 0.0,
			"0.023": 0.0,
			"0.024": 0.0,
			"0.025": 0.0
		}
	}
}
