{
	 "smiles": "COC1=C(OCC(=O)NN)C=CC=C1", 
	 "Tm": 375.15, 
	 "num_atms": 26, 
	 "gaussian": { 
		 "optdone": 1, 
		 "sigma_profile": "yes", 
		 "theory": "DFT", 
		 "functional": "B3LYP", 
		 "basiset": "6-31G**", 
		 "properties": { 
			 "R2extent": 2850.6162, 
			 "electric_dipole_moment_norm": 0.603726767669, 
			 "electric_quadrupole_moment_norm": 12.5932683331, 
			 "total_energy": -685.304115176, 
			 "HOMO_LUMO_gap": 0.21375, 
			 "cosmo_polarized_energy": -15.27, 
			 "cosmo_cavitation_energy": 29.39, 
			 "cosmo_dispersion_energy": -20.73, 
			 "cosmo_repulsion_energy": 1.63, 
			 "cosmo_total_nonelectrostatic_energy": 10.29, 
			 "SMD_solvation_energy": 6.76 
		},
		"coords": [
			{
				"x": 1.0268684943,
				"y": 2.1281527905,
				"z": -0.6607231142,
				"element": "C" 
			},
			{
				"x": 0.5766909743,
				"y": 1.2661909097,
				"z": 0.3796414294,
				"element": "O" 
			},
			{
				"x": -0.7320535906,
				"y": 0.878029447,
				"z": 0.3724278026,
				"element": "C" 
			},
			{
				"x": -1.0537602883,
				"y": -0.3321075738,
				"z": 1.0262839138,
				"element": "C" 
			},
			{
				"x": -0.126750372,
				"y": -1.1585574816,
				"z": 1.6341308631,
				"element": "O" 
			},
			{
				"x": 1.1288441413,
				"y": -1.4193615039,
				"z": 0.9814477646,
				"element": "C" 
			},
			{
				"x": 0.9657168802,
				"y": -1.9112947771,
				"z": -0.4630266146,
				"element": "C" 
			},
			{
				"x": 1.381248436,
				"y": -1.2710916381,
				"z": -1.4211811403,
				"element": "O" 
			},
			{
				"x": 0.3211379294,
				"y": -3.1078324291,
				"z": -0.6190110054,
				"element": "N" 
			},
			{
				"x": -0.2565608683,
				"y": -3.8976956315,
				"z": 0.3925034983,
				"element": "N" 
			},
			{
				"x": -2.3891628874,
				"y": -0.7230596748,
				"z": 1.128750347,
				"element": "C" 
			},
			{
				"x": -3.4100887169,
				"y": 0.0440049828,
				"z": 0.567339032,
				"element": "C" 
			},
			{
				"x": -3.0893507757,
				"y": 1.212266996,
				"z": -0.1201358261,
				"element": "C" 
			},
			{
				"x": -1.7589723629,
				"y": 1.6235730667,
				"z": -0.2175589663,
				"element": "C" 
			},
			{
				"x": 2.1141965623,
				"y": 2.1541445477,
				"z": -0.5780826983,
				"element": "H" 
			},
			{
				"x": 0.6363231357,
				"y": 3.1462169928,
				"z": -0.5402920292,
				"element": "H" 
			},
			{
				"x": 0.7483979362,
				"y": 1.7334222435,
				"z": -1.6433196744,
				"element": "H" 
			},
			{
				"x": 1.598968804,
				"y": -2.1897610023,
				"z": 1.6005259246,
				"element": "H" 
			},
			{
				"x": 1.755437897,
				"y": -0.5311829382,
				"z": 0.9533610884,
				"element": "H" 
			},
			{
				"x": 0.1033124088,
				"y": -3.3816306039,
				"z": -1.5684100111,
				"element": "H" 
			},
			{
				"x": 0.4768647631,
				"y": -4.3783645288,
				"z": 0.9100794414,
				"element": "H" 
			},
			{
				"x": -0.7562374368,
				"y": -3.2929182631,
				"z": 1.0395954976,
				"element": "H" 
			},
			{
				"x": -2.6108048031,
				"y": -1.6453314918,
				"z": 1.6575209067,
				"element": "H" 
			},
			{
				"x": -4.4417895493,
				"y": -0.2813243435,
				"z": 0.6555826226,
				"element": "H" 
			},
			{
				"x": -3.8688653362,
				"y": 1.8138140968,
				"z": -0.5776357275,
				"element": "H" 
			},
			{
				"x": -1.5185113751,
				"y": 2.5431978078,
				"z": -0.7385133247,
				"element": "H" 
			}
		],
		 "valence_orbital": [ 
			{
				"type": "occ",
				"energy": -0.28968,
				"method": "rhf"
			},
			{
				"type": "occ",
				"energy": -0.25683,
				"method": "rhf"
			},
			{
				"type": "occ",
				"energy": -0.24841,
				"method": "rhf"
			},
			{
				"type": "occ",
				"energy": -0.23481,
				"method": "rhf"
			},
			{
				"type": "occ",
				"energy": -0.21297,
				"method": "rhf"
			},
			{
				"type": "unocc",
				"energy": 0.00078,
				"method": "rhf"
			},
			{
				"type": "unocc",
				"energy": 0.00612,
				"method": "rhf"
			},
			{
				"type": "unocc",
				"energy": 0.012,
				"method": "rhf"
			},
			{
				"type": "unocc",
				"energy": 0.07117,
				"method": "rhf"
			},
			{
				"type": "unocc",
				"energy": 0.08518,
				"method": "rhf"
			}
		],
		"cosmo_sigma_profile": { 
			"-0.025": 0.0,
			"-0.024": 0.0,
			"-0.023": 0.0,
			"-0.022": 0.0,
			"-0.021": 0.0,
			"-0.02": 0.0,
			"-0.019": 0.0,
			"-0.018": 0.0,
			"-0.017": 0.0,
			"-0.016": 0.0,
			"-0.015": 0.0,
			"-0.014": 0.316855603058,
			"-0.013": 1.2374164211,
			"-0.012": 1.61017475909,
			"-0.011": 3.01618872133,
			"-0.01": 3.44672595068,
			"-0.009": 3.43402439832,
			"-0.008": 4.87741997527,
			"-0.007": 7.48056899555,
			"-0.006": 12.2619281848,
			"-0.005": 17.7913705265,
			"-0.004": 20.5971987111,
			"-0.003": 20.0944961482,
			"-0.002": 12.5209910953,
			"-0.001": 10.4208151309,
			"0.0": 10.7720124647,
			"0.001": 10.836186089,
			"0.002": 9.98278115916,
			"0.003": 14.1651479746,
			"0.004": 14.3989784178,
			"0.005": 13.4048529468,
			"0.006": 10.111259065,
			"0.007": 4.84848403653,
			"0.008": 3.58056007467,
			"0.009": 3.50589292305,
			"0.01": 4.10435688699,
			"0.011": 2.64678484032,
			"0.012": 3.02491806652,
			"0.013": 3.96846722217,
			"0.014": 2.44972944378,
			"0.015": 0.856766207233,
			"0.016": 0.519167156606,
			"0.017": 0.0,
			"0.018": 0.0,
			"0.019": 0.0,
			"0.02": 0.0,
			"0.021": 0.0,
			"0.022": 0.0,
			"0.023": 0.0,
			"0.024": 0.0,
			"0.025": 0.0
		}
	}
}
