{
	 "smiles": "OC(=O)CNC1=CC=C(C=C1)C(O)=O", 
	 "Tm": 540.15, 
	 "num_atms": 23, 
	 "gaussian": { 
		 "optdone": 1, 
		 "sigma_profile": "yes", 
		 "theory": "DFT", 
		 "functional": "B3LYP", 
		 "basiset": "6-31G**", 
		 "properties": { 
			 "R2extent": 4011.3648, 
			 "electric_dipole_moment_norm": 7.72147442073, 
			 "electric_quadrupole_moment_norm": 24.5842865131, 
			 "total_energy": -704.045807035, 
			 "HOMO_LUMO_gap": 0.19095, 
			 "cosmo_polarized_energy": -28.29, 
			 "cosmo_cavitation_energy": 28.02, 
			 "cosmo_dispersion_energy": -20.46, 
			 "cosmo_repulsion_energy": 1.62, 
			 "cosmo_total_nonelectrostatic_energy": 9.18, 
			 "SMD_solvation_energy": 6.93 
		},
		"coords": [
			{
				"x": -2.0026663858,
				"y": 2.3884450545,
				"z": -0.0672262952,
				"element": "O" 
			},
			{
				"x": -0.8971246884,
				"y": 3.0599677402,
				"z": -0.4316452316,
				"element": "C" 
			},
			{
				"x": -0.8881000905,
				"y": 3.8946637734,
				"z": -1.3013988311,
				"element": "O" 
			},
			{
				"x": 0.3615734214,
				"y": 2.7089248142,
				"z": 0.3816343235,
				"element": "C" 
			},
			{
				"x": 0.2239143466,
				"y": 1.4766615742,
				"z": 1.1528519236,
				"element": "N" 
			},
			{
				"x": 0.6065314966,
				"y": 0.2394366926,
				"z": 0.6087806039,
				"element": "C" 
			},
			{
				"x": 0.9186074702,
				"y": -0.8252876125,
				"z": 1.4725756978,
				"element": "C" 
			},
			{
				"x": 1.2659048766,
				"y": -2.0687201983,
				"z": 0.9611877361,
				"element": "C" 
			},
			{
				"x": 1.3140551146,
				"y": -2.2900306348,
				"z": -0.4238263468,
				"element": "C" 
			},
			{
				"x": 0.9761255407,
				"y": -1.2325429546,
				"z": -1.278897272,
				"element": "C" 
			},
			{
				"x": 0.6332413985,
				"y": 0.0180208018,
				"z": -0.7801234636,
				"element": "C" 
			},
			{
				"x": 1.6661884719,
				"y": -3.603787141,
				"z": -1.0433461539,
				"element": "C" 
			},
			{
				"x": 2.328834165,
				"y": -4.4981069332,
				"z": -0.2574369803,
				"element": "O" 
			},
			{
				"x": 1.3934644432,
				"y": -3.8953293517,
				"z": -2.1846022434,
				"element": "O" 
			},
			{
				"x": -1.7328246239,
				"y": 1.7600861622,
				"z": 0.6314210481,
				"element": "H" 
			},
			{
				"x": 0.5272533934,
				"y": 3.5389518082,
				"z": 1.0753757213,
				"element": "H" 
			},
			{
				"x": 1.2133199232,
				"y": 2.6894002146,
				"z": -0.3067784849,
				"element": "H" 
			},
			{
				"x": 0.4768956482,
				"y": 1.5725715486,
				"z": 2.1272928965,
				"element": "H" 
			},
			{
				"x": 0.8785955581,
				"y": -0.6743534994,
				"z": 2.5485160096,
				"element": "H" 
			},
			{
				"x": 1.4664501239,
				"y": -2.8746051535,
				"z": 1.6632790384,
				"element": "H" 
			},
			{
				"x": 0.9874392845,
				"y": -1.413383241,
				"z": -2.3483194815,
				"element": "H" 
			},
			{
				"x": 0.3772186243,
				"y": 0.8127366285,
				"z": -1.4723152605,
				"element": "H" 
			},
			{
				"x": 2.6334024877,
				"y": -4.069920093,
				"z": 0.5540010459,
				"element": "H" 
			}
		],
		 "valence_orbital": [ 
			{
				"type": "occ",
				"energy": -0.31477,
				"method": "rhf"
			},
			{
				"type": "occ",
				"energy": -0.28183,
				"method": "rhf"
			},
			{
				"type": "occ",
				"energy": -0.27991,
				"method": "rhf"
			},
			{
				"type": "occ",
				"energy": -0.27298,
				"method": "rhf"
			},
			{
				"type": "occ",
				"energy": -0.24128,
				"method": "rhf"
			},
			{
				"type": "unocc",
				"energy": -0.05033,
				"method": "rhf"
			},
			{
				"type": "unocc",
				"energy": -0.03304,
				"method": "rhf"
			},
			{
				"type": "unocc",
				"energy": -0.00038,
				"method": "rhf"
			},
			{
				"type": "unocc",
				"energy": 0.04481,
				"method": "rhf"
			},
			{
				"type": "unocc",
				"energy": 0.04674,
				"method": "rhf"
			}
		],
		"cosmo_sigma_profile": { 
			"-0.025": 0.0,
			"-0.024": 0.0,
			"-0.023": 0.0,
			"-0.022": 0.0,
			"-0.021": 0.0,
			"-0.02": 0.0,
			"-0.019": 0.0842698384636,
			"-0.018": 0.680116866738,
			"-0.017": 0.709463074963,
			"-0.016": 1.24169383476,
			"-0.015": 2.20760092867,
			"-0.014": 2.6850027364,
			"-0.013": 2.59214547464,
			"-0.012": 4.2048153928,
			"-0.011": 3.10373538944,
			"-0.01": 5.29660868673,
			"-0.009": 6.63054816287,
			"-0.008": 7.13827192224,
			"-0.007": 11.0392187143,
			"-0.006": 11.3964238472,
			"-0.005": 12.5590623878,
			"-0.004": 10.6379547837,
			"-0.003": 8.60763727246,
			"-0.002": 10.4078948715,
			"-0.001": 7.90609818118,
			"0.0": 8.54904700978,
			"0.001": 10.4163277893,
			"0.002": 10.3100361536,
			"0.003": 13.5773551953,
			"0.004": 10.3793150449,
			"0.005": 3.95724790945,
			"0.006": 4.91224531352,
			"0.007": 4.58584129552,
			"0.008": 5.60318766057,
			"0.009": 6.07198421546,
			"0.01": 8.83671099131,
			"0.011": 9.70029669872,
			"0.012": 11.7973872777,
			"0.013": 4.97399153899,
			"0.014": 0.538037471117,
			"0.015": 0.0,
			"0.016": 0.0,
			"0.017": 0.0,
			"0.018": 0.0,
			"0.019": 0.0,
			"0.02": 0.0,
			"0.021": 0.0,
			"0.022": 0.0,
			"0.023": 0.0,
			"0.024": 0.0,
			"0.025": 0.0
		}
	}
}
