{
	 "smiles": "COC1=CC(CSCC(N)C(O)=O)=CC=C1", 
	 "Tm": 468.15, 
	 "num_atms": 31, 
	 "gaussian": { 
		 "optdone": 1, 
		 "sigma_profile": "yes", 
		 "theory": "DFT", 
		 "functional": "B3LYP", 
		 "basiset": "6-31G**", 
		 "properties": { 
			 "R2extent": 4976.4313, 
			 "electric_dipole_moment_norm": 3.93306894295, 
			 "electric_quadrupole_moment_norm": 6.90063308472, 
			 "total_energy": -1106.82326721, 
			 "HOMO_LUMO_gap": 0.2082, 
			 "cosmo_polarized_energy": -14.92, 
			 "cosmo_cavitation_energy": 34.9, 
			 "cosmo_dispersion_energy": -24.5, 
			 "cosmo_repulsion_energy": 1.86, 
			 "cosmo_total_nonelectrostatic_energy": 12.26, 
			 "SMD_solvation_energy": 5.64 
		},
		"coords": [
			{
				"x": 1.4060219366,
				"y": 3.5972864694,
				"z": 2.2016170045,
				"element": "C" 
			},
			{
				"x": 0.9969117053,
				"y": 2.2413756715,
				"z": 2.1101588378,
				"element": "O" 
			},
			{
				"x": 0.5257340576,
				"y": 1.7903882874,
				"z": 0.9073720311,
				"element": "C" 
			},
			{
				"x": 0.1132924967,
				"y": 0.4497852356,
				"z": 0.8933032409,
				"element": "C" 
			},
			{
				"x": -0.3503353656,
				"y": -0.1453997063,
				"z": -0.2788383212,
				"element": "C" 
			},
			{
				"x": -0.7770037913,
				"y": -1.5937217386,
				"z": -0.2478327119,
				"element": "C" 
			},
			{
				"x": 0.0927976756,
				"y": -2.717812589,
				"z": -1.4357140665,
				"element": "S" 
			},
			{
				"x": 1.8817890402,
				"y": -2.4077094339,
				"z": -1.1578361691,
				"element": "C" 
			},
			{
				"x": 2.5299660061,
				"y": -3.0559109001,
				"z": 0.0914477327,
				"element": "C" 
			},
			{
				"x": 2.1817651387,
				"y": -4.4591071976,
				"z": 0.1877041305,
				"element": "N" 
			},
			{
				"x": 2.2162343389,
				"y": -2.2330514386,
				"z": 1.3447417942,
				"element": "C" 
			},
			{
				"x": 2.9580616832,
				"y": -1.1028864379,
				"z": 1.3873304182,
				"element": "O" 
			},
			{
				"x": 1.4095401514,
				"y": -2.5269610099,
				"z": 2.2025924796,
				"element": "O" 
			},
			{
				"x": -0.4199428863,
				"y": 0.6225256443,
				"z": -1.4542777997,
				"element": "C" 
			},
			{
				"x": -0.0280586252,
				"y": 1.9561971074,
				"z": -1.431984731,
				"element": "C" 
			},
			{
				"x": 0.4503547842,
				"y": 2.5551187044,
				"z": -0.2595823783,
				"element": "C" 
			},
			{
				"x": 2.244320848,
				"y": 3.8145942455,
				"z": 1.527005969,
				"element": "H" 
			},
			{
				"x": 0.5799906026,
				"y": 4.2844567481,
				"z": 1.97815758,
				"element": "H" 
			},
			{
				"x": 1.7276698597,
				"y": 3.7474470011,
				"z": 3.2334285308,
				"element": "H" 
			},
			{
				"x": 0.1629109896,
				"y": -0.1180333461,
				"z": 1.8174574006,
				"element": "H" 
			},
			{
				"x": -0.6864209891,
				"y": -1.9990643516,
				"z": 0.7607428563,
				"element": "H" 
			},
			{
				"x": -1.8224307911,
				"y": -1.6987847196,
				"z": -0.5581374407,
				"element": "H" 
			},
			{
				"x": 2.3452353969,
				"y": -2.8529271289,
				"z": -2.0419581312,
				"element": "H" 
			},
			{
				"x": 2.0729973021,
				"y": -1.3320830701,
				"z": -1.1755951082,
				"element": "H" 
			},
			{
				"x": 3.6141125953,
				"y": -2.966253418,
				"z": -0.059998153,
				"element": "H" 
			},
			{
				"x": 1.168390329,
				"y": -4.5451318015,
				"z": 0.2337707182,
				"element": "H" 
			},
			{
				"x": 2.5476445341,
				"y": -4.8506673737,
				"z": 1.0515091787,
				"element": "H" 
			},
			{
				"x": 2.6572983159,
				"y": -0.5876516171,
				"z": 2.155198792,
				"element": "H" 
			},
			{
				"x": -0.7705143729,
				"y": 0.1672944351,
				"z": -2.3753968085,
				"element": "H" 
			},
			{
				"x": -0.0875177376,
				"y": 2.5505451038,
				"z": -2.3395381074,
				"element": "H" 
			},
			{
				"x": 0.7589847714,
				"y": 3.5935426249,
				"z": -0.2736487683,
				"element": "H" 
			}
		],
		 "valence_orbital": [ 
			{
				"type": "occ",
				"energy": -0.28177,
				"method": "rhf"
			},
			{
				"type": "occ",
				"energy": -0.25005,
				"method": "rhf"
			},
			{
				"type": "occ",
				"energy": -0.2426,
				"method": "rhf"
			},
			{
				"type": "occ",
				"energy": -0.22891,
				"method": "rhf"
			},
			{
				"type": "occ",
				"energy": -0.21893,
				"method": "rhf"
			},
			{
				"type": "unocc",
				"energy": -0.01073,
				"method": "rhf"
			},
			{
				"type": "unocc",
				"energy": -0.00126,
				"method": "rhf"
			},
			{
				"type": "unocc",
				"energy": 0.00484,
				"method": "rhf"
			},
			{
				"type": "unocc",
				"energy": 0.05028,
				"method": "rhf"
			},
			{
				"type": "unocc",
				"energy": 0.07204,
				"method": "rhf"
			}
		],
		"cosmo_sigma_profile": { 
			"-0.025": 0.0,
			"-0.024": 0.0,
			"-0.023": 0.0,
			"-0.022": 0.0,
			"-0.021": 0.0,
			"-0.02": 0.0,
			"-0.019": 0.0,
			"-0.018": 0.0,
			"-0.017": 0.151914842665,
			"-0.016": 0.370997276853,
			"-0.015": 0.806258057002,
			"-0.014": 0.380679583347,
			"-0.013": 0.539139220884,
			"-0.012": 0.306284981788,
			"-0.011": 1.55969240054,
			"-0.01": 2.67981205053,
			"-0.009": 2.11206594719,
			"-0.008": 3.27108098833,
			"-0.007": 5.43201796027,
			"-0.006": 16.47541573,
			"-0.005": 23.2231979087,
			"-0.004": 23.9727075857,
			"-0.003": 26.8166483469,
			"-0.002": 18.3186890415,
			"-0.001": 16.4271152702,
			"0.0": 15.9582475547,
			"0.001": 14.5124411169,
			"0.002": 12.7312241014,
			"0.003": 15.3853903159,
			"0.004": 16.4292783932,
			"0.005": 15.0604426048,
			"0.006": 11.3348172574,
			"0.007": 6.61523986949,
			"0.008": 6.42561634667,
			"0.009": 4.5629398388,
			"0.01": 3.76313944448,
			"0.011": 3.46620162363,
			"0.012": 3.67954430951,
			"0.013": 0.554155660938,
			"0.014": 0.66018529287,
			"0.015": 0.558215739914,
			"0.016": 0.30161737945,
			"0.017": 0.703064698793,
			"0.018": 0.505959627208,
			"0.019": 0.0498911645497,
			"0.02": 0.0,
			"0.021": 0.0,
			"0.022": 0.0,
			"0.023": 0.0,
			"0.024": 0.0,
			"0.025": 0.0
		}
	}
}
