{
	 "smiles": "NS(=O)(=O)C1=CC=C(C=C1)N1CCCCS1(=O)=O", 
	 "Tm": 453.15, 
	 "num_atms": 32, 
	 "gaussian": { 
		 "optdone": 1, 
		 "sigma_profile": "yes", 
		 "theory": "DFT", 
		 "functional": "B3LYP", 
		 "basiset": "6-31G**", 
		 "properties": { 
			 "R2extent": 7356.6128, 
			 "electric_dipole_moment_norm": 8.30391658617, 
			 "electric_quadrupole_moment_norm": 26.3232916158, 
			 "total_energy": -1596.1338995, 
			 "HOMO_LUMO_gap": 0.20005, 
			 "cosmo_polarized_energy": -26.44, 
			 "cosmo_cavitation_energy": 36.97, 
			 "cosmo_dispersion_energy": -27.77, 
			 "cosmo_repulsion_energy": 2.05, 
			 "cosmo_total_nonelectrostatic_energy": 11.25, 
			 "SMD_solvation_energy": 4.11 
		},
		"coords": [
			{
				"x": -5.0363723025,
				"y": 0.1915141091,
				"z": -0.6635020441,
				"element": "N" 
			},
			{
				"x": -4.1388710888,
				"y": 1.6151254421,
				"z": -0.8927063898,
				"element": "S" 
			},
			{
				"x": -4.4821119581,
				"y": 2.5178073941,
				"z": 0.2099937795,
				"element": "O" 
			},
			{
				"x": -4.2969814428,
				"y": 1.9948358336,
				"z": -2.3001675658,
				"element": "O" 
			},
			{
				"x": -2.4459004798,
				"y": 1.0840018683,
				"z": -0.6578441799,
				"element": "C" 
			},
			{
				"x": -1.6997028015,
				"y": 0.6710959028,
				"z": -1.7607099608,
				"element": "C" 
			},
			{
				"x": -0.383757457,
				"y": 0.2535421071,
				"z": -1.5764577621,
				"element": "C" 
			},
			{
				"x": 0.1761595125,
				"y": 0.224989686,
				"z": -0.2902163232,
				"element": "C" 
			},
			{
				"x": -0.5840309521,
				"y": 0.6590450144,
				"z": 0.808316747,
				"element": "C" 
			},
			{
				"x": -1.8905874796,
				"y": 1.0980391056,
				"z": 0.6233444445,
				"element": "C" 
			},
			{
				"x": 1.5062450356,
				"y": -0.2492280963,
				"z": -0.0580229357,
				"element": "N" 
			},
			{
				"x": 2.1064481613,
				"y": -1.2073201267,
				"z": -1.0090145691,
				"element": "C" 
			},
			{
				"x": 3.0581376174,
				"y": -2.1719407284,
				"z": -0.2695378243,
				"element": "C" 
			},
			{
				"x": 3.8017963828,
				"y": -1.4845670059,
				"z": 0.8923888701,
				"element": "C" 
			},
			{
				"x": 4.1353168399,
				"y": -0.0295026342,
				"z": 0.566436673,
				"element": "C" 
			},
			{
				"x": 2.6279805776,
				"y": 0.9861762193,
				"z": 0.4230727517,
				"element": "S" 
			},
			{
				"x": 2.2214015634,
				"y": 1.4449020314,
				"z": 1.7542379173,
				"element": "O" 
			},
			{
				"x": 2.8199680262,
				"y": 1.9609790289,
				"z": -0.6574713942,
				"element": "O" 
			},
			{
				"x": -5.6656195968,
				"y": 0.3203881323,
				"z": 0.124786117,
				"element": "H" 
			},
			{
				"x": -5.5525243626,
				"y": -0.0138996007,
				"z": -1.5151404572,
				"element": "H" 
			},
			{
				"x": -2.1353738051,
				"y": 0.7087037116,
				"z": -2.7529359735,
				"element": "H" 
			},
			{
				"x": 0.2084407485,
				"y": -0.0311003781,
				"z": -2.438779828,
				"element": "H" 
			},
			{
				"x": -0.138639518,
				"y": 0.6507833143,
				"z": 1.7951593239,
				"element": "H" 
			},
			{
				"x": -2.478162685,
				"y": 1.4494931685,
				"z": 1.4641743578,
				"element": "H" 
			},
			{
				"x": 2.6271954136,
				"y": -0.6880859696,
				"z": -1.8263101678,
				"element": "H" 
			},
			{
				"x": 1.2874483808,
				"y": -1.7679865682,
				"z": -1.4627715939,
				"element": "H" 
			},
			{
				"x": 2.4921305139,
				"y": -3.0222813462,
				"z": 0.1226783938,
				"element": "H" 
			},
			{
				"x": 3.7740907253,
				"y": -2.5719782766,
				"z": -0.9969118043,
				"element": "H" 
			},
			{
				"x": 4.7309151548,
				"y": -2.0171303726,
				"z": 1.1207591246,
				"element": "H" 
			},
			{
				"x": 3.1918555125,
				"y": -1.5102685967,
				"z": 1.8001026077,
				"element": "H" 
			},
			{
				"x": 4.7034829411,
				"y": 0.4642670891,
				"z": 1.3591181828,
				"element": "H" 
			},
			{
				"x": 4.6729228223,
				"y": 0.0814005415,
				"z": -0.3786685166,
				"element": "H" 
			}
		],
		 "valence_orbital": [ 
			{
				"type": "occ",
				"energy": -0.30361,
				"method": "rhf"
			},
			{
				"type": "occ",
				"energy": -0.2999,
				"method": "rhf"
			},
			{
				"type": "occ",
				"energy": -0.28325,
				"method": "rhf"
			},
			{
				"type": "occ",
				"energy": -0.27046,
				"method": "rhf"
			},
			{
				"type": "occ",
				"energy": -0.24132,
				"method": "rhf"
			},
			{
				"type": "unocc",
				"energy": -0.04127,
				"method": "rhf"
			},
			{
				"type": "unocc",
				"energy": -0.02157,
				"method": "rhf"
			},
			{
				"type": "unocc",
				"energy": 0.03959,
				"method": "rhf"
			},
			{
				"type": "unocc",
				"energy": 0.05248,
				"method": "rhf"
			},
			{
				"type": "unocc",
				"energy": 0.05754,
				"method": "rhf"
			}
		],
		"cosmo_sigma_profile": { 
			"-0.025": 0.0,
			"-0.024": 0.0,
			"-0.023": 0.0,
			"-0.022": 0.0,
			"-0.021": 0.0,
			"-0.02": 0.0,
			"-0.019": 0.0,
			"-0.018": 0.0,
			"-0.017": 0.0,
			"-0.016": 0.0,
			"-0.015": 0.756261017244,
			"-0.014": 2.51051487053,
			"-0.013": 2.79801050119,
			"-0.012": 2.08264769946,
			"-0.011": 2.5128639298,
			"-0.01": 1.89642007104,
			"-0.009": 2.96852307386,
			"-0.008": 9.23362744933,
			"-0.007": 13.9046272853,
			"-0.006": 17.2618476803,
			"-0.005": 24.998130384,
			"-0.004": 26.4279146018,
			"-0.003": 18.2302736714,
			"-0.002": 17.2337942288,
			"-0.001": 12.8128712024,
			"0.0": 10.6310540781,
			"0.001": 14.8318523706,
			"0.002": 18.4406371329,
			"0.003": 10.5176088216,
			"0.004": 7.71883115301,
			"0.005": 6.98948527428,
			"0.006": 6.48946640218,
			"0.007": 5.64890694233,
			"0.008": 7.87098016697,
			"0.009": 7.3556154606,
			"0.01": 15.3731558215,
			"0.011": 19.2530509031,
			"0.012": 5.33645061062,
			"0.013": 0.254673401752,
			"0.014": 0.0,
			"0.015": 0.0,
			"0.016": 0.0,
			"0.017": 0.0,
			"0.018": 0.0,
			"0.019": 0.0,
			"0.02": 0.0,
			"0.021": 0.0,
			"0.022": 0.0,
			"0.023": 0.0,
			"0.024": 0.0,
			"0.025": 0.0
		}
	}
}
