{
	 "smiles": "CC(C)C1=C(OC(C)C(O)=O)C=C(C)C=C1", 
	 "Tm": 335.15, 
	 "num_atms": 34, 
	 "gaussian": { 
		 "optdone": 1, 
		 "sigma_profile": "yes", 
		 "theory": "DFT", 
		 "functional": "B3LYP", 
		 "basiset": "6-31G**", 
		 "properties": { 
			 "R2extent": 4103.4687, 
			 "electric_dipole_moment_norm": 3.67121894335, 
			 "electric_quadrupole_moment_norm": 18.5673001737, 
			 "total_energy": -731.924180661, 
			 "HOMO_LUMO_gap": 0.22183, 
			 "cosmo_polarized_energy": -11.06, 
			 "cosmo_cavitation_energy": 35.59, 
			 "cosmo_dispersion_energy": -24.05, 
			 "cosmo_repulsion_energy": 1.9, 
			 "cosmo_total_nonelectrostatic_energy": 13.44, 
			 "SMD_solvation_energy": 7.43 
		},
		"coords": [
			{
				"x": -1.7866579178,
				"y": 1.9969986663,
				"z": 0.8109275222,
				"element": "C" 
			},
			{
				"x": -2.0725746664,
				"y": 0.6633575916,
				"z": 0.094511896,
				"element": "C" 
			},
			{
				"x": -2.5351339479,
				"y": 0.8944896626,
				"z": -1.357599178,
				"element": "C" 
			},
			{
				"x": -0.9219233915,
				"y": -0.3330429603,
				"z": 0.1924203237,
				"element": "C" 
			},
			{
				"x": 0.358861158,
				"y": -0.1122748105,
				"z": -0.3481467865,
				"element": "C" 
			},
			{
				"x": 0.5549549487,
				"y": 1.0793534326,
				"z": -1.0474792893,
				"element": "O" 
			},
			{
				"x": 1.7689231524,
				"y": 1.8468922804,
				"z": -0.8793175973,
				"element": "C" 
			},
			{
				"x": 2.29733855,
				"y": 1.9500624333,
				"z": 0.5456407348,
				"element": "C" 
			},
			{
				"x": 2.8441881429,
				"y": 1.3981828374,
				"z": -1.8884369735,
				"element": "C" 
			},
			{
				"x": 2.3670105335,
				"y": 0.6862574505,
				"z": -2.9277158269,
				"element": "O" 
			},
			{
				"x": 4.0070788254,
				"y": 1.7056586904,
				"z": -1.7922323028,
				"element": "O" 
			},
			{
				"x": 1.3643731145,
				"y": -1.0783305098,
				"z": -0.2604223623,
				"element": "C" 
			},
			{
				"x": 1.1441577251,
				"y": -2.2953826359,
				"z": 0.3963212679,
				"element": "C" 
			},
			{
				"x": 2.2523131518,
				"y": -3.3147372894,
				"z": 0.5163752074,
				"element": "C" 
			},
			{
				"x": -0.1214641685,
				"y": -2.5247554489,
				"z": 0.9428417404,
				"element": "C" 
			},
			{
				"x": -1.1243230315,
				"y": -1.5626852079,
				"z": 0.832248559,
				"element": "C" 
			},
			{
				"x": -2.6888464442,
				"y": 2.6184460809,
				"z": 0.826439468,
				"element": "H" 
			},
			{
				"x": -1.4747560057,
				"y": 1.8307572114,
				"z": 1.8471804047,
				"element": "H" 
			},
			{
				"x": -1.0008612572,
				"y": 2.5600212772,
				"z": 0.3014531171,
				"element": "H" 
			},
			{
				"x": -2.9119112944,
				"y": 0.1943641648,
				"z": 0.6246302471,
				"element": "H" 
			},
			{
				"x": -1.7550422267,
				"y": 1.3836787981,
				"z": -1.9463386597,
				"element": "H" 
			},
			{
				"x": -2.7888126845,
				"y": -0.0522292985,
				"z": -1.8452678415,
				"element": "H" 
			},
			{
				"x": -3.4256582304,
				"y": 1.5326171668,
				"z": -1.375733239,
				"element": "H" 
			},
			{
				"x": 1.4687038168,
				"y": 2.8488424651,
				"z": -1.212304731,
				"element": "H" 
			},
			{
				"x": 1.5367947586,
				"y": 2.3817466754,
				"z": 1.2005435294,
				"element": "H" 
			},
			{
				"x": 2.5956856979,
				"y": 0.9799373759,
				"z": 0.945925747,
				"element": "H" 
			},
			{
				"x": 3.1753970375,
				"y": 2.5986008573,
				"z": 0.5366894438,
				"element": "H" 
			},
			{
				"x": 1.4135690011,
				"y": 0.5551687447,
				"z": -2.7716492361,
				"element": "H" 
			},
			{
				"x": 2.3304068816,
				"y": -0.8961139259,
				"z": -0.7202193272,
				"element": "H" 
			},
			{
				"x": 2.8984610566,
				"y": -3.311668788,
				"z": -0.3667856422,
				"element": "H" 
			},
			{
				"x": 1.8516491284,
				"y": -4.3248873148,
				"z": 0.6404299371,
				"element": "H" 
			},
			{
				"x": 2.889759608,
				"y": -3.1068921291,
				"z": 1.3848827886,
				"element": "H" 
			},
			{
				"x": -0.3280071301,
				"y": -3.4622957803,
				"z": 1.4520812364,
				"element": "H" 
			},
			{
				"x": -2.1036538917,
				"y": -1.7679377633,
				"z": 1.257705823,
				"element": "H" 
			}
		],
		 "valence_orbital": [ 
			{
				"type": "occ",
				"energy": -0.31827,
				"method": "rhf"
			},
			{
				"type": "occ",
				"energy": -0.31465,
				"method": "rhf"
			},
			{
				"type": "occ",
				"energy": -0.26612,
				"method": "rhf"
			},
			{
				"type": "occ",
				"energy": -0.24812,
				"method": "rhf"
			},
			{
				"type": "occ",
				"energy": -0.23262,
				"method": "rhf"
			},
			{
				"type": "unocc",
				"energy": -0.01079,
				"method": "rhf"
			},
			{
				"type": "unocc",
				"energy": -0.00423,
				"method": "rhf"
			},
			{
				"type": "unocc",
				"energy": 0.00613,
				"method": "rhf"
			},
			{
				"type": "unocc",
				"energy": 0.07221,
				"method": "rhf"
			},
			{
				"type": "unocc",
				"energy": 0.08685,
				"method": "rhf"
			}
		],
		"cosmo_sigma_profile": { 
			"-0.025": 0.0,
			"-0.024": 0.0,
			"-0.023": 0.0,
			"-0.022": 0.0,
			"-0.021": 0.0,
			"-0.02": 0.0,
			"-0.019": 0.0,
			"-0.018": 0.0,
			"-0.017": 0.0,
			"-0.016": 0.0,
			"-0.015": 0.389997166819,
			"-0.014": 0.46298311694,
			"-0.013": 0.586325280685,
			"-0.012": 0.45423580709,
			"-0.011": 0.886083556199,
			"-0.01": 0.775283579332,
			"-0.009": 2.93678266248,
			"-0.008": 3.6167563852,
			"-0.007": 3.06053485361,
			"-0.006": 5.28277450777,
			"-0.005": 10.3541029828,
			"-0.004": 20.1440324193,
			"-0.003": 25.9324597996,
			"-0.002": 31.0971554169,
			"-0.001": 35.5179594101,
			"0.0": 33.0197972831,
			"0.001": 26.6452575702,
			"0.002": 19.3877518975,
			"0.003": 8.4128588844,
			"0.004": 10.368761419,
			"0.005": 8.42094677241,
			"0.006": 6.54126591565,
			"0.007": 2.97371847124,
			"0.008": 2.63087142961,
			"0.009": 4.13499812166,
			"0.01": 5.06404166243,
			"0.011": 4.94595309043,
			"0.012": 3.89580318828,
			"0.013": 1.04141127926,
			"0.014": 0.0,
			"0.015": 0.0,
			"0.016": 0.0,
			"0.017": 0.0,
			"0.018": 0.0,
			"0.019": 0.0,
			"0.02": 0.0,
			"0.021": 0.0,
			"0.022": 0.0,
			"0.023": 0.0,
			"0.024": 0.0,
			"0.025": 0.0
		}
	}
}
