{
	 "smiles": "OC(=O)CCC1=CC(Br)=C(O)C(Br)=C1", 
	 "Tm": 382.15, 
	 "num_atms": 22, 
	 "gaussian": { 
		 "optdone": 1, 
		 "sigma_profile": "yes", 
		 "theory": "DFT", 
		 "functional": "B3LYP", 
		 "basiset": "6-31G**", 
		 "properties": { 
			 "R2extent": 6567.0961, 
			 "electric_dipole_moment_norm": 2.70683182706, 
			 "electric_quadrupole_moment_norm": 12.1557951204, 
			 "total_energy": -5716.27542707, 
			 "HOMO_LUMO_gap": 0.20401, 
			 "cosmo_polarized_energy": -13.78, 
			 "cosmo_cavitation_energy": 31.23, 
			 "cosmo_dispersion_energy": -22.88, 
			 "cosmo_repulsion_energy": 1.84, 
			 "cosmo_total_nonelectrostatic_energy": 10.19, 
			 "SMD_solvation_energy": 4.41 
		},
		"coords": [
			{
				"x": 0.7413275107,
				"y": 1.4747184217,
				"z": 2.534719517,
				"element": "O" 
			},
			{
				"x": 1.8601540688,
				"y": 0.8030989359,
				"z": 2.1536943798,
				"element": "C" 
			},
			{
				"x": 2.2558040583,
				"y": -0.1785624668,
				"z": 2.7389623168,
				"element": "O" 
			},
			{
				"x": 2.5419510752,
				"y": 1.4542279995,
				"z": 0.9674455542,
				"element": "C" 
			},
			{
				"x": 1.5955163036,
				"y": 1.8974043395,
				"z": -0.1699264709,
				"element": "C" 
			},
			{
				"x": 0.8630031245,
				"y": 0.7510634481,
				"z": -0.837408462,
				"element": "C" 
			},
			{
				"x": 1.4632488345,
				"y": 0.0255975238,
				"z": -1.8719366505,
				"element": "C" 
			},
			{
				"x": 0.7914363758,
				"y": -1.0391248078,
				"z": -2.4605922793,
				"element": "C" 
			},
			{
				"x": 1.6227304562,
				"y": -2.0219216303,
				"z": -3.8828533819,
				"element": "Br" 
			},
			{
				"x": -0.4954421089,
				"y": -1.4308085037,
				"z": -2.0580283849,
				"element": "C" 
			},
			{
				"x": -1.1743013854,
				"y": -2.455878279,
				"z": -2.6122030721,
				"element": "O" 
			},
			{
				"x": -1.0848663051,
				"y": -0.6906901526,
				"z": -1.0206584335,
				"element": "C" 
			},
			{
				"x": -2.8318146157,
				"y": -1.160192653,
				"z": -0.4279084915,
				"element": "Br" 
			},
			{
				"x": -0.4213310168,
				"y": 0.3760599034,
				"z": -0.4235439979,
				"element": "C" 
			},
			{
				"x": 0.3907446598,
				"y": 0.9944298759,
				"z": 3.3038899267,
				"element": "H" 
			},
			{
				"x": 3.0755618069,
				"y": 2.3347406793,
				"z": 1.3491285453,
				"element": "H" 
			},
			{
				"x": 3.2923365305,
				"y": 0.7463809163,
				"z": 0.6080807167,
				"element": "H" 
			},
			{
				"x": 2.1958155463,
				"y": 2.4295228751,
				"z": -0.9161852142,
				"element": "H" 
			},
			{
				"x": 0.8737405584,
				"y": 2.6159957194,
				"z": 0.2280728006,
				"element": "H" 
			},
			{
				"x": 2.4541207619,
				"y": 0.289194803,
				"z": -2.2266195724,
				"element": "H" 
			},
			{
				"x": -0.6213942101,
				"y": -2.8526310454,
				"z": -3.305243755,
				"element": "H" 
			},
			{
				"x": -0.9104420294,
				"y": 0.9184740977,
				"z": 0.3773144089,
				"element": "H" 
			}
		],
		 "valence_orbital": [ 
			{
				"type": "occ",
				"energy": -0.30249,
				"method": "rhf"
			},
			{
				"type": "occ",
				"energy": -0.28548,
				"method": "rhf"
			},
			{
				"type": "occ",
				"energy": -0.27811,
				"method": "rhf"
			},
			{
				"type": "occ",
				"energy": -0.24983,
				"method": "rhf"
			},
			{
				"type": "occ",
				"energy": -0.23235,
				"method": "rhf"
			},
			{
				"type": "unocc",
				"energy": -0.02834,
				"method": "rhf"
			},
			{
				"type": "unocc",
				"energy": -0.02317,
				"method": "rhf"
			},
			{
				"type": "unocc",
				"energy": -0.01177,
				"method": "rhf"
			},
			{
				"type": "unocc",
				"energy": 0.00286,
				"method": "rhf"
			},
			{
				"type": "unocc",
				"energy": 0.0227,
				"method": "rhf"
			}
		],
		"cosmo_sigma_profile": { 
			"-0.025": 0.0,
			"-0.024": 0.0,
			"-0.023": 0.0,
			"-0.022": 0.0,
			"-0.021": 0.0,
			"-0.02": 0.0,
			"-0.019": 0.0,
			"-0.018": 0.545805565743,
			"-0.017": 0.820124035215,
			"-0.016": 1.11741896542,
			"-0.015": 0.927231882154,
			"-0.014": 1.44460621302,
			"-0.013": 1.29665737231,
			"-0.012": 1.01938906156,
			"-0.011": 2.02799056589,
			"-0.01": 1.73403565038,
			"-0.009": 1.37428554105,
			"-0.008": 1.73893437133,
			"-0.007": 6.58903706127,
			"-0.006": 9.54977288229,
			"-0.005": 15.2550518432,
			"-0.004": 16.9660849948,
			"-0.003": 17.2973426853,
			"-0.002": 16.6593846712,
			"-0.001": 16.1499506314,
			"0.0": 20.1534189361,
			"0.001": 23.3329235332,
			"0.002": 25.3649744139,
			"0.003": 19.0102857008,
			"0.004": 15.8473580882,
			"0.005": 6.80529878997,
			"0.006": 5.2086828156,
			"0.007": 4.2441485626,
			"0.008": 4.3025520332,
			"0.009": 4.13904290206,
			"0.01": 4.260751824,
			"0.011": 4.01027380054,
			"0.012": 4.70232008045,
			"0.013": 0.98718787993,
			"0.014": 0.0,
			"0.015": 0.0,
			"0.016": 0.0,
			"0.017": 0.0,
			"0.018": 0.0,
			"0.019": 0.0,
			"0.02": 0.0,
			"0.021": 0.0,
			"0.022": 0.0,
			"0.023": 0.0,
			"0.024": 0.0,
			"0.025": 0.0
		}
	}
}
