{
	 "smiles": "CC1=CC=CC(N)=C1N", 
	 "Tm": 336.65, 
	 "num_atms": 19, 
	 "gaussian": { 
		 "optdone": 1, 
		 "sigma_profile": "yes", 
		 "theory": "DFT", 
		 "functional": "B3LYP", 
		 "basiset": "6-31G**", 
		 "properties": { 
			 "R2extent": 1742.3778, 
			 "electric_dipole_moment_norm": 2.38481646044, 
			 "electric_quadrupole_moment_norm": 8.65132206891, 
			 "total_energy": -382.282509223, 
			 "HOMO_LUMO_gap": 0.20332, 
			 "cosmo_polarized_energy": -10.7, 
			 "cosmo_cavitation_energy": 21.6, 
			 "cosmo_dispersion_energy": -16.33, 
			 "cosmo_repulsion_energy": 1.34, 
			 "cosmo_total_nonelectrostatic_energy": 6.61, 
			 "SMD_solvation_energy": 3.71 
		},
		"coords": [
			{
				"x": 1.698831705,
				"y": 1.454621581,
				"z": 2.2154625984,
				"element": "C" 
			},
			{
				"x": 1.8415827982,
				"y": 0.76836091,
				"z": 0.8800541796,
				"element": "C" 
			},
			{
				"x": 2.8671303876,
				"y": -0.1527340432,
				"z": 0.6407329794,
				"element": "C" 
			},
			{
				"x": 2.9695637587,
				"y": -0.8186428029,
				"z": -0.5792131194,
				"element": "C" 
			},
			{
				"x": 2.0554167373,
				"y": -0.5352868649,
				"z": -1.5944904132,
				"element": "C" 
			},
			{
				"x": 1.0314365281,
				"y": 0.3921317249,
				"z": -1.3934094177,
				"element": "C" 
			},
			{
				"x": 0.0690194447,
				"y": 0.698610735,
				"z": -2.4003198778,
				"element": "N" 
			},
			{
				"x": 0.9039848013,
				"y": 1.0317432719,
				"z": -0.1387239557,
				"element": "C" 
			},
			{
				"x": -0.1877214041,
				"y": 1.8715517076,
				"z": 0.10171303,
				"element": "N" 
			},
			{
				"x": 2.4218130653,
				"y": 1.0665597726,
				"z": 2.9375355413,
				"element": "H" 
			},
			{
				"x": 1.8622431888,
				"y": 2.5400051909,
				"z": 2.1448561325,
				"element": "H" 
			},
			{
				"x": 0.69169503,
				"y": 1.3121332538,
				"z": 2.6260625122,
				"element": "H" 
			},
			{
				"x": 3.5824187012,
				"y": -0.3580532776,
				"z": 1.4332056321,
				"element": "H" 
			},
			{
				"x": 3.7619207285,
				"y": -1.5419119692,
				"z": -0.7462187116,
				"element": "H" 
			},
			{
				"x": 2.1421884478,
				"y": -1.0242833901,
				"z": -2.5626642083,
				"element": "H" 
			},
			{
				"x": 0.1443914467,
				"y": 1.6660080514,
				"z": -2.7087807599,
				"element": "H" 
			},
			{
				"x": 0.1838288255,
				"y": 0.1049213411,
				"z": -3.2145163729,
				"element": "H" 
			},
			{
				"x": -0.8094554122,
				"y": 1.99640836,
				"z": -0.6830237571,
				"element": "H" 
			},
			{
				"x": -0.0147887784,
				"y": 2.7126564477,
				"z": 0.6315379883,
				"element": "H" 
			}
		],
		 "valence_orbital": [ 
			{
				"type": "occ",
				"energy": -0.33271,
				"method": "rhf"
			},
			{
				"type": "occ",
				"energy": -0.292,
				"method": "rhf"
			},
			{
				"type": "occ",
				"energy": -0.28397,
				"method": "rhf"
			},
			{
				"type": "occ",
				"energy": -0.21248,
				"method": "rhf"
			},
			{
				"type": "occ",
				"energy": -0.18203,
				"method": "rhf"
			},
			{
				"type": "unocc",
				"energy": 0.02129,
				"method": "rhf"
			},
			{
				"type": "unocc",
				"energy": 0.02988,
				"method": "rhf"
			},
			{
				"type": "unocc",
				"energy": 0.07243,
				"method": "rhf"
			},
			{
				"type": "unocc",
				"energy": 0.09902,
				"method": "rhf"
			},
			{
				"type": "unocc",
				"energy": 0.10935,
				"method": "rhf"
			}
		],
		"cosmo_sigma_profile": { 
			"-0.025": 0.0,
			"-0.024": 0.0,
			"-0.023": 0.0,
			"-0.022": 0.0,
			"-0.021": 0.0,
			"-0.02": 0.0,
			"-0.019": 0.0,
			"-0.018": 0.0,
			"-0.017": 0.0,
			"-0.016": 0.0,
			"-0.015": 0.0,
			"-0.014": 0.0,
			"-0.013": 0.0,
			"-0.012": 0.511689059388,
			"-0.011": 3.1394398721,
			"-0.01": 5.24557347965,
			"-0.009": 5.56279438617,
			"-0.008": 5.40997349045,
			"-0.007": 5.88899649271,
			"-0.006": 4.32013493385,
			"-0.005": 6.35300339567,
			"-0.004": 10.1760781673,
			"-0.003": 12.6229152767,
			"-0.002": 12.740488156,
			"-0.001": 11.9522088669,
			"0.0": 10.8106205278,
			"0.001": 11.6209188448,
			"0.002": 7.96049160814,
			"0.003": 5.73804503339,
			"0.004": 6.92203540254,
			"0.005": 7.48324860984,
			"0.006": 7.74854171859,
			"0.007": 9.02573032258,
			"0.008": 7.92645664174,
			"0.009": 3.89593318308,
			"0.01": 1.02642507829,
			"0.011": 0.785203895296,
			"0.012": 1.65517979604,
			"0.013": 1.30049557669,
			"0.014": 0.879095447242,
			"0.015": 0.741065471008,
			"0.016": 0.116844893055,
			"0.017": 0.0,
			"0.018": 0.0,
			"0.019": 0.0,
			"0.02": 0.0,
			"0.021": 0.0,
			"0.022": 0.0,
			"0.023": 0.0,
			"0.024": 0.0,
			"0.025": 0.0
		}
	}
}
