{
	 "smiles": "COC1=C(OC)C(NS(C)(=O)=O)=CC(=C1)C(O)=O", 
	 "Tm": 488.15, 
	 "num_atms": 31, 
	 "gaussian": { 
		 "optdone": 1, 
		 "sigma_profile": "yes", 
		 "theory": "DFT", 
		 "functional": "B3LYP", 
		 "basiset": "6-31G**", 
		 "properties": { 
			 "R2extent": 6519.4949, 
			 "electric_dipole_moment_norm": 4.44393604139, 
			 "electric_quadrupole_moment_norm": 14.7023872987, 
			 "total_energy": -1293.10191528, 
			 "HOMO_LUMO_gap": 0.18265, 
			 "cosmo_polarized_energy": -20.9, 
			 "cosmo_cavitation_energy": 37.29, 
			 "cosmo_dispersion_energy": -26.12, 
			 "cosmo_repulsion_energy": 2.01, 
			 "cosmo_total_nonelectrostatic_energy": 13.18, 
			 "SMD_solvation_energy": 8.63 
		},
		"coords": [
			{
				"x": -3.6695416394,
				"y": -1.0540506436,
				"z": 1.8239737369,
				"element": "C" 
			},
			{
				"x": -2.6347495308,
				"y": -1.1626450201,
				"z": 2.8120048639,
				"element": "O" 
			},
			{
				"x": -1.4570544764,
				"y": -0.5331802229,
				"z": 2.4785618539,
				"element": "C" 
			},
			{
				"x": -0.608416396,
				"y": -1.0782437603,
				"z": 1.5017811003,
				"element": "C" 
			},
			{
				"x": -0.9254329132,
				"y": -2.223780322,
				"z": 0.8082702986,
				"element": "O" 
			},
			{
				"x": -0.9761931025,
				"y": -3.4296064485,
				"z": 1.5946715295,
				"element": "C" 
			},
			{
				"x": 0.5957699227,
				"y": -0.4256435821,
				"z": 1.1638206565,
				"element": "C" 
			},
			{
				"x": 1.4032671454,
				"y": -1.0605625397,
				"z": 0.1958051708,
				"element": "N" 
			},
			{
				"x": 2.3947549781,
				"y": -0.2520392157,
				"z": -0.9258557711,
				"element": "S" 
			},
			{
				"x": 3.9976007974,
				"y": -0.2979313471,
				"z": -0.1111031098,
				"element": "C" 
			},
			{
				"x": 1.997200101,
				"y": 1.1490374199,
				"z": -1.0533308369,
				"element": "O" 
			},
			{
				"x": 2.4350329169,
				"y": -1.1518912575,
				"z": -2.0793967148,
				"element": "O" 
			},
			{
				"x": 0.9501577256,
				"y": 0.746811227,
				"z": 1.8311426712,
				"element": "C" 
			},
			{
				"x": 0.1111686139,
				"y": 1.266191953,
				"z": 2.8229391155,
				"element": "C" 
			},
			{
				"x": -1.0944942571,
				"y": 0.6340598236,
				"z": 3.1464475878,
				"element": "C" 
			},
			{
				"x": 0.5573434689,
				"y": 2.506948904,
				"z": 3.5098310646,
				"element": "C" 
			},
			{
				"x": -0.3391062915,
				"y": 2.9623449977,
				"z": 4.4203314286,
				"element": "O" 
			},
			{
				"x": 1.6118872397,
				"y": 3.0749214073,
				"z": 3.3029752612,
				"element": "O" 
			},
			{
				"x": -4.5337928557,
				"y": -1.5837929217,
				"z": 2.2288680962,
				"element": "H" 
			},
			{
				"x": -3.3661093971,
				"y": -1.5110856075,
				"z": 0.876537016,
				"element": "H" 
			},
			{
				"x": -3.9333732797,
				"y": -0.0033110779,
				"z": 1.6545334603,
				"element": "H" 
			},
			{
				"x": -0.0003342366,
				"y": -3.6315268873,
				"z": 2.0509890061,
				"element": "H" 
			},
			{
				"x": -1.2272728324,
				"y": -4.2313464272,
				"z": 0.8983815844,
				"element": "H" 
			},
			{
				"x": -1.738677352,
				"y": -3.3535151991,
				"z": 2.3730882857,
				"element": "H" 
			},
			{
				"x": 0.9278012364,
				"y": -1.8310634653,
				"z": -0.2684117544,
				"element": "H" 
			},
			{
				"x": 4.2865072438,
				"y": -1.3391289854,
				"z": 0.0311071609,
				"element": "H" 
			},
			{
				"x": 4.7011408352,
				"y": 0.2123817684,
				"z": -0.7715056131,
				"element": "H" 
			},
			{
				"x": 3.9311627782,
				"y": 0.2246043373,
				"z": 0.8440507046,
				"element": "H" 
			},
			{
				"x": 1.8580885764,
				"y": 1.2852984041,
				"z": 1.593550133,
				"element": "H" 
			},
			{
				"x": -1.7537535067,
				"y": 1.0342862523,
				"z": 3.9064510645,
				"element": "H" 
			},
			{
				"x": 0.056818487,
				"y": 3.7634584364,
				"z": 4.8005909492,
				"element": "H" 
			}
		],
		 "valence_orbital": [ 
			{
				"type": "occ",
				"energy": -0.30519,
				"method": "rhf"
			},
			{
				"type": "occ",
				"energy": -0.28602,
				"method": "rhf"
			},
			{
				"type": "occ",
				"energy": -0.27471,
				"method": "rhf"
			},
			{
				"type": "occ",
				"energy": -0.24803,
				"method": "rhf"
			},
			{
				"type": "occ",
				"energy": -0.23318,
				"method": "rhf"
			},
			{
				"type": "unocc",
				"energy": -0.05053,
				"method": "rhf"
			},
			{
				"type": "unocc",
				"energy": -0.01117,
				"method": "rhf"
			},
			{
				"type": "unocc",
				"energy": 0.04445,
				"method": "rhf"
			},
			{
				"type": "unocc",
				"energy": 0.0565,
				"method": "rhf"
			},
			{
				"type": "unocc",
				"energy": 0.06983,
				"method": "rhf"
			}
		],
		"cosmo_sigma_profile": { 
			"-0.025": 0.0,
			"-0.024": 0.0,
			"-0.023": 0.0,
			"-0.022": 0.0,
			"-0.021": 0.0,
			"-0.02": 0.0,
			"-0.019": 0.182715339219,
			"-0.018": 0.715638367444,
			"-0.017": 0.868862796313,
			"-0.016": 0.827052829233,
			"-0.015": 1.11879682167,
			"-0.014": 0.614495356229,
			"-0.013": 0.225011853107,
			"-0.012": 0.549573487405,
			"-0.011": 1.16190220559,
			"-0.01": 2.01534622973,
			"-0.009": 5.76429024647,
			"-0.008": 7.82659772877,
			"-0.007": 8.24504921462,
			"-0.006": 13.8090711348,
			"-0.005": 19.1939946104,
			"-0.004": 24.2708968758,
			"-0.003": 27.8612250783,
			"-0.002": 22.3029621736,
			"-0.001": 17.4390795399,
			"0.0": 18.715236898,
			"0.001": 18.1760644643,
			"0.002": 19.4630530552,
			"0.003": 10.3797217437,
			"0.004": 8.03322290353,
			"0.005": 7.00956563949,
			"0.006": 7.69691542131,
			"0.007": 7.78254099529,
			"0.008": 7.29716514628,
			"0.009": 5.81106357483,
			"0.01": 12.1632050443,
			"0.011": 14.1727561562,
			"0.012": 4.84657409181,
			"0.013": 0.0143529923003,
			"0.014": 0.0,
			"0.015": 0.0,
			"0.016": 0.0,
			"0.017": 0.0,
			"0.018": 0.0,
			"0.019": 0.0,
			"0.02": 0.0,
			"0.021": 0.0,
			"0.022": 0.0,
			"0.023": 0.0,
			"0.024": 0.0,
			"0.025": 0.0
		}
	}
}
