{
	 "smiles": "OCCCCCCCCCCl", 
	 "Tm": 301.15, 
	 "num_atms": 30, 
	 "gaussian": { 
		 "optdone": 1, 
		 "sigma_profile": "yes", 
		 "theory": "DFT", 
		 "functional": "B3LYP", 
		 "basiset": "6-31G**", 
		 "properties": { 
			 "R2extent": 5113.9196, 
			 "electric_dipole_moment_norm": 3.63467349428, 
			 "electric_quadrupole_moment_norm": 13.5112774352, 
			 "total_energy": -889.839097508, 
			 "HOMO_LUMO_gap": 0.29164, 
			 "cosmo_polarized_energy": -8.94, 
			 "cosmo_cavitation_energy": 32.46, 
			 "cosmo_dispersion_energy": -22.88, 
			 "cosmo_repulsion_energy": 1.9, 
			 "cosmo_total_nonelectrostatic_energy": 11.47, 
			 "SMD_solvation_energy": 4.19 
		},
		"coords": [
			{
				"x": 0.1340914793,
				"y": -3.2714548768,
				"z": 1.0465725397,
				"element": "O" 
			},
			{
				"x": 0.7519461577,
				"y": -2.6107972093,
				"z": 2.1482905968,
				"element": "C" 
			},
			{
				"x": 0.268543959,
				"y": -1.175685793,
				"z": 2.3817697454,
				"element": "C" 
			},
			{
				"x": 0.6554942983,
				"y": -0.1559597185,
				"z": 1.2951977556,
				"element": "C" 
			},
			{
				"x": 0.0302276532,
				"y": -0.3581699532,
				"z": -0.0986464477,
				"element": "C" 
			},
			{
				"x": -1.5070244369,
				"y": -0.2984677438,
				"z": -0.1563457371,
				"element": "C" 
			},
			{
				"x": -2.1540202596,
				"y": 1.0055312347,
				"z": 0.3455083036,
				"element": "C" 
			},
			{
				"x": -1.7434450476,
				"y": 2.2876017228,
				"z": -0.4013636707,
				"element": "C" 
			},
			{
				"x": -2.1441660495,
				"y": 2.3013586711,
				"z": -1.8859672091,
				"element": "C" 
			},
			{
				"x": -1.7966111654,
				"y": 3.6310312189,
				"z": -2.5411898912,
				"element": "C" 
			},
			{
				"x": -2.2627937731,
				"y": 3.664609812,
				"z": -4.3016531368,
				"element": "Cl" 
			},
			{
				"x": -0.8091791133,
				"y": -3.3454596069,
				"z": 1.2406074754,
				"element": "H" 
			},
			{
				"x": 0.6197571115,
				"y": -3.1948686201,
				"z": 3.073380682,
				"element": "H" 
			},
			{
				"x": 1.8243492588,
				"y": -2.610315543,
				"z": 1.9214290695,
				"element": "H" 
			},
			{
				"x": -0.8208247695,
				"y": -1.1861081,
				"z": 2.5323155009,
				"element": "H" 
			},
			{
				"x": 0.6931317592,
				"y": -0.8406191903,
				"z": 3.3382751243,
				"element": "H" 
			},
			{
				"x": 0.4096852158,
				"y": 0.8481768389,
				"z": 1.6651174173,
				"element": "H" 
			},
			{
				"x": 1.7487372139,
				"y": -0.1696274375,
				"z": 1.1862769518,
				"element": "H" 
			},
			{
				"x": 0.4487291541,
				"y": 0.4019829456,
				"z": -0.7716960062,
				"element": "H" 
			},
			{
				"x": 0.3452106991,
				"y": -1.3288649021,
				"z": -0.492018629,
				"element": "H" 
			},
			{
				"x": -1.8201615435,
				"y": -0.4877019233,
				"z": -1.1908574644,
				"element": "H" 
			},
			{
				"x": -1.9219139353,
				"y": -1.1316746852,
				"z": 0.4253159769,
				"element": "H" 
			},
			{
				"x": -3.2456403513,
				"y": 0.899129686,
				"z": 0.2852898472,
				"element": "H" 
			},
			{
				"x": -1.9267501629,
				"y": 1.1405325687,
				"z": 1.4105744195,
				"element": "H" 
			},
			{
				"x": -0.6595495504,
				"y": 2.4397995249,
				"z": -0.314712188,
				"element": "H" 
			},
			{
				"x": -2.2096260231,
				"y": 3.1452047325,
				"z": 0.1022603357,
				"element": "H" 
			},
			{
				"x": -1.6394681522,
				"y": 1.4954977727,
				"z": -2.4290651502,
				"element": "H" 
			},
			{
				"x": -3.2217819123,
				"y": 2.1224572946,
				"z": -1.9830699316,
				"element": "H" 
			},
			{
				"x": -0.7237112157,
				"y": 3.8313221102,
				"z": -2.5099355645,
				"element": "H" 
			},
			{
				"x": -2.3243364984,
				"y": 4.4650391691,
				"z": -2.074160715,
				"element": "H" 
			}
		],
		 "valence_orbital": [ 
			{
				"type": "occ",
				"energy": -0.31029,
				"method": "rhf"
			},
			{
				"type": "occ",
				"energy": -0.30615,
				"method": "rhf"
			},
			{
				"type": "occ",
				"energy": -0.28882,
				"method": "rhf"
			},
			{
				"type": "occ",
				"energy": -0.28756,
				"method": "rhf"
			},
			{
				"type": "occ",
				"energy": -0.26286,
				"method": "rhf"
			},
			{
				"type": "unocc",
				"energy": 0.02878,
				"method": "rhf"
			},
			{
				"type": "unocc",
				"energy": 0.05754,
				"method": "rhf"
			},
			{
				"type": "unocc",
				"energy": 0.08036,
				"method": "rhf"
			},
			{
				"type": "unocc",
				"energy": 0.10176,
				"method": "rhf"
			},
			{
				"type": "unocc",
				"energy": 0.10414,
				"method": "rhf"
			}
		],
		"cosmo_sigma_profile": { 
			"-0.025": 0.0,
			"-0.024": 0.0,
			"-0.023": 0.0,
			"-0.022": 0.0,
			"-0.021": 0.0,
			"-0.02": 0.0,
			"-0.019": 0.0,
			"-0.018": 0.0,
			"-0.017": 0.0,
			"-0.016": 0.0,
			"-0.015": 0.14171520453,
			"-0.014": 0.791001092904,
			"-0.013": 0.715300047754,
			"-0.012": 0.910826754297,
			"-0.011": 0.811972696295,
			"-0.01": 0.844766441892,
			"-0.009": 1.32238166813,
			"-0.008": 1.07890483932,
			"-0.007": 1.25842290529,
			"-0.006": 5.81528719362,
			"-0.005": 7.20814877739,
			"-0.004": 9.64668805141,
			"-0.003": 22.9205473644,
			"-0.002": 40.4130763111,
			"-0.001": 38.7949066862,
			"0.0": 31.4523943066,
			"0.001": 25.179207326,
			"0.002": 13.837381225,
			"0.003": 5.45827447093,
			"0.004": 6.08712836471,
			"0.005": 7.48301036873,
			"0.006": 7.16321702982,
			"0.007": 11.4056255667,
			"0.008": 2.42946868688,
			"0.009": 1.25874886398,
			"0.01": 1.05794016291,
			"0.011": 0.838205927599,
			"0.012": 1.67495455872,
			"0.013": 1.11182892432,
			"0.014": 1.40805778143,
			"0.015": 1.13677064058,
			"0.016": 0.0039893764996,
			"0.017": 0.0,
			"0.018": 0.0,
			"0.019": 0.0,
			"0.02": 0.0,
			"0.021": 0.0,
			"0.022": 0.0,
			"0.023": 0.0,
			"0.024": 0.0,
			"0.025": 0.0
		}
	}
}
