{
	 "smiles": "OC(=O)C1=CC2=C(OC1)C=CC(Cl)=C2", 
	 "Tm": 518.15, 
	 "num_atms": 21, 
	 "gaussian": { 
		 "optdone": 1, 
		 "sigma_profile": "yes", 
		 "theory": "DFT", 
		 "functional": "B3LYP", 
		 "basiset": "6-31G**", 
		 "properties": { 
			 "R2extent": 4805.5198, 
			 "electric_dipole_moment_norm": 2.62753763436, 
			 "electric_quadrupole_moment_norm": 17.5052658357, 
			 "total_energy": -1071.13405435, 
			 "HOMO_LUMO_gap": 0.14604, 
			 "cosmo_polarized_energy": -15.54, 
			 "cosmo_cavitation_energy": 27.54, 
			 "cosmo_dispersion_energy": -20.7, 
			 "cosmo_repulsion_energy": 1.61, 
			 "cosmo_total_nonelectrostatic_energy": 8.46, 
			 "SMD_solvation_energy": 5.59 
		},
		"coords": [
			{
				"x": -0.8001069106,
				"y": 0.6210628529,
				"z": 3.6012105515,
				"element": "O" 
			},
			{
				"x": 0.4079771326,
				"y": 0.5087080817,
				"z": 2.9888905965,
				"element": "C" 
			},
			{
				"x": 1.4041162502,
				"y": 0.9544003852,
				"z": 3.5154675423,
				"element": "O" 
			},
			{
				"x": 0.461639024,
				"y": -0.1894424667,
				"z": 1.6798379136,
				"element": "C" 
			},
			{
				"x": -0.471195033,
				"y": -1.0479433303,
				"z": 1.2197159262,
				"element": "C" 
			},
			{
				"x": -0.2862806982,
				"y": -1.7155490892,
				"z": -0.0577689281,
				"element": "C" 
			},
			{
				"x": 0.7536147213,
				"y": -1.2518131283,
				"z": -0.8929945107,
				"element": "C" 
			},
			{
				"x": 1.5616298126,
				"y": -0.2279537588,
				"z": -0.5088027321,
				"element": "O" 
			},
			{
				"x": 1.750179918,
				"y": -0.0366369871,
				"z": 0.9042495817,
				"element": "C" 
			},
			{
				"x": 0.9244155136,
				"y": -1.788503411,
				"z": -2.1695472289,
				"element": "C" 
			},
			{
				"x": 0.0827337861,
				"y": -2.8062463898,
				"z": -2.6145621491,
				"element": "C" 
			},
			{
				"x": -0.9343542831,
				"y": -3.2806409443,
				"z": -1.7812261848,
				"element": "C" 
			},
			{
				"x": -1.9871904232,
				"y": -4.5697195356,
				"z": -2.3446630959,
				"element": "Cl" 
			},
			{
				"x": -1.1288244076,
				"y": -2.7391251315,
				"z": -0.5157858513,
				"element": "C" 
			},
			{
				"x": -1.5091365872,
				"y": 0.3889410611,
				"z": 2.985693361,
				"element": "H" 
			},
			{
				"x": -1.3765844354,
				"y": -1.2722888012,
				"z": 1.7807045106,
				"element": "H" 
			},
			{
				"x": 2.5027510335,
				"y": -0.7518096426,
				"z": 1.2708370569,
				"element": "H" 
			},
			{
				"x": 2.1631382707,
				"y": 0.9656752507,
				"z": 1.0198506183,
				"element": "H" 
			},
			{
				"x": 1.7190179058,
				"y": -1.4041352893,
				"z": -2.7996502563,
				"element": "H" 
			},
			{
				"x": 0.2171351213,
				"y": -3.2354144885,
				"z": -3.6012003585,
				"element": "H" 
			},
			{
				"x": -1.9322757112,
				"y": -3.1030652373,
				"z": 0.1165436371,
				"element": "H" 
			}
		],
		 "valence_orbital": [ 
			{
				"type": "occ",
				"energy": -0.32216,
				"method": "rhf"
			},
			{
				"type": "occ",
				"energy": -0.30798,
				"method": "rhf"
			},
			{
				"type": "occ",
				"energy": -0.28408,
				"method": "rhf"
			},
			{
				"type": "occ",
				"energy": -0.26402,
				"method": "rhf"
			},
			{
				"type": "occ",
				"energy": -0.22996,
				"method": "rhf"
			},
			{
				"type": "unocc",
				"energy": -0.08392,
				"method": "rhf"
			},
			{
				"type": "unocc",
				"energy": -0.02098,
				"method": "rhf"
			},
			{
				"type": "unocc",
				"energy": 0.00023,
				"method": "rhf"
			},
			{
				"type": "unocc",
				"energy": 0.02015,
				"method": "rhf"
			},
			{
				"type": "unocc",
				"energy": 0.04822,
				"method": "rhf"
			}
		],
		"cosmo_sigma_profile": { 
			"-0.025": 0.0,
			"-0.024": 0.0,
			"-0.023": 0.0,
			"-0.022": 0.0,
			"-0.021": 0.0,
			"-0.02": 0.0166707529895,
			"-0.019": 0.569255003205,
			"-0.018": 1.02830766452,
			"-0.017": 0.968466090805,
			"-0.016": 1.09198450078,
			"-0.015": 1.03700998402,
			"-0.014": 1.0643996661,
			"-0.013": 0.747335393034,
			"-0.012": 1.66064512487,
			"-0.011": 1.12351187194,
			"-0.01": 1.79620875516,
			"-0.009": 3.34549413969,
			"-0.008": 4.61227399342,
			"-0.007": 7.44326246312,
			"-0.006": 11.4808739574,
			"-0.005": 11.5443884277,
			"-0.004": 9.89085632988,
			"-0.003": 11.7646594766,
			"-0.002": 12.0143237007,
			"-0.001": 13.6998146578,
			"0.0": 15.1022444339,
			"0.001": 19.877519854,
			"0.002": 22.3724741658,
			"0.003": 15.1540759165,
			"0.004": 12.2759845531,
			"0.005": 9.78492241417,
			"0.006": 3.37528009345,
			"0.007": 3.04720401602,
			"0.008": 4.70880091494,
			"0.009": 4.42768086842,
			"0.01": 5.40910142911,
			"0.011": 5.07291417048,
			"0.012": 4.22166364891,
			"0.013": 1.51985229836,
			"0.014": 0.055915542043,
			"0.015": 0.0,
			"0.016": 0.0,
			"0.017": 0.0,
			"0.018": 0.0,
			"0.019": 0.0,
			"0.02": 0.0,
			"0.021": 0.0,
			"0.022": 0.0,
			"0.023": 0.0,
			"0.024": 0.0,
			"0.025": 0.0
		}
	}
}
