{
	 "smiles": "CC1=CC=C2N=C(C)C=CC2=C1", 
	 "Tm": 331.65, 
	 "num_atms": 23, 
	 "gaussian": { 
		 "optdone": 1, 
		 "sigma_profile": "yes", 
		 "theory": "DFT", 
		 "functional": "B3LYP", 
		 "basiset": "6-31G**", 
		 "properties": { 
			 "R2extent": 2353.7041, 
			 "electric_dipole_moment_norm": 1.79590265883, 
			 "electric_quadrupole_moment_norm": 8.11303631941, 
			 "total_energy": -480.576464863, 
			 "HOMO_LUMO_gap": 0.18019, 
			 "cosmo_polarized_energy": -6.83, 
			 "cosmo_cavitation_energy": 26.23, 
			 "cosmo_dispersion_energy": -19.5, 
			 "cosmo_repulsion_energy": 1.54, 
			 "cosmo_total_nonelectrostatic_energy": 8.27, 
			 "SMD_solvation_energy": 2.99 
		},
		"coords": [
			{
				"x": -2.8034384931,
				"y": 2.3034564588,
				"z": 0.8396834819,
				"element": "C" 
			},
			{
				"x": -1.7134145578,
				"y": 1.2946707275,
				"z": 0.5702640183,
				"element": "C" 
			},
			{
				"x": -1.2691148501,
				"y": 0.4363983456,
				"z": 1.6162901725,
				"element": "C" 
			},
			{
				"x": -0.278723369,
				"y": -0.4956859256,
				"z": 1.4117381763,
				"element": "C" 
			},
			{
				"x": 0.3349173557,
				"y": -0.6295707658,
				"z": 0.138089061,
				"element": "C" 
			},
			{
				"x": 1.3146255843,
				"y": -1.5677009052,
				"z": -0.0225524047,
				"element": "N" 
			},
			{
				"x": 1.8846315671,
				"y": -1.6911496069,
				"z": -1.2080100516,
				"element": "C" 
			},
			{
				"x": 2.9638816136,
				"y": -2.7350627506,
				"z": -1.3578652645,
				"element": "C" 
			},
			{
				"x": 1.5155488516,
				"y": -0.8827207667,
				"z": -2.3239361735,
				"element": "C" 
			},
			{
				"x": 0.5330994599,
				"y": 0.0643242929,
				"z": -2.1790774621,
				"element": "C" 
			},
			{
				"x": -0.1013410767,
				"y": 0.2250303263,
				"z": -0.9198342226,
				"element": "C" 
			},
			{
				"x": -1.1257115298,
				"y": 1.1756154319,
				"z": -0.673329568,
				"element": "C" 
			},
			{
				"x": -3.0375533389,
				"y": 2.8889939045,
				"z": -0.0534382118,
				"element": "H" 
			},
			{
				"x": -2.5113544843,
				"y": 3.0022127361,
				"z": 1.6326059087,
				"element": "H" 
			},
			{
				"x": -3.7262415251,
				"y": 1.812753508,
				"z": 1.1712630093,
				"element": "H" 
			},
			{
				"x": -1.7288282806,
				"y": 0.5260966407,
				"z": 2.5978262089,
				"element": "H" 
			},
			{
				"x": 0.0616189614,
				"y": -1.1508947051,
				"z": 2.2072320834,
				"element": "H" 
			},
			{
				"x": 3.1100192724,
				"y": -3.2519040028,
				"z": -0.4083395228,
				"element": "H" 
			},
			{
				"x": 3.9137384119,
				"y": -2.2808883815,
				"z": -1.6641637255,
				"element": "H" 
			},
			{
				"x": 2.6978980575,
				"y": -3.4717304652,
				"z": -2.1252583334,
				"element": "H" 
			},
			{
				"x": 2.0166388808,
				"y": -1.0256605132,
				"z": -3.2770890775,
				"element": "H" 
			},
			{
				"x": 0.2336906957,
				"y": 0.693112017,
				"z": -3.0143463885,
				"element": "H" 
			},
			{
				"x": -1.4467872068,
				"y": 1.8193043992,
				"z": -1.4898517135,
				"element": "H" 
			}
		],
		 "valence_orbital": [ 
			{
				"type": "occ",
				"energy": -0.31824,
				"method": "rhf"
			},
			{
				"type": "occ",
				"energy": -0.29859,
				"method": "rhf"
			},
			{
				"type": "occ",
				"energy": -0.24549,
				"method": "rhf"
			},
			{
				"type": "occ",
				"energy": -0.237,
				"method": "rhf"
			},
			{
				"type": "occ",
				"energy": -0.22287,
				"method": "rhf"
			},
			{
				"type": "unocc",
				"energy": -0.04268,
				"method": "rhf"
			},
			{
				"type": "unocc",
				"energy": -0.01056,
				"method": "rhf"
			},
			{
				"type": "unocc",
				"energy": 0.02862,
				"method": "rhf"
			},
			{
				"type": "unocc",
				"energy": 0.08486,
				"method": "rhf"
			},
			{
				"type": "unocc",
				"energy": 0.10211,
				"method": "rhf"
			}
		],
		"cosmo_sigma_profile": { 
			"-0.025": 0.0,
			"-0.024": 0.0,
			"-0.023": 0.0,
			"-0.022": 0.0,
			"-0.021": 0.0,
			"-0.02": 0.0,
			"-0.019": 0.0,
			"-0.018": 0.0,
			"-0.017": 0.0,
			"-0.016": 0.0,
			"-0.015": 0.0,
			"-0.014": 0.0,
			"-0.013": 0.0,
			"-0.012": 0.0,
			"-0.011": 0.0,
			"-0.01": 0.0,
			"-0.009": 0.0,
			"-0.008": 0.0,
			"-0.007": 1.49513333419,
			"-0.006": 7.27578249269,
			"-0.005": 13.5468519466,
			"-0.004": 21.153914755,
			"-0.003": 21.4347124483,
			"-0.002": 19.8576919245,
			"-0.001": 18.0659239429,
			"0.0": 20.5221173607,
			"0.001": 14.1130278191,
			"0.002": 15.8456844911,
			"0.003": 19.3074560931,
			"0.004": 15.8120407723,
			"0.005": 7.7328463388,
			"0.006": 2.31679018002,
			"0.007": 1.49950259723,
			"0.008": 1.64286391457,
			"0.009": 1.28433091069,
			"0.01": 1.0823949734,
			"0.011": 1.0750068085,
			"0.012": 0.847709549684,
			"0.013": 0.614614129321,
			"0.014": 1.21158690493,
			"0.015": 0.374418532368,
			"0.016": 0.561503306021,
			"0.017": 0.0394906309348,
			"0.018": 0.0,
			"0.019": 0.0,
			"0.02": 0.0,
			"0.021": 0.0,
			"0.022": 0.0,
			"0.023": 0.0,
			"0.024": 0.0,
			"0.025": 0.0
		}
	}
}
