{
	 "smiles": "BrC12CC3CC(C1)CC(Br)(C3)C2", 
	 "Tm": 382.15, 
	 "num_atms": 26, 
	 "gaussian": { 
		 "optdone": 1, 
		 "sigma_profile": "yes", 
		 "theory": "DFT", 
		 "functional": "B3LYP", 
		 "basiset": "6-31G**", 
		 "properties": { 
			 "R2extent": 4325.0792, 
			 "electric_dipole_moment_norm": 3.08608944297, 
			 "electric_quadrupole_moment_norm": 9.91912879441, 
			 "total_energy": -5532.35699777, 
			 "HOMO_LUMO_gap": 0.24176, 
			 "cosmo_polarized_energy": -6.37, 
			 "cosmo_cavitation_energy": 28.42, 
			 "cosmo_dispersion_energy": -21.95, 
			 "cosmo_repulsion_energy": 1.69, 
			 "cosmo_total_nonelectrostatic_energy": 8.16, 
			 "SMD_solvation_energy": 1.16 
		},
		"coords": [
			{
				"x": -0.3058308176,
				"y": 0.198339066,
				"z": 3.913031448,
				"element": "Br" 
			},
			{
				"x": 0.0862533307,
				"y": -0.0412098283,
				"z": 1.9564785248,
				"element": "C" 
			},
			{
				"x": -0.4353098032,
				"y": -1.4132153851,
				"z": 1.5114010011,
				"element": "C" 
			},
			{
				"x": -0.1397492866,
				"y": -1.5833507351,
				"z": 0.0020146797,
				"element": "C" 
			},
			{
				"x": 1.3803302116,
				"y": -1.496795925,
				"z": -0.2403316505,
				"element": "C" 
			},
			{
				"x": 1.8922712932,
				"y": -0.1208201674,
				"z": 0.2301251763,
				"element": "C" 
			},
			{
				"x": 1.6018192666,
				"y": 0.0528964028,
				"z": 1.7400181771,
				"element": "C" 
			},
			{
				"x": 1.1797514818,
				"y": 0.9983036127,
				"z": -0.5662843823,
				"element": "C" 
			},
			{
				"x": -0.3290718619,
				"y": 0.8891472162,
				"z": -0.3129549087,
				"element": "C" 
			},
			{
				"x": -1.2645872339,
				"y": 2.3481802099,
				"z": -1.3303222965,
				"element": "Br" 
			},
			{
				"x": -0.8571596554,
				"y": -0.4677539899,
				"z": -0.7950107387,
				"element": "C" 
			},
			{
				"x": -0.6345049876,
				"y": 1.0802934993,
				"z": 1.1847122719,
				"element": "C" 
			},
			{
				"x": 0.0541889711,
				"y": -2.2040246107,
				"z": 2.0894716553,
				"element": "H" 
			},
			{
				"x": -1.5110741174,
				"y": -1.4850119483,
				"z": 1.7034915458,
				"element": "H" 
			},
			{
				"x": -0.5195889993,
				"y": -2.557686956,
				"z": -0.3279039404,
				"element": "H" 
			},
			{
				"x": 1.6016530892,
				"y": -1.6381210503,
				"z": -1.3054103522,
				"element": "H" 
			},
			{
				"x": 1.8957700464,
				"y": -2.2978304338,
				"z": 0.303757792,
				"element": "H" 
			},
			{
				"x": 2.9734197961,
				"y": -0.0435096583,
				"z": 0.0639957395,
				"element": "H" 
			},
			{
				"x": 1.9711137285,
				"y": 1.0210889078,
				"z": 2.0943044171,
				"element": "H" 
			},
			{
				"x": 2.1105738971,
				"y": -0.7240890356,
				"z": 2.3202203027,
				"element": "H" 
			},
			{
				"x": 1.3866293277,
				"y": 0.8981883033,
				"z": -1.6369604607,
				"element": "H" 
			},
			{
				"x": 1.5415264265,
				"y": 1.9834660066,
				"z": -0.2534146509,
				"element": "H" 
			},
			{
				"x": -1.9404934782,
				"y": -0.5228143984,
				"z": -0.6444831431,
				"element": "H" 
			},
			{
				"x": -0.669236669,
				"y": -0.5815191509,
				"z": -1.8678280441,
				"element": "H" 
			},
			{
				"x": -1.7123493723,
				"y": 1.0319646184,
				"z": 1.3621171151,
				"element": "H" 
			},
			{
				"x": -0.2844445838,
				"y": 2.0596854303,
				"z": 1.5220647217,
				"element": "H" 
			}
		],
		 "valence_orbital": [ 
			{
				"type": "occ",
				"energy": -0.30325,
				"method": "rhf"
			},
			{
				"type": "occ",
				"energy": -0.27573,
				"method": "rhf"
			},
			{
				"type": "occ",
				"energy": -0.27017,
				"method": "rhf"
			},
			{
				"type": "occ",
				"energy": -0.2693,
				"method": "rhf"
			},
			{
				"type": "occ",
				"energy": -0.26468,
				"method": "rhf"
			},
			{
				"type": "unocc",
				"energy": -0.02292,
				"method": "rhf"
			},
			{
				"type": "unocc",
				"energy": 0.01508,
				"method": "rhf"
			},
			{
				"type": "unocc",
				"energy": 0.07218,
				"method": "rhf"
			},
			{
				"type": "unocc",
				"energy": 0.11116,
				"method": "rhf"
			},
			{
				"type": "unocc",
				"energy": 0.1123,
				"method": "rhf"
			}
		],
		"cosmo_sigma_profile": { 
			"-0.025": 0.0,
			"-0.024": 0.0,
			"-0.023": 0.0,
			"-0.022": 0.0,
			"-0.021": 0.0,
			"-0.02": 0.0,
			"-0.019": 0.0,
			"-0.018": 0.0,
			"-0.017": 0.0,
			"-0.016": 0.0,
			"-0.015": 0.0,
			"-0.014": 0.0,
			"-0.013": 0.0,
			"-0.012": 0.0,
			"-0.011": 0.0,
			"-0.01": 0.0,
			"-0.009": 0.0,
			"-0.008": 0.0,
			"-0.007": 0.0,
			"-0.006": 0.0415536107878,
			"-0.005": 5.90669300549,
			"-0.004": 31.0548411429,
			"-0.003": 33.4633437079,
			"-0.002": 31.7473021891,
			"-0.001": 24.6922573803,
			"0.0": 18.1206927529,
			"0.001": 9.76915956192,
			"0.002": 10.4293055459,
			"0.003": 9.70179392745,
			"0.004": 8.60125214785,
			"0.005": 13.1717331921,
			"0.006": 20.084080377,
			"0.007": 8.97451129244,
			"0.008": 0.0,
			"0.009": 0.0,
			"0.01": 0.0,
			"0.011": 0.0,
			"0.012": 0.0,
			"0.013": 0.0,
			"0.014": 0.0,
			"0.015": 0.0,
			"0.016": 0.0,
			"0.017": 0.0,
			"0.018": 0.0,
			"0.019": 0.0,
			"0.02": 0.0,
			"0.021": 0.0,
			"0.022": 0.0,
			"0.023": 0.0,
			"0.024": 0.0,
			"0.025": 0.0
		}
	}
}
