{
	 "smiles": "CCC(Br)C(=O)C1=CC=C(OC)C=C1", 
	 "Tm": 323.15, 
	 "num_atms": 27, 
	 "gaussian": { 
		 "optdone": 1, 
		 "sigma_profile": "yes", 
		 "theory": "DFT", 
		 "functional": "B3LYP", 
		 "basiset": "6-31G**", 
		 "properties": { 
			 "R2extent": 7941.3023, 
			 "electric_dipole_moment_norm": 3.7372981698, 
			 "electric_quadrupole_moment_norm": 17.070305137, 
			 "total_energy": -3148.85798307, 
			 "HOMO_LUMO_gap": 0.16839, 
			 "cosmo_polarized_energy": -10.33, 
			 "cosmo_cavitation_energy": 32.41, 
			 "cosmo_dispersion_energy": -23.54, 
			 "cosmo_repulsion_energy": 1.86, 
			 "cosmo_total_nonelectrostatic_energy": 10.73, 
			 "SMD_solvation_energy": 5.6 
		},
		"coords": [
			{
				"x": -1.3037511425,
				"y": -1.3534014355,
				"z": -5.0708361467,
				"element": "C" 
			},
			{
				"x": -2.6729433156,
				"y": -0.9434742627,
				"z": -4.5084276306,
				"element": "C" 
			},
			{
				"x": -2.5455298386,
				"y": 0.0753026372,
				"z": -3.3834065854,
				"element": "C" 
			},
			{
				"x": -4.3609420736,
				"y": 0.7829033534,
				"z": -2.8989904739,
				"element": "Br" 
			},
			{
				"x": -1.9492365361,
				"y": -0.5023456164,
				"z": -2.0890119471,
				"element": "C" 
			},
			{
				"x": -1.950897847,
				"y": -1.7152221009,
				"z": -1.9280779621,
				"element": "O" 
			},
			{
				"x": -1.3457880958,
				"y": 0.4139503984,
				"z": -1.0852866037,
				"element": "C" 
			},
			{
				"x": -0.6995584618,
				"y": -0.162999312,
				"z": 0.0184840802,
				"element": "C" 
			},
			{
				"x": -0.0879001241,
				"y": 0.6171679978,
				"z": 0.9933650961,
				"element": "C" 
			},
			{
				"x": -0.1191718507,
				"y": 2.0157148228,
				"z": 0.8764783484,
				"element": "C" 
			},
			{
				"x": 0.4425814245,
				"y": 2.8763068997,
				"z": 1.7627849634,
				"element": "O" 
			},
			{
				"x": 1.1057544435,
				"y": 2.3443453455,
				"z": 2.9028101718,
				"element": "C" 
			},
			{
				"x": -0.7691011145,
				"y": 2.6094111658,
				"z": -0.2190901593,
				"element": "C" 
			},
			{
				"x": -1.3723860694,
				"y": 1.8189342859,
				"z": -1.1837243324,
				"element": "C" 
			},
			{
				"x": -1.4339569182,
				"y": -2.0519568639,
				"z": -5.9030336235,
				"element": "H" 
			},
			{
				"x": -0.6960073521,
				"y": -1.849338071,
				"z": -4.3098842624,
				"element": "H" 
			},
			{
				"x": -0.7474181999,
				"y": -0.4880282292,
				"z": -5.4493748979,
				"element": "H" 
			},
			{
				"x": -3.2865758135,
				"y": -0.5068602522,
				"z": -5.3021113121,
				"element": "H" 
			},
			{
				"x": -3.1980077381,
				"y": -1.8217717839,
				"z": -4.1247496,
				"element": "H" 
			},
			{
				"x": -2.0038199309,
				"y": 0.9639618274,
				"z": -3.7097125893,
				"element": "H" 
			},
			{
				"x": -0.6853975185,
				"y": -1.2452028554,
				"z": 0.0928757766,
				"element": "H" 
			},
			{
				"x": 0.4053128112,
				"y": 0.137718152,
				"z": 1.8303474086,
				"element": "H" 
			},
			{
				"x": 0.4209402838,
				"y": 1.7619322022,
				"z": 3.5311286405,
				"element": "H" 
			},
			{
				"x": 1.9571810447,
				"y": 1.7151038485,
				"z": 2.6159519826,
				"element": "H" 
			},
			{
				"x": 1.4679094052,
				"y": 3.2049987821,
				"z": 3.466376385,
				"element": "H" 
			},
			{
				"x": -0.7895696831,
				"y": 3.6921197705,
				"z": -0.2825779637,
				"element": "H" 
			},
			{
				"x": -1.8904197889,
				"y": 2.3050292938,
				"z": -2.0030067631,
				"element": "H" 
			}
		],
		 "valence_orbital": [ 
			{
				"type": "occ",
				"energy": -0.28257,
				"method": "rhf"
			},
			{
				"type": "occ",
				"energy": -0.276,
				"method": "rhf"
			},
			{
				"type": "occ",
				"energy": -0.26324,
				"method": "rhf"
			},
			{
				"type": "occ",
				"energy": -0.25079,
				"method": "rhf"
			},
			{
				"type": "occ",
				"energy": -0.23285,
				"method": "rhf"
			},
			{
				"type": "unocc",
				"energy": -0.06446,
				"method": "rhf"
			},
			{
				"type": "unocc",
				"energy": -0.01214,
				"method": "rhf"
			},
			{
				"type": "unocc",
				"energy": -0.00492,
				"method": "rhf"
			},
			{
				"type": "unocc",
				"energy": 0.0574,
				"method": "rhf"
			},
			{
				"type": "unocc",
				"energy": 0.08692,
				"method": "rhf"
			}
		],
		"cosmo_sigma_profile": { 
			"-0.025": 0.0,
			"-0.024": 0.0,
			"-0.023": 0.0,
			"-0.022": 0.0,
			"-0.021": 0.0,
			"-0.02": 0.0,
			"-0.019": 0.0,
			"-0.018": 0.0,
			"-0.017": 0.0,
			"-0.016": 0.0,
			"-0.015": 0.0,
			"-0.014": 0.0,
			"-0.013": 0.0,
			"-0.012": 0.0,
			"-0.011": 0.0,
			"-0.01": 0.0148227040091,
			"-0.009": 0.896715822597,
			"-0.008": 2.42524790696,
			"-0.007": 6.78186374889,
			"-0.006": 15.5103939856,
			"-0.005": 16.6501773112,
			"-0.004": 20.5655215508,
			"-0.003": 22.1227386118,
			"-0.002": 19.5900085415,
			"-0.001": 20.8185916944,
			"0.0": 18.7187221344,
			"0.001": 18.5404732239,
			"0.002": 20.4120637072,
			"0.003": 22.7206096128,
			"0.004": 17.9568261838,
			"0.005": 13.2338644888,
			"0.006": 5.86163340252,
			"0.007": 2.92044670604,
			"0.008": 3.51199228155,
			"0.009": 2.56709371322,
			"0.01": 2.79377026925,
			"0.011": 2.92993855351,
			"0.012": 2.12899583819,
			"0.013": 0.0,
			"0.014": 0.0,
			"0.015": 0.0,
			"0.016": 0.0,
			"0.017": 0.0,
			"0.018": 0.0,
			"0.019": 0.0,
			"0.02": 0.0,
			"0.021": 0.0,
			"0.022": 0.0,
			"0.023": 0.0,
			"0.024": 0.0,
			"0.025": 0.0
		}
	}
}
