{
	 "smiles": "NC(=O)OC1(CCCCC1)C#C", 
	 "Tm": 369.15, 
	 "num_atms": 25, 
	 "gaussian": { 
		 "optdone": 1, 
		 "sigma_profile": "yes", 
		 "theory": "DFT", 
		 "functional": "B3LYP", 
		 "basiset": "6-31G**", 
		 "properties": { 
			 "R2extent": 2384.5207, 
			 "electric_dipole_moment_norm": 2.42119668346, 
			 "electric_quadrupole_moment_norm": 12.317851913, 
			 "total_energy": -555.953557614, 
			 "HOMO_LUMO_gap": 0.28825, 
			 "cosmo_polarized_energy": -12.52, 
			 "cosmo_cavitation_energy": 27.51, 
			 "cosmo_dispersion_energy": -19.26, 
			 "cosmo_repulsion_energy": 1.57, 
			 "cosmo_total_nonelectrostatic_energy": 9.82, 
			 "SMD_solvation_energy": 6.44 
		},
		"coords": [
			{
				"x": -3.0137677946,
				"y": 1.7593145213,
				"z": -0.4601587336,
				"element": "N" 
			},
			{
				"x": -1.8794843172,
				"y": 1.3859603829,
				"z": -1.1332009919,
				"element": "C" 
			},
			{
				"x": -1.2534454496,
				"y": 2.1042511307,
				"z": -1.8857427751,
				"element": "O" 
			},
			{
				"x": -1.5570427554,
				"y": 0.1073950076,
				"z": -0.7869859632,
				"element": "O" 
			},
			{
				"x": -0.3941431534,
				"y": -0.5356254976,
				"z": -1.401369989,
				"element": "C" 
			},
			{
				"x": -0.4224460127,
				"y": -1.9676556408,
				"z": -0.8157611269,
				"element": "C" 
			},
			{
				"x": -0.1813572874,
				"y": -1.9870262419,
				"z": 0.7006605084,
				"element": "C" 
			},
			{
				"x": 1.1238495026,
				"y": -1.2703544404,
				"z": 1.075507871,
				"element": "C" 
			},
			{
				"x": 1.1498173124,
				"y": 0.1594833649,
				"z": 0.516125602,
				"element": "C" 
			},
			{
				"x": 0.9172225387,
				"y": 0.1813816462,
				"z": -1.0015916968,
				"element": "C" 
			},
			{
				"x": -0.5554645625,
				"y": -0.5963468715,
				"z": -2.8603227615,
				"element": "C" 
			},
			{
				"x": -0.6588912079,
				"y": -0.7263677836,
				"z": -4.0559954797,
				"element": "C" 
			},
			{
				"x": -3.5982469261,
				"y": 1.0433824238,
				"z": -0.0583971289,
				"element": "H" 
			},
			{
				"x": -3.4528079324,
				"y": 2.6076358396,
				"z": -0.7799833408,
				"element": "H" 
			},
			{
				"x": 0.3562604134,
				"y": -2.5433445188,
				"z": -1.3293861971,
				"element": "H" 
			},
			{
				"x": -1.3830157121,
				"y": -2.4273133398,
				"z": -1.0687674604,
				"element": "H" 
			},
			{
				"x": -0.1625121659,
				"y": -3.0265922762,
				"z": 1.0484865658,
				"element": "H" 
			},
			{
				"x": -1.0246017612,
				"y": -1.4996737314,
				"z": 1.2039993325,
				"element": "H" 
			},
			{
				"x": 1.9768311288,
				"y": -1.8333781645,
				"z": 0.6698169793,
				"element": "H" 
			},
			{
				"x": 1.2487700583,
				"y": -1.2563594306,
				"z": 2.1646761989,
				"element": "H" 
			},
			{
				"x": 2.1094737574,
				"y": 0.6403802053,
				"z": 0.7380632623,
				"element": "H" 
			},
			{
				"x": 0.3779319533,
				"y": 0.7608459279,
				"z": 1.0122926468,
				"element": "H" 
			},
			{
				"x": 1.7338965801,
				"y": -0.3460337502,
				"z": -1.5103229606,
				"element": "H" 
			},
			{
				"x": 0.8940081756,
				"y": 1.2002138675,
				"z": -1.3899284618,
				"element": "H" 
			},
			{
				"x": -0.7542343821,
				"y": -0.8040726306,
				"z": -5.1142138997,
				"element": "H" 
			}
		],
		 "valence_orbital": [ 
			{
				"type": "occ",
				"energy": -0.29357,
				"method": "rhf"
			},
			{
				"type": "occ",
				"energy": -0.28059,
				"method": "rhf"
			},
			{
				"type": "occ",
				"energy": -0.2677,
				"method": "rhf"
			},
			{
				"type": "occ",
				"energy": -0.26674,
				"method": "rhf"
			},
			{
				"type": "occ",
				"energy": -0.25213,
				"method": "rhf"
			},
			{
				"type": "unocc",
				"energy": 0.03612,
				"method": "rhf"
			},
			{
				"type": "unocc",
				"energy": 0.05333,
				"method": "rhf"
			},
			{
				"type": "unocc",
				"energy": 0.05976,
				"method": "rhf"
			},
			{
				"type": "unocc",
				"energy": 0.08525,
				"method": "rhf"
			},
			{
				"type": "unocc",
				"energy": 0.09632,
				"method": "rhf"
			}
		],
		"cosmo_sigma_profile": { 
			"-0.025": 0.0,
			"-0.024": 0.0,
			"-0.023": 0.0,
			"-0.022": 0.0,
			"-0.021": 0.0,
			"-0.02": 0.0,
			"-0.019": 0.0,
			"-0.018": 0.0,
			"-0.017": 0.0,
			"-0.016": 0.0,
			"-0.015": 0.155380521826,
			"-0.014": 2.01509320882,
			"-0.013": 2.48336807322,
			"-0.012": 2.23594319175,
			"-0.011": 3.56876608404,
			"-0.01": 2.6753890006,
			"-0.009": 3.53591727287,
			"-0.008": 3.43442290831,
			"-0.007": 2.04785701197,
			"-0.006": 1.81201738402,
			"-0.005": 3.27842458444,
			"-0.004": 8.99391050145,
			"-0.003": 15.5309656507,
			"-0.002": 24.8295460705,
			"-0.001": 31.513424985,
			"0.0": 27.0332751039,
			"0.001": 15.7586787291,
			"0.002": 6.90510777976,
			"0.003": 8.18406281325,
			"0.004": 9.60285420561,
			"0.005": 9.08068073589,
			"0.006": 8.46861340394,
			"0.007": 3.72190752625,
			"0.008": 2.36430358756,
			"0.009": 3.05050772575,
			"0.01": 1.70840341332,
			"0.011": 1.93027113602,
			"0.012": 2.77123068084,
			"0.013": 5.65276615009,
			"0.014": 1.01196287625,
			"0.015": 0.0,
			"0.016": 0.0,
			"0.017": 0.0,
			"0.018": 0.0,
			"0.019": 0.0,
			"0.02": 0.0,
			"0.021": 0.0,
			"0.022": 0.0,
			"0.023": 0.0,
			"0.024": 0.0,
			"0.025": 0.0
		}
	}
}
