{
	 "smiles": "OCCC1CCCCC1", 
	 "Tm": 253.15, 
	 "num_atms": 25, 
	 "gaussian": { 
		 "optdone": 1, 
		 "sigma_profile": "yes", 
		 "theory": "DFT", 
		 "functional": "B3LYP", 
		 "basiset": "6-31G**", 
		 "properties": { 
			 "R2extent": 1472.7652, 
			 "electric_dipole_moment_norm": 1.64581019866, 
			 "electric_quadrupole_moment_norm": 4.89499562819, 
			 "total_energy": -389.726898021, 
			 "HOMO_LUMO_gap": 0.33244, 
			 "cosmo_polarized_energy": -5.19, 
			 "cosmo_cavitation_energy": 24.35, 
			 "cosmo_dispersion_energy": -18.29, 
			 "cosmo_repulsion_energy": 1.52, 
			 "cosmo_total_nonelectrostatic_energy": 7.58, 
			 "SMD_solvation_energy": 3.34 
		},
		"coords": [
			{
				"x": -0.9360597226,
				"y": 1.4801636027,
				"z": 2.0446629854,
				"element": "O" 
			},
			{
				"x": -1.9539389573,
				"y": 0.9413001699,
				"z": 1.2028933587,
				"element": "C" 
			},
			{
				"x": -1.3288187397,
				"y": -0.0317775726,
				"z": 0.2060114552,
				"element": "C" 
			},
			{
				"x": -0.5740775039,
				"y": 0.6075375841,
				"z": -0.9812346633,
				"element": "C" 
			},
			{
				"x": 0.6967844259,
				"y": 1.3959468582,
				"z": -0.5859977663,
				"element": "C" 
			},
			{
				"x": 1.8530975492,
				"y": 0.4825029603,
				"z": -0.1474749026,
				"element": "C" 
			},
			{
				"x": 2.1836155815,
				"y": -0.567410732,
				"z": -1.2197206728,
				"element": "C" 
			},
			{
				"x": 0.9376521429,
				"y": -1.3731549313,
				"z": -1.6193623546,
				"element": "C" 
			},
			{
				"x": -0.2124332237,
				"y": -0.4476033957,
				"z": -2.0522244564,
				"element": "C" 
			},
			{
				"x": -1.3445377587,
				"y": 2.1258798631,
				"z": 2.6342815304,
				"element": "H" 
			},
			{
				"x": -2.4847117096,
				"y": 1.7410883795,
				"z": 0.6594108522,
				"element": "H" 
			},
			{
				"x": -2.7043846504,
				"y": 0.4047958038,
				"z": 1.8058502963,
				"element": "H" 
			},
			{
				"x": -0.6847384802,
				"y": -0.7166034322,
				"z": 0.7695964396,
				"element": "H" 
			},
			{
				"x": -2.1440542677,
				"y": -0.6447751368,
				"z": -0.202213829,
				"element": "H" 
			},
			{
				"x": -1.2751412385,
				"y": 1.3187032936,
				"z": -1.4439753679,
				"element": "H" 
			},
			{
				"x": 0.4635245702,
				"y": 2.1092722889,
				"z": 0.2081572778,
				"element": "H" 
			},
			{
				"x": 1.0213631369,
				"y": 1.9762556634,
				"z": -1.4620696569,
				"element": "H" 
			},
			{
				"x": 2.7397033305,
				"y": 1.0900166239,
				"z": 0.0720863918,
				"element": "H" 
			},
			{
				"x": 1.5883066523,
				"y": -0.0195463066,
				"z": 0.7921118832,
				"element": "H" 
			},
			{
				"x": 2.5807789559,
				"y": -0.0585863849,
				"z": -2.1103420488,
				"element": "H" 
			},
			{
				"x": 2.9753625176,
				"y": -1.2402245992,
				"z": -0.8676015169,
				"element": "H" 
			},
			{
				"x": 0.6183312834,
				"y": -1.9931009281,
				"z": -0.7707232579,
				"element": "H" 
			},
			{
				"x": 1.1792901828,
				"y": -2.0693808214,
				"z": -2.4319805654,
				"element": "H" 
			},
			{
				"x": -1.0989249704,
				"y": -1.0405237531,
				"z": -2.3129138573,
				"element": "H" 
			},
			{
				"x": 0.0890108935,
				"y": 0.077824903,
				"z": -2.9693275547,
				"element": "H" 
			}
		],
		 "valence_orbital": [ 
			{
				"type": "occ",
				"energy": -0.31532,
				"method": "rhf"
			},
			{
				"type": "occ",
				"energy": -0.29887,
				"method": "rhf"
			},
			{
				"type": "occ",
				"energy": -0.28376,
				"method": "rhf"
			},
			{
				"type": "occ",
				"energy": -0.28139,
				"method": "rhf"
			},
			{
				"type": "occ",
				"energy": -0.25925,
				"method": "rhf"
			},
			{
				"type": "unocc",
				"energy": 0.07319,
				"method": "rhf"
			},
			{
				"type": "unocc",
				"energy": 0.09258,
				"method": "rhf"
			},
			{
				"type": "unocc",
				"energy": 0.10688,
				"method": "rhf"
			},
			{
				"type": "unocc",
				"energy": 0.12589,
				"method": "rhf"
			},
			{
				"type": "unocc",
				"energy": 0.14023,
				"method": "rhf"
			}
		],
		"cosmo_sigma_profile": { 
			"-0.025": 0.0,
			"-0.024": 0.0,
			"-0.023": 0.0,
			"-0.022": 0.0,
			"-0.021": 0.0,
			"-0.02": 0.0,
			"-0.019": 0.0,
			"-0.018": 0.0,
			"-0.017": 0.0,
			"-0.016": 0.160682291447,
			"-0.015": 1.06105012536,
			"-0.014": 0.994402511658,
			"-0.013": 0.881876001581,
			"-0.012": 0.688897454158,
			"-0.011": 1.11414286925,
			"-0.01": 0.388284328977,
			"-0.009": 0.472870686761,
			"-0.008": 0.920315600063,
			"-0.007": 1.10735391908,
			"-0.006": 1.06606048301,
			"-0.005": 1.18575258414,
			"-0.004": 1.04153058863,
			"-0.003": 6.9950634683,
			"-0.002": 27.3091095492,
			"-0.001": 34.7843898317,
			"0.0": 35.6132324824,
			"0.001": 31.3637815929,
			"0.002": 18.4348698027,
			"0.003": 3.35244120122,
			"0.004": 2.07010593889,
			"0.005": 1.38476498994,
			"0.006": 2.51432670902,
			"0.007": 2.27852082891,
			"0.008": 1.66711040988,
			"0.009": 1.36387724021,
			"0.01": 1.46844897463,
			"0.011": 1.18363470107,
			"0.012": 1.07547403145,
			"0.013": 1.12362356905,
			"0.014": 0.585661288939,
			"0.015": 0.169749731456,
			"0.016": 0.0,
			"0.017": 0.0,
			"0.018": 0.0,
			"0.019": 0.0,
			"0.02": 0.0,
			"0.021": 0.0,
			"0.022": 0.0,
			"0.023": 0.0,
			"0.024": 0.0,
			"0.025": 0.0
		}
	}
}
