{
	 "smiles": "OCCCCCCCCC=C", 
	 "Tm": 260.15, 
	 "num_atms": 31, 
	 "gaussian": { 
		 "optdone": 1, 
		 "sigma_profile": "yes", 
		 "theory": "DFT", 
		 "functional": "B3LYP", 
		 "basiset": "6-31G**", 
		 "properties": { 
			 "R2extent": 2518.6017, 
			 "electric_dipole_moment_norm": 1.15817417516, 
			 "electric_quadrupole_moment_norm": 5.64122097954, 
			 "total_energy": -468.324810195, 
			 "HOMO_LUMO_gap": 0.27312, 
			 "cosmo_polarized_energy": -6.3, 
			 "cosmo_cavitation_energy": 31.44, 
			 "cosmo_dispersion_energy": -21.2, 
			 "cosmo_repulsion_energy": 1.72, 
			 "cosmo_total_nonelectrostatic_energy": 11.96, 
			 "SMD_solvation_energy": 5.18 
		},
		"coords": [
			{
				"x": -1.4178919771,
				"y": 0.7951132785,
				"z": 2.161740574,
				"element": "O" 
			},
			{
				"x": -0.1228512025,
				"y": 1.2849900979,
				"z": 2.5065845227,
				"element": "C" 
			},
			{
				"x": 0.7889658891,
				"y": 0.0888487095,
				"z": 2.7670384296,
				"element": "C" 
			},
			{
				"x": 0.9014323989,
				"y": -0.9012311693,
				"z": 1.5954173392,
				"element": "C" 
			},
			{
				"x": 1.5092297439,
				"y": -0.3062546768,
				"z": 0.317636769,
				"element": "C" 
			},
			{
				"x": 1.6943029801,
				"y": -1.3166853217,
				"z": -0.827522869,
				"element": "C" 
			},
			{
				"x": 0.4095840705,
				"y": -1.8864662924,
				"z": -1.4606608355,
				"element": "C" 
			},
			{
				"x": -0.5128636446,
				"y": -0.8367495912,
				"z": -2.1254639839,
				"element": "C" 
			},
			{
				"x": -1.7172885509,
				"y": -0.4073125202,
				"z": -1.2602963735,
				"element": "C" 
			},
			{
				"x": -2.5564949095,
				"y": 0.6526957444,
				"z": -1.919085642,
				"element": "C" 
			},
			{
				"x": -2.7884982674,
				"y": 1.866108484,
				"z": -1.4162553667,
				"element": "C" 
			},
			{
				"x": -2.0037680017,
				"y": 1.5485319348,
				"z": 2.0196609988,
				"element": "H" 
			},
			{
				"x": 0.2879728931,
				"y": 1.9104791759,
				"z": 1.6992999373,
				"element": "H" 
			},
			{
				"x": -0.1674214244,
				"y": 1.9101344089,
				"z": 3.4122007546,
				"element": "H" 
			},
			{
				"x": 1.7828100546,
				"y": 0.4757705384,
				"z": 3.0309606464,
				"element": "H" 
			},
			{
				"x": 0.4121669585,
				"y": -0.4423741639,
				"z": 3.6495914601,
				"element": "H" 
			},
			{
				"x": 1.5183975499,
				"y": -1.7506800079,
				"z": 1.9188227763,
				"element": "H" 
			},
			{
				"x": -0.0946437605,
				"y": -1.3053972865,
				"z": 1.3876453566,
				"element": "H" 
			},
			{
				"x": 0.8958836437,
				"y": 0.5317719112,
				"z": -0.0360782024,
				"element": "H" 
			},
			{
				"x": 2.491345035,
				"y": 0.1238927226,
				"z": 0.5604815701,
				"element": "H" 
			},
			{
				"x": 2.2808693272,
				"y": -0.8363730574,
				"z": -1.6226473292,
				"element": "H" 
			},
			{
				"x": 2.3072549816,
				"y": -2.1538193183,
				"z": -0.4650065677,
				"element": "H" 
			},
			{
				"x": 0.7184946486,
				"y": -2.6215891502,
				"z": -2.2139684445,
				"element": "H" 
			},
			{
				"x": -0.1601985523,
				"y": -2.4541095731,
				"z": -0.7134246908,
				"element": "H" 
			},
			{
				"x": 0.0723650565,
				"y": 0.0522263214,
				"z": -2.3959876015,
				"element": "H" 
			},
			{
				"x": -0.898835999,
				"y": -1.235962617,
				"z": -3.072401081,
				"element": "H" 
			},
			{
				"x": -2.3377297483,
				"y": -1.2979488869,
				"z": -1.0775884146,
				"element": "H" 
			},
			{
				"x": -1.3929844258,
				"y": -0.0539840152,
				"z": -0.2760096346,
				"element": "H" 
			},
			{
				"x": -2.9866768225,
				"y": 0.3930779022,
				"z": -2.88851481,
				"element": "H" 
			},
			{
				"x": -2.3732275246,
				"y": 2.1646194136,
				"z": -0.4558625368,
				"element": "H" 
			},
			{
				"x": -3.3969004203,
				"y": 2.6009770046,
				"z": -1.9355067511,
				"element": "H" 
			}
		],
		 "valence_orbital": [ 
			{
				"type": "occ",
				"energy": -0.30527,
				"method": "rhf"
			},
			{
				"type": "occ",
				"energy": -0.30205,
				"method": "rhf"
			},
			{
				"type": "occ",
				"energy": -0.30068,
				"method": "rhf"
			},
			{
				"type": "occ",
				"energy": -0.26661,
				"method": "rhf"
			},
			{
				"type": "occ",
				"energy": -0.24641,
				"method": "rhf"
			},
			{
				"type": "unocc",
				"energy": 0.02671,
				"method": "rhf"
			},
			{
				"type": "unocc",
				"energy": 0.05629,
				"method": "rhf"
			},
			{
				"type": "unocc",
				"energy": 0.09337,
				"method": "rhf"
			},
			{
				"type": "unocc",
				"energy": 0.11203,
				"method": "rhf"
			},
			{
				"type": "unocc",
				"energy": 0.11474,
				"method": "rhf"
			}
		],
		"cosmo_sigma_profile": { 
			"-0.025": 0.0,
			"-0.024": 0.0,
			"-0.023": 0.0,
			"-0.022": 0.0,
			"-0.021": 0.0,
			"-0.02": 0.0,
			"-0.019": 0.0,
			"-0.018": 0.0,
			"-0.017": 0.0,
			"-0.016": 0.0,
			"-0.015": 0.250138289594,
			"-0.014": 0.823104293589,
			"-0.013": 0.761843601764,
			"-0.012": 0.636514708002,
			"-0.011": 1.09180293827,
			"-0.01": 0.975177089285,
			"-0.009": 0.72021397088,
			"-0.008": 1.40871292001,
			"-0.007": 1.82010161708,
			"-0.006": 1.27354354382,
			"-0.005": 2.35644518638,
			"-0.004": 6.1424316344,
			"-0.003": 14.6300735342,
			"-0.002": 35.1225660557,
			"-0.001": 48.3122155002,
			"0.0": 40.6408357319,
			"0.001": 33.50931018,
			"0.002": 15.5338507315,
			"0.003": 6.57990727887,
			"0.004": 6.71575846568,
			"0.005": 4.80299686033,
			"0.006": 4.48695177873,
			"0.007": 4.36111242253,
			"0.008": 2.56445834726,
			"0.009": 1.4856788658,
			"0.01": 0.968650059654,
			"0.011": 1.05810637965,
			"0.012": 0.571124083592,
			"0.013": 1.32178098632,
			"0.014": 0.85345699396,
			"0.015": 0.266448552184,
			"0.016": 0.0,
			"0.017": 0.0,
			"0.018": 0.0,
			"0.019": 0.0,
			"0.02": 0.0,
			"0.021": 0.0,
			"0.022": 0.0,
			"0.023": 0.0,
			"0.024": 0.0,
			"0.025": 0.0
		}
	}
}
