{
	 "smiles": "OCCCN1CCNCC1", 
	 "Tm": 323.15, 
	 "num_atms": 26, 
	 "gaussian": { 
		 "optdone": 1, 
		 "sigma_profile": "yes", 
		 "theory": "DFT", 
		 "functional": "B3LYP", 
		 "basiset": "6-31G**", 
		 "properties": { 
			 "R2extent": 2147.5988, 
			 "electric_dipole_moment_norm": 1.86427654065, 
			 "electric_quadrupole_moment_norm": 12.5987459439, 
			 "total_energy": -461.090075091, 
			 "HOMO_LUMO_gap": 0.28763, 
			 "cosmo_polarized_energy": -10.04, 
			 "cosmo_cavitation_energy": 26.36, 
			 "cosmo_dispersion_energy": -19.39, 
			 "cosmo_repulsion_energy": 1.61, 
			 "cosmo_total_nonelectrostatic_energy": 8.58, 
			 "SMD_solvation_energy": 0.39 
		},
		"coords": [
			{
				"x": 4.0237705799,
				"y": -0.0185764611,
				"z": 0.0990582932,
				"element": "O" 
			},
			{
				"x": 2.6689875381,
				"y": -0.1969724167,
				"z": -0.3018203847,
				"element": "C" 
			},
			{
				"x": 2.066010946,
				"y": -1.5019184383,
				"z": 0.2238747549,
				"element": "C" 
			},
			{
				"x": 0.6376274633,
				"y": -1.7558285598,
				"z": -0.2750838427,
				"element": "C" 
			},
			{
				"x": -0.3180065245,
				"y": -0.7166142783,
				"z": 0.1173616685,
				"element": "N" 
			},
			{
				"x": -0.6791736399,
				"y": -0.7853994371,
				"z": 1.5361527961,
				"element": "C" 
			},
			{
				"x": -1.6044534986,
				"y": 0.3732703612,
				"z": 1.9079684249,
				"element": "C" 
			},
			{
				"x": -2.8016031184,
				"y": 0.3176123929,
				"z": 1.0709994784,
				"element": "N" 
			},
			{
				"x": -2.4492298065,
				"y": 0.4182829738,
				"z": -0.3447230179,
				"element": "C" 
			},
			{
				"x": -1.5256633215,
				"y": -0.7424434334,
				"z": -0.7125856008,
				"element": "C" 
			},
			{
				"x": 4.0326120619,
				"y": 0.0800621544,
				"z": 1.0597259378,
				"element": "H" 
			},
			{
				"x": 2.0392717005,
				"y": 0.6522707655,
				"z": -0.0027280324,
				"element": "H" 
			},
			{
				"x": 2.6858998278,
				"y": -0.2124643924,
				"z": -1.3977307994,
				"element": "H" 
			},
			{
				"x": 2.0944879611,
				"y": -1.4980009581,
				"z": 1.3224821164,
				"element": "H" 
			},
			{
				"x": 2.7018155788,
				"y": -2.3374054319,
				"z": -0.0924875926,
				"element": "H" 
			},
			{
				"x": 0.6561969205,
				"y": -1.7832959279,
				"z": -1.3719139641,
				"element": "H" 
			},
			{
				"x": 0.3042987731,
				"y": -2.7596369278,
				"z": 0.0541385208,
				"element": "H" 
			},
			{
				"x": -1.1843476837,
				"y": -1.7412415947,
				"z": 1.7769157039,
				"element": "H" 
			},
			{
				"x": 0.2290959656,
				"y": -0.7277437058,
				"z": 2.1441017355,
				"element": "H" 
			},
			{
				"x": -1.0406911328,
				"y": 1.3181944185,
				"z": 1.7929013173,
				"element": "H" 
			},
			{
				"x": -1.8983668409,
				"y": 0.2821535593,
				"z": 2.9596432638,
				"element": "H" 
			},
			{
				"x": -3.4428553051,
				"y": 1.0631725348,
				"z": 1.3265020554,
				"element": "H" 
			},
			{
				"x": -1.9335529724,
				"y": 1.364375252,
				"z": -0.5945330023,
				"element": "H" 
			},
			{
				"x": -3.3634804525,
				"y": 0.3628045392,
				"z": -0.9460904752,
				"element": "H" 
			},
			{
				"x": -2.082810906,
				"y": -1.6923225793,
				"z": -0.5967805923,
				"element": "H" 
			},
			{
				"x": -1.2285401137,
				"y": -0.6549344088,
				"z": -1.7638487624,
				"element": "H" 
			}
		],
		 "valence_orbital": [ 
			{
				"type": "occ",
				"energy": -0.32055,
				"method": "rhf"
			},
			{
				"type": "occ",
				"energy": -0.31147,
				"method": "rhf"
			},
			{
				"type": "occ",
				"energy": -0.25957,
				"method": "rhf"
			},
			{
				"type": "occ",
				"energy": -0.22188,
				"method": "rhf"
			},
			{
				"type": "occ",
				"energy": -0.21168,
				"method": "rhf"
			},
			{
				"type": "unocc",
				"energy": 0.07595,
				"method": "rhf"
			},
			{
				"type": "unocc",
				"energy": 0.08364,
				"method": "rhf"
			},
			{
				"type": "unocc",
				"energy": 0.09928,
				"method": "rhf"
			},
			{
				"type": "unocc",
				"energy": 0.11608,
				"method": "rhf"
			},
			{
				"type": "unocc",
				"energy": 0.12343,
				"method": "rhf"
			}
		],
		"cosmo_sigma_profile": { 
			"-0.025": 0.0,
			"-0.024": 0.0,
			"-0.023": 0.0,
			"-0.022": 0.0,
			"-0.021": 0.0,
			"-0.02": 0.0,
			"-0.019": 0.0,
			"-0.018": 0.0,
			"-0.017": 0.0,
			"-0.016": 0.0211840128511,
			"-0.015": 0.627779517342,
			"-0.014": 0.889912151495,
			"-0.013": 1.02180135033,
			"-0.012": 0.930783013899,
			"-0.011": 0.702443399519,
			"-0.01": 2.10629939035,
			"-0.009": 2.22536612325,
			"-0.008": 1.98550929114,
			"-0.007": 2.12987635962,
			"-0.006": 2.3923368783,
			"-0.005": 3.63253340848,
			"-0.004": 12.1014717935,
			"-0.003": 22.0572489443,
			"-0.002": 24.9485099549,
			"-0.001": 38.6523301421,
			"0.0": 30.4643660104,
			"0.001": 10.4733581423,
			"0.002": 4.75093601715,
			"0.003": 4.46221058297,
			"0.004": 3.78226504857,
			"0.005": 3.28730750426,
			"0.006": 3.57237258891,
			"0.007": 3.06800711333,
			"0.008": 3.00222417996,
			"0.009": 2.62244690804,
			"0.01": 2.69617476213,
			"0.011": 2.12752125763,
			"0.012": 2.41702969515,
			"0.013": 2.27658262443,
			"0.014": 2.46744560612,
			"0.015": 2.60322895859,
			"0.016": 0.683178545773,
			"0.017": 0.206552115401,
			"0.018": 0.441285523756,
			"0.019": 0.117514519802,
			"0.02": 0.0,
			"0.021": 0.0,
			"0.022": 0.0,
			"0.023": 0.0,
			"0.024": 0.0,
			"0.025": 0.0
		}
	}
}
