{
	 "smiles": "OC(=O)C1=C(Cl)C=CC(=C1)S(=O)(=O)NCCCN1CCCC1=O", 
	 "Tm": 372.15, 
	 "num_atms": 40, 
	 "gaussian": { 
		 "optdone": 1, 
		 "sigma_profile": "yes", 
		 "theory": "DFT", 
		 "functional": "B3LYP", 
		 "basiset": "6-31G**", 
		 "properties": { 
			 "R2extent": 12422.6434, 
			 "electric_dipole_moment_norm": 3.57035256242, 
			 "electric_quadrupole_moment_norm": 30.4497936638, 
			 "total_energy": -1887.69541932, 
			 "HOMO_LUMO_gap": 0.15183, 
			 "cosmo_polarized_energy": -28.06, 
			 "cosmo_cavitation_energy": 46.42, 
			 "cosmo_dispersion_energy": -32.32, 
			 "cosmo_repulsion_energy": 2.44, 
			 "cosmo_total_nonelectrostatic_energy": 16.54, 
			 "SMD_solvation_energy": 7.64 
		},
		"coords": [
			{
				"x": -0.1908629445,
				"y": -5.9774140645,
				"z": 2.8200444348,
				"element": "O" 
			},
			{
				"x": -0.5454653473,
				"y": -4.6919264146,
				"z": 2.6665386721,
				"element": "C" 
			},
			{
				"x": -1.3065217616,
				"y": -4.1730471606,
				"z": 3.4501623659,
				"element": "O" 
			},
			{
				"x": -0.0069258989,
				"y": -3.9018627573,
				"z": 1.4842162557,
				"element": "C" 
			},
			{
				"x": 1.0765628298,
				"y": -4.2009502017,
				"z": 0.637896305,
				"element": "C" 
			},
			{
				"x": 2.0569159846,
				"y": -5.659082194,
				"z": 0.8283587059,
				"element": "Cl" 
			},
			{
				"x": 1.4548129078,
				"y": -3.3523452592,
				"z": -0.4044018843,
				"element": "C" 
			},
			{
				"x": 0.7536441238,
				"y": -2.1721137673,
				"z": -0.6294689864,
				"element": "C" 
			},
			{
				"x": -0.3210385103,
				"y": -1.8545595876,
				"z": 0.2029714426,
				"element": "C" 
			},
			{
				"x": -0.6954210643,
				"y": -2.7030397859,
				"z": 1.2378499139,
				"element": "C" 
			},
			{
				"x": -1.2288340587,
				"y": -0.3161301789,
				"z": -0.0557113636,
				"element": "S" 
			},
			{
				"x": -2.6117296623,
				"y": -0.5519537309,
				"z": 0.3530600794,
				"element": "O" 
			},
			{
				"x": -0.8629109563,
				"y": 0.153080739,
				"z": -1.3951172964,
				"element": "O" 
			},
			{
				"x": -0.6220368725,
				"y": 0.8019741147,
				"z": 1.0262040688,
				"element": "N" 
			},
			{
				"x": 0.7712760189,
				"y": 1.2666178988,
				"z": 0.9258523607,
				"element": "C" 
			},
			{
				"x": 0.9564984068,
				"y": 2.600592728,
				"z": 1.6513206782,
				"element": "C" 
			},
			{
				"x": 0.1049252889,
				"y": 3.7565536427,
				"z": 1.1000382805,
				"element": "C" 
			},
			{
				"x": 0.34362058,
				"y": 4.0494682166,
				"z": -0.3061338357,
				"element": "N" 
			},
			{
				"x": -0.6224365966,
				"y": 3.7923484787,
				"z": -1.3774661156,
				"element": "C" 
			},
			{
				"x": -0.0632634789,
				"y": 4.6171697201,
				"z": -2.5595166436,
				"element": "C" 
			},
			{
				"x": 1.4392495235,
				"y": 4.741023627,
				"z": -2.2557261636,
				"element": "C" 
			},
			{
				"x": 1.5268391102,
				"y": 4.5890557128,
				"z": -0.7362371191,
				"element": "C" 
			},
			{
				"x": 2.4768363884,
				"y": 4.8663815809,
				"z": -0.0141177253,
				"element": "O" 
			},
			{
				"x": 0.4322655013,
				"y": -6.2671964749,
				"z": 2.1344629692,
				"element": "H" 
			},
			{
				"x": 2.2937960334,
				"y": -3.6236389014,
				"z": -1.0349604329,
				"element": "H" 
			},
			{
				"x": 1.0197544121,
				"y": -1.5141711726,
				"z": -1.4490936234,
				"element": "H" 
			},
			{
				"x": -1.5388079245,
				"y": -2.4701748345,
				"z": 1.8782835147,
				"element": "H" 
			},
			{
				"x": -0.9619679522,
				"y": 0.6172551375,
				"z": 1.9662416436,
				"element": "H" 
			},
			{
				"x": 1.4744923965,
				"y": 0.5228999033,
				"z": 1.3273774817,
				"element": "H" 
			},
			{
				"x": 0.9878336274,
				"y": 1.3915777715,
				"z": -0.1375917461,
				"element": "H" 
			},
			{
				"x": 0.7297802547,
				"y": 2.4804891238,
				"z": 2.7195923974,
				"element": "H" 
			},
			{
				"x": 2.0106977915,
				"y": 2.8842116447,
				"z": 1.5797590233,
				"element": "H" 
			},
			{
				"x": 0.3348980491,
				"y": 4.6545162175,
				"z": 1.6848267449,
				"element": "H" 
			},
			{
				"x": -0.9593571308,
				"y": 3.5371721022,
				"z": 1.217440155,
				"element": "H" 
			},
			{
				"x": -0.6835558114,
				"y": 2.7219903105,
				"z": -1.6108891599,
				"element": "H" 
			},
			{
				"x": -1.6235171774,
				"y": 4.1217188108,
				"z": -1.0773004356,
				"element": "H" 
			},
			{
				"x": -0.5233911347,
				"y": 5.6104660663,
				"z": -2.5643333602,
				"element": "H" 
			},
			{
				"x": -0.2776857268,
				"y": 4.1469738569,
				"z": -3.5219766141,
				"element": "H" 
			},
			{
				"x": 1.8892207232,
				"y": 5.6849721501,
				"z": -2.5706105901,
				"element": "H" 
			},
			{
				"x": 2.0233100581,
				"y": 3.9328969313,
				"z": -2.7136443975,
				"element": "H" 
			}
		],
		 "valence_orbital": [ 
			{
				"type": "occ",
				"energy": -0.30187,
				"method": "rhf"
			},
			{
				"type": "occ",
				"energy": -0.29141,
				"method": "rhf"
			},
			{
				"type": "occ",
				"energy": -0.28149,
				"method": "rhf"
			},
			{
				"type": "occ",
				"energy": -0.24111,
				"method": "rhf"
			},
			{
				"type": "occ",
				"energy": -0.23526,
				"method": "rhf"
			},
			{
				"type": "unocc",
				"energy": -0.08343,
				"method": "rhf"
			},
			{
				"type": "unocc",
				"energy": -0.06433,
				"method": "rhf"
			},
			{
				"type": "unocc",
				"energy": -0.01719,
				"method": "rhf"
			},
			{
				"type": "unocc",
				"energy": 0.01541,
				"method": "rhf"
			},
			{
				"type": "unocc",
				"energy": 0.03107,
				"method": "rhf"
			}
		],
		"cosmo_sigma_profile": { 
			"-0.025": 0.0,
			"-0.024": 0.0,
			"-0.023": 0.0,
			"-0.022": 0.0,
			"-0.021": 0.0,
			"-0.02": 0.0,
			"-0.019": 0.0,
			"-0.018": 0.0,
			"-0.017": 0.0,
			"-0.016": 0.0341558259833,
			"-0.015": 0.813903722146,
			"-0.014": 1.29266076692,
			"-0.013": 2.79929958647,
			"-0.012": 2.55423387523,
			"-0.011": 2.65061057065,
			"-0.01": 2.57850266732,
			"-0.009": 4.84888739059,
			"-0.008": 6.70074721356,
			"-0.007": 7.51076166079,
			"-0.006": 7.65886551339,
			"-0.005": 21.8052242522,
			"-0.004": 37.2536226608,
			"-0.003": 45.5940715883,
			"-0.002": 37.1176233942,
			"-0.001": 37.9534150101,
			"0.0": 25.3954540893,
			"0.001": 13.9298441101,
			"0.002": 13.481408924,
			"0.003": 9.27943826605,
			"0.004": 9.09996086252,
			"0.005": 7.46001861904,
			"0.006": 7.60379724751,
			"0.007": 6.73930186386,
			"0.008": 7.43221686764,
			"0.009": 8.95339719415,
			"0.01": 12.9942442282,
			"0.011": 12.314786733,
			"0.012": 5.63574994761,
			"0.013": 2.75663084169,
			"0.014": 4.4460044036,
			"0.015": 2.9046061204,
			"0.016": 0.364537595794,
			"0.017": 0.0,
			"0.018": 0.0,
			"0.019": 0.0,
			"0.02": 0.0,
			"0.021": 0.0,
			"0.022": 0.0,
			"0.023": 0.0,
			"0.024": 0.0,
			"0.0": 0.0
		}
	}
}
