{
	 "smiles": "CCCOC1=C(C=O)C=C(Br)C=C1", 
	 "Tm": 321.15, 
	 "num_atms": 24, 
	 "gaussian": { 
		 "optdone": 1, 
		 "sigma_profile": "yes", 
		 "theory": "DFT", 
		 "functional": "B3LYP", 
		 "basiset": "6-31G**", 
		 "properties": { 
			 "R2extent": 6242.6135, 
			 "electric_dipole_moment_norm": 5.51688356502, 
			 "electric_quadrupole_moment_norm": 7.74535816344, 
			 "total_energy": -3109.53600312, 
			 "HOMO_LUMO_gap": 0.16502, 
			 "cosmo_polarized_energy": -9.32, 
			 "cosmo_cavitation_energy": 30.5, 
			 "cosmo_dispersion_energy": -22.09, 
			 "cosmo_repulsion_energy": 1.77, 
			 "cosmo_total_nonelectrostatic_energy": 10.17, 
			 "SMD_solvation_energy": 5.3 
		},
		"coords": [
			{
				"x": 1.0480143034,
				"y": -2.9119392817,
				"z": 1.6941394445,
				"element": "C" 
			},
			{
				"x": -0.3014802418,
				"y": -2.2639543438,
				"z": 2.0178080199,
				"element": "C" 
			},
			{
				"x": -0.7982872021,
				"y": -1.31476354,
				"z": 0.935756623,
				"element": "C" 
			},
			{
				"x": 0.1222541702,
				"y": -0.2197764738,
				"z": 0.8516355835,
				"element": "O" 
			},
			{
				"x": -0.090556817,
				"y": 0.7638796761,
				"z": -0.0588141415,
				"element": "C" 
			},
			{
				"x": 0.8496069022,
				"y": 1.8207536641,
				"z": -0.0838441402,
				"element": "C" 
			},
			{
				"x": 2.0075903407,
				"y": 1.8565944633,
				"z": 0.8414757862,
				"element": "C" 
			},
			{
				"x": 2.8377915889,
				"y": 2.7490150624,
				"z": 0.8427363454,
				"element": "O" 
			},
			{
				"x": 0.6930500542,
				"y": 2.8686173143,
				"z": -0.9999376175,
				"element": "C" 
			},
			{
				"x": -0.3795271636,
				"y": 2.8731024951,
				"z": -1.8791782269,
				"element": "C" 
			},
			{
				"x": -0.5913975786,
				"y": 4.3038216266,
				"z": -3.1280496785,
				"element": "Br" 
			},
			{
				"x": -1.3116874758,
				"y": 1.8346582701,
				"z": -1.8579873077,
				"element": "C" 
			},
			{
				"x": -1.1708726758,
				"y": 0.7834994633,
				"z": -0.9529662704,
				"element": "C" 
			},
			{
				"x": 1.8252257169,
				"y": -2.1546477306,
				"z": 1.5610604393,
				"element": "H" 
			},
			{
				"x": 0.9923583693,
				"y": -3.5017426823,
				"z": 0.7720923857,
				"element": "H" 
			},
			{
				"x": 1.362615418,
				"y": -3.5816312703,
				"z": 2.5000127179,
				"element": "H" 
			},
			{
				"x": -1.0693087553,
				"y": -3.0359799219,
				"z": 2.1526578787,
				"element": "H" 
			},
			{
				"x": -0.2418086398,
				"y": -1.7122976296,
				"z": 2.9633783896,
				"element": "H" 
			},
			{
				"x": -1.7989622047,
				"y": -0.9332514722,
				"z": 1.1793713872,
				"element": "H" 
			},
			{
				"x": -0.8510089023,
				"y": -1.8260401494,
				"z": -0.0359045259,
				"element": "H" 
			},
			{
				"x": 2.0793426649,
				"y": 1.0107615072,
				"z": 1.549224623,
				"element": "H" 
			},
			{
				"x": 1.4315418128,
				"y": 3.6624348936,
				"z": -0.9928662782,
				"element": "H" 
			},
			{
				"x": -2.1491085972,
				"y": 1.8435597957,
				"z": -2.5468321732,
				"element": "H" 
			},
			{
				"x": -1.9065850876,
				"y": -0.0108737361,
				"z": -0.9544692638,
				"element": "H" 
			}
		],
		 "valence_orbital": [ 
			{
				"type": "occ",
				"energy": -0.29726,
				"method": "rhf"
			},
			{
				"type": "occ",
				"energy": -0.28909,
				"method": "rhf"
			},
			{
				"type": "occ",
				"energy": -0.27206,
				"method": "rhf"
			},
			{
				"type": "occ",
				"energy": -0.25192,
				"method": "rhf"
			},
			{
				"type": "occ",
				"energy": -0.23196,
				"method": "rhf"
			},
			{
				"type": "unocc",
				"energy": -0.06694,
				"method": "rhf"
			},
			{
				"type": "unocc",
				"energy": -0.01135,
				"method": "rhf"
			},
			{
				"type": "unocc",
				"energy": 0.00526,
				"method": "rhf"
			},
			{
				"type": "unocc",
				"energy": 0.03189,
				"method": "rhf"
			},
			{
				"type": "unocc",
				"energy": 0.0771,
				"method": "rhf"
			}
		],
		"cosmo_sigma_profile": { 
			"-0.025": 0.0,
			"-0.024": 0.0,
			"-0.023": 0.0,
			"-0.022": 0.0,
			"-0.021": 0.0,
			"-0.02": 0.0,
			"-0.019": 0.0,
			"-0.018": 0.0,
			"-0.017": 0.0,
			"-0.016": 0.0,
			"-0.015": 0.0,
			"-0.014": 0.0,
			"-0.013": 0.0,
			"-0.012": 0.0,
			"-0.011": 0.0,
			"-0.01": 0.0,
			"-0.009": 0.0,
			"-0.008": 2.24429528732,
			"-0.007": 5.6684669517,
			"-0.006": 8.50418423055,
			"-0.005": 12.5746188129,
			"-0.004": 18.822474354,
			"-0.003": 22.6936749004,
			"-0.002": 20.211670118,
			"-0.001": 22.7905505167,
			"0.0": 26.5611701265,
			"0.001": 29.6971997098,
			"0.002": 24.3654556045,
			"0.003": 11.9261103219,
			"0.004": 14.3059970094,
			"0.005": 8.43145349756,
			"0.006": 1.27679657741,
			"0.007": 1.14209029503,
			"0.008": 2.11606771863,
			"0.009": 2.20185770412,
			"0.01": 2.30479048151,
			"0.011": 3.79301414517,
			"0.012": 2.95081024181,
			"0.013": 0.918886460007,
			"0.014": 0.0113885628463,
			"0.015": 0.0,
			"0.016": 0.0,
			"0.017": 0.0,
			"0.018": 0.0,
			"0.019": 0.0,
			"0.02": 0.0,
			"0.021": 0.0,
			"0.022": 0.0,
			"0.023": 0.0,
			"0.024": 0.0,
			"0.025": 0.0
		}
	}
}
