{
	 "smiles": "CCCCCCCCCCC=CCCCCCCCC(O)=O", 
	 "Tm": 296.15, 
	 "num_atms": 60, 
	 "gaussian": { 
		 "optdone": 1, 
		 "sigma_profile": "yes", 
		 "theory": "DFT", 
		 "functional": "B3LYP", 
		 "basiset": "6-31G**", 
		 "properties": { 
			 "R2extent": 18811.8853, 
			 "electric_dipole_moment_norm": 3.96842510828, 
			 "electric_quadrupole_moment_norm": 39.9923396669, 
			 "total_energy": -935.516834256, 
			 "HOMO_LUMO_gap": 0.2489, 
			 "cosmo_polarized_energy": -14.38, 
			 "cosmo_cavitation_energy": 59.23, 
			 "cosmo_dispersion_energy": -38.69, 
			 "cosmo_repulsion_energy": 3.16, 
			 "cosmo_total_nonelectrostatic_energy": 23.69, 
			 "SMD_solvation_energy": 8.91 
		},
		"coords": [
			{
				"x": 0.4304571291,
				"y": -6.7700099627,
				"z": -1.0316365604,
				"element": "C" 
			},
			{
				"x": 1.3413804053,
				"y": -6.974381596,
				"z": 0.1850530712,
				"element": "C" 
			},
			{
				"x": 1.1682104838,
				"y": -5.9228330362,
				"z": 1.2940362973,
				"element": "C" 
			},
			{
				"x": 1.5885265659,
				"y": -4.5011136054,
				"z": 0.8916111853,
				"element": "C" 
			},
			{
				"x": 1.5704427932,
				"y": -3.4825485138,
				"z": 2.0453535066,
				"element": "C" 
			},
			{
				"x": 0.1951025054,
				"y": -3.2209937935,
				"z": 2.6885866393,
				"element": "C" 
			},
			{
				"x": -0.8924288669,
				"y": -2.6730361534,
				"z": 1.7478093624,
				"element": "C" 
			},
			{
				"x": -0.5783135758,
				"y": -1.3008426842,
				"z": 1.136191874,
				"element": "C" 
			},
			{
				"x": -1.7267176727,
				"y": -0.7459420561,
				"z": 0.2844574606,
				"element": "C" 
			},
			{
				"x": -1.4283588552,
				"y": 0.6280507745,
				"z": -0.3523279693,
				"element": "C" 
			},
			{
				"x": -0.3315936824,
				"y": 0.5919744876,
				"z": -1.3828565138,
				"element": "C" 
			},
			{
				"x": 0.8106630014,
				"y": 1.2854020436,
				"z": -1.3315669769,
				"element": "C" 
			},
			{
				"x": 1.8896590798,
				"y": 1.2361019061,
				"z": -2.383258497,
				"element": "C" 
			},
			{
				"x": 2.0492769298,
				"y": 2.5094921956,
				"z": -3.2524266731,
				"element": "C" 
			},
			{
				"x": 2.8349183877,
				"y": 3.6816061068,
				"z": -2.6353481522,
				"element": "C" 
			},
			{
				"x": 2.2113438305,
				"y": 4.4091175628,
				"z": -1.428766735,
				"element": "C" 
			},
			{
				"x": 0.8009617972,
				"y": 4.9848146925,
				"z": -1.6389863999,
				"element": "C" 
			},
			{
				"x": 0.7130228633,
				"y": 6.04143813,
				"z": -2.7493714509,
				"element": "C" 
			},
			{
				"x": -0.6814314253,
				"y": 6.6624360952,
				"z": -2.8849719382,
				"element": "C" 
			},
			{
				"x": -1.0456004318,
				"y": 7.6002077887,
				"z": -1.7380634074,
				"element": "C" 
			},
			{
				"x": -2.3380229718,
				"y": 8.0309031159,
				"z": -1.7289332655,
				"element": "O" 
			},
			{
				"x": -0.2802485483,
				"y": 7.9854687628,
				"z": -0.8900611896,
				"element": "O" 
			},
			{
				"x": -0.6253403665,
				"y": -6.7588449672,
				"z": -0.7357646611,
				"element": "H" 
			},
			{
				"x": 0.5610474465,
				"y": -7.5755749639,
				"z": -1.7618943714,
				"element": "H" 
			},
			{
				"x": 0.6397336836,
				"y": -5.8259314051,
				"z": -1.5450143351,
				"element": "H" 
			},
			{
				"x": 1.1483678727,
				"y": -7.9679235737,
				"z": 0.6098504678,
				"element": "H" 
			},
			{
				"x": 2.3903759259,
				"y": -6.9836707461,
				"z": -0.1421576756,
				"element": "H" 
			},
			{
				"x": 1.7608838912,
				"y": -6.2299010179,
				"z": 2.1671691584,
				"element": "H" 
			},
			{
				"x": 0.1203231134,
				"y": -5.9248908195,
				"z": 1.6237311583,
				"element": "H" 
			},
			{
				"x": 0.9528573542,
				"y": -4.1409815862,
				"z": 0.0730440799,
				"element": "H" 
			},
			{
				"x": 2.6077465543,
				"y": -4.539830558,
				"z": 0.4822343447,
				"element": "H" 
			},
			{
				"x": 1.987761637,
				"y": -2.5345585475,
				"z": 1.6831961016,
				"element": "H" 
			},
			{
				"x": 2.2561710748,
				"y": -3.8287460007,
				"z": 2.8310107033,
				"element": "H" 
			},
			{
				"x": 0.3328315845,
				"y": -2.5125256897,
				"z": 3.5169881637,
				"element": "H" 
			},
			{
				"x": -0.1727471304,
				"y": -4.1469530401,
				"z": 3.1484467292,
				"element": "H" 
			},
			{
				"x": -1.832415732,
				"y": -2.6027338018,
				"z": 2.312467814,
				"element": "H" 
			},
			{
				"x": -1.0858626757,
				"y": -3.3928202202,
				"z": 0.9405647224,
				"element": "H" 
			},
			{
				"x": 0.3275490957,
				"y": -1.3577804671,
				"z": 0.5208043216,
				"element": "H" 
			},
			{
				"x": -0.3514762821,
				"y": -0.5879540124,
				"z": 1.9427737906,
				"element": "H" 
			},
			{
				"x": -2.6299140396,
				"y": -0.6593517894,
				"z": 0.9032278018,
				"element": "H" 
			},
			{
				"x": -1.9717426913,
				"y": -1.464738018,
				"z": -0.5106811838,
				"element": "H" 
			},
			{
				"x": -2.351900636,
				"y": 0.994725896,
				"z": -0.8239958583,
				"element": "H" 
			},
			{
				"x": -1.173464003,
				"y": 1.3506553647,
				"z": 0.4337601594,
				"element": "H" 
			},
			{
				"x": -0.5031834404,
				"y": -0.0718078393,
				"z": -2.2343416902,
				"element": "H" 
			},
			{
				"x": 0.9801316755,
				"y": 1.9368382152,
				"z": -0.4744290111,
				"element": "H" 
			},
			{
				"x": 1.6761553026,
				"y": 0.3932434929,
				"z": -3.0522268443,
				"element": "H" 
			},
			{
				"x": 2.8579592487,
				"y": 1.0147881194,
				"z": -1.9101640377,
				"element": "H" 
			},
			{
				"x": 2.5806157215,
				"y": 2.2148332814,
				"z": -4.1667771175,
				"element": "H" 
			},
			{
				"x": 1.0558237036,
				"y": 2.84232187,
				"z": -3.5788333765,
				"element": "H" 
			},
			{
				"x": 3.8277400601,
				"y": 3.3160044378,
				"z": -2.3386916304,
				"element": "H" 
			},
			{
				"x": 3.0210309495,
				"y": 4.4141858772,
				"z": -3.4318161661,
				"element": "H" 
			},
			{
				"x": 2.8845191666,
				"y": 5.2288653648,
				"z": -1.1433681299,
				"element": "H" 
			},
			{
				"x": 2.1883961346,
				"y": 3.7358373535,
				"z": -0.5638558278,
				"element": "H" 
			},
			{
				"x": 0.0956139098,
				"y": 4.1705174322,
				"z": -1.853973758,
				"element": "H" 
			},
			{
				"x": 0.4729585532,
				"y": 5.4416464404,
				"z": -0.6987933671,
				"element": "H" 
			},
			{
				"x": 1.4316501245,
				"y": 6.8442335248,
				"z": -2.5487679212,
				"element": "H" 
			},
			{
				"x": 0.9858547873,
				"y": 5.6001225305,
				"z": -3.7147794947,
				"element": "H" 
			},
			{
				"x": -1.4483847963,
				"y": 5.878215898,
				"z": -2.9603878055,
				"element": "H" 
			},
			{
				"x": -0.7538049746,
				"y": 7.2484002107,
				"z": -3.8123965495,
				"element": "H" 
			},
			{
				"x": -2.8257115457,
				"y": 7.6341714935,
				"z": -2.4646823715,
				"element": "H" 
			}
		],
		 "valence_orbital": [ 
			{
				"type": "occ",
				"energy": -0.30455,
				"method": "rhf"
			},
			{
				"type": "occ",
				"energy": -0.30207,
				"method": "rhf"
			},
			{
				"type": "occ",
				"energy": -0.29649,
				"method": "rhf"
			},
			{
				"type": "occ",
				"energy": -0.26961,
				"method": "rhf"
			},
			{
				"type": "occ",
				"energy": -0.23729,
				"method": "rhf"
			},
			{
				"type": "unocc",
				"energy": 0.01161,
				"method": "rhf"
			},
			{
				"type": "unocc",
				"energy": 0.02405,
				"method": "rhf"
			},
			{
				"type": "unocc",
				"energy": 0.05519,
				"method": "rhf"
			},
			{
				"type": "unocc",
				"energy": 0.07929,
				"method": "rhf"
			},
			{
				"type": "unocc",
				"energy": 0.08322,
				"method": "rhf"
			}
		],
		"cosmo_sigma_profile": { 
			"-0.025": 0.0,
			"-0.024": 0.0,
			"-0.023": 0.0,
			"-0.022": 0.0,
			"-0.021": 0.0,
			"-0.02": 0.0,
			"-0.019": 0.267000657791,
			"-0.018": 1.00860217871,
			"-0.017": 1.40460405375,
			"-0.016": 0.431703134265,
			"-0.015": 1.46154674503,
			"-0.014": 0.960459909949,
			"-0.013": 0.803904266346,
			"-0.012": 1.38399176753,
			"-0.011": 1.18785392239,
			"-0.01": 1.55658663694,
			"-0.009": 0.854700839061,
			"-0.008": 1.45326524705,
			"-0.007": 3.50458294982,
			"-0.006": 3.99864367523,
			"-0.005": 3.90817797237,
			"-0.004": 6.0435760752,
			"-0.003": 17.0125427794,
			"-0.002": 59.9804459152,
			"-0.001": 93.0303641212,
			"0.0": 92.3627221188,
			"0.001": 77.2146995506,
			"0.002": 32.825689167,
			"0.003": 8.55140750783,
			"0.004": 7.24322382605,
			"0.005": 6.1314458901,
			"0.006": 3.55332287018,
			"0.007": 2.72565237979,
			"0.008": 2.62977718825,
			"0.009": 3.35052220559,
			"0.01": 4.01448616411,
			"0.011": 5.40242925225,
			"0.012": 5.38464778318,
			"0.013": 2.63254612315,
			"0.014": 0.2135972339,
			"0.015": 0.0,
			"0.016": 0.0,
			"0.017": 0.0,
			"0.018": 0.0,
			"0.019": 0.0,
			"0.02": 0.0,
			"0.021": 0.0,
			"0.022": 0.0,
			"0.023": 0.0,
			"0.024": 0.0,
			"0.025": 0.0
		}
	}
}
