{
	 "smiles": "OC1=CC=C(C=N1)C(=O)OCC1=CC=CC=C1", 
	 "Tm": 452.65, 
	 "num_atms": 28, 
	 "gaussian": { 
		 "optdone": 1, 
		 "sigma_profile": "yes", 
		 "theory": "DFT", 
		 "functional": "B3LYP", 
		 "basiset": "6-31G**", 
		 "properties": { 
			 "R2extent": 5774.2197, 
			 "electric_dipole_moment_norm": 1.25667597256, 
			 "electric_quadrupole_moment_norm": 5.99052859855, 
			 "total_energy": -782.455081249, 
			 "HOMO_LUMO_gap": 0.20164, 
			 "cosmo_polarized_energy": -11.08, 
			 "cosmo_cavitation_energy": 33.34, 
			 "cosmo_dispersion_energy": -24.15, 
			 "cosmo_repulsion_energy": 1.87, 
			 "cosmo_total_nonelectrostatic_energy": 11.06, 
			 "SMD_solvation_energy": 5.63 
		},
		"coords": [
			{
				"x": -1.6448092963,
				"y": 5.2625882583,
				"z": -2.094556141,
				"element": "O" 
			},
			{
				"x": -1.3219092684,
				"y": 4.2339587246,
				"z": -1.2867927565,
				"element": "C" 
			},
			{
				"x": -2.0793540832,
				"y": 4.0287738841,
				"z": -0.12043938,
				"element": "C" 
			},
			{
				"x": -1.7246288854,
				"y": 2.9660155178,
				"z": 0.6887395208,
				"element": "C" 
			},
			{
				"x": -0.6413130927,
				"y": 2.1453616436,
				"z": 0.3255975831,
				"element": "C" 
			},
			{
				"x": 0.0371022871,
				"y": 2.4469216919,
				"z": -0.8588459926,
				"element": "C" 
			},
			{
				"x": -0.2922825481,
				"y": 3.4708567352,
				"z": -1.6546079952,
				"element": "N" 
			},
			{
				"x": -0.2750049163,
				"y": 1.009386244,
				"z": 1.206177981,
				"element": "C" 
			},
			{
				"x": -0.8675185471,
				"y": 0.7307887609,
				"z": 2.2336797143,
				"element": "O" 
			},
			{
				"x": 0.7951279326,
				"y": 0.3266016787,
				"z": 0.7406792647,
				"element": "O" 
			},
			{
				"x": 1.2381946311,
				"y": -0.8154225873,
				"z": 1.5271818497,
				"element": "C" 
			},
			{
				"x": 0.5982048369,
				"y": -2.099751879,
				"z": 1.0618906053,
				"element": "C" 
			},
			{
				"x": -0.6405201738,
				"y": -2.5072673669,
				"z": 1.5771738175,
				"element": "C" 
			},
			{
				"x": -1.2315620829,
				"y": -3.6913701776,
				"z": 1.1363758347,
				"element": "C" 
			},
			{
				"x": -0.5923261838,
				"y": -4.4810780025,
				"z": 0.1777145144,
				"element": "C" 
			},
			{
				"x": 0.6413586689,
				"y": -4.0825125667,
				"z": -0.3401606329,
				"element": "C" 
			},
			{
				"x": 1.2315209993,
				"y": -2.8975177942,
				"z": 0.100926387,
				"element": "C" 
			},
			{
				"x": -1.0142816951,
				"y": 5.2321918593,
				"z": -2.8325413561,
				"element": "H" 
			},
			{
				"x": -2.9046130947,
				"y": 4.6909821525,
				"z": 0.1133604694,
				"element": "H" 
			},
			{
				"x": -2.2633376607,
				"y": 2.7455483599,
				"z": 1.6043007541,
				"element": "H" 
			},
			{
				"x": 0.8771138694,
				"y": 1.8374800116,
				"z": -1.1779127507,
				"element": "H" 
			},
			{
				"x": 2.3194388219,
				"y": -0.8395000736,
				"z": 1.3764624952,
				"element": "H" 
			},
			{
				"x": 1.0160015613,
				"y": -0.6164095317,
				"z": 2.5769282959,
				"element": "H" 
			},
			{
				"x": -1.1366055116,
				"y": -1.8845182472,
				"z": 2.3151467385,
				"element": "H" 
			},
			{
				"x": -2.190474636,
				"y": -3.9996057952,
				"z": 1.5432982904,
				"element": "H" 
			},
			{
				"x": -1.0525624113,
				"y": -5.4045348171,
				"z": -0.1622448246,
				"element": "H" 
			},
			{
				"x": 1.1443109864,
				"y": -4.6941852876,
				"z": -1.0837422484,
				"element": "H" 
			},
			{
				"x": 2.1937294926,
				"y": -2.5894813959,
				"z": -0.301290038,
				"element": "H" 
			}
		],
		 "valence_orbital": [ 
			{
				"type": "occ",
				"energy": -0.28717,
				"method": "rhf"
			},
			{
				"type": "occ",
				"energy": -0.272,
				"method": "rhf"
			},
			{
				"type": "occ",
				"energy": -0.25214,
				"method": "rhf"
			},
			{
				"type": "occ",
				"energy": -0.25013,
				"method": "rhf"
			},
			{
				"type": "occ",
				"energy": -0.24558,
				"method": "rhf"
			},
			{
				"type": "unocc",
				"energy": -0.04394,
				"method": "rhf"
			},
			{
				"type": "unocc",
				"energy": -0.02967,
				"method": "rhf"
			},
			{
				"type": "unocc",
				"energy": -0.01169,
				"method": "rhf"
			},
			{
				"type": "unocc",
				"energy": -0.00314,
				"method": "rhf"
			},
			{
				"type": "unocc",
				"energy": 0.05661,
				"method": "rhf"
			}
		],
		"cosmo_sigma_profile": { 
			"-0.025": 0.0,
			"-0.024": 0.0,
			"-0.023": 0.0,
			"-0.022": 0.0,
			"-0.021": 0.0,
			"-0.02": 0.0,
			"-0.019": 0.0,
			"-0.018": 0.199582878344,
			"-0.017": 0.937131893998,
			"-0.016": 0.733098532039,
			"-0.015": 0.730162112502,
			"-0.014": 0.427959704731,
			"-0.013": 0.476382563514,
			"-0.012": 0.941514522535,
			"-0.011": 0.476804168579,
			"-0.01": 0.601559103057,
			"-0.009": 0.717647892435,
			"-0.008": 1.53627787791,
			"-0.007": 6.00645345741,
			"-0.006": 14.4283313657,
			"-0.005": 18.1684276262,
			"-0.004": 19.3837286977,
			"-0.003": 18.6441488289,
			"-0.002": 16.71463192,
			"-0.001": 22.3547421107,
			"0.0": 26.0068352615,
			"0.001": 22.9631851487,
			"0.002": 17.8276942875,
			"0.003": 15.3191871637,
			"0.004": 15.0547752481,
			"0.005": 16.3488720111,
			"0.006": 8.52064746107,
			"0.007": 3.62686277649,
			"0.008": 3.72323098069,
			"0.009": 4.05168480664,
			"0.01": 3.5253297456,
			"0.011": 3.6243769502,
			"0.012": 2.77610145639,
			"0.013": 0.459741884231,
			"0.014": 0.0430410678434,
			"0.015": 0.0,
			"0.016": 0.0,
			"0.017": 0.0,
			"0.018": 0.0,
			"0.019": 0.0,
			"0.02": 0.0,
			"0.021": 0.0,
			"0.022": 0.0,
			"0.023": 0.0,
			"0.024": 0.0,
			"0.025": 0.0
		}
	}
}
