{
	 "smiles": "OC1=NN=C2CCNCC2=C1", 
	 "Tm": 485.15, 
	 "num_atms": 20, 
	 "gaussian": { 
		 "optdone": 1, 
		 "sigma_profile": "yes", 
		 "theory": "DFT", 
		 "functional": "B3LYP", 
		 "basiset": "6-31G**", 
		 "properties": { 
			 "R2extent": 1837.5804, 
			 "electric_dipole_moment_norm": 2.09477741061, 
			 "electric_quadrupole_moment_norm": 5.99865265039, 
			 "total_energy": -511.610823481, 
			 "HOMO_LUMO_gap": 0.18183, 
			 "cosmo_polarized_energy": -13.84, 
			 "cosmo_cavitation_energy": 22.84, 
			 "cosmo_dispersion_energy": -17.64, 
			 "cosmo_repulsion_energy": 1.42, 
			 "cosmo_total_nonelectrostatic_energy": 6.61, 
			 "SMD_solvation_energy": -0.54 
		},
		"coords": [
			{
				"x": -1.6259076963,
				"y": 3.2706635567,
				"z": -0.1127626055,
				"element": "O" 
			},
			{
				"x": -1.0635729481,
				"y": 2.0447777363,
				"z": -0.0590832057,
				"element": "C" 
			},
			{
				"x": -1.2045747916,
				"y": 1.2729694643,
				"z": -1.1339522573,
				"element": "N" 
			},
			{
				"x": -0.6652362797,
				"y": 0.0540095173,
				"z": -1.1448222327,
				"element": "N" 
			},
			{
				"x": 0.0122779225,
				"y": -0.3894329749,
				"z": -0.0845237597,
				"element": "C" 
			},
			{
				"x": 0.6146294203,
				"y": -1.7743991715,
				"z": -0.1935257063,
				"element": "C" 
			},
			{
				"x": 0.991264105,
				"y": -2.3378004226,
				"z": 1.1869815914,
				"element": "C" 
			},
			{
				"x": 1.7242856038,
				"y": -1.3771858755,
				"z": 2.0178566445,
				"element": "N" 
			},
			{
				"x": 0.9264546874,
				"y": -0.184775754,
				"z": 2.2872042098,
				"element": "C" 
			},
			{
				"x": 0.1862702514,
				"y": 0.3868954714,
				"z": 1.0861733199,
				"element": "C" 
			},
			{
				"x": -0.3759457523,
				"y": 1.6492377773,
				"z": 1.0958840991,
				"element": "C" 
			},
			{
				"x": -2.0432887007,
				"y": 3.3297258418,
				"z": -0.9887112364,
				"element": "H" 
			},
			{
				"x": -0.0856586734,
				"y": -2.429834861,
				"z": -0.722096836,
				"element": "H" 
			},
			{
				"x": 1.5153198806,
				"y": -1.7210339977,
				"z": -0.8217890653,
				"element": "H" 
			},
			{
				"x": 1.5942377168,
				"y": -3.2450730612,
				"z": 1.0785161754,
				"element": "H" 
			},
			{
				"x": 0.0846170988,
				"y": -2.6232091799,
				"z": 1.7363428108,
				"element": "H" 
			},
			{
				"x": 2.5815906885,
				"y": -1.1085496395,
				"z": 1.5390826916,
				"element": "H" 
			},
			{
				"x": 0.1812999794,
				"y": -0.4363300301,
				"z": 3.0566137493,
				"element": "H" 
			},
			{
				"x": 1.570209402,
				"y": 0.5837365625,
				"z": 2.7292542093,
				"element": "H" 
			},
			{
				"x": -0.3009719142,
				"y": 2.3202090401,
				"z": 1.9465574039,
				"element": "H" 
			}
		],
		 "valence_orbital": [ 
			{
				"type": "occ",
				"energy": -0.31153,
				"method": "rhf"
			},
			{
				"type": "occ",
				"energy": -0.28969,
				"method": "rhf"
			},
			{
				"type": "occ",
				"energy": -0.24738,
				"method": "rhf"
			},
			{
				"type": "occ",
				"energy": -0.23874,
				"method": "rhf"
			},
			{
				"type": "occ",
				"energy": -0.2287,
				"method": "rhf"
			},
			{
				"type": "unocc",
				"energy": -0.04687,
				"method": "rhf"
			},
			{
				"type": "unocc",
				"energy": -0.00536,
				"method": "rhf"
			},
			{
				"type": "unocc",
				"energy": 0.07823,
				"method": "rhf"
			},
			{
				"type": "unocc",
				"energy": 0.08852,
				"method": "rhf"
			},
			{
				"type": "unocc",
				"energy": 0.11075,
				"method": "rhf"
			}
		],
		"cosmo_sigma_profile": { 
			"-0.025": 0.0,
			"-0.024": 0.0,
			"-0.023": 0.0,
			"-0.022": 0.0,
			"-0.021": 0.0,
			"-0.02": 0.0,
			"-0.019": 0.0,
			"-0.018": 0.00478694416991,
			"-0.017": 0.648988265465,
			"-0.016": 0.948274718312,
			"-0.015": 0.572583450706,
			"-0.014": 0.527962871721,
			"-0.013": 0.720792842348,
			"-0.012": 0.512427938815,
			"-0.011": 0.889339193962,
			"-0.01": 2.34971152728,
			"-0.009": 2.84911961632,
			"-0.008": 3.66771760257,
			"-0.007": 4.86873235539,
			"-0.006": 8.53314318716,
			"-0.005": 11.6132021566,
			"-0.004": 18.767325234,
			"-0.003": 14.8188501771,
			"-0.002": 14.197995491,
			"-0.001": 15.3510480594,
			"0.0": 15.9232272126,
			"0.001": 8.53537960671,
			"0.002": 5.58353968496,
			"0.003": 3.8168621378,
			"0.004": 3.73408371758,
			"0.005": 4.41739134043,
			"0.006": 4.51159059454,
			"0.007": 3.29896031075,
			"0.008": 2.82959117892,
			"0.009": 4.91918197153,
			"0.01": 4.07698587611,
			"0.011": 2.49945495015,
			"0.012": 2.81113944071,
			"0.013": 3.22855394478,
			"0.014": 3.07173226742,
			"0.015": 2.61571469311,
			"0.016": 1.24834330784,
			"0.017": 0.920638292573,
			"0.018": 0.161388814192,
			"0.019": 0.0,
			"0.02": 0.0,
			"0.021": 0.0,
			"0.022": 0.0,
			"0.023": 0.0,
			"0.024": 0.0,
			"0.025": 0.0
		}
	}
}
