{
	 "smiles": "COC(=O)C1=C(OC2=CC=C(C=C2[N+]([O-])=O)C(F)(F)F)C=CS1", 
	 "Tm": 385.15, 
	 "num_atms": 31, 
	 "gaussian": { 
		 "optdone": 1, 
		 "sigma_profile": "yes", 
		 "theory": "DFT", 
		 "functional": "B3LYP", 
		 "basiset": "6-31G**", 
		 "properties": { 
			 "R2extent": 9967.7079, 
			 "electric_dipole_moment_norm": 3.42710404277, 
			 "electric_quadrupole_moment_norm": 11.0750238158, 
			 "total_energy": -1628.65366599, 
			 "HOMO_LUMO_gap": 0.14161, 
			 "cosmo_polarized_energy": -16.81, 
			 "cosmo_cavitation_energy": 40.87, 
			 "cosmo_dispersion_energy": -28.1, 
			 "cosmo_repulsion_energy": 2.05, 
			 "cosmo_total_nonelectrostatic_energy": 14.82, 
			 "SMD_solvation_energy": 12.1 
		},
		"coords": [
			{
				"x": 2.8156708816,
				"y": 3.9173865044,
				"z": -2.5422833393,
				"element": "C" 
			},
			{
				"x": 3.0143071612,
				"y": 2.6717806013,
				"z": -1.8575579579,
				"element": "O" 
			},
			{
				"x": 1.8835192266,
				"y": 1.9601420329,
				"z": -1.6138601687,
				"element": "C" 
			},
			{
				"x": 0.7742317981,
				"y": 2.3228226339,
				"z": -1.9466759038,
				"element": "O" 
			},
			{
				"x": 2.1976473215,
				"y": 0.7107731879,
				"z": -0.9109706709,
				"element": "C" 
			},
			{
				"x": 1.3074535254,
				"y": -0.2296379345,
				"z": -0.4305332521,
				"element": "C" 
			},
			{
				"x": -0.0382736836,
				"y": -0.1123530582,
				"z": -0.6604520547,
				"element": "O" 
			},
			{
				"x": -0.9596206819,
				"y": -0.73314934,
				"z": 0.1277852285,
				"element": "C" 
			},
			{
				"x": -1.9318625386,
				"y": -1.476700874,
				"z": -0.5554673311,
				"element": "C" 
			},
			{
				"x": -2.9425827951,
				"y": -2.1352874113,
				"z": 0.1288808161,
				"element": "C" 
			},
			{
				"x": -2.9939015923,
				"y": -2.0810159328,
				"z": 1.5276727335,
				"element": "C" 
			},
			{
				"x": -2.0429251336,
				"y": -1.3464991367,
				"z": 2.2233042959,
				"element": "C" 
			},
			{
				"x": -1.0429845924,
				"y": -0.6584055164,
				"z": 1.5328117914,
				"element": "C" 
			},
			{
				"x": -0.1439555997,
				"y": 0.1763710431,
				"z": 2.343283399,
				"element": "N" 
			},
			{
				"x": 0.3865062286,
				"y": 1.139749052,
				"z": 1.7967553877,
				"element": "O" 
			},
			{
				"x": -0.0081866701,
				"y": -0.1290959256,
				"z": 3.5278530602,
				"element": "O" 
			},
			{
				"x": -4.111295116,
				"y": -2.7757527099,
				"z": 2.2600553838,
				"element": "C" 
			},
			{
				"x": -3.8269197793,
				"y": -2.9482931919,
				"z": 3.5663335742,
				"element": "F" 
			},
			{
				"x": -4.3621288029,
				"y": -3.9921604879,
				"z": 1.726940236,
				"element": "F" 
			},
			{
				"x": -5.2623451567,
				"y": -2.0716791613,
				"z": 2.1871238094,
				"element": "F" 
			},
			{
				"x": 1.9290827911,
				"y": -1.3338408073,
				"z": 0.2213517939,
				"element": "C" 
			},
			{
				"x": 3.291728587,
				"y": -1.2050249991,
				"z": 0.2394460595,
				"element": "C" 
			},
			{
				"x": 3.8350633552,
				"y": 0.2360981413,
				"z": -0.5348798786,
				"element": "S" 
			},
			{
				"x": 2.3530290538,
				"y": 3.7511921712,
				"z": -3.5185284898,
				"element": "H" 
			},
			{
				"x": 2.1738522738,
				"y": 4.5798916184,
				"z": -1.9561762491,
				"element": "H" 
			},
			{
				"x": 3.8091103858,
				"y": 4.3504065312,
				"z": -2.6577019948,
				"element": "H" 
			},
			{
				"x": -1.857677681,
				"y": -1.5231398977,
				"z": -1.6361361513,
				"element": "H" 
			},
			{
				"x": -3.6812487229,
				"y": -2.7109162944,
				"z": -0.418670875,
				"element": "H" 
			},
			{
				"x": -2.0582854813,
				"y": -1.2835281045,
				"z": 3.3036628066,
				"element": "H" 
			},
			{
				"x": 1.392339531,
				"y": -2.1749110354,
				"z": 0.6419306986,
				"element": "H" 
			},
			{
				"x": 4.0082519066,
				"y": -1.895221699,
				"z": 0.663403243,
				"element": "H" 
			}
		],
		 "valence_orbital": [ 
			{
				"type": "occ",
				"energy": -0.29332,
				"method": "rhf"
			},
			{
				"type": "occ",
				"energy": -0.28803,
				"method": "rhf"
			},
			{
				"type": "occ",
				"energy": -0.27233,
				"method": "rhf"
			},
			{
				"type": "occ",
				"energy": -0.26286,
				"method": "rhf"
			},
			{
				"type": "occ",
				"energy": -0.24137,
				"method": "rhf"
			},
			{
				"type": "unocc",
				"energy": -0.09976,
				"method": "rhf"
			},
			{
				"type": "unocc",
				"energy": -0.05927,
				"method": "rhf"
			},
			{
				"type": "unocc",
				"energy": -0.04496,
				"method": "rhf"
			},
			{
				"type": "unocc",
				"energy": -0.02539,
				"method": "rhf"
			},
			{
				"type": "unocc",
				"energy": 0.01502,
				"method": "rhf"
			}
		],
		"cosmo_sigma_profile": { 
			"-0.025": 0.0,
			"-0.024": 0.0,
			"-0.023": 0.0,
			"-0.022": 0.0,
			"-0.021": 0.0,
			"-0.02": 0.0,
			"-0.019": 0.0,
			"-0.018": 0.0,
			"-0.017": 0.0,
			"-0.016": 0.0,
			"-0.015": 0.0,
			"-0.014": 0.0,
			"-0.013": 0.0,
			"-0.012": 0.0,
			"-0.011": 0.0,
			"-0.01": 1.78415175383,
			"-0.009": 6.49203197327,
			"-0.008": 9.38032208403,
			"-0.007": 12.9565584204,
			"-0.006": 15.3056581679,
			"-0.005": 16.6273662787,
			"-0.004": 19.8151807822,
			"-0.003": 24.1454866872,
			"-0.002": 22.870166415,
			"-0.001": 23.926864471,
			"0.0": 23.6973567391,
			"0.001": 26.0846495454,
			"0.002": 40.3370221684,
			"0.003": 27.3441122895,
			"0.004": 7.70192259434,
			"0.005": 7.99315280034,
			"0.006": 9.2357362739,
			"0.007": 10.5704794084,
			"0.008": 6.78673307507,
			"0.009": 5.20924441733,
			"0.01": 2.70658232407,
			"0.011": 3.25980162045,
			"0.012": 5.13318515041,
			"0.013": 1.79353919642,
			"0.014": 0.027701444252,
			"0.015": 0.0,
			"0.016": 0.0,
			"0.017": 0.0,
			"0.018": 0.0,
			"0.019": 0.0,
			"0.02": 0.0,
			"0.021": 0.0,
			"0.022": 0.0,
			"0.023": 0.0,
			"0.024": 0.0,
			"0.025": 0.0
		}
	}
}
