{
	 "smiles": "CC(OC1=CC=C(OC2=C(Cl)C=C(C=N2)C(F)(F)F)C=C1)C(O)=O", 
	 "Tm": 381.15, 
	 "num_atms": 35, 
	 "gaussian": { 
		 "optdone": 1, 
		 "sigma_profile": "yes", 
		 "theory": "DFT", 
		 "functional": "B3LYP", 
		 "basiset": "6-31G**", 
		 "properties": { 
			 "R2extent": 14365.8685, 
			 "electric_dipole_moment_norm": 4.42176199043, 
			 "electric_quadrupole_moment_norm": 27.6534250108, 
			 "total_energy": -1693.57240233, 
			 "HOMO_LUMO_gap": 0.19092, 
			 "cosmo_polarized_energy": -21.23, 
			 "cosmo_cavitation_energy": 44.88, 
			 "cosmo_dispersion_energy": -30.72, 
			 "cosmo_repulsion_energy": 2.32, 
			 "cosmo_total_nonelectrostatic_energy": 16.48, 
			 "SMD_solvation_energy": 9.0 
		},
		"coords": [
			{
				"x": 1.305018935,
				"y": -4.4374247927,
				"z": 3.3801479772,
				"element": "C" 
			},
			{
				"x": 0.84401289,
				"y": -3.1707920096,
				"z": 2.6539191669,
				"element": "C" 
			},
			{
				"x": 1.7943078477,
				"y": -2.1599819379,
				"z": 2.9352510283,
				"element": "O" 
			},
			{
				"x": 1.7865843617,
				"y": -1.0495942163,
				"z": 2.1041049684,
				"element": "C" 
			},
			{
				"x": 1.2078286547,
				"y": 0.1400953,
				"z": 2.5485285584,
				"element": "C" 
			},
			{
				"x": 1.2600237924,
				"y": 1.2741857975,
				"z": 1.7378138031,
				"element": "C" 
			},
			{
				"x": 1.885118747,
				"y": 1.2003039096,
				"z": 0.4970307502,
				"element": "C" 
			},
			{
				"x": 2.0068261464,
				"y": 2.3772010096,
				"z": -0.2518593236,
				"element": "O" 
			},
			{
				"x": 1.2548089827,
				"y": 2.5513232745,
				"z": -1.3596275455,
				"element": "C" 
			},
			{
				"x": 1.4592211104,
				"y": 3.7421714315,
				"z": -2.095394134,
				"element": "C" 
			},
			{
				"x": 2.6481709235,
				"y": 4.9105848934,
				"z": -1.5873838872,
				"element": "Cl" 
			},
			{
				"x": 0.6961184211,
				"y": 3.9548862883,
				"z": -3.2290359891,
				"element": "C" 
			},
			{
				"x": -0.2445478408,
				"y": 2.985786449,
				"z": -3.6044140676,
				"element": "C" 
			},
			{
				"x": -0.3676932659,
				"y": 1.8462182928,
				"z": -2.8167910268,
				"element": "C" 
			},
			{
				"x": 0.3681678578,
				"y": 1.6354301748,
				"z": -1.7189022919,
				"element": "N" 
			},
			{
				"x": -1.1190568298,
				"y": 3.2099475118,
				"z": -4.8038378453,
				"element": "C" 
			},
			{
				"x": -0.4248308502,
				"y": 3.7631939764,
				"z": -5.823865215,
				"element": "F" 
			},
			{
				"x": -1.6601187413,
				"y": 2.0571592181,
				"z": -5.2509526348,
				"element": "F" 
			},
			{
				"x": -2.141568468,
				"y": 4.0510099068,
				"z": -4.5284097698,
				"element": "F" 
			},
			{
				"x": 2.4733460389,
				"y": 0.0201584408,
				"z": 0.0487686862,
				"element": "C" 
			},
			{
				"x": 2.4230839114,
				"y": -1.1113936593,
				"z": 0.860574336,
				"element": "C" 
			},
			{
				"x": -0.5643133824,
				"y": -2.7674815519,
				"z": 3.1366812742,
				"element": "C" 
			},
			{
				"x": -1.5755479801,
				"y": -3.5224151496,
				"z": 2.6290868554,
				"element": "O" 
			},
			{
				"x": -0.7923952409,
				"y": -1.8939554767,
				"z": 3.9309388847,
				"element": "O" 
			},
			{
				"x": 0.6068669186,
				"y": -5.2649463399,
				"z": 3.2233006428,
				"element": "H" 
			},
			{
				"x": 2.2915511449,
				"y": -4.73225561,
				"z": 3.0153175361,
				"element": "H" 
			},
			{
				"x": 1.3732174994,
				"y": -4.237990464,
				"z": 4.4525882557,
				"element": "H" 
			},
			{
				"x": 0.7990900982,
				"y": -3.3526409796,
				"z": 1.5672030128,
				"element": "H" 
			},
			{
				"x": 0.7160611586,
				"y": 0.1537212656,
				"z": 3.5135069949,
				"element": "H" 
			},
			{
				"x": 0.8229453411,
				"y": 2.2130592542,
				"z": 2.0605234774,
				"element": "H" 
			},
			{
				"x": 0.835289273,
				"y": 4.8549228409,
				"z": -3.8173100616,
				"element": "H" 
			},
			{
				"x": -1.0791918331,
				"y": 1.0681354339,
				"z": -3.0769873958,
				"element": "H" 
			},
			{
				"x": 2.9712952556,
				"y": -0.0050416266,
				"z": -0.9143217123,
				"element": "H" 
			},
			{
				"x": 2.8947523974,
				"y": -2.0372179568,
				"z": 0.545805354,
				"element": "H" 
			},
			{
				"x": -1.2394432751,
				"y": -4.147562899,
				"z": 1.9705013376,
				"element": "H" 
			}
		],
		 "valence_orbital": [ 
			{
				"type": "occ",
				"energy": -0.29057,
				"method": "rhf"
			},
			{
				"type": "occ",
				"energy": -0.27567,
				"method": "rhf"
			},
			{
				"type": "occ",
				"energy": -0.26425,
				"method": "rhf"
			},
			{
				"type": "occ",
				"energy": -0.2577,
				"method": "rhf"
			},
			{
				"type": "occ",
				"energy": -0.24155,
				"method": "rhf"
			},
			{
				"type": "unocc",
				"energy": -0.05063,
				"method": "rhf"
			},
			{
				"type": "unocc",
				"energy": -0.03748,
				"method": "rhf"
			},
			{
				"type": "unocc",
				"energy": -0.0147,
				"method": "rhf"
			},
			{
				"type": "unocc",
				"energy": -0.00783,
				"method": "rhf"
			},
			{
				"type": "unocc",
				"energy": -0.00333,
				"method": "rhf"
			}
		],
		"cosmo_sigma_profile": { 
			"-0.025": 0.0,
			"-0.024": 0.0,
			"-0.023": 0.0,
			"-0.022": 0.0,
			"-0.021": 0.0,
			"-0.02": 0.0758622098844,
			"-0.019": 0.937578538715,
			"-0.018": 1.43955224523,
			"-0.017": 1.00069086756,
			"-0.016": 1.16395529533,
			"-0.015": 1.12026869858,
			"-0.014": 1.34424077667,
			"-0.013": 1.4680790549,
			"-0.012": 0.885926000642,
			"-0.011": 1.49725630261,
			"-0.01": 1.32309837228,
			"-0.009": 2.83003524518,
			"-0.008": 5.52804416706,
			"-0.007": 12.1614139674,
			"-0.006": 13.9132524248,
			"-0.005": 18.3052111433,
			"-0.004": 19.4253497788,
			"-0.003": 24.6307823439,
			"-0.002": 26.5957690913,
			"-0.001": 31.0360230834,
			"0.0": 22.18542284,
			"0.001": 20.466350739,
			"0.002": 39.4879141803,
			"0.003": 43.6192416817,
			"0.004": 14.5662189701,
			"0.005": 8.80910730308,
			"0.006": 6.93705086762,
			"0.007": 7.07548196122,
			"0.008": 6.89277294031,
			"0.009": 5.99650682505,
			"0.01": 8.6288677218,
			"0.011": 6.47175961533,
			"0.012": 3.30260977748,
			"0.013": 0.673552357505,
			"0.014": 0.0,
			"0.015": 0.0,
			"0.016": 0.0,
			"0.017": 0.0,
			"0.018": 0.0,
			"0.019": 0.0,
			"0.02": 0.0,
			"0.021": 0.0,
			"0.022": 0.0,
			"0.023": 0.0,
			"0.024": 0.0,
			"0.025": 0.0
		}
	}
}
