{
	 "smiles": "CN(CC(=O)N1CCOCC1)C(=O)CCl", 
	 "Tm": 349.15, 
	 "num_atms": 30, 
	 "gaussian": { 
		 "optdone": 1, 
		 "sigma_profile": "yes", 
		 "theory": "DFT", 
		 "functional": "B3LYP", 
		 "basiset": "6-31G**", 
		 "properties": { 
			 "R2extent": 5281.1045, 
			 "electric_dipole_moment_norm": 5.47222888958, 
			 "electric_quadrupole_moment_norm": 22.3867454689, 
			 "total_energy": -1147.35045259, 
			 "HOMO_LUMO_gap": 0.24341, 
			 "cosmo_polarized_energy": -21.65, 
			 "cosmo_cavitation_energy": 33.14, 
			 "cosmo_dispersion_energy": -23.45, 
			 "cosmo_repulsion_energy": 1.86, 
			 "cosmo_total_nonelectrostatic_energy": 11.55, 
			 "SMD_solvation_energy": 6.2 
		},
		"coords": [
			{
				"x": 1.8038326707,
				"y": -2.3390697705,
				"z": -2.4777393171,
				"element": "C" 
			},
			{
				"x": 1.4002923258,
				"y": -0.9870708723,
				"z": -2.0883912655,
				"element": "N" 
			},
			{
				"x": 0.0855795367,
				"y": -0.8485359112,
				"z": -1.4589308938,
				"element": "C" 
			},
			{
				"x": -0.0065727464,
				"y": 0.0516973678,
				"z": -0.2112743369,
				"element": "C" 
			},
			{
				"x": -0.8262377241,
				"y": 0.9670246193,
				"z": -0.1918997084,
				"element": "O" 
			},
			{
				"x": 0.8216705946,
				"y": -0.2031871366,
				"z": 0.8449743886,
				"element": "N" 
			},
			{
				"x": 1.7550993734,
				"y": -1.3313867049,
				"z": 0.9518358511,
				"element": "C" 
			},
			{
				"x": 1.9898950878,
				"y": -1.6512143909,
				"z": 2.4278876163,
				"element": "C" 
			},
			{
				"x": 2.539878411,
				"y": -0.5596678576,
				"z": 3.1502205625,
				"element": "O" 
			},
			{
				"x": 2.0919851102,
				"y": 0.7267184522,
				"z": 2.7183014819,
				"element": "C" 
			},
			{
				"x": 0.7421943269,
				"y": 0.6865404464,
				"z": 2.012946618,
				"element": "C" 
			},
			{
				"x": 2.0812491491,
				"y": 0.0653900129,
				"z": -2.6829135119,
				"element": "C" 
			},
			{
				"x": 3.066259339,
				"y": -0.1098673056,
				"z": -3.3786264675,
				"element": "O" 
			},
			{
				"x": 1.5478156818,
				"y": 1.4690321763,
				"z": -2.3561254471,
				"element": "C" 
			},
			{
				"x": 2.2716994694,
				"y": 2.7226836106,
				"z": -3.4107156905,
				"element": "Cl" 
			},
			{
				"x": 1.1259531497,
				"y": -2.7544490493,
				"z": -3.2346245054,
				"element": "H" 
			},
			{
				"x": 2.8070743124,
				"y": -2.2900820656,
				"z": -2.8962571664,
				"element": "H" 
			},
			{
				"x": 1.8011906167,
				"y": -3.0010857799,
				"z": -1.6061130359,
				"element": "H" 
			},
			{
				"x": -0.2431425037,
				"y": -1.8555474981,
				"z": -1.182410979,
				"element": "H" 
			},
			{
				"x": -0.6659318257,
				"y": -0.4520515811,
				"z": -2.1502407576,
				"element": "H" 
			},
			{
				"x": 2.7099366069,
				"y": -1.103048524,
				"z": 0.4622157513,
				"element": "H" 
			},
			{
				"x": 1.3365870118,
				"y": -2.2170179161,
				"z": 0.4647732401,
				"element": "H" 
			},
			{
				"x": 1.0416266753,
				"y": -1.9794790944,
				"z": 2.8822677922,
				"element": "H" 
			},
			{
				"x": 2.7026209885,
				"y": -2.4773990428,
				"z": 2.5133635521,
				"element": "H" 
			},
			{
				"x": 2.8416441228,
				"y": 1.1716608469,
				"z": 2.0463826552,
				"element": "H" 
			},
			{
				"x": 2.0251876485,
				"y": 1.3605214314,
				"z": 3.608632965,
				"element": "H" 
			},
			{
				"x": 0.454815598,
				"y": 1.6809442143,
				"z": 1.6652603384,
				"element": "H" 
			},
			{
				"x": -0.0429895943,
				"y": 0.3472309464,
				"z": 2.7015218007,
				"element": "H" 
			},
			{
				"x": 1.8032774093,
				"y": 1.7263659642,
				"z": -1.3258676084,
				"element": "H" 
			},
			{
				"x": 0.4644091779,
				"y": 1.5413504123,
				"z": -2.452853922,
				"element": "H" 
			}
		],
		 "valence_orbital": [ 
			{
				"type": "occ",
				"energy": -0.27603,
				"method": "rhf"
			},
			{
				"type": "occ",
				"energy": -0.27015,
				"method": "rhf"
			},
			{
				"type": "occ",
				"energy": -0.26533,
				"method": "rhf"
			},
			{
				"type": "occ",
				"energy": -0.25739,
				"method": "rhf"
			},
			{
				"type": "occ",
				"energy": -0.25129,
				"method": "rhf"
			},
			{
				"type": "unocc",
				"energy": -0.00788,
				"method": "rhf"
			},
			{
				"type": "unocc",
				"energy": 0.0069,
				"method": "rhf"
			},
			{
				"type": "unocc",
				"energy": 0.03469,
				"method": "rhf"
			},
			{
				"type": "unocc",
				"energy": 0.05072,
				"method": "rhf"
			},
			{
				"type": "unocc",
				"energy": 0.07421,
				"method": "rhf"
			}
		],
		"cosmo_sigma_profile": { 
			"-0.025": 0.0,
			"-0.024": 0.0,
			"-0.023": 0.0,
			"-0.022": 0.0,
			"-0.021": 0.0,
			"-0.02": 0.0,
			"-0.019": 0.0,
			"-0.018": 0.0,
			"-0.017": 0.0,
			"-0.016": 0.0,
			"-0.015": 0.0,
			"-0.014": 0.0,
			"-0.013": 0.0,
			"-0.012": 0.00788997018424,
			"-0.011": 0.358219491886,
			"-0.01": 1.63104184649,
			"-0.009": 4.18194844141,
			"-0.008": 6.57278413658,
			"-0.007": 8.72435307063,
			"-0.006": 14.2415938466,
			"-0.005": 30.6288038195,
			"-0.004": 36.8444620458,
			"-0.003": 22.6703308599,
			"-0.002": 18.637941434,
			"-0.001": 12.7368170379,
			"0.0": 8.33886893222,
			"0.001": 7.22973862438,
			"0.002": 7.65548519781,
			"0.003": 8.1287504053,
			"0.004": 8.78870072133,
			"0.005": 9.27439065937,
			"0.006": 10.084334579,
			"0.007": 4.9470834023,
			"0.008": 4.79140334588,
			"0.009": 5.12023550859,
			"0.01": 3.39539869753,
			"0.011": 5.19237365372,
			"0.012": 6.87940670345,
			"0.013": 9.71347784526,
			"0.014": 4.70795375809,
			"0.015": 0.237623215751,
			"0.016": 0.0,
			"0.017": 0.0,
			"0.018": 0.0,
			"0.019": 0.0,
			"0.02": 0.0,
			"0.021": 0.0,
			"0.022": 0.0,
			"0.023": 0.0,
			"0.024": 0.0,
			"0.025": 0.0
		}
	}
}
