{
	 "smiles": "NCCNC1=CC=NC=C1", 
	 "Tm": 392.15, 
	 "num_atms": 21, 
	 "gaussian": { 
		 "optdone": 1, 
		 "sigma_profile": "yes", 
		 "theory": "DFT", 
		 "functional": "B3LYP", 
		 "basiset": "6-31G**", 
		 "properties": { 
			 "R2extent": 2479.1133, 
			 "electric_dipole_moment_norm": 3.68694992236, 
			 "electric_quadrupole_moment_norm": 16.9489523959, 
			 "total_energy": -437.619941985, 
			 "HOMO_LUMO_gap": 0.21172, 
			 "cosmo_polarized_energy": -13.34, 
			 "cosmo_cavitation_energy": 24.06, 
			 "cosmo_dispersion_energy": -17.64, 
			 "cosmo_repulsion_energy": 1.45, 
			 "cosmo_total_nonelectrostatic_energy": 7.88, 
			 "SMD_solvation_energy": 1.03 
		},
		"coords": [
			{
				"x": -1.9136961238,
				"y": -0.7623869041,
				"z": -0.9475711596,
				"element": "N" 
			},
			{
				"x": -0.4834414406,
				"y": -0.4706036865,
				"z": -1.0878386293,
				"element": "C" 
			},
			{
				"x": -0.2643013224,
				"y": 1.0476246127,
				"z": -1.1529696354,
				"element": "C" 
			},
			{
				"x": -0.7525452618,
				"y": 1.7711796182,
				"z": 0.0102540004,
				"element": "N" 
			},
			{
				"x": -0.1273176382,
				"y": 1.8405565961,
				"z": 1.2325068738,
				"element": "C" 
			},
			{
				"x": -0.7795507006,
				"y": 2.440621157,
				"z": 2.331455555,
				"element": "C" 
			},
			{
				"x": -0.1212735842,
				"y": 2.5288544755,
				"z": 3.5495515335,
				"element": "C" 
			},
			{
				"x": 1.1221162314,
				"y": 2.0773084936,
				"z": 3.7806510864,
				"element": "N" 
			},
			{
				"x": 1.7333095954,
				"y": 1.5095633577,
				"z": 2.7330537207,
				"element": "C" 
			},
			{
				"x": 1.1773170423,
				"y": 1.360106378,
				"z": 1.4654786809,
				"element": "C" 
			},
			{
				"x": -2.0806210448,
				"y": -1.7557902816,
				"z": -1.0831540411,
				"element": "H" 
			},
			{
				"x": -2.2049255439,
				"y": -0.5577625505,
				"z": 0.0054549584,
				"element": "H" 
			},
			{
				"x": -0.1324459418,
				"y": -0.9036376006,
				"z": -2.0321510782,
				"element": "H" 
			},
			{
				"x": 0.142260746,
				"y": -0.8973384365,
				"z": -0.2861313793,
				"element": "H" 
			},
			{
				"x": 0.7989571964,
				"y": 1.2698670836,
				"z": -1.2991490446,
				"element": "H" 
			},
			{
				"x": -0.8004959678,
				"y": 1.4387197702,
				"z": -2.0227676732,
				"element": "H" 
			},
			{
				"x": -1.7220896866,
				"y": 2.047526415,
				"z": -0.0132735917,
				"element": "H" 
			},
			{
				"x": -1.7868400752,
				"y": 2.8354609925,
				"z": 2.2235523022,
				"element": "H" 
			},
			{
				"x": -0.6261619455,
				"y": 2.9924442696,
				"z": 4.3962537963,
				"element": "H" 
			},
			{
				"x": 2.7424713323,
				"y": 1.1401513528,
				"z": 2.9130888212,
				"element": "H" 
			},
			{
				"x": 1.7521741332,
				"y": 0.8800348872,
				"z": 0.6820049035,
				"element": "H" 
			}
		],
		 "valence_orbital": [ 
			{
				"type": "occ",
				"energy": -0.31917,
				"method": "rhf"
			},
			{
				"type": "occ",
				"energy": -0.25109,
				"method": "rhf"
			},
			{
				"type": "occ",
				"energy": -0.24661,
				"method": "rhf"
			},
			{
				"type": "occ",
				"energy": -0.2395,
				"method": "rhf"
			},
			{
				"type": "occ",
				"energy": -0.2102,
				"method": "rhf"
			},
			{
				"type": "unocc",
				"energy": 0.00152,
				"method": "rhf"
			},
			{
				"type": "unocc",
				"energy": 0.00757,
				"method": "rhf"
			},
			{
				"type": "unocc",
				"energy": 0.06747,
				"method": "rhf"
			},
			{
				"type": "unocc",
				"energy": 0.08995,
				"method": "rhf"
			},
			{
				"type": "unocc",
				"energy": 0.10106,
				"method": "rhf"
			}
		],
		"cosmo_sigma_profile": { 
			"-0.025": 0.0,
			"-0.024": 0.0,
			"-0.023": 0.0,
			"-0.022": 0.0,
			"-0.021": 0.0,
			"-0.02": 0.0,
			"-0.019": 0.0,
			"-0.018": 0.0,
			"-0.017": 0.0,
			"-0.016": 0.0,
			"-0.015": 0.0,
			"-0.014": 0.0971012952878,
			"-0.013": 0.704771280177,
			"-0.012": 1.60718409472,
			"-0.011": 0.905819703967,
			"-0.01": 1.81976883184,
			"-0.009": 3.30611811154,
			"-0.008": 4.6357095516,
			"-0.007": 4.84671507911,
			"-0.006": 9.13374991952,
			"-0.005": 14.663179208,
			"-0.004": 17.0112455583,
			"-0.003": 16.5921954035,
			"-0.002": 17.2738487738,
			"-0.001": 13.2347605793,
			"0.0": 9.1065193129,
			"0.001": 7.1885298876,
			"0.002": 8.78541172255,
			"0.003": 7.2459175756,
			"0.004": 13.8519825757,
			"0.005": 10.5597142889,
			"0.006": 4.11419175425,
			"0.007": 3.23556921158,
			"0.008": 1.64982491754,
			"0.009": 2.2525291128,
			"0.01": 2.37514909186,
			"0.011": 1.65542199531,
			"0.012": 1.45502620966,
			"0.013": 1.76121641862,
			"0.014": 1.23968709552,
			"0.015": 1.70967591865,
			"0.016": 1.56994309056,
			"0.017": 1.40214257954,
			"0.018": 1.0673267999,
			"0.019": 1.03039199015,
			"0.02": 0.0536454372223,
			"0.021": 0.0,
			"0.022": 0.0,
			"0.023": 0.0,
			"0.024": 0.0,
			"0.025": 0.0
		}
	}
}
