{
	 "smiles": "OC(=O)C=C(/F)C(F)(F)C(F)(F)C(F)(F)C(F)(F)C(F)(F)C(F)(F)C(F)(F)F", 
	 "Tm": 378.15, 
	 "num_atms": 30, 
	 "gaussian": { 
		 "optdone": 1, 
		 "sigma_profile": "yes", 
		 "theory": "DFT", 
		 "functional": "B3LYP", 
		 "basiset": "6-31G**", 
		 "properties": { 
			 "R2extent": 10519.532, 
			 "electric_dipole_moment_norm": 3.55678487542, 
			 "electric_quadrupole_moment_norm": 18.9892014011, 
			 "total_energy": -2130.06208457, 
			 "HOMO_LUMO_gap": 0.20708, 
			 "cosmo_polarized_energy": -15.11, 
			 "cosmo_cavitation_energy": 39.73, 
			 "cosmo_dispersion_energy": -25.99, 
			 "cosmo_repulsion_energy": 1.69, 
			 "cosmo_total_nonelectrostatic_energy": 15.42, 
			 "SMD_solvation_energy": 12.9 
		},
		"coords": [
			{
				"x": 4.1681183951,
				"y": 2.3197415695,
				"z": 1.1912792596,
				"element": "O" 
			},
			{
				"x": 3.0226546611,
				"y": 2.1296086729,
				"z": 0.4827402017,
				"element": "C" 
			},
			{
				"x": 2.8462486643,
				"y": 2.7114795577,
				"z": -0.5583535836,
				"element": "O" 
			},
			{
				"x": 2.0582966917,
				"y": 1.174417167,
				"z": 1.096934993,
				"element": "C" 
			},
			{
				"x": 0.8918720542,
				"y": 0.840636023,
				"z": 0.5390106089,
				"element": "C" 
			},
			{
				"x": 0.4562657593,
				"y": 1.3296877733,
				"z": -0.6124605191,
				"element": "F" 
			},
			{
				"x": -0.0900798047,
				"y": -0.1294268916,
				"z": 1.1801068186,
				"element": "C" 
			},
			{
				"x": -1.3577434224,
				"y": 0.2396914076,
				"z": 0.8818736245,
				"element": "F" 
			},
			{
				"x": 0.0807629415,
				"y": -0.0566060867,
				"z": 2.5300799132,
				"element": "F" 
			},
			{
				"x": 0.0819492658,
				"y": -1.6489871826,
				"z": 0.8382026734,
				"element": "C" 
			},
			{
				"x": 1.4049420352,
				"y": -1.9444078476,
				"z": 0.8830763802,
				"element": "F" 
			},
			{
				"x": -0.543114324,
				"y": -2.3322554362,
				"z": 1.8267801182,
				"element": "F" 
			},
			{
				"x": -0.5118953041,
				"y": -2.2536811365,
				"z": -0.4765775844,
				"element": "C" 
			},
			{
				"x": -1.856331112,
				"y": -2.1198212091,
				"z": -0.4404437137,
				"element": "F" 
			},
			{
				"x": -0.216344373,
				"y": -3.5713582972,
				"z": -0.4073238704,
				"element": "F" 
			},
			{
				"x": 0.0473526525,
				"y": -1.7291908762,
				"z": -1.8534001898,
				"element": "C" 
			},
			{
				"x": 1.1845694216,
				"y": -1.0216190853,
				"z": -1.6231348663,
				"element": "F" 
			},
			{
				"x": 0.3625605442,
				"y": -2.7980736192,
				"z": -2.6142343709,
				"element": "F" 
			},
			{
				"x": -0.9496794655,
				"y": -0.8646442389,
				"z": -2.6733611366,
				"element": "C" 
			},
			{
				"x": -1.9175152399,
				"y": -1.6846264576,
				"z": -3.137842689,
				"element": "F" 
			},
			{
				"x": -1.5070368918,
				"y": 0.0622301051,
				"z": -1.8593543039,
				"element": "F" 
			},
			{
				"x": -0.3576196295,
				"y": -0.0701994498,
				"z": -3.8783195161,
				"element": "C" 
			},
			{
				"x": -1.4146842225,
				"y": 0.5178161409,
				"z": -4.4856909125,
				"element": "F" 
			},
			{
				"x": 0.469156727,
				"y": 0.8841384371,
				"z": -3.4050284231,
				"element": "F" 
			},
			{
				"x": 0.4047363739,
				"y": -0.8748766839,
				"z": -4.9591435346,
				"element": "C" 
			},
			{
				"x": -0.3125911862,
				"y": -1.9344478016,
				"z": -5.3534106043,
				"element": "F" 
			},
			{
				"x": 1.583884779,
				"y": -1.2945324352,
				"z": -4.4814032466,
				"element": "F" 
			},
			{
				"x": 0.6260930823,
				"y": -0.0832680497,
				"z": -6.0131510478,
				"element": "F" 
			},
			{
				"x": 4.1748932517,
				"y": 1.7893598649,
				"z": 1.9998073675,
				"element": "H" 
			},
			{
				"x": 2.2843776748,
				"y": 0.7080160659,
				"z": 2.0491421541,
				"element": "H" 
			}
		],
		 "valence_orbital": [ 
			{
				"type": "occ",
				"energy": -0.37126,
				"method": "rhf"
			},
			{
				"type": "occ",
				"energy": -0.3545,
				"method": "rhf"
			},
			{
				"type": "occ",
				"energy": -0.33354,
				"method": "rhf"
			},
			{
				"type": "occ",
				"energy": -0.30678,
				"method": "rhf"
			},
			{
				"type": "occ",
				"energy": -0.28851,
				"method": "rhf"
			},
			{
				"type": "unocc",
				"energy": -0.08143,
				"method": "rhf"
			},
			{
				"type": "unocc",
				"energy": 0.0018,
				"method": "rhf"
			},
			{
				"type": "unocc",
				"energy": 0.00746,
				"method": "rhf"
			},
			{
				"type": "unocc",
				"energy": 0.02985,
				"method": "rhf"
			},
			{
				"type": "unocc",
				"energy": 0.04144,
				"method": "rhf"
			}
		],
		"cosmo_sigma_profile": { 
			"-0.025": 0.0,
			"-0.024": 0.0,
			"-0.023": 0.0,
			"-0.022": 0.0,
			"-0.021": 0.238331658272,
			"-0.02": 1.3621696162,
			"-0.019": 1.32366914097,
			"-0.018": 1.57251701312,
			"-0.017": 0.70880087493,
			"-0.016": 1.00293548938,
			"-0.015": 1.09037821272,
			"-0.014": 1.2025894195,
			"-0.013": 0.758045061357,
			"-0.012": 1.46377203509,
			"-0.011": 1.98052737919,
			"-0.01": 0.487749959224,
			"-0.009": 1.09198904496,
			"-0.008": 2.06637273915,
			"-0.007": 2.86672699667,
			"-0.006": 4.42709513856,
			"-0.005": 5.03701327821,
			"-0.004": 7.04932618706,
			"-0.003": 13.0564657168,
			"-0.002": 17.7471905895,
			"-0.001": 27.1760251727,
			"0.0": 66.5060072783,
			"0.001": 101.652528059,
			"0.002": 20.7860000739,
			"0.003": 4.20289369349,
			"0.004": 3.09040486332,
			"0.005": 2.77286394268,
			"0.006": 2.256876737,
			"0.007": 3.27391151629,
			"0.008": 3.40380664836,
			"0.009": 4.57831660269,
			"0.01": 6.05473286751,
			"0.011": 4.80465758766,
			"0.012": 2.15233858155,
			"0.013": 0.275094300082,
			"0.014": 0.0,
			"0.015": 0.0,
			"0.016": 0.0,
			"0.017": 0.0,
			"0.018": 0.0,
			"0.019": 0.0,
			"0.02": 0.0,
			"0.021": 0.0,
			"0.022": 0.0,
			"0.023": 0.0,
			"0.024": 0.0,
			"0.025": 0.0
		}
	}
}
