{
	 "smiles": "OCCCC1=CN(N=C1C(O)=O)C1=CC=CC=C1", 
	 "Tm": 393.15, 
	 "num_atms": 32, 
	 "gaussian": { 
		 "optdone": 1, 
		 "sigma_profile": "yes", 
		 "theory": "DFT", 
		 "functional": "B3LYP", 
		 "basiset": "6-31G**", 
		 "properties": { 
			 "R2extent": 6544.1422, 
			 "electric_dipole_moment_norm": 6.55169879878, 
			 "electric_quadrupole_moment_norm": 17.8717264717, 
			 "total_energy": -838.987692237, 
			 "HOMO_LUMO_gap": 0.18959, 
			 "cosmo_polarized_energy": -18.95, 
			 "cosmo_cavitation_energy": 36.18, 
			 "cosmo_dispersion_energy": -25.48, 
			 "cosmo_repulsion_energy": 1.98, 
			 "cosmo_total_nonelectrostatic_energy": 12.67, 
			 "SMD_solvation_energy": 6.5 
		},
		"coords": [
			{
				"x": -0.1327323936,
				"y": -3.3313042305,
				"z": 0.6587124472,
				"element": "O" 
			},
			{
				"x": -0.2449441853,
				"y": -2.5468964288,
				"z": 1.8444716533,
				"element": "C" 
			},
			{
				"x": 1.1035276632,
				"y": -2.0837589699,
				"z": 2.3964298771,
				"element": "C" 
			},
			{
				"x": 1.8906894093,
				"y": -1.1349158008,
				"z": 1.4653399548,
				"element": "C" 
			},
			{
				"x": 1.2044999332,
				"y": 0.1735385831,
				"z": 1.1857438421,
				"element": "C" 
			},
			{
				"x": 0.5957162994,
				"y": 0.5839277107,
				"z": 0.0157581138,
				"element": "C" 
			},
			{
				"x": 0.1087595733,
				"y": 1.8518207806,
				"z": 0.2111163142,
				"element": "N" 
			},
			{
				"x": 0.3763320221,
				"y": 2.2915726523,
				"z": 1.4519458517,
				"element": "N" 
			},
			{
				"x": 1.0314441676,
				"y": 1.2908701049,
				"z": 2.0494532708,
				"element": "C" 
			},
			{
				"x": 1.4888307267,
				"y": 1.4718546658,
				"z": 3.4498233165,
				"element": "C" 
			},
			{
				"x": 1.1726722306,
				"y": 2.6666973819,
				"z": 3.9929440202,
				"element": "O" 
			},
			{
				"x": 2.0997685394,
				"y": 0.6292770422,
				"z": 4.0710846766,
				"element": "O" 
			},
			{
				"x": -0.580659942,
				"y": 2.676214481,
				"z": -0.7219843445,
				"element": "C" 
			},
			{
				"x": -0.4962978434,
				"y": 4.0671164782,
				"z": -0.604996283,
				"element": "C" 
			},
			{
				"x": -1.1669655779,
				"y": 4.8716739208,
				"z": -1.5235440914,
				"element": "C" 
			},
			{
				"x": -1.9090170317,
				"y": 4.2999151625,
				"z": -2.5597406086,
				"element": "C" 
			},
			{
				"x": -1.9880858869,
				"y": 2.9107142589,
				"z": -2.6667832272,
				"element": "C" 
			},
			{
				"x": -1.3336599553,
				"y": 2.0930287772,
				"z": -1.7459659844,
				"element": "C" 
			},
			{
				"x": 0.1730286322,
				"y": -2.7536429823,
				"z": -0.0507966988,
				"element": "H" 
			},
			{
				"x": -0.7341586818,
				"y": -3.1955439114,
				"z": 2.5779026248,
				"element": "H" 
			},
			{
				"x": -0.9090186873,
				"y": -1.6828070813,
				"z": 1.6841053805,
				"element": "H" 
			},
			{
				"x": 0.9516904251,
				"y": -1.5827302516,
				"z": 3.3582968162,
				"element": "H" 
			},
			{
				"x": 1.7239554037,
				"y": -2.9671901691,
				"z": 2.5867927838,
				"element": "H" 
			},
			{
				"x": 2.0984230844,
				"y": -1.6416799656,
				"z": 0.5142833241,
				"element": "H" 
			},
			{
				"x": 2.8594261997,
				"y": -0.932200917,
				"z": 1.9311670645,
				"element": "H" 
			},
			{
				"x": 0.513280907,
				"y": 0.0965695362,
				"z": -0.9440565495,
				"element": "H" 
			},
			{
				"x": 0.6826193822,
				"y": 3.1804678683,
				"z": 3.3261203749,
				"element": "H" 
			},
			{
				"x": 0.0911716235,
				"y": 4.497494195,
				"z": 0.1968625806,
				"element": "H" 
			},
			{
				"x": -1.1007378416,
				"y": 5.9515884073,
				"z": -1.432432108,
				"element": "H" 
			},
			{
				"x": -2.4251177129,
				"y": 4.9322812944,
				"z": -3.2753340138,
				"element": "H" 
			},
			{
				"x": -2.5732157099,
				"y": 2.4561339819,
				"z": -3.4603325697,
				"element": "H" 
			},
			{
				"x": -1.4303247733,
				"y": 1.0145134251,
				"z": -1.8104878086,
				"element": "H" 
			}
		],
		 "valence_orbital": [ 
			{
				"type": "occ",
				"energy": -0.27641,
				"method": "rhf"
			},
			{
				"type": "occ",
				"energy": -0.27394,
				"method": "rhf"
			},
			{
				"type": "occ",
				"energy": -0.27079,
				"method": "rhf"
			},
			{
				"type": "occ",
				"energy": -0.26264,
				"method": "rhf"
			},
			{
				"type": "occ",
				"energy": -0.24506,
				"method": "rhf"
			},
			{
				"type": "unocc",
				"energy": -0.05547,
				"method": "rhf"
			},
			{
				"type": "unocc",
				"energy": -0.02664,
				"method": "rhf"
			},
			{
				"type": "unocc",
				"energy": -0.01442,
				"method": "rhf"
			},
			{
				"type": "unocc",
				"energy": 0.01966,
				"method": "rhf"
			},
			{
				"type": "unocc",
				"energy": 0.05202,
				"method": "rhf"
			}
		],
		"cosmo_sigma_profile": { 
			"-0.025": 0.0,
			"-0.024": 0.0,
			"-0.023": 0.0,
			"-0.022": 0.0,
			"-0.021": 0.0,
			"-0.02": 0.0,
			"-0.019": 0.0,
			"-0.018": 0.0,
			"-0.017": 0.0,
			"-0.016": 0.0,
			"-0.015": 0.101329460817,
			"-0.014": 0.921713608829,
			"-0.013": 1.45160204337,
			"-0.012": 2.00984353905,
			"-0.011": 2.66531651004,
			"-0.01": 4.49191014926,
			"-0.009": 4.21655282389,
			"-0.008": 4.69617228417,
			"-0.007": 5.64775625658,
			"-0.006": 13.5158977078,
			"-0.005": 14.4157019821,
			"-0.004": 17.294223673,
			"-0.003": 18.9230322055,
			"-0.002": 28.2758968116,
			"-0.001": 29.0405830045,
			"0.0": 23.0615876337,
			"0.001": 20.0305279911,
			"0.002": 16.4060138615,
			"0.003": 15.5052568421,
			"0.004": 15.6332451695,
			"0.005": 7.42406604443,
			"0.006": 4.88898334412,
			"0.007": 4.62511394136,
			"0.008": 4.25110245943,
			"0.009": 4.80831010604,
			"0.01": 5.314770135,
			"0.011": 5.70217920311,
			"0.012": 4.66018728081,
			"0.013": 3.46470781907,
			"0.014": 2.44190639639,
			"0.015": 1.48330831296,
			"0.016": 0.0,
			"0.017": 0.0,
			"0.018": 0.0,
			"0.019": 0.0,
			"0.02": 0.0,
			"0.021": 0.0,
			"0.022": 0.0,
			"0.023": 0.0,
			"0.024": 0.0,
			"0.025": 0.0
		}
	}
}
