{
	 "smiles": "CCOC(=O)C1=CSC(NC2=CC=C(OC)C=C2)=N1", 
	 "Tm": 391.15, 
	 "num_atms": 33, 
	 "gaussian": { 
		 "optdone": 1, 
		 "sigma_profile": "yes", 
		 "theory": "DFT", 
		 "functional": "B3LYP", 
		 "basiset": "6-31G**", 
		 "properties": { 
			 "R2extent": 9963.0467, 
			 "electric_dipole_moment_norm": 4.55881869128, 
			 "electric_quadrupole_moment_norm": 14.422996171, 
			 "total_energy": -1237.17705481, 
			 "HOMO_LUMO_gap": 0.16107, 
			 "cosmo_polarized_energy": -15.87, 
			 "cosmo_cavitation_energy": 39.73, 
			 "cosmo_dispersion_energy": -29.45, 
			 "cosmo_repulsion_energy": 2.26, 
			 "cosmo_total_nonelectrostatic_energy": 12.54, 
			 "SMD_solvation_energy": 7.16 
		},
		"coords": [
			{
				"x": 6.1827811192,
				"y": -0.0088290682,
				"z": 1.7043050711,
				"element": "C" 
			},
			{
				"x": 5.8071452089,
				"y": -0.3408082409,
				"z": 0.2725796306,
				"element": "C" 
			},
			{
				"x": 4.3662473288,
				"y": -0.4201158793,
				"z": 0.2117758077,
				"element": "O" 
			},
			{
				"x": 3.853802638,
				"y": -0.7100267834,
				"z": -0.9980313282,
				"element": "C" 
			},
			{
				"x": 4.5261641342,
				"y": -0.8969961682,
				"z": -1.9958070537,
				"element": "O" 
			},
			{
				"x": 2.3695925289,
				"y": -0.777143884,
				"z": -0.9877075357,
				"element": "C" 
			},
			{
				"x": 1.6708695202,
				"y": -1.0579193669,
				"z": -2.1274040275,
				"element": "C" 
			},
			{
				"x": -0.0330965338,
				"y": -1.0700922096,
				"z": -1.7930732556,
				"element": "S" 
			},
			{
				"x": 0.3535518305,
				"y": -0.691780806,
				"z": -0.0966370782,
				"element": "C" 
			},
			{
				"x": -0.5945691478,
				"y": -0.4752512405,
				"z": 0.8676545,
				"element": "N" 
			},
			{
				"x": -1.998897408,
				"y": -0.5802316188,
				"z": 0.7914760372,
				"element": "C" 
			},
			{
				"x": -2.6415897807,
				"y": -1.5978578825,
				"z": 0.0662700827,
				"element": "C" 
			},
			{
				"x": -4.0281197329,
				"y": -1.669686969,
				"z": 0.0350648569,
				"element": "C" 
			},
			{
				"x": -4.8098902295,
				"y": -0.7517292541,
				"z": 0.7502269337,
				"element": "C" 
			},
			{
				"x": -6.1614241202,
				"y": -0.9197962964,
				"z": 0.6578935102,
				"element": "O" 
			},
			{
				"x": -6.9981075149,
				"y": -0.0172394843,
				"z": 1.3627866423,
				"element": "C" 
			},
			{
				"x": -4.1764138217,
				"y": 0.2470332777,
				"z": 1.4989876002,
				"element": "C" 
			},
			{
				"x": -2.7836285438,
				"y": 0.3324176147,
				"z": 1.5048876171,
				"element": "C" 
			},
			{
				"x": 1.6278716509,
				"y": -0.5759424092,
				"z": 0.1573271136,
				"element": "N" 
			},
			{
				"x": 5.8265224132,
				"y": -0.7824436402,
				"z": 2.3904343219,
				"element": "H" 
			},
			{
				"x": 5.748496941,
				"y": 0.9473230462,
				"z": 2.009934543,
				"element": "H" 
			},
			{
				"x": 7.2712792478,
				"y": 0.0606567017,
				"z": 1.7965172434,
				"element": "H" 
			},
			{
				"x": 6.1505007,
				"y": 0.4238663363,
				"z": -0.4318243296,
				"element": "H" 
			},
			{
				"x": 6.2290701222,
				"y": -1.2971560478,
				"z": -0.0531974825,
				"element": "H" 
			},
			{
				"x": 2.0670751243,
				"y": -1.2677750331,
				"z": -3.1092344668,
				"element": "H" 
			},
			{
				"x": -0.2024240425,
				"y": -0.066174307,
				"z": 1.7051199477,
				"element": "H" 
			},
			{
				"x": -2.0593945586,
				"y": -2.348946506,
				"z": -0.4554209992,
				"element": "H" 
			},
			{
				"x": -4.5300925555,
				"y": -2.4506906586,
				"z": -0.526284975,
				"element": "H" 
			},
			{
				"x": -6.8237132617,
				"y": -0.0634793105,
				"z": 2.4458138479,
				"element": "H" 
			},
			{
				"x": -6.8581022123,
				"y": 1.0167943051,
				"z": 1.0214678799,
				"element": "H" 
			},
			{
				"x": -8.0225095192,
				"y": -0.3278707036,
				"z": 1.1520781187,
				"element": "H" 
			},
			{
				"x": -4.7496799059,
				"y": 0.9695058413,
				"z": 2.0673872506,
				"element": "H" 
			},
			{
				"x": -2.300917619,
				"y": 1.1258866452,
				"z": 2.0693339754,
				"element": "H" 
			}
		],
		 "valence_orbital": [ 
			{
				"type": "occ",
				"energy": -0.28018,
				"method": "rhf"
			},
			{
				"type": "occ",
				"energy": -0.26321,
				"method": "rhf"
			},
			{
				"type": "occ",
				"energy": -0.2625,
				"method": "rhf"
			},
			{
				"type": "occ",
				"energy": -0.23899,
				"method": "rhf"
			},
			{
				"type": "occ",
				"energy": -0.19562,
				"method": "rhf"
			},
			{
				"type": "unocc",
				"energy": -0.03455,
				"method": "rhf"
			},
			{
				"type": "unocc",
				"energy": -0.01707,
				"method": "rhf"
			},
			{
				"type": "unocc",
				"energy": -0.00383,
				"method": "rhf"
			},
			{
				"type": "unocc",
				"energy": 0.01814,
				"method": "rhf"
			},
			{
				"type": "unocc",
				"energy": 0.03562,
				"method": "rhf"
			}
		],
		"cosmo_sigma_profile": { 
			"-0.025": 0.0,
			"-0.024": 0.0,
			"-0.023": 0.0,
			"-0.022": 0.0,
			"-0.021": 0.0,
			"-0.02": 0.0,
			"-0.019": 0.0,
			"-0.018": 0.0,
			"-0.017": 0.0,
			"-0.016": 0.0,
			"-0.015": 0.575158068796,
			"-0.014": 0.891363745458,
			"-0.013": 1.29296313805,
			"-0.012": 1.04530517291,
			"-0.011": 1.07253572812,
			"-0.01": 1.52801840602,
			"-0.009": 2.1868649044,
			"-0.008": 3.20067007652,
			"-0.007": 4.22997132304,
			"-0.006": 13.4293145801,
			"-0.005": 24.8509859054,
			"-0.004": 27.8611230534,
			"-0.003": 30.4307560484,
			"-0.002": 22.9122610166,
			"-0.001": 21.8347642209,
			"0.0": 27.2506745207,
			"0.001": 23.3339047769,
			"0.002": 23.9821686413,
			"0.003": 20.183256455,
			"0.004": 16.7680300609,
			"0.005": 11.8128747147,
			"0.006": 5.70549243082,
			"0.007": 3.54175455838,
			"0.008": 4.28539486245,
			"0.009": 3.9769437834,
			"0.01": 5.00284271718,
			"0.011": 4.71786798913,
			"0.012": 5.71269323817,
			"0.013": 2.32022615408,
			"0.014": 0.518366878667,
			"0.015": 1.27934072093,
			"0.016": 0.67541576893,
			"0.017": 0.037101155195,
			"0.018": 0.0,
			"0.019": 0.0,
			"0.02": 0.0,
			"0.021": 0.0,
			"0.022": 0.0,
			"0.023": 0.0,
			"0.024": 0.0,
			"0.025": 0.0
		}
	}
}
