{
	 "smiles": "CC(=O)C1=CC=C(C=C1)S(Cl)(=O)=O", 
	 "Tm": 357.15, 
	 "num_atms": 20, 
	 "gaussian": { 
		 "optdone": 1, 
		 "sigma_profile": "yes", 
		 "theory": "DFT", 
		 "functional": "B3LYP", 
		 "basiset": "6-31G**", 
		 "properties": { 
			 "R2extent": 4480.116, 
			 "electric_dipole_moment_norm": 4.43453773465, 
			 "electric_quadrupole_moment_norm": 13.640455889, 
			 "total_energy": -1393.05335929, 
			 "HOMO_LUMO_gap": 0.1682, 
			 "cosmo_polarized_energy": -12.5, 
			 "cosmo_cavitation_energy": 28.3, 
			 "cosmo_dispersion_energy": -21.0, 
			 "cosmo_repulsion_energy": 1.61, 
			 "cosmo_total_nonelectrostatic_energy": 8.91, 
			 "SMD_solvation_energy": 4.28 
		},
		"coords": [
			{
				"x": -3.5170731297,
				"y": 0.0005310356,
				"z": 2.0817494268,
				"element": "C" 
			},
			{
				"x": -2.4518210904,
				"y": -1.0677738419,
				"z": 2.2331032455,
				"element": "C" 
			},
			{
				"x": -2.4695701801,
				"y": -1.8492047133,
				"z": 3.1690931357,
				"element": "O" 
			},
			{
				"x": -1.3544788585,
				"y": -1.1562952036,
				"z": 1.2018021568,
				"element": "C" 
			},
			{
				"x": -0.381609753,
				"y": -2.1544967542,
				"z": 1.3680455355,
				"element": "C" 
			},
			{
				"x": 0.6580876701,
				"y": -2.2908381575,
				"z": 0.4553940076,
				"element": "C" 
			},
			{
				"x": 0.7070118934,
				"y": -1.4104891881,
				"z": -0.6279144937,
				"element": "C" 
			},
			{
				"x": -0.2443658955,
				"y": -0.4106710141,
				"z": -0.8250703293,
				"element": "C" 
			},
			{
				"x": -1.2790934011,
				"y": -0.2904866409,
				"z": 0.1009971108,
				"element": "C" 
			},
			{
				"x": 2.0271046784,
				"y": -1.5861716937,
				"z": -1.8248618897,
				"element": "S" 
			},
			{
				"x": 3.5179128396,
				"y": -0.3189154286,
				"z": -0.9773272474,
				"element": "Cl" 
			},
			{
				"x": 2.5580493401,
				"y": -2.9413552207,
				"z": -1.7607475102,
				"element": "O" 
			},
			{
				"x": 1.6255559591,
				"y": -0.961733347,
				"z": -3.0788402535,
				"element": "O" 
			},
			{
				"x": -3.0725721096,
				"y": 1.0020325076,
				"z": 2.0835634515,
				"element": "H" 
			},
			{
				"x": -4.2176644823,
				"y": -0.0855008467,
				"z": 2.9123544829,
				"element": "H" 
			},
			{
				"x": -4.0587007398,
				"y": -0.1157312362,
				"z": 1.1363725468,
				"element": "H" 
			},
			{
				"x": -0.4654560331,
				"y": -2.8153296337,
				"z": 2.2238300129,
				"element": "H" 
			},
			{
				"x": 1.4107121505,
				"y": -3.0631547405,
				"z": 0.5673515195,
				"element": "H" 
			},
			{
				"x": -0.1783774386,
				"y": 0.2458583898,
				"z": -1.6851317282,
				"element": "H" 
			},
			{
				"x": -2.0264514194,
				"y": 0.4816257277,
				"z": -0.0452631801,
				"element": "H" 
			}
		],
		 "valence_orbital": [ 
			{
				"type": "occ",
				"energy": -0.33737,
				"method": "rhf"
			},
			{
				"type": "occ",
				"energy": -0.3187,
				"method": "rhf"
			},
			{
				"type": "occ",
				"energy": -0.29837,
				"method": "rhf"
			},
			{
				"type": "occ",
				"energy": -0.29495,
				"method": "rhf"
			},
			{
				"type": "occ",
				"energy": -0.27377,
				"method": "rhf"
			},
			{
				"type": "unocc",
				"energy": -0.10557,
				"method": "rhf"
			},
			{
				"type": "unocc",
				"energy": -0.07345,
				"method": "rhf"
			},
			{
				"type": "unocc",
				"energy": -0.04569,
				"method": "rhf"
			},
			{
				"type": "unocc",
				"energy": -0.00474,
				"method": "rhf"
			},
			{
				"type": "unocc",
				"energy": 0.05056,
				"method": "rhf"
			}
		],
		"cosmo_sigma_profile": { 
			"-0.025": 0.0,
			"-0.024": 0.0,
			"-0.023": 0.0,
			"-0.022": 0.0,
			"-0.021": 0.0,
			"-0.02": 0.0,
			"-0.019": 0.0,
			"-0.018": 0.0,
			"-0.017": 0.0,
			"-0.016": 0.0,
			"-0.015": 0.0,
			"-0.014": 0.0,
			"-0.013": 0.0,
			"-0.012": 0.0,
			"-0.011": 0.0,
			"-0.01": 0.0,
			"-0.009": 1.89319290738,
			"-0.008": 6.99137608637,
			"-0.007": 14.1572019139,
			"-0.006": 13.4711743137,
			"-0.005": 11.6922091078,
			"-0.004": 13.2453091335,
			"-0.003": 12.5637262351,
			"-0.002": 17.4550007177,
			"-0.001": 21.8294241804,
			"0.0": 24.6385411979,
			"0.001": 13.0598501921,
			"0.002": 11.710878909,
			"0.003": 15.9714230613,
			"0.004": 7.31647536884,
			"0.005": 6.34966084303,
			"0.006": 4.41635944691,
			"0.007": 8.32287264765,
			"0.008": 10.9587232062,
			"0.009": 5.44767462979,
			"0.01": 2.32158201504,
			"0.011": 3.9071582141,
			"0.012": 1.69960818242,
			"0.013": 0.294474170942,
			"0.014": 0.0,
			"0.015": 0.0,
			"0.016": 0.0,
			"0.017": 0.0,
			"0.018": 0.0,
			"0.019": 0.0,
			"0.02": 0.0,
			"0.021": 0.0,
			"0.022": 0.0,
			"0.023": 0.0,
			"0.024": 0.0,
			"0.025": 0.0
		}
	}
}
