{
	 "smiles": "OC(=O)CSCC(=O)C1=CC=CC=C1", 
	 "Tm": 369.15, 
	 "num_atms": 24, 
	 "gaussian": { 
		 "optdone": 1, 
		 "sigma_profile": "yes", 
		 "theory": "DFT", 
		 "functional": "B3LYP", 
		 "basiset": "6-31G**", 
		 "properties": { 
			 "R2extent": 5059.9017, 
			 "electric_dipole_moment_norm": 4.53672539614, 
			 "electric_quadrupole_moment_norm": 16.2615987846, 
			 "total_energy": -1010.95652788, 
			 "HOMO_LUMO_gap": 0.15829, 
			 "cosmo_polarized_energy": -18.09, 
			 "cosmo_cavitation_energy": 30.54, 
			 "cosmo_dispersion_energy": -22.62, 
			 "cosmo_repulsion_energy": 1.74, 
			 "cosmo_total_nonelectrostatic_energy": 9.66, 
			 "SMD_solvation_energy": 6.42 
		},
		"coords": [
			{
				"x": 4.2210145296,
				"y": 2.03390304,
				"z": 0.3488497317,
				"element": "O" 
			},
			{
				"x": 2.9343169804,
				"y": 2.4135595929,
				"z": 0.5360196212,
				"element": "C" 
			},
			{
				"x": 2.6192774333,
				"y": 3.3696908417,
				"z": 1.2062195401,
				"element": "O" 
			},
			{
				"x": 1.9920620102,
				"y": 1.4803498905,
				"z": -0.189313368,
				"element": "C" 
			},
			{
				"x": 0.2735901639,
				"y": 2.0852601074,
				"z": -0.0297685507,
				"element": "S" 
			},
			{
				"x": -0.5709554211,
				"y": 0.8860188182,
				"z": -1.1110917332,
				"element": "C" 
			},
			{
				"x": -0.5662361927,
				"y": -0.5751801608,
				"z": -0.6479614372,
				"element": "C" 
			},
			{
				"x": 0.1535168916,
				"y": -0.9527884631,
				"z": 0.2626686062,
				"element": "O" 
			},
			{
				"x": -1.4546023705,
				"y": -1.5428001789,
				"z": -1.3719259341,
				"element": "C" 
			},
			{
				"x": -2.268018228,
				"y": -1.1774942093,
				"z": -2.4566010715,
				"element": "C" 
			},
			{
				"x": -3.0689949614,
				"y": -2.1286153704,
				"z": -3.0882475822,
				"element": "C" 
			},
			{
				"x": -3.0681488096,
				"y": -3.4514098609,
				"z": -2.6418974036,
				"element": "C" 
			},
			{
				"x": -2.2615003505,
				"y": -3.824410945,
				"z": -1.5623189238,
				"element": "C" 
			},
			{
				"x": -1.4592787754,
				"y": -2.8776138028,
				"z": -0.9337487626,
				"element": "C" 
			},
			{
				"x": 4.7633477086,
				"y": 2.6636018247,
				"z": 0.8531628663,
				"element": "H" 
			},
			{
				"x": 2.2933481311,
				"y": 1.4205048929,
				"z": -1.2409361887,
				"element": "H" 
			},
			{
				"x": 2.0719646661,
				"y": 0.4792005012,
				"z": 0.2419493378,
				"element": "H" 
			},
			{
				"x": -1.6022370489,
				"y": 1.247115092,
				"z": -1.1785600897,
				"element": "H" 
			},
			{
				"x": -0.162969644,
				"y": 0.932076997,
				"z": -2.1297100837,
				"element": "H" 
			},
			{
				"x": -2.2803009574,
				"y": -0.1548173604,
				"z": -2.8188062783,
				"element": "H" 
			},
			{
				"x": -3.6935545604,
				"y": -1.8368733168,
				"z": -3.9272983853,
				"element": "H" 
			},
			{
				"x": -3.6943835219,
				"y": -4.1902353828,
				"z": -3.1337503343,
				"element": "H" 
			},
			{
				"x": -2.2602019559,
				"y": -4.853121352,
				"z": -1.2141415861,
				"element": "H" 
			},
			{
				"x": -0.8241557169,
				"y": -3.1434211953,
				"z": -0.0955919902,
				"element": "H" 
			}
		],
		 "valence_orbital": [ 
			{
				"type": "occ",
				"energy": -0.28067,
				"method": "rhf"
			},
			{
				"type": "occ",
				"energy": -0.27,
				"method": "rhf"
			},
			{
				"type": "occ",
				"energy": -0.2667,
				"method": "rhf"
			},
			{
				"type": "occ",
				"energy": -0.26389,
				"method": "rhf"
			},
			{
				"type": "occ",
				"energy": -0.22432,
				"method": "rhf"
			},
			{
				"type": "unocc",
				"energy": -0.06603,
				"method": "rhf"
			},
			{
				"type": "unocc",
				"energy": -0.0175,
				"method": "rhf"
			},
			{
				"type": "unocc",
				"energy": 0.008,
				"method": "rhf"
			},
			{
				"type": "unocc",
				"energy": 0.02749,
				"method": "rhf"
			},
			{
				"type": "unocc",
				"energy": 0.03841,
				"method": "rhf"
			}
		],
		"cosmo_sigma_profile": { 
			"-0.025": 0.0,
			"-0.024": 0.0,
			"-0.023": 0.0,
			"-0.022": 0.0,
			"-0.021": 0.0,
			"-0.02": 0.0,
			"-0.019": 0.238845684079,
			"-0.018": 0.924095857859,
			"-0.017": 0.94918831499,
			"-0.016": 0.858204527109,
			"-0.015": 0.647648198267,
			"-0.014": 0.499600944048,
			"-0.013": 0.554770346393,
			"-0.012": 0.9956847651,
			"-0.011": 1.06128473719,
			"-0.01": 0.450108990744,
			"-0.009": 1.65098940072,
			"-0.008": 10.8466145146,
			"-0.007": 13.4668436006,
			"-0.006": 16.3242459097,
			"-0.005": 17.1519114572,
			"-0.004": 15.7741700761,
			"-0.003": 13.5531873141,
			"-0.002": 12.2512036634,
			"-0.001": 11.4632775457,
			"0.0": 10.751696468,
			"0.001": 13.2836182028,
			"0.002": 14.3275913122,
			"0.003": 16.2438189483,
			"0.004": 16.029146089,
			"0.005": 5.32761294853,
			"0.006": 6.82289839644,
			"0.007": 7.12532959356,
			"0.008": 7.81720776477,
			"0.009": 8.14273806886,
			"0.01": 7.04231977874,
			"0.011": 9.87292920184,
			"0.012": 2.79477092819,
			"0.013": 0.0,
			"0.014": 0.0,
			"0.015": 0.0,
			"0.016": 0.0,
			"0.017": 0.0,
			"0.018": 0.0,
			"0.019": 0.0,
			"0.02": 0.0,
			"0.021": 0.0,
			"0.022": 0.0,
			"0.023": 0.0,
			"0.024": 0.0,
			"0.025": 0.0
		}
	}
}
