{
	 "smiles": "NC1=NC=CC(CC#N)=C1", 
	 "Tm": 378.15, 
	 "num_atms": 17, 
	 "gaussian": { 
		 "optdone": 1, 
		 "sigma_profile": "yes", 
		 "theory": "DFT", 
		 "functional": "B3LYP", 
		 "basiset": "6-31G**", 
		 "properties": { 
			 "R2extent": 1652.8531, 
			 "electric_dipole_moment_norm": 1.97559523688, 
			 "electric_quadrupole_moment_norm": 20.635460676, 
			 "total_energy": -435.206587987, 
			 "HOMO_LUMO_gap": 0.19762, 
			 "cosmo_polarized_energy": -14.65, 
			 "cosmo_cavitation_energy": 22.18, 
			 "cosmo_dispersion_energy": -15.95, 
			 "cosmo_repulsion_energy": 1.31, 
			 "cosmo_total_nonelectrostatic_energy": 7.53, 
			 "SMD_solvation_energy": 3.76 
		},
		"coords": [
			{
				"x": -2.0999242392,
				"y": 1.8144095525,
				"z": -0.7455319457,
				"element": "N" 
			},
			{
				"x": -1.1149192447,
				"y": 1.0356895293,
				"z": -0.1789992644,
				"element": "C" 
			},
			{
				"x": -1.0225906825,
				"y": 1.0747000746,
				"z": 1.1588244636,
				"element": "N" 
			},
			{
				"x": -0.106237637,
				"y": 0.2878276469,
				"z": 1.7356504651,
				"element": "C" 
			},
			{
				"x": 0.75544608,
				"y": -0.5530439806,
				"z": 1.0414584078,
				"element": "C" 
			},
			{
				"x": 0.6582362713,
				"y": -0.5830655847,
				"z": -0.3590939974,
				"element": "C" 
			},
			{
				"x": 1.5879552914,
				"y": -1.5058377279,
				"z": -1.1373774757,
				"element": "C" 
			},
			{
				"x": 1.5067295188,
				"y": -1.3751427255,
				"z": -2.5936637099,
				"element": "C" 
			},
			{
				"x": 1.4370931211,
				"y": -1.2680549758,
				"z": -3.7470173329,
				"element": "N" 
			},
			{
				"x": -0.2875320473,
				"y": 0.2168591735,
				"z": -0.9807327309,
				"element": "C" 
			},
			{
				"x": -1.9962715342,
				"y": 2.0843167828,
				"z": -1.7114717825,
				"element": "H" 
			},
			{
				"x": -2.4865848316,
				"y": 2.5169171875,
				"z": -0.1318824964,
				"element": "H" 
			},
			{
				"x": -0.0569062179,
				"y": 0.3411093331,
				"z": 2.8221445054,
				"element": "H" 
			},
			{
				"x": 1.4818534055,
				"y": -1.1610080118,
				"z": 1.5715209352,
				"element": "H" 
			},
			{
				"x": 1.3729641064,
				"y": -2.5503890506,
				"z": -0.8774079611,
				"element": "H" 
			},
			{
				"x": 2.6268345418,
				"y": -1.3242944147,
				"z": -0.8354835955,
				"element": "H" 
			},
			{
				"x": -0.3962459019,
				"y": 0.2167071914,
				"z": -2.0608364847,
				"element": "H" 
			}
		],
		 "valence_orbital": [ 
			{
				"type": "occ",
				"energy": -0.33305,
				"method": "rhf"
			},
			{
				"type": "occ",
				"energy": -0.31902,
				"method": "rhf"
			},
			{
				"type": "occ",
				"energy": -0.28108,
				"method": "rhf"
			},
			{
				"type": "occ",
				"energy": -0.26196,
				"method": "rhf"
			},
			{
				"type": "occ",
				"energy": -0.22005,
				"method": "rhf"
			},
			{
				"type": "unocc",
				"energy": -0.02243,
				"method": "rhf"
			},
			{
				"type": "unocc",
				"energy": -0.00306,
				"method": "rhf"
			},
			{
				"type": "unocc",
				"energy": 0.02612,
				"method": "rhf"
			},
			{
				"type": "unocc",
				"energy": 0.03797,
				"method": "rhf"
			},
			{
				"type": "unocc",
				"energy": 0.08238,
				"method": "rhf"
			}
		],
		"cosmo_sigma_profile": { 
			"-0.025": 0.0,
			"-0.024": 0.0,
			"-0.023": 0.0,
			"-0.022": 0.0,
			"-0.021": 0.0,
			"-0.02": 0.0,
			"-0.019": 0.0,
			"-0.018": 0.0,
			"-0.017": 0.0,
			"-0.016": 0.0,
			"-0.015": 0.0,
			"-0.014": 0.334630072906,
			"-0.013": 1.428559151,
			"-0.012": 2.59362751213,
			"-0.011": 2.75470837701,
			"-0.01": 3.41792333917,
			"-0.009": 7.62391315075,
			"-0.008": 7.3502332576,
			"-0.007": 8.16400331249,
			"-0.006": 12.1845773381,
			"-0.005": 9.01500436067,
			"-0.004": 8.34068899577,
			"-0.003": 6.72308407482,
			"-0.002": 7.50008878185,
			"-0.001": 8.16641919116,
			"0.0": 7.64212276647,
			"0.001": 8.1955091794,
			"0.002": 9.72048260046,
			"0.003": 12.769535026,
			"0.004": 10.3791334507,
			"0.005": 5.00992424553,
			"0.006": 4.76133547282,
			"0.007": 5.97364533956,
			"0.008": 4.38628919632,
			"0.009": 6.24672208049,
			"0.01": 4.33944687779,
			"0.011": 4.4956809019,
			"0.012": 3.64766796103,
			"0.013": 2.00434150467,
			"0.014": 1.14910237723,
			"0.015": 1.03729155614,
			"0.016": 0.395758253107,
			"0.017": 0.0,
			"0.018": 0.0,
			"0.019": 0.0,
			"0.02": 0.0,
			"0.021": 0.0,
			"0.022": 0.0,
			"0.023": 0.0,
			"0.024": 0.0,
			"0.025": 0.0
		}
	}
}
