{
	 "smiles": "CC1=C(N)C=C(N)C=C1", 
	 "Tm": 371.15, 
	 "num_atms": 19, 
	 "gaussian": { 
		 "optdone": 1, 
		 "sigma_profile": "yes", 
		 "theory": "DFT", 
		 "functional": "B3LYP", 
		 "basiset": "6-31G**", 
		 "properties": { 
			 "R2extent": 1777.67, 
			 "electric_dipole_moment_norm": 2.44218898941, 
			 "electric_quadrupole_moment_norm": 11.375174745, 
			 "total_energy": -382.286622798, 
			 "HOMO_LUMO_gap": 0.20373, 
			 "cosmo_polarized_energy": -11.88, 
			 "cosmo_cavitation_energy": 21.84, 
			 "cosmo_dispersion_energy": -16.46, 
			 "cosmo_repulsion_energy": 1.35, 
			 "cosmo_total_nonelectrostatic_energy": 6.73, 
			 "SMD_solvation_energy": 3.6 
		},
		"coords": [
			{
				"x": 1.3339473673,
				"y": 1.564461031,
				"z": 0.3068262728,
				"element": "C" 
			},
			{
				"x": -0.1003405305,
				"y": 1.0975117966,
				"z": 0.331936395,
				"element": "C" 
			},
			{
				"x": -0.5869864121,
				"y": 0.3196158008,
				"z": 1.4076807552,
				"element": "C" 
			},
			{
				"x": 0.277505438,
				"y": -0.0608676712,
				"z": 2.4417149496,
				"element": "N" 
			},
			{
				"x": -1.9178370544,
				"y": -0.1179375693,
				"z": 1.414122505,
				"element": "C" 
			},
			{
				"x": -2.7904105598,
				"y": 0.1935478523,
				"z": 0.3629326582,
				"element": "C" 
			},
			{
				"x": -4.0992096862,
				"y": -0.3065028096,
				"z": 0.3562175446,
				"element": "N" 
			},
			{
				"x": -2.3137121392,
				"y": 0.9693966722,
				"z": -0.7048439705,
				"element": "C" 
			},
			{
				"x": -0.9895099734,
				"y": 1.4020932202,
				"z": -0.7005968645,
				"element": "C" 
			},
			{
				"x": 2.0376339973,
				"y": 0.7244499604,
				"z": 0.3716269011,
				"element": "H" 
			},
			{
				"x": 1.5502164953,
				"y": 2.1085559006,
				"z": -0.6165408118,
				"element": "H" 
			},
			{
				"x": 1.5702926152,
				"y": 2.2435241823,
				"z": 1.1400977695,
				"element": "H" 
			},
			{
				"x": 1.0269724616,
				"y": 0.5891445792,
				"z": 2.6348255198,
				"element": "H" 
			},
			{
				"x": -0.1863339016,
				"y": -0.3532008467,
				"z": 3.2911194298,
				"element": "H" 
			},
			{
				"x": -2.2753591691,
				"y": -0.7227541757,
				"z": 2.2458745966,
				"element": "H" 
			},
			{
				"x": -4.7494584978,
				"y": 0.236467465,
				"z": -0.1959462982,
				"element": "H" 
			},
			{
				"x": -4.4774046401,
				"y": -0.5100898725,
				"z": 1.2717061003,
				"element": "H" 
			},
			{
				"x": -2.9725484534,
				"y": 1.2213945859,
				"z": -1.5314279496,
				"element": "H" 
			},
			{
				"x": -0.6305573569,
				"y": 2.0023898985,
				"z": -1.5338255028,
				"element": "H" 
			}
		],
		 "valence_orbital": [ 
			{
				"type": "occ",
				"energy": -0.32976,
				"method": "rhf"
			},
			{
				"type": "occ",
				"energy": -0.31861,
				"method": "rhf"
			},
			{
				"type": "occ",
				"energy": -0.27056,
				"method": "rhf"
			},
			{
				"type": "occ",
				"energy": -0.2033,
				"method": "rhf"
			},
			{
				"type": "occ",
				"energy": -0.17967,
				"method": "rhf"
			},
			{
				"type": "unocc",
				"energy": 0.02406,
				"method": "rhf"
			},
			{
				"type": "unocc",
				"energy": 0.03704,
				"method": "rhf"
			},
			{
				"type": "unocc",
				"energy": 0.08332,
				"method": "rhf"
			},
			{
				"type": "unocc",
				"energy": 0.09018,
				"method": "rhf"
			},
			{
				"type": "unocc",
				"energy": 0.1168,
				"method": "rhf"
			}
		],
		"cosmo_sigma_profile": { 
			"-0.025": 0.0,
			"-0.024": 0.0,
			"-0.023": 0.0,
			"-0.022": 0.0,
			"-0.021": 0.0,
			"-0.02": 0.0,
			"-0.019": 0.0,
			"-0.018": 0.0,
			"-0.017": 0.0,
			"-0.016": 0.0,
			"-0.015": 0.0,
			"-0.014": 0.0,
			"-0.013": 0.0,
			"-0.012": 1.567105949,
			"-0.011": 4.80671597294,
			"-0.01": 4.84534406751,
			"-0.009": 5.70963521319,
			"-0.008": 6.71093328549,
			"-0.007": 4.98464087183,
			"-0.006": 6.17789388486,
			"-0.005": 6.21107006633,
			"-0.004": 10.5796754331,
			"-0.003": 12.0609581919,
			"-0.002": 10.8506781165,
			"-0.001": 10.5230249641,
			"0.0": 10.6608895958,
			"0.001": 10.0011873119,
			"0.002": 7.89180020288,
			"0.003": 6.37007838519,
			"0.004": 6.32177578799,
			"0.005": 5.99645888598,
			"0.006": 7.07330444771,
			"0.007": 8.57152823511,
			"0.008": 10.1055475513,
			"0.009": 4.20767253199,
			"0.01": 2.03702537996,
			"0.011": 1.60829052097,
			"0.012": 1.5761019004,
			"0.013": 0.696514444481,
			"0.014": 1.6829433479,
			"0.015": 1.17111316208,
			"0.016": 0.321270432554,
			"0.017": 0.0,
			"0.018": 0.0,
			"0.019": 0.0,
			"0.02": 0.0,
			"0.021": 0.0,
			"0.022": 0.0,
			"0.023": 0.0,
			"0.024": 0.0,
			"0.025": 0.0
		}
	}
}
