{
	 "smiles": "NC(=O)CC1=CC=CC=N1", 
	 "Tm": 392.15, 
	 "num_atms": 18, 
	 "gaussian": { 
		 "optdone": 1, 
		 "sigma_profile": "yes", 
		 "theory": "DFT", 
		 "functional": "B3LYP", 
		 "basiset": "6-31G**", 
		 "properties": { 
			 "R2extent": 1771.643, 
			 "electric_dipole_moment_norm": 4.46215418156, 
			 "electric_quadrupole_moment_norm": 13.8301367043, 
			 "total_energy": -456.313039737, 
			 "HOMO_LUMO_gap": 0.19511, 
			 "cosmo_polarized_energy": -12.04, 
			 "cosmo_cavitation_energy": 22.05, 
			 "cosmo_dispersion_energy": -16.42, 
			 "cosmo_repulsion_energy": 1.35, 
			 "cosmo_total_nonelectrostatic_energy": 6.98, 
			 "SMD_solvation_energy": 3.97 
		},
		"coords": [
			{
				"x": -0.2716703146,
				"y": 2.7369489376,
				"z": -0.336675703,
				"element": "N" 
			},
			{
				"x": -1.1862227087,
				"y": 2.5076195643,
				"z": 0.6455232454,
				"element": "C" 
			},
			{
				"x": -1.5896311695,
				"y": 3.3639386493,
				"z": 1.4188128199,
				"element": "O" 
			},
			{
				"x": -1.753634157,
				"y": 1.0734846944,
				"z": 0.6684327596,
				"element": "C" 
			},
			{
				"x": -0.731092262,
				"y": -0.0421274168,
				"z": 0.7064658159,
				"element": "C" 
			},
			{
				"x": -0.7084596201,
				"y": -0.9676979928,
				"z": 1.7576889618,
				"element": "C" 
			},
			{
				"x": 0.2347672263,
				"y": -1.9929349302,
				"z": 1.7415041654,
				"element": "C" 
			},
			{
				"x": 1.1333473361,
				"y": -2.0662763171,
				"z": 0.6780291741,
				"element": "C" 
			},
			{
				"x": 1.0454338343,
				"y": -1.0977007956,
				"z": -0.3209265307,
				"element": "C" 
			},
			{
				"x": 0.1408223445,
				"y": -0.1118122733,
				"z": -0.3168453992,
				"element": "N" 
			},
			{
				"x": 0.1486789142,
				"y": 1.9410194086,
				"z": -0.8053546446,
				"element": "H" 
			},
			{
				"x": 0.1960317083,
				"y": 3.6311490312,
				"z": -0.3321843002,
				"element": "H" 
			},
			{
				"x": -2.4158404604,
				"y": 1.0203463506,
				"z": 1.5331981702,
				"element": "H" 
			},
			{
				"x": -2.3661032169,
				"y": 0.9535536533,
				"z": -0.2347007012,
				"element": "H" 
			},
			{
				"x": -1.4218541175,
				"y": -0.880160584,
				"z": 2.5708924335,
				"element": "H" 
			},
			{
				"x": 0.2676695317,
				"y": -2.7214512959,
				"z": 2.5465889894,
				"element": "H" 
			},
			{
				"x": 1.884475954,
				"y": -2.8472639116,
				"z": 0.6219073698,
				"element": "H" 
			},
			{
				"x": 1.7307811772,
				"y": -1.113234772,
				"z": -1.1663566259,
				"element": "H" 
			}
		],
		 "valence_orbital": [ 
			{
				"type": "occ",
				"energy": -0.2989,
				"method": "rhf"
			},
			{
				"type": "occ",
				"energy": -0.27388,
				"method": "rhf"
			},
			{
				"type": "occ",
				"energy": -0.2731,
				"method": "rhf"
			},
			{
				"type": "occ",
				"energy": -0.25364,
				"method": "rhf"
			},
			{
				"type": "occ",
				"energy": -0.23333,
				"method": "rhf"
			},
			{
				"type": "unocc",
				"energy": -0.03822,
				"method": "rhf"
			},
			{
				"type": "unocc",
				"energy": -0.02076,
				"method": "rhf"
			},
			{
				"type": "unocc",
				"energy": 0.04065,
				"method": "rhf"
			},
			{
				"type": "unocc",
				"energy": 0.08348,
				"method": "rhf"
			},
			{
				"type": "unocc",
				"energy": 0.11125,
				"method": "rhf"
			}
		],
		"cosmo_sigma_profile": { 
			"-0.025": 0.0,
			"-0.024": 0.0,
			"-0.023": 0.0,
			"-0.022": 0.0,
			"-0.021": 0.0,
			"-0.02": 0.0,
			"-0.019": 0.0,
			"-0.018": 0.0,
			"-0.017": 0.0,
			"-0.016": 0.0,
			"-0.015": 0.0,
			"-0.014": 0.17600694796,
			"-0.013": 0.977601857384,
			"-0.012": 1.06696185746,
			"-0.011": 1.35938869591,
			"-0.01": 0.592578932266,
			"-0.009": 1.34949623167,
			"-0.008": 2.18698340703,
			"-0.007": 8.44566169915,
			"-0.006": 14.9660956631,
			"-0.005": 14.2344645938,
			"-0.004": 11.247915139,
			"-0.003": 9.97001566704,
			"-0.002": 10.6193507706,
			"-0.001": 11.2950683275,
			"0.0": 10.4238435018,
			"0.001": 13.4293252533,
			"0.002": 17.6843057239,
			"0.003": 12.6524677918,
			"0.004": 3.15614114792,
			"0.005": 3.30709376088,
			"0.006": 2.89950300437,
			"0.007": 2.40997795972,
			"0.008": 3.1148944647,
			"0.009": 1.35753123603,
			"0.01": 1.60588879653,
			"0.011": 1.47150650196,
			"0.012": 2.08926118915,
			"0.013": 3.58888067581,
			"0.014": 5.71036216701,
			"0.015": 2.15525722634,
			"0.016": 0.0712528379578,
			"0.017": 0.0,
			"0.018": 0.0,
			"0.019": 0.0,
			"0.02": 0.0,
			"0.021": 0.0,
			"0.022": 0.0,
			"0.023": 0.0,
			"0.024": 0.0,
			"0.025": 0.0
		}
	}
}
