{
	 "smiles": "CC1=C(SC(=C1)S(Cl)(=O)=O)C(O)=O", 
	 "Tm": 468.15, 
	 "num_atms": 18, 
	 "gaussian": { 
		 "optdone": 1, 
		 "sigma_profile": "yes", 
		 "theory": "DFT", 
		 "functional": "B3LYP", 
		 "basiset": "6-31G**", 
		 "properties": { 
			 "R2extent": 5215.3782, 
			 "electric_dipole_moment_norm": 6.07253823125, 
			 "electric_quadrupole_moment_norm": 11.116000018, 
			 "total_energy": -1789.04374066, 
			 "HOMO_LUMO_gap": 0.16987, 
			 "cosmo_polarized_energy": -13.37, 
			 "cosmo_cavitation_energy": 28.34, 
			 "cosmo_dispersion_energy": -21.46, 
			 "cosmo_repulsion_energy": 1.63, 
			 "cosmo_total_nonelectrostatic_energy": 8.5, 
			 "SMD_solvation_energy": 4.59 
		},
		"coords": [
			{
				"x": -2.0840678701,
				"y": -0.1565183238,
				"z": -0.5770007744,
				"element": "C" 
			},
			{
				"x": -0.6265464266,
				"y": -0.5295317109,
				"z": -0.6359068131,
				"element": "C" 
			},
			{
				"x": 0.444891705,
				"y": 0.3460365093,
				"z": -0.7636242054,
				"element": "C" 
			},
			{
				"x": 1.991023671,
				"y": -0.4512272986,
				"z": -0.8126026598,
				"element": "S" 
			},
			{
				"x": 1.194486183,
				"y": -1.9756162887,
				"z": -0.6528912583,
				"element": "C" 
			},
			{
				"x": -0.1736156123,
				"y": -1.8762440573,
				"z": -0.5697362032,
				"element": "C" 
			},
			{
				"x": 2.0879316499,
				"y": -3.4948566992,
				"z": -0.6054469372,
				"element": "S" 
			},
			{
				"x": 2.4799559046,
				"y": -3.7026099892,
				"z": 1.4747679915,
				"element": "Cl" 
			},
			{
				"x": 1.1796612542,
				"y": -4.577654213,
				"z": -0.9551010289,
				"element": "O" 
			},
			{
				"x": 3.3811863538,
				"y": -3.3024429549,
				"z": -1.2457260901,
				"element": "O" 
			},
			{
				"x": 0.4863670826,
				"y": 1.8140815613,
				"z": -0.8818514584,
				"element": "C" 
			},
			{
				"x": -0.7385660078,
				"y": 2.3867161255,
				"z": -0.8417785136,
				"element": "O" 
			},
			{
				"x": 1.5132473657,
				"y": 2.452637344,
				"z": -1.0016222055,
				"element": "O" 
			},
			{
				"x": -2.288770928,
				"y": 0.5095924136,
				"z": 0.2654332757,
				"element": "H" 
			},
			{
				"x": -2.6997496052,
				"y": -1.0524259874,
				"z": -0.4700704175,
				"element": "H" 
			},
			{
				"x": -2.3948391828,
				"y": 0.3736469473,
				"z": -1.4813636811,
				"element": "H" 
			},
			{
				"x": -0.8259923112,
				"y": -2.7356490295,
				"z": -0.471193117,
				"element": "H" 
			},
			{
				"x": -0.5880032257,
				"y": 3.3436656514,
				"z": -0.9253859036,
				"element": "H" 
			}
		],
		 "valence_orbital": [ 
			{
				"type": "occ",
				"energy": -0.33771,
				"method": "rhf"
			},
			{
				"type": "occ",
				"energy": -0.32007,
				"method": "rhf"
			},
			{
				"type": "occ",
				"energy": -0.30588,
				"method": "rhf"
			},
			{
				"type": "occ",
				"energy": -0.29062,
				"method": "rhf"
			},
			{
				"type": "occ",
				"energy": -0.27957,
				"method": "rhf"
			},
			{
				"type": "unocc",
				"energy": -0.1097,
				"method": "rhf"
			},
			{
				"type": "unocc",
				"energy": -0.07271,
				"method": "rhf"
			},
			{
				"type": "unocc",
				"energy": -0.01124,
				"method": "rhf"
			},
			{
				"type": "unocc",
				"energy": -0.00584,
				"method": "rhf"
			},
			{
				"type": "unocc",
				"energy": 0.03235,
				"method": "rhf"
			}
		],
		"cosmo_sigma_profile": { 
			"-0.025": 0.0,
			"-0.024": 0.0,
			"-0.023": 0.0,
			"-0.022": 0.0,
			"-0.021": 0.0,
			"-0.02": 0.0158011715968,
			"-0.019": 0.556097600433,
			"-0.018": 1.07442812269,
			"-0.017": 0.507430649391,
			"-0.016": 1.18321175329,
			"-0.015": 0.895367771622,
			"-0.014": 0.442273853545,
			"-0.013": 0.416283474656,
			"-0.012": 1.21726952745,
			"-0.011": 0.85803818582,
			"-0.01": 1.21141907036,
			"-0.009": 2.64387467072,
			"-0.008": 2.6305750147,
			"-0.007": 4.06316799581,
			"-0.006": 6.12620563761,
			"-0.005": 8.75591030546,
			"-0.004": 12.189661178,
			"-0.003": 17.3102855202,
			"-0.002": 27.7756767005,
			"-0.001": 26.5098151702,
			"0.0": 17.6255438918,
			"0.001": 15.0214789753,
			"0.002": 14.6272875362,
			"0.003": 17.3891541973,
			"0.004": 7.74032931923,
			"0.005": 6.28357619003,
			"0.006": 5.6688924536,
			"0.007": 9.87937937693,
			"0.008": 10.1238253954,
			"0.009": 3.28724897478,
			"0.01": 3.28517109986,
			"0.011": 4.04657325935,
			"0.012": 0.330326505078,
			"0.013": 0.0,
			"0.014": 0.0,
			"0.015": 0.0,
			"0.016": 0.0,
			"0.017": 0.0,
			"0.018": 0.0,
			"0.019": 0.0,
			"0.02": 0.0,
			"0.021": 0.0,
			"0.022": 0.0,
			"0.023": 0.0,
			"0.024": 0.0,
			"0.025": 0.0
		}
	}
}
