{
	 "smiles": "OC(=O)CCC1=CC=C(C=C1)C(F)(F)F", 
	 "Tm": 381.15, 
	 "num_atms": 24, 
	 "gaussian": { 
		 "optdone": 1, 
		 "sigma_profile": "yes", 
		 "theory": "DFT", 
		 "functional": "B3LYP", 
		 "basiset": "6-31G**", 
		 "properties": { 
			 "R2extent": 5878.3162, 
			 "electric_dipole_moment_norm": 2.44487471254, 
			 "electric_quadrupole_moment_norm": 14.2898671477, 
			 "total_energy": -836.48891913, 
			 "HOMO_LUMO_gap": 0.23257, 
			 "cosmo_polarized_energy": -10.82, 
			 "cosmo_cavitation_energy": 30.48, 
			 "cosmo_dispersion_energy": -21.24, 
			 "cosmo_repulsion_energy": 1.62, 
			 "cosmo_total_nonelectrostatic_energy": 10.86, 
			 "SMD_solvation_energy": 7.34 
		},
		"coords": [
			{
				"x": -2.3351589837,
				"y": 2.9538592567,
				"z": -2.1416110427,
				"element": "O" 
			},
			{
				"x": -1.9067968412,
				"y": 1.6683981883,
				"z": -2.1427073909,
				"element": "C" 
			},
			{
				"x": -2.2112265675,
				"y": 0.8784142976,
				"z": -3.0091642167,
				"element": "O" 
			},
			{
				"x": -1.0256372782,
				"y": 1.3780115428,
				"z": -0.946811356,
				"element": "C" 
			},
			{
				"x": -0.524984528,
				"y": -0.074771109,
				"z": -0.9217402761,
				"element": "C" 
			},
			{
				"x": 0.3548111871,
				"y": -0.3545707609,
				"z": 0.2768743379,
				"element": "C" 
			},
			{
				"x": -0.1981830968,
				"y": -0.795910314,
				"z": 1.4869971258,
				"element": "C" 
			},
			{
				"x": 0.6037257301,
				"y": -1.0258151041,
				"z": 2.6026649823,
				"element": "C" 
			},
			{
				"x": 1.982917269,
				"y": -0.817551516,
				"z": 2.5225023702,
				"element": "C" 
			},
			{
				"x": 2.5517180622,
				"y": -0.3818036243,
				"z": 1.3231302504,
				"element": "C" 
			},
			{
				"x": 1.7408223064,
				"y": -0.1548668812,
				"z": 0.2133557414,
				"element": "C" 
			},
			{
				"x": 2.8458684129,
				"y": -1.0115319012,
				"z": 3.7385134843,
				"element": "C" 
			},
			{
				"x": 2.9478981441,
				"y": 0.1262325253,
				"z": 4.4665508238,
				"element": "F" 
			},
			{
				"x": 2.34836478,
				"y": -1.9590202612,
				"z": 4.5646110305,
				"element": "F" 
			},
			{
				"x": 4.1051468525,
				"y": -1.3780062494,
				"z": 3.4104719061,
				"element": "F" 
			},
			{
				"x": -2.8887477482,
				"y": 3.0556176658,
				"z": -2.9341920803,
				"element": "H" 
			},
			{
				"x": -1.5935156967,
				"y": 1.6176271705,
				"z": -0.0396440305,
				"element": "H" 
			},
			{
				"x": -0.1881088345,
				"y": 2.0859673001,
				"z": -0.9615348418,
				"element": "H" 
			},
			{
				"x": -1.388856926,
				"y": -0.7468484267,
				"z": -0.9234384475,
				"element": "H" 
			},
			{
				"x": 0.0210054686,
				"y": -0.2769576986,
				"z": -1.848532656,
				"element": "H" 
			},
			{
				"x": -1.2689885486,
				"y": -0.9710873622,
				"z": 1.5535813791,
				"element": "H" 
			},
			{
				"x": 0.1645228978,
				"y": -1.3786265849,
				"z": 3.529699567,
				"element": "H" 
			},
			{
				"x": 3.624461249,
				"y": -0.2347688033,
				"z": 1.2570577832,
				"element": "H" 
			},
			{
				"x": 2.1919426895,
				"y": 0.1731086502,
				"z": -0.7197344436,
				"element": "H" 
			}
		],
		 "valence_orbital": [ 
			{
				"type": "occ",
				"energy": -0.35049,
				"method": "rhf"
			},
			{
				"type": "occ",
				"energy": -0.32582,
				"method": "rhf"
			},
			{
				"type": "occ",
				"energy": -0.28458,
				"method": "rhf"
			},
			{
				"type": "occ",
				"energy": -0.26752,
				"method": "rhf"
			},
			{
				"type": "occ",
				"energy": -0.26086,
				"method": "rhf"
			},
			{
				"type": "unocc",
				"energy": -0.02829,
				"method": "rhf"
			},
			{
				"type": "unocc",
				"energy": -0.01912,
				"method": "rhf"
			},
			{
				"type": "unocc",
				"energy": 0.00387,
				"method": "rhf"
			},
			{
				"type": "unocc",
				"energy": 0.0732,
				"method": "rhf"
			},
			{
				"type": "unocc",
				"energy": 0.08432,
				"method": "rhf"
			}
		],
		"cosmo_sigma_profile": { 
			"-0.025": 0.0,
			"-0.024": 0.0,
			"-0.023": 0.0,
			"-0.022": 0.0,
			"-0.021": 0.0,
			"-0.02": 0.0,
			"-0.019": 0.0170078665954,
			"-0.018": 0.572612851825,
			"-0.017": 1.13196020815,
			"-0.016": 0.808677452762,
			"-0.015": 0.665150901835,
			"-0.014": 0.367032499584,
			"-0.013": 0.859165890598,
			"-0.012": 0.779953618403,
			"-0.011": 0.886985034049,
			"-0.01": 0.693297198253,
			"-0.009": 0.178846769215,
			"-0.008": 0.651211433752,
			"-0.007": 3.84938017252,
			"-0.006": 13.8250803475,
			"-0.005": 20.1013037646,
			"-0.004": 18.7233223734,
			"-0.003": 14.0255450059,
			"-0.002": 14.2973859947,
			"-0.001": 14.3964278274,
			"0.0": 14.2578955075,
			"0.001": 16.0683242463,
			"0.002": 24.3079695072,
			"0.003": 41.1401482009,
			"0.004": 14.7726089979,
			"0.005": 2.15058502419,
			"0.006": 3.2121781692,
			"0.007": 2.17037702844,
			"0.008": 2.72918399368,
			"0.009": 3.78063161026,
			"0.01": 2.42497801798,
			"0.011": 3.55071173564,
			"0.012": 4.48325433704,
			"0.013": 0.350773399716,
			"0.014": 0.0,
			"0.015": 0.0,
			"0.016": 0.0,
			"0.017": 0.0,
			"0.018": 0.0,
			"0.019": 0.0,
			"0.02": 0.0,
			"0.021": 0.0,
			"0.022": 0.0,
			"0.023": 0.0,
			"0.024": 0.0,
			"0.025": 0.0
		}
	}
}
