{
	 "smiles": "CN1C=CC(=N1)C1=CC=C(C=C1)N=C=O", 
	 "Tm": 341.65, 
	 "num_atms": 24, 
	 "gaussian": { 
		 "optdone": 1, 
		 "sigma_profile": "yes", 
		 "theory": "DFT", 
		 "functional": "B3LYP", 
		 "basiset": "6-31G**", 
		 "properties": { 
			 "R2extent": 5934.396, 
			 "electric_dipole_moment_norm": 5.42608889994, 
			 "electric_quadrupole_moment_norm": 15.5472732358, 
			 "total_energy": -664.059278283, 
			 "HOMO_LUMO_gap": 0.17822, 
			 "cosmo_polarized_energy": -10.43, 
			 "cosmo_cavitation_energy": 30.16, 
			 "cosmo_dispersion_energy": -21.77, 
			 "cosmo_repulsion_energy": 1.69, 
			 "cosmo_total_nonelectrostatic_energy": 10.08, 
			 "SMD_solvation_energy": 7.09 
		},
		"coords": [
			{
				"x": 2.0058089353,
				"y": 1.7592478608,
				"z": 2.2769594571,
				"element": "C" 
			},
			{
				"x": 0.8573387043,
				"y": 1.3358472348,
				"z": 1.4994170817,
				"element": "N" 
			},
			{
				"x": -0.4607520817,
				"y": 1.5411219282,
				"z": 1.7660775551,
				"element": "C" 
			},
			{
				"x": -1.1719887888,
				"y": 0.9534926492,
				"z": 0.7410630022,
				"element": "C" 
			},
			{
				"x": -0.183864588,
				"y": 0.4050265163,
				"z": -0.119103298,
				"element": "C" 
			},
			{
				"x": 1.046223528,
				"y": 0.6473820528,
				"z": 0.3587934623,
				"element": "N" 
			},
			{
				"x": -0.3628807679,
				"y": -0.3391367819,
				"z": -1.3747550314,
				"element": "C" 
			},
			{
				"x": 0.7532122444,
				"y": -0.8125266467,
				"z": -2.0880009937,
				"element": "C" 
			},
			{
				"x": 0.6010234202,
				"y": -1.5167145964,
				"z": -3.274718612,
				"element": "C" 
			},
			{
				"x": -0.6832744046,
				"y": -1.768094229,
				"z": -3.7832384655,
				"element": "C" 
			},
			{
				"x": -1.8030605172,
				"y": -1.3033582508,
				"z": -3.0851602561,
				"element": "C" 
			},
			{
				"x": -1.6395305057,
				"y": -0.5984092086,
				"z": -1.896734836,
				"element": "C" 
			},
			{
				"x": -0.8846776725,
				"y": -2.4725252802,
				"z": -4.9739403163,
				"element": "N" 
			},
			{
				"x": -0.2614694437,
				"y": -3.0234820175,
				"z": -5.8511085517,
				"element": "C" 
			},
			{
				"x": 0.2206697532,
				"y": -3.59200262,
				"z": -6.7655151809,
				"element": "O" 
			},
			{
				"x": 2.5867066076,
				"y": 0.8897246431,
				"z": 2.5959724339,
				"element": "H" 
			},
			{
				"x": 2.6460071961,
				"y": 2.412445055,
				"z": 1.6780991191,
				"element": "H" 
			},
			{
				"x": 1.6568265432,
				"y": 2.3029267334,
				"z": 3.1563735097,
				"element": "H" 
			},
			{
				"x": -0.7830069979,
				"y": 2.0783010589,
				"z": 2.6463174946,
				"element": "H" 
			},
			{
				"x": -2.2455858039,
				"y": 0.9272771248,
				"z": 0.6350036666,
				"element": "H" 
			},
			{
				"x": 1.7447457063,
				"y": -0.6179292406,
				"z": -1.6943520508,
				"element": "H" 
			},
			{
				"x": 1.4724116337,
				"y": -1.8758455258,
				"z": -3.8146975865,
				"element": "H" 
			},
			{
				"x": -2.7926594422,
				"y": -1.500329172,
				"z": -3.4834373308,
				"element": "H" 
			},
			{
				"x": -2.5217232582,
				"y": -0.2464392879,
				"z": -1.3713142729,
				"element": "H" 
			}
		],
		 "valence_orbital": [ 
			{
				"type": "occ",
				"energy": -0.2891,
				"method": "rhf"
			},
			{
				"type": "occ",
				"energy": -0.26871,
				"method": "rhf"
			},
			{
				"type": "occ",
				"energy": -0.25709,
				"method": "rhf"
			},
			{
				"type": "occ",
				"energy": -0.24802,
				"method": "rhf"
			},
			{
				"type": "occ",
				"energy": -0.20965,
				"method": "rhf"
			},
			{
				"type": "unocc",
				"energy": -0.03143,
				"method": "rhf"
			},
			{
				"type": "unocc",
				"energy": -0.00635,
				"method": "rhf"
			},
			{
				"type": "unocc",
				"energy": 0.01877,
				"method": "rhf"
			},
			{
				"type": "unocc",
				"energy": 0.02396,
				"method": "rhf"
			},
			{
				"type": "unocc",
				"energy": 0.06116,
				"method": "rhf"
			}
		],
		"cosmo_sigma_profile": { 
			"-0.025": 0.0,
			"-0.024": 0.0,
			"-0.023": 0.0,
			"-0.022": 0.0,
			"-0.021": 0.0,
			"-0.02": 0.0,
			"-0.019": 0.0,
			"-0.018": 0.0,
			"-0.017": 0.0,
			"-0.016": 0.0,
			"-0.015": 0.0,
			"-0.014": 0.0,
			"-0.013": 0.0,
			"-0.012": 0.0,
			"-0.011": 0.0,
			"-0.01": 0.0,
			"-0.009": 2.23798565565,
			"-0.008": 5.88178806882,
			"-0.007": 9.85648234836,
			"-0.006": 14.3354426685,
			"-0.005": 15.6608557175,
			"-0.004": 19.1864999015,
			"-0.003": 20.0108420897,
			"-0.002": 17.0590764551,
			"-0.001": 12.0534487543,
			"0.0": 12.2882524492,
			"0.001": 12.784554768,
			"0.002": 17.3498075401,
			"0.003": 20.6704822249,
			"0.004": 24.1467025901,
			"0.005": 14.0302006581,
			"0.006": 6.55102733851,
			"0.007": 7.92357396439,
			"0.008": 5.75448185575,
			"0.009": 1.63026722912,
			"0.01": 0.672532628522,
			"0.011": 1.59058076137,
			"0.012": 1.02728941588,
			"0.013": 0.824295964976,
			"0.014": 0.0845849866607,
			"0.015": 0.0,
			"0.016": 0.0,
			"0.017": 0.0,
			"0.018": 0.0,
			"0.019": 0.0,
			"0.02": 0.0,
			"0.021": 0.0,
			"0.022": 0.0,
			"0.023": 0.0,
			"0.024": 0.0,
			"0.025": 0.0
		}
	}
}
