{
	 "smiles": "OC(=O)C1=C(ON=C1)C1=CC=CC=C1", 
	 "Tm": 423.15, 
	 "num_atms": 21, 
	 "gaussian": { 
		 "optdone": 1, 
		 "sigma_profile": "yes", 
		 "theory": "DFT", 
		 "functional": "B3LYP", 
		 "basiset": "6-31G**", 
		 "properties": { 
			 "R2extent": 2840.1844, 
			 "electric_dipole_moment_norm": 5.33516551383, 
			 "electric_quadrupole_moment_norm": 11.625576667, 
			 "total_energy": -665.661022234, 
			 "HOMO_LUMO_gap": 0.18703, 
			 "cosmo_polarized_energy": -14.37, 
			 "cosmo_cavitation_energy": 26.25, 
			 "cosmo_dispersion_energy": -19.19, 
			 "cosmo_repulsion_energy": 1.49, 
			 "cosmo_total_nonelectrostatic_energy": 8.55, 
			 "SMD_solvation_energy": 5.44 
		},
		"coords": [
			{
				"x": -2.4975069209,
				"y": 0.4718120335,
				"z": -0.9568328986,
				"element": "O" 
			},
			{
				"x": -2.5100459219,
				"y": 1.287455203,
				"z": 0.1276773743,
				"element": "C" 
			},
			{
				"x": -3.403584801,
				"y": 2.088823451,
				"z": 0.2756072485,
				"element": "O" 
			},
			{
				"x": -1.4190048697,
				"y": 1.1422323482,
				"z": 1.1189935268,
				"element": "C" 
			},
			{
				"x": -0.2030904264,
				"y": 0.4883127579,
				"z": 1.1210682208,
				"element": "C" 
			},
			{
				"x": 0.36603685,
				"y": 0.628231002,
				"z": 2.3360155524,
				"element": "O" 
			},
			{
				"x": -0.4660983786,
				"y": 1.3918400296,
				"z": 3.1723145361,
				"element": "N" 
			},
			{
				"x": -1.5009646827,
				"y": 1.6905774661,
				"z": 2.4341030513,
				"element": "C" 
			},
			{
				"x": 0.560358842,
				"y": -0.2896424827,
				"z": 0.1383739365,
				"element": "C" 
			},
			{
				"x": 0.5763692548,
				"y": 0.0714062768,
				"z": -1.221426242,
				"element": "C" 
			},
			{
				"x": 1.3098036911,
				"y": -0.6826585834,
				"z": -2.1376882673,
				"element": "C" 
			},
			{
				"x": 2.0423311184,
				"y": -1.7904499988,
				"z": -1.7089006034,
				"element": "C" 
			},
			{
				"x": 2.0465128086,
				"y": -2.1417270001,
				"z": -0.3559718428,
				"element": "C" 
			},
			{
				"x": 1.313384373,
				"y": -1.3985612235,
				"z": 0.5647719821,
				"element": "C" 
			},
			{
				"x": -1.7733896487,
				"y": -0.1707400374,
				"z": -0.9048199346,
				"element": "H" 
			},
			{
				"x": -2.3105304921,
				"y": 2.2819593188,
				"z": 2.8407202215,
				"element": "H" 
			},
			{
				"x": 0.0423225976,
				"y": 0.9548800093,
				"z": -1.5562110486,
				"element": "H" 
			},
			{
				"x": 1.318705994,
				"y": -0.3929428552,
				"z": -3.1838614319,
				"element": "H" 
			},
			{
				"x": 2.614108835,
				"y": -2.3740805562,
				"z": -2.4239931321,
				"element": "H" 
			},
			{
				"x": 2.6206598293,
				"y": -2.998994165,
				"z": -0.0180529926,
				"element": "H" 
			},
			{
				"x": 1.3129219482,
				"y": -1.6693329939,
				"z": 1.6151127437,
				"element": "H" 
			}
		],
		 "valence_orbital": [ 
			{
				"type": "occ",
				"energy": -0.3164,
				"method": "rhf"
			},
			{
				"type": "occ",
				"energy": -0.30461,
				"method": "rhf"
			},
			{
				"type": "occ",
				"energy": -0.28488,
				"method": "rhf"
			},
			{
				"type": "occ",
				"energy": -0.28088,
				"method": "rhf"
			},
			{
				"type": "occ",
				"energy": -0.26112,
				"method": "rhf"
			},
			{
				"type": "unocc",
				"energy": -0.07409,
				"method": "rhf"
			},
			{
				"type": "unocc",
				"energy": -0.03655,
				"method": "rhf"
			},
			{
				"type": "unocc",
				"energy": -0.01454,
				"method": "rhf"
			},
			{
				"type": "unocc",
				"energy": -0.0052,
				"method": "rhf"
			},
			{
				"type": "unocc",
				"energy": 0.06919,
				"method": "rhf"
			}
		],
		"cosmo_sigma_profile": { 
			"-0.025": 0.0,
			"-0.024": 0.0,
			"-0.023": 0.0,
			"-0.022": 0.0,
			"-0.021": 0.0,
			"-0.02": 0.0,
			"-0.019": 0.0,
			"-0.018": 0.0,
			"-0.017": 0.0,
			"-0.016": 0.0242757380382,
			"-0.015": 0.681247861325,
			"-0.014": 0.836041766361,
			"-0.013": 0.700584790697,
			"-0.012": 1.07896198856,
			"-0.011": 0.829931741818,
			"-0.01": 2.06160138267,
			"-0.009": 2.43237720208,
			"-0.008": 4.39896607268,
			"-0.007": 9.87867519089,
			"-0.006": 15.1645013311,
			"-0.005": 14.4519069371,
			"-0.004": 13.5935242785,
			"-0.003": 14.4949702847,
			"-0.002": 14.4236347721,
			"-0.001": 13.633414082,
			"0.0": 10.9537348179,
			"0.001": 13.2767641438,
			"0.002": 14.4505186007,
			"0.003": 14.1655021611,
			"0.004": 5.12361998589,
			"0.005": 4.97936057746,
			"0.006": 6.21672731274,
			"0.007": 5.01374862703,
			"0.008": 4.54977864725,
			"0.009": 4.94348389421,
			"0.01": 6.41741176141,
			"0.011": 6.97466493731,
			"0.012": 4.46531853304,
			"0.013": 1.75861590712,
			"0.014": 0.0140392574886,
			"0.015": 0.0,
			"0.016": 0.0,
			"0.017": 0.0,
			"0.018": 0.0,
			"0.019": 0.0,
			"0.02": 0.0,
			"0.021": 0.0,
			"0.022": 0.0,
			"0.023": 0.0,
			"0.024": 0.0,
			"0.025": 0.0
		}
	}
}
