{
	 "smiles": "CC1=NC(N)=CC=C1C#N", 
	 "Tm": 429.15, 
	 "num_atms": 17, 
	 "gaussian": { 
		 "optdone": 1, 
		 "sigma_profile": "yes", 
		 "theory": "DFT", 
		 "functional": "B3LYP", 
		 "basiset": "6-31G**", 
		 "properties": { 
			 "R2extent": 1883.0263, 
			 "electric_dipole_moment_norm": 5.81657962982, 
			 "electric_quadrupole_moment_norm": 16.9002037763, 
			 "total_energy": -435.219433493, 
			 "HOMO_LUMO_gap": 0.18961, 
			 "cosmo_polarized_energy": -14.04, 
			 "cosmo_cavitation_energy": 22.21, 
			 "cosmo_dispersion_energy": -15.91, 
			 "cosmo_repulsion_energy": 1.31, 
			 "cosmo_total_nonelectrostatic_energy": 7.6, 
			 "SMD_solvation_energy": 3.92 
		},
		"coords": [
			{
				"x": -2.3660324639,
				"y": 0.9830772684,
				"z": -0.2038136894,
				"element": "C" 
			},
			{
				"x": -1.3337104359,
				"y": -0.1136673882,
				"z": -0.1873537052,
				"element": "C" 
			},
			{
				"x": -0.2916312345,
				"y": 0.0481813113,
				"z": 0.630601885,
				"element": "N" 
			},
			{
				"x": 0.6621066484,
				"y": -0.8999570199,
				"z": 0.6819677323,
				"element": "C" 
			},
			{
				"x": 1.7182702935,
				"y": -0.6377968755,
				"z": 1.5133356889,
				"element": "N" 
			},
			{
				"x": 0.6084446463,
				"y": -2.0788781203,
				"z": -0.0940641706,
				"element": "C" 
			},
			{
				"x": -0.4707941683,
				"y": -2.2504688664,
				"z": -0.9366654223,
				"element": "C" 
			},
			{
				"x": -1.4713734277,
				"y": -1.2619358108,
				"z": -1.0018620406,
				"element": "C" 
			},
			{
				"x": -2.596700312,
				"y": -1.4186453714,
				"z": -1.8652693189,
				"element": "C" 
			},
			{
				"x": -3.5174678979,
				"y": -1.5419598509,
				"z": -2.5681386099,
				"element": "N" 
			},
			{
				"x": -2.0770880528,
				"y": 1.7650410909,
				"z": 0.4989890619,
				"element": "H" 
			},
			{
				"x": -2.461961593,
				"y": 1.4164537124,
				"z": -1.2052838234,
				"element": "H" 
			},
			{
				"x": -3.3544043674,
				"y": 0.598196343,
				"z": 0.069597496,
				"element": "H" 
			},
			{
				"x": 1.5909335839,
				"y": 0.127516616,
				"z": 2.1585343253,
				"element": "H" 
			},
			{
				"x": 2.3137218693,
				"y": -1.3938904789,
				"z": 1.8104788065,
				"element": "H" 
			},
			{
				"x": 1.3963417997,
				"y": -2.8223932546,
				"z": -0.0308279408,
				"element": "H" 
			},
			{
				"x": -0.5558548877,
				"y": -3.1409733051,
				"z": -1.5512262749,
				"element": "H" 
			}
		],
		 "valence_orbital": [ 
			{
				"type": "occ",
				"energy": -0.32678,
				"method": "rhf"
			},
			{
				"type": "occ",
				"energy": -0.31099,
				"method": "rhf"
			},
			{
				"type": "occ",
				"energy": -0.29184,
				"method": "rhf"
			},
			{
				"type": "occ",
				"energy": -0.27104,
				"method": "rhf"
			},
			{
				"type": "occ",
				"energy": -0.22605,
				"method": "rhf"
			},
			{
				"type": "unocc",
				"energy": -0.03644,
				"method": "rhf"
			},
			{
				"type": "unocc",
				"energy": -0.02774,
				"method": "rhf"
			},
			{
				"type": "unocc",
				"energy": 0.04198,
				"method": "rhf"
			},
			{
				"type": "unocc",
				"energy": 0.06772,
				"method": "rhf"
			},
			{
				"type": "unocc",
				"energy": 0.08665,
				"method": "rhf"
			}
		],
		"cosmo_sigma_profile": { 
			"-0.025": 0.0,
			"-0.024": 0.0,
			"-0.023": 0.0,
			"-0.022": 0.0,
			"-0.021": 0.0,
			"-0.02": 0.0,
			"-0.019": 0.0,
			"-0.018": 0.0,
			"-0.017": 0.0,
			"-0.016": 0.0,
			"-0.015": 0.164923553768,
			"-0.014": 1.54636027765,
			"-0.013": 2.47881111947,
			"-0.012": 2.64952182788,
			"-0.011": 2.25639059204,
			"-0.01": 3.26010976451,
			"-0.009": 2.19388902005,
			"-0.008": 4.68561046384,
			"-0.007": 5.63092910902,
			"-0.006": 6.24797669067,
			"-0.005": 9.43173223378,
			"-0.004": 9.52205909319,
			"-0.003": 9.79290413352,
			"-0.002": 12.236763828,
			"-0.001": 12.7378623,
			"0.0": 16.1366742325,
			"0.001": 15.02584573,
			"0.002": 10.9391638405,
			"0.003": 6.53005568391,
			"0.004": 4.09918105748,
			"0.005": 5.27125227234,
			"0.006": 4.54823782649,
			"0.007": 4.55310269279,
			"0.008": 4.75707130034,
			"0.009": 4.31267872115,
			"0.01": 5.01027836297,
			"0.011": 4.14429287664,
			"0.012": 3.60954329378,
			"0.013": 3.05726385976,
			"0.014": 1.01274845394,
			"0.015": 0.0,
			"0.016": 0.0,
			"0.017": 0.0,
			"0.018": 0.0,
			"0.019": 0.0,
			"0.02": 0.0,
			"0.021": 0.0,
			"0.022": 0.0,
			"0.023": 0.0,
			"0.024": 0.0,
			"0.025": 0.0
		}
	}
}
