{
	 "smiles": "CC1=C2OCC(=O)C2=CC=C1", 
	 "Tm": 357.15, 
	 "num_atms": 19, 
	 "gaussian": { 
		 "optdone": 1, 
		 "sigma_profile": "yes", 
		 "theory": "DFT", 
		 "functional": "B3LYP", 
		 "basiset": "6-31G**", 
		 "properties": { 
			 "R2extent": 2061.955, 
			 "electric_dipole_moment_norm": 2.80125776393, 
			 "electric_quadrupole_moment_norm": 12.5082998521, 
			 "total_energy": -498.22455879, 
			 "HOMO_LUMO_gap": 0.17279, 
			 "cosmo_polarized_energy": -8.44, 
			 "cosmo_cavitation_energy": 22.93, 
			 "cosmo_dispersion_energy": -17.11, 
			 "cosmo_repulsion_energy": 1.38, 
			 "cosmo_total_nonelectrostatic_energy": 7.2, 
			 "SMD_solvation_energy": 4.84 
		},
		"coords": [
			{
				"x": 0.2897825711,
				"y": -1.8168515195,
				"z": -1.1031285117,
				"element": "C" 
			},
			{
				"x": 0.9774690204,
				"y": -0.7352632198,
				"z": -0.3130742992,
				"element": "C" 
			},
			{
				"x": 0.5539038555,
				"y": 0.5989352966,
				"z": -0.3823362739,
				"element": "C" 
			},
			{
				"x": -0.4931166167,
				"y": 1.0093441885,
				"z": -1.1560982086,
				"element": "O" 
			},
			{
				"x": -0.6374404796,
				"y": 2.4322636713,
				"z": -0.9777871507,
				"element": "C" 
			},
			{
				"x": 0.4591437718,
				"y": 2.8691625772,
				"z": 0.013875795,
				"element": "C" 
			},
			{
				"x": 0.6459384796,
				"y": 4.0066575949,
				"z": 0.4044041344,
				"element": "O" 
			},
			{
				"x": 1.1689305174,
				"y": 1.6269813913,
				"z": 0.3369668777,
				"element": "C" 
			},
			{
				"x": 2.2578897106,
				"y": 1.3640844742,
				"z": 1.1757415766,
				"element": "C" 
			},
			{
				"x": 2.7024084185,
				"y": 0.0511307252,
				"z": 1.2665575205,
				"element": "C" 
			},
			{
				"x": 2.0662389653,
				"y": -0.9687298234,
				"z": 0.5317335833,
				"element": "C" 
			},
			{
				"x": -0.7710920923,
				"y": -1.887434971,
				"z": -0.8383898813,
				"element": "H" 
			},
			{
				"x": 0.3324830695,
				"y": -1.6104563738,
				"z": -2.1783845642,
				"element": "H" 
			},
			{
				"x": 0.7535650069,
				"y": -2.7898447638,
				"z": -0.9224597036,
				"element": "H" 
			},
			{
				"x": -1.6367759546,
				"y": 2.6461861128,
				"z": -0.5855070295,
				"element": "H" 
			},
			{
				"x": -0.5196868344,
				"y": 2.929910847,
				"z": -1.9456879118,
				"element": "H" 
			},
			{
				"x": 2.7264442098,
				"y": 2.1719655785,
				"z": 1.728899815,
				"element": "H" 
			},
			{
				"x": 3.5437930894,
				"y": -0.2000330109,
				"z": 1.9046408793,
				"element": "H" 
			},
			{
				"x": 2.4358212917,
				"y": -1.9874087753,
				"z": 0.6225333528,
				"element": "H" 
			}
		],
		 "valence_orbital": [ 
			{
				"type": "occ",
				"energy": -0.35205,
				"method": "rhf"
			},
			{
				"type": "occ",
				"energy": -0.32758,
				"method": "rhf"
			},
			{
				"type": "occ",
				"energy": -0.25918,
				"method": "rhf"
			},
			{
				"type": "occ",
				"energy": -0.2483,
				"method": "rhf"
			},
			{
				"type": "occ",
				"energy": -0.23105,
				"method": "rhf"
			},
			{
				"type": "unocc",
				"energy": -0.05826,
				"method": "rhf"
			},
			{
				"type": "unocc",
				"energy": -0.00087,
				"method": "rhf"
			},
			{
				"type": "unocc",
				"energy": 0.04275,
				"method": "rhf"
			},
			{
				"type": "unocc",
				"energy": 0.0962,
				"method": "rhf"
			},
			{
				"type": "unocc",
				"energy": 0.0977,
				"method": "rhf"
			}
		],
		"cosmo_sigma_profile": { 
			"-0.025": 0.0,
			"-0.024": 0.0,
			"-0.023": 0.0,
			"-0.022": 0.0,
			"-0.021": 0.0,
			"-0.02": 0.0,
			"-0.019": 0.0,
			"-0.018": 0.0,
			"-0.017": 0.0,
			"-0.016": 0.0,
			"-0.015": 0.0,
			"-0.014": 0.0,
			"-0.013": 0.0,
			"-0.012": 0.0,
			"-0.011": 0.0,
			"-0.01": 0.0,
			"-0.009": 0.553240781449,
			"-0.008": 4.84763875983,
			"-0.007": 6.22834674773,
			"-0.006": 11.1465391108,
			"-0.005": 14.9879900065,
			"-0.004": 14.0088970814,
			"-0.003": 11.3399787175,
			"-0.002": 14.5064263877,
			"-0.001": 14.8713273744,
			"0.0": 15.8944887303,
			"0.001": 13.8488312176,
			"0.002": 11.3387997606,
			"0.003": 11.3570965516,
			"0.004": 10.7238486143,
			"0.005": 3.61205286109,
			"0.006": 2.49040448364,
			"0.007": 2.401881601,
			"0.008": 3.31416386199,
			"0.009": 2.70565080665,
			"0.01": 2.50154980315,
			"0.011": 3.40391317858,
			"0.012": 4.78608169347,
			"0.013": 2.22669688037,
			"0.014": 0.0039997763422,
			"0.015": 0.0,
			"0.016": 0.0,
			"0.017": 0.0,
			"0.018": 0.0,
			"0.019": 0.0,
			"0.02": 0.0,
			"0.021": 0.0,
			"0.022": 0.0,
			"0.023": 0.0,
			"0.024": 0.0,
			"0.025": 0.0
		}
	}
}
