{
	 "smiles": "OC(=O)CN(CCOCCOCCN(CC(O)=O)CC(O)=O)CC(O)=O", 
	 "Tm": 515.15, 
	 "num_atms": 50, 
	 "gaussian": { 
		 "optdone": 1, 
		 "sigma_profile": "yes", 
		 "theory": "DFT", 
		 "functional": "B3LYP", 
		 "basiset": "6-31G**", 
		 "properties": { 
			 "R2extent": 10336.273, 
			 "electric_dipole_moment_norm": 4.89976519539, 
			 "electric_quadrupole_moment_norm": 51.6767137931, 
			 "total_energy": -1409.69166763, 
			 "HOMO_LUMO_gap": 0.20719, 
			 "cosmo_polarized_energy": -37.21, 
			 "cosmo_cavitation_energy": 48.1, 
			 "cosmo_dispersion_energy": -31.84, 
			 "cosmo_repulsion_energy": 2.36, 
			 "cosmo_total_nonelectrostatic_energy": 18.61, 
			 "SMD_solvation_energy": 11.46 
		},
		"coords": [
			{
				"x": 1.453965195,
				"y": -2.9594841561,
				"z": 1.5886905278,
				"element": "O" 
			},
			{
				"x": 0.8188787528,
				"y": -2.9227105354,
				"z": 2.7690603951,
				"element": "C" 
			},
			{
				"x": 0.8203449721,
				"y": -3.8566515859,
				"z": 3.5356757754,
				"element": "O" 
			},
			{
				"x": 0.0404131407,
				"y": -1.6357128937,
				"z": 3.0821043472,
				"element": "C" 
			},
			{
				"x": 0.3106270085,
				"y": -0.5290395635,
				"z": 2.1682609701,
				"element": "N" 
			},
			{
				"x": -0.8344363823,
				"y": 0.3841232799,
				"z": 2.0140870384,
				"element": "C" 
			},
			{
				"x": -1.9324690261,
				"y": -0.0949839415,
				"z": 1.0550094257,
				"element": "C" 
			},
			{
				"x": -1.6515285993,
				"y": 0.104234525,
				"z": -0.3306742237,
				"element": "O" 
			},
			{
				"x": -0.9266151116,
				"y": -0.9473126015,
				"z": -0.9853208965,
				"element": "C" 
			},
			{
				"x": -0.9370976029,
				"y": -0.6866325277,
				"z": -2.4880039981,
				"element": "C" 
			},
			{
				"x": -0.0991881417,
				"y": 0.387187777,
				"z": -2.887406637,
				"element": "O" 
			},
			{
				"x": 1.225319261,
				"y": 0.0151273333,
				"z": -3.2365389827,
				"element": "C" 
			},
			{
				"x": 2.0776290527,
				"y": 1.2725225868,
				"z": -3.4264162839,
				"element": "C" 
			},
			{
				"x": 2.5377489345,
				"y": 1.8912569013,
				"z": -2.1663741192,
				"element": "N" 
			},
			{
				"x": 3.970784527,
				"y": 2.0366337869,
				"z": -2.0629807945,
				"element": "C" 
			},
			{
				"x": 4.7041021136,
				"y": 0.6995300189,
				"z": -2.0059569988,
				"element": "C" 
			},
			{
				"x": 5.9922161341,
				"y": 0.7199003014,
				"z": -2.3889597517,
				"element": "O" 
			},
			{
				"x": 4.2201098442,
				"y": -0.3421188862,
				"z": -1.6117284117,
				"element": "O" 
			},
			{
				"x": 1.8468568335,
				"y": 3.1353270677,
				"z": -1.8120323953,
				"element": "C" 
			},
			{
				"x": 0.3594863024,
				"y": 2.9119083834,
				"z": -1.5668203619,
				"element": "C" 
			},
			{
				"x": 0.1659478334,
				"y": 2.0855131929,
				"z": -0.5275587545,
				"element": "O" 
			},
			{
				"x": -0.521065819,
				"y": 3.4228518719,
				"z": -2.2206199565,
				"element": "O" 
			},
			{
				"x": 1.564540861,
				"y": 0.1772177436,
				"z": 2.4509253577,
				"element": "C" 
			},
			{
				"x": 2.4065347915,
				"y": 0.486455215,
				"z": 1.2111436552,
				"element": "C" 
			},
			{
				"x": 2.3281797987,
				"y": -0.4915979102,
				"z": 0.3005829562,
				"element": "O" 
			},
			{
				"x": 3.1282689907,
				"y": 1.458562293,
				"z": 1.1182757613,
				"element": "O" 
			},
			{
				"x": 1.3756941034,
				"y": -2.0946892419,
				"z": 1.137296595,
				"element": "H" 
			},
			{
				"x": -1.0171164766,
				"y": -1.909698725,
				"z": 3.0072382949,
				"element": "H" 
			},
			{
				"x": 0.2179842973,
				"y": -1.3920668401,
				"z": 4.1412809448,
				"element": "H" 
			},
			{
				"x": -1.3072100742,
				"y": 0.5844940651,
				"z": 2.9927260884,
				"element": "H" 
			},
			{
				"x": -0.4610500819,
				"y": 1.3417807726,
				"z": 1.6459904598,
				"element": "H" 
			},
			{
				"x": -2.8329846617,
				"y": 0.4966584565,
				"z": 1.2539611626,
				"element": "H" 
			},
			{
				"x": -2.1862325285,
				"y": -1.1499346963,
				"z": 1.2326803546,
				"element": "H" 
			},
			{
				"x": -1.4304298003,
				"y": -1.9052484681,
				"z": -0.785095169,
				"element": "H" 
			},
			{
				"x": 0.0975801065,
				"y": -1.003503574,
				"z": -0.6056376059,
				"element": "H" 
			},
			{
				"x": -1.9555001874,
				"y": -0.4207567102,
				"z": -2.7913147043,
				"element": "H" 
			},
			{
				"x": -0.6580981148,
				"y": -1.6149719564,
				"z": -3.0091116995,
				"element": "H" 
			},
			{
				"x": 1.6853266723,
				"y": -0.6201746845,
				"z": -2.4704412126,
				"element": "H" 
			},
			{
				"x": 1.2115864845,
				"y": -0.5509249287,
				"z": -4.1837681041,
				"element": "H" 
			},
			{
				"x": 2.9487413764,
				"y": 0.987407866,
				"z": -4.0290920733,
				"element": "H" 
			},
			{
				"x": 1.504140847,
				"y": 1.9935660815,
				"z": -4.0249497393,
				"element": "H" 
			},
			{
				"x": 4.4200412315,
				"y": 2.6547257573,
				"z": -2.8698897101,
				"element": "H" 
			},
			{
				"x": 4.2021704497,
				"y": 2.5269684814,
				"z": -1.1087170404,
				"element": "H" 
			},
			{
				"x": 6.2360744166,
				"y": 1.6005958941,
				"z": -2.7113895055,
				"element": "H" 
			},
			{
				"x": 1.9383778584,
				"y": 3.9145350747,
				"z": -2.5851326699,
				"element": "H" 
			},
			{
				"x": 2.2830319233,
				"y": 3.5067302097,
				"z": -0.878771434,
				"element": "H" 
			},
			{
				"x": -0.7190907808,
				"y": 1.6594271261,
				"z": -0.588660203,
				"element": "H" 
			},
			{
				"x": 2.2007048398,
				"y": -0.4566036516,
				"z": 3.0816774279,
				"element": "H" 
			},
			{
				"x": 1.4194357737,
				"y": 1.1175510993,
				"z": 2.9973487835,
				"element": "H" 
			},
			{
				"x": 2.9561686612,
				"y": -0.3148750841,
				"z": -0.4478528849,
				"element": "H" 
			}
		],
		 "valence_orbital": [ 
			{
				"type": "occ",
				"energy": -0.26349,
				"method": "rhf"
			},
			{
				"type": "occ",
				"energy": -0.2624,
				"method": "rhf"
			},
			{
				"type": "occ",
				"energy": -0.25958,
				"method": "rhf"
			},
			{
				"type": "occ",
				"energy": -0.23971,
				"method": "rhf"
			},
			{
				"type": "occ",
				"energy": -0.23731,
				"method": "rhf"
			},
			{
				"type": "unocc",
				"energy": -0.03012,
				"method": "rhf"
			},
			{
				"type": "unocc",
				"energy": 0.0012,
				"method": "rhf"
			},
			{
				"type": "unocc",
				"energy": 0.0124,
				"method": "rhf"
			},
			{
				"type": "unocc",
				"energy": 0.02058,
				"method": "rhf"
			},
			{
				"type": "unocc",
				"energy": 0.03012,
				"method": "rhf"
			}
		],
		"cosmo_sigma_profile": { 
			"-0.025": 0.0,
			"-0.024": 0.0,
			"-0.023": 0.0,
			"-0.022": 0.0,
			"-0.021": 0.0,
			"-0.02": 0.482895157137,
			"-0.019": 1.2351525998,
			"-0.018": 1.54554944221,
			"-0.017": 1.25776018715,
			"-0.016": 1.19303859971,
			"-0.015": 0.86503142183,
			"-0.014": 0.800692596614,
			"-0.013": 1.35669011997,
			"-0.012": 1.42836613618,
			"-0.011": 0.955266825205,
			"-0.01": 1.39872028975,
			"-0.009": 4.4356023501,
			"-0.008": 10.3330374072,
			"-0.007": 11.3077506964,
			"-0.006": 21.6196818198,
			"-0.005": 40.3840756834,
			"-0.004": 47.0898997932,
			"-0.003": 32.2213500159,
			"-0.002": 22.0675054206,
			"-0.001": 14.4894658628,
			"0.0": 10.9854349829,
			"0.001": 12.1975702965,
			"0.002": 12.3902676861,
			"0.003": 11.8319623022,
			"0.004": 10.3037624022,
			"0.005": 10.6057893693,
			"0.006": 11.1420071163,
			"0.007": 9.57795108408,
			"0.008": 9.86564838553,
			"0.009": 11.3083315138,
			"0.01": 11.6501536054,
			"0.011": 11.0142421669,
			"0.012": 15.4438075907,
			"0.013": 9.27978419054,
			"0.014": 1.24962380092,
			"0.015": 0.00267045280833,
			"0.016": 0.166208521956,
			"0.017": 0.446833482087,
			"0.018": 0.176106714889,
			"0.019": 0.00919368306824,
			"0.02": 0.0,
			"0.021": 0.0,
			"0.022": 0.0,
			"0.023": 0.0,
			"0.024": 0.0,
			"0.025": 0.0
		}
	}
}
