{
	 "smiles": "OC(=O)C=CC1=CC(Br)=CS1", 
	 "Tm": 443.15, 
	 "num_atms": 16, 
	 "gaussian": { 
		 "optdone": 1, 
		 "sigma_profile": "yes", 
		 "theory": "DFT", 
		 "functional": "B3LYP", 
		 "basiset": "6-31G**", 
		 "properties": { 
			 "R2extent": 3708.7477, 
			 "electric_dipole_moment_norm": 1.93575945303, 
			 "electric_quadrupole_moment_norm": 7.66062379444, 
			 "total_energy": -3389.77749345, 
			 "HOMO_LUMO_gap": 0.15202, 
			 "cosmo_polarized_energy": -9.18, 
			 "cosmo_cavitation_energy": 25.15, 
			 "cosmo_dispersion_energy": -19.53, 
			 "cosmo_repulsion_energy": 1.53, 
			 "cosmo_total_nonelectrostatic_energy": 7.15, 
			 "SMD_solvation_energy": 4.39 
		},
		"coords": [
			{
				"x": -2.6886853569,
				"y": -0.1048342695,
				"z": 3.4034679112,
				"element": "O" 
			},
			{
				"x": -1.8298269153,
				"y": -0.0843315623,
				"z": 2.3495460253,
				"element": "C" 
			},
			{
				"x": -1.0073058804,
				"y": -0.9709534287,
				"z": 2.1882107951,
				"element": "O" 
			},
			{
				"x": -2.0671428502,
				"y": 1.1053816007,
				"z": 1.5220792758,
				"element": "C" 
			},
			{
				"x": -1.4311941474,
				"y": 1.4963969474,
				"z": 0.3896836891,
				"element": "C" 
			},
			{
				"x": -0.3485375339,
				"y": 0.9348943285,
				"z": -0.388812092,
				"element": "C" 
			},
			{
				"x": 0.4250391467,
				"y": -0.2030771664,
				"z": -0.2543793705,
				"element": "C" 
			},
			{
				"x": 1.3828541941,
				"y": -0.3265103555,
				"z": -1.2918850874,
				"element": "C" 
			},
			{
				"x": 2.5988460737,
				"y": -1.7796276607,
				"z": -1.3953105494,
				"element": "Br" 
			},
			{
				"x": 1.3593234346,
				"y": 0.6880309144,
				"z": -2.2134851361,
				"element": "C" 
			},
			{
				"x": 0.139150167,
				"y": 1.8391000805,
				"z": -1.8226373961,
				"element": "S" 
			},
			{
				"x": -2.476168643,
				"y": -0.9110054234,
				"z": 3.9018750521,
				"element": "H" 
			},
			{
				"x": -2.8651960695,
				"y": 1.7437756246,
				"z": 1.8859527266,
				"element": "H" 
			},
			{
				"x": -1.8120552539,
				"y": 2.4292931224,
				"z": -0.0253078138,
				"element": "H" 
			},
			{
				"x": 0.2947134345,
				"y": -0.902936669,
				"z": 0.5578057178,
				"element": "H" 
			},
			{
				"x": 1.9862861999,
				"y": 0.8114039171,
				"z": -3.0842037476,
				"element": "H" 
			}
		],
		 "valence_orbital": [ 
			{
				"type": "occ",
				"energy": -0.30278,
				"method": "rhf"
			},
			{
				"type": "occ",
				"energy": -0.29105,
				"method": "rhf"
			},
			{
				"type": "occ",
				"energy": -0.27904,
				"method": "rhf"
			},
			{
				"type": "occ",
				"energy": -0.25605,
				"method": "rhf"
			},
			{
				"type": "occ",
				"energy": -0.23276,
				"method": "rhf"
			},
			{
				"type": "unocc",
				"energy": -0.08074,
				"method": "rhf"
			},
			{
				"type": "unocc",
				"energy": -0.00709,
				"method": "rhf"
			},
			{
				"type": "unocc",
				"energy": -0.00552,
				"method": "rhf"
			},
			{
				"type": "unocc",
				"energy": 0.0177,
				"method": "rhf"
			},
			{
				"type": "unocc",
				"energy": 0.04775,
				"method": "rhf"
			}
		],
		"cosmo_sigma_profile": { 
			"-0.025": 0.0,
			"-0.024": 0.0,
			"-0.023": 0.0,
			"-0.022": 0.0,
			"-0.021": 0.0,
			"-0.02": 0.0,
			"-0.019": 0.0,
			"-0.018": 0.393327804007,
			"-0.017": 1.06440147813,
			"-0.016": 0.685494133386,
			"-0.015": 0.876722394504,
			"-0.014": 0.590250930791,
			"-0.013": 0.985210533902,
			"-0.012": 0.441186351846,
			"-0.011": 0.348604721924,
			"-0.01": 2.97272269135,
			"-0.009": 3.4665883219,
			"-0.008": 5.15563444013,
			"-0.007": 6.48301196742,
			"-0.006": 6.42703084752,
			"-0.005": 6.76871943476,
			"-0.004": 6.83648580374,
			"-0.003": 7.70215625452,
			"-0.002": 11.0765408469,
			"-0.001": 13.1056137612,
			"0.0": 18.2085622247,
			"0.001": 27.520885737,
			"0.002": 31.689873094,
			"0.003": 18.1916184421,
			"0.004": 14.2724224825,
			"0.005": 5.80595549821,
			"0.006": 2.29352729271,
			"0.007": 2.622587426,
			"0.008": 3.23000280473,
			"0.009": 3.08162495985,
			"0.01": 2.41844090452,
			"0.011": 1.92576642542,
			"0.012": 1.35324551406,
			"0.013": 0.102017089304,
			"0.014": 0.0,
			"0.015": 0.0,
			"0.016": 0.0,
			"0.017": 0.0,
			"0.018": 0.0,
			"0.019": 0.0,
			"0.02": 0.0,
			"0.021": 0.0,
			"0.022": 0.0,
			"0.023": 0.0,
			"0.024": 0.0,
			"0.025": 0.0
		}
	}
}
