{
	 "smiles": "ClS(=O)(=O)C1=CC(=CC(Br)=C1)C#N", 
	 "Tm": 348.15, 
	 "num_atms": 16, 
	 "gaussian": { 
		 "optdone": 1, 
		 "sigma_profile": "yes", 
		 "theory": "DFT", 
		 "functional": "B3LYP", 
		 "basiset": "6-31G**", 
		 "properties": { 
			 "R2extent": 6246.928, 
			 "electric_dipole_moment_norm": 3.29080553664, 
			 "electric_quadrupole_moment_norm": 14.191440244, 
			 "total_energy": -3903.43871737, 
			 "HOMO_LUMO_gap": 0.17986, 
			 "cosmo_polarized_energy": -12.52, 
			 "cosmo_cavitation_energy": 28.48, 
			 "cosmo_dispersion_energy": -20.87, 
			 "cosmo_repulsion_energy": 1.63, 
			 "cosmo_total_nonelectrostatic_energy": 9.24, 
			 "SMD_solvation_energy": 3.87 
		},
		"coords": [
			{
				"x": 4.3459742781,
				"y": 0.3893576167,
				"z": -3.0500164867,
				"element": "Cl" 
			},
			{
				"x": 4.0062120448,
				"y": 0.4558418499,
				"z": -0.9568675183,
				"element": "S" 
			},
			{
				"x": 4.8102236715,
				"y": -0.6062693125,
				"z": -0.369358193,
				"element": "O" 
			},
			{
				"x": 4.1282231626,
				"y": 1.8512036459,
				"z": -0.5591060388,
				"element": "O" 
			},
			{
				"x": 2.2754031501,
				"y": -0.0184014036,
				"z": -0.8800439652,
				"element": "C" 
			},
			{
				"x": 1.9603325007,
				"y": -1.3660753122,
				"z": -0.7434752667,
				"element": "C" 
			},
			{
				"x": 0.6043299517,
				"y": -1.718029604,
				"z": -0.6684104012,
				"element": "C" 
			},
			{
				"x": -0.3930678007,
				"y": -0.730262072,
				"z": -0.7281896855,
				"element": "C" 
			},
			{
				"x": -0.0295970823,
				"y": 0.6085743911,
				"z": -0.8595712393,
				"element": "C" 
			},
			{
				"x": -1.3811264606,
				"y": 1.9409001697,
				"z": -0.9286701206,
				"element": "Br" 
			},
			{
				"x": 1.3105374028,
				"y": 0.9867176387,
				"z": -0.9364835973,
				"element": "C" 
			},
			{
				"x": 0.2289223384,
				"y": -3.0953759033,
				"z": -0.5244994255,
				"element": "C" 
			},
			{
				"x": -0.0789719402,
				"y": -4.2102075451,
				"z": -0.4086566582,
				"element": "N" 
			},
			{
				"x": 2.7383314111,
				"y": -2.1180729251,
				"z": -0.6882966854,
				"element": "H" 
			},
			{
				"x": -1.4375618036,
				"y": -1.0113879566,
				"z": -0.6690079314,
				"element": "H" 
			},
			{
				"x": 1.5988351757,
				"y": 2.0268867223,
				"z": -1.0278467867,
				"element": "H" 
			}
		],
		 "valence_orbital": [ 
			{
				"type": "occ",
				"energy": -0.34339,
				"method": "rhf"
			},
			{
				"type": "occ",
				"energy": -0.33216,
				"method": "rhf"
			},
			{
				"type": "occ",
				"energy": -0.32506,
				"method": "rhf"
			},
			{
				"type": "occ",
				"energy": -0.31197,
				"method": "rhf"
			},
			{
				"type": "occ",
				"energy": -0.29221,
				"method": "rhf"
			},
			{
				"type": "unocc",
				"energy": -0.11235,
				"method": "rhf"
			},
			{
				"type": "unocc",
				"energy": -0.09199,
				"method": "rhf"
			},
			{
				"type": "unocc",
				"energy": -0.07241,
				"method": "rhf"
			},
			{
				"type": "unocc",
				"energy": -0.03496,
				"method": "rhf"
			},
			{
				"type": "unocc",
				"energy": 0.00526,
				"method": "rhf"
			}
		],
		"cosmo_sigma_profile": { 
			"-0.025": 0.0,
			"-0.024": 0.0,
			"-0.023": 0.0,
			"-0.022": 0.0,
			"-0.021": 0.0,
			"-0.02": 0.0,
			"-0.019": 0.0,
			"-0.018": 0.0,
			"-0.017": 0.0,
			"-0.016": 0.0,
			"-0.015": 0.0,
			"-0.014": 0.0,
			"-0.013": 0.0,
			"-0.012": 0.0,
			"-0.011": 1.27010257172,
			"-0.01": 4.56622934269,
			"-0.009": 4.8775250061,
			"-0.008": 6.39442228177,
			"-0.007": 6.1135374562,
			"-0.006": 9.34465497625,
			"-0.005": 10.6109240669,
			"-0.004": 17.5830295488,
			"-0.003": 23.3766620519,
			"-0.002": 19.052371268,
			"-0.001": 12.2305783716,
			"0.0": 11.643679655,
			"0.001": 14.7945593831,
			"0.002": 21.4939585739,
			"0.003": 23.0581043263,
			"0.004": 6.17516901551,
			"0.005": 5.32739646866,
			"0.006": 6.61119897327,
			"0.007": 12.0689075927,
			"0.008": 10.4783023221,
			"0.009": 3.91465376759,
			"0.01": 2.67105126082,
			"0.011": 2.42113303374,
			"0.012": 1.43475843647,
			"0.013": 0.0178024360044,
			"0.014": 0.0,
			"0.015": 0.0,
			"0.016": 0.0,
			"0.017": 0.0,
			"0.018": 0.0,
			"0.019": 0.0,
			"0.02": 0.0,
			"0.021": 0.0,
			"0.022": 0.0,
			"0.023": 0.0,
			"0.024": 0.0,
			"0.025": 0.0
		}
	}
}
