{
	 "smiles": "COC(=O)C1=CC(Cl)=CC=C1N", 
	 "Tm": 341.15, 
	 "num_atms": 20, 
	 "gaussian": { 
		 "optdone": 1, 
		 "sigma_profile": "yes", 
		 "theory": "DFT", 
		 "functional": "B3LYP", 
		 "basiset": "6-31G**", 
		 "properties": { 
			 "R2extent": 3301.6364, 
			 "electric_dipole_moment_norm": 2.15747238685, 
			 "electric_quadrupole_moment_norm": 19.3510824214, 
			 "total_energy": -975.086318518, 
			 "HOMO_LUMO_gap": 0.15861, 
			 "cosmo_polarized_energy": -8.97, 
			 "cosmo_cavitation_energy": 25.94, 
			 "cosmo_dispersion_energy": -19.61, 
			 "cosmo_repulsion_energy": 1.57, 
			 "cosmo_total_nonelectrostatic_energy": 7.9, 
			 "SMD_solvation_energy": 5.55 
		},
		"coords": [
			{
				"x": 3.2666671957,
				"y": -0.0508462941,
				"z": -1.1006577241,
				"element": "C" 
			},
			{
				"x": 2.2298149924,
				"y": 0.5432395269,
				"z": -0.3060315951,
				"element": "O" 
			},
			{
				"x": 1.0336400726,
				"y": -0.0846971259,
				"z": -0.3452327664,
				"element": "C" 
			},
			{
				"x": 0.8614934257,
				"y": -1.0960997839,
				"z": -1.0191535462,
				"element": "O" 
			},
			{
				"x": 0.005551775,
				"y": 0.5735980784,
				"z": 0.4825476295,
				"element": "C" 
			},
			{
				"x": 0.3133798856,
				"y": 1.7572387323,
				"z": 1.1810371676,
				"element": "C" 
			},
			{
				"x": -0.6464803841,
				"y": 2.3980827638,
				"z": 1.9416612603,
				"element": "C" 
			},
			{
				"x": -0.2464524427,
				"y": 3.8780487034,
				"z": 2.8074189737,
				"element": "Cl" 
			},
			{
				"x": -1.9445583771,
				"y": 1.875824034,
				"z": 2.0262018702,
				"element": "C" 
			},
			{
				"x": -2.2638364835,
				"y": 0.7126825312,
				"z": 1.3500504957,
				"element": "C" 
			},
			{
				"x": -1.3083016012,
				"y": 0.0239121231,
				"z": 0.5645683444,
				"element": "C" 
			},
			{
				"x": -1.6497335352,
				"y": -1.1372638356,
				"z": -0.0614274648,
				"element": "N" 
			},
			{
				"x": 4.1459222082,
				"y": 0.5746796589,
				"z": -0.9473444769,
				"element": "H" 
			},
			{
				"x": 3.4631048541,
				"y": -1.0756458771,
				"z": -0.7758942181,
				"element": "H" 
			},
			{
				"x": 2.9847492922,
				"y": -0.0643704176,
				"z": -2.1564833139,
				"element": "H" 
			},
			{
				"x": 1.3148307691,
				"y": 2.1613409975,
				"z": 1.1097405603,
				"element": "H" 
			},
			{
				"x": -2.6948889891,
				"y": 2.3845000823,
				"z": 2.6221918113,
				"element": "H" 
			},
			{
				"x": -3.269829053,
				"y": 0.3082016734,
				"z": 1.4229053981,
				"element": "H" 
			},
			{
				"x": -2.618797689,
				"y": -1.403315337,
				"z": -0.1110704919,
				"element": "H" 
			},
			{
				"x": -0.9764759156,
				"y": -1.542810234,
				"z": -0.6991279135,
				"element": "H" 
			}
		],
		 "valence_orbital": [ 
			{
				"type": "occ",
				"energy": -0.30675,
				"method": "rhf"
			},
			{
				"type": "occ",
				"energy": -0.29384,
				"method": "rhf"
			},
			{
				"type": "occ",
				"energy": -0.27985,
				"method": "rhf"
			},
			{
				"type": "occ",
				"energy": -0.2655,
				"method": "rhf"
			},
			{
				"type": "occ",
				"energy": -0.20566,
				"method": "rhf"
			},
			{
				"type": "unocc",
				"energy": -0.04705,
				"method": "rhf"
			},
			{
				"type": "unocc",
				"energy": 0.00432,
				"method": "rhf"
			},
			{
				"type": "unocc",
				"energy": 0.03515,
				"method": "rhf"
			},
			{
				"type": "unocc",
				"energy": 0.05246,
				"method": "rhf"
			},
			{
				"type": "unocc",
				"energy": 0.09017,
				"method": "rhf"
			}
		],
		"cosmo_sigma_profile": { 
			"-0.025": 0.0,
			"-0.024": 0.0,
			"-0.023": 0.0,
			"-0.022": 0.0,
			"-0.021": 0.0,
			"-0.02": 0.0,
			"-0.019": 0.0,
			"-0.018": 0.0,
			"-0.017": 0.0,
			"-0.016": 0.0,
			"-0.015": 0.0,
			"-0.014": 0.553134719806,
			"-0.013": 1.47054234979,
			"-0.012": 1.45600236778,
			"-0.011": 1.55289369012,
			"-0.01": 1.20705290449,
			"-0.009": 2.14705804945,
			"-0.008": 3.00397845394,
			"-0.007": 5.41664591516,
			"-0.006": 9.44460680383,
			"-0.005": 12.0245524955,
			"-0.004": 12.9547597185,
			"-0.003": 13.2342057171,
			"-0.002": 11.745814434,
			"-0.001": 12.9708638114,
			"0.0": 13.4458003968,
			"0.001": 14.2812701055,
			"0.002": 21.8156233392,
			"0.003": 23.9395202507,
			"0.004": 17.2365621712,
			"0.005": 13.8913811416,
			"0.006": 4.45616585116,
			"0.007": 2.47800354212,
			"0.008": 1.80428880283,
			"0.009": 2.02697787185,
			"0.01": 1.93912262893,
			"0.011": 1.68377590134,
			"0.012": 1.2357179601,
			"0.013": 0.019425224622,
			"0.014": 0.0,
			"0.015": 0.0,
			"0.016": 0.0,
			"0.017": 0.0,
			"0.018": 0.0,
			"0.019": 0.0,
			"0.02": 0.0,
			"0.021": 0.0,
			"0.022": 0.0,
			"0.023": 0.0,
			"0.024": 0.0,
			"0.025": 0.0
		}
	}
}
