{
	 "smiles": "COC1=NC(Cl)=CC(=C1)C(N)=O", 
	 "Tm": 459.15, 
	 "num_atms": 19, 
	 "gaussian": { 
		 "optdone": 1, 
		 "sigma_profile": "yes", 
		 "theory": "DFT", 
		 "functional": "B3LYP", 
		 "basiset": "6-31G**", 
		 "properties": { 
			 "R2extent": 3611.9432, 
			 "electric_dipole_moment_norm": 2.14598458988, 
			 "electric_quadrupole_moment_norm": 20.4884073808, 
			 "total_energy": -991.118643233, 
			 "HOMO_LUMO_gap": 0.18274, 
			 "cosmo_polarized_energy": -14.27, 
			 "cosmo_cavitation_energy": 25.91, 
			 "cosmo_dispersion_energy": -19.24, 
			 "cosmo_repulsion_energy": 1.57, 
			 "cosmo_total_nonelectrostatic_energy": 8.23, 
			 "SMD_solvation_energy": 5.04 
		},
		"coords": [
			{
				"x": -1.6389223539,
				"y": 4.5300183858,
				"z": -0.4645479179,
				"element": "C" 
			},
			{
				"x": -0.6522453622,
				"y": 3.8135910397,
				"z": 0.2881365859,
				"element": "O" 
			},
			{
				"x": -0.1846190221,
				"y": 2.6677223413,
				"z": -0.2365590405,
				"element": "C" 
			},
			{
				"x": -0.6575821236,
				"y": 2.2457391681,
				"z": -1.4100468374,
				"element": "N" 
			},
			{
				"x": -0.1665606924,
				"y": 1.1142121554,
				"z": -1.8924608172,
				"element": "C" 
			},
			{
				"x": -0.7960460996,
				"y": 0.5964637139,
				"z": -3.4561230717,
				"element": "Cl" 
			},
			{
				"x": 0.791390066,
				"y": 0.3274553971,
				"z": -1.2655139896,
				"element": "C" 
			},
			{
				"x": 1.2717387555,
				"y": 0.7813877625,
				"z": -0.0242605241,
				"element": "C" 
			},
			{
				"x": 0.7903893402,
				"y": 1.9735932913,
				"z": 0.4989345937,
				"element": "C" 
			},
			{
				"x": 2.3159957808,
				"y": 0.0400526229,
				"z": 0.7768195278,
				"element": "C" 
			},
			{
				"x": 2.4710079419,
				"y": -1.2868682375,
				"z": 0.4745712744,
				"element": "N" 
			},
			{
				"x": 2.987211191,
				"y": 0.60373855,
				"z": 1.6290906191,
				"element": "O" 
			},
			{
				"x": -1.8693837833,
				"y": 5.4126052662,
				"z": 0.1326081242,
				"element": "H" 
			},
			{
				"x": -1.2493345941,
				"y": 4.8223209613,
				"z": -1.4435345644,
				"element": "H" 
			},
			{
				"x": -2.5367372582,
				"y": 3.9234026355,
				"z": -0.6118604583,
				"element": "H" 
			},
			{
				"x": 1.1682815299,
				"y": -0.5658785187,
				"z": -1.7462861424,
				"element": "H" 
			},
			{
				"x": 1.1600393047,
				"y": 2.3545762042,
				"z": 1.4422532336,
				"element": "H" 
			},
			{
				"x": 3.0934485505,
				"y": -1.8077196183,
				"z": 1.0752701923,
				"element": "H" 
			},
			{
				"x": 1.7481288288,
				"y": -1.8008131207,
				"z": -0.0037907876,
				"element": "H" 
			}
		],
		 "valence_orbital": [ 
			{
				"type": "occ",
				"energy": -0.29528,
				"method": "rhf"
			},
			{
				"type": "occ",
				"energy": -0.2933,
				"method": "rhf"
			},
			{
				"type": "occ",
				"energy": -0.28497,
				"method": "rhf"
			},
			{
				"type": "occ",
				"energy": -0.2653,
				"method": "rhf"
			},
			{
				"type": "occ",
				"energy": -0.24248,
				"method": "rhf"
			},
			{
				"type": "unocc",
				"energy": -0.05974,
				"method": "rhf"
			},
			{
				"type": "unocc",
				"energy": -0.02149,
				"method": "rhf"
			},
			{
				"type": "unocc",
				"energy": 0.0283,
				"method": "rhf"
			},
			{
				"type": "unocc",
				"energy": 0.04554,
				"method": "rhf"
			},
			{
				"type": "unocc",
				"energy": 0.07204,
				"method": "rhf"
			}
		],
		"cosmo_sigma_profile": { 
			"-0.025": 0.0,
			"-0.024": 0.0,
			"-0.023": 0.0,
			"-0.022": 0.0,
			"-0.021": 0.0,
			"-0.02": 0.0,
			"-0.019": 0.0,
			"-0.018": 0.0,
			"-0.017": 0.0,
			"-0.016": 0.0,
			"-0.015": 0.734907956034,
			"-0.014": 2.76039471445,
			"-0.013": 2.71864079189,
			"-0.012": 2.49615966026,
			"-0.011": 2.94149182045,
			"-0.01": 2.75813242689,
			"-0.009": 2.43996502116,
			"-0.008": 2.60548115681,
			"-0.007": 3.05808150445,
			"-0.006": 6.56714444649,
			"-0.005": 9.81565366469,
			"-0.004": 11.5177507312,
			"-0.003": 13.9895907388,
			"-0.002": 15.5813801052,
			"-0.001": 18.0828583526,
			"0.0": 21.7067757893,
			"0.001": 13.0866674081,
			"0.002": 10.0028410728,
			"0.003": 11.8224814094,
			"0.004": 14.8434120117,
			"0.005": 8.74106393839,
			"0.006": 4.90874950709,
			"0.007": 4.90364061381,
			"0.008": 3.58387711817,
			"0.009": 3.3710580653,
			"0.01": 3.03575919599,
			"0.011": 2.11166743274,
			"0.012": 3.21643703668,
			"0.013": 4.88403404379,
			"0.014": 0.938748291421,
			"0.015": 0.0,
			"0.016": 0.0,
			"0.017": 0.0,
			"0.018": 0.0,
			"0.019": 0.0,
			"0.02": 0.0,
			"0.021": 0.0,
			"0.022": 0.0,
			"0.023": 0.0,
			"0.024": 0.0,
			"0.025": 0.0
		}
	}
}
