{
	 "smiles": "NC(CN1C=CC=CC1=O)=NO", 
	 "Tm": 485.15, 
	 "num_atms": 21, 
	 "gaussian": { 
		 "optdone": 1, 
		 "sigma_profile": "yes", 
		 "theory": "DFT", 
		 "functional": "B3LYP", 
		 "basiset": "6-31G**", 
		 "properties": { 
			 "R2extent": 2483.168, 
			 "electric_dipole_moment_norm": 3.1371933651, 
			 "electric_quadrupole_moment_norm": 6.71299543721, 
			 "total_energy": -586.820879916, 
			 "HOMO_LUMO_gap": 0.16423, 
			 "cosmo_polarized_energy": -13.72, 
			 "cosmo_cavitation_energy": 24.66, 
			 "cosmo_dispersion_energy": -18.37, 
			 "cosmo_repulsion_energy": 1.47, 
			 "cosmo_total_nonelectrostatic_energy": 7.76, 
			 "SMD_solvation_energy": 4.65 
		},
		"coords": [
			{
				"x": -0.1885963692,
				"y": 1.3458266709,
				"z": -2.6181788821,
				"element": "N" 
			},
			{
				"x": 0.1487930833,
				"y": 0.4541379345,
				"z": -1.6222351242,
				"element": "C" 
			},
			{
				"x": -1.0148765169,
				"y": -0.0827776324,
				"z": -0.8088518456,
				"element": "C" 
			},
			{
				"x": -1.2636795034,
				"y": 0.7130511844,
				"z": 0.4061509483,
				"element": "N" 
			},
			{
				"x": -0.7556375113,
				"y": 0.3068982118,
				"z": 1.6091045684,
				"element": "C" 
			},
			{
				"x": -1.0053812586,
				"y": 1.0017768259,
				"z": 2.7583131148,
				"element": "C" 
			},
			{
				"x": -1.8106070897,
				"y": 2.169830887,
				"z": 2.6787830882,
				"element": "C" 
			},
			{
				"x": -2.3048539293,
				"y": 2.597519522,
				"z": 1.477291198,
				"element": "C" 
			},
			{
				"x": -2.0218232548,
				"y": 1.8980783056,
				"z": 0.2466405237,
				"element": "C" 
			},
			{
				"x": -2.38672857,
				"y": 2.2516662237,
				"z": -0.8838018756,
				"element": "O" 
			},
			{
				"x": 1.3777394298,
				"y": 0.099890094,
				"z": -1.4602374368,
				"element": "N" 
			},
			{
				"x": 1.4893360696,
				"y": -0.8950868018,
				"z": -0.4370879181,
				"element": "O" 
			},
			{
				"x": -0.9874102759,
				"y": 1.928369428,
				"z": -2.3771102264,
				"element": "H" 
			},
			{
				"x": 0.5966932807,
				"y": 1.8331217495,
				"z": -3.0301421825,
				"element": "H" 
			},
			{
				"x": -0.8053909733,
				"y": -1.107803368,
				"z": -0.5079205899,
				"element": "H" 
			},
			{
				"x": -1.9215683583,
				"y": -0.0462780791,
				"z": -1.4138300335,
				"element": "H" 
			},
			{
				"x": -0.133644757,
				"y": -0.5792290824,
				"z": 1.5707371599,
				"element": "H" 
			},
			{
				"x": -0.5916944627,
				"y": 0.6586656783,
				"z": 3.6982857267,
				"element": "H" 
			},
			{
				"x": -2.0294941907,
				"y": 2.7317841665,
				"z": 3.5829593902,
				"element": "H" 
			},
			{
				"x": -2.912404186,
				"y": 3.4901723563,
				"z": 1.3852076458,
				"element": "H" 
			},
			{
				"x": 2.4328293436,
				"y": -1.0937142746,
				"z": -0.4721772494,
				"element": "H" 
			}
		],
		 "valence_orbital": [ 
			{
				"type": "occ",
				"energy": -0.30471,
				"method": "rhf"
			},
			{
				"type": "occ",
				"energy": -0.26719,
				"method": "rhf"
			},
			{
				"type": "occ",
				"energy": -0.25783,
				"method": "rhf"
			},
			{
				"type": "occ",
				"energy": -0.22192,
				"method": "rhf"
			},
			{
				"type": "occ",
				"energy": -0.20701,
				"method": "rhf"
			},
			{
				"type": "unocc",
				"energy": -0.04278,
				"method": "rhf"
			},
			{
				"type": "unocc",
				"energy": 0.00916,
				"method": "rhf"
			},
			{
				"type": "unocc",
				"energy": 0.02177,
				"method": "rhf"
			},
			{
				"type": "unocc",
				"energy": 0.0734,
				"method": "rhf"
			},
			{
				"type": "unocc",
				"energy": 0.09281,
				"method": "rhf"
			}
		],
		"cosmo_sigma_profile": { 
			"-0.025": 0.0,
			"-0.024": 0.0,
			"-0.023": 0.0,
			"-0.022": 0.0,
			"-0.021": 0.0,
			"-0.02": 0.0,
			"-0.019": 0.0,
			"-0.018": 0.0,
			"-0.017": 0.369801893897,
			"-0.016": 0.840278942485,
			"-0.015": 0.917811414393,
			"-0.014": 0.671585661645,
			"-0.013": 1.71400975,
			"-0.012": 1.54947656973,
			"-0.011": 1.20865828905,
			"-0.01": 1.67744394149,
			"-0.009": 1.72287176443,
			"-0.008": 4.15914688509,
			"-0.007": 10.2039719205,
			"-0.006": 12.1459816607,
			"-0.005": 14.1957536214,
			"-0.004": 11.8622681702,
			"-0.003": 9.31044575362,
			"-0.002": 10.778401791,
			"-0.001": 11.2544987677,
			"0.0": 13.3092309806,
			"0.001": 12.0296486358,
			"0.002": 14.2969630426,
			"0.003": 13.1414821645,
			"0.004": 7.47379207464,
			"0.005": 4.91272958003,
			"0.006": 4.85439919005,
			"0.007": 5.52356885522,
			"0.008": 5.46704843202,
			"0.009": 3.89097380753,
			"0.01": 2.77916588452,
			"0.011": 3.14086667849,
			"0.012": 2.80480242223,
			"0.013": 3.18154812223,
			"0.014": 3.11926904139,
			"0.015": 1.41243660168,
			"0.016": 0.0926830151112,
			"0.017": 0.0,
			"0.018": 0.0,
			"0.019": 0.0,
			"0.02": 0.0,
			"0.021": 0.0,
			"0.022": 0.0,
			"0.023": 0.0,
			"0.024": 0.0,
			"0.025": 0.0
		}
	}
}
