{
	 "smiles": "OC(=O)C1=CC2=C(CC3=C2C=CC=C3)C=C1", 
	 "Tm": 538.15, 
	 "num_atms": 26, 
	 "gaussian": { 
		 "optdone": 1, 
		 "sigma_profile": "yes", 
		 "theory": "DFT", 
		 "functional": "B3LYP", 
		 "basiset": "6-31G**", 
		 "properties": { 
			 "R2extent": 4469.0377, 
			 "electric_dipole_moment_norm": 5.39843489726, 
			 "electric_quadrupole_moment_norm": 20.5127563299, 
			 "total_energy": -689.991179791, 
			 "HOMO_LUMO_gap": 0.17878, 
			 "cosmo_polarized_energy": -15.31, 
			 "cosmo_cavitation_energy": 30.19, 
			 "cosmo_dispersion_energy": -22.32, 
			 "cosmo_repulsion_energy": 1.7, 
			 "cosmo_total_nonelectrostatic_energy": 9.57, 
			 "SMD_solvation_energy": 5.51 
		},
		"coords": [
			{
				"x": 2.4510892261,
				"y": -4.6986415236,
				"z": 0.8414187514,
				"element": "O" 
			},
			{
				"x": 2.2446656275,
				"y": -3.6898151784,
				"z": -0.0495522475,
				"element": "C" 
			},
			{
				"x": 2.7418197036,
				"y": -3.7486346055,
				"z": -1.1498036036,
				"element": "O" 
			},
			{
				"x": 1.3953318513,
				"y": -2.5446041668,
				"z": 0.4135515679,
				"element": "C" 
			},
			{
				"x": 1.5167050546,
				"y": -1.3329636529,
				"z": -0.2813903916,
				"element": "C" 
			},
			{
				"x": 0.7475885807,
				"y": -0.2421495461,
				"z": 0.1151221375,
				"element": "C" 
			},
			{
				"x": -0.159099917,
				"y": -0.3590822948,
				"z": 1.1923704768,
				"element": "C" 
			},
			{
				"x": -0.8704989917,
				"y": 0.9587078404,
				"z": 1.4154266272,
				"element": "C" 
			},
			{
				"x": -0.2702517586,
				"y": 1.8494507776,
				"z": 0.346155316,
				"element": "C" 
			},
			{
				"x": 0.6778988389,
				"y": 1.1285538075,
				"z": -0.4090338247,
				"element": "C" 
			},
			{
				"x": 1.3669034978,
				"y": 1.741692019,
				"z": -1.4579120946,
				"element": "C" 
			},
			{
				"x": 1.0988725522,
				"y": 3.0813975731,
				"z": -1.7441773017,
				"element": "C" 
			},
			{
				"x": 0.1578189183,
				"y": 3.7971669917,
				"z": -0.9944825274,
				"element": "C" 
			},
			{
				"x": -0.5330581263,
				"y": 3.1840739041,
				"z": 0.0564324678,
				"element": "C" 
			},
			{
				"x": -0.2988062045,
				"y": -1.5659417452,
				"z": 1.8672771765,
				"element": "C" 
			},
			{
				"x": 0.4819874247,
				"y": -2.657344024,
				"z": 1.4755867887,
				"element": "C" 
			},
			{
				"x": 2.1395839756,
				"y": -4.4342363525,
				"z": 1.7179818833,
				"element": "H" 
			},
			{
				"x": 2.2116630498,
				"y": -1.2797291947,
				"z": -1.1128065142,
				"element": "H" 
			},
			{
				"x": -1.9586573151,
				"y": 0.857301477,
				"z": 1.3063941606,
				"element": "H" 
			},
			{
				"x": -0.6960860416,
				"y": 1.350394336,
				"z": 2.4265821799,
				"element": "H" 
			},
			{
				"x": 2.0976511747,
				"y": 1.1899063535,
				"z": -2.0423909517,
				"element": "H" 
			},
			{
				"x": 1.6253055687,
				"y": 3.5737968273,
				"z": -2.5566226562,
				"element": "H" 
			},
			{
				"x": -0.0379644378,
				"y": 4.8389281975,
				"z": -1.2314732158,
				"element": "H" 
			},
			{
				"x": -1.262461797,
				"y": 3.7464333718,
				"z": 0.6336610325,
				"element": "H" 
			},
			{
				"x": -1.0087007804,
				"y": -1.6707111662,
				"z": 2.683182316,
				"element": "H" 
			},
			{
				"x": 0.3360003257,
				"y": -3.6098500256,
				"z": 1.9793024469,
				"element": "H" 
			}
		],
		 "valence_orbital": [ 
			{
				"type": "occ",
				"energy": -0.2944,
				"method": "rhf"
			},
			{
				"type": "occ",
				"energy": -0.27312,
				"method": "rhf"
			},
			{
				"type": "occ",
				"energy": -0.26058,
				"method": "rhf"
			},
			{
				"type": "occ",
				"energy": -0.25188,
				"method": "rhf"
			},
			{
				"type": "occ",
				"energy": -0.2282,
				"method": "rhf"
			},
			{
				"type": "unocc",
				"energy": -0.04942,
				"method": "rhf"
			},
			{
				"type": "unocc",
				"energy": -0.04117,
				"method": "rhf"
			},
			{
				"type": "unocc",
				"energy": -0.00781,
				"method": "rhf"
			},
			{
				"type": "unocc",
				"energy": 0.01888,
				"method": "rhf"
			},
			{
				"type": "unocc",
				"energy": 0.058,
				"method": "rhf"
			}
		],
		"cosmo_sigma_profile": { 
			"-0.025": 0.0,
			"-0.024": 0.0,
			"-0.023": 0.0,
			"-0.022": 0.0,
			"-0.021": 0.0,
			"-0.02": 0.0,
			"-0.019": 0.053512579589,
			"-0.018": 0.579419694397,
			"-0.017": 0.992022439371,
			"-0.016": 1.13959075817,
			"-0.015": 1.00606574137,
			"-0.014": 0.998995919574,
			"-0.013": 0.625344665874,
			"-0.012": 1.26315908552,
			"-0.011": 1.16847230796,
			"-0.01": 1.07274206137,
			"-0.009": 1.32872266351,
			"-0.008": 1.62257478558,
			"-0.007": 3.37591557361,
			"-0.006": 14.168242737,
			"-0.005": 19.2839969757,
			"-0.004": 19.0735752026,
			"-0.003": 20.9183832507,
			"-0.002": 15.5101097229,
			"-0.001": 13.4707576467,
			"0.0": 12.7439511047,
			"0.001": 14.5260937541,
			"0.002": 16.7517748097,
			"0.003": 22.8618561569,
			"0.004": 13.7203534355,
			"0.005": 11.1949474557,
			"0.006": 7.24643621978,
			"0.007": 2.73338340721,
			"0.008": 2.65963676132,
			"0.009": 2.9409142675,
			"0.01": 4.78479692445,
			"0.011": 5.16802798095,
			"0.012": 5.23140117873,
			"0.013": 1.92418965605,
			"0.014": 0.183936000858,
			"0.015": 0.0,
			"0.016": 0.0,
			"0.017": 0.0,
			"0.018": 0.0,
			"0.019": 0.0,
			"0.02": 0.0,
			"0.021": 0.0,
			"0.022": 0.0,
			"0.023": 0.0,
			"0.024": 0.0,
			"0.025": 0.0
		}
	}
}
