{
	 "smiles": "ClC1=CC=C(CC2=C(NN=C2N=CC2=CC=C(Cl)C=C2)N=CC2=CC=C(Cl)C=C2)C=C1", 
	 "Tm": 502.15, 
	 "num_atms": 48, 
	 "gaussian": { 
		 "optdone": 1, 
		 "sigma_profile": "yes", 
		 "theory": "DFT", 
		 "functional": "B3LYP", 
		 "basiset": "6-31G**", 
		 "properties": { 
			 "R2extent": 27726.6047, 
			 "electric_dipole_moment_norm": 2.14786236524, 
			 "electric_quadrupole_moment_norm": 26.7006910485, 
			 "total_energy": -2524.36329578, 
			 "HOMO_LUMO_gap": 0.14116, 
			 "cosmo_polarized_energy": -15.64, 
			 "cosmo_cavitation_energy": 60.6, 
			 "cosmo_dispersion_energy": -41.46, 
			 "cosmo_repulsion_energy": 3.14, 
			 "cosmo_total_nonelectrostatic_energy": 22.28, 
			 "SMD_solvation_energy": 6.37 
		},
		"coords": [
			{
				"x": -2.6333258841,
				"y": 0.3974713676,
				"z": -4.9074369303,
				"element": "Cl" 
			},
			{
				"x": -2.0397753404,
				"y": 0.0505802711,
				"z": -3.2881689215,
				"element": "C" 
			},
			{
				"x": -2.9348389349,
				"y": 0.0194284612,
				"z": -2.220504939,
				"element": "C" 
			},
			{
				"x": -2.4510468092,
				"y": -0.2515991642,
				"z": -0.9396360205,
				"element": "C" 
			},
			{
				"x": -1.0900090115,
				"y": -0.4922443085,
				"z": -0.7078832465,
				"element": "C" 
			},
			{
				"x": -0.5999866352,
				"y": -0.83214477,
				"z": 0.6948037605,
				"element": "C" 
			},
			{
				"x": 0.7654309514,
				"y": -0.3302482178,
				"z": 1.0644704432,
				"element": "C" 
			},
			{
				"x": 1.1950742368,
				"y": 0.9517026843,
				"z": 1.4387782697,
				"element": "C" 
			},
			{
				"x": 2.5209052528,
				"y": 0.8147340621,
				"z": 1.7507193469,
				"element": "N" 
			},
			{
				"x": 2.9992576048,
				"y": -0.422610099,
				"z": 1.5942450027,
				"element": "N" 
			},
			{
				"x": 1.9323438462,
				"y": -1.1319151313,
				"z": 1.1825355899,
				"element": "C" 
			},
			{
				"x": 1.9519047421,
				"y": -2.4965414076,
				"z": 0.9103789458,
				"element": "N" 
			},
			{
				"x": 3.0510407072,
				"y": -3.1554781004,
				"z": 1.0093734437,
				"element": "C" 
			},
			{
				"x": 3.1245915478,
				"y": -4.5927758896,
				"z": 0.7379287735,
				"element": "C" 
			},
			{
				"x": 4.3539597181,
				"y": -5.2575841914,
				"z": 0.8700977884,
				"element": "C" 
			},
			{
				"x": 4.4629384794,
				"y": -6.623878249,
				"z": 0.620399999,
				"element": "C" 
			},
			{
				"x": 3.3250850419,
				"y": -7.3305782639,
				"z": 0.232961454,
				"element": "C" 
			},
			{
				"x": 3.4465532387,
				"y": -9.0528713439,
				"z": -0.0855144694,
				"element": "Cl" 
			},
			{
				"x": 2.0875159573,
				"y": -6.6937682207,
				"z": 0.0926049752,
				"element": "C" 
			},
			{
				"x": 1.9934967333,
				"y": -5.3312852401,
				"z": 0.3453457439,
				"element": "C" 
			},
			{
				"x": 0.6452341787,
				"y": 2.2022055952,
				"z": 1.6102768209,
				"element": "N" 
			},
			{
				"x": -0.5051218429,
				"y": 2.5105485765,
				"z": 1.1190344182,
				"element": "C" 
			},
			{
				"x": -1.1068530393,
				"y": 3.8273930648,
				"z": 1.3283493817,
				"element": "C" 
			},
			{
				"x": -2.3357352204,
				"y": 4.1260926287,
				"z": 0.7175388476,
				"element": "C" 
			},
			{
				"x": -2.9393246257,
				"y": 5.3692359344,
				"z": 0.8907748289,
				"element": "C" 
			},
			{
				"x": -2.3039927765,
				"y": 6.3222245656,
				"z": 1.686717659,
				"element": "C" 
			},
			{
				"x": -3.0536786827,
				"y": 7.8915709621,
				"z": 1.9161976216,
				"element": "Cl" 
			},
			{
				"x": -1.0797800698,
				"y": 6.0507886633,
				"z": 2.3072647453,
				"element": "C" 
			},
			{
				"x": -0.4884186518,
				"y": 4.807450851,
				"z": 2.1260677978,
				"element": "C" 
			},
			{
				"x": -0.2157947227,
				"y": -0.4545566239,
				"z": -1.8018060439,
				"element": "C" 
			},
			{
				"x": -0.6800553689,
				"y": -0.1859186595,
				"z": -3.0891512298,
				"element": "C" 
			},
			{
				"x": -3.9903194198,
				"y": 0.204037898,
				"z": -2.3884509642,
				"element": "H" 
			},
			{
				"x": -3.1502160983,
				"y": -0.2811787515,
				"z": -0.1070540694,
				"element": "H" 
			},
			{
				"x": -0.5715904487,
				"y": -1.9238325698,
				"z": 0.7971608174,
				"element": "H" 
			},
			{
				"x": -1.3402999188,
				"y": -0.4729906496,
				"z": 1.4213189117,
				"element": "H" 
			},
			{
				"x": 3.1221638301,
				"y": 1.5660005437,
				"z": 2.0570570711,
				"element": "H" 
			},
			{
				"x": 3.9877028475,
				"y": -2.6668075993,
				"z": 1.3031482884,
				"element": "H" 
			},
			{
				"x": 5.23519589,
				"y": -4.6977558814,
				"z": 1.1725853584,
				"element": "H" 
			},
			{
				"x": 5.4131090726,
				"y": -7.1358075175,
				"z": 0.7233549295,
				"element": "H" 
			},
			{
				"x": 1.2170916647,
				"y": -7.2650747856,
				"z": -0.2107115374,
				"element": "H" 
			},
			{
				"x": 1.0456075671,
				"y": -4.8141178649,
				"z": 0.2430705399,
				"element": "H" 
			},
			{
				"x": -1.0851834094,
				"y": 1.8171305124,
				"z": 0.5021614234,
				"element": "H" 
			},
			{
				"x": -2.8205078095,
				"y": 3.3776660269,
				"z": 0.0959603206,
				"element": "H" 
			},
			{
				"x": -3.8868343528,
				"y": 5.5998825131,
				"z": 0.4170590558,
				"element": "H" 
			},
			{
				"x": -0.6061271078,
				"y": 6.8081486467,
				"z": 2.9220651084,
				"element": "H" 
			},
			{
				"x": 0.4597058768,
				"y": 4.5727668295,
				"z": 2.5977325934,
				"element": "H" 
			},
			{
				"x": 0.8430455653,
				"y": -0.6365542846,
				"z": -1.64564705,
				"element": "H" 
			},
			{
				"x": 0.0045616306,
				"y": -0.1587428734,
				"z": -3.9298746532,
				"element": "H" 
			}
		],
		 "valence_orbital": [ 
			{
				"type": "occ",
				"energy": -0.26653,
				"method": "rhf"
			},
			{
				"type": "occ",
				"energy": -0.26572,
				"method": "rhf"
			},
			{
				"type": "occ",
				"energy": -0.2441,
				"method": "rhf"
			},
			{
				"type": "occ",
				"energy": -0.22917,
				"method": "rhf"
			},
			{
				"type": "occ",
				"energy": -0.21842,
				"method": "rhf"
			},
			{
				"type": "unocc",
				"energy": -0.07726,
				"method": "rhf"
			},
			{
				"type": "unocc",
				"energy": -0.06789,
				"method": "rhf"
			},
			{
				"type": "unocc",
				"energy": -0.02392,
				"method": "rhf"
			},
			{
				"type": "unocc",
				"energy": -0.01874,
				"method": "rhf"
			},
			{
				"type": "unocc",
				"energy": -0.01771,
				"method": "rhf"
			}
		],
		"cosmo_sigma_profile": { 
			"-0.025": 0.0,
			"-0.024": 0.0,
			"-0.023": 0.0,
			"-0.022": 0.0,
			"-0.021": 0.0,
			"-0.02": 0.0,
			"-0.019": 0.0,
			"-0.018": 0.0,
			"-0.017": 0.222776104021,
			"-0.016": 1.18727250582,
			"-0.015": 1.26231233066,
			"-0.014": 0.719438709701,
			"-0.013": 0.682478385853,
			"-0.012": 0.692768887042,
			"-0.011": 1.07424507405,
			"-0.01": 1.03596326059,
			"-0.009": 0.4158456838,
			"-0.008": 3.48752022072,
			"-0.007": 15.6407077754,
			"-0.006": 26.74561687,
			"-0.005": 30.5308671542,
			"-0.004": 23.3903090867,
			"-0.003": 24.5784781233,
			"-0.002": 28.3518343184,
			"-0.001": 32.6172699263,
			"0.0": 39.1416013273,
			"0.001": 53.3280135753,
			"0.002": 66.9620070097,
			"0.003": 56.9298997032,
			"0.004": 44.6940810339,
			"0.005": 21.7203702313,
			"0.006": 5.96849517733,
			"0.007": 4.6846109244,
			"0.008": 3.0773353048,
			"0.009": 1.09421751728,
			"0.01": 1.45886081723,
			"0.011": 0.815329017241,
			"0.012": 0.968949430304,
			"0.013": 1.10766643009,
			"0.014": 0.25010739497,
			"0.015": 0.0,
			"0.016": 0.0,
			"0.017": 0.0,
			"0.018": 0.0,
			"0.019": 0.0,
			"0.02": 0.0,
			"0.021": 0.0,
			"0.022": 0.0,
			"0.023": 0.0,
			"0.024": 0.0,
			"0.025": 0.0
		}
	}
}
