{
	 "smiles": "NC1=CC(=CC=C1Cl)[N+]([O-])=O", 
	 "Tm": 393.15, 
	 "num_atms": 16, 
	 "gaussian": { 
		 "optdone": 1, 
		 "sigma_profile": "yes", 
		 "theory": "DFT", 
		 "functional": "B3LYP", 
		 "basiset": "6-31G**", 
		 "properties": { 
			 "R2extent": 2434.4092, 
			 "electric_dipole_moment_norm": 4.16798132913, 
			 "electric_quadrupole_moment_norm": 13.9315087884, 
			 "total_energy": -951.699039256, 
			 "HOMO_LUMO_gap": 0.14312, 
			 "cosmo_polarized_energy": -10.92, 
			 "cosmo_cavitation_energy": 22.78, 
			 "cosmo_dispersion_energy": -17.22, 
			 "cosmo_repulsion_energy": 1.38, 
			 "cosmo_total_nonelectrostatic_energy": 6.94, 
			 "SMD_solvation_energy": 5.91 
		},
		"coords": [
			{
				"x": 0.959983063,
				"y": -1.624129102,
				"z": 1.0698182351,
				"element": "N" 
			},
			{
				"x": 0.0131624071,
				"y": -0.7841597648,
				"z": 0.5229576015,
				"element": "C" 
			},
			{
				"x": 0.378712906,
				"y": 0.2274380899,
				"z": -0.3808105136,
				"element": "C" 
			},
			{
				"x": -0.5980871382,
				"y": 1.025597081,
				"z": -0.9615258421,
				"element": "C" 
			},
			{
				"x": -1.9564607611,
				"y": 0.8776006695,
				"z": -0.6903981842,
				"element": "C" 
			},
			{
				"x": -2.3299821311,
				"y": -0.1186877822,
				"z": 0.2064786244,
				"element": "C" 
			},
			{
				"x": -1.3651264802,
				"y": -0.9295286408,
				"z": 0.799552075,
				"element": "C" 
			},
			{
				"x": -1.8748889485,
				"y": -2.1700513173,
				"z": 1.934721096,
				"element": "Cl" 
			},
			{
				"x": -0.1710840942,
				"y": 2.0753239571,
				"z": -1.902116628,
				"element": "N" 
			},
			{
				"x": -1.0465505708,
				"y": 2.7722419961,
				"z": -2.4131489616,
				"element": "O" 
			},
			{
				"x": 1.0347004938,
				"y": 2.1933570373,
				"z": -2.1204258558,
				"element": "O" 
			},
			{
				"x": 0.6949001019,
				"y": -2.1325678698,
				"z": 1.9004163517,
				"element": "H" 
			},
			{
				"x": 1.9135524562,
				"y": -1.2954445474,
				"z": 1.0640217171,
				"element": "H" 
			},
			{
				"x": 1.4181952199,
				"y": 0.3919631266,
				"z": -0.6378806347,
				"element": "H" 
			},
			{
				"x": -2.6818020807,
				"y": 1.5231621767,
				"z": -1.1664559582,
				"element": "H" 
			},
			{
				"x": -3.3740244432,
				"y": -0.2723151099,
				"z": 0.4547968774,
				"element": "H" 
			}
		],
		 "valence_orbital": [ 
			{
				"type": "occ",
				"energy": -0.3099,
				"method": "rhf"
			},
			{
				"type": "occ",
				"energy": -0.30807,
				"method": "rhf"
			},
			{
				"type": "occ",
				"energy": -0.29118,
				"method": "rhf"
			},
			{
				"type": "occ",
				"energy": -0.27472,
				"method": "rhf"
			},
			{
				"type": "occ",
				"energy": -0.23283,
				"method": "rhf"
			},
			{
				"type": "unocc",
				"energy": -0.08971,
				"method": "rhf"
			},
			{
				"type": "unocc",
				"energy": -0.0226,
				"method": "rhf"
			},
			{
				"type": "unocc",
				"energy": 0.0038,
				"method": "rhf"
			},
			{
				"type": "unocc",
				"energy": 0.01316,
				"method": "rhf"
			},
			{
				"type": "unocc",
				"energy": 0.06775,
				"method": "rhf"
			}
		],
		"cosmo_sigma_profile": { 
			"-0.025": 0.0,
			"-0.024": 0.0,
			"-0.023": 0.0,
			"-0.022": 0.0,
			"-0.021": 0.0,
			"-0.02": 0.0,
			"-0.019": 0.0,
			"-0.018": 0.0,
			"-0.017": 0.0,
			"-0.016": 0.0,
			"-0.015": 0.11791270108,
			"-0.014": 1.1305958661,
			"-0.013": 1.95988721564,
			"-0.012": 2.76426493923,
			"-0.011": 2.50380346236,
			"-0.01": 2.41192155182,
			"-0.009": 2.53591650226,
			"-0.008": 4.91146150934,
			"-0.007": 5.30015926052,
			"-0.006": 7.50737336101,
			"-0.005": 7.03856037523,
			"-0.004": 5.59445119649,
			"-0.003": 8.00320496154,
			"-0.002": 9.799324783,
			"-0.001": 13.2838423127,
			"0.0": 17.8406318648,
			"0.001": 21.5082928677,
			"0.002": 16.6416112023,
			"0.003": 10.2465388777,
			"0.004": 8.65203533151,
			"0.005": 4.64446311074,
			"0.006": 4.68135381845,
			"0.007": 8.30242151639,
			"0.008": 8.3913554708,
			"0.009": 4.93306857014,
			"0.01": 3.33969091758,
			"0.011": 0.737282141024,
			"0.012": 0.0816369376357,
			"0.013": 0.0,
			"0.014": 0.0,
			"0.015": 0.0,
			"0.016": 0.0,
			"0.017": 0.0,
			"0.018": 0.0,
			"0.019": 0.0,
			"0.02": 0.0,
			"0.021": 0.0,
			"0.022": 0.0,
			"0.023": 0.0,
			"0.024": 0.0,
			"0.025": 0.0
		}
	}
}
