{
	 "smiles": "CC(=O)OC1CC2C(O)C3(C4CC5C(C)(C)CCC(OC(C)=O)C5(C13)C(=O)O4)C(=O)C2=C", 
	 "Tm": 511.15, 
	 "num_atms": 62, 
	 "gaussian": { 
		 "optdone": 1, 
		 "sigma_profile": "yes", 
		 "theory": "DFT", 
		 "functional": "B3LYP", 
		 "basiset": "6-31G**", 
		 "properties": { 
			 "R2extent": 11181.718, 
			 "electric_dipole_moment_norm": 5.89289466646, 
			 "electric_quadrupole_moment_norm": 28.6177311204, 
			 "total_energy": -1534.43854861, 
			 "HOMO_LUMO_gap": 0.17936, 
			 "cosmo_polarized_energy": -26.45, 
			 "cosmo_cavitation_energy": 54.92, 
			 "cosmo_dispersion_energy": -35.77, 
			 "cosmo_repulsion_energy": 2.58, 
			 "cosmo_total_nonelectrostatic_energy": 21.74, 
			 "SMD_solvation_energy": 11.86 
		},
		"coords": [
			{
				"x": 4.9864844651,
				"y": -1.1375601756,
				"z": 0.539581186,
				"element": "C" 
			},
			{
				"x": 4.0799763337,
				"y": -0.9431586104,
				"z": -0.6486059519,
				"element": "C" 
			},
			{
				"x": 4.2487415411,
				"y": -1.4374773276,
				"z": -1.7418107727,
				"element": "O" 
			},
			{
				"x": 3.0292446704,
				"y": -0.1223252361,
				"z": -0.3498837098,
				"element": "O" 
			},
			{
				"x": 2.1425958115,
				"y": 0.1841673895,
				"z": -1.4630967201,
				"element": "C" 
			},
			{
				"x": 2.8772323348,
				"y": 1.2353224162,
				"z": -2.3325890125,
				"element": "C" 
			},
			{
				"x": 1.9558075806,
				"y": 2.0648008056,
				"z": -3.2658933547,
				"element": "C" 
			},
			{
				"x": 0.659973239,
				"y": 1.2626025327,
				"z": -3.5082933486,
				"element": "C" 
			},
			{
				"x": 0.8435936542,
				"y": -0.0712204636,
				"z": -3.9229979101,
				"element": "O" 
			},
			{
				"x": -0.0307999134,
				"y": 1.3815871138,
				"z": -2.1216199385,
				"element": "C" 
			},
			{
				"x": -1.4629427049,
				"y": 0.8403987115,
				"z": -2.1114720782,
				"element": "C" 
			},
			{
				"x": -2.1820899813,
				"y": 1.1088482448,
				"z": -0.7977607509,
				"element": "C" 
			},
			{
				"x": -1.4419122025,
				"y": 0.3588471278,
				"z": 0.338482075,
				"element": "C" 
			},
			{
				"x": -2.4024968528,
				"y": -0.5346557499,
				"z": 1.2075584401,
				"element": "C" 
			},
			{
				"x": -3.253995264,
				"y": -1.5381263971,
				"z": 0.3944485277,
				"element": "C" 
			},
			{
				"x": -3.3644602682,
				"y": 0.4065927079,
				"z": 1.9627567042,
				"element": "C" 
			},
			{
				"x": -1.5684373329,
				"y": -1.3153344235,
				"z": 2.2494547283,
				"element": "C" 
			},
			{
				"x": -0.4191316853,
				"y": -2.1092184612,
				"z": 1.6245535231,
				"element": "C" 
			},
			{
				"x": 0.5250510813,
				"y": -1.1944772001,
				"z": 0.8445076002,
				"element": "C" 
			},
			{
				"x": 1.0613564233,
				"y": -0.1843102041,
				"z": 1.7536910429,
				"element": "O" 
			},
			{
				"x": 2.0756911852,
				"y": -0.5408675,
				"z": 2.5642809181,
				"element": "C" 
			},
			{
				"x": 2.5618970824,
				"y": 0.6426933611,
				"z": 3.3673254651,
				"element": "C" 
			},
			{
				"x": 2.5434300434,
				"y": -1.660186138,
				"z": 2.6211222717,
				"element": "O" 
			},
			{
				"x": -0.1822661985,
				"y": -0.386139575,
				"z": -0.2630385807,
				"element": "C" 
			},
			{
				"x": 0.7752938857,
				"y": 0.6867405725,
				"z": -0.9338994735,
				"element": "C" 
			},
			{
				"x": -0.6655326351,
				"y": -1.2787498818,
				"z": -1.4024334676,
				"element": "C" 
			},
			{
				"x": -0.4593231338,
				"y": -2.4634856445,
				"z": -1.5314034928,
				"element": "O" 
			},
			{
				"x": -1.4004663279,
				"y": -0.5979680143,
				"z": -2.3206560736,
				"element": "O" 
			},
			{
				"x": 0.1278437926,
				"y": 2.905239716,
				"z": -1.9038661356,
				"element": "C" 
			},
			{
				"x": -0.6080689723,
				"y": 3.6510840852,
				"z": -1.285665031,
				"element": "O" 
			},
			{
				"x": 1.3998213148,
				"y": 3.3008870018,
				"z": -2.5930125019,
				"element": "C" 
			},
			{
				"x": 1.8532271281,
				"y": 4.5572594419,
				"z": -2.59720306,
				"element": "C" 
			},
			{
				"x": 5.29090566,
				"y": -0.168021817,
				"z": 0.9451974261,
				"element": "H" 
			},
			{
				"x": 5.8638562854,
				"y": -1.7020289375,
				"z": 0.2251937818,
				"element": "H" 
			},
			{
				"x": 4.4556488533,
				"y": -1.6725937209,
				"z": 1.3315586999,
				"element": "H" 
			},
			{
				"x": 2.0091951811,
				"y": -0.7289942037,
				"z": -2.0403617388,
				"element": "H" 
			},
			{
				"x": 3.6198160959,
				"y": 0.6964314401,
				"z": -2.9240389871,
				"element": "H" 
			},
			{
				"x": 3.4220502873,
				"y": 1.9094582784,
				"z": -1.6634853604,
				"element": "H" 
			},
			{
				"x": 2.4817348952,
				"y": 2.3120067042,
				"z": -4.1942308614,
				"element": "H" 
			},
			{
				"x": 0.0250100726,
				"y": 1.8032636161,
				"z": -4.2311744196,
				"element": "H" 
			},
			{
				"x": 1.2941327922,
				"y": -0.0702028501,
				"z": -4.7777725531,
				"element": "H" 
			},
			{
				"x": -2.0232921995,
				"y": 1.2207829911,
				"z": -2.9693564536,
				"element": "H" 
			},
			{
				"x": -2.2109907405,
				"y": 2.1841453878,
				"z": -0.6191844706,
				"element": "H" 
			},
			{
				"x": -3.2114475721,
				"y": 0.760673718,
				"z": -0.9025496396,
				"element": "H" 
			},
			{
				"x": -1.0214327336,
				"y": 1.0970850194,
				"z": 1.0308884021,
				"element": "H" 
			},
			{
				"x": -2.6569942652,
				"y": -2.2758807046,
				"z": -0.1443717335,
				"element": "H" 
			},
			{
				"x": -3.9077908154,
				"y": -2.0865246973,
				"z": 1.0815294242,
				"element": "H" 
			},
			{
				"x": -3.9024620239,
				"y": -1.0446573323,
				"z": -0.3345255475,
				"element": "H" 
			},
			{
				"x": -4.0134374455,
				"y": -0.1700006051,
				"z": 2.6312674508,
				"element": "H" 
			},
			{
				"x": -2.8142805051,
				"y": 1.1310554057,
				"z": 2.5739584157,
				"element": "H" 
			},
			{
				"x": -4.01255791,
				"y": 0.9664557496,
				"z": 1.2804929571,
				"element": "H" 
			},
			{
				"x": -1.1576779443,
				"y": -0.6082528917,
				"z": 2.980695206,
				"element": "H" 
			},
			{
				"x": -2.229202987,
				"y": -1.9891167141,
				"z": 2.8081206747,
				"element": "H" 
			},
			{
				"x": 0.1640832766,
				"y": -2.6216571372,
				"z": 2.3943470746,
				"element": "H" 
			},
			{
				"x": -0.7841387,
				"y": -2.8776353822,
				"z": 0.9382841819,
				"element": "H" 
			},
			{
				"x": 1.3560557274,
				"y": -1.7705793299,
				"z": 0.4401293265,
				"element": "H" 
			},
			{
				"x": 3.1041346011,
				"y": 1.3237824859,
				"z": 2.7031709342,
				"element": "H" 
			},
			{
				"x": 1.7215356233,
				"y": 1.196918229,
				"z": 3.7925279574,
				"element": "H" 
			},
			{
				"x": 3.2293064653,
				"y": 0.2988041745,
				"z": 4.1571959573,
				"element": "H" 
			},
			{
				"x": 0.9784051777,
				"y": 1.4307873263,
				"z": -0.1559869018,
				"element": "H" 
			},
			{
				"x": 2.7588534225,
				"y": 4.8474351114,
				"z": -3.1220271964,
				"element": "H" 
			},
			{
				"x": 1.3065433311,
				"y": 5.3285504606,
				"z": -2.0620531246,
				"element": "H" 
			}
		],
		 "valence_orbital": [ 
			{
				"type": "occ",
				"energy": -0.27535,
				"method": "rhf"
			},
			{
				"type": "occ",
				"energy": -0.27261,
				"method": "rhf"
			},
			{
				"type": "occ",
				"energy": -0.26778,
				"method": "rhf"
			},
			{
				"type": "occ",
				"energy": -0.25943,
				"method": "rhf"
			},
			{
				"type": "occ",
				"energy": -0.25625,
				"method": "rhf"
			},
			{
				"type": "unocc",
				"energy": -0.07689,
				"method": "rhf"
			},
			{
				"type": "unocc",
				"energy": 0.00548,
				"method": "rhf"
			},
			{
				"type": "unocc",
				"energy": 0.01164,
				"method": "rhf"
			},
			{
				"type": "unocc",
				"energy": 0.01458,
				"method": "rhf"
			},
			{
				"type": "unocc",
				"energy": 0.0469,
				"method": "rhf"
			}
		],
		"cosmo_sigma_profile": { 
			"-0.025": 0.0,
			"-0.024": 0.0,
			"-0.023": 0.0,
			"-0.022": 0.0,
			"-0.021": 0.0,
			"-0.02": 0.0,
			"-0.019": 0.0,
			"-0.018": 0.0,
			"-0.017": 0.354859357068,
			"-0.016": 1.04608053659,
			"-0.015": 1.41506855561,
			"-0.014": 0.852677650032,
			"-0.013": 0.63356510444,
			"-0.012": 0.985881646861,
			"-0.011": 1.10617626383,
			"-0.01": 0.95226980335,
			"-0.009": 1.60717981623,
			"-0.008": 3.45725931098,
			"-0.007": 8.11758209292,
			"-0.006": 16.9156363349,
			"-0.005": 27.7990799552,
			"-0.004": 28.6902992158,
			"-0.003": 43.9037170558,
			"-0.002": 56.9563895863,
			"-0.001": 49.2827337907,
			"0.0": 34.8231562531,
			"0.001": 29.6951203683,
			"0.002": 19.2791024689,
			"0.003": 13.0331212058,
			"0.004": 10.4249207257,
			"0.005": 8.5616318323,
			"0.006": 7.21345572173,
			"0.007": 6.56963098354,
			"0.008": 6.49601559752,
			"0.009": 7.38050705989,
			"0.01": 10.4501588923,
			"0.011": 13.3320677071,
			"0.012": 11.3341021387,
			"0.013": 3.98095079793,
			"0.014": 0.561362397538,
			"0.015": 0.0566362351244,
			"0.016": 0.0,
			"0.017": 0.0,
			"0.018": 0.0,
			"0.019": 0.0,
			"0.02": 0.0,
			"0.021": 0.0,
			"0.022": 0.0,
			"0.023": 0.0,
			"0.024": 0.0,
			"0.025": 0.0
		}
	}
}
