{
	 "smiles": "NC1=NC2=C(S1)C=C1OCCCOC1=C2", 
	 "Tm": 492.15, 
	 "num_atms": 25, 
	 "gaussian": { 
		 "optdone": 1, 
		 "sigma_profile": "yes", 
		 "theory": "DFT", 
		 "functional": "B3LYP", 
		 "basiset": "6-31G**", 
		 "properties": { 
			 "R2extent": 4833.7297, 
			 "electric_dipole_moment_norm": 1.08179052963, 
			 "electric_quadrupole_moment_norm": 22.8322188298, 
			 "total_energy": -1045.21590546, 
			 "HOMO_LUMO_gap": 0.18652, 
			 "cosmo_polarized_energy": -13.66, 
			 "cosmo_cavitation_energy": 29.5, 
			 "cosmo_dispersion_energy": -23.19, 
			 "cosmo_repulsion_energy": 1.76, 
			 "cosmo_total_nonelectrostatic_energy": 8.06, 
			 "SMD_solvation_energy": 2.77 
		},
		"coords": [
			{
				"x": 3.4216645061,
				"y": -3.7386269082,
				"z": 0.9225859849,
				"element": "N" 
			},
			{
				"x": 2.3202845843,
				"y": -2.9704024578,
				"z": 0.6351453279,
				"element": "C" 
			},
			{
				"x": 1.9348371887,
				"y": -2.6709161285,
				"z": -0.5629865027,
				"element": "N" 
			},
			{
				"x": 0.7508111354,
				"y": -1.9459268596,
				"z": -0.5309352523,
				"element": "C" 
			},
			{
				"x": 0.2245990949,
				"y": -1.6792371325,
				"z": 0.7552468314,
				"element": "C" 
			},
			{
				"x": 1.2740286819,
				"y": -2.4015657482,
				"z": 1.9740755352,
				"element": "S" 
			},
			{
				"x": -0.9376851107,
				"y": -0.9359808747,
				"z": 0.926347084,
				"element": "C" 
			},
			{
				"x": -1.6131818908,
				"y": -0.4627159848,
				"z": -0.2009412053,
				"element": "C" 
			},
			{
				"x": -2.7646346431,
				"y": 0.2584980771,
				"z": 0.0325452626,
				"element": "O" 
			},
			{
				"x": -3.0026189959,
				"y": 1.375273307,
				"z": -0.8349310458,
				"element": "C" 
			},
			{
				"x": -3.7529080547,
				"y": 0.9539242272,
				"z": -2.1002300812,
				"element": "C" 
			},
			{
				"x": -3.1691354566,
				"y": -0.3453343083,
				"z": -2.6589364007,
				"element": "C" 
			},
			{
				"x": -1.7356671053,
				"y": -0.3257039817,
				"z": -2.6533608739,
				"element": "O" 
			},
			{
				"x": -1.1194554604,
				"y": -0.7535061199,
				"z": -1.4975152887,
				"element": "C" 
			},
			{
				"x": 0.0592775615,
				"y": -1.4811666461,
				"z": -1.6529222616,
				"element": "C" 
			},
			{
				"x": 3.8873027405,
				"y": -3.5681144576,
				"z": 1.8021510914,
				"element": "H" 
			},
			{
				"x": 4.0453902939,
				"y": -3.8531506591,
				"z": 0.1344005545,
				"element": "H" 
			},
			{
				"x": -1.3415258806,
				"y": -0.6977585869,
				"z": 1.9040820489,
				"element": "H" 
			},
			{
				"x": -2.0479152438,
				"y": 1.8475204431,
				"z": -1.0930438842,
				"element": "H" 
			},
			{
				"x": -3.5884084725,
				"y": 2.0896695544,
				"z": -0.2491335848,
				"element": "H" 
			},
			{
				"x": -4.8173922568,
				"y": 0.7983006906,
				"z": -1.8878827811,
				"element": "H" 
			},
			{
				"x": -3.680383929,
				"y": 1.7619519396,
				"z": -2.8379366949,
				"element": "H" 
			},
			{
				"x": -3.5257797684,
				"y": -1.2062242556,
				"z": -2.0821567363,
				"element": "H" 
			},
			{
				"x": -3.4617541708,
				"y": -0.4908839759,
				"z": -3.7028364653,
				"element": "H" 
			},
			{
				"x": 0.4226506523,
				"y": -1.6915231536,
				"z": -2.6522306618,
				"element": "H" 
			}
		],
		 "valence_orbital": [ 
			{
				"type": "occ",
				"energy": -0.282,
				"method": "rhf"
			},
			{
				"type": "occ",
				"energy": -0.2708,
				"method": "rhf"
			},
			{
				"type": "occ",
				"energy": -0.25995,
				"method": "rhf"
			},
			{
				"type": "occ",
				"energy": -0.21589,
				"method": "rhf"
			},
			{
				"type": "occ",
				"energy": -0.19319,
				"method": "rhf"
			},
			{
				"type": "unocc",
				"energy": -0.00667,
				"method": "rhf"
			},
			{
				"type": "unocc",
				"energy": 0.00613,
				"method": "rhf"
			},
			{
				"type": "unocc",
				"energy": 0.0082,
				"method": "rhf"
			},
			{
				"type": "unocc",
				"energy": 0.05495,
				"method": "rhf"
			},
			{
				"type": "unocc",
				"energy": 0.07116,
				"method": "rhf"
			}
		],
		"cosmo_sigma_profile": { 
			"-0.025": 0.0,
			"-0.024": 0.0,
			"-0.023": 0.0,
			"-0.022": 0.0,
			"-0.021": 0.0,
			"-0.02": 0.0,
			"-0.019": 0.0,
			"-0.018": 0.0,
			"-0.017": 0.0,
			"-0.016": 0.0,
			"-0.015": 0.699353293782,
			"-0.014": 2.54777627319,
			"-0.013": 2.06925600832,
			"-0.012": 3.11203982476,
			"-0.011": 2.76266461029,
			"-0.01": 2.46377107368,
			"-0.009": 1.07114059978,
			"-0.008": 2.38740327725,
			"-0.007": 3.49606782291,
			"-0.006": 6.84238840016,
			"-0.005": 13.8008173027,
			"-0.004": 23.5968180317,
			"-0.003": 21.4218059407,
			"-0.002": 13.5595828371,
			"-0.001": 12.5244545766,
			"0.0": 11.4910337452,
			"0.001": 13.7090382417,
			"0.002": 15.2633096526,
			"0.003": 19.554816568,
			"0.004": 22.7854072271,
			"0.005": 10.0962776138,
			"0.006": 6.52692738283,
			"0.007": 4.99488194417,
			"0.008": 3.932681352,
			"0.009": 3.88380103077,
			"0.01": 3.99408604016,
			"0.011": 3.93334644096,
			"0.012": 1.48522725086,
			"0.013": 0.36565897947,
			"0.014": 1.47329268888,
			"0.015": 0.639135406831,
			"0.016": 0.0280728038463,
			"0.017": 0.0,
			"0.018": 0.0,
			"0.019": 0.0,
			"0.02": 0.0,
			"0.021": 0.0,
			"0.022": 0.0,
			"0.023": 0.0,
			"0.024": 0.0,
			"0.025": 0.0
		}
	}
}
