{
	 "smiles": "CC1=C2C=C(C=NC2=NN1)C(O)=O", 
	 "Tm": 611.15, 
	 "num_atms": 20, 
	 "gaussian": { 
		 "optdone": 1, 
		 "sigma_profile": "yes", 
		 "theory": "DFT", 
		 "functional": "B3LYP", 
		 "basiset": "6-31G**", 
		 "properties": { 
			 "R2extent": 3043.7561, 
			 "electric_dipole_moment_norm": 8.46767233483, 
			 "electric_quadrupole_moment_norm": 9.80643760751, 
			 "total_energy": -623.757826379, 
			 "HOMO_LUMO_gap": 0.16357, 
			 "cosmo_polarized_energy": -27.6, 
			 "cosmo_cavitation_energy": 25.17, 
			 "cosmo_dispersion_energy": -18.72, 
			 "cosmo_repulsion_energy": 1.47, 
			 "cosmo_total_nonelectrostatic_energy": 7.92, 
			 "SMD_solvation_energy": 2.71 
		},
		"coords": [
			{
				"x": -2.0302967492,
				"y": 1.4993800098,
				"z": -0.2714866572,
				"element": "C" 
			},
			{
				"x": -0.6894951326,
				"y": 1.4104271654,
				"z": 0.380717241,
				"element": "C" 
			},
			{
				"x": 0.4455256779,
				"y": 0.6280207371,
				"z": 0.120644084,
				"element": "C" 
			},
			{
				"x": 0.8113947029,
				"y": -0.3617542577,
				"z": -0.8119024622,
				"element": "C" 
			},
			{
				"x": 2.0832868933,
				"y": -0.8935580115,
				"z": -0.6992296486,
				"element": "C" 
			},
			{
				"x": 2.9478314125,
				"y": -0.4382377083,
				"z": 0.3578119796,
				"element": "C" 
			},
			{
				"x": 2.6500360568,
				"y": 0.4875935559,
				"z": 1.2393214793,
				"element": "N" 
			},
			{
				"x": 1.4053036991,
				"y": 1.0209214396,
				"z": 1.1213626389,
				"element": "C" 
			},
			{
				"x": 0.9134121444,
				"y": 1.9709033523,
				"z": 1.9338034216,
				"element": "N" 
			},
			{
				"x": -0.3312676109,
				"y": 2.1625177005,
				"z": 1.4477736471,
				"element": "N" 
			},
			{
				"x": 2.6039328897,
				"y": -1.975756798,
				"z": -1.5866952606,
				"element": "C" 
			},
			{
				"x": 2.0093342106,
				"y": -2.107340023,
				"z": -2.8066847986,
				"element": "O" 
			},
			{
				"x": 3.5014798232,
				"y": -2.7207359961,
				"z": -1.2706170082,
				"element": "O" 
			},
			{
				"x": -2.5631960845,
				"y": 0.5437015028,
				"z": -0.2185487511,
				"element": "H" 
			},
			{
				"x": -2.6556866625,
				"y": 2.2553335667,
				"z": 0.2127575561,
				"element": "H" 
			},
			{
				"x": -1.9418624925,
				"y": 1.7702428597,
				"z": -1.3291602937,
				"element": "H" 
			},
			{
				"x": 0.1047249954,
				"y": -0.7137783872,
				"z": -1.560770155,
				"element": "H" 
			},
			{
				"x": 3.9300887524,
				"y": -0.899492692,
				"z": 0.4284205616,
				"element": "H" 
			},
			{
				"x": -0.9150704049,
				"y": 2.8495533312,
				"z": 1.9053213392,
				"element": "H" 
			},
			{
				"x": 1.4622238789,
				"y": -1.3324413471,
				"z": -2.9938389133,
				"element": "H" 
			}
		],
		 "valence_orbital": [ 
			{
				"type": "occ",
				"energy": -0.31312,
				"method": "rhf"
			},
			{
				"type": "occ",
				"energy": -0.28156,
				"method": "rhf"
			},
			{
				"type": "occ",
				"energy": -0.26765,
				"method": "rhf"
			},
			{
				"type": "occ",
				"energy": -0.25941,
				"method": "rhf"
			},
			{
				"type": "occ",
				"energy": -0.2375,
				"method": "rhf"
			},
			{
				"type": "unocc",
				"energy": -0.07393,
				"method": "rhf"
			},
			{
				"type": "unocc",
				"energy": -0.02468,
				"method": "rhf"
			},
			{
				"type": "unocc",
				"energy": 0.01927,
				"method": "rhf"
			},
			{
				"type": "unocc",
				"energy": 0.05112,
				"method": "rhf"
			},
			{
				"type": "unocc",
				"energy": 0.05408,
				"method": "rhf"
			}
		],
		"cosmo_sigma_profile": { 
			"-0.025": 0.0,
			"-0.024": 0.0,
			"-0.023": 0.0,
			"-0.022": 0.0,
			"-0.021": 0.0,
			"-0.02": 0.0,
			"-0.019": 0.523991340732,
			"-0.018": 1.31044242041,
			"-0.017": 2.62495491059,
			"-0.016": 2.06571639807,
			"-0.015": 2.45689583668,
			"-0.014": 2.62802347555,
			"-0.013": 2.39144938301,
			"-0.012": 2.6038557087,
			"-0.011": 1.73891498794,
			"-0.01": 2.55284497966,
			"-0.009": 3.03038925105,
			"-0.008": 3.10011277513,
			"-0.007": 4.05485318795,
			"-0.006": 11.0192058051,
			"-0.005": 11.5508930969,
			"-0.004": 11.6942529002,
			"-0.003": 12.3846765194,
			"-0.002": 14.2561501265,
			"-0.001": 10.1141230585,
			"0.0": 17.0829352191,
			"0.001": 11.1967778348,
			"0.002": 5.62057210033,
			"0.003": 5.1347440635,
			"0.004": 4.06552195199,
			"0.005": 4.57717736785,
			"0.006": 4.86723963666,
			"0.007": 4.02001028002,
			"0.008": 4.53189679985,
			"0.009": 5.58134236607,
			"0.01": 7.70791928552,
			"0.011": 7.68531052967,
			"0.012": 7.64323170591,
			"0.013": 4.39506422797,
			"0.014": 2.45522558779,
			"0.015": 2.29035956393,
			"0.016": 0.868870165857,
			"0.017": 0.0,
			"0.018": 0.0,
			"0.019": 0.0,
			"0.02": 0.0,
			"0.021": 0.0,
			"0.022": 0.0,
			"0.023": 0.0,
			"0.024": 0.0,
			"0.025": 0.0
		}
	}
}
