{
	 "smiles": "CC(C)(C)C1=CC=C(CCC(O)=O)C=C1", 
	 "Tm": 379.15, 
	 "num_atms": 33, 
	 "gaussian": { 
		 "optdone": 1, 
		 "sigma_profile": "yes", 
		 "theory": "DFT", 
		 "functional": "B3LYP", 
		 "basiset": "6-31G**", 
		 "properties": { 
			 "R2extent": 5992.7094, 
			 "electric_dipole_moment_norm": 4.40907339131, 
			 "electric_quadrupole_moment_norm": 24.3665302684, 
			 "total_energy": -656.709640038, 
			 "HOMO_LUMO_gap": 0.23087, 
			 "cosmo_polarized_energy": -15.26, 
			 "cosmo_cavitation_energy": 35.23, 
			 "cosmo_dispersion_energy": -24.57, 
			 "cosmo_repulsion_energy": 1.94, 
			 "cosmo_total_nonelectrostatic_energy": 12.59, 
			 "SMD_solvation_energy": 7.03 
		},
		"coords": [
			{
				"x": -2.6269029721,
				"y": 1.8471235225,
				"z": -0.622514364,
				"element": "C" 
			},
			{
				"x": -1.7623814985,
				"y": 0.9182891846,
				"z": -1.4959688473,
				"element": "C" 
			},
			{
				"x": -2.7015977906,
				"y": -0.0807700458,
				"z": -2.2130457482,
				"element": "C" 
			},
			{
				"x": -1.0378278149,
				"y": 1.7869191171,
				"z": -2.5518616918,
				"element": "C" 
			},
			{
				"x": -0.7210746961,
				"y": 0.1410093218,
				"z": -0.6700819148,
				"element": "C" 
			},
			{
				"x": 0.1568639252,
				"y": -0.7532127412,
				"z": -1.3070360947,
				"element": "C" 
			},
			{
				"x": 1.1087729941,
				"y": -1.476647362,
				"z": -0.5934952013,
				"element": "C" 
			},
			{
				"x": 1.2305246284,
				"y": -1.3405229413,
				"z": 0.7961628914,
				"element": "C" 
			},
			{
				"x": 2.2887722543,
				"y": -2.0983634012,
				"z": 1.567453264,
				"element": "C" 
			},
			{
				"x": 3.6191956972,
				"y": -1.3319417813,
				"z": 1.6390368475,
				"element": "C" 
			},
			{
				"x": 4.696573851,
				"y": -2.0847939477,
				"z": 2.4089797379,
				"element": "C" 
			},
			{
				"x": 5.8962961798,
				"y": -1.4456385474,
				"z": 2.5041593511,
				"element": "O" 
			},
			{
				"x": 4.5500809729,
				"y": -3.1682704182,
				"z": 2.9156472242,
				"element": "O" 
			},
			{
				"x": 0.358767646,
				"y": -0.4551419226,
				"z": 1.4363956634,
				"element": "C" 
			},
			{
				"x": -0.5960987843,
				"y": 0.2702481578,
				"z": 0.7195018746,
				"element": "C" 
			},
			{
				"x": -3.3478997203,
				"y": 2.3791039456,
				"z": -1.251665217,
				"element": "H" 
			},
			{
				"x": -3.1947354223,
				"y": 1.288600573,
				"z": 0.1288550157,
				"element": "H" 
			},
			{
				"x": -2.0226054546,
				"y": 2.5997428081,
				"z": -0.1052682558,
				"element": "H" 
			},
			{
				"x": -3.2342958308,
				"y": -0.7058734683,
				"z": -1.4889423501,
				"element": "H" 
			},
			{
				"x": -2.1518956972,
				"y": -0.7454025912,
				"z": -2.8861219954,
				"element": "H" 
			},
			{
				"x": -3.446162039,
				"y": 0.4570556229,
				"z": -2.8109792767,
				"element": "H" 
			},
			{
				"x": -0.3718025597,
				"y": 2.5118873361,
				"z": -2.0723024545,
				"element": "H" 
			},
			{
				"x": -0.4347653931,
				"y": 1.1803265602,
				"z": -3.2340289027,
				"element": "H" 
			},
			{
				"x": -1.7658067396,
				"y": 2.3414131305,
				"z": -3.1549047354,
				"element": "H" 
			},
			{
				"x": 0.0958505386,
				"y": -0.895901584,
				"z": -2.3822189502,
				"element": "H" 
			},
			{
				"x": 1.7632405875,
				"y": -2.1654198243,
				"z": -1.1236894306,
				"element": "H" 
			},
			{
				"x": 2.4736675126,
				"y": -3.0744255911,
				"z": 1.1079152176,
				"element": "H" 
			},
			{
				"x": 1.9481117437,
				"y": -2.3013639828,
				"z": 2.5875056327,
				"element": "H" 
			},
			{
				"x": 3.4693845617,
				"y": -0.3518949424,
				"z": 2.1128348472,
				"element": "H" 
			},
			{
				"x": 3.9936312333,
				"y": -1.1221906382,
				"z": 0.6274605516,
				"element": "H" 
			},
			{
				"x": 5.8563203151,
				"y": -0.5918118687,
				"z": 2.0501680413,
				"element": "H" 
			},
			{
				"x": 0.4176002223,
				"y": -0.3324369816,
				"z": 2.5158753328,
				"element": "H" 
			},
			{
				"x": -1.2507024503,
				"y": 0.939305301,
				"z": 1.2664739375,
				"element": "H" 
			}
		],
		 "valence_orbital": [ 
			{
				"type": "occ",
				"energy": -0.31603,
				"method": "rhf"
			},
			{
				"type": "occ",
				"energy": -0.31504,
				"method": "rhf"
			},
			{
				"type": "occ",
				"energy": -0.27271,
				"method": "rhf"
			},
			{
				"type": "occ",
				"energy": -0.24937,
				"method": "rhf"
			},
			{
				"type": "occ",
				"energy": -0.23522,
				"method": "rhf"
			},
			{
				"type": "unocc",
				"energy": -0.00435,
				"method": "rhf"
			},
			{
				"type": "unocc",
				"energy": -0.00083,
				"method": "rhf"
			},
			{
				"type": "unocc",
				"energy": 0.01255,
				"method": "rhf"
			},
			{
				"type": "unocc",
				"energy": 0.05549,
				"method": "rhf"
			},
			{
				"type": "unocc",
				"energy": 0.07893,
				"method": "rhf"
			}
		],
		"cosmo_sigma_profile": { 
			"-0.025": 0.0,
			"-0.024": 0.0,
			"-0.023": 0.0,
			"-0.022": 0.0,
			"-0.021": 0.0,
			"-0.02": 0.0,
			"-0.019": 0.551453677551,
			"-0.018": 0.992602382029,
			"-0.017": 1.35862442569,
			"-0.016": 0.809864916187,
			"-0.015": 1.11216155713,
			"-0.014": 0.690940263135,
			"-0.013": 0.97387446096,
			"-0.012": 1.37868097744,
			"-0.011": 1.52209008421,
			"-0.01": 1.16332390785,
			"-0.009": 1.32901012835,
			"-0.008": 1.79149519277,
			"-0.007": 3.53106764205,
			"-0.006": 3.68837242317,
			"-0.005": 10.3649995108,
			"-0.004": 21.6268927886,
			"-0.003": 26.7251150093,
			"-0.002": 33.4288836631,
			"-0.001": 24.9699447442,
			"0.0": 23.5504726671,
			"0.001": 28.2330774999,
			"0.002": 18.2321649501,
			"0.003": 8.9864188468,
			"0.004": 9.15939730385,
			"0.005": 8.93588438306,
			"0.006": 9.50210802141,
			"0.007": 6.38891091957,
			"0.008": 2.66253138723,
			"0.009": 3.43180707502,
			"0.01": 4.03517363382,
			"0.011": 6.06981726113,
			"0.012": 5.49281098548,
			"0.013": 2.17839585312,
			"0.014": 0.0941599259882,
			"0.015": 0.0,
			"0.016": 0.0,
			"0.017": 0.0,
			"0.018": 0.0,
			"0.019": 0.0,
			"0.02": 0.0,
			"0.021": 0.0,
			"0.022": 0.0,
			"0.023": 0.0,
			"0.024": 0.0,
			"0.025": 0.0
		}
	}
}
