{
	 "smiles": "O1C(=NN=C1C1=CC=C(C=C1)C1=CC=CC=C1)C1=CC=C(C=C1)C1=CC=CC=C1", 
	 "Tm": 510.15, 
	 "num_atms": 47, 
	 "gaussian": { 
		 "optdone": 1, 
		 "sigma_profile": "yes", 
		 "theory": "DFT", 
		 "functional": "B3LYP", 
		 "basiset": "6-31G**", 
		 "properties": { 
			 "R2extent": 25720.8639, 
			 "electric_dipole_moment_norm": 3.65536399692, 
			 "electric_quadrupole_moment_norm": 25.8340629224, 
			 "total_energy": -1186.3467698, 
			 "HOMO_LUMO_gap": 0.14822, 
			 "cosmo_polarized_energy": -14.37, 
			 "cosmo_cavitation_energy": 52.78, 
			 "cosmo_dispersion_energy": -38.21, 
			 "cosmo_repulsion_energy": 2.77, 
			 "cosmo_total_nonelectrostatic_energy": 17.35, 
			 "SMD_solvation_energy": 6.67 
		},
		"coords": [
			{
				"x": 0.3144698515,
				"y": 0.6284171085,
				"z": 1.0013301092,
				"element": "O" 
			},
			{
				"x": 0.1941498132,
				"y": 1.955984459,
				"z": 1.3074423789,
				"element": "C" 
			},
			{
				"x": 1.0537692338,
				"y": 2.6831727853,
				"z": 0.6505525627,
				"element": "N" 
			},
			{
				"x": 1.7921085732,
				"y": 1.8159378526,
				"z": -0.1379676232,
				"element": "N" 
			},
			{
				"x": 1.3346406285,
				"y": 0.6168530722,
				"z": 0.0904366937,
				"element": "C" 
			},
			{
				"x": 1.7714568488,
				"y": -0.6453027235,
				"z": -0.4869947535,
				"element": "C" 
			},
			{
				"x": 2.8243398931,
				"y": -0.6492075659,
				"z": -1.4174341611,
				"element": "C" 
			},
			{
				"x": 3.255480631,
				"y": -1.8435310575,
				"z": -1.9786805573,
				"element": "C" 
			},
			{
				"x": 2.6563409743,
				"y": -3.0707544467,
				"z": -1.6366762106,
				"element": "C" 
			},
			{
				"x": 1.6037023127,
				"y": -3.0517373099,
				"z": -0.7049789819,
				"element": "C" 
			},
			{
				"x": 1.1652034633,
				"y": -1.8611220012,
				"z": -0.1359540301,
				"element": "C" 
			},
			{
				"x": 3.1208585379,
				"y": -4.3438036377,
				"z": -2.240764544,
				"element": "C" 
			},
			{
				"x": 3.1669315494,
				"y": -5.5277104493,
				"z": -1.4841652876,
				"element": "C" 
			},
			{
				"x": 3.6031985217,
				"y": -6.7236043494,
				"z": -2.052074153,
				"element": "C" 
			},
			{
				"x": 4.0029342658,
				"y": -6.7625377821,
				"z": -3.3893018247,
				"element": "C" 
			},
			{
				"x": 3.962717993,
				"y": -5.5946135081,
				"z": -4.1533749116,
				"element": "C" 
			},
			{
				"x": 3.5268311195,
				"y": -4.3985434799,
				"z": -3.5855269534,
				"element": "C" 
			},
			{
				"x": -0.8110269349,
				"y": 2.3863705261,
				"z": 2.2674746936,
				"element": "C" 
			},
			{
				"x": -0.9312936945,
				"y": 3.7525805386,
				"z": 2.5729355532,
				"element": "C" 
			},
			{
				"x": -1.8844277836,
				"y": 4.1823899815,
				"z": 3.4862266922,
				"element": "C" 
			},
			{
				"x": -2.7471456058,
				"y": 3.2722378811,
				"z": 4.1260295911,
				"element": "C" 
			},
			{
				"x": -2.615242984,
				"y": 1.9084547207,
				"z": 3.8111619795,
				"element": "C" 
			},
			{
				"x": -1.6647404229,
				"y": 1.467676163,
				"z": 2.8968938288,
				"element": "C" 
			},
			{
				"x": -3.7630669293,
				"y": 3.7375327988,
				"z": 5.1021160904,
				"element": "C" 
			},
			{
				"x": -5.0317335453,
				"y": 3.1354101764,
				"z": 5.1664186813,
				"element": "C" 
			},
			{
				"x": -5.9858598748,
				"y": 3.5725621154,
				"z": 6.0837798643,
				"element": "C" 
			},
			{
				"x": -5.6926896352,
				"y": 4.62139028,
				"z": 6.9575704812,
				"element": "C" 
			},
			{
				"x": -4.4368244769,
				"y": 5.2293019944,
				"z": 6.905431113,
				"element": "C" 
			},
			{
				"x": -3.4827115599,
				"y": 4.7925556595,
				"z": 5.9878441838,
				"element": "C" 
			},
			{
				"x": 3.2978190413,
				"y": 0.2906491744,
				"z": -1.6803489677,
				"element": "H" 
			},
			{
				"x": 4.0880508938,
				"y": -1.8321989927,
				"z": -2.6751578695,
				"element": "H" 
			},
			{
				"x": 1.1054451541,
				"y": -3.9800136558,
				"z": -0.4433001335,
				"element": "H" 
			},
			{
				"x": 0.3452635543,
				"y": -1.8686454861,
				"z": 0.5743091645,
				"element": "H" 
			},
			{
				"x": 2.8848903432,
				"y": -5.5029952528,
				"z": -0.4357280654,
				"element": "H" 
			},
			{
				"x": 3.6394518238,
				"y": -7.6245603126,
				"z": -1.4462080443,
				"element": "H" 
			},
			{
				"x": 4.3429415828,
				"y": -7.6942955905,
				"z": -3.8317462971,
				"element": "H" 
			},
			{
				"x": 4.2633975059,
				"y": -5.6157521875,
				"z": -5.1970261881,
				"element": "H" 
			},
			{
				"x": 3.4741680852,
				"y": -3.5023113052,
				"z": -4.1965015035,
				"element": "H" 
			},
			{
				"x": -0.2766483876,
				"y": 4.4620711406,
				"z": 2.0782657199,
				"element": "H" 
			},
			{
				"x": -1.982427772,
				"y": 5.2439996603,
				"z": 3.6906264625,
				"element": "H" 
			},
			{
				"x": -3.2490076955,
				"y": 1.1816773585,
				"z": 4.3097232108,
				"element": "H" 
			},
			{
				"x": -1.5743043874,
				"y": 0.4095403619,
				"z": 2.6755313663,
				"element": "H" 
			},
			{
				"x": -5.280152594,
				"y": 2.3374848729,
				"z": 4.472875742,
				"element": "H" 
			},
			{
				"x": -6.9631371957,
				"y": 3.0988923222,
				"z": 6.109737145,
				"element": "H" 
			},
			{
				"x": -6.4361244998,
				"y": 4.9620589931,
				"z": 7.6722616803,
				"element": "H" 
			},
			{
				"x": -4.1954984068,
				"y": 6.0404209602,
				"z": 7.5865413225,
				"element": "H" 
			},
			{
				"x": -2.5000978092,
				"y": 5.2547181372,
				"z": 5.9743947506,
				"element": "H" 
			}
		],
		 "valence_orbital": [ 
			{
				"type": "occ",
				"energy": -0.26004,
				"method": "rhf"
			},
			{
				"type": "occ",
				"energy": -0.25586,
				"method": "rhf"
			},
			{
				"type": "occ",
				"energy": -0.25585,
				"method": "rhf"
			},
			{
				"type": "occ",
				"energy": -0.23584,
				"method": "rhf"
			},
			{
				"type": "occ",
				"energy": -0.21413,
				"method": "rhf"
			},
			{
				"type": "unocc",
				"energy": -0.06591,
				"method": "rhf"
			},
			{
				"type": "unocc",
				"energy": -0.04371,
				"method": "rhf"
			},
			{
				"type": "unocc",
				"energy": -0.01311,
				"method": "rhf"
			},
			{
				"type": "unocc",
				"energy": -0.01298,
				"method": "rhf"
			},
			{
				"type": "unocc",
				"energy": -0.00635,
				"method": "rhf"
			}
		],
		"cosmo_sigma_profile": { 
			"-0.025": 0.0,
			"-0.024": 0.0,
			"-0.023": 0.0,
			"-0.022": 0.0,
			"-0.021": 0.0,
			"-0.02": 0.0,
			"-0.019": 0.0,
			"-0.018": 0.0,
			"-0.017": 0.0,
			"-0.016": 0.0,
			"-0.015": 0.0,
			"-0.014": 0.0,
			"-0.013": 0.0,
			"-0.012": 0.0,
			"-0.011": 0.0,
			"-0.01": 0.0,
			"-0.009": 0.0,
			"-0.008": 0.0,
			"-0.007": 2.41849353477,
			"-0.006": 28.8545933785,
			"-0.005": 38.2228712017,
			"-0.004": 37.4292492072,
			"-0.003": 32.6463771934,
			"-0.002": 31.0406269546,
			"-0.001": 31.1238077663,
			"0.0": 28.2756974212,
			"0.001": 36.6236142382,
			"0.002": 38.3044851511,
			"0.003": 43.3488626499,
			"0.004": 28.5751644469,
			"0.005": 22.3070974527,
			"0.006": 7.8132161205,
			"0.007": 1.63781661752,
			"0.008": 2.37348663383,
			"0.009": 2.14339541668,
			"0.01": 2.0941666741,
			"0.011": 3.57760244723,
			"0.012": 3.01102222421,
			"0.013": 2.43439779351,
			"0.014": 1.5960163518,
			"0.015": 0.258696825046,
			"0.016": 0.0,
			"0.017": 0.0,
			"0.018": 0.0,
			"0.019": 0.0,
			"0.02": 0.0,
			"0.021": 0.0,
			"0.022": 0.0,
			"0.023": 0.0,
			"0.024": 0.0,
			"0.025": 0.0
		}
	}
}
