{
	 "smiles": "COC1=C(OC)C=C(OC2=C(OC)C=C3C(CC4N(C)CCC5=CC(OC)=C(OC)C3=C45)=C2)C(CC2N(C)CCC3=CC(OC)=C(OC)C=C23)=C1", 
	 "Tm": 433.15, 
	 "num_atms": 99, 
	 "gaussian": { 
		 "optdone": 1, 
		 "sigma_profile": "yes", 
		 "theory": "DFT", 
		 "functional": "B3LYP", 
		 "basiset": "6-31G**", 
		 "properties": { 
			 "R2extent": 38534.3877, 
			 "electric_dipole_moment_norm": 2.11476917889, 
			 "electric_quadrupole_moment_norm": 19.3789969893, 
			 "total_energy": -2302.46020553, 
			 "HOMO_LUMO_gap": 0.16558, 
			 "cosmo_polarized_energy": -24.56, 
			 "cosmo_cavitation_energy": 94.59, 
			 "cosmo_dispersion_energy": -58.68, 
			 "cosmo_repulsion_energy": 4.36, 
			 "cosmo_total_nonelectrostatic_energy": 40.27, 
			 "SMD_solvation_energy": 14.6 
		},
		"coords": [
			{
				"x": -5.6691453472,
				"y": 3.3432025706,
				"z": 0.7771770581,
				"element": "C" 
			},
			{
				"x": -5.4273865989,
				"y": 3.1921012564,
				"z": -0.6256447123,
				"element": "O" 
			},
			{
				"x": -4.1086194894,
				"y": 2.9763997879,
				"z": -0.9653778393,
				"element": "C" 
			},
			{
				"x": -3.145428601,
				"y": 3.9929394814,
				"z": -0.8510473268,
				"element": "C" 
			},
			{
				"x": -3.452993202,
				"y": 5.23336008,
				"z": -0.3386309069,
				"element": "O" 
			},
			{
				"x": -4.2963851269,
				"y": 6.0352334508,
				"z": -1.1752607426,
				"element": "C" 
			},
			{
				"x": -1.8301297272,
				"y": 3.7246937207,
				"z": -1.2308003119,
				"element": "C" 
			},
			{
				"x": -1.4867448015,
				"y": 2.4699102896,
				"z": -1.728398786,
				"element": "C" 
			},
			{
				"x": -0.1896411395,
				"y": 2.2737873293,
				"z": -2.1851775804,
				"element": "O" 
			},
			{
				"x": 0.745841546,
				"y": 1.7175275541,
				"z": -1.3445314614,
				"element": "C" 
			},
			{
				"x": 1.9826475665,
				"y": 1.3756228418,
				"z": -1.9310732417,
				"element": "C" 
			},
			{
				"x": 2.0906178741,
				"y": 1.624203725,
				"z": -3.2692550296,
				"element": "O" 
			},
			{
				"x": 3.3018154053,
				"y": 1.2747322992,
				"z": -3.9145459419,
				"element": "C" 
			},
			{
				"x": 2.9847920276,
				"y": 0.8251122928,
				"z": -1.1391348877,
				"element": "C" 
			},
			{
				"x": 2.803236427,
				"y": 0.588833513,
				"z": 0.2409478697,
				"element": "C" 
			},
			{
				"x": 1.5661620504,
				"y": 0.9469525782,
				"z": 0.8093459645,
				"element": "C" 
			},
			{
				"x": 1.3315980987,
				"y": 0.720975094,
				"z": 2.2812890909,
				"element": "C" 
			},
			{
				"x": 2.5951530841,
				"y": 1.085494331,
				"z": 3.0593095696,
				"element": "C" 
			},
			{
				"x": 2.4090533026,
				"y": 1.0149374776,
				"z": 4.5157830574,
				"element": "N" 
			},
			{
				"x": 1.7443755388,
				"y": -0.186881199,
				"z": 5.0157261606,
				"element": "C" 
			},
			{
				"x": 3.6890690745,
				"y": 1.2606029551,
				"z": 5.1800878009,
				"element": "C" 
			},
			{
				"x": 4.7285572738,
				"y": 0.1696233966,
				"z": 4.8819050654,
				"element": "C" 
			},
			{
				"x": 4.7702337107,
				"y": -0.1776386868,
				"z": 3.4044691596,
				"element": "C" 
			},
			{
				"x": 5.8141925564,
				"y": -0.9681656733,
				"z": 2.9142212826,
				"element": "C" 
			},
			{
				"x": 5.8869692642,
				"y": -1.2819719393,
				"z": 1.5658296293,
				"element": "C" 
			},
			{
				"x": 6.9281150792,
				"y": -2.0773152473,
				"z": 1.1269794943,
				"element": "O" 
			},
			{
				"x": 6.5386347152,
				"y": -3.3998102288,
				"z": 0.7412252955,
				"element": "C" 
			},
			{
				"x": 4.9441913165,
				"y": -0.7603801865,
				"z": 0.6584586904,
				"element": "C" 
			},
			{
				"x": 5.0681009067,
				"y": -1.0812235148,
				"z": -0.6801845845,
				"element": "O" 
			},
			{
				"x": 6.2335653752,
				"y": -0.5548653247,
				"z": -1.330615454,
				"element": "C" 
			},
			{
				"x": 3.860201402,
				"y": 0.0161671081,
				"z": 1.1250582261,
				"element": "C" 
			},
			{
				"x": 3.7732610123,
				"y": 0.2628811419,
				"z": 2.5247088433,
				"element": "C" 
			},
			{
				"x": 0.556567868,
				"y": 1.501338279,
				"z": 0.0144357523,
				"element": "C" 
			},
			{
				"x": -2.4336427255,
				"y": 1.4419547944,
				"z": -1.8830547252,
				"element": "C" 
			},
			{
				"x": -1.9954866757,
				"y": 0.1242356145,
				"z": -2.498365653,
				"element": "C" 
			},
			{
				"x": -3.0953661646,
				"y": -0.8869784435,
				"z": -2.8976670002,
				"element": "C" 
			},
			{
				"x": -2.6278933851,
				"y": -1.6336667781,
				"z": -4.0987508679,
				"element": "N" 
			},
			{
				"x": -2.970810629,
				"y": -0.9148349312,
				"z": -5.3205059847,
				"element": "C" 
			},
			{
				"x": -2.9898119904,
				"y": -3.0541233315,
				"z": -4.1606594018,
				"element": "C" 
			},
			{
				"x": -4.3671892357,
				"y": -3.3509506735,
				"z": -3.5422095277,
				"element": "C" 
			},
			{
				"x": -4.2852486459,
				"y": -2.9601322739,
				"z": -2.089536112,
				"element": "C" 
			},
			{
				"x": -4.7870944991,
				"y": -3.7651694775,
				"z": -1.0628154154,
				"element": "C" 
			},
			{
				"x": -4.614033327,
				"y": -3.4335662057,
				"z": 0.2771771921,
				"element": "C" 
			},
			{
				"x": -5.1934384078,
				"y": -4.2285731249,
				"z": 1.2369587884,
				"element": "O" 
			},
			{
				"x": -4.2921697187,
				"y": -4.9327015243,
				"z": 2.0932085213,
				"element": "C" 
			},
			{
				"x": -3.8949570102,
				"y": -2.2655078035,
				"z": 0.6068928967,
				"element": "C" 
			},
			{
				"x": -3.7681565469,
				"y": -1.9885950046,
				"z": 1.9419319463,
				"element": "O" 
			},
			{
				"x": -3.0753417503,
				"y": -0.8100220893,
				"z": 2.3177158337,
				"element": "C" 
			},
			{
				"x": -3.3726740439,
				"y": -1.4698892425,
				"z": -0.4157935976,
				"element": "C" 
			},
			{
				"x": -3.5670641749,
				"y": -1.798223542,
				"z": -1.7661331724,
				"element": "C" 
			},
			{
				"x": -3.7443084193,
				"y": 1.7295231484,
				"z": -1.479371972,
				"element": "C" 
			},
			{
				"x": -5.3988671876,
				"y": 2.427225064,
				"z": 1.3186628306,
				"element": "H" 
			},
			{
				"x": -5.1106657871,
				"y": 4.1891235968,
				"z": 1.1902828511,
				"element": "H" 
			},
			{
				"x": -6.7412265852,
				"y": 3.5194593887,
				"z": 0.8866393586,
				"element": "H" 
			},
			{
				"x": -3.8041202921,
				"y": 6.2454527003,
				"z": -2.1330197102,
				"element": "H" 
			},
			{
				"x": -4.4557807846,
				"y": 6.9728016436,
				"z": -0.6387187505,
				"element": "H" 
			},
			{
				"x": -5.2571996461,
				"y": 5.54489258,
				"z": -1.3592037594,
				"element": "H" 
			},
			{
				"x": -1.0790557956,
				"y": 4.5025899285,
				"z": -1.1487496518,
				"element": "H" 
			},
			{
				"x": 3.1684543532,
				"y": 1.537535289,
				"z": -4.9653465144,
				"element": "H" 
			},
			{
				"x": 4.1557343531,
				"y": 1.8342804112,
				"z": -3.5094375129,
				"element": "H" 
			},
			{
				"x": 3.5098545576,
				"y": 0.1996831581,
				"z": -3.8336796703,
				"element": "H" 
			},
			{
				"x": 3.9191996197,
				"y": 0.5538428618,
				"z": -1.5982613509,
				"element": "H" 
			},
			{
				"x": 0.4894812048,
				"y": 1.3223114471,
				"z": 2.6395200039,
				"element": "H" 
			},
			{
				"x": 1.0808086808,
				"y": -0.3348462738,
				"z": 2.4557217203,
				"element": "H" 
			},
			{
				"x": 2.8063332516,
				"y": 2.1445026105,
				"z": 2.8363993267,
				"element": "H" 
			},
			{
				"x": 2.2194279672,
				"y": -1.1401747236,
				"z": 4.7258890481,
				"element": "H" 
			},
			{
				"x": 1.726354849,
				"y": -0.1406864249,
				"z": 6.109514829,
				"element": "H" 
			},
			{
				"x": 0.705532193,
				"y": -0.215804289,
				"z": 4.6769254168,
				"element": "H" 
			},
			{
				"x": 3.5214177071,
				"y": 1.3486224317,
				"z": 6.2597132343,
				"element": "H" 
			},
			{
				"x": 4.0626698908,
				"y": 2.2322124017,
				"z": 4.8321888088,
				"element": "H" 
			},
			{
				"x": 4.499359842,
				"y": -0.7326337926,
				"z": 5.4655703103,
				"element": "H" 
			},
			{
				"x": 5.7229576615,
				"y": 0.4944161804,
				"z": 5.2128153314,
				"element": "H" 
			},
			{
				"x": 6.5837563816,
				"y": -1.3544496288,
				"z": 3.5768971681,
				"element": "H" 
			},
			{
				"x": 5.8280429659,
				"y": -3.3796400529,
				"z": -0.0913318615,
				"element": "H" 
			},
			{
				"x": 7.4528806994,
				"y": -3.9118669575,
				"z": 0.433050718,
				"element": "H" 
			},
			{
				"x": 6.0923473376,
				"y": -3.935861343,
				"z": 1.5884454639,
				"element": "H" 
			},
			{
				"x": 6.1813297087,
				"y": -0.8959786709,
				"z": -2.3672393842,
				"element": "H" 
			},
			{
				"x": 7.1503650353,
				"y": -0.9235637576,
				"z": -0.8649842339,
				"element": "H" 
			},
			{
				"x": 6.2299279439,
				"y": 0.5428141373,
				"z": -1.309422178,
				"element": "H" 
			},
			{
				"x": -0.3876680477,
				"y": 1.7833054299,
				"z": 0.468144983,
				"element": "H" 
			},
			{
				"x": -1.2783487416,
				"y": -0.3782598215,
				"z": -1.8370501524,
				"element": "H" 
			},
			{
				"x": -1.4169657723,
				"y": 0.3580937262,
				"z": -3.3968797455,
				"element": "H" 
			},
			{
				"x": -3.9882516456,
				"y": -0.3073635786,
				"z": -3.1990955913,
				"element": "H" 
			},
			{
				"x": -2.4753665602,
				"y": -1.3816937277,
				"z": -6.1773652462,
				"element": "H" 
			},
			{
				"x": -2.6133518892,
				"y": 0.1178899662,
				"z": -5.2593461482,
				"element": "H" 
			},
			{
				"x": -4.0576470207,
				"y": -0.8749574446,
				"z": -5.5292344904,
				"element": "H" 
			},
			{
				"x": -2.2387082405,
				"y": -3.6474668611,
				"z": -3.6229815275,
				"element": "H" 
			},
			{
				"x": -2.9518854631,
				"y": -3.3649678388,
				"z": -5.2094049722,
				"element": "H" 
			},
			{
				"x": -4.6257421721,
				"y": -4.4106092985,
				"z": -3.6471809472,
				"element": "H" 
			},
			{
				"x": -5.1411798521,
				"y": -2.7788290116,
				"z": -4.0746692847,
				"element": "H" 
			},
			{
				"x": -5.3309694362,
				"y": -4.6777234442,
				"z": -1.2904256619,
				"element": "H" 
			},
			{
				"x": -3.6896481194,
				"y": -4.2469972052,
				"z": 2.6959483377,
				"element": "H" 
			},
			{
				"x": -4.9134590486,
				"y": -5.5460297137,
				"z": 2.749645731,
				"element": "H" 
			},
			{
				"x": -3.6291080861,
				"y": -5.5868787841,
				"z": 1.5114347946,
				"element": "H" 
			},
			{
				"x": -3.5563545151,
				"y": 0.0891795534,
				"z": 1.9113739586,
				"element": "H" 
			},
			{
				"x": -3.1106806245,
				"y": -0.7748554284,
				"z": 3.4079143756,
				"element": "H" 
			},
			{
				"x": -2.0274524623,
				"y": -0.8300764703,
				"z": 1.9902088645,
				"element": "H" 
			},
			{
				"x": -2.8234522267,
				"y": -0.5743485858,
				"z": -0.1593273573,
				"element": "H" 
			},
			{
				"x": -4.5257712937,
				"y": 0.9813689575,
				"z": -1.5504527144,
				"element": "H" 
			}
		],
		 "valence_orbital": [ 
			{
				"type": "occ",
				"energy": -0.21802,
				"method": "rhf"
			},
			{
				"type": "occ",
				"energy": -0.20455,
				"method": "rhf"
			},
			{
				"type": "occ",
				"energy": -0.20333,
				"method": "rhf"
			},
			{
				"type": "occ",
				"energy": -0.1966,
				"method": "rhf"
			},
			{
				"type": "occ",
				"energy": -0.19015,
				"method": "rhf"
			},
			{
				"type": "unocc",
				"energy": -0.02457,
				"method": "rhf"
			},
			{
				"type": "unocc",
				"energy": -0.00202,
				"method": "rhf"
			},
			{
				"type": "unocc",
				"energy": 0.00124,
				"method": "rhf"
			},
			{
				"type": "unocc",
				"energy": 0.00533,
				"method": "rhf"
			},
			{
				"type": "unocc",
				"energy": 0.00801,
				"method": "rhf"
			}
		],
		"cosmo_sigma_profile": { 
			"-0.025": 0.0,
			"-0.024": 0.0,
			"-0.023": 0.0,
			"-0.022": 0.0,
			"-0.021": 0.0,
			"-0.02": 0.0,
			"-0.019": 0.0,
			"-0.018": 0.0,
			"-0.017": 0.0,
			"-0.016": 0.0,
			"-0.015": 0.0,
			"-0.014": 0.0,
			"-0.013": 0.0,
			"-0.012": 0.0,
			"-0.011": 0.0,
			"-0.01": 0.0,
			"-0.009": 0.0,
			"-0.008": 0.0,
			"-0.007": 1.07193001637,
			"-0.006": 8.7412693904,
			"-0.005": 35.019422608,
			"-0.004": 76.1669628942,
			"-0.003": 114.119474829,
			"-0.002": 109.673406641,
			"-0.001": 77.301913876,
			"0.0": 65.2987523263,
			"0.001": 39.6965031207,
			"0.002": 38.1275927131,
			"0.003": 40.163031663,
			"0.004": 37.0590742314,
			"0.005": 30.8891100354,
			"0.006": 12.8945324503,
			"0.007": 10.5359377149,
			"0.008": 9.7453067719,
			"0.009": 8.16370104132,
			"0.01": 8.07774692623,
			"0.011": 9.57681343547,
			"0.012": 6.86232811258,
			"0.013": 1.76645224974,
			"0.014": 1.57003109369,
			"0.015": 0.778750563344,
			"0.016": 0.421132191591,
			"0.017": 0.176147125742,
			"0.018": 0.0,
			"0.019": 0.0,
			"0.02": 0.0,
			"0.021": 0.0,
			"0.022": 0.0,
			"0.023": 0.0,
			"0.024": 0.0,
			"0.025": 0.0
		}
	}
}
