{
	 "smiles": "O1C2=C(C=CC=C2)N=C1C1=CC=C(S1)C1=NC2=C(O1)C=CC=C2", 
	 "Tm": 492.15, 
	 "num_atms": 33, 
	 "gaussian": { 
		 "optdone": 1, 
		 "sigma_profile": "yes", 
		 "theory": "DFT", 
		 "functional": "B3LYP", 
		 "basiset": "6-31G**", 
		 "properties": { 
			 "R2extent": 13240.6574, 
			 "electric_dipole_moment_norm": 1.51779100011, 
			 "electric_quadrupole_moment_norm": 17.5784850163, 
			 "total_energy": -1350.07876096, 
			 "HOMO_LUMO_gap": 0.12773, 
			 "cosmo_polarized_energy": -9.79, 
			 "cosmo_cavitation_energy": 40.93, 
			 "cosmo_dispersion_energy": -30.97, 
			 "cosmo_repulsion_energy": 2.25, 
			 "cosmo_total_nonelectrostatic_energy": 12.21, 
			 "SMD_solvation_energy": 3.17 
		},
		"coords": [
			{
				"x": -0.2227157644,
				"y": 2.3201868111,
				"z": 2.8154287969,
				"element": "O" 
			},
			{
				"x": 0.0561034719,
				"y": 3.075537599,
				"z": 3.9283360722,
				"element": "C" 
			},
			{
				"x": 1.1547860405,
				"y": 3.8924494,
				"z": 3.6166457869,
				"element": "C" 
			},
			{
				"x": 1.6583115804,
				"y": 4.7745538145,
				"z": 4.5783045887,
				"element": "C" 
			},
			{
				"x": 1.0271929432,
				"y": 4.7943502773,
				"z": 5.8211950078,
				"element": "C" 
			},
			{
				"x": -0.0731346117,
				"y": 3.9635226604,
				"z": 6.1056474126,
				"element": "C" 
			},
			{
				"x": -0.5877900469,
				"y": 3.0769470901,
				"z": 5.1554849732,
				"element": "C" 
			},
			{
				"x": 1.5510908832,
				"y": 3.6371788175,
				"z": 2.308042566,
				"element": "N" 
			},
			{
				"x": 0.7221399679,
				"y": 2.7224368378,
				"z": 1.8941009271,
				"element": "C" 
			},
			{
				"x": 0.686550627,
				"y": 2.0950275615,
				"z": 0.5972852338,
				"element": "C" 
			},
			{
				"x": 1.5371118376,
				"y": 2.3513271274,
				"z": -0.4621276191,
				"element": "C" 
			},
			{
				"x": 1.2440050185,
				"y": 1.5716305017,
				"z": -1.6003713022,
				"element": "C" 
			},
			{
				"x": 0.1704731768,
				"y": 0.7221730323,
				"z": -1.4068682131,
				"element": "C" 
			},
			{
				"x": -0.495664069,
				"y": 0.877286155,
				"z": 0.1971320408,
				"element": "S" 
			},
			{
				"x": -0.3761426407,
				"y": -0.1989825572,
				"z": -2.3708864252,
				"element": "C" 
			},
			{
				"x": 0.0321525686,
				"y": -0.4028986384,
				"z": -3.5902987133,
				"element": "N" 
			},
			{
				"x": -0.827422706,
				"y": -1.380138153,
				"z": -4.0809960291,
				"element": "C" 
			},
			{
				"x": -1.7480076105,
				"y": -1.7236109435,
				"z": -3.0779239407,
				"element": "C" 
			},
			{
				"x": -1.4559487097,
				"y": -0.9603945134,
				"z": -1.9738046389,
				"element": "O" 
			},
			{
				"x": -2.7481507964,
				"y": -2.6700282957,
				"z": -3.2344460782,
				"element": "C" 
			},
			{
				"x": -2.8003410537,
				"y": -3.2911431821,
				"z": -4.4855199387,
				"element": "C" 
			},
			{
				"x": -1.8906061529,
				"y": -2.9669152726,
				"z": -5.5098081591,
				"element": "C" 
			},
			{
				"x": -0.8926286471,
				"y": -2.0106700059,
				"z": -5.3278358094,
				"element": "C" 
			},
			{
				"x": 2.5062495251,
				"y": 5.4131212926,
				"z": 4.3554669548,
				"element": "H" 
			},
			{
				"x": 1.3909873901,
				"y": 5.4666968398,
				"z": 6.5922196556,
				"element": "H" 
			},
			{
				"x": -0.5343710876,
				"y": 4.0116760448,
				"z": 7.0872341237,
				"element": "H" 
			},
			{
				"x": -1.4344405035,
				"y": 2.4322470694,
				"z": 5.3626276567,
				"element": "H" 
			},
			{
				"x": 2.3354261091,
				"y": 3.0798836045,
				"z": -0.3954156147,
				"element": "H" 
			},
			{
				"x": 1.7835861183,
				"y": 1.6119892082,
				"z": -2.5383332819,
				"element": "H" 
			},
			{
				"x": -3.442986116,
				"y": -2.9111238763,
				"z": -2.4379284532,
				"element": "H" 
			},
			{
				"x": -3.5619941221,
				"y": -4.0422428112,
				"z": -4.6707323877,
				"element": "H" 
			},
			{
				"x": -1.9713435031,
				"y": -3.4768474415,
				"z": -6.4649658282,
				"element": "H" 
			},
			{
				"x": -0.1899791169,
				"y": -1.758226054,
				"z": -6.1145893641,
				"element": "H" 
			}
		],
		 "valence_orbital": [ 
			{
				"type": "occ",
				"energy": -0.27105,
				"method": "rhf"
			},
			{
				"type": "occ",
				"energy": -0.25021,
				"method": "rhf"
			},
			{
				"type": "occ",
				"energy": -0.25,
				"method": "rhf"
			},
			{
				"type": "occ",
				"energy": -0.24414,
				"method": "rhf"
			},
			{
				"type": "occ",
				"energy": -0.21114,
				"method": "rhf"
			},
			{
				"type": "unocc",
				"energy": -0.08341,
				"method": "rhf"
			},
			{
				"type": "unocc",
				"energy": -0.02802,
				"method": "rhf"
			},
			{
				"type": "unocc",
				"energy": -0.00323,
				"method": "rhf"
			},
			{
				"type": "unocc",
				"energy": 0.00291,
				"method": "rhf"
			},
			{
				"type": "unocc",
				"energy": 0.00965,
				"method": "rhf"
			}
		],
		"cosmo_sigma_profile": { 
			"-0.025": 0.0,
			"-0.024": 0.0,
			"-0.023": 0.0,
			"-0.022": 0.0,
			"-0.021": 0.0,
			"-0.02": 0.0,
			"-0.019": 0.0,
			"-0.018": 0.0,
			"-0.017": 0.0,
			"-0.016": 0.0,
			"-0.015": 0.0,
			"-0.014": 0.0,
			"-0.013": 0.0,
			"-0.012": 0.0,
			"-0.011": 0.0,
			"-0.01": 0.0,
			"-0.009": 0.12731515487,
			"-0.008": 3.66975203239,
			"-0.007": 10.6015213303,
			"-0.006": 18.2296351414,
			"-0.005": 20.1077086061,
			"-0.004": 19.6476799551,
			"-0.003": 20.7161363598,
			"-0.002": 23.356310801,
			"-0.001": 23.883290521,
			"0.0": 34.1395387892,
			"0.001": 42.6912686942,
			"0.002": 35.1954022454,
			"0.003": 27.5958639664,
			"0.004": 25.0502599153,
			"0.005": 11.3628337375,
			"0.006": 2.99856739605,
			"0.007": 1.88106123163,
			"0.008": 2.21662940931,
			"0.009": 2.60737770728,
			"0.01": 1.60629006516,
			"0.011": 1.70708103648,
			"0.012": 2.20269090497,
			"0.013": 1.73232622787,
			"0.014": 1.07456061658,
			"0.015": 0.020583125849,
			"0.016": 0.0,
			"0.017": 0.0,
			"0.018": 0.0,
			"0.019": 0.0,
			"0.02": 0.0,
			"0.021": 0.0,
			"0.022": 0.0,
			"0.023": 0.0,
			"0.024": 0.0,
			"0.025": 0.0
		}
	}
}
