{
	 "smiles": "NC(C1=CC=NC=C1)C1=CC=C(F)C=C1", 
	 "Tm": 337.15, 
	 "num_atms": 26, 
	 "gaussian": { 
		 "optdone": 1, 
		 "sigma_profile": "yes", 
		 "theory": "DFT", 
		 "functional": "B3LYP", 
		 "basiset": "6-31G**", 
		 "properties": { 
			 "R2extent": 3834.5899, 
			 "electric_dipole_moment_norm": 1.65315397347, 
			 "electric_quadrupole_moment_norm": 12.1057611652, 
			 "total_energy": -673.234243913, 
			 "HOMO_LUMO_gap": 0.20956, 
			 "cosmo_polarized_energy": -11.08, 
			 "cosmo_cavitation_energy": 30.31, 
			 "cosmo_dispersion_energy": -21.41, 
			 "cosmo_repulsion_energy": 1.65, 
			 "cosmo_total_nonelectrostatic_energy": 10.55, 
			 "SMD_solvation_energy": 3.48 
		},
		"coords": [
			{
				"x": -0.8334912432,
				"y": -1.1400347024,
				"z": 1.6657537205,
				"element": "N" 
			},
			{
				"x": 0.0912468482,
				"y": -0.1927735428,
				"z": 1.0193066883,
				"element": "C" 
			},
			{
				"x": 1.1863966595,
				"y": -0.9004254818,
				"z": 0.2217488504,
				"element": "C" 
			},
			{
				"x": 0.9082385071,
				"y": -1.5763004387,
				"z": -0.9745637459,
				"element": "C" 
			},
			{
				"x": 1.9302087577,
				"y": -2.2702268064,
				"z": -1.6182704444,
				"element": "C" 
			},
			{
				"x": 3.1913128908,
				"y": -2.3360124574,
				"z": -1.1659926691,
				"element": "N" 
			},
			{
				"x": 3.4547445051,
				"y": -1.6852478852,
				"z": -0.0279311741,
				"element": "C" 
			},
			{
				"x": 2.5005216049,
				"y": -0.9632284325,
				"z": 0.6932835904,
				"element": "C" 
			},
			{
				"x": -0.6840822621,
				"y": 0.8405531055,
				"z": 0.1991419044,
				"element": "C" 
			},
			{
				"x": -2.047601006,
				"y": 1.0612549896,
				"z": 0.4330462288,
				"element": "C" 
			},
			{
				"x": -2.7510324977,
				"y": 2.0366569988,
				"z": -0.2754365304,
				"element": "C" 
			},
			{
				"x": -2.0734436731,
				"y": 2.799512875,
				"z": -1.217623684,
				"element": "C" 
			},
			{
				"x": -2.7465055797,
				"y": 3.7445712647,
				"z": -1.9082863298,
				"element": "F" 
			},
			{
				"x": -0.7184395253,
				"y": 2.6157930072,
				"z": -1.4693658317,
				"element": "C" 
			},
			{
				"x": -0.032229074,
				"y": 1.6332462631,
				"z": -0.7573474735,
				"element": "C" 
			},
			{
				"x": -0.307206354,
				"y": -1.7544256694,
				"z": 2.2823673682,
				"element": "H" 
			},
			{
				"x": -1.2574187462,
				"y": -1.7391099678,
				"z": 0.9592905953,
				"element": "H" 
			},
			{
				"x": 0.5883633331,
				"y": 0.3435384207,
				"z": 1.8397186879,
				"element": "H" 
			},
			{
				"x": -0.0882143467,
				"y": -1.5523474065,
				"z": -1.4073593471,
				"element": "H" 
			},
			{
				"x": 1.7286021772,
				"y": -2.7985689008,
				"z": -2.5487510626,
				"element": "H" 
			},
			{
				"x": 4.4819321438,
				"y": -1.739967279,
				"z": 0.3297194563,
				"element": "H" 
			},
			{
				"x": 2.7833504364,
				"y": -0.4565458595,
				"z": 1.6126571999,
				"element": "H" 
			},
			{
				"x": -2.5526793903,
				"y": 0.4647129972,
				"z": 1.1842399771,
				"element": "H" 
			},
			{
				"x": -3.8078397488,
				"y": 2.2113789009,
				"z": -0.1034886841,
				"element": "H" 
			},
			{
				"x": -0.221703903,
				"y": 3.2313398526,
				"z": -2.2115971199,
				"element": "H" 
			},
			{
				"x": 1.0247694863,
				"y": 1.4827561551,
				"z": -0.9546601706,
				"element": "H" 
			}
		],
		 "valence_orbital": [ 
			{
				"type": "occ",
				"energy": -0.26745,
				"method": "rhf"
			},
			{
				"type": "occ",
				"energy": -0.25966,
				"method": "rhf"
			},
			{
				"type": "occ",
				"energy": -0.25873,
				"method": "rhf"
			},
			{
				"type": "occ",
				"energy": -0.24763,
				"method": "rhf"
			},
			{
				"type": "occ",
				"energy": -0.23901,
				"method": "rhf"
			},
			{
				"type": "unocc",
				"energy": -0.02945,
				"method": "rhf"
			},
			{
				"type": "unocc",
				"energy": -0.01954,
				"method": "rhf"
			},
			{
				"type": "unocc",
				"energy": -0.00739,
				"method": "rhf"
			},
			{
				"type": "unocc",
				"energy": -0.00123,
				"method": "rhf"
			},
			{
				"type": "unocc",
				"energy": 0.08257,
				"method": "rhf"
			}
		],
		"cosmo_sigma_profile": { 
			"-0.025": 0.0,
			"-0.024": 0.0,
			"-0.023": 0.0,
			"-0.022": 0.0,
			"-0.021": 0.0,
			"-0.02": 0.0,
			"-0.019": 0.0,
			"-0.018": 0.0,
			"-0.017": 0.0,
			"-0.016": 0.0,
			"-0.015": 0.0,
			"-0.014": 0.0,
			"-0.013": 0.0,
			"-0.012": 0.0,
			"-0.011": 0.229625652051,
			"-0.01": 1.94215025101,
			"-0.009": 3.04936158475,
			"-0.008": 3.79973163041,
			"-0.007": 7.3856254157,
			"-0.006": 18.3834117831,
			"-0.005": 17.4921373097,
			"-0.004": 17.645524142,
			"-0.003": 14.4082960487,
			"-0.002": 14.4297208315,
			"-0.001": 12.6434442708,
			"0.0": 14.5316455861,
			"0.001": 18.1346633153,
			"0.002": 22.9379140327,
			"0.003": 20.8008117642,
			"0.004": 22.0605016069,
			"0.005": 12.5921910798,
			"0.006": 2.0531926846,
			"0.007": 2.08700244324,
			"0.008": 2.17398941197,
			"0.009": 1.95238851629,
			"0.01": 1.70836484027,
			"0.011": 1.60178748816,
			"0.012": 1.68147401876,
			"0.013": 1.76934565833,
			"0.014": 1.13745958309,
			"0.015": 1.160311144,
			"0.016": 1.46297383351,
			"0.017": 0.526106930257,
			"0.018": 0.0454409408625,
			"0.019": 0.0,
			"0.02": 0.0,
			"0.021": 0.0,
			"0.022": 0.0,
			"0.023": 0.0,
			"0.024": 0.0,
			"0.025": 0.0
		}
	}
}
