{
	 "smiles": "NC1=NN=C(O1)C1=C(Cl)C=CC=C1F", 
	 "Tm": 426.15, 
	 "num_atms": 19, 
	 "gaussian": { 
		 "optdone": 1, 
		 "sigma_profile": "yes", 
		 "theory": "DFT", 
		 "functional": "B3LYP", 
		 "basiset": "6-31G**", 
		 "properties": { 
			 "R2extent": 3080.3942, 
			 "electric_dipole_moment_norm": 3.86190837411, 
			 "electric_quadrupole_moment_norm": 26.7524305939, 
			 "total_energy": -1107.33314374, 
			 "HOMO_LUMO_gap": 0.18185, 
			 "cosmo_polarized_energy": -16.92, 
			 "cosmo_cavitation_energy": 26.83, 
			 "cosmo_dispersion_energy": -19.66, 
			 "cosmo_repulsion_energy": 1.54, 
			 "cosmo_total_nonelectrostatic_energy": 8.71, 
			 "SMD_solvation_energy": 3.23 
		},
		"coords": [
			{
				"x": 3.964488403,
				"y": 0.8732581506,
				"z": -0.0177793379,
				"element": "N" 
			},
			{
				"x": 2.6251410754,
				"y": 1.1238684139,
				"z": 0.0731048237,
				"element": "C" 
			},
			{
				"x": 2.0063389003,
				"y": 2.2673315204,
				"z": -0.0125947851,
				"element": "N" 
			},
			{
				"x": 0.662174023,
				"y": 1.9801885116,
				"z": 0.2314828993,
				"element": "N" 
			},
			{
				"x": 0.5722929978,
				"y": 0.7049386563,
				"z": 0.4273343897,
				"element": "C" 
			},
			{
				"x": 1.8048625877,
				"y": 0.0823757739,
				"z": 0.349565974,
				"element": "O" 
			},
			{
				"x": -0.6162991482,
				"y": -0.0923388752,
				"z": 0.7396614103,
				"element": "C" 
			},
			{
				"x": -0.9594154584,
				"y": -1.2927198533,
				"z": 0.0873828255,
				"element": "C" 
			},
			{
				"x": 0.0328616166,
				"y": -1.9096248289,
				"z": -1.2211071903,
				"element": "Cl" 
			},
			{
				"x": -2.1049070794,
				"y": -2.0107583906,
				"z": 0.4259119682,
				"element": "C" 
			},
			{
				"x": -2.945531478,
				"y": -1.5312096238,
				"z": 1.4299438051,
				"element": "C" 
			},
			{
				"x": -2.6473890125,
				"y": -0.3440877348,
				"z": 2.0948622404,
				"element": "C" 
			},
			{
				"x": -1.4963448845,
				"y": 0.3479023901,
				"z": 1.7434028751,
				"element": "C" 
			},
			{
				"x": -1.2058477593,
				"y": 1.4750772716,
				"z": 2.4067753282,
				"element": "F" 
			},
			{
				"x": 4.2178257988,
				"y": -0.0420613029,
				"z": -0.3623594907,
				"element": "H" 
			},
			{
				"x": 4.4893809947,
				"y": 1.6359619693,
				"z": -0.4222198441,
				"element": "H" 
			},
			{
				"x": -2.3350630913,
				"y": -2.9275772694,
				"z": -0.1036210548,
				"element": "H" 
			},
			{
				"x": -3.840375606,
				"y": -2.0869284737,
				"z": 1.6913613717,
				"element": "H" 
			},
			{
				"x": -3.2790928796,
				"y": 0.052103695,
				"z": 2.8814917918,
				"element": "H" 
			}
		],
		 "valence_orbital": [ 
			{
				"type": "occ",
				"energy": -0.31583,
				"method": "rhf"
			},
			{
				"type": "occ",
				"energy": -0.28161,
				"method": "rhf"
			},
			{
				"type": "occ",
				"energy": -0.27015,
				"method": "rhf"
			},
			{
				"type": "occ",
				"energy": -0.25799,
				"method": "rhf"
			},
			{
				"type": "occ",
				"energy": -0.23013,
				"method": "rhf"
			},
			{
				"type": "unocc",
				"energy": -0.04828,
				"method": "rhf"
			},
			{
				"type": "unocc",
				"energy": -0.02081,
				"method": "rhf"
			},
			{
				"type": "unocc",
				"energy": 0.01294,
				"method": "rhf"
			},
			{
				"type": "unocc",
				"energy": 0.02081,
				"method": "rhf"
			},
			{
				"type": "unocc",
				"energy": 0.04889,
				"method": "rhf"
			}
		],
		"cosmo_sigma_profile": { 
			"-0.025": 0.0,
			"-0.024": 0.0,
			"-0.023": 0.0,
			"-0.022": 0.0,
			"-0.021": 0.0,
			"-0.02": 0.0,
			"-0.019": 0.0,
			"-0.018": 0.0,
			"-0.017": 0.0,
			"-0.016": 0.278805707288,
			"-0.015": 2.64616991702,
			"-0.014": 2.35085096113,
			"-0.013": 2.81053988473,
			"-0.012": 2.86991445173,
			"-0.011": 1.84470570498,
			"-0.01": 1.29203407366,
			"-0.009": 2.70444683822,
			"-0.008": 6.86302801748,
			"-0.007": 7.39887992087,
			"-0.006": 8.57300980078,
			"-0.005": 6.91605850348,
			"-0.004": 7.64125418924,
			"-0.003": 9.86712802356,
			"-0.002": 11.4167771095,
			"-0.001": 17.1965932632,
			"0.0": 22.2362994089,
			"0.001": 18.750156305,
			"0.002": 18.8268597221,
			"0.003": 17.1802349036,
			"0.004": 13.3486407647,
			"0.005": 5.98245323549,
			"0.006": 3.81931202086,
			"0.007": 2.35933855883,
			"0.008": 2.60112629355,
			"0.009": 3.47719562208,
			"0.01": 2.9493923259,
			"0.011": 3.18883753806,
			"0.012": 3.23938258536,
			"0.013": 2.99661141735,
			"0.014": 2.48833209653,
			"0.015": 1.85660677866,
			"0.016": 0.585407841088,
			"0.017": 0.0,
			"0.018": 0.0,
			"0.019": 0.0,
			"0.02": 0.0,
			"0.021": 0.0,
			"0.022": 0.0,
			"0.023": 0.0,
			"0.024": 0.0,
			"0.025": 0.0
		}
	}
}
