{
	 "smiles": "COC(=O)C1CCCN1C(=O)COC(=O)C1=CC=CC=C1", 
	 "Tm": 345.65, 
	 "num_atms": 38, 
	 "gaussian": { 
		 "optdone": 1, 
		 "sigma_profile": "yes", 
		 "theory": "DFT", 
		 "functional": "B3LYP", 
		 "basiset": "6-31G**", 
		 "properties": { 
			 "R2extent": 8156.7398, 
			 "electric_dipole_moment_norm": 5.44865697672, 
			 "electric_quadrupole_moment_norm": 15.9094390014, 
			 "total_energy": -1012.74105475, 
			 "HOMO_LUMO_gap": 0.18879, 
			 "cosmo_polarized_energy": -19.04, 
			 "cosmo_cavitation_energy": 42.41, 
			 "cosmo_dispersion_energy": -27.99, 
			 "cosmo_repulsion_energy": 2.16, 
			 "cosmo_total_nonelectrostatic_energy": 16.58, 
			 "SMD_solvation_energy": 9.45 
		},
		"coords": [
			{
				"x": -2.1337311994,
				"y": 2.8337882174,
				"z": -0.3061210625,
				"element": "C" 
			},
			{
				"x": -2.4434990644,
				"y": 1.4475865359,
				"z": -0.5337295836,
				"element": "O" 
			},
			{
				"x": -3.7599186814,
				"y": 1.1579829501,
				"z": -0.5580227566,
				"element": "C" 
			},
			{
				"x": -4.6383237556,
				"y": 1.9859630313,
				"z": -0.4638109572,
				"element": "O" 
			},
			{
				"x": -4.0436623427,
				"y": -0.327865118,
				"z": -0.7967381699,
				"element": "C" 
			},
			{
				"x": -4.2384851579,
				"y": -0.6336742745,
				"z": -2.2998869313,
				"element": "C" 
			},
			{
				"x": -2.8323302887,
				"y": -1.0453725848,
				"z": -2.7649608924,
				"element": "C" 
			},
			{
				"x": -2.2821157361,
				"y": -1.8418874417,
				"z": -1.5721167069,
				"element": "C" 
			},
			{
				"x": -2.9487093308,
				"y": -1.2190583497,
				"z": -0.4161459758,
				"element": "N" 
			},
			{
				"x": -2.6530775636,
				"y": -1.3753958599,
				"z": 0.9050647742,
				"element": "C" 
			},
			{
				"x": -3.2863853912,
				"y": -0.7975248,
				"z": 1.7839541267,
				"element": "O" 
			},
			{
				"x": -1.518242927,
				"y": -2.3337994389,
				"z": 1.2621278738,
				"element": "C" 
			},
			{
				"x": -0.2834518911,
				"y": -1.7805183437,
				"z": 0.7664730511,
				"element": "O" 
			},
			{
				"x": 0.8009582738,
				"y": -2.5947032466,
				"z": 0.853920447,
				"element": "C" 
			},
			{
				"x": 0.7421820358,
				"y": -3.7252869089,
				"z": 1.2939008023,
				"element": "O" 
			},
			{
				"x": 2.0384544448,
				"y": -1.941534548,
				"z": 0.3448290745,
				"element": "C" 
			},
			{
				"x": 3.2209535315,
				"y": -2.6943788367,
				"z": 0.3460761868,
				"element": "C" 
			},
			{
				"x": 4.4059448473,
				"y": -2.131498231,
				"z": -0.1207215047,
				"element": "C" 
			},
			{
				"x": 4.4161985896,
				"y": -0.8146927148,
				"z": -0.589154817,
				"element": "C" 
			},
			{
				"x": 3.2396636018,
				"y": -0.061096227,
				"z": -0.5893285631,
				"element": "C" 
			},
			{
				"x": 2.0504691347,
				"y": -0.6196956518,
				"z": -0.1236909645,
				"element": "C" 
			},
			{
				"x": -1.0457844306,
				"y": 2.8981421246,
				"z": -0.3140232179,
				"element": "H" 
			},
			{
				"x": -2.5299289397,
				"y": 3.157030651,
				"z": 0.6591845474,
				"element": "H" 
			},
			{
				"x": -2.5635038823,
				"y": 3.4592506705,
				"z": -1.0925106222,
				"element": "H" 
			},
			{
				"x": -4.9385687945,
				"y": -0.5448655466,
				"z": -0.2090756058,
				"element": "H" 
			},
			{
				"x": -4.9376831215,
				"y": -1.4699609708,
				"z": -2.405779993,
				"element": "H" 
			},
			{
				"x": -4.6527114229,
				"y": 0.2183581168,
				"z": -2.8435373908,
				"element": "H" 
			},
			{
				"x": -2.2158972499,
				"y": -0.1562372832,
				"z": -2.9298547422,
				"element": "H" 
			},
			{
				"x": -2.8386530543,
				"y": -1.6313443422,
				"z": -3.6875917593,
				"element": "H" 
			},
			{
				"x": -2.5543631059,
				"y": -2.9042712466,
				"z": -1.6479821979,
				"element": "H" 
			},
			{
				"x": -1.1969788464,
				"y": -1.771424372,
				"z": -1.4824458946,
				"element": "H" 
			},
			{
				"x": -1.6677618994,
				"y": -3.3328553303,
				"z": 0.8392176842,
				"element": "H" 
			},
			{
				"x": -1.4806906629,
				"y": -2.4136110614,
				"z": 2.3495918119,
				"element": "H" 
			},
			{
				"x": 3.1869948206,
				"y": -3.7134243018,
				"z": 0.716326346,
				"element": "H" 
			},
			{
				"x": 5.3209688397,
				"y": -2.7162431645,
				"z": -0.1192918723,
				"element": "H" 
			},
			{
				"x": 5.3410106203,
				"y": -0.3754684542,
				"z": -0.9523650662,
				"element": "H" 
			},
			{
				"x": 3.2501835866,
				"y": 0.9629018273,
				"z": -0.9509168536,
				"element": "H" 
			},
			{
				"x": 1.1336764136,
				"y": -0.0411154754,
				"z": -0.1154626246,
				"element": "H" 
			}
		],
		 "valence_orbital": [ 
			{
				"type": "occ",
				"energy": -0.28125,
				"method": "rhf"
			},
			{
				"type": "occ",
				"energy": -0.2661,
				"method": "rhf"
			},
			{
				"type": "occ",
				"energy": -0.2646,
				"method": "rhf"
			},
			{
				"type": "occ",
				"energy": -0.25282,
				"method": "rhf"
			},
			{
				"type": "occ",
				"energy": -0.24133,
				"method": "rhf"
			},
			{
				"type": "unocc",
				"energy": -0.05254,
				"method": "rhf"
			},
			{
				"type": "unocc",
				"energy": -0.01428,
				"method": "rhf"
			},
			{
				"type": "unocc",
				"energy": 0.00435,
				"method": "rhf"
			},
			{
				"type": "unocc",
				"energy": 0.00985,
				"method": "rhf"
			},
			{
				"type": "unocc",
				"energy": 0.05064,
				"method": "rhf"
			}
		],
		"cosmo_sigma_profile": { 
			"-0.025": 0.0,
			"-0.024": 0.0,
			"-0.023": 0.0,
			"-0.022": 0.0,
			"-0.021": 0.0,
			"-0.02": 0.0,
			"-0.019": 0.0,
			"-0.018": 0.0,
			"-0.017": 0.0,
			"-0.016": 0.0,
			"-0.015": 0.0,
			"-0.014": 0.0,
			"-0.013": 0.0,
			"-0.012": 0.0,
			"-0.011": 0.0,
			"-0.01": 0.0,
			"-0.009": 0.0,
			"-0.008": 1.13638384583,
			"-0.007": 7.18576339383,
			"-0.006": 19.5288949309,
			"-0.005": 36.3889812589,
			"-0.004": 43.1295405115,
			"-0.003": 32.883834456,
			"-0.002": 26.3166486523,
			"-0.001": 23.8351168232,
			"0.0": 17.8733619215,
			"0.001": 16.110650829,
			"0.002": 17.3119129819,
			"0.003": 18.374326858,
			"0.004": 18.3322114742,
			"0.005": 8.31800929965,
			"0.006": 5.46858054853,
			"0.007": 5.16332672925,
			"0.008": 4.29092424489,
			"0.009": 4.66747399822,
			"0.01": 4.57330739056,
			"0.011": 10.125830254,
			"0.012": 7.97594530832,
			"0.013": 4.89465068032,
			"0.014": 1.75167158082,
			"0.015": 0.0999386353823,
			"0.016": 0.0,
			"0.017": 0.0,
			"0.018": 0.0,
			"0.019": 0.0,
			"0.02": 0.0,
			"0.021": 0.0,
			"0.022": 0.0,
			"0.023": 0.0,
			"0.024": 0.0,
			"0.025": 0.0
		}
	}
}
