{
	 "smiles": "NC(=S)C1=CC=C(Br)S1", 
	 "Tm": 443.15, 
	 "num_atms": 13, 
	 "gaussian": { 
		 "optdone": 1, 
		 "sigma_profile": "yes", 
		 "theory": "DFT", 
		 "functional": "B3LYP", 
		 "basiset": "6-31G**", 
		 "properties": { 
			 "R2extent": 3836.9826, 
			 "electric_dipole_moment_norm": 5.03292806426, 
			 "electric_quadrupole_moment_norm": 12.5357657867, 
			 "total_energy": -3615.45880727, 
			 "HOMO_LUMO_gap": 0.13822, 
			 "cosmo_polarized_energy": -15.47, 
			 "cosmo_cavitation_energy": 23.12, 
			 "cosmo_dispersion_energy": -18.62, 
			 "cosmo_repulsion_energy": 1.44, 
			 "cosmo_total_nonelectrostatic_energy": 5.94, 
			 "SMD_solvation_energy": 1.71 
		},
		"coords": [
			{
				"x": -0.5992834052,
				"y": 1.7086757272,
				"z": -2.5483894815,
				"element": "N" 
			},
			{
				"x": -0.5121804587,
				"y": 0.5197181712,
				"z": -1.9034377487,
				"element": "C" 
			},
			{
				"x": -1.6574593476,
				"y": -0.6802648818,
				"z": -2.1097267792,
				"element": "S" 
			},
			{
				"x": 0.6348773708,
				"y": 0.3715936079,
				"z": -1.0055105908,
				"element": "C" 
			},
			{
				"x": 1.4996487252,
				"y": 1.3385180731,
				"z": -0.529599169,
				"element": "C" 
			},
			{
				"x": 2.5057367929,
				"y": 0.8312199105,
				"z": 0.3322094119,
				"element": "C" 
			},
			{
				"x": 2.3847085336,
				"y": -0.5256244397,
				"z": 0.4974078977,
				"element": "C" 
			},
			{
				"x": 3.4988952403,
				"y": -1.6210506741,
				"z": 1.547384559,
				"element": "Br" 
			},
			{
				"x": 1.0479277113,
				"y": -1.2059989119,
				"z": -0.3735653679,
				"element": "S" 
			},
			{
				"x": 0.1889508273,
				"y": 2.3352221946,
				"z": -2.6102327854,
				"element": "H" 
			},
			{
				"x": -1.3564462257,
				"y": 1.8294078738,
				"z": -3.204656952,
				"element": "H" 
			},
			{
				"x": 1.4025806455,
				"y": 2.3947658069,
				"z": -0.7566220099,
				"element": "H" 
			},
			{
				"x": 3.2708435903,
				"y": 1.4298175424,
				"z": 0.8099390158,
				"element": "H" 
			}
		],
		 "valence_orbital": [ 
			{
				"type": "occ",
				"energy": -0.30577,
				"method": "rhf"
			},
			{
				"type": "occ",
				"energy": -0.27571,
				"method": "rhf"
			},
			{
				"type": "occ",
				"energy": -0.25311,
				"method": "rhf"
			},
			{
				"type": "occ",
				"energy": -0.22976,
				"method": "rhf"
			},
			{
				"type": "occ",
				"energy": -0.21701,
				"method": "rhf"
			},
			{
				"type": "unocc",
				"energy": -0.07879,
				"method": "rhf"
			},
			{
				"type": "unocc",
				"energy": -0.01103,
				"method": "rhf"
			},
			{
				"type": "unocc",
				"energy": 0.00026,
				"method": "rhf"
			},
			{
				"type": "unocc",
				"energy": 0.01469,
				"method": "rhf"
			},
			{
				"type": "unocc",
				"energy": 0.05738,
				"method": "rhf"
			}
		],
		"cosmo_sigma_profile": { 
			"-0.025": 0.0,
			"-0.024": 0.0,
			"-0.023": 0.0,
			"-0.022": 0.0,
			"-0.021": 0.0,
			"-0.02": 0.0,
			"-0.019": 0.0,
			"-0.018": 0.0,
			"-0.017": 0.0,
			"-0.016": 0.782168135994,
			"-0.015": 2.61121804274,
			"-0.014": 2.64160834415,
			"-0.013": 3.17122647102,
			"-0.012": 2.09848140453,
			"-0.011": 2.53655976909,
			"-0.01": 2.64322291813,
			"-0.009": 2.31323500164,
			"-0.008": 5.1533289787,
			"-0.007": 4.67016925938,
			"-0.006": 5.72930040444,
			"-0.005": 5.12335281281,
			"-0.004": 6.37613615971,
			"-0.003": 4.37314188604,
			"-0.002": 9.380058557,
			"-0.001": 11.9252049893,
			"0.0": 15.9240781138,
			"0.001": 23.0461099981,
			"0.002": 22.3697604415,
			"0.003": 18.8528854713,
			"0.004": 6.60277612525,
			"0.005": 5.08265540428,
			"0.006": 4.19267434509,
			"0.007": 5.31498179954,
			"0.008": 7.38770109606,
			"0.009": 6.93343202967,
			"0.01": 4.55523723303,
			"0.011": 1.80369215015,
			"0.012": 0.25882226859,
			"0.013": 0.0,
			"0.014": 0.0,
			"0.015": 0.0,
			"0.016": 0.0,
			"0.017": 0.0,
			"0.018": 0.0,
			"0.019": 0.0,
			"0.02": 0.0,
			"0.021": 0.0,
			"0.022": 0.0,
			"0.023": 0.0,
			"0.024": 0.0,
			"0.025": 0.0
		}
	}
}
