{
	 "smiles": "[O-][N+](=O)C1=CC=CC=C1COC(=O)CC1=CC=CC=C1", 
	 "Tm": 327.15, 
	 "num_atms": 33, 
	 "gaussian": { 
		 "optdone": 1, 
		 "sigma_profile": "yes", 
		 "theory": "DFT", 
		 "functional": "B3LYP", 
		 "basiset": "6-31G**", 
		 "properties": { 
			 "R2extent": 5733.5425, 
			 "electric_dipole_moment_norm": 2.95629000776, 
			 "electric_quadrupole_moment_norm": 14.6375210876, 
			 "total_energy": -934.987191644, 
			 "HOMO_LUMO_gap": 0.14807, 
			 "cosmo_polarized_energy": -12.95, 
			 "cosmo_cavitation_energy": 38.01, 
			 "cosmo_dispersion_energy": -25.09, 
			 "cosmo_repulsion_energy": 1.9, 
			 "cosmo_total_nonelectrostatic_energy": 14.83, 
			 "SMD_solvation_energy": 8.86 
		},
		"coords": [
			{
				"x": 3.2727991454,
				"y": -0.8401706871,
				"z": -0.6077999685,
				"element": "O" 
			},
			{
				"x": 2.6558627522,
				"y": -0.2880950336,
				"z": -1.5184158587,
				"element": "N" 
			},
			{
				"x": 2.6847534734,
				"y": -0.6547413329,
				"z": -2.6927702673,
				"element": "O" 
			},
			{
				"x": 1.8503023513,
				"y": 0.8986603786,
				"z": -1.1703326757,
				"element": "C" 
			},
			{
				"x": 2.2187939831,
				"y": 1.559585267,
				"z": 0.0021618923,
				"element": "C" 
			},
			{
				"x": 1.5290907126,
				"y": 2.7018642185,
				"z": 0.3964477801,
				"element": "C" 
			},
			{
				"x": 0.4600689697,
				"y": 3.159259781,
				"z": -0.3735052959,
				"element": "C" 
			},
			{
				"x": 0.0905181189,
				"y": 2.474637326,
				"z": -1.5311075488,
				"element": "C" 
			},
			{
				"x": 0.7806781741,
				"y": 1.3395426329,
				"z": -1.9734723024,
				"element": "C" 
			},
			{
				"x": 0.3018029504,
				"y": 0.6594424332,
				"z": -3.2401071431,
				"element": "C" 
			},
			{
				"x": -0.1789399435,
				"y": -0.6778433151,
				"z": -2.9833692917,
				"element": "O" 
			},
			{
				"x": -1.4443256461,
				"y": -0.7830265513,
				"z": -2.5046738126,
				"element": "C" 
			},
			{
				"x": -2.1924915818,
				"y": 0.1577567611,
				"z": -2.3577124929,
				"element": "O" 
			},
			{
				"x": -1.7620240818,
				"y": -2.2306840198,
				"z": -2.1639483094,
				"element": "C" 
			},
			{
				"x": -1.1322366009,
				"y": -2.6362440219,
				"z": -0.8392297772,
				"element": "C" 
			},
			{
				"x": 0.2453610398,
				"y": -2.8803213205,
				"z": -0.7466910069,
				"element": "C" 
			},
			{
				"x": 0.8231065133,
				"y": -3.2240972974,
				"z": 0.4753640701,
				"element": "C" 
			},
			{
				"x": 0.0302298382,
				"y": -3.3357153548,
				"z": 1.6200741297,
				"element": "C" 
			},
			{
				"x": -1.3420781268,
				"y": -3.0973284297,
				"z": 1.5359132858,
				"element": "C" 
			},
			{
				"x": -1.9183264527,
				"y": -2.7451371106,
				"z": 0.3137520314,
				"element": "C" 
			},
			{
				"x": 3.0416705625,
				"y": 1.1645000895,
				"z": 0.5840863874,
				"element": "H" 
			},
			{
				"x": 1.82169407,
				"y": 3.2230383031,
				"z": 1.3022705665,
				"element": "H" 
			},
			{
				"x": -0.0967225889,
				"y": 4.0400477581,
				"z": -0.0685858073,
				"element": "H" 
			},
			{
				"x": -0.7675402117,
				"y": 2.8096352256,
				"z": -2.1045864599,
				"element": "H" 
			},
			{
				"x": 1.1103953106,
				"y": 0.5305973595,
				"z": -3.9552641896,
				"element": "H" 
			},
			{
				"x": -0.5057791832,
				"y": 1.2487419082,
				"z": -3.677767685,
				"element": "H" 
			},
			{
				"x": -2.8488504988,
				"y": -2.3205998123,
				"z": -2.1164561517,
				"element": "H" 
			},
			{
				"x": -1.388813975,
				"y": -2.8680368066,
				"z": -2.9719489811,
				"element": "H" 
			},
			{
				"x": 0.8676575717,
				"y": -2.7894268253,
				"z": -1.6321026009,
				"element": "H" 
			},
			{
				"x": 1.8936821204,
				"y": -3.396678758,
				"z": 0.530350256,
				"element": "H" 
			},
			{
				"x": 0.4799967553,
				"y": -3.6063650553,
				"z": 2.5711053311,
				"element": "H" 
			},
			{
				"x": -1.9663884135,
				"y": -3.1824428595,
				"z": 2.4209872776,
				"element": "H" 
			},
			{
				"x": -2.9867471082,
				"y": -2.5542548503,
				"z": 0.2540346187,
				"element": "H" 
			}
		],
		 "valence_orbital": [ 
			{
				"type": "occ",
				"energy": -0.28408,
				"method": "rhf"
			},
			{
				"type": "occ",
				"energy": -0.27785,
				"method": "rhf"
			},
			{
				"type": "occ",
				"energy": -0.27299,
				"method": "rhf"
			},
			{
				"type": "occ",
				"energy": -0.24659,
				"method": "rhf"
			},
			{
				"type": "occ",
				"energy": -0.23914,
				"method": "rhf"
			},
			{
				"type": "unocc",
				"energy": -0.09107,
				"method": "rhf"
			},
			{
				"type": "unocc",
				"energy": -0.031,
				"method": "rhf"
			},
			{
				"type": "unocc",
				"energy": -0.01066,
				"method": "rhf"
			},
			{
				"type": "unocc",
				"energy": -0.007,
				"method": "rhf"
			},
			{
				"type": "unocc",
				"energy": 0.00176,
				"method": "rhf"
			}
		],
		"cosmo_sigma_profile": { 
			"-0.025": 0.0,
			"-0.024": 0.0,
			"-0.023": 0.0,
			"-0.022": 0.0,
			"-0.021": 0.0,
			"-0.02": 0.0,
			"-0.019": 0.0,
			"-0.018": 0.0,
			"-0.017": 0.0,
			"-0.016": 0.0,
			"-0.015": 0.0,
			"-0.014": 0.0,
			"-0.013": 0.0,
			"-0.012": 0.0,
			"-0.011": 0.0,
			"-0.01": 0.0,
			"-0.009": 0.0,
			"-0.008": 2.35642410174,
			"-0.007": 10.9870772316,
			"-0.006": 21.6237145177,
			"-0.005": 23.922816426,
			"-0.004": 25.597101384,
			"-0.003": 24.5788103955,
			"-0.002": 21.2984713817,
			"-0.001": 20.6964401528,
			"0.0": 20.2954738566,
			"0.001": 24.0678187978,
			"0.002": 22.2014220429,
			"0.003": 15.4372246929,
			"0.004": 14.5388248029,
			"0.005": 13.4988442939,
			"0.006": 12.1167493218,
			"0.007": 8.69113143735,
			"0.008": 7.2651749329,
			"0.009": 4.71068696977,
			"0.01": 4.40703998875,
			"0.011": 2.81786656085,
			"0.012": 2.3607259123,
			"0.013": 0.463253977208,
			"0.014": 0.0,
			"0.015": 0.0,
			"0.016": 0.0,
			"0.017": 0.0,
			"0.018": 0.0,
			"0.019": 0.0,
			"0.02": 0.0,
			"0.021": 0.0,
			"0.022": 0.0,
			"0.023": 0.0,
			"0.024": 0.0,
			"0.025": 0.0
		}
	}
}
