{
	 "smiles": "OC(C(O)=O)C1=CC(=CC=C1)C(O)=O", 
	 "Tm": 463.15, 
	 "num_atms": 22, 
	 "gaussian": { 
		 "optdone": 1, 
		 "sigma_profile": "yes", 
		 "theory": "DFT", 
		 "functional": "B3LYP", 
		 "basiset": "6-31G**", 
		 "properties": { 
			 "R2extent": 4207.5252, 
			 "electric_dipole_moment_norm": 1.95203383936, 
			 "electric_quadrupole_moment_norm": 24.6609381071, 
			 "total_energy": -723.905293383, 
			 "HOMO_LUMO_gap": 0.20182, 
			 "cosmo_polarized_energy": -23.85, 
			 "cosmo_cavitation_energy": 27.17, 
			 "cosmo_dispersion_energy": -19.66, 
			 "cosmo_repulsion_energy": 1.56, 
			 "cosmo_total_nonelectrostatic_energy": 9.07, 
			 "SMD_solvation_energy": 6.96 
		},
		"coords": [
			{
				"x": 0.9772531778,
				"y": 1.2632109439,
				"z": 0.4601955824,
				"element": "O" 
			},
			{
				"x": -0.3092751821,
				"y": 0.8821454225,
				"z": 0.0593412347,
				"element": "C" 
			},
			{
				"x": -1.0316211875,
				"y": 2.1276420351,
				"z": -0.5111549656,
				"element": "C" 
			},
			{
				"x": -2.1939225435,
				"y": 1.9370640078,
				"z": -1.1511315064,
				"element": "O" 
			},
			{
				"x": -0.5737718547,
				"y": 3.2337503881,
				"z": -0.3365933963,
				"element": "O" 
			},
			{
				"x": -0.2660552492,
				"y": -0.2603769861,
				"z": -0.9415739776,
				"element": "C" 
			},
			{
				"x": -1.2286293251,
				"y": -1.2746772802,
				"z": -0.9084638423,
				"element": "C" 
			},
			{
				"x": -1.2331851996,
				"y": -2.2915376871,
				"z": -1.8766665827,
				"element": "C" 
			},
			{
				"x": -0.2666865657,
				"y": -2.2809832845,
				"z": -2.8880856004,
				"element": "C" 
			},
			{
				"x": 0.715357642,
				"y": -1.2906427291,
				"z": -2.9037430025,
				"element": "C" 
			},
			{
				"x": 0.719504986,
				"y": -0.2862725062,
				"z": -1.9368444216,
				"element": "C" 
			},
			{
				"x": -2.2565094376,
				"y": -3.389572861,
				"z": -1.8944206471,
				"element": "C" 
			},
			{
				"x": -2.8514040177,
				"y": -3.6887072335,
				"z": -0.7081557227,
				"element": "O" 
			},
			{
				"x": -2.5628493654,
				"y": -3.9898723026,
				"z": -2.8961359505,
				"element": "O" 
			},
			{
				"x": 0.9651670281,
				"y": 2.2380546694,
				"z": 0.4680330457,
				"element": "H" 
			},
			{
				"x": -0.9178197769,
				"y": 0.5623643531,
				"z": 0.9259999728,
				"element": "H" 
			},
			{
				"x": -2.3380723779,
				"y": 0.9891379588,
				"z": -1.3052738359,
				"element": "H" 
			},
			{
				"x": -1.9851606528,
				"y": -1.259090348,
				"z": -0.124640093,
				"element": "H" 
			},
			{
				"x": -0.295178649,
				"y": -3.0612508349,
				"z": -3.6408405737,
				"element": "H" 
			},
			{
				"x": 1.4791675478,
				"y": -1.2998036552,
				"z": -3.675297254,
				"element": "H" 
			},
			{
				"x": 1.4863950829,
				"y": 0.4810071022,
				"z": -1.9322825052,
				"element": "H" 
			},
			{
				"x": -2.3709040799,
				"y": -3.2752891728,
				"z": 0.0225340422,
				"element": "H" 
			}
		],
		 "valence_orbital": [ 
			{
				"type": "occ",
				"energy": -0.31559,
				"method": "rhf"
			},
			{
				"type": "occ",
				"energy": -0.30522,
				"method": "rhf"
			},
			{
				"type": "occ",
				"energy": -0.29204,
				"method": "rhf"
			},
			{
				"type": "occ",
				"energy": -0.28547,
				"method": "rhf"
			},
			{
				"type": "occ",
				"energy": -0.27129,
				"method": "rhf"
			},
			{
				"type": "unocc",
				"energy": -0.06947,
				"method": "rhf"
			},
			{
				"type": "unocc",
				"energy": -0.04638,
				"method": "rhf"
			},
			{
				"type": "unocc",
				"energy": -0.0132,
				"method": "rhf"
			},
			{
				"type": "unocc",
				"energy": 0.02547,
				"method": "rhf"
			},
			{
				"type": "unocc",
				"energy": 0.04816,
				"method": "rhf"
			}
		],
		"cosmo_sigma_profile": { 
			"-0.025": 0.0,
			"-0.024": 0.0,
			"-0.023": 0.0,
			"-0.022": 0.0,
			"-0.021": 0.0,
			"-0.02": 0.0,
			"-0.019": 0.645609442546,
			"-0.018": 0.61776198647,
			"-0.017": 1.10496441745,
			"-0.016": 2.35048069606,
			"-0.015": 2.28013280679,
			"-0.014": 2.18697056981,
			"-0.013": 2.92029631231,
			"-0.012": 2.73593022556,
			"-0.011": 3.24119435776,
			"-0.01": 4.54720539888,
			"-0.009": 4.84064303638,
			"-0.008": 4.6527464399,
			"-0.007": 7.19495208893,
			"-0.006": 10.3057266221,
			"-0.005": 13.5887850286,
			"-0.004": 11.3926705942,
			"-0.003": 10.2798860069,
			"-0.002": 9.53641252928,
			"-0.001": 7.81428912174,
			"0.0": 10.0358418914,
			"0.001": 11.3256258994,
			"0.002": 15.0726108395,
			"0.003": 9.22566292293,
			"0.004": 5.52922886516,
			"0.005": 6.09432045877,
			"0.006": 4.94467024377,
			"0.007": 7.41347442686,
			"0.008": 7.98164629772,
			"0.009": 9.1361608299,
			"0.01": 9.44936156777,
			"0.011": 9.38033627841,
			"0.012": 6.69682061093,
			"0.013": 2.14854721451,
			"0.014": 0.0814959373809,
			"0.015": 0.0,
			"0.016": 0.0,
			"0.017": 0.0,
			"0.018": 0.0,
			"0.019": 0.0,
			"0.02": 0.0,
			"0.021": 0.0,
			"0.022": 0.0,
			"0.023": 0.0,
			"0.024": 0.0,
			"0.025": 0.0
		}
	}
}
