{
	 "smiles": "ClC1=C(Cl)C(Cl)=C(C=C1)N=C=S", 
	 "Tm": 342.65, 
	 "num_atms": 14, 
	 "gaussian": { 
		 "optdone": 1, 
		 "sigma_profile": "yes", 
		 "theory": "DFT", 
		 "functional": "B3LYP", 
		 "basiset": "6-31G**", 
		 "properties": { 
			 "R2extent": 6496.711, 
			 "electric_dipole_moment_norm": 2.57291797188, 
			 "electric_quadrupole_moment_norm": 8.22893290591, 
			 "total_energy": -2101.4461908, 
			 "HOMO_LUMO_gap": 0.17193, 
			 "cosmo_polarized_energy": -5.59, 
			 "cosmo_cavitation_energy": 27.34, 
			 "cosmo_dispersion_energy": -20.62, 
			 "cosmo_repulsion_energy": 1.62, 
			 "cosmo_total_nonelectrostatic_energy": 8.33, 
			 "SMD_solvation_energy": 4.52 
		},
		"coords": [
			{
				"x": 2.7285090071,
				"y": -1.3270604008,
				"z": -2.8760455266,
				"element": "Cl" 
			},
			{
				"x": 1.1659986218,
				"y": -0.8361786587,
				"z": -2.2828810837,
				"element": "C" 
			},
			{
				"x": -0.0164050775,
				"y": -1.3705642464,
				"z": -2.8231154365,
				"element": "C" 
			},
			{
				"x": 0.0499428712,
				"y": -2.5400380596,
				"z": -4.1028114414,
				"element": "Cl" 
			},
			{
				"x": -1.2564063289,
				"y": -0.9482763299,
				"z": -2.3164267282,
				"element": "C" 
			},
			{
				"x": -2.744365848,
				"y": -1.5769651268,
				"z": -2.9483851757,
				"element": "Cl" 
			},
			{
				"x": -1.3080960862,
				"y": 0.0046205569,
				"z": -1.2739079853,
				"element": "C" 
			},
			{
				"x": -0.1130325226,
				"y": 0.5227665185,
				"z": -0.7516556845,
				"element": "C" 
			},
			{
				"x": 1.1097520103,
				"y": 0.1046473068,
				"z": -1.2532232597,
				"element": "C" 
			},
			{
				"x": -2.5048723915,
				"y": 0.4204150736,
				"z": -0.7751574024,
				"element": "N" 
			},
			{
				"x": -3.5505201862,
				"y": 0.7862594898,
				"z": -0.3430772994,
				"element": "C" 
			},
			{
				"x": -4.9418988991,
				"y": 1.2799747753,
				"z": 0.2413730239,
				"element": "S" 
			},
			{
				"x": -0.1649393229,
				"y": 1.2528042235,
				"z": 0.0477293183,
				"element": "H" 
			},
			{
				"x": 2.0333341525,
				"y": 0.5038948778,
				"z": -0.8510153188,
				"element": "H" 
			}
		],
		 "valence_orbital": [ 
			{
				"type": "occ",
				"energy": -0.3195,
				"method": "rhf"
			},
			{
				"type": "occ",
				"energy": -0.29713,
				"method": "rhf"
			},
			{
				"type": "occ",
				"energy": -0.27462,
				"method": "rhf"
			},
			{
				"type": "occ",
				"energy": -0.26613,
				"method": "rhf"
			},
			{
				"type": "occ",
				"energy": -0.24363,
				"method": "rhf"
			},
			{
				"type": "unocc",
				"energy": -0.0717,
				"method": "rhf"
			},
			{
				"type": "unocc",
				"energy": -0.04971,
				"method": "rhf"
			},
			{
				"type": "unocc",
				"energy": -0.03185,
				"method": "rhf"
			},
			{
				"type": "unocc",
				"energy": -0.01161,
				"method": "rhf"
			},
			{
				"type": "unocc",
				"energy": 0.02337,
				"method": "rhf"
			}
		],
		"cosmo_sigma_profile": { 
			"-0.025": 0.0,
			"-0.024": 0.0,
			"-0.023": 0.0,
			"-0.022": 0.0,
			"-0.021": 0.0,
			"-0.02": 0.0,
			"-0.019": 0.0,
			"-0.018": 0.0,
			"-0.017": 0.0,
			"-0.016": 0.0,
			"-0.015": 0.0,
			"-0.014": 0.0,
			"-0.013": 0.0,
			"-0.012": 0.0,
			"-0.011": 0.0,
			"-0.01": 0.159388720454,
			"-0.009": 3.73486836124,
			"-0.008": 5.19721334624,
			"-0.007": 3.79387118296,
			"-0.006": 3.52852513075,
			"-0.005": 3.56175406806,
			"-0.004": 6.98512770025,
			"-0.003": 15.9830761471,
			"-0.002": 29.6456922422,
			"-0.001": 27.7347828207,
			"0.0": 25.4599809852,
			"0.001": 20.388439792,
			"0.002": 23.4847085316,
			"0.003": 29.2125757461,
			"0.004": 16.9182482082,
			"0.005": 14.1673898842,
			"0.006": 1.96700008781,
			"0.007": 0.0,
			"0.008": 0.0,
			"0.009": 0.0,
			"0.01": 0.0,
			"0.011": 0.0,
			"0.012": 0.0,
			"0.013": 0.0,
			"0.014": 0.0,
			"0.015": 0.0,
			"0.016": 0.0,
			"0.017": 0.0,
			"0.018": 0.0,
			"0.019": 0.0,
			"0.02": 0.0,
			"0.021": 0.0,
			"0.022": 0.0,
			"0.023": 0.0,
			"0.024": 0.0,
			"0.025": 0.0
		}
	}
}
