{
	 "smiles": "O=C1CCN(C1)C1=CC=CC=C1", 
	 "Tm": 368.15, 
	 "num_atms": 23, 
	 "gaussian": { 
		 "optdone": 1, 
		 "sigma_profile": "yes", 
		 "theory": "DFT", 
		 "functional": "B3LYP", 
		 "basiset": "6-31G**", 
		 "properties": { 
			 "R2extent": 2685.351, 
			 "electric_dipole_moment_norm": 1.80074514299, 
			 "electric_quadrupole_moment_norm": 11.2113758714, 
			 "total_energy": -517.657616563, 
			 "HOMO_LUMO_gap": 0.16589, 
			 "cosmo_polarized_energy": -9.56, 
			 "cosmo_cavitation_energy": 25.72, 
			 "cosmo_dispersion_energy": -19.26, 
			 "cosmo_repulsion_energy": 1.53, 
			 "cosmo_total_nonelectrostatic_energy": 7.99, 
			 "SMD_solvation_energy": 3.64 
		},
		"coords": [
			{
				"x": -2.3149424081,
				"y": 2.5980740258,
				"z": -1.6579429098,
				"element": "O" 
			},
			{
				"x": -2.0600926434,
				"y": 1.4660842941,
				"z": -1.3189884767,
				"element": "C" 
			},
			{
				"x": -2.5071014201,
				"y": 0.1829835502,
				"z": -2.0123717481,
				"element": "C" 
			},
			{
				"x": -1.6054470543,
				"y": -0.9066319359,
				"z": -1.4237193192,
				"element": "C" 
			},
			{
				"x": -1.1876585058,
				"y": -0.3711587814,
				"z": -0.1229807275,
				"element": "N" 
			},
			{
				"x": -1.2206559788,
				"y": 1.0804547249,
				"z": -0.1015481643,
				"element": "C" 
			},
			{
				"x": -0.33909887,
				"y": -1.0869757707,
				"z": 0.7163478923,
				"element": "C" 
			},
			{
				"x": -0.0470507101,
				"y": -2.4464150899,
				"z": 0.4756509106,
				"element": "C" 
			},
			{
				"x": 0.7786102432,
				"y": -3.1586137672,
				"z": 1.342797469,
				"element": "C" 
			},
			{
				"x": 1.3432444237,
				"y": -2.5485614133,
				"z": 2.4637674157,
				"element": "C" 
			},
			{
				"x": 1.0656818818,
				"y": -1.2019691537,
				"z": 2.7038962643,
				"element": "C" 
			},
			{
				"x": 0.2414853231,
				"y": -0.4751553991,
				"z": 1.8481094031,
				"element": "C" 
			},
			{
				"x": -2.4464890074,
				"y": 0.2817794816,
				"z": -3.0983975388,
				"element": "H" 
			},
			{
				"x": -3.5596965274,
				"y": 0.0162703989,
				"z": -1.7516454459,
				"element": "H" 
			},
			{
				"x": -0.7408698304,
				"y": -1.1027913117,
				"z": -2.0796721979,
				"element": "H" 
			},
			{
				"x": -2.1365854983,
				"y": -1.8543278114,
				"z": -1.292094743,
				"element": "H" 
			},
			{
				"x": -0.22381373,
				"y": 1.5463225387,
				"z": -0.1866916823,
				"element": "H" 
			},
			{
				"x": -1.6864400845,
				"y": 1.4816236989,
				"z": 0.8087181554,
				"element": "H" 
			},
			{
				"x": -0.4616466437,
				"y": -2.9502001471,
				"z": -0.3898111176,
				"element": "H" 
			},
			{
				"x": 0.9850704834,
				"y": -4.2043896569,
				"z": 1.131125271,
				"element": "H" 
			},
			{
				"x": 1.9881428588,
				"y": -3.1089020412,
				"z": 3.1331917823,
				"element": "H" 
			},
			{
				"x": 1.4962902901,
				"y": -0.7033469891,
				"z": 3.5681408074,
				"element": "H" 
			},
			{
				"x": 0.0426634081,
				"y": 0.5684465553,
				"z": 2.0646187,
				"element": "H" 
			}
		],
		 "valence_orbital": [ 
			{
				"type": "occ",
				"energy": -0.33487,
				"method": "rhf"
			},
			{
				"type": "occ",
				"energy": -0.28671,
				"method": "rhf"
			},
			{
				"type": "occ",
				"energy": -0.25574,
				"method": "rhf"
			},
			{
				"type": "occ",
				"energy": -0.24557,
				"method": "rhf"
			},
			{
				"type": "occ",
				"energy": -0.19637,
				"method": "rhf"
			},
			{
				"type": "unocc",
				"energy": -0.03048,
				"method": "rhf"
			},
			{
				"type": "unocc",
				"energy": 0.00375,
				"method": "rhf"
			},
			{
				"type": "unocc",
				"energy": 0.0182,
				"method": "rhf"
			},
			{
				"type": "unocc",
				"energy": 0.08063,
				"method": "rhf"
			},
			{
				"type": "unocc",
				"energy": 0.09826,
				"method": "rhf"
			}
		],
		"cosmo_sigma_profile": { 
			"-0.025": 0.0,
			"-0.024": 0.0,
			"-0.023": 0.0,
			"-0.022": 0.0,
			"-0.021": 0.0,
			"-0.02": 0.0,
			"-0.019": 0.0,
			"-0.018": 0.0,
			"-0.017": 0.0,
			"-0.016": 0.0,
			"-0.015": 0.0,
			"-0.014": 0.0,
			"-0.013": 0.0,
			"-0.012": 0.0,
			"-0.011": 0.0,
			"-0.01": 0.0,
			"-0.009": 0.0,
			"-0.008": 0.0293145551162,
			"-0.007": 4.29505012106,
			"-0.006": 15.8371767711,
			"-0.005": 22.5546303746,
			"-0.004": 24.4506968199,
			"-0.003": 21.5996364005,
			"-0.002": 16.6947041521,
			"-0.001": 10.083003806,
			"0.0": 9.0093601594,
			"0.001": 7.3835061912,
			"0.002": 7.35667570977,
			"0.003": 8.05049333786,
			"0.004": 8.34077820772,
			"0.005": 10.4284196605,
			"0.006": 10.7194602627,
			"0.007": 9.98231409742,
			"0.008": 3.3461433457,
			"0.009": 2.2844989715,
			"0.01": 2.38689803628,
			"0.011": 4.82173531487,
			"0.012": 3.5945251913,
			"0.013": 0.668813300417,
			"0.014": 0.0,
			"0.015": 0.0,
			"0.016": 0.0,
			"0.017": 0.0,
			"0.018": 0.0,
			"0.019": 0.0,
			"0.02": 0.0,
			"0.021": 0.0,
			"0.022": 0.0,
			"0.023": 0.0,
			"0.024": 0.0,
			"0.025": 0.0
		}
	}
}
