{
	 "smiles": "CNC1=C(C(O)=O)C(C)=NS1", 
	 "Tm": 425.15, 
	 "num_atms": 19, 
	 "gaussian": { 
		 "optdone": 1, 
		 "sigma_profile": "yes", 
		 "theory": "DFT", 
		 "functional": "B3LYP", 
		 "basiset": "6-31G**", 
		 "properties": { 
			 "R2extent": 1991.0098, 
			 "electric_dipole_moment_norm": 4.30354710675, 
			 "electric_quadrupole_moment_norm": 7.39044149899, 
			 "total_energy": -891.59635089, 
			 "HOMO_LUMO_gap": 0.1895, 
			 "cosmo_polarized_energy": -14.27, 
			 "cosmo_cavitation_energy": 24.28, 
			 "cosmo_dispersion_energy": -18.59, 
			 "cosmo_repulsion_energy": 1.45, 
			 "cosmo_total_nonelectrostatic_energy": 7.14, 
			 "SMD_solvation_energy": 3.37 
		},
		"coords": [
			{
				"x": -0.0505976018,
				"y": 0.8530643333,
				"z": 3.0860468102,
				"element": "C" 
			},
			{
				"x": -0.8034658737,
				"y": -0.1183487139,
				"z": 2.2854993773,
				"element": "N" 
			},
			{
				"x": -0.6557100565,
				"y": -0.2424144286,
				"z": 0.9276941732,
				"element": "C" 
			},
			{
				"x": 0.4674758812,
				"y": -0.3075253598,
				"z": 0.09736816,
				"element": "C" 
			},
			{
				"x": 1.8789302878,
				"y": -0.431246385,
				"z": 0.4792800887,
				"element": "C" 
			},
			{
				"x": 2.0773161694,
				"y": -0.765181011,
				"z": 1.7868240522,
				"element": "O" 
			},
			{
				"x": 2.8270350155,
				"y": -0.3076151803,
				"z": -0.276271241,
				"element": "O" 
			},
			{
				"x": 0.0629475169,
				"y": -0.4063458349,
				"z": -1.2934316103,
				"element": "C" 
			},
			{
				"x": 0.9956739073,
				"y": -0.4923607713,
				"z": -2.4683860711,
				"element": "C" 
			},
			{
				"x": -1.2269528016,
				"y": -0.4547505377,
				"z": -1.5379819459,
				"element": "N" 
			},
			{
				"x": -2.0781019856,
				"y": -0.3147796944,
				"z": -0.0864680108,
				"element": "S" 
			},
			{
				"x": -0.4183396053,
				"y": 0.7959701031,
				"z": 4.1128818324,
				"element": "H" 
			},
			{
				"x": -0.1842618963,
				"y": 1.8800709244,
				"z": 2.7190638996,
				"element": "H" 
			},
			{
				"x": 1.0078352336,
				"y": 0.6038365924,
				"z": 3.0823616356,
				"element": "H" 
			},
			{
				"x": -1.769589432,
				"y": -0.186371965,
				"z": 2.5778447854,
				"element": "H" 
			},
			{
				"x": 3.0421456032,
				"y": -0.8384725828,
				"z": 1.8795317432,
				"element": "H" 
			},
			{
				"x": 0.4035882187,
				"y": -0.593734204,
				"z": -3.3795626135,
				"element": "H" 
			},
			{
				"x": 1.6258631029,
				"y": 0.3985166951,
				"z": -2.5317998543,
				"element": "H" 
			},
			{
				"x": 1.6750083164,
				"y": -1.3438119796,
				"z": -2.3724952111,
				"element": "H" 
			}
		],
		 "valence_orbital": [ 
			{
				"type": "occ",
				"energy": -0.31632,
				"method": "rhf"
			},
			{
				"type": "occ",
				"energy": -0.28346,
				"method": "rhf"
			},
			{
				"type": "occ",
				"energy": -0.27545,
				"method": "rhf"
			},
			{
				"type": "occ",
				"energy": -0.25591,
				"method": "rhf"
			},
			{
				"type": "occ",
				"energy": -0.22612,
				"method": "rhf"
			},
			{
				"type": "unocc",
				"energy": -0.03662,
				"method": "rhf"
			},
			{
				"type": "unocc",
				"energy": -0.00604,
				"method": "rhf"
			},
			{
				"type": "unocc",
				"energy": 0.0038,
				"method": "rhf"
			},
			{
				"type": "unocc",
				"energy": 0.074,
				"method": "rhf"
			},
			{
				"type": "unocc",
				"energy": 0.08435,
				"method": "rhf"
			}
		],
		"cosmo_sigma_profile": { 
			"-0.025": 0.0,
			"-0.024": 0.0,
			"-0.023": 0.0,
			"-0.022": 0.0,
			"-0.021": 0.0,
			"-0.02": 0.0,
			"-0.019": 0.0,
			"-0.018": 0.394842410352,
			"-0.017": 0.692076879112,
			"-0.016": 1.24885496485,
			"-0.015": 1.79451650409,
			"-0.014": 2.66299349668,
			"-0.013": 1.95690919135,
			"-0.012": 1.27722601777,
			"-0.011": 1.81842413085,
			"-0.01": 2.36493932,
			"-0.009": 1.88600978098,
			"-0.008": 2.14279328161,
			"-0.007": 2.51128571311,
			"-0.006": 3.4902039426,
			"-0.005": 6.22927860173,
			"-0.004": 11.1735635964,
			"-0.003": 15.4616787972,
			"-0.002": 21.408856178,
			"-0.001": 16.6383507149,
			"0.0": 18.1840272483,
			"0.001": 14.5482864661,
			"0.002": 11.2001906147,
			"0.003": 8.93481663789,
			"0.004": 8.68182735502,
			"0.005": 4.4804833625,
			"0.006": 5.09336440113,
			"0.007": 4.30477931667,
			"0.008": 4.26058323295,
			"0.009": 3.4797229384,
			"0.01": 4.16149892419,
			"0.011": 4.29597306821,
			"0.012": 4.72384495547,
			"0.013": 1.87421242939,
			"0.014": 0.754997630987,
			"0.015": 0.811250370935,
			"0.016": 0.0259111726209,
			"0.017": 0.0,
			"0.018": 0.0,
			"0.019": 0.0,
			"0.02": 0.0,
			"0.021": 0.0,
			"0.022": 0.0,
			"0.023": 0.0,
			"0.024": 0.0,
			"0.025": 0.0
		}
	}
}
