{
	 "smiles": "CCNC(C)CC1=CC(=CC=C1)C(F)(F)F", 
	 "Tm": 383.15, 
	 "num_atms": 32, 
	 "gaussian": { 
		 "optdone": 1, 
		 "sigma_profile": "yes", 
		 "theory": "DFT", 
		 "functional": "B3LYP", 
		 "basiset": "6-31G**", 
		 "properties": { 
			 "R2extent": 5772.974, 
			 "electric_dipole_moment_norm": 3.15789110642, 
			 "electric_quadrupole_moment_norm": 11.7997117389, 
			 "total_energy": -821.209167854, 
			 "HOMO_LUMO_gap": 0.1962, 
			 "cosmo_polarized_energy": -5.67, 
			 "cosmo_cavitation_energy": 35.33, 
			 "cosmo_dispersion_energy": -23.82, 
			 "cosmo_repulsion_energy": 1.83, 
			 "cosmo_total_nonelectrostatic_energy": 13.35, 
			 "SMD_solvation_energy": 5.99 
		},
		"coords": [
			{
				"x": -0.5671187496,
				"y": -0.9907664225,
				"z": 3.5332147999,
				"element": "C" 
			},
			{
				"x": -0.0236343791,
				"y": 0.2077365574,
				"z": 2.7516705255,
				"element": "C" 
			},
			{
				"x": -0.2778151134,
				"y": 0.0889836521,
				"z": 1.3114309153,
				"element": "N" 
			},
			{
				"x": 0.6623606289,
				"y": -0.7508594217,
				"z": 0.5580713435,
				"element": "C" 
			},
			{
				"x": 2.0203210996,
				"y": -0.0789789028,
				"z": 0.2910630505,
				"element": "C" 
			},
			{
				"x": -0.0134702572,
				"y": -1.2555041453,
				"z": -0.7462395422,
				"element": "C" 
			},
			{
				"x": -0.4437927046,
				"y": -0.1662766294,
				"z": -1.7061571286,
				"element": "C" 
			},
			{
				"x": -1.6474654661,
				"y": 0.5241545134,
				"z": -1.5061514246,
				"element": "C" 
			},
			{
				"x": -2.0435738548,
				"y": 1.5366126197,
				"z": -2.3831766369,
				"element": "C" 
			},
			{
				"x": -1.2488965145,
				"y": 1.8769832303,
				"z": -3.4807561354,
				"element": "C" 
			},
			{
				"x": -0.0533533808,
				"y": 1.192514405,
				"z": -3.6920709454,
				"element": "C" 
			},
			{
				"x": 0.3432467297,
				"y": 0.1834855361,
				"z": -2.8132292004,
				"element": "C" 
			},
			{
				"x": -3.3109801265,
				"y": 2.2988561994,
				"z": -2.1063486503,
				"element": "C" 
			},
			{
				"x": -4.2619417792,
				"y": 1.5155383262,
				"z": -1.5506392833,
				"element": "F" 
			},
			{
				"x": -3.8352187443,
				"y": 2.8382401262,
				"z": -3.2297348835,
				"element": "F" 
			},
			{
				"x": -3.0980979329,
				"y": 3.3227053595,
				"z": -1.2437624259,
				"element": "F" 
			},
			{
				"x": -1.6405156663,
				"y": -1.1049896867,
				"z": 3.3562266098,
				"element": "H" 
			},
			{
				"x": -0.3994260334,
				"y": -0.8577292274,
				"z": 4.6074563795,
				"element": "H" 
			},
			{
				"x": -0.0767169923,
				"y": -1.9245522212,
				"z": 3.2382361798,
				"element": "H" 
			},
			{
				"x": -0.5329426012,
				"y": 1.1147281822,
				"z": 3.0963179592,
				"element": "H" 
			},
			{
				"x": 1.0460265818,
				"y": 0.3458118838,
				"z": 2.9915002999,
				"element": "H" 
			},
			{
				"x": -0.3017944367,
				"y": 1.0144626546,
				"z": 0.892398691,
				"element": "H" 
			},
			{
				"x": 0.8403976216,
				"y": -1.6465751317,
				"z": 1.1658512028,
				"element": "H" 
			},
			{
				"x": 2.485131867,
				"y": 0.2521655514,
				"z": 1.2250438976,
				"element": "H" 
			},
			{
				"x": 2.7185683152,
				"y": -0.7671909152,
				"z": -0.1990446762,
				"element": "H" 
			},
			{
				"x": 1.9035401063,
				"y": 0.7970749821,
				"z": -0.3565863837,
				"element": "H" 
			},
			{
				"x": 0.679629392,
				"y": -1.9352893338,
				"z": -1.2557913268,
				"element": "H" 
			},
			{
				"x": -0.8890586189,
				"y": -1.8426744617,
				"z": -0.4513361231,
				"element": "H" 
			},
			{
				"x": -2.2743885384,
				"y": 0.2644938879,
				"z": -0.6599375683,
				"element": "H" 
			},
			{
				"x": -1.571065601,
				"y": 2.6555204383,
				"z": -4.1633510206,
				"element": "H" 
			},
			{
				"x": 0.5675632866,
				"y": 1.4406567902,
				"z": -4.5478111023,
				"element": "H" 
			},
			{
				"x": 1.2731818622,
				"y": -0.3497383964,
				"z": -2.9937573966,
				"element": "H" 
			}
		],
		 "valence_orbital": [ 
			{
				"type": "occ",
				"energy": -0.33354,
				"method": "rhf"
			},
			{
				"type": "occ",
				"energy": -0.32362,
				"method": "rhf"
			},
			{
				"type": "occ",
				"energy": -0.26312,
				"method": "rhf"
			},
			{
				"type": "occ",
				"energy": -0.25352,
				"method": "rhf"
			},
			{
				"type": "occ",
				"energy": -0.2194,
				"method": "rhf"
			},
			{
				"type": "unocc",
				"energy": -0.0232,
				"method": "rhf"
			},
			{
				"type": "unocc",
				"energy": -0.01309,
				"method": "rhf"
			},
			{
				"type": "unocc",
				"energy": 0.07622,
				"method": "rhf"
			},
			{
				"type": "unocc",
				"energy": 0.09729,
				"method": "rhf"
			},
			{
				"type": "unocc",
				"energy": 0.10261,
				"method": "rhf"
			}
		],
		"cosmo_sigma_profile": { 
			"-0.025": 0.0,
			"-0.024": 0.0,
			"-0.023": 0.0,
			"-0.022": 0.0,
			"-0.021": 0.0,
			"-0.02": 0.0,
			"-0.019": 0.0,
			"-0.018": 0.0,
			"-0.017": 0.0,
			"-0.016": 0.0,
			"-0.015": 0.0,
			"-0.014": 0.0,
			"-0.013": 0.0,
			"-0.012": 0.0,
			"-0.011": 0.0,
			"-0.01": 0.0,
			"-0.009": 0.213813847379,
			"-0.008": 0.901429947629,
			"-0.007": 1.80100841913,
			"-0.006": 5.69329348481,
			"-0.005": 8.28768056356,
			"-0.004": 16.0615580349,
			"-0.003": 26.8337131356,
			"-0.002": 31.2710167904,
			"-0.001": 31.6227604289,
			"0.0": 33.1249692223,
			"0.001": 29.4696632421,
			"0.002": 29.2193673725,
			"0.003": 38.3203207027,
			"0.004": 16.0931341522,
			"0.005": 2.39116060425,
			"0.006": 0.948128264051,
			"0.007": 1.25697360796,
			"0.008": 0.644183856507,
			"0.009": 0.458908860306,
			"0.01": 0.612772254566,
			"0.011": 0.795489331347,
			"0.012": 0.685425476184,
			"0.013": 0.508864674154,
			"0.014": 0.227042231559,
			"0.015": 0.0,
			"0.016": 0.0,
			"0.017": 0.0,
			"0.018": 0.0,
			"0.019": 0.0,
			"0.02": 0.0,
			"0.021": 0.0,
			"0.022": 0.0,
			"0.023": 0.0,
			"0.024": 0.0,
			"0.025": 0.0
		}
	}
}
