{
	 "smiles": "CC(=O)C1=CC(C(C)=O)=C(N)C=C1N", 
	 "Tm": 508.15, 
	 "num_atms": 26, 
	 "gaussian": { 
		 "optdone": 1, 
		 "sigma_profile": "yes", 
		 "theory": "DFT", 
		 "functional": "B3LYP", 
		 "basiset": "6-31G**", 
		 "properties": { 
			 "R2extent": 3249.2611, 
			 "electric_dipole_moment_norm": 5.05642098425, 
			 "electric_quadrupole_moment_norm": 13.4517640977, 
			 "total_energy": -648.27320882, 
			 "HOMO_LUMO_gap": 0.16586, 
			 "cosmo_polarized_energy": -18.33, 
			 "cosmo_cavitation_energy": 29.04, 
			 "cosmo_dispersion_energy": -21.54, 
			 "cosmo_repulsion_energy": 1.68, 
			 "cosmo_total_nonelectrostatic_energy": 9.18, 
			 "SMD_solvation_energy": 5.98 
		},
		"coords": [
			{
				"x": -0.3666800437,
				"y": 2.8370542347,
				"z": 1.1859523948,
				"element": "C" 
			},
			{
				"x": -0.6279890262,
				"y": 2.4008622682,
				"z": -0.2481681573,
				"element": "C" 
			},
			{
				"x": -1.1734232329,
				"y": 3.2036034269,
				"z": -1.0170803031,
				"element": "O" 
			},
			{
				"x": -0.2281089725,
				"y": 1.0501438213,
				"z": -0.6752240374,
				"element": "C" 
			},
			{
				"x": 0.3913902277,
				"y": 0.1668367708,
				"z": 0.2083261315,
				"element": "C" 
			},
			{
				"x": 0.8159478415,
				"y": -1.1277269821,
				"z": -0.113410904,
				"element": "C" 
			},
			{
				"x": 1.5077369763,
				"y": -1.8586299543,
				"z": 0.9857914017,
				"element": "C" 
			},
			{
				"x": 2.1666872173,
				"y": -3.2143604285,
				"z": 0.7575823301,
				"element": "C" 
			},
			{
				"x": 1.5808954928,
				"y": -1.3671078392,
				"z": 2.1086136362,
				"element": "O" 
			},
			{
				"x": 0.5635489419,
				"y": -1.5801091506,
				"z": -1.450553837,
				"element": "C" 
			},
			{
				"x": 0.937461866,
				"y": -2.8308249401,
				"z": -1.911706591,
				"element": "N" 
			},
			{
				"x": -0.053298638,
				"y": -0.7142911292,
				"z": -2.3580323076,
				"element": "C" 
			},
			{
				"x": -0.4520106701,
				"y": 0.5892246688,
				"z": -2.0211877463,
				"element": "C" 
			},
			{
				"x": -1.0456858229,
				"y": 1.3887948981,
				"z": -2.9368353278,
				"element": "N" 
			},
			{
				"x": -0.8765430528,
				"y": 2.1840095663,
				"z": 1.9016107473,
				"element": "H" 
			},
			{
				"x": 0.7018167762,
				"y": 2.8095352007,
				"z": 1.423067735,
				"element": "H" 
			},
			{
				"x": -0.7353943483,
				"y": 3.856633434,
				"z": 1.3013677887,
				"element": "H" 
			},
			{
				"x": 0.5874888457,
				"y": 0.4719818329,
				"z": 1.2295099698,
				"element": "H" 
			},
			{
				"x": 2.7780364328,
				"y": -3.4373260481,
				"z": 1.6328310915,
				"element": "H" 
			},
			{
				"x": 1.4093692537,
				"y": -4.0063762891,
				"z": 0.6731272883,
				"element": "H" 
			},
			{
				"x": 2.7866333464,
				"y": -3.2309063011,
				"z": -0.1434732866,
				"element": "H" 
			},
			{
				"x": 0.5266445621,
				"y": -3.1070551733,
				"z": -2.7918306194,
				"element": "H" 
			},
			{
				"x": 0.9965085078,
				"y": -3.5845316405,
				"z": -1.2478116211,
				"element": "H" 
			},
			{
				"x": -0.2420543179,
				"y": -1.0670867386,
				"z": -3.3701306928,
				"element": "H" 
			},
			{
				"x": -1.1794511897,
				"y": 1.0730536694,
				"z": -3.8826197422,
				"element": "H" 
			},
			{
				"x": -1.3102269734,
				"y": 2.3219988226,
				"z": -2.6351153415,
				"element": "H" 
			}
		],
		 "valence_orbital": [ 
			{
				"type": "occ",
				"energy": -0.29121,
				"method": "rhf"
			},
			{
				"type": "occ",
				"energy": -0.24631,
				"method": "rhf"
			},
			{
				"type": "occ",
				"energy": -0.2379,
				"method": "rhf"
			},
			{
				"type": "occ",
				"energy": -0.22363,
				"method": "rhf"
			},
			{
				"type": "occ",
				"energy": -0.2081,
				"method": "rhf"
			},
			{
				"type": "unocc",
				"energy": -0.04224,
				"method": "rhf"
			},
			{
				"type": "unocc",
				"energy": -0.03218,
				"method": "rhf"
			},
			{
				"type": "unocc",
				"energy": 0.03408,
				"method": "rhf"
			},
			{
				"type": "unocc",
				"energy": 0.06084,
				"method": "rhf"
			},
			{
				"type": "unocc",
				"energy": 0.07551,
				"method": "rhf"
			}
		],
		"cosmo_sigma_profile": { 
			"-0.025": 0.0,
			"-0.024": 0.0,
			"-0.023": 0.0,
			"-0.022": 0.0,
			"-0.021": 0.0,
			"-0.02": 0.0,
			"-0.019": 0.0,
			"-0.018": 0.0,
			"-0.017": 0.0,
			"-0.016": 0.0,
			"-0.015": 0.0,
			"-0.014": 0.648908227277,
			"-0.013": 2.87935756822,
			"-0.012": 4.58653783386,
			"-0.011": 5.65423147726,
			"-0.01": 3.87220248709,
			"-0.009": 4.13119571689,
			"-0.008": 5.61187679066,
			"-0.007": 5.78627539636,
			"-0.006": 6.35866247279,
			"-0.005": 13.0955885128,
			"-0.004": 14.6625032358,
			"-0.003": 14.1729535508,
			"-0.002": 15.2969471845,
			"-0.001": 17.2503829573,
			"0.0": 13.5911334093,
			"0.001": 9.66666349483,
			"0.002": 10.7232615556,
			"0.003": 16.3216207129,
			"0.004": 19.1503769222,
			"0.005": 9.10023655423,
			"0.006": 4.8873101149,
			"0.007": 5.20082535136,
			"0.008": 3.0776678678,
			"0.009": 3.10659591073,
			"0.01": 4.33803900114,
			"0.011": 3.62671490925,
			"0.012": 4.81296969576,
			"0.013": 6.01941086391,
			"0.014": 2.20931970955,
			"0.015": 0.090529552898,
			"0.016": 0.0,
			"0.017": 0.0,
			"0.018": 0.0,
			"0.019": 0.0,
			"0.02": 0.0,
			"0.021": 0.0,
			"0.022": 0.0,
			"0.023": 0.0,
			"0.024": 0.0,
			"0.025": 0.0
		}
	}
}
