{
	 "smiles": "CC1=C(C=C(C=C1)S(C)(=O)=O)C(O)=O", 
	 "Tm": 478.15, 
	 "num_atms": 24, 
	 "gaussian": { 
		 "optdone": 1, 
		 "sigma_profile": "yes", 
		 "theory": "DFT", 
		 "functional": "B3LYP", 
		 "basiset": "6-31G**", 
		 "properties": { 
			 "R2extent": 3794.2348, 
			 "electric_dipole_moment_norm": 7.40648174169, 
			 "electric_quadrupole_moment_norm": 22.2446342903, 
			 "total_energy": -1048.01250482, 
			 "HOMO_LUMO_gap": 0.2094, 
			 "cosmo_polarized_energy": -24.95, 
			 "cosmo_cavitation_energy": 29.54, 
			 "cosmo_dispersion_energy": -21.72, 
			 "cosmo_repulsion_energy": 1.66, 
			 "cosmo_total_nonelectrostatic_energy": 9.47, 
			 "SMD_solvation_energy": 5.89 
		},
		"coords": [
			{
				"x": -3.0615979364,
				"y": -0.0529396813,
				"z": -1.1473341273,
				"element": "C" 
			},
			{
				"x": -1.6338702938,
				"y": -0.2526382544,
				"z": -0.678972945,
				"element": "C" 
			},
			{
				"x": -0.5036553889,
				"y": -0.0963392651,
				"z": -1.515210601,
				"element": "C" 
			},
			{
				"x": 0.7792517412,
				"y": -0.3668412035,
				"z": -1.0172639624,
				"element": "C" 
			},
			{
				"x": 0.9490742846,
				"y": -0.7275593894,
				"z": 0.3138241045,
				"element": "C" 
			},
			{
				"x": -0.1501295463,
				"y": -0.8781779304,
				"z": 1.1598378163,
				"element": "C" 
			},
			{
				"x": -1.4249678056,
				"y": -0.6520810508,
				"z": 0.6502126823,
				"element": "C" 
			},
			{
				"x": 2.6049238701,
				"y": -1.0506775136,
				"z": 0.9515829318,
				"element": "S" 
			},
			{
				"x": 3.2208505982,
				"y": 0.5948449262,
				"z": 1.381778219,
				"element": "C" 
			},
			{
				"x": 2.451858238,
				"y": -1.8088087153,
				"z": 2.2030648835,
				"element": "O" 
			},
			{
				"x": 3.4284758409,
				"y": -1.5557890315,
				"z": -0.1552725201,
				"element": "O" 
			},
			{
				"x": -0.5418518274,
				"y": 0.2946404353,
				"z": -2.971486804,
				"element": "C" 
			},
			{
				"x": -1.5306154015,
				"y": 1.1357044871,
				"z": -3.3743564316,
				"element": "O" 
			},
			{
				"x": 0.2791556837,
				"y": -0.0875810863,
				"z": -3.7692822577,
				"element": "O" 
			},
			{
				"x": -3.2189804806,
				"y": -0.3927190432,
				"z": -2.1734485464,
				"element": "H" 
			},
			{
				"x": -3.3707142264,
				"y": 1.0011731573,
				"z": -1.0896635928,
				"element": "H" 
			},
			{
				"x": -3.7494396208,
				"y": -0.6035657216,
				"z": -0.5013721283,
				"element": "H" 
			},
			{
				"x": 1.6261714128,
				"y": -0.3105270314,
				"z": -1.6927363478,
				"element": "H" 
			},
			{
				"x": -0.0011782487,
				"y": -1.1980927149,
				"z": 2.1856796586,
				"element": "H" 
			},
			{
				"x": -2.28750757,
				"y": -0.8017055383,
				"z": 1.293584003,
				"element": "H" 
			},
			{
				"x": 4.2269792045,
				"y": 0.4470803511,
				"z": 1.7797466392,
				"element": "H" 
			},
			{
				"x": 3.256131612,
				"y": 1.2124833746,
				"z": 0.4833547722,
				"element": "H" 
			},
			{
				"x": 2.5731412231,
				"y": 1.0349289907,
				"z": 2.1412706146,
				"element": "H" 
			},
			{
				"x": -2.0323053628,
				"y": 1.4627874488,
				"z": -2.6161360607,
				"element": "H" 
			}
		],
		 "valence_orbital": [ 
			{
				"type": "occ",
				"energy": -0.30107,
				"method": "rhf"
			},
			{
				"type": "occ",
				"energy": -0.29645,
				"method": "rhf"
			},
			{
				"type": "occ",
				"energy": -0.2941,
				"method": "rhf"
			},
			{
				"type": "occ",
				"energy": -0.28297,
				"method": "rhf"
			},
			{
				"type": "occ",
				"energy": -0.27718,
				"method": "rhf"
			},
			{
				"type": "unocc",
				"energy": -0.06778,
				"method": "rhf"
			},
			{
				"type": "unocc",
				"energy": -0.04926,
				"method": "rhf"
			},
			{
				"type": "unocc",
				"energy": 0.01956,
				"method": "rhf"
			},
			{
				"type": "unocc",
				"energy": 0.04714,
				"method": "rhf"
			},
			{
				"type": "unocc",
				"energy": 0.06067,
				"method": "rhf"
			}
		],
		"cosmo_sigma_profile": { 
			"-0.025": 0.0,
			"-0.024": 0.0,
			"-0.023": 0.0,
			"-0.022": 0.0,
			"-0.021": 0.0,
			"-0.02": 0.0,
			"-0.019": 0.0,
			"-0.018": 0.200850649356,
			"-0.017": 1.26815833503,
			"-0.016": 0.928690197489,
			"-0.015": 0.819005115682,
			"-0.014": 1.08983656893,
			"-0.013": 0.875987683253,
			"-0.012": 1.1816572054,
			"-0.011": 1.19734063516,
			"-0.01": 0.777089860197,
			"-0.009": 3.64198711279,
			"-0.008": 9.49892699683,
			"-0.007": 14.6569007021,
			"-0.006": 15.9136371491,
			"-0.005": 17.1492815976,
			"-0.004": 18.1584364596,
			"-0.003": 14.9310325944,
			"-0.002": 14.8374532754,
			"-0.001": 11.0354787818,
			"0.0": 11.674018185,
			"0.001": 15.2624951247,
			"0.002": 8.10278197426,
			"0.003": 5.66367011668,
			"0.004": 4.0898973819,
			"0.005": 3.29991407594,
			"0.006": 4.53998900372,
			"0.007": 5.48526449336,
			"0.008": 5.187261786,
			"0.009": 7.27092468883,
			"0.01": 9.91324466395,
			"0.011": 14.5708092475,
			"0.012": 11.2179693117,
			"0.013": 0.903232481184,
			"0.014": 0.0,
			"0.015": 0.0,
			"0.016": 0.0,
			"0.017": 0.0,
			"0.018": 0.0,
			"0.019": 0.0,
			"0.02": 0.0,
			"0.021": 0.0,
			"0.022": 0.0,
			"0.023": 0.0,
			"0.024": 0.0,
			"0.025": 0.0
		}
	}
}
