{
	 "smiles": "CCOC(=O)C1=C(NC(=O)CCl)SC(C)=C1CC", 
	 "Tm": 371.15, 
	 "num_atms": 34, 
	 "gaussian": { 
		 "optdone": 1, 
		 "sigma_profile": "yes", 
		 "theory": "DFT", 
		 "functional": "B3LYP", 
		 "basiset": "6-31G**", 
		 "properties": { 
			 "R2extent": 6705.58, 
			 "electric_dipole_moment_norm": 2.52084720679, 
			 "electric_quadrupole_moment_norm": 20.1324095833, 
			 "total_energy": -1605.74924186, 
			 "HOMO_LUMO_gap": 0.1569, 
			 "cosmo_polarized_energy": -12.03, 
			 "cosmo_cavitation_energy": 39.73, 
			 "cosmo_dispersion_energy": -28.09, 
			 "cosmo_repulsion_energy": 2.18, 
			 "cosmo_total_nonelectrostatic_energy": 13.82, 
			 "SMD_solvation_energy": 7.9 
		},
		"coords": [
			{
				"x": 2.6463696253,
				"y": -3.0660290183,
				"z": -1.5570179233,
				"element": "C" 
			},
			{
				"x": 1.1387067697,
				"y": -2.9655490455,
				"z": -1.3883799531,
				"element": "C" 
			},
			{
				"x": 0.7734197418,
				"y": -1.8389208738,
				"z": -0.5484366824,
				"element": "O" 
			},
			{
				"x": 0.6638711549,
				"y": -0.6198271835,
				"z": -1.1608241361,
				"element": "C" 
			},
			{
				"x": 0.8390560591,
				"y": -0.4964609679,
				"z": -2.3594532179,
				"element": "O" 
			},
			{
				"x": 0.3061230654,
				"y": 0.4696789276,
				"z": -0.2309655145,
				"element": "C" 
			},
			{
				"x": 0.2244177192,
				"y": 0.3503045763,
				"z": 1.1578945115,
				"element": "C" 
			},
			{
				"x": 0.4305511822,
				"y": -0.8131724483,
				"z": 1.8842765331,
				"element": "N" 
			},
			{
				"x": 0.7300828694,
				"y": -1.1156102539,
				"z": 3.2029951712,
				"element": "C" 
			},
			{
				"x": 0.9664959105,
				"y": -2.2742291375,
				"z": 3.5071978971,
				"element": "O" 
			},
			{
				"x": 0.7800059019,
				"y": -0.0208855144,
				"z": 4.258761588,
				"element": "C" 
			},
			{
				"x": -0.8685309387,
				"y": 0.2980830813,
				"z": 4.9440724231,
				"element": "Cl" 
			},
			{
				"x": -0.2451695479,
				"y": 1.8603259059,
				"z": 1.8858895136,
				"element": "S" 
			},
			{
				"x": -0.2791988396,
				"y": 2.67537917,
				"z": 0.3324258315,
				"element": "C" 
			},
			{
				"x": -0.6332518445,
				"y": 4.1343204117,
				"z": 0.3202820882,
				"element": "C" 
			},
			{
				"x": 0.0221751592,
				"y": 1.8228043673,
				"z": -0.6937441257,
				"element": "C" 
			},
			{
				"x": 0.0291578834,
				"y": 2.2557280393,
				"z": -2.143971403,
				"element": "C" 
			},
			{
				"x": -1.256868838,
				"y": 1.8780594893,
				"z": -2.8999875592,
				"element": "C" 
			},
			{
				"x": 3.0319086888,
				"y": -2.1963869054,
				"z": -2.0942428792,
				"element": "H" 
			},
			{
				"x": 3.1451786997,
				"y": -3.136428177,
				"z": -0.5859685028,
				"element": "H" 
			},
			{
				"x": 2.8927745553,
				"y": -3.9633418432,
				"z": -2.1343194224,
				"element": "H" 
			},
			{
				"x": 0.7329634284,
				"y": -3.8323567493,
				"z": -0.8620779997,
				"element": "H" 
			},
			{
				"x": 0.6364608721,
				"y": -2.8541903814,
				"z": -2.3510554151,
				"element": "H" 
			},
			{
				"x": 0.5180758941,
				"y": -1.6331227041,
				"z": 1.2871005037,
				"element": "H" 
			},
			{
				"x": 1.1690924286,
				"y": 0.9284417693,
				"z": 3.8904889643,
				"element": "H" 
			},
			{
				"x": 1.3936737778,
				"y": -0.3974566843,
				"z": 5.0744527923,
				"element": "H" 
			},
			{
				"x": -0.5966400414,
				"y": 4.5315039288,
				"z": -0.6956054839,
				"element": "H" 
			},
			{
				"x": 0.0573737518,
				"y": 4.7249485803,
				"z": 0.9334524825,
				"element": "H" 
			},
			{
				"x": -1.6446773623,
				"y": 4.3092077141,
				"z": 0.7053191178,
				"element": "H" 
			},
			{
				"x": 0.1662876694,
				"y": 3.3407391783,
				"z": -2.1877518128,
				"element": "H" 
			},
			{
				"x": 0.883071373,
				"y": 1.8043378849,
				"z": -2.6513772628,
				"element": "H" 
			},
			{
				"x": -2.139926439,
				"y": 2.3210371599,
				"z": -2.4275900139,
				"element": "H" 
			},
			{
				"x": -1.3868745546,
				"y": 0.7936021912,
				"z": -2.9260562109,
				"element": "H" 
			},
			{
				"x": -1.209455775,
				"y": 2.2338655123,
				"z": -3.9344838994,
				"element": "H" 
			}
		],
		 "valence_orbital": [ 
			{
				"type": "occ",
				"energy": -0.3045,
				"method": "rhf"
			},
			{
				"type": "occ",
				"energy": -0.28062,
				"method": "rhf"
			},
			{
				"type": "occ",
				"energy": -0.27224,
				"method": "rhf"
			},
			{
				"type": "occ",
				"energy": -0.25915,
				"method": "rhf"
			},
			{
				"type": "occ",
				"energy": -0.21501,
				"method": "rhf"
			},
			{
				"type": "unocc",
				"energy": -0.05811,
				"method": "rhf"
			},
			{
				"type": "unocc",
				"energy": -0.01908,
				"method": "rhf"
			},
			{
				"type": "unocc",
				"energy": 0.00644,
				"method": "rhf"
			},
			{
				"type": "unocc",
				"energy": 0.01059,
				"method": "rhf"
			},
			{
				"type": "unocc",
				"energy": 0.05655,
				"method": "rhf"
			}
		],
		"cosmo_sigma_profile": { 
			"-0.025": 0.0,
			"-0.024": 0.0,
			"-0.023": 0.0,
			"-0.022": 0.0,
			"-0.021": 0.0,
			"-0.02": 0.0,
			"-0.019": 0.0,
			"-0.018": 0.0,
			"-0.017": 0.0,
			"-0.016": 0.0,
			"-0.015": 0.0,
			"-0.014": 0.0,
			"-0.013": 0.0,
			"-0.012": 0.0,
			"-0.011": 0.0,
			"-0.01": 0.114795535465,
			"-0.009": 2.50625963668,
			"-0.008": 4.146015324,
			"-0.007": 5.67831589152,
			"-0.006": 9.12356414952,
			"-0.005": 15.2247346555,
			"-0.004": 24.3344212142,
			"-0.003": 28.2567901505,
			"-0.002": 33.2813505671,
			"-0.001": 38.789170842,
			"0.0": 35.1409703045,
			"0.001": 28.7268780236,
			"0.002": 22.2689251845,
			"0.003": 14.6479332602,
			"0.004": 14.7359134328,
			"0.005": 12.5591324894,
			"0.006": 3.50045623288,
			"0.007": 2.40015260622,
			"0.008": 3.34393114048,
			"0.009": 3.04329824991,
			"0.01": 3.41827484998,
			"0.011": 5.22632305662,
			"0.012": 6.40629764532,
			"0.013": 1.154173532,
			"0.014": 0.0,
			"0.015": 0.0,
			"0.016": 0.0,
			"0.017": 0.0,
			"0.018": 0.0,
			"0.019": 0.0,
			"0.02": 0.0,
			"0.021": 0.0,
			"0.022": 0.0,
			"0.023": 0.0,
			"0.024": 0.0,
			"0.025": 0.0
		}
	}
}
