{
	 "smiles": "CC1=C(SC2=CC=C(Cl)C=C12)S(Cl)(=O)=O", 
	 "Tm": 426.15, 
	 "num_atms": 21, 
	 "gaussian": { 
		 "optdone": 1, 
		 "sigma_profile": "yes", 
		 "theory": "DFT", 
		 "functional": "B3LYP", 
		 "basiset": "6-31G**", 
		 "properties": { 
			 "R2extent": 5727.5647, 
			 "electric_dipole_moment_norm": 4.19719265819, 
			 "electric_quadrupole_moment_norm": 21.0885264938, 
			 "total_energy": -2213.7132606, 
			 "HOMO_LUMO_gap": 0.14845, 
			 "cosmo_polarized_energy": -9.61, 
			 "cosmo_cavitation_energy": 31.97, 
			 "cosmo_dispersion_energy": -24.24, 
			 "cosmo_repulsion_energy": 1.8, 
			 "cosmo_total_nonelectrostatic_energy": 9.53, 
			 "SMD_solvation_energy": 3.3 
		},
		"coords": [
			{
				"x": -0.1318688636,
				"y": 0.5946505877,
				"z": -2.1895948126,
				"element": "C" 
			},
			{
				"x": 0.3015827,
				"y": 0.3765359757,
				"z": -0.7693204869,
				"element": "C" 
			},
			{
				"x": 1.536415869,
				"y": -0.0175257682,
				"z": -0.3208250022,
				"element": "C" 
			},
			{
				"x": 1.6808947339,
				"y": -0.2157122834,
				"z": 1.4217803267,
				"element": "S" 
			},
			{
				"x": 0.0088261878,
				"y": 0.2641131355,
				"z": 1.5975012507,
				"element": "C" 
			},
			{
				"x": -0.7042777903,
				"y": 0.3841075321,
				"z": 2.7967564382,
				"element": "C" 
			},
			{
				"x": -2.0313465143,
				"y": 0.7858149056,
				"z": 2.7460758794,
				"element": "C" 
			},
			{
				"x": -2.6364762063,
				"y": 1.0693088441,
				"z": 1.5066795243,
				"element": "C" 
			},
			{
				"x": -4.3169461362,
				"y": 1.5752583963,
				"z": 1.4859554193,
				"element": "Cl" 
			},
			{
				"x": -1.9438475473,
				"y": 0.9608239298,
				"z": 0.3130744123,
				"element": "C" 
			},
			{
				"x": -0.5962013698,
				"y": 0.5518843196,
				"z": 0.3504258835,
				"element": "C" 
			},
			{
				"x": 2.9678210545,
				"y": -0.3799920742,
				"z": -1.2874709578,
				"element": "S" 
			},
			{
				"x": 2.5291710684,
				"y": -2.3378486777,
				"z": -2.0119191746,
				"element": "Cl" 
			},
			{
				"x": 3.0197886387,
				"y": 0.4738732827,
				"z": -2.4673503135,
				"element": "O" 
			},
			{
				"x": 4.0976169532,
				"y": -0.5228863532,
				"z": -0.3788787969,
				"element": "O" 
			},
			{
				"x": 0.6802098909,
				"y": 0.4472274038,
				"z": -2.8987311877,
				"element": "H" 
			},
			{
				"x": -0.5101783198,
				"y": 1.6154207586,
				"z": -2.3143322984,
				"element": "H" 
			},
			{
				"x": -0.9495268478,
				"y": -0.0901608247,
				"z": -2.4414396916,
				"element": "H" 
			},
			{
				"x": -0.2360318212,
				"y": 0.1658077839,
				"z": 3.7509627747,
				"element": "H" 
			},
			{
				"x": -2.6102029508,
				"y": 0.8835656433,
				"z": 3.657446265,
				"element": "H" 
			},
			{
				"x": -2.432322729,
				"y": 1.1864334829,
				"z": -0.6277954517,
				"element": "H" 
			}
		],
		 "valence_orbital": [ 
			{
				"type": "occ",
				"energy": -0.32743,
				"method": "rhf"
			},
			{
				"type": "occ",
				"energy": -0.31878,
				"method": "rhf"
			},
			{
				"type": "occ",
				"energy": -0.31144,
				"method": "rhf"
			},
			{
				"type": "occ",
				"energy": -0.26697,
				"method": "rhf"
			},
			{
				"type": "occ",
				"energy": -0.25019,
				"method": "rhf"
			},
			{
				"type": "unocc",
				"energy": -0.10174,
				"method": "rhf"
			},
			{
				"type": "unocc",
				"energy": -0.06104,
				"method": "rhf"
			},
			{
				"type": "unocc",
				"energy": -0.0376,
				"method": "rhf"
			},
			{
				"type": "unocc",
				"energy": -0.01502,
				"method": "rhf"
			},
			{
				"type": "unocc",
				"energy": -0.00032,
				"method": "rhf"
			}
		],
		"cosmo_sigma_profile": { 
			"-0.025": 0.0,
			"-0.024": 0.0,
			"-0.023": 0.0,
			"-0.022": 0.0,
			"-0.021": 0.0,
			"-0.02": 0.0,
			"-0.019": 0.0,
			"-0.018": 0.0,
			"-0.017": 0.0,
			"-0.016": 0.0,
			"-0.015": 0.0,
			"-0.014": 0.0,
			"-0.013": 0.0,
			"-0.012": 0.0,
			"-0.011": 0.0,
			"-0.01": 0.106642374706,
			"-0.009": 2.143865332,
			"-0.008": 6.29348494481,
			"-0.007": 9.07709431475,
			"-0.006": 12.6386785543,
			"-0.005": 9.34398320634,
			"-0.004": 12.4912927947,
			"-0.003": 14.5423877591,
			"-0.002": 22.0495537678,
			"-0.001": 23.3633896088,
			"0.0": 25.2671723011,
			"0.001": 32.4663875128,
			"0.002": 26.2400470562,
			"0.003": 23.3435564963,
			"0.004": 17.1678565677,
			"0.005": 5.98885046942,
			"0.006": 4.37146299457,
			"0.007": 7.11925616291,
			"0.008": 8.5012810566,
			"0.009": 1.90549872426,
			"0.01": 0.0,
			"0.011": 0.0,
			"0.012": 0.0,
			"0.013": 0.0,
			"0.014": 0.0,
			"0.015": 0.0,
			"0.016": 0.0,
			"0.017": 0.0,
			"0.018": 0.0,
			"0.019": 0.0,
			"0.02": 0.0,
			"0.021": 0.0,
			"0.022": 0.0,
			"0.023": 0.0,
			"0.024": 0.0,
			"0.025": 0.0
		}
	}
}
