{
	 "smiles": "COC1=C(Cl)C=C(Cl)C=C1Cl", 
	 "Tm": 334.35, 
	 "num_atms": 16, 
	 "gaussian": { 
		 "optdone": 1, 
		 "sigma_profile": "yes", 
		 "theory": "DFT", 
		 "functional": "B3LYP", 
		 "basiset": "6-31G**", 
		 "properties": { 
			 "R2extent": 3098.78, 
			 "electric_dipole_moment_norm": 1.53835344118, 
			 "electric_quadrupole_moment_norm": 7.06698536223, 
			 "total_energy": -1725.53614813, 
			 "HOMO_LUMO_gap": 0.21555, 
			 "cosmo_polarized_energy": -5.09, 
			 "cosmo_cavitation_energy": 25.67, 
			 "cosmo_dispersion_energy": -19.06, 
			 "cosmo_repulsion_energy": 1.54, 
			 "cosmo_total_nonelectrostatic_energy": 8.15, 
			 "SMD_solvation_energy": 4.44 
		},
		"coords": [
			{
				"x": -3.5324399386,
				"y": -1.4428823274,
				"z": -0.3664886098,
				"element": "C" 
			},
			{
				"x": -2.6492341051,
				"y": -0.7717489715,
				"z": -1.2791492703,
				"element": "O" 
			},
			{
				"x": -1.5041616966,
				"y": -0.2817595701,
				"z": -0.7341053582,
				"element": "C" 
			},
			{
				"x": -1.4331902739,
				"y": 1.0336380969,
				"z": -0.2438342573,
				"element": "C" 
			},
			{
				"x": -2.8691132824,
				"y": 2.0303416755,
				"z": -0.2761116513,
				"element": "Cl" 
			},
			{
				"x": -0.2484883302,
				"y": 1.5723482653,
				"z": 0.2548780413,
				"element": "C" 
			},
			{
				"x": 0.8936921256,
				"y": 0.7750864884,
				"z": 0.267692434,
				"element": "C" 
			},
			{
				"x": 2.392471856,
				"y": 1.4359347895,
				"z": 0.8925108578,
				"element": "Cl" 
			},
			{
				"x": 0.8734372548,
				"y": -0.5337065985,
				"z": -0.2087658173,
				"element": "C" 
			},
			{
				"x": -0.3251816984,
				"y": -1.0463461314,
				"z": -0.7016751232,
				"element": "C" 
			},
			{
				"x": -0.3580053839,
				"y": -2.6836210904,
				"z": -1.3136913455,
				"element": "Cl" 
			},
			{
				"x": -4.3870744663,
				"y": -1.7662731994,
				"z": -0.9618774916,
				"element": "H" 
			},
			{
				"x": -3.8720321171,
				"y": -0.7626647758,
				"z": 0.4218698207,
				"element": "H" 
			},
			{
				"x": -3.0453164038,
				"y": -2.3167192967,
				"z": 0.079235846,
				"element": "H" 
			},
			{
				"x": -0.2219355808,
				"y": 2.5904398734,
				"z": 0.6223134053,
				"element": "H" 
			},
			{
				"x": 1.7675720407,
				"y": -1.1441672278,
				"z": -0.1999014806,
				"element": "H" 
			}
		],
		 "valence_orbital": [ 
			{
				"type": "occ",
				"energy": -0.32005,
				"method": "rhf"
			},
			{
				"type": "occ",
				"energy": -0.31485,
				"method": "rhf"
			},
			{
				"type": "occ",
				"energy": -0.29516,
				"method": "rhf"
			},
			{
				"type": "occ",
				"energy": -0.2641,
				"method": "rhf"
			},
			{
				"type": "occ",
				"energy": -0.25312,
				"method": "rhf"
			},
			{
				"type": "unocc",
				"energy": -0.03757,
				"method": "rhf"
			},
			{
				"type": "unocc",
				"energy": -0.03209,
				"method": "rhf"
			},
			{
				"type": "unocc",
				"energy": -0.01676,
				"method": "rhf"
			},
			{
				"type": "unocc",
				"energy": 0.04092,
				"method": "rhf"
			},
			{
				"type": "unocc",
				"energy": 0.04288,
				"method": "rhf"
			}
		],
		"cosmo_sigma_profile": { 
			"-0.025": 0.0,
			"-0.024": 0.0,
			"-0.023": 0.0,
			"-0.022": 0.0,
			"-0.021": 0.0,
			"-0.02": 0.0,
			"-0.019": 0.0,
			"-0.018": 0.0,
			"-0.017": 0.0,
			"-0.016": 0.0,
			"-0.015": 0.0,
			"-0.014": 0.0,
			"-0.013": 0.0,
			"-0.012": 0.0,
			"-0.011": 0.0,
			"-0.01": 0.0,
			"-0.009": 1.64585232778,
			"-0.008": 3.34085240038,
			"-0.007": 3.16559139681,
			"-0.006": 5.23659124855,
			"-0.005": 9.80966580131,
			"-0.004": 13.7457754445,
			"-0.003": 17.2927698611,
			"-0.002": 14.525692114,
			"-0.001": 19.3775526668,
			"0.0": 29.650151209,
			"0.001": 22.4871680385,
			"0.002": 17.0252537498,
			"0.003": 21.5378513729,
			"0.004": 20.2096920381,
			"0.005": 4.25717517247,
			"0.006": 2.47803556529,
			"0.007": 1.77026223332,
			"0.008": 1.70529730287,
			"0.009": 1.67183433221,
			"0.01": 1.52387181116,
			"0.011": 0.291963602271,
			"0.012": 0.0,
			"0.013": 0.0,
			"0.014": 0.0,
			"0.015": 0.0,
			"0.016": 0.0,
			"0.017": 0.0,
			"0.018": 0.0,
			"0.019": 0.0,
			"0.02": 0.0,
			"0.021": 0.0,
			"0.022": 0.0,
			"0.023": 0.0,
			"0.024": 0.0,
			"0.025": 0.0
		}
	}
}
