{
	 "smiles": "COC1=C(OCC2=CC=CC=C2)C=CC(=C1)C(O)=O", 
	 "Tm": 448.15, 
	 "num_atms": 33, 
	 "gaussian": { 
		 "optdone": 1, 
		 "sigma_profile": "yes", 
		 "theory": "DFT", 
		 "functional": "B3LYP", 
		 "basiset": "6-31G**", 
		 "properties": { 
			 "R2extent": 7571.763, 
			 "electric_dipole_moment_norm": 3.99692511438, 
			 "electric_quadrupole_moment_norm": 31.3617400079, 
			 "total_energy": -880.912186378, 
			 "HOMO_LUMO_gap": 0.18684, 
			 "cosmo_polarized_energy": -17.86, 
			 "cosmo_cavitation_energy": 37.92, 
			 "cosmo_dispersion_energy": -26.7, 
			 "cosmo_repulsion_energy": 2.05, 
			 "cosmo_total_nonelectrostatic_energy": 13.26, 
			 "SMD_solvation_energy": 8.4 
		},
		"coords": [
			{
				"x": -2.1699536981,
				"y": 2.0151422927,
				"z": -1.6202427552,
				"element": "C" 
			},
			{
				"x": -1.2125483317,
				"y": 1.1745413573,
				"z": -0.9852137673,
				"element": "O" 
			},
			{
				"x": 0.0587516987,
				"y": 1.1659177999,
				"z": -1.4758092682,
				"element": "C" 
			},
			{
				"x": 0.9633555241,
				"y": 0.2781401767,
				"z": -0.8388117553,
				"element": "C" 
			},
			{
				"x": 0.5569356793,
				"y": -0.5511470657,
				"z": 0.1687297023,
				"element": "O" 
			},
			{
				"x": 0.1952591712,
				"y": 0.072854422,
				"z": 1.4204874296,
				"element": "C" 
			},
			{
				"x": -0.6379363371,
				"y": -0.8931160274,
				"z": 2.2227822663,
				"element": "C" 
			},
			{
				"x": -1.7570218527,
				"y": -1.5038426788,
				"z": 1.6405940586,
				"element": "C" 
			},
			{
				"x": -2.5523974328,
				"y": -2.3719123898,
				"z": 2.3860141274,
				"element": "C" 
			},
			{
				"x": -2.2440908541,
				"y": -2.6342775421,
				"z": 3.7242350587,
				"element": "C" 
			},
			{
				"x": -1.132376217,
				"y": -2.0288401225,
				"z": 4.3099121412,
				"element": "C" 
			},
			{
				"x": -0.3301125789,
				"y": -1.1664753983,
				"z": 3.5586724933,
				"element": "C" 
			},
			{
				"x": 2.2699904639,
				"y": 0.1769412546,
				"z": -1.3087250276,
				"element": "C" 
			},
			{
				"x": 2.7079634968,
				"y": 0.9533169153,
				"z": -2.3827879694,
				"element": "C" 
			},
			{
				"x": 1.829030562,
				"y": 1.8538410588,
				"z": -2.9916814911,
				"element": "C" 
			},
			{
				"x": 0.5017617923,
				"y": 1.9436685731,
				"z": -2.5415561302,
				"element": "C" 
			},
			{
				"x": 2.2087063544,
				"y": 2.724482865,
				"z": -4.1490400986,
				"element": "C" 
			},
			{
				"x": 3.5385502393,
				"y": 2.9126068341,
				"z": -4.3653852307,
				"element": "O" 
			},
			{
				"x": 1.4009983582,
				"y": 3.2563966629,
				"z": -4.8761278016,
				"element": "O" 
			},
			{
				"x": -1.8860831803,
				"y": 3.0721813685,
				"z": -1.5503451002,
				"element": "H" 
			},
			{
				"x": -2.3000049264,
				"y": 1.7457391261,
				"z": -2.6750121915,
				"element": "H" 
			},
			{
				"x": -3.1071325476,
				"y": 1.8555262206,
				"z": -1.0859967707,
				"element": "H" 
			},
			{
				"x": 1.110647362,
				"y": 0.3434822469,
				"z": 1.9632553631,
				"element": "H" 
			},
			{
				"x": -0.3695322212,
				"y": 0.9890563306,
				"z": 1.2182482369,
				"element": "H" 
			},
			{
				"x": -1.9872980807,
				"y": -1.297229173,
				"z": 0.6000444478,
				"element": "H" 
			},
			{
				"x": -3.4152220063,
				"y": -2.8444390604,
				"z": 1.9248393039,
				"element": "H" 
			},
			{
				"x": -2.865961056,
				"y": -3.3100401999,
				"z": 4.3044935706,
				"element": "H" 
			},
			{
				"x": -0.8826511047,
				"y": -2.2330500924,
				"z": 5.3472268415,
				"element": "H" 
			},
			{
				"x": 0.5427239994,
				"y": -0.7050791284,
				"z": 4.0144963451,
				"element": "H" 
			},
			{
				"x": 2.9280469419,
				"y": -0.5369036328,
				"z": -0.8244817118,
				"element": "H" 
			},
			{
				"x": 3.7208735488,
				"y": 0.8127830091,
				"z": -2.7509522189,
				"element": "H" 
			},
			{
				"x": -0.1578620113,
				"y": 2.6250730464,
				"z": -3.0636257104,
				"element": "H" 
			},
			{
				"x": 4.0479892449,
				"y": 2.5645609506,
				"z": -3.6207363876,
				"element": "H" 
			}
		],
		 "valence_orbital": [ 
			{
				"type": "occ",
				"energy": -0.27124,
				"method": "rhf"
			},
			{
				"type": "occ",
				"energy": -0.25653,
				"method": "rhf"
			},
			{
				"type": "occ",
				"energy": -0.25121,
				"method": "rhf"
			},
			{
				"type": "occ",
				"energy": -0.24516,
				"method": "rhf"
			},
			{
				"type": "occ",
				"energy": -0.23284,
				"method": "rhf"
			},
			{
				"type": "unocc",
				"energy": -0.046,
				"method": "rhf"
			},
			{
				"type": "unocc",
				"energy": -0.01069,
				"method": "rhf"
			},
			{
				"type": "unocc",
				"energy": -0.00743,
				"method": "rhf"
			},
			{
				"type": "unocc",
				"energy": -0.00141,
				"method": "rhf"
			},
			{
				"type": "unocc",
				"energy": 0.05365,
				"method": "rhf"
			}
		],
		"cosmo_sigma_profile": { 
			"-0.025": 0.0,
			"-0.024": 0.0,
			"-0.023": 0.0,
			"-0.022": 0.0,
			"-0.021": 0.0,
			"-0.02": 0.0,
			"-0.019": 0.0536966064953,
			"-0.018": 0.812920164796,
			"-0.017": 0.94730788452,
			"-0.016": 0.766495043683,
			"-0.015": 1.08422990295,
			"-0.014": 1.30962243617,
			"-0.013": 1.01997065297,
			"-0.012": 0.731463352748,
			"-0.011": 1.33720097916,
			"-0.01": 1.29535999414,
			"-0.009": 0.628234913008,
			"-0.008": 1.65076721307,
			"-0.007": 4.66730322108,
			"-0.006": 18.6819985554,
			"-0.005": 24.3522020027,
			"-0.004": 27.8296891353,
			"-0.003": 26.4220564164,
			"-0.002": 18.0069694659,
			"-0.001": 17.6756703997,
			"0.0": 15.8274593006,
			"0.001": 18.8103805072,
			"0.002": 21.4293621642,
			"0.003": 22.723992957,
			"0.004": 15.3783004078,
			"0.005": 14.5059465076,
			"0.006": 13.4998538767,
			"0.007": 3.77389876269,
			"0.008": 3.61506286306,
			"0.009": 4.86406355542,
			"0.01": 5.74680891623,
			"0.011": 6.03051697475,
			"0.012": 5.23149957483,
			"0.013": 1.82818084932,
			"0.014": 0.168358943326,
			"0.015": 0.0,
			"0.016": 0.0,
			"0.017": 0.0,
			"0.018": 0.0,
			"0.019": 0.0,
			"0.02": 0.0,
			"0.021": 0.0,
			"0.022": 0.0,
			"0.023": 0.0,
			"0.024": 0.0,
			"0.025": 0.0
		}
	}
}
