{
	 "smiles": "CC1=C(C)C(C)=C(C)C2=C1CCC2=O", 
	 "Tm": 427.15, 
	 "num_atms": 30, 
	 "gaussian": { 
		 "optdone": 1, 
		 "sigma_profile": "yes", 
		 "theory": "DFT", 
		 "functional": "B3LYP", 
		 "basiset": "6-31G**", 
		 "properties": { 
			 "R2extent": 3151.038, 
			 "electric_dipole_moment_norm": 3.81475500262, 
			 "electric_quadrupole_moment_norm": 13.4570848961, 
			 "total_energy": -580.284088436, 
			 "HOMO_LUMO_gap": 0.18547, 
			 "cosmo_polarized_energy": -8.14, 
			 "cosmo_cavitation_energy": 30.43, 
			 "cosmo_dispersion_energy": -22.48, 
			 "cosmo_repulsion_energy": 1.74, 
			 "cosmo_total_nonelectrostatic_energy": 9.69, 
			 "SMD_solvation_energy": 5.27 
		},
		"coords": [
			{
				"x": 2.3558504834,
				"y": -1.3697774501,
				"z": -1.8544106646,
				"element": "C" 
			},
			{
				"x": 1.4187400491,
				"y": -0.7477669125,
				"z": -0.8402344497,
				"element": "C" 
			},
			{
				"x": 0.0732673408,
				"y": -1.1545567872,
				"z": -0.7223441237,
				"element": "C" 
			},
			{
				"x": -0.4799531944,
				"y": -2.2390836251,
				"z": -1.6206749782,
				"element": "C" 
			},
			{
				"x": -0.7914264476,
				"y": -0.5641590815,
				"z": 0.2346380107,
				"element": "C" 
			},
			{
				"x": -2.2242247429,
				"y": -1.0473315578,
				"z": 0.3119728327,
				"element": "C" 
			},
			{
				"x": -0.3290879512,
				"y": 0.4496375612,
				"z": 1.0936840341,
				"element": "C" 
			},
			{
				"x": -1.2312885769,
				"y": 1.0975461269,
				"z": 2.1216622998,
				"element": "C" 
			},
			{
				"x": 1.0164208045,
				"y": 0.8455364953,
				"z": 0.9623180667,
				"element": "C" 
			},
			{
				"x": 1.8701475338,
				"y": 0.2594468662,
				"z": 0.0172710912,
				"element": "C" 
			},
			{
				"x": 3.2677669796,
				"y": 0.8535075977,
				"z": 0.0705350218,
				"element": "C" 
			},
			{
				"x": 3.1996806074,
				"y": 1.9136083386,
				"z": 1.1859371184,
				"element": "C" 
			},
			{
				"x": 1.763603646,
				"y": 1.8787371245,
				"z": 1.7268015123,
				"element": "C" 
			},
			{
				"x": 1.363620894,
				"y": 2.5982888273,
				"z": 2.6285130992,
				"element": "O" 
			},
			{
				"x": 2.4635151202,
				"y": -2.4500957545,
				"z": -1.7037596814,
				"element": "H" 
			},
			{
				"x": 3.3545147249,
				"y": -0.9339995716,
				"z": -1.7904639171,
				"element": "H" 
			},
			{
				"x": 2.0035792106,
				"y": -1.2225576584,
				"z": -2.8819899816,
				"element": "H" 
			},
			{
				"x": -1.3449785946,
				"y": -1.8807680492,
				"z": -2.1912024001,
				"element": "H" 
			},
			{
				"x": 0.2556288088,
				"y": -2.6057690832,
				"z": -2.3357047676,
				"element": "H" 
			},
			{
				"x": -0.8296138013,
				"y": -3.0994108425,
				"z": -1.0369401333,
				"element": "H" 
			},
			{
				"x": -2.7561893226,
				"y": -0.8810822865,
				"z": -0.6329336635,
				"element": "H" 
			},
			{
				"x": -2.2750664465,
				"y": -2.1243294659,
				"z": 0.5123010745,
				"element": "H" 
			},
			{
				"x": -2.7877154754,
				"y": -0.5429620462,
				"z": 1.095772648,
				"element": "H" 
			},
			{
				"x": -1.6184230176,
				"y": 0.3575260118,
				"z": 2.8320560962,
				"element": "H" 
			},
			{
				"x": -0.690090324,
				"y": 1.8587010236,
				"z": 2.6808158181,
				"element": "H" 
			},
			{
				"x": -2.0994476311,
				"y": 1.5690478766,
				"z": 1.646365815,
				"element": "H" 
			},
			{
				"x": 3.5484052782,
				"y": 1.2938818169,
				"z": -0.893576982,
				"element": "H" 
			},
			{
				"x": 4.0177435951,
				"y": 0.0832163673,
				"z": 0.2860944839,
				"element": "H" 
			},
			{
				"x": 3.8919417771,
				"y": 1.7165538313,
				"z": 2.010846011,
				"element": "H" 
			},
			{
				"x": 3.4176786725,
				"y": 2.9262143066,
				"z": 0.8313507093,
				"element": "H" 
			}
		],
		 "valence_orbital": [ 
			{
				"type": "occ",
				"energy": -0.32335,
				"method": "rhf"
			},
			{
				"type": "occ",
				"energy": -0.31534,
				"method": "rhf"
			},
			{
				"type": "occ",
				"energy": -0.23605,
				"method": "rhf"
			},
			{
				"type": "occ",
				"energy": -0.23017,
				"method": "rhf"
			},
			{
				"type": "occ",
				"energy": -0.22812,
				"method": "rhf"
			},
			{
				"type": "unocc",
				"energy": -0.04265,
				"method": "rhf"
			},
			{
				"type": "unocc",
				"energy": 0.00074,
				"method": "rhf"
			},
			{
				"type": "unocc",
				"energy": 0.0501,
				"method": "rhf"
			},
			{
				"type": "unocc",
				"energy": 0.0846,
				"method": "rhf"
			},
			{
				"type": "unocc",
				"energy": 0.09817,
				"method": "rhf"
			}
		],
		"cosmo_sigma_profile": { 
			"-0.025": 0.0,
			"-0.024": 0.0,
			"-0.023": 0.0,
			"-0.022": 0.0,
			"-0.021": 0.0,
			"-0.02": 0.0,
			"-0.019": 0.0,
			"-0.018": 0.0,
			"-0.017": 0.0,
			"-0.016": 0.0,
			"-0.015": 0.0,
			"-0.014": 0.0,
			"-0.013": 0.0,
			"-0.012": 0.0,
			"-0.011": 0.0,
			"-0.01": 0.0,
			"-0.009": 0.0,
			"-0.008": 0.0,
			"-0.007": 0.0,
			"-0.006": 0.736996742841,
			"-0.005": 6.84523962122,
			"-0.004": 27.6419446704,
			"-0.003": 36.9513494773,
			"-0.002": 28.846332661,
			"-0.001": 27.0055307799,
			"0.0": 33.3924501762,
			"0.001": 20.5618688164,
			"0.002": 12.1288031282,
			"0.003": 7.63659860646,
			"0.004": 8.42737213167,
			"0.005": 8.6914849995,
			"0.006": 3.29399011059,
			"0.007": 1.89217485588,
			"0.008": 2.04222810659,
			"0.009": 1.31267248304,
			"0.01": 1.8377805729,
			"0.011": 2.49997308273,
			"0.012": 3.41028513489,
			"0.013": 2.70119948033,
			"0.014": 1.07968810602,
			"0.015": 0.0201399269314,
			"0.016": 0.0,
			"0.017": 0.0,
			"0.018": 0.0,
			"0.019": 0.0,
			"0.02": 0.0,
			"0.021": 0.0,
			"0.022": 0.0,
			"0.023": 0.0,
			"0.024": 0.0,
			"0.025": 0.0
		}
	}
}
