{
	 "smiles": "CCCCNCC", 
	 "Tm": 195.15, 
	 "num_atms": 22, 
	 "gaussian": { 
		 "optdone": 1, 
		 "sigma_profile": "yes", 
		 "theory": "DFT", 
		 "functional": "B3LYP", 
		 "basiset": "6-31G**", 
		 "properties": { 
			 "R2extent": 1286.0221, 
			 "electric_dipole_moment_norm": 1.18951296756, 
			 "electric_quadrupole_moment_norm": 1.24575645694, 
			 "total_energy": -292.433031067, 
			 "HOMO_LUMO_gap": 0.2928, 
			 "cosmo_polarized_energy": -2.91, 
			 "cosmo_cavitation_energy": 22.76, 
			 "cosmo_dispersion_energy": -16.4, 
			 "cosmo_repulsion_energy": 1.41, 
			 "cosmo_total_nonelectrostatic_energy": 7.77, 
			 "SMD_solvation_energy": 3.24 
		},
		"coords": [
			{
				"x": -1.3984176865,
				"y": -0.5555349354,
				"z": 1.6290396614,
				"element": "C" 
			},
			{
				"x": -2.214051012,
				"y": -0.521106934,
				"z": 0.3305902128,
				"element": "C" 
			},
			{
				"x": -1.5319722614,
				"y": -1.167291161,
				"z": -0.8895592367,
				"element": "C" 
			},
			{
				"x": -0.428661721,
				"y": -0.3281211539,
				"z": -1.5585612423,
				"element": "C" 
			},
			{
				"x": 0.7947878636,
				"y": -0.1478555102,
				"z": -0.7616585829,
				"element": "N" 
			},
			{
				"x": 1.9313774575,
				"y": -0.9906773393,
				"z": -1.1406263855,
				"element": "C" 
			},
			{
				"x": 1.7845089496,
				"y": -2.4450692401,
				"z": -0.6901820282,
				"element": "C" 
			},
			{
				"x": -1.9475545991,
				"y": -0.0801378113,
				"z": 2.449751943,
				"element": "H" 
			},
			{
				"x": -1.1885061159,
				"y": -1.5898855962,
				"z": 1.9269184988,
				"element": "H" 
			},
			{
				"x": -0.4376589312,
				"y": -0.0520081343,
				"z": 1.5048050602,
				"element": "H" 
			},
			{
				"x": -3.1716962902,
				"y": -1.0307458441,
				"z": 0.500965797,
				"element": "H" 
			},
			{
				"x": -2.4713161746,
				"y": 0.5193066339,
				"z": 0.0838397837,
				"element": "H" 
			},
			{
				"x": -2.295195016,
				"y": -1.3542482692,
				"z": -1.6580879333,
				"element": "H" 
			},
			{
				"x": -1.134656183,
				"y": -2.1505595789,
				"z": -0.6092068931,
				"element": "H" 
			},
			{
				"x": -0.1903625848,
				"y": -0.774427094,
				"z": -2.54053216,
				"element": "H" 
			},
			{
				"x": -0.8478061931,
				"y": 0.6644132863,
				"z": -1.771609203,
				"element": "H" 
			},
			{
				"x": 1.0856123182,
				"y": 0.8217659386,
				"z": -0.8178708509,
				"element": "H" 
			},
			{
				"x": 2.8228502406,
				"y": -0.5629800235,
				"z": -0.6664016103,
				"element": "H" 
			},
			{
				"x": 2.1146284546,
				"y": -0.9734500993,
				"z": -2.232861933,
				"element": "H" 
			},
			{
				"x": 1.6044266491,
				"y": -2.4968032056,
				"z": 0.3877624793,
				"element": "H" 
			},
			{
				"x": 0.9534109704,
				"y": -2.944188018,
				"z": -1.1980484314,
				"element": "H" 
			},
			{
				"x": 2.6955518653,
				"y": -3.0078959106,
				"z": -0.9208669455,
				"element": "H" 
			}
		],
		 "valence_orbital": [ 
			{
				"type": "occ",
				"energy": -0.33803,
				"method": "rhf"
			},
			{
				"type": "occ",
				"energy": -0.31979,
				"method": "rhf"
			},
			{
				"type": "occ",
				"energy": -0.31174,
				"method": "rhf"
			},
			{
				"type": "occ",
				"energy": -0.30884,
				"method": "rhf"
			},
			{
				"type": "occ",
				"energy": -0.21353,
				"method": "rhf"
			},
			{
				"type": "unocc",
				"energy": 0.07927,
				"method": "rhf"
			},
			{
				"type": "unocc",
				"energy": 0.10665,
				"method": "rhf"
			},
			{
				"type": "unocc",
				"energy": 0.11687,
				"method": "rhf"
			},
			{
				"type": "unocc",
				"energy": 0.12768,
				"method": "rhf"
			},
			{
				"type": "unocc",
				"energy": 0.13654,
				"method": "rhf"
			}
		],
		"cosmo_sigma_profile": { 
			"-0.025": 0.0,
			"-0.024": 0.0,
			"-0.023": 0.0,
			"-0.022": 0.0,
			"-0.021": 0.0,
			"-0.02": 0.0,
			"-0.019": 0.0,
			"-0.018": 0.0,
			"-0.017": 0.0,
			"-0.016": 0.0,
			"-0.015": 0.0,
			"-0.014": 0.0,
			"-0.013": 0.0,
			"-0.012": 0.0,
			"-0.011": 0.0,
			"-0.01": 0.559225112442,
			"-0.009": 1.18370375696,
			"-0.008": 1.38593504828,
			"-0.007": 1.23531395693,
			"-0.006": 1.16743124141,
			"-0.005": 1.6190546941,
			"-0.004": 2.71230027832,
			"-0.003": 8.067227821,
			"-0.002": 19.8344357867,
			"-0.001": 34.7019927431,
			"0.0": 35.850953847,
			"0.001": 30.3133800643,
			"0.002": 18.9221604586,
			"0.003": 5.9649315322,
			"0.004": 2.42867958451,
			"0.005": 2.02599370288,
			"0.006": 1.38727609645,
			"0.007": 0.816975509771,
			"0.008": 0.849518624347,
			"0.009": 0.907128083781,
			"0.01": 1.21427242983,
			"0.011": 0.97964009853,
			"0.012": 0.36034080856,
			"0.013": 0.0,
			"0.014": 0.0,
			"0.015": 0.0,
			"0.016": 0.0,
			"0.017": 0.0,
			"0.018": 0.0,
			"0.019": 0.0,
			"0.02": 0.0,
			"0.021": 0.0,
			"0.022": 0.0,
			"0.023": 0.0,
			"0.024": 0.0,
			"0.025": 0.0
		}
	}
}
