{
	 "smiles": "CN(C)C1=C(C=CC=C1)N(C)C", 
	 "Tm": 282.05, 
	 "num_atms": 28, 
	 "gaussian": { 
		 "optdone": 1, 
		 "sigma_profile": "yes", 
		 "theory": "DFT", 
		 "functional": "B3LYP", 
		 "basiset": "6-31G**", 
		 "properties": { 
			 "R2extent": 2513.7889, 
			 "electric_dipole_moment_norm": 0.898923945615, 
			 "electric_quadrupole_moment_norm": 6.23990318515, 
			 "total_energy": -500.188874208, 
			 "HOMO_LUMO_gap": 0.19928, 
			 "cosmo_polarized_energy": -4.28, 
			 "cosmo_cavitation_energy": 28.52, 
			 "cosmo_dispersion_energy": -20.44, 
			 "cosmo_repulsion_energy": 1.61, 
			 "cosmo_total_nonelectrostatic_energy": 9.69, 
			 "SMD_solvation_energy": 5.99 
		},
		"coords": [
			{
				"x": 0.7076911636,
				"y": -1.5944685576,
				"z": 2.3158301082,
				"element": "C" 
			},
			{
				"x": 0.6308532917,
				"y": -0.5821812411,
				"z": 1.2747563446,
				"element": "N" 
			},
			{
				"x": -0.4783148932,
				"y": 0.34968804,
				"z": 1.4998884411,
				"element": "C" 
			},
			{
				"x": 0.7957805209,
				"y": -1.0203290641,
				"z": -0.0683135993,
				"element": "C" 
			},
			{
				"x": 1.1239320624,
				"y": -0.0867605617,
				"z": -1.1014646249,
				"element": "C" 
			},
			{
				"x": 1.2430617483,
				"y": -0.5615714084,
				"z": -2.4155268714,
				"element": "C" 
			},
			{
				"x": 1.0860511162,
				"y": -1.9117851396,
				"z": -2.7338492718,
				"element": "C" 
			},
			{
				"x": 0.8144479608,
				"y": -2.8254939265,
				"z": -1.7229442647,
				"element": "C" 
			},
			{
				"x": 0.6669933847,
				"y": -2.3742595998,
				"z": -0.4100273129,
				"element": "C" 
			},
			{
				"x": 1.2989861413,
				"y": 1.2921745329,
				"z": -0.799585022,
				"element": "N" 
			},
			{
				"x": 1.2186945697,
				"y": 2.2288467759,
				"z": -1.908897217,
				"element": "C" 
			},
			{
				"x": 2.4161391469,
				"y": 1.6017364497,
				"z": 0.0975943387,
				"element": "C" 
			},
			{
				"x": 1.6000423153,
				"y": -2.2108567342,
				"z": 2.178621837,
				"element": "H" 
			},
			{
				"x": 0.7834331544,
				"y": -1.0921601764,
				"z": 3.2857253363,
				"element": "H" 
			},
			{
				"x": -0.1724106704,
				"y": -2.2614754512,
				"z": 2.3572172228,
				"element": "H" 
			},
			{
				"x": -1.4586958724,
				"y": -0.1540899187,
				"z": 1.449843104,
				"element": "H" 
			},
			{
				"x": -0.3756114676,
				"y": 0.798314426,
				"z": 2.493859875,
				"element": "H" 
			},
			{
				"x": -0.4458689378,
				"y": 1.1435212673,
				"z": 0.7536241894,
				"element": "H" 
			},
			{
				"x": 1.4935223663,
				"y": 0.1348157179,
				"z": -3.2076025188,
				"element": "H" 
			},
			{
				"x": 1.1969065623,
				"y": -2.2386937017,
				"z": -3.7636860826,
				"element": "H" 
			},
			{
				"x": 0.6961784008,
				"y": -3.8819965235,
				"z": -1.9455594097,
				"element": "H" 
			},
			{
				"x": 0.4165640725,
				"y": -3.0923162945,
				"z": 0.3624365822,
				"element": "H" 
			},
			{
				"x": 2.0941949982,
				"y": 2.2010595972,
				"z": -2.5827157774,
				"element": "H" 
			},
			{
				"x": 1.149740448,
				"y": 3.2437594193,
				"z": -1.5040004753,
				"element": "H" 
			},
			{
				"x": 0.3215819287,
				"y": 2.0351786559,
				"z": -2.5028012087,
				"element": "H" 
			},
			{
				"x": 3.3925251325,
				"y": 1.4964669383,
				"z": -0.4055357119,
				"element": "H" 
			},
			{
				"x": 2.3221132074,
				"y": 2.6356609782,
				"z": 0.4468529809,
				"element": "H" 
			},
			{
				"x": 2.3860681484,
				"y": 0.9377155004,
				"z": 0.9615590084,
				"element": "H" 
			}
		],
		 "valence_orbital": [ 
			{
				"type": "occ",
				"energy": -0.33419,
				"method": "rhf"
			},
			{
				"type": "occ",
				"energy": -0.26491,
				"method": "rhf"
			},
			{
				"type": "occ",
				"energy": -0.25265,
				"method": "rhf"
			},
			{
				"type": "occ",
				"energy": -0.20662,
				"method": "rhf"
			},
			{
				"type": "occ",
				"energy": -0.18363,
				"method": "rhf"
			},
			{
				"type": "unocc",
				"energy": 0.01565,
				"method": "rhf"
			},
			{
				"type": "unocc",
				"energy": 0.01569,
				"method": "rhf"
			},
			{
				"type": "unocc",
				"energy": 0.09133,
				"method": "rhf"
			},
			{
				"type": "unocc",
				"energy": 0.10643,
				"method": "rhf"
			},
			{
				"type": "unocc",
				"energy": 0.10693,
				"method": "rhf"
			}
		],
		"cosmo_sigma_profile": { 
			"-0.025": 0.0,
			"-0.024": 0.0,
			"-0.023": 0.0,
			"-0.022": 0.0,
			"-0.021": 0.0,
			"-0.02": 0.0,
			"-0.019": 0.0,
			"-0.018": 0.0,
			"-0.017": 0.0,
			"-0.016": 0.0,
			"-0.015": 0.0,
			"-0.014": 0.0,
			"-0.013": 0.0,
			"-0.012": 0.0,
			"-0.011": 0.0,
			"-0.01": 0.0,
			"-0.009": 0.0,
			"-0.008": 0.0,
			"-0.007": 0.0,
			"-0.006": 0.0120398739373,
			"-0.005": 4.19079412735,
			"-0.004": 19.3760490357,
			"-0.003": 27.4223996058,
			"-0.002": 31.3363924401,
			"-0.001": 34.338279056,
			"0.0": 32.8104005005,
			"0.001": 13.1045345189,
			"0.002": 11.914258315,
			"0.003": 10.529563041,
			"0.004": 12.161245541,
			"0.005": 8.90154971886,
			"0.006": 7.54062385529,
			"0.007": 6.8853037954,
			"0.008": 2.88009453718,
			"0.009": 0.0,
			"0.01": 0.0,
			"0.011": 0.0,
			"0.012": 0.0,
			"0.013": 0.0,
			"0.014": 0.0,
			"0.015": 0.0,
			"0.016": 0.0,
			"0.017": 0.0,
			"0.018": 0.0,
			"0.019": 0.0,
			"0.02": 0.0,
			"0.021": 0.0,
			"0.022": 0.0,
			"0.023": 0.0,
			"0.024": 0.0,
			"0.025": 0.0
		}
	}
}
