{
	 "smiles": "CN1CCC(O)(CC1)C1=CC=CC=C1", 
	 "Tm": 385.15, 
	 "num_atms": 31, 
	 "gaussian": { 
		 "optdone": 1, 
		 "sigma_profile": "yes", 
		 "theory": "DFT", 
		 "functional": "B3LYP", 
		 "basiset": "6-31G**", 
		 "properties": { 
			 "R2extent": 3202.0996, 
			 "electric_dipole_moment_norm": 1.61535755794, 
			 "electric_quadrupole_moment_norm": 4.29338692293, 
			 "total_energy": -597.489360902, 
			 "HOMO_LUMO_gap": 0.19575, 
			 "cosmo_polarized_energy": -8.96, 
			 "cosmo_cavitation_energy": 30.95, 
			 "cosmo_dispersion_energy": -22.49, 
			 "cosmo_repulsion_energy": 1.74, 
			 "cosmo_total_nonelectrostatic_energy": 10.2, 
			 "SMD_solvation_energy": 2.21 
		},
		"coords": [
			{
				"x": 0.4357771218,
				"y": -2.8480494936,
				"z": 2.5297362289,
				"element": "C" 
			},
			{
				"x": 1.3564329905,
				"y": -2.3358331602,
				"z": 1.5237087653,
				"element": "N" 
			},
			{
				"x": 1.7457173379,
				"y": -0.939241119,
				"z": 1.7258278187,
				"element": "C" 
			},
			{
				"x": 0.6453035336,
				"y": 0.07788141,
				"z": 1.3600355747,
				"element": "C" 
			},
			{
				"x": 0.1614255384,
				"y": -0.1224278457,
				"z": -0.0975516005,
				"element": "C" 
			},
			{
				"x": 1.2652544022,
				"y": 0.1083802762,
				"z": -0.9873902126,
				"element": "O" 
			},
			{
				"x": -0.2167049093,
				"y": -1.6056882158,
				"z": -0.3114378579,
				"element": "C" 
			},
			{
				"x": 0.9142620302,
				"y": -2.5497576341,
				"z": 0.1425931807,
				"element": "C" 
			},
			{
				"x": -1.0180215758,
				"y": 0.7910900287,
				"z": -0.4555635685,
				"element": "C" 
			},
			{
				"x": -1.0235219598,
				"y": 1.4960956848,
				"z": -1.6664102232,
				"element": "C" 
			},
			{
				"x": -2.098228772,
				"y": 2.3165179503,
				"z": -2.0157618339,
				"element": "C" 
			},
			{
				"x": -3.1940972189,
				"y": 2.442222951,
				"z": -1.1625051424,
				"element": "C" 
			},
			{
				"x": -3.2081366595,
				"y": 1.7341235011,
				"z": 0.040875208,
				"element": "C" 
			},
			{
				"x": -2.1322309448,
				"y": 0.9174714054,
				"z": 0.3887901032,
				"element": "C" 
			},
			{
				"x": -0.5596625436,
				"y": -2.3674498728,
				"z": 2.5573334947,
				"element": "H" 
			},
			{
				"x": 0.2768399957,
				"y": -3.9185661262,
				"z": 2.3607853852,
				"element": "H" 
			},
			{
				"x": 0.8838047213,
				"y": -2.7309203045,
				"z": 3.5225736037,
				"element": "H" 
			},
			{
				"x": 2.6258795223,
				"y": -0.7443195595,
				"z": 1.1019017427,
				"element": "H" 
			},
			{
				"x": 2.0495321542,
				"y": -0.8050050103,
				"z": 2.7702708402,
				"element": "H" 
			},
			{
				"x": -0.1974005848,
				"y": -0.021642439,
				"z": 2.0515092424,
				"element": "H" 
			},
			{
				"x": 1.0192768657,
				"y": 1.1043603162,
				"z": 1.4802305499,
				"element": "H" 
			},
			{
				"x": 1.5897563271,
				"y": 1.0048331221,
				"z": -0.8232984931,
				"element": "H" 
			},
			{
				"x": -1.1397405005,
				"y": -1.813736592,
				"z": 0.2408967507,
				"element": "H" 
			},
			{
				"x": -0.4366895856,
				"y": -1.759427725,
				"z": -1.3737344857,
				"element": "H" 
			},
			{
				"x": 0.598622916,
				"y": -3.5936234174,
				"z": 0.0335355648,
				"element": "H" 
			},
			{
				"x": 1.778295093,
				"y": -2.399341693,
				"z": -0.5141963148,
				"element": "H" 
			},
			{
				"x": -0.1807535994,
				"y": 1.3860426694,
				"z": -2.3398782897,
				"element": "H" 
			},
			{
				"x": -2.0778934598,
				"y": 2.8547348868,
				"z": -2.9595871045,
				"element": "H" 
			},
			{
				"x": -4.0305405122,
				"y": 3.0805675089,
				"z": -1.4323629054,
				"element": "H" 
			},
			{
				"x": -4.0583637919,
				"y": 1.8174796164,
				"z": 0.7123262023,
				"element": "H" 
			},
			{
				"x": -2.1705939323,
				"y": 0.3717288809,
				"z": 1.327047776,
				"element": "H" 
			}
		],
		 "valence_orbital": [ 
			{
				"type": "occ",
				"energy": -0.30881,
				"method": "rhf"
			},
			{
				"type": "occ",
				"energy": -0.27455,
				"method": "rhf"
			},
			{
				"type": "occ",
				"energy": -0.2474,
				"method": "rhf"
			},
			{
				"type": "occ",
				"energy": -0.2398,
				"method": "rhf"
			},
			{
				"type": "occ",
				"energy": -0.19742,
				"method": "rhf"
			},
			{
				"type": "unocc",
				"energy": -0.00167,
				"method": "rhf"
			},
			{
				"type": "unocc",
				"energy": 0.00187,
				"method": "rhf"
			},
			{
				"type": "unocc",
				"energy": 0.06439,
				"method": "rhf"
			},
			{
				"type": "unocc",
				"energy": 0.09329,
				"method": "rhf"
			},
			{
				"type": "unocc",
				"energy": 0.10177,
				"method": "rhf"
			}
		],
		"cosmo_sigma_profile": { 
			"-0.025": 0.0,
			"-0.024": 0.0,
			"-0.023": 0.0,
			"-0.022": 0.0,
			"-0.021": 0.0,
			"-0.02": 0.0,
			"-0.019": 0.0,
			"-0.018": 0.0,
			"-0.017": 0.0,
			"-0.016": 0.0,
			"-0.015": 0.314233225715,
			"-0.014": 0.784821351514,
			"-0.013": 0.611921717432,
			"-0.012": 1.2430133238,
			"-0.011": 0.72681950242,
			"-0.01": 0.788410853944,
			"-0.009": 0.941557044339,
			"-0.008": 1.70742132284,
			"-0.007": 0.802248198531,
			"-0.006": 3.58376999392,
			"-0.005": 11.8552235181,
			"-0.004": 16.4350033223,
			"-0.003": 29.3647157119,
			"-0.002": 28.4604090857,
			"-0.001": 30.1553707474,
			"0.0": 27.1284800763,
			"0.001": 15.1606985126,
			"0.002": 11.3275390402,
			"0.003": 10.492029904,
			"0.004": 11.1672099958,
			"0.005": 10.3029928204,
			"0.006": 10.7105813339,
			"0.007": 5.0215045278,
			"0.008": 1.52248992268,
			"0.009": 1.96640487571,
			"0.01": 1.77467883119,
			"0.011": 1.29365880824,
			"0.012": 2.11603952249,
			"0.013": 1.4254404347,
			"0.014": 0.910024910364,
			"0.015": 0.430128552804,
			"0.016": 0.320192041511,
			"0.017": 0.509323055407,
			"0.018": 0.0,
			"0.019": 0.0,
			"0.02": 0.0,
			"0.021": 0.0,
			"0.022": 0.0,
			"0.023": 0.0,
			"0.024": 0.0,
			"0.025": 0.0
		}
	}
}
