{
	 "smiles": "C[C@H]1[C@H]2C[C@]3([C@@H](CC2)[C@@]2(CCC[C@@]4(C)COC(=O)[C@@H]24)COC3=O)C1=O", 
	 "Tm": 570.0, 
	 "num_atms": 51, 
	 "gaussian": { 
		 "optdone": 1, 
		 "sigma_profile": "yes", 
		 "theory": "DFT", 
		 "functional": "B3LYP", 
		 "basiset": "6-31G**", 
		 "properties": { 
			 "R2extent": 7864.1419, 
			 "electric_dipole_moment_norm": 10.2528191957, 
			 "electric_quadrupole_moment_norm": 30.3315804046, 
			 "total_energy": -1153.92049438, 
			 "HOMO_LUMO_gap": 0.21376, 
			 "cosmo_polarized_energy": -29.31, 
			 "cosmo_cavitation_energy": 44.74, 
			 "cosmo_dispersion_energy": -31.31, 
			 "cosmo_repulsion_energy": 2.27, 
			 "cosmo_total_nonelectrostatic_energy": 15.7, 
			 "SMD_solvation_energy": 8.71 
		},
		"coords": [
			{
				"x": -0.3627110752,
				"y": -2.7174707739,
				"z": -4.3940224007,
				"element": "C" 
			},
			{
				"x": -0.2581615615,
				"y": -1.4408157531,
				"z": -3.5411128267,
				"element": "C" 
			},
			{
				"x": -1.4324394189,
				"y": -1.2215419592,
				"z": -2.5597437882,
				"element": "C" 
			},
			{
				"x": -0.9938695277,
				"y": -2.0366932153,
				"z": -1.324653585,
				"element": "C" 
			},
			{
				"x": 0.4598597519,
				"y": -1.5452714195,
				"z": -1.1297618627,
				"element": "C" 
			},
			{
				"x": 0.5461956453,
				"y": -0.0690188521,
				"z": -0.6338157984,
				"element": "C" 
			},
			{
				"x": -0.2507677016,
				"y": 0.8535613051,
				"z": -1.5992803946,
				"element": "C" 
			},
			{
				"x": -1.5718511385,
				"y": 0.2601719707,
				"z": -2.1455490997,
				"element": "C" 
			},
			{
				"x": 0.2578866311,
				"y": 0.1144899351,
				"z": 0.8999883639,
				"element": "C" 
			},
			{
				"x": -1.2192352405,
				"y": 0.4283902073,
				"z": 1.2504307482,
				"element": "C" 
			},
			{
				"x": -1.4739782031,
				"y": 0.6148518652,
				"z": 2.7668555272,
				"element": "C" 
			},
			{
				"x": -0.2781268277,
				"y": 1.2343829269,
				"z": 3.5221291633,
				"element": "C" 
			},
			{
				"x": 0.58360125,
				"y": 2.1458660526,
				"z": 2.6267525406,
				"element": "C" 
			},
			{
				"x": -0.1763259325,
				"y": 3.4364729501,
				"z": 2.2743927491,
				"element": "C" 
			},
			{
				"x": 1.9112968292,
				"y": 2.5128967216,
				"z": 3.3411597026,
				"element": "C" 
			},
			{
				"x": 2.9246854903,
				"y": 1.6100781839,
				"z": 2.8752300011,
				"element": "O" 
			},
			{
				"x": 2.5550704122,
				"y": 1.024706578,
				"z": 1.7028249385,
				"element": "C" 
			},
			{
				"x": 3.3164193599,
				"y": 0.3527759802,
				"z": 1.0567051369,
				"element": "O" 
			},
			{
				"x": 1.0958420146,
				"y": 1.3614902471,
				"z": 1.3794049063,
				"element": "C" 
			},
			{
				"x": 0.6349507924,
				"y": -1.2124595531,
				"z": 1.6302017552,
				"element": "C" 
			},
			{
				"x": 1.5724817639,
				"y": -2.0788433799,
				"z": 0.977511336,
				"element": "O" 
			},
			{
				"x": 1.3095764859,
				"y": -2.48236113,
				"z": -0.2917818107,
				"element": "C" 
			},
			{
				"x": 1.7560279101,
				"y": -3.5251826171,
				"z": -0.7026111335,
				"element": "O" 
			},
			{
				"x": 0.9636317507,
				"y": -1.5108037498,
				"z": -2.6083785104,
				"element": "C" 
			},
			{
				"x": 2.1189125133,
				"y": -1.4752478148,
				"z": -2.954596178,
				"element": "O" 
			},
			{
				"x": -1.2023965974,
				"y": -2.6433278692,
				"z": -5.0923920366,
				"element": "H" 
			},
			{
				"x": -0.5102197965,
				"y": -3.6098147122,
				"z": -3.7777698662,
				"element": "H" 
			},
			{
				"x": 0.55653888,
				"y": -2.8594611016,
				"z": -4.9685993536,
				"element": "H" 
			},
			{
				"x": -0.118058277,
				"y": -0.5885916413,
				"z": -4.2173150046,
				"element": "H" 
			},
			{
				"x": -2.3805662405,
				"y": -1.5815036657,
				"z": -2.9736049916,
				"element": "H" 
			},
			{
				"x": -1.6400786651,
				"y": -1.8751857288,
				"z": -0.458927833,
				"element": "H" 
			},
			{
				"x": -0.9861923487,
				"y": -3.1115757236,
				"z": -1.533535001,
				"element": "H" 
			},
			{
				"x": 1.6061635645,
				"y": 0.1834451446,
				"z": -0.7414995705,
				"element": "H" 
			},
			{
				"x": -0.4462492188,
				"y": 1.8265046741,
				"z": -1.1348027324,
				"element": "H" 
			},
			{
				"x": 0.4031723386,
				"y": 1.0740303381,
				"z": -2.4506016626,
				"element": "H" 
			},
			{
				"x": -2.3681513838,
				"y": 0.3387600595,
				"z": -1.3962187166,
				"element": "H" 
			},
			{
				"x": -1.8966493266,
				"y": 0.859674075,
				"z": -3.0048653911,
				"element": "H" 
			},
			{
				"x": -1.5139939252,
				"y": 1.3401800323,
				"z": 0.7228131084,
				"element": "H" 
			},
			{
				"x": -1.8771322407,
				"y": -0.3608877696,
				"z": 0.8780037446,
				"element": "H" 
			},
			{
				"x": -1.7247790345,
				"y": -0.3463761245,
				"z": 3.2280140382,
				"element": "H" 
			},
			{
				"x": -2.3632975899,
				"y": 1.242101168,
				"z": 2.8906304322,
				"element": "H" 
			},
			{
				"x": -0.6323599182,
				"y": 1.8054870976,
				"z": 4.388522998,
				"element": "H" 
			},
			{
				"x": 0.3585204766,
				"y": 0.4412857368,
				"z": 3.9309910796,
				"element": "H" 
			},
			{
				"x": -0.37232542,
				"y": 4.0233117516,
				"z": 3.1795873784,
				"element": "H" 
			},
			{
				"x": 0.4060222961,
				"y": 4.0639609239,
				"z": 1.5910102833,
				"element": "H" 
			},
			{
				"x": -1.1417562727,
				"y": 3.2357291459,
				"z": 1.8024696183,
				"element": "H" 
			},
			{
				"x": 2.2297796011,
				"y": 3.5346482715,
				"z": 3.1022658469,
				"element": "H" 
			},
			{
				"x": 1.8496066509,
				"y": 2.4149258756,
				"z": 4.4287336519,
				"element": "H" 
			},
			{
				"x": 1.1352326149,
				"y": 2.0589852517,
				"z": 0.5326212888,
				"element": "H" 
			},
			{
				"x": 1.0893166439,
				"y": -1.0258560977,
				"z": 2.603582393,
				"element": "H" 
			},
			{
				"x": -0.2803187848,
				"y": -1.791473818,
				"z": 1.8065068178,
				"element": "H" 
			}
		],
		 "valence_orbital": [ 
			{
				"type": "occ",
				"energy": -0.2974,
				"method": "rhf"
			},
			{
				"type": "occ",
				"energy": -0.28256,
				"method": "rhf"
			},
			{
				"type": "occ",
				"energy": -0.26514,
				"method": "rhf"
			},
			{
				"type": "occ",
				"energy": -0.25567,
				"method": "rhf"
			},
			{
				"type": "occ",
				"energy": -0.23753,
				"method": "rhf"
			},
			{
				"type": "unocc",
				"energy": -0.02377,
				"method": "rhf"
			},
			{
				"type": "unocc",
				"energy": 0.00094,
				"method": "rhf"
			},
			{
				"type": "unocc",
				"energy": 0.01032,
				"method": "rhf"
			},
			{
				"type": "unocc",
				"energy": 0.04472,
				"method": "rhf"
			},
			{
				"type": "unocc",
				"energy": 0.06536,
				"method": "rhf"
			}
		],
		"cosmo_sigma_profile": { 
			"-0.025": 0.0,
			"-0.024": 0.0,
			"-0.023": 0.0,
			"-0.022": 0.0,
			"-0.021": 0.0,
			"-0.02": 0.0,
			"-0.019": 0.0,
			"-0.018": 0.0,
			"-0.017": 0.0,
			"-0.016": 0.0,
			"-0.015": 0.0,
			"-0.014": 0.0,
			"-0.013": 0.0,
			"-0.012": 0.0,
			"-0.011": 0.0255119756664,
			"-0.01": 0.0897896658457,
			"-0.009": 0.373709890271,
			"-0.008": 3.22885390111,
			"-0.007": 7.26615398631,
			"-0.006": 16.1464252137,
			"-0.005": 26.3940860114,
			"-0.004": 41.3596535116,
			"-0.003": 48.5943200667,
			"-0.002": 42.9935189991,
			"-0.001": 34.2102559855,
			"0.0": 27.5292068473,
			"0.001": 11.2364641462,
			"0.002": 5.30145802708,
			"0.003": 5.25235618402,
			"0.004": 4.61816980904,
			"0.005": 4.47659572636,
			"0.006": 4.59777489589,
			"0.007": 7.13846784656,
			"0.008": 5.17203385841,
			"0.009": 7.77504435813,
			"0.01": 12.5662139902,
			"0.011": 15.8408808339,
			"0.012": 11.1966798427,
			"0.013": 2.98191112714,
			"0.014": 0.0811112638853,
			"0.015": 0.0,
			"0.016": 0.0,
			"0.017": 0.0,
			"0.018": 0.0,
			"0.019": 0.0,
			"0.02": 0.0,
			"0.021": 0.0,
			"0.022": 0.0,
			"0.023": 0.0,
			"0.024": 0.0,
			"0.025": 0.0
		}
	}
}
