{
	 "smiles": "CC1=CC=C(C=C1)C(N)CC(O)=O", 
	 "Tm": 498.15, 
	 "num_atms": 26, 
	 "gaussian": { 
		 "optdone": 1, 
		 "sigma_profile": "yes", 
		 "theory": "DFT", 
		 "functional": "B3LYP", 
		 "basiset": "6-31G**", 
		 "properties": { 
			 "R2extent": 4256.5315, 
			 "electric_dipole_moment_norm": 4.6668937046, 
			 "electric_quadrupole_moment_norm": 20.6674795788, 
			 "total_energy": -594.111081496, 
			 "HOMO_LUMO_gap": 0.22408, 
			 "cosmo_polarized_energy": -18.8, 
			 "cosmo_cavitation_energy": 29.46, 
			 "cosmo_dispersion_energy": -21.12, 
			 "cosmo_repulsion_energy": 1.69, 
			 "cosmo_total_nonelectrostatic_energy": 10.03, 
			 "SMD_solvation_energy": 4.78 
		},
		"coords": [
			{
				"x": 0.3228021327,
				"y": 2.1230955424,
				"z": -2.5341382785,
				"element": "C" 
			},
			{
				"x": 0.1835746203,
				"y": 1.1495006542,
				"z": -1.387426374,
				"element": "C" 
			},
			{
				"x": 1.1746250532,
				"y": 1.0458571516,
				"z": -0.4022227779,
				"element": "C" 
			},
			{
				"x": 1.0339336461,
				"y": 0.1679999748,
				"z": 0.671548226,
				"element": "C" 
			},
			{
				"x": -0.1055275953,
				"y": -0.6374533187,
				"z": 0.8027773654,
				"element": "C" 
			},
			{
				"x": -1.0937815369,
				"y": -0.5357822119,
				"z": -0.1817921758,
				"element": "C" 
			},
			{
				"x": -0.9510966507,
				"y": 0.3394491278,
				"z": -1.2586991097,
				"element": "C" 
			},
			{
				"x": -0.2688152455,
				"y": -1.5949509547,
				"z": 1.974367521,
				"element": "C" 
			},
			{
				"x": -0.3902043218,
				"y": -0.8551924855,
				"z": 3.2322732037,
				"element": "N" 
			},
			{
				"x": 0.8520549645,
				"y": -2.6684712711,
				"z": 1.9538393354,
				"element": "C" 
			},
			{
				"x": 0.6731052717,
				"y": -3.7599848803,
				"z": 3.0009278238,
				"element": "C" 
			},
			{
				"x": 1.566865038,
				"y": -4.7825313448,
				"z": 2.9329254754,
				"element": "O" 
			},
			{
				"x": -0.1781891292,
				"y": -3.77021215,
				"z": 3.8580245447,
				"element": "O" 
			},
			{
				"x": 1.3724825869,
				"y": 2.2858526367,
				"z": -2.7972645954,
				"element": "H" 
			},
			{
				"x": -0.1991027914,
				"y": 1.7672275149,
				"z": -3.4276178364,
				"element": "H" 
			},
			{
				"x": -0.1029402603,
				"y": 3.1013392052,
				"z": -2.2774346804,
				"element": "H" 
			},
			{
				"x": 2.0695696474,
				"y": 1.6590864207,
				"z": -0.4781970192,
				"element": "H" 
			},
			{
				"x": 1.8280572365,
				"y": 0.1169157829,
				"z": 1.4136169504,
				"element": "H" 
			},
			{
				"x": -1.9889639366,
				"y": -1.1478239694,
				"z": -0.1039128594,
				"element": "H" 
			},
			{
				"x": -1.7356585528,
				"y": 0.3948646666,
				"z": -2.0096951793,
				"element": "H" 
			},
			{
				"x": -1.2153930828,
				"y": -2.1311609711,
				"z": 1.8417944153,
				"element": "H" 
			},
			{
				"x": -0.5057076314,
				"y": -1.5236460424,
				"z": 3.9903044041,
				"element": "H" 
			},
			{
				"x": 0.4543410668,
				"y": -0.3181027666,
				"z": 3.414797851,
				"element": "H" 
			},
			{
				"x": 1.832561537,
				"y": -2.1987670172,
				"z": 2.1160420246,
				"element": "H" 
			},
			{
				"x": 0.9020077315,
				"y": -3.1419038704,
				"z": 0.9630030724,
				"element": "H" 
			},
			{
				"x": 2.1732002021,
				"y": -4.6459054235,
				"z": 2.1907586727,
				"element": "H" 
			}
		],
		 "valence_orbital": [ 
			{
				"type": "occ",
				"energy": -0.32179,
				"method": "rhf"
			},
			{
				"type": "occ",
				"energy": -0.27944,
				"method": "rhf"
			},
			{
				"type": "occ",
				"energy": -0.25107,
				"method": "rhf"
			},
			{
				"type": "occ",
				"energy": -0.23816,
				"method": "rhf"
			},
			{
				"type": "occ",
				"energy": -0.23082,
				"method": "rhf"
			},
			{
				"type": "unocc",
				"energy": -0.00674,
				"method": "rhf"
			},
			{
				"type": "unocc",
				"energy": -0.00223,
				"method": "rhf"
			},
			{
				"type": "unocc",
				"energy": 0.00573,
				"method": "rhf"
			},
			{
				"type": "unocc",
				"energy": 0.05138,
				"method": "rhf"
			},
			{
				"type": "unocc",
				"energy": 0.08233,
				"method": "rhf"
			}
		],
		"cosmo_sigma_profile": { 
			"-0.025": 0.0,
			"-0.024": 0.0,
			"-0.023": 0.0,
			"-0.022": 0.0,
			"-0.021": 0.0,
			"-0.02": 0.0,
			"-0.019": 0.596053403588,
			"-0.018": 0.956406861982,
			"-0.017": 0.964780582873,
			"-0.016": 1.21228099592,
			"-0.015": 1.42311535123,
			"-0.014": 0.724888519557,
			"-0.013": 1.10008496758,
			"-0.012": 0.798408456909,
			"-0.011": 1.57768186536,
			"-0.01": 1.24208018413,
			"-0.009": 4.15915240333,
			"-0.008": 3.90322594738,
			"-0.007": 7.61229534314,
			"-0.006": 8.444164602,
			"-0.005": 14.2051841772,
			"-0.004": 20.8593714671,
			"-0.003": 18.3039710334,
			"-0.002": 16.394454851,
			"-0.001": 14.7826968427,
			"0.0": 17.4770714899,
			"0.001": 11.2098655388,
			"0.002": 9.50841584087,
			"0.003": 10.5978176835,
			"0.004": 8.13557541754,
			"0.005": 9.06942238305,
			"0.006": 11.1564718124,
			"0.007": 5.70691115862,
			"0.008": 3.88955517989,
			"0.009": 4.04403287644,
			"0.01": 5.53345338003,
			"0.011": 6.23498855049,
			"0.012": 3.26714732597,
			"0.013": 2.41695143691,
			"0.014": 0.745782366494,
			"0.015": 0.654045171659,
			"0.016": 0.458675852382,
			"0.017": 0.559191991753,
			"0.018": 0.635174238329,
			"0.019": 0.709030651264,
			"0.02": 0.233382280491,
			"0.021": 0.0,
			"0.022": 0.0,
			"0.023": 0.0,
			"0.024": 0.0,
			"0.025": 0.0
		}
	}
}
