{
	 "smiles": "CC1=C(C=CC(N)=C1)C(N)=O", 
	 "Tm": 428.15, 
	 "num_atms": 21, 
	 "gaussian": { 
		 "optdone": 1, 
		 "sigma_profile": "yes", 
		 "theory": "DFT", 
		 "functional": "B3LYP", 
		 "basiset": "6-31G**", 
		 "properties": { 
			 "R2extent": 2257.3827, 
			 "electric_dipole_moment_norm": 3.94713992785, 
			 "electric_quadrupole_moment_norm": 13.6457964681, 
			 "total_energy": -495.634347476, 
			 "HOMO_LUMO_gap": 0.18974, 
			 "cosmo_polarized_energy": -16.47, 
			 "cosmo_cavitation_energy": 24.45, 
			 "cosmo_dispersion_energy": -18.21, 
			 "cosmo_repulsion_energy": 1.47, 
			 "cosmo_total_nonelectrostatic_energy": 7.71, 
			 "SMD_solvation_energy": 4.87 
		},
		"coords": [
			{
				"x": -0.3424384323,
				"y": 0.6084951016,
				"z": 1.3880818013,
				"element": "C" 
			},
			{
				"x": 0.2790499137,
				"y": -0.5566000127,
				"z": 0.6533710513,
				"element": "C" 
			},
			{
				"x": 0.2562686642,
				"y": -0.6756806351,
				"z": -0.7591928017,
				"element": "C" 
			},
			{
				"x": 0.8809496156,
				"y": -1.7861359488,
				"z": -1.3514167373,
				"element": "C" 
			},
			{
				"x": 1.5050410239,
				"y": -2.7713350595,
				"z": -0.5996222275,
				"element": "C" 
			},
			{
				"x": 1.5146835082,
				"y": -2.6742377308,
				"z": 0.8015198428,
				"element": "C" 
			},
			{
				"x": 2.0785195176,
				"y": -3.674679549,
				"z": 1.5837941787,
				"element": "N" 
			},
			{
				"x": 0.8958677827,
				"y": -1.5618434296,
				"z": 1.3981235451,
				"element": "C" 
			},
			{
				"x": -0.3874113268,
				"y": 0.3681367676,
				"z": -1.6134358084,
				"element": "C" 
			},
			{
				"x": -0.8179627173,
				"y": -0.0579704782,
				"z": -2.857631318,
				"element": "N" 
			},
			{
				"x": -0.5130141056,
				"y": 1.5424299128,
				"z": -1.278921343,
				"element": "O" 
			},
			{
				"x": -0.3313617324,
				"y": 0.4279423565,
				"z": 2.4669141155,
				"element": "H" 
			},
			{
				"x": 0.1937466105,
				"y": 1.5362053763,
				"z": 1.1744617928,
				"element": "H" 
			},
			{
				"x": -1.3743648726,
				"y": 0.7829086945,
				"z": 1.0715886595,
				"element": "H" 
			},
			{
				"x": 0.9124334238,
				"y": -1.8600151284,
				"z": -2.4343648513,
				"element": "H" 
			},
			{
				"x": 1.9887005218,
				"y": -3.6120968252,
				"z": -1.090208569,
				"element": "H" 
			},
			{
				"x": 2.7727810274,
				"y": -4.2515815465,
				"z": 1.130620099,
				"element": "H" 
			},
			{
				"x": 2.3460019164,
				"y": -3.405581927,
				"z": 2.5199226388,
				"element": "H" 
			},
			{
				"x": 0.8987667459,
				"y": -1.4823517488,
				"z": 2.4831961634,
				"element": "H" 
			},
			{
				"x": -1.3567334608,
				"y": 0.6278941151,
				"z": -3.3675915776,
				"element": "H" 
			},
			{
				"x": -1.0816236239,
				"y": -1.0226023048,
				"z": -2.9885086545,
				"element": "H" 
			}
		],
		 "valence_orbital": [ 
			{
				"type": "occ",
				"energy": -0.30314,
				"method": "rhf"
			},
			{
				"type": "occ",
				"energy": -0.26109,
				"method": "rhf"
			},
			{
				"type": "occ",
				"energy": -0.24266,
				"method": "rhf"
			},
			{
				"type": "occ",
				"energy": -0.23668,
				"method": "rhf"
			},
			{
				"type": "occ",
				"energy": -0.20626,
				"method": "rhf"
			},
			{
				"type": "unocc",
				"energy": -0.01652,
				"method": "rhf"
			},
			{
				"type": "unocc",
				"energy": 0.00211,
				"method": "rhf"
			},
			{
				"type": "unocc",
				"energy": 0.06616,
				"method": "rhf"
			},
			{
				"type": "unocc",
				"energy": 0.08005,
				"method": "rhf"
			},
			{
				"type": "unocc",
				"energy": 0.09281,
				"method": "rhf"
			}
		],
		"cosmo_sigma_profile": { 
			"-0.025": 0.0,
			"-0.024": 0.0,
			"-0.023": 0.0,
			"-0.022": 0.0,
			"-0.021": 0.0,
			"-0.02": 0.0,
			"-0.019": 0.0,
			"-0.018": 0.0,
			"-0.017": 0.0,
			"-0.016": 0.0,
			"-0.015": 0.0,
			"-0.014": 0.113774431326,
			"-0.013": 3.12600896085,
			"-0.012": 4.73286527566,
			"-0.011": 4.93001651954,
			"-0.01": 5.12344069568,
			"-0.009": 6.15831610286,
			"-0.008": 4.93436675929,
			"-0.007": 4.92635797947,
			"-0.006": 6.29554267862,
			"-0.005": 8.18739701575,
			"-0.004": 8.90385092318,
			"-0.003": 9.72483795766,
			"-0.002": 9.18409511159,
			"-0.001": 12.0650680178,
			"0.0": 13.0264667678,
			"0.001": 13.6862990427,
			"0.002": 9.38881192748,
			"0.003": 9.88753292166,
			"0.004": 8.88198708783,
			"0.005": 13.5101669033,
			"0.006": 10.6693041793,
			"0.007": 2.84127564369,
			"0.008": 3.20540784499,
			"0.009": 3.12924198832,
			"0.01": 2.76157573639,
			"0.011": 2.2267403257,
			"0.012": 1.91587664951,
			"0.013": 3.24638736935,
			"0.014": 4.6540569222,
			"0.015": 1.27806143689,
			"0.016": 0.000148260536791,
			"0.017": 0.0,
			"0.018": 0.0,
			"0.019": 0.0,
			"0.02": 0.0,
			"0.021": 0.0,
			"0.022": 0.0,
			"0.023": 0.0,
			"0.024": 0.0,
			"0.025": 0.0
		}
	}
}
