{
	 "smiles": "OC1=C2C=CC(=CC2=NC1C1=CC(=CC=C1)C1N=C2C=C(C=CC2=C1O)[N+]([O-])=O)[N+]([O-])=O", 
	 "Tm": 539.15, 
	 "num_atms": 46, 
	 "gaussian": { 
		 "optdone": 1, 
		 "sigma_profile": "yes", 
		 "theory": "DFT", 
		 "functional": "B3LYP", 
		 "basiset": "6-31G**", 
		 "properties": { 
			 "R2extent": 25367.1661, 
			 "electric_dipole_moment_norm": 7.43901227651, 
			 "electric_quadrupole_moment_norm": 79.5674886249, 
			 "total_energy": -1516.83613758, 
			 "HOMO_LUMO_gap": 0.1061, 
			 "cosmo_polarized_energy": -32.13, 
			 "cosmo_cavitation_energy": 53.52, 
			 "cosmo_dispersion_energy": -37.73, 
			 "cosmo_repulsion_energy": 2.76, 
			 "cosmo_total_nonelectrostatic_energy": 18.55, 
			 "SMD_solvation_energy": 7.26 
		},
		"coords": [
			{
				"x": 2.2102992966,
				"y": 2.028365657,
				"z": 3.1147851541,
				"element": "O" 
			},
			{
				"x": 1.0161475865,
				"y": 1.4424908639,
				"z": 3.2955317377,
				"element": "C" 
			},
			{
				"x": 0.4595675123,
				"y": 1.0788291187,
				"z": 4.4891887757,
				"element": "C" 
			},
			{
				"x": 0.8874034532,
				"y": 1.1538898798,
				"z": 5.8555241336,
				"element": "C" 
			},
			{
				"x": 0.0661487738,
				"y": 0.6701149262,
				"z": 6.8268907913,
				"element": "C" 
			},
			{
				"x": -1.2111585105,
				"y": 0.0992580828,
				"z": 6.4647124913,
				"element": "C" 
			},
			{
				"x": -1.6837099227,
				"y": -0.0038373061,
				"z": 5.193997677,
				"element": "C" 
			},
			{
				"x": -0.841323323,
				"y": 0.4933482975,
				"z": 4.1317505248,
				"element": "C" 
			},
			{
				"x": -1.1257790706,
				"y": 0.4742536339,
				"z": 2.855220631,
				"element": "N" 
			},
			{
				"x": 0.019162576,
				"y": 1.118384149,
				"z": 2.2012481362,
				"element": "C" 
			},
			{
				"x": 0.5412188286,
				"y": 0.3150258025,
				"z": 1.0173094005,
				"element": "C" 
			},
			{
				"x": -0.2647160853,
				"y": 0.2042990671,
				"z": -0.1265934228,
				"element": "C" 
			},
			{
				"x": 0.1458063456,
				"y": -0.5501160613,
				"z": -1.2306624505,
				"element": "C" 
			},
			{
				"x": 1.3814633117,
				"y": -1.2109749704,
				"z": -1.1902044313,
				"element": "C" 
			},
			{
				"x": 2.1795961277,
				"y": -1.1151998959,
				"z": -0.0553857546,
				"element": "C" 
			},
			{
				"x": 1.7670886621,
				"y": -0.3560232987,
				"z": 1.0460313392,
				"element": "C" 
			},
			{
				"x": -0.717160885,
				"y": -0.5877980559,
				"z": -2.4790180298,
				"element": "C" 
			},
			{
				"x": -0.5237328224,
				"y": -1.7420971007,
				"z": -3.346475722,
				"element": "N" 
			},
			{
				"x": -0.3785119723,
				"y": -1.2474736317,
				"z": -4.5504197714,
				"element": "C" 
			},
			{
				"x": -0.2033787952,
				"y": -2.0102767341,
				"z": -5.7632367045,
				"element": "C" 
			},
			{
				"x": -0.0409367852,
				"y": -1.3141893772,
				"z": -6.9206693988,
				"element": "C" 
			},
			{
				"x": -0.0368417391,
				"y": 0.1262056801,
				"z": -7.0249371646,
				"element": "C" 
			},
			{
				"x": -0.2076264872,
				"y": 0.8810927155,
				"z": -5.9047704691,
				"element": "C" 
			},
			{
				"x": -0.3852934046,
				"y": 0.2194608297,
				"z": -4.6463700034,
				"element": "C" 
			},
			{
				"x": -0.5481882185,
				"y": 0.6477302024,
				"z": -3.3581276906,
				"element": "C" 
			},
			{
				"x": -0.5880168362,
				"y": 1.91010739,
				"z": -2.9210541941,
				"element": "O" 
			},
			{
				"x": 0.1453229916,
				"y": -2.0845691193,
				"z": -8.1721404381,
				"element": "N" 
			},
			{
				"x": 0.1457987836,
				"y": -3.3112493607,
				"z": -8.1003350481,
				"element": "O" 
			},
			{
				"x": 0.2899324618,
				"y": -1.4419791822,
				"z": -9.211638866,
				"element": "O" 
			},
			{
				"x": -2.063427997,
				"y": -0.4072722842,
				"z": 7.5649318719,
				"element": "N" 
			},
			{
				"x": -3.1546334613,
				"y": -0.8910452633,
				"z": 7.2735446478,
				"element": "O" 
			},
			{
				"x": -1.6206143064,
				"y": -0.3100321507,
				"z": 8.7089517163,
				"element": "O" 
			},
			{
				"x": 2.4122639332,
				"y": 2.0741009136,
				"z": 2.1685720138,
				"element": "H" 
			},
			{
				"x": 1.8501885441,
				"y": 1.5883170172,
				"z": 6.1044933766,
				"element": "H" 
			},
			{
				"x": 0.3324232729,
				"y": 0.6960273154,
				"z": 7.8746908756,
				"element": "H" 
			},
			{
				"x": -2.6507964614,
				"y": -0.4413536904,
				"z": 4.9826638666,
				"element": "H" 
			},
			{
				"x": -0.3522101493,
				"y": 2.0878136216,
				"z": 1.8243807487,
				"element": "H" 
			},
			{
				"x": -1.2540334503,
				"y": 0.6595087378,
				"z": -0.1114592432,
				"element": "H" 
			},
			{
				"x": 1.6856631638,
				"y": -1.8112475303,
				"z": -2.0403007551,
				"element": "H" 
			},
			{
				"x": 3.128773343,
				"y": -1.6414640734,
				"z": -0.0171093683,
				"element": "H" 
			},
			{
				"x": 2.3961529133,
				"y": -0.3160474386,
				"z": 1.9301020247,
				"element": "H" 
			},
			{
				"x": -1.7757359209,
				"y": -0.5985299359,
				"z": -2.1662004509,
				"element": "H" 
			},
			{
				"x": -0.2005346365,
				"y": -3.0924833053,
				"z": -5.748110746,
				"element": "H" 
			},
			{
				"x": 0.1014123162,
				"y": 0.5656696493,
				"z": -8.0032352425,
				"element": "H" 
			},
			{
				"x": -0.2113653994,
				"y": 1.9650389457,
				"z": -5.9580629962,
				"element": "H" 
			},
			{
				"x": -0.5126075576,
				"y": 1.9118272693,
				"z": -1.9522035727,
				"element": "H" 
			}
		],
		 "valence_orbital": [ 
			{
				"type": "occ",
				"energy": -0.2835,
				"method": "rhf"
			},
			{
				"type": "occ",
				"energy": -0.27861,
				"method": "rhf"
			},
			{
				"type": "occ",
				"energy": -0.27577,
				"method": "rhf"
			},
			{
				"type": "occ",
				"energy": -0.22372,
				"method": "rhf"
			},
			{
				"type": "occ",
				"energy": -0.22024,
				"method": "rhf"
			},
			{
				"type": "unocc",
				"energy": -0.11414,
				"method": "rhf"
			},
			{
				"type": "unocc",
				"energy": -0.11174,
				"method": "rhf"
			},
			{
				"type": "unocc",
				"energy": -0.06543,
				"method": "rhf"
			},
			{
				"type": "unocc",
				"energy": -0.06352,
				"method": "rhf"
			},
			{
				"type": "unocc",
				"energy": -0.04546,
				"method": "rhf"
			}
		],
		"cosmo_sigma_profile": { 
			"-0.025": 0.0,
			"-0.024": 0.0,
			"-0.023": 0.0,
			"-0.022": 0.0,
			"-0.021": 0.0,
			"-0.02": 0.0,
			"-0.019": 0.426853755379,
			"-0.018": 0.992828074946,
			"-0.017": 0.429894915277,
			"-0.016": 1.73249739538,
			"-0.015": 3.01332927137,
			"-0.014": 1.81614516009,
			"-0.013": 2.38471097637,
			"-0.012": 2.46442842394,
			"-0.011": 3.27455401718,
			"-0.01": 3.13524139177,
			"-0.009": 6.59393945124,
			"-0.008": 10.9140799368,
			"-0.007": 14.7256773884,
			"-0.006": 20.2772913098,
			"-0.005": 22.120708709,
			"-0.004": 22.2245708174,
			"-0.003": 21.4344366312,
			"-0.002": 26.4625750087,
			"-0.001": 37.719924282,
			"0.0": 38.5289981119,
			"0.001": 29.1255492592,
			"0.002": 26.1304831141,
			"0.003": 20.5767454129,
			"0.004": 17.7373907878,
			"0.005": 13.4573205125,
			"0.006": 15.0008150697,
			"0.007": 23.9945726306,
			"0.008": 17.0165655984,
			"0.009": 10.753618917,
			"0.01": 5.38894374852,
			"0.011": 1.20462104897,
			"0.012": 2.03337331279,
			"0.013": 1.87058923295,
			"0.014": 1.48334955569,
			"0.015": 1.5769393042,
			"0.016": 1.73879586751,
			"0.017": 1.10047122981,
			"0.018": 0.0775702541634,
			"0.019": 0.0,
			"0.02": 0.0,
			"0.021": 0.0,
			"0.022": 0.0,
			"0.023": 0.0,
			"0.024": 0.0,
			"0.025": 0.0
		}
	}
}
