{
	 "smiles": "COC1=CC(CNC(=O)N2C=CN=C2)=CC=C1", 
	 "Tm": 372.15, 
	 "num_atms": 30, 
	 "gaussian": { 
		 "optdone": 1, 
		 "sigma_profile": "yes", 
		 "theory": "DFT", 
		 "functional": "B3LYP", 
		 "basiset": "6-31G**", 
		 "properties": { 
			 "R2extent": 5389.2413, 
			 "electric_dipole_moment_norm": 2.84454818556, 
			 "electric_quadrupole_moment_norm": 10.4418238057, 
			 "total_energy": -779.802368849, 
			 "HOMO_LUMO_gap": 0.20509, 
			 "cosmo_polarized_energy": -16.91, 
			 "cosmo_cavitation_energy": 34.24, 
			 "cosmo_dispersion_energy": -24.02, 
			 "cosmo_repulsion_energy": 1.86, 
			 "cosmo_total_nonelectrostatic_energy": 12.07, 
			 "SMD_solvation_energy": 6.57 
		},
		"coords": [
			{
				"x": -2.8261820148,
				"y": -2.610383839,
				"z": 2.2557437246,
				"element": "C" 
			},
			{
				"x": -3.4120765399,
				"y": -1.9199828195,
				"z": 1.1620777845,
				"element": "O" 
			},
			{
				"x": -2.6874879805,
				"y": -0.9446218861,
				"z": 0.5450544588,
				"element": "C" 
			},
			{
				"x": -1.3986088127,
				"y": -0.5539303409,
				"z": 0.9325823708,
				"element": "C" 
			},
			{
				"x": -0.7359193821,
				"y": 0.4634287919,
				"z": 0.2342999879,
				"element": "C" 
			},
			{
				"x": 0.6797475622,
				"y": 0.8818900993,
				"z": 0.6054840458,
				"element": "C" 
			},
			{
				"x": 1.0925613946,
				"y": 0.4960050757,
				"z": 1.9544843162,
				"element": "N" 
			},
			{
				"x": 2.2268433055,
				"y": -0.1696064054,
				"z": 2.3440252308,
				"element": "C" 
			},
			{
				"x": 2.7588342,
				"y": 0.0005376932,
				"z": 3.4261658507,
				"element": "O" 
			},
			{
				"x": 2.7517461554,
				"y": -1.1242414204,
				"z": 1.4239835988,
				"element": "N" 
			},
			{
				"x": 4.0659724362,
				"y": -1.5767156094,
				"z": 1.4775255058,
				"element": "C" 
			},
			{
				"x": 4.1513637809,
				"y": -2.5671148411,
				"z": 0.5426356244,
				"element": "C" 
			},
			{
				"x": 2.9280479619,
				"y": -2.7714726197,
				"z": -0.0750436207,
				"element": "N" 
			},
			{
				"x": 2.1142702718,
				"y": -1.9049833923,
				"z": 0.468118541,
				"element": "C" 
			},
			{
				"x": -1.3652119323,
				"y": 1.0924119081,
				"z": -0.8428900403,
				"element": "C" 
			},
			{
				"x": -2.6491896536,
				"y": 0.695349164,
				"z": -1.2252111605,
				"element": "C" 
			},
			{
				"x": -3.3132482209,
				"y": -0.3160226571,
				"z": -0.5407616203,
				"element": "C" 
			},
			{
				"x": -3.5666185319,
				"y": -3.3430746098,
				"z": 2.5796140778,
				"element": "H" 
			},
			{
				"x": -1.9075545285,
				"y": -3.1325778016,
				"z": 1.9596699643,
				"element": "H" 
			},
			{
				"x": -2.6013765484,
				"y": -1.9330172484,
				"z": 3.0895282034,
				"element": "H" 
			},
			{
				"x": -0.9054312525,
				"y": -1.0157115768,
				"z": 1.7790384996,
				"element": "H" 
			},
			{
				"x": 0.7677441969,
				"y": 1.9715365854,
				"z": 0.5088996552,
				"element": "H" 
			},
			{
				"x": 1.3945629086,
				"y": 0.4583743685,
				"z": -0.1048934868,
				"element": "H" 
			},
			{
				"x": 0.7711851953,
				"y": 1.0986486165,
				"z": 2.7015790932,
				"element": "H" 
			},
			{
				"x": 4.7690070081,
				"y": -1.1445892475,
				"z": 2.1701856482,
				"element": "H" 
			},
			{
				"x": 5.0189042711,
				"y": -3.1531329507,
				"z": 0.2737334864,
				"element": "H" 
			},
			{
				"x": 1.0597007879,
				"y": -1.8085912879,
				"z": 0.2539090418,
				"element": "H" 
			},
			{
				"x": -0.8573334769,
				"y": 1.8877491301,
				"z": -1.3822277067,
				"element": "H" 
			},
			{
				"x": -3.1384427889,
				"y": 1.1839217749,
				"z": -2.0629232961,
				"element": "H" 
			},
			{
				"x": -4.3119097725,
				"y": -0.6336826539,
				"z": -0.8209877784,
				"element": "H" 
			}
		],
		 "valence_orbital": [ 
			{
				"type": "occ",
				"energy": -0.27682,
				"method": "rhf"
			},
			{
				"type": "occ",
				"energy": -0.26575,
				"method": "rhf"
			},
			{
				"type": "occ",
				"energy": -0.25751,
				"method": "rhf"
			},
			{
				"type": "occ",
				"energy": -0.2368,
				"method": "rhf"
			},
			{
				"type": "occ",
				"energy": -0.22658,
				"method": "rhf"
			},
			{
				"type": "unocc",
				"energy": -0.02149,
				"method": "rhf"
			},
			{
				"type": "unocc",
				"energy": -0.01196,
				"method": "rhf"
			},
			{
				"type": "unocc",
				"energy": -0.00117,
				"method": "rhf"
			},
			{
				"type": "unocc",
				"energy": 0.0521,
				"method": "rhf"
			},
			{
				"type": "unocc",
				"energy": 0.06257,
				"method": "rhf"
			}
		],
		"cosmo_sigma_profile": { 
			"-0.025": 0.0,
			"-0.024": 0.0,
			"-0.023": 0.0,
			"-0.022": 0.0,
			"-0.021": 0.0,
			"-0.02": 0.0,
			"-0.019": 0.0,
			"-0.018": 0.0,
			"-0.017": 0.0,
			"-0.016": 0.0,
			"-0.015": 0.665535363708,
			"-0.014": 1.18733432819,
			"-0.013": 0.896162554708,
			"-0.012": 1.07925000588,
			"-0.011": 0.946549892121,
			"-0.01": 1.1026482485,
			"-0.009": 1.17521538786,
			"-0.008": 2.52064113855,
			"-0.007": 6.69184713771,
			"-0.006": 19.493548406,
			"-0.005": 29.2801757399,
			"-0.004": 28.3815276441,
			"-0.003": 24.0405398256,
			"-0.002": 15.3141002904,
			"-0.001": 14.8166961209,
			"0.0": 12.9918115238,
			"0.001": 10.3392230664,
			"0.002": 12.8917904759,
			"0.003": 14.8276063521,
			"0.004": 17.1425285148,
			"0.005": 13.7752337434,
			"0.006": 9.74411885401,
			"0.007": 3.59708589758,
			"0.008": 3.74875600959,
			"0.009": 4.61482360451,
			"0.01": 4.82195132438,
			"0.011": 4.10273526032,
			"0.012": 6.77770954124,
			"0.013": 2.16163758432,
			"0.014": 1.37405645593,
			"0.015": 1.2266335477,
			"0.016": 0.942287104376,
			"0.017": 0.728829320091,
			"0.018": 0.0516778373952,
			"0.019": 0.0,
			"0.02": 0.0,
			"0.021": 0.0,
			"0.022": 0.0,
			"0.023": 0.0,
			"0.024": 0.0,
			"0.025": 0.0
		}
	}
}
