{
	 "smiles": "OC(=O)C(=CC1=CC=CC=C1)C#N", 
	 "Tm": 448.15, 
	 "num_atms": 20, 
	 "gaussian": { 
		 "optdone": 1, 
		 "sigma_profile": "yes", 
		 "theory": "DFT", 
		 "functional": "B3LYP", 
		 "basiset": "6-31G**", 
		 "properties": { 
			 "R2extent": 3499.0139, 
			 "electric_dipole_moment_norm": 7.59078469988, 
			 "electric_quadrupole_moment_norm": 20.7271093322, 
			 "total_energy": -590.450102694, 
			 "HOMO_LUMO_gap": 0.1578, 
			 "cosmo_polarized_energy": -20.52, 
			 "cosmo_cavitation_energy": 26.22, 
			 "cosmo_dispersion_energy": -18.52, 
			 "cosmo_repulsion_energy": 1.46, 
			 "cosmo_total_nonelectrostatic_energy": 9.16, 
			 "SMD_solvation_energy": 6.95 
		},
		"coords": [
			{
				"x": -2.4162920869,
				"y": -3.8999075144,
				"z": 1.4550940047,
				"element": "O" 
			},
			{
				"x": -2.5594036805,
				"y": -2.6918834013,
				"z": 2.0623563706,
				"element": "C" 
			},
			{
				"x": -3.4837757574,
				"y": -2.4781181488,
				"z": 2.8043057403,
				"element": "O" 
			},
			{
				"x": -1.5223779541,
				"y": -1.648421717,
				"z": 1.7305082281,
				"element": "C" 
			},
			{
				"x": -0.8938806037,
				"y": -1.6289488108,
				"z": 0.5222576402,
				"element": "C" 
			},
			{
				"x": 0.0723631262,
				"y": -0.7086025681,
				"z": -0.0639152989,
				"element": "C" 
			},
			{
				"x": 0.455946379,
				"y": -0.9548929882,
				"z": -1.3999661876,
				"element": "C" 
			},
			{
				"x": 1.3746186161,
				"y": -0.1362417753,
				"z": -2.0477690207,
				"element": "C" 
			},
			{
				"x": 1.935015476,
				"y": 0.9485083889,
				"z": -1.3698496807,
				"element": "C" 
			},
			{
				"x": 1.5695555169,
				"y": 1.2054011585,
				"z": -0.0450678214,
				"element": "C" 
			},
			{
				"x": 0.6492913347,
				"y": 0.3910147562,
				"z": 0.6069600544,
				"element": "C" 
			},
			{
				"x": -1.3626880941,
				"y": -0.6457029206,
				"z": 2.736996659,
				"element": "C" 
			},
			{
				"x": -1.2204121804,
				"y": 0.1576942,
				"z": 3.5667680191,
				"element": "N" 
			},
			{
				"x": -1.5212764985,
				"y": -3.9935904887,
				"z": 1.100312563,
				"element": "H" 
			},
			{
				"x": -1.1838191809,
				"y": -2.4297950379,
				"z": -0.156661055,
				"element": "H" 
			},
			{
				"x": 0.0204731187,
				"y": -1.7983835541,
				"z": -1.9297594308,
				"element": "H" 
			},
			{
				"x": 1.6533103603,
				"y": -0.3427970573,
				"z": -3.0764800204,
				"element": "H" 
			},
			{
				"x": 2.6535213886,
				"y": 1.5908925845,
				"z": -1.8702775721,
				"element": "H" 
			},
			{
				"x": 2.004798075,
				"y": 2.0471828912,
				"z": 0.4846647135,
				"element": "H" 
			},
			{
				"x": 0.3818326449,
				"y": 0.6095920032,
				"z": 1.6326220947,
				"element": "H" 
			}
		],
		 "valence_orbital": [ 
			{
				"type": "occ",
				"energy": -0.33159,
				"method": "rhf"
			},
			{
				"type": "occ",
				"energy": -0.32341,
				"method": "rhf"
			},
			{
				"type": "occ",
				"energy": -0.28977,
				"method": "rhf"
			},
			{
				"type": "occ",
				"energy": -0.27959,
				"method": "rhf"
			},
			{
				"type": "occ",
				"energy": -0.25969,
				"method": "rhf"
			},
			{
				"type": "unocc",
				"energy": -0.10189,
				"method": "rhf"
			},
			{
				"type": "unocc",
				"energy": -0.0283,
				"method": "rhf"
			},
			{
				"type": "unocc",
				"energy": -0.00443,
				"method": "rhf"
			},
			{
				"type": "unocc",
				"energy": 0.00818,
				"method": "rhf"
			},
			{
				"type": "unocc",
				"energy": 0.02041,
				"method": "rhf"
			}
		],
		"cosmo_sigma_profile": { 
			"-0.025": 0.0,
			"-0.024": 0.0,
			"-0.023": 0.0,
			"-0.022": 0.0,
			"-0.021": 0.0,
			"-0.02": 0.334348826606,
			"-0.019": 1.27570328627,
			"-0.018": 0.984092282389,
			"-0.017": 0.948445928435,
			"-0.016": 1.19038393371,
			"-0.015": 0.95283110275,
			"-0.014": 1.13349928141,
			"-0.013": 0.939157179737,
			"-0.012": 1.06523268497,
			"-0.011": 1.61607516554,
			"-0.01": 2.54494882725,
			"-0.009": 2.68435108028,
			"-0.008": 3.04171602265,
			"-0.007": 8.63614211645,
			"-0.006": 11.6804768077,
			"-0.005": 14.1891177548,
			"-0.004": 10.6609466645,
			"-0.003": 13.3526353717,
			"-0.002": 13.016149497,
			"-0.001": 13.07373165,
			"0.0": 10.8410768023,
			"0.001": 11.1804415531,
			"0.002": 14.6256728986,
			"0.003": 16.454161777,
			"0.004": 5.71748064547,
			"0.005": 3.99441351382,
			"0.006": 5.32012470383,
			"0.007": 6.46377679835,
			"0.008": 6.55300506286,
			"0.009": 7.35004637578,
			"0.01": 8.28179967375,
			"0.011": 7.6188752281,
			"0.012": 4.03636724706,
			"0.013": 0.497475178914,
			"0.014": 0.0,
			"0.015": 0.0,
			"0.016": 0.0,
			"0.017": 0.0,
			"0.018": 0.0,
			"0.019": 0.0,
			"0.02": 0.0,
			"0.021": 0.0,
			"0.022": 0.0,
			"0.023": 0.0,
			"0.024": 0.0,
			"0.025": 0.0
		}
	}
}
