{
	 "smiles": "C=NCC#N", 
	 "Tm": 402.15, 
	 "num_atms": 9, 
	 "gaussian": { 
		 "optdone": 1, 
		 "sigma_profile": "yes", 
		 "theory": "DFT", 
		 "functional": "B3LYP", 
		 "basiset": "6-31G**", 
		 "properties": { 
			 "R2extent": 1017.0354, 
			 "electric_dipole_moment_norm": 4.48914583523, 
			 "electric_quadrupole_moment_norm": 12.5110160958, 
			 "total_energy": -226.174363174, 
			 "HOMO_LUMO_gap": 0.24796, 
			 "cosmo_polarized_energy": -11.11, 
			 "cosmo_cavitation_energy": 14.33, 
			 "cosmo_dispersion_energy": -9.78, 
			 "cosmo_repulsion_energy": 0.88, 
			 "cosmo_total_nonelectrostatic_energy": 5.43, 
			 "SMD_solvation_energy": 2.42 
		},
		"coords": [
			{
				"x": -1.668676977,
				"y": -3.1597582,
				"z": -0.6854319893,
				"element": "C" 
			},
			{
				"x": -1.1530905502,
				"y": -2.1385412257,
				"z": -0.1387168917,
				"element": "N" 
			},
			{
				"x": -1.388619577,
				"y": -0.8540159543,
				"z": -0.7960439371,
				"element": "C" 
			},
			{
				"x": -2.0251069896,
				"y": 0.0969707008,
				"z": 0.1277717637,
				"element": "C" 
			},
			{
				"x": -2.5411005906,
				"y": 0.8521947338,
				"z": 0.8408278836,
				"element": "N" 
			},
			{
				"x": -2.2795160519,
				"y": -3.129592306,
				"z": -1.6000098014,
				"element": "H" 
			},
			{
				"x": -1.5036567581,
				"y": -4.1381328562,
				"z": -0.2323722609,
				"element": "H" 
			},
			{
				"x": -0.4177541781,
				"y": -0.4364463892,
				"z": -1.091009512,
				"element": "H" 
			},
			{
				"x": -2.0104783277,
				"y": -0.9269785032,
				"z": -1.704015255,
				"element": "H" 
			}
		],
		 "valence_orbital": [ 
			{
				"type": "occ",
				"energy": -0.3661,
				"method": "rhf"
			},
			{
				"type": "occ",
				"energy": -0.34542,
				"method": "rhf"
			},
			{
				"type": "occ",
				"energy": -0.33557,
				"method": "rhf"
			},
			{
				"type": "occ",
				"energy": -0.32758,
				"method": "rhf"
			},
			{
				"type": "occ",
				"energy": -0.28469,
				"method": "rhf"
			},
			{
				"type": "unocc",
				"energy": -0.03673,
				"method": "rhf"
			},
			{
				"type": "unocc",
				"energy": 0.02475,
				"method": "rhf"
			},
			{
				"type": "unocc",
				"energy": 0.03364,
				"method": "rhf"
			},
			{
				"type": "unocc",
				"energy": 0.08844,
				"method": "rhf"
			},
			{
				"type": "unocc",
				"energy": 0.11944,
				"method": "rhf"
			}
		],
		"cosmo_sigma_profile": { 
			"-0.025": 0.0,
			"-0.024": 0.0,
			"-0.023": 0.0,
			"-0.022": 0.0,
			"-0.021": 0.0,
			"-0.02": 0.0,
			"-0.019": 0.0,
			"-0.018": 0.0,
			"-0.017": 0.0,
			"-0.016": 0.0,
			"-0.015": 0.0,
			"-0.014": 0.0,
			"-0.013": 0.0,
			"-0.012": 0.0,
			"-0.011": 0.0,
			"-0.01": 0.499754032574,
			"-0.009": 5.53738904989,
			"-0.008": 8.89563306736,
			"-0.007": 10.0433358026,
			"-0.006": 8.76320668364,
			"-0.005": 8.07022984436,
			"-0.004": 6.44471259948,
			"-0.003": 5.4419092025,
			"-0.002": 4.7304484723,
			"-0.001": 4.34647261575,
			"0.0": 3.73628827171,
			"0.001": 3.64535342601,
			"0.002": 2.5889522561,
			"0.003": 4.0803669518,
			"0.004": 4.3381722288,
			"0.005": 3.65972910838,
			"0.006": 4.36576911316,
			"0.007": 3.76766255476,
			"0.008": 4.640678715,
			"0.009": 4.3627461805,
			"0.01": 3.85270621569,
			"0.011": 3.45439127849,
			"0.012": 3.10998645515,
			"0.013": 2.0128725833,
			"0.014": 0.801904022253,
			"0.015": 0.405713447382,
			"0.016": 0.0,
			"0.017": 0.0,
			"0.018": 0.0,
			"0.019": 0.0,
			"0.02": 0.0,
			"0.021": 0.0,
			"0.022": 0.0,
			"0.023": 0.0,
			"0.024": 0.0,
			"0.025": 0.0
		}
	}
}
