{
	 "smiles": "CNC1=NS(=O)(=O)C2=C1C=CC=C2", 
	 "Tm": 543.15, 
	 "num_atms": 21, 
	 "gaussian": { 
		 "optdone": 1, 
		 "sigma_profile": "yes", 
		 "theory": "DFT", 
		 "functional": "B3LYP", 
		 "basiset": "6-31G**", 
		 "properties": { 
			 "R2extent": 2780.283, 
			 "electric_dipole_moment_norm": 8.82474032876, 
			 "electric_quadrupole_moment_norm": 23.983216965, 
			 "total_energy": -967.731585006, 
			 "HOMO_LUMO_gap": 0.1745, 
			 "cosmo_polarized_energy": -24.7, 
			 "cosmo_cavitation_energy": 26.21, 
			 "cosmo_dispersion_energy": -20.21, 
			 "cosmo_repulsion_energy": 1.53, 
			 "cosmo_total_nonelectrostatic_energy": 7.54, 
			 "SMD_solvation_energy": 2.16 
		},
		"coords": [
			{
				"x": 2.390655402,
				"y": 1.5443429477,
				"z": 2.135729731,
				"element": "C" 
			},
			{
				"x": 2.7198536871,
				"y": 0.7309582868,
				"z": 0.9789039991,
				"element": "N" 
			},
			{
				"x": 1.907425948,
				"y": 0.2277759673,
				"z": 0.0222564863,
				"element": "C" 
			},
			{
				"x": 2.4482125582,
				"y": -0.4878841374,
				"z": -0.9315680241,
				"element": "N" 
			},
			{
				"x": 1.2783640183,
				"y": -1.0179442361,
				"z": -2.0163451183,
				"element": "S" 
			},
			{
				"x": 1.145480472,
				"y": -2.4742152175,
				"z": -1.9417035591,
				"element": "O" 
			},
			{
				"x": 1.475584381,
				"y": -0.3822814127,
				"z": -3.3205878727,
				"element": "O" 
			},
			{
				"x": -0.0881255936,
				"y": -0.2298916784,
				"z": -1.149075999,
				"element": "C" 
			},
			{
				"x": 0.4213224616,
				"y": 0.4300159992,
				"z": -0.0279067322,
				"element": "C" 
			},
			{
				"x": -0.4624996642,
				"y": 1.1213938884,
				"z": 0.8065739296,
				"element": "C" 
			},
			{
				"x": -1.8252361789,
				"y": 1.1279752017,
				"z": 0.4896325207,
				"element": "C" 
			},
			{
				"x": -2.3092148979,
				"y": 0.4598761215,
				"z": -0.6378295132,
				"element": "C" 
			},
			{
				"x": -1.4325520271,
				"y": -0.234462911,
				"z": -1.4786753307,
				"element": "C" 
			},
			{
				"x": 3.3180651939,
				"y": 1.7499873372,
				"z": 2.6723313842,
				"element": "H" 
			},
			{
				"x": 1.9495568584,
				"y": 2.5065393605,
				"z": 1.8531910416,
				"element": "H" 
			},
			{
				"x": 1.7146070064,
				"y": 1.027818646,
				"z": 2.8258982192,
				"element": "H" 
			},
			{
				"x": 3.6895683299,
				"y": 0.4842948056,
				"z": 0.8374196873,
				"element": "H" 
			},
			{
				"x": -0.1253053921,
				"y": 1.6501689083,
				"z": 1.6876392044,
				"element": "H" 
			},
			{
				"x": -2.515765635,
				"y": 1.663197047,
				"z": 1.1340732132,
				"element": "H" 
			},
			{
				"x": -3.3711171592,
				"y": 0.4795203441,
				"z": -0.8630033284,
				"element": "H" 
			},
			{
				"x": -1.7904797687,
				"y": -0.7588852681,
				"z": -2.3585539388,
				"element": "H" 
			}
		],
		 "valence_orbital": [ 
			{
				"type": "occ",
				"energy": -0.30414,
				"method": "rhf"
			},
			{
				"type": "occ",
				"energy": -0.28649,
				"method": "rhf"
			},
			{
				"type": "occ",
				"energy": -0.28416,
				"method": "rhf"
			},
			{
				"type": "occ",
				"energy": -0.27026,
				"method": "rhf"
			},
			{
				"type": "occ",
				"energy": -0.24462,
				"method": "rhf"
			},
			{
				"type": "unocc",
				"energy": -0.07012,
				"method": "rhf"
			},
			{
				"type": "unocc",
				"energy": -0.04098,
				"method": "rhf"
			},
			{
				"type": "unocc",
				"energy": 0.02982,
				"method": "rhf"
			},
			{
				"type": "unocc",
				"energy": 0.05203,
				"method": "rhf"
			},
			{
				"type": "unocc",
				"energy": 0.0643,
				"method": "rhf"
			}
		],
		"cosmo_sigma_profile": { 
			"-0.025": 0.0,
			"-0.024": 0.0,
			"-0.023": 0.0,
			"-0.022": 0.0,
			"-0.021": 0.0,
			"-0.02": 0.0,
			"-0.019": 0.0,
			"-0.018": 0.0,
			"-0.017": 0.0,
			"-0.016": 0.16199979411,
			"-0.015": 1.05929875987,
			"-0.014": 1.28740331592,
			"-0.013": 1.09597140433,
			"-0.012": 0.637783396605,
			"-0.011": 1.2647387781,
			"-0.01": 1.28541318516,
			"-0.009": 2.11344127544,
			"-0.008": 8.42944449464,
			"-0.007": 16.1952942265,
			"-0.006": 18.1070567546,
			"-0.005": 13.5127978813,
			"-0.004": 14.1444253228,
			"-0.003": 14.4943373694,
			"-0.002": 9.08076800759,
			"-0.001": 9.74174477385,
			"0.0": 11.4137672128,
			"0.001": 15.8481276585,
			"0.002": 12.1287323884,
			"0.003": 2.67071211622,
			"0.004": 2.31206909109,
			"0.005": 2.74600465351,
			"0.006": 3.28059434555,
			"0.007": 2.85752054487,
			"0.008": 3.53244576261,
			"0.009": 5.53322785897,
			"0.01": 7.40361476903,
			"0.011": 16.2181150247,
			"0.012": 10.3530036986,
			"0.013": 1.14197475401,
			"0.014": 0.306141276947,
			"0.015": 0.0,
			"0.016": 0.0,
			"0.017": 0.0,
			"0.018": 0.0,
			"0.019": 0.0,
			"0.02": 0.0,
			"0.021": 0.0,
			"0.022": 0.0,
			"0.023": 0.0,
			"0.024": 0.0,
			"0.025": 0.0
		}
	}
}
