{
	 "smiles": "CN(C)C#N", 
	 "Tm": 232.15, 
	 "num_atms": 11, 
	 "gaussian": { 
		 "optdone": 1, 
		 "sigma_profile": "yes", 
		 "theory": "DFT", 
		 "functional": "B3LYP", 
		 "basiset": "6-31G**", 
		 "properties": { 
			 "R2extent": 946.9962, 
			 "electric_dipole_moment_norm": 4.7314399806, 
			 "electric_quadrupole_moment_norm": 15.0617287198, 
			 "total_energy": -227.40241476, 
			 "HOMO_LUMO_gap": 0.28332, 
			 "cosmo_polarized_energy": -10.49, 
			 "cosmo_cavitation_energy": 15.18, 
			 "cosmo_dispersion_energy": -10.68, 
			 "cosmo_repulsion_energy": 0.96, 
			 "cosmo_total_nonelectrostatic_energy": 5.46, 
			 "SMD_solvation_energy": 4.57 
		},
		"coords": [
			{
				"x": 0.752437517,
				"y": -1.5153916287,
				"z": -1.9550792674,
				"element": "C" 
			},
			{
				"x": 0.4776538534,
				"y": -1.8915760741,
				"z": -0.5653681588,
				"element": "N" 
			},
			{
				"x": 1.041543329,
				"y": -1.0180722044,
				"z": 0.4677524352,
				"element": "C" 
			},
			{
				"x": -0.7167550428,
				"y": -2.44344646,
				"z": -0.30955686,
				"element": "C" 
			},
			{
				"x": -1.7373273457,
				"y": -2.9647281166,
				"z": -0.0807687715,
				"element": "N" 
			},
			{
				"x": 0.3051324919,
				"y": -0.5469149693,
				"z": -2.2207543409,
				"element": "H" 
			},
			{
				"x": 0.3575346222,
				"y": -2.2830808718,
				"z": -2.6222971906,
				"element": "H" 
			},
			{
				"x": 1.8356471172,
				"y": -1.4536587147,
				"z": -2.0941662615,
				"element": "H" 
			},
			{
				"x": 0.8437413406,
				"y": -1.4469881989,
				"z": 1.4513073108,
				"element": "H" 
			},
			{
				"x": 2.1240937695,
				"y": -0.9573379756,
				"z": 0.3232004187,
				"element": "H" 
			},
			{
				"x": 0.6212983478,
				"y": -0.0029047861,
				"z": 0.4298306862,
				"element": "H" 
			}
		],
		 "valence_orbital": [ 
			{
				"type": "occ",
				"energy": -0.40552,
				"method": "rhf"
			},
			{
				"type": "occ",
				"energy": -0.35712,
				"method": "rhf"
			},
			{
				"type": "occ",
				"energy": -0.34481,
				"method": "rhf"
			},
			{
				"type": "occ",
				"energy": -0.3171,
				"method": "rhf"
			},
			{
				"type": "occ",
				"energy": -0.24177,
				"method": "rhf"
			},
			{
				"type": "unocc",
				"energy": 0.04155,
				"method": "rhf"
			},
			{
				"type": "unocc",
				"energy": 0.06573,
				"method": "rhf"
			},
			{
				"type": "unocc",
				"energy": 0.07662,
				"method": "rhf"
			},
			{
				"type": "unocc",
				"energy": 0.12,
				"method": "rhf"
			},
			{
				"type": "unocc",
				"energy": 0.125,
				"method": "rhf"
			}
		],
		"cosmo_sigma_profile": { 
			"-0.025": 0.0,
			"-0.024": 0.0,
			"-0.023": 0.0,
			"-0.022": 0.0,
			"-0.021": 0.0,
			"-0.02": 0.0,
			"-0.019": 0.0,
			"-0.018": 0.0,
			"-0.017": 0.0,
			"-0.016": 0.0,
			"-0.015": 0.0,
			"-0.014": 0.0,
			"-0.013": 0.0,
			"-0.012": 0.0,
			"-0.011": 0.0,
			"-0.01": 0.0,
			"-0.009": 0.0,
			"-0.008": 0.0,
			"-0.007": 3.58350022246,
			"-0.006": 10.7187605693,
			"-0.005": 17.0175761547,
			"-0.004": 15.5708629851,
			"-0.003": 20.517041626,
			"-0.002": 8.1871453204,
			"-0.001": 3.16121305862,
			"0.0": 1.90998742474,
			"0.001": 2.49422468768,
			"0.002": 3.58050841606,
			"0.003": 2.88766585222,
			"0.004": 2.22664946494,
			"0.005": 2.22181191246,
			"0.006": 2.68062782504,
			"0.007": 1.5729228328,
			"0.008": 2.60065892959,
			"0.009": 2.61413779243,
			"0.01": 2.7729789527,
			"0.011": 3.74942093108,
			"0.012": 3.47490866291,
			"0.013": 3.16219557647,
			"0.014": 2.93157601046,
			"0.015": 0.852611977828,
			"0.016": 0.0,
			"0.017": 0.0,
			"0.018": 0.0,
			"0.019": 0.0,
			"0.02": 0.0,
			"0.021": 0.0,
			"0.022": 0.0,
			"0.023": 0.0,
			"0.024": 0.0,
			"0.025": 0.0
		}
	}
}
