{
	 "smiles": "NC1=C2C=CC=CC2=NC=N1", 
	 "Tm": 538.15, 
	 "num_atms": 18, 
	 "gaussian": { 
		 "optdone": 1, 
		 "sigma_profile": "yes", 
		 "theory": "DFT", 
		 "functional": "B3LYP", 
		 "basiset": "6-31G**", 
		 "properties": { 
			 "R2extent": 3276.6336, 
			 "electric_dipole_moment_norm": 4.05579650007, 
			 "electric_quadrupole_moment_norm": 14.7903567878, 
			 "total_energy": -473.319433331, 
			 "HOMO_LUMO_gap": 0.18043, 
			 "cosmo_polarized_energy": -14.47, 
			 "cosmo_cavitation_energy": 22.04, 
			 "cosmo_dispersion_energy": -16.69, 
			 "cosmo_repulsion_energy": 1.31, 
			 "cosmo_total_nonelectrostatic_energy": 6.66, 
			 "SMD_solvation_energy": 0.6 
		},
		"coords": [
			{
				"x": 1.421625555,
				"y": 0.7223459603,
				"z": -4.5832471376,
				"element": "N" 
			},
			{
				"x": 1.9958215882,
				"y": 0.5186165995,
				"z": -3.2859473915,
				"element": "C" 
			},
			{
				"x": 1.3390407512,
				"y": 0.9411080281,
				"z": -2.0832626486,
				"element": "C" 
			},
			{
				"x": 0.0795681667,
				"y": 1.591790689,
				"z": -2.0403751876,
				"element": "C" 
			},
			{
				"x": -0.4705671202,
				"y": 1.9598066998,
				"z": -0.8320239517,
				"element": "C" 
			},
			{
				"x": 0.2151187429,
				"y": 1.6925332104,
				"z": 0.3791537312,
				"element": "C" 
			},
			{
				"x": 1.4393160828,
				"y": 1.0623078574,
				"z": 0.3683826627,
				"element": "C" 
			},
			{
				"x": 2.0284200386,
				"y": 0.6726752881,
				"z": -0.8625638454,
				"element": "C" 
			},
			{
				"x": 3.2428594327,
				"y": 0.0488895514,
				"z": -0.8537631822,
				"element": "N" 
			},
			{
				"x": 3.7276903435,
				"y": -0.2832293204,
				"z": -2.0290000732,
				"element": "C" 
			},
			{
				"x": 3.1665516624,
				"y": -0.0809609716,
				"z": -3.252512962,
				"element": "N" 
			},
			{
				"x": 1.2594701329,
				"y": 1.7138084955,
				"z": -4.7465366064,
				"element": "H" 
			},
			{
				"x": 0.5141623192,
				"y": 0.2654400791,
				"z": -4.6440735184,
				"element": "H" 
			},
			{
				"x": -0.4453008859,
				"y": 1.7963951242,
				"z": -2.9682390538,
				"element": "H" 
			},
			{
				"x": -1.4350465086,
				"y": 2.4578801166,
				"z": -0.8024256516,
				"element": "H" 
			},
			{
				"x": -0.234472394,
				"y": 1.9901445976,
				"z": 1.3220959953,
				"element": "H" 
			},
			{
				"x": 1.9851939327,
				"y": 0.8458984917,
				"z": 1.280655651,
				"element": "H" 
			},
			{
				"x": 4.6955481598,
				"y": -0.7815504967,
				"z": -2.0397168302,
				"element": "H" 
			}
		],
		 "valence_orbital": [ 
			{
				"type": "occ",
				"energy": -0.29604,
				"method": "rhf"
			},
			{
				"type": "occ",
				"energy": -0.27269,
				"method": "rhf"
			},
			{
				"type": "occ",
				"energy": -0.26558,
				"method": "rhf"
			},
			{
				"type": "occ",
				"energy": -0.24972,
				"method": "rhf"
			},
			{
				"type": "occ",
				"energy": -0.24676,
				"method": "rhf"
			},
			{
				"type": "unocc",
				"energy": -0.06633,
				"method": "rhf"
			},
			{
				"type": "unocc",
				"energy": -0.031,
				"method": "rhf"
			},
			{
				"type": "unocc",
				"energy": 0.01208,
				"method": "rhf"
			},
			{
				"type": "unocc",
				"energy": 0.06669,
				"method": "rhf"
			},
			{
				"type": "unocc",
				"energy": 0.07411,
				"method": "rhf"
			}
		],
		"cosmo_sigma_profile": { 
			"-0.025": 0.0,
			"-0.024": 0.0,
			"-0.023": 0.0,
			"-0.022": 0.0,
			"-0.021": 0.0,
			"-0.02": 0.0,
			"-0.019": 0.0,
			"-0.018": 0.0,
			"-0.017": 0.0,
			"-0.016": 0.0,
			"-0.015": 0.0,
			"-0.014": 0.0,
			"-0.013": 0.204430867723,
			"-0.012": 2.35587831052,
			"-0.011": 3.22726649152,
			"-0.01": 4.33569228199,
			"-0.009": 3.9913613087,
			"-0.008": 3.64146442674,
			"-0.007": 7.110229481,
			"-0.006": 11.6340483502,
			"-0.005": 10.5396436701,
			"-0.004": 10.8628135547,
			"-0.003": 7.87448338989,
			"-0.002": 10.4151766177,
			"-0.001": 10.7866774514,
			"0.0": 11.5535874038,
			"0.001": 13.4762823091,
			"0.002": 14.3560788285,
			"0.003": 13.9090694174,
			"0.004": 6.1538575028,
			"0.005": 2.21410192283,
			"0.006": 2.7975951713,
			"0.007": 3.91718093435,
			"0.008": 1.57514495659,
			"0.009": 1.69311442411,
			"0.01": 2.22027275325,
			"0.011": 2.29821130708,
			"0.012": 1.94578927266,
			"0.013": 2.83629761409,
			"0.014": 1.92763300776,
			"0.015": 1.90824674313,
			"0.016": 1.65388762524,
			"0.017": 1.40771644838,
			"0.018": 1.52983605407,
			"0.019": 0.611486104423,
			"0.02": 0.0,
			"0.021": 0.0,
			"0.022": 0.0,
			"0.023": 0.0,
			"0.024": 0.0,
			"0.025": 0.0
		}
	}
}
