{
	 "smiles": "CCC1=CC2=C(C=C1)C(=O)C1=CC=CC=C1C2=O", 
	 "Tm": 382.15, 
	 "num_atms": 30, 
	 "gaussian": { 
		 "optdone": 1, 
		 "sigma_profile": "yes", 
		 "theory": "DFT", 
		 "functional": "B3LYP", 
		 "basiset": "6-31G**", 
		 "properties": { 
			 "R2extent": 5124.0882, 
			 "electric_dipole_moment_norm": 0.711608220863, 
			 "electric_quadrupole_moment_norm": 22.5796955152, 
			 "total_energy": -767.414231009, 
			 "HOMO_LUMO_gap": 0.15438, 
			 "cosmo_polarized_energy": -9.74, 
			 "cosmo_cavitation_energy": 33.97, 
			 "cosmo_dispersion_energy": -24.67, 
			 "cosmo_repulsion_energy": 1.85, 
			 "cosmo_total_nonelectrostatic_energy": 11.15, 
			 "SMD_solvation_energy": 6.25 
		},
		"coords": [
			{
				"x": -1.3851860478,
				"y": -2.7046044295,
				"z": 4.5875409307,
				"element": "C" 
			},
			{
				"x": -0.8969149135,
				"y": -1.2562771594,
				"z": 4.3979173858,
				"element": "C" 
			},
			{
				"x": -0.9108174955,
				"y": -0.8229570594,
				"z": 2.9484996224,
				"element": "C" 
			},
			{
				"x": 0.2085555209,
				"y": -1.0108868977,
				"z": 2.1320971095,
				"element": "C" 
			},
			{
				"x": 0.1904160451,
				"y": -0.6468903065,
				"z": 0.7822269867,
				"element": "C" 
			},
			{
				"x": -0.9720885844,
				"y": -0.0794795274,
				"z": 0.2248551266,
				"element": "C" 
			},
			{
				"x": -2.0959815348,
				"y": 0.1128508168,
				"z": 1.036643327,
				"element": "C" 
			},
			{
				"x": -2.0628557288,
				"y": -0.2539459773,
				"z": 2.37771774,
				"element": "C" 
			},
			{
				"x": -1.0298724352,
				"y": 0.323819606,
				"z": -1.2072195239,
				"element": "C" 
			},
			{
				"x": -2.0427968029,
				"y": 0.8186863908,
				"z": -1.6921244607,
				"element": "O" 
			},
			{
				"x": 0.1936392628,
				"y": 0.1021892582,
				"z": -2.0332379365,
				"element": "C" 
			},
			{
				"x": 0.1757976897,
				"y": 0.4672725777,
				"z": -3.3843950369,
				"element": "C" 
			},
			{
				"x": 1.3038426637,
				"y": 0.2711578289,
				"z": -4.1769475453,
				"element": "C" 
			},
			{
				"x": 2.4608388326,
				"y": -0.2921636775,
				"z": -3.6252032509,
				"element": "C" 
			},
			{
				"x": 2.4873631894,
				"y": -0.658231956,
				"z": -2.2820138888,
				"element": "C" 
			},
			{
				"x": 1.3578017464,
				"y": -0.4646847098,
				"z": -1.4779834395,
				"element": "C" 
			},
			{
				"x": 1.4147039748,
				"y": -0.8660639229,
				"z": -0.041848966,
				"element": "C" 
			},
			{
				"x": 2.4295338671,
				"y": -1.3580222525,
				"z": 0.4411608899,
				"element": "O" 
			},
			{
				"x": -2.4108472984,
				"y": -2.8250452673,
				"z": 4.2240835117,
				"element": "H" 
			},
			{
				"x": -1.364245089,
				"y": -2.9856977942,
				"z": 5.6452657859,
				"element": "H" 
			},
			{
				"x": -0.7521121797,
				"y": -3.4069231019,
				"z": 4.0361412474,
				"element": "H" 
			},
			{
				"x": 0.1197890961,
				"y": -1.1621970729,
				"z": 4.7958560664,
				"element": "H" 
			},
			{
				"x": -1.5293855198,
				"y": -0.5811000646,
				"z": 4.9863091692,
				"element": "H" 
			},
			{
				"x": 1.1228180252,
				"y": -1.4412441364,
				"z": 2.5299069841,
				"element": "H" 
			},
			{
				"x": -2.9813105907,
				"y": 0.5554355377,
				"z": 0.592433004,
				"element": "H" 
			},
			{
				"x": -2.9407127584,
				"y": -0.0944600043,
				"z": 2.9992732948,
				"element": "H" 
			},
			{
				"x": -0.733402892,
				"y": 0.9016200108,
				"z": -3.7862257672,
				"element": "H" 
			},
			{
				"x": 1.2855907301,
				"y": 0.5558985138,
				"z": -5.2249106876,
				"element": "H" 
			},
			{
				"x": 3.3394016818,
				"y": -0.4440493857,
				"z": -4.2454217481,
				"element": "H" 
			},
			{
				"x": 3.3704375454,
				"y": -1.0964058375,
				"z": -1.8292959307,
				"element": "H" 
			}
		],
		 "valence_orbital": [ 
			{
				"type": "occ",
				"energy": -0.26711,
				"method": "rhf"
			},
			{
				"type": "occ",
				"energy": -0.26593,
				"method": "rhf"
			},
			{
				"type": "occ",
				"energy": -0.26344,
				"method": "rhf"
			},
			{
				"type": "occ",
				"energy": -0.25723,
				"method": "rhf"
			},
			{
				"type": "occ",
				"energy": -0.25431,
				"method": "rhf"
			},
			{
				"type": "unocc",
				"energy": -0.09993,
				"method": "rhf"
			},
			{
				"type": "unocc",
				"energy": -0.05511,
				"method": "rhf"
			},
			{
				"type": "unocc",
				"energy": -0.02051,
				"method": "rhf"
			},
			{
				"type": "unocc",
				"energy": -0.00971,
				"method": "rhf"
			},
			{
				"type": "unocc",
				"energy": 0.05301,
				"method": "rhf"
			}
		],
		"cosmo_sigma_profile": { 
			"-0.025": 0.0,
			"-0.024": 0.0,
			"-0.023": 0.0,
			"-0.022": 0.0,
			"-0.021": 0.0,
			"-0.02": 0.0,
			"-0.019": 0.0,
			"-0.018": 0.0,
			"-0.017": 0.0,
			"-0.016": 0.0,
			"-0.015": 0.0,
			"-0.014": 0.0,
			"-0.013": 0.0,
			"-0.012": 0.0,
			"-0.011": 0.0,
			"-0.01": 0.0,
			"-0.009": 0.0,
			"-0.008": 0.204367566456,
			"-0.007": 5.25148413614,
			"-0.006": 12.3277124167,
			"-0.005": 18.1542686606,
			"-0.004": 20.490940642,
			"-0.003": 24.4331529554,
			"-0.002": 24.1991304717,
			"-0.001": 26.2975690904,
			"0.0": 29.1975032171,
			"0.001": 31.5456520254,
			"0.002": 30.3261925599,
			"0.003": 13.371449909,
			"0.004": 3.42223064196,
			"0.005": 4.13562978822,
			"0.006": 3.52260113403,
			"0.007": 3.17596605775,
			"0.008": 3.00415181354,
			"0.009": 3.37169640906,
			"0.01": 5.47370336343,
			"0.011": 7.34127690501,
			"0.012": 2.93444081611,
			"0.013": 0.0,
			"0.014": 0.0,
			"0.015": 0.0,
			"0.016": 0.0,
			"0.017": 0.0,
			"0.018": 0.0,
			"0.019": 0.0,
			"0.02": 0.0,
			"0.021": 0.0,
			"0.022": 0.0,
			"0.023": 0.0,
			"0.024": 0.0,
			"0.025": 0.0
		}
	}
}
