{
	 "smiles": "COC(=O)C1=CC(=CC(I)=C1)S(Cl)(=O)=O", 
	 "Tm": 341.15, 
	 "num_atms": 21, 
	 "gaussian": { 
		 "optdone": 1, 
		 "sigma_profile": "yes", 
		 "theory": "DFT", 
		 "functional": "B3LYP", 
		 "basiset": "6-31G**", 
		 "properties": { 
			 "R2extent": 5149.3697, 
			 "electric_dipole_moment_norm": 3.4697888149, 
			 "electric_quadrupole_moment_norm": 18.2139477333, 
			 "total_energy": -1479.0642764, 
			 "HOMO_LUMO_gap": 0.16889, 
			 "cosmo_polarized_energy": -10.97, 
			 "cosmo_cavitation_energy": 33.41, 
			 "cosmo_dispersion_energy": -25.71, 
			 "cosmo_repulsion_energy": 1.97, 
			 "cosmo_total_nonelectrostatic_energy": 9.67, 
			 "SMD_solvation_energy": 5.14 
		},
		"coords": [
			{
				"x": 1.373910009,
				"y": -3.9757851202,
				"z": 0.8670922899,
				"element": "C" 
			},
			{
				"x": 1.1635494014,
				"y": -2.5844567269,
				"z": 0.560498344,
				"element": "O" 
			},
			{
				"x": 1.2729154662,
				"y": -1.7402672879,
				"z": 1.6018205982,
				"element": "C" 
			},
			{
				"x": 1.5307263191,
				"y": -2.0864759336,
				"z": 2.7362176498,
				"element": "O" 
			},
			{
				"x": 1.0398090101,
				"y": -0.3167457527,
				"z": 1.1987451602,
				"element": "C" 
			},
			{
				"x": 0.7463178572,
				"y": 0.0448541383,
				"z": -0.1194848571,
				"element": "C" 
			},
			{
				"x": 0.5427095569,
				"y": 1.3937147339,
				"z": -0.3956249827,
				"element": "C" 
			},
			{
				"x": 0.6130468104,
				"y": 2.3901384603,
				"z": 0.5793087228,
				"element": "C" 
			},
			{
				"x": 0.9073192485,
				"y": 2.0013837869,
				"z": 1.8876764648,
				"element": "C" 
			},
			{
				"x": 1.0207082225,
				"y": 3.4654793357,
				"z": 3.4068545004,
				"element": "I" 
			},
			{
				"x": 1.121942724,
				"y": 0.6589974585,
				"z": 2.2006498036,
				"element": "C" 
			},
			{
				"x": 0.1457447556,
				"y": 1.8763658583,
				"z": -2.0761283945,
				"element": "S" 
			},
			{
				"x": 2.0900376958,
				"y": 2.2132544313,
				"z": -2.8749456502,
				"element": "Cl" 
			},
			{
				"x": -0.3967224178,
				"y": 0.7265835563,
				"z": -2.7871896506,
				"element": "O" 
			},
			{
				"x": -0.5202601637,
				"y": 3.1718912022,
				"z": -2.0555974132,
				"element": "O" 
			},
			{
				"x": 1.2471774921,
				"y": -4.5044862904,
				"z": -0.0767051662,
				"element": "H" 
			},
			{
				"x": 0.6429705319,
				"y": -4.3172784404,
				"z": 1.6034961904,
				"element": "H" 
			},
			{
				"x": 2.3795419406,
				"y": -4.1292702042,
				"z": 1.2650494525,
				"element": "H" 
			},
			{
				"x": 0.6716183756,
				"y": -0.7023877523,
				"z": -0.8992761128,
				"element": "H" 
			},
			{
				"x": 0.4334054541,
				"y": 3.4256996325,
				"z": 0.3168947167,
				"element": "H" 
			},
			{
				"x": 1.3512317105,
				"y": 0.3400909143,
				"z": 3.210648334,
				"element": "H" 
			}
		],
		 "valence_orbital": [ 
			{
				"type": "occ",
				"energy": -0.32193,
				"method": "rhf"
			},
			{
				"type": "occ",
				"energy": -0.30411,
				"method": "rhf"
			},
			{
				"type": "occ",
				"energy": -0.30128,
				"method": "rhf"
			},
			{
				"type": "occ",
				"energy": -0.28986,
				"method": "rhf"
			},
			{
				"type": "occ",
				"energy": -0.27008,
				"method": "rhf"
			},
			{
				"type": "unocc",
				"energy": -0.10119,
				"method": "rhf"
			},
			{
				"type": "unocc",
				"energy": -0.082,
				"method": "rhf"
			},
			{
				"type": "unocc",
				"energy": -0.06464,
				"method": "rhf"
			},
			{
				"type": "unocc",
				"energy": -0.05453,
				"method": "rhf"
			},
			{
				"type": "unocc",
				"energy": 0.00916,
				"method": "rhf"
			}
		],
		"cosmo_sigma_profile": { 
			"-0.025": 0.0,
			"-0.024": 0.0,
			"-0.023": 0.0,
			"-0.022": 0.0,
			"-0.021": 0.0,
			"-0.02": 0.0,
			"-0.019": 0.0,
			"-0.018": 0.0,
			"-0.017": 0.0,
			"-0.016": 0.0,
			"-0.015": 0.0,
			"-0.014": 0.0,
			"-0.013": 0.0,
			"-0.012": 0.0,
			"-0.011": 0.0,
			"-0.01": 0.0,
			"-0.009": 0.924951425018,
			"-0.008": 3.88316713354,
			"-0.007": 8.21629485401,
			"-0.006": 14.5431888655,
			"-0.005": 15.9540236053,
			"-0.004": 20.7736221258,
			"-0.003": 23.447549147,
			"-0.002": 30.3967752085,
			"-0.001": 24.8075062013,
			"0.0": 16.2784542488,
			"0.001": 16.3650430829,
			"0.002": 20.3843339412,
			"0.003": 29.5970624876,
			"0.004": 11.3723007093,
			"0.005": 3.87136209889,
			"0.006": 5.34675558331,
			"0.007": 9.12673142793,
			"0.008": 10.0690192936,
			"0.009": 3.65429070784,
			"0.01": 2.74295694935,
			"0.011": 3.97315172774,
			"0.012": 0.747764754387,
			"0.013": 0.0,
			"0.014": 0.0,
			"0.015": 0.0,
			"0.016": 0.0,
			"0.017": 0.0,
			"0.018": 0.0,
			"0.019": 0.0,
			"0.02": 0.0,
			"0.021": 0.0,
			"0.022": 0.0,
			"0.023": 0.0,
			"0.024": 0.0,
			"0.025": 0.0
		}
	}
}
