{
	 "smiles": "NC1=NN=C(CC2=CC(F)=CC=C2)O1", 
	 "Tm": 420.15, 
	 "num_atms": 22, 
	 "gaussian": { 
		 "optdone": 1, 
		 "sigma_profile": "yes", 
		 "theory": "DFT", 
		 "functional": "B3LYP", 
		 "basiset": "6-31G**", 
		 "properties": { 
			 "R2extent": 3409.1826, 
			 "electric_dipole_moment_norm": 2.92884733812, 
			 "electric_quadrupole_moment_norm": 19.9303734707, 
			 "total_energy": -687.066621222, 
			 "HOMO_LUMO_gap": 0.21497, 
			 "cosmo_polarized_energy": -16.64, 
			 "cosmo_cavitation_energy": 28.03, 
			 "cosmo_dispersion_energy": -20.03, 
			 "cosmo_repulsion_energy": 1.58, 
			 "cosmo_total_nonelectrostatic_energy": 9.57, 
			 "SMD_solvation_energy": 3.53 
		},
		"coords": [
			{
				"x": 2.7866391386,
				"y": -2.4524587808,
				"z": -0.9056419598,
				"element": "N" 
			},
			{
				"x": 1.6524053199,
				"y": -1.8121191451,
				"z": -1.3254415307,
				"element": "C" 
			},
			{
				"x": 0.8138814591,
				"y": -2.1696699338,
				"z": -2.2514057622,
				"element": "N" 
			},
			{
				"x": -0.1082674614,
				"y": -1.113559531,
				"z": -2.3422242202,
				"element": "N" 
			},
			{
				"x": 0.2391968482,
				"y": -0.2293429907,
				"z": -1.4698114275,
				"element": "C" 
			},
			{
				"x": -0.4248312553,
				"y": 1.0589995879,
				"z": -1.1230605955,
				"element": "C" 
			},
			{
				"x": -1.106570027,
				"y": 1.0406236873,
				"z": 0.2390027281,
				"element": "C" 
			},
			{
				"x": -0.7437562182,
				"y": 1.9625856716,
				"z": 1.2243803922,
				"element": "C" 
			},
			{
				"x": -1.3942055986,
				"y": 1.933090615,
				"z": 2.4539343162,
				"element": "C" 
			},
			{
				"x": -1.0342251764,
				"y": 2.8292087572,
				"z": 3.3973817658,
				"element": "F" 
			},
			{
				"x": -2.3956710468,
				"y": 1.0151858274,
				"z": 2.7419850028,
				"element": "C" 
			},
			{
				"x": -2.7508019928,
				"y": 0.0957460951,
				"z": 1.752055758,
				"element": "C" 
			},
			{
				"x": -2.1141891751,
				"y": 0.1046881118,
				"z": 0.5114649545,
				"element": "C" 
			},
			{
				"x": 1.3700201578,
				"y": -0.6035884946,
				"z": -0.7712726945,
				"element": "O" 
			},
			{
				"x": 2.8319128614,
				"y": -3.4153353826,
				"z": -1.2094572483,
				"element": "H" 
			},
			{
				"x": 3.029087595,
				"y": -2.313872747,
				"z": 0.0657902751,
				"element": "H" 
			},
			{
				"x": -1.1597023957,
				"y": 1.2450950324,
				"z": -1.91257083,
				"element": "H" 
			},
			{
				"x": 0.3093033275,
				"y": 1.8709897142,
				"z": -1.1603091969,
				"element": "H" 
			},
			{
				"x": 0.0327435543,
				"y": 2.7012981555,
				"z": 1.0527410928,
				"element": "H" 
			},
			{
				"x": -2.8756912284,
				"y": 1.0290946989,
				"z": 3.7142910618,
				"element": "H" 
			},
			{
				"x": -3.5318880397,
				"y": -0.6313528585,
				"z": 1.9532739852,
				"element": "H" 
			},
			{
				"x": -2.3929906463,
				"y": -0.6167060902,
				"z": -0.2513058671,
				"element": "H" 
			}
		],
		 "valence_orbital": [ 
			{
				"type": "occ",
				"energy": -0.31147,
				"method": "rhf"
			},
			{
				"type": "occ",
				"energy": -0.27106,
				"method": "rhf"
			},
			{
				"type": "occ",
				"energy": -0.26177,
				"method": "rhf"
			},
			{
				"type": "occ",
				"energy": -0.24838,
				"method": "rhf"
			},
			{
				"type": "occ",
				"energy": -0.23276,
				"method": "rhf"
			},
			{
				"type": "unocc",
				"energy": -0.01779,
				"method": "rhf"
			},
			{
				"type": "unocc",
				"energy": -0.0059,
				"method": "rhf"
			},
			{
				"type": "unocc",
				"energy": 0.00989,
				"method": "rhf"
			},
			{
				"type": "unocc",
				"energy": 0.05111,
				"method": "rhf"
			},
			{
				"type": "unocc",
				"energy": 0.06874,
				"method": "rhf"
			}
		],
		"cosmo_sigma_profile": { 
			"-0.025": 0.0,
			"-0.024": 0.0,
			"-0.023": 0.0,
			"-0.022": 0.0,
			"-0.021": 0.0,
			"-0.02": 0.0,
			"-0.019": 0.0,
			"-0.018": 0.0,
			"-0.017": 0.0,
			"-0.016": 0.164969190055,
			"-0.015": 1.8387733179,
			"-0.014": 2.98142161294,
			"-0.013": 2.2196779427,
			"-0.012": 2.23081614113,
			"-0.011": 2.63114014349,
			"-0.01": 1.87879416369,
			"-0.009": 1.66317997519,
			"-0.008": 3.8894709748,
			"-0.007": 9.99491053274,
			"-0.006": 11.1649840106,
			"-0.005": 12.1973749889,
			"-0.004": 15.1025869885,
			"-0.003": 12.5762531158,
			"-0.002": 11.5119686199,
			"-0.001": 12.5047750671,
			"0.0": 10.9485153194,
			"0.001": 15.4524341043,
			"0.002": 16.8085246391,
			"0.003": 17.1111891477,
			"0.004": 21.3393367392,
			"0.005": 9.05670417978,
			"0.006": 2.92221702127,
			"0.007": 2.23372548699,
			"0.008": 2.23475911251,
			"0.009": 2.47112255183,
			"0.01": 3.23906552968,
			"0.011": 2.7831079887,
			"0.012": 3.2194463725,
			"0.013": 3.14936977454,
			"0.014": 2.48419646924,
			"0.015": 2.67930166649,
			"0.016": 1.48568525091,
			"0.017": 0.170792486457,
			"0.018": 0.0,
			"0.019": 0.0,
			"0.02": 0.0,
			"0.021": 0.0,
			"0.022": 0.0,
			"0.023": 0.0,
			"0.024": 0.0,
			"0.025": 0.0
		}
	}
}
