{
	 "smiles": "CCOC(=O)C(Cl)CC1=C(Cl)C=C(F)C(=C1)N1N=C(C)N(C(F)F)C1=O", 
	 "Tm": 251.05, 
	 "num_atms": 40, 
	 "gaussian": { 
		 "optdone": 1, 
		 "sigma_profile": "yes", 
		 "theory": "DFT", 
		 "functional": "B3LYP", 
		 "basiset": "6-31G**", 
		 "properties": { 
			 "R2extent": 13564.0036, 
			 "electric_dipole_moment_norm": 1.61370326268, 
			 "electric_quadrupole_moment_norm": 24.0328893325, 
			 "total_energy": -2189.87475281, 
			 "HOMO_LUMO_gap": 0.19231, 
			 "cosmo_polarized_energy": -16.62, 
			 "cosmo_cavitation_energy": 50.23, 
			 "cosmo_dispersion_energy": -32.64, 
			 "cosmo_repulsion_energy": 2.46, 
			 "cosmo_total_nonelectrostatic_energy": 20.05, 
			 "SMD_solvation_energy": 9.87 
		},
		"coords": [
			{
				"x": 3.2230631105,
				"y": 2.3604529536,
				"z": 1.0634701418,
				"element": "C" 
			},
			{
				"x": 3.6659472233,
				"y": 1.3288868719,
				"z": 2.0885591407,
				"element": "C" 
			},
			{
				"x": 3.200595666,
				"y": -0.0028389124,
				"z": 1.7393042426,
				"element": "O" 
			},
			{
				"x": 1.9603058,
				"y": -0.3270258673,
				"z": 2.1283376955,
				"element": "C" 
			},
			{
				"x": 1.1908075668,
				"y": 0.4067618968,
				"z": 2.708728376,
				"element": "O" 
			},
			{
				"x": 1.6070485486,
				"y": -1.7670424893,
				"z": 1.7544616821,
				"element": "C" 
			},
			{
				"x": 2.5252325465,
				"y": -2.8953848522,
				"z": 2.8593622608,
				"element": "Cl" 
			},
			{
				"x": 1.8944984826,
				"y": -2.1432363362,
				"z": 0.2937826227,
				"element": "C" 
			},
			{
				"x": 1.1148626949,
				"y": -1.296686324,
				"z": -0.6961310418,
				"element": "C" 
			},
			{
				"x": 1.7204917716,
				"y": -0.535716873,
				"z": -1.7105398625,
				"element": "C" 
			},
			{
				"x": 3.4665797507,
				"y": -0.5076255866,
				"z": -1.916053282,
				"element": "Cl" 
			},
			{
				"x": 0.9678877239,
				"y": 0.2073694625,
				"z": -2.6202830827,
				"element": "C" 
			},
			{
				"x": -0.4150773098,
				"y": 0.1990925034,
				"z": -2.5259153991,
				"element": "C" 
			},
			{
				"x": -1.1320135679,
				"y": 0.8644727887,
				"z": -3.4397949895,
				"element": "F" 
			},
			{
				"x": -1.0619624602,
				"y": -0.5180479795,
				"z": -1.5142544793,
				"element": "C" 
			},
			{
				"x": -0.2842759266,
				"y": -1.2626326706,
				"z": -0.6275929318,
				"element": "C" 
			},
			{
				"x": -2.4691041466,
				"y": -0.5235629552,
				"z": -1.4123490168,
				"element": "N" 
			},
			{
				"x": -3.1434595331,
				"y": -1.6966771114,
				"z": -1.0845790351,
				"element": "N" 
			},
			{
				"x": -4.3884047989,
				"y": -1.3587269185,
				"z": -0.9510248407,
				"element": "C" 
			},
			{
				"x": -5.4972053749,
				"y": -2.2964003472,
				"z": -0.6228248367,
				"element": "C" 
			},
			{
				"x": -4.5609912714,
				"y": 0.0041640633,
				"z": -1.1655449159,
				"element": "N" 
			},
			{
				"x": -5.7533907267,
				"y": 0.7731511937,
				"z": -1.084126058,
				"element": "C" 
			},
			{
				"x": -6.3130129954,
				"y": 0.6509009224,
				"z": 0.1516962729,
				"element": "F" 
			},
			{
				"x": -6.6738049863,
				"y": 0.3110483556,
				"z": -1.9748718812,
				"element": "F" 
			},
			{
				"x": -3.3031760061,
				"y": 0.5871267138,
				"z": -1.4318409055,
				"element": "C" 
			},
			{
				"x": -3.0535269174,
				"y": 1.7627659588,
				"z": -1.6072724899,
				"element": "O" 
			},
			{
				"x": 2.1347900946,
				"y": 2.4566134985,
				"z": 1.0577213106,
				"element": "H" 
			},
			{
				"x": 3.5628827731,
				"y": 2.0845319881,
				"z": 0.0615029907,
				"element": "H" 
			},
			{
				"x": 3.6515799047,
				"y": 3.335761615,
				"z": 1.3172615143,
				"element": "H" 
			},
			{
				"x": 3.2942689037,
				"y": 1.5738382602,
				"z": 3.0862537499,
				"element": "H" 
			},
			{
				"x": 4.7529452725,
				"y": 1.2294740668,
				"z": 2.1182776154,
				"element": "H" 
			},
			{
				"x": 0.5589478635,
				"y": -1.9030677231,
				"z": 2.0168829532,
				"element": "H" 
			},
			{
				"x": 1.630098362,
				"y": -3.1983372159,
				"z": 0.1633133656,
				"element": "H" 
			},
			{
				"x": 2.9653280296,
				"y": -2.0514604419,
				"z": 0.1158798276,
				"element": "H" 
			},
			{
				"x": 1.4414838076,
				"y": 0.7704503938,
				"z": -3.4148748681,
				"element": "H" 
			},
			{
				"x": -0.8041183897,
				"y": -1.8432715917,
				"z": 0.1267101989,
				"element": "H" 
			},
			{
				"x": -6.2463078695,
				"y": -2.3018682513,
				"z": -1.4203247066,
				"element": "H" 
			},
			{
				"x": -5.999926673,
				"y": -1.9918335811,
				"z": 0.2998904828,
				"element": "H" 
			},
			{
				"x": -5.0872852388,
				"y": -3.2995286647,
				"z": -0.5020073562,
				"element": "H" 
			},
			{
				"x": -5.5132017044,
				"y": 1.8186091863,
				"z": -1.2902904648,
				"element": "H" 
			}
		],
		 "valence_orbital": [ 
			{
				"type": "occ",
				"energy": -0.28938,
				"method": "rhf"
			},
			{
				"type": "occ",
				"energy": -0.28015,
				"method": "rhf"
			},
			{
				"type": "occ",
				"energy": -0.27685,
				"method": "rhf"
			},
			{
				"type": "occ",
				"energy": -0.26438,
				"method": "rhf"
			},
			{
				"type": "occ",
				"energy": -0.23516,
				"method": "rhf"
			},
			{
				"type": "unocc",
				"energy": -0.04285,
				"method": "rhf"
			},
			{
				"type": "unocc",
				"energy": -0.03554,
				"method": "rhf"
			},
			{
				"type": "unocc",
				"energy": -0.02017,
				"method": "rhf"
			},
			{
				"type": "unocc",
				"energy": -0.00758,
				"method": "rhf"
			},
			{
				"type": "unocc",
				"energy": 0.01351,
				"method": "rhf"
			}
		],
		"cosmo_sigma_profile": { 
			"-0.025": 0.0,
			"-0.024": 0.0,
			"-0.023": 0.0,
			"-0.022": 0.0,
			"-0.021": 0.0,
			"-0.02": 0.0,
			"-0.019": 0.0,
			"-0.018": 0.0,
			"-0.017": 0.0,
			"-0.016": 0.0,
			"-0.015": 0.0,
			"-0.014": 0.0,
			"-0.013": 0.0,
			"-0.012": 0.174993740317,
			"-0.011": 1.93663681615,
			"-0.01": 3.5055298978,
			"-0.009": 4.39290295649,
			"-0.008": 5.25489204011,
			"-0.007": 6.91858321467,
			"-0.006": 16.0619440053,
			"-0.005": 24.2659413928,
			"-0.004": 28.3113080002,
			"-0.003": 32.2474171463,
			"-0.002": 34.7207074566,
			"-0.001": 36.129349484,
			"0.0": 40.9936770289,
			"0.001": 30.4338609199,
			"0.002": 24.9020658498,
			"0.003": 35.9095466288,
			"0.004": 23.8900306648,
			"0.005": 14.1153069242,
			"0.006": 7.86019068858,
			"0.007": 4.41578114251,
			"0.008": 4.58491863668,
			"0.009": 4.51077777174,
			"0.01": 4.95352891535,
			"0.011": 8.66599785039,
			"0.012": 5.7304038451,
			"0.013": 0.0665630694851,
			"0.014": 0.0,
			"0.015": 0.0,
			"0.016": 0.0,
			"0.017": 0.0,
			"0.018": 0.0,
			"0.019": 0.0,
			"0.02": 0.0,
			"0.021": 0.0,
			"0.022": 0.0,
			"0.023": 0.0,
			"0.024": 0.0,
			"0.025": 0.0
		}
	}
}
