{
	 "smiles": "CC(Cl)C(=O)NCCC1=C(C)C=CC=C1", 
	 "Tm": 333.15, 
	 "num_atms": 31, 
	 "gaussian": { 
		 "optdone": 1, 
		 "sigma_profile": "yes", 
		 "theory": "DFT", 
		 "functional": "B3LYP", 
		 "basiset": "6-31G**", 
		 "properties": { 
			 "R2extent": 4642.1419, 
			 "electric_dipole_moment_norm": 1.54356871243, 
			 "electric_quadrupole_moment_norm": 8.71896383465, 
			 "total_energy": -1057.12697244, 
			 "HOMO_LUMO_gap": 0.23216, 
			 "cosmo_polarized_energy": -10.26, 
			 "cosmo_cavitation_energy": 35.28, 
			 "cosmo_dispersion_energy": -23.82, 
			 "cosmo_repulsion_energy": 1.88, 
			 "cosmo_total_nonelectrostatic_energy": 13.34, 
			 "SMD_solvation_energy": 5.91 
		},
		"coords": [
			{
				"x": 2.2956732418,
				"y": 3.5826100367,
				"z": -0.8865219822,
				"element": "C" 
			},
			{
				"x": 2.3756906566,
				"y": 2.066716578,
				"z": -0.7402663841,
				"element": "C" 
			},
			{
				"x": 1.3261783875,
				"y": 1.2594225483,
				"z": -2.0164468925,
				"element": "Cl" 
			},
			{
				"x": 2.0687897938,
				"y": 1.63042322,
				"z": 0.7044170936,
				"element": "C" 
			},
			{
				"x": 2.767051081,
				"y": 2.1175136471,
				"z": 1.5886986959,
				"element": "O" 
			},
			{
				"x": 1.0650140888,
				"y": 0.7469417169,
				"z": 0.9153152738,
				"element": "N" 
			},
			{
				"x": 0.7257948831,
				"y": 0.2573556602,
				"z": 2.2444206315,
				"element": "C" 
			},
			{
				"x": -0.7343740615,
				"y": 0.5514009579,
				"z": 2.6430542253,
				"element": "C" 
			},
			{
				"x": -1.7552751589,
				"y": -0.1092829536,
				"z": 1.7331028225,
				"element": "C" 
			},
			{
				"x": -2.4722191507,
				"y": 0.6091672548,
				"z": 0.7510827011,
				"element": "C" 
			},
			{
				"x": -2.3094326231,
				"y": 2.1034029196,
				"z": 0.5700291153,
				"element": "C" 
			},
			{
				"x": -3.3751576564,
				"y": -0.0868527003,
				"z": -0.0658971434,
				"element": "C" 
			},
			{
				"x": -3.5790689389,
				"y": -1.4592141329,
				"z": 0.0686060767,
				"element": "C" 
			},
			{
				"x": -2.8749191872,
				"y": -2.1668505873,
				"z": 1.0423062609,
				"element": "C" 
			},
			{
				"x": -1.9752254984,
				"y": -1.4886062227,
				"z": 1.8623448459,
				"element": "C" 
			},
			{
				"x": 2.636887089,
				"y": 3.8943266273,
				"z": -1.8758692948,
				"element": "H" 
			},
			{
				"x": 2.9341911027,
				"y": 4.0319195655,
				"z": -0.1222561845,
				"element": "H" 
			},
			{
				"x": 1.270885061,
				"y": 3.9355961866,
				"z": -0.7411502964,
				"element": "H" 
			},
			{
				"x": 3.3858245393,
				"y": 1.7160848971,
				"z": -0.9608737341,
				"element": "H" 
			},
			{
				"x": 0.5619327806,
				"y": 0.3842051392,
				"z": 0.1170514251,
				"element": "H" 
			},
			{
				"x": 0.9070500461,
				"y": -0.8242370836,
				"z": 2.2865420547,
				"element": "H" 
			},
			{
				"x": 1.4160660888,
				"y": 0.7426523522,
				"z": 2.9374961372,
				"element": "H" 
			},
			{
				"x": -0.8696901762,
				"y": 0.1814520717,
				"z": 3.667023033,
				"element": "H" 
			},
			{
				"x": -0.8782463684,
				"y": 1.6343024671,
				"z": 2.6790184853,
				"element": "H" 
			},
			{
				"x": -2.6134959352,
				"y": 2.6565853404,
				"z": 1.4667536111,
				"element": "H" 
			},
			{
				"x": -2.9244136696,
				"y": 2.4604152424,
				"z": -0.2601063306,
				"element": "H" 
			},
			{
				"x": -1.271857749,
				"y": 2.3806798531,
				"z": 0.3583586984,
				"element": "H" 
			},
			{
				"x": -3.9291480988,
				"y": 0.4646139479,
				"z": -0.8214936832,
				"element": "H" 
			},
			{
				"x": -4.2858477674,
				"y": -1.9694369444,
				"z": -0.5795169147,
				"element": "H" 
			},
			{
				"x": -3.0271556758,
				"y": -3.2351390291,
				"z": 1.1664548639,
				"element": "H" 
			},
			{
				"x": -1.4320011246,
				"y": -2.037968576,
				"z": 2.6286227891,
				"element": "H" 
			}
		],
		 "valence_orbital": [ 
			{
				"type": "occ",
				"energy": -0.30522,
				"method": "rhf"
			},
			{
				"type": "occ",
				"energy": -0.26053,
				"method": "rhf"
			},
			{
				"type": "occ",
				"energy": -0.25528,
				"method": "rhf"
			},
			{
				"type": "occ",
				"energy": -0.24657,
				"method": "rhf"
			},
			{
				"type": "occ",
				"energy": -0.23865,
				"method": "rhf"
			},
			{
				"type": "unocc",
				"energy": -0.00649,
				"method": "rhf"
			},
			{
				"type": "unocc",
				"energy": -0.00089,
				"method": "rhf"
			},
			{
				"type": "unocc",
				"energy": 0.01434,
				"method": "rhf"
			},
			{
				"type": "unocc",
				"energy": 0.01992,
				"method": "rhf"
			},
			{
				"type": "unocc",
				"energy": 0.08535,
				"method": "rhf"
			}
		],
		"cosmo_sigma_profile": { 
			"-0.025": 0.0,
			"-0.024": 0.0,
			"-0.023": 0.0,
			"-0.022": 0.0,
			"-0.021": 0.0,
			"-0.02": 0.0,
			"-0.019": 0.0,
			"-0.018": 0.0,
			"-0.017": 0.0,
			"-0.016": 0.0,
			"-0.015": 0.0,
			"-0.014": 0.0,
			"-0.013": 0.0,
			"-0.012": 0.0,
			"-0.011": 0.0,
			"-0.01": 0.0335462869397,
			"-0.009": 0.639238497238,
			"-0.008": 3.29946941484,
			"-0.007": 2.79012183648,
			"-0.006": 3.41206313907,
			"-0.005": 18.6737733163,
			"-0.004": 33.7838263732,
			"-0.003": 33.202046292,
			"-0.002": 29.4989293262,
			"-0.001": 28.652871278,
			"0.0": 22.4408179424,
			"0.001": 17.5361382924,
			"0.002": 14.4488831302,
			"0.003": 12.0916940044,
			"0.004": 12.848601535,
			"0.005": 14.7579807419,
			"0.006": 13.4263631877,
			"0.007": 3.58035588283,
			"0.008": 1.82941060303,
			"0.009": 1.18446644677,
			"0.01": 1.38461010242,
			"0.011": 1.72091678403,
			"0.012": 1.80534914273,
			"0.013": 5.09673739389,
			"0.014": 1.83169807216,
			"0.015": 0.0,
			"0.016": 0.0,
			"0.017": 0.0,
			"0.018": 0.0,
			"0.019": 0.0,
			"0.02": 0.0,
			"0.021": 0.0,
			"0.022": 0.0,
			"0.023": 0.0,
			"0.024": 0.0,
			"0.025": 0.0
		}
	}
}
