{
	 "smiles": "ClC1=CC=C2NC(=O)CN=C(C3=CC=CC=C3)C2=C1", 
	 "Tm": 489.15, 
	 "num_atms": 30, 
	 "gaussian": { 
		 "optdone": 1, 
		 "sigma_profile": "yes", 
		 "theory": "DFT", 
		 "functional": "B3LYP", 
		 "basiset": "6-31G**", 
		 "properties": { 
			 "R2extent": 5915.4798, 
			 "electric_dipole_moment_norm": 2.84381858423, 
			 "electric_quadrupole_moment_norm": 24.5017255356, 
			 "total_energy": -1223.15026739, 
			 "HOMO_LUMO_gap": 0.17396, 
			 "cosmo_polarized_energy": -14.85, 
			 "cosmo_cavitation_energy": 35.76, 
			 "cosmo_dispersion_energy": -25.73, 
			 "cosmo_repulsion_energy": 1.98, 
			 "cosmo_total_nonelectrostatic_energy": 12.01, 
			 "SMD_solvation_energy": 3.81 
		},
		"coords": [
			{
				"x": -1.5471072901,
				"y": -0.3782715644,
				"z": -4.6267796769,
				"element": "Cl" 
			},
			{
				"x": -1.6465171429,
				"y": 0.2014504258,
				"z": -2.9722359248,
				"element": "C" 
			},
			{
				"x": -2.5014128693,
				"y": 1.2626123588,
				"z": -2.6637860039,
				"element": "C" 
			},
			{
				"x": -2.5943355529,
				"y": 1.6917559171,
				"z": -1.3474577247,
				"element": "C" 
			},
			{
				"x": -1.8392615603,
				"y": 1.087464971,
				"z": -0.3276399986,
				"element": "C" 
			},
			{
				"x": -1.9745588306,
				"y": 1.5784335234,
				"z": 0.9804539368,
				"element": "N" 
			},
			{
				"x": -2.0846165424,
				"y": 0.8347488925,
				"z": 2.1508961106,
				"element": "C" 
			},
			{
				"x": -2.3965651716,
				"y": 1.3601578915,
				"z": 3.2015900726,
				"element": "O" 
			},
			{
				"x": -1.7866546965,
				"y": -0.6525383903,
				"z": 1.9783092994,
				"element": "C" 
			},
			{
				"x": -0.4087367967,
				"y": -0.8694917401,
				"z": 1.5713347176,
				"element": "N" 
			},
			{
				"x": -0.0446382665,
				"y": -0.5682814864,
				"z": 0.3746394969,
				"element": "C" 
			},
			{
				"x": 1.3745907878,
				"y": -0.8610013774,
				"z": 0.006285235,
				"element": "C" 
			},
			{
				"x": 2.0519086325,
				"y": -1.9013608396,
				"z": 0.6648320225,
				"element": "C" 
			},
			{
				"x": 3.3849523689,
				"y": -2.1748988191,
				"z": 0.3731848729,
				"element": "C" 
			},
			{
				"x": 4.0696992919,
				"y": -1.4080650777,
				"z": -0.5742875311,
				"element": "C" 
			},
			{
				"x": 3.4111274285,
				"y": -0.3651197247,
				"z": -1.2260531322,
				"element": "C" 
			},
			{
				"x": 2.0721596042,
				"y": -0.0945261129,
				"z": -0.9412234961,
				"element": "C" 
			},
			{
				"x": -0.9375788442,
				"y": 0.0465324115,
				"z": -0.6518605734,
				"element": "C" 
			},
			{
				"x": -0.8691497956,
				"y": -0.3911951803,
				"z": -1.9871889172,
				"element": "C" 
			},
			{
				"x": -3.0946152183,
				"y": 1.7314329352,
				"z": -3.4408386606,
				"element": "H" 
			},
			{
				"x": -3.2743807443,
				"y": 2.4998100172,
				"z": -1.0925995812,
				"element": "H" 
			},
			{
				"x": -2.3090624889,
				"y": 2.5286249982,
				"z": 1.0873700284,
				"element": "H" 
			},
			{
				"x": -2.5040415564,
				"y": -1.0653333624,
				"z": 1.2502151383,
				"element": "H" 
			},
			{
				"x": -1.9571153922,
				"y": -1.124709894,
				"z": 2.9462873832,
				"element": "H" 
			},
			{
				"x": 1.5128214884,
				"y": -2.4810365143,
				"z": 1.40584146,
				"element": "H" 
			},
			{
				"x": 3.8921409029,
				"y": -2.9884966112,
				"z": 0.8838015227,
				"element": "H" 
			},
			{
				"x": 5.1101149018,
				"y": -1.6224561944,
				"z": -0.8012175338,
				"element": "H" 
			},
			{
				"x": 3.9389047399,
				"y": 0.2428572255,
				"z": -1.9550634892,
				"element": "H" 
			},
			{
				"x": 1.5744470411,
				"y": 0.7274259368,
				"z": -1.4451323302,
				"element": "H" 
			},
			{
				"x": -0.1917184284,
				"y": -1.1957246151,
				"z": -2.2474767231,
				"element": "H" 
			}
		],
		 "valence_orbital": [ 
			{
				"type": "occ",
				"energy": -0.2709,
				"method": "rhf"
			},
			{
				"type": "occ",
				"energy": -0.25893,
				"method": "rhf"
			},
			{
				"type": "occ",
				"energy": -0.25457,
				"method": "rhf"
			},
			{
				"type": "occ",
				"energy": -0.24182,
				"method": "rhf"
			},
			{
				"type": "occ",
				"energy": -0.23656,
				"method": "rhf"
			},
			{
				"type": "unocc",
				"energy": -0.0626,
				"method": "rhf"
			},
			{
				"type": "unocc",
				"energy": -0.03376,
				"method": "rhf"
			},
			{
				"type": "unocc",
				"energy": -0.02686,
				"method": "rhf"
			},
			{
				"type": "unocc",
				"energy": -0.00486,
				"method": "rhf"
			},
			{
				"type": "unocc",
				"energy": 0.01447,
				"method": "rhf"
			}
		],
		"cosmo_sigma_profile": { 
			"-0.025": 0.0,
			"-0.024": 0.0,
			"-0.023": 0.0,
			"-0.022": 0.0,
			"-0.021": 0.0,
			"-0.02": 0.0,
			"-0.019": 0.0,
			"-0.018": 0.0,
			"-0.017": 0.0,
			"-0.016": 0.180847295223,
			"-0.015": 0.877542261982,
			"-0.014": 1.29524366025,
			"-0.013": 1.44989058573,
			"-0.012": 0.874448483349,
			"-0.011": 1.09286192893,
			"-0.01": 1.31286057261,
			"-0.009": 2.28895315661,
			"-0.008": 3.31559423569,
			"-0.007": 7.13606388724,
			"-0.006": 15.0387489545,
			"-0.005": 17.8047457535,
			"-0.004": 22.8370329653,
			"-0.003": 20.0222629899,
			"-0.002": 19.418319913,
			"-0.001": 18.4030670625,
			"0.0": 21.9546630505,
			"0.001": 26.085685143,
			"0.002": 24.8485289663,
			"0.003": 18.5405904408,
			"0.004": 21.6359673259,
			"0.005": 15.9572243953,
			"0.006": 3.18135084007,
			"0.007": 2.38141382759,
			"0.008": 2.19536210239,
			"0.009": 2.11870485926,
			"0.01": 3.41229466985,
			"0.011": 2.97633820958,
			"0.012": 5.72652422052,
			"0.013": 4.03971177224,
			"0.014": 0.816189941113,
			"0.015": 0.0566675143823,
			"0.016": 0.0,
			"0.017": 0.0,
			"0.018": 0.0,
			"0.019": 0.0,
			"0.02": 0.0,
			"0.021": 0.0,
			"0.022": 0.0,
			"0.023": 0.0,
			"0.024": 0.0,
			"0.025": 0.0
		}
	}
}
