{
	 "smiles": "CC(C(O)=O)=C1CCCC1", 
	 "Tm": 381.15, 
	 "num_atms": 22, 
	 "gaussian": { 
		 "optdone": 1, 
		 "sigma_profile": "yes", 
		 "theory": "DFT", 
		 "functional": "B3LYP", 
		 "basiset": "6-31G**", 
		 "properties": { 
			 "R2extent": 2479.1605, 
			 "electric_dipole_moment_norm": 1.63197010696, 
			 "electric_quadrupole_moment_norm": 6.86898628547, 
			 "total_energy": -462.545904094, 
			 "HOMO_LUMO_gap": 0.20974, 
			 "cosmo_polarized_energy": -7.59, 
			 "cosmo_cavitation_energy": 23.94, 
			 "cosmo_dispersion_energy": -17.93, 
			 "cosmo_repulsion_energy": 1.48, 
			 "cosmo_total_nonelectrostatic_energy": 7.48, 
			 "SMD_solvation_energy": 4.71 
		},
		"coords": [
			{
				"x": 0.2864618409,
				"y": 2.5767893686,
				"z": 0.01592927,
				"element": "C" 
			},
			{
				"x": -0.8062770941,
				"y": 1.7991070404,
				"z": -0.683205188,
				"element": "C" 
			},
			{
				"x": -1.9785867426,
				"y": 2.5714600097,
				"z": -1.1580503341,
				"element": "C" 
			},
			{
				"x": -1.8944403741,
				"y": 3.8902840592,
				"z": -0.8211121832,
				"element": "O" 
			},
			{
				"x": -2.9362298419,
				"y": 2.1514060329,
				"z": -1.786625546,
				"element": "O" 
			},
			{
				"x": -0.7596981335,
				"y": 0.461552832,
				"z": -0.8836223927,
				"element": "C" 
			},
			{
				"x": -1.8178858083,
				"y": -0.4081895154,
				"z": -1.5434499553,
				"element": "C" 
			},
			{
				"x": -1.3789592439,
				"y": -1.8585441529,
				"z": -1.2592199835,
				"element": "C" 
			},
			{
				"x": 0.1535793918,
				"y": -1.7706420927,
				"z": -1.1876273306,
				"element": "C" 
			},
			{
				"x": 0.4008147064,
				"y": -0.4321553685,
				"z": -0.4647305392,
				"element": "C" 
			},
			{
				"x": -0.1070059793,
				"y": 3.0986181135,
				"z": 0.8947041088,
				"element": "H" 
			},
			{
				"x": 1.0989922944,
				"y": 1.9277494038,
				"z": 0.3449435812,
				"element": "H" 
			},
			{
				"x": 0.7068756761,
				"y": 3.3486900235,
				"z": -0.6380284669,
				"element": "H" 
			},
			{
				"x": -2.698706552,
				"y": 4.2958259109,
				"z": -1.1841877031,
				"element": "H" 
			},
			{
				"x": -2.8255506081,
				"y": -0.1686279563,
				"z": -1.1992704197,
				"element": "H" 
			},
			{
				"x": -1.8271412551,
				"y": -0.2060943087,
				"z": -2.6229762745,
				"element": "H" 
			},
			{
				"x": -1.737197172,
				"y": -2.5653048855,
				"z": -2.0134222972,
				"element": "H" 
			},
			{
				"x": -1.7769748394,
				"y": -2.1862740222,
				"z": -0.2903817465,
				"element": "H" 
			},
			{
				"x": 0.5720243053,
				"y": -1.7268070657,
				"z": -2.2008947809,
				"element": "H" 
			},
			{
				"x": 0.6175968288,
				"y": -2.6202593269,
				"z": -0.6780827835,
				"element": "H" 
			},
			{
				"x": 0.3701300526,
				"y": -0.5810527904,
				"z": 0.6247175446,
				"element": "H" 
			},
			{
				"x": 1.377778548,
				"y": 0.0047686909,
				"z": -0.69230658,
				"element": "H" 
			}
		],
		 "valence_orbital": [ 
			{
				"type": "occ",
				"energy": -0.3283,
				"method": "rhf"
			},
			{
				"type": "occ",
				"energy": -0.32613,
				"method": "rhf"
			},
			{
				"type": "occ",
				"energy": -0.30629,
				"method": "rhf"
			},
			{
				"type": "occ",
				"energy": -0.26015,
				"method": "rhf"
			},
			{
				"type": "occ",
				"energy": -0.2409,
				"method": "rhf"
			},
			{
				"type": "unocc",
				"energy": -0.03116,
				"method": "rhf"
			},
			{
				"type": "unocc",
				"energy": 0.07695,
				"method": "rhf"
			},
			{
				"type": "unocc",
				"energy": 0.08663,
				"method": "rhf"
			},
			{
				"type": "unocc",
				"energy": 0.0903,
				"method": "rhf"
			},
			{
				"type": "unocc",
				"energy": 0.12266,
				"method": "rhf"
			}
		],
		"cosmo_sigma_profile": { 
			"-0.025": 0.0,
			"-0.024": 0.0,
			"-0.023": 0.0,
			"-0.022": 0.0,
			"-0.021": 0.0,
			"-0.02": 0.0,
			"-0.019": 0.0,
			"-0.018": 0.0723584889065,
			"-0.017": 0.774813119748,
			"-0.016": 0.812739732367,
			"-0.015": 0.794407032784,
			"-0.014": 0.794393317328,
			"-0.013": 0.52644140074,
			"-0.012": 0.806021211567,
			"-0.011": 1.00083745849,
			"-0.01": 0.551140700526,
			"-0.009": 0.461815941685,
			"-0.008": 0.400985578583,
			"-0.007": 0.558866547993,
			"-0.006": 0.911349818971,
			"-0.005": 2.15928584357,
			"-0.004": 8.69784022422,
			"-0.003": 20.6246227237,
			"-0.002": 27.2371393118,
			"-0.001": 28.298147823,
			"0.0": 26.7976525886,
			"0.001": 20.8513150551,
			"0.002": 8.1839337435,
			"0.003": 6.55818519775,
			"0.004": 3.75865128809,
			"0.005": 3.13331407351,
			"0.006": 2.91224147494,
			"0.007": 2.95795331111,
			"0.008": 3.79604703109,
			"0.009": 2.2417362207,
			"0.01": 1.57286469895,
			"0.011": 2.46306893409,
			"0.012": 3.18915682576,
			"0.013": 2.62263005549,
			"0.014": 0.0285955994765,
			"0.015": 0.0,
			"0.016": 0.0,
			"0.017": 0.0,
			"0.018": 0.0,
			"0.019": 0.0,
			"0.02": 0.0,
			"0.021": 0.0,
			"0.022": 0.0,
			"0.023": 0.0,
			"0.024": 0.0,
			"0.025": 0.0
		}
	}
}
