{
	 "smiles": "CCOC(=O)COC1=CC(Cl)=C(Cl)C=C1Cl", 
	 "Tm": 337.15, 
	 "num_atms": 25, 
	 "gaussian": { 
		 "optdone": 1, 
		 "sigma_profile": "yes", 
		 "theory": "DFT", 
		 "functional": "B3LYP", 
		 "basiset": "6-31G**", 
		 "properties": { 
			 "R2extent": 6175.9245, 
			 "electric_dipole_moment_norm": 1.37200586369, 
			 "electric_quadrupole_moment_norm": 13.3882061999, 
			 "total_energy": -1992.72472254, 
			 "HOMO_LUMO_gap": 0.2111, 
			 "cosmo_polarized_energy": -9.1, 
			 "cosmo_cavitation_energy": 35.21, 
			 "cosmo_dispersion_energy": -24.55, 
			 "cosmo_repulsion_energy": 1.95, 
			 "cosmo_total_nonelectrostatic_energy": 12.6, 
			 "SMD_solvation_energy": 6.63 
		},
		"coords": [
			{
				"x": -1.5278094124,
				"y": 2.4731260885,
				"z": -1.493991647,
				"element": "C" 
			},
			{
				"x": -0.2160821629,
				"y": 3.1647409712,
				"z": -1.1584610988,
				"element": "C" 
			},
			{
				"x": 0.8099236338,
				"y": 2.2014213413,
				"z": -0.7913108249,
				"element": "O" 
			},
			{
				"x": 1.5019105609,
				"y": 1.6556501523,
				"z": -1.803098436,
				"element": "C" 
			},
			{
				"x": 1.3442469623,
				"y": 1.9098696418,
				"z": -2.9775822747,
				"element": "O" 
			},
			{
				"x": 2.5804355734,
				"y": 0.6733093332,
				"z": -1.3492272899,
				"element": "C" 
			},
			{
				"x": 2.6159605376,
				"y": 0.3860104646,
				"z": 0.0449092402,
				"element": "O" 
			},
			{
				"x": 1.7934625559,
				"y": -0.6090563362,
				"z": 0.5027600934,
				"element": "C" 
			},
			{
				"x": 0.6527450641,
				"y": -0.2638388719,
				"z": 1.2290015618,
				"element": "C" 
			},
			{
				"x": -0.1719858266,
				"y": -1.2431725862,
				"z": 1.7799595877,
				"element": "C" 
			},
			{
				"x": -1.5846094773,
				"y": -0.7424934948,
				"z": 2.6739981897,
				"element": "Cl" 
			},
			{
				"x": 0.1411004908,
				"y": -2.5976868288,
				"z": 1.6021588981,
				"element": "C" 
			},
			{
				"x": -0.857032928,
				"y": -3.8656575286,
				"z": 2.2638209178,
				"element": "Cl" 
			},
			{
				"x": 1.2841293269,
				"y": -2.9529133639,
				"z": 0.8845056985,
				"element": "C" 
			},
			{
				"x": 2.1071688015,
				"y": -1.9688535344,
				"z": 0.3433160209,
				"element": "C" 
			},
			{
				"x": 3.5577742511,
				"y": -2.44826071,
				"z": -0.5085341562,
				"element": "Cl" 
			},
			{
				"x": -1.8660420003,
				"y": 1.8471527678,
				"z": -0.6631666664,
				"element": "H" 
			},
			{
				"x": -1.4188587708,
				"y": 1.8517476331,
				"z": -2.3861102143,
				"element": "H" 
			},
			{
				"x": -2.2990441858,
				"y": 3.2245681135,
				"z": -1.6926218453,
				"element": "H" 
			},
			{
				"x": 0.1487199048,
				"y": 3.7554409742,
				"z": -2.001512212,
				"element": "H" 
			},
			{
				"x": -0.3088731995,
				"y": 3.8033454801,
				"z": -0.2774260477,
				"element": "H" 
			},
			{
				"x": 2.4752509893,
				"y": -0.2326473973,
				"z": -1.9542649662,
				"element": "H" 
			},
			{
				"x": 3.5471038754,
				"y": 1.1212823002,
				"z": -1.5972560716,
				"element": "H" 
			},
			{
				"x": 0.4221727795,
				"y": 0.7862562609,
				"z": 1.350754466,
				"element": "H" 
			},
			{
				"x": 1.5354326564,
				"y": -3.9988408707,
				"z": 0.7580790768,
				"element": "H" 
			}
		],
		 "valence_orbital": [ 
			{
				"type": "occ",
				"energy": -0.31804,
				"method": "rhf"
			},
			{
				"type": "occ",
				"energy": -0.31213,
				"method": "rhf"
			},
			{
				"type": "occ",
				"energy": -0.28023,
				"method": "rhf"
			},
			{
				"type": "occ",
				"energy": -0.26825,
				"method": "rhf"
			},
			{
				"type": "occ",
				"energy": -0.24969,
				"method": "rhf"
			},
			{
				"type": "unocc",
				"energy": -0.03859,
				"method": "rhf"
			},
			{
				"type": "unocc",
				"energy": -0.0337,
				"method": "rhf"
			},
			{
				"type": "unocc",
				"energy": -0.01486,
				"method": "rhf"
			},
			{
				"type": "unocc",
				"energy": -0.00159,
				"method": "rhf"
			},
			{
				"type": "unocc",
				"energy": 0.02421,
				"method": "rhf"
			}
		],
		"cosmo_sigma_profile": { 
			"-0.025": 0.0,
			"-0.024": 0.0,
			"-0.023": 0.0,
			"-0.022": 0.0,
			"-0.021": 0.0,
			"-0.02": 0.0,
			"-0.019": 0.0,
			"-0.018": 0.0,
			"-0.017": 0.0,
			"-0.016": 0.0,
			"-0.015": 0.0,
			"-0.014": 0.0,
			"-0.013": 0.0,
			"-0.012": 0.0,
			"-0.011": 0.0,
			"-0.01": 0.142012679422,
			"-0.009": 2.77461288987,
			"-0.008": 4.64179760803,
			"-0.007": 6.82447069209,
			"-0.006": 8.9834307462,
			"-0.005": 12.6078132092,
			"-0.004": 17.8468924637,
			"-0.003": 23.2419943636,
			"-0.002": 24.7317900108,
			"-0.001": 30.6757248767,
			"0.0": 42.0372818701,
			"0.001": 20.181799341,
			"0.002": 18.4244057878,
			"0.003": 25.9584145146,
			"0.004": 20.3992000246,
			"0.005": 5.42307627068,
			"0.006": 3.77218198532,
			"0.007": 3.08890219223,
			"0.008": 3.28974331924,
			"0.009": 3.07643594952,
			"0.01": 2.32114945072,
			"0.011": 3.91413174867,
			"0.012": 3.05357522653,
			"0.013": 0.235143485454,
			"0.014": 0.0,
			"0.015": 0.0,
			"0.016": 0.0,
			"0.017": 0.0,
			"0.018": 0.0,
			"0.019": 0.0,
			"0.02": 0.0,
			"0.021": 0.0,
			"0.022": 0.0,
			"0.023": 0.0,
			"0.024": 0.0,
			"0.025": 0.0
		}
	}
}
