{
	 "smiles": "CCOC(=O)C1CN(CC2=CC=CO2)C(=O)C1=O", 
	 "Tm": 401.15, 
	 "num_atms": 31, 
	 "gaussian": { 
		 "optdone": 1, 
		 "sigma_profile": "yes", 
		 "theory": "DFT", 
		 "functional": "B3LYP", 
		 "basiset": "6-31G**", 
		 "properties": { 
			 "R2extent": 6997.0125, 
			 "electric_dipole_moment_norm": 5.80035946214, 
			 "electric_quadrupole_moment_norm": 24.8216851602, 
			 "total_energy": -895.964577018, 
			 "HOMO_LUMO_gap": 0.16279, 
			 "cosmo_polarized_energy": -19.61, 
			 "cosmo_cavitation_energy": 36.64, 
			 "cosmo_dispersion_energy": -25.21, 
			 "cosmo_repulsion_energy": 1.99, 
			 "cosmo_total_nonelectrostatic_energy": 13.42, 
			 "SMD_solvation_energy": 9.25 
		},
		"coords": [
			{
				"x": -1.9283248022,
				"y": 3.7512781655,
				"z": -0.6881732703,
				"element": "C" 
			},
			{
				"x": -1.8940910367,
				"y": 2.7943747862,
				"z": -1.8693645649,
				"element": "C" 
			},
			{
				"x": -1.8167970956,
				"y": 1.4136037485,
				"z": -1.4249417541,
				"element": "O" 
			},
			{
				"x": -0.5922385954,
				"y": 0.923998737,
				"z": -1.1858333775,
				"element": "C" 
			},
			{
				"x": 0.4414684348,
				"y": 1.5552682721,
				"z": -1.2625041106,
				"element": "O" 
			},
			{
				"x": -0.671029046,
				"y": -0.5545049955,
				"z": -0.8440937079,
				"element": "C" 
			},
			{
				"x": 0.5489622916,
				"y": -1.0841829859,
				"z": -0.0712825465,
				"element": "C" 
			},
			{
				"x": 0.9133970523,
				"y": -2.3315365278,
				"z": -0.7437330308,
				"element": "N" 
			},
			{
				"x": 1.9630818362,
				"y": -3.2067183925,
				"z": -0.2361419228,
				"element": "C" 
			},
			{
				"x": 1.6836401174,
				"y": -3.7367152778,
				"z": 1.1316100879,
				"element": "C" 
			},
			{
				"x": 2.2850626886,
				"y": -3.5561032663,
				"z": 2.3436041402,
				"element": "C" 
			},
			{
				"x": 1.5564360446,
				"y": -4.3559707704,
				"z": 3.2850441289,
				"element": "C" 
			},
			{
				"x": 0.5634207818,
				"y": -4.9577363846,
				"z": 2.5752237231,
				"element": "C" 
			},
			{
				"x": 0.6247249864,
				"y": -4.5933768873,
				"z": 1.2631118986,
				"element": "O" 
			},
			{
				"x": 0.2713501275,
				"y": -2.5847130053,
				"z": -1.9216994583,
				"element": "C" 
			},
			{
				"x": 0.4471923859,
				"y": -3.5199745457,
				"z": -2.6817875577,
				"element": "O" 
			},
			{
				"x": -0.7267483105,
				"y": -1.4286830228,
				"z": -2.1169948071,
				"element": "C" 
			},
			{
				"x": -1.4128584595,
				"y": -1.2592209418,
				"z": -3.0903984623,
				"element": "O" 
			},
			{
				"x": -2.7556643712,
				"y": 3.5104337408,
				"z": -0.0142015194,
				"element": "H" 
			},
			{
				"x": -0.9900552707,
				"y": 3.708969268,
				"z": -0.1295950462,
				"element": "H" 
			},
			{
				"x": -2.0666774323,
				"y": 4.7761637742,
				"z": -1.0479208975,
				"element": "H" 
			},
			{
				"x": -2.8178469169,
				"y": 2.8351744714,
				"z": -2.450019982,
				"element": "H" 
			},
			{
				"x": -1.0434803062,
				"y": 2.9989535981,
				"z": -2.5231136532,
				"element": "H" 
			},
			{
				"x": -1.6074368192,
				"y": -0.738545515,
				"z": -0.3065741195,
				"element": "H" 
			},
			{
				"x": 0.3219648951,
				"y": -1.2774185181,
				"z": 0.9818463558,
				"element": "H" 
			},
			{
				"x": 1.3708436686,
				"y": -0.3609982378,
				"z": -0.1238139015,
				"element": "H" 
			},
			{
				"x": 2.0484742366,
				"y": -4.0173573529,
				"z": -0.9670617586,
				"element": "H" 
			},
			{
				"x": 2.9178507522,
				"y": -2.6666699977,
				"z": -0.2078765876,
				"element": "H" 
			},
			{
				"x": 3.1471135893,
				"y": -2.9345788889,
				"z": 2.5413483898,
				"element": "H" 
			},
			{
				"x": 1.7495755102,
				"y": -4.4641428923,
				"z": 4.3424675679,
				"element": "H" 
			},
			{
				"x": -0.2304109367,
				"y": -5.6403701555,
				"z": 2.8361697441,
				"element": "H" 
			}
		],
		 "valence_orbital": [ 
			{
				"type": "occ",
				"energy": -0.29045,
				"method": "rhf"
			},
			{
				"type": "occ",
				"energy": -0.28844,
				"method": "rhf"
			},
			{
				"type": "occ",
				"energy": -0.25975,
				"method": "rhf"
			},
			{
				"type": "occ",
				"energy": -0.24603,
				"method": "rhf"
			},
			{
				"type": "occ",
				"energy": -0.23311,
				"method": "rhf"
			},
			{
				"type": "unocc",
				"energy": -0.07032,
				"method": "rhf"
			},
			{
				"type": "unocc",
				"energy": -0.00451,
				"method": "rhf"
			},
			{
				"type": "unocc",
				"energy": -0.00144,
				"method": "rhf"
			},
			{
				"type": "unocc",
				"energy": 0.05901,
				"method": "rhf"
			},
			{
				"type": "unocc",
				"energy": 0.06784,
				"method": "rhf"
			}
		],
		"cosmo_sigma_profile": { 
			"-0.025": 0.0,
			"-0.024": 0.0,
			"-0.023": 0.0,
			"-0.022": 0.0,
			"-0.021": 0.0,
			"-0.02": 0.0,
			"-0.019": 0.0,
			"-0.018": 0.0,
			"-0.017": 0.0,
			"-0.016": 0.0,
			"-0.015": 0.0,
			"-0.014": 0.0,
			"-0.013": 0.0,
			"-0.012": 0.0,
			"-0.011": 0.299499432028,
			"-0.01": 2.52698259827,
			"-0.009": 4.58539706266,
			"-0.008": 7.27368797131,
			"-0.007": 15.5653731866,
			"-0.006": 17.1967123941,
			"-0.005": 21.5583062491,
			"-0.004": 26.2049155998,
			"-0.003": 23.8665773334,
			"-0.002": 20.1776446188,
			"-0.001": 18.5912414744,
			"0.0": 17.2069149744,
			"0.001": 12.601598928,
			"0.002": 12.8484886387,
			"0.003": 14.3448463841,
			"0.004": 10.7459256255,
			"0.005": 10.7604128339,
			"0.006": 7.52242609014,
			"0.007": 7.35052416622,
			"0.008": 6.4981889649,
			"0.009": 7.922915216,
			"0.01": 8.35560162497,
			"0.011": 7.50799726502,
			"0.012": 6.43457273357,
			"0.013": 2.95101889186,
			"0.014": 0.474026525226,
			"0.015": 0.0,
			"0.016": 0.0,
			"0.017": 0.0,
			"0.018": 0.0,
			"0.019": 0.0,
			"0.02": 0.0,
			"0.021": 0.0,
			"0.022": 0.0,
			"0.023": 0.0,
			"0.024": 0.0,
			"0.025": 0.0
		}
	}
}
