{
	 "smiles": "NC1=C(CC2=C(O1)C=CC=C2)C#N", 
	 "Tm": 417.15, 
	 "num_atms": 21, 
	 "gaussian": { 
		 "optdone": 1, 
		 "sigma_profile": "yes", 
		 "theory": "DFT", 
		 "functional": "B3LYP", 
		 "basiset": "6-31G**", 
		 "properties": { 
			 "R2extent": 2497.5239, 
			 "electric_dipole_moment_norm": 4.57555019315, 
			 "electric_quadrupole_moment_norm": 16.9189020182, 
			 "total_energy": -570.590569138, 
			 "HOMO_LUMO_gap": 0.18997, 
			 "cosmo_polarized_energy": -13.22, 
			 "cosmo_cavitation_energy": 25.81, 
			 "cosmo_dispersion_energy": -18.93, 
			 "cosmo_repulsion_energy": 1.5, 
			 "cosmo_total_nonelectrostatic_energy": 8.38, 
			 "SMD_solvation_energy": 5.76 
		},
		"coords": [
			{
				"x": 0.7570083154,
				"y": -1.0505932207,
				"z": -2.6263858904,
				"element": "N" 
			},
			{
				"x": 0.121350085,
				"y": -0.5688530147,
				"z": -1.516104228,
				"element": "C" 
			},
			{
				"x": -1.2209089658,
				"y": -0.6229110944,
				"z": -1.271889155,
				"element": "C" 
			},
			{
				"x": -1.8486991278,
				"y": 0.0631233184,
				"z": -0.0762947407,
				"element": "C" 
			},
			{
				"x": -0.7893165373,
				"y": 0.5824257317,
				"z": 0.8701735842,
				"element": "C" 
			},
			{
				"x": 0.5633106275,
				"y": 0.5438119424,
				"z": 0.5283324496,
				"element": "C" 
			},
			{
				"x": 1.0105718985,
				"y": 0.0255776591,
				"z": -0.6815868021,
				"element": "O" 
			},
			{
				"x": 1.558973175,
				"y": 1.0276521978,
				"z": 1.37617233,
				"element": "C" 
			},
			{
				"x": 1.2000194977,
				"y": 1.5688548501,
				"z": 2.6075325644,
				"element": "C" 
			},
			{
				"x": -0.145862321,
				"y": 1.6183147264,
				"z": 2.9809257142,
				"element": "C" 
			},
			{
				"x": -1.1223382144,
				"y": 1.1272709399,
				"z": 2.1164468929,
				"element": "C" 
			},
			{
				"x": -2.036612137,
				"y": -1.320915492,
				"z": -2.1949795022,
				"element": "C" 
			},
			{
				"x": -2.6887974317,
				"y": -1.9085863296,
				"z": -2.9657491473,
				"element": "N" 
			},
			{
				"x": 1.729485343,
				"y": -1.2947892591,
				"z": -2.5074452106,
				"element": "H" 
			},
			{
				"x": 0.2162347826,
				"y": -1.658113781,
				"z": -3.2254752993,
				"element": "H" 
			},
			{
				"x": -2.5071206948,
				"y": -0.6361975562,
				"z": 0.4559200474,
				"element": "H" 
			},
			{
				"x": -2.4947437866,
				"y": 0.8919936503,
				"z": -0.4020202121,
				"element": "H" 
			},
			{
				"x": 2.594167714,
				"y": 0.9716027041,
				"z": 1.0564265335,
				"element": "H" 
			},
			{
				"x": 1.969260343,
				"y": 1.9484906316,
				"z": 3.2729024976,
				"element": "H" 
			},
			{
				"x": -0.4323889357,
				"y": 2.037091791,
				"z": 3.9405670439,
				"element": "H" 
			},
			{
				"x": -2.1697936297,
				"y": 1.1649496049,
				"z": 2.4053305299,
				"element": "H" 
			}
		],
		 "valence_orbital": [ 
			{
				"type": "occ",
				"energy": -0.32383,
				"method": "rhf"
			},
			{
				"type": "occ",
				"energy": -0.3158,
				"method": "rhf"
			},
			{
				"type": "occ",
				"energy": -0.25964,
				"method": "rhf"
			},
			{
				"type": "occ",
				"energy": -0.24764,
				"method": "rhf"
			},
			{
				"type": "occ",
				"energy": -0.21163,
				"method": "rhf"
			},
			{
				"type": "unocc",
				"energy": -0.02166,
				"method": "rhf"
			},
			{
				"type": "unocc",
				"energy": -0.01729,
				"method": "rhf"
			},
			{
				"type": "unocc",
				"energy": 0.0168,
				"method": "rhf"
			},
			{
				"type": "unocc",
				"energy": 0.03768,
				"method": "rhf"
			},
			{
				"type": "unocc",
				"energy": 0.07339,
				"method": "rhf"
			}
		],
		"cosmo_sigma_profile": { 
			"-0.025": 0.0,
			"-0.024": 0.0,
			"-0.023": 0.0,
			"-0.022": 0.0,
			"-0.021": 0.0,
			"-0.02": 0.0,
			"-0.019": 0.0,
			"-0.018": 0.0,
			"-0.017": 0.0,
			"-0.016": 0.0,
			"-0.015": 0.551888919979,
			"-0.014": 1.64557008171,
			"-0.013": 2.34585668164,
			"-0.012": 2.26542439303,
			"-0.011": 1.7569573853,
			"-0.01": 1.88009981656,
			"-0.009": 1.7335722947,
			"-0.008": 1.52233256194,
			"-0.007": 3.29642969899,
			"-0.006": 9.81164186876,
			"-0.005": 15.5253172804,
			"-0.004": 17.5739869412,
			"-0.003": 14.7294103415,
			"-0.002": 14.54082274,
			"-0.001": 11.9368417777,
			"0.0": 12.3807180665,
			"0.001": 13.4857048998,
			"0.002": 16.0361876298,
			"0.003": 12.7269806443,
			"0.004": 13.0746801913,
			"0.005": 10.3236233897,
			"0.006": 3.65471227919,
			"0.007": 2.92112294459,
			"0.008": 2.7063938197,
			"0.009": 3.55986281303,
			"0.01": 3.31044416874,
			"0.011": 3.65667359483,
			"0.012": 3.12815946008,
			"0.013": 2.61271215801,
			"0.014": 2.25574008389,
			"0.015": 0.409293953146,
			"0.016": 0.0,
			"0.017": 0.0,
			"0.018": 0.0,
			"0.019": 0.0,
			"0.02": 0.0,
			"0.021": 0.0,
			"0.022": 0.0,
			"0.023": 0.0,
			"0.024": 0.0,
			"0.025": 0.0
		}
	}
}
