{
	 "smiles": "C1CC2NC1C1=C2C=CC=C1", 
	 "Tm": 366.15, 
	 "num_atms": 22, 
	 "gaussian": { 
		 "optdone": 1, 
		 "sigma_profile": "yes", 
		 "theory": "DFT", 
		 "functional": "B3LYP", 
		 "basiset": "6-31G**", 
		 "properties": { 
			 "R2extent": 1743.9647, 
			 "electric_dipole_moment_norm": 1.59249145053, 
			 "electric_quadrupole_moment_norm": 7.37584980663, 
			 "total_energy": -442.424236497, 
			 "HOMO_LUMO_gap": 0.23415, 
			 "cosmo_polarized_energy": -7.21, 
			 "cosmo_cavitation_energy": 23.4, 
			 "cosmo_dispersion_energy": -17.84, 
			 "cosmo_repulsion_energy": 1.43, 
			 "cosmo_total_nonelectrostatic_energy": 6.99, 
			 "SMD_solvation_energy": 0.31 
		},
		"coords": [
			{
				"x": -1.2979845843,
				"y": 1.8493043961,
				"z": -0.7751041676,
				"element": "C" 
			},
			{
				"x": -0.6589024896,
				"y": 0.6073347097,
				"z": -1.4712078914,
				"element": "C" 
			},
			{
				"x": -0.9147218825,
				"y": -0.5214878626,
				"z": -0.4117991104,
				"element": "C" 
			},
			{
				"x": -2.2293438365,
				"y": -0.147672374,
				"z": 0.1835404982,
				"element": "N" 
			},
			{
				"x": -1.8166483615,
				"y": 1.2315069244,
				"z": 0.5707518156,
				"element": "C" 
			},
			{
				"x": -0.5901339383,
				"y": 0.897587671,
				"z": 1.3979863073,
				"element": "C" 
			},
			{
				"x": -0.0149488569,
				"y": -0.220493573,
				"z": 0.7713633439,
				"element": "C" 
			},
			{
				"x": 1.1720505554,
				"y": -0.767504251,
				"z": 1.2340230258,
				"element": "C" 
			},
			{
				"x": 1.7737166772,
				"y": -0.186131357,
				"z": 2.3612783994,
				"element": "C" 
			},
			{
				"x": 1.2020078725,
				"y": 0.9253101715,
				"z": 2.9841091322,
				"element": "C" 
			},
			{
				"x": 0.0114651178,
				"y": 1.4886876365,
				"z": 2.4983930444,
				"element": "C" 
			},
			{
				"x": -2.137058669,
				"y": 2.2461274773,
				"z": -1.3567809105,
				"element": "H" 
			},
			{
				"x": -0.5879315985,
				"y": 2.6655935742,
				"z": -0.6172160735,
				"element": "H" 
			},
			{
				"x": 0.4027598694,
				"y": 0.7403573044,
				"z": -1.6961592436,
				"element": "H" 
			},
			{
				"x": -1.1703111463,
				"y": 0.3676249364,
				"z": -2.4097493102,
				"element": "H" 
			},
			{
				"x": -0.8851927929,
				"y": -1.540494536,
				"z": -0.8019794419,
				"element": "H" 
			},
			{
				"x": -2.9348270307,
				"y": -0.0968010321,
				"z": -0.5548213568,
				"element": "H" 
			},
			{
				"x": -2.6036401296,
				"y": 1.7995898235,
				"z": 1.0701633699,
				"element": "H" 
			},
			{
				"x": 1.6254360006,
				"y": -1.6290329204,
				"z": 0.7506246762,
				"element": "H" 
			},
			{
				"x": 2.6931773578,
				"y": -0.608951022,
				"z": 2.756494507,
				"element": "H" 
			},
			{
				"x": 1.6820475418,
				"y": 1.356777118,
				"z": 3.8580520092,
				"element": "H" 
			},
			{
				"x": -0.4251156757,
				"y": 2.3572671849,
				"z": 2.9846373771,
				"element": "H" 
			}
		],
		 "valence_orbital": [ 
			{
				"type": "occ",
				"energy": -0.31894,
				"method": "rhf"
			},
			{
				"type": "occ",
				"energy": -0.31393,
				"method": "rhf"
			},
			{
				"type": "occ",
				"energy": -0.24232,
				"method": "rhf"
			},
			{
				"type": "occ",
				"energy": -0.23223,
				"method": "rhf"
			},
			{
				"type": "occ",
				"energy": -0.22974,
				"method": "rhf"
			},
			{
				"type": "unocc",
				"energy": 0.00441,
				"method": "rhf"
			},
			{
				"type": "unocc",
				"energy": 0.00721,
				"method": "rhf"
			},
			{
				"type": "unocc",
				"energy": 0.08164,
				"method": "rhf"
			},
			{
				"type": "unocc",
				"energy": 0.10381,
				"method": "rhf"
			},
			{
				"type": "unocc",
				"energy": 0.12895,
				"method": "rhf"
			}
		],
		"cosmo_sigma_profile": { 
			"-0.025": 0.0,
			"-0.024": 0.0,
			"-0.023": 0.0,
			"-0.022": 0.0,
			"-0.021": 0.0,
			"-0.02": 0.0,
			"-0.019": 0.0,
			"-0.018": 0.0,
			"-0.017": 0.0,
			"-0.016": 0.0,
			"-0.015": 0.0,
			"-0.014": 0.0,
			"-0.013": 0.0,
			"-0.012": 0.0,
			"-0.011": 0.0,
			"-0.01": 0.766830733086,
			"-0.009": 1.3602485482,
			"-0.008": 1.57201579352,
			"-0.007": 1.52428589847,
			"-0.006": 2.86695488998,
			"-0.005": 12.650936753,
			"-0.004": 16.2879030094,
			"-0.003": 26.4145782964,
			"-0.002": 18.492840266,
			"-0.001": 19.2377871574,
			"0.0": 16.4168850478,
			"0.001": 13.9479658401,
			"0.002": 7.74417913188,
			"0.003": 7.10930841294,
			"0.004": 8.06249159911,
			"0.005": 6.86881717539,
			"0.006": 8.24386613379,
			"0.007": 5.52423452653,
			"0.008": 1.02298827253,
			"0.009": 1.31444168931,
			"0.01": 0.762087092342,
			"0.011": 0.833044125618,
			"0.012": 0.769363907889,
			"0.013": 0.822243744919,
			"0.014": 0.913662381407,
			"0.015": 0.683520596428,
			"0.016": 0.505596327452,
			"0.017": 0.456171763012,
			"0.018": 0.805252085329,
			"0.019": 0.449749991021,
			"0.02": 0.0202615756771,
			"0.021": 0.0,
			"0.022": 0.0,
			"0.023": 0.0,
			"0.024": 0.0,
			"0.025": 0.0
		}
	}
}
