{
	 "smiles": "OC(C1=CC=C(Cl)C=C1)C1=CN=CC=C1", 
	 "Tm": 380.15, 
	 "num_atms": 25, 
	 "gaussian": { 
		 "optdone": 1, 
		 "sigma_profile": "yes", 
		 "theory": "DFT", 
		 "functional": "B3LYP", 
		 "basiset": "6-31G**", 
		 "properties": { 
			 "R2extent": 4800.7477, 
			 "electric_dipole_moment_norm": 2.6088646592, 
			 "electric_quadrupole_moment_norm": 12.9832834718, 
			 "total_energy": -1053.45840836, 
			 "HOMO_LUMO_gap": 0.21618, 
			 "cosmo_polarized_energy": -11.7, 
			 "cosmo_cavitation_energy": 31.2, 
			 "cosmo_dispersion_energy": -22.37, 
			 "cosmo_repulsion_energy": 1.76, 
			 "cosmo_total_nonelectrostatic_energy": 10.59, 
			 "SMD_solvation_energy": 3.54 
		},
		"coords": [
			{
				"x": -1.2077951881,
				"y": 2.9655999209,
				"z": 0.0361457955,
				"element": "O" 
			},
			{
				"x": -0.4417324426,
				"y": 2.0181664162,
				"z": -0.7024613343,
				"element": "C" 
			},
			{
				"x": -1.2679257601,
				"y": 0.7831776647,
				"z": -1.0428287393,
				"element": "C" 
			},
			{
				"x": -1.3276119625,
				"y": 0.2935473625,
				"z": -2.3505834676,
				"element": "C" 
			},
			{
				"x": -2.08650693,
				"y": -0.8367033854,
				"z": -2.6629539436,
				"element": "C" 
			},
			{
				"x": -2.7986430528,
				"y": -1.4721572466,
				"z": -1.6487444484,
				"element": "C" 
			},
			{
				"x": -3.7641972469,
				"y": -2.8910180255,
				"z": -2.0272073491,
				"element": "Cl" 
			},
			{
				"x": -2.7632260931,
				"y": -0.9975790054,
				"z": -0.3354480966,
				"element": "C" 
			},
			{
				"x": -1.99686888,
				"y": 0.1267534312,
				"z": -0.0412225579,
				"element": "C" 
			},
			{
				"x": 0.7942134009,
				"y": 1.6839155133,
				"z": 0.1226124944,
				"element": "C" 
			},
			{
				"x": 1.7819709527,
				"y": 0.834570811,
				"z": -0.3940360968,
				"element": "C" 
			},
			{
				"x": 2.9003296367,
				"y": 0.498120304,
				"z": 0.2539211027,
				"element": "N" 
			},
			{
				"x": 3.0765541113,
				"y": 1.0107233398,
				"z": 1.4799032447,
				"element": "C" 
			},
			{
				"x": 2.1607702409,
				"y": 1.8654348744,
				"z": 2.0906586617,
				"element": "C" 
			},
			{
				"x": 0.9996401926,
				"y": 2.2113171518,
				"z": 1.3985647559,
				"element": "C" 
			},
			{
				"x": -2.0345387054,
				"y": 3.1076481319,
				"z": -0.442346779,
				"element": "H" 
			},
			{
				"x": -0.1014955193,
				"y": 2.4656094104,
				"z": -1.6511281112,
				"element": "H" 
			},
			{
				"x": -0.7792144601,
				"y": 0.7986618028,
				"z": -3.1419991156,
				"element": "H" 
			},
			{
				"x": -2.1300499774,
				"y": -1.2139206464,
				"z": -3.6786208355,
				"element": "H" 
			},
			{
				"x": -3.3263126912,
				"y": -1.5052942649,
				"z": 0.4399345682,
				"element": "H" 
			},
			{
				"x": -1.9638143505,
				"y": 0.5061310382,
				"z": 0.9755514427,
				"element": "H" 
			},
			{
				"x": 1.6588778768,
				"y": 0.3991275899,
				"z": -1.3856285946,
				"element": "H" 
			},
			{
				"x": 3.9933622044,
				"y": 0.7242926317,
				"z": 1.9922309874,
				"element": "H" 
			},
			{
				"x": 2.3536498251,
				"y": 2.2557115651,
				"z": 3.0853826449,
				"element": "H" 
			},
			{
				"x": 0.2639648187,
				"y": 2.8808636145,
				"z": 1.8286037714,
				"element": "H" 
			}
		],
		 "valence_orbital": [ 
			{
				"type": "occ",
				"energy": -0.28193,
				"method": "rhf"
			},
			{
				"type": "occ",
				"energy": -0.2707,
				"method": "rhf"
			},
			{
				"type": "occ",
				"energy": -0.25699,
				"method": "rhf"
			},
			{
				"type": "occ",
				"energy": -0.25135,
				"method": "rhf"
			},
			{
				"type": "occ",
				"energy": -0.24485,
				"method": "rhf"
			},
			{
				"type": "unocc",
				"energy": -0.02867,
				"method": "rhf"
			},
			{
				"type": "unocc",
				"energy": -0.02419,
				"method": "rhf"
			},
			{
				"type": "unocc",
				"energy": -0.01734,
				"method": "rhf"
			},
			{
				"type": "unocc",
				"energy": -0.00739,
				"method": "rhf"
			},
			{
				"type": "unocc",
				"energy": 0.02598,
				"method": "rhf"
			}
		],
		"cosmo_sigma_profile": { 
			"-0.025": 0.0,
			"-0.024": 0.0,
			"-0.023": 0.0,
			"-0.022": 0.0,
			"-0.021": 0.0,
			"-0.02": 0.0,
			"-0.019": 0.0,
			"-0.018": 0.0,
			"-0.017": 0.0,
			"-0.016": 0.734687671043,
			"-0.015": 1.06532554532,
			"-0.014": 0.555022831411,
			"-0.013": 1.00515527642,
			"-0.012": 0.745860520301,
			"-0.011": 0.850251635267,
			"-0.01": 0.808356044881,
			"-0.009": 1.040692891,
			"-0.008": 1.24295102342,
			"-0.007": 8.44759981996,
			"-0.006": 17.1959758834,
			"-0.005": 19.3041704191,
			"-0.004": 15.1665088945,
			"-0.003": 12.9218315439,
			"-0.002": 13.5309198024,
			"-0.001": 13.8754169301,
			"0.0": 15.8553644438,
			"0.001": 20.0496701879,
			"0.002": 28.1280705961,
			"0.003": 30.8380486353,
			"0.004": 16.9751932894,
			"0.005": 11.3545061621,
			"0.006": 2.66904667234,
			"0.007": 2.14336893208,
			"0.008": 2.74782145868,
			"0.009": 3.62297758933,
			"0.01": 2.00347446521,
			"0.011": 1.49886901802,
			"0.012": 1.2865348111,
			"0.013": 0.939690264558,
			"0.014": 1.17179705452,
			"0.015": 0.494801018459,
			"0.016": 0.951095794228,
			"0.017": 0.623793290537,
			"0.018": 0.0,
			"0.019": 0.0,
			"0.02": 0.0,
			"0.021": 0.0,
			"0.022": 0.0,
			"0.023": 0.0,
			"0.024": 0.0,
			"0.025": 0.0
		}
	}
}
