{
	 "smiles": "CC1=CC(=O)C=C(C)O1", 
	 "Tm": 406.15, 
	 "num_atms": 17, 
	 "gaussian": { 
		 "optdone": 1, 
		 "sigma_profile": "yes", 
		 "theory": "DFT", 
		 "functional": "B3LYP", 
		 "basiset": "6-31G**", 
		 "properties": { 
			 "R2extent": 1489.8594, 
			 "electric_dipole_moment_norm": 4.80387210696, 
			 "electric_quadrupole_moment_norm": 21.0591288483, 
			 "total_energy": -422.003726717, 
			 "HOMO_LUMO_gap": 0.19661, 
			 "cosmo_polarized_energy": -11.83, 
			 "cosmo_cavitation_energy": 21.07, 
			 "cosmo_dispersion_energy": -15.57, 
			 "cosmo_repulsion_energy": 1.3, 
			 "cosmo_total_nonelectrostatic_energy": 6.8, 
			 "SMD_solvation_energy": 5.18 
		},
		"coords": [
			{
				"x": -0.4798117921,
				"y": -0.3817089665,
				"z": 1.8721625913,
				"element": "C" 
			},
			{
				"x": -0.2993573335,
				"y": 0.4246644956,
				"z": 0.6259139874,
				"element": "C" 
			},
			{
				"x": -0.251009047,
				"y": 1.7697904187,
				"z": 0.5317915684,
				"element": "C" 
			},
			{
				"x": -0.0687210772,
				"y": 2.4471193226,
				"z": -0.7569658829,
				"element": "C" 
			},
			{
				"x": -0.019890741,
				"y": 3.6710486483,
				"z": -0.8790752316,
				"element": "O" 
			},
			{
				"x": 0.0497694185,
				"y": 1.5166641682,
				"z": -1.8852869182,
				"element": "C" 
			},
			{
				"x": -0.0084654438,
				"y": 0.1798491611,
				"z": -1.7118320751,
				"element": "C" 
			},
			{
				"x": 0.0983002366,
				"y": -0.8681744834,
				"z": -2.7730451714,
				"element": "C" 
			},
			{
				"x": -0.1810489413,
				"y": -0.3804716642,
				"z": -0.4748374087,
				"element": "O" 
			},
			{
				"x": -1.3775845468,
				"y": -1.0054743499,
				"z": 1.8007408432,
				"element": "H" 
			},
			{
				"x": 0.3728016616,
				"y": -1.0527446968,
				"z": 2.0236238144,
				"element": "H" 
			},
			{
				"x": -0.5727198708,
				"y": 0.2723470806,
				"z": 2.7404907499,
				"element": "H" 
			},
			{
				"x": -0.3479422126,
				"y": 2.3793065483,
				"z": 1.422910614,
				"element": "H" 
			},
			{
				"x": 0.1873239161,
				"y": 1.9288793046,
				"z": -2.8783411835,
				"element": "H" 
			},
			{
				"x": 0.944902014,
				"y": -1.5340811335,
				"z": -2.5730044236,
				"element": "H" 
			},
			{
				"x": -0.8055100482,
				"y": -1.4868757274,
				"z": -2.7957433134,
				"element": "H" 
			},
			{
				"x": 0.2353638076,
				"y": -0.4076381262,
				"z": -3.75260256,
				"element": "H" 
			}
		],
		 "valence_orbital": [ 
			{
				"type": "occ",
				"energy": -0.37132,
				"method": "rhf"
			},
			{
				"type": "occ",
				"energy": -0.36237,
				"method": "rhf"
			},
			{
				"type": "occ",
				"energy": -0.27364,
				"method": "rhf"
			},
			{
				"type": "occ",
				"energy": -0.23939,
				"method": "rhf"
			},
			{
				"type": "occ",
				"energy": -0.22667,
				"method": "rhf"
			},
			{
				"type": "unocc",
				"energy": -0.03006,
				"method": "rhf"
			},
			{
				"type": "unocc",
				"energy": -0.00599,
				"method": "rhf"
			},
			{
				"type": "unocc",
				"energy": 0.08716,
				"method": "rhf"
			},
			{
				"type": "unocc",
				"energy": 0.10806,
				"method": "rhf"
			},
			{
				"type": "unocc",
				"energy": 0.11205,
				"method": "rhf"
			}
		],
		"cosmo_sigma_profile": { 
			"-0.025": 0.0,
			"-0.024": 0.0,
			"-0.023": 0.0,
			"-0.022": 0.0,
			"-0.021": 0.0,
			"-0.02": 0.0,
			"-0.019": 0.0,
			"-0.018": 0.0,
			"-0.017": 0.0,
			"-0.016": 0.0,
			"-0.015": 0.0,
			"-0.014": 0.0,
			"-0.013": 0.0,
			"-0.012": 0.0,
			"-0.011": 0.0,
			"-0.01": 0.0,
			"-0.009": 0.0,
			"-0.008": 0.0,
			"-0.007": 3.40391729669,
			"-0.006": 14.4811960928,
			"-0.005": 14.8323231713,
			"-0.004": 14.951964041,
			"-0.003": 14.6861908009,
			"-0.002": 22.9093619686,
			"-0.001": 17.9074454163,
			"0.0": 9.1731607221,
			"0.001": 9.89669599827,
			"0.002": 10.3612837581,
			"0.003": 5.60078446834,
			"0.004": 3.11501161584,
			"0.005": 2.23717523352,
			"0.006": 2.54742155471,
			"0.007": 1.01672749319,
			"0.008": 1.36670794748,
			"0.009": 1.82933914833,
			"0.01": 0.943414417851,
			"0.011": 1.32891755203,
			"0.012": 2.13228004898,
			"0.013": 2.46384020785,
			"0.014": 5.06480523376,
			"0.015": 4.16658418251,
			"0.016": 0.947895074486,
			"0.017": 0.0,
			"0.018": 0.0,
			"0.019": 0.0,
			"0.02": 0.0,
			"0.021": 0.0,
			"0.022": 0.0,
			"0.023": 0.0,
			"0.024": 0.0,
			"0.025": 0.0
		}
	}
}
