{
	 "smiles": "CN(C1=CC=CC=C1)C1=NC=C(C=C1)C(O)=O", 
	 "Tm": 450.15, 
	 "num_atms": 29, 
	 "gaussian": { 
		 "optdone": 1, 
		 "sigma_profile": "yes", 
		 "theory": "DFT", 
		 "functional": "B3LYP", 
		 "basiset": "6-31G**", 
		 "properties": { 
			 "R2extent": 5465.0033, 
			 "electric_dipole_moment_norm": 6.24506939673, 
			 "electric_quadrupole_moment_norm": 22.620978485, 
			 "total_energy": -762.574085969, 
			 "HOMO_LUMO_gap": 0.17256, 
			 "cosmo_polarized_energy": -16.21, 
			 "cosmo_cavitation_energy": 33.39, 
			 "cosmo_dispersion_energy": -23.98, 
			 "cosmo_repulsion_energy": 1.85, 
			 "cosmo_total_nonelectrostatic_energy": 11.26, 
			 "SMD_solvation_energy": 5.98 
		},
		"coords": [
			{
				"x": 0.9919028731,
				"y": -3.0704092388,
				"z": -0.3646142515,
				"element": "C" 
			},
			{
				"x": 0.8090172583,
				"y": -1.6149547086,
				"z": -0.3537804596,
				"element": "N" 
			},
			{
				"x": 1.9679561078,
				"y": -0.7826274923,
				"z": -0.2748948653,
				"element": "C" 
			},
			{
				"x": 2.2078415021,
				"y": 0.0069337247,
				"z": 0.8581770571,
				"element": "C" 
			},
			{
				"x": 3.3567910623,
				"y": 0.7942282514,
				"z": 0.9323522231,
				"element": "C" 
			},
			{
				"x": 4.2854764242,
				"y": 0.7857724455,
				"z": -0.1106369249,
				"element": "C" 
			},
			{
				"x": 4.0544399106,
				"y": -0.0088360088,
				"z": -1.2351524138,
				"element": "C" 
			},
			{
				"x": 2.8978389284,
				"y": -0.7838305199,
				"z": -1.3227519442,
				"element": "C" 
			},
			{
				"x": -0.468452195,
				"y": -1.1090327263,
				"z": -0.2602381269,
				"element": "C" 
			},
			{
				"x": -1.452184059,
				"y": -2.0191408363,
				"z": -0.1160461603,
				"element": "N" 
			},
			{
				"x": -2.7088445481,
				"y": -1.5824208279,
				"z": -0.0317845338,
				"element": "C" 
			},
			{
				"x": -3.0878582889,
				"y": -0.2389262549,
				"z": -0.0721230062,
				"element": "C" 
			},
			{
				"x": -2.0542286622,
				"y": 0.6997629306,
				"z": -0.2671609711,
				"element": "C" 
			},
			{
				"x": -0.7453542434,
				"y": 0.2818376446,
				"z": -0.3588417574,
				"element": "C" 
			},
			{
				"x": -4.4901901493,
				"y": 0.2491506617,
				"z": 0.0135480652,
				"element": "C" 
			},
			{
				"x": -5.4281795653,
				"y": -0.628541907,
				"z": 0.470059939,
				"element": "O" 
			},
			{
				"x": -4.8240498911,
				"y": 1.3699584914,
				"z": -0.2995227451,
				"element": "O" 
			},
			{
				"x": 0.3738462454,
				"y": -3.5312253884,
				"z": -1.1382793158,
				"element": "H" 
			},
			{
				"x": 0.7084447733,
				"y": -3.5138279515,
				"z": 0.5964858843,
				"element": "H" 
			},
			{
				"x": 2.0437636853,
				"y": -3.2804729274,
				"z": -0.5586517566,
				"element": "H" 
			},
			{
				"x": 1.4935630226,
				"y": -0.0038429795,
				"z": 1.6755987252,
				"element": "H" 
			},
			{
				"x": 3.532722156,
				"y": 1.4036776423,
				"z": 1.8139749487,
				"element": "H" 
			},
			{
				"x": 5.1828190035,
				"y": 1.3937949922,
				"z": -0.0470323636,
				"element": "H" 
			},
			{
				"x": 4.7691019774,
				"y": -0.0174404265,
				"z": -2.0529166855,
				"element": "H" 
			},
			{
				"x": 2.7042945261,
				"y": -1.3872687779,
				"z": -2.2045472524,
				"element": "H" 
			},
			{
				"x": -3.4561223669,
				"y": -2.3743967111,
				"z": 0.0473135765,
				"element": "H" 
			},
			{
				"x": -2.3168596869,
				"y": 1.7493057877,
				"z": -0.34991932,
				"element": "H" 
			},
			{
				"x": 0.0547416126,
				"y": 0.9934880445,
				"z": -0.5176383033,
				"element": "H" 
			},
			{
				"x": -5.003837413,
				"y": -1.4199149338,
				"z": 0.8284227381,
				"element": "H" 
			}
		],
		 "valence_orbital": [ 
			{
				"type": "occ",
				"energy": -0.2793,
				"method": "rhf"
			},
			{
				"type": "occ",
				"energy": -0.26769,
				"method": "rhf"
			},
			{
				"type": "occ",
				"energy": -0.26604,
				"method": "rhf"
			},
			{
				"type": "occ",
				"energy": -0.25899,
				"method": "rhf"
			},
			{
				"type": "occ",
				"energy": -0.21419,
				"method": "rhf"
			},
			{
				"type": "unocc",
				"energy": -0.04163,
				"method": "rhf"
			},
			{
				"type": "unocc",
				"energy": -0.02991,
				"method": "rhf"
			},
			{
				"type": "unocc",
				"energy": -0.01575,
				"method": "rhf"
			},
			{
				"type": "unocc",
				"energy": -0.01531,
				"method": "rhf"
			},
			{
				"type": "unocc",
				"energy": 0.05767,
				"method": "rhf"
			}
		],
		"cosmo_sigma_profile": { 
			"-0.025": 0.0,
			"-0.024": 0.0,
			"-0.023": 0.0,
			"-0.022": 0.0,
			"-0.021": 0.0,
			"-0.02": 0.0,
			"-0.019": 0.338920827049,
			"-0.018": 0.790790938293,
			"-0.017": 0.878586985059,
			"-0.016": 1.19826932141,
			"-0.015": 0.726849460055,
			"-0.014": 0.7805583793,
			"-0.013": 1.02967796927,
			"-0.012": 1.79722172956,
			"-0.011": 0.69938330639,
			"-0.01": 1.01621510417,
			"-0.009": 1.28772777408,
			"-0.008": 1.47163860924,
			"-0.007": 2.9940806084,
			"-0.006": 13.1476797897,
			"-0.005": 18.7194948752,
			"-0.004": 22.659782633,
			"-0.003": 21.1697523052,
			"-0.002": 22.7364182063,
			"-0.001": 19.9738513955,
			"0.0": 18.3384664995,
			"0.001": 22.7208185091,
			"0.002": 18.454277682,
			"0.003": 14.3663267501,
			"0.004": 12.3368310161,
			"0.005": 11.1694287611,
			"0.006": 3.54475731447,
			"0.007": 3.86109651293,
			"0.008": 3.96780836302,
			"0.009": 4.10784514604,
			"0.01": 4.86408066914,
			"0.011": 5.92852981529,
			"0.012": 6.72139132526,
			"0.013": 2.96487974221,
			"0.014": 0.410403236512,
			"0.015": 0.0,
			"0.016": 0.0,
			"0.017": 0.0,
			"0.018": 0.0,
			"0.019": 0.0,
			"0.02": 0.0,
			"0.021": 0.0,
			"0.022": 0.0,
			"0.023": 0.0,
			"0.024": 0.0,
			"0.025": 0.0
		}
	}
}
