{
	 "smiles": "CC1=CC=C(C=C1)S(=O)(=O)N1CCC(CC1)C(O)=O", 
	 "Tm": 455.15, 
	 "num_atms": 36, 
	 "gaussian": { 
		 "optdone": 1, 
		 "sigma_profile": "yes", 
		 "theory": "DFT", 
		 "functional": "B3LYP", 
		 "basiset": "6-31G**", 
		 "properties": { 
			 "R2extent": 6918.5382, 
			 "electric_dipole_moment_norm": 6.50157862446, 
			 "electric_quadrupole_moment_norm": 26.7984188037, 
			 "total_energy": -1259.40503145, 
			 "HOMO_LUMO_gap": 0.20772, 
			 "cosmo_polarized_energy": -24.5, 
			 "cosmo_cavitation_energy": 39.64, 
			 "cosmo_dispersion_energy": -27.81, 
			 "cosmo_repulsion_energy": 2.1, 
			 "cosmo_total_nonelectrostatic_energy": 13.93, 
			 "SMD_solvation_energy": 5.86 
		},
		"coords": [
			{
				"x": -1.7998789617,
				"y": 4.8367974251,
				"z": -1.3460959206,
				"element": "C" 
			},
			{
				"x": -1.1176050912,
				"y": 3.4995951386,
				"z": -1.5048264304,
				"element": "C" 
			},
			{
				"x": -1.8604366324,
				"y": 2.3082753471,
				"z": -1.4387882498,
				"element": "C" 
			},
			{
				"x": -1.2512101573,
				"y": 1.0697480877,
				"z": -1.6084010709,
				"element": "C" 
			},
			{
				"x": 0.1264920126,
				"y": 1.015629584,
				"z": -1.8413625811,
				"element": "C" 
			},
			{
				"x": 0.8874447227,
				"y": 2.1808717842,
				"z": -1.9195883134,
				"element": "C" 
			},
			{
				"x": 0.2589719997,
				"y": 3.415335467,
				"z": -1.745998276,
				"element": "C" 
			},
			{
				"x": 0.9126751405,
				"y": -0.5736484218,
				"z": -2.1049030229,
				"element": "S" 
			},
			{
				"x": 2.3117906573,
				"y": -0.3183677432,
				"z": -2.4789918359,
				"element": "O" 
			},
			{
				"x": 0.054020959,
				"y": -1.4014544511,
				"z": -2.9572042676,
				"element": "O" 
			},
			{
				"x": 0.8135517325,
				"y": -1.2662912695,
				"z": -0.5565063441,
				"element": "N" 
			},
			{
				"x": 0.7684100125,
				"y": -2.7543952415,
				"z": -0.5635670213,
				"element": "C" 
			},
			{
				"x": 0.942282589,
				"y": -3.2843313375,
				"z": 0.8720656501,
				"element": "C" 
			},
			{
				"x": 0.3616648462,
				"y": -2.3018446477,
				"z": 1.8925031746,
				"element": "C" 
			},
			{
				"x": 1.1558014134,
				"y": -0.9627659603,
				"z": 1.8504185393,
				"element": "C" 
			},
			{
				"x": 1.7363654087,
				"y": -0.7080109868,
				"z": 0.4441921315,
				"element": "C" 
			},
			{
				"x": 0.3374234995,
				"y": -2.8940752175,
				"z": 3.2981556692,
				"element": "C" 
			},
			{
				"x": -0.1737365722,
				"y": -2.0812135576,
				"z": 4.264985217,
				"element": "O" 
			},
			{
				"x": 0.7345585862,
				"y": -3.9943727943,
				"z": 3.5887607023,
				"element": "O" 
			},
			{
				"x": -2.5282705896,
				"y": 4.8195035781,
				"z": -0.5290943496,
				"element": "H" 
			},
			{
				"x": -2.3449457779,
				"y": 5.108111024,
				"z": -2.2583439934,
				"element": "H" 
			},
			{
				"x": -1.0793014897,
				"y": 5.6335563158,
				"z": -1.1436480199,
				"element": "H" 
			},
			{
				"x": -2.931129112,
				"y": 2.3560611841,
				"z": -1.2574610851,
				"element": "H" 
			},
			{
				"x": -1.8314841967,
				"y": 0.1540915127,
				"z": -1.5698856982,
				"element": "H" 
			},
			{
				"x": 1.9507128783,
				"y": 2.1128350573,
				"z": -2.1224830126,
				"element": "H" 
			},
			{
				"x": 0.8488207813,
				"y": 4.3260897839,
				"z": -1.8044438207,
				"element": "H" 
			},
			{
				"x": -0.1989511732,
				"y": -3.0481381102,
				"z": -0.9758071742,
				"element": "H" 
			},
			{
				"x": 1.5471288744,
				"y": -3.1804484248,
				"z": -1.2099680211,
				"element": "H" 
			},
			{
				"x": 2.0004996923,
				"y": -3.4470318467,
				"z": 1.1020221745,
				"element": "H" 
			},
			{
				"x": 0.4607087222,
				"y": -4.2606599832,
				"z": 0.9627859767,
				"element": "H" 
			},
			{
				"x": -0.6798883668,
				"y": -2.0871753341,
				"z": 1.6135704974,
				"element": "H" 
			},
			{
				"x": 1.9815400284,
				"y": -0.984062237,
				"z": 2.5706750109,
				"element": "H" 
			},
			{
				"x": 0.5035151051,
				"y": -0.1270728322,
				"z": 2.1301106861,
				"element": "H" 
			},
			{
				"x": 1.8407435457,
				"y": 0.3657310254,
				"z": 0.2733562639,
				"element": "H" 
			},
			{
				"x": 2.7392747098,
				"y": -1.1450841492,
				"z": 0.3444031431,
				"element": "H" 
			},
			{
				"x": -0.4600597966,
				"y": -1.2405877688,
				"z": 3.880563672,
				"element": "H" 
			}
		],
		 "valence_orbital": [ 
			{
				"type": "occ",
				"energy": -0.2989,
				"method": "rhf"
			},
			{
				"type": "occ",
				"energy": -0.27487,
				"method": "rhf"
			},
			{
				"type": "occ",
				"energy": -0.27465,
				"method": "rhf"
			},
			{
				"type": "occ",
				"energy": -0.27253,
				"method": "rhf"
			},
			{
				"type": "occ",
				"energy": -0.24939,
				"method": "rhf"
			},
			{
				"type": "unocc",
				"energy": -0.04167,
				"method": "rhf"
			},
			{
				"type": "unocc",
				"energy": -0.02553,
				"method": "rhf"
			},
			{
				"type": "unocc",
				"energy": 0.00448,
				"method": "rhf"
			},
			{
				"type": "unocc",
				"energy": 0.03893,
				"method": "rhf"
			},
			{
				"type": "unocc",
				"energy": 0.05555,
				"method": "rhf"
			}
		],
		"cosmo_sigma_profile": { 
			"-0.025": 0.0,
			"-0.024": 0.0,
			"-0.023": 0.0,
			"-0.022": 0.0,
			"-0.021": 0.0,
			"-0.02": 0.0,
			"-0.019": 0.0762019119352,
			"-0.018": 0.757427083321,
			"-0.017": 0.856412958235,
			"-0.016": 1.43019084864,
			"-0.015": 1.06831209604,
			"-0.014": 1.04857552116,
			"-0.013": 0.88474723324,
			"-0.012": 1.07041172344,
			"-0.011": 1.39132381241,
			"-0.01": 1.0181831346,
			"-0.009": 0.891608882094,
			"-0.008": 2.01032380926,
			"-0.007": 4.9718588444,
			"-0.006": 14.3945575433,
			"-0.005": 33.3245201245,
			"-0.004": 38.1951095802,
			"-0.003": 27.5734565201,
			"-0.002": 22.4889787141,
			"-0.001": 19.4916595548,
			"0.0": 16.9220681451,
			"0.001": 14.4078412701,
			"0.002": 15.7810042783,
			"0.003": 17.4009710353,
			"0.004": 8.93314588288,
			"0.005": 6.10818754323,
			"0.006": 4.63919577002,
			"0.007": 4.85931268614,
			"0.008": 5.94132422862,
			"0.009": 7.30169648331,
			"0.01": 10.4028660104,
			"0.011": 14.0914183813,
			"0.012": 10.3886217567,
			"0.013": 1.64866694809,
			"0.014": 0.0533928885282,
			"0.015": 0.0,
			"0.016": 0.0,
			"0.017": 0.0,
			"0.018": 0.0,
			"0.019": 0.0,
			"0.02": 0.0,
			"0.021": 0.0,
			"0.022": 0.0,
			"0.023": 0.0,
			"0.024": 0.0,
			"0.0": 0.0
		}
	}
}
