{
	 "smiles": "CC(=O)OC1C2CC(OC(C)=O)C3C1(C1CC4C(C)(C)CCC(OC(C)=O)C34C(OC(C)=O)O1)C(=O)C2=C", 
	 "Tm": 503.15, 
	 "num_atms": 74, 
	 "gaussian": { 
		 "optdone": 1, 
		 "sigma_profile": "yes", 
		 "theory": "DFT", 
		 "functional": "B3LYP", 
		 "basiset": "6-31G**", 
		 "properties": { 
			 "R2extent": 14181.1676, 
			 "electric_dipole_moment_norm": 2.35634630095, 
			 "electric_quadrupole_moment_norm": 14.8175325071, 
			 "total_energy": -1840.94425316, 
			 "HOMO_LUMO_gap": 0.17706, 
			 "cosmo_polarized_energy": -22.97, 
			 "cosmo_cavitation_energy": 64.37, 
			 "cosmo_dispersion_energy": -40.1, 
			 "cosmo_repulsion_energy": 2.84, 
			 "cosmo_total_nonelectrostatic_energy": 27.11, 
			 "SMD_solvation_energy": 13.85 
		},
		"coords": [
			{
				"x": -3.7101295588,
				"y": 1.4320070638,
				"z": 2.3504417846,
				"element": "C" 
			},
			{
				"x": -2.6902388183,
				"y": 0.4963144005,
				"z": 2.9411059939,
				"element": "C" 
			},
			{
				"x": -2.9430176591,
				"y": -0.4152709429,
				"z": 3.6958945755,
				"element": "O" 
			},
			{
				"x": -1.432707605,
				"y": 0.7990106151,
				"z": 2.5073127559,
				"element": "O" 
			},
			{
				"x": -0.3860152665,
				"y": -0.0649423158,
				"z": 2.9509615814,
				"element": "C" 
			},
			{
				"x": 0.8635180598,
				"y": 0.7295921293,
				"z": 3.3424426102,
				"element": "C" 
			},
			{
				"x": 1.2514396765,
				"y": 1.6797879975,
				"z": 2.1865728299,
				"element": "C" 
			},
			{
				"x": 0.9865416003,
				"y": 1.1452450554,
				"z": 0.7477675163,
				"element": "C" 
			},
			{
				"x": 2.1696656737,
				"y": 1.4570230558,
				"z": -0.0512568923,
				"element": "O" 
			},
			{
				"x": 2.3644575096,
				"y": 2.7536612093,
				"z": -0.3861949793,
				"element": "C" 
			},
			{
				"x": 3.6788135193,
				"y": 2.9394245622,
				"z": -1.1041999145,
				"element": "C" 
			},
			{
				"x": 1.565235782,
				"y": 3.6364046132,
				"z": -0.142601559,
				"element": "O" 
			},
			{
				"x": 0.8069121337,
				"y": -0.3896714853,
				"z": 0.6100912466,
				"element": "C" 
			},
			{
				"x": 0.1749374878,
				"y": -1.0611377766,
				"z": 1.9030713724,
				"element": "C" 
			},
			{
				"x": -0.8329940582,
				"y": -2.1176521628,
				"z": 1.4503475711,
				"element": "C" 
			},
			{
				"x": -0.1922692406,
				"y": -3.1871242738,
				"z": 0.5787002775,
				"element": "C" 
			},
			{
				"x": 0.429549298,
				"y": -2.520030363,
				"z": -0.6784586802,
				"element": "C" 
			},
			{
				"x": 0.1865629915,
				"y": -3.3497036728,
				"z": -1.9902577586,
				"element": "C" 
			},
			{
				"x": 0.937541761,
				"y": -4.6903647971,
				"z": -1.8291526341,
				"element": "C" 
			},
			{
				"x": -1.2877722763,
				"y": -3.6801939455,
				"z": -2.3221067502,
				"element": "C" 
			},
			{
				"x": 0.8045207991,
				"y": -2.5752429983,
				"z": -3.1708204977,
				"element": "C" 
			},
			{
				"x": 0.2828061177,
				"y": -1.1426493808,
				"z": -3.2581909925,
				"element": "C" 
			},
			{
				"x": 0.625835354,
				"y": -0.3526969704,
				"z": -1.9916020909,
				"element": "C" 
			},
			{
				"x": 0.1346585719,
				"y": 1.0082324649,
				"z": -2.1666067223,
				"element": "O" 
			},
			{
				"x": 0.8304401581,
				"y": 1.8115472796,
				"z": -3.0055696487,
				"element": "C" 
			},
			{
				"x": 0.1311129747,
				"y": 3.1344588025,
				"z": -3.2023936319,
				"element": "C" 
			},
			{
				"x": 1.8890140609,
				"y": 1.5011445399,
				"z": -3.5146419561,
				"element": "O" 
			},
			{
				"x": 0.0733784587,
				"y": -0.9652470082,
				"z": -0.6745276758,
				"element": "C" 
			},
			{
				"x": -1.460373152,
				"y": -0.8693947293,
				"z": -0.5073275627,
				"element": "C" 
			},
			{
				"x": -1.9340243965,
				"y": 0.4958860243,
				"z": -0.4503382776,
				"element": "O" 
			},
			{
				"x": -2.6674050273,
				"y": 0.9451040656,
				"z": -1.5029808025,
				"element": "C" 
			},
			{
				"x": -3.0964944261,
				"y": 2.3761427286,
				"z": -1.2855420833,
				"element": "C" 
			},
			{
				"x": -2.9500527558,
				"y": 0.2824743786,
				"z": -2.4778234776,
				"element": "O" 
			},
			{
				"x": -1.8818291343,
				"y": -1.4784018675,
				"z": 0.6916310929,
				"element": "O" 
			},
			{
				"x": 1.3930781771,
				"y": -1.563843723,
				"z": 2.7160928359,
				"element": "C" 
			},
			{
				"x": 1.9100198819,
				"y": -2.6646448756,
				"z": 2.683549792,
				"element": "O" 
			},
			{
				"x": 1.8518679352,
				"y": -0.4017165689,
				"z": 3.5457748868,
				"element": "C" 
			},
			{
				"x": 2.9298442381,
				"y": -0.4599000298,
				"z": 4.3321116711,
				"element": "C" 
			},
			{
				"x": -3.2814241035,
				"y": 2.4129494709,
				"z": 2.1399573698,
				"element": "H" 
			},
			{
				"x": -4.0536252323,
				"y": 0.9933765227,
				"z": 1.409052897,
				"element": "H" 
			},
			{
				"x": -4.5602737541,
				"y": 1.5143247257,
				"z": 3.028378927,
				"element": "H" 
			},
			{
				"x": -0.7649752634,
				"y": -0.6430051587,
				"z": 3.7984182421,
				"element": "H" 
			},
			{
				"x": 0.7188026406,
				"y": 1.3105476032,
				"z": 4.2581534559,
				"element": "H" 
			},
			{
				"x": 2.3157499787,
				"y": 1.9157192024,
				"z": 2.2734835065,
				"element": "H" 
			},
			{
				"x": 0.7055569818,
				"y": 2.6183637771,
				"z": 2.2980986892,
				"element": "H" 
			},
			{
				"x": 0.1365545829,
				"y": 1.6701142093,
				"z": 0.3190244846,
				"element": "H" 
			},
			{
				"x": 3.9050300718,
				"y": 4.0036406653,
				"z": -1.1697569059,
				"element": "H" 
			},
			{
				"x": 4.4792206889,
				"y": 2.4109603425,
				"z": -0.5803324908,
				"element": "H" 
			},
			{
				"x": 3.5994905084,
				"y": 2.5177441993,
				"z": -2.1105557102,
				"element": "H" 
			},
			{
				"x": 1.8327399292,
				"y": -0.7673700907,
				"z": 0.5223592187,
				"element": "H" 
			},
			{
				"x": -1.3466693639,
				"y": -2.5488901825,
				"z": 2.3128858379,
				"element": "H" 
			},
			{
				"x": -0.9784563796,
				"y": -3.8935483928,
				"z": 0.302794171,
				"element": "H" 
			},
			{
				"x": 0.5621402016,
				"y": -3.7286861634,
				"z": 1.1501141491,
				"element": "H" 
			},
			{
				"x": 1.5203043043,
				"y": -2.5374349053,
				"z": -0.5567299051,
				"element": "H" 
			},
			{
				"x": 0.5054719783,
				"y": -5.3088954995,
				"z": -1.0360975699,
				"element": "H" 
			},
			{
				"x": 1.9953809731,
				"y": -4.5304466673,
				"z": -1.5920246939,
				"element": "H" 
			},
			{
				"x": 0.8872442324,
				"y": -5.2663626027,
				"z": -2.75966506,
				"element": "H" 
			},
			{
				"x": -1.8680561574,
				"y": -2.8127553706,
				"z": -2.6434068725,
				"element": "H" 
			},
			{
				"x": -1.8170830747,
				"y": -4.1409701261,
				"z": -1.4838929542,
				"element": "H" 
			},
			{
				"x": -1.3122336266,
				"y": -4.3989670202,
				"z": -3.1485635638,
				"element": "H" 
			},
			{
				"x": 0.6035355041,
				"y": -3.1067818392,
				"z": -4.1088286636,
				"element": "H" 
			},
			{
				"x": 1.8976919259,
				"y": -2.5523942707,
				"z": -3.05759932,
				"element": "H" 
			},
			{
				"x": -0.7986618759,
				"y": -1.1125211413,
				"z": -3.4236938777,
				"element": "H" 
			},
			{
				"x": 0.7511256869,
				"y": -0.6304715503,
				"z": -4.1021643915,
				"element": "H" 
			},
			{
				"x": 1.7145767687,
				"y": -0.2942893694,
				"z": -1.8995606735,
				"element": "H" 
			},
			{
				"x": 0.1756425423,
				"y": 3.7094932573,
				"z": -2.2726308509,
				"element": "H" 
			},
			{
				"x": 0.6325276873,
				"y": 3.6882772506,
				"z": -3.9959111025,
				"element": "H" 
			},
			{
				"x": -0.9187737506,
				"y": 2.9743468511,
				"z": -3.4599719664,
				"element": "H" 
			},
			{
				"x": -1.9800220235,
				"y": -1.33255801,
				"z": -1.3428358842,
				"element": "H" 
			},
			{
				"x": -2.2518551495,
				"y": 2.9836974896,
				"z": -0.9525147165,
				"element": "H" 
			},
			{
				"x": -3.8630798026,
				"y": 2.4204113629,
				"z": -0.5062186395,
				"element": "H" 
			},
			{
				"x": -3.511144745,
				"y": 2.7713622624,
				"z": -2.2128519482,
				"element": "H" 
			},
			{
				"x": 3.2450505869,
				"y": 0.3751970273,
				"z": 4.9511396289,
				"element": "H" 
			},
			{
				"x": 3.5215676834,
				"y": -1.3702089575,
				"z": 4.3670713769,
				"element": "H" 
			}
		],
		 "valence_orbital": [ 
			{
				"type": "occ",
				"energy": -0.27536,
				"method": "rhf"
			},
			{
				"type": "occ",
				"energy": -0.27434,
				"method": "rhf"
			},
			{
				"type": "occ",
				"energy": -0.27169,
				"method": "rhf"
			},
			{
				"type": "occ",
				"energy": -0.2579,
				"method": "rhf"
			},
			{
				"type": "occ",
				"energy": -0.24967,
				"method": "rhf"
			},
			{
				"type": "unocc",
				"energy": -0.07261,
				"method": "rhf"
			},
			{
				"type": "unocc",
				"energy": -0.00771,
				"method": "rhf"
			},
			{
				"type": "unocc",
				"energy": 0.00598,
				"method": "rhf"
			},
			{
				"type": "unocc",
				"energy": 0.00798,
				"method": "rhf"
			},
			{
				"type": "unocc",
				"energy": 0.01903,
				"method": "rhf"
			}
		],
		"cosmo_sigma_profile": { 
			"-0.025": 0.0,
			"-0.024": 0.0,
			"-0.023": 0.0,
			"-0.022": 0.0,
			"-0.021": 0.0,
			"-0.02": 0.0,
			"-0.019": 0.0,
			"-0.018": 0.0,
			"-0.017": 0.0,
			"-0.016": 0.0,
			"-0.015": 0.0,
			"-0.014": 0.0,
			"-0.013": 0.0,
			"-0.012": 0.0,
			"-0.011": 0.0,
			"-0.01": 0.0,
			"-0.009": 0.453350821483,
			"-0.008": 2.24690702919,
			"-0.007": 6.33835645409,
			"-0.006": 20.4924436851,
			"-0.005": 35.5157545797,
			"-0.004": 44.5102050767,
			"-0.003": 61.2909437147,
			"-0.002": 65.2238703891,
			"-0.001": 58.1921056558,
			"0.0": 37.5345940928,
			"0.001": 35.7111881596,
			"0.002": 21.4959637593,
			"0.003": 14.7046250287,
			"0.004": 12.6974875921,
			"0.005": 12.0006896557,
			"0.006": 10.7770619142,
			"0.007": 9.23785259428,
			"0.008": 7.54236908343,
			"0.009": 9.21255741915,
			"0.01": 9.62970049702,
			"0.011": 13.3460140499,
			"0.012": 10.9246682078,
			"0.013": 2.38211350904,
			"0.014": 0.0,
			"0.015": 0.0,
			"0.016": 0.0,
			"0.017": 0.0,
			"0.018": 0.0,
			"0.019": 0.0,
			"0.02": 0.0,
			"0.021": 0.0,
			"0.022": 0.0,
			"0.023": 0.0,
			"0.024": 0.0,
			"0.025": 0.0
		}
	}
}
