{
	 "smiles": "CCOC1=CC=C(CC#N)C=C1", 
	 "Tm": 318.65, 
	 "num_atms": 23, 
	 "gaussian": { 
		 "optdone": 1, 
		 "sigma_profile": "yes", 
		 "theory": "DFT", 
		 "functional": "B3LYP", 
		 "basiset": "6-31G**", 
		 "properties": { 
			 "R2extent": 3277.4367, 
			 "electric_dipole_moment_norm": 5.06169242546, 
			 "electric_quadrupole_moment_norm": 23.0461989879, 
			 "total_energy": -517.646836508, 
			 "HOMO_LUMO_gap": 0.2113, 
			 "cosmo_polarized_energy": -12.19, 
			 "cosmo_cavitation_energy": 27.63, 
			 "cosmo_dispersion_energy": -19.46, 
			 "cosmo_repulsion_energy": 1.58, 
			 "cosmo_total_nonelectrostatic_energy": 9.75, 
			 "SMD_solvation_energy": 6.57 
		},
		"coords": [
			{
				"x": 0.7646698234,
				"y": 3.0408439487,
				"z": -1.0993574235,
				"element": "C" 
			},
			{
				"x": -0.7249142726,
				"y": 2.7350085638,
				"z": -0.9813160517,
				"element": "C" 
			},
			{
				"x": -1.0781374343,
				"y": 2.2143444633,
				"z": 0.3037264406,
				"element": "O" 
			},
			{
				"x": -0.8852438755,
				"y": 0.8942453992,
				"z": 0.5825767541,
				"element": "C" 
			},
			{
				"x": -1.2519644326,
				"y": 0.4946834556,
				"z": 1.8783891947,
				"element": "C" 
			},
			{
				"x": -1.1142142086,
				"y": -0.8296532638,
				"z": 2.2693283528,
				"element": "C" 
			},
			{
				"x": -0.6069409364,
				"y": -1.7932365488,
				"z": 1.3852043509,
				"element": "C" 
			},
			{
				"x": -0.4614807838,
				"y": -3.2452376482,
				"z": 1.816442611,
				"element": "C" 
			},
			{
				"x": -1.7330299852,
				"y": -3.9836435932,
				"z": 1.7986542375,
				"element": "C" 
			},
			{
				"x": -2.7410490684,
				"y": -4.5591109922,
				"z": 1.786112156,
				"element": "N" 
			},
			{
				"x": -0.2445230544,
				"y": -1.3878974416,
				"z": 0.101033628,
				"element": "C" 
			},
			{
				"x": -0.3745625748,
				"y": -0.0578899537,
				"z": -0.308290288,
				"element": "C" 
			},
			{
				"x": 1.0706542695,
				"y": 3.7384222681,
				"z": -0.314611923,
				"element": "H" 
			},
			{
				"x": 0.9768451419,
				"y": 3.4998063732,
				"z": -2.0708014969,
				"element": "H" 
			},
			{
				"x": 1.3736430707,
				"y": 2.1373500986,
				"z": -1.0083121949,
				"element": "H" 
			},
			{
				"x": -1.0637630716,
				"y": 2.055333136,
				"z": -1.7732646536,
				"element": "H" 
			},
			{
				"x": -1.3085222837,
				"y": 3.6555220941,
				"z": -1.0700777266,
				"element": "H" 
			},
			{
				"x": -1.6447969582,
				"y": 1.2441979004,
				"z": 2.5573251109,
				"element": "H" 
			},
			{
				"x": -1.4080353675,
				"y": -1.1204546465,
				"z": 3.2747504778,
				"element": "H" 
			},
			{
				"x": 0.2429882799,
				"y": -3.7696969622,
				"z": 1.161351095,
				"element": "H" 
			},
			{
				"x": -0.0514738718,
				"y": -3.3093133478,
				"z": 2.8317228485,
				"element": "H" 
			},
			{
				"x": 0.1516860421,
				"y": -2.1160997388,
				"z": -0.6023308897,
				"element": "H" 
			},
			{
				"x": -0.0736344481,
				"y": 0.2158764358,
				"z": -1.31215461,
				"element": "H" 
			}
		],
		 "valence_orbital": [ 
			{
				"type": "occ",
				"energy": -0.32472,
				"method": "rhf"
			},
			{
				"type": "occ",
				"energy": -0.31754,
				"method": "rhf"
			},
			{
				"type": "occ",
				"energy": -0.31647,
				"method": "rhf"
			},
			{
				"type": "occ",
				"energy": -0.2604,
				"method": "rhf"
			},
			{
				"type": "occ",
				"energy": -0.22496,
				"method": "rhf"
			},
			{
				"type": "unocc",
				"energy": -0.01366,
				"method": "rhf"
			},
			{
				"type": "unocc",
				"energy": -0.00344,
				"method": "rhf"
			},
			{
				"type": "unocc",
				"energy": 0.04371,
				"method": "rhf"
			},
			{
				"type": "unocc",
				"energy": 0.04767,
				"method": "rhf"
			},
			{
				"type": "unocc",
				"energy": 0.08361,
				"method": "rhf"
			}
		],
		"cosmo_sigma_profile": { 
			"-0.025": 0.0,
			"-0.024": 0.0,
			"-0.023": 0.0,
			"-0.022": 0.0,
			"-0.021": 0.0,
			"-0.02": 0.0,
			"-0.019": 0.0,
			"-0.018": 0.0,
			"-0.017": 0.0,
			"-0.016": 0.0,
			"-0.015": 0.0,
			"-0.014": 0.0,
			"-0.013": 0.0,
			"-0.012": 0.0,
			"-0.011": 0.0,
			"-0.01": 0.0,
			"-0.009": 1.11839800882,
			"-0.008": 7.17445867014,
			"-0.007": 8.79347745637,
			"-0.006": 12.9406282685,
			"-0.005": 18.2389476503,
			"-0.004": 18.535060963,
			"-0.003": 19.3141311018,
			"-0.002": 15.3907667715,
			"-0.001": 13.85515877,
			"0.0": 13.8354789655,
			"0.001": 11.5824994254,
			"0.002": 10.2750070532,
			"0.003": 11.1417315864,
			"0.004": 13.9635767446,
			"0.005": 12.471764903,
			"0.006": 4.67165471293,
			"0.007": 4.23443774245,
			"0.008": 4.29643435172,
			"0.009": 5.01073706005,
			"0.01": 4.85313875263,
			"0.011": 3.18806813457,
			"0.012": 2.79701567933,
			"0.013": 2.00471908622,
			"0.014": 0.501326864623,
			"0.015": 0.0,
			"0.016": 0.0,
			"0.017": 0.0,
			"0.018": 0.0,
			"0.019": 0.0,
			"0.02": 0.0,
			"0.021": 0.0,
			"0.022": 0.0,
			"0.023": 0.0,
			"0.024": 0.0,
			"0.025": 0.0
		}
	}
}
