{
	 "smiles": "CCCS(=O)(=O)NC1=CC=C(N)C=C1", 
	 "Tm": 385.15, 
	 "num_atms": 28, 
	 "gaussian": { 
		 "optdone": 1, 
		 "sigma_profile": "yes", 
		 "theory": "DFT", 
		 "functional": "B3LYP", 
		 "basiset": "6-31G**", 
		 "properties": { 
			 "R2extent": 4120.6847, 
			 "electric_dipole_moment_norm": 6.39498816731, 
			 "electric_quadrupole_moment_norm": 17.6049121321, 
			 "total_energy": -1009.47679657, 
			 "HOMO_LUMO_gap": 0.19205, 
			 "cosmo_polarized_energy": -20.28, 
			 "cosmo_cavitation_energy": 31.95, 
			 "cosmo_dispersion_energy": -22.99, 
			 "cosmo_repulsion_energy": 1.79, 
			 "cosmo_total_nonelectrostatic_energy": 10.75, 
			 "SMD_solvation_energy": 4.58 
		},
		"coords": [
			{
				"x": -2.716142114,
				"y": -0.4329504709,
				"z": 1.5430732743,
				"element": "C" 
			},
			{
				"x": -1.184614259,
				"y": -0.3822212229,
				"z": 1.5294225037,
				"element": "C" 
			},
			{
				"x": -0.5809576027,
				"y": 0.8770662562,
				"z": 2.1660951606,
				"element": "C" 
			},
			{
				"x": -0.6714763571,
				"y": 2.4233835391,
				"z": 1.1971078256,
				"element": "S" 
			},
			{
				"x": -2.0107239946,
				"y": 2.5347742795,
				"z": 0.6140952105,
				"element": "O" 
			},
			{
				"x": -0.109497467,
				"y": 3.4727441017,
				"z": 2.0505541033,
				"element": "O" 
			},
			{
				"x": 0.4279439138,
				"y": 2.2957402584,
				"z": -0.0792767069,
				"element": "N" 
			},
			{
				"x": 0.3066551867,
				"y": 1.3977202244,
				"z": -1.1815285886,
				"element": "C" 
			},
			{
				"x": 1.32905542,
				"y": 0.4833735761,
				"z": -1.4631166021,
				"element": "C" 
			},
			{
				"x": 1.2495902437,
				"y": -0.3559408602,
				"z": -2.5710065153,
				"element": "C" 
			},
			{
				"x": 0.1261917502,
				"y": -0.3247001674,
				"z": -3.4140886971,
				"element": "C" 
			},
			{
				"x": 0.059948755,
				"y": -1.1316440451,
				"z": -4.5513022137,
				"element": "N" 
			},
			{
				"x": -0.9008873966,
				"y": 0.5892818705,
				"z": -3.1176195547,
				"element": "C" 
			},
			{
				"x": -0.8066331222,
				"y": 1.4515624598,
				"z": -2.0310649598,
				"element": "C" 
			},
			{
				"x": -3.1442360126,
				"y": 0.3909118232,
				"z": 0.9693020173,
				"element": "H" 
			},
			{
				"x": -3.1006026346,
				"y": -0.3683620904,
				"z": 2.567466632,
				"element": "H" 
			},
			{
				"x": -3.0688283489,
				"y": -1.3763684476,
				"z": 1.1145162552,
				"element": "H" 
			},
			{
				"x": -0.8082513101,
				"y": -0.500168723,
				"z": 0.5085398683,
				"element": "H" 
			},
			{
				"x": -0.7876067172,
				"y": -1.2331454277,
				"z": 2.0979949821,
				"element": "H" 
			},
			{
				"x": -1.0849426571,
				"y": 1.1357212167,
				"z": 3.1037141387,
				"element": "H" 
			},
			{
				"x": 0.48377115,
				"y": 0.7564936679,
				"z": 2.3874887272,
				"element": "H" 
			},
			{
				"x": 1.3687132589,
				"y": 2.4940782845,
				"z": 0.242250978,
				"element": "H" 
			},
			{
				"x": 2.199225807,
				"y": 0.4296821954,
				"z": -0.8130538356,
				"element": "H" 
			},
			{
				"x": 2.0626315049,
				"y": -1.0458445464,
				"z": -2.7825050704,
				"element": "H" 
			},
			{
				"x": -0.872459158,
				"y": -1.3136766694,
				"z": -4.8959734812,
				"element": "H" 
			},
			{
				"x": 0.6198318123,
				"y": -1.9723321265,
				"z": -4.5177541556,
				"element": "H" 
			},
			{
				"x": -1.772704787,
				"y": 0.6409674434,
				"z": -3.7650512355,
				"element": "H" 
			},
			{
				"x": -1.5959948636,
				"y": 2.1641536008,
				"z": -1.8239800604,
				"element": "H" 
			}
		],
		 "valence_orbital": [ 
			{
				"type": "occ",
				"energy": -0.29635,
				"method": "rhf"
			},
			{
				"type": "occ",
				"energy": -0.28823,
				"method": "rhf"
			},
			{
				"type": "occ",
				"energy": -0.27927,
				"method": "rhf"
			},
			{
				"type": "occ",
				"energy": -0.25617,
				"method": "rhf"
			},
			{
				"type": "occ",
				"energy": -0.20028,
				"method": "rhf"
			},
			{
				"type": "unocc",
				"energy": -0.00823,
				"method": "rhf"
			},
			{
				"type": "unocc",
				"energy": 0.00372,
				"method": "rhf"
			},
			{
				"type": "unocc",
				"energy": 0.05942,
				"method": "rhf"
			},
			{
				"type": "unocc",
				"energy": 0.06961,
				"method": "rhf"
			},
			{
				"type": "unocc",
				"energy": 0.0798,
				"method": "rhf"
			}
		],
		"cosmo_sigma_profile": { 
			"-0.025": 0.0,
			"-0.024": 0.0,
			"-0.023": 0.0,
			"-0.022": 0.0,
			"-0.021": 0.0,
			"-0.02": 0.0,
			"-0.019": 0.0,
			"-0.018": 0.0,
			"-0.017": 0.0,
			"-0.016": 0.00570192089384,
			"-0.015": 0.67594792205,
			"-0.014": 0.756025544906,
			"-0.013": 1.67435348755,
			"-0.012": 3.88099819161,
			"-0.011": 4.22440580115,
			"-0.01": 4.96686526896,
			"-0.009": 5.31332643229,
			"-0.008": 5.86180357169,
			"-0.007": 8.44515663456,
			"-0.006": 10.936018773,
			"-0.005": 12.9511798649,
			"-0.004": 16.7851497203,
			"-0.003": 15.9373463457,
			"-0.002": 14.6622173961,
			"-0.001": 17.0849687832,
			"0.0": 15.0511261045,
			"0.001": 16.9972399296,
			"0.002": 11.0092896085,
			"0.003": 9.37241441139,
			"0.004": 12.5030337818,
			"0.005": 13.7319113219,
			"0.006": 11.2968181152,
			"0.007": 5.56759536144,
			"0.008": 4.25908344449,
			"0.009": 4.62775838374,
			"0.01": 5.0576764885,
			"0.011": 8.46333978775,
			"0.012": 7.57851702121,
			"0.013": 1.18010895807,
			"0.014": 0.538106575547,
			"0.015": 0.202323650412,
			"0.016": 0.0,
			"0.017": 0.0,
			"0.018": 0.0,
			"0.019": 0.0,
			"0.02": 0.0,
			"0.021": 0.0,
			"0.022": 0.0,
			"0.023": 0.0,
			"0.024": 0.0,
			"0.025": 0.0
		}
	}
}
