{
	 "smiles": "CC(C)OC(C)C", 
	 "Tm": 186.75, 
	 "num_atms": 21, 
	 "gaussian": { 
		 "optdone": 1, 
		 "sigma_profile": "yes", 
		 "theory": "DFT", 
		 "functional": "B3LYP", 
		 "basiset": "6-31G**", 
		 "properties": { 
			 "R2extent": 1409.6521, 
			 "electric_dipole_moment_norm": 1.16722513681, 
			 "electric_quadrupole_moment_norm": 1.96710436429, 
			 "total_energy": -312.304020809, 
			 "HOMO_LUMO_gap": 0.32129, 
			 "cosmo_polarized_energy": -3.66, 
			 "cosmo_cavitation_energy": 21.99, 
			 "cosmo_dispersion_energy": -15.85, 
			 "cosmo_repulsion_energy": 1.35, 
			 "cosmo_total_nonelectrostatic_energy": 7.49, 
			 "SMD_solvation_energy": 4.04 
		},
		"coords": [
			{
				"x": 1.0869030083,
				"y": 2.324833724,
				"z": 0.1460434682,
				"element": "C" 
			},
			{
				"x": -0.1804390255,
				"y": 1.6515669748,
				"z": 0.6897853728,
				"element": "C" 
			},
			{
				"x": -0.6409307507,
				"y": 2.2632435218,
				"z": 2.0158377398,
				"element": "C" 
			},
			{
				"x": -0.0747190506,
				"y": 0.2218080433,
				"z": 0.7007352998,
				"element": "O" 
			},
			{
				"x": 0.4415788928,
				"y": -0.4780451359,
				"z": 1.8343059499,
				"element": "C" 
			},
			{
				"x": 1.9692606473,
				"y": -0.4004089612,
				"z": 1.9475443253,
				"element": "C" 
			},
			{
				"x": -0.0326109129,
				"y": -1.9208114996,
				"z": 1.6613535533,
				"element": "C" 
			},
			{
				"x": 1.908097874,
				"y": 2.3083318417,
				"z": 0.8686663009,
				"element": "H" 
			},
			{
				"x": 1.4189235572,
				"y": 1.8164570892,
				"z": -0.7634198824,
				"element": "H" 
			},
			{
				"x": 0.8818411573,
				"y": 3.372657147,
				"z": -0.1011571264,
				"element": "H" 
			},
			{
				"x": -0.9776244341,
				"y": 1.8257302841,
				"z": -0.0450715008,
				"element": "H" 
			},
			{
				"x": -1.5409916461,
				"y": 1.7644943211,
				"z": 2.388475514,
				"element": "H" 
			},
			{
				"x": -0.8792171626,
				"y": 3.3210834123,
				"z": 1.8648892349,
				"element": "H" 
			},
			{
				"x": 0.1318371451,
				"y": 2.2102104776,
				"z": 2.7900534845,
				"element": "H" 
			},
			{
				"x": -0.001955583,
				"y": -0.0768931895,
				"z": 2.7571841158,
				"element": "H" 
			},
			{
				"x": 2.4332047299,
				"y": -0.7150491584,
				"z": 1.0069828909,
				"element": "H" 
			},
			{
				"x": 2.3255221903,
				"y": -1.0606480713,
				"z": 2.7461085006,
				"element": "H" 
			},
			{
				"x": 2.3136561452,
				"y": 0.6111266025,
				"z": 2.1778118597,
				"element": "H" 
			},
			{
				"x": 0.3840027644,
				"y": -2.3484971035,
				"z": 0.7435213881,
				"element": "H" 
			},
			{
				"x": 0.2834693593,
				"y": -2.539352407,
				"z": 2.5074131224,
				"element": "H" 
			},
			{
				"x": -1.1229089056,
				"y": -1.9560379129,
				"z": 1.5880363888,
				"element": "H" 
			}
		],
		 "valence_orbital": [ 
			{
				"type": "occ",
				"energy": -0.35387,
				"method": "rhf"
			},
			{
				"type": "occ",
				"energy": -0.33656,
				"method": "rhf"
			},
			{
				"type": "occ",
				"energy": -0.32468,
				"method": "rhf"
			},
			{
				"type": "occ",
				"energy": -0.28523,
				"method": "rhf"
			},
			{
				"type": "occ",
				"energy": -0.24069,
				"method": "rhf"
			},
			{
				"type": "unocc",
				"energy": 0.0806,
				"method": "rhf"
			},
			{
				"type": "unocc",
				"energy": 0.11232,
				"method": "rhf"
			},
			{
				"type": "unocc",
				"energy": 0.12007,
				"method": "rhf"
			},
			{
				"type": "unocc",
				"energy": 0.13131,
				"method": "rhf"
			},
			{
				"type": "unocc",
				"energy": 0.13635,
				"method": "rhf"
			}
		],
		"cosmo_sigma_profile": { 
			"-0.025": 0.0,
			"-0.024": 0.0,
			"-0.023": 0.0,
			"-0.022": 0.0,
			"-0.021": 0.0,
			"-0.02": 0.0,
			"-0.019": 0.0,
			"-0.018": 0.0,
			"-0.017": 0.0,
			"-0.016": 0.0,
			"-0.015": 0.0,
			"-0.014": 0.0,
			"-0.013": 0.0,
			"-0.012": 0.0,
			"-0.011": 0.0,
			"-0.01": 0.0,
			"-0.009": 0.0,
			"-0.008": 0.0,
			"-0.007": 0.0,
			"-0.006": 0.0,
			"-0.005": 0.0823035574994,
			"-0.004": 5.01100629509,
			"-0.003": 26.590232132,
			"-0.002": 28.2288988509,
			"-0.001": 27.0064306296,
			"0.0": 26.1395212601,
			"0.001": 27.8652193906,
			"0.002": 10.542642207,
			"0.003": 3.11081312742,
			"0.004": 1.56797224893,
			"0.005": 1.68872133644,
			"0.006": 1.57078165907,
			"0.007": 0.931012365646,
			"0.008": 1.40263221082,
			"0.009": 2.04631796003,
			"0.01": 0.932419465992,
			"0.011": 1.01024285983,
			"0.012": 0.831645834322,
			"0.013": 1.31571551045,
			"0.014": 1.23183592889,
			"0.015": 0.0717179063833,
			"0.016": 0.0,
			"0.017": 0.0,
			"0.018": 0.0,
			"0.019": 0.0,
			"0.02": 0.0,
			"0.021": 0.0,
			"0.022": 0.0,
			"0.023": 0.0,
			"0.024": 0.0,
			"0.025": 0.0
		}
	}
}
