{
	 "smiles": "CC1=C(C)N=C(CO)O1", 
	 "Tm": 333.15, 
	 "num_atms": 18, 
	 "gaussian": { 
		 "optdone": 1, 
		 "sigma_profile": "yes", 
		 "theory": "DFT", 
		 "functional": "B3LYP", 
		 "basiset": "6-31G**", 
		 "properties": { 
			 "R2extent": 1888.4613, 
			 "electric_dipole_moment_norm": 1.56095251369, 
			 "electric_quadrupole_moment_norm": 14.0195179557, 
			 "total_energy": -439.24447286, 
			 "HOMO_LUMO_gap": 0.2221, 
			 "cosmo_polarized_energy": -11.13, 
			 "cosmo_cavitation_energy": 22.07, 
			 "cosmo_dispersion_energy": -16.31, 
			 "cosmo_repulsion_energy": 1.39, 
			 "cosmo_total_nonelectrostatic_energy": 7.15, 
			 "SMD_solvation_energy": 2.93 
		},
		"coords": [
			{
				"x": -0.1563909925,
				"y": -0.5022512154,
				"z": 2.5634171922,
				"element": "C" 
			},
			{
				"x": -0.4039915285,
				"y": -0.9735270384,
				"z": 1.1758637798,
				"element": "C" 
			},
			{
				"x": -1.5045425718,
				"y": -1.3794163788,
				"z": 0.479712717,
				"element": "C" 
			},
			{
				"x": -2.9340080084,
				"y": -1.4829186565,
				"z": 0.9194213144,
				"element": "C" 
			},
			{
				"x": -1.113749233,
				"y": -1.7263908396,
				"z": -0.8130917521,
				"element": "N" 
			},
			{
				"x": 0.1669673464,
				"y": -1.5193775153,
				"z": -0.8439700317,
				"element": "C" 
			},
			{
				"x": 1.1003315123,
				"y": -1.7107739199,
				"z": -1.9899946896,
				"element": "C" 
			},
			{
				"x": 2.0523169168,
				"y": -2.7140114401,
				"z": -1.6521137775,
				"element": "O" 
			},
			{
				"x": 0.6767439141,
				"y": -1.0552070697,
				"z": 0.3279007387,
				"element": "O" 
			},
			{
				"x": -1.095354834,
				"y": -0.4844861519,
				"z": 3.1218654008,
				"element": "H" 
			},
			{
				"x": 0.5428903209,
				"y": -1.1600872524,
				"z": 3.0924031796,
				"element": "H" 
			},
			{
				"x": 0.2679383907,
				"y": 0.5084698529,
				"z": 2.5772219065,
				"element": "H" 
			},
			{
				"x": -3.5371904171,
				"y": -1.8531796811,
				"z": 0.0880328426,
				"element": "H" 
			},
			{
				"x": -3.0563205771,
				"y": -2.1748475075,
				"z": 1.7602485674,
				"element": "H" 
			},
			{
				"x": -3.3416030847,
				"y": -0.5136851547,
				"z": 1.228248168,
				"element": "H" 
			},
			{
				"x": 1.5975132383,
				"y": -0.753832111,
				"z": -2.2156468758,
				"element": "H" 
			},
			{
				"x": 0.4842118942,
				"y": -1.9887993095,
				"z": -2.8552270746,
				"element": "H" 
			},
			{
				"x": 2.7077377133,
				"y": -2.7439786111,
				"z": -2.3603916056,
				"element": "H" 
			}
		],
		 "valence_orbital": [ 
			{
				"type": "occ",
				"energy": -0.34362,
				"method": "rhf"
			},
			{
				"type": "occ",
				"energy": -0.30057,
				"method": "rhf"
			},
			{
				"type": "occ",
				"energy": -0.27779,
				"method": "rhf"
			},
			{
				"type": "occ",
				"energy": -0.27222,
				"method": "rhf"
			},
			{
				"type": "occ",
				"energy": -0.22016,
				"method": "rhf"
			},
			{
				"type": "unocc",
				"energy": 0.00194,
				"method": "rhf"
			},
			{
				"type": "unocc",
				"energy": 0.0584,
				"method": "rhf"
			},
			{
				"type": "unocc",
				"energy": 0.0945,
				"method": "rhf"
			},
			{
				"type": "unocc",
				"energy": 0.09973,
				"method": "rhf"
			},
			{
				"type": "unocc",
				"energy": 0.13203,
				"method": "rhf"
			}
		],
		"cosmo_sigma_profile": { 
			"-0.025": 0.0,
			"-0.024": 0.0,
			"-0.023": 0.0,
			"-0.022": 0.0,
			"-0.021": 0.0,
			"-0.02": 0.0,
			"-0.019": 0.0,
			"-0.018": 0.0,
			"-0.017": 0.109152794135,
			"-0.016": 1.14086508093,
			"-0.015": 0.934730466394,
			"-0.014": 1.10196442234,
			"-0.013": 1.30848375396,
			"-0.012": 0.431196119229,
			"-0.011": 1.06593019359,
			"-0.01": 0.600753541791,
			"-0.009": 0.823704897723,
			"-0.008": 0.956480231189,
			"-0.007": 2.04931630303,
			"-0.006": 4.8662676249,
			"-0.005": 13.4274155697,
			"-0.004": 16.8380730458,
			"-0.003": 18.5074995434,
			"-0.002": 15.0457484042,
			"-0.001": 16.8276105473,
			"0.0": 14.0773141605,
			"0.001": 10.0112220593,
			"0.002": 6.69062170054,
			"0.003": 6.94060639562,
			"0.004": 5.2654022869,
			"0.005": 4.84403382437,
			"0.006": 4.04342230879,
			"0.007": 3.87939864351,
			"0.008": 3.93938954878,
			"0.009": 3.25024319092,
			"0.01": 3.02086573979,
			"0.011": 2.49133868218,
			"0.012": 2.98144822978,
			"0.013": 2.95008825076,
			"0.014": 1.6003357884,
			"0.015": 0.755802382922,
			"0.016": 0.713830262993,
			"0.017": 0.247080473309,
			"0.018": 0.0,
			"0.019": 0.0,
			"0.02": 0.0,
			"0.021": 0.0,
			"0.022": 0.0,
			"0.023": 0.0,
			"0.024": 0.0,
			"0.025": 0.0
		}
	}
}
