{
	 "smiles": "COCC1=CC(=O)OC2=C1C=CC(N)=C2", 
	 "Tm": 456.65, 
	 "num_atms": 26, 
	 "gaussian": { 
		 "optdone": 1, 
		 "sigma_profile": "yes", 
		 "theory": "DFT", 
		 "functional": "B3LYP", 
		 "basiset": "6-31G**", 
		 "properties": { 
			 "R2extent": 3699.4597, 
			 "electric_dipole_moment_norm": 6.18601395569, 
			 "electric_quadrupole_moment_norm": 30.6982121387, 
			 "total_energy": -706.215632776, 
			 "HOMO_LUMO_gap": 0.1535, 
			 "cosmo_polarized_energy": -18.02, 
			 "cosmo_cavitation_energy": 30.16, 
			 "cosmo_dispersion_energy": -22.18, 
			 "cosmo_repulsion_energy": 1.74, 
			 "cosmo_total_nonelectrostatic_energy": 9.71, 
			 "SMD_solvation_energy": 6.75 
		},
		"coords": [
			{
				"x": -2.6732051585,
				"y": 3.4210991505,
				"z": -0.2826849099,
				"element": "C" 
			},
			{
				"x": -1.8327489125,
				"y": 2.4356309448,
				"z": 0.2854867641,
				"element": "O" 
			},
			{
				"x": -0.4971363443,
				"y": 2.5353039595,
				"z": -0.1796857276,
				"element": "C" 
			},
			{
				"x": 0.3708342698,
				"y": 1.4955139455,
				"z": 0.4890221633,
				"element": "C" 
			},
			{
				"x": 1.4882685232,
				"y": 1.8849642315,
				"z": 1.1579350592,
				"element": "C" 
			},
			{
				"x": 2.411904496,
				"y": 0.9420842678,
				"z": 1.7667069395,
				"element": "C" 
			},
			{
				"x": 3.4187235603,
				"y": 1.2162065805,
				"z": 2.3788757141,
				"element": "O" 
			},
			{
				"x": 2.0918392955,
				"y": -0.4092023412,
				"z": 1.6160963013,
				"element": "O" 
			},
			{
				"x": 0.976447029,
				"y": -0.8292496061,
				"z": 0.9518260114,
				"element": "C" 
			},
			{
				"x": 0.0696285264,
				"y": 0.0855732037,
				"z": 0.37315299,
				"element": "C" 
			},
			{
				"x": -1.0557165165,
				"y": -0.4550323926,
				"z": -0.2843986884,
				"element": "C" 
			},
			{
				"x": -1.2568115569,
				"y": -1.8194931657,
				"z": -0.3685279807,
				"element": "C" 
			},
			{
				"x": -0.3331871564,
				"y": -2.7200737024,
				"z": 0.2129270737,
				"element": "C" 
			},
			{
				"x": -0.513274737,
				"y": -4.0867217051,
				"z": 0.0832205141,
				"element": "N" 
			},
			{
				"x": 0.7872668915,
				"y": -2.2057772633,
				"z": 0.878253372,
				"element": "C" 
			},
			{
				"x": -2.7207611278,
				"y": 3.3364929903,
				"z": -1.3799153389,
				"element": "H" 
			},
			{
				"x": -2.33512089,
				"y": 4.437927409,
				"z": -0.0300812569,
				"element": "H" 
			},
			{
				"x": -3.6730930996,
				"y": 3.2679784221,
				"z": 0.1291845914,
				"element": "H" 
			},
			{
				"x": -0.464507852,
				"y": 2.3885955915,
				"z": -1.274384108,
				"element": "H" 
			},
			{
				"x": -0.0904452705,
				"y": 3.5373166573,
				"z": 0.0256034717,
				"element": "H" 
			},
			{
				"x": 1.7543943965,
				"y": 2.9295380719,
				"z": 1.2713570303,
				"element": "H" 
			},
			{
				"x": -1.7894491015,
				"y": 0.2230692877,
				"z": -0.7032620445,
				"element": "H" 
			},
			{
				"x": -2.1311245269,
				"y": -2.2099399194,
				"z": -0.8819597707,
				"element": "H" 
			},
			{
				"x": -0.0181273163,
				"y": -4.6736501551,
				"z": 0.7385326404,
				"element": "H" 
			},
			{
				"x": -1.4528953665,
				"y": -4.4020969844,
				"z": -0.1078263599,
				"element": "H" 
			},
			{
				"x": 1.5216979451,
				"y": -2.8590574784,
				"z": 1.3380455489,
				"element": "H" 
			}
		],
		 "valence_orbital": [ 
			{
				"type": "occ",
				"energy": -0.27636,
				"method": "rhf"
			},
			{
				"type": "occ",
				"energy": -0.26929,
				"method": "rhf"
			},
			{
				"type": "occ",
				"energy": -0.26084,
				"method": "rhf"
			},
			{
				"type": "occ",
				"energy": -0.24015,
				"method": "rhf"
			},
			{
				"type": "occ",
				"energy": -0.20664,
				"method": "rhf"
			},
			{
				"type": "unocc",
				"energy": -0.05314,
				"method": "rhf"
			},
			{
				"type": "unocc",
				"energy": -0.00227,
				"method": "rhf"
			},
			{
				"type": "unocc",
				"energy": 0.01564,
				"method": "rhf"
			},
			{
				"type": "unocc",
				"energy": 0.06966,
				"method": "rhf"
			},
			{
				"type": "unocc",
				"energy": 0.07642,
				"method": "rhf"
			}
		],
		"cosmo_sigma_profile": { 
			"-0.025": 0.0,
			"-0.024": 0.0,
			"-0.023": 0.0,
			"-0.022": 0.0,
			"-0.021": 0.0,
			"-0.02": 0.0,
			"-0.019": 0.0,
			"-0.018": 0.0,
			"-0.017": 0.0,
			"-0.016": 0.0,
			"-0.015": 0.0,
			"-0.014": 0.168393613356,
			"-0.013": 2.51263971817,
			"-0.012": 3.11452036664,
			"-0.011": 3.02041805468,
			"-0.01": 3.82643512448,
			"-0.009": 2.49926766464,
			"-0.008": 3.45138714728,
			"-0.007": 6.75622455589,
			"-0.006": 7.35924156101,
			"-0.005": 15.3143767698,
			"-0.004": 23.9443946304,
			"-0.003": 21.1102556394,
			"-0.002": 18.4784449706,
			"-0.001": 12.525221794,
			"0.0": 12.8783125105,
			"0.001": 12.7853609952,
			"0.002": 14.1481921082,
			"0.003": 15.021435287,
			"0.004": 13.6672362158,
			"0.005": 6.34558470161,
			"0.006": 5.52469099436,
			"0.007": 5.49355940386,
			"0.008": 3.35715674199,
			"0.009": 4.21220851466,
			"0.01": 4.339384061,
			"0.011": 5.05544037844,
			"0.012": 6.91276561861,
			"0.013": 4.91878807534,
			"0.014": 0.875707641098,
			"0.015": 0.0,
			"0.016": 0.0,
			"0.017": 0.0,
			"0.018": 0.0,
			"0.019": 0.0,
			"0.02": 0.0,
			"0.021": 0.0,
			"0.022": 0.0,
			"0.023": 0.0,
			"0.024": 0.0,
			"0.025": 0.0
		}
	}
}
