{
	 "smiles": "OC(=O)CC1=CSC(=N1)C1=CC(=CC=C1)C(F)(F)F", 
	 "Tm": 383.15, 
	 "num_atms": 27, 
	 "gaussian": { 
		 "optdone": 1, 
		 "sigma_profile": "yes", 
		 "theory": "DFT", 
		 "functional": "B3LYP", 
		 "basiset": "6-31G**", 
		 "properties": { 
			 "R2extent": 7994.5716, 
			 "electric_dipole_moment_norm": 4.23301236119, 
			 "electric_quadrupole_moment_norm": 33.5454658362, 
			 "total_energy": -1365.02934451, 
			 "HOMO_LUMO_gap": 0.16219, 
			 "cosmo_polarized_energy": -14.42, 
			 "cosmo_cavitation_energy": 35.36, 
			 "cosmo_dispersion_energy": -25.41, 
			 "cosmo_repulsion_energy": 1.84, 
			 "cosmo_total_nonelectrostatic_energy": 11.79, 
			 "SMD_solvation_energy": 7.64 
		},
		"coords": [
			{
				"x": -2.4240926854,
				"y": -0.8989616323,
				"z": -2.7963326793,
				"element": "O" 
			},
			{
				"x": -3.619273349,
				"y": -1.4256569523,
				"z": -2.4841072474,
				"element": "C" 
			},
			{
				"x": -4.5354920193,
				"y": -1.4478527209,
				"z": -3.269600932,
				"element": "O" 
			},
			{
				"x": -3.7334236211,
				"y": -2.0743881423,
				"z": -1.0907390704,
				"element": "C" 
			},
			{
				"x": -2.9934515736,
				"y": -1.3852123755,
				"z": 0.0225208439,
				"element": "C" 
			},
			{
				"x": -3.4875310395,
				"y": -1.0603572294,
				"z": 1.2550778359,
				"element": "C" 
			},
			{
				"x": -2.261201409,
				"y": -0.3060217686,
				"z": 2.2164309793,
				"element": "S" 
			},
			{
				"x": -1.1403351942,
				"y": -0.4548316128,
				"z": 0.8719403846,
				"element": "C" 
			},
			{
				"x": -1.6732485382,
				"y": -1.0387731442,
				"z": -0.1749752316,
				"element": "N" 
			},
			{
				"x": 0.2496617932,
				"y": 0.0144739168,
				"z": 0.9365718342,
				"element": "C" 
			},
			{
				"x": 0.6949588927,
				"y": 0.84673782,
				"z": 1.9743324994,
				"element": "C" 
			},
			{
				"x": 2.0188909643,
				"y": 1.2786666039,
				"z": 2.0089522451,
				"element": "C" 
			},
			{
				"x": 2.9166668548,
				"y": 0.8942481122,
				"z": 1.0088767184,
				"element": "C" 
			},
			{
				"x": 2.477660412,
				"y": 0.0692518348,
				"z": -0.026408689,
				"element": "C" 
			},
			{
				"x": 1.1577767649,
				"y": -0.3714188988,
				"z": -0.0647665128,
				"element": "C" 
			},
			{
				"x": 2.5024823768,
				"y": 2.1266142846,
				"z": 3.1568191504,
				"element": "C" 
			},
			{
				"x": 1.4933619686,
				"y": 2.8088090465,
				"z": 3.7402878442,
				"element": "F" 
			},
			{
				"x": 3.4273455754,
				"y": 3.0251941447,
				"z": 2.7563126235,
				"element": "F" 
			},
			{
				"x": 3.0788323541,
				"y": 1.3710223272,
				"z": 4.1191132003,
				"element": "F" 
			},
			{
				"x": -1.8344699825,
				"y": -0.9229086447,
				"z": -2.0083492979,
				"element": "H" 
			},
			{
				"x": -3.342881885,
				"y": -3.0964225333,
				"z": -1.2004460352,
				"element": "H" 
			},
			{
				"x": -4.7960003598,
				"y": -2.1610230064,
				"z": -0.8621999618,
				"element": "H" 
			},
			{
				"x": -4.4826781962,
				"y": -1.220961668,
				"z": 1.6439676156,
				"element": "H" 
			},
			{
				"x": 0.0116921866,
				"y": 1.1801131753,
				"z": 2.7482755243,
				"element": "H" 
			},
			{
				"x": 3.9422907473,
				"y": 1.2456582439,
				"z": 1.0388926469,
				"element": "H" 
			},
			{
				"x": 3.1683797314,
				"y": -0.2321557751,
				"z": -0.8075078572,
				"element": "H" 
			},
			{
				"x": 0.8165792308,
				"y": -1.0195434052,
				"z": -0.8639384314,
				"element": "H" 
			}
		],
		 "valence_orbital": [ 
			{
				"type": "occ",
				"energy": -0.30882,
				"method": "rhf"
			},
			{
				"type": "occ",
				"energy": -0.29931,
				"method": "rhf"
			},
			{
				"type": "occ",
				"energy": -0.28745,
				"method": "rhf"
			},
			{
				"type": "occ",
				"energy": -0.26561,
				"method": "rhf"
			},
			{
				"type": "occ",
				"energy": -0.24563,
				"method": "rhf"
			},
			{
				"type": "unocc",
				"energy": -0.08344,
				"method": "rhf"
			},
			{
				"type": "unocc",
				"energy": -0.04423,
				"method": "rhf"
			},
			{
				"type": "unocc",
				"energy": -0.01066,
				"method": "rhf"
			},
			{
				"type": "unocc",
				"energy": -0.0042,
				"method": "rhf"
			},
			{
				"type": "unocc",
				"energy": 0.01625,
				"method": "rhf"
			}
		],
		"cosmo_sigma_profile": { 
			"-0.025": 0.0,
			"-0.024": 0.0,
			"-0.023": 0.0,
			"-0.022": 0.0,
			"-0.021": 0.0,
			"-0.02": 0.0,
			"-0.019": 0.0,
			"-0.018": 0.0,
			"-0.017": 0.0,
			"-0.016": 0.0,
			"-0.015": 0.0,
			"-0.014": 0.0,
			"-0.013": 0.0,
			"-0.012": 0.0,
			"-0.011": 0.0197696735216,
			"-0.01": 1.34334956919,
			"-0.009": 2.41436257503,
			"-0.008": 7.07316807592,
			"-0.007": 14.150109408,
			"-0.006": 15.0348014494,
			"-0.005": 15.2561113413,
			"-0.004": 15.637004456,
			"-0.003": 16.4678855974,
			"-0.002": 16.6140396614,
			"-0.001": 23.0778199452,
			"0.0": 26.4850809802,
			"0.001": 31.245987124,
			"0.002": 37.4380258565,
			"0.003": 29.6382543336,
			"0.004": 2.82064207217,
			"0.005": 2.96221264132,
			"0.006": 1.87702491906,
			"0.007": 2.45732761787,
			"0.008": 2.29170426069,
			"0.009": 2.79293962289,
			"0.01": 4.15034519417,
			"0.011": 5.96505556999,
			"0.012": 5.91527574715,
			"0.013": 3.42176638349,
			"0.014": 0.350227709462,
			"0.015": 0.0,
			"0.016": 0.0,
			"0.017": 0.0,
			"0.018": 0.0,
			"0.019": 0.0,
			"0.02": 0.0,
			"0.021": 0.0,
			"0.022": 0.0,
			"0.023": 0.0,
			"0.024": 0.0,
			"0.025": 0.0
		}
	}
}
