{
	 "smiles": "CC1=C(O)C=CC(=C1)C(=O)CBr", 
	 "Tm": 393.15, 
	 "num_atms": 21, 
	 "gaussian": { 
		 "optdone": 1, 
		 "sigma_profile": "yes", 
		 "theory": "DFT", 
		 "functional": "B3LYP", 
		 "basiset": "6-31G**", 
		 "properties": { 
			 "R2extent": 5138.2166, 
			 "electric_dipole_moment_norm": 4.56674942054, 
			 "electric_quadrupole_moment_norm": 10.6081360526, 
			 "total_energy": -3070.23756609, 
			 "HOMO_LUMO_gap": 0.16906, 
			 "cosmo_polarized_energy": -13.19, 
			 "cosmo_cavitation_energy": 27.22, 
			 "cosmo_dispersion_energy": -20.06, 
			 "cosmo_repulsion_energy": 1.6, 
			 "cosmo_total_nonelectrostatic_energy": 8.76, 
			 "SMD_solvation_energy": 4.37 
		},
		"coords": [
			{
				"x": 1.7105324895,
				"y": -2.5771444842,
				"z": 0.4983477053,
				"element": "C" 
			},
			{
				"x": 0.9218219946,
				"y": -1.3514229065,
				"z": 0.1018205854,
				"element": "C" 
			},
			{
				"x": -0.466109427,
				"y": -1.2891741989,
				"z": 0.3412242937,
				"element": "C" 
			},
			{
				"x": -1.1453795647,
				"y": -2.307304259,
				"z": 0.9352889235,
				"element": "O" 
			},
			{
				"x": -1.2126055127,
				"y": -0.1624460419,
				"z": -0.0291715304,
				"element": "C" 
			},
			{
				"x": -0.5839158492,
				"y": 0.9104012808,
				"z": -0.6380156109,
				"element": "C" 
			},
			{
				"x": 0.7997739198,
				"y": 0.8829046914,
				"z": -0.8880468949,
				"element": "C" 
			},
			{
				"x": 1.5289912235,
				"y": -0.2564726005,
				"z": -0.5115781131,
				"element": "C" 
			},
			{
				"x": 1.4164464601,
				"y": 2.0755893682,
				"z": -1.5191372403,
				"element": "C" 
			},
			{
				"x": 0.7581279873,
				"y": 3.0565106004,
				"z": -1.8357382478,
				"element": "O" 
			},
			{
				"x": 2.9279200009,
				"y": 2.1275227617,
				"z": -1.7413833052,
				"element": "C" 
			},
			{
				"x": 3.4858311767,
				"y": 0.9685340197,
				"z": -3.2498589846,
				"element": "Br" 
			},
			{
				"x": 2.7647787277,
				"y": -2.4621829432,
				"z": 0.2369725214,
				"element": "H" 
			},
			{
				"x": 1.351447659,
				"y": -3.4814983393,
				"z": -0.0116836333,
				"element": "H" 
			},
			{
				"x": 1.6658904006,
				"y": -2.765690799,
				"z": 1.579835501,
				"element": "H" 
			},
			{
				"x": -0.5390660225,
				"y": -3.0302812458,
				"z": 1.1414137553,
				"element": "H" 
			},
			{
				"x": -2.2785212879,
				"y": -0.1577825764,
				"z": 0.1727230316,
				"element": "H" 
			},
			{
				"x": -1.1429235897,
				"y": 1.7924300753,
				"z": -0.9308838377,
				"element": "H" 
			},
			{
				"x": 2.5931264188,
				"y": -0.3141096254,
				"z": -0.7171400559,
				"element": "H" 
			},
			{
				"x": 3.5037032939,
				"y": 1.7935165035,
				"z": -0.878544762,
				"element": "H" 
			},
			{
				"x": 3.2003295011,
				"y": 3.140400719,
				"z": -2.0262441013,
				"element": "H" 
			}
		],
		 "valence_orbital": [ 
			{
				"type": "occ",
				"energy": -0.28997,
				"method": "rhf"
			},
			{
				"type": "occ",
				"energy": -0.28123,
				"method": "rhf"
			},
			{
				"type": "occ",
				"energy": -0.26031,
				"method": "rhf"
			},
			{
				"type": "occ",
				"energy": -0.2525,
				"method": "rhf"
			},
			{
				"type": "occ",
				"energy": -0.23447,
				"method": "rhf"
			},
			{
				"type": "unocc",
				"energy": -0.06541,
				"method": "rhf"
			},
			{
				"type": "unocc",
				"energy": -0.0121,
				"method": "rhf"
			},
			{
				"type": "unocc",
				"energy": -0.00575,
				"method": "rhf"
			},
			{
				"type": "unocc",
				"energy": 0.05178,
				"method": "rhf"
			},
			{
				"type": "unocc",
				"energy": 0.05325,
				"method": "rhf"
			}
		],
		"cosmo_sigma_profile": { 
			"-0.025": 0.0,
			"-0.024": 0.0,
			"-0.023": 0.0,
			"-0.022": 0.0,
			"-0.021": 0.0,
			"-0.02": 0.0,
			"-0.019": 0.0,
			"-0.018": 0.0,
			"-0.017": 0.252499245582,
			"-0.016": 0.897572937013,
			"-0.015": 0.566415949082,
			"-0.014": 1.14078906506,
			"-0.013": 1.00849996021,
			"-0.012": 1.21982708485,
			"-0.011": 1.21075036318,
			"-0.01": 1.40800269135,
			"-0.009": 3.00722478631,
			"-0.008": 5.52910639647,
			"-0.007": 7.22699384989,
			"-0.006": 11.2135191204,
			"-0.005": 13.4266161242,
			"-0.004": 12.2255409011,
			"-0.003": 12.7143732081,
			"-0.002": 11.473408243,
			"-0.001": 15.1764999114,
			"0.0": 11.7868237429,
			"0.001": 14.7331274024,
			"0.002": 17.1486105482,
			"0.003": 19.8766782652,
			"0.004": 18.9356419715,
			"0.005": 11.4435469153,
			"0.006": 5.27814265811,
			"0.007": 3.17385921316,
			"0.008": 2.15732079566,
			"0.009": 4.03363231524,
			"0.01": 3.77955912032,
			"0.011": 4.35815207038,
			"0.012": 3.02296815055,
			"0.013": 0.34158058299,
			"0.014": 0.0,
			"0.015": 0.0,
			"0.016": 0.0,
			"0.017": 0.0,
			"0.018": 0.0,
			"0.019": 0.0,
			"0.02": 0.0,
			"0.021": 0.0,
			"0.022": 0.0,
			"0.023": 0.0,
			"0.024": 0.0,
			"0.025": 0.0
		}
	}
}
