{
	 "smiles": "CCNC1=C2C=CC=CC2=C(C)N=N1", 
	 "Tm": 409.15, 
	 "num_atms": 27, 
	 "gaussian": { 
		 "optdone": 1, 
		 "sigma_profile": "yes", 
		 "theory": "DFT", 
		 "functional": "B3LYP", 
		 "basiset": "6-31G**", 
		 "properties": { 
			 "R2extent": 3688.4386, 
			 "electric_dipole_moment_norm": 3.67144674481, 
			 "electric_quadrupole_moment_norm": 10.9795383569, 
			 "total_energy": -591.239587176, 
			 "HOMO_LUMO_gap": 0.16777, 
			 "cosmo_polarized_energy": -12.19, 
			 "cosmo_cavitation_energy": 29.42, 
			 "cosmo_dispersion_energy": -21.48, 
			 "cosmo_repulsion_energy": 1.68, 
			 "cosmo_total_nonelectrostatic_energy": 9.62, 
			 "SMD_solvation_energy": 2.04 
		},
		"coords": [
			{
				"x": -2.3537748913,
				"y": -2.8511633296,
				"z": -2.261710525,
				"element": "C" 
			},
			{
				"x": -2.0075822169,
				"y": -3.5653476415,
				"z": -0.958455087,
				"element": "C" 
			},
			{
				"x": -2.44850924,
				"y": -2.8584006295,
				"z": 0.2740935083,
				"element": "N" 
			},
			{
				"x": -1.6381397635,
				"y": -1.7629902529,
				"z": 0.677977066,
				"element": "C" 
			},
			{
				"x": -1.9404431185,
				"y": -0.4272153578,
				"z": 0.2522616903,
				"element": "C" 
			},
			{
				"x": -3.0810305983,
				"y": -0.080787945,
				"z": -0.5100664109,
				"element": "C" 
			},
			{
				"x": -3.2938395242,
				"y": 1.2332788052,
				"z": -0.8739191734,
				"element": "C" 
			},
			{
				"x": -2.3820946447,
				"y": 2.2398460525,
				"z": -0.4840307433,
				"element": "C" 
			},
			{
				"x": -1.2830365102,
				"y": 1.9277261109,
				"z": 0.2908370242,
				"element": "C" 
			},
			{
				"x": -1.0483832982,
				"y": 0.5882652847,
				"z": 0.6880015976,
				"element": "C" 
			},
			{
				"x": 0.0241845695,
				"y": 0.1861892242,
				"z": 1.5540713326,
				"element": "C" 
			},
			{
				"x": 1.0314550981,
				"y": 1.175462929,
				"z": 2.0800683352,
				"element": "C" 
			},
			{
				"x": 0.1749112788,
				"y": -1.0588636209,
				"z": 1.9592832335,
				"element": "N" 
			},
			{
				"x": -0.6498177779,
				"y": -2.0400847396,
				"z": 1.5034948312,
				"element": "N" 
			},
			{
				"x": -2.0273504355,
				"y": -3.4620629455,
				"z": -3.1099816768,
				"element": "H" 
			},
			{
				"x": -3.4330971091,
				"y": -2.6943094534,
				"z": -2.3511256986,
				"element": "H" 
			},
			{
				"x": -1.8573763027,
				"y": -1.8803167858,
				"z": -2.3434590348,
				"element": "H" 
			},
			{
				"x": -2.5131555139,
				"y": -4.5367508163,
				"z": -0.9416360534,
				"element": "H" 
			},
			{
				"x": -0.9252795964,
				"y": -3.7657747371,
				"z": -0.9221691792,
				"element": "H" 
			},
			{
				"x": -2.3694744647,
				"y": -3.5343155571,
				"z": 1.0316076907,
				"element": "H" 
			},
			{
				"x": -3.7832152004,
				"y": -0.8609276882,
				"z": -0.7774708312,
				"element": "H" 
			},
			{
				"x": -4.1714894351,
				"y": 1.5002936362,
				"z": -1.4553226992,
				"element": "H" 
			},
			{
				"x": -2.5591287588,
				"y": 3.2690157725,
				"z": -0.7828152817,
				"element": "H" 
			},
			{
				"x": -0.6004157204,
				"y": 2.7093293556,
				"z": 0.6067666538,
				"element": "H" 
			},
			{
				"x": 1.5809081241,
				"y": 1.6611349494,
				"z": 1.2651562278,
				"element": "H" 
			},
			{
				"x": 1.7416986024,
				"y": 0.6476334502,
				"z": 2.717658271,
				"element": "H" 
			},
			{
				"x": 0.5509764479,
				"y": 1.9665359299,
				"z": 2.6673849323,
				"element": "H" 
			}
		],
		 "valence_orbital": [ 
			{
				"type": "occ",
				"energy": -0.29251,
				"method": "rhf"
			},
			{
				"type": "occ",
				"energy": -0.27297,
				"method": "rhf"
			},
			{
				"type": "occ",
				"energy": -0.25385,
				"method": "rhf"
			},
			{
				"type": "occ",
				"energy": -0.22921,
				"method": "rhf"
			},
			{
				"type": "occ",
				"energy": -0.22233,
				"method": "rhf"
			},
			{
				"type": "unocc",
				"energy": -0.05456,
				"method": "rhf"
			},
			{
				"type": "unocc",
				"energy": -0.03737,
				"method": "rhf"
			},
			{
				"type": "unocc",
				"energy": 0.02301,
				"method": "rhf"
			},
			{
				"type": "unocc",
				"energy": 0.0706,
				"method": "rhf"
			},
			{
				"type": "unocc",
				"energy": 0.08719,
				"method": "rhf"
			}
		],
		"cosmo_sigma_profile": { 
			"-0.025": 0.0,
			"-0.024": 0.0,
			"-0.023": 0.0,
			"-0.022": 0.0,
			"-0.021": 0.0,
			"-0.02": 0.0,
			"-0.019": 0.0,
			"-0.018": 0.0,
			"-0.017": 0.0,
			"-0.016": 0.0,
			"-0.015": 0.0,
			"-0.014": 0.0,
			"-0.013": 0.0,
			"-0.012": 0.0,
			"-0.011": 0.545149611775,
			"-0.01": 0.673593002392,
			"-0.009": 1.21730764076,
			"-0.008": 1.46774773242,
			"-0.007": 4.30398404076,
			"-0.006": 8.77967174529,
			"-0.005": 17.9363511725,
			"-0.004": 18.2296761254,
			"-0.003": 20.2991070761,
			"-0.002": 25.4980831257,
			"-0.001": 26.9488371841,
			"0.0": 24.9137300748,
			"0.001": 19.2141623383,
			"0.002": 15.7646360374,
			"0.003": 12.7188225105,
			"0.004": 5.11943712115,
			"0.005": 3.13663475023,
			"0.006": 2.69495065421,
			"0.007": 1.65106295499,
			"0.008": 3.32779526201,
			"0.009": 1.96190633651,
			"0.01": 2.21006319204,
			"0.011": 2.2135199571,
			"0.012": 2.28026471039,
			"0.013": 2.24753604199,
			"0.014": 1.85724064105,
			"0.015": 2.97421320468,
			"0.016": 1.98380794944,
			"0.017": 0.921423644927,
			"0.018": 0.0,
			"0.019": 0.0,
			"0.02": 0.0,
			"0.021": 0.0,
			"0.022": 0.0,
			"0.023": 0.0,
			"0.024": 0.0,
			"0.025": 0.0
		}
	}
}
