{
	 "smiles": "CC(=O)CSC1=CC=C(C)C=C1", 
	 "Tm": 370.15, 
	 "num_atms": 24, 
	 "gaussian": { 
		 "optdone": 1, 
		 "sigma_profile": "yes", 
		 "theory": "DFT", 
		 "functional": "B3LYP", 
		 "basiset": "6-31G**", 
		 "properties": { 
			 "R2extent": 3687.5387, 
			 "electric_dipole_moment_norm": 1.23735046369, 
			 "electric_quadrupole_moment_norm": 14.5340174879, 
			 "total_energy": -861.711639903, 
			 "HOMO_LUMO_gap": 0.17633, 
			 "cosmo_polarized_energy": -8.9, 
			 "cosmo_cavitation_energy": 28.9, 
			 "cosmo_dispersion_energy": -21.24, 
			 "cosmo_repulsion_energy": 1.65, 
			 "cosmo_total_nonelectrostatic_energy": 9.31, 
			 "SMD_solvation_energy": 5.4 
		},
		"coords": [
			{
				"x": 2.8836737881,
				"y": 4.0027241763,
				"z": 2.0658682117,
				"element": "C" 
			},
			{
				"x": 1.9807362704,
				"y": 2.8537761311,
				"z": 2.4637301464,
				"element": "C" 
			},
			{
				"x": 0.9152126859,
				"y": 3.0288848589,
				"z": 3.025828139,
				"element": "O" 
			},
			{
				"x": 2.4698030333,
				"y": 1.444877515,
				"z": 2.1282825809,
				"element": "C" 
			},
			{
				"x": 2.2657595107,
				"y": 1.0304052442,
				"z": 0.3451285922,
				"element": "S" 
			},
			{
				"x": 0.6145074263,
				"y": 0.3382007539,
				"z": 0.2466006731,
				"element": "C" 
			},
			{
				"x": 0.3758779308,
				"y": -0.5429944412,
				"z": -0.8183077916,
				"element": "C" 
			},
			{
				"x": -0.8864125674,
				"y": -1.1027294448,
				"z": -0.995128128,
				"element": "C" 
			},
			{
				"x": -1.9391698063,
				"y": -0.8193937088,
				"z": -0.1134786786,
				"element": "C" 
			},
			{
				"x": -3.3097749797,
				"y": -1.4191731729,
				"z": -0.3211009131,
				"element": "C" 
			},
			{
				"x": -1.6796802283,
				"y": 0.0521727542,
				"z": 0.9495915427,
				"element": "C" 
			},
			{
				"x": -0.4262528742,
				"y": 0.6412722874,
				"z": 1.1314878194,
				"element": "C" 
			},
			{
				"x": 2.3762476543,
				"y": 4.951182065,
				"z": 2.2448033966,
				"element": "H" 
			},
			{
				"x": 3.8086517647,
				"y": 3.9678034324,
				"z": 2.654708518,
				"element": "H" 
			},
			{
				"x": 3.16752998,
				"y": 3.9208859682,
				"z": 1.0115653938,
				"element": "H" 
			},
			{
				"x": 3.5449160978,
				"y": 1.3555838265,
				"z": 2.3131799304,
				"element": "H" 
			},
			{
				"x": 1.9368363112,
				"y": 0.7102982888,
				"z": 2.7345894958,
				"element": "H" 
			},
			{
				"x": 1.1818065593,
				"y": -0.8010691309,
				"z": -1.4996052647,
				"element": "H" 
			},
			{
				"x": -1.0504253112,
				"y": -1.786379786,
				"z": -1.8248289634,
				"element": "H" 
			},
			{
				"x": -3.8986595138,
				"y": -1.3996074866,
				"z": 0.6004543708,
				"element": "H" 
			},
			{
				"x": -3.2458335152,
				"y": -2.4586361098,
				"z": -0.6590610058,
				"element": "H" 
			},
			{
				"x": -3.8751540983,
				"y": -0.8668180748,
				"z": -1.0823207336,
				"element": "H" 
			},
			{
				"x": -2.4754586322,
				"y": 0.2902770203,
				"z": 1.6513916559,
				"element": "H" 
			},
			{
				"x": -0.2755374861,
				"y": 1.3307570335,
				"z": 1.9551210119,
				"element": "H" 
			}
		],
		 "valence_orbital": [ 
			{
				"type": "occ",
				"energy": -0.31999,
				"method": "rhf"
			},
			{
				"type": "occ",
				"energy": -0.28387,
				"method": "rhf"
			},
			{
				"type": "occ",
				"energy": -0.25355,
				"method": "rhf"
			},
			{
				"type": "occ",
				"energy": -0.24882,
				"method": "rhf"
			},
			{
				"type": "occ",
				"energy": -0.20959,
				"method": "rhf"
			},
			{
				"type": "unocc",
				"energy": -0.03326,
				"method": "rhf"
			},
			{
				"type": "unocc",
				"energy": -0.00247,
				"method": "rhf"
			},
			{
				"type": "unocc",
				"energy": -0.0006,
				"method": "rhf"
			},
			{
				"type": "unocc",
				"energy": 0.04083,
				"method": "rhf"
			},
			{
				"type": "unocc",
				"energy": 0.06715,
				"method": "rhf"
			}
		],
		"cosmo_sigma_profile": { 
			"-0.025": 0.0,
			"-0.024": 0.0,
			"-0.023": 0.0,
			"-0.022": 0.0,
			"-0.021": 0.0,
			"-0.02": 0.0,
			"-0.019": 0.0,
			"-0.018": 0.0,
			"-0.017": 0.0,
			"-0.016": 0.0,
			"-0.015": 0.0,
			"-0.014": 0.0,
			"-0.013": 0.0,
			"-0.012": 0.0,
			"-0.011": 0.0,
			"-0.01": 0.0,
			"-0.009": 0.419729482418,
			"-0.008": 4.01422955468,
			"-0.007": 5.07831903962,
			"-0.006": 9.13486260474,
			"-0.005": 15.9492150668,
			"-0.004": 22.3607906998,
			"-0.003": 21.7613399808,
			"-0.002": 19.4927916637,
			"-0.001": 22.0479998569,
			"0.0": 19.7839751534,
			"0.001": 12.5008833916,
			"0.002": 10.8520710697,
			"0.003": 11.6701999319,
			"0.004": 14.4937284493,
			"0.005": 15.2726125533,
			"0.006": 8.87839843091,
			"0.007": 3.78624457576,
			"0.008": 3.09947262248,
			"0.009": 2.42851489096,
			"0.01": 2.09771825003,
			"0.011": 3.33704660055,
			"0.012": 2.18685585486,
			"0.013": 0.343409448613,
			"0.014": 0.0,
			"0.015": 0.0,
			"0.016": 0.0,
			"0.017": 0.0,
			"0.018": 0.0,
			"0.019": 0.0,
			"0.02": 0.0,
			"0.021": 0.0,
			"0.022": 0.0,
			"0.023": 0.0,
			"0.024": 0.0,
			"0.025": 0.0
		}
	}
}
