{
	 "smiles": "CC1=C(C=C(O1)C1=CC=CC=C1)C1=CC=CC=C1", 
	 "Tm": 317.15, 
	 "num_atms": 32, 
	 "gaussian": { 
		 "optdone": 1, 
		 "sigma_profile": "yes", 
		 "theory": "DFT", 
		 "functional": "B3LYP", 
		 "basiset": "6-31G**", 
		 "properties": { 
			 "R2extent": 6264.3275, 
			 "electric_dipole_moment_norm": 0.62109001763, 
			 "electric_quadrupole_moment_norm": 10.567954083, 
			 "total_energy": -731.472945025, 
			 "HOMO_LUMO_gap": 0.1661, 
			 "cosmo_polarized_energy": -7.12, 
			 "cosmo_cavitation_energy": 35.99, 
			 "cosmo_dispersion_energy": -26.04, 
			 "cosmo_repulsion_energy": 1.99, 
			 "cosmo_total_nonelectrostatic_energy": 11.94, 
			 "SMD_solvation_energy": 6.19 
		},
		"coords": [
			{
				"x": 0.1543720129,
				"y": -2.0320035442,
				"z": -2.0917724722,
				"element": "C" 
			},
			{
				"x": 0.1354883474,
				"y": -1.0683035997,
				"z": -0.9571725904,
				"element": "C" 
			},
			{
				"x": -0.3440451257,
				"y": -1.1115264199,
				"z": 0.3317438097,
				"element": "C" 
			},
			{
				"x": -0.1016214848,
				"y": 0.1946417036,
				"z": 0.8809919746,
				"element": "C" 
			},
			{
				"x": 0.5131587056,
				"y": 0.939374636,
				"z": -0.087672115,
				"element": "C" 
			},
			{
				"x": 0.6556153544,
				"y": 0.1682111354,
				"z": -1.2154964428,
				"element": "O" 
			},
			{
				"x": 1.0190835073,
				"y": 2.305162423,
				"z": -0.143992405,
				"element": "C" 
			},
			{
				"x": 0.8918681307,
				"y": 3.1609870242,
				"z": 0.9659280467,
				"element": "C" 
			},
			{
				"x": 1.3742565406,
				"y": 4.4653996826,
				"z": 0.9148911741,
				"element": "C" 
			},
			{
				"x": 1.9930456111,
				"y": 4.9456055634,
				"z": -0.2426014151,
				"element": "C" 
			},
			{
				"x": 2.1236853769,
				"y": 4.1044444267,
				"z": -1.3492900095,
				"element": "C" 
			},
			{
				"x": 1.6435058124,
				"y": 2.7973550517,
				"z": -1.3042651525,
				"element": "C" 
			},
			{
				"x": -0.9956764509,
				"y": -2.2377875136,
				"z": 1.0233583044,
				"element": "C" 
			},
			{
				"x": -2.0786040822,
				"y": -2.0033186036,
				"z": 1.8894571508,
				"element": "C" 
			},
			{
				"x": -2.7042365333,
				"y": -3.0551646802,
				"z": 2.5559825731,
				"element": "C" 
			},
			{
				"x": -2.2640040462,
				"y": -4.3676558794,
				"z": 2.3702982429,
				"element": "C" 
			},
			{
				"x": -1.1864990046,
				"y": -4.6157025294,
				"z": 1.5185163807,
				"element": "C" 
			},
			{
				"x": -0.5544831701,
				"y": -3.5623940844,
				"z": 0.8575749962,
				"element": "C" 
			},
			{
				"x": -0.1700305034,
				"y": -1.5411771827,
				"z": -3.0155114353,
				"element": "H" 
			},
			{
				"x": -0.5179588427,
				"y": -2.8676695112,
				"z": -1.8876948303,
				"element": "H" 
			},
			{
				"x": 1.1578002635,
				"y": -2.4383403269,
				"z": -2.2723515406,
				"element": "H" 
			},
			{
				"x": -0.3341233157,
				"y": 0.5121747708,
				"z": 1.8870854247,
				"element": "H" 
			},
			{
				"x": 0.4119743941,
				"y": 2.8017049983,
				"z": 1.8713199722,
				"element": "H" 
			},
			{
				"x": 1.2665329854,
				"y": 5.1105870822,
				"z": 1.7822697514,
				"element": "H" 
			},
			{
				"x": 2.3685176024,
				"y": 5.9639233906,
				"z": -0.2802914453,
				"element": "H" 
			},
			{
				"x": 2.6030581016,
				"y": 4.4669915358,
				"z": -2.2543452322,
				"element": "H" 
			},
			{
				"x": 1.7479337795,
				"y": 2.1472979444,
				"z": -2.1659296381,
				"element": "H" 
			},
			{
				"x": -2.4400131167,
				"y": -0.9877363581,
				"z": 2.02346434,
				"element": "H" 
			},
			{
				"x": -3.5419159441,
				"y": -2.8503502876,
				"z": 3.2169060778,
				"element": "H" 
			},
			{
				"x": -2.7527715934,
				"y": -5.1876806888,
				"z": 2.8882935529,
				"element": "H" 
			},
			{
				"x": -0.8264788304,
				"y": -5.6310696369,
				"z": 1.3773721706,
				"element": "H" 
			},
			{
				"x": 0.3073655183,
				"y": -3.7634805222,
				"z": 0.2288327814,
				"element": "H" 
			}
		],
		 "valence_orbital": [ 
			{
				"type": "occ",
				"energy": -0.27535,
				"method": "rhf"
			},
			{
				"type": "occ",
				"energy": -0.24968,
				"method": "rhf"
			},
			{
				"type": "occ",
				"energy": -0.24862,
				"method": "rhf"
			},
			{
				"type": "occ",
				"energy": -0.23377,
				"method": "rhf"
			},
			{
				"type": "occ",
				"energy": -0.194,
				"method": "rhf"
			},
			{
				"type": "unocc",
				"energy": -0.0279,
				"method": "rhf"
			},
			{
				"type": "unocc",
				"energy": -0.01252,
				"method": "rhf"
			},
			{
				"type": "unocc",
				"energy": -0.00119,
				"method": "rhf"
			},
			{
				"type": "unocc",
				"energy": 0.00246,
				"method": "rhf"
			},
			{
				"type": "unocc",
				"energy": 0.05608,
				"method": "rhf"
			}
		],
		"cosmo_sigma_profile": { 
			"-0.025": 0.0,
			"-0.024": 0.0,
			"-0.023": 0.0,
			"-0.022": 0.0,
			"-0.021": 0.0,
			"-0.02": 0.0,
			"-0.019": 0.0,
			"-0.018": 0.0,
			"-0.017": 0.0,
			"-0.016": 0.0,
			"-0.015": 0.0,
			"-0.014": 0.0,
			"-0.013": 0.0,
			"-0.012": 0.0,
			"-0.011": 0.0,
			"-0.01": 0.0,
			"-0.009": 0.0,
			"-0.008": 0.413159183037,
			"-0.007": 2.77813380999,
			"-0.006": 8.63720931872,
			"-0.005": 25.1183994307,
			"-0.004": 29.0466351107,
			"-0.003": 28.4233070104,
			"-0.002": 22.3396347987,
			"-0.001": 21.4903549023,
			"0.0": 17.9586187725,
			"0.001": 15.395008779,
			"0.002": 22.2075721442,
			"0.003": 28.7676401273,
			"0.004": 26.18429073,
			"0.005": 24.60383382,
			"0.006": 14.904131814,
			"0.007": 0.360332842282,
			"0.008": 0.0,
			"0.009": 0.0,
			"0.01": 0.0,
			"0.011": 0.0,
			"0.012": 0.0,
			"0.013": 0.0,
			"0.014": 0.0,
			"0.015": 0.0,
			"0.016": 0.0,
			"0.017": 0.0,
			"0.018": 0.0,
			"0.019": 0.0,
			"0.02": 0.0,
			"0.021": 0.0,
			"0.022": 0.0,
			"0.023": 0.0,
			"0.024": 0.0,
			"0.025": 0.0
		}
	}
}
