{
	 "smiles": "COC(=O)C1=CC(O)=NC(O)=N1", 
	 "Tm": 517.15, 
	 "num_atms": 18, 
	 "gaussian": { 
		 "optdone": 1, 
		 "sigma_profile": "yes", 
		 "theory": "DFT", 
		 "functional": "B3LYP", 
		 "basiset": "6-31G**", 
		 "properties": { 
			 "R2extent": 2631.7289, 
			 "electric_dipole_moment_norm": 3.04421063824, 
			 "electric_quadrupole_moment_norm": 19.50944197, 
			 "total_energy": -642.662077255, 
			 "HOMO_LUMO_gap": 0.18747, 
			 "cosmo_polarized_energy": -19.12, 
			 "cosmo_cavitation_energy": 23.91, 
			 "cosmo_dispersion_energy": -17.93, 
			 "cosmo_repulsion_energy": 1.45, 
			 "cosmo_total_nonelectrostatic_energy": 7.44, 
			 "SMD_solvation_energy": 4.08 
		},
		"coords": [
			{
				"x": 2.248626738,
				"y": -2.2232845973,
				"z": -2.3118173512,
				"element": "C" 
			},
			{
				"x": 1.8302622046,
				"y": -1.6762040903,
				"z": -1.0493067721,
				"element": "O" 
			},
			{
				"x": 0.5225817033,
				"y": -1.4100562318,
				"z": -0.9521643856,
				"element": "C" 
			},
			{
				"x": -0.2859814348,
				"y": -1.6015868262,
				"z": -1.8396360819,
				"element": "O" 
			},
			{
				"x": 0.1384597574,
				"y": -0.839915769,
				"z": 0.3905145132,
				"element": "C" 
			},
			{
				"x": -1.1969601274,
				"y": -0.5273157901,
				"z": 0.6003225514,
				"element": "C" 
			},
			{
				"x": -1.5067367493,
				"y": 0.0013725692,
				"z": 1.8670070652,
				"element": "C" 
			},
			{
				"x": -2.7590650448,
				"y": 0.3517110394,
				"z": 2.2164305079,
				"element": "O" 
			},
			{
				"x": -0.591784449,
				"y": 0.1933861142,
				"z": 2.8078849455,
				"element": "N" 
			},
			{
				"x": 0.6541853691,
				"y": -0.1485754414,
				"z": 2.4779156273,
				"element": "C" 
			},
			{
				"x": 1.5752028053,
				"y": 0.0475388872,
				"z": 3.432437185,
				"element": "O" 
			},
			{
				"x": 1.0871022983,
				"y": -0.6583071516,
				"z": 1.3193638127,
				"element": "N" 
			},
			{
				"x": 3.3230537795,
				"y": -2.3775581907,
				"z": -2.2202916073,
				"element": "H" 
			},
			{
				"x": 2.0258226544,
				"y": -1.5267720429,
				"z": -3.123935772,
				"element": "H" 
			},
			{
				"x": 1.7375150619,
				"y": -3.1691580326,
				"z": -2.5077643855,
				"element": "H" 
			},
			{
				"x": -1.9295425165,
				"y": -0.6913533504,
				"z": -0.1804607805,
				"element": "H" 
			},
			{
				"x": -3.3582579151,
				"y": 0.1798980155,
				"z": 1.4772584816,
				"element": "H" 
			},
			{
				"x": 2.419915865,
				"y": -0.2423191113,
				"z": 3.0537424464,
				"element": "H" 
			}
		],
		 "valence_orbital": [ 
			{
				"type": "occ",
				"energy": -0.31374,
				"method": "rhf"
			},
			{
				"type": "occ",
				"energy": -0.29746,
				"method": "rhf"
			},
			{
				"type": "occ",
				"energy": -0.2927,
				"method": "rhf"
			},
			{
				"type": "occ",
				"energy": -0.26807,
				"method": "rhf"
			},
			{
				"type": "occ",
				"energy": -0.2578,
				"method": "rhf"
			},
			{
				"type": "unocc",
				"energy": -0.07033,
				"method": "rhf"
			},
			{
				"type": "unocc",
				"energy": -0.01066,
				"method": "rhf"
			},
			{
				"type": "unocc",
				"energy": 0.04697,
				"method": "rhf"
			},
			{
				"type": "unocc",
				"energy": 0.05428,
				"method": "rhf"
			},
			{
				"type": "unocc",
				"energy": 0.08752,
				"method": "rhf"
			}
		],
		"cosmo_sigma_profile": { 
			"-0.025": 0.0,
			"-0.024": 0.0,
			"-0.023": 0.0,
			"-0.022": 0.0,
			"-0.021": 0.0,
			"-0.02": 0.375109961804,
			"-0.019": 1.48748194248,
			"-0.018": 1.81366402866,
			"-0.017": 1.78793384335,
			"-0.016": 2.47959920252,
			"-0.015": 1.20320574168,
			"-0.014": 1.53828537476,
			"-0.013": 1.37102247574,
			"-0.012": 2.17360101937,
			"-0.011": 1.92435143449,
			"-0.01": 1.5050277762,
			"-0.009": 0.914694662231,
			"-0.008": 2.40725745448,
			"-0.007": 5.01006843695,
			"-0.006": 8.42087319538,
			"-0.005": 10.3453303716,
			"-0.004": 16.2287658812,
			"-0.003": 13.9872479809,
			"-0.002": 14.7560578797,
			"-0.001": 11.1386680673,
			"0.0": 8.78185779898,
			"0.001": 7.94578591803,
			"0.002": 6.39926060804,
			"0.003": 5.27940501905,
			"0.004": 4.8847767007,
			"0.005": 5.2252609043,
			"0.006": 6.8538282143,
			"0.007": 5.82414810688,
			"0.008": 5.00134442243,
			"0.009": 7.96894699418,
			"0.01": 9.42713005216,
			"0.011": 8.75376004947,
			"0.012": 3.19805220785,
			"0.013": 2.15243207391,
			"0.014": 2.07590996982,
			"0.015": 0.493800482153,
			"0.016": 0.0,
			"0.017": 0.0,
			"0.018": 0.0,
			"0.019": 0.0,
			"0.02": 0.0,
			"0.021": 0.0,
			"0.022": 0.0,
			"0.023": 0.0,
			"0.024": 0.0,
			"0.025": 0.0
		}
	}
}
