{
	 "smiles": "CN(C)C1=CC2=C(C=C1)N(C(=O)C1=CC=CC=C1)C1=CC=C(C=C1S2)N(C)C", 
	 "Tm": 468.15, 
	 "num_atms": 51, 
	 "gaussian": { 
		 "optdone": 1, 
		 "sigma_profile": "yes", 
		 "theory": "DFT", 
		 "functional": "B3LYP", 
		 "basiset": "6-31G**", 
		 "properties": { 
			 "R2extent": 13438.2975, 
			 "electric_dipole_moment_norm": 4.73824180155, 
			 "electric_quadrupole_moment_norm": 33.2423002886, 
			 "total_energy": -1527.96925063, 
			 "HOMO_LUMO_gap": 0.15024, 
			 "cosmo_polarized_energy": -16.51, 
			 "cosmo_cavitation_energy": 53.52, 
			 "cosmo_dispersion_energy": -37.37, 
			 "cosmo_repulsion_energy": 2.76, 
			 "cosmo_total_nonelectrostatic_energy": 18.91, 
			 "SMD_solvation_energy": 8.06 
		},
		"coords": [
			{
				"x": -2.4838330467,
				"y": 3.9021154313,
				"z": -3.9723264138,
				"element": "C" 
			},
			{
				"x": -1.4454753027,
				"y": 3.8324234537,
				"z": -2.9586163711,
				"element": "N" 
			},
			{
				"x": -0.5176019997,
				"y": 4.9435322466,
				"z": -2.8371184544,
				"element": "C" 
			},
			{
				"x": -1.1061618156,
				"y": 2.5998328014,
				"z": -2.4159036649,
				"element": "C" 
			},
			{
				"x": 0.0090685763,
				"y": 2.4606659991,
				"z": -1.5604448582,
				"element": "C" 
			},
			{
				"x": 0.3445570045,
				"y": 1.2204597197,
				"z": -1.0195590754,
				"element": "C" 
			},
			{
				"x": -0.4138210556,
				"y": 0.0759271067,
				"z": -1.2988762618,
				"element": "C" 
			},
			{
				"x": -1.5514210728,
				"y": 0.2205403959,
				"z": -2.0974334189,
				"element": "C" 
			},
			{
				"x": -1.8812226681,
				"y": 1.4437797393,
				"z": -2.6684512497,
				"element": "C" 
			},
			{
				"x": -0.0357976118,
				"y": -1.1791049642,
				"z": -0.7246115348,
				"element": "N" 
			},
			{
				"x": -0.0184478185,
				"y": -2.377337134,
				"z": -1.442362704,
				"element": "C" 
			},
			{
				"x": -0.0740616099,
				"y": -3.4678947824,
				"z": -0.8849476022,
				"element": "O" 
			},
			{
				"x": 0.1200348119,
				"y": -2.3150809448,
				"z": -2.9399828562,
				"element": "C" 
			},
			{
				"x": -0.531629391,
				"y": -3.3067640528,
				"z": -3.6862971011,
				"element": "C" 
			},
			{
				"x": -0.3709392144,
				"y": -3.3697280159,
				"z": -5.0690449966,
				"element": "C" 
			},
			{
				"x": 0.4700170812,
				"y": -2.4613438811,
				"z": -5.7162965206,
				"element": "C" 
			},
			{
				"x": 1.1482082439,
				"y": -1.491615069,
				"z": -4.974337446,
				"element": "C" 
			},
			{
				"x": 0.9709745568,
				"y": -1.4125353141,
				"z": -3.5934783651,
				"element": "C" 
			},
			{
				"x": 0.2613228476,
				"y": -1.1663659852,
				"z": 0.68116918,
				"element": "C" 
			},
			{
				"x": -0.2594138902,
				"y": -2.0890222277,
				"z": 1.5932103206,
				"element": "C" 
			},
			{
				"x": 0.091401446,
				"y": -2.0412721726,
				"z": 2.9379410727,
				"element": "C" 
			},
			{
				"x": 0.9672932222,
				"y": -1.0512263213,
				"z": 3.437282992,
				"element": "C" 
			},
			{
				"x": 1.4386929622,
				"y": -0.084909327,
				"z": 2.5227857485,
				"element": "C" 
			},
			{
				"x": 1.1029630637,
				"y": -0.1586097793,
				"z": 1.1717706958,
				"element": "C" 
			},
			{
				"x": 1.7680207114,
				"y": 1.0599823156,
				"z": 0.0435766103,
				"element": "S" 
			},
			{
				"x": 1.3464051174,
				"y": -1.0227297715,
				"z": 4.7758392821,
				"element": "N" 
			},
			{
				"x": 0.6362331287,
				"y": -1.8573818208,
				"z": 5.7301138114,
				"element": "C" 
			},
			{
				"x": 2.0623018508,
				"y": 0.1337182347,
				"z": 5.2851458375,
				"element": "C" 
			},
			{
				"x": -2.2465262088,
				"y": 3.3106345561,
				"z": -4.8704167832,
				"element": "H" 
			},
			{
				"x": -3.4443550702,
				"y": 3.5481205664,
				"z": -3.5799108251,
				"element": "H" 
			},
			{
				"x": -2.6184895609,
				"y": 4.9416277343,
				"z": -4.2749654725,
				"element": "H" 
			},
			{
				"x": -0.9443766955,
				"y": 5.8212466494,
				"z": -3.3246259092,
				"element": "H" 
			},
			{
				"x": 0.4606930093,
				"y": 4.7360049462,
				"z": -3.2981927828,
				"element": "H" 
			},
			{
				"x": -0.3457672008,
				"y": 5.2037013504,
				"z": -1.7858433125,
				"element": "H" 
			},
			{
				"x": 0.6164893467,
				"y": 3.3169684467,
				"z": -1.2969589885,
				"element": "H" 
			},
			{
				"x": -2.173387324,
				"y": -0.6456046812,
				"z": -2.2982237783,
				"element": "H" 
			},
			{
				"x": -2.7571769968,
				"y": 1.4967533085,
				"z": -3.301979055,
				"element": "H" 
			},
			{
				"x": -1.1519860106,
				"y": -4.027586262,
				"z": -3.163858473,
				"element": "H" 
			},
			{
				"x": -0.8914679761,
				"y": -4.133317474,
				"z": -5.6400409266,
				"element": "H" 
			},
			{
				"x": 0.6039967087,
				"y": -2.5148746004,
				"z": -6.7931466131,
				"element": "H" 
			},
			{
				"x": 1.8188693583,
				"y": -0.7963155817,
				"z": -5.4710608761,
				"element": "H" 
			},
			{
				"x": 1.5041520019,
				"y": -0.6607303965,
				"z": -3.0216461735,
				"element": "H" 
			},
			{
				"x": -0.9182819195,
				"y": -2.8683927765,
				"z": 1.2368915981,
				"element": "H" 
			},
			{
				"x": -0.330313814,
				"y": -2.7856904974,
				"z": 3.6010777077,
				"element": "H" 
			},
			{
				"x": 2.0619337814,
				"y": 0.7362476341,
				"z": 2.852171595,
				"element": "H" 
			},
			{
				"x": 1.0797808252,
				"y": -1.7250321982,
				"z": 6.7184497397,
				"element": "H" 
			},
			{
				"x": -0.4368528674,
				"y": -1.6175965504,
				"z": 5.7994616991,
				"element": "H" 
			},
			{
				"x": 0.7288324798,
				"y": -2.9173881238,
				"z": 5.4693511095,
				"element": "H" 
			},
			{
				"x": 3.0032754648,
				"y": 0.2806300041,
				"z": 4.7433414248,
				"element": "H" 
			},
			{
				"x": 1.4819837518,
				"y": 1.0681149021,
				"z": 5.2161340705,
				"element": "H" 
			},
			{
				"x": 2.3131067891,
				"y": -0.0347768367,
				"z": 6.3338443693,
				"element": "H" 
			}
		],
		 "valence_orbital": [ 
			{
				"type": "occ",
				"energy": -0.24359,
				"method": "rhf"
			},
			{
				"type": "occ",
				"energy": -0.23294,
				"method": "rhf"
			},
			{
				"type": "occ",
				"energy": -0.20858,
				"method": "rhf"
			},
			{
				"type": "occ",
				"energy": -0.18953,
				"method": "rhf"
			},
			{
				"type": "occ",
				"energy": -0.17861,
				"method": "rhf"
			},
			{
				"type": "unocc",
				"energy": -0.02837,
				"method": "rhf"
			},
			{
				"type": "unocc",
				"energy": -0.00556,
				"method": "rhf"
			},
			{
				"type": "unocc",
				"energy": 0.00178,
				"method": "rhf"
			},
			{
				"type": "unocc",
				"energy": 0.00381,
				"method": "rhf"
			},
			{
				"type": "unocc",
				"energy": 0.01455,
				"method": "rhf"
			}
		],
		"cosmo_sigma_profile": { 
			"-0.025": 0.0,
			"-0.024": 0.0,
			"-0.023": 0.0,
			"-0.022": 0.0,
			"-0.021": 0.0,
			"-0.02": 0.0,
			"-0.019": 0.0,
			"-0.018": 0.0,
			"-0.017": 0.0,
			"-0.016": 0.0,
			"-0.015": 0.0,
			"-0.014": 0.0,
			"-0.013": 0.0,
			"-0.012": 0.0,
			"-0.011": 0.0,
			"-0.01": 0.0,
			"-0.009": 0.0,
			"-0.008": 0.0,
			"-0.007": 2.54835055168,
			"-0.006": 21.1674842202,
			"-0.005": 31.0968087236,
			"-0.004": 40.0049162975,
			"-0.003": 45.6457093195,
			"-0.002": 47.8307609395,
			"-0.001": 42.2109749888,
			"0.0": 24.9599883577,
			"0.001": 21.0436587423,
			"0.002": 24.4148563075,
			"0.003": 27.6543925809,
			"0.004": 31.6232329278,
			"0.005": 34.8339725177,
			"0.006": 11.7578677948,
			"0.007": 5.20677132208,
			"0.008": 3.14049258859,
			"0.009": 2.28628460934,
			"0.01": 1.60937438491,
			"0.011": 2.41148157335,
			"0.012": 2.49868337776,
			"0.013": 3.11533240855,
			"0.014": 0.752109256902,
			"0.015": 0.0,
			"0.016": 0.0,
			"0.017": 0.0,
			"0.018": 0.0,
			"0.019": 0.0,
			"0.02": 0.0,
			"0.021": 0.0,
			"0.022": 0.0,
			"0.023": 0.0,
			"0.024": 0.0,
			"0.025": 0.0
		}
	}
}
