{
	 "smiles": "CC(C)(C)C1=NC(=N)SN1", 
	 "Tm": 434.15, 
	 "num_atms": 21, 
	 "gaussian": { 
		 "optdone": 1, 
		 "sigma_profile": "yes", 
		 "theory": "DFT", 
		 "functional": "B3LYP", 
		 "basiset": "6-31G**", 
		 "properties": { 
			 "R2extent": 2360.9557, 
			 "electric_dipole_moment_norm": 5.27545527609, 
			 "electric_quadrupole_moment_norm": 18.4896861298, 
			 "total_energy": -797.696520344, 
			 "HOMO_LUMO_gap": 0.1872, 
			 "cosmo_polarized_energy": -13.97, 
			 "cosmo_cavitation_energy": 25.18, 
			 "cosmo_dispersion_energy": -18.6, 
			 "cosmo_repulsion_energy": 1.47, 
			 "cosmo_total_nonelectrostatic_energy": 8.05, 
			 "SMD_solvation_energy": 1.84 
		},
		"coords": [
			{
				"x": -1.3537316144,
				"y": 0.6862397459,
				"z": 0.12420465,
				"element": "C" 
			},
			{
				"x": -0.0818295775,
				"y": 0.436356957,
				"z": -0.7202110977,
				"element": "C" 
			},
			{
				"x": -0.4403195145,
				"y": 0.4634746002,
				"z": -2.2215073891,
				"element": "C" 
			},
			{
				"x": 0.9624821211,
				"y": 1.5258192499,
				"z": -0.4138345752,
				"element": "C" 
			},
			{
				"x": 0.4287689331,
				"y": -0.9594844535,
				"z": -0.3736221099,
				"element": "C" 
			},
			{
				"x": -0.250144912,
				"y": -2.0308630895,
				"z": -0.6691340008,
				"element": "N" 
			},
			{
				"x": 0.3923347903,
				"y": -3.2034587342,
				"z": -0.29490994,
				"element": "C" 
			},
			{
				"x": 0.0471793253,
				"y": -4.4184617854,
				"z": -0.4189832262,
				"element": "N" 
			},
			{
				"x": 1.9884479208,
				"y": -2.8032907733,
				"z": 0.5158116146,
				"element": "S" 
			},
			{
				"x": 1.5953475876,
				"y": -1.1247728854,
				"z": 0.3142056837,
				"element": "N" 
			},
			{
				"x": -1.7772285025,
				"y": 1.6657586455,
				"z": -0.1220554201,
				"element": "H" 
			},
			{
				"x": -2.1037980934,
				"y": -0.0820134381,
				"z": -0.0765935783,
				"element": "H" 
			},
			{
				"x": -1.1266942092,
				"y": 0.6720000641,
				"z": 1.1952047983,
				"element": "H" 
			},
			{
				"x": 0.4467772164,
				"y": 0.3071205708,
				"z": -2.8442910108,
				"element": "H" 
			},
			{
				"x": -1.1623232109,
				"y": -0.3204733462,
				"z": -2.4578867332,
				"element": "H" 
			},
			{
				"x": -0.8723666621,
				"y": 1.4350847625,
				"z": -2.4829414296,
				"element": "H" 
			},
			{
				"x": 0.5537270536,
				"y": 2.5066509711,
				"z": -0.6727109761,
				"element": "H" 
			},
			{
				"x": 1.2258116161,
				"y": 1.5541987212,
				"z": 0.6491528257,
				"element": "H" 
			},
			{
				"x": 1.8777782406,
				"y": 1.3938266145,
				"z": -1.0032527722,
				"element": "H" 
			},
			{
				"x": -0.8693186946,
				"y": -4.4614159565,
				"z": -0.8691020649,
				"element": "H" 
			},
			{
				"x": 2.330400186,
				"y": -0.4327964407,
				"z": 0.3161567519,
				"element": "H" 
			}
		],
		 "valence_orbital": [ 
			{
				"type": "occ",
				"energy": -0.33927,
				"method": "rhf"
			},
			{
				"type": "occ",
				"energy": -0.28523,
				"method": "rhf"
			},
			{
				"type": "occ",
				"energy": -0.28368,
				"method": "rhf"
			},
			{
				"type": "occ",
				"energy": -0.26235,
				"method": "rhf"
			},
			{
				"type": "occ",
				"energy": -0.20996,
				"method": "rhf"
			},
			{
				"type": "unocc",
				"energy": -0.02276,
				"method": "rhf"
			},
			{
				"type": "unocc",
				"energy": -0.01734,
				"method": "rhf"
			},
			{
				"type": "unocc",
				"energy": 0.05691,
				"method": "rhf"
			},
			{
				"type": "unocc",
				"energy": 0.06976,
				"method": "rhf"
			},
			{
				"type": "unocc",
				"energy": 0.07852,
				"method": "rhf"
			}
		],
		"cosmo_sigma_profile": { 
			"-0.025": 0.0,
			"-0.024": 0.0,
			"-0.023": 0.0,
			"-0.022": 0.0,
			"-0.021": 0.0,
			"-0.02": 0.0,
			"-0.019": 0.0,
			"-0.018": 0.0,
			"-0.017": 0.271427141938,
			"-0.016": 0.779353708452,
			"-0.015": 1.26429823511,
			"-0.014": 1.08955819725,
			"-0.013": 0.738726083088,
			"-0.012": 1.38256690303,
			"-0.011": 1.38537493492,
			"-0.01": 2.09588186035,
			"-0.009": 2.77454293665,
			"-0.008": 2.43067768392,
			"-0.007": 2.28115801102,
			"-0.006": 2.54572033767,
			"-0.005": 4.42391131324,
			"-0.004": 17.4942114945,
			"-0.003": 19.0503575137,
			"-0.002": 18.4103978587,
			"-0.001": 19.5925115599,
			"0.0": 25.9595990508,
			"0.001": 17.4112907554,
			"0.002": 7.1538100201,
			"0.003": 7.85994861213,
			"0.004": 8.96244870913,
			"0.005": 8.1170119391,
			"0.006": 5.21139096299,
			"0.007": 2.85905338125,
			"0.008": 3.01369711641,
			"0.009": 2.43753416255,
			"0.01": 2.37199533359,
			"0.011": 1.88319534207,
			"0.012": 1.69956814863,
			"0.013": 1.80071862861,
			"0.014": 1.37959023055,
			"0.015": 1.03220795327,
			"0.016": 0.846351046878,
			"0.017": 1.28244633136,
			"0.018": 0.335768653741,
			"0.019": 0.0,
			"0.02": 0.0,
			"0.021": 0.0,
			"0.022": 0.0,
			"0.023": 0.0,
			"0.024": 0.0,
			"0.025": 0.0
		}
	}
}
