{
	 "smiles": "COC1=CC(=CC=C1)C1(C)NC(=O)NC1=O", 
	 "Tm": 393.15, 
	 "num_atms": 28, 
	 "gaussian": { 
		 "optdone": 1, 
		 "sigma_profile": "yes", 
		 "theory": "DFT", 
		 "functional": "B3LYP", 
		 "basiset": "6-31G**", 
		 "properties": { 
			 "R2extent": 3957.8586, 
			 "electric_dipole_moment_norm": 2.42941638053, 
			 "electric_quadrupole_moment_norm": 9.7815575089, 
			 "total_energy": -761.60940606, 
			 "HOMO_LUMO_gap": 0.2013, 
			 "cosmo_polarized_energy": -17.43, 
			 "cosmo_cavitation_energy": 31.83, 
			 "cosmo_dispersion_energy": -22.45, 
			 "cosmo_repulsion_energy": 1.76, 
			 "cosmo_total_nonelectrostatic_energy": 11.14, 
			 "SMD_solvation_energy": 7.91 
		},
		"coords": [
			{
				"x": 2.976480654,
				"y": 2.4939950727,
				"z": -1.5939769252,
				"element": "C" 
			},
			{
				"x": 3.5496053596,
				"y": 1.7004131813,
				"z": -0.5650822527,
				"element": "O" 
			},
			{
				"x": 2.7379048419,
				"y": 0.8454310224,
				"z": 0.1201293052,
				"element": "C" 
			},
			{
				"x": 1.3751951767,
				"y": 0.6763076375,
				"z": -0.1396983303,
				"element": "C" 
			},
			{
				"x": 0.6185591103,
				"y": -0.2199958105,
				"z": 0.6333511487,
				"element": "C" 
			},
			{
				"x": 1.230565392,
				"y": -0.9367641371,
				"z": 1.6619644525,
				"element": "C" 
			},
			{
				"x": 2.5988648888,
				"y": -0.7686998415,
				"z": 1.9060676454,
				"element": "C" 
			},
			{
				"x": 3.3553665363,
				"y": 0.1103887224,
				"z": 1.144487411,
				"element": "C" 
			},
			{
				"x": -0.8680553254,
				"y": -0.4138351395,
				"z": 0.3009158787,
				"element": "C" 
			},
			{
				"x": -1.0517371717,
				"y": -1.0129306151,
				"z": -1.1094781047,
				"element": "C" 
			},
			{
				"x": -1.5833431819,
				"y": -1.1946493989,
				"z": 1.3078092765,
				"element": "N" 
			},
			{
				"x": -2.6396481809,
				"y": -0.5359606448,
				"z": 1.8838963006,
				"element": "C" 
			},
			{
				"x": -3.4538805572,
				"y": -0.9555498028,
				"z": 2.6785842118,
				"element": "O" 
			},
			{
				"x": -2.5982462428,
				"y": 0.7703584797,
				"z": 1.3498262658,
				"element": "N" 
			},
			{
				"x": -1.6333725582,
				"y": 0.9363496946,
				"z": 0.3840073804,
				"element": "C" 
			},
			{
				"x": -1.4338616512,
				"y": 1.9271857958,
				"z": -0.2882149056,
				"element": "O" 
			},
			{
				"x": 2.5651630413,
				"y": 1.8744682607,
				"z": -2.4013539554,
				"element": "H" 
			},
			{
				"x": 3.789238398,
				"y": 3.1048668213,
				"z": -1.989717099,
				"element": "H" 
			},
			{
				"x": 2.1852062349,
				"y": 3.1483129339,
				"z": -1.2075995843,
				"element": "H" 
			},
			{
				"x": 0.8795621018,
				"y": 1.2608833433,
				"z": -0.9032595919,
				"element": "H" 
			},
			{
				"x": 0.6496017723,
				"y": -1.6095134247,
				"z": 2.2818098581,
				"element": "H" 
			},
			{
				"x": 3.0736878832,
				"y": -1.3299144852,
				"z": 2.705760957,
				"element": "H" 
			},
			{
				"x": 4.4155399636,
				"y": 0.2554044648,
				"z": 1.3234803986,
				"element": "H" 
			},
			{
				"x": -2.1137596603,
				"y": -1.1540652322,
				"z": -1.3321549204,
				"element": "H" 
			},
			{
				"x": -0.5440368958,
				"y": -1.9802140562,
				"z": -1.171834201,
				"element": "H" 
			},
			{
				"x": -0.6220634106,
				"y": -0.3495375751,
				"z": -1.8623102047,
				"element": "H" 
			},
			{
				"x": -1.5228604538,
				"y": -2.1979423383,
				"z": 1.3870461438,
				"element": "H" 
			},
			{
				"x": -3.270376065,
				"y": 1.4786070719,
				"z": 1.6081434411,
				"element": "H" 
			}
		],
		 "valence_orbital": [ 
			{
				"type": "occ",
				"energy": -0.29043,
				"method": "rhf"
			},
			{
				"type": "occ",
				"energy": -0.27297,
				"method": "rhf"
			},
			{
				"type": "occ",
				"energy": -0.26565,
				"method": "rhf"
			},
			{
				"type": "occ",
				"energy": -0.25039,
				"method": "rhf"
			},
			{
				"type": "occ",
				"energy": -0.22243,
				"method": "rhf"
			},
			{
				"type": "unocc",
				"energy": -0.02113,
				"method": "rhf"
			},
			{
				"type": "unocc",
				"energy": -3e-05,
				"method": "rhf"
			},
			{
				"type": "unocc",
				"energy": 0.00908,
				"method": "rhf"
			},
			{
				"type": "unocc",
				"energy": 0.05857,
				"method": "rhf"
			},
			{
				"type": "unocc",
				"energy": 0.07096,
				"method": "rhf"
			}
		],
		"cosmo_sigma_profile": { 
			"-0.025": 0.0,
			"-0.024": 0.0,
			"-0.023": 0.0,
			"-0.022": 0.0,
			"-0.021": 0.0,
			"-0.02": 0.0,
			"-0.019": 0.0,
			"-0.018": 0.0,
			"-0.017": 0.406786692979,
			"-0.016": 1.70578186207,
			"-0.015": 1.86234684,
			"-0.014": 1.90452587211,
			"-0.013": 1.70347424156,
			"-0.012": 2.07174908526,
			"-0.011": 1.95209454709,
			"-0.01": 2.13823735562,
			"-0.009": 2.38678128719,
			"-0.008": 2.06082538154,
			"-0.007": 3.24916966846,
			"-0.006": 10.1612305038,
			"-0.005": 21.3088707168,
			"-0.004": 21.676332716,
			"-0.003": 24.9394770167,
			"-0.002": 19.2006157319,
			"-0.001": 17.6793665261,
			"0.0": 11.6757890381,
			"0.001": 10.0899252951,
			"0.002": 11.181048634,
			"0.003": 12.3920528564,
			"0.004": 13.8891729253,
			"0.005": 12.3637991738,
			"0.006": 7.38862973107,
			"0.007": 3.85188549312,
			"0.008": 2.89115717619,
			"0.009": 4.6837311386,
			"0.01": 5.09752963641,
			"0.011": 5.85216255071,
			"0.012": 7.98845911254,
			"0.013": 6.01148064954,
			"0.014": 0.650442354994,
			"0.015": 0.0,
			"0.016": 0.0,
			"0.017": 0.0,
			"0.018": 0.0,
			"0.019": 0.0,
			"0.02": 0.0,
			"0.021": 0.0,
			"0.022": 0.0,
			"0.023": 0.0,
			"0.024": 0.0,
			"0.025": 0.0
		}
	}
}
