{
	 "smiles": "CC1=CC=C(NN=C(C(=O)C2=C3C=CC=CC3=CC=C2)S(=O)(=O)C2=CC=CC=C2)C=C1", 
	 "Tm": 382.15, 
	 "num_atms": 51, 
	 "gaussian": { 
		 "optdone": 1, 
		 "sigma_profile": "yes", 
		 "theory": "DFT", 
		 "functional": "B3LYP", 
		 "basiset": "6-31G**", 
		 "properties": { 
			 "R2extent": 15675.6049, 
			 "electric_dipole_moment_norm": 1.94723317813, 
			 "electric_quadrupole_moment_norm": 28.4095228717, 
			 "total_energy": -1697.97481149, 
			 "HOMO_LUMO_gap": 0.13773, 
			 "cosmo_polarized_energy": -20.89, 
			 "cosmo_cavitation_energy": 56.61, 
			 "cosmo_dispersion_energy": -37.85, 
			 "cosmo_repulsion_energy": 2.8, 
			 "cosmo_total_nonelectrostatic_energy": 21.56, 
			 "SMD_solvation_energy": 8.5 
		},
		"coords": [
			{
				"x": 2.4820036997,
				"y": 5.575206554,
				"z": -3.7149606732,
				"element": "C" 
			},
			{
				"x": 2.0289778591,
				"y": 4.2928657455,
				"z": -3.0583398641,
				"element": "C" 
			},
			{
				"x": 2.6774310423,
				"y": 3.0778962376,
				"z": -3.3091296732,
				"element": "C" 
			},
			{
				"x": 2.276335541,
				"y": 1.8986285626,
				"z": -2.684123512,
				"element": "C" 
			},
			{
				"x": 1.2021834239,
				"y": 1.9179684423,
				"z": -1.7884736994,
				"element": "C" 
			},
			{
				"x": 0.8222196757,
				"y": 0.7056540264,
				"z": -1.1805574037,
				"element": "N" 
			},
			{
				"x": -0.1404460391,
				"y": 0.6803585606,
				"z": -0.2982549512,
				"element": "N" 
			},
			{
				"x": -0.5747743827,
				"y": -0.3604669327,
				"z": 0.3496990003,
				"element": "C" 
			},
			{
				"x": -1.7507730277,
				"y": -0.1037782169,
				"z": 1.2634627743,
				"element": "C" 
			},
			{
				"x": -2.5775654909,
				"y": 0.7340888784,
				"z": 0.9365464687,
				"element": "O" 
			},
			{
				"x": -1.9315807826,
				"y": -0.8875566529,
				"z": 2.5319593355,
				"element": "C" 
			},
			{
				"x": -0.929413592,
				"y": -0.9891543841,
				"z": 3.5527793216,
				"element": "C" 
			},
			{
				"x": 0.3357301089,
				"y": -0.3444997578,
				"z": 3.4790020907,
				"element": "C" 
			},
			{
				"x": 1.2503692175,
				"y": -0.4564652543,
				"z": 4.5016271441,
				"element": "C" 
			},
			{
				"x": 0.9522679317,
				"y": -1.2175097117,
				"z": 5.6566572548,
				"element": "C" 
			},
			{
				"x": -0.2680208143,
				"y": -1.8411656674,
				"z": 5.7697092907,
				"element": "C" 
			},
			{
				"x": -1.2393565146,
				"y": -1.7385448413,
				"z": 4.737111355,
				"element": "C" 
			},
			{
				"x": -2.516373334,
				"y": -2.3458823238,
				"z": 4.8674493723,
				"element": "C" 
			},
			{
				"x": -3.4733135466,
				"y": -2.1983555931,
				"z": 3.8892616079,
				"element": "C" 
			},
			{
				"x": -3.1820244344,
				"y": -1.4502372337,
				"z": 2.7289700452,
				"element": "C" 
			},
			{
				"x": 0.0197532384,
				"y": -2.0627961225,
				"z": 0.0584037043,
				"element": "S" 
			},
			{
				"x": 0.9875922717,
				"y": -1.952856041,
				"z": -1.0649278,
				"element": "O" 
			},
			{
				"x": 0.4268079276,
				"y": -2.7157024865,
				"z": 1.3085629061,
				"element": "O" 
			},
			{
				"x": -1.4229340593,
				"y": -2.9349554785,
				"z": -0.570220167,
				"element": "C" 
			},
			{
				"x": -2.0882382237,
				"y": -3.8338192001,
				"z": 0.2649207286,
				"element": "C" 
			},
			{
				"x": -3.1965593296,
				"y": -4.5197048194,
				"z": -0.2345203883,
				"element": "C" 
			},
			{
				"x": -3.6250818788,
				"y": -4.300567837,
				"z": -1.5453521996,
				"element": "C" 
			},
			{
				"x": -2.9452553187,
				"y": -3.4002684358,
				"z": -2.3710363441,
				"element": "C" 
			},
			{
				"x": -1.834038061,
				"y": -2.7121300845,
				"z": -1.8873050625,
				"element": "C" 
			},
			{
				"x": 0.5320347496,
				"y": 3.1195149717,
				"z": -1.5253420389,
				"element": "C" 
			},
			{
				"x": 0.9513541063,
				"y": 4.2845225962,
				"z": -2.1584214832,
				"element": "C" 
			},
			{
				"x": 3.0767799017,
				"y": 6.1881628194,
				"z": -3.0260223817,
				"element": "H" 
			},
			{
				"x": 3.1017267165,
				"y": 5.3771350505,
				"z": -4.5942101638,
				"element": "H" 
			},
			{
				"x": 1.6300875668,
				"y": 6.18491088,
				"z": -4.0334766112,
				"element": "H" 
			},
			{
				"x": 3.5120531561,
				"y": 3.0491483559,
				"z": -4.0047629424,
				"element": "H" 
			},
			{
				"x": 2.7944249857,
				"y": 0.9658284946,
				"z": -2.8918340427,
				"element": "H" 
			},
			{
				"x": 1.2847508504,
				"y": -0.1702429337,
				"z": -1.435944476,
				"element": "H" 
			},
			{
				"x": 0.5793447097,
				"y": 0.2534629967,
				"z": 2.6083058165,
				"element": "H" 
			},
			{
				"x": 2.2103726205,
				"y": 0.0450835317,
				"z": 4.4220931631,
				"element": "H" 
			},
			{
				"x": 1.6854941187,
				"y": -1.2995956257,
				"z": 6.4535899081,
				"element": "H" 
			},
			{
				"x": -0.5143192263,
				"y": -2.4162222941,
				"z": 6.6586617093,
				"element": "H" 
			},
			{
				"x": -2.7302844007,
				"y": -2.9191226226,
				"z": 5.7660460073,
				"element": "H" 
			},
			{
				"x": -4.4538577096,
				"y": -2.6502744511,
				"z": 4.0056492328,
				"element": "H" 
			},
			{
				"x": -3.9392374501,
				"y": -1.3195758846,
				"z": 1.962631164,
				"element": "H" 
			},
			{
				"x": -1.7310843135,
				"y": -3.9925135535,
				"z": 1.2759471552,
				"element": "H" 
			},
			{
				"x": -3.7220423871,
				"y": -5.2265265348,
				"z": 0.4003353343,
				"element": "H" 
			},
			{
				"x": -4.4889228361,
				"y": -4.8361953933,
				"z": -1.9279823507,
				"element": "H" 
			},
			{
				"x": -3.2764985666,
				"y": -3.2390631753,
				"z": -3.3922458326,
				"element": "H" 
			},
			{
				"x": -1.2841860267,
				"y": -2.0257459103,
				"z": -2.5223031783,
				"element": "H" 
			},
			{
				"x": -0.3064562707,
				"y": 3.121426121,
				"z": -0.838810431,
				"element": "H" 
			},
			{
				"x": 0.4238425977,
				"y": 5.2124326293,
				"z": -1.9512242198,
				"element": "H" 
			}
		],
		 "valence_orbital": [ 
			{
				"type": "occ",
				"energy": -0.25586,
				"method": "rhf"
			},
			{
				"type": "occ",
				"energy": -0.2487,
				"method": "rhf"
			},
			{
				"type": "occ",
				"energy": -0.24265,
				"method": "rhf"
			},
			{
				"type": "occ",
				"energy": -0.21579,
				"method": "rhf"
			},
			{
				"type": "occ",
				"energy": -0.21198,
				"method": "rhf"
			},
			{
				"type": "unocc",
				"energy": -0.07425,
				"method": "rhf"
			},
			{
				"type": "unocc",
				"energy": -0.04662,
				"method": "rhf"
			},
			{
				"type": "unocc",
				"energy": -0.03695,
				"method": "rhf"
			},
			{
				"type": "unocc",
				"energy": -0.02377,
				"method": "rhf"
			},
			{
				"type": "unocc",
				"energy": -0.0087,
				"method": "rhf"
			}
		],
		"cosmo_sigma_profile": { 
			"-0.025": 0.0,
			"-0.024": 0.0,
			"-0.023": 0.0,
			"-0.022": 0.0,
			"-0.021": 0.0,
			"-0.02": 0.0,
			"-0.019": 0.0,
			"-0.018": 0.0,
			"-0.017": 0.0,
			"-0.016": 0.0,
			"-0.015": 0.0,
			"-0.014": 0.0,
			"-0.013": 0.00983911111795,
			"-0.012": 0.352306692382,
			"-0.011": 1.10751757814,
			"-0.01": 1.13455660205,
			"-0.009": 0.667623283937,
			"-0.008": 2.30427820337,
			"-0.007": 13.9618050125,
			"-0.006": 30.7208272292,
			"-0.005": 36.1583111658,
			"-0.004": 38.823632505,
			"-0.003": 32.8499602885,
			"-0.002": 30.693289093,
			"-0.001": 31.37855289,
			"0.0": 33.3017478679,
			"0.001": 36.4129224999,
			"0.002": 34.9108640002,
			"0.003": 36.7029113891,
			"0.004": 25.2384948687,
			"0.005": 18.5394549017,
			"0.006": 6.38872112449,
			"0.007": 5.6599027862,
			"0.008": 5.70855197393,
			"0.009": 7.22820210475,
			"0.01": 8.6037490994,
			"0.011": 9.84387975521,
			"0.012": 4.3849968888,
			"0.013": 1.2214431917,
			"0.014": 0.0,
			"0.015": 0.0,
			"0.016": 0.0,
			"0.017": 0.0,
			"0.018": 0.0,
			"0.019": 0.0,
			"0.02": 0.0,
			"0.021": 0.0,
			"0.022": 0.0,
			"0.023": 0.0,
			"0.024": 0.0,
			"0.025": 0.0
		}
	}
}
