{
	 "smiles": "CC(C)(C(O)=O)C1=CC=CC=C1", 
	 "Tm": 353.15, 
	 "num_atms": 24, 
	 "gaussian": { 
		 "optdone": 1, 
		 "sigma_profile": "yes", 
		 "theory": "DFT", 
		 "functional": "B3LYP", 
		 "basiset": "6-31G**", 
		 "properties": { 
			 "R2extent": 2467.8178, 
			 "electric_dipole_moment_norm": 1.45556345447, 
			 "electric_quadrupole_moment_norm": 5.1980110148, 
			 "total_energy": -538.766258131, 
			 "HOMO_LUMO_gap": 0.23373, 
			 "cosmo_polarized_energy": -9.28, 
			 "cosmo_cavitation_energy": 26.66, 
			 "cosmo_dispersion_energy": -18.95, 
			 "cosmo_repulsion_energy": 1.51, 
			 "cosmo_total_nonelectrostatic_energy": 9.22, 
			 "SMD_solvation_energy": 5.77 
		},
		"coords": [
			{
				"x": -1.5267037771,
				"y": -1.3469467155,
				"z": -0.2642403706,
				"element": "C" 
			},
			{
				"x": -1.0692638514,
				"y": 0.1225749288,
				"z": -0.3573439152,
				"element": "C" 
			},
			{
				"x": -1.0784217893,
				"y": 0.7494700361,
				"z": 1.0533261357,
				"element": "C" 
			},
			{
				"x": -2.048297499,
				"y": 0.9035144448,
				"z": -1.2456144064,
				"element": "C" 
			},
			{
				"x": -2.3577860114,
				"y": 0.2399699716,
				"z": -2.3852720923,
				"element": "O" 
			},
			{
				"x": -2.497910064,
				"y": 2.0036350909,
				"z": -1.0029352878,
				"element": "O" 
			},
			{
				"x": 0.3316548963,
				"y": 0.2822238373,
				"z": -0.9858097835,
				"element": "C" 
			},
			{
				"x": 0.8142353129,
				"y": 1.5709516529,
				"z": -1.2684064209,
				"element": "C" 
			},
			{
				"x": 2.0865152089,
				"y": 1.760596542,
				"z": -1.8046705746,
				"element": "C" 
			},
			{
				"x": 2.9089086989,
				"y": 0.663052736,
				"z": -2.0678592672,
				"element": "C" 
			},
			{
				"x": 2.4413856757,
				"y": -0.6210245572,
				"z": -1.7935848036,
				"element": "C" 
			},
			{
				"x": 1.1633318075,
				"y": -0.8098391473,
				"z": -1.26069653,
				"element": "C" 
			},
			{
				"x": -2.5457415387,
				"y": -1.3965618855,
				"z": 0.1314606802,
				"element": "H" 
			},
			{
				"x": -1.5182271408,
				"y": -1.8409906513,
				"z": -1.2374269015,
				"element": "H" 
			},
			{
				"x": -0.8806092117,
				"y": -1.9029803939,
				"z": 0.4214323971,
				"element": "H" 
			},
			{
				"x": -0.826097384,
				"y": 1.8102107934,
				"z": 1.0216751212,
				"element": "H" 
			},
			{
				"x": -2.0682793128,
				"y": 0.65575631,
				"z": 1.5106931658,
				"element": "H" 
			},
			{
				"x": -0.3504438916,
				"y": 0.2354262682,
				"z": 1.6875968995,
				"element": "H" 
			},
			{
				"x": -2.9465549487,
				"y": 0.8304299819,
				"z": -2.8847126508,
				"element": "H" 
			},
			{
				"x": 0.1825580412,
				"y": 2.4333915317,
				"z": -1.0749550461,
				"element": "H" 
			},
			{
				"x": 2.4350012352,
				"y": 2.7673761909,
				"z": -2.0175258768,
				"element": "H" 
			},
			{
				"x": 3.9014398573,
				"y": 0.8084108533,
				"z": -2.4844312412,
				"element": "H" 
			},
			{
				"x": 3.0688793745,
				"y": -1.4846276436,
				"z": -1.9959183106,
				"element": "H" 
			},
			{
				"x": 0.824326312,
				"y": -1.8203201755,
				"z": -1.0625809205,
				"element": "H" 
			}
		],
		 "valence_orbital": [ 
			{
				"type": "occ",
				"energy": -0.3302,
				"method": "rhf"
			},
			{
				"type": "occ",
				"energy": -0.31738,
				"method": "rhf"
			},
			{
				"type": "occ",
				"energy": -0.27333,
				"method": "rhf"
			},
			{
				"type": "occ",
				"energy": -0.24966,
				"method": "rhf"
			},
			{
				"type": "occ",
				"energy": -0.24255,
				"method": "rhf"
			},
			{
				"type": "unocc",
				"energy": -0.00882,
				"method": "rhf"
			},
			{
				"type": "unocc",
				"energy": -0.00313,
				"method": "rhf"
			},
			{
				"type": "unocc",
				"energy": 0.02004,
				"method": "rhf"
			},
			{
				"type": "unocc",
				"energy": 0.07626,
				"method": "rhf"
			},
			{
				"type": "unocc",
				"energy": 0.09385,
				"method": "rhf"
			}
		],
		"cosmo_sigma_profile": { 
			"-0.025": 0.0,
			"-0.024": 0.0,
			"-0.023": 0.0,
			"-0.022": 0.0,
			"-0.021": 0.0,
			"-0.02": 0.0,
			"-0.019": 0.000585690798698,
			"-0.018": 0.72897246892,
			"-0.017": 0.937652655615,
			"-0.016": 1.0147616394,
			"-0.015": 0.835894780688,
			"-0.014": 0.297148068629,
			"-0.013": 0.392151563276,
			"-0.012": 0.681180134903,
			"-0.011": 1.27524441719,
			"-0.01": 0.84861156325,
			"-0.009": 0.336609894241,
			"-0.008": 0.482332424383,
			"-0.007": 0.750874607722,
			"-0.006": 4.23408437502,
			"-0.005": 12.0351291665,
			"-0.004": 19.9891543434,
			"-0.003": 24.5064638466,
			"-0.002": 17.1177558151,
			"-0.001": 18.3952995187,
			"0.0": 18.765892653,
			"0.001": 16.3393392344,
			"0.002": 8.49237166827,
			"0.003": 10.5619625676,
			"0.004": 10.5954156194,
			"0.005": 12.0262492699,
			"0.006": 10.319786231,
			"0.007": 3.74257446781,
			"0.008": 2.62853039909,
			"0.009": 2.22621995146,
			"0.01": 1.55246109727,
			"0.011": 3.44636450809,
			"0.012": 4.06920832551,
			"0.013": 0.217489174774,
			"0.014": 0.0,
			"0.015": 0.0,
			"0.016": 0.0,
			"0.017": 0.0,
			"0.018": 0.0,
			"0.019": 0.0,
			"0.02": 0.0,
			"0.021": 0.0,
			"0.022": 0.0,
			"0.023": 0.0,
			"0.024": 0.0,
			"0.025": 0.0
		}
	}
}
