{
	 "smiles": "CN1CN(C)CN(C)C1", 
	 "Tm": 246.15, 
	 "num_atms": 24, 
	 "gaussian": { 
		 "optdone": 1, 
		 "sigma_profile": "yes", 
		 "theory": "DFT", 
		 "functional": "B3LYP", 
		 "basiset": "6-31G**", 
		 "properties": { 
			 "R2extent": 1751.1155, 
			 "electric_dipole_moment_norm": 0.792785885344, 
			 "electric_quadrupole_moment_norm": 2.63329145368, 
			 "total_energy": -401.897838923, 
			 "HOMO_LUMO_gap": 0.274, 
			 "cosmo_polarized_energy": -5.38, 
			 "cosmo_cavitation_energy": 23.72, 
			 "cosmo_dispersion_energy": -17.64, 
			 "cosmo_repulsion_energy": 1.41, 
			 "cosmo_total_nonelectrostatic_energy": 7.5, 
			 "SMD_solvation_energy": -3.0 
		},
		"coords": [
			{
				"x": 1.8602659432,
				"y": -0.0505910842,
				"z": -2.6073684112,
				"element": "C" 
			},
			{
				"x": 0.9498563675,
				"y": -0.5833939511,
				"z": -1.5953798524,
				"element": "N" 
			},
			{
				"x": 1.5563987224,
				"y": -1.4149395856,
				"z": -0.5518055374,
				"element": "C" 
			},
			{
				"x": 2.2225189468,
				"y": -0.7111453247,
				"z": 0.5479815084,
				"element": "N" 
			},
			{
				"x": 3.5735498729,
				"y": -0.2227783975,
				"z": 0.2780618297,
				"element": "C" 
			},
			{
				"x": 1.3339292676,
				"y": 0.3071986613,
				"z": 1.0753070314,
				"element": "C" 
			},
			{
				"x": 0.8453855138,
				"y": 1.2213996803,
				"z": 0.0276532883,
				"element": "N" 
			},
			{
				"x": 0.018627538,
				"y": 2.2807803745,
				"z": 0.5818560788,
				"element": "C" 
			},
			{
				"x": 0.1147269298,
				"y": 0.4296755396,
				"z": -0.978108312,
				"element": "C" 
			},
			{
				"x": 1.2749611137,
				"y": 0.3073290705,
				"z": -3.462814975,
				"element": "H" 
			},
			{
				"x": 2.4923919808,
				"y": 0.7796335516,
				"z": -2.2611176789,
				"element": "H" 
			},
			{
				"x": 2.5101212328,
				"y": -0.8543561129,
				"z": -2.9674847267,
				"element": "H" 
			},
			{
				"x": 0.7415122338,
				"y": -1.9993253429,
				"z": -0.1028026878,
				"element": "H" 
			},
			{
				"x": 2.261368903,
				"y": -2.1129692797,
				"z": -1.0120005967,
				"element": "H" 
			},
			{
				"x": 3.6171294872,
				"y": 0.6672907292,
				"z": -0.3659069358,
				"element": "H" 
			},
			{
				"x": 4.0609830842,
				"y": 0.0262136428,
				"z": 1.2282722028,
				"element": "H" 
			},
			{
				"x": 4.1583156503,
				"y": -1.0197409844,
				"z": -0.1919592501,
				"element": "H" 
			},
			{
				"x": 1.8573939527,
				"y": 0.8936604165,
				"z": 1.8385499904,
				"element": "H" 
			},
			{
				"x": 0.4822910377,
				"y": -0.2038573092,
				"z": 1.5702692448,
				"element": "H" 
			},
			{
				"x": -0.3046227034,
				"y": 2.9567008645,
				"z": -0.2172125503,
				"element": "H" 
			},
			{
				"x": -0.8890488165,
				"y": 1.910785609,
				"z": 1.0985222733,
				"element": "H" 
			},
			{
				"x": 0.5984900217,
				"y": 2.8655031275,
				"z": 1.3041786219,
				"element": "H" 
			},
			{
				"x": -0.7542719204,
				"y": -0.0795839269,
				"z": -0.5122891677,
				"element": "H" 
			},
			{
				"x": -0.2715743595,
				"y": 1.1076100318,
				"z": -1.7473013876,
				"element": "H" 
			}
		],
		 "valence_orbital": [ 
			{
				"type": "occ",
				"energy": -0.3484,
				"method": "rhf"
			},
			{
				"type": "occ",
				"energy": -0.34664,
				"method": "rhf"
			},
			{
				"type": "occ",
				"energy": -0.23559,
				"method": "rhf"
			},
			{
				"type": "occ",
				"energy": -0.21526,
				"method": "rhf"
			},
			{
				"type": "occ",
				"energy": -0.19515,
				"method": "rhf"
			},
			{
				"type": "unocc",
				"energy": 0.07885,
				"method": "rhf"
			},
			{
				"type": "unocc",
				"energy": 0.10526,
				"method": "rhf"
			},
			{
				"type": "unocc",
				"energy": 0.12338,
				"method": "rhf"
			},
			{
				"type": "unocc",
				"energy": 0.12733,
				"method": "rhf"
			},
			{
				"type": "unocc",
				"energy": 0.13142,
				"method": "rhf"
			}
		],
		"cosmo_sigma_profile": { 
			"-0.025": 0.0,
			"-0.024": 0.0,
			"-0.023": 0.0,
			"-0.022": 0.0,
			"-0.021": 0.0,
			"-0.02": 0.0,
			"-0.019": 0.0,
			"-0.018": 0.0,
			"-0.017": 0.0,
			"-0.016": 0.0,
			"-0.015": 0.0,
			"-0.014": 0.0,
			"-0.013": 0.0,
			"-0.012": 0.0,
			"-0.011": 0.0,
			"-0.01": 0.0,
			"-0.009": 0.0,
			"-0.008": 0.0,
			"-0.007": 0.0,
			"-0.006": 0.0,
			"-0.005": 3.31254587608,
			"-0.004": 19.0221236465,
			"-0.003": 23.2271456865,
			"-0.002": 31.6055726069,
			"-0.001": 31.7068080011,
			"0.0": 28.9661092039,
			"0.001": 9.78909563919,
			"0.002": 4.08162818597,
			"0.003": 4.0800918994,
			"0.004": 2.9521707807,
			"0.005": 3.75777399549,
			"0.006": 2.88073108927,
			"0.007": 2.32142049136,
			"0.008": 3.02349092691,
			"0.009": 2.11422026342,
			"0.01": 1.76043749817,
			"0.011": 1.68714955042,
			"0.012": 1.97273190796,
			"0.013": 1.67123012967,
			"0.014": 0.876329709219,
			"0.015": 0.900131991746,
			"0.016": 0.617762570235,
			"0.017": 0.0659526689229,
			"0.018": 0.0,
			"0.019": 0.0,
			"0.02": 0.0,
			"0.021": 0.0,
			"0.022": 0.0,
			"0.023": 0.0,
			"0.024": 0.0,
			"0.025": 0.0
		}
	}
}
