{
	 "smiles": "CC(C)(C)N(NC(=O)C1=CC=CC=C1)C(=O)C1=CC=C(Cl)C=C1", 
	 "Tm": 485.15, 
	 "num_atms": 42, 
	 "gaussian": { 
		 "optdone": 1, 
		 "sigma_profile": "yes", 
		 "theory": "DFT", 
		 "functional": "B3LYP", 
		 "basiset": "6-31G**", 
		 "properties": { 
			 "R2extent": 10604.0482, 
			 "electric_dipole_moment_norm": 2.798742071, 
			 "electric_quadrupole_moment_norm": 16.7081672292, 
			 "total_energy": -1417.5076701, 
			 "HOMO_LUMO_gap": 0.18965, 
			 "cosmo_polarized_energy": -14.41, 
			 "cosmo_cavitation_energy": 45.13, 
			 "cosmo_dispersion_energy": -30.49, 
			 "cosmo_repulsion_energy": 2.31, 
			 "cosmo_total_nonelectrostatic_energy": 16.95, 
			 "SMD_solvation_energy": 9.02 
		},
		"coords": [
			{
				"x": 1.775485209,
				"y": 1.5201976021,
				"z": 0.1275477508,
				"element": "C" 
			},
			{
				"x": 1.3663169816,
				"y": 0.8390678677,
				"z": 1.4467312611,
				"element": "C" 
			},
			{
				"x": 0.3453507274,
				"y": 1.7426963714,
				"z": 2.1561142595,
				"element": "C" 
			},
			{
				"x": 2.5803232982,
				"y": 0.6289736729,
				"z": 2.3723365248,
				"element": "C" 
			},
			{
				"x": 0.7144714754,
				"y": -0.510387642,
				"z": 1.1386630789,
				"element": "N" 
			},
			{
				"x": -0.2701968001,
				"y": -0.95411078,
				"z": 2.0188573586,
				"element": "N" 
			},
			{
				"x": -1.6261133802,
				"y": -0.6540619356,
				"z": 2.0302878367,
				"element": "C" 
			},
			{
				"x": -2.2345657549,
				"y": -0.9087553185,
				"z": 3.0646512485,
				"element": "O" 
			},
			{
				"x": -2.3441271357,
				"y": -0.0914718068,
				"z": 0.83352502,
				"element": "C" 
			},
			{
				"x": -3.6773047921,
				"y": 0.2877633363,
				"z": 1.0682886497,
				"element": "C" 
			},
			{
				"x": -4.4638258559,
				"y": 0.8001915855,
				"z": 0.0413072362,
				"element": "C" 
			},
			{
				"x": -3.9350518411,
				"y": 0.9346035945,
				"z": -1.2449944503,
				"element": "C" 
			},
			{
				"x": -2.6159630343,
				"y": 0.554263507,
				"z": -1.4929938126,
				"element": "C" 
			},
			{
				"x": -1.8207560109,
				"y": 0.0477877737,
				"z": -0.4635578704,
				"element": "C" 
			},
			{
				"x": 1.4747234196,
				"y": -1.5146644823,
				"z": 0.5231434347,
				"element": "C" 
			},
			{
				"x": 2.5860663156,
				"y": -1.2763157499,
				"z": 0.0634430254,
				"element": "O" 
			},
			{
				"x": 0.9378701348,
				"y": -2.922010017,
				"z": 0.4322586788,
				"element": "C" 
			},
			{
				"x": -0.3932551038,
				"y": -3.2808599964,
				"z": 0.1761433741,
				"element": "C" 
			},
			{
				"x": -0.7528817579,
				"y": -4.6177637197,
				"z": 0.0160739369,
				"element": "C" 
			},
			{
				"x": 0.2231211531,
				"y": -5.6071419573,
				"z": 0.1296938512,
				"element": "C" 
			},
			{
				"x": -0.2312018023,
				"y": -7.2930242641,
				"z": -0.0504098415,
				"element": "Cl" 
			},
			{
				"x": 1.5557328656,
				"y": -5.2774106097,
				"z": 0.3756951244,
				"element": "C" 
			},
			{
				"x": 1.9048483986,
				"y": -3.9367970327,
				"z": 0.5086774762,
				"element": "C" 
			},
			{
				"x": 0.9017911549,
				"y": 1.6643822214,
				"z": -0.5156687097,
				"element": "H" 
			},
			{
				"x": 2.1911491803,
				"y": 2.5078236139,
				"z": 0.3522623389,
				"element": "H" 
			},
			{
				"x": 2.5223067414,
				"y": 0.9405391385,
				"z": -0.4111470872,
				"element": "H" 
			},
			{
				"x": 0.040306934,
				"y": 1.3543396304,
				"z": 3.1307272739,
				"element": "H" 
			},
			{
				"x": 0.8153935173,
				"y": 2.7161432103,
				"z": 2.3217277944,
				"element": "H" 
			},
			{
				"x": -0.5483736088,
				"y": 1.9047820422,
				"z": 1.5487564435,
				"element": "H" 
			},
			{
				"x": 2.2777982384,
				"y": 0.1439213732,
				"z": 3.3079353791,
				"element": "H" 
			},
			{
				"x": 3.0172225509,
				"y": 1.5982469731,
				"z": 2.6328982381,
				"element": "H" 
			},
			{
				"x": 3.3463288966,
				"y": 0.0222068201,
				"z": 1.8893083781,
				"element": "H" 
			},
			{
				"x": 0.0392919614,
				"y": -1.2829203686,
				"z": 2.9295406931,
				"element": "H" 
			},
			{
				"x": -4.0727735633,
				"y": 0.1634517446,
				"z": 2.069839822,
				"element": "H" 
			},
			{
				"x": -5.4905761653,
				"y": 1.0913865273,
				"z": 0.2423363782,
				"element": "H" 
			},
			{
				"x": -4.548056634,
				"y": 1.3318195885,
				"z": -2.0489816276,
				"element": "H" 
			},
			{
				"x": -2.1987393582,
				"y": 0.6509029324,
				"z": -2.4909747425,
				"element": "H" 
			},
			{
				"x": -0.798383122,
				"y": -0.2318051831,
				"z": -0.6750510358,
				"element": "H" 
			},
			{
				"x": -1.1614202014,
				"y": -2.5258881644,
				"z": 0.0740088255,
				"element": "H" 
			},
			{
				"x": -1.7815247573,
				"y": -4.8890652231,
				"z": -0.1929279571,
				"element": "H" 
			},
			{
				"x": 2.3057201814,
				"y": -6.0566896316,
				"z": 0.4517763158,
				"element": "H" 
			},
			{
				"x": 2.9408713442,
				"y": -3.6582472442,
				"z": 0.6663501277,
				"element": "H" 
			}
		],
		 "valence_orbital": [ 
			{
				"type": "occ",
				"energy": -0.26767,
				"method": "rhf"
			},
			{
				"type": "occ",
				"energy": -0.26667,
				"method": "rhf"
			},
			{
				"type": "occ",
				"energy": -0.26183,
				"method": "rhf"
			},
			{
				"type": "occ",
				"energy": -0.25638,
				"method": "rhf"
			},
			{
				"type": "occ",
				"energy": -0.24453,
				"method": "rhf"
			},
			{
				"type": "unocc",
				"energy": -0.05488,
				"method": "rhf"
			},
			{
				"type": "unocc",
				"energy": -0.04532,
				"method": "rhf"
			},
			{
				"type": "unocc",
				"energy": -0.01895,
				"method": "rhf"
			},
			{
				"type": "unocc",
				"energy": -0.01534,
				"method": "rhf"
			},
			{
				"type": "unocc",
				"energy": 0.02597,
				"method": "rhf"
			}
		],
		"cosmo_sigma_profile": { 
			"-0.025": 0.0,
			"-0.024": 0.0,
			"-0.023": 0.0,
			"-0.022": 0.0,
			"-0.021": 0.0,
			"-0.02": 0.0,
			"-0.019": 0.0,
			"-0.018": 0.0,
			"-0.017": 0.0,
			"-0.016": 0.0,
			"-0.015": 0.0,
			"-0.014": 0.122270052025,
			"-0.013": 1.02159384399,
			"-0.012": 0.892610146827,
			"-0.011": 1.5183915486,
			"-0.01": 1.54562639442,
			"-0.009": 1.89361326852,
			"-0.008": 2.27511950119,
			"-0.007": 7.42757298839,
			"-0.006": 15.8241923644,
			"-0.005": 19.6514217408,
			"-0.004": 26.2986095966,
			"-0.003": 27.2373601341,
			"-0.002": 31.6541737593,
			"-0.001": 30.1553634086,
			"0.0": 36.1938088458,
			"0.001": 37.0041687385,
			"0.002": 29.5985265183,
			"0.003": 28.6221176152,
			"0.004": 24.4951367651,
			"0.005": 7.62150561953,
			"0.006": 3.20071855284,
			"0.007": 2.55004479628,
			"0.008": 3.52277536087,
			"0.009": 2.8770665959,
			"0.01": 3.18964958539,
			"0.011": 3.00337285357,
			"0.012": 5.84972114132,
			"0.013": 5.31954333145,
			"0.014": 0.198833282189,
			"0.015": 0.0,
			"0.016": 0.0,
			"0.017": 0.0,
			"0.018": 0.0,
			"0.019": 0.0,
			"0.02": 0.0,
			"0.021": 0.0,
			"0.022": 0.0,
			"0.023": 0.0,
			"0.024": 0.0,
			"0.025": 0.0
		}
	}
}
