{
	 "smiles": "CC1=C(C(NC(=O)N1)C1=CC(O)=C(O)C=C1)C(=O)OCC1=CC=CC=C1", 
	 "Tm": 488.15, 
	 "num_atms": 44, 
	 "gaussian": { 
		 "optdone": 1, 
		 "sigma_profile": "yes", 
		 "theory": "DFT", 
		 "functional": "B3LYP", 
		 "basiset": "6-31G**", 
		 "properties": { 
			 "R2extent": 10869.3186, 
			 "electric_dipole_moment_norm": 1.75698833519, 
			 "electric_quadrupole_moment_norm": 24.7265570852, 
			 "total_energy": -1220.52330115, 
			 "HOMO_LUMO_gap": 0.1701, 
			 "cosmo_polarized_energy": -24.79, 
			 "cosmo_cavitation_energy": 48.23, 
			 "cosmo_dispersion_energy": -32.94, 
			 "cosmo_repulsion_energy": 2.53, 
			 "cosmo_total_nonelectrostatic_energy": 17.82, 
			 "SMD_solvation_energy": 9.62 
		},
		"coords": [
			{
				"x": 0.3040968455,
				"y": 3.5588083352,
				"z": 0.2653831189,
				"element": "C" 
			},
			{
				"x": -0.2941520422,
				"y": 2.3990171456,
				"z": -0.4822620004,
				"element": "C" 
			},
			{
				"x": -0.2032918923,
				"y": 1.0742191918,
				"z": -0.171878523,
				"element": "C" 
			},
			{
				"x": -0.8464573448,
				"y": 0.0320943,
				"z": -1.0835076838,
				"element": "C" 
			},
			{
				"x": -1.9017560575,
				"y": 0.6685126706,
				"z": -1.8913364796,
				"element": "N" 
			},
			{
				"x": -1.9011738684,
				"y": 1.9647484353,
				"z": -2.3122715735,
				"element": "C" 
			},
			{
				"x": -2.6185011317,
				"y": 2.4218570737,
				"z": -3.1899920463,
				"element": "O" 
			},
			{
				"x": -1.0102453474,
				"y": 2.7840388377,
				"z": -1.6044776813,
				"element": "N" 
			},
			{
				"x": 0.1556523942,
				"y": -0.7243524343,
				"z": -1.9565288174,
				"element": "C" 
			},
			{
				"x": 1.0300404789,
				"y": -0.035805742,
				"z": -2.8136391688,
				"element": "C" 
			},
			{
				"x": 1.9044705996,
				"y": -0.7356264719,
				"z": -3.6326835587,
				"element": "C" 
			},
			{
				"x": 2.7964967785,
				"y": -0.1526609666,
				"z": -4.5040556447,
				"element": "O" 
			},
			{
				"x": 1.9331457796,
				"y": -2.1435626067,
				"z": -3.615769454,
				"element": "C" 
			},
			{
				"x": 2.7945530157,
				"y": -2.8243403982,
				"z": -4.4204740512,
				"element": "O" 
			},
			{
				"x": 1.0712389641,
				"y": -2.828454993,
				"z": -2.765835425,
				"element": "C" 
			},
			{
				"x": 0.1891759594,
				"y": -2.1198002627,
				"z": -1.9446007722,
				"element": "C" 
			},
			{
				"x": 0.522174242,
				"y": 0.5883642722,
				"z": 1.0162126539,
				"element": "C" 
			},
			{
				"x": 1.1766610966,
				"y": 1.2526220174,
				"z": 1.8083790205,
				"element": "O" 
			},
			{
				"x": 0.3810109212,
				"y": -0.7574763797,
				"z": 1.1450449324,
				"element": "O" 
			},
			{
				"x": 1.06957662,
				"y": -1.3925907336,
				"z": 2.2547373597,
				"element": "C" 
			},
			{
				"x": 0.1717191994,
				"y": -1.5465620647,
				"z": 3.458080464,
				"element": "C" 
			},
			{
				"x": -0.5218623552,
				"y": -2.7432277335,
				"z": 3.6752247366,
				"element": "C" 
			},
			{
				"x": -1.3590200119,
				"y": -2.8901315885,
				"z": 4.7823291559,
				"element": "C" 
			},
			{
				"x": -1.5113582553,
				"y": -1.8363586364,
				"z": 5.6848838039,
				"element": "C" 
			},
			{
				"x": -0.8235526897,
				"y": -0.6382704093,
				"z": 5.4762429087,
				"element": "C" 
			},
			{
				"x": 0.0139610595,
				"y": -0.4932356367,
				"z": 4.3704757964,
				"element": "C" 
			},
			{
				"x": -0.4973340119,
				"y": 4.2011290024,
				"z": 0.6507709963,
				"element": "H" 
			},
			{
				"x": 0.9079500556,
				"y": 4.1657607863,
				"z": -0.4203055799,
				"element": "H" 
			},
			{
				"x": 0.9223681721,
				"y": 3.2195174606,
				"z": 1.0906837042,
				"element": "H" 
			},
			{
				"x": -1.3418380713,
				"y": -0.7090583754,
				"z": -0.4511183928,
				"element": "H" 
			},
			{
				"x": -2.4597022512,
				"y": 0.0609625886,
				"z": -2.4755988363,
				"element": "H" 
			},
			{
				"x": -1.1151692464,
				"y": 3.7667750043,
				"z": -1.8131110552,
				"element": "H" 
			},
			{
				"x": 1.0280579668,
				"y": 1.0519638038,
				"z": -2.8392565052,
				"element": "H" 
			},
			{
				"x": 2.6920285257,
				"y": 0.8064712518,
				"z": -4.4886462106,
				"element": "H" 
			},
			{
				"x": 3.2946466592,
				"y": -2.1701271291,
				"z": -4.9313220101,
				"element": "H" 
			},
			{
				"x": 1.1023287841,
				"y": -3.9130625218,
				"z": -2.7590014171,
				"element": "H" 
			},
			{
				"x": -0.475289097,
				"y": -2.6648822525,
				"z": -1.2800161811,
				"element": "H" 
			},
			{
				"x": 1.3683554573,
				"y": -2.3674714249,
				"z": 1.863258901,
				"element": "H" 
			},
			{
				"x": 1.9565017724,
				"y": -0.8032066992,
				"z": 2.4928894755,
				"element": "H" 
			},
			{
				"x": -0.4019608234,
				"y": -3.5662176635,
				"z": 2.9745402208,
				"element": "H" 
			},
			{
				"x": -1.8886693328,
				"y": -3.8252655113,
				"z": 4.9408338973,
				"element": "H" 
			},
			{
				"x": -2.1606441211,
				"y": -1.9487304024,
				"z": 6.5485995854,
				"element": "H" 
			},
			{
				"x": -0.9372082289,
				"y": 0.1829318552,
				"z": 6.1783895396,
				"element": "H" 
			},
			{
				"x": 0.5459748328,
				"y": 0.437285005,
				"z": 4.1983287973,
				"element": "H" 
			}
		],
		 "valence_orbital": [ 
			{
				"type": "occ",
				"energy": -0.25118,
				"method": "rhf"
			},
			{
				"type": "occ",
				"energy": -0.24814,
				"method": "rhf"
			},
			{
				"type": "occ",
				"energy": -0.24143,
				"method": "rhf"
			},
			{
				"type": "occ",
				"energy": -0.22796,
				"method": "rhf"
			},
			{
				"type": "occ",
				"energy": -0.21073,
				"method": "rhf"
			},
			{
				"type": "unocc",
				"energy": -0.04063,
				"method": "rhf"
			},
			{
				"type": "unocc",
				"energy": -0.01003,
				"method": "rhf"
			},
			{
				"type": "unocc",
				"energy": -0.00264,
				"method": "rhf"
			},
			{
				"type": "unocc",
				"energy": -0.00177,
				"method": "rhf"
			},
			{
				"type": "unocc",
				"energy": 0.01325,
				"method": "rhf"
			}
		],
		"cosmo_sigma_profile": { 
			"-0.025": 0.0,
			"-0.024": 0.0,
			"-0.023": 0.0,
			"-0.022": 0.0,
			"-0.021": 0.0,
			"-0.02": 0.0,
			"-0.019": 0.135988917837,
			"-0.018": 0.978348560016,
			"-0.017": 1.04083453293,
			"-0.016": 0.573266554722,
			"-0.015": 2.50315644848,
			"-0.014": 3.32946399764,
			"-0.013": 3.06835128707,
			"-0.012": 2.99836377057,
			"-0.011": 4.24066882033,
			"-0.01": 3.11751593186,
			"-0.009": 4.12979574807,
			"-0.008": 4.34174732275,
			"-0.007": 4.85074380172,
			"-0.006": 19.1643971399,
			"-0.005": 23.975995171,
			"-0.004": 24.9840846328,
			"-0.003": 27.7402123355,
			"-0.002": 23.523917525,
			"-0.001": 24.5512060009,
			"0.0": 24.9210137059,
			"0.001": 24.5885780425,
			"0.002": 24.6794560354,
			"0.003": 24.4720892006,
			"0.004": 25.7020357841,
			"0.005": 25.0586496882,
			"0.006": 15.9573341517,
			"0.007": 6.60624677163,
			"0.008": 4.61826422279,
			"0.009": 3.70504501302,
			"0.01": 3.99034939546,
			"0.011": 5.74957380794,
			"0.012": 3.9612817748,
			"0.013": 5.12100700887,
			"0.014": 4.8682527559,
			"0.015": 0.262595808101,
			"0.016": 0.0,
			"0.017": 0.0,
			"0.018": 0.0,
			"0.019": 0.0,
			"0.02": 0.0,
			"0.021": 0.0,
			"0.022": 0.0,
			"0.023": 0.0,
			"0.024": 0.0,
			"0.025": 0.0
		}
	}
}
