{
	 "smiles": "OC(=O)C=C1CCSCC1", 
	 "Tm": 330.15, 
	 "num_atms": 20, 
	 "gaussian": { 
		 "optdone": 1, 
		 "sigma_profile": "yes", 
		 "theory": "DFT", 
		 "functional": "B3LYP", 
		 "basiset": "6-31G**", 
		 "properties": { 
			 "R2extent": 2501.9987, 
			 "electric_dipole_moment_norm": 1.93211235181, 
			 "electric_quadrupole_moment_norm": 6.78069055628, 
			 "total_energy": -821.41078797, 
			 "HOMO_LUMO_gap": 0.17493, 
			 "cosmo_polarized_energy": -10.95, 
			 "cosmo_cavitation_energy": 24.16, 
			 "cosmo_dispersion_energy": -18.56, 
			 "cosmo_repulsion_energy": 1.46, 
			 "cosmo_total_nonelectrostatic_energy": 7.06, 
			 "SMD_solvation_energy": 4.38 
		},
		"coords": [
			{
				"x": -2.598556224,
				"y": 2.230230032,
				"z": -2.0857772763,
				"element": "O" 
			},
			{
				"x": -1.7983217059,
				"y": 2.0864648672,
				"z": -0.9948677011,
				"element": "C" 
			},
			{
				"x": -1.3899840158,
				"y": 3.0518578752,
				"z": -0.3710422541,
				"element": "O" 
			},
			{
				"x": -1.5322328871,
				"y": 0.6669722835,
				"z": -0.7182493277,
				"element": "C" 
			},
			{
				"x": -0.7334972526,
				"y": 0.2120227927,
				"z": 0.2690852012,
				"element": "C" 
			},
			{
				"x": -0.015036773,
				"y": 1.1077796144,
				"z": 1.2595762479,
				"element": "C" 
			},
			{
				"x": 1.0715694537,
				"y": 0.3892159345,
				"z": 2.0614503506,
				"element": "C" 
			},
			{
				"x": 0.4326683348,
				"y": -1.0041768524,
				"z": 3.0816806453,
				"element": "S" 
			},
			{
				"x": -0.7665405477,
				"y": -1.74600426,
				"z": 1.8840106603,
				"element": "C" 
			},
			{
				"x": -0.5350626568,
				"y": -1.2774641678,
				"z": 0.4399888348,
				"element": "C" 
			},
			{
				"x": -2.7246451417,
				"y": 3.1873115947,
				"z": -2.1941888405,
				"element": "H" 
			},
			{
				"x": -2.0248741267,
				"y": -0.0373914787,
				"z": -1.3817787781,
				"element": "H" 
			},
			{
				"x": -0.7550080299,
				"y": 1.535653512,
				"z": 1.9480531635,
				"element": "H" 
			},
			{
				"x": 0.4097827233,
				"y": 1.968475392,
				"z": 0.7340338231,
				"element": "H" 
			},
			{
				"x": 1.8699330906,
				"y": 0.0276411469,
				"z": 1.405946748,
				"element": "H" 
			},
			{
				"x": 1.5264932796,
				"y": 1.0784886314,
				"z": 2.7771058497,
				"element": "H" 
			},
			{
				"x": -0.6477505419,
				"y": -2.8304878244,
				"z": 1.9481071117,
				"element": "H" 
			},
			{
				"x": -1.7835474723,
				"y": -1.4977473447,
				"z": 2.2010365753,
				"element": "H" 
			},
			{
				"x": 0.4887228144,
				"y": -1.5452746329,
				"z": 0.1434253141,
				"element": "H" 
			},
			{
				"x": -1.208612321,
				"y": -1.8233671154,
				"z": -0.2289963478,
				"element": "H" 
			}
		],
		 "valence_orbital": [ 
			{
				"type": "occ",
				"energy": -0.31491,
				"method": "rhf"
			},
			{
				"type": "occ",
				"energy": -0.30503,
				"method": "rhf"
			},
			{
				"type": "occ",
				"energy": -0.27086,
				"method": "rhf"
			},
			{
				"type": "occ",
				"energy": -0.26303,
				"method": "rhf"
			},
			{
				"type": "occ",
				"energy": -0.22024,
				"method": "rhf"
			},
			{
				"type": "unocc",
				"energy": -0.04531,
				"method": "rhf"
			},
			{
				"type": "unocc",
				"energy": 0.03644,
				"method": "rhf"
			},
			{
				"type": "unocc",
				"energy": 0.05914,
				"method": "rhf"
			},
			{
				"type": "unocc",
				"energy": 0.08119,
				"method": "rhf"
			},
			{
				"type": "unocc",
				"energy": 0.08596,
				"method": "rhf"
			}
		],
		"cosmo_sigma_profile": { 
			"-0.025": 0.0,
			"-0.024": 0.0,
			"-0.023": 0.0,
			"-0.022": 0.0,
			"-0.021": 0.0,
			"-0.02": 0.0,
			"-0.019": 0.0,
			"-0.018": 0.244125432447,
			"-0.017": 0.857751439053,
			"-0.016": 0.893724398306,
			"-0.015": 0.481259925301,
			"-0.014": 1.01572743119,
			"-0.013": 0.731503494534,
			"-0.012": 0.658460510003,
			"-0.011": 0.306196117164,
			"-0.01": 1.37383555384,
			"-0.009": 0.638280698206,
			"-0.008": 0.278775729001,
			"-0.007": 0.721174265098,
			"-0.006": 9.67358307893,
			"-0.005": 15.6996488201,
			"-0.004": 19.8768027352,
			"-0.003": 21.503206344,
			"-0.002": 18.2522032927,
			"-0.001": 13.3066818034,
			"0.0": 10.5625082659,
			"0.001": 10.8601193679,
			"0.002": 7.89491105262,
			"0.003": 8.30949708312,
			"0.004": 4.56731561304,
			"0.005": 4.97810155821,
			"0.006": 6.9044299846,
			"0.007": 5.5938197501,
			"0.008": 5.08462022053,
			"0.009": 5.31439931925,
			"0.01": 5.17398013834,
			"0.011": 4.06870767873,
			"0.012": 4.2907210319,
			"0.013": 1.40863694231,
			"0.014": 0.0,
			"0.015": 0.0,
			"0.016": 0.0,
			"0.017": 0.0,
			"0.018": 0.0,
			"0.019": 0.0,
			"0.02": 0.0,
			"0.021": 0.0,
			"0.022": 0.0,
			"0.023": 0.0,
			"0.024": 0.0,
			"0.025": 0.0
		}
	}
}
