{
	 "smiles": "CCC1=NC(N)=NC(N)=C1C1=CC=C(Cl)C=C1", 
	 "Tm": 506.15, 
	 "num_atms": 30, 
	 "gaussian": { 
		 "optdone": 1, 
		 "sigma_profile": "yes", 
		 "theory": "DFT", 
		 "functional": "B3LYP", 
		 "basiset": "6-31G**", 
		 "properties": { 
			 "R2extent": 6319.6489, 
			 "electric_dipole_moment_norm": 1.71855645238, 
			 "electric_quadrupole_moment_norm": 8.64828884289, 
			 "total_energy": -1144.35687746, 
			 "HOMO_LUMO_gap": 0.18414, 
			 "cosmo_polarized_energy": -13.42, 
			 "cosmo_cavitation_energy": 35.51, 
			 "cosmo_dispersion_energy": -25.32, 
			 "cosmo_repulsion_energy": 2.02, 
			 "cosmo_total_nonelectrostatic_energy": 12.21, 
			 "SMD_solvation_energy": 2.96 
		},
		"coords": [
			{
				"x": 1.8894035681,
				"y": -1.2289355346,
				"z": 1.0666508391,
				"element": "C" 
			},
			{
				"x": 1.0809373165,
				"y": -1.0985312419,
				"z": -0.2347894197,
				"element": "C" 
			},
			{
				"x": -0.3852166557,
				"y": -0.8177573435,
				"z": 0.0199278506,
				"element": "C" 
			},
			{
				"x": -1.0506379511,
				"y": -1.8296240163,
				"z": 0.6038954431,
				"element": "N" 
			},
			{
				"x": -2.3560808851,
				"y": -1.6332003973,
				"z": 0.8353648952,
				"element": "C" 
			},
			{
				"x": -3.0249190066,
				"y": -2.6404719525,
				"z": 1.4781367541,
				"element": "N" 
			},
			{
				"x": -3.0735716305,
				"y": -0.5411679269,
				"z": 0.5275917113,
				"element": "N" 
			},
			{
				"x": -2.4033991346,
				"y": 0.4561879714,
				"z": -0.0580643646,
				"element": "C" 
			},
			{
				"x": -3.1482440592,
				"y": 1.5554497982,
				"z": -0.397907797,
				"element": "N" 
			},
			{
				"x": -1.0084622989,
				"y": 0.385941747,
				"z": -0.3393243622,
				"element": "C" 
			},
			{
				"x": -0.3038472934,
				"y": 1.5333398482,
				"z": -0.9762086864,
				"element": "C" 
			},
			{
				"x": -0.6315719507,
				"y": 1.9486902714,
				"z": -2.2796623523,
				"element": "C" 
			},
			{
				"x": 0.0133146557,
				"y": 3.0275708153,
				"z": -2.8839000832,
				"element": "C" 
			},
			{
				"x": 1.0071579759,
				"y": 3.7064135332,
				"z": -2.1798241812,
				"element": "C" 
			},
			{
				"x": 1.8287576507,
				"y": 5.0662733118,
				"z": -2.9339159666,
				"element": "Cl" 
			},
			{
				"x": 1.3561475045,
				"y": 3.3241956443,
				"z": -0.8854319543,
				"element": "C" 
			},
			{
				"x": 0.6950603264,
				"y": 2.2484486911,
				"z": -0.2931367209,
				"element": "C" 
			},
			{
				"x": 1.4451246362,
				"y": -1.991506678,
				"z": 1.7114604105,
				"element": "H" 
			},
			{
				"x": 1.9071667148,
				"y": -0.2851615478,
				"z": 1.6226309661,
				"element": "H" 
			},
			{
				"x": 2.9247981761,
				"y": -1.5122318322,
				"z": 0.8525909112,
				"element": "H" 
			},
			{
				"x": 1.1352659224,
				"y": -2.049302028,
				"z": -0.7779996136,
				"element": "H" 
			},
			{
				"x": 1.5155424515,
				"y": -0.3291821139,
				"z": -0.8772206245,
				"element": "H" 
			},
			{
				"x": -2.568188417,
				"y": -3.5383890732,
				"z": 1.4983386921,
				"element": "H" 
			},
			{
				"x": -4.0312052041,
				"y": -2.6195363557,
				"z": 1.4327375755,
				"element": "H" 
			},
			{
				"x": -4.0633648713,
				"y": 1.6020613812,
				"z": 0.0246636329,
				"element": "H" 
			},
			{
				"x": -2.6732013448,
				"y": 2.427490061,
				"z": -0.5692503181,
				"element": "H" 
			},
			{
				"x": -1.3990080505,
				"y": 1.4126006077,
				"z": -2.8300314121,
				"element": "H" 
			},
			{
				"x": -0.2447154822,
				"y": 3.3334133765,
				"z": -3.8919610789,
				"element": "H" 
			},
			{
				"x": 2.1271333326,
				"y": 3.8650031206,
				"z": -0.3475356526,
				"element": "H" 
			},
			{
				"x": 0.9551240042,
				"y": 1.9591178628,
				"z": 0.7206749064,
				"element": "H" 
			}
		],
		 "valence_orbital": [ 
			{
				"type": "occ",
				"energy": -0.26663,
				"method": "rhf"
			},
			{
				"type": "occ",
				"energy": -0.25731,
				"method": "rhf"
			},
			{
				"type": "occ",
				"energy": -0.24554,
				"method": "rhf"
			},
			{
				"type": "occ",
				"energy": -0.23337,
				"method": "rhf"
			},
			{
				"type": "occ",
				"energy": -0.20694,
				"method": "rhf"
			},
			{
				"type": "unocc",
				"energy": -0.0228,
				"method": "rhf"
			},
			{
				"type": "unocc",
				"energy": -0.01851,
				"method": "rhf"
			},
			{
				"type": "unocc",
				"energy": -0.00405,
				"method": "rhf"
			},
			{
				"type": "unocc",
				"energy": 0.02332,
				"method": "rhf"
			},
			{
				"type": "unocc",
				"energy": 0.02829,
				"method": "rhf"
			}
		],
		"cosmo_sigma_profile": { 
			"-0.025": 0.0,
			"-0.024": 0.0,
			"-0.023": 0.0,
			"-0.022": 0.0,
			"-0.021": 0.0,
			"-0.02": 0.0,
			"-0.019": 0.0,
			"-0.018": 0.0,
			"-0.017": 0.0,
			"-0.016": 0.0,
			"-0.015": 0.0,
			"-0.014": 0.0990333479917,
			"-0.013": 2.51720457507,
			"-0.012": 3.79961233304,
			"-0.011": 3.21704091775,
			"-0.01": 4.35367246856,
			"-0.009": 4.13786324363,
			"-0.008": 3.65640171357,
			"-0.007": 6.51523454168,
			"-0.006": 9.92792708003,
			"-0.005": 10.6422285031,
			"-0.004": 13.0215031517,
			"-0.003": 14.7732028059,
			"-0.002": 18.8567731388,
			"-0.001": 23.8652140781,
			"0.0": 27.691978504,
			"0.001": 29.9983061091,
			"0.002": 27.8657424539,
			"0.003": 20.8761634114,
			"0.004": 15.7714179019,
			"0.005": 12.8212995269,
			"0.006": 4.26510985961,
			"0.007": 5.98368274102,
			"0.008": 4.41726311087,
			"0.009": 4.51473796956,
			"0.01": 2.94317608329,
			"0.011": 2.58496031276,
			"0.012": 1.91841999991,
			"0.013": 1.71835594504,
			"0.014": 0.652792801036,
			"0.015": 0.432939692987,
			"0.016": 0.0476198257532,
			"0.017": 0.0,
			"0.018": 0.0,
			"0.019": 0.0,
			"0.02": 0.0,
			"0.021": 0.0,
			"0.022": 0.0,
			"0.023": 0.0,
			"0.024": 0.0,
			"0.025": 0.0
		}
	}
}
