{
	 "smiles": "COC(=O)NN=CC1=CN(=O)=C2C=CC=CC2=N1=O", 
	 "Tm": 512.15, 
	 "num_atms": 29, 
	 "gaussian": { 
		 "optdone": 1, 
		 "sigma_profile": "yes", 
		 "theory": "DFT", 
		 "functional": "B3LYP", 
		 "basiset": "6-31G**", 
		 "properties": { 
			 "R2extent": 6840.4599, 
			 "electric_dipole_moment_norm": 2.84848681759, 
			 "electric_quadrupole_moment_norm": 7.72285109723, 
			 "total_energy": -944.950912104, 
			 "HOMO_LUMO_gap": 0.11082, 
			 "cosmo_polarized_energy": -17.67, 
			 "cosmo_cavitation_energy": 35.0, 
			 "cosmo_dispersion_energy": -25.59, 
			 "cosmo_repulsion_energy": 1.94, 
			 "cosmo_total_nonelectrostatic_energy": 11.35, 
			 "SMD_solvation_energy": 9.67 
		},
		"coords": [
			{
				"x": -3.9443622393,
				"y": 3.7613396961,
				"z": -1.3607069453,
				"element": "C" 
			},
			{
				"x": -3.2282236909,
				"y": 2.8528019704,
				"z": -0.5011517848,
				"element": "O" 
			},
			{
				"x": -3.6572368969,
				"y": 2.8282301978,
				"z": 0.7723229331,
				"element": "C" 
			},
			{
				"x": -4.5678144025,
				"y": 3.4926153114,
				"z": 1.2236620203,
				"element": "O" 
			},
			{
				"x": -2.9451352909,
				"y": 1.9409895073,
				"z": 1.5748517987,
				"element": "N" 
			},
			{
				"x": -1.9108458547,
				"y": 1.0871681393,
				"z": 1.3728861999,
				"element": "N" 
			},
			{
				"x": -1.3364078409,
				"y": 0.941299647,
				"z": 0.2281211609,
				"element": "C" 
			},
			{
				"x": -0.234204854,
				"y": -0.008543848,
				"z": 0.1360202909,
				"element": "C" 
			},
			{
				"x": 0.2131521067,
				"y": -0.7580217808,
				"z": 1.2354582481,
				"element": "C" 
			},
			{
				"x": 1.2269501005,
				"y": -1.6371587962,
				"z": 1.1657907175,
				"element": "N" 
			},
			{
				"x": 1.622266171,
				"y": -2.3103077591,
				"z": 2.1727289602,
				"element": "O" 
			},
			{
				"x": 1.8578732042,
				"y": -1.7978782307,
				"z": -0.0855819447,
				"element": "C" 
			},
			{
				"x": 2.9219591717,
				"y": -2.7038970774,
				"z": -0.2109474974,
				"element": "C" 
			},
			{
				"x": 3.5375811491,
				"y": -2.8585051596,
				"z": -1.4390958722,
				"element": "C" 
			},
			{
				"x": 3.1028757911,
				"y": -2.1145543285,
				"z": -2.5566744333,
				"element": "C" 
			},
			{
				"x": 2.0559409717,
				"y": -1.2194340324,
				"z": -2.4446726001,
				"element": "C" 
			},
			{
				"x": 1.4213686869,
				"y": -1.0529673977,
				"z": -1.2009442001,
				"element": "C" 
			},
			{
				"x": 0.3573901816,
				"y": -0.143200845,
				"z": -1.08699254,
				"element": "N" 
			},
			{
				"x": -0.021164963,
				"y": 0.5215823213,
				"z": -2.113736788,
				"element": "O" 
			},
			{
				"x": -5.0006882294,
				"y": 3.4884554789,
				"z": -1.4063607942,
				"element": "H" 
			},
			{
				"x": -3.8532102997,
				"y": 4.7850797775,
				"z": -0.9919618753,
				"element": "H" 
			},
			{
				"x": -3.4758904114,
				"y": 3.6591919064,
				"z": -2.3386202597,
				"element": "H" 
			},
			{
				"x": -3.2791701665,
				"y": 1.9351089861,
				"z": 2.5278091705,
				"element": "H" 
			},
			{
				"x": -1.5961782398,
				"y": 1.4624821193,
				"z": -0.6845518592,
				"element": "H" 
			},
			{
				"x": -0.2562909214,
				"y": -0.6498118067,
				"z": 2.2020731322,
				"element": "H" 
			},
			{
				"x": 3.219145876,
				"y": -3.2513457135,
				"z": 0.6746909198,
				"element": "H" 
			},
			{
				"x": 4.3613012983,
				"y": -3.5575735302,
				"z": -1.5433657469,
				"element": "H" 
			},
			{
				"x": 3.5949948803,
				"y": -2.2455480251,
				"z": -3.5153189842,
				"element": "H" 
			},
			{
				"x": 1.6921247121,
				"y": -0.6298967281,
				"z": -3.2763314268,
				"element": "H" 
			}
		],
		 "valence_orbital": [ 
			{
				"type": "occ",
				"energy": -0.27949,
				"method": "rhf"
			},
			{
				"type": "occ",
				"energy": -0.26335,
				"method": "rhf"
			},
			{
				"type": "occ",
				"energy": -0.26077,
				"method": "rhf"
			},
			{
				"type": "occ",
				"energy": -0.24763,
				"method": "rhf"
			},
			{
				"type": "occ",
				"energy": -0.20168,
				"method": "rhf"
			},
			{
				"type": "unocc",
				"energy": -0.09086,
				"method": "rhf"
			},
			{
				"type": "unocc",
				"energy": -0.06366,
				"method": "rhf"
			},
			{
				"type": "unocc",
				"energy": -0.01305,
				"method": "rhf"
			},
			{
				"type": "unocc",
				"energy": -0.00397,
				"method": "rhf"
			},
			{
				"type": "unocc",
				"energy": 0.04428,
				"method": "rhf"
			}
		],
		"cosmo_sigma_profile": { 
			"-0.025": 0.0,
			"-0.024": 0.0,
			"-0.023": 0.0,
			"-0.022": 0.0,
			"-0.021": 0.0,
			"-0.02": 0.0,
			"-0.019": 0.0,
			"-0.018": 0.0,
			"-0.017": 0.0377145749539,
			"-0.016": 0.69510251348,
			"-0.015": 1.03183716392,
			"-0.014": 1.12703323634,
			"-0.013": 0.243967703534,
			"-0.012": 0.479672603447,
			"-0.011": 0.962831446859,
			"-0.01": 1.30140384884,
			"-0.009": 0.969585674891,
			"-0.008": 3.59815574159,
			"-0.007": 13.0670125054,
			"-0.006": 19.1333547404,
			"-0.005": 16.9695497017,
			"-0.004": 21.6435074035,
			"-0.003": 22.850160717,
			"-0.002": 23.3358579514,
			"-0.001": 24.6635114531,
			"0.0": 22.8411968328,
			"0.001": 20.8098346531,
			"0.002": 17.9905045784,
			"0.003": 6.26761344244,
			"0.004": 5.86654090991,
			"0.005": 6.03481680657,
			"0.006": 5.6409943864,
			"0.007": 2.96836123646,
			"0.008": 3.55649251914,
			"0.009": 4.22233997812,
			"0.01": 4.07172439815,
			"0.011": 11.6292976541,
			"0.012": 13.2196503287,
			"0.013": 3.65086383799,
			"0.014": 0.385914435378,
			"0.015": 0.0,
			"0.016": 0.0,
			"0.017": 0.0,
			"0.018": 0.0,
			"0.019": 0.0,
			"0.02": 0.0,
			"0.021": 0.0,
			"0.022": 0.0,
			"0.023": 0.0,
			"0.024": 0.0,
			"0.025": 0.0
		}
	}
}
