{
	 "smiles": "OCCN(CCO)C1=CC(Cl)=C(C=C1)N=NC1=CC=C(C=C1)[N+]([O-])=O", 
	 "Tm": 463.15, 
	 "num_atms": 42, 
	 "gaussian": { 
		 "optdone": 1, 
		 "sigma_profile": "yes", 
		 "theory": "DFT", 
		 "functional": "B3LYP", 
		 "basiset": "6-31G**", 
		 "properties": { 
			 "R2extent": 18902.1227, 
			 "electric_dipole_moment_norm": 10.3280159092, 
			 "electric_quadrupole_moment_norm": 38.0728755493, 
			 "total_energy": -1599.86915817, 
			 "HOMO_LUMO_gap": 0.10937, 
			 "cosmo_polarized_energy": -25.5, 
			 "cosmo_cavitation_energy": 49.2, 
			 "cosmo_dispersion_energy": -34.61, 
			 "cosmo_repulsion_energy": 2.64, 
			 "cosmo_total_nonelectrostatic_energy": 17.23, 
			 "SMD_solvation_energy": 8.7 
		},
		"coords": [
			{
				"x": 3.6486241072,
				"y": -3.9094414168,
				"z": 1.7443716585,
				"element": "O" 
			},
			{
				"x": 2.3263137728,
				"y": -3.4181462682,
				"z": 1.8763983359,
				"element": "C" 
			},
			{
				"x": 2.2893826375,
				"y": -2.1499085529,
				"z": 2.7504044751,
				"element": "C" 
			},
			{
				"x": 0.9812552469,
				"y": -1.501678145,
				"z": 2.8269733372,
				"element": "N" 
			},
			{
				"x": 0.1459421032,
				"y": -1.7902083774,
				"z": 3.9910584394,
				"element": "C" 
			},
			{
				"x": -0.9093538887,
				"y": -2.8893358821,
				"z": 3.7664606773,
				"element": "C" 
			},
			{
				"x": -1.6226985847,
				"y": -3.1626342612,
				"z": 4.9606958945,
				"element": "O" 
			},
			{
				"x": 0.5476080227,
				"y": -0.6543094499,
				"z": 1.8252344206,
				"element": "C" 
			},
			{
				"x": 1.358808736,
				"y": -0.3707298696,
				"z": 0.6991938199,
				"element": "C" 
			},
			{
				"x": 0.9306119942,
				"y": 0.5079709362,
				"z": -0.2845907803,
				"element": "C" 
			},
			{
				"x": 2.0057878592,
				"y": 0.8003914739,
				"z": -1.6352503365,
				"element": "Cl" 
			},
			{
				"x": -0.323683802,
				"y": 1.1501714016,
				"z": -0.2207082906,
				"element": "C" 
			},
			{
				"x": -1.1308035373,
				"y": 0.8516021234,
				"z": 0.8969951513,
				"element": "C" 
			},
			{
				"x": -0.7244535968,
				"y": -0.0186410706,
				"z": 1.8851248984,
				"element": "C" 
			},
			{
				"x": -0.6865733904,
				"y": 2.0190147973,
				"z": -1.2485196242,
				"element": "N" 
			},
			{
				"x": -1.8285367588,
				"y": 2.5558958508,
				"z": -1.1286325195,
				"element": "N" 
			},
			{
				"x": -2.1667306685,
				"y": 3.4336263078,
				"z": -2.1842170801,
				"element": "C" 
			},
			{
				"x": -1.3392010806,
				"y": 3.7176913928,
				"z": -3.2884935131,
				"element": "C" 
			},
			{
				"x": -1.7717350636,
				"y": 4.5969940664,
				"z": -4.2692404028,
				"element": "C" 
			},
			{
				"x": -3.0319693014,
				"y": 5.1902997015,
				"z": -4.1425929009,
				"element": "C" 
			},
			{
				"x": -3.8691463369,
				"y": 4.9254912904,
				"z": -3.0595204011,
				"element": "C" 
			},
			{
				"x": -3.4277755988,
				"y": 4.0430158272,
				"z": -2.0810590263,
				"element": "C" 
			},
			{
				"x": -3.4881185102,
				"y": 6.1211546451,
				"z": -5.1821705801,
				"element": "N" 
			},
			{
				"x": -2.7306928218,
				"y": 6.3383772831,
				"z": -6.1287846233,
				"element": "O" 
			},
			{
				"x": -4.6016583145,
				"y": 6.6302676119,
				"z": -5.0465888563,
				"element": "O" 
			},
			{
				"x": 3.9202650787,
				"y": -4.2867774677,
				"z": 2.5909604353,
				"element": "H" 
			},
			{
				"x": 1.9823750891,
				"y": -3.1849388111,
				"z": 0.8646505125,
				"element": "H" 
			},
			{
				"x": 1.6420568936,
				"y": -4.1775300132,
				"z": 2.2841831089,
				"element": "H" 
			},
			{
				"x": 3.040089354,
				"y": -1.4461812653,
				"z": 2.3770343221,
				"element": "H" 
			},
			{
				"x": 2.5925742046,
				"y": -2.4080518351,
				"z": 3.7707382792,
				"element": "H" 
			},
			{
				"x": -0.3453396492,
				"y": -0.8706751876,
				"z": 4.3315166399,
				"element": "H" 
			},
			{
				"x": 0.7964994896,
				"y": -2.1076581066,
				"z": 4.8102739337,
				"element": "H" 
			},
			{
				"x": -1.5765207501,
				"y": -2.6173055584,
				"z": 2.9358266513,
				"element": "H" 
			},
			{
				"x": -0.4123013583,
				"y": -3.8232914679,
				"z": 3.4864685984,
				"element": "H" 
			},
			{
				"x": -2.2278964554,
				"y": -2.4292231467,
				"z": 5.1295056031,
				"element": "H" 
			},
			{
				"x": 2.3282367834,
				"y": -0.8317191735,
				"z": 0.5754902201,
				"element": "H" 
			},
			{
				"x": -2.0998828914,
				"y": 1.3347986451,
				"z": 0.9529169405,
				"element": "H" 
			},
			{
				"x": -1.3975065734,
				"y": -0.2113844577,
				"z": 2.7101734199,
				"element": "H" 
			},
			{
				"x": -0.3694893732,
				"y": 3.2388267303,
				"z": -3.3520249,
				"element": "H" 
			},
			{
				"x": -1.1596130693,
				"y": 4.8360339044,
				"z": -5.1299553036,
				"element": "H" 
			},
			{
				"x": -4.8365675984,
				"y": 5.4079934105,
				"z": -3.0031383409,
				"element": "H" 
			},
			{
				"x": -4.0439823993,
				"y": 3.8062523849,
				"z": -1.2202622935,
				"element": "H" 
			}
		],
		 "valence_orbital": [ 
			{
				"type": "occ",
				"energy": -0.27278,
				"method": "rhf"
			},
			{
				"type": "occ",
				"energy": -0.26792,
				"method": "rhf"
			},
			{
				"type": "occ",
				"energy": -0.26066,
				"method": "rhf"
			},
			{
				"type": "occ",
				"energy": -0.23474,
				"method": "rhf"
			},
			{
				"type": "occ",
				"energy": -0.21332,
				"method": "rhf"
			},
			{
				"type": "unocc",
				"energy": -0.10395,
				"method": "rhf"
			},
			{
				"type": "unocc",
				"energy": -0.06161,
				"method": "rhf"
			},
			{
				"type": "unocc",
				"energy": -0.02521,
				"method": "rhf"
			},
			{
				"type": "unocc",
				"energy": -0.01964,
				"method": "rhf"
			},
			{
				"type": "unocc",
				"energy": 0.00955,
				"method": "rhf"
			}
		],
		"cosmo_sigma_profile": { 
			"-0.025": 0.0,
			"-0.024": 0.0,
			"-0.023": 0.0,
			"-0.022": 0.0,
			"-0.021": 0.0,
			"-0.02": 0.0,
			"-0.019": 0.0,
			"-0.018": 0.0,
			"-0.017": 0.0281267317867,
			"-0.016": 1.39948344852,
			"-0.015": 2.3563285268,
			"-0.014": 1.86059972378,
			"-0.013": 2.48101515078,
			"-0.012": 2.45994927741,
			"-0.011": 2.32475214051,
			"-0.01": 2.04198915621,
			"-0.009": 2.93839388471,
			"-0.008": 6.73200519574,
			"-0.007": 14.290161315,
			"-0.006": 21.3377206708,
			"-0.005": 21.9075552673,
			"-0.004": 21.6502608152,
			"-0.003": 23.874120561,
			"-0.002": 26.830444357,
			"-0.001": 22.0501201475,
			"0.0": 26.5046232844,
			"0.001": 45.2305180194,
			"0.002": 35.0481580907,
			"0.003": 18.9517629936,
			"0.004": 18.6561508107,
			"0.005": 11.9770670451,
			"0.006": 7.65605806378,
			"0.007": 14.3613815231,
			"0.008": 12.9108301186,
			"0.009": 6.75895340702,
			"0.01": 5.35940685986,
			"0.011": 3.05799115808,
			"0.012": 2.80674298316,
			"0.013": 3.44869647685,
			"0.014": 4.22794863607,
			"0.015": 0.175337312621,
			"0.016": 0.0,
			"0.017": 0.0,
			"0.018": 0.0,
			"0.019": 0.0,
			"0.02": 0.0,
			"0.021": 0.0,
			"0.022": 0.0,
			"0.023": 0.0,
			"0.024": 0.0,
			"0.025": 0.0
		}
	}
}
