{
	 "smiles": "CC1=C(C=C(C(F)=C1)S(Cl)(=O)=O)[N+]([O-])=O", 
	 "Tm": 338.15, 
	 "num_atms": 20, 
	 "gaussian": { 
		 "optdone": 1, 
		 "sigma_profile": "yes", 
		 "theory": "DFT", 
		 "functional": "B3LYP", 
		 "basiset": "6-31G**", 
		 "properties": { 
			 "R2extent": 8408.0807, 
			 "electric_dipole_moment_norm": 5.15567723001, 
			 "electric_quadrupole_moment_norm": 19.1949115619, 
			 "total_energy": -1583.44067715, 
			 "HOMO_LUMO_gap": 0.19214, 
			 "cosmo_polarized_energy": -12.39, 
			 "cosmo_cavitation_energy": 29.11, 
			 "cosmo_dispersion_energy": -21.58, 
			 "cosmo_repulsion_energy": 1.62, 
			 "cosmo_total_nonelectrostatic_energy": 9.15, 
			 "SMD_solvation_energy": 6.27 
		},
		"coords": [
			{
				"x": -1.7037177012,
				"y": 0.9445252416,
				"z": -0.742289817,
				"element": "C" 
			},
			{
				"x": -1.6120769019,
				"y": -0.0175796375,
				"z": 0.4142707158,
				"element": "C" 
			},
			{
				"x": -1.9939578979,
				"y": 0.2590947829,
				"z": 1.7468097864,
				"element": "C" 
			},
			{
				"x": -1.8856378304,
				"y": -0.6871487187,
				"z": 2.7650402293,
				"element": "C" 
			},
			{
				"x": -1.3844017954,
				"y": -1.9496870926,
				"z": 2.4786937554,
				"element": "C" 
			},
			{
				"x": -0.9956755066,
				"y": -2.250636865,
				"z": 1.1695816645,
				"element": "C" 
			},
			{
				"x": -0.496699199,
				"y": -3.4495771635,
				"z": 0.8772456192,
				"element": "F" 
			},
			{
				"x": -1.1107877677,
				"y": -1.302848143,
				"z": 0.1638133431,
				"element": "C" 
			},
			{
				"x": -1.3127641072,
				"y": -3.165158724,
				"z": 3.7892169127,
				"element": "S" 
			},
			{
				"x": 0.7809128965,
				"y": -3.3503824656,
				"z": 4.048906252,
				"element": "Cl" 
			},
			{
				"x": -1.8336904682,
				"y": -2.5495415849,
				"z": 5.001442884,
				"element": "O" 
			},
			{
				"x": -1.7927710662,
				"y": -4.4462524089,
				"z": 3.296186534,
				"element": "O" 
			},
			{
				"x": -2.5360478391,
				"y": 1.5713110027,
				"z": 2.1534638677,
				"element": "N" 
			},
			{
				"x": -2.9401443364,
				"y": 1.6833235912,
				"z": 3.3084321081,
				"element": "O" 
			},
			{
				"x": -2.5491699358,
				"y": 2.4760821536,
				"z": 1.3201837788,
				"element": "O" 
			},
			{
				"x": -1.0712381621,
				"y": 1.8200616317,
				"z": -0.5777320382,
				"element": "H" 
			},
			{
				"x": -2.7203891491,
				"y": 1.3246009749,
				"z": -0.8651867199,
				"element": "H" 
			},
			{
				"x": -1.3932841969,
				"y": 0.446079381,
				"z": -1.6631138672,
				"element": "H" 
			},
			{
				"x": -2.1958489345,
				"y": -0.4310789179,
				"z": 3.7701881389,
				"element": "H" 
			},
			{
				"x": -0.7994101007,
				"y": -1.5818870381,
				"z": -0.8367531475,
				"element": "H" 
			}
		],
		 "valence_orbital": [ 
			{
				"type": "occ",
				"energy": -0.32798,
				"method": "rhf"
			},
			{
				"type": "occ",
				"energy": -0.32658,
				"method": "rhf"
			},
			{
				"type": "occ",
				"energy": -0.31306,
				"method": "rhf"
			},
			{
				"type": "occ",
				"energy": -0.31101,
				"method": "rhf"
			},
			{
				"type": "occ",
				"energy": -0.30484,
				"method": "rhf"
			},
			{
				"type": "unocc",
				"energy": -0.1127,
				"method": "rhf"
			},
			{
				"type": "unocc",
				"energy": -0.10122,
				"method": "rhf"
			},
			{
				"type": "unocc",
				"energy": -0.06867,
				"method": "rhf"
			},
			{
				"type": "unocc",
				"energy": -0.03331,
				"method": "rhf"
			},
			{
				"type": "unocc",
				"energy": 0.02541,
				"method": "rhf"
			}
		],
		"cosmo_sigma_profile": { 
			"-0.025": 0.0,
			"-0.024": 0.0,
			"-0.023": 0.0,
			"-0.022": 0.0,
			"-0.021": 0.0,
			"-0.02": 0.0,
			"-0.019": 0.0,
			"-0.018": 0.0,
			"-0.017": 0.0,
			"-0.016": 0.0,
			"-0.015": 0.0,
			"-0.014": 0.0,
			"-0.013": 0.0,
			"-0.012": 0.0,
			"-0.011": 0.0,
			"-0.01": 1.51928198512,
			"-0.009": 2.44267621037,
			"-0.008": 3.96094487355,
			"-0.007": 5.95347755403,
			"-0.006": 10.2214935599,
			"-0.005": 17.9953207848,
			"-0.004": 22.8764341541,
			"-0.003": 23.5024999059,
			"-0.002": 19.2790168928,
			"-0.001": 13.243984585,
			"0.0": 9.85378995014,
			"0.001": 14.6904990272,
			"0.002": 22.1225620321,
			"0.003": 12.9995595234,
			"0.004": 5.71986475336,
			"0.005": 7.8257776914,
			"0.006": 8.93775048249,
			"0.007": 15.8962940415,
			"0.008": 12.4278651822,
			"0.009": 4.58286543328,
			"0.01": 0.7803769754,
			"0.011": 0.0,
			"0.012": 0.0,
			"0.013": 0.0,
			"0.014": 0.0,
			"0.015": 0.0,
			"0.016": 0.0,
			"0.017": 0.0,
			"0.018": 0.0,
			"0.019": 0.0,
			"0.02": 0.0,
			"0.021": 0.0,
			"0.022": 0.0,
			"0.023": 0.0,
			"0.024": 0.0,
			"0.025": 0.0
		}
	}
}
