{
	 "smiles": "[O-][N+](=O)C1=CC=C(NN=CC2=CC=CC=C2)C(=C1)[N+]([O-])=O", 
	 "Tm": 513.15, 
	 "num_atms": 31, 
	 "gaussian": { 
		 "optdone": 1, 
		 "sigma_profile": "yes", 
		 "theory": "DFT", 
		 "functional": "B3LYP", 
		 "basiset": "6-31G**", 
		 "properties": { 
			 "R2extent": 10773.2502, 
			 "electric_dipole_moment_norm": 7.87736161034, 
			 "electric_quadrupole_moment_norm": 22.2327197268, 
			 "total_energy": -1021.08701613, 
			 "HOMO_LUMO_gap": 0.12307, 
			 "cosmo_polarized_energy": -15.63, 
			 "cosmo_cavitation_energy": 38.21, 
			 "cosmo_dispersion_energy": -27.64, 
			 "cosmo_repulsion_energy": 2.07, 
			 "cosmo_total_nonelectrostatic_energy": 12.64, 
			 "SMD_solvation_energy": 10.47 
		},
		"coords": [
			{
				"x": 1.8833886078,
				"y": 6.4711082032,
				"z": 0.7832122747,
				"element": "O" 
			},
			{
				"x": 1.8997960869,
				"y": 5.9488589247,
				"z": -0.3333605478,
				"element": "N" 
			},
			{
				"x": 2.0877081095,
				"y": 6.552696038,
				"z": -1.3898678493,
				"element": "O" 
			},
			{
				"x": 1.6793250315,
				"y": 4.506718131,
				"z": -0.4018488495,
				"element": "C" 
			},
			{
				"x": 1.4611920244,
				"y": 3.7802908748,
				"z": 0.7810845939,
				"element": "C" 
			},
			{
				"x": 1.2530935469,
				"y": 2.4215276436,
				"z": 0.7202609613,
				"element": "C" 
			},
			{
				"x": 1.253030271,
				"y": 1.7271803478,
				"z": -0.5197711809,
				"element": "C" 
			},
			{
				"x": 1.0450368389,
				"y": 0.3830631509,
				"z": -0.5565914848,
				"element": "N" 
			},
			{
				"x": 0.8330128111,
				"y": -0.3267705949,
				"z": 0.5827564801,
				"element": "N" 
			},
			{
				"x": 0.6455461759,
				"y": -1.5932835664,
				"z": 0.4371924954,
				"element": "C" 
			},
			{
				"x": 0.4054306824,
				"y": -2.48437516,
				"z": 1.5689803426,
				"element": "C" 
			},
			{
				"x": 0.2094302782,
				"y": -3.8536859504,
				"z": 1.3223100745,
				"element": "C" 
			},
			{
				"x": -0.0227362277,
				"y": -4.7376120867,
				"z": 2.3746094649,
				"element": "C" 
			},
			{
				"x": -0.0618473524,
				"y": -4.2639672381,
				"z": 3.6868064173,
				"element": "C" 
			},
			{
				"x": 0.1323784606,
				"y": -2.9013185234,
				"z": 3.9424799998,
				"element": "C" 
			},
			{
				"x": 0.3641469491,
				"y": -2.0164229894,
				"z": 2.8959773793,
				"element": "C" 
			},
			{
				"x": 1.4784502022,
				"y": 2.5004587306,
				"z": -1.7014495473,
				"element": "C" 
			},
			{
				"x": 1.6888933077,
				"y": 3.87884557,
				"z": -1.6319019968,
				"element": "C" 
			},
			{
				"x": 1.5024515173,
				"y": 1.9102734553,
				"z": -3.0297481937,
				"element": "N" 
			},
			{
				"x": 1.702483432,
				"y": 2.6418135217,
				"z": -3.9945638887,
				"element": "O" 
			},
			{
				"x": 1.3188546918,
				"y": 0.6812093516,
				"z": -3.1398932572,
				"element": "O" 
			},
			{
				"x": 1.4603726147,
				"y": 4.3055281826,
				"z": 1.7282191525,
				"element": "H" 
			},
			{
				"x": 1.0832744482,
				"y": 1.8433417575,
				"z": 1.617995388,
				"element": "H" 
			},
			{
				"x": 1.0569588902,
				"y": -0.0544736601,
				"z": -1.479357947,
				"element": "H" 
			},
			{
				"x": 0.6595699768,
				"y": -2.0551029097,
				"z": -0.5583178986,
				"element": "H" 
			},
			{
				"x": 0.2398960506,
				"y": -4.2230070686,
				"z": 0.300214913,
				"element": "H" 
			},
			{
				"x": -0.1726744221,
				"y": -5.7934861004,
				"z": 2.1704146877,
				"element": "H" 
			},
			{
				"x": -0.2425637346,
				"y": -4.9508279495,
				"z": 4.50832905,
				"element": "H" 
			},
			{
				"x": 0.102123399,
				"y": -2.5318629086,
				"z": 4.9633209242,
				"element": "H" 
			},
			{
				"x": 0.5154190641,
				"y": -0.9595810688,
				"z": 3.0871033389,
				"element": "H" 
			},
			{
				"x": 1.857158268,
				"y": 4.4417638916,
				"z": -2.5395952965,
				"element": "H" 
			}
		],
		 "valence_orbital": [ 
			{
				"type": "occ",
				"energy": -0.29929,
				"method": "rhf"
			},
			{
				"type": "occ",
				"energy": -0.29153,
				"method": "rhf"
			},
			{
				"type": "occ",
				"energy": -0.2791,
				"method": "rhf"
			},
			{
				"type": "occ",
				"energy": -0.27122,
				"method": "rhf"
			},
			{
				"type": "occ",
				"energy": -0.22897,
				"method": "rhf"
			},
			{
				"type": "unocc",
				"energy": -0.1059,
				"method": "rhf"
			},
			{
				"type": "unocc",
				"energy": -0.09321,
				"method": "rhf"
			},
			{
				"type": "unocc",
				"energy": -0.06198,
				"method": "rhf"
			},
			{
				"type": "unocc",
				"energy": -0.02042,
				"method": "rhf"
			},
			{
				"type": "unocc",
				"energy": -0.01909,
				"method": "rhf"
			}
		],
		"cosmo_sigma_profile": { 
			"-0.025": 0.0,
			"-0.024": 0.0,
			"-0.023": 0.0,
			"-0.022": 0.0,
			"-0.021": 0.0,
			"-0.02": 0.0,
			"-0.019": 0.0,
			"-0.018": 0.0,
			"-0.017": 0.0,
			"-0.016": 0.0,
			"-0.015": 0.0,
			"-0.014": 0.121666742971,
			"-0.013": 0.884780355652,
			"-0.012": 1.13605765167,
			"-0.011": 0.825626668642,
			"-0.01": 1.20798467997,
			"-0.009": 2.14056437296,
			"-0.008": 6.15413671077,
			"-0.007": 9.44583477472,
			"-0.006": 16.5294341022,
			"-0.005": 20.7932617243,
			"-0.004": 23.4782193531,
			"-0.003": 22.6667300103,
			"-0.002": 27.2162029657,
			"-0.001": 22.8829451173,
			"0.0": 19.8622508786,
			"0.001": 18.5836907911,
			"0.002": 18.0179531574,
			"0.003": 16.8478126212,
			"0.004": 18.6450297221,
			"0.005": 12.2361912746,
			"0.006": 8.4008710074,
			"0.007": 11.9366861461,
			"0.008": 13.4074045091,
			"0.009": 8.98219364815,
			"0.01": 5.38739612276,
			"0.011": 0.41970303226,
			"0.012": 0.0,
			"0.013": 0.0,
			"0.014": 0.0,
			"0.015": 0.0,
			"0.016": 0.0,
			"0.017": 0.0,
			"0.018": 0.0,
			"0.019": 0.0,
			"0.02": 0.0,
			"0.021": 0.0,
			"0.022": 0.0,
			"0.023": 0.0,
			"0.024": 0.0,
			"0.025": 0.0
		}
	}
}
