{
	 "smiles": "CC(C)(C)N(NC(=O)C1=CC=CC=C1)C(=O)C1=CC(Cl)=CC=C1Cl", 
	 "Tm": 487.15, 
	 "num_atms": 42, 
	 "gaussian": { 
		 "optdone": 1, 
		 "sigma_profile": "yes", 
		 "theory": "DFT", 
		 "functional": "B3LYP", 
		 "basiset": "6-31G**", 
		 "properties": { 
			 "R2extent": 9214.6508, 
			 "electric_dipole_moment_norm": 5.28932361744, 
			 "electric_quadrupole_moment_norm": 15.5748225987, 
			 "total_energy": -1877.09807109, 
			 "HOMO_LUMO_gap": 0.1943, 
			 "cosmo_polarized_energy": -20.77, 
			 "cosmo_cavitation_energy": 48.32, 
			 "cosmo_dispersion_energy": -31.18, 
			 "cosmo_repulsion_energy": 2.39, 
			 "cosmo_total_nonelectrostatic_energy": 19.53, 
			 "SMD_solvation_energy": 8.64 
		},
		"coords": [
			{
				"x": -0.4525659914,
				"y": -3.2151010681,
				"z": 1.6445845097,
				"element": "C" 
			},
			{
				"x": 0.1177017361,
				"y": -3.1174041075,
				"z": 0.2214216874,
				"element": "C" 
			},
			{
				"x": -0.9919030944,
				"y": -3.4091876566,
				"z": -0.8058469481,
				"element": "C" 
			},
			{
				"x": 1.2774637652,
				"y": -4.1231667064,
				"z": 0.0895130879,
				"element": "C" 
			},
			{
				"x": 0.6700821074,
				"y": -1.7191544962,
				"z": 0.0175982452,
				"element": "N" 
			},
			{
				"x": 0.2056356256,
				"y": -0.7010580858,
				"z": 0.8392997314,
				"element": "N" 
			},
			{
				"x": -0.879936331,
				"y": 0.0855500376,
				"z": 0.4900189267,
				"element": "C" 
			},
			{
				"x": -1.4889552026,
				"y": -0.0744576705,
				"z": -0.5567024957,
				"element": "O" 
			},
			{
				"x": -1.2385350221,
				"y": 1.1503074517,
				"z": 1.4837918612,
				"element": "C" 
			},
			{
				"x": -1.9580537477,
				"y": 2.2531235,
				"z": 1.0029713503,
				"element": "C" 
			},
			{
				"x": -2.3270280596,
				"y": 3.281497298,
				"z": 1.8662696491,
				"element": "C" 
			},
			{
				"x": -1.9933305136,
				"y": 3.2120335206,
				"z": 3.2216064744,
				"element": "C" 
			},
			{
				"x": -1.2950450511,
				"y": 2.1071143643,
				"z": 3.7118987647,
				"element": "C" 
			},
			{
				"x": -0.9180310439,
				"y": 1.0789366966,
				"z": 2.8477081992,
				"element": "C" 
			},
			{
				"x": 1.2888097337,
				"y": -1.3544658378,
				"z": -1.1726655616,
				"element": "C" 
			},
			{
				"x": 1.4611260427,
				"y": -2.1266488721,
				"z": -2.1008050534,
				"element": "O" 
			},
			{
				"x": 1.880669164,
				"y": 0.0391187144,
				"z": -1.2228459755,
				"element": "C" 
			},
			{
				"x": 2.867717958,
				"y": 0.3800988352,
				"z": -0.2879270376,
				"element": "C" 
			},
			{
				"x": 3.5345768208,
				"y": 1.5977749503,
				"z": -0.3760082732,
				"element": "C" 
			},
			{
				"x": 4.7700802208,
				"y": 1.9932266183,
				"z": 0.8082257968,
				"element": "Cl" 
			},
			{
				"x": 3.2325759024,
				"y": 2.5052960419,
				"z": -1.3899280268,
				"element": "C" 
			},
			{
				"x": 2.2560641693,
				"y": 2.1722881193,
				"z": -2.3253850102,
				"element": "C" 
			},
			{
				"x": 1.5910703427,
				"y": 0.9458684441,
				"z": -2.2525345113,
				"element": "C" 
			},
			{
				"x": 0.3844225846,
				"y": 0.5934904346,
				"z": -3.4658940768,
				"element": "Cl" 
			},
			{
				"x": -1.3212867719,
				"y": -2.5693059315,
				"z": 1.7900260087,
				"element": "H" 
			},
			{
				"x": -0.770387689,
				"y": -4.2475076302,
				"z": 1.8154160739,
				"element": "H" 
			},
			{
				"x": 0.2986096986,
				"y": -2.9690048739,
				"z": 2.4026800906,
				"element": "H" 
			},
			{
				"x": -1.4111332649,
				"y": -4.4036952383,
				"z": -0.6183349302,
				"element": "H" 
			},
			{
				"x": -0.5938661077,
				"y": -3.3846455668,
				"z": -1.8207539268,
				"element": "H" 
			},
			{
				"x": -1.790847741,
				"y": -2.6682184084,
				"z": -0.7299743254,
				"element": "H" 
			},
			{
				"x": 1.7147372179,
				"y": -4.0987252272,
				"z": -0.9077927078,
				"element": "H" 
			},
			{
				"x": 0.9008097434,
				"y": -5.1332449212,
				"z": 0.2793757674,
				"element": "H" 
			},
			{
				"x": 2.0601039086,
				"y": -3.909963464,
				"z": 0.825680184,
				"element": "H" 
			},
			{
				"x": 0.8047227313,
				"y": -0.4212597074,
				"z": 1.601808094,
				"element": "H" 
			},
			{
				"x": -2.2169686138,
				"y": 2.2794887844,
				"z": -0.0500489665,
				"element": "H" 
			},
			{
				"x": -2.8774681838,
				"y": 4.1362444886,
				"z": 1.4845146015,
				"element": "H" 
			},
			{
				"x": -2.284129402,
				"y": 4.012638853,
				"z": 3.8955196906,
				"element": "H" 
			},
			{
				"x": -1.0513289346,
				"y": 2.0405287461,
				"z": 4.7680170636,
				"element": "H" 
			},
			{
				"x": -0.4091318712,
				"y": 0.2084973124,
				"z": 3.2519589815,
				"element": "H" 
			},
			{
				"x": 3.1281190458,
				"y": -0.32219082,
				"z": 0.4971234586,
				"element": "H" 
			},
			{
				"x": 3.7531674135,
				"y": 3.4542737705,
				"z": -1.4504411206,
				"element": "H" 
			},
			{
				"x": 2.007166705,
				"y": 2.8644093077,
				"z": -3.1220393509,
				"element": "H" 
			}
		],
		 "valence_orbital": [ 
			{
				"type": "occ",
				"energy": -0.26986,
				"method": "rhf"
			},
			{
				"type": "occ",
				"energy": -0.26314,
				"method": "rhf"
			},
			{
				"type": "occ",
				"energy": -0.25848,
				"method": "rhf"
			},
			{
				"type": "occ",
				"energy": -0.25332,
				"method": "rhf"
			},
			{
				"type": "occ",
				"energy": -0.24342,
				"method": "rhf"
			},
			{
				"type": "unocc",
				"energy": -0.04912,
				"method": "rhf"
			},
			{
				"type": "unocc",
				"energy": -0.04066,
				"method": "rhf"
			},
			{
				"type": "unocc",
				"energy": -0.0278,
				"method": "rhf"
			},
			{
				"type": "unocc",
				"energy": -0.01924,
				"method": "rhf"
			},
			{
				"type": "unocc",
				"energy": 0.00903,
				"method": "rhf"
			}
		],
		"cosmo_sigma_profile": { 
			"-0.025": 0.0,
			"-0.024": 0.0,
			"-0.023": 0.0,
			"-0.022": 0.0,
			"-0.021": 0.0,
			"-0.02": 0.0,
			"-0.019": 0.0,
			"-0.018": 0.0,
			"-0.017": 0.0,
			"-0.016": 0.0,
			"-0.015": 0.426679773271,
			"-0.014": 1.06565582616,
			"-0.013": 0.927740179995,
			"-0.012": 1.91154520228,
			"-0.011": 1.79955492289,
			"-0.01": 1.56240162589,
			"-0.009": 2.6494931914,
			"-0.008": 6.91895835488,
			"-0.007": 9.24164173495,
			"-0.006": 14.9941654563,
			"-0.005": 16.0239499081,
			"-0.004": 24.4487435161,
			"-0.003": 29.1951593779,
			"-0.002": 29.4049226321,
			"-0.001": 32.2441906788,
			"0.0": 41.5481816093,
			"0.001": 45.2885007446,
			"0.002": 27.4111600877,
			"0.003": 24.5282906034,
			"0.004": 30.7005125796,
			"0.005": 9.61706450316,
			"0.006": 5.32660663183,
			"0.007": 4.36346057827,
			"0.008": 4.88140883692,
			"0.009": 4.80586053769,
			"0.01": 4.87779716565,
			"0.011": 4.36661374243,
			"0.012": 4.62967083751,
			"0.013": 2.99698079097,
			"0.014": 0.0917339139279,
			"0.015": 0.0,
			"0.016": 0.0,
			"0.017": 0.0,
			"0.018": 0.0,
			"0.019": 0.0,
			"0.02": 0.0,
			"0.021": 0.0,
			"0.022": 0.0,
			"0.023": 0.0,
			"0.024": 0.0,
			"0.025": 0.0
		}
	}
}
