{
	 "smiles": "OC(=O)C1=C(NS(=O)(=O)C2=CC=C(F)C=C2)C=C2C=CC=CC2=C1", 
	 "Tm": 477.15, 
	 "num_atms": 36, 
	 "gaussian": { 
		 "optdone": 1, 
		 "sigma_profile": "yes", 
		 "theory": "DFT", 
		 "functional": "B3LYP", 
		 "basiset": "6-31G**", 
		 "properties": { 
			 "R2extent": 9005.784, 
			 "electric_dipole_moment_norm": 8.99601755112, 
			 "electric_quadrupole_moment_norm": 31.6496026438, 
			 "total_energy": -1508.66020285, 
			 "HOMO_LUMO_gap": 0.16632, 
			 "cosmo_polarized_energy": -23.86, 
			 "cosmo_cavitation_energy": 42.45, 
			 "cosmo_dispersion_energy": -29.4, 
			 "cosmo_repulsion_energy": 2.12, 
			 "cosmo_total_nonelectrostatic_energy": 15.17, 
			 "SMD_solvation_energy": 7.76 
		},
		"coords": [
			{
				"x": 1.7673430886,
				"y": 4.0178600914,
				"z": -0.0522219219,
				"element": "O" 
			},
			{
				"x": 1.9766228745,
				"y": 3.1834017211,
				"z": -1.0732528788,
				"element": "C" 
			},
			{
				"x": 2.6282752185,
				"y": 3.5282055233,
				"z": -2.0364996124,
				"element": "O" 
			},
			{
				"x": 1.4278891488,
				"y": 1.7697853581,
				"z": -1.002381471,
				"element": "C" 
			},
			{
				"x": 0.1170976147,
				"y": 1.3935960725,
				"z": -0.5685082454,
				"element": "C" 
			},
			{
				"x": -0.8068884472,
				"y": 2.3941541951,
				"z": -0.1003419355,
				"element": "N" 
			},
			{
				"x": -0.9948435832,
				"y": 2.7031498937,
				"z": 1.5481273548,
				"element": "S" 
			},
			{
				"x": 0.3791215176,
				"y": 2.9112692841,
				"z": 2.0431984076,
				"element": "O" 
			},
			{
				"x": -2.0291778168,
				"y": 3.7303572751,
				"z": 1.6341548272,
				"element": "O" 
			},
			{
				"x": -1.6044625555,
				"y": 1.2329675273,
				"z": 2.3657696145,
				"element": "C" 
			},
			{
				"x": -0.7006022969,
				"y": 0.276055501,
				"z": 2.8390758266,
				"element": "C" 
			},
			{
				"x": -1.1865096512,
				"y": -0.8739858507,
				"z": 3.4564788717,
				"element": "C" 
			},
			{
				"x": -2.5637738568,
				"y": -1.0351225166,
				"z": 3.5831887197,
				"element": "C" 
			},
			{
				"x": -3.032962543,
				"y": -2.1437098533,
				"z": 4.177859407,
				"element": "F" 
			},
			{
				"x": -3.4736167028,
				"y": -0.0856980708,
				"z": 3.1235213059,
				"element": "C" 
			},
			{
				"x": -2.985942454,
				"y": 1.0636815398,
				"z": 2.5071973592,
				"element": "C" 
			},
			{
				"x": -0.3029263581,
				"y": 0.0815329484,
				"z": -0.6746503278,
				"element": "C" 
			},
			{
				"x": 0.5436705552,
				"y": -0.9330583825,
				"z": -1.1855172795,
				"element": "C" 
			},
			{
				"x": 0.1328738148,
				"y": -2.289178265,
				"z": -1.2906635248,
				"element": "C" 
			},
			{
				"x": 0.9917918294,
				"y": -3.2411733203,
				"z": -1.7913514057,
				"element": "C" 
			},
			{
				"x": 2.297172205,
				"y": -2.8813678725,
				"z": -2.2125164852,
				"element": "C" 
			},
			{
				"x": 2.7220794642,
				"y": -1.5753248103,
				"z": -2.12496389,
				"element": "C" 
			},
			{
				"x": 1.8611629229,
				"y": -0.5683231496,
				"z": -1.6093840118,
				"element": "C" 
			},
			{
				"x": 2.2529051361,
				"y": 0.7892482629,
				"z": -1.5222722271,
				"element": "C" 
			},
			{
				"x": 1.3231825691,
				"y": 3.5941655712,
				"z": 0.712700128,
				"element": "H" 
			},
			{
				"x": -1.7063269686,
				"y": 2.4206452663,
				"z": -0.5716066431,
				"element": "H" 
			},
			{
				"x": 0.3655871537,
				"y": 0.4436403945,
				"z": 2.7422995494,
				"element": "H" 
			},
			{
				"x": -0.5192608024,
				"y": -1.6360385969,
				"z": 3.8431388901,
				"element": "H" 
			},
			{
				"x": -4.536324158,
				"y": -0.2498549285,
				"z": 3.2621856634,
				"element": "H" 
			},
			{
				"x": -3.6640463953,
				"y": 1.8361295755,
				"z": 2.1612378478,
				"element": "H" 
			},
			{
				"x": -1.3119919918,
				"y": -0.1805065264,
				"z": -0.3679558819,
				"element": "H" 
			},
			{
				"x": -0.8684498938,
				"y": -2.5631408254,
				"z": -0.9690002985,
				"element": "H" 
			},
			{
				"x": 0.671142793,
				"y": -4.2759184971,
				"z": -1.8678324341,
				"element": "H" 
			},
			{
				"x": 2.9611585738,
				"y": -3.6443307903,
				"z": -2.6076410812,
				"element": "H" 
			},
			{
				"x": 3.7200359211,
				"y": -1.2945026653,
				"z": -2.4497707496,
				"element": "H" 
			},
			{
				"x": 3.2266940743,
				"y": 1.0880889201,
				"z": -1.8968014676,
				"element": "H" 
			}
		],
		 "valence_orbital": [ 
			{
				"type": "occ",
				"energy": -0.29344,
				"method": "rhf"
			},
			{
				"type": "occ",
				"energy": -0.28091,
				"method": "rhf"
			},
			{
				"type": "occ",
				"energy": -0.26628,
				"method": "rhf"
			},
			{
				"type": "occ",
				"energy": -0.25691,
				"method": "rhf"
			},
			{
				"type": "occ",
				"energy": -0.23475,
				"method": "rhf"
			},
			{
				"type": "unocc",
				"energy": -0.06843,
				"method": "rhf"
			},
			{
				"type": "unocc",
				"energy": -0.05664,
				"method": "rhf"
			},
			{
				"type": "unocc",
				"energy": -0.04744,
				"method": "rhf"
			},
			{
				"type": "unocc",
				"energy": -0.0443,
				"method": "rhf"
			},
			{
				"type": "unocc",
				"energy": 0.00723,
				"method": "rhf"
			}
		],
		"cosmo_sigma_profile": { 
			"-0.025": 0.0,
			"-0.024": 0.0,
			"-0.023": 0.0,
			"-0.022": 0.0,
			"-0.021": 0.0,
			"-0.02": 0.0,
			"-0.019": 0.0,
			"-0.018": 0.0,
			"-0.017": 0.170274711631,
			"-0.016": 1.21631255226,
			"-0.015": 1.02772059184,
			"-0.014": 1.27619625681,
			"-0.013": 1.2450523747,
			"-0.012": 1.61474890171,
			"-0.011": 1.35165549284,
			"-0.01": 1.21871174011,
			"-0.009": 2.31998335263,
			"-0.008": 8.50513019142,
			"-0.007": 17.0246251124,
			"-0.006": 19.4356859979,
			"-0.005": 18.3211670861,
			"-0.004": 19.7837119847,
			"-0.003": 18.4234077395,
			"-0.002": 19.5414907591,
			"-0.001": 23.8365526544,
			"0.0": 29.4400892595,
			"0.001": 32.0165334557,
			"0.002": 24.3735447208,
			"0.003": 25.7565723131,
			"0.004": 17.3951608473,
			"0.005": 7.23734349869,
			"0.006": 5.39738145391,
			"0.007": 5.0764765562,
			"0.008": 5.85149729367,
			"0.009": 8.03588647454,
			"0.01": 8.84859642843,
			"0.011": 6.72787569959,
			"0.012": 6.14441273322,
			"0.013": 2.86684560852,
			"0.014": 0.413220855834,
			"0.015": 0.0,
			"0.016": 0.0,
			"0.017": 0.0,
			"0.018": 0.0,
			"0.019": 0.0,
			"0.02": 0.0,
			"0.021": 0.0,
			"0.022": 0.0,
			"0.023": 0.0,
			"0.024": 0.0,
			"0.025": 0.0
		}
	}
}
