{
	 "smiles": "ClN=C1C=C(Cl)C(=O)C(Cl)=C1", 
	 "Tm": 339.65, 
	 "num_atms": 13, 
	 "gaussian": { 
		 "optdone": 1, 
		 "sigma_profile": "yes", 
		 "theory": "DFT", 
		 "functional": "B3LYP", 
		 "basiset": "6-31G**", 
		 "properties": { 
			 "R2extent": 3579.9492, 
			 "electric_dipole_moment_norm": 1.74558403693, 
			 "electric_quadrupole_moment_norm": 11.7122816573, 
			 "total_energy": -1740.31270822, 
			 "HOMO_LUMO_gap": 0.13619, 
			 "cosmo_polarized_energy": -8.47, 
			 "cosmo_cavitation_energy": 24.1, 
			 "cosmo_dispersion_energy": -18.17, 
			 "cosmo_repulsion_energy": 1.47, 
			 "cosmo_total_nonelectrostatic_energy": 7.4, 
			 "SMD_solvation_energy": 2.99 
		},
		"coords": [
			{
				"x": -3.4757892377,
				"y": 2.526712662,
				"z": -1.5667396428,
				"element": "Cl" 
			},
			{
				"x": -1.9766484376,
				"y": 2.2878306577,
				"z": -0.7047448934,
				"element": "N" 
			},
			{
				"x": -1.4564941858,
				"y": 1.0953203184,
				"z": -0.7584035162,
				"element": "C" 
			},
			{
				"x": -1.9670592543,
				"y": -0.0813219311,
				"z": -1.4516699253,
				"element": "C" 
			},
			{
				"x": -1.2895476729,
				"y": -1.244850923,
				"z": -1.3977803024,
				"element": "C" 
			},
			{
				"x": -1.8678593933,
				"y": -2.6599026316,
				"z": -2.2089927764,
				"element": "Cl" 
			},
			{
				"x": -0.000850924,
				"y": -1.4079375654,
				"z": -0.6442232112,
				"element": "C" 
			},
			{
				"x": 0.5992917959,
				"y": -2.4636145337,
				"z": -0.6028195645,
				"element": "O" 
			},
			{
				"x": 0.474415663,
				"y": -0.1727186983,
				"z": 0.0469422837,
				"element": "C" 
			},
			{
				"x": 1.9584136875,
				"y": -0.3173580171,
				"z": 0.9302269587,
				"element": "Cl" 
			},
			{
				"x": -0.2031839358,
				"y": 0.9893368772,
				"z": -0.0074927764,
				"element": "C" 
			},
			{
				"x": -2.8939171402,
				"y": 0.0016350597,
				"z": -2.0048607048,
				"element": "H" 
			},
			{
				"x": 0.1452290353,
				"y": 1.8838687252,
				"z": 0.495358071,
				"element": "H" 
			}
		],
		 "valence_orbital": [ 
			{
				"type": "occ",
				"energy": -0.33313,
				"method": "rhf"
			},
			{
				"type": "occ",
				"energy": -0.30443,
				"method": "rhf"
			},
			{
				"type": "occ",
				"energy": -0.296,
				"method": "rhf"
			},
			{
				"type": "occ",
				"energy": -0.29222,
				"method": "rhf"
			},
			{
				"type": "occ",
				"energy": -0.27978,
				"method": "rhf"
			},
			{
				"type": "unocc",
				"energy": -0.14359,
				"method": "rhf"
			},
			{
				"type": "unocc",
				"energy": -0.04706,
				"method": "rhf"
			},
			{
				"type": "unocc",
				"energy": -0.04621,
				"method": "rhf"
			},
			{
				"type": "unocc",
				"energy": -0.00824,
				"method": "rhf"
			},
			{
				"type": "unocc",
				"energy": -0.00409,
				"method": "rhf"
			}
		],
		"cosmo_sigma_profile": { 
			"-0.025": 0.0,
			"-0.024": 0.0,
			"-0.023": 0.0,
			"-0.022": 0.0,
			"-0.021": 0.0,
			"-0.02": 0.0,
			"-0.019": 0.0,
			"-0.018": 0.0,
			"-0.017": 0.0,
			"-0.016": 0.0,
			"-0.015": 0.0,
			"-0.014": 0.0,
			"-0.013": 0.0,
			"-0.012": 0.0,
			"-0.011": 0.0610512138128,
			"-0.01": 1.58397027946,
			"-0.009": 2.23823972737,
			"-0.008": 4.22667757384,
			"-0.007": 5.30062769933,
			"-0.006": 7.67495987109,
			"-0.005": 11.2507252943,
			"-0.004": 15.0264808687,
			"-0.003": 17.7826042621,
			"-0.002": 16.3142544873,
			"-0.001": 14.4415339766,
			"0.0": 14.0943925448,
			"0.001": 13.7469320382,
			"0.002": 20.0317113846,
			"0.003": 21.8436529107,
			"0.004": 9.93882115578,
			"0.005": 4.41695303061,
			"0.006": 2.56165074006,
			"0.007": 4.22294434697,
			"0.008": 4.29907843909,
			"0.009": 4.88597554506,
			"0.01": 5.19539315557,
			"0.011": 1.19300117977,
			"0.012": 0.0,
			"0.013": 0.0,
			"0.014": 0.0,
			"0.015": 0.0,
			"0.016": 0.0,
			"0.017": 0.0,
			"0.018": 0.0,
			"0.019": 0.0,
			"0.02": 0.0,
			"0.021": 0.0,
			"0.022": 0.0,
			"0.023": 0.0,
			"0.024": 0.0,
			"0.025": 0.0
		}
	}
}
