{
	 "smiles": "CN(C1CCCCC1)S(=O)(=O)C1=CC=C(N)C=C1", 
	 "Tm": 416.15, 
	 "num_atms": 38, 
	 "gaussian": { 
		 "optdone": 1, 
		 "sigma_profile": "yes", 
		 "theory": "DFT", 
		 "functional": "B3LYP", 
		 "basiset": "6-31G**", 
		 "properties": { 
			 "R2extent": 5696.0887, 
			 "electric_dipole_moment_norm": 6.68833430534, 
			 "electric_quadrupole_moment_norm": 24.3692271876, 
			 "total_energy": -1165.51429861, 
			 "HOMO_LUMO_gap": 0.19888, 
			 "cosmo_polarized_energy": -18.35, 
			 "cosmo_cavitation_energy": 39.27, 
			 "cosmo_dispersion_energy": -27.62, 
			 "cosmo_repulsion_energy": 2.11, 
			 "cosmo_total_nonelectrostatic_energy": 13.77, 
			 "SMD_solvation_energy": 5.03 
		},
		"coords": [
			{
				"x": -2.1878207677,
				"y": -2.1099469205,
				"z": -1.1810308832,
				"element": "C" 
			},
			{
				"x": -1.0232818243,
				"y": -1.4562221275,
				"z": -0.5728468614,
				"element": "N" 
			},
			{
				"x": -1.1475211678,
				"y": -0.9358877382,
				"z": 0.8096043027,
				"element": "C" 
			},
			{
				"x": -2.1404707067,
				"y": 0.2360374103,
				"z": 0.8726160875,
				"element": "C" 
			},
			{
				"x": -2.0077082838,
				"y": 0.9838892567,
				"z": 2.2216533452,
				"element": "C" 
			},
			{
				"x": -1.62112066,
				"y": 0.0398119066,
				"z": 3.3871341887,
				"element": "C" 
			},
			{
				"x": -2.1397157683,
				"y": -1.3829554905,
				"z": 3.1394201299,
				"element": "C" 
			},
			{
				"x": -1.4943750748,
				"y": -2.0062594125,
				"z": 1.8781969437,
				"element": "C" 
			},
			{
				"x": 0.4891999414,
				"y": -2.1150839266,
				"z": -0.971296437,
				"element": "S" 
			},
			{
				"x": 0.3268569563,
				"y": -2.7124853791,
				"z": -2.3028096249,
				"element": "O" 
			},
			{
				"x": 1.0343368685,
				"y": -2.9215604925,
				"z": 0.1336458654,
				"element": "O" 
			},
			{
				"x": 1.5092614327,
				"y": -0.6549960965,
				"z": -1.1006512735,
				"element": "C" 
			},
			{
				"x": 2.6146685575,
				"y": -0.5045441244,
				"z": -0.2603990043,
				"element": "C" 
			},
			{
				"x": 3.4415681439,
				"y": 0.6050256859,
				"z": -0.3943434654,
				"element": "C" 
			},
			{
				"x": 3.1811616478,
				"y": 1.5782080992,
				"z": -1.3773927266,
				"element": "C" 
			},
			{
				"x": 4.0316032854,
				"y": 2.6576782187,
				"z": -1.5477755202,
				"element": "N" 
			},
			{
				"x": 2.0649581086,
				"y": 1.4061013019,
				"z": -2.2233823714,
				"element": "C" 
			},
			{
				"x": 1.2405865976,
				"y": 0.299254057,
				"z": -2.0887605841,
				"element": "C" 
			},
			{
				"x": -2.4794349395,
				"y": -3.0442514516,
				"z": -0.6839352588,
				"element": "H" 
			},
			{
				"x": -1.9624954944,
				"y": -2.3296770206,
				"z": -2.2235889955,
				"element": "H" 
			},
			{
				"x": -3.0304162341,
				"y": -1.4149975126,
				"z": -1.1425308917,
				"element": "H" 
			},
			{
				"x": -0.1610524759,
				"y": -0.520548115,
				"z": 1.046055082,
				"element": "H" 
			},
			{
				"x": -3.163146723,
				"y": -0.1448356087,
				"z": 0.7622094044,
				"element": "H" 
			},
			{
				"x": -1.963845989,
				"y": 0.9169326318,
				"z": 0.0338091905,
				"element": "H" 
			},
			{
				"x": -2.9575982321,
				"y": 1.483314602,
				"z": 2.4446963607,
				"element": "H" 
			},
			{
				"x": -1.2574021377,
				"y": 1.7782025113,
				"z": 2.1309339045,
				"element": "H" 
			},
			{
				"x": -0.5289938656,
				"y": 0.0051085432,
				"z": 3.4939874227,
				"element": "H" 
			},
			{
				"x": -2.0059847672,
				"y": 0.434244144,
				"z": 4.3340813843,
				"element": "H" 
			},
			{
				"x": -1.9476627739,
				"y": -2.0217313998,
				"z": 4.0085004382,
				"element": "H" 
			},
			{
				"x": -3.2311374709,
				"y": -1.3464362711,
				"z": 3.0245097173,
				"element": "H" 
			},
			{
				"x": -0.5798225218,
				"y": -2.5480932457,
				"z": 2.1334335464,
				"element": "H" 
			},
			{
				"x": -2.1803589659,
				"y": -2.7457200322,
				"z": 1.4515361982,
				"element": "H" 
			},
			{
				"x": 2.8168515075,
				"y": -1.2609670821,
				"z": 0.4899373371,
				"element": "H" 
			},
			{
				"x": 4.3026658332,
				"y": 0.7198205495,
				"z": 0.258787625,
				"element": "H" 
			},
			{
				"x": 4.6230420546,
				"y": 2.8993235868,
				"z": -0.7665090137,
				"element": "H" 
			},
			{
				"x": 3.6590521655,
				"y": 3.4594534141,
				"z": -2.0344599063,
				"element": "H" 
			},
			{
				"x": 1.8581121119,
				"y": 2.1455153335,
				"z": -2.9926812357,
				"element": "H" 
			},
			{
				"x": 0.387341632,
				"y": 0.1721781951,
				"z": -2.7465544206,
				"element": "H" 
			}
		],
		 "valence_orbital": [ 
			{
				"type": "occ",
				"energy": -0.29021,
				"method": "rhf"
			},
			{
				"type": "occ",
				"energy": -0.2822,
				"method": "rhf"
			},
			{
				"type": "occ",
				"energy": -0.26327,
				"method": "rhf"
			},
			{
				"type": "occ",
				"energy": -0.2371,
				"method": "rhf"
			},
			{
				"type": "occ",
				"energy": -0.21576,
				"method": "rhf"
			},
			{
				"type": "unocc",
				"energy": -0.01688,
				"method": "rhf"
			},
			{
				"type": "unocc",
				"energy": -0.0114,
				"method": "rhf"
			},
			{
				"type": "unocc",
				"energy": 0.06214,
				"method": "rhf"
			},
			{
				"type": "unocc",
				"energy": 0.07372,
				"method": "rhf"
			},
			{
				"type": "unocc",
				"energy": 0.07876,
				"method": "rhf"
			}
		],
		"cosmo_sigma_profile": { 
			"-0.025": 0.0,
			"-0.024": 0.0,
			"-0.023": 0.0,
			"-0.022": 0.0,
			"-0.021": 0.0,
			"-0.02": 0.0,
			"-0.019": 0.0,
			"-0.018": 0.0,
			"-0.017": 0.0,
			"-0.016": 0.0,
			"-0.015": 0.0,
			"-0.014": 0.285957045673,
			"-0.013": 2.77557737859,
			"-0.012": 2.38382453817,
			"-0.011": 3.37721007841,
			"-0.01": 3.69413284031,
			"-0.009": 2.77098621988,
			"-0.008": 2.86701094343,
			"-0.007": 4.57326841072,
			"-0.006": 7.86006452926,
			"-0.005": 10.9407629902,
			"-0.004": 15.820232559,
			"-0.003": 24.5464058179,
			"-0.002": 38.0761460862,
			"-0.001": 37.3496226739,
			"0.0": 31.4955371227,
			"0.001": 26.7464687155,
			"0.002": 14.4333498093,
			"0.003": 13.558845656,
			"0.004": 17.3294073983,
			"0.005": 8.01432439054,
			"0.006": 4.00153308415,
			"0.007": 3.82598064619,
			"0.008": 4.57505826665,
			"0.009": 3.41073431867,
			"0.01": 5.72751453362,
			"0.011": 7.23566881075,
			"0.012": 7.70833384349,
			"0.013": 1.7017681594,
			"0.014": 0.0,
			"0.015": 0.0,
			"0.016": 0.0,
			"0.017": 0.0,
			"0.018": 0.0,
			"0.019": 0.0,
			"0.02": 0.0,
			"0.021": 0.0,
			"0.022": 0.0,
			"0.023": 0.0,
			"0.024": 0.0,
			"0.025": 0.0
		}
	}
}
