{
	 "smiles": "ClC1=C2C=CC(Br)=CC2=NC=C1", 
	 "Tm": 373.15, 
	 "num_atms": 17, 
	 "gaussian": { 
		 "optdone": 1, 
		 "sigma_profile": "yes", 
		 "theory": "DFT", 
		 "functional": "B3LYP", 
		 "basiset": "6-31G**", 
		 "properties": { 
			 "R2extent": 4839.8462, 
			 "electric_dipole_moment_norm": 1.64389049818, 
			 "electric_quadrupole_moment_norm": 6.6100988563, 
			 "total_energy": -3432.32371534, 
			 "HOMO_LUMO_gap": 0.17181, 
			 "cosmo_polarized_energy": -5.71, 
			 "cosmo_cavitation_energy": 25.45, 
			 "cosmo_dispersion_energy": -19.68, 
			 "cosmo_repulsion_energy": 1.54, 
			 "cosmo_total_nonelectrostatic_energy": 7.31, 
			 "SMD_solvation_energy": 1.32 
		},
		"coords": [
			{
				"x": -1.4831777721,
				"y": 1.3275927269,
				"z": 1.7424112461,
				"element": "Cl" 
			},
			{
				"x": -0.0379479079,
				"y": 0.8597503998,
				"z": 0.867223473,
				"element": "C" 
			},
			{
				"x": -0.0811410165,
				"y": -0.2100835027,
				"z": -0.0681479235,
				"element": "C" 
			},
			{
				"x": -1.236593565,
				"y": -0.9728565212,
				"z": -0.3770569991,
				"element": "C" 
			},
			{
				"x": -1.1824227059,
				"y": -1.9924607968,
				"z": -1.2989337698,
				"element": "C" 
			},
			{
				"x": 0.0403922438,
				"y": -2.2851118684,
				"z": -1.9478845012,
				"element": "C" 
			},
			{
				"x": 0.0776467776,
				"y": -3.7064773474,
				"z": -3.221139974,
				"element": "Br" 
			},
			{
				"x": 1.1843635075,
				"y": -1.574047254,
				"z": -1.6811392297,
				"element": "C" 
			},
			{
				"x": 1.1541103889,
				"y": -0.516241449,
				"z": -0.7330097146,
				"element": "C" 
			},
			{
				"x": 2.3164616209,
				"y": 0.1585214496,
				"z": -0.504414268,
				"element": "N" 
			},
			{
				"x": 2.2881305486,
				"y": 1.1386778063,
				"z": 0.3741244948,
				"element": "C" 
			},
			{
				"x": 1.1358826904,
				"y": 1.5372234899,
				"z": 1.0945348599,
				"element": "C" 
			},
			{
				"x": -2.1711250049,
				"y": -0.7447891697,
				"z": 0.122787887,
				"element": "H" 
			},
			{
				"x": -2.0664617249,
				"y": -2.573817103,
				"z": -1.5333288196,
				"element": "H" 
			},
			{
				"x": 2.1257863344,
				"y": -1.7889062561,
				"z": -2.1715042504,
				"element": "H" 
			},
			{
				"x": 3.2245689069,
				"y": 1.6677337955,
				"z": 0.5453401385,
				"element": "H" 
			},
			{
				"x": 1.1834266782,
				"y": 2.3544916001,
				"z": 1.8044373506,
				"element": "H" 
			}
		],
		 "valence_orbital": [ 
			{
				"type": "occ",
				"energy": -0.29522,
				"method": "rhf"
			},
			{
				"type": "occ",
				"energy": -0.2943,
				"method": "rhf"
			},
			{
				"type": "occ",
				"energy": -0.27199,
				"method": "rhf"
			},
			{
				"type": "occ",
				"energy": -0.26082,
				"method": "rhf"
			},
			{
				"type": "occ",
				"energy": -0.24419,
				"method": "rhf"
			},
			{
				"type": "unocc",
				"energy": -0.07238,
				"method": "rhf"
			},
			{
				"type": "unocc",
				"energy": -0.0366,
				"method": "rhf"
			},
			{
				"type": "unocc",
				"energy": 0.00019,
				"method": "rhf"
			},
			{
				"type": "unocc",
				"energy": 0.00287,
				"method": "rhf"
			},
			{
				"type": "unocc",
				"energy": 0.0159,
				"method": "rhf"
			}
		],
		"cosmo_sigma_profile": { 
			"-0.025": 0.0,
			"-0.024": 0.0,
			"-0.023": 0.0,
			"-0.022": 0.0,
			"-0.021": 0.0,
			"-0.02": 0.0,
			"-0.019": 0.0,
			"-0.018": 0.0,
			"-0.017": 0.0,
			"-0.016": 0.0,
			"-0.015": 0.0,
			"-0.014": 0.0,
			"-0.013": 0.0,
			"-0.012": 0.0,
			"-0.011": 0.0,
			"-0.01": 0.0,
			"-0.009": 0.387248780914,
			"-0.008": 4.10982618676,
			"-0.007": 9.03434620452,
			"-0.006": 8.57687359968,
			"-0.005": 7.67079320679,
			"-0.004": 8.44510012475,
			"-0.003": 10.6129427685,
			"-0.002": 13.1337023858,
			"-0.001": 21.1400798555,
			"0.0": 30.987785318,
			"0.001": 28.8078254234,
			"0.002": 21.3831271938,
			"0.003": 17.8421180316,
			"0.004": 16.8101247611,
			"0.005": 2.97254090861,
			"0.006": 1.2593170828,
			"0.007": 1.66837458469,
			"0.008": 1.04846732215,
			"0.009": 0.662628684248,
			"0.01": 1.03513355445,
			"0.011": 1.04639646508,
			"0.012": 0.428594632382,
			"0.013": 0.973156928473,
			"0.014": 0.809947734859,
			"0.015": 0.536670398818,
			"0.016": 0.0634692212455,
			"0.017": 0.0,
			"0.018": 0.0,
			"0.019": 0.0,
			"0.02": 0.0,
			"0.021": 0.0,
			"0.022": 0.0,
			"0.023": 0.0,
			"0.024": 0.0,
			"0.025": 0.0
		}
	}
}
