{
	 "smiles": "COC(=O)CC1=C(C)NN=C1C", 
	 "Tm": 326.15, 
	 "num_atms": 24, 
	 "gaussian": { 
		 "optdone": 1, 
		 "sigma_profile": "yes", 
		 "theory": "DFT", 
		 "functional": "B3LYP", 
		 "basiset": "6-31G**", 
		 "properties": { 
			 "R2extent": 2882.8732, 
			 "electric_dipole_moment_norm": 0.767745439583, 
			 "electric_quadrupole_moment_norm": 11.8964937759, 
			 "total_energy": -572.038297179, 
			 "HOMO_LUMO_gap": 0.23322, 
			 "cosmo_polarized_energy": -12.8, 
			 "cosmo_cavitation_energy": 27.97, 
			 "cosmo_dispersion_energy": -19.55, 
			 "cosmo_repulsion_energy": 1.6, 
			 "cosmo_total_nonelectrostatic_energy": 10.02, 
			 "SMD_solvation_energy": 5.41 
		},
		"coords": [
			{
				"x": -4.5061847798,
				"y": 0.0223598368,
				"z": -0.4709766003,
				"element": "C" 
			},
			{
				"x": -3.3057406214,
				"y": 0.5289219933,
				"z": -1.0789076321,
				"element": "O" 
			},
			{
				"x": -2.7053506443,
				"y": 1.5416348148,
				"z": -0.4167663619,
				"element": "C" 
			},
			{
				"x": -3.1456102036,
				"y": 2.026891124,
				"z": 0.6052022111,
				"element": "O" 
			},
			{
				"x": -1.4015471317,
				"y": 1.949269243,
				"z": -1.0842508396,
				"element": "C" 
			},
			{
				"x": -0.237882419,
				"y": 1.2085525986,
				"z": -0.4755974296,
				"element": "C" 
			},
			{
				"x": 0.3811703309,
				"y": 1.4761968179,
				"z": 0.7383081982,
				"element": "C" 
			},
			{
				"x": 0.1377919962,
				"y": 2.5412162546,
				"z": 1.7610164208,
				"element": "C" 
			},
			{
				"x": 1.352841663,
				"y": 0.5331937864,
				"z": 0.8610788644,
				"element": "N" 
			},
			{
				"x": 1.4066294663,
				"y": -0.3357244784,
				"z": -0.1764017807,
				"element": "N" 
			},
			{
				"x": 0.4361284115,
				"y": 0.0685069559,
				"z": -0.9957754984,
				"element": "C" 
			},
			{
				"x": 0.165586466,
				"y": -0.6592837887,
				"z": -2.2773620824,
				"element": "C" 
			},
			{
				"x": -5.2579428476,
				"y": 0.8111200648,
				"z": -0.3880171096,
				"element": "H" 
			},
			{
				"x": -4.8563346611,
				"y": -0.7733498765,
				"z": -1.1282741517,
				"element": "H" 
			},
			{
				"x": -4.2950160091,
				"y": -0.369298798,
				"z": 0.5272306472,
				"element": "H" 
			},
			{
				"x": -1.2943397483,
				"y": 3.0294201616,
				"z": -0.9478684719,
				"element": "H" 
			},
			{
				"x": -1.4610439126,
				"y": 1.742209116,
				"z": -2.1556165544,
				"element": "H" 
			},
			{
				"x": -0.9259393409,
				"y": 2.7883673116,
				"z": 1.7963174379,
				"element": "H" 
			},
			{
				"x": 0.440764687,
				"y": 2.2096485027,
				"z": 2.7596495445,
				"element": "H" 
			},
			{
				"x": 0.6942932654,
				"y": 3.4593358243,
				"z": 1.5341320194,
				"element": "H" 
			},
			{
				"x": 1.9992181314,
				"y": 0.4204737655,
				"z": 1.6264368455,
				"element": "H" 
			},
			{
				"x": 0.8227203081,
				"y": -1.528256701,
				"z": -2.3531870978,
				"element": "H" 
			},
			{
				"x": -0.8742481296,
				"y": -1.0001553436,
				"z": -2.328697319,
				"element": "H" 
			},
			{
				"x": 0.3424357232,
				"y": -0.0203491855,
				"z": -3.1511732596,
				"element": "H" 
			}
		],
		 "valence_orbital": [ 
			{
				"type": "occ",
				"energy": -0.30181,
				"method": "rhf"
			},
			{
				"type": "occ",
				"energy": -0.2803,
				"method": "rhf"
			},
			{
				"type": "occ",
				"energy": -0.27114,
				"method": "rhf"
			},
			{
				"type": "occ",
				"energy": -0.2354,
				"method": "rhf"
			},
			{
				"type": "occ",
				"energy": -0.22393,
				"method": "rhf"
			},
			{
				"type": "unocc",
				"energy": 0.00929,
				"method": "rhf"
			},
			{
				"type": "unocc",
				"energy": 0.03064,
				"method": "rhf"
			},
			{
				"type": "unocc",
				"energy": 0.07335,
				"method": "rhf"
			},
			{
				"type": "unocc",
				"energy": 0.08623,
				"method": "rhf"
			},
			{
				"type": "unocc",
				"energy": 0.0979,
				"method": "rhf"
			}
		],
		"cosmo_sigma_profile": { 
			"-0.025": 0.0,
			"-0.024": 0.0,
			"-0.023": 0.0,
			"-0.022": 0.0,
			"-0.021": 0.0,
			"-0.02": 0.0,
			"-0.019": 0.0,
			"-0.018": 0.0,
			"-0.017": 0.0,
			"-0.016": 0.464236556377,
			"-0.015": 1.32894712891,
			"-0.014": 1.46496933812,
			"-0.013": 1.08311849939,
			"-0.012": 1.03942050803,
			"-0.011": 1.12033170569,
			"-0.01": 0.881045368998,
			"-0.009": 1.17839729475,
			"-0.008": 1.34642685157,
			"-0.007": 1.30955249835,
			"-0.006": 7.91864770637,
			"-0.005": 14.4951205737,
			"-0.004": 21.386489709,
			"-0.003": 24.6081663918,
			"-0.002": 20.8394852308,
			"-0.001": 20.2256946323,
			"0.0": 15.8178760501,
			"0.001": 12.0168524536,
			"0.002": 11.8721036265,
			"0.003": 9.74395701306,
			"0.004": 8.95625955857,
			"0.005": 7.39760180005,
			"0.006": 5.26031044229,
			"0.007": 4.24043477776,
			"0.008": 4.01190042777,
			"0.009": 3.65936743607,
			"0.01": 2.46696993378,
			"0.011": 4.30173166266,
			"0.012": 4.58957312656,
			"0.013": 1.48116903719,
			"0.014": 1.10168897126,
			"0.015": 0.830933381367,
			"0.016": 1.13855386667,
			"0.017": 0.616262545859,
			"0.018": 0.0462640647549,
			"0.019": 0.0,
			"0.02": 0.0,
			"0.021": 0.0,
			"0.022": 0.0,
			"0.023": 0.0,
			"0.024": 0.0,
			"0.025": 0.0
		}
	}
}
