{
	 "smiles": "NNC(=O)CO", 
	 "Tm": 364.15, 
	 "num_atms": 12, 
	 "gaussian": { 
		 "optdone": 1, 
		 "sigma_profile": "yes", 
		 "theory": "DFT", 
		 "functional": "B3LYP", 
		 "basiset": "6-31G**", 
		 "properties": { 
			 "R2extent": 1018.6388, 
			 "electric_dipole_moment_norm": 2.82271671622, 
			 "electric_quadrupole_moment_norm": 8.74136678501, 
			 "total_energy": -339.74743978, 
			 "HOMO_LUMO_gap": 0.27422, 
			 "cosmo_polarized_energy": -13.67, 
			 "cosmo_cavitation_energy": 15.92, 
			 "cosmo_dispersion_energy": -12.11, 
			 "cosmo_repulsion_energy": 1.08, 
			 "cosmo_total_nonelectrostatic_energy": 4.9, 
			 "SMD_solvation_energy": 4.16 
		},
		"coords": [
			{
				"x": 0.9266686428,
				"y": -2.0674210484,
				"z": -0.0929293921,
				"element": "N" 
			},
			{
				"x": 1.0910846801,
				"y": -0.7041341983,
				"z": -0.4025927088,
				"element": "N" 
			},
			{
				"x": 1.3570303592,
				"y": 0.2372463294,
				"z": 0.5376835419,
				"element": "C" 
			},
			{
				"x": 1.4743694889,
				"y": -0.0281686018,
				"z": 1.7320804277,
				"element": "O" 
			},
			{
				"x": 1.5106782072,
				"y": 1.6825435488,
				"z": 0.0503617873,
				"element": "C" 
			},
			{
				"x": 1.7824740899,
				"y": 2.5199867045,
				"z": 1.13725101,
				"element": "O" 
			},
			{
				"x": 0.1777159977,
				"y": -2.1387050806,
				"z": 0.595284502,
				"element": "H" 
			},
			{
				"x": 1.7709956346,
				"y": -2.3781996512,
				"z": 0.3868547489,
				"element": "H" 
			},
			{
				"x": 0.9990332933,
				"y": -0.4677569608,
				"z": -1.3794274052,
				"element": "H" 
			},
			{
				"x": 0.5844294767,
				"y": 1.9861940142,
				"z": -0.464387611,
				"element": "H" 
			},
			{
				"x": 2.3207040205,
				"y": 1.7238020004,
				"z": -0.6960952693,
				"element": "H" 
			},
			{
				"x": 1.793916109,
				"y": 1.9240129439,
				"z": 1.9095163686,
				"element": "H" 
			}
		],
		 "valence_orbital": [ 
			{
				"type": "occ",
				"energy": -0.34613,
				"method": "rhf"
			},
			{
				"type": "occ",
				"energy": -0.29096,
				"method": "rhf"
			},
			{
				"type": "occ",
				"energy": -0.28327,
				"method": "rhf"
			},
			{
				"type": "occ",
				"energy": -0.27779,
				"method": "rhf"
			},
			{
				"type": "occ",
				"energy": -0.26262,
				"method": "rhf"
			},
			{
				"type": "unocc",
				"energy": 0.0116,
				"method": "rhf"
			},
			{
				"type": "unocc",
				"energy": 0.06748,
				"method": "rhf"
			},
			{
				"type": "unocc",
				"energy": 0.07745,
				"method": "rhf"
			},
			{
				"type": "unocc",
				"energy": 0.11768,
				"method": "rhf"
			},
			{
				"type": "unocc",
				"energy": 0.13669,
				"method": "rhf"
			}
		],
		"cosmo_sigma_profile": { 
			"-0.025": 0.0,
			"-0.024": 0.0,
			"-0.023": 0.0,
			"-0.022": 0.0,
			"-0.021": 0.0,
			"-0.02": 0.0,
			"-0.019": 0.0,
			"-0.018": 0.0,
			"-0.017": 0.0,
			"-0.016": 0.231377625008,
			"-0.015": 1.06423921163,
			"-0.014": 1.38388478243,
			"-0.013": 1.42546420007,
			"-0.012": 1.57849686864,
			"-0.011": 3.26738716567,
			"-0.01": 4.63132752777,
			"-0.009": 4.51795464139,
			"-0.008": 4.34650482028,
			"-0.007": 3.75529936757,
			"-0.006": 7.62427380845,
			"-0.005": 7.24346599964,
			"-0.004": 6.0276030169,
			"-0.003": 6.7305542466,
			"-0.002": 6.38450911861,
			"-0.001": 6.58948172686,
			"0.0": 6.45248205281,
			"0.001": 4.62816604839,
			"0.002": 4.82751159969,
			"0.003": 2.63193436709,
			"0.004": 2.48954850169,
			"0.005": 2.63005681365,
			"0.006": 2.75840349268,
			"0.007": 2.94532269149,
			"0.008": 2.8893854662,
			"0.009": 4.0023863023,
			"0.01": 3.27862176075,
			"0.011": 3.28133276426,
			"0.012": 5.08902347875,
			"0.013": 4.80329033714,
			"0.014": 3.0915846908,
			"0.015": 1.15466039616,
			"0.016": 0.389659063503,
			"0.017": 0.107694358134,
			"0.018": 0.0,
			"0.019": 0.0,
			"0.02": 0.0,
			"0.021": 0.0,
			"0.022": 0.0,
			"0.023": 0.0,
			"0.024": 0.0,
			"0.025": 0.0
		}
	}
}
