{
	 "smiles": "CCN(CC)C(=O)C1=CC=C(O)C(OC)=C1", 
	 "Tm": 368.15, 
	 "num_atms": 33, 
	 "gaussian": { 
		 "optdone": 1, 
		 "sigma_profile": "yes", 
		 "theory": "DFT", 
		 "functional": "B3LYP", 
		 "basiset": "6-31G**", 
		 "properties": { 
			 "R2extent": 4744.4238, 
			 "electric_dipole_moment_norm": 2.49449357786, 
			 "electric_quadrupole_moment_norm": 17.785588593, 
			 "total_energy": -747.949917155, 
			 "HOMO_LUMO_gap": 0.19474, 
			 "cosmo_polarized_energy": -13.42, 
			 "cosmo_cavitation_energy": 35.14, 
			 "cosmo_dispersion_energy": -24.67, 
			 "cosmo_repulsion_energy": 1.95, 
			 "cosmo_total_nonelectrostatic_energy": 12.41, 
			 "SMD_solvation_energy": 7.23 
		},
		"coords": [
			{
				"x": 2.0167348707,
				"y": 2.2509417326,
				"z": -2.3596612714,
				"element": "C" 
			},
			{
				"x": 0.572122388,
				"y": 2.6085971012,
				"z": -1.9871125869,
				"element": "C" 
			},
			{
				"x": -0.4208710907,
				"y": 1.5701786349,
				"z": -2.3059973584,
				"element": "N" 
			},
			{
				"x": -1.1536436419,
				"y": 1.6813646588,
				"z": -3.5760258047,
				"element": "C" 
			},
			{
				"x": -0.3969982037,
				"y": 1.1898276268,
				"z": -4.8150724267,
				"element": "C" 
			},
			{
				"x": -0.4676605135,
				"y": 0.3414497881,
				"z": -1.6802490971,
				"element": "C" 
			},
			{
				"x": -0.9907048783,
				"y": -0.6347217272,
				"z": -2.2213028556,
				"element": "O" 
			},
			{
				"x": 0.0982694537,
				"y": 0.2040606433,
				"z": -0.2935901483,
				"element": "C" 
			},
			{
				"x": -0.1768207127,
				"y": 1.1012528228,
				"z": 0.7427507806,
				"element": "C" 
			},
			{
				"x": 0.2849648162,
				"y": 0.8564205947,
				"z": 2.0385673864,
				"element": "C" 
			},
			{
				"x": 1.0319779634,
				"y": -0.2856008357,
				"z": 2.3071815062,
				"element": "C" 
			},
			{
				"x": 1.4939138538,
				"y": -0.5251822676,
				"z": 3.562314749,
				"element": "O" 
			},
			{
				"x": 1.2966893496,
				"y": -1.2053879173,
				"z": 1.2685491685,
				"element": "C" 
			},
			{
				"x": 2.0285182862,
				"y": -2.2949724466,
				"z": 1.6746295278,
				"element": "O" 
			},
			{
				"x": 2.2944789952,
				"y": -3.3141448894,
				"z": 0.7207272255,
				"element": "C" 
			},
			{
				"x": 0.8213041242,
				"y": -0.9701673478,
				"z": -0.0134285153,
				"element": "C" 
			},
			{
				"x": 2.6851597925,
				"y": 3.0796058642,
				"z": -2.1008795073,
				"element": "H" 
			},
			{
				"x": 2.3494329233,
				"y": 1.3662728446,
				"z": -1.8088704667,
				"element": "H" 
			},
			{
				"x": 2.1231690308,
				"y": 2.0479484484,
				"z": -3.4284705825,
				"element": "H" 
			},
			{
				"x": 0.5302105782,
				"y": 2.8479328534,
				"z": -0.9235515926,
				"element": "H" 
			},
			{
				"x": 0.2616652835,
				"y": 3.5123489704,
				"z": -2.5208781259,
				"element": "H" 
			},
			{
				"x": -2.0682642235,
				"y": 1.0957086614,
				"z": -3.464435009,
				"element": "H" 
			},
			{
				"x": -1.4385968709,
				"y": 2.7330456933,
				"z": -3.695326313,
				"element": "H" 
			},
			{
				"x": -0.1081877628,
				"y": 0.1444305679,
				"z": -4.6849491489,
				"element": "H" 
			},
			{
				"x": 0.4997538086,
				"y": 1.784877436,
				"z": -5.0135244393,
				"element": "H" 
			},
			{
				"x": -1.043357514,
				"y": 1.2598209784,
				"z": -5.6969841241,
				"element": "H" 
			},
			{
				"x": -0.7871664019,
				"y": 1.9784595173,
				"z": 0.5543895978,
				"element": "H" 
			},
			{
				"x": 0.0657477228,
				"y": 1.5370750084,
				"z": 2.8545039797,
				"element": "H" 
			},
			{
				"x": 1.9644778932,
				"y": -1.3729539689,
				"z": 3.5336484332,
				"element": "H" 
			},
			{
				"x": 2.8890844716,
				"y": -2.929515526,
				"z": -0.1169804336,
				"element": "H" 
			},
			{
				"x": 2.864040999,
				"y": -4.0818743505,
				"z": 1.2462837021,
				"element": "H" 
			},
			{
				"x": 1.3651987816,
				"y": -3.7486810107,
				"z": 0.333239164,
				"element": "H" 
			},
			{
				"x": 0.9742564277,
				"y": -1.6844181593,
				"z": -0.8132954135,
				"element": "H" 
			}
		],
		 "valence_orbital": [ 
			{
				"type": "occ",
				"energy": -0.31762,
				"method": "rhf"
			},
			{
				"type": "occ",
				"energy": -0.24962,
				"method": "rhf"
			},
			{
				"type": "occ",
				"energy": -0.23772,
				"method": "rhf"
			},
			{
				"type": "occ",
				"energy": -0.22683,
				"method": "rhf"
			},
			{
				"type": "occ",
				"energy": -0.20947,
				"method": "rhf"
			},
			{
				"type": "unocc",
				"energy": -0.01473,
				"method": "rhf"
			},
			{
				"type": "unocc",
				"energy": 0.00438,
				"method": "rhf"
			},
			{
				"type": "unocc",
				"energy": 0.05735,
				"method": "rhf"
			},
			{
				"type": "unocc",
				"energy": 0.07683,
				"method": "rhf"
			},
			{
				"type": "unocc",
				"energy": 0.08938,
				"method": "rhf"
			}
		],
		"cosmo_sigma_profile": { 
			"-0.025": 0.0,
			"-0.024": 0.0,
			"-0.023": 0.0,
			"-0.022": 0.0,
			"-0.021": 0.0,
			"-0.02": 0.0,
			"-0.019": 0.0,
			"-0.018": 0.0,
			"-0.017": 0.0,
			"-0.016": 0.0,
			"-0.015": 0.142409972944,
			"-0.014": 0.457289234532,
			"-0.013": 0.520550255588,
			"-0.012": 0.781443768229,
			"-0.011": 0.297905394651,
			"-0.01": 0.518265523799,
			"-0.009": 0.874491860607,
			"-0.008": 0.759717739421,
			"-0.007": 1.94237693344,
			"-0.006": 12.1446268567,
			"-0.005": 18.7901712348,
			"-0.004": 24.851726573,
			"-0.003": 29.683700195,
			"-0.002": 28.1579664492,
			"-0.001": 24.9791875773,
			"0.0": 25.6359864797,
			"0.001": 25.4618876932,
			"0.002": 16.6728044642,
			"0.003": 14.2757361201,
			"0.004": 11.5431514968,
			"0.005": 7.75051072766,
			"0.006": 3.76042860334,
			"0.007": 2.44143371259,
			"0.008": 3.33843678199,
			"0.009": 3.76828036426,
			"0.01": 3.46438094002,
			"0.011": 2.72244142085,
			"0.012": 2.53292808173,
			"0.013": 2.40214095043,
			"0.014": 4.02072396184,
			"0.015": 1.62879038652,
			"0.016": 0.0512528707236,
			"0.017": 0.0,
			"0.018": 0.0,
			"0.019": 0.0,
			"0.02": 0.0,
			"0.021": 0.0,
			"0.022": 0.0,
			"0.023": 0.0,
			"0.024": 0.0,
			"0.025": 0.0
		}
	}
}
