{
	 "smiles": "NN=C1C(C(=O)C(C2=CC=CC=C2)C2=CC=CC=C2)C(=O)C2=CC=CC=C12", 
	 "Tm": 515.15, 
	 "num_atms": 45, 
	 "gaussian": { 
		 "optdone": 1, 
		 "sigma_profile": "yes", 
		 "theory": "DFT", 
		 "functional": "B3LYP", 
		 "basiset": "6-31G**", 
		 "properties": { 
			 "R2extent": 9360.0893, 
			 "electric_dipole_moment_norm": 2.15598438074, 
			 "electric_quadrupole_moment_norm": 11.5995731314, 
			 "total_energy": -1147.21585605, 
			 "HOMO_LUMO_gap": 0.14575, 
			 "cosmo_polarized_energy": -15.69, 
			 "cosmo_cavitation_energy": 48.77, 
			 "cosmo_dispersion_energy": -31.74, 
			 "cosmo_repulsion_energy": 2.43, 
			 "cosmo_total_nonelectrostatic_energy": 19.47, 
			 "SMD_solvation_energy": 7.99 
		},
		"coords": [
			{
				"x": -0.4162548835,
				"y": -0.3353798653,
				"z": -3.5932290302,
				"element": "N" 
			},
			{
				"x": 0.7535116018,
				"y": -0.7080928757,
				"z": -3.0234625259,
				"element": "N" 
			},
			{
				"x": 0.7704644619,
				"y": -1.2351385932,
				"z": -1.8487278729,
				"element": "C" 
			},
			{
				"x": -0.3781389213,
				"y": -1.588985926,
				"z": -0.8856183599,
				"element": "C" 
			},
			{
				"x": -1.1907570073,
				"y": -0.3819324384,
				"z": -0.3587669926,
				"element": "C" 
			},
			{
				"x": -1.6715204389,
				"y": 0.4044364492,
				"z": -1.1586185346,
				"element": "O" 
			},
			{
				"x": -1.3734095737,
				"y": -0.2030291821,
				"z": 1.1515548259,
				"element": "C" 
			},
			{
				"x": -2.6307533703,
				"y": 0.5840234854,
				"z": 1.5018406527,
				"element": "C" 
			},
			{
				"x": -3.7310558227,
				"y": -0.1026441085,
				"z": 2.0305426838,
				"element": "C" 
			},
			{
				"x": -4.9072142393,
				"y": 0.57292696,
				"z": 2.361145498,
				"element": "C" 
			},
			{
				"x": -4.998215703,
				"y": 1.9508291057,
				"z": 2.1650412705,
				"element": "C" 
			},
			{
				"x": -3.9065580688,
				"y": 2.6448573716,
				"z": 1.6382960568,
				"element": "C" 
			},
			{
				"x": -2.7326630132,
				"y": 1.9677177865,
				"z": 1.3099732691,
				"element": "C" 
			},
			{
				"x": -0.0813544078,
				"y": 0.3795605425,
				"z": 1.7367821058,
				"element": "C" 
			},
			{
				"x": 0.6428207178,
				"y": 1.3873982734,
				"z": 1.0840535764,
				"element": "C" 
			},
			{
				"x": 1.7944879246,
				"y": 1.9243034484,
				"z": 1.6638290394,
				"element": "C" 
			},
			{
				"x": 2.2394745037,
				"y": 1.4597626443,
				"z": 2.9011887421,
				"element": "C" 
			},
			{
				"x": 1.5295156867,
				"y": 0.4496388553,
				"z": 3.5547799453,
				"element": "C" 
			},
			{
				"x": 0.3824877104,
				"y": -0.0889665927,
				"z": 2.9743251084,
				"element": "C" 
			},
			{
				"x": 0.3088312023,
				"y": -2.4735157933,
				"z": 0.1870315128,
				"element": "C" 
			},
			{
				"x": -0.2680499737,
				"y": -3.0459091819,
				"z": 1.0987444776,
				"element": "O" 
			},
			{
				"x": 1.7484101519,
				"y": -2.504117149,
				"z": -0.1128336937,
				"element": "C" 
			},
			{
				"x": 2.7649475335,
				"y": -3.1538110677,
				"z": 0.5940148181,
				"element": "C" 
			},
			{
				"x": 4.0651897595,
				"y": -3.0599848697,
				"z": 0.1098119396,
				"element": "C" 
			},
			{
				"x": 4.3332049201,
				"y": -2.3335486856,
				"z": -1.066887593,
				"element": "C" 
			},
			{
				"x": 3.3201896448,
				"y": -1.6921797787,
				"z": -1.7750246644,
				"element": "C" 
			},
			{
				"x": 2.0108835519,
				"y": -1.7778765038,
				"z": -1.2861199205,
				"element": "C" 
			},
			{
				"x": -1.1422612298,
				"y": -0.0100933286,
				"z": -2.9526354476,
				"element": "H" 
			},
			{
				"x": -0.2533888454,
				"y": 0.2665493336,
				"z": -4.3882648033,
				"element": "H" 
			},
			{
				"x": -1.1233674094,
				"y": -2.2071996843,
				"z": -1.4103823727,
				"element": "H" 
			},
			{
				"x": -1.4807897386,
				"y": -1.2089308076,
				"z": 1.5665865759,
				"element": "H" 
			},
			{
				"x": -3.6664707827,
				"y": -1.1769880378,
				"z": 2.1860457022,
				"element": "H" 
			},
			{
				"x": -5.7479484802,
				"y": 0.0220570926,
				"z": 2.7734022657,
				"element": "H" 
			},
			{
				"x": -5.9104774336,
				"y": 2.481281345,
				"z": 2.4228025194,
				"element": "H" 
			},
			{
				"x": -3.9681940582,
				"y": 3.7184901815,
				"z": 1.4837312589,
				"element": "H" 
			},
			{
				"x": -1.8898464919,
				"y": 2.5210613754,
				"z": 0.9107585111,
				"element": "H" 
			},
			{
				"x": 0.312570868,
				"y": 1.7533000315,
				"z": 0.1162445484,
				"element": "H" 
			},
			{
				"x": 2.3442161669,
				"y": 2.7033017734,
				"z": 1.1433567294,
				"element": "H" 
			},
			{
				"x": 3.1359140288,
				"y": 1.8763888434,
				"z": 3.3511992554,
				"element": "H" 
			},
			{
				"x": 1.8722227013,
				"y": 0.0765901671,
				"z": 4.5157438357,
				"element": "H" 
			},
			{
				"x": -0.1606003282,
				"y": -0.881655162,
				"z": 3.4809804308,
				"element": "H" 
			},
			{
				"x": 2.5267504419,
				"y": -3.7116342513,
				"z": 1.4943385402,
				"element": "H" 
			},
			{
				"x": 4.8804684521,
				"y": -3.5476069637,
				"z": 0.6356553118,
				"element": "H" 
			},
			{
				"x": 5.3557256254,
				"y": -2.2750028727,
				"z": -1.4300998119,
				"element": "H" 
			},
			{
				"x": 3.5277025663,
				"y": -1.1392513459,
				"z": -2.6848293841,
				"element": "H" 
			}
		],
		 "valence_orbital": [ 
			{
				"type": "occ",
				"energy": -0.25162,
				"method": "rhf"
			},
			{
				"type": "occ",
				"energy": -0.24815,
				"method": "rhf"
			},
			{
				"type": "occ",
				"energy": -0.24322,
				"method": "rhf"
			},
			{
				"type": "occ",
				"energy": -0.23707,
				"method": "rhf"
			},
			{
				"type": "occ",
				"energy": -0.20994,
				"method": "rhf"
			},
			{
				"type": "unocc",
				"energy": -0.06419,
				"method": "rhf"
			},
			{
				"type": "unocc",
				"energy": -0.04264,
				"method": "rhf"
			},
			{
				"type": "unocc",
				"energy": -0.03665,
				"method": "rhf"
			},
			{
				"type": "unocc",
				"energy": -0.01243,
				"method": "rhf"
			},
			{
				"type": "unocc",
				"energy": -0.00248,
				"method": "rhf"
			}
		],
		"cosmo_sigma_profile": { 
			"-0.025": 0.0,
			"-0.024": 0.0,
			"-0.023": 0.0,
			"-0.022": 0.0,
			"-0.021": 0.0,
			"-0.02": 0.0,
			"-0.019": 0.0,
			"-0.018": 0.0,
			"-0.017": 0.0,
			"-0.016": 0.0,
			"-0.015": 0.0,
			"-0.014": 0.0,
			"-0.013": 0.944522471792,
			"-0.012": 1.32656927523,
			"-0.011": 1.59101615251,
			"-0.01": 1.24000909789,
			"-0.009": 3.45897528895,
			"-0.008": 3.7040875524,
			"-0.007": 5.78490845103,
			"-0.006": 24.0287322834,
			"-0.005": 34.376787875,
			"-0.004": 34.0713402802,
			"-0.003": 29.2387014592,
			"-0.002": 23.4193879487,
			"-0.001": 21.5137955533,
			"0.0": 22.9374185664,
			"0.001": 25.1669097781,
			"0.002": 32.2630335948,
			"0.003": 33.9323357127,
			"0.004": 26.925652658,
			"0.005": 20.4606007989,
			"0.006": 12.6290290691,
			"0.007": 5.82706203046,
			"0.008": 5.73971258523,
			"0.009": 5.97048803432,
			"0.01": 5.74303930975,
			"0.011": 5.4503816387,
			"0.012": 2.84869452792,
			"0.013": 0.136284750985,
			"0.014": 0.0,
			"0.015": 0.0,
			"0.016": 0.0,
			"0.017": 0.0,
			"0.018": 0.0,
			"0.019": 0.0,
			"0.02": 0.0,
			"0.021": 0.0,
			"0.022": 0.0,
			"0.023": 0.0,
			"0.024": 0.0,
			"0.025": 0.0
		}
	}
}
