{
	 "smiles": "COC(=O)CCC1=CC(CCC(=O)OC)=C(C=C1[N+]([O-])=O)[N+]([O-])=O", 
	 "Tm": 344.15, 
	 "num_atms": 40, 
	 "gaussian": { 
		 "optdone": 1, 
		 "sigma_profile": "yes", 
		 "theory": "DFT", 
		 "functional": "B3LYP", 
		 "basiset": "6-31G**", 
		 "properties": { 
			 "R2extent": 9294.4033, 
			 "electric_dipole_moment_norm": 4.5469646018, 
			 "electric_quadrupole_moment_norm": 14.2682536671, 
			 "total_energy": -1254.24565629, 
			 "HOMO_LUMO_gap": 0.17241, 
			 "cosmo_polarized_energy": -18.79, 
			 "cosmo_cavitation_energy": 45.01, 
			 "cosmo_dispersion_energy": -30.12, 
			 "cosmo_repulsion_energy": 2.33, 
			 "cosmo_total_nonelectrostatic_energy": 17.22, 
			 "SMD_solvation_energy": 14.25 
		},
		"coords": [
			{
				"x": -1.5561314203,
				"y": 2.6558276124,
				"z": 4.224133194,
				"element": "C" 
			},
			{
				"x": -1.7597425154,
				"y": 1.5841749855,
				"z": 3.282055591,
				"element": "O" 
			},
			{
				"x": -1.305858361,
				"y": 0.3701321938,
				"z": 3.6601740755,
				"element": "C" 
			},
			{
				"x": -0.7593450559,
				"y": 0.1547235396,
				"z": 4.7188405672,
				"element": "O" 
			},
			{
				"x": -1.5914008446,
				"y": -0.699118296,
				"z": 2.6168485491,
				"element": "C" 
			},
			{
				"x": -1.8426166836,
				"y": -0.2095344199,
				"z": 1.1755708335,
				"element": "C" 
			},
			{
				"x": -0.6352613306,
				"y": 0.4781929609,
				"z": 0.568979592,
				"element": "C" 
			},
			{
				"x": 0.4885792209,
				"y": -0.2980384173,
				"z": 0.2587634264,
				"element": "C" 
			},
			{
				"x": 1.6869730727,
				"y": 0.2087230526,
				"z": -0.262121922,
				"element": "C" 
			},
			{
				"x": 2.8178498601,
				"y": -0.7612632943,
				"z": -0.5463455621,
				"element": "C" 
			},
			{
				"x": 2.8453505221,
				"y": -1.2860259091,
				"z": -1.9932684462,
				"element": "C" 
			},
			{
				"x": 1.7587087729,
				"y": -2.3020333033,
				"z": -2.2877262414,
				"element": "C" 
			},
			{
				"x": 1.0767856557,
				"y": -2.8735560361,
				"z": -1.4596604471,
				"element": "O" 
			},
			{
				"x": 1.6588207817,
				"y": -2.5258622468,
				"z": -3.6120642942,
				"element": "O" 
			},
			{
				"x": 0.6912002906,
				"y": -3.5152852545,
				"z": -4.005211934,
				"element": "C" 
			},
			{
				"x": 1.7401790445,
				"y": 1.6059161329,
				"z": -0.4396995665,
				"element": "C" 
			},
			{
				"x": 0.6680849311,
				"y": 2.428778579,
				"z": -0.1094056782,
				"element": "C" 
			},
			{
				"x": -0.5097072348,
				"y": 1.8619042417,
				"z": 0.357319291,
				"element": "C" 
			},
			{
				"x": -1.6146835573,
				"y": 2.8070207931,
				"z": 0.6035889607,
				"element": "N" 
			},
			{
				"x": -2.7499381645,
				"y": 2.465714956,
				"z": 0.2813528999,
				"element": "O" 
			},
			{
				"x": -1.3170449316,
				"y": 3.9015393915,
				"z": 1.0800671062,
				"element": "O" 
			},
			{
				"x": 2.9287645969,
				"y": 2.2944382418,
				"z": -0.974851875,
				"element": "N" 
			},
			{
				"x": 3.7290963302,
				"y": 1.6391165699,
				"z": -1.6455066554,
				"element": "O" 
			},
			{
				"x": 3.0464510848,
				"y": 3.4936405902,
				"z": -0.7338853204,
				"element": "O" 
			},
			{
				"x": -2.1672840846,
				"y": 2.4944578837,
				"z": 5.1154976677,
				"element": "H" 
			},
			{
				"x": -1.8594345793,
				"y": 3.5613250954,
				"z": 3.7009360416,
				"element": "H" 
			},
			{
				"x": -0.5057831821,
				"y": 2.709512216,
				"z": 4.5176186085,
				"element": "H" 
			},
			{
				"x": -0.7622169492,
				"y": -1.4104656153,
				"z": 2.6667706924,
				"element": "H" 
			},
			{
				"x": -2.4797681378,
				"y": -1.2433036705,
				"z": 2.9620531209,
				"element": "H" 
			},
			{
				"x": -2.077112413,
				"y": -1.0855183106,
				"z": 0.5603857158,
				"element": "H" 
			},
			{
				"x": -2.7104767873,
				"y": 0.4440992235,
				"z": 1.1512263099,
				"element": "H" 
			},
			{
				"x": 0.4291817284,
				"y": -1.3714434611,
				"z": 0.405941497,
				"element": "H" 
			},
			{
				"x": 3.7774515756,
				"y": -0.2882436385,
				"z": -0.3381498219,
				"element": "H" 
			},
			{
				"x": 2.7062615577,
				"y": -1.6141040829,
				"z": 0.1285107688,
				"element": "H" 
			},
			{
				"x": 2.7909815004,
				"y": -0.4690366539,
				"z": -2.7159892018,
				"element": "H" 
			},
			{
				"x": 3.8050247875,
				"y": -1.7846685852,
				"z": -2.1792802691,
				"element": "H" 
			},
			{
				"x": -0.3115770251,
				"y": -3.2185825833,
				"z": -3.6883890192,
				"element": "H" 
			},
			{
				"x": 0.7496551117,
				"y": -3.5668763122,
				"z": -5.0920102683,
				"element": "H" 
			},
			{
				"x": 0.9299650634,
				"y": -4.4846603176,
				"z": -3.5609145619,
				"element": "H" 
			},
			{
				"x": 0.753917769,
				"y": 3.5007821488,
				"z": -0.2236534244,
				"element": "H" 
			}
		],
		 "valence_orbital": [ 
			{
				"type": "occ",
				"energy": -0.30552,
				"method": "rhf"
			},
			{
				"type": "occ",
				"energy": -0.29026,
				"method": "rhf"
			},
			{
				"type": "occ",
				"energy": -0.28627,
				"method": "rhf"
			},
			{
				"type": "occ",
				"energy": -0.28149,
				"method": "rhf"
			},
			{
				"type": "occ",
				"energy": -0.27542,
				"method": "rhf"
			},
			{
				"type": "unocc",
				"energy": -0.10301,
				"method": "rhf"
			},
			{
				"type": "unocc",
				"energy": -0.09305,
				"method": "rhf"
			},
			{
				"type": "unocc",
				"energy": -0.03437,
				"method": "rhf"
			},
			{
				"type": "unocc",
				"energy": -0.01599,
				"method": "rhf"
			},
			{
				"type": "unocc",
				"energy": -0.00293,
				"method": "rhf"
			}
		],
		"cosmo_sigma_profile": { 
			"-0.025": 0.0,
			"-0.024": 0.0,
			"-0.023": 0.0,
			"-0.022": 0.0,
			"-0.021": 0.0,
			"-0.02": 0.0,
			"-0.019": 0.0,
			"-0.018": 0.0,
			"-0.017": 0.0,
			"-0.016": 0.0,
			"-0.015": 0.0,
			"-0.014": 0.0,
			"-0.013": 0.0,
			"-0.012": 0.0,
			"-0.011": 0.0,
			"-0.01": 0.0,
			"-0.009": 0.338161337879,
			"-0.008": 3.83583142004,
			"-0.007": 12.0341304621,
			"-0.006": 23.989380811,
			"-0.005": 33.2260108248,
			"-0.004": 40.2556404228,
			"-0.003": 39.3322793876,
			"-0.002": 30.9887335578,
			"-0.001": 23.0753631291,
			"0.0": 15.2420691889,
			"0.001": 13.8794560185,
			"0.002": 11.8389593194,
			"0.003": 12.743750627,
			"0.004": 10.7231047932,
			"0.005": 11.1145715848,
			"0.006": 14.2185243736,
			"0.007": 17.4476708369,
			"0.008": 13.9385189215,
			"0.009": 9.78005315551,
			"0.01": 5.52756555618,
			"0.011": 5.73800460037,
			"0.012": 6.29802019457,
			"0.013": 1.24806697441,
			"0.014": 0.0,
			"0.015": 0.0,
			"0.016": 0.0,
			"0.017": 0.0,
			"0.018": 0.0,
			"0.019": 0.0,
			"0.02": 0.0,
			"0.021": 0.0,
			"0.022": 0.0,
			"0.023": 0.0,
			"0.024": 0.0,
			"0.025": 0.0
		}
	}
}
