{
	 "smiles": "ClC1=C2OCC(=O)C2=CC=C1", 
	 "Tm": 382.15, 
	 "num_atms": 16, 
	 "gaussian": { 
		 "optdone": 1, 
		 "sigma_profile": "yes", 
		 "theory": "DFT", 
		 "functional": "B3LYP", 
		 "basiset": "6-31G**", 
		 "properties": { 
			 "R2extent": 1979.394, 
			 "electric_dipole_moment_norm": 1.2717136824, 
			 "electric_quadrupole_moment_norm": 13.7637469252, 
			 "total_energy": -918.490432415, 
			 "HOMO_LUMO_gap": 0.17066, 
			 "cosmo_polarized_energy": -8.83, 
			 "cosmo_cavitation_energy": 22.43, 
			 "cosmo_dispersion_energy": -16.99, 
			 "cosmo_repulsion_energy": 1.37, 
			 "cosmo_total_nonelectrostatic_energy": 6.81, 
			 "SMD_solvation_energy": 4.49 
		},
		"coords": [
			{
				"x": -1.5144745588,
				"y": -2.3427892513,
				"z": 0.8725458212,
				"element": "Cl" 
			},
			{
				"x": -1.2826336333,
				"y": -0.7626553787,
				"z": 0.1677050922,
				"element": "C" 
			},
			{
				"x": -0.1920986817,
				"y": 0.0282227859,
				"z": 0.5392405668,
				"element": "C" 
			},
			{
				"x": 0.7541068239,
				"y": -0.3292047989,
				"z": 1.4410856214,
				"element": "O" 
			},
			{
				"x": 1.6983896818,
				"y": 0.7590262946,
				"z": 1.5389150238,
				"element": "C" 
			},
			{
				"x": 1.2134892837,
				"y": 1.8538243154,
				"z": 0.5705943999,
				"element": "C" 
			},
			{
				"x": 1.756309899,
				"y": 2.9242949939,
				"z": 0.3799635687,
				"element": "O" 
			},
			{
				"x": -0.0084705566,
				"y": 1.2949404732,
				"z": -0.0274879795,
				"element": "C" 
			},
			{
				"x": -0.8988558685,
				"y": 1.8077647997,
				"z": -0.9739427285,
				"element": "C" 
			},
			{
				"x": -1.9851489349,
				"y": 1.0213972675,
				"z": -1.3447760972,
				"element": "C" 
			},
			{
				"x": -2.1712931041,
				"y": -0.2506986608,
				"z": -0.7769684479,
				"element": "C" 
			},
			{
				"x": 1.7209832584,
				"y": 1.118631151,
				"z": 2.5722362139,
				"element": "H" 
			},
			{
				"x": 2.6926886731,
				"y": 0.3929660035,
				"z": 1.2651536637,
				"element": "H" 
			},
			{
				"x": -0.7313608844,
				"y": 2.7932042384,
				"z": -1.3965070932,
				"element": "H" 
			},
			{
				"x": -2.7010650863,
				"y": 1.3809357159,
				"z": -2.0764479258,
				"element": "H" 
			},
			{
				"x": -3.0209663113,
				"y": -0.8582599491,
				"z": -1.0712096995,
				"element": "H" 
			}
		],
		 "valence_orbital": [ 
			{
				"type": "occ",
				"energy": -0.33708,
				"method": "rhf"
			},
			{
				"type": "occ",
				"energy": -0.32219,
				"method": "rhf"
			},
			{
				"type": "occ",
				"energy": -0.26823,
				"method": "rhf"
			},
			{
				"type": "occ",
				"energy": -0.26031,
				"method": "rhf"
			},
			{
				"type": "occ",
				"energy": -0.24307,
				"method": "rhf"
			},
			{
				"type": "unocc",
				"energy": -0.07241,
				"method": "rhf"
			},
			{
				"type": "unocc",
				"energy": -0.01427,
				"method": "rhf"
			},
			{
				"type": "unocc",
				"energy": 0.02155,
				"method": "rhf"
			},
			{
				"type": "unocc",
				"energy": 0.02795,
				"method": "rhf"
			},
			{
				"type": "unocc",
				"energy": 0.09421,
				"method": "rhf"
			}
		],
		"cosmo_sigma_profile": { 
			"-0.025": 0.0,
			"-0.024": 0.0,
			"-0.023": 0.0,
			"-0.022": 0.0,
			"-0.021": 0.0,
			"-0.02": 0.0,
			"-0.019": 0.0,
			"-0.018": 0.0,
			"-0.017": 0.0,
			"-0.016": 0.0,
			"-0.015": 0.0,
			"-0.014": 0.0,
			"-0.013": 0.0,
			"-0.012": 0.0,
			"-0.011": 0.0,
			"-0.01": 0.00908403215789,
			"-0.009": 3.6278534572,
			"-0.008": 8.36007367881,
			"-0.007": 10.4534695999,
			"-0.006": 11.6369205056,
			"-0.005": 9.66386438466,
			"-0.004": 7.54267164148,
			"-0.003": 8.53654284391,
			"-0.002": 8.99512060565,
			"-0.001": 13.0167000976,
			"0.0": 16.34307844,
			"0.001": 17.1920778912,
			"0.002": 14.9134561391,
			"0.003": 12.2796798635,
			"0.004": 11.0776993975,
			"0.005": 5.6472539986,
			"0.006": 2.80094944897,
			"0.007": 3.0117665733,
			"0.008": 3.49234392797,
			"0.009": 3.22574847514,
			"0.01": 2.26636089871,
			"0.011": 4.721653912,
			"0.012": 3.84294887612,
			"0.013": 0.403560557999,
			"0.014": 0.0,
			"0.015": 0.0,
			"0.016": 0.0,
			"0.017": 0.0,
			"0.018": 0.0,
			"0.019": 0.0,
			"0.02": 0.0,
			"0.021": 0.0,
			"0.022": 0.0,
			"0.023": 0.0,
			"0.024": 0.0,
			"0.025": 0.0
		}
	}
}
