{
	 "smiles": "COC1=CC=C(COC2=C(C=CC(Br)=C2)C(F)(F)F)C=C1", 
	 "Tm": 306.15, 
	 "num_atms": 33, 
	 "gaussian": { 
		 "optdone": 1, 
		 "sigma_profile": "yes", 
		 "theory": "DFT", 
		 "functional": "B3LYP", 
		 "basiset": "6-31G**", 
		 "properties": { 
			 "R2extent": 12090.0669, 
			 "electric_dipole_moment_norm": 3.66671035671, 
			 "electric_quadrupole_moment_norm": 7.4520149396, 
			 "total_energy": -3600.18702942, 
			 "HOMO_LUMO_gap": 0.19139, 
			 "cosmo_polarized_energy": -9.75, 
			 "cosmo_cavitation_energy": 40.99, 
			 "cosmo_dispersion_energy": -28.32, 
			 "cosmo_repulsion_energy": 2.14, 
			 "cosmo_total_nonelectrostatic_energy": 14.81, 
			 "SMD_solvation_energy": 7.7 
		},
		"coords": [
			{
				"x": -1.6153048888,
				"y": -2.9157819069,
				"z": 2.9307343189,
				"element": "C" 
			},
			{
				"x": -1.8938530736,
				"y": -2.2862696825,
				"z": 1.6899567509,
				"element": "O" 
			},
			{
				"x": -1.1203296563,
				"y": -1.2285125939,
				"z": 1.3136863885,
				"element": "C" 
			},
			{
				"x": -0.0606500183,
				"y": -0.7087441392,
				"z": 2.0651626693,
				"element": "C" 
			},
			{
				"x": 0.665994287,
				"y": 0.377734544,
				"z": 1.568270662,
				"element": "C" 
			},
			{
				"x": 0.3503234836,
				"y": 0.9636738576,
				"z": 0.3426244764,
				"element": "C" 
			},
			{
				"x": 1.1004723566,
				"y": 2.1804215888,
				"z": -0.1509731705,
				"element": "C" 
			},
			{
				"x": 1.2465388308,
				"y": 2.2152438148,
				"z": -1.5770519379,
				"element": "O" 
			},
			{
				"x": 2.0906832875,
				"y": 1.356306623,
				"z": -2.2013927157,
				"element": "C" 
			},
			{
				"x": 2.0137459358,
				"y": 1.3295869905,
				"z": -3.6103165677,
				"element": "C" 
			},
			{
				"x": 2.8764301575,
				"y": 0.5072648595,
				"z": -4.33105327,
				"element": "C" 
			},
			{
				"x": 3.8133763516,
				"y": -0.3011576902,
				"z": -3.6871883309,
				"element": "C" 
			},
			{
				"x": 3.8602096483,
				"y": -0.2733993257,
				"z": -2.2975864535,
				"element": "C" 
			},
			{
				"x": 5.1197184067,
				"y": -1.3814369995,
				"z": -1.3828018449,
				"element": "Br" 
			},
			{
				"x": 3.0137019385,
				"y": 0.5366170316,
				"z": -1.5424369258,
				"element": "C" 
			},
			{
				"x": 0.9886271747,
				"y": 2.1725249587,
				"z": -4.3212115793,
				"element": "C" 
			},
			{
				"x": 1.0483271897,
				"y": 1.9952864134,
				"z": -5.6618491083,
				"element": "F" 
			},
			{
				"x": -0.2739778042,
				"y": 1.8593890925,
				"z": -3.942238787,
				"element": "F" 
			},
			{
				"x": 1.1554338022,
				"y": 3.4909713054,
				"z": -4.0900447796,
				"element": "F" 
			},
			{
				"x": -0.7157091855,
				"y": 0.4320981765,
				"z": -0.4014546944,
				"element": "C" 
			},
			{
				"x": -1.4394357117,
				"y": -0.6519901879,
				"z": 0.0732500754,
				"element": "C" 
			},
			{
				"x": -1.7300333442,
				"y": -2.2207113849,
				"z": 3.7725570792,
				"element": "H" 
			},
			{
				"x": -2.3437222171,
				"y": -3.7218849507,
				"z": 3.0299009361,
				"element": "H" 
			},
			{
				"x": -0.6031628194,
				"y": -3.3399898548,
				"z": 2.9515117584,
				"element": "H" 
			},
			{
				"x": 0.2135842285,
				"y": -1.14033639,
				"z": 3.0202521991,
				"element": "H" 
			},
			{
				"x": 1.4924359514,
				"y": 0.7688702863,
				"z": 2.1579853113,
				"element": "H" 
			},
			{
				"x": 2.0777404676,
				"y": 2.2717556688,
				"z": 0.3400852122,
				"element": "H" 
			},
			{
				"x": 0.5438563932,
				"y": 3.0988238669,
				"z": 0.0606576673,
				"element": "H" 
			},
			{
				"x": 2.8093917578,
				"y": 0.4961044399,
				"z": -5.4125837384,
				"element": "H" 
			},
			{
				"x": 4.4808779187,
				"y": -0.9397738114,
				"z": -4.2520273695,
				"element": "H" 
			},
			{
				"x": 3.0688678302,
				"y": 0.5116972024,
				"z": -0.4636867863,
				"element": "H" 
			},
			{
				"x": -0.9594267215,
				"y": 0.8656304738,
				"z": -1.366844099,
				"element": "H" 
			},
			{
				"x": -2.2598319571,
				"y": -1.0751122771,
				"z": -0.497093346,
				"element": "H" 
			}
		],
		 "valence_orbital": [ 
			{
				"type": "occ",
				"energy": -0.29249,
				"method": "rhf"
			},
			{
				"type": "occ",
				"energy": -0.25882,
				"method": "rhf"
			},
			{
				"type": "occ",
				"energy": -0.25755,
				"method": "rhf"
			},
			{
				"type": "occ",
				"energy": -0.23842,
				"method": "rhf"
			},
			{
				"type": "occ",
				"energy": -0.22351,
				"method": "rhf"
			},
			{
				"type": "unocc",
				"energy": -0.03212,
				"method": "rhf"
			},
			{
				"type": "unocc",
				"energy": -0.01386,
				"method": "rhf"
			},
			{
				"type": "unocc",
				"energy": -0.00781,
				"method": "rhf"
			},
			{
				"type": "unocc",
				"energy": -0.00012,
				"method": "rhf"
			},
			{
				"type": "unocc",
				"energy": 0.00213,
				"method": "rhf"
			}
		],
		"cosmo_sigma_profile": { 
			"-0.025": 0.0,
			"-0.024": 0.0,
			"-0.023": 0.0,
			"-0.022": 0.0,
			"-0.021": 0.0,
			"-0.02": 0.0,
			"-0.019": 0.0,
			"-0.018": 0.0,
			"-0.017": 0.0,
			"-0.016": 0.0,
			"-0.015": 0.0,
			"-0.014": 0.0,
			"-0.013": 0.0,
			"-0.012": 0.0,
			"-0.011": 0.0,
			"-0.01": 0.0,
			"-0.009": 0.39985112177,
			"-0.008": 2.80040757217,
			"-0.007": 8.79839573605,
			"-0.006": 18.2554761181,
			"-0.005": 23.0064530687,
			"-0.004": 23.7917623883,
			"-0.003": 23.3844369885,
			"-0.002": 19.7290746411,
			"-0.001": 17.5117151437,
			"0.0": 22.5453214708,
			"0.001": 32.0904003886,
			"0.002": 38.4164884293,
			"0.003": 44.2770155081,
			"0.004": 27.029027369,
			"0.005": 15.7553010729,
			"0.006": 4.87608267629,
			"0.007": 3.06804075569,
			"0.008": 2.51235637907,
			"0.009": 1.13112462644,
			"0.01": 1.66241216506,
			"0.011": 0.381133677506,
			"0.012": 0.0,
			"0.013": 0.0,
			"0.014": 0.0,
			"0.015": 0.0,
			"0.016": 0.0,
			"0.017": 0.0,
			"0.018": 0.0,
			"0.019": 0.0,
			"0.02": 0.0,
			"0.021": 0.0,
			"0.022": 0.0,
			"0.023": 0.0,
			"0.024": 0.0,
			"0.025": 0.0
		}
	}
}
