{
	 "smiles": "CCCCCCO", 
	 "Tm": 228.55, 
	 "num_atms": 21, 
	 "gaussian": { 
		 "optdone": 1, 
		 "sigma_profile": "yes", 
		 "theory": "DFT", 
		 "functional": "B3LYP", 
		 "basiset": "6-31G**", 
		 "properties": { 
			 "R2extent": 1403.7173, 
			 "electric_dipole_moment_norm": 1.49842114908, 
			 "electric_quadrupole_moment_norm": 7.81898660186, 
			 "total_energy": -312.302347088, 
			 "HOMO_LUMO_gap": 0.33726, 
			 "cosmo_polarized_energy": -5.68, 
			 "cosmo_cavitation_energy": 22.26, 
			 "cosmo_dispersion_energy": -16.27, 
			 "cosmo_repulsion_energy": 1.41, 
			 "cosmo_total_nonelectrostatic_energy": 7.4, 
			 "SMD_solvation_energy": 3.58 
		},
		"coords": [
			{
				"x": -1.6889890647,
				"y": -1.372664195,
				"z": -0.6299234692,
				"element": "C" 
			},
			{
				"x": -0.4637431502,
				"y": -0.7779639049,
				"z": -1.3375249434,
				"element": "C" 
			},
			{
				"x": 0.835681356,
				"y": -0.7483289801,
				"z": -0.5043471542,
				"element": "C" 
			},
			{
				"x": 1.0491877736,
				"y": 0.4794800274,
				"z": 0.398082117,
				"element": "C" 
			},
			{
				"x": 0.0725715224,
				"y": 0.6492551551,
				"z": 1.5696605398,
				"element": "C" 
			},
			{
				"x": 0.5000217895,
				"y": 1.7510954443,
				"z": 2.544676848,
				"element": "C" 
			},
			{
				"x": 1.7788280813,
				"y": 1.5240196085,
				"z": 3.1284880749,
				"element": "O" 
			},
			{
				"x": -1.4903346806,
				"y": -2.4011178128,
				"z": -0.3065155928,
				"element": "H" 
			},
			{
				"x": -2.5541014843,
				"y": -1.3998851154,
				"z": -1.3014019801,
				"element": "H" 
			},
			{
				"x": -1.9791158534,
				"y": -0.8013125576,
				"z": 0.2562480785,
				"element": "H" 
			},
			{
				"x": -0.6932862989,
				"y": 0.2385481901,
				"z": -1.6863156646,
				"element": "H" 
			},
			{
				"x": -0.2803502772,
				"y": -1.3675427148,
				"z": -2.2447998645,
				"element": "H" 
			},
			{
				"x": 1.687540774,
				"y": -0.7916403466,
				"z": -1.1949077853,
				"element": "H" 
			},
			{
				"x": 0.8983072897,
				"y": -1.664333569,
				"z": 0.1012402515,
				"element": "H" 
			},
			{
				"x": 1.0193496938,
				"y": 1.3874245347,
				"z": -0.2216948154,
				"element": "H" 
			},
			{
				"x": 2.0616178114,
				"y": 0.4345593194,
				"z": 0.816237865,
				"element": "H" 
			},
			{
				"x": -0.016397713,
				"y": -0.2992132739,
				"z": 2.1221051855,
				"element": "H" 
			},
			{
				"x": -0.936244083,
				"y": 0.8871142343,
				"z": 1.2097947963,
				"element": "H" 
			},
			{
				"x": 0.5891758617,
				"y": 2.7065102619,
				"z": 2.0150685939,
				"element": "H" 
			},
			{
				"x": -0.27083286,
				"y": 1.8823003272,
				"z": 3.321002943,
				"element": "H" 
			},
			{
				"x": 1.7246135118,
				"y": 0.7049953671,
				"z": 3.638325976,
				"element": "H" 
			}
		],
		 "valence_orbital": [ 
			{
				"type": "occ",
				"energy": -0.32747,
				"method": "rhf"
			},
			{
				"type": "occ",
				"energy": -0.31767,
				"method": "rhf"
			},
			{
				"type": "occ",
				"energy": -0.31409,
				"method": "rhf"
			},
			{
				"type": "occ",
				"energy": -0.30186,
				"method": "rhf"
			},
			{
				"type": "occ",
				"energy": -0.26209,
				"method": "rhf"
			},
			{
				"type": "unocc",
				"energy": 0.07517,
				"method": "rhf"
			},
			{
				"type": "unocc",
				"energy": 0.09588,
				"method": "rhf"
			},
			{
				"type": "unocc",
				"energy": 0.11423,
				"method": "rhf"
			},
			{
				"type": "unocc",
				"energy": 0.12266,
				"method": "rhf"
			},
			{
				"type": "unocc",
				"energy": 0.13464,
				"method": "rhf"
			}
		],
		"cosmo_sigma_profile": { 
			"-0.025": 0.0,
			"-0.024": 0.0,
			"-0.023": 0.0,
			"-0.022": 0.0,
			"-0.021": 0.0,
			"-0.02": 0.0,
			"-0.019": 0.0,
			"-0.018": 0.0,
			"-0.017": 0.0,
			"-0.016": 0.0,
			"-0.015": 0.587731424746,
			"-0.014": 1.02257053576,
			"-0.013": 0.893658385586,
			"-0.012": 1.01736684567,
			"-0.011": 1.0921513617,
			"-0.01": 0.703406932411,
			"-0.009": 0.566804677679,
			"-0.008": 0.74145992498,
			"-0.007": 0.979101323491,
			"-0.006": 1.54379844503,
			"-0.005": 0.966862727637,
			"-0.004": 2.46276745936,
			"-0.003": 10.6995174539,
			"-0.002": 24.0643928861,
			"-0.001": 32.7207140041,
			"0.0": 31.4386358521,
			"0.001": 26.8067692949,
			"0.002": 13.2832623376,
			"0.003": 2.01422533731,
			"0.004": 1.45490632309,
			"0.005": 1.8789885345,
			"0.006": 1.35520243184,
			"0.007": 0.802086809657,
			"0.008": 1.48028595336,
			"0.009": 1.45528889963,
			"0.01": 1.69353863694,
			"0.011": 0.763805484311,
			"0.012": 1.19416032765,
			"0.013": 1.38822081921,
			"0.014": 1.95458940444,
			"0.015": 1.51747170616,
			"0.016": 0.0159143640614,
			"0.017": 0.0,
			"0.018": 0.0,
			"0.019": 0.0,
			"0.02": 0.0,
			"0.021": 0.0,
			"0.022": 0.0,
			"0.023": 0.0,
			"0.024": 0.0,
			"0.025": 0.0
		}
	}
}
