{
	 "smiles": "C[Si](C)(C)C#N", 
	 "Tm": 284.15, 
	 "num_atms": 15, 
	 "gaussian": { 
		 "optdone": 1, 
		 "sigma_profile": "yes", 
		 "theory": "DFT", 
		 "functional": "B3LYP", 
		 "basiset": "6-31G**", 
		 "properties": { 
			 "R2extent": 1398.4233, 
			 "electric_dipole_moment_norm": 4.231751453, 
			 "electric_quadrupole_moment_norm": 12.1083101216, 
			 "total_energy": -502.133863243, 
			 "HOMO_LUMO_gap": 0.32018, 
			 "cosmo_polarized_energy": -7.44, 
			 "cosmo_cavitation_energy": 20.59, 
			 "cosmo_dispersion_energy": -11.95, 
			 "cosmo_repulsion_energy": 1.18, 
			 "cosmo_total_nonelectrostatic_energy": 9.82, 
			 "SMD_solvation_energy": 7.75 
		},
		"coords": [
			{
				"x": 1.1783939312,
				"y": -0.8617263412,
				"z": 0.5137384692,
				"element": "C" 
			},
			{
				"x": 0.0415123685,
				"y": -1.675205451,
				"z": -0.7468737677,
				"element": "Si" 
			},
			{
				"x": 0.4486726743,
				"y": -1.1455248122,
				"z": -2.5067195136,
				"element": "C" 
			},
			{
				"x": 0.0143165484,
				"y": -3.548522949,
				"z": -0.5642859369,
				"element": "C" 
			},
			{
				"x": -1.6954039821,
				"y": -1.068122902,
				"z": -0.3843350848,
				"element": "C" 
			},
			{
				"x": -2.7733693708,
				"y": -0.6913153778,
				"z": -0.1593709486,
				"element": "N" 
			},
			{
				"x": 0.898176033,
				"y": -1.1336195554,
				"z": 1.5361503897,
				"element": "H" 
			},
			{
				"x": 1.1448381986,
				"y": 0.2292944483,
				"z": 0.4341984003,
				"element": "H" 
			},
			{
				"x": 2.2152505427,
				"y": -1.178570907,
				"z": 0.3539574674,
				"element": "H" 
			},
			{
				"x": -0.2522524508,
				"y": -1.5810332091,
				"z": -3.2256175572,
				"element": "H" 
			},
			{
				"x": 1.4579329207,
				"y": -1.4730630453,
				"z": -2.7807692097,
				"element": "H" 
			},
			{
				"x": 0.408353293,
				"y": -0.0571222656,
				"z": -2.6141130272,
				"element": "H" 
			},
			{
				"x": -0.6904376585,
				"y": -4.0064967019,
				"z": -1.2652553302,
				"element": "H" 
			},
			{
				"x": -0.276659771,
				"y": -3.8455272775,
				"z": 0.4480875739,
				"element": "H" 
			},
			{
				"x": 1.0072767229,
				"y": -3.9666436532,
				"z": -0.7647919246,
				"element": "H" 
			}
		],
		 "valence_orbital": [ 
			{
				"type": "occ",
				"energy": -0.3417,
				"method": "rhf"
			},
			{
				"type": "occ",
				"energy": -0.3417,
				"method": "rhf"
			},
			{
				"type": "occ",
				"energy": -0.3376,
				"method": "rhf"
			},
			{
				"type": "occ",
				"energy": -0.31199,
				"method": "rhf"
			},
			{
				"type": "occ",
				"energy": -0.31199,
				"method": "rhf"
			},
			{
				"type": "unocc",
				"energy": 0.00819,
				"method": "rhf"
			},
			{
				"type": "unocc",
				"energy": 0.00819,
				"method": "rhf"
			},
			{
				"type": "unocc",
				"energy": 0.05688,
				"method": "rhf"
			},
			{
				"type": "unocc",
				"energy": 0.10026,
				"method": "rhf"
			},
			{
				"type": "unocc",
				"energy": 0.10745,
				"method": "rhf"
			}
		],
		"cosmo_sigma_profile": { 
			"-0.025": 0.0,
			"-0.024": 0.0,
			"-0.023": 0.0,
			"-0.022": 0.0,
			"-0.021": 0.0,
			"-0.02": 0.0,
			"-0.019": 0.0,
			"-0.018": 0.0,
			"-0.017": 0.0,
			"-0.016": 0.0,
			"-0.015": 0.0,
			"-0.014": 0.0,
			"-0.013": 0.0,
			"-0.012": 0.0,
			"-0.011": 0.0,
			"-0.01": 0.0,
			"-0.009": 0.0,
			"-0.008": 0.0,
			"-0.007": 0.0,
			"-0.006": 0.212095068775,
			"-0.005": 13.2507822707,
			"-0.004": 24.6004612903,
			"-0.003": 16.8133149131,
			"-0.002": 18.291950956,
			"-0.001": 18.332453786,
			"0.0": 21.9903463753,
			"0.001": 9.91356342373,
			"0.002": 4.96779991624,
			"0.003": 1.29087835179,
			"0.004": 2.58362997182,
			"0.005": 2.61710406333,
			"0.006": 3.01224802026,
			"0.007": 3.34030996631,
			"0.008": 4.31070252391,
			"0.009": 3.89345607249,
			"0.01": 3.0491274561,
			"0.011": 2.79837738207,
			"0.012": 2.26990216642,
			"0.013": 1.7197550781,
			"0.014": 0.137901245238,
			"0.015": 0.0,
			"0.016": 0.0,
			"0.017": 0.0,
			"0.018": 0.0,
			"0.019": 0.0,
			"0.02": 0.0,
			"0.021": 0.0,
			"0.022": 0.0,
			"0.023": 0.0,
			"0.024": 0.0,
			"0.025": 0.0
		}
	}
}
