{
	 "smiles": "CC(CCl)OP(=O)(OC(C)CCl)OC(C)CCl", 
	 "Tm": 233.15, 
	 "num_atms": 35, 
	 "gaussian": { 
		 "optdone": 1, 
		 "sigma_profile": "yes", 
		 "theory": "DFT", 
		 "functional": "B3LYP", 
		 "basiset": "6-31G**", 
		 "properties": { 
			 "R2extent": 7213.3323, 
			 "electric_dipole_moment_norm": 4.18705923173, 
			 "electric_quadrupole_moment_norm": 22.6901356364, 
			 "total_energy": -2376.74124623, 
			 "HOMO_LUMO_gap": 0.29684, 
			 "cosmo_polarized_energy": -16.71, 
			 "cosmo_cavitation_energy": 44.07, 
			 "cosmo_dispersion_energy": -28.21, 
			 "cosmo_repulsion_energy": 2.23, 
			 "cosmo_total_nonelectrostatic_energy": 18.09, 
			 "SMD_solvation_energy": 7.78 
		},
		"coords": [
			{
				"x": 0.9746625467,
				"y": 1.8698716221,
				"z": 3.136530895,
				"element": "C" 
			},
			{
				"x": 0.5393424598,
				"y": 2.2307626352,
				"z": 1.7272253941,
				"element": "C" 
			},
			{
				"x": 1.1182497841,
				"y": 3.5430227251,
				"z": 1.1929209831,
				"element": "C" 
			},
			{
				"x": 0.4808316702,
				"y": 4.9659358254,
				"z": 2.1175276115,
				"element": "Cl" 
			},
			{
				"x": 1.0412752039,
				"y": 1.175784336,
				"z": 0.8485145374,
				"element": "O" 
			},
			{
				"x": 0.244662024,
				"y": 0.8051195975,
				"z": -0.5057001189,
				"element": "P" 
			},
			{
				"x": 0.0085513479,
				"y": 1.8895931192,
				"z": -1.4816527247,
				"element": "O" 
			},
			{
				"x": -1.0955368471,
				"y": 0.112493048,
				"z": 0.0729964302,
				"element": "O" 
			},
			{
				"x": -2.3941300924,
				"y": 0.4035715969,
				"z": -0.5115508049,
				"element": "C" 
			},
			{
				"x": -2.6018483945,
				"y": -0.3926915676,
				"z": -1.79696885,
				"element": "C" 
			},
			{
				"x": -3.4287762603,
				"y": 0.0301161119,
				"z": 0.537495059,
				"element": "C" 
			},
			{
				"x": -3.3539871155,
				"y": 1.088772436,
				"z": 2.0079280503,
				"element": "Cl" 
			},
			{
				"x": 1.151153685,
				"y": -0.3844714117,
				"z": -1.0800215605,
				"element": "O" 
			},
			{
				"x": 1.6258699485,
				"y": -1.5037851938,
				"z": -0.2886559618,
				"element": "C" 
			},
			{
				"x": 3.0518775767,
				"y": -1.2191652612,
				"z": 0.180011442,
				"element": "C" 
			},
			{
				"x": 1.5975674349,
				"y": -2.7332727311,
				"z": -1.1852975061,
				"element": "C" 
			},
			{
				"x": -0.0755110525,
				"y": -3.3130360782,
				"z": -1.562782349,
				"element": "Cl" 
			},
			{
				"x": 0.5333743255,
				"y": 0.914693953,
				"z": 3.4312151073,
				"element": "H" 
			},
			{
				"x": 2.0650611868,
				"y": 1.7865917404,
				"z": 3.1911326264,
				"element": "H" 
			},
			{
				"x": 0.6475512794,
				"y": 2.6386345305,
				"z": 3.8402253485,
				"element": "H" 
			},
			{
				"x": -0.553349066,
				"y": 2.2566222055,
				"z": 1.6675058618,
				"element": "H" 
			},
			{
				"x": 2.2054135013,
				"y": 3.555068739,
				"z": 1.2885643185,
				"element": "H" 
			},
			{
				"x": 0.8350970784,
				"y": 3.6831382754,
				"z": 0.1501507361,
				"element": "H" 
			},
			{
				"x": -2.4427340323,
				"y": 1.4753109131,
				"z": -0.7242312309,
				"element": "H" 
			},
			{
				"x": -3.5894293951,
				"y": -0.1799860789,
				"z": -2.21870384,
				"element": "H" 
			},
			{
				"x": -1.8502594948,
				"y": -0.1041833919,
				"z": -2.5353276853,
				"element": "H" 
			},
			{
				"x": -2.5149111284,
				"y": -1.4664117544,
				"z": -1.6121715019,
				"element": "H" 
			},
			{
				"x": -4.4339392557,
				"y": 0.1386153156,
				"z": 0.1283702235,
				"element": "H" 
			},
			{
				"x": -3.2793999681,
				"y": -0.9953505414,
				"z": 0.8787048922,
				"element": "H" 
			},
			{
				"x": 0.9594970663,
				"y": -1.6539903313,
				"z": 0.5664543264,
				"element": "H" 
			},
			{
				"x": 3.7182605407,
				"y": -1.0852691127,
				"z": -0.677605991,
				"element": "H" 
			},
			{
				"x": 3.4267945636,
				"y": -2.0462541984,
				"z": 0.7910931936,
				"element": "H" 
			},
			{
				"x": 3.0669292046,
				"y": -0.3075118901,
				"z": 0.7786482539,
				"element": "H" 
			},
			{
				"x": 2.0798449537,
				"y": -2.5149497166,
				"z": -2.1392702013,
				"element": "H" 
			},
			{
				"x": 2.1085447206,
				"y": -3.5643894665,
				"z": -0.6974749645,
				"element": "H" 
			}
		],
		 "valence_orbital": [ 
			{
				"type": "occ",
				"energy": -0.30324,
				"method": "rhf"
			},
			{
				"type": "occ",
				"energy": -0.30205,
				"method": "rhf"
			},
			{
				"type": "occ",
				"energy": -0.29739,
				"method": "rhf"
			},
			{
				"type": "occ",
				"energy": -0.296,
				"method": "rhf"
			},
			{
				"type": "occ",
				"energy": -0.28616,
				"method": "rhf"
			},
			{
				"type": "unocc",
				"energy": 0.01068,
				"method": "rhf"
			},
			{
				"type": "unocc",
				"energy": 0.01604,
				"method": "rhf"
			},
			{
				"type": "unocc",
				"energy": 0.0191,
				"method": "rhf"
			},
			{
				"type": "unocc",
				"energy": 0.05334,
				"method": "rhf"
			},
			{
				"type": "unocc",
				"energy": 0.07937,
				"method": "rhf"
			}
		],
		"cosmo_sigma_profile": { 
			"-0.025": 0.0,
			"-0.024": 0.0,
			"-0.023": 0.0,
			"-0.022": 0.0,
			"-0.021": 0.0,
			"-0.02": 0.0,
			"-0.019": 0.0,
			"-0.018": 0.0,
			"-0.017": 0.0,
			"-0.016": 0.0,
			"-0.015": 0.0,
			"-0.014": 0.0,
			"-0.013": 0.0,
			"-0.012": 0.0,
			"-0.011": 0.0,
			"-0.01": 0.0,
			"-0.009": 0.269611270726,
			"-0.008": 8.85157504917,
			"-0.007": 16.8702567774,
			"-0.006": 17.498912607,
			"-0.005": 22.3266774416,
			"-0.004": 23.9138983969,
			"-0.003": 25.7970748564,
			"-0.002": 25.3991126169,
			"-0.001": 33.1675601288,
			"0.0": 29.3334907093,
			"0.001": 19.5260614467,
			"0.002": 19.2292499745,
			"0.003": 18.5206812227,
			"0.004": 20.6105031728,
			"0.005": 21.0274678646,
			"0.006": 25.4141894797,
			"0.007": 5.59856553923,
			"0.008": 2.77432828923,
			"0.009": 2.19859100378,
			"0.01": 1.58379962209,
			"0.011": 1.23743607843,
			"0.012": 1.24089959034,
			"0.013": 3.49205930133,
			"0.014": 2.94988400757,
			"0.015": 0.240035015,
			"0.016": 0.0,
			"0.017": 0.0,
			"0.018": 0.0,
			"0.019": 0.0,
			"0.02": 0.0,
			"0.021": 0.0,
			"0.022": 0.0,
			"0.023": 0.0,
			"0.024": 0.0,
			"0.025": 0.0
		}
	}
}
