{
	 "smiles": "CC(=O)C1=CN=C(N)C=C1", 
	 "Tm": 381.15, 
	 "num_atms": 18, 
	 "gaussian": { 
		 "optdone": 1, 
		 "sigma_profile": "yes", 
		 "theory": "DFT", 
		 "functional": "B3LYP", 
		 "basiset": "6-31G**", 
		 "properties": { 
			 "R2extent": 2355.4547, 
			 "electric_dipole_moment_norm": 3.56699376226, 
			 "electric_quadrupole_moment_norm": 16.9037281409, 
			 "total_energy": -456.304872512, 
			 "HOMO_LUMO_gap": 0.1798, 
			 "cosmo_polarized_energy": -13.4, 
			 "cosmo_cavitation_energy": 22.28, 
			 "cosmo_dispersion_energy": -16.56, 
			 "cosmo_repulsion_energy": 1.34, 
			 "cosmo_total_nonelectrostatic_energy": 7.07, 
			 "SMD_solvation_energy": 3.21 
		},
		"coords": [
			{
				"x": 2.8666538946,
				"y": 0.397305547,
				"z": 1.9865381633,
				"element": "C" 
			},
			{
				"x": 2.3583151398,
				"y": 1.6282738255,
				"z": 1.251861412,
				"element": "C" 
			},
			{
				"x": 3.0696464434,
				"y": 2.618128983,
				"z": 1.1335684472,
				"element": "O" 
			},
			{
				"x": 0.9860385053,
				"y": 1.607973827,
				"z": 0.6809457226,
				"element": "C" 
			},
			{
				"x": 0.1117968703,
				"y": 0.5190554432,
				"z": 0.7805853295,
				"element": "C" 
			},
			{
				"x": -1.1238685569,
				"y": 0.490278167,
				"z": 0.2770806735,
				"element": "N" 
			},
			{
				"x": -1.5573342265,
				"y": 1.581900995,
				"z": -0.3787583123,
				"element": "C" 
			},
			{
				"x": -2.8139704192,
				"y": 1.4984429162,
				"z": -0.9189601024,
				"element": "N" 
			},
			{
				"x": -0.7611625495,
				"y": 2.7417222222,
				"z": -0.5413577496,
				"element": "C" 
			},
			{
				"x": 0.5084603074,
				"y": 2.7430606393,
				"z": -0.0054598417,
				"element": "C" 
			},
			{
				"x": 2.867017649,
				"y": -0.481124106,
				"z": 1.3317618517,
				"element": "H" 
			},
			{
				"x": 3.8829345468,
				"y": 0.5926121068,
				"z": 2.3300099317,
				"element": "H" 
			},
			{
				"x": 2.2316316435,
				"y": 0.1616238236,
				"z": 2.8477749189,
				"element": "H" 
			},
			{
				"x": 0.4168840375,
				"y": -0.3872046136,
				"z": 1.3004944197,
				"element": "H" 
			},
			{
				"x": -3.3005705344,
				"y": 2.3447702996,
				"z": -1.1672516994,
				"element": "H" 
			},
			{
				"x": -3.3766397996,
				"y": 0.7229129987,
				"z": -0.6023196053,
				"element": "H" 
			},
			{
				"x": -1.1482604457,
				"y": 3.6016194249,
				"z": -1.0801790865,
				"element": "H" 
			},
			{
				"x": 1.1639274943,
				"y": 3.6032475007,
				"z": -0.0967344731,
				"element": "H" 
			}
		],
		 "valence_orbital": [ 
			{
				"type": "occ",
				"energy": -0.31948,
				"method": "rhf"
			},
			{
				"type": "occ",
				"energy": -0.28556,
				"method": "rhf"
			},
			{
				"type": "occ",
				"energy": -0.26734,
				"method": "rhf"
			},
			{
				"type": "occ",
				"energy": -0.23975,
				"method": "rhf"
			},
			{
				"type": "occ",
				"energy": -0.2234,
				"method": "rhf"
			},
			{
				"type": "unocc",
				"energy": -0.0436,
				"method": "rhf"
			},
			{
				"type": "unocc",
				"energy": -0.02087,
				"method": "rhf"
			},
			{
				"type": "unocc",
				"energy": 0.0473,
				"method": "rhf"
			},
			{
				"type": "unocc",
				"energy": 0.07727,
				"method": "rhf"
			},
			{
				"type": "unocc",
				"energy": 0.10377,
				"method": "rhf"
			}
		],
		"cosmo_sigma_profile": { 
			"-0.025": 0.0,
			"-0.024": 0.0,
			"-0.023": 0.0,
			"-0.022": 0.0,
			"-0.021": 0.0,
			"-0.02": 0.0,
			"-0.019": 0.0,
			"-0.018": 0.0,
			"-0.017": 0.0,
			"-0.016": 0.0,
			"-0.015": 0.065788441253,
			"-0.014": 1.27412579758,
			"-0.013": 2.31698065625,
			"-0.012": 2.77674401522,
			"-0.011": 1.80229012323,
			"-0.01": 3.1753889455,
			"-0.009": 2.31561051985,
			"-0.008": 2.72196203317,
			"-0.007": 3.75410316593,
			"-0.006": 11.7902063326,
			"-0.005": 11.2547864841,
			"-0.004": 11.2412054976,
			"-0.003": 9.73514484483,
			"-0.002": 10.5364370173,
			"-0.001": 11.9580699294,
			"0.0": 10.9277134777,
			"0.001": 11.5093201581,
			"0.002": 15.1454900538,
			"0.003": 11.3684761644,
			"0.004": 5.47892989351,
			"0.005": 3.73932167428,
			"0.006": 4.9927299473,
			"0.007": 3.5423411453,
			"0.008": 2.74651307458,
			"0.009": 3.18420925118,
			"0.01": 3.31119216063,
			"0.011": 3.56469865607,
			"0.012": 4.57998518543,
			"0.013": 4.12811743366,
			"0.014": 1.39891605393,
			"0.015": 0.599019572539,
			"0.016": 0.196258124808,
			"0.017": 0.0,
			"0.018": 0.0,
			"0.019": 0.0,
			"0.02": 0.0,
			"0.021": 0.0,
			"0.022": 0.0,
			"0.023": 0.0,
			"0.024": 0.0,
			"0.025": 0.0
		}
	}
}
