{
	 "smiles": "CCCCNC(=O)C1=CC=C(Cl)C=C1O", 
	 "Tm": 364.65, 
	 "num_atms": 29, 
	 "gaussian": { 
		 "optdone": 1, 
		 "sigma_profile": "yes", 
		 "theory": "DFT", 
		 "functional": "B3LYP", 
		 "basiset": "6-31G**", 
		 "properties": { 
			 "R2extent": 5666.5862, 
			 "electric_dipole_moment_norm": 4.15378769318, 
			 "electric_quadrupole_moment_norm": 14.4162125158, 
			 "total_energy": -1093.01933159, 
			 "HOMO_LUMO_gap": 0.20141, 
			 "cosmo_polarized_energy": -16.34, 
			 "cosmo_cavitation_energy": 34.23, 
			 "cosmo_dispersion_energy": -24.33, 
			 "cosmo_repulsion_energy": 1.96, 
			 "cosmo_total_nonelectrostatic_energy": 11.86, 
			 "SMD_solvation_energy": 5.9 
		},
		"coords": [
			{
				"x": 1.1903820902,
				"y": 4.1057549879,
				"z": -1.1991728816,
				"element": "C" 
			},
			{
				"x": 1.2755157644,
				"y": 2.5766602788,
				"z": -1.2400082635,
				"element": "C" 
			},
			{
				"x": -0.1002198182,
				"y": 1.8993275475,
				"z": -1.2558607859,
				"element": "C" 
			},
			{
				"x": -0.006408194,
				"y": 0.3712657973,
				"z": -1.3191268449,
				"element": "C" 
			},
			{
				"x": -1.3179272143,
				"y": -0.2634706091,
				"z": -1.3554449406,
				"element": "N" 
			},
			{
				"x": -1.7836572703,
				"y": -1.3404903192,
				"z": -0.6536100781,
				"element": "C" 
			},
			{
				"x": -2.7858441648,
				"y": -1.9493682784,
				"z": -1.0202898165,
				"element": "O" 
			},
			{
				"x": -1.0407955067,
				"y": -1.8052230267,
				"z": 0.5760822423,
				"element": "C" 
			},
			{
				"x": -0.8268866087,
				"y": -3.1839467619,
				"z": 0.6955883569,
				"element": "C" 
			},
			{
				"x": -0.2239050573,
				"y": -3.7490407673,
				"z": 1.8158795989,
				"element": "C" 
			},
			{
				"x": 0.1412234676,
				"y": -2.9048998892,
				"z": 2.8629301261,
				"element": "C" 
			},
			{
				"x": 0.8974280417,
				"y": -3.5758418137,
				"z": 4.299133059,
				"element": "Cl" 
			},
			{
				"x": -0.0877343257,
				"y": -1.5334409134,
				"z": 2.8028436007,
				"element": "C" 
			},
			{
				"x": -0.6829857515,
				"y": -0.9843555387,
				"z": 1.6608963287,
				"element": "C" 
			},
			{
				"x": -0.9428129103,
				"y": 0.3542366863,
				"z": 1.5794335992,
				"element": "O" 
			},
			{
				"x": 0.6522788997,
				"y": 4.4491170696,
				"z": -0.3083982583,
				"element": "H" 
			},
			{
				"x": 0.6596953708,
				"y": 4.4961474686,
				"z": -2.0748501513,
				"element": "H" 
			},
			{
				"x": 2.1857390584,
				"y": 4.5612233209,
				"z": -1.1833178844,
				"element": "H" 
			},
			{
				"x": 1.8471330847,
				"y": 2.2662021221,
				"z": -2.1253650871,
				"element": "H" 
			},
			{
				"x": 1.8449149705,
				"y": 2.2184097908,
				"z": -0.3713070344,
				"element": "H" 
			},
			{
				"x": -0.6711284016,
				"y": 2.1735384315,
				"z": -0.3621739953,
				"element": "H" 
			},
			{
				"x": -0.6744717874,
				"y": 2.2621014598,
				"z": -2.1204727942,
				"element": "H" 
			},
			{
				"x": 0.5359767814,
				"y": -0.0079969244,
				"z": -0.4520059155,
				"element": "H" 
			},
			{
				"x": 0.5703194275,
				"y": 0.0729260553,
				"z": -2.2078931144,
				"element": "H" 
			},
			{
				"x": -1.8933070608,
				"y": -0.0757210848,
				"z": -2.1679876224,
				"element": "H" 
			},
			{
				"x": -1.1565040684,
				"y": -3.8191300216,
				"z": -0.1197863435,
				"element": "H" 
			},
			{
				"x": -0.0524610843,
				"y": -4.8166264553,
				"z": 1.8836192872,
				"element": "H" 
			},
			{
				"x": 0.1864150993,
				"y": -0.8982426826,
				"z": 3.6401003712,
				"element": "H" 
			},
			{
				"x": -0.7009728319,
				"y": 0.7775840701,
				"z": 2.4134652417,
				"element": "H" 
			}
		],
		 "valence_orbital": [ 
			{
				"type": "occ",
				"energy": -0.31851,
				"method": "rhf"
			},
			{
				"type": "occ",
				"energy": -0.2645,
				"method": "rhf"
			},
			{
				"type": "occ",
				"energy": -0.24875,
				"method": "rhf"
			},
			{
				"type": "occ",
				"energy": -0.24246,
				"method": "rhf"
			},
			{
				"type": "occ",
				"energy": -0.23354,
				"method": "rhf"
			},
			{
				"type": "unocc",
				"energy": -0.03213,
				"method": "rhf"
			},
			{
				"type": "unocc",
				"energy": -0.00854,
				"method": "rhf"
			},
			{
				"type": "unocc",
				"energy": 0.02299,
				"method": "rhf"
			},
			{
				"type": "unocc",
				"energy": 0.04312,
				"method": "rhf"
			},
			{
				"type": "unocc",
				"energy": 0.05112,
				"method": "rhf"
			}
		],
		"cosmo_sigma_profile": { 
			"-0.025": 0.0,
			"-0.024": 0.0,
			"-0.023": 0.0,
			"-0.022": 0.0,
			"-0.021": 0.0,
			"-0.02": 0.0,
			"-0.019": 0.271677420092,
			"-0.018": 1.36269101579,
			"-0.017": 1.1452012383,
			"-0.016": 1.37673828938,
			"-0.015": 0.932667010341,
			"-0.014": 0.923387517852,
			"-0.013": 1.63060363012,
			"-0.012": 2.00711865288,
			"-0.011": 1.4635664182,
			"-0.01": 2.16791970424,
			"-0.009": 2.90763985617,
			"-0.008": 2.78297551564,
			"-0.007": 4.75434078583,
			"-0.006": 5.22719830896,
			"-0.005": 7.08668369456,
			"-0.004": 10.0599999986,
			"-0.003": 18.1146292839,
			"-0.002": 28.38463634,
			"-0.001": 30.0274042431,
			"0.0": 27.3995035447,
			"0.001": 30.1527070162,
			"0.002": 25.3030737703,
			"0.003": 17.295910842,
			"0.004": 16.0529828551,
			"0.005": 6.93544340742,
			"0.006": 3.00367705954,
			"0.007": 1.94734890824,
			"0.008": 2.33228112227,
			"0.009": 2.89547631995,
			"0.01": 1.69530689524,
			"0.011": 2.06657226287,
			"0.012": 1.75369885203,
			"0.013": 3.23498559387,
			"0.014": 5.39008378329,
			"0.015": 1.58928339031,
			"0.016": 0.00596763072184,
			"0.017": 0.0,
			"0.018": 0.0,
			"0.019": 0.0,
			"0.02": 0.0,
			"0.021": 0.0,
			"0.022": 0.0,
			"0.023": 0.0,
			"0.024": 0.0,
			"0.025": 0.0
		}
	}
}
