{
	 "smiles": "CCOC1=CC(C=O)=C(O)C=C1", 
	 "Tm": 323.15, 
	 "num_atms": 22, 
	 "gaussian": { 
		 "optdone": 1, 
		 "sigma_profile": "yes", 
		 "theory": "DFT", 
		 "functional": "B3LYP", 
		 "basiset": "6-31G**", 
		 "properties": { 
			 "R2extent": 2403.917, 
			 "electric_dipole_moment_norm": 1.08042077914, 
			 "electric_quadrupole_moment_norm": 11.4923765436, 
			 "total_energy": -574.633548645, 
			 "HOMO_LUMO_gap": 0.14843, 
			 "cosmo_polarized_energy": -12.06, 
			 "cosmo_cavitation_energy": 25.93, 
			 "cosmo_dispersion_energy": -18.97, 
			 "cosmo_repulsion_energy": 1.52, 
			 "cosmo_total_nonelectrostatic_energy": 8.47, 
			 "SMD_solvation_energy": 6.19 
		},
		"coords": [
			{
				"x": -2.5914189007,
				"y": -1.8614843226,
				"z": -0.9963515023,
				"element": "C" 
			},
			{
				"x": -2.888583537,
				"y": -0.3906130688,
				"z": -0.7234050629,
				"element": "C" 
			},
			{
				"x": -1.9835606908,
				"y": 0.4891017962,
				"z": -1.3980814692,
				"element": "O" 
			},
			{
				"x": -0.7491335001,
				"y": 0.7222349675,
				"z": -0.8624917886,
				"element": "C" 
			},
			{
				"x": -0.2663245184,
				"y": 0.207333617,
				"z": 0.3311861715,
				"element": "C" 
			},
			{
				"x": 1.0272226906,
				"y": 0.5416211663,
				"z": 0.7928587593,
				"element": "C" 
			},
			{
				"x": 1.4708294476,
				"y": -0.044744286,
				"z": 2.0648532993,
				"element": "C" 
			},
			{
				"x": 0.809142801,
				"y": -0.8009624092,
				"z": 2.7549611465,
				"element": "O" 
			},
			{
				"x": 1.8398070746,
				"y": 1.4060525969,
				"z": 0.033459331,
				"element": "C" 
			},
			{
				"x": 3.1009789206,
				"y": 1.7970072075,
				"z": 0.3768272419,
				"element": "O" 
			},
			{
				"x": 1.3454329546,
				"y": 1.920043818,
				"z": -1.175674666,
				"element": "C" 
			},
			{
				"x": 0.0774466362,
				"y": 1.5842021683,
				"z": -1.6143637842,
				"element": "C" 
			},
			{
				"x": -3.3478237037,
				"y": -2.4904840765,
				"z": -0.5152804882,
				"element": "H" 
			},
			{
				"x": -1.6111271256,
				"y": -2.1565478262,
				"z": -0.6129898939,
				"element": "H" 
			},
			{
				"x": -2.6121702232,
				"y": -2.0586131165,
				"z": -2.0720048364,
				"element": "H" 
			},
			{
				"x": -3.8721569801,
				"y": -0.1225739245,
				"z": -1.1192833706,
				"element": "H" 
			},
			{
				"x": -2.8963968016,
				"y": -0.1731501032,
				"z": 0.3522136861,
				"element": "H" 
			},
			{
				"x": -0.8413942061,
				"y": -0.4646042909,
				"z": 0.9563005094,
				"element": "H" 
			},
			{
				"x": 2.495628246,
				"y": 0.2361222958,
				"z": 2.4080790298,
				"element": "H" 
			},
			{
				"x": 3.3623421282,
				"y": 1.4042213449,
				"z": 1.2188516502,
				"element": "H" 
			},
			{
				"x": 1.97998181,
				"y": 2.5843909827,
				"z": -1.7525470516,
				"element": "H" 
			},
			{
				"x": -0.3098225221,
				"y": 1.9813454632,
				"z": -2.5472169112,
				"element": "H" 
			}
		],
		 "valence_orbital": [ 
			{
				"type": "occ",
				"energy": -0.32801,
				"method": "rhf"
			},
			{
				"type": "occ",
				"energy": -0.30198,
				"method": "rhf"
			},
			{
				"type": "occ",
				"energy": -0.26407,
				"method": "rhf"
			},
			{
				"type": "occ",
				"energy": -0.25934,
				"method": "rhf"
			},
			{
				"type": "occ",
				"energy": -0.21299,
				"method": "rhf"
			},
			{
				"type": "unocc",
				"energy": -0.06456,
				"method": "rhf"
			},
			{
				"type": "unocc",
				"energy": 0.00736,
				"method": "rhf"
			},
			{
				"type": "unocc",
				"energy": 0.04343,
				"method": "rhf"
			},
			{
				"type": "unocc",
				"energy": 0.04688,
				"method": "rhf"
			},
			{
				"type": "unocc",
				"energy": 0.09451,
				"method": "rhf"
			}
		],
		"cosmo_sigma_profile": { 
			"-0.025": 0.0,
			"-0.024": 0.0,
			"-0.023": 0.0,
			"-0.022": 0.0,
			"-0.021": 0.0,
			"-0.02": 0.0,
			"-0.019": 0.0334067056172,
			"-0.018": 0.990472871039,
			"-0.017": 0.915465123199,
			"-0.016": 1.76327778413,
			"-0.015": 0.723635227838,
			"-0.014": 0.634380483356,
			"-0.013": 0.644037707745,
			"-0.012": 1.17840672762,
			"-0.011": 1.84362923411,
			"-0.01": 1.28743228999,
			"-0.009": 1.39315393777,
			"-0.008": 0.979278424586,
			"-0.007": 4.34928084694,
			"-0.006": 8.24988609658,
			"-0.005": 11.9132014744,
			"-0.004": 15.1355716602,
			"-0.003": 17.7421547505,
			"-0.002": 15.3169962834,
			"-0.001": 12.2852538162,
			"0.0": 15.855847956,
			"0.001": 13.3464136116,
			"0.002": 16.7118316627,
			"0.003": 18.2352481294,
			"0.004": 7.82190908684,
			"0.005": 4.44070980187,
			"0.006": 3.87211130614,
			"0.007": 4.71120022013,
			"0.008": 4.07251935027,
			"0.009": 4.85448561967,
			"0.01": 6.00075223939,
			"0.011": 4.54022330898,
			"0.012": 3.36680435919,
			"0.013": 0.919839931704,
			"0.014": 0.00576024392479,
			"0.015": 0.0,
			"0.016": 0.0,
			"0.017": 0.0,
			"0.018": 0.0,
			"0.019": 0.0,
			"0.02": 0.0,
			"0.021": 0.0,
			"0.022": 0.0,
			"0.023": 0.0,
			"0.024": 0.0,
			"0.025": 0.0
		}
	}
}
