{
	 "smiles": "CN1C(=O)C=CC1=O", 
	 "Tm": 368.15, 
	 "num_atms": 13, 
	 "gaussian": { 
		 "optdone": 1, 
		 "sigma_profile": "yes", 
		 "theory": "DFT", 
		 "functional": "B3LYP", 
		 "basiset": "6-31G**", 
		 "properties": { 
			 "R2extent": 1364.3788, 
			 "electric_dipole_moment_norm": 1.10524691359, 
			 "electric_quadrupole_moment_norm": 15.1696432733, 
			 "total_energy": -398.74382528, 
			 "HOMO_LUMO_gap": 0.17461, 
			 "cosmo_polarized_energy": -9.19, 
			 "cosmo_cavitation_energy": 17.8, 
			 "cosmo_dispersion_energy": -13.04, 
			 "cosmo_repulsion_energy": 1.09, 
			 "cosmo_total_nonelectrostatic_energy": 5.84, 
			 "SMD_solvation_energy": 5.08 
		},
		"coords": [
			{
				"x": 0.5222451794,
				"y": -2.1221237906,
				"z": -0.9885182723,
				"element": "C" 
			},
			{
				"x": 1.083263408,
				"y": -0.7848077023,
				"z": -0.9288386391,
				"element": "N" 
			},
			{
				"x": 1.10013138,
				"y": 0.1178925401,
				"z": -1.9957468355,
				"element": "C" 
			},
			{
				"x": 0.6421109642,
				"y": -0.083066662,
				"z": -3.1021065463,
				"element": "O" 
			},
			{
				"x": 1.7816109969,
				"y": 1.3553512509,
				"z": -1.4795657964,
				"element": "C" 
			},
			{
				"x": 2.1233777331,
				"y": 1.1550138613,
				"z": -0.2032487883,
				"element": "C" 
			},
			{
				"x": 1.688371189,
				"y": -0.2268939462,
				"z": 0.2007682826,
				"element": "C" 
			},
			{
				"x": 1.8153444456,
				"y": -0.7707257561,
				"z": 1.2788803134,
				"element": "O" 
			},
			{
				"x": -0.2990618871,
				"y": -2.1238676357,
				"z": -1.7068202377,
				"element": "H" 
			},
			{
				"x": 1.2717951438,
				"y": -2.8550392891,
				"z": -1.3044193297,
				"element": "H" 
			},
			{
				"x": 0.1593705203,
				"y": -2.3925577514,
				"z": 0.0043013548,
				"element": "H" 
			},
			{
				"x": 1.9300283291,
				"y": 2.2269287755,
				"z": -2.1033208388,
				"element": "H" 
			},
			{
				"x": 2.6239125977,
				"y": 1.8201961056,
				"z": 0.4879353334,
				"element": "H" 
			}
		],
		 "valence_orbital": [ 
			{
				"type": "occ",
				"energy": -0.39901,
				"method": "rhf"
			},
			{
				"type": "occ",
				"energy": -0.30801,
				"method": "rhf"
			},
			{
				"type": "occ",
				"energy": -0.29872,
				"method": "rhf"
			},
			{
				"type": "occ",
				"energy": -0.27641,
				"method": "rhf"
			},
			{
				"type": "occ",
				"energy": -0.27101,
				"method": "rhf"
			},
			{
				"type": "unocc",
				"energy": -0.0964,
				"method": "rhf"
			},
			{
				"type": "unocc",
				"energy": 0.05464,
				"method": "rhf"
			},
			{
				"type": "unocc",
				"energy": 0.06487,
				"method": "rhf"
			},
			{
				"type": "unocc",
				"energy": 0.1026,
				"method": "rhf"
			},
			{
				"type": "unocc",
				"energy": 0.1166,
				"method": "rhf"
			}
		],
		"cosmo_sigma_profile": { 
			"-0.025": 0.0,
			"-0.024": 0.0,
			"-0.023": 0.0,
			"-0.022": 0.0,
			"-0.021": 0.0,
			"-0.02": 0.0,
			"-0.019": 0.0,
			"-0.018": 0.0,
			"-0.017": 0.0,
			"-0.016": 0.0,
			"-0.015": 0.0,
			"-0.014": 0.0,
			"-0.013": 0.0,
			"-0.012": 0.0,
			"-0.011": 0.0,
			"-0.01": 0.883736780683,
			"-0.009": 3.89092362835,
			"-0.008": 3.07306430861,
			"-0.007": 3.74260774731,
			"-0.006": 7.20673100458,
			"-0.005": 12.4273883948,
			"-0.004": 14.829112065,
			"-0.003": 19.5141300998,
			"-0.002": 14.789854673,
			"-0.001": 6.99721058459,
			"0.0": 5.81632260716,
			"0.001": 5.37147571957,
			"0.002": 3.59497288386,
			"0.003": 2.36236080657,
			"0.004": 3.58755566253,
			"0.005": 3.6347596724,
			"0.006": 1.85690493379,
			"0.007": 2.08315542045,
			"0.008": 3.90038044026,
			"0.009": 3.74332344201,
			"0.01": 6.13591868778,
			"0.011": 9.98295791316,
			"0.012": 3.31425675109,
			"0.013": 0.0596092246213,
			"0.014": 0.0,
			"0.015": 0.0,
			"0.016": 0.0,
			"0.017": 0.0,
			"0.018": 0.0,
			"0.019": 0.0,
			"0.02": 0.0,
			"0.021": 0.0,
			"0.022": 0.0,
			"0.023": 0.0,
			"0.024": 0.0,
			"0.025": 0.0
		}
	}
}
