{
	 "smiles": "COC(=O)C(=O)NN", 
	 "Tm": 389.15, 
	 "num_atms": 14, 
	 "gaussian": { 
		 "optdone": 1, 
		 "sigma_profile": "yes", 
		 "theory": "DFT", 
		 "functional": "B3LYP", 
		 "basiset": "6-31G**", 
		 "properties": { 
			 "R2extent": 1306.9011, 
			 "electric_dipole_moment_norm": 1.27989550745, 
			 "electric_quadrupole_moment_norm": 11.529051232, 
			 "total_energy": -453.085555152, 
			 "HOMO_LUMO_gap": 0.20451, 
			 "cosmo_polarized_energy": -13.29, 
			 "cosmo_cavitation_energy": 19.21, 
			 "cosmo_dispersion_energy": -14.13, 
			 "cosmo_repulsion_energy": 1.22, 
			 "cosmo_total_nonelectrostatic_energy": 6.29, 
			 "SMD_solvation_energy": 6.55 
		},
		"coords": [
			{
				"x": -2.3553312573,
				"y": -2.6289902711,
				"z": -0.7643638399,
				"element": "C" 
			},
			{
				"x": -1.9690975752,
				"y": -1.4335073546,
				"z": -0.0601780464,
				"element": "O" 
			},
			{
				"x": -1.0559074715,
				"y": -0.6831962228,
				"z": -0.6710473303,
				"element": "C" 
			},
			{
				"x": -0.5446240399,
				"y": -0.9318311704,
				"z": -1.7460014503,
				"element": "O" 
			},
			{
				"x": -0.7060147643,
				"y": 0.570334535,
				"z": 0.1538524907,
				"element": "C" 
			},
			{
				"x": -1.2058097311,
				"y": 0.8421038661,
				"z": 1.2334952472,
				"element": "O" 
			},
			{
				"x": 0.2265548724,
				"y": 1.323152618,
				"z": -0.4815832211,
				"element": "N" 
			},
			{
				"x": 0.7178055099,
				"y": 2.5229922624,
				"z": 0.0578371808,
				"element": "N" 
			},
			{
				"x": -2.7826907063,
				"y": -2.3758943189,
				"z": -1.7375694648,
				"element": "H" 
			},
			{
				"x": -3.0969843644,
				"y": -3.1129871927,
				"z": -0.1306767278,
				"element": "H" 
			},
			{
				"x": -1.489754687,
				"y": -3.2787770417,
				"z": -0.9139565681,
				"element": "H" 
			},
			{
				"x": 0.589902554,
				"y": 1.0291316972,
				"z": -1.3772484842,
				"element": "H" 
			},
			{
				"x": 1.1022428861,
				"y": 2.3110928391,
				"z": 0.9788591219,
				"element": "H" 
			},
			{
				"x": -0.0823912253,
				"y": 3.1315757543,
				"z": 0.2318810921,
				"element": "H" 
			}
		],
		 "valence_orbital": [ 
			{
				"type": "occ",
				"energy": -0.32355,
				"method": "rhf"
			},
			{
				"type": "occ",
				"energy": -0.32037,
				"method": "rhf"
			},
			{
				"type": "occ",
				"energy": -0.28752,
				"method": "rhf"
			},
			{
				"type": "occ",
				"energy": -0.27194,
				"method": "rhf"
			},
			{
				"type": "occ",
				"energy": -0.25596,
				"method": "rhf"
			},
			{
				"type": "unocc",
				"energy": -0.05145,
				"method": "rhf"
			},
			{
				"type": "unocc",
				"energy": 0.08032,
				"method": "rhf"
			},
			{
				"type": "unocc",
				"energy": 0.08376,
				"method": "rhf"
			},
			{
				"type": "unocc",
				"energy": 0.09947,
				"method": "rhf"
			},
			{
				"type": "unocc",
				"energy": 0.11322,
				"method": "rhf"
			}
		],
		"cosmo_sigma_profile": { 
			"-0.025": 0.0,
			"-0.024": 0.0,
			"-0.023": 0.0,
			"-0.022": 0.0,
			"-0.021": 0.0,
			"-0.02": 0.0,
			"-0.019": 0.0,
			"-0.018": 0.0,
			"-0.017": 0.0,
			"-0.016": 0.0,
			"-0.015": 0.0,
			"-0.014": 0.157260211324,
			"-0.013": 0.803516095797,
			"-0.012": 2.54640556498,
			"-0.011": 3.12659863585,
			"-0.01": 3.61019256454,
			"-0.009": 2.99360483306,
			"-0.008": 2.51457055576,
			"-0.007": 6.36187828477,
			"-0.006": 12.0175647735,
			"-0.005": 12.9901180291,
			"-0.004": 14.9103995673,
			"-0.003": 10.3954294305,
			"-0.002": 7.49244513791,
			"-0.001": 7.73233537714,
			"0.0": 5.54305027301,
			"0.001": 3.75697826328,
			"0.002": 4.4511312423,
			"0.003": 3.00914226201,
			"0.004": 3.9229791746,
			"0.005": 3.91447484349,
			"0.006": 3.32121230247,
			"0.007": 3.98530117506,
			"0.008": 4.28112096658,
			"0.009": 4.87221928151,
			"0.01": 4.54813528662,
			"0.011": 5.18237769561,
			"0.012": 6.11337086059,
			"0.013": 4.57667219008,
			"0.014": 1.55769238229,
			"0.015": 0.569736748457,
			"0.016": 0.429329609426,
			"0.017": 0.0,
			"0.018": 0.0,
			"0.019": 0.0,
			"0.02": 0.0,
			"0.021": 0.0,
			"0.022": 0.0,
			"0.023": 0.0,
			"0.024": 0.0,
			"0.025": 0.0
		}
	}
}
