{
	 "smiles": "CC(C)CCCC(C)C1CCC2C3CCC4CC(O)CCC4(C)C3CCC12C", 
	 "Tm": 459.15, 
	 "num_atms": 76, 
	 "gaussian": { 
		 "optdone": 1, 
		 "sigma_profile": "yes", 
		 "theory": "DFT", 
		 "functional": "B3LYP", 
		 "basiset": "6-31G**", 
		 "properties": { 
			 "R2extent": 16001.1653, 
			 "electric_dipole_moment_norm": 1.88541316692, 
			 "electric_quadrupole_moment_norm": 16.5890622264, 
			 "total_energy": -1133.06639073, 
			 "HOMO_LUMO_gap": 0.31437, 
			 "cosmo_polarized_energy": -7.08, 
			 "cosmo_cavitation_energy": 61.57, 
			 "cosmo_dispersion_energy": -41.69, 
			 "cosmo_repulsion_energy": 3.08, 
			 "cosmo_total_nonelectrostatic_energy": 22.96, 
			 "SMD_solvation_energy": 8.1 
		},
		"coords": [
			{
				"x": 0.9870962004,
				"y": -6.1671255318,
				"z": -0.8902535112,
				"element": "C" 
			},
			{
				"x": 0.6285635601,
				"y": -5.9037514847,
				"z": -2.3616202567,
				"element": "C" 
			},
			{
				"x": 1.8336055528,
				"y": -5.3391445106,
				"z": -3.1308161064,
				"element": "C" 
			},
			{
				"x": -0.6411011955,
				"y": -5.0359392135,
				"z": -2.5193988135,
				"element": "C" 
			},
			{
				"x": -0.5553353371,
				"y": -3.596281485,
				"z": -1.9818030896,
				"element": "C" 
			},
			{
				"x": -1.8606111169,
				"y": -2.7822606969,
				"z": -2.1817135045,
				"element": "C" 
			},
			{
				"x": -2.850397177,
				"y": -2.6611093698,
				"z": -0.9862272787,
				"element": "C" 
			},
			{
				"x": -3.0109860015,
				"y": -3.9792912256,
				"z": -0.2063772778,
				"element": "C" 
			},
			{
				"x": -2.7285149038,
				"y": -1.4041199867,
				"z": -0.0650717977,
				"element": "C" 
			},
			{
				"x": -3.231055615,
				"y": -0.1168804159,
				"z": -0.7541223177,
				"element": "C" 
			},
			{
				"x": -2.848737021,
				"y": 1.0332840923,
				"z": 0.2033600237,
				"element": "C" 
			},
			{
				"x": -1.9464645349,
				"y": 0.4077123745,
				"z": 1.308653551,
				"element": "C" 
			},
			{
				"x": -0.8941788475,
				"y": 1.4139563421,
				"z": 1.8417830788,
				"element": "C" 
			},
			{
				"x": -0.4108800571,
				"y": 1.1013533172,
				"z": 3.2736356777,
				"element": "C" 
			},
			{
				"x": 0.5864844996,
				"y": 2.1456356514,
				"z": 3.7913576988,
				"element": "C" 
			},
			{
				"x": 1.7786234653,
				"y": 2.2906637226,
				"z": 2.8343286576,
				"element": "C" 
			},
			{
				"x": 2.8666206077,
				"y": 3.2344469363,
				"z": 3.3790821838,
				"element": "C" 
			},
			{
				"x": 4.0946579359,
				"y": 3.2920850451,
				"z": 2.4613754248,
				"element": "C" 
			},
			{
				"x": 5.1069180319,
				"y": 4.1578436582,
				"z": 2.970535046,
				"element": "O" 
			},
			{
				"x": 3.6957289425,
				"y": 3.6497573785,
				"z": 1.0244490394,
				"element": "C" 
			},
			{
				"x": 2.6012446135,
				"y": 2.7065406568,
				"z": 0.4949204364,
				"element": "C" 
			},
			{
				"x": 1.3309544373,
				"y": 2.6646291922,
				"z": 1.3863672365,
				"element": "C" 
			},
			{
				"x": 0.6560702262,
				"y": 4.0581689927,
				"z": 1.3280822439,
				"element": "C" 
			},
			{
				"x": 0.2919407587,
				"y": 1.6101731996,
				"z": 0.85354595,
				"element": "C" 
			},
			{
				"x": 0.8578444015,
				"y": 0.2362083146,
				"z": 0.4420734145,
				"element": "C" 
			},
			{
				"x": -0.2218517286,
				"y": -0.6439330336,
				"z": -0.2154031735,
				"element": "C" 
			},
			{
				"x": -1.4334072587,
				"y": -0.944791702,
				"z": 0.7004518454,
				"element": "C" 
			},
			{
				"x": -1.0399317621,
				"y": -1.9719752715,
				"z": 1.7770493942,
				"element": "C" 
			},
			{
				"x": 1.296490642,
				"y": -5.249158793,
				"z": -0.3779416839,
				"element": "H" 
			},
			{
				"x": 1.8171088719,
				"y": -6.8778847807,
				"z": -0.8115981024,
				"element": "H" 
			},
			{
				"x": 0.1366306825,
				"y": -6.5860275013,
				"z": -0.3405192845,
				"element": "H" 
			},
			{
				"x": 0.3856375559,
				"y": -6.8770396094,
				"z": -2.8127645643,
				"element": "H" 
			},
			{
				"x": 1.5864037444,
				"y": -5.1571810396,
				"z": -4.1828798629,
				"element": "H" 
			},
			{
				"x": 2.181590561,
				"y": -4.3929659525,
				"z": -2.701650729,
				"element": "H" 
			},
			{
				"x": 2.6767305601,
				"y": -6.038137037,
				"z": -3.1026154886,
				"element": "H" 
			},
			{
				"x": -1.476028868,
				"y": -5.5554161382,
				"z": -2.0324182888,
				"element": "H" 
			},
			{
				"x": -0.8979520523,
				"y": -4.9895174992,
				"z": -3.5873335161,
				"element": "H" 
			},
			{
				"x": 0.2632052818,
				"y": -3.078629911,
				"z": -2.4952423826,
				"element": "H" 
			},
			{
				"x": -0.2761832751,
				"y": -3.6165556484,
				"z": -0.9234728664,
				"element": "H" 
			},
			{
				"x": -2.4087720778,
				"y": -3.2398453433,
				"z": -3.0159882095,
				"element": "H" 
			},
			{
				"x": -1.6109324219,
				"y": -1.7735586906,
				"z": -2.5268466836,
				"element": "H" 
			},
			{
				"x": -3.8306414362,
				"y": -2.4970567089,
				"z": -1.4581137642,
				"element": "H" 
			},
			{
				"x": -3.7561441166,
				"y": -3.8693028641,
				"z": 0.5889256945,
				"element": "H" 
			},
			{
				"x": -3.3559016903,
				"y": -4.780164966,
				"z": -0.8694898411,
				"element": "H" 
			},
			{
				"x": -2.0833722966,
				"y": -4.3195918275,
				"z": 0.2611145035,
				"element": "H" 
			},
			{
				"x": -3.4470992301,
				"y": -1.6023026946,
				"z": 0.7461370176,
				"element": "H" 
			},
			{
				"x": -2.7534921977,
				"y": 0.0129956668,
				"z": -1.7324191821,
				"element": "H" 
			},
			{
				"x": -4.3086147419,
				"y": -0.1688183731,
				"z": -0.9438066958,
				"element": "H" 
			},
			{
				"x": -3.7307962066,
				"y": 1.5003409981,
				"z": 0.6541359361,
				"element": "H" 
			},
			{
				"x": -2.3203978985,
				"y": 1.8305506248,
				"z": -0.3298315412,
				"element": "H" 
			},
			{
				"x": -2.597049019,
				"y": 0.1459067391,
				"z": 2.1553210091,
				"element": "H" 
			},
			{
				"x": -1.4275254851,
				"y": 2.3722180915,
				"z": 1.9126639473,
				"element": "H" 
			},
			{
				"x": 0.0682337556,
				"y": 0.1172817488,
				"z": 3.31575195,
				"element": "H" 
			},
			{
				"x": -1.280792818,
				"y": 1.0426218804,
				"z": 3.9402039337,
				"element": "H" 
			},
			{
				"x": 0.086834401,
				"y": 3.1148961031,
				"z": 3.9226215321,
				"element": "H" 
			},
			{
				"x": 0.9496584341,
				"y": 1.8541046174,
				"z": 4.7852206025,
				"element": "H" 
			},
			{
				"x": 2.2439059603,
				"y": 1.294436362,
				"z": 2.7622332318,
				"element": "H" 
			},
			{
				"x": 2.4635811462,
				"y": 4.2504308218,
				"z": 3.5035458569,
				"element": "H" 
			},
			{
				"x": 3.1823567647,
				"y": 2.905247005,
				"z": 4.3763063764,
				"element": "H" 
			},
			{
				"x": 4.5656814004,
				"y": 2.2997443427,
				"z": 2.4529202887,
				"element": "H" 
			},
			{
				"x": 4.7350444919,
				"y": 5.0500715166,
				"z": 2.99858374,
				"element": "H" 
			},
			{
				"x": 3.3557156216,
				"y": 4.6944872607,
				"z": 0.9996836421,
				"element": "H" 
			},
			{
				"x": 4.5823699512,
				"y": 3.5996027416,
				"z": 0.3824387203,
				"element": "H" 
			},
			{
				"x": 3.0360897598,
				"y": 1.70254859,
				"z": 0.4350916757,
				"element": "H" 
			},
			{
				"x": 2.3270279728,
				"y": 2.9854225162,
				"z": -0.5311416933,
				"element": "H" 
			},
			{
				"x": 0.4057105089,
				"y": 4.3053332363,
				"z": 0.2900266728,
				"element": "H" 
			},
			{
				"x": 1.3030799544,
				"y": 4.8546457292,
				"z": 1.7021737906,
				"element": "H" 
			},
			{
				"x": -0.269419156,
				"y": 4.1047618017,
				"z": 1.9054526579,
				"element": "H" 
			},
			{
				"x": -0.1209584568,
				"y": 2.0450969936,
				"z": -0.0696164651,
				"element": "H" 
			},
			{
				"x": 1.2981233283,
				"y": -0.2830635756,
				"z": 1.3021865182,
				"element": "H" 
			},
			{
				"x": 1.6681661104,
				"y": 0.3598009151,
				"z": -0.2825997281,
				"element": "H" 
			},
			{
				"x": 0.2389001493,
				"y": -1.5783864367,
				"z": -0.54488591,
				"element": "H" 
			},
			{
				"x": -0.5591116435,
				"y": -0.1317890808,
				"z": -1.1253431817,
				"element": "H" 
			},
			{
				"x": -0.1801803707,
				"y": -1.6501251007,
				"z": 2.3690737785,
				"element": "H" 
			},
			{
				"x": -1.8683702598,
				"y": -2.1524105103,
				"z": 2.4714362108,
				"element": "H" 
			},
			{
				"x": -0.7707425687,
				"y": -2.9312711666,
				"z": 1.325326603,
				"element": "H" 
			}
		],
		 "valence_orbital": [ 
			{
				"type": "occ",
				"energy": -0.28775,
				"method": "rhf"
			},
			{
				"type": "occ",
				"energy": -0.27902,
				"method": "rhf"
			},
			{
				"type": "occ",
				"energy": -0.27124,
				"method": "rhf"
			},
			{
				"type": "occ",
				"energy": -0.26427,
				"method": "rhf"
			},
			{
				"type": "occ",
				"energy": -0.25113,
				"method": "rhf"
			},
			{
				"type": "unocc",
				"energy": 0.06324,
				"method": "rhf"
			},
			{
				"type": "unocc",
				"energy": 0.07239,
				"method": "rhf"
			},
			{
				"type": "unocc",
				"energy": 0.07683,
				"method": "rhf"
			},
			{
				"type": "unocc",
				"energy": 0.08098,
				"method": "rhf"
			},
			{
				"type": "unocc",
				"energy": 0.08446,
				"method": "rhf"
			}
		],
		"cosmo_sigma_profile": { 
			"-0.025": 0.0,
			"-0.024": 0.0,
			"-0.023": 0.0,
			"-0.022": 0.0,
			"-0.021": 0.0,
			"-0.02": 0.0,
			"-0.019": 0.0,
			"-0.018": 0.0,
			"-0.017": 0.0,
			"-0.016": 0.0,
			"-0.015": 0.0828472712294,
			"-0.014": 0.774292573195,
			"-0.013": 0.807945589371,
			"-0.012": 0.836759016411,
			"-0.011": 1.22628202567,
			"-0.01": 0.891914887698,
			"-0.009": 0.619922140791,
			"-0.008": 1.23178596286,
			"-0.007": 1.25502948882,
			"-0.006": 1.93075874806,
			"-0.005": 1.88438417167,
			"-0.004": 4.00117931361,
			"-0.003": 14.442404921,
			"-0.002": 62.0940135657,
			"-0.001": 103.219959151,
			"0.0": 108.827011806,
			"0.001": 85.6313258373,
			"0.002": 52.9139479971,
			"0.003": 7.89204200552,
			"0.004": 1.46940635025,
			"0.005": 1.15829311739,
			"0.006": 1.41436251216,
			"0.007": 0.732869773059,
			"0.008": 1.29892775278,
			"0.009": 1.51897705879,
			"0.01": 1.14344952048,
			"0.011": 1.67265380497,
			"0.012": 0.816618326058,
			"0.013": 1.55940203658,
			"0.014": 1.99242381289,
			"0.015": 2.2525307176,
			"0.016": 0.0624407716516,
			"0.017": 0.0,
			"0.018": 0.0,
			"0.019": 0.0,
			"0.02": 0.0,
			"0.021": 0.0,
			"0.022": 0.0,
			"0.023": 0.0,
			"0.024": 0.0,
			"0.025": 0.0
		}
	}
}
