{
	 "smiles": "CCOC(=O)NNC(=O)NC1=CC=C(Cl)C(Cl)=C1", 
	 "Tm": 480.15, 
	 "num_atms": 29, 
	 "gaussian": { 
		 "optdone": 1, 
		 "sigma_profile": "yes", 
		 "theory": "DFT", 
		 "functional": "B3LYP", 
		 "basiset": "6-31G**", 
		 "properties": { 
			 "R2extent": 9119.6106, 
			 "electric_dipole_moment_norm": 1.84581361193, 
			 "electric_quadrupole_moment_norm": 26.2680572068, 
			 "total_energy": -1698.01383425, 
			 "HOMO_LUMO_gap": 0.19934, 
			 "cosmo_polarized_energy": -19.28, 
			 "cosmo_cavitation_energy": 38.14, 
			 "cosmo_dispersion_energy": -27.11, 
			 "cosmo_repulsion_energy": 2.16, 
			 "cosmo_total_nonelectrostatic_energy": 13.19, 
			 "SMD_solvation_energy": 7.99 
		},
		"coords": [
			{
				"x": -2.8363059025,
				"y": 0.3561730145,
				"z": 3.3894669476,
				"element": "C" 
			},
			{
				"x": -2.1308812391,
				"y": 1.4843905553,
				"z": 2.6538264956,
				"element": "C" 
			},
			{
				"x": -0.9199933464,
				"y": 1.0185109972,
				"z": 2.0087620133,
				"element": "O" 
			},
			{
				"x": 0.1796043427,
				"y": 0.9952539188,
				"z": 2.7873482819,
				"element": "C" 
			},
			{
				"x": 0.232639056,
				"y": 1.2813583149,
				"z": 3.964601546,
				"element": "O" 
			},
			{
				"x": 1.2779193896,
				"y": 0.5010769005,
				"z": 2.08671066,
				"element": "N" 
			},
			{
				"x": 1.3381379413,
				"y": 0.5480544194,
				"z": 0.6995377493,
				"element": "N" 
			},
			{
				"x": 1.2691303048,
				"y": 1.8055851432,
				"z": 0.093271826,
				"element": "C" 
			},
			{
				"x": 1.3744941677,
				"y": 2.8479385193,
				"z": 0.7140317193,
				"element": "O" 
			},
			{
				"x": 1.1007499493,
				"y": 1.8021352763,
				"z": -1.2864411201,
				"element": "N" 
			},
			{
				"x": 1.0429218541,
				"y": 0.7477677011,
				"z": -2.2177113392,
				"element": "C" 
			},
			{
				"x": 1.8357717052,
				"y": -0.406160412,
				"z": -2.1113727777,
				"element": "C" 
			},
			{
				"x": 1.7496450647,
				"y": -1.4010225956,
				"z": -3.0803743726,
				"element": "C" 
			},
			{
				"x": 0.9054803954,
				"y": -1.2632063467,
				"z": -4.1835765895,
				"element": "C" 
			},
			{
				"x": 0.8483441872,
				"y": -2.5351780174,
				"z": -5.3762700618,
				"element": "Cl" 
			},
			{
				"x": 0.1324076395,
				"y": -0.1001877148,
				"z": -4.3053700784,
				"element": "C" 
			},
			{
				"x": -0.9397315764,
				"y": 0.1423151059,
				"z": -5.6608697507,
				"element": "Cl" 
			},
			{
				"x": 0.1946925675,
				"y": 0.8881489059,
				"z": -3.3248309346,
				"element": "C" 
			},
			{
				"x": -3.0556534921,
				"y": -0.4755484858,
				"z": 2.7132135229,
				"element": "H" 
			},
			{
				"x": -2.2176509497,
				"y": -0.0077053378,
				"z": 4.2131833048,
				"element": "H" 
			},
			{
				"x": -3.7823810785,
				"y": 0.7196058665,
				"z": 3.8044397465,
				"element": "H" 
			},
			{
				"x": -1.8730441782,
				"y": 2.3001156617,
				"z": 3.3327547673,
				"element": "H" 
			},
			{
				"x": -2.738753956,
				"y": 1.8737440106,
				"z": 1.8338190749,
				"element": "H" 
			},
			{
				"x": 2.1548859736,
				"y": 0.70724877,
				"z": 2.5467176472,
				"element": "H" 
			},
			{
				"x": 0.8530598379,
				"y": -0.2185423973,
				"z": 0.2512449883,
				"element": "H" 
			},
			{
				"x": 0.9298244092,
				"y": 2.736547588,
				"z": -1.6318852202,
				"element": "H" 
			},
			{
				"x": 2.5336023025,
				"y": -0.5150578059,
				"z": -1.28994,
				"element": "H" 
			},
			{
				"x": 2.3624015895,
				"y": -2.2918355233,
				"z": -2.9974797683,
				"element": "H" 
			},
			{
				"x": -0.4299169589,
				"y": 1.7693739674,
				"z": -3.4240082777,
				"element": "H" 
			}
		],
		 "valence_orbital": [ 
			{
				"type": "occ",
				"energy": -0.28872,
				"method": "rhf"
			},
			{
				"type": "occ",
				"energy": -0.28318,
				"method": "rhf"
			},
			{
				"type": "occ",
				"energy": -0.27426,
				"method": "rhf"
			},
			{
				"type": "occ",
				"energy": -0.26694,
				"method": "rhf"
			},
			{
				"type": "occ",
				"energy": -0.24045,
				"method": "rhf"
			},
			{
				"type": "unocc",
				"energy": -0.04111,
				"method": "rhf"
			},
			{
				"type": "unocc",
				"energy": -0.03764,
				"method": "rhf"
			},
			{
				"type": "unocc",
				"energy": -0.0079,
				"method": "rhf"
			},
			{
				"type": "unocc",
				"energy": 0.03524,
				"method": "rhf"
			},
			{
				"type": "unocc",
				"energy": 0.04246,
				"method": "rhf"
			}
		],
		"cosmo_sigma_profile": { 
			"-0.025": 0.0,
			"-0.024": 0.0,
			"-0.023": 0.0,
			"-0.022": 0.0,
			"-0.021": 0.0,
			"-0.02": 0.0,
			"-0.019": 0.0,
			"-0.018": 0.0,
			"-0.017": 0.0,
			"-0.016": 0.233589493907,
			"-0.015": 1.77622641497,
			"-0.014": 2.59524176384,
			"-0.013": 2.6113539744,
			"-0.012": 2.5823885925,
			"-0.011": 2.94424939843,
			"-0.01": 3.34273908323,
			"-0.009": 3.60409941063,
			"-0.008": 5.69322425858,
			"-0.007": 6.64183776652,
			"-0.006": 10.394746337,
			"-0.005": 11.1968306753,
			"-0.004": 18.0352744445,
			"-0.003": 20.2947525102,
			"-0.002": 18.5155505693,
			"-0.001": 24.8534483117,
			"0.0": 32.0008338761,
			"0.001": 30.9471238249,
			"0.002": 21.7331392901,
			"0.003": 19.5124554817,
			"0.004": 21.8172491222,
			"0.005": 9.76208564003,
			"0.006": 5.33650069842,
			"0.007": 4.06731590326,
			"0.008": 2.68914387077,
			"0.009": 3.25338343438,
			"0.01": 2.87010621157,
			"0.011": 3.69813076888,
			"0.012": 8.40598531422,
			"0.013": 6.16454312604,
			"0.014": 0.212734840507,
			"0.015": 0.0,
			"0.016": 0.0,
			"0.017": 0.0,
			"0.018": 0.0,
			"0.019": 0.0,
			"0.02": 0.0,
			"0.021": 0.0,
			"0.022": 0.0,
			"0.023": 0.0,
			"0.024": 0.0,
			"0.025": 0.0
		}
	}
}
