{
	 "smiles": "COC1=CC=CC=C1NN=C(/C(N)=O)C1=NC2=C(S1)C=CC=C2", 
	 "Tm": 485.15, 
	 "num_atms": 37, 
	 "gaussian": { 
		 "optdone": 1, 
		 "sigma_profile": "yes", 
		 "theory": "DFT", 
		 "functional": "B3LYP", 
		 "basiset": "6-31G**", 
		 "properties": { 
			 "R2extent": 9584.5746, 
			 "electric_dipole_moment_norm": 3.28924211635, 
			 "electric_quadrupole_moment_norm": 17.1810216297, 
			 "total_energy": -1385.74367284, 
			 "HOMO_LUMO_gap": 0.13497, 
			 "cosmo_polarized_energy": -21.46, 
			 "cosmo_cavitation_energy": 43.21, 
			 "cosmo_dispersion_energy": -31.06, 
			 "cosmo_repulsion_energy": 2.31, 
			 "cosmo_total_nonelectrostatic_energy": 14.45, 
			 "SMD_solvation_energy": 7.26 
		},
		"coords": [
			{
				"x": -1.7038709823,
				"y": 1.9680662735,
				"z": 0.3802675855,
				"element": "C" 
			},
			{
				"x": -2.6229024605,
				"y": 0.8787532518,
				"z": 0.1997379781,
				"element": "O" 
			},
			{
				"x": -3.0026854733,
				"y": 0.6034598976,
				"z": -1.0840862115,
				"element": "C" 
			},
			{
				"x": -3.9704781551,
				"y": 1.3881820095,
				"z": -1.7185120536,
				"element": "C" 
			},
			{
				"x": -4.4711827251,
				"y": 1.0405746572,
				"z": -2.972834865,
				"element": "C" 
			},
			{
				"x": -4.0072846504,
				"y": -0.111353985,
				"z": -3.610511685,
				"element": "C" 
			},
			{
				"x": -3.0280809832,
				"y": -0.8921395613,
				"z": -3.0005918175,
				"element": "C" 
			},
			{
				"x": -2.507403159,
				"y": -0.5377689971,
				"z": -1.7498456815,
				"element": "C" 
			},
			{
				"x": -1.5431259106,
				"y": -1.3806095764,
				"z": -1.1548958924,
				"element": "N" 
			},
			{
				"x": -0.477194817,
				"y": -0.8592304873,
				"z": -0.5640111949,
				"element": "N" 
			},
			{
				"x": 0.5056954074,
				"y": -1.5817976906,
				"z": -0.0991088675,
				"element": "C" 
			},
			{
				"x": 0.601313671,
				"y": -3.0798775037,
				"z": -0.1414577344,
				"element": "C" 
			},
			{
				"x": -0.5999301101,
				"y": -3.7739457923,
				"z": -0.0901596707,
				"element": "N" 
			},
			{
				"x": 1.6683751629,
				"y": -3.6682411297,
				"z": -0.2483132699,
				"element": "O" 
			},
			{
				"x": 1.6336559804,
				"y": -0.8279568955,
				"z": 0.4811645659,
				"element": "C" 
			},
			{
				"x": 1.5662046918,
				"y": 0.4393541481,
				"z": 0.7718861635,
				"element": "N" 
			},
			{
				"x": 2.7517011309,
				"y": 0.9025965103,
				"z": 1.3038721265,
				"element": "C" 
			},
			{
				"x": 3.7776905811,
				"y": -0.0656246916,
				"z": 1.4289332724,
				"element": "C" 
			},
			{
				"x": 3.20378378,
				"y": -1.6057994528,
				"z": 0.829574173,
				"element": "S" 
			},
			{
				"x": 5.0288596135,
				"y": 0.2665581445,
				"z": 1.957397387,
				"element": "C" 
			},
			{
				"x": 5.2447117015,
				"y": 1.5810888941,
				"z": 2.3616021189,
				"element": "C" 
			},
			{
				"x": 4.2323085112,
				"y": 2.5513910974,
				"z": 2.24275861,
				"element": "C" 
			},
			{
				"x": 2.9890272743,
				"y": 2.2238545543,
				"z": 1.7185137587,
				"element": "C" 
			},
			{
				"x": -2.0286205314,
				"y": 2.8528326738,
				"z": -0.1813748531,
				"element": "H" 
			},
			{
				"x": -1.7156703305,
				"y": 2.1972368499,
				"z": 1.4478829234,
				"element": "H" 
			},
			{
				"x": -0.6945603281,
				"y": 1.6687633353,
				"z": 0.0849648719,
				"element": "H" 
			},
			{
				"x": -4.3509271683,
				"y": 2.2559286717,
				"z": -1.1882467117,
				"element": "H" 
			},
			{
				"x": -5.2310686797,
				"y": 1.6583336857,
				"z": -3.4416632409,
				"element": "H" 
			},
			{
				"x": -4.395582476,
				"y": -0.3971013134,
				"z": -4.5830656735,
				"element": "H" 
			},
			{
				"x": -2.641070545,
				"y": -1.7758704796,
				"z": -3.5018584924,
				"element": "H" 
			},
			{
				"x": -1.5413952844,
				"y": -2.3629820858,
				"z": -1.4276740819,
				"element": "H" 
			},
			{
				"x": -1.356995907,
				"y": -3.3678652201,
				"z": 0.4476364953,
				"element": "H" 
			},
			{
				"x": -0.4736128145,
				"y": -4.7712605891,
				"z": 0.0365615578,
				"element": "H" 
			},
			{
				"x": 5.8131622711,
				"y": -0.4781864525,
				"z": 2.0508455359,
				"element": "H" 
			},
			{
				"x": 6.2093943099,
				"y": 1.8605986701,
				"z": 2.7748472363,
				"element": "H" 
			},
			{
				"x": 4.4285513361,
				"y": 3.5694450988,
				"z": 2.5660011234,
				"element": "H" 
			},
			{
				"x": 2.1989080682,
				"y": 2.96129348,
				"z": 1.6212645142,
				"element": "H" 
			}
		],
		 "valence_orbital": [ 
			{
				"type": "occ",
				"energy": -0.26074,
				"method": "rhf"
			},
			{
				"type": "occ",
				"energy": -0.24787,
				"method": "rhf"
			},
			{
				"type": "occ",
				"energy": -0.23731,
				"method": "rhf"
			},
			{
				"type": "occ",
				"energy": -0.22449,
				"method": "rhf"
			},
			{
				"type": "occ",
				"energy": -0.20508,
				"method": "rhf"
			},
			{
				"type": "unocc",
				"energy": -0.07011,
				"method": "rhf"
			},
			{
				"type": "unocc",
				"energy": -0.01563,
				"method": "rhf"
			},
			{
				"type": "unocc",
				"energy": -0.00794,
				"method": "rhf"
			},
			{
				"type": "unocc",
				"energy": 0.00072,
				"method": "rhf"
			},
			{
				"type": "unocc",
				"energy": 0.00388,
				"method": "rhf"
			}
		],
		"cosmo_sigma_profile": { 
			"-0.025": 0.0,
			"-0.024": 0.0,
			"-0.023": 0.0,
			"-0.022": 0.0,
			"-0.021": 0.0,
			"-0.02": 0.0,
			"-0.019": 0.0,
			"-0.018": 0.0,
			"-0.017": 0.0,
			"-0.016": 0.0,
			"-0.015": 0.912381121785,
			"-0.014": 2.19313301806,
			"-0.013": 3.08665721506,
			"-0.012": 3.46810618012,
			"-0.011": 4.46256159752,
			"-0.01": 4.42954972631,
			"-0.009": 3.77910885281,
			"-0.008": 3.81871692845,
			"-0.007": 6.62010099623,
			"-0.006": 16.7230734166,
			"-0.005": 22.6862275016,
			"-0.004": 25.7197663395,
			"-0.003": 21.1446018397,
			"-0.002": 20.3780016171,
			"-0.001": 18.3571143433,
			"0.0": 20.3434433524,
			"0.001": 21.6169278679,
			"0.002": 25.831214101,
			"0.003": 28.0995124417,
			"0.004": 28.3976253978,
			"0.005": 22.9804756723,
			"0.006": 8.53214832755,
			"0.007": 5.55892543397,
			"0.008": 6.77831756187,
			"0.009": 6.1039966872,
			"0.01": 5.58080197863,
			"0.011": 4.82878322021,
			"0.012": 5.00008088081,
			"0.013": 1.06317049633,
			"0.014": 0.0,
			"0.015": 0.0,
			"0.016": 0.0,
			"0.017": 0.0,
			"0.018": 0.0,
			"0.019": 0.0,
			"0.02": 0.0,
			"0.021": 0.0,
			"0.022": 0.0,
			"0.023": 0.0,
			"0.024": 0.0,
			"0.025": 0.0
		}
	}
}
