{
	 "smiles": "NC1=CC(OC2=C(Cl)C=CC=C2)=NC=C1", 
	 "Tm": 395.15, 
	 "num_atms": 24, 
	 "gaussian": { 
		 "optdone": 1, 
		 "sigma_profile": "yes", 
		 "theory": "DFT", 
		 "functional": "B3LYP", 
		 "basiset": "6-31G**", 
		 "properties": { 
			 "R2extent": 4986.708, 
			 "electric_dipole_moment_norm": 4.0170051867, 
			 "electric_quadrupole_moment_norm": 15.6043760923, 
			 "total_energy": -1069.51068855, 
			 "HOMO_LUMO_gap": 0.21484, 
			 "cosmo_polarized_energy": -13.97, 
			 "cosmo_cavitation_energy": 30.69, 
			 "cosmo_dispersion_energy": -22.41, 
			 "cosmo_repulsion_energy": 1.78, 
			 "cosmo_total_nonelectrostatic_energy": 10.05, 
			 "SMD_solvation_energy": 4.42 
		},
		"coords": [
			{
				"x": 2.4017367323,
				"y": -2.4338421245,
				"z": -0.0144989748,
				"element": "N" 
			},
			{
				"x": 1.1104489127,
				"y": -1.9772993016,
				"z": 0.1512119292,
				"element": "C" 
			},
			{
				"x": 0.7683863055,
				"y": -0.6473771113,
				"z": -0.1205711474,
				"element": "C" 
			},
			{
				"x": -0.5465683821,
				"y": -0.2469861661,
				"z": 0.1231832663,
				"element": "C" 
			},
			{
				"x": -0.8081817526,
				"y": 1.0752135106,
				"z": -0.1411372274,
				"element": "O" 
			},
			{
				"x": -2.0851248506,
				"y": 1.5865877225,
				"z": -0.0653203694,
				"element": "C" 
			},
			{
				"x": -2.2911329294,
				"y": 2.7326939768,
				"z": 0.7122717487,
				"element": "C" 
			},
			{
				"x": -0.9751403161,
				"y": 3.3968735557,
				"z": 1.6597168588,
				"element": "Cl" 
			},
			{
				"x": -3.5389502497,
				"y": 3.3573289856,
				"z": 0.7370169529,
				"element": "C" 
			},
			{
				"x": -4.5904537851,
				"y": 2.8322918881,
				"z": -0.0115834988,
				"element": "C" 
			},
			{
				"x": -4.3901065297,
				"y": 1.6887845768,
				"z": -0.7881426862,
				"element": "C" 
			},
			{
				"x": -3.1427488866,
				"y": 1.0707550674,
				"z": -0.8187727335,
				"element": "C" 
			},
			{
				"x": -1.513093878,
				"y": -1.0254719609,
				"z": 0.587222976,
				"element": "N" 
			},
			{
				"x": -1.1703264454,
				"y": -2.3008442067,
				"z": 0.8398546998,
				"element": "C" 
			},
			{
				"x": 0.0957865098,
				"y": -2.8263643687,
				"z": 0.6473107325,
				"element": "C" 
			},
			{
				"x": 3.0105706723,
				"y": -1.8913762683,
				"z": -0.6087143821,
				"element": "H" 
			},
			{
				"x": 2.5309418449,
				"y": -3.4312640383,
				"z": -0.092105736,
				"element": "H" 
			},
			{
				"x": 1.4910765301,
				"y": 0.0677309702,
				"z": -0.4980665966,
				"element": "H" 
			},
			{
				"x": -3.6734499533,
				"y": 4.2454822317,
				"z": 1.3445691135,
				"element": "H" 
			},
			{
				"x": -5.5610824238,
				"y": 3.3178599445,
				"z": 0.0121258822,
				"element": "H" 
			},
			{
				"x": -5.2053659295,
				"y": 1.2769518405,
				"z": -1.375041747,
				"element": "H" 
			},
			{
				"x": -2.9745927107,
				"y": 0.1824217465,
				"z": -1.4154081002,
				"element": "H" 
			},
			{
				"x": -1.9676156817,
				"y": -2.936017794,
				"z": 1.2213955969,
				"element": "H" 
			},
			{
				"x": 0.3045871965,
				"y": -3.8662326766,
				"z": 0.8789834429,
				"element": "H" 
			}
		],
		 "valence_orbital": [ 
			{
				"type": "occ",
				"energy": -0.26675,
				"method": "rhf"
			},
			{
				"type": "occ",
				"energy": -0.25031,
				"method": "rhf"
			},
			{
				"type": "occ",
				"energy": -0.24066,
				"method": "rhf"
			},
			{
				"type": "occ",
				"energy": -0.2292,
				"method": "rhf"
			},
			{
				"type": "occ",
				"energy": -0.22281,
				"method": "rhf"
			},
			{
				"type": "unocc",
				"energy": -0.00797,
				"method": "rhf"
			},
			{
				"type": "unocc",
				"energy": -0.00521,
				"method": "rhf"
			},
			{
				"type": "unocc",
				"energy": -0.00182,
				"method": "rhf"
			},
			{
				"type": "unocc",
				"energy": 0.0155,
				"method": "rhf"
			},
			{
				"type": "unocc",
				"energy": 0.03733,
				"method": "rhf"
			}
		],
		"cosmo_sigma_profile": { 
			"-0.025": 0.0,
			"-0.024": 0.0,
			"-0.023": 0.0,
			"-0.022": 0.0,
			"-0.021": 0.0,
			"-0.02": 0.0,
			"-0.019": 0.0,
			"-0.018": 0.0,
			"-0.017": 0.0,
			"-0.016": 0.0,
			"-0.015": 0.0,
			"-0.014": 0.365794978844,
			"-0.013": 2.69669494618,
			"-0.012": 2.84185666365,
			"-0.011": 2.96751523629,
			"-0.01": 3.83714482241,
			"-0.009": 2.94348945463,
			"-0.008": 2.84099768579,
			"-0.007": 7.88353846518,
			"-0.006": 14.7550333467,
			"-0.005": 13.5201266874,
			"-0.004": 13.3736039437,
			"-0.003": 11.2156451727,
			"-0.002": 11.4754130717,
			"-0.001": 10.8030825268,
			"0.0": 12.3159809869,
			"0.001": 17.8758294048,
			"0.002": 23.6754168496,
			"0.003": 28.0266928089,
			"0.004": 28.780781954,
			"0.005": 13.4003323869,
			"0.006": 5.69622610856,
			"0.007": 3.52313842263,
			"0.008": 4.07422606012,
			"0.009": 3.17932094521,
			"0.01": 1.24535016573,
			"0.011": 1.57349339546,
			"0.012": 1.60680064933,
			"0.013": 0.901768804194,
			"0.014": 0.690947559091,
			"0.015": 0.224824913781,
			"0.016": 0.0,
			"0.017": 0.0,
			"0.018": 0.0,
			"0.019": 0.0,
			"0.02": 0.0,
			"0.021": 0.0,
			"0.022": 0.0,
			"0.023": 0.0,
			"0.024": 0.0,
			"0.025": 0.0
		}
	}
}
