{
	 "smiles": "NC1=NN=C(O1)C1=CC=C(O1)[N+]([O-])=O", 
	 "Tm": 533.15, 
	 "num_atms": 18, 
	 "gaussian": { 
		 "optdone": 1, 
		 "sigma_profile": "yes", 
		 "theory": "DFT", 
		 "functional": "B3LYP", 
		 "basiset": "6-31G**", 
		 "properties": { 
			 "R2extent": 3811.7937, 
			 "electric_dipole_moment_norm": 8.82365158594, 
			 "electric_quadrupole_moment_norm": 14.6765291616, 
			 "total_energy": -750.779784391, 
			 "HOMO_LUMO_gap": 0.13621, 
			 "cosmo_polarized_energy": -23.1, 
			 "cosmo_cavitation_energy": 25.7, 
			 "cosmo_dispersion_energy": -18.96, 
			 "cosmo_repulsion_energy": 1.51, 
			 "cosmo_total_nonelectrostatic_energy": 8.24, 
			 "SMD_solvation_energy": 6.13 
		},
		"coords": [
			{
				"x": -1.4529539158,
				"y": 4.20696544,
				"z": -0.8236656496,
				"element": "N" 
			},
			{
				"x": -1.597496169,
				"y": 2.8629055915,
				"z": -0.6757498927,
				"element": "C" 
			},
			{
				"x": -2.621762551,
				"y": 2.202742224,
				"z": -0.2077746445,
				"element": "N" 
			},
			{
				"x": -2.2326072859,
				"y": 0.8673981761,
				"z": -0.1875443844,
				"element": "N" 
			},
			{
				"x": -1.022308432,
				"y": 0.821157203,
				"z": -0.6498849877,
				"element": "C" 
			},
			{
				"x": -0.5387072491,
				"y": 2.0706126674,
				"z": -0.9862877252,
				"element": "O" 
			},
			{
				"x": -0.1466215273,
				"y": -0.2997427132,
				"z": -0.8576234006,
				"element": "C" 
			},
			{
				"x": 1.1461397542,
				"y": -0.379664091,
				"z": -1.3302289796,
				"element": "C" 
			},
			{
				"x": 1.4897447288,
				"y": -1.7556952392,
				"z": -1.3130074819,
				"element": "C" 
			},
			{
				"x": 0.3812235351,
				"y": -2.3976763872,
				"z": -0.8323859864,
				"element": "C" 
			},
			{
				"x": -0.6223442613,
				"y": -1.5352084538,
				"z": -0.5502907484,
				"element": "O" 
			},
			{
				"x": 0.1468440293,
				"y": -3.7877432587,
				"z": -0.5978379466,
				"element": "N" 
			},
			{
				"x": -0.9484334569,
				"y": -4.1235973829,
				"z": -0.1539999678,
				"element": "O" 
			},
			{
				"x": 1.0895871064,
				"y": -4.5387178545,
				"z": -0.8701458526,
				"element": "O" 
			},
			{
				"x": -0.8124747051,
				"y": 4.5209556906,
				"z": -1.538109889,
				"element": "H" 
			},
			{
				"x": -2.3167161378,
				"y": 4.7259437234,
				"z": -0.755807987,
				"element": "H" 
			},
			{
				"x": 1.7606793069,
				"y": 0.4504783557,
				"z": -1.644285848,
				"element": "H" 
			},
			{
				"x": 2.4151072306,
				"y": -2.2251136913,
				"z": -1.6072686279,
				"element": "H" 
			}
		],
		 "valence_orbital": [ 
			{
				"type": "occ",
				"energy": -0.3088,
				"method": "rhf"
			},
			{
				"type": "occ",
				"energy": -0.29648,
				"method": "rhf"
			},
			{
				"type": "occ",
				"energy": -0.29507,
				"method": "rhf"
			},
			{
				"type": "occ",
				"energy": -0.28892,
				"method": "rhf"
			},
			{
				"type": "occ",
				"energy": -0.23724,
				"method": "rhf"
			},
			{
				"type": "unocc",
				"energy": -0.10103,
				"method": "rhf"
			},
			{
				"type": "unocc",
				"energy": -0.04365,
				"method": "rhf"
			},
			{
				"type": "unocc",
				"energy": 0.02157,
				"method": "rhf"
			},
			{
				"type": "unocc",
				"energy": 0.04291,
				"method": "rhf"
			},
			{
				"type": "unocc",
				"energy": 0.04801,
				"method": "rhf"
			}
		],
		"cosmo_sigma_profile": { 
			"-0.025": 0.0,
			"-0.024": 0.0,
			"-0.023": 0.0,
			"-0.022": 0.0,
			"-0.021": 0.0,
			"-0.02": 0.0,
			"-0.019": 0.0,
			"-0.018": 0.0,
			"-0.017": 0.0226065013929,
			"-0.016": 1.53099653488,
			"-0.015": 2.92447348874,
			"-0.014": 2.82728156995,
			"-0.013": 2.0067754352,
			"-0.012": 2.46531646633,
			"-0.011": 2.59117120627,
			"-0.01": 4.26957283207,
			"-0.009": 5.06151526072,
			"-0.008": 5.13641946487,
			"-0.007": 7.23431355732,
			"-0.006": 6.80015414338,
			"-0.005": 10.3564758194,
			"-0.004": 15.3297826353,
			"-0.003": 14.6340546818,
			"-0.002": 13.4421630288,
			"-0.001": 11.9317121753,
			"0.0": 10.1166191809,
			"0.001": 6.86542068719,
			"0.002": 6.31957686647,
			"0.003": 5.55878612708,
			"0.004": 5.79560590013,
			"0.005": 5.55237398855,
			"0.006": 7.23616336832,
			"0.007": 13.2425277983,
			"0.008": 12.3661189658,
			"0.009": 8.8902356477,
			"0.01": 4.82249606915,
			"0.011": 3.19450479209,
			"0.012": 3.38982462008,
			"0.013": 2.44325168752,
			"0.014": 2.36622197968,
			"0.015": 0.858791885291,
			"0.016": 0.0645265881203,
			"0.017": 0.0,
			"0.018": 0.0,
			"0.019": 0.0,
			"0.02": 0.0,
			"0.021": 0.0,
			"0.022": 0.0,
			"0.023": 0.0,
			"0.024": 0.0,
			"0.025": 0.0
		}
	}
}
