{
	 "smiles": "S=C=NC1=C(C=CC=C1)C#N", 
	 "Tm": 393.15, 
	 "num_atms": 15, 
	 "gaussian": { 
		 "optdone": 1, 
		 "sigma_profile": "yes", 
		 "theory": "DFT", 
		 "functional": "B3LYP", 
		 "basiset": "6-31G**", 
		 "properties": { 
			 "R2extent": 2697.3302, 
			 "electric_dipole_moment_norm": 6.13879556021, 
			 "electric_quadrupole_moment_norm": 7.77976516612, 
			 "total_energy": -814.925646179, 
			 "HOMO_LUMO_gap": 0.16816, 
			 "cosmo_polarized_energy": -10.66, 
			 "cosmo_cavitation_energy": 24.2, 
			 "cosmo_dispersion_energy": -17.17, 
			 "cosmo_repulsion_energy": 1.36, 
			 "cosmo_total_nonelectrostatic_energy": 8.38, 
			 "SMD_solvation_energy": 6.13 
		},
		"coords": [
			{
				"x": -0.0221152514,
				"y": 1.7049098451,
				"z": 3.8243727144,
				"element": "S" 
			},
			{
				"x": -0.3177776037,
				"y": 0.7639601482,
				"z": 2.5812403717,
				"element": "C" 
			},
			{
				"x": -0.5348388703,
				"y": 0.0496939704,
				"z": 1.6547773141,
				"element": "N" 
			},
			{
				"x": -0.7835381972,
				"y": -0.768837685,
				"z": 0.593070354,
				"element": "C" 
			},
			{
				"x": -1.4114316159,
				"y": -0.2595327973,
				"z": -0.5717470527,
				"element": "C" 
			},
			{
				"x": -1.6584501045,
				"y": -1.1187116957,
				"z": -1.6535335162,
				"element": "C" 
			},
			{
				"x": -1.2921955712,
				"y": -2.4596648197,
				"z": -1.5882571535,
				"element": "C" 
			},
			{
				"x": -0.6732815051,
				"y": -2.9572224035,
				"z": -0.4372706739,
				"element": "C" 
			},
			{
				"x": -0.4187440216,
				"y": -2.1233279761,
				"z": 0.6471125003,
				"element": "C" 
			},
			{
				"x": -1.790569796,
				"y": 1.1180554613,
				"z": -0.6457314261,
				"element": "C" 
			},
			{
				"x": -2.1052801255,
				"y": 2.2352760719,
				"z": -0.7220019196,
				"element": "N" 
			},
			{
				"x": -2.1393092391,
				"y": -0.7181668028,
				"z": -2.5393656061,
				"element": "H" 
			},
			{
				"x": -1.4881276744,
				"y": -3.1142271899,
				"z": -2.4309437922,
				"element": "H" 
			},
			{
				"x": -0.3862374499,
				"y": -4.0026812044,
				"z": -0.382737408,
				"element": "H" 
			},
			{
				"x": 0.0605970257,
				"y": -2.4995229225,
				"z": 1.5439152938,
				"element": "H" 
			}
		],
		 "valence_orbital": [ 
			{
				"type": "occ",
				"energy": -0.34181,
				"method": "rhf"
			},
			{
				"type": "occ",
				"energy": -0.31056,
				"method": "rhf"
			},
			{
				"type": "occ",
				"energy": -0.28449,
				"method": "rhf"
			},
			{
				"type": "occ",
				"energy": -0.2635,
				"method": "rhf"
			},
			{
				"type": "occ",
				"energy": -0.24594,
				"method": "rhf"
			},
			{
				"type": "unocc",
				"energy": -0.07778,
				"method": "rhf"
			},
			{
				"type": "unocc",
				"energy": -0.05358,
				"method": "rhf"
			},
			{
				"type": "unocc",
				"energy": -0.00864,
				"method": "rhf"
			},
			{
				"type": "unocc",
				"energy": 0.02426,
				"method": "rhf"
			},
			{
				"type": "unocc",
				"energy": 0.03004,
				"method": "rhf"
			}
		],
		"cosmo_sigma_profile": { 
			"-0.025": 0.0,
			"-0.024": 0.0,
			"-0.023": 0.0,
			"-0.022": 0.0,
			"-0.021": 0.0,
			"-0.02": 0.0,
			"-0.019": 0.0,
			"-0.018": 0.0,
			"-0.017": 0.0,
			"-0.016": 0.0,
			"-0.015": 0.0,
			"-0.014": 0.0,
			"-0.013": 0.0,
			"-0.012": 0.0,
			"-0.011": 0.0,
			"-0.01": 0.0,
			"-0.009": 1.44656339284,
			"-0.008": 7.40451794528,
			"-0.007": 10.7668729907,
			"-0.006": 9.8575252293,
			"-0.005": 8.14819284609,
			"-0.004": 9.08104993907,
			"-0.003": 14.2783040693,
			"-0.002": 18.7586272168,
			"-0.001": 17.0832254007,
			"0.0": 18.8864344438,
			"0.001": 16.9180583913,
			"0.002": 12.5762469902,
			"0.003": 7.77328186142,
			"0.004": 10.2827787402,
			"0.005": 15.7844325124,
			"0.006": 4.14349556173,
			"0.007": 2.83896679435,
			"0.008": 3.36645479674,
			"0.009": 2.92677069874,
			"0.01": 3.18964555733,
			"0.011": 2.43306571483,
			"0.012": 2.38136387395,
			"0.013": 0.621034472887,
			"0.014": 0.0,
			"0.015": 0.0,
			"0.016": 0.0,
			"0.017": 0.0,
			"0.018": 0.0,
			"0.019": 0.0,
			"0.02": 0.0,
			"0.021": 0.0,
			"0.022": 0.0,
			"0.023": 0.0,
			"0.024": 0.0,
			"0.025": 0.0
		}
	}
}
