{
	 "smiles": "C1CN=C2C3=CC=CC4=C3C(=CC=C4)C2=N1", 
	 "Tm": 368.15, 
	 "num_atms": 26, 
	 "gaussian": { 
		 "optdone": 1, 
		 "sigma_profile": "yes", 
		 "theory": "DFT", 
		 "functional": "B3LYP", 
		 "basiset": "6-31G**", 
		 "properties": { 
			 "R2extent": 3360.2548, 
			 "electric_dipole_moment_norm": 1.33462140699, 
			 "electric_quadrupole_moment_norm": 8.16874535042, 
			 "total_energy": -649.003999147, 
			 "HOMO_LUMO_gap": 0.14937, 
			 "cosmo_polarized_energy": -8.78, 
			 "cosmo_cavitation_energy": 29.16, 
			 "cosmo_dispersion_energy": -22.05, 
			 "cosmo_repulsion_energy": 1.67, 
			 "cosmo_total_nonelectrostatic_energy": 8.78, 
			 "SMD_solvation_energy": -2.55 
		},
		"coords": [
			{
				"x": 3.4818249148,
				"y": -1.3344684116,
				"z": -1.9718787174,
				"element": "C" 
			},
			{
				"x": 2.4073056437,
				"y": -2.0052605994,
				"z": -2.8426371918,
				"element": "C" 
			},
			{
				"x": 1.0584014095,
				"y": -1.4185099546,
				"z": -2.7566063376,
				"element": "N" 
			},
			{
				"x": 0.8121023908,
				"y": -0.8514678821,
				"z": -1.6389873957,
				"element": "C" 
			},
			{
				"x": -0.4628026072,
				"y": -0.2893253938,
				"z": -1.1511600846,
				"element": "C" 
			},
			{
				"x": -1.7061325786,
				"y": -0.0957454232,
				"z": -1.7147775127,
				"element": "C" 
			},
			{
				"x": -2.7354154715,
				"y": 0.4557796862,
				"z": -0.9056245322,
				"element": "C" 
			},
			{
				"x": -2.5337842168,
				"y": 0.7966645826,
				"z": 0.4226941732,
				"element": "C" 
			},
			{
				"x": -1.262544193,
				"y": 0.6035387526,
				"z": 1.0324199118,
				"element": "C" 
			},
			{
				"x": -0.2552151065,
				"y": 0.0593990727,
				"z": 0.2087959351,
				"element": "C" 
			},
			{
				"x": 1.0671587309,
				"y": -0.1942613803,
				"z": 0.657294215,
				"element": "C" 
			},
			{
				"x": 1.4054154365,
				"y": 0.1008439298,
				"z": 1.9609441559,
				"element": "C" 
			},
			{
				"x": 0.4056550188,
				"y": 0.6454218712,
				"z": 2.8107891639,
				"element": "C" 
			},
			{
				"x": -0.8861254308,
				"y": 0.8936499317,
				"z": 2.3737867973,
				"element": "C" 
			},
			{
				"x": 1.8096598467,
				"y": -0.7222042258,
				"z": -0.504306552,
				"element": "C" 
			},
			{
				"x": 3.0593822321,
				"y": -0.9637483753,
				"z": -0.6097664397,
				"element": "N" 
			},
			{
				"x": 3.8340200843,
				"y": -0.4075516949,
				"z": -2.4492468287,
				"element": "H" 
			},
			{
				"x": 4.3565675673,
				"y": -1.9887934284,
				"z": -1.8955299657,
				"element": "H" 
			},
			{
				"x": 2.3013530756,
				"y": -3.0652722553,
				"z": -2.5665118291,
				"element": "H" 
			},
			{
				"x": 2.7220129554,
				"y": -1.993980466,
				"z": -3.8914343435,
				"element": "H" 
			},
			{
				"x": -1.8989048315,
				"y": -0.3575149316,
				"z": -2.7503159159,
				"element": "H" 
			},
			{
				"x": -3.7158264175,
				"y": 0.6128785134,
				"z": -1.346303422,
				"element": "H" 
			},
			{
				"x": -3.3511763657,
				"y": 1.2139508467,
				"z": 1.0049360088,
				"element": "H" 
			},
			{
				"x": 2.4095441792,
				"y": -0.0759288241,
				"z": 2.3330999936,
				"element": "H" 
			},
			{
				"x": 0.6667788447,
				"y": 0.8766814413,
				"z": 3.8395828808,
				"element": "H" 
			},
			{
				"x": -1.6183551111,
				"y": 1.313424618,
				"z": 3.0585438333,
				"element": "H" 
			}
		],
		 "valence_orbital": [ 
			{
				"type": "occ",
				"energy": -0.28211,
				"method": "rhf"
			},
			{
				"type": "occ",
				"energy": -0.27571,
				"method": "rhf"
			},
			{
				"type": "occ",
				"energy": -0.25296,
				"method": "rhf"
			},
			{
				"type": "occ",
				"energy": -0.22583,
				"method": "rhf"
			},
			{
				"type": "occ",
				"energy": -0.21616,
				"method": "rhf"
			},
			{
				"type": "unocc",
				"energy": -0.06679,
				"method": "rhf"
			},
			{
				"type": "unocc",
				"energy": -0.06183,
				"method": "rhf"
			},
			{
				"type": "unocc",
				"energy": -0.0146,
				"method": "rhf"
			},
			{
				"type": "unocc",
				"energy": 0.05184,
				"method": "rhf"
			},
			{
				"type": "unocc",
				"energy": 0.05978,
				"method": "rhf"
			}
		],
		"cosmo_sigma_profile": { 
			"-0.025": 0.0,
			"-0.024": 0.0,
			"-0.023": 0.0,
			"-0.022": 0.0,
			"-0.021": 0.0,
			"-0.02": 0.0,
			"-0.019": 0.0,
			"-0.018": 0.0,
			"-0.017": 0.0,
			"-0.016": 0.0,
			"-0.015": 0.0,
			"-0.014": 0.0,
			"-0.013": 0.0,
			"-0.012": 0.0,
			"-0.011": 0.0,
			"-0.01": 0.0,
			"-0.009": 0.0,
			"-0.008": 0.0,
			"-0.007": 3.40852903243,
			"-0.006": 14.0077406202,
			"-0.005": 20.7994696174,
			"-0.004": 26.2471531185,
			"-0.003": 20.3704671265,
			"-0.002": 18.2430610743,
			"-0.001": 13.8362563983,
			"0.0": 12.2397069147,
			"0.001": 18.0953579094,
			"0.002": 22.7435741798,
			"0.003": 26.0154845894,
			"0.004": 13.4157847306,
			"0.005": 3.68918354541,
			"0.006": 3.21431200769,
			"0.007": 2.96654516158,
			"0.008": 2.14340990451,
			"0.009": 2.02715687731,
			"0.01": 1.71671269946,
			"0.011": 1.91473640161,
			"0.012": 2.18122500231,
			"0.013": 1.27583293883,
			"0.014": 1.90276216623,
			"0.015": 1.27792904433,
			"0.016": 0.728334892211,
			"0.017": 0.0,
			"0.018": 0.0,
			"0.019": 0.0,
			"0.02": 0.0,
			"0.021": 0.0,
			"0.022": 0.0,
			"0.023": 0.0,
			"0.024": 0.0,
			"0.025": 0.0
		}
	}
}
