{
	 "smiles": "CC(C)C1CCC(C)CC1OC(=O)C1=CC=C2C=CC=CC2=C1", 
	 "Tm": 349.15, 
	 "num_atms": 49, 
	 "gaussian": { 
		 "optdone": 1, 
		 "sigma_profile": "yes", 
		 "theory": "DFT", 
		 "functional": "B3LYP", 
		 "basiset": "6-31G**", 
		 "properties": { 
			 "R2extent": 10733.6445, 
			 "electric_dipole_moment_norm": 1.69795685163, 
			 "electric_quadrupole_moment_norm": 16.3393743779, 
			 "total_energy": -966.40905504, 
			 "HOMO_LUMO_gap": 0.16603, 
			 "cosmo_polarized_energy": -8.31, 
			 "cosmo_cavitation_energy": 47.98, 
			 "cosmo_dispersion_energy": -33.01, 
			 "cosmo_repulsion_energy": 2.46, 
			 "cosmo_total_nonelectrostatic_energy": 17.44, 
			 "SMD_solvation_energy": 7.89 
		},
		"coords": [
			{
				"x": 0.5285142167,
				"y": 3.0102676887,
				"z": -0.1729530033,
				"element": "C" 
			},
			{
				"x": 0.1205585953,
				"y": 3.0625985376,
				"z": -1.6572934203,
				"element": "C" 
			},
			{
				"x": -0.2486463824,
				"y": 4.5152498177,
				"z": -2.0137690697,
				"element": "C" 
			},
			{
				"x": -1.0352456547,
				"y": 2.0729842212,
				"z": -1.9995251926,
				"element": "C" 
			},
			{
				"x": -1.6403276344,
				"y": 2.2841474727,
				"z": -3.4129394186,
				"element": "C" 
			},
			{
				"x": -0.6580421162,
				"y": 1.9145707239,
				"z": -4.5378434026,
				"element": "C" 
			},
			{
				"x": -0.1618049587,
				"y": 0.4535023948,
				"z": -4.4432110967,
				"element": "C" 
			},
			{
				"x": -1.2222772757,
				"y": -0.5545430969,
				"z": -4.9197893605,
				"element": "C" 
			},
			{
				"x": 0.3327247342,
				"y": 0.1475608605,
				"z": -3.0093873271,
				"element": "C" 
			},
			{
				"x": -0.6886935839,
				"y": 0.5647467757,
				"z": -1.9499191282,
				"element": "C" 
			},
			{
				"x": -0.1655574445,
				"y": 0.1165585027,
				"z": -0.6694807082,
				"element": "O" 
			},
			{
				"x": -1.0676272123,
				"y": -0.2202209551,
				"z": 0.2811690527,
				"element": "C" 
			},
			{
				"x": -2.2723795985,
				"y": -0.1220627053,
				"z": 0.1344755633,
				"element": "O" 
			},
			{
				"x": -0.4155516241,
				"y": -0.7249053387,
				"z": 1.5241088182,
				"element": "C" 
			},
			{
				"x": 0.9927270402,
				"y": -0.8972033124,
				"z": 1.6286244132,
				"element": "C" 
			},
			{
				"x": 1.5462053176,
				"y": -1.3687117143,
				"z": 2.7948258631,
				"element": "C" 
			},
			{
				"x": 0.7335474382,
				"y": -1.6933666448,
				"z": 3.9158230599,
				"element": "C" 
			},
			{
				"x": 1.2762596253,
				"y": -2.1817005489,
				"z": 5.1340202242,
				"element": "C" 
			},
			{
				"x": 0.456240585,
				"y": -2.486825769,
				"z": 6.1976263722,
				"element": "C" 
			},
			{
				"x": -0.9472725397,
				"y": -2.3183924355,
				"z": 6.0944628339,
				"element": "C" 
			},
			{
				"x": -1.5048739087,
				"y": -1.8471345525,
				"z": 4.927871119,
				"element": "C" 
			},
			{
				"x": -0.6865314554,
				"y": -1.5227255588,
				"z": 3.8109429238,
				"element": "C" 
			},
			{
				"x": -1.2299467387,
				"y": -1.0361733307,
				"z": 2.5968912425,
				"element": "C" 
			},
			{
				"x": -0.3310097275,
				"y": 3.2254352359,
				"z": 0.4740797493,
				"element": "H" 
			},
			{
				"x": 0.9278646785,
				"y": 2.0379774315,
				"z": 0.1149706819,
				"element": "H" 
			},
			{
				"x": 1.2933369016,
				"y": 3.7664604344,
				"z": 0.0361998291,
				"element": "H" 
			},
			{
				"x": 1.0049238344,
				"y": 2.7976357335,
				"z": -2.2523935344,
				"element": "H" 
			},
			{
				"x": -1.182361917,
				"y": 4.8163191552,
				"z": -1.5225397669,
				"element": "H" 
			},
			{
				"x": -0.3702508901,
				"y": 4.6721028246,
				"z": -3.0890090653,
				"element": "H" 
			},
			{
				"x": 0.5360324353,
				"y": 5.1984307881,
				"z": -1.6720784725,
				"element": "H" 
			},
			{
				"x": -1.8344369033,
				"y": 2.2432241025,
				"z": -1.2661550135,
				"element": "H" 
			},
			{
				"x": -1.9802355917,
				"y": 3.3160642566,
				"z": -3.5334345318,
				"element": "H" 
			},
			{
				"x": -2.5432072095,
				"y": 1.6660994661,
				"z": -3.4968336709,
				"element": "H" 
			},
			{
				"x": 0.2068258406,
				"y": 2.5891786903,
				"z": -4.4994023477,
				"element": "H" 
			},
			{
				"x": -1.1303892278,
				"y": 2.0800054005,
				"z": -5.5141008523,
				"element": "H" 
			},
			{
				"x": 0.7009307284,
				"y": 0.3474268991,
				"z": -5.1143337656,
				"element": "H" 
			},
			{
				"x": -1.5091958461,
				"y": -0.3519560653,
				"z": -5.9573866313,
				"element": "H" 
			},
			{
				"x": -2.1352895722,
				"y": -0.5230813198,
				"z": -4.3165931751,
				"element": "H" 
			},
			{
				"x": -0.835639086,
				"y": -1.5784976767,
				"z": -4.8748585746,
				"element": "H" 
			},
			{
				"x": 1.2795045773,
				"y": 0.6683654885,
				"z": -2.8234960966,
				"element": "H" 
			},
			{
				"x": 0.5388244865,
				"y": -0.9234532574,
				"z": -2.9004724931,
				"element": "H" 
			},
			{
				"x": -1.626468524,
				"y": 0.0227406841,
				"z": -2.1001793227,
				"element": "H" 
			},
			{
				"x": 1.6181547116,
				"y": -0.6574357017,
				"z": 0.776961962,
				"element": "H" 
			},
			{
				"x": 2.6220712332,
				"y": -1.5018054784,
				"z": 2.8737134913,
				"element": "H" 
			},
			{
				"x": 2.3525338912,
				"y": -2.3111309207,
				"z": 5.2135152508,
				"element": "H" 
			},
			{
				"x": 0.8840481425,
				"y": -2.8595372673,
				"z": 7.1239003228,
				"element": "H" 
			},
			{
				"x": -1.5808311209,
				"y": -2.5634925257,
				"z": 6.9417993498,
				"element": "H" 
			},
			{
				"x": -2.5803165575,
				"y": -1.7158894828,
				"z": 4.8425626062,
				"element": "H" 
			},
			{
				"x": -2.3024187121,
				"y": -0.9014079276,
				"z": 2.4950337133,
				"element": "H" 
			}
		],
		 "valence_orbital": [ 
			{
				"type": "occ",
				"energy": -0.28833,
				"method": "rhf"
			},
			{
				"type": "occ",
				"energy": -0.27715,
				"method": "rhf"
			},
			{
				"type": "occ",
				"energy": -0.26635,
				"method": "rhf"
			},
			{
				"type": "occ",
				"energy": -0.24848,
				"method": "rhf"
			},
			{
				"type": "occ",
				"energy": -0.22074,
				"method": "rhf"
			},
			{
				"type": "unocc",
				"energy": -0.05471,
				"method": "rhf"
			},
			{
				"type": "unocc",
				"energy": -0.02761,
				"method": "rhf"
			},
			{
				"type": "unocc",
				"energy": 0.02224,
				"method": "rhf"
			},
			{
				"type": "unocc",
				"energy": 0.04463,
				"method": "rhf"
			},
			{
				"type": "unocc",
				"energy": 0.07158,
				"method": "rhf"
			}
		],
		"cosmo_sigma_profile": { 
			"-0.025": 0.0,
			"-0.024": 0.0,
			"-0.023": 0.0,
			"-0.022": 0.0,
			"-0.021": 0.0,
			"-0.02": 0.0,
			"-0.019": 0.0,
			"-0.018": 0.0,
			"-0.017": 0.0,
			"-0.016": 0.0,
			"-0.015": 0.0,
			"-0.014": 0.0,
			"-0.013": 0.0,
			"-0.012": 0.0,
			"-0.011": 0.0,
			"-0.01": 0.0,
			"-0.009": 0.0,
			"-0.008": 0.0,
			"-0.007": 2.077213018,
			"-0.006": 13.3476190859,
			"-0.005": 12.6099135943,
			"-0.004": 17.0361789822,
			"-0.003": 24.081446551,
			"-0.002": 53.7453417046,
			"-0.001": 52.7971714105,
			"0.0": 52.1863443735,
			"0.001": 44.3355878989,
			"0.002": 34.2323229373,
			"0.003": 28.4643865669,
			"0.004": 18.5772823375,
			"0.005": 7.09315092977,
			"0.006": 1.81006206323,
			"0.007": 1.95303543867,
			"0.008": 1.21169735116,
			"0.009": 1.09831866197,
			"0.01": 2.17217209734,
			"0.011": 1.94911610354,
			"0.012": 4.05208809841,
			"0.013": 0.926230516287,
			"0.014": 0.0,
			"0.015": 0.0,
			"0.016": 0.0,
			"0.017": 0.0,
			"0.018": 0.0,
			"0.019": 0.0,
			"0.02": 0.0,
			"0.021": 0.0,
			"0.022": 0.0,
			"0.023": 0.0,
			"0.024": 0.0,
			"0.025": 0.0
		}
	}
}
