{
	 "smiles": "OC(C1=CC=CC=C1)C(O)(C1=CC=CC=C1)C1=CC=CC=C1", 
	 "Tm": 436.15, 
	 "num_atms": 40, 
	 "gaussian": { 
		 "optdone": 1, 
		 "sigma_profile": "yes", 
		 "theory": "DFT", 
		 "functional": "B3LYP", 
		 "basiset": "6-31G**", 
		 "properties": { 
			 "R2extent": 6560.5188, 
			 "electric_dipole_moment_norm": 2.65258937078, 
			 "electric_quadrupole_moment_norm": 12.7664885928, 
			 "total_energy": -923.408999362, 
			 "HOMO_LUMO_gap": 0.21422, 
			 "cosmo_polarized_energy": -12.17, 
			 "cosmo_cavitation_energy": 41.06, 
			 "cosmo_dispersion_energy": -28.01, 
			 "cosmo_repulsion_energy": 2.13, 
			 "cosmo_total_nonelectrostatic_energy": 15.18, 
			 "SMD_solvation_energy": 6.81 
		},
		"coords": [
			{
				"x": 3.1542240856,
				"y": -1.6940659934,
				"z": 0.2973430953,
				"element": "O" 
			},
			{
				"x": 2.0569623837,
				"y": -1.4810199705,
				"z": -0.5670527569,
				"element": "C" 
			},
			{
				"x": 1.1995995219,
				"y": -2.7314686835,
				"z": -0.5874080517,
				"element": "C" 
			},
			{
				"x": 0.3157915258,
				"y": -2.9724262524,
				"z": -1.6487160183,
				"element": "C" 
			},
			{
				"x": -0.4692884409,
				"y": -4.1258221255,
				"z": -1.6714696086,
				"element": "C" 
			},
			{
				"x": -0.3692826957,
				"y": -5.0633585322,
				"z": -0.6412512409,
				"element": "C" 
			},
			{
				"x": 0.5236603195,
				"y": -4.8395767611,
				"z": 0.4080009733,
				"element": "C" 
			},
			{
				"x": 1.3027567915,
				"y": -3.6819680608,
				"z": 0.4360845095,
				"element": "C" 
			},
			{
				"x": 1.3366288495,
				"y": -0.1297722022,
				"z": -0.1498974879,
				"element": "C" 
			},
			{
				"x": 2.4603667926,
				"y": 0.7819804307,
				"z": -0.2009655265,
				"element": "O" 
			},
			{
				"x": 0.3300956287,
				"y": 0.3408487774,
				"z": -1.21456191,
				"element": "C" 
			},
			{
				"x": 0.8251343609,
				"y": 0.6332405755,
				"z": -2.5001262117,
				"element": "C" 
			},
			{
				"x": -0.017952003,
				"y": 1.0816185194,
				"z": -3.5146725749,
				"element": "C" 
			},
			{
				"x": -1.3799207206,
				"y": 1.2664764315,
				"z": -3.2653092542,
				"element": "C" 
			},
			{
				"x": -1.8791047984,
				"y": 1.0088883096,
				"z": -1.9902862778,
				"element": "C" 
			},
			{
				"x": -1.0332801846,
				"y": 0.5544909612,
				"z": -0.9745476174,
				"element": "C" 
			},
			{
				"x": 0.786298798,
				"y": -0.2054233704,
				"z": 1.2806640036,
				"element": "C" 
			},
			{
				"x": -0.2955454383,
				"y": -1.038237009,
				"z": 1.6162454858,
				"element": "C" 
			},
			{
				"x": -0.7712887938,
				"y": -1.1035250832,
				"z": 2.9261740104,
				"element": "C" 
			},
			{
				"x": -0.1747746897,
				"y": -0.3446540093,
				"z": 3.9341293122,
				"element": "C" 
			},
			{
				"x": 0.9080191719,
				"y": 0.4741733507,
				"z": 3.6182667759,
				"element": "C" 
			},
			{
				"x": 1.3837101649,
				"y": 0.5381087853,
				"z": 2.3071053377,
				"element": "C" 
			},
			{
				"x": 3.5943481212,
				"y": -0.8356532556,
				"z": 0.3814809813,
				"element": "H" 
			},
			{
				"x": 2.4139093727,
				"y": -1.298022224,
				"z": -1.5919304639,
				"element": "H" 
			},
			{
				"x": 0.241623556,
				"y": -2.2569058271,
				"z": -2.4621551368,
				"element": "H" 
			},
			{
				"x": -1.1508512102,
				"y": -4.2963442293,
				"z": -2.5002620505,
				"element": "H" 
			},
			{
				"x": -0.9749845578,
				"y": -5.9651017891,
				"z": -0.6624023191,
				"element": "H" 
			},
			{
				"x": 0.6166232886,
				"y": -5.5689234831,
				"z": 1.2081178903,
				"element": "H" 
			},
			{
				"x": 2.0023987782,
				"y": -3.5049906119,
				"z": 1.2440735643,
				"element": "H" 
			},
			{
				"x": 2.115752573,
				"y": 1.68200712,
				"z": -0.1270821976,
				"element": "H" 
			},
			{
				"x": 1.8864830424,
				"y": 0.5270953291,
				"z": -2.6979468753,
				"element": "H" 
			},
			{
				"x": 0.3914015559,
				"y": 1.2949393123,
				"z": -4.4981746176,
				"element": "H" 
			},
			{
				"x": -2.0395597383,
				"y": 1.6179803112,
				"z": -4.0534372136,
				"element": "H" 
			},
			{
				"x": -2.9323360461,
				"y": 1.1658459969,
				"z": -1.7751044209,
				"element": "H" 
			},
			{
				"x": -1.4453614247,
				"y": 0.3791924376,
				"z": 0.0109795019,
				"element": "H" 
			},
			{
				"x": -0.7681872885,
				"y": -1.6475740035,
				"z": 0.8555990711,
				"element": "H" 
			},
			{
				"x": -1.6091448451,
				"y": -1.7554354924,
				"z": 3.1568798291,
				"element": "H" 
			},
			{
				"x": -0.5465406086,
				"y": -0.3965584562,
				"z": 4.953466195,
				"element": "H" 
			},
			{
				"x": 1.3919438783,
				"y": 1.0630949658,
				"z": 4.3925603406,
				"element": "H" 
			},
			{
				"x": 2.2414709231,
				"y": 1.1610458114,
				"z": 2.0821889548,
				"element": "H" 
			}
		],
		 "valence_orbital": [ 
			{
				"type": "occ",
				"energy": -0.24999,
				"method": "rhf"
			},
			{
				"type": "occ",
				"energy": -0.246,
				"method": "rhf"
			},
			{
				"type": "occ",
				"energy": -0.24402,
				"method": "rhf"
			},
			{
				"type": "occ",
				"energy": -0.23669,
				"method": "rhf"
			},
			{
				"type": "occ",
				"energy": -0.23105,
				"method": "rhf"
			},
			{
				"type": "unocc",
				"energy": -0.01683,
				"method": "rhf"
			},
			{
				"type": "unocc",
				"energy": -0.00955,
				"method": "rhf"
			},
			{
				"type": "unocc",
				"energy": -0.00028,
				"method": "rhf"
			},
			{
				"type": "unocc",
				"energy": 0.00045,
				"method": "rhf"
			},
			{
				"type": "unocc",
				"energy": 0.00639,
				"method": "rhf"
			}
		],
		"cosmo_sigma_profile": { 
			"-0.025": 0.0,
			"-0.024": 0.0,
			"-0.023": 0.0,
			"-0.022": 0.0,
			"-0.021": 0.0,
			"-0.02": 0.0,
			"-0.019": 0.0,
			"-0.018": 0.0,
			"-0.017": 0.0,
			"-0.016": 0.44715022811,
			"-0.015": 0.709179386334,
			"-0.014": 0.716954710904,
			"-0.013": 0.738702206041,
			"-0.012": 0.699906181831,
			"-0.011": 0.833365742265,
			"-0.01": 1.80079254569,
			"-0.009": 2.21133258164,
			"-0.008": 1.11313969276,
			"-0.007": 1.16090902081,
			"-0.006": 9.7778946651,
			"-0.005": 25.03932712,
			"-0.004": 31.033585958,
			"-0.003": 34.0627411327,
			"-0.002": 23.0280555224,
			"-0.001": 23.6206552037,
			"0.0": 22.5573129912,
			"0.001": 20.7571785711,
			"0.002": 22.332261455,
			"0.003": 24.0077166234,
			"0.004": 25.1529720238,
			"0.005": 24.8210904723,
			"0.006": 14.7270627595,
			"0.007": 4.67062318536,
			"0.008": 2.40086364681,
			"0.009": 2.86166219824,
			"0.01": 2.28739274895,
			"0.011": 1.16334915334,
			"0.012": 0.913444609638,
			"0.013": 0.875918218202,
			"0.014": 0.37885168584,
			"0.015": 0.0,
			"0.016": 0.0,
			"0.017": 0.0,
			"0.018": 0.0,
			"0.019": 0.0,
			"0.02": 0.0,
			"0.021": 0.0,
			"0.022": 0.0,
			"0.023": 0.0,
			"0.024": 0.0,
			"0.025": 0.0
		}
	}
}
