{
	 "smiles": "CC(C)C(NC1=C(Cl)C=C(C=C1)C(F)(F)F)C(O)=O", 
	 "Tm": 403.15, 
	 "num_atms": 32, 
	 "gaussian": { 
		 "optdone": 1, 
		 "sigma_profile": "yes", 
		 "theory": "DFT", 
		 "functional": "B3LYP", 
		 "basiset": "6-31G**", 
		 "properties": { 
			 "R2extent": 8158.5639, 
			 "electric_dipole_moment_norm": 4.94468465627, 
			 "electric_quadrupole_moment_norm": 11.5771228317, 
			 "total_energy": -1430.05811987, 
			 "HOMO_LUMO_gap": 0.19627, 
			 "cosmo_polarized_energy": -12.17, 
			 "cosmo_cavitation_energy": 38.48, 
			 "cosmo_dispersion_energy": -26.14, 
			 "cosmo_repulsion_energy": 1.97, 
			 "cosmo_total_nonelectrostatic_energy": 14.31, 
			 "SMD_solvation_energy": 7.67 
		},
		"coords": [
			{
				"x": 1.3492737179,
				"y": 3.254954757,
				"z": -0.4737477001,
				"element": "C" 
			},
			{
				"x": 0.7603417324,
				"y": 2.2784764593,
				"z": -1.5045419045,
				"element": "C" 
			},
			{
				"x": 1.2689022602,
				"y": 2.5987694709,
				"z": -2.9181130012,
				"element": "C" 
			},
			{
				"x": 0.9864342519,
				"y": 0.7788768143,
				"z": -1.1452859296,
				"element": "C" 
			},
			{
				"x": 0.3076052187,
				"y": 0.4502765136,
				"z": 0.091011819,
				"element": "N" 
			},
			{
				"x": 0.121070507,
				"y": -0.8480794732,
				"z": 0.5237680097,
				"element": "C" 
			},
			{
				"x": -0.3636904694,
				"y": -1.1031225095,
				"z": 1.8290675485,
				"element": "C" 
			},
			{
				"x": -0.6535842786,
				"y": 0.2536906236,
				"z": 2.9158416276,
				"element": "Cl" 
			},
			{
				"x": -0.6147225996,
				"y": -2.3868764344,
				"z": 2.2860577742,
				"element": "C" 
			},
			{
				"x": -0.3873226499,
				"y": -3.4809071503,
				"z": 1.4466966397,
				"element": "C" 
			},
			{
				"x": 0.099399402,
				"y": -3.2620211694,
				"z": 0.1571891287,
				"element": "C" 
			},
			{
				"x": 0.3559603121,
				"y": -1.9729249396,
				"z": -0.2943116216,
				"element": "C" 
			},
			{
				"x": -0.71676394,
				"y": -4.8674127806,
				"z": 1.9136666903,
				"element": "C" 
			},
			{
				"x": -0.5942259278,
				"y": -4.9910856572,
				"z": 3.2549843531,
				"element": "F" 
			},
			{
				"x": -1.9894384597,
				"y": -5.2196530007,
				"z": 1.6070972796,
				"element": "F" 
			},
			{
				"x": 0.0872856694,
				"y": -5.7935208137,
				"z": 1.3425821324,
				"element": "F" 
			},
			{
				"x": 2.4819945444,
				"y": 0.4378323564,
				"z": -1.0731217982,
				"element": "C" 
			},
			{
				"x": 2.9435616452,
				"y": -0.0579280432,
				"z": -2.2464622397,
				"element": "O" 
			},
			{
				"x": 3.1855700716,
				"y": 0.5979970464,
				"z": -0.1021607413,
				"element": "O" 
			},
			{
				"x": 1.1346860062,
				"y": 4.2841149469,
				"z": -0.7781270034,
				"element": "H" 
			},
			{
				"x": 0.9208189642,
				"y": 3.1257719949,
				"z": 0.5256763834,
				"element": "H" 
			},
			{
				"x": 2.4341531221,
				"y": 3.1454983313,
				"z": -0.3869074918,
				"element": "H" 
			},
			{
				"x": -0.3310829621,
				"y": 2.394139291,
				"z": -1.5005702372,
				"element": "H" 
			},
			{
				"x": 2.3589838943,
				"y": 2.5240120321,
				"z": -2.9853682268,
				"element": "H" 
			},
			{
				"x": 0.8429437121,
				"y": 1.9203529218,
				"z": -3.6643098403,
				"element": "H" 
			},
			{
				"x": 0.9893665705,
				"y": 3.6201756242,
				"z": -3.1935172221,
				"element": "H" 
			},
			{
				"x": 0.5467279006,
				"y": 0.1893763879,
				"z": -1.955171028,
				"element": "H" 
			},
			{
				"x": 0.4236921005,
				"y": 1.1227589672,
				"z": 0.8363959609,
				"element": "H" 
			},
			{
				"x": -0.9782896283,
				"y": -2.5340517855,
				"z": 3.2960601261,
				"element": "H" 
			},
			{
				"x": 0.2967053326,
				"y": -4.1060485956,
				"z": -0.4947068436,
				"element": "H" 
			},
			{
				"x": 0.7580167909,
				"y": -1.8377275266,
				"z": -1.2914125207,
				"element": "H" 
			},
			{
				"x": 3.8949271886,
				"y": -0.2203146594,
				"z": -2.1219601232,
				"element": "H" 
			}
		],
		 "valence_orbital": [ 
			{
				"type": "occ",
				"energy": -0.32528,
				"method": "rhf"
			},
			{
				"type": "occ",
				"energy": -0.32169,
				"method": "rhf"
			},
			{
				"type": "occ",
				"energy": -0.28728,
				"method": "rhf"
			},
			{
				"type": "occ",
				"energy": -0.26041,
				"method": "rhf"
			},
			{
				"type": "occ",
				"energy": -0.22046,
				"method": "rhf"
			},
			{
				"type": "unocc",
				"energy": -0.02419,
				"method": "rhf"
			},
			{
				"type": "unocc",
				"energy": -0.01705,
				"method": "rhf"
			},
			{
				"type": "unocc",
				"energy": -0.00594,
				"method": "rhf"
			},
			{
				"type": "unocc",
				"energy": 0.02245,
				"method": "rhf"
			},
			{
				"type": "unocc",
				"energy": 0.06039,
				"method": "rhf"
			}
		],
		"cosmo_sigma_profile": { 
			"-0.025": 0.0,
			"-0.024": 0.0,
			"-0.023": 0.0,
			"-0.022": 0.0,
			"-0.021": 0.0,
			"-0.02": 0.0,
			"-0.019": 0.188936560871,
			"-0.018": 0.779505427293,
			"-0.017": 0.949785904761,
			"-0.016": 0.871869141517,
			"-0.015": 1.14128133624,
			"-0.014": 0.445086917702,
			"-0.013": 0.441881620329,
			"-0.012": 0.858816001787,
			"-0.011": 1.0577578494,
			"-0.01": 0.731268916949,
			"-0.009": 1.20543270767,
			"-0.008": 3.1548179753,
			"-0.007": 7.89756543153,
			"-0.006": 8.89079005922,
			"-0.005": 9.98572586463,
			"-0.004": 16.013608547,
			"-0.003": 24.6907404175,
			"-0.002": 23.5770416642,
			"-0.001": 23.5858750973,
			"0.0": 26.6875517402,
			"0.001": 29.9221383995,
			"0.002": 36.43584204,
			"0.003": 45.5006516019,
			"0.004": 17.2729862004,
			"0.005": 5.36917351945,
			"0.006": 3.11354767222,
			"0.007": 2.59173842434,
			"0.008": 3.01689591639,
			"0.009": 1.94460211472,
			"0.01": 1.74184631007,
			"0.011": 4.38336281146,
			"0.012": 2.2547749881,
			"0.013": 0.0,
			"0.014": 0.0,
			"0.015": 0.0,
			"0.016": 0.0,
			"0.017": 0.0,
			"0.018": 0.0,
			"0.019": 0.0,
			"0.02": 0.0,
			"0.021": 0.0,
			"0.022": 0.0,
			"0.023": 0.0,
			"0.024": 0.0,
			"0.0": 0.0
		}
	}
}
