{
	 "smiles": "CC(C)N(C)S(=O)(=O)C1=CC(C(O)=O)=C(Cl)C=C1", 
	 "Tm": 428.15, 
	 "num_atms": 32, 
	 "gaussian": { 
		 "optdone": 1, 
		 "sigma_profile": "yes", 
		 "theory": "DFT", 
		 "functional": "B3LYP", 
		 "basiset": "6-31G**", 
		 "properties": { 
			 "R2extent": 7716.1512, 
			 "electric_dipole_moment_norm": 7.14434826559, 
			 "electric_quadrupole_moment_norm": 18.8281640908, 
			 "total_energy": -1641.56636772, 
			 "HOMO_LUMO_gap": 0.18794, 
			 "cosmo_polarized_energy": -22.29, 
			 "cosmo_cavitation_energy": 38.41, 
			 "cosmo_dispersion_energy": -26.75, 
			 "cosmo_repulsion_energy": 2.03, 
			 "cosmo_total_nonelectrostatic_energy": 13.68, 
			 "SMD_solvation_energy": 6.66 
		},
		"coords": [
			{
				"x": -1.7421505013,
				"y": 0.5163889058,
				"z": -3.6012245527,
				"element": "C" 
			},
			{
				"x": -1.2068077389,
				"y": 1.1155675658,
				"z": -2.2930249607,
				"element": "C" 
			},
			{
				"x": -0.4737789177,
				"y": 2.4427420895,
				"z": -2.5167462215,
				"element": "C" 
			},
			{
				"x": -0.3243017326,
				"y": 0.1814080344,
				"z": -1.5287291668,
				"element": "N" 
			},
			{
				"x": 0.837757658,
				"y": -0.3757213805,
				"z": -2.2360570671,
				"element": "C" 
			},
			{
				"x": -1.1297837975,
				"y": -0.9612782566,
				"z": -0.5704192627,
				"element": "S" 
			},
			{
				"x": -1.178789245,
				"y": -2.2781173029,
				"z": -1.224273323,
				"element": "O" 
			},
			{
				"x": -2.3599305947,
				"y": -0.3253294869,
				"z": -0.0894390157,
				"element": "O" 
			},
			{
				"x": 0.0079992112,
				"y": -1.1207551404,
				"z": 0.8154351504,
				"element": "C" 
			},
			{
				"x": 0.4887885419,
				"y": -2.3822417793,
				"z": 1.1493179664,
				"element": "C" 
			},
			{
				"x": 1.319546716,
				"y": -2.5602672747,
				"z": 2.2672355718,
				"element": "C" 
			},
			{
				"x": 1.7548212683,
				"y": -3.9567399128,
				"z": 2.6346123452,
				"element": "C" 
			},
			{
				"x": 2.0912557667,
				"y": -4.7516576364,
				"z": 1.584284066,
				"element": "O" 
			},
			{
				"x": 1.7756739789,
				"y": -4.3859887084,
				"z": 3.7585005307,
				"element": "O" 
			},
			{
				"x": 1.6516339655,
				"y": -1.4291963971,
				"z": 3.0341392491,
				"element": "C" 
			},
			{
				"x": 2.7120779606,
				"y": -1.5351069124,
				"z": 4.4140411226,
				"element": "Cl" 
			},
			{
				"x": 1.1692310482,
				"y": -0.1620957501,
				"z": 2.6882006006,
				"element": "C" 
			},
			{
				"x": 0.3379671378,
				"y": -0.0039464648,
				"z": 1.5849391972,
				"element": "C" 
			},
			{
				"x": -2.2639287141,
				"y": -0.4277933807,
				"z": -3.4210318514,
				"element": "H" 
			},
			{
				"x": -0.9397850887,
				"y": 0.3336888037,
				"z": -4.3239762962,
				"element": "H" 
			},
			{
				"x": -2.4497859869,
				"y": 1.2110862665,
				"z": -4.0647595145,
				"element": "H" 
			},
			{
				"x": -2.0518071583,
				"y": 1.3060447198,
				"z": -1.6282593569,
				"element": "H" 
			},
			{
				"x": -0.0942069048,
				"y": 2.8432531967,
				"z": -1.5728075135,
				"element": "H" 
			},
			{
				"x": 0.3652421992,
				"y": 2.3424124945,
				"z": -3.2134865291,
				"element": "H" 
			},
			{
				"x": -1.1659143144,
				"y": 3.1729266329,
				"z": -2.9474142045,
				"element": "H" 
			},
			{
				"x": 1.5040121501,
				"y": -0.8593901411,
				"z": -1.5170573809,
				"element": "H" 
			},
			{
				"x": 0.5677695111,
				"y": -1.104995034,
				"z": -3.007542362,
				"element": "H" 
			},
			{
				"x": 1.3904288239,
				"y": 0.4478413769,
				"z": -2.6917631636,
				"element": "H" 
			},
			{
				"x": 0.1802560263,
				"y": -3.2317722545,
				"z": 0.5476939212,
				"element": "H" 
			},
			{
				"x": 2.145852074,
				"y": -4.2326426303,
				"z": 0.7694505165,
				"element": "H" 
			},
			{
				"x": 1.450310464,
				"y": 0.6929320141,
				"z": 3.2924436646,
				"element": "H" 
			},
			{
				"x": -0.0430538064,
				"y": 0.9759437432,
				"z": 1.3195178404,
				"element": "H" 
			}
		],
		 "valence_orbital": [ 
			{
				"type": "occ",
				"energy": -0.31144,
				"method": "rhf"
			},
			{
				"type": "occ",
				"energy": -0.29954,
				"method": "rhf"
			},
			{
				"type": "occ",
				"energy": -0.28334,
				"method": "rhf"
			},
			{
				"type": "occ",
				"energy": -0.27894,
				"method": "rhf"
			},
			{
				"type": "occ",
				"energy": -0.26097,
				"method": "rhf"
			},
			{
				"type": "unocc",
				"energy": -0.07303,
				"method": "rhf"
			},
			{
				"type": "unocc",
				"energy": -0.05737,
				"method": "rhf"
			},
			{
				"type": "unocc",
				"energy": 0.00943,
				"method": "rhf"
			},
			{
				"type": "unocc",
				"energy": 0.01448,
				"method": "rhf"
			},
			{
				"type": "unocc",
				"energy": 0.04854,
				"method": "rhf"
			}
		],
		"cosmo_sigma_profile": { 
			"-0.025": 0.0,
			"-0.024": 0.0,
			"-0.023": 0.0,
			"-0.022": 0.0,
			"-0.021": 0.0,
			"-0.02": 0.0,
			"-0.019": 0.634907544003,
			"-0.018": 1.44110779659,
			"-0.017": 0.660037693171,
			"-0.016": 0.925554747943,
			"-0.015": 1.19263934315,
			"-0.014": 1.11837954604,
			"-0.013": 0.855410542917,
			"-0.012": 1.09730465597,
			"-0.011": 0.903159837845,
			"-0.01": 0.87259635064,
			"-0.009": 4.12494773143,
			"-0.008": 6.86532947392,
			"-0.007": 4.99264505296,
			"-0.006": 8.1960218065,
			"-0.005": 12.6501774114,
			"-0.004": 23.963609239,
			"-0.003": 30.603526024,
			"-0.002": 30.0684578698,
			"-0.001": 31.1074737395,
			"0.0": 32.8285725405,
			"0.001": 16.3046853124,
			"0.002": 12.3587319969,
			"0.003": 13.5914676879,
			"0.004": 7.1948582643,
			"0.005": 5.63173174299,
			"0.006": 5.8143508679,
			"0.007": 5.21258393216,
			"0.008": 7.2287322262,
			"0.009": 8.37312315127,
			"0.01": 13.2611737082,
			"0.011": 12.5047827695,
			"0.012": 3.75498525299,
			"0.013": 0.0497929228801,
			"0.014": 0.0,
			"0.015": 0.0,
			"0.016": 0.0,
			"0.017": 0.0,
			"0.018": 0.0,
			"0.019": 0.0,
			"0.02": 0.0,
			"0.021": 0.0,
			"0.022": 0.0,
			"0.023": 0.0,
			"0.024": 0.0,
			"0.025": 0.0
		}
	}
}
