{
	 "smiles": "OC(=O)CC(C1=CC=CC=C1)C1=CC=CC=C1", 
	 "Tm": 425.15, 
	 "num_atms": 31, 
	 "gaussian": { 
		 "optdone": 1, 
		 "sigma_profile": "yes", 
		 "theory": "DFT", 
		 "functional": "B3LYP", 
		 "basiset": "6-31G**", 
		 "properties": { 
			 "R2extent": 4356.0531, 
			 "electric_dipole_moment_norm": 1.21510738209, 
			 "electric_quadrupole_moment_norm": 5.13911966099, 
			 "total_energy": -730.503029215, 
			 "HOMO_LUMO_gap": 0.22613, 
			 "cosmo_polarized_energy": -11.59, 
			 "cosmo_cavitation_energy": 34.63, 
			 "cosmo_dispersion_energy": -24.01, 
			 "cosmo_repulsion_energy": 1.89, 
			 "cosmo_total_nonelectrostatic_energy": 12.51, 
			 "SMD_solvation_energy": 6.76 
		},
		"coords": [
			{
				"x": 1.1379337184,
				"y": -2.0114411302,
				"z": 3.1727337149,
				"element": "O" 
			},
			{
				"x": 0.3163458987,
				"y": -2.0468870987,
				"z": 2.0977766812,
				"element": "C" 
			},
			{
				"x": -0.0959478835,
				"y": -3.0865905249,
				"z": 1.6294672728,
				"element": "O" 
			},
			{
				"x": -0.0397860162,
				"y": -0.6536151254,
				"z": 1.6212859999,
				"element": "C" 
			},
			{
				"x": -0.420499782,
				"y": -0.6192730782,
				"z": 0.1256476706,
				"element": "C" 
			},
			{
				"x": -1.2112308633,
				"y": 0.6267386275,
				"z": -0.2639525605,
				"element": "C" 
			},
			{
				"x": -2.0496593571,
				"y": 0.5682123423,
				"z": -1.387943057,
				"element": "C" 
			},
			{
				"x": -2.7824881585,
				"y": 1.679325161,
				"z": -1.7993455896,
				"element": "C" 
			},
			{
				"x": -2.6910628313,
				"y": 2.8811177615,
				"z": -1.0921293423,
				"element": "C" 
			},
			{
				"x": -1.861678209,
				"y": 2.9556444813,
				"z": 0.0255058012,
				"element": "C" 
			},
			{
				"x": -1.1289581076,
				"y": 1.8377286228,
				"z": 0.435658342,
				"element": "C" 
			},
			{
				"x": 0.8155414958,
				"y": -0.8229308748,
				"z": -0.7569109022,
				"element": "C" 
			},
			{
				"x": 1.1122553135,
				"y": -2.0924086963,
				"z": -1.2708348806,
				"element": "C" 
			},
			{
				"x": 2.2525573282,
				"y": -2.2990324431,
				"z": -2.0501322151,
				"element": "C" 
			},
			{
				"x": 3.1155669626,
				"y": -1.2383405472,
				"z": -2.3266882142,
				"element": "C" 
			},
			{
				"x": 2.8295744651,
				"y": 0.0309799098,
				"z": -1.8190395894,
				"element": "C" 
			},
			{
				"x": 1.6886717343,
				"y": 0.2361886191,
				"z": -1.0433382267,
				"element": "C" 
			},
			{
				"x": 1.280264605,
				"y": -2.9370793438,
				"z": 3.4344175508,
				"element": "H" 
			},
			{
				"x": 0.7895372954,
				"y": 0.0200481296,
				"z": 1.8529941673,
				"element": "H" 
			},
			{
				"x": -0.8926066631,
				"y": -0.3291704077,
				"z": 2.2327414027,
				"element": "H" 
			},
			{
				"x": -1.0744131356,
				"y": -1.4824198701,
				"z": -0.0375705626,
				"element": "H" 
			},
			{
				"x": -2.1236027184,
				"y": -0.3625778876,
				"z": -1.9450050257,
				"element": "H" 
			},
			{
				"x": -3.4284293543,
				"y": 1.6069872065,
				"z": -2.6699362826,
				"element": "H" 
			},
			{
				"x": -3.2629351593,
				"y": 3.7483892358,
				"z": -1.4092166278,
				"element": "H" 
			},
			{
				"x": -1.7827467558,
				"y": 3.883616551,
				"z": 0.5851260396,
				"element": "H" 
			},
			{
				"x": -0.4929996335,
				"y": 1.920306887,
				"z": 1.3119909116,
				"element": "H" 
			},
			{
				"x": 0.451879937,
				"y": -2.9239906117,
				"z": -1.0438005964,
				"element": "H" 
			},
			{
				"x": 2.4638500171,
				"y": -3.2904193266,
				"z": -2.4414486442,
				"element": "H" 
			},
			{
				"x": 4.0015370538,
				"y": -1.3971891381,
				"z": -2.9349311366,
				"element": "H" 
			},
			{
				"x": 3.4923120162,
				"y": 0.8650940947,
				"z": -2.0328730526,
				"element": "H" 
			},
			{
				"x": 1.4653167874,
				"y": 1.2321884746,
				"z": -0.6710490486,
				"element": "H" 
			}
		],
		 "valence_orbital": [ 
			{
				"type": "occ",
				"energy": -0.27806,
				"method": "rhf"
			},
			{
				"type": "occ",
				"energy": -0.25038,
				"method": "rhf"
			},
			{
				"type": "occ",
				"energy": -0.24949,
				"method": "rhf"
			},
			{
				"type": "occ",
				"energy": -0.24393,
				"method": "rhf"
			},
			{
				"type": "occ",
				"energy": -0.23292,
				"method": "rhf"
			},
			{
				"type": "unocc",
				"energy": -0.00679,
				"method": "rhf"
			},
			{
				"type": "unocc",
				"energy": -0.00501,
				"method": "rhf"
			},
			{
				"type": "unocc",
				"energy": 0.00066,
				"method": "rhf"
			},
			{
				"type": "unocc",
				"energy": 0.01053,
				"method": "rhf"
			},
			{
				"type": "unocc",
				"energy": 0.01183,
				"method": "rhf"
			}
		],
		"cosmo_sigma_profile": { 
			"-0.025": 0.0,
			"-0.024": 0.0,
			"-0.023": 0.0,
			"-0.022": 0.0,
			"-0.021": 0.0,
			"-0.02": 0.0,
			"-0.019": 0.0,
			"-0.018": 0.503413591778,
			"-0.017": 1.08946066651,
			"-0.016": 0.759248862924,
			"-0.015": 1.04768395293,
			"-0.014": 0.767607441729,
			"-0.013": 0.186090731324,
			"-0.012": 0.77388920655,
			"-0.011": 0.955615684384,
			"-0.01": 0.954419155165,
			"-0.009": 0.388230397037,
			"-0.008": 0.823717108966,
			"-0.007": 2.89994980049,
			"-0.006": 9.71127248201,
			"-0.005": 22.993321941,
			"-0.004": 27.0483116092,
			"-0.003": 28.1872043341,
			"-0.002": 20.0959909996,
			"-0.001": 18.7485465878,
			"0.0": 15.0818616047,
			"0.001": 15.3242940652,
			"0.002": 15.1859359771,
			"0.003": 16.8676608463,
			"0.004": 18.3549056438,
			"0.005": 20.1643140624,
			"0.006": 17.2154178515,
			"0.007": 4.59764449779,
			"0.008": 3.34442514216,
			"0.009": 2.80640171221,
			"0.01": 2.4147426254,
			"0.011": 2.9148048161,
			"0.012": 2.97332428592,
			"0.013": 0.116936771001,
			"0.014": 0.0,
			"0.015": 0.0,
			"0.016": 0.0,
			"0.017": 0.0,
			"0.018": 0.0,
			"0.019": 0.0,
			"0.02": 0.0,
			"0.021": 0.0,
			"0.022": 0.0,
			"0.023": 0.0,
			"0.024": 0.0,
			"0.025": 0.0
		}
	}
}
