{
	 "smiles": "CC(=O)C1=C(C)C2=CC3=C(C)C(C(C)=O)=C(O)N=C3C=C2N=C1O", 
	 "Tm": 583.15, 
	 "num_atms": 40, 
	 "gaussian": { 
		 "optdone": 1, 
		 "sigma_profile": "yes", 
		 "theory": "DFT", 
		 "functional": "B3LYP", 
		 "basiset": "6-31G**", 
		 "properties": { 
			 "R2extent": 11409.7047, 
			 "electric_dipole_moment_norm": 3.15049985399, 
			 "electric_quadrupole_moment_norm": 9.85337411296, 
			 "total_energy": -1105.9947587, 
			 "HOMO_LUMO_gap": 0.13325, 
			 "cosmo_polarized_energy": -18.26, 
			 "cosmo_cavitation_energy": 43.16, 
			 "cosmo_dispersion_energy": -31.21, 
			 "cosmo_repulsion_energy": 2.32, 
			 "cosmo_total_nonelectrostatic_energy": 14.27, 
			 "SMD_solvation_energy": 6.17 
		},
		"coords": [
			{
				"x": -1.5782018791,
				"y": -3.1905716005,
				"z": 4.6898210073,
				"element": "C" 
			},
			{
				"x": -0.5544468942,
				"y": -3.3408861278,
				"z": 3.5775628037,
				"element": "C" 
			},
			{
				"x": -0.2167215448,
				"y": -4.453762111,
				"z": 3.2033432501,
				"element": "O" 
			},
			{
				"x": 0.0057509615,
				"y": -2.1073966349,
				"z": 2.9146456242,
				"element": "C" 
			},
			{
				"x": 0.2146326105,
				"y": -2.0331617484,
				"z": 1.5453536926,
				"element": "C" 
			},
			{
				"x": -0.1309480865,
				"y": -3.1557457013,
				"z": 0.5983173479,
				"element": "C" 
			},
			{
				"x": 0.7547061893,
				"y": -0.8099826239,
				"z": 0.9970708248,
				"element": "C" 
			},
			{
				"x": 1.0019834566,
				"y": -0.6342652035,
				"z": -0.3719209406,
				"element": "C" 
			},
			{
				"x": 1.5274398492,
				"y": 0.5584999521,
				"z": -0.8889886993,
				"element": "C" 
			},
			{
				"x": 1.7888004172,
				"y": 0.7545320836,
				"z": -2.296733997,
				"element": "C" 
			},
			{
				"x": 1.4477632147,
				"y": -0.3602973986,
				"z": -3.2545111799,
				"element": "C" 
			},
			{
				"x": 2.3094973257,
				"y": 1.972507667,
				"z": -2.7083693407,
				"element": "C" 
			},
			{
				"x": 2.6134566493,
				"y": 2.2701041597,
				"z": -4.1553755561,
				"element": "C" 
			},
			{
				"x": 2.2770288687,
				"y": 3.6388054181,
				"z": -4.7221856821,
				"element": "C" 
			},
			{
				"x": 3.0940595328,
				"y": 1.4100545372,
				"z": -4.8778081607,
				"element": "O" 
			},
			{
				"x": 2.5755361357,
				"y": 2.9565630457,
				"z": -1.6866259506,
				"element": "C" 
			},
			{
				"x": 3.1307013074,
				"y": 4.1247106655,
				"z": -2.0849324717,
				"element": "O" 
			},
			{
				"x": 2.3592327205,
				"y": 2.8147574359,
				"z": -0.4103614749,
				"element": "N" 
			},
			{
				"x": 1.8276293611,
				"y": 1.629263026,
				"z": 0.0241066271,
				"element": "C" 
			},
			{
				"x": 1.5858929376,
				"y": 1.465014938,
				"z": 1.3904953829,
				"element": "C" 
			},
			{
				"x": 1.0612767402,
				"y": 0.2720724884,
				"z": 1.8945940964,
				"element": "C" 
			},
			{
				"x": 0.8613887672,
				"y": 0.1622262554,
				"z": 3.2454109109,
				"element": "N" 
			},
			{
				"x": 0.3678355639,
				"y": -0.9530800681,
				"z": 3.7017681286,
				"element": "C" 
			},
			{
				"x": 0.2104949948,
				"y": -1.0467285209,
				"z": 5.0426224709,
				"element": "O" 
			},
			{
				"x": -2.196197603,
				"y": -4.0905999833,
				"z": 4.7017490892,
				"element": "H" 
			},
			{
				"x": -1.0649248479,
				"y": -3.1031550886,
				"z": 5.6515217571,
				"element": "H" 
			},
			{
				"x": -2.1983375553,
				"y": -2.2985667954,
				"z": 4.5713076094,
				"element": "H" 
			},
			{
				"x": -0.7287197868,
				"y": -2.7782461243,
				"z": -0.2373167139,
				"element": "H" 
			},
			{
				"x": 0.7835784422,
				"y": -3.5885874859,
				"z": 0.1765363389,
				"element": "H" 
			},
			{
				"x": -0.6672655253,
				"y": -3.9623245518,
				"z": 1.0889706644,
				"element": "H" 
			},
			{
				"x": 0.7937165862,
				"y": -1.4508384589,
				"z": -1.0497468152,
				"element": "H" 
			},
			{
				"x": 0.4313933786,
				"y": -0.7225820305,
				"z": -3.0704360453,
				"element": "H" 
			},
			{
				"x": 1.5393174548,
				"y": -0.0574797338,
				"z": -4.2931991954,
				"element": "H" 
			},
			{
				"x": 2.1282194885,
				"y": -1.2067571254,
				"z": -3.1059025668,
				"element": "H" 
			},
			{
				"x": 3.1229575038,
				"y": 4.3156681168,
				"z": -4.573081716,
				"element": "H" 
			},
			{
				"x": 1.4096162053,
				"y": 4.0923368082,
				"z": -4.2361906023,
				"element": "H" 
			},
			{
				"x": 2.1024677728,
				"y": 3.5251662304,
				"z": -5.7939732563,
				"element": "H" 
			},
			{
				"x": 3.2521907671,
				"y": 4.6407405633,
				"z": -1.2705095098,
				"element": "H" 
			},
			{
				"x": 1.8185583067,
				"y": 2.2740428906,
				"z": 2.0728421827,
				"element": "H" 
			},
			{
				"x": 0.5207402131,
				"y": -0.1964511652,
				"z": 5.3963300653,
				"element": "H" 
			}
		],
		 "valence_orbital": [ 
			{
				"type": "occ",
				"energy": -0.28332,
				"method": "rhf"
			},
			{
				"type": "occ",
				"energy": -0.2498,
				"method": "rhf"
			},
			{
				"type": "occ",
				"energy": -0.2486,
				"method": "rhf"
			},
			{
				"type": "occ",
				"energy": -0.23892,
				"method": "rhf"
			},
			{
				"type": "occ",
				"energy": -0.22092,
				"method": "rhf"
			},
			{
				"type": "unocc",
				"energy": -0.08767,
				"method": "rhf"
			},
			{
				"type": "unocc",
				"energy": -0.05643,
				"method": "rhf"
			},
			{
				"type": "unocc",
				"energy": -0.02293,
				"method": "rhf"
			},
			{
				"type": "unocc",
				"energy": -0.01665,
				"method": "rhf"
			},
			{
				"type": "unocc",
				"energy": 0.00796,
				"method": "rhf"
			}
		],
		"cosmo_sigma_profile": { 
			"-0.025": 0.0,
			"-0.024": 0.0,
			"-0.023": 0.0,
			"-0.022": 0.0,
			"-0.021": 0.0,
			"-0.02": 0.0,
			"-0.019": 0.0,
			"-0.018": 0.15826596563,
			"-0.017": 1.47289615686,
			"-0.016": 1.53927786401,
			"-0.015": 1.34768940709,
			"-0.014": 1.19490754529,
			"-0.013": 1.26495134084,
			"-0.012": 1.05378308571,
			"-0.011": 1.69136827521,
			"-0.01": 1.91199348276,
			"-0.009": 0.846670910384,
			"-0.008": 1.14920225295,
			"-0.007": 3.59182631359,
			"-0.006": 10.1917453625,
			"-0.005": 22.202743428,
			"-0.004": 26.5299873391,
			"-0.003": 27.428179432,
			"-0.002": 34.1741770157,
			"-0.001": 42.8303492893,
			"0.0": 32.4124613219,
			"0.001": 22.4574558951,
			"0.002": 20.1862138227,
			"0.003": 15.731615846,
			"0.004": 10.521588248,
			"0.005": 12.2659039228,
			"0.006": 7.24574562973,
			"0.007": 7.01908486467,
			"0.008": 5.76318244515,
			"0.009": 6.23058816328,
			"0.01": 5.75903003622,
			"0.011": 8.1547485546,
			"0.012": 7.66822568928,
			"0.013": 1.74421933453,
			"0.014": 0.0,
			"0.015": 0.0,
			"0.016": 0.0,
			"0.017": 0.0,
			"0.018": 0.0,
			"0.019": 0.0,
			"0.02": 0.0,
			"0.021": 0.0,
			"0.022": 0.0,
			"0.023": 0.0,
			"0.024": 0.0,
			"0.025": 0.0
		}
	}
}
