{
	 "smiles": "NC1=C(F)C(F)=C(Br)C(F)=C1F", 
	 "Tm": 333.15, 
	 "num_atms": 14, 
	 "gaussian": { 
		 "optdone": 1, 
		 "sigma_profile": "yes", 
		 "theory": "DFT", 
		 "functional": "B3LYP", 
		 "basiset": "6-31G**", 
		 "properties": { 
			 "R2extent": 2968.7488, 
			 "electric_dipole_moment_norm": 3.03207673221, 
			 "electric_quadrupole_moment_norm": 8.19301767544, 
			 "total_energy": -3255.31028314, 
			 "HOMO_LUMO_gap": 0.20362, 
			 "cosmo_polarized_energy": -6.64, 
			 "cosmo_cavitation_energy": 23.05, 
			 "cosmo_dispersion_energy": -17.12, 
			 "cosmo_repulsion_energy": 1.29, 
			 "cosmo_total_nonelectrostatic_energy": 7.22, 
			 "SMD_solvation_energy": 4.7 
		},
		"coords": [
			{
				"x": 0.7224320992,
				"y": 1.813157802,
				"z": -2.2486454237,
				"element": "N" 
			},
			{
				"x": 0.3167956685,
				"y": 1.0875042043,
				"z": -1.1466098485,
				"element": "C" 
			},
			{
				"x": 0.6367238828,
				"y": -0.2682670761,
				"z": -1.0019863649,
				"element": "C" 
			},
			{
				"x": 1.4231775074,
				"y": -0.8417243491,
				"z": -1.9377937488,
				"element": "F" 
			},
			{
				"x": 0.1812765093,
				"y": -1.0189640499,
				"z": 0.0740171565,
				"element": "C" 
			},
			{
				"x": 0.5280816729,
				"y": -2.3078144209,
				"z": 0.1506734759,
				"element": "F" 
			},
			{
				"x": -0.6205799583,
				"y": -0.4374766624,
				"z": 1.0579111617,
				"element": "C" 
			},
			{
				"x": -1.2462460291,
				"y": -1.4516782533,
				"z": 2.5212699804,
				"element": "Br" 
			},
			{
				"x": -0.9441232207,
				"y": 0.9149009203,
				"z": 0.9332344782,
				"element": "C" 
			},
			{
				"x": -1.7009943663,
				"y": 1.522609933,
				"z": 1.8525423039,
				"element": "F" 
			},
			{
				"x": -0.4829385175,
				"y": 1.6557343206,
				"z": -0.1471510656,
				"element": "C" 
			},
			{
				"x": -0.7928138427,
				"y": 2.966195746,
				"z": -0.245894757,
				"element": "F" 
			},
			{
				"x": 1.5235248783,
				"y": 1.4436851755,
				"z": -2.7393659548,
				"element": "H" 
			},
			{
				"x": 0.725183716,
				"y": 2.8156367101,
				"z": -2.1299013934,
				"element": "H" 
			}
		],
		 "valence_orbital": [ 
			{
				"type": "occ",
				"energy": -0.35429,
				"method": "rhf"
			},
			{
				"type": "occ",
				"energy": -0.29896,
				"method": "rhf"
			},
			{
				"type": "occ",
				"energy": -0.29592,
				"method": "rhf"
			},
			{
				"type": "occ",
				"energy": -0.25277,
				"method": "rhf"
			},
			{
				"type": "occ",
				"energy": -0.22569,
				"method": "rhf"
			},
			{
				"type": "unocc",
				"energy": -0.02207,
				"method": "rhf"
			},
			{
				"type": "unocc",
				"energy": -0.01633,
				"method": "rhf"
			},
			{
				"type": "unocc",
				"energy": -0.01098,
				"method": "rhf"
			},
			{
				"type": "unocc",
				"energy": 0.05447,
				"method": "rhf"
			},
			{
				"type": "unocc",
				"energy": 0.10279,
				"method": "rhf"
			}
		],
		"cosmo_sigma_profile": { 
			"-0.025": 0.0,
			"-0.024": 0.0,
			"-0.023": 0.0,
			"-0.022": 0.0,
			"-0.021": 0.0,
			"-0.02": 0.0,
			"-0.019": 0.0,
			"-0.018": 0.0,
			"-0.017": 0.0,
			"-0.016": 0.0,
			"-0.015": 0.0,
			"-0.014": 0.824690944379,
			"-0.013": 2.10439044309,
			"-0.012": 1.48803567168,
			"-0.011": 2.81693118556,
			"-0.01": 2.58875969887,
			"-0.009": 2.27560107048,
			"-0.008": 1.99020009817,
			"-0.007": 1.81799362051,
			"-0.006": 3.11489249264,
			"-0.005": 3.16159268365,
			"-0.004": 3.76409502205,
			"-0.003": 6.18628197512,
			"-0.002": 21.5328032354,
			"-0.001": 20.3814552184,
			"0.0": 15.3147408799,
			"0.001": 13.0894662557,
			"0.002": 21.7381773663,
			"0.003": 42.9163020588,
			"0.004": 17.3544952884,
			"0.005": 1.69736189323,
			"0.006": 0.417392734622,
			"0.007": 0.421946924701,
			"0.008": 0.484728114096,
			"0.009": 1.00821873369,
			"0.01": 0.474200261353,
			"0.011": 0.483686941805,
			"0.012": 0.107034937169,
			"0.013": 0.0,
			"0.014": 0.0,
			"0.015": 0.0,
			"0.016": 0.0,
			"0.017": 0.0,
			"0.018": 0.0,
			"0.019": 0.0,
			"0.02": 0.0,
			"0.021": 0.0,
			"0.022": 0.0,
			"0.023": 0.0,
			"0.024": 0.0,
			"0.025": 0.0
		}
	}
}
