{
	 "smiles": "CC(C)(C)C1=NOC(N)=N1", 
	 "Tm": 466.15, 
	 "num_atms": 21, 
	 "gaussian": { 
		 "optdone": 1, 
		 "sigma_profile": "yes", 
		 "theory": "DFT", 
		 "functional": "B3LYP", 
		 "basiset": "6-31G**", 
		 "properties": { 
			 "R2extent": 1765.184, 
			 "electric_dipole_moment_norm": 2.81124463005, 
			 "electric_quadrupole_moment_norm": 15.4394124014, 
			 "total_energy": -474.728766013, 
			 "HOMO_LUMO_gap": 0.25051, 
			 "cosmo_polarized_energy": -12.14, 
			 "cosmo_cavitation_energy": 24.01, 
			 "cosmo_dispersion_energy": -17.45, 
			 "cosmo_repulsion_energy": 1.44, 
			 "cosmo_total_nonelectrostatic_energy": 8.0, 
			 "SMD_solvation_energy": 3.18 
		},
		"coords": [
			{
				"x": -0.6764590006,
				"y": 1.0425444066,
				"z": -1.7594379435,
				"element": "C" 
			},
			{
				"x": -0.1990573464,
				"y": 1.2072367576,
				"z": -0.2990186999,
				"element": "C" 
			},
			{
				"x": -1.3591927206,
				"y": 0.8678147794,
				"z": 0.663863095,
				"element": "C" 
			},
			{
				"x": 0.2800001533,
				"y": 2.6496853655,
				"z": -0.0600459827,
				"element": "C" 
			},
			{
				"x": 0.92353721,
				"y": 0.2224908552,
				"z": -0.052810263,
				"element": "C" 
			},
			{
				"x": 2.1229658312,
				"y": 0.5969446837,
				"z": 0.3166977864,
				"element": "N" 
			},
			{
				"x": 2.8263212662,
				"y": -0.6459651674,
				"z": 0.4270495984,
				"element": "O" 
			},
			{
				"x": 1.9350951778,
				"y": -1.592500857,
				"z": 0.1032691081,
				"element": "C" 
			},
			{
				"x": 2.3363318887,
				"y": -2.8892702641,
				"z": 0.173244033,
				"element": "N" 
			},
			{
				"x": 0.7491870208,
				"y": -1.1384579303,
				"z": -0.2054330732,
				"element": "N" 
			},
			{
				"x": -1.5212603896,
				"y": 1.7120718317,
				"z": -1.9537739747,
				"element": "H" 
			},
			{
				"x": -0.9955525377,
				"y": 0.0149975376,
				"z": -1.9530473351,
				"element": "H" 
			},
			{
				"x": 0.1230533095,
				"y": 1.2917228599,
				"z": -2.4649830924,
				"element": "H" 
			},
			{
				"x": -1.0523789682,
				"y": 0.9912731243,
				"z": 1.7076582416,
				"element": "H" 
			},
			{
				"x": -2.206645586,
				"y": 1.5363085531,
				"z": 0.4775481269,
				"element": "H" 
			},
			{
				"x": -1.6929467988,
				"y": -0.1640019402,
				"z": 0.5257073922,
				"element": "H" 
			},
			{
				"x": -0.5451400801,
				"y": 3.3462106506,
				"z": -0.2418398401,
				"element": "H" 
			},
			{
				"x": 0.6282448935,
				"y": 2.7887512795,
				"z": 0.9671651027,
				"element": "H" 
			},
			{
				"x": 1.1052177696,
				"y": 2.9114522125,
				"z": -0.7281738831,
				"element": "H" 
			},
			{
				"x": 3.3286468363,
				"y": -3.0658748622,
				"z": 0.1346235439,
				"element": "H" 
			},
			{
				"x": 1.741632071,
				"y": -3.552633876,
				"z": -0.2990619402,
				"element": "H" 
			}
		],
		 "valence_orbital": [ 
			{
				"type": "occ",
				"energy": -0.32974,
				"method": "rhf"
			},
			{
				"type": "occ",
				"energy": -0.3272,
				"method": "rhf"
			},
			{
				"type": "occ",
				"energy": -0.3009,
				"method": "rhf"
			},
			{
				"type": "occ",
				"energy": -0.28086,
				"method": "rhf"
			},
			{
				"type": "occ",
				"energy": -0.24125,
				"method": "rhf"
			},
			{
				"type": "unocc",
				"energy": 0.00926,
				"method": "rhf"
			},
			{
				"type": "unocc",
				"energy": 0.05424,
				"method": "rhf"
			},
			{
				"type": "unocc",
				"energy": 0.06835,
				"method": "rhf"
			},
			{
				"type": "unocc",
				"energy": 0.0917,
				"method": "rhf"
			},
			{
				"type": "unocc",
				"energy": 0.10795,
				"method": "rhf"
			}
		],
		"cosmo_sigma_profile": { 
			"-0.025": 0.0,
			"-0.024": 0.0,
			"-0.023": 0.0,
			"-0.022": 0.0,
			"-0.021": 0.0,
			"-0.02": 0.0,
			"-0.019": 0.0,
			"-0.018": 0.0,
			"-0.017": 0.0,
			"-0.016": 0.452867411447,
			"-0.015": 2.37766197761,
			"-0.014": 2.75801508671,
			"-0.013": 2.72460422608,
			"-0.012": 1.90887539052,
			"-0.011": 1.79187358399,
			"-0.01": 1.88496366456,
			"-0.009": 2.28567631167,
			"-0.008": 2.53809298746,
			"-0.007": 0.76772444661,
			"-0.006": 1.25047450252,
			"-0.005": 2.19133879939,
			"-0.004": 4.28632940076,
			"-0.003": 20.3957355969,
			"-0.002": 18.6488071252,
			"-0.001": 21.9701712993,
			"0.0": 21.9914995351,
			"0.001": 23.1995673627,
			"0.002": 7.61328092105,
			"0.003": 4.88646368867,
			"0.004": 5.11991621221,
			"0.005": 4.81107140489,
			"0.006": 5.24631254915,
			"0.007": 5.45399663315,
			"0.008": 6.67941328537,
			"0.009": 3.66281680434,
			"0.01": 2.56909675027,
			"0.011": 2.44462657363,
			"0.012": 1.84220394398,
			"0.013": 1.93919713566,
			"0.014": 1.48907779766,
			"0.015": 0.331763580511,
			"0.016": 0.0,
			"0.017": 0.0,
			"0.018": 0.0,
			"0.019": 0.0,
			"0.02": 0.0,
			"0.021": 0.0,
			"0.022": 0.0,
			"0.023": 0.0,
			"0.024": 0.0,
			"0.025": 0.0
		}
	}
}
