{
	 "smiles": "C[C@@H]([C@H]1CC[C@H]2[C@@H]3CC[C@H]4CC(=O)CC[C@]4(C)[C@H]3CC[C@]12C)C(O)=O", 
	 "Tm": 526.0, 
	 "num_atms": 59, 
	 "gaussian": { 
		 "optdone": 1, 
		 "sigma_profile": "yes", 
		 "theory": "DFT", 
		 "functional": "B3LYP", 
		 "basiset": "6-31G**", 
		 "properties": { 
			 "R2extent": 11602.9421, 
			 "electric_dipole_moment_norm": 3.40067241733, 
			 "electric_quadrupole_moment_norm": 31.5963775827, 
			 "total_energy": -1084.55539628, 
			 "HOMO_LUMO_gap": 0.22248, 
			 "cosmo_polarized_energy": -14.46, 
			 "cosmo_cavitation_energy": 50.56, 
			 "cosmo_dispersion_energy": -34.94, 
			 "cosmo_repulsion_energy": 2.55, 
			 "cosmo_total_nonelectrostatic_energy": 18.17, 
			 "SMD_solvation_energy": 8.41 
		},
		"coords": [
			{
				"x": 4.3225606197,
				"y": -0.027752101,
				"z": -3.6352396048,
				"element": "C" 
			},
			{
				"x": 3.8042653094,
				"y": 0.1164174589,
				"z": -2.187259508,
				"element": "C" 
			},
			{
				"x": 2.3106772462,
				"y": -0.2975789722,
				"z": -2.0890939236,
				"element": "C" 
			},
			{
				"x": 1.9441684547,
				"y": -1.777041939,
				"z": -2.4220420141,
				"element": "C" 
			},
			{
				"x": 0.584499805,
				"y": -2.0470896535,
				"z": -1.7065283837,
				"element": "C" 
			},
			{
				"x": 0.1738018903,
				"y": -0.6732020212,
				"z": -1.1431007025,
				"element": "C" 
			},
			{
				"x": -0.8950997807,
				"y": -0.5836906571,
				"z": -0.0458671731,
				"element": "C" 
			},
			{
				"x": -2.1998523586,
				"y": -1.2834288173,
				"z": -0.4639917867,
				"element": "C" 
			},
			{
				"x": -3.3245434912,
				"y": -1.0873529846,
				"z": 0.558335021,
				"element": "C" 
			},
			{
				"x": -3.5531799304,
				"y": 0.4015098447,
				"z": 0.8507744828,
				"element": "C" 
			},
			{
				"x": -4.7829520314,
				"y": 0.6267168759,
				"z": 1.7567701562,
				"element": "C" 
			},
			{
				"x": -5.0563285384,
				"y": 2.1029313986,
				"z": 1.9987295894,
				"element": "C" 
			},
			{
				"x": -6.1681791797,
				"y": 2.5869696328,
				"z": 1.8952509422,
				"element": "O" 
			},
			{
				"x": -3.8380689819,
				"y": 2.9296637305,
				"z": 2.3799540329,
				"element": "C" 
			},
			{
				"x": -2.6080720858,
				"y": 2.6302158132,
				"z": 1.4968227223,
				"element": "C" 
			},
			{
				"x": -2.2664805053,
				"y": 1.1210158319,
				"z": 1.3714421141,
				"element": "C" 
			},
			{
				"x": -1.8160526666,
				"y": 0.5814962387,
				"z": 2.7481786877,
				"element": "C" 
			},
			{
				"x": -1.1465072841,
				"y": 0.9184933071,
				"z": 0.2895760236,
				"element": "C" 
			},
			{
				"x": 0.1741468914,
				"y": 1.6664956221,
				"z": 0.5951459976,
				"element": "C" 
			},
			{
				"x": 1.2490791842,
				"y": 1.4855286212,
				"z": -0.496939059,
				"element": "C" 
			},
			{
				"x": 1.5245003449,
				"y": -0.0006128377,
				"z": -0.7766750276,
				"element": "C" 
			},
			{
				"x": 2.2002924093,
				"y": -0.6587233864,
				"z": 0.4478549725,
				"element": "C" 
			},
			{
				"x": 4.7815841212,
				"y": -0.5632969126,
				"z": -1.2400616251,
				"element": "C" 
			},
			{
				"x": 4.9461191348,
				"y": -1.8893378314,
				"z": -1.490409254,
				"element": "O" 
			},
			{
				"x": 5.4124475275,
				"y": -0.00336931,
				"z": -0.3683720172,
				"element": "O" 
			},
			{
				"x": 5.3462008262,
				"y": 0.3487547276,
				"z": -3.7276384241,
				"element": "H" 
			},
			{
				"x": 3.6897579466,
				"y": 0.5488692483,
				"z": -4.3172230765,
				"element": "H" 
			},
			{
				"x": 4.3154507272,
				"y": -1.0717759359,
				"z": -3.9577514226,
				"element": "H" 
			},
			{
				"x": 3.8654464982,
				"y": 1.1728862483,
				"z": -1.9058014071,
				"element": "H" 
			},
			{
				"x": 1.8291953349,
				"y": 0.3282153614,
				"z": -2.8549798724,
				"element": "H" 
			},
			{
				"x": 1.8645390766,
				"y": -1.9216564906,
				"z": -3.5037517979,
				"element": "H" 
			},
			{
				"x": 2.7167864328,
				"y": -2.464149989,
				"z": -2.0718794636,
				"element": "H" 
			},
			{
				"x": -0.1660480363,
				"y": -2.4576014955,
				"z": -2.3882492153,
				"element": "H" 
			},
			{
				"x": 0.7086294824,
				"y": -2.7773438843,
				"z": -0.898155968,
				"element": "H" 
			},
			{
				"x": -0.2225213806,
				"y": -0.0942737626,
				"z": -1.9943100931,
				"element": "H" 
			},
			{
				"x": -0.5195444354,
				"y": -1.0925567987,
				"z": 0.8527290905,
				"element": "H" 
			},
			{
				"x": -2.0165148274,
				"y": -2.352661492,
				"z": -0.621833547,
				"element": "H" 
			},
			{
				"x": -2.524950492,
				"y": -0.8787987274,
				"z": -1.4342212944,
				"element": "H" 
			},
			{
				"x": -3.087432477,
				"y": -1.6205343101,
				"z": 1.4888857719,
				"element": "H" 
			},
			{
				"x": -4.2545072039,
				"y": -1.5318819599,
				"z": 0.182065366,
				"element": "H" 
			},
			{
				"x": -3.7884094004,
				"y": 0.8778754791,
				"z": -0.1147422975,
				"element": "H" 
			},
			{
				"x": -4.6260164573,
				"y": 0.1423874902,
				"z": 2.7312694608,
				"element": "H" 
			},
			{
				"x": -5.6805314215,
				"y": 0.1807024036,
				"z": 1.3179161365,
				"element": "H" 
			},
			{
				"x": -3.603989742,
				"y": 2.7001930635,
				"z": 3.4291535474,
				"element": "H" 
			},
			{
				"x": -4.1121493182,
				"y": 3.9873950904,
				"z": 2.3377619393,
				"element": "H" 
			},
			{
				"x": -1.7532853531,
				"y": 3.1840612307,
				"z": 1.8981020583,
				"element": "H" 
			},
			{
				"x": -2.7928652275,
				"y": 3.0310569413,
				"z": 0.4908884039,
				"element": "H" 
			},
			{
				"x": -1.5024575458,
				"y": -0.4643541909,
				"z": 2.7049431469,
				"element": "H" 
			},
			{
				"x": -0.9721707321,
				"y": 1.1608058952,
				"z": 3.1348041103,
				"element": "H" 
			},
			{
				"x": -2.6113830826,
				"y": 0.6443894057,
				"z": 3.4959024383,
				"element": "H" 
			},
			{
				"x": -1.5485098047,
				"y": 1.365597951,
				"z": -0.6355896551,
				"element": "H" 
			},
			{
				"x": -0.0249661732,
				"y": 2.7370691838,
				"z": 0.7087060065,
				"element": "H" 
			},
			{
				"x": 0.5808370504,
				"y": 1.3318786267,
				"z": 1.5560907582,
				"element": "H" 
			},
			{
				"x": 0.9032408642,
				"y": 1.9648592371,
				"z": -1.4242792103,
				"element": "H" 
			},
			{
				"x": 2.1648549484,
				"y": 2.009510916,
				"z": -0.194523839,
				"element": "H" 
			},
			{
				"x": 1.54089492,
				"y": -0.6822169661,
				"z": 1.3185438427,
				"element": "H" 
			},
			{
				"x": 3.0956653353,
				"y": -0.1025427708,
				"z": 0.7371606098,
				"element": "H" 
			},
			{
				"x": 2.5022966283,
				"y": -1.6907714936,
				"z": 0.2472122354,
				"element": "H" 
			},
			{
				"x": 5.6088309351,
				"y": -2.196565184,
				"z": -0.8483590018,
				"element": "H" 
			}
		],
		 "valence_orbital": [ 
			{
				"type": "occ",
				"energy": -0.2993,
				"method": "rhf"
			},
			{
				"type": "occ",
				"energy": -0.28077,
				"method": "rhf"
			},
			{
				"type": "occ",
				"energy": -0.27103,
				"method": "rhf"
			},
			{
				"type": "occ",
				"energy": -0.26989,
				"method": "rhf"
			},
			{
				"type": "occ",
				"energy": -0.23155,
				"method": "rhf"
			},
			{
				"type": "unocc",
				"energy": -0.00907,
				"method": "rhf"
			},
			{
				"type": "unocc",
				"energy": 0.00642,
				"method": "rhf"
			},
			{
				"type": "unocc",
				"energy": 0.0643,
				"method": "rhf"
			},
			{
				"type": "unocc",
				"energy": 0.07212,
				"method": "rhf"
			},
			{
				"type": "unocc",
				"energy": 0.07571,
				"method": "rhf"
			}
		],
		"cosmo_sigma_profile": { 
			"-0.025": 0.0,
			"-0.024": 0.0,
			"-0.023": 0.0,
			"-0.022": 0.0,
			"-0.021": 0.0,
			"-0.02": 0.0,
			"-0.019": 0.0,
			"-0.018": 0.182145977861,
			"-0.017": 1.12018647946,
			"-0.016": 0.795111035698,
			"-0.015": 0.713372882522,
			"-0.014": 1.07290094386,
			"-0.013": 0.519466055594,
			"-0.012": 0.383605055065,
			"-0.011": 0.617950320724,
			"-0.01": 1.04426482769,
			"-0.009": 0.780905305896,
			"-0.008": 0.387075263329,
			"-0.007": 1.4478735633,
			"-0.006": 3.37785913486,
			"-0.005": 6.13609204807,
			"-0.004": 12.8953449928,
			"-0.003": 35.7111268862,
			"-0.002": 69.978719542,
			"-0.001": 75.6905278003,
			"0.0": 61.8160654493,
			"0.001": 39.1478868405,
			"0.002": 17.0669187131,
			"0.003": 6.78497921745,
			"0.004": 5.48065961279,
			"0.005": 4.41100971554,
			"0.006": 3.73492985222,
			"0.007": 4.43277341345,
			"0.008": 3.30851936155,
			"0.009": 2.69530058223,
			"0.01": 4.24785170493,
			"0.011": 4.61387071271,
			"0.012": 9.24641239773,
			"0.013": 5.60508352261,
			"0.014": 1.30676203778,
			"0.015": 0.0,
			"0.016": 0.0,
			"0.017": 0.0,
			"0.018": 0.0,
			"0.019": 0.0,
			"0.02": 0.0,
			"0.021": 0.0,
			"0.022": 0.0,
			"0.023": 0.0,
			"0.024": 0.0,
			"0.025": 0.0
		}
	}
}
