{
	 "smiles": "OC(=O)C1C2C3CC4C5CC(C24)C1C35", 
	 "Tm": 375.15, 
	 "num_atms": 28, 
	 "gaussian": { 
		 "optdone": 1, 
		 "sigma_profile": "yes", 
		 "theory": "DFT", 
		 "functional": "B3LYP", 
		 "basiset": "6-31G**", 
		 "properties": { 
			 "R2extent": 2426.6513, 
			 "electric_dipole_moment_norm": 1.36600832721, 
			 "electric_quadrupole_moment_norm": 6.74349822051, 
			 "total_energy": -616.163673079, 
			 "HOMO_LUMO_gap": 0.27664, 
			 "cosmo_polarized_energy": -7.71, 
			 "cosmo_cavitation_energy": 26.84, 
			 "cosmo_dispersion_energy": -20.86, 
			 "cosmo_repulsion_energy": 1.63, 
			 "cosmo_total_nonelectrostatic_energy": 7.62, 
			 "SMD_solvation_energy": 3.95 
		},
		"coords": [
			{
				"x": -2.2095013737,
				"y": 2.2025394035,
				"z": 2.9185175314,
				"element": "O" 
			},
			{
				"x": -1.3316602242,
				"y": 2.2542941006,
				"z": 1.8834066734,
				"element": "C" 
			},
			{
				"x": -0.5983193681,
				"y": 3.2057439346,
				"z": 1.7099901429,
				"element": "O" 
			},
			{
				"x": -1.3956833888,
				"y": 1.0060550977,
				"z": 1.0389568389,
				"element": "C" 
			},
			{
				"x": -0.7461532532,
				"y": 1.0999400418,
				"z": -0.3450011125,
				"element": "C" 
			},
			{
				"x": -0.9803162174,
				"y": -0.3161424584,
				"z": -0.9125025341,
				"element": "C" 
			},
			{
				"x": 0.1023533946,
				"y": -0.4355887422,
				"z": -1.9887689261,
				"element": "C" 
			},
			{
				"x": 1.2626741637,
				"y": -0.1998716063,
				"z": -1.0184385855,
				"element": "C" 
			},
			{
				"x": 1.0923185851,
				"y": -1.3395900409,
				"z": 0.010348651,
				"element": "C" 
			},
			{
				"x": 1.8203020225,
				"y": -0.8027360647,
				"z": 1.2448055708,
				"element": "C" 
			},
			{
				"x": 0.9531358028,
				"y": 0.4541393831,
				"z": 1.3619832168,
				"element": "C" 
			},
			{
				"x": 0.8160192934,
				"y": 1.0152967587,
				"z": -0.1090111571,
				"element": "C" 
			},
			{
				"x": -0.4670179012,
				"y": -0.1312707656,
				"z": 1.5220520025,
				"element": "C" 
			},
			{
				"x": -0.4479284004,
				"y": -1.157773968,
				"z": 0.3178955607,
				"element": "C" 
			},
			{
				"x": -2.0860186185,
				"y": 3.0299905956,
				"z": 3.4138226138,
				"element": "H" 
			},
			{
				"x": -2.4402791667,
				"y": 0.6797007103,
				"z": 0.988401377,
				"element": "H" 
			},
			{
				"x": -1.0749773248,
				"y": 1.9221952192,
				"z": -0.9844317336,
				"element": "H" 
			},
			{
				"x": -2.0099954994,
				"y": -0.5301282837,
				"z": -1.2118578842,
				"element": "H" 
			},
			{
				"x": 0.002466778,
				"y": 0.3283417289,
				"z": -2.7678896565,
				"element": "H" 
			},
			{
				"x": 0.149851493,
				"y": -1.4188511893,
				"z": -2.4700382917,
				"element": "H" 
			},
			{
				"x": 2.2649461701,
				"y": -0.1144582625,
				"z": -1.4467949828,
				"element": "H" 
			},
			{
				"x": 1.3761559074,
				"y": -2.3322130377,
				"z": -0.3497679189,
				"element": "H" 
			},
			{
				"x": 1.7477020779,
				"y": -1.4476152894,
				"z": 2.1280193775,
				"element": "H" 
			},
			{
				"x": 2.8790859413,
				"y": -0.5980780127,
				"z": 1.0513395186,
				"element": "H" 
			},
			{
				"x": 1.2426205841,
				"y": 1.1936235472,
				"z": 2.1104178838,
				"element": "H" 
			},
			{
				"x": 1.3466095173,
				"y": 1.9502555735,
				"z": -0.2861264611,
				"element": "H" 
			},
			{
				"x": -0.6920888815,
				"y": -0.5594322672,
				"z": 2.5019411765,
				"element": "H" 
			},
			{
				"x": -0.9911021134,
				"y": -2.0854661061,
				"z": 0.5071311085,
				"element": "H" 
			}
		],
		 "valence_orbital": [ 
			{
				"type": "occ",
				"energy": -0.30494,
				"method": "rhf"
			},
			{
				"type": "occ",
				"energy": -0.2949,
				"method": "rhf"
			},
			{
				"type": "occ",
				"energy": -0.29355,
				"method": "rhf"
			},
			{
				"type": "occ",
				"energy": -0.28605,
				"method": "rhf"
			},
			{
				"type": "occ",
				"energy": -0.26614,
				"method": "rhf"
			},
			{
				"type": "unocc",
				"energy": 0.0105,
				"method": "rhf"
			},
			{
				"type": "unocc",
				"energy": 0.07979,
				"method": "rhf"
			},
			{
				"type": "unocc",
				"energy": 0.08853,
				"method": "rhf"
			},
			{
				"type": "unocc",
				"energy": 0.10994,
				"method": "rhf"
			},
			{
				"type": "unocc",
				"energy": 0.11382,
				"method": "rhf"
			}
		],
		"cosmo_sigma_profile": { 
			"-0.025": 0.0,
			"-0.024": 0.0,
			"-0.023": 0.0,
			"-0.022": 0.0,
			"-0.021": 0.0,
			"-0.02": 0.0,
			"-0.019": 0.0,
			"-0.018": 0.377441961929,
			"-0.017": 1.07591200155,
			"-0.016": 0.409501931083,
			"-0.015": 1.39383481366,
			"-0.014": 0.820754734724,
			"-0.013": 0.100195559053,
			"-0.012": 0.148667272446,
			"-0.011": 1.28424634536,
			"-0.01": 0.771895858989,
			"-0.009": 0.793847998797,
			"-0.008": 0.38538649444,
			"-0.007": 0.816658040149,
			"-0.006": 0.813716323679,
			"-0.005": 1.887917775,
			"-0.004": 5.28098905706,
			"-0.003": 21.2081178079,
			"-0.002": 32.3367519041,
			"-0.001": 33.7983709016,
			"0.0": 31.9618772949,
			"0.001": 29.9233914978,
			"0.002": 10.8406584991,
			"0.003": 2.97722460965,
			"0.004": 2.77689738819,
			"0.005": 2.86445879665,
			"0.006": 2.5592468928,
			"0.007": 2.2703863254,
			"0.008": 3.43226852308,
			"0.009": 3.23392831732,
			"0.01": 3.09411297939,
			"0.011": 2.57234944186,
			"0.012": 4.91264953571,
			"0.013": 0.913563972634,
			"0.014": 0.0,
			"0.015": 0.0,
			"0.016": 0.0,
			"0.017": 0.0,
			"0.018": 0.0,
			"0.019": 0.0,
			"0.02": 0.0,
			"0.021": 0.0,
			"0.022": 0.0,
			"0.023": 0.0,
			"0.024": 0.0,
			"0.025": 0.0
		}
	}
}
