{
	 "smiles": "COC1=CC(CO)=CC=C1OCC1=CC=CC=C1", 
	 "Tm": 345.15, 
	 "num_atms": 34, 
	 "gaussian": { 
		 "optdone": 1, 
		 "sigma_profile": "yes", 
		 "theory": "DFT", 
		 "functional": "B3LYP", 
		 "basiset": "6-31G**", 
		 "properties": { 
			 "R2extent": 5440.6035, 
			 "electric_dipole_moment_norm": 1.66168067329, 
			 "electric_quadrupole_moment_norm": 11.1971741216, 
			 "total_energy": -806.871901591, 
			 "HOMO_LUMO_gap": 0.21342, 
			 "cosmo_polarized_energy": -11.44, 
			 "cosmo_cavitation_energy": 37.74, 
			 "cosmo_dispersion_energy": -25.8, 
			 "cosmo_repulsion_energy": 2.04, 
			 "cosmo_total_nonelectrostatic_energy": 13.98, 
			 "SMD_solvation_energy": 7.1 
		},
		"coords": [
			{
				"x": -2.3612296435,
				"y": 3.0298955405,
				"z": 1.1763784823,
				"element": "C" 
			},
			{
				"x": -1.3228301682,
				"y": 2.237203034,
				"z": 1.7638493609,
				"element": "O" 
			},
			{
				"x": -1.2565526661,
				"y": 0.9413518718,
				"z": 1.2953250064,
				"element": "C" 
			},
			{
				"x": -1.6101126211,
				"y": -0.10304754,
				"z": 2.1491390648,
				"element": "C" 
			},
			{
				"x": -1.5326158068,
				"y": -1.4359544038,
				"z": 1.7304855501,
				"element": "C" 
			},
			{
				"x": -1.9545916472,
				"y": -2.561173882,
				"z": 2.6565127872,
				"element": "C" 
			},
			{
				"x": -1.2600306729,
				"y": -3.779266345,
				"z": 2.4278899893,
				"element": "O" 
			},
			{
				"x": -1.090668081,
				"y": -1.7100299469,
				"z": 0.4313316954,
				"element": "C" 
			},
			{
				"x": -0.7151700938,
				"y": -0.6727191352,
				"z": -0.4219893126,
				"element": "C" 
			},
			{
				"x": -0.7884385585,
				"y": 0.6557341571,
				"z": -0.0015153862,
				"element": "C" 
			},
			{
				"x": -0.4513087337,
				"y": 1.6666346257,
				"z": -0.8774934798,
				"element": "O" 
			},
			{
				"x": 0.7486070376,
				"y": 2.4045329309,
				"z": -0.5496179702,
				"element": "C" 
			},
			{
				"x": 2.0119791712,
				"y": 1.6240490223,
				"z": -0.832574408,
				"element": "C" 
			},
			{
				"x": 2.9485283365,
				"y": 1.3848022359,
				"z": 0.1779346601,
				"element": "C" 
			},
			{
				"x": 4.1234802793,
				"y": 0.6784296847,
				"z": -0.0922238387,
				"element": "C" 
			},
			{
				"x": 4.3669867036,
				"y": 0.1955973406,
				"z": -1.3777992862,
				"element": "C" 
			},
			{
				"x": 3.4327544193,
				"y": 0.423002668,
				"z": -2.393114436,
				"element": "C" 
			},
			{
				"x": 2.2654877953,
				"y": 1.1340755769,
				"z": -2.1218466569,
				"element": "C" 
			},
			{
				"x": -2.2393548996,
				"y": 3.1055189949,
				"z": 0.0913338007,
				"element": "H" 
			},
			{
				"x": -3.3479658419,
				"y": 2.6069013789,
				"z": 1.4038882743,
				"element": "H" 
			},
			{
				"x": -2.282283697,
				"y": 4.021643382,
				"z": 1.6267624781,
				"element": "H" 
			},
			{
				"x": -1.9463579602,
				"y": 0.1513414195,
				"z": 3.1510517365,
				"element": "H" 
			},
			{
				"x": -3.0125440193,
				"y": -2.8042978189,
				"z": 2.4986744297,
				"element": "H" 
			},
			{
				"x": -1.8593366289,
				"y": -2.2310004938,
				"z": 3.7033394702,
				"element": "H" 
			},
			{
				"x": -0.3152103273,
				"y": -3.5910690212,
				"z": 2.5083178025,
				"element": "H" 
			},
			{
				"x": -1.0269531245,
				"y": -2.7420253342,
				"z": 0.1015935278,
				"element": "H" 
			},
			{
				"x": -0.3537471368,
				"y": -0.8733506461,
				"z": -1.4251946609,
				"element": "H" 
			},
			{
				"x": 0.7132282167,
				"y": 2.7284917154,
				"z": 0.4950642254,
				"element": "H" 
			},
			{
				"x": 0.6938220981,
				"y": 3.2926187756,
				"z": -1.1873336469,
				"element": "H" 
			},
			{
				"x": 2.7571639424,
				"y": 1.7539348081,
				"z": 1.1825511776,
				"element": "H" 
			},
			{
				"x": 4.8431558494,
				"y": 0.5017962369,
				"z": 0.7022024067,
				"element": "H" 
			},
			{
				"x": 5.2786041166,
				"y": -0.3557857307,
				"z": -1.5900439521,
				"element": "H" 
			},
			{
				"x": 3.6182960885,
				"y": 0.0488413427,
				"z": -3.3961242562,
				"element": "H" 
			},
			{
				"x": 1.537208274,
				"y": 1.3091235553,
				"z": -2.9093546352,
				"element": "H" 
			}
		],
		 "valence_orbital": [ 
			{
				"type": "occ",
				"energy": -0.26444,
				"method": "rhf"
			},
			{
				"type": "occ",
				"energy": -0.25104,
				"method": "rhf"
			},
			{
				"type": "occ",
				"energy": -0.24619,
				"method": "rhf"
			},
			{
				"type": "occ",
				"energy": -0.24134,
				"method": "rhf"
			},
			{
				"type": "occ",
				"energy": -0.22304,
				"method": "rhf"
			},
			{
				"type": "unocc",
				"energy": -0.00962,
				"method": "rhf"
			},
			{
				"type": "unocc",
				"energy": -0.00416,
				"method": "rhf"
			},
			{
				"type": "unocc",
				"energy": 0.00272,
				"method": "rhf"
			},
			{
				"type": "unocc",
				"energy": 0.00325,
				"method": "rhf"
			},
			{
				"type": "unocc",
				"energy": 0.08835,
				"method": "rhf"
			}
		],
		"cosmo_sigma_profile": { 
			"-0.025": 0.0,
			"-0.024": 0.0,
			"-0.023": 0.0,
			"-0.022": 0.0,
			"-0.021": 0.0,
			"-0.02": 0.0,
			"-0.019": 0.0,
			"-0.018": 0.0,
			"-0.017": 0.0,
			"-0.016": 0.0833396315902,
			"-0.015": 0.741875801494,
			"-0.014": 1.07188502857,
			"-0.013": 1.04384691483,
			"-0.012": 0.242659830872,
			"-0.011": 0.728803762405,
			"-0.01": 1.12839508148,
			"-0.009": 0.999319087303,
			"-0.008": 0.812939536066,
			"-0.007": 0.87875006328,
			"-0.006": 9.20793736548,
			"-0.005": 25.9021867967,
			"-0.004": 31.3068279386,
			"-0.003": 31.8940298132,
			"-0.002": 27.430591952,
			"-0.001": 21.2555242663,
			"0.0": 18.0795487774,
			"0.001": 17.8679119519,
			"0.002": 17.8638434745,
			"0.003": 19.2816067897,
			"0.004": 20.157369425,
			"0.005": 19.4159671834,
			"0.006": 10.5915948809,
			"0.007": 4.08820587251,
			"0.008": 2.37537465944,
			"0.009": 2.00780446159,
			"0.01": 3.7816670141,
			"0.011": 2.76369186324,
			"0.012": 2.53450853076,
			"0.013": 1.2598481561,
			"0.014": 2.17449063756,
			"0.015": 0.119672066749,
			"0.016": 0.0,
			"0.017": 0.0,
			"0.018": 0.0,
			"0.019": 0.0,
			"0.02": 0.0,
			"0.021": 0.0,
			"0.022": 0.0,
			"0.023": 0.0,
			"0.024": 0.0,
			"0.025": 0.0
		}
	}
}
