{
	 "smiles": "CN1N=CN=C1N", 
	 "Tm": 454.15, 
	 "num_atms": 13, 
	 "gaussian": { 
		 "optdone": 1, 
		 "sigma_profile": "yes", 
		 "theory": "DFT", 
		 "functional": "B3LYP", 
		 "basiset": "6-31G**", 
		 "properties": { 
			 "R2extent": 1091.3822, 
			 "electric_dipole_moment_norm": 3.69918479803, 
			 "electric_quadrupole_moment_norm": 5.85722486763, 
			 "total_energy": -336.927442934, 
			 "HOMO_LUMO_gap": 0.25107, 
			 "cosmo_polarized_energy": -13.62, 
			 "cosmo_cavitation_energy": 16.92, 
			 "cosmo_dispersion_energy": -12.81, 
			 "cosmo_repulsion_energy": 1.09, 
			 "cosmo_total_nonelectrostatic_energy": 5.19, 
			 "SMD_solvation_energy": 0.73 
		},
		"coords": [
			{
				"x": 0.5623613227,
				"y": -1.0790277772,
				"z": 0.5968837932,
				"element": "C" 
			},
			{
				"x": 0.775075853,
				"y": -0.5078321283,
				"z": -0.7156065588,
				"element": "N" 
			},
			{
				"x": 1.8058842414,
				"y": 0.366270343,
				"z": -0.9562707195,
				"element": "N" 
			},
			{
				"x": 1.6588970988,
				"y": 0.6126365569,
				"z": -2.245587633,
				"element": "C" 
			},
			{
				"x": 0.6090517097,
				"y": -0.0088979266,
				"z": -2.8565770396,
				"element": "N" 
			},
			{
				"x": 0.0746569154,
				"y": -0.7011536976,
				"z": -1.8602193916,
				"element": "C" 
			},
			{
				"x": -0.9985594083,
				"y": -1.5764195319,
				"z": -1.9560093391,
				"element": "N" 
			},
			{
				"x": 0.1221812558,
				"y": -2.0735775997,
				"z": 0.486787653,
				"element": "H" 
			},
			{
				"x": 1.5297673085,
				"y": -1.1644443681,
				"z": 1.0927286543,
				"element": "H" 
			},
			{
				"x": -0.0963619448,
				"y": -0.4544865637,
				"z": 1.2115853339,
				"element": "H" 
			},
			{
				"x": 2.3340183837,
				"y": 1.2735817187,
				"z": -2.7723817211,
				"element": "H" 
			},
			{
				"x": -1.3946548474,
				"y": -1.5434775842,
				"z": -2.8875279778,
				"element": "H" 
			},
			{
				"x": -1.7167178886,
				"y": -1.4437714413,
				"z": -1.253605054,
				"element": "H" 
			}
		],
		 "valence_orbital": [ 
			{
				"type": "occ",
				"energy": -0.33013,
				"method": "rhf"
			},
			{
				"type": "occ",
				"energy": -0.31631,
				"method": "rhf"
			},
			{
				"type": "occ",
				"energy": -0.27148,
				"method": "rhf"
			},
			{
				"type": "occ",
				"energy": -0.26448,
				"method": "rhf"
			},
			{
				"type": "occ",
				"energy": -0.22429,
				"method": "rhf"
			},
			{
				"type": "unocc",
				"energy": 0.02678,
				"method": "rhf"
			},
			{
				"type": "unocc",
				"energy": 0.0643,
				"method": "rhf"
			},
			{
				"type": "unocc",
				"energy": 0.07428,
				"method": "rhf"
			},
			{
				"type": "unocc",
				"energy": 0.11588,
				"method": "rhf"
			},
			{
				"type": "unocc",
				"energy": 0.13096,
				"method": "rhf"
			}
		],
		"cosmo_sigma_profile": { 
			"-0.025": 0.0,
			"-0.024": 0.0,
			"-0.023": 0.0,
			"-0.022": 0.0,
			"-0.021": 0.0,
			"-0.02": 0.0,
			"-0.019": 0.0,
			"-0.018": 0.0,
			"-0.017": 0.0,
			"-0.016": 0.0,
			"-0.015": 0.0,
			"-0.014": 0.90991551748,
			"-0.013": 2.85866734691,
			"-0.012": 2.3222874748,
			"-0.011": 3.44967268469,
			"-0.01": 2.90206166026,
			"-0.009": 2.17792959787,
			"-0.008": 2.03255501752,
			"-0.007": 5.36216062138,
			"-0.006": 9.9617356589,
			"-0.005": 9.84012376528,
			"-0.004": 8.64528699505,
			"-0.003": 10.1718267979,
			"-0.002": 5.19348756188,
			"-0.001": 4.60067416263,
			"0.0": 5.69211542848,
			"0.001": 5.90289937692,
			"0.002": 5.60320695029,
			"0.003": 5.24524274735,
			"0.004": 5.33156189906,
			"0.005": 4.593961379,
			"0.006": 4.29686597005,
			"0.007": 2.72098457061,
			"0.008": 3.78923470021,
			"0.009": 3.21975196597,
			"0.01": 2.61125387371,
			"0.011": 2.89665865327,
			"0.012": 3.28760160497,
			"0.013": 2.54994916702,
			"0.014": 1.50231826752,
			"0.015": 2.40824582429,
			"0.016": 1.44157898605,
			"0.017": 0.715987401429,
			"0.018": 0.00769353429572,
			"0.019": 0.0,
			"0.02": 0.0,
			"0.021": 0.0,
			"0.022": 0.0,
			"0.023": 0.0,
			"0.024": 0.0,
			"0.025": 0.0
		}
	}
}
