{
	 "smiles": "CC1CC2=C(C=C3NC(C)=CC3=C2)N1C(C)=O", 
	 "Tm": 548.15, 
	 "num_atms": 33, 
	 "gaussian": { 
		 "optdone": 1, 
		 "sigma_profile": "yes", 
		 "theory": "DFT", 
		 "functional": "B3LYP", 
		 "basiset": "6-31G**", 
		 "properties": { 
			 "R2extent": 5304.4332, 
			 "electric_dipole_moment_norm": 4.60358185112, 
			 "electric_quadrupole_moment_norm": 24.686913449, 
			 "total_energy": -727.899799686, 
			 "HOMO_LUMO_gap": 0.17184, 
			 "cosmo_polarized_energy": -14.4, 
			 "cosmo_cavitation_energy": 34.89, 
			 "cosmo_dispersion_energy": -25.28, 
			 "cosmo_repulsion_energy": 1.95, 
			 "cosmo_total_nonelectrostatic_energy": 11.57, 
			 "SMD_solvation_energy": 5.87 
		},
		"coords": [
			{
				"x": -2.9449466969,
				"y": 2.5315445899,
				"z": 2.1783425663,
				"element": "C" 
			},
			{
				"x": -1.4301226808,
				"y": 2.3195356324,
				"z": 2.1189914981,
				"element": "C" 
			},
			{
				"x": -0.8349977472,
				"y": 2.5328702797,
				"z": 0.7067177771,
				"element": "C" 
			},
			{
				"x": -0.7059963366,
				"y": 1.1289802213,
				"z": 0.1611911469,
				"element": "C" 
			},
			{
				"x": -0.8353445467,
				"y": 0.1977963794,
				"z": 1.2251003071,
				"element": "C" 
			},
			{
				"x": -0.7762091646,
				"y": -1.1752285759,
				"z": 0.9999264117,
				"element": "C" 
			},
			{
				"x": -0.5416507236,
				"y": -1.5747223725,
				"z": -0.3231420129,
				"element": "C" 
			},
			{
				"x": -0.4276523066,
				"y": -2.8460651047,
				"z": -0.8485678315,
				"element": "N" 
			},
			{
				"x": -0.2124045721,
				"y": -2.7743540311,
				"z": -2.2201573861,
				"element": "C" 
			},
			{
				"x": -0.0505783406,
				"y": -4.0130091375,
				"z": -3.039600591,
				"element": "C" 
			},
			{
				"x": -0.1875413402,
				"y": -1.4516972726,
				"z": -2.587121306,
				"element": "C" 
			},
			{
				"x": -0.3942906727,
				"y": -0.6632049614,
				"z": -1.404796892,
				"element": "C" 
			},
			{
				"x": -0.4879474693,
				"y": 0.7167657186,
				"z": -1.139836839,
				"element": "C" 
			},
			{
				"x": -1.0777948836,
				"y": 0.9053413659,
				"z": 2.4295611358,
				"element": "N" 
			},
			{
				"x": -0.9584289666,
				"y": 0.5350121971,
				"z": 3.7527061193,
				"element": "C" 
			},
			{
				"x": -0.4503227826,
				"y": -0.8569902968,
				"z": 4.0822467824,
				"element": "C" 
			},
			{
				"x": -1.2439028644,
				"y": 1.3287791293,
				"z": 4.6463378979,
				"element": "O" 
			},
			{
				"x": -3.318206098,
				"y": 2.2916476113,
				"z": 3.1763555751,
				"element": "H" 
			},
			{
				"x": -3.1880160249,
				"y": 3.5771688898,
				"z": 1.9600293001,
				"element": "H" 
			},
			{
				"x": -3.4562046926,
				"y": 1.9001395856,
				"z": 1.4435653601,
				"element": "H" 
			},
			{
				"x": -0.9514358857,
				"y": 2.9472366186,
				"z": 2.8723380266,
				"element": "H" 
			},
			{
				"x": 0.1461086193,
				"y": 3.0224630638,
				"z": 0.7656457746,
				"element": "H" 
			},
			{
				"x": -1.4787714256,
				"y": 3.1709604071,
				"z": 0.0928964492,
				"element": "H" 
			},
			{
				"x": -0.9221482058,
				"y": -1.9078252852,
				"z": 1.7820755597,
				"element": "H" 
			},
			{
				"x": -0.4915277676,
				"y": -3.7013792035,
				"z": -0.3205348903,
				"element": "H" 
			},
			{
				"x": -0.9372643054,
				"y": -4.6575770216,
				"z": -2.9859508763,
				"element": "H" 
			},
			{
				"x": 0.1071101138,
				"y": -3.7504340488,
				"z": -4.0878636543,
				"element": "H" 
			},
			{
				"x": 0.809180263,
				"y": -4.6111930819,
				"z": -2.7116128252,
				"element": "H" 
			},
			{
				"x": -0.0371364656,
				"y": -1.0848674504,
				"z": -3.5930500597,
				"element": "H" 
			},
			{
				"x": -0.3950260789,
				"y": 1.4437198618,
				"z": -1.9426893788,
				"element": "H" 
			},
			{
				"x": 0.3999731249,
				"y": -1.150646667,
				"z": 3.4612436936,
				"element": "H" 
			},
			{
				"x": -0.1597811586,
				"y": -0.8503538213,
				"z": 5.1329797889,
				"element": "H" 
			},
			{
				"x": -1.2427219174,
				"y": -1.6021132194,
				"z": 3.9510733723,
				"element": "H" 
			}
		],
		 "valence_orbital": [ 
			{
				"type": "occ",
				"energy": -0.284,
				"method": "rhf"
			},
			{
				"type": "occ",
				"energy": -0.25167,
				"method": "rhf"
			},
			{
				"type": "occ",
				"energy": -0.24055,
				"method": "rhf"
			},
			{
				"type": "occ",
				"energy": -0.2097,
				"method": "rhf"
			},
			{
				"type": "occ",
				"energy": -0.18461,
				"method": "rhf"
			},
			{
				"type": "unocc",
				"energy": -0.01277,
				"method": "rhf"
			},
			{
				"type": "unocc",
				"energy": 0.01794,
				"method": "rhf"
			},
			{
				"type": "unocc",
				"energy": 0.04629,
				"method": "rhf"
			},
			{
				"type": "unocc",
				"energy": 0.07449,
				"method": "rhf"
			},
			{
				"type": "unocc",
				"energy": 0.07616,
				"method": "rhf"
			}
		],
		"cosmo_sigma_profile": { 
			"-0.025": 0.0,
			"-0.024": 0.0,
			"-0.023": 0.0,
			"-0.022": 0.0,
			"-0.021": 0.0,
			"-0.02": 0.0,
			"-0.019": 0.0,
			"-0.018": 0.0,
			"-0.017": 0.0,
			"-0.016": 0.0146149825437,
			"-0.015": 0.860339664777,
			"-0.014": 1.41961693038,
			"-0.013": 1.37195150383,
			"-0.012": 1.09080834959,
			"-0.011": 0.781064976279,
			"-0.01": 1.54515515417,
			"-0.009": 1.73081392056,
			"-0.008": 1.36193992747,
			"-0.007": 4.2058853653,
			"-0.006": 4.99124260177,
			"-0.005": 12.6855811278,
			"-0.004": 25.6328291654,
			"-0.003": 31.2073218999,
			"-0.002": 29.6479397617,
			"-0.001": 31.7478913061,
			"0.0": 23.8571993497,
			"0.001": 18.2147223315,
			"0.002": 10.7018978146,
			"0.003": 9.04032279989,
			"0.004": 10.8260348423,
			"0.005": 12.1910721644,
			"0.006": 14.1343850773,
			"0.007": 8.36276842559,
			"0.008": 3.4220792847,
			"0.009": 1.51214965856,
			"0.01": 1.00058653967,
			"0.011": 1.81723282221,
			"0.012": 1.4162727883,
			"0.013": 2.62775471758,
			"0.014": 4.46301052591,
			"0.015": 1.53300458522,
			"0.016": 0.0381299151862,
			"0.017": 0.0,
			"0.018": 0.0,
			"0.019": 0.0,
			"0.02": 0.0,
			"0.021": 0.0,
			"0.022": 0.0,
			"0.023": 0.0,
			"0.024": 0.0,
			"0.025": 0.0
		}
	}
}
