{
	 "smiles": "O=C(C1=CC=CC=C1)C1=CC=C(C=C1)C1=CC=CC=C1", 
	 "Tm": 373.15, 
	 "num_atms": 34, 
	 "gaussian": { 
		 "optdone": 1, 
		 "sigma_profile": "yes", 
		 "theory": "DFT", 
		 "functional": "B3LYP", 
		 "basiset": "6-31G**", 
		 "properties": { 
			 "R2extent": 8426.4269, 
			 "electric_dipole_moment_norm": 3.13168550943, 
			 "electric_quadrupole_moment_norm": 16.118787478, 
			 "total_energy": -807.695136809, 
			 "HOMO_LUMO_gap": 0.16393, 
			 "cosmo_polarized_energy": -10.57, 
			 "cosmo_cavitation_energy": 38.37, 
			 "cosmo_dispersion_energy": -27.72, 
			 "cosmo_repulsion_energy": 2.09, 
			 "cosmo_total_nonelectrostatic_energy": 12.74, 
			 "SMD_solvation_energy": 6.6 
		},
		"coords": [
			{
				"x": -0.0745933402,
				"y": -3.0771221358,
				"z": 0.8584194642,
				"element": "O" 
			},
			{
				"x": -0.1572700491,
				"y": -2.2699849638,
				"z": -0.0621874559,
				"element": "C" 
			},
			{
				"x": -0.4820205795,
				"y": -2.7535592416,
				"z": -1.4457805147,
				"element": "C" 
			},
			{
				"x": -0.1345791683,
				"y": -4.0743397401,
				"z": -1.7731174036,
				"element": "C" 
			},
			{
				"x": -0.4496399039,
				"y": -4.5986748922,
				"z": -3.0229777808,
				"element": "C" 
			},
			{
				"x": -1.1412105904,
				"y": -3.8181943958,
				"z": -3.954854694,
				"element": "C" 
			},
			{
				"x": -1.5153163772,
				"y": -2.5135028881,
				"z": -3.6297508831,
				"element": "C" 
			},
			{
				"x": -1.1829836998,
				"y": -1.9796728661,
				"z": -2.3837753481,
				"element": "C" 
			},
			{
				"x": 0.0677550326,
				"y": -0.8126169236,
				"z": 0.2057381922,
				"element": "C" 
			},
			{
				"x": 0.5656386033,
				"y": 0.0834708432,
				"z": -0.7528143627,
				"element": "C" 
			},
			{
				"x": 0.8190053194,
				"y": 1.4112342375,
				"z": -0.4175919298,
				"element": "C" 
			},
			{
				"x": 0.5719629184,
				"y": 1.8929514369,
				"z": 0.8790466441,
				"element": "C" 
			},
			{
				"x": 0.0797742982,
				"y": 0.9860818819,
				"z": 1.8370668166,
				"element": "C" 
			},
			{
				"x": -0.15391981,
				"y": -0.3430664591,
				"z": 1.5105225364,
				"element": "C" 
			},
			{
				"x": 0.8290376248,
				"y": 3.3120605895,
				"z": 1.2292589028,
				"element": "C" 
			},
			{
				"x": 1.3430099843,
				"y": 3.6627860376,
				"z": 2.4896880208,
				"element": "C" 
			},
			{
				"x": 1.5853526289,
				"y": 4.9957131001,
				"z": 2.8178695599,
				"element": "C" 
			},
			{
				"x": 1.3179099785,
				"y": 6.007517994,
				"z": 1.893616841,
				"element": "C" 
			},
			{
				"x": 0.8065103924,
				"y": 5.6745003104,
				"z": 0.6378280395,
				"element": "C" 
			},
			{
				"x": 0.5652392133,
				"y": 4.3414828953,
				"z": 0.3092057283,
				"element": "C" 
			},
			{
				"x": 0.3805960168,
				"y": -4.6710751628,
				"z": -1.0277426792,
				"element": "H" 
			},
			{
				"x": -0.1638437244,
				"y": -5.6166938254,
				"z": -3.2714792731,
				"element": "H" 
			},
			{
				"x": -1.3932808204,
				"y": -4.2292318766,
				"z": -4.9283531067,
				"element": "H" 
			},
			{
				"x": -2.0693329556,
				"y": -1.9114204509,
				"z": -4.3441094007,
				"element": "H" 
			},
			{
				"x": -1.4923373416,
				"y": -0.9710716517,
				"z": -2.1309516155,
				"element": "H" 
			},
			{
				"x": 0.7908173863,
				"y": -0.2643908481,
				"z": -1.755399266,
				"element": "H" 
			},
			{
				"x": 1.2425007636,
				"y": 2.0774622037,
				"z": -1.1629957533,
				"element": "H" 
			},
			{
				"x": -0.1390930247,
				"y": 1.3371866068,
				"z": 2.8409279866,
				"element": "H" 
			},
			{
				"x": -0.5197374694,
				"y": -1.0426333611,
				"z": 2.2547612427,
				"element": "H" 
			},
			{
				"x": 1.579280802,
				"y": 2.8819325322,
				"z": 3.2063966969,
				"element": "H" 
			},
			{
				"x": 1.9915144618,
				"y": 5.2434687055,
				"z": 3.7944511903,
				"element": "H" 
			},
			{
				"x": 1.5061994101,
				"y": 7.0460509302,
				"z": 2.1497069137,
				"element": "H" 
			},
			{
				"x": 0.5867963082,
				"y": 6.4548402547,
				"z": -0.0853052379,
				"element": "H" 
			},
			{
				"x": 0.142757712,
				"y": 4.0954111235,
				"z": -0.660518071,
				"element": "H" 
			}
		],
		 "valence_orbital": [ 
			{
				"type": "occ",
				"energy": -0.25948,
				"method": "rhf"
			},
			{
				"type": "occ",
				"energy": -0.25759,
				"method": "rhf"
			},
			{
				"type": "occ",
				"energy": -0.2555,
				"method": "rhf"
			},
			{
				"type": "occ",
				"energy": -0.24487,
				"method": "rhf"
			},
			{
				"type": "occ",
				"energy": -0.23,
				"method": "rhf"
			},
			{
				"type": "unocc",
				"energy": -0.06607,
				"method": "rhf"
			},
			{
				"type": "unocc",
				"energy": -0.02691,
				"method": "rhf"
			},
			{
				"type": "unocc",
				"energy": -0.01294,
				"method": "rhf"
			},
			{
				"type": "unocc",
				"energy": -0.00707,
				"method": "rhf"
			},
			{
				"type": "unocc",
				"energy": -0.00413,
				"method": "rhf"
			}
		],
		"cosmo_sigma_profile": { 
			"-0.025": 0.0,
			"-0.024": 0.0,
			"-0.023": 0.0,
			"-0.022": 0.0,
			"-0.021": 0.0,
			"-0.02": 0.0,
			"-0.019": 0.0,
			"-0.018": 0.0,
			"-0.017": 0.0,
			"-0.016": 0.0,
			"-0.015": 0.0,
			"-0.014": 0.0,
			"-0.013": 0.0,
			"-0.012": 0.0,
			"-0.011": 0.0,
			"-0.01": 0.0,
			"-0.009": 0.0,
			"-0.008": 0.0,
			"-0.007": 1.25599160568,
			"-0.006": 20.1445065185,
			"-0.005": 29.4414890419,
			"-0.004": 30.2009326892,
			"-0.003": 26.2321129799,
			"-0.002": 20.913269445,
			"-0.001": 21.9058943803,
			"0.0": 18.782589283,
			"0.001": 20.6238716794,
			"0.002": 25.7038846415,
			"0.003": 28.455183029,
			"0.004": 29.9040741624,
			"0.005": 14.664111904,
			"0.006": 5.02141558715,
			"0.007": 2.25391655282,
			"0.008": 1.35333500766,
			"0.009": 2.07803588198,
			"0.01": 1.9711244973,
			"0.011": 2.47387612505,
			"0.012": 4.31623476137,
			"0.013": 1.10967028498,
			"0.014": 0.0,
			"0.015": 0.0,
			"0.016": 0.0,
			"0.017": 0.0,
			"0.018": 0.0,
			"0.019": 0.0,
			"0.02": 0.0,
			"0.021": 0.0,
			"0.022": 0.0,
			"0.023": 0.0,
			"0.024": 0.0,
			"0.025": 0.0
		}
	}
}
