{
	 "smiles": "OC(=O)C1=CN(N=C1)C1=NC=CS1", 
	 "Tm": 455.15, 
	 "num_atms": 18, 
	 "gaussian": { 
		 "optdone": 1, 
		 "sigma_profile": "yes", 
		 "theory": "DFT", 
		 "functional": "B3LYP", 
		 "basiset": "6-31G**", 
		 "properties": { 
			 "R2extent": 4331.0963, 
			 "electric_dipole_moment_norm": 5.67556140835, 
			 "electric_quadrupole_moment_norm": 16.9943340005, 
			 "total_energy": -982.613543036, 
			 "HOMO_LUMO_gap": 0.1769, 
			 "cosmo_polarized_energy": -17.51, 
			 "cosmo_cavitation_energy": 25.65, 
			 "cosmo_dispersion_energy": -19.58, 
			 "cosmo_repulsion_energy": 1.48, 
			 "cosmo_total_nonelectrostatic_energy": 7.55, 
			 "SMD_solvation_energy": 4.14 
		},
		"coords": [
			{
				"x": -1.425012156,
				"y": 2.2897272839,
				"z": -4.3697591245,
				"element": "O" 
			},
			{
				"x": -0.2582491419,
				"y": 1.9633487943,
				"z": -3.7503230307,
				"element": "C" 
			},
			{
				"x": 0.77410598,
				"y": 1.9384001415,
				"z": -4.3785906186,
				"element": "O" 
			},
			{
				"x": -0.3212720931,
				"y": 1.6498713743,
				"z": -2.3073870154,
				"element": "C" 
			},
			{
				"x": -1.3853209379,
				"y": 1.6215802803,
				"z": -1.4214567758,
				"element": "C" 
			},
			{
				"x": -0.8653838564,
				"y": 1.2674670458,
				"z": -0.2135359774,
				"element": "N" 
			},
			{
				"x": 0.4821308782,
				"y": 1.0619155997,
				"z": -0.2590013996,
				"element": "N" 
			},
			{
				"x": 0.8091369812,
				"y": 1.2918175872,
				"z": -1.5178971994,
				"element": "C" 
			},
			{
				"x": -1.5611435271,
				"y": 1.1096326663,
				"z": 0.9877192863,
				"element": "C" 
			},
			{
				"x": -2.8432347522,
				"y": 1.2928981731,
				"z": 1.0856493702,
				"element": "N" 
			},
			{
				"x": -3.2454174689,
				"y": 1.0663400823,
				"z": 2.3840411854,
				"element": "C" 
			},
			{
				"x": -2.262453078,
				"y": 0.712608684,
				"z": 3.2604690879,
				"element": "C" 
			},
			{
				"x": -0.723055011,
				"y": 0.6480639121,
				"z": 2.449266179,
				"element": "S" 
			},
			{
				"x": -2.1668117262,
				"y": 2.270278665,
				"z": -3.7502208361,
				"element": "H" 
			},
			{
				"x": -2.444877305,
				"y": 1.8113937256,
				"z": -1.5116473602,
				"element": "H" 
			},
			{
				"x": 1.8329265597,
				"y": 1.2028484818,
				"z": -1.8521515883,
				"element": "H" 
			},
			{
				"x": -4.2930529468,
				"y": 1.1776183979,
				"z": 2.6356687235,
				"element": "H" 
			},
			{
				"x": -2.3436163986,
				"y": 0.4893891049,
				"z": 4.3144570938,
				"element": "H" 
			}
		],
		 "valence_orbital": [ 
			{
				"type": "occ",
				"energy": -0.30789,
				"method": "rhf"
			},
			{
				"type": "occ",
				"energy": -0.3005,
				"method": "rhf"
			},
			{
				"type": "occ",
				"energy": -0.28473,
				"method": "rhf"
			},
			{
				"type": "occ",
				"energy": -0.27929,
				"method": "rhf"
			},
			{
				"type": "occ",
				"energy": -0.24569,
				"method": "rhf"
			},
			{
				"type": "unocc",
				"energy": -0.06879,
				"method": "rhf"
			},
			{
				"type": "unocc",
				"energy": -0.02409,
				"method": "rhf"
			},
			{
				"type": "unocc",
				"energy": 0.00315,
				"method": "rhf"
			},
			{
				"type": "unocc",
				"energy": 0.00709,
				"method": "rhf"
			},
			{
				"type": "unocc",
				"energy": 0.04561,
				"method": "rhf"
			}
		],
		"cosmo_sigma_profile": { 
			"-0.025": 0.0,
			"-0.024": 0.0,
			"-0.023": 0.0,
			"-0.022": 0.0,
			"-0.021": 0.0,
			"-0.02": 0.702606496492,
			"-0.019": 1.13711098106,
			"-0.018": 1.24921034359,
			"-0.017": 1.45327478439,
			"-0.016": 0.680563015356,
			"-0.015": 0.504545161708,
			"-0.014": 1.16332334361,
			"-0.013": 1.57694369233,
			"-0.012": 1.1668408447,
			"-0.011": 1.504502589,
			"-0.01": 2.49951390919,
			"-0.009": 4.36329323706,
			"-0.008": 6.5302769624,
			"-0.007": 6.69395356487,
			"-0.006": 6.53509682723,
			"-0.005": 6.37261678995,
			"-0.004": 7.67054218045,
			"-0.003": 12.0127703065,
			"-0.002": 14.4770244239,
			"-0.001": 16.5771751829,
			"0.0": 19.2422956789,
			"0.001": 15.5817827778,
			"0.002": 17.4113459027,
			"0.003": 9.86222994367,
			"0.004": 6.08981705619,
			"0.005": 5.38690198678,
			"0.006": 5.37538207133,
			"0.007": 4.82693333454,
			"0.008": 5.00163885442,
			"0.009": 5.93690610686,
			"0.01": 7.20159194693,
			"0.011": 6.68424901284,
			"0.012": 4.8689415993,
			"0.013": 1.38499458168,
			"0.014": 0.0248694962799,
			"0.015": 0.0,
			"0.016": 0.0,
			"0.017": 0.0,
			"0.018": 0.0,
			"0.019": 0.0,
			"0.02": 0.0,
			"0.021": 0.0,
			"0.022": 0.0,
			"0.023": 0.0,
			"0.024": 0.0,
			"0.025": 0.0
		}
	}
}
