{
	 "smiles": "OCC1=NOC(=N1)C1=CC(Cl)=CC=C1", 
	 "Tm": 377.15, 
	 "num_atms": 21, 
	 "gaussian": { 
		 "optdone": 1, 
		 "sigma_profile": "yes", 
		 "theory": "DFT", 
		 "functional": "B3LYP", 
		 "basiset": "6-31G**", 
		 "properties": { 
			 "R2extent": 4463.2681, 
			 "electric_dipole_moment_norm": 3.2855724448, 
			 "electric_quadrupole_moment_norm": 9.84079307068, 
			 "total_energy": -1067.27306779, 
			 "HOMO_LUMO_gap": 0.18586, 
			 "cosmo_polarized_energy": -10.19, 
			 "cosmo_cavitation_energy": 28.32, 
			 "cosmo_dispersion_energy": -21.16, 
			 "cosmo_repulsion_energy": 1.67, 
			 "cosmo_total_nonelectrostatic_energy": 8.83, 
			 "SMD_solvation_energy": 3.04 
		},
		"coords": [
			{
				"x": 3.0438395603,
				"y": -4.3764767787,
				"z": -0.1544646317,
				"element": "O" 
			},
			{
				"x": 3.3051649798,
				"y": -3.3583885013,
				"z": 0.7903628127,
				"element": "C" 
			},
			{
				"x": 2.6101887718,
				"y": -2.0773792322,
				"z": 0.4222234218,
				"element": "C" 
			},
			{
				"x": 3.1735521144,
				"y": -0.8976581643,
				"z": 0.4737293468,
				"element": "N" 
			},
			{
				"x": 2.1368088729,
				"y": -0.0341949887,
				"z": 0.0639055632,
				"element": "O" 
			},
			{
				"x": 1.0678644408,
				"y": -0.8077603516,
				"z": -0.1971499952,
				"element": "C" 
			},
			{
				"x": 1.2985592797,
				"y": -2.0781765855,
				"z": 0.0087740801,
				"element": "N" 
			},
			{
				"x": -0.1685209231,
				"y": -0.1785353899,
				"z": -0.6570603781,
				"element": "C" 
			},
			{
				"x": -0.2376755831,
				"y": 1.2124810045,
				"z": -0.82703489,
				"element": "C" 
			},
			{
				"x": -1.430852398,
				"y": 1.7775390732,
				"z": -1.2665370219,
				"element": "C" 
			},
			{
				"x": -1.5268620616,
				"y": 3.5162677934,
				"z": -1.4820038863,
				"element": "Cl" 
			},
			{
				"x": -2.5511648425,
				"y": 0.9906480161,
				"z": -1.5390981203,
				"element": "C" 
			},
			{
				"x": -2.4682389385,
				"y": -0.3925999404,
				"z": -1.3655340182,
				"element": "C" 
			},
			{
				"x": -1.2864166463,
				"y": -0.9822358958,
				"z": -0.9268827594,
				"element": "C" 
			},
			{
				"x": 2.0864873588,
				"y": -4.3889033533,
				"z": -0.2965611997,
				"element": "H" 
			},
			{
				"x": 2.9834154507,
				"y": -3.6490222308,
				"z": 1.8039892373,
				"element": "H" 
			},
			{
				"x": 4.3848612767,
				"y": -3.1947873521,
				"z": 0.8188727654,
				"element": "H" 
			},
			{
				"x": 0.6232773835,
				"y": 1.8365919806,
				"z": -0.6200161254,
				"element": "H" 
			},
			{
				"x": -3.469070387,
				"y": 1.4559113083,
				"z": -1.8806116852,
				"element": "H" 
			},
			{
				"x": -3.3359091784,
				"y": -1.0099645439,
				"z": -1.5758968223,
				"element": "H" 
			},
			{
				"x": -1.2118085309,
				"y": -2.0548558676,
				"z": -0.7889056936,
				"element": "H" 
			}
		],
		 "valence_orbital": [ 
			{
				"type": "occ",
				"energy": -0.31438,
				"method": "rhf"
			},
			{
				"type": "occ",
				"energy": -0.31109,
				"method": "rhf"
			},
			{
				"type": "occ",
				"energy": -0.28294,
				"method": "rhf"
			},
			{
				"type": "occ",
				"energy": -0.27259,
				"method": "rhf"
			},
			{
				"type": "occ",
				"energy": -0.26044,
				"method": "rhf"
			},
			{
				"type": "unocc",
				"energy": -0.07458,
				"method": "rhf"
			},
			{
				"type": "unocc",
				"energy": -0.03223,
				"method": "rhf"
			},
			{
				"type": "unocc",
				"energy": 0.00101,
				"method": "rhf"
			},
			{
				"type": "unocc",
				"energy": 0.01681,
				"method": "rhf"
			},
			{
				"type": "unocc",
				"energy": 0.04343,
				"method": "rhf"
			}
		],
		"cosmo_sigma_profile": { 
			"-0.025": 0.0,
			"-0.024": 0.0,
			"-0.023": 0.0,
			"-0.022": 0.0,
			"-0.021": 0.0,
			"-0.02": 0.0,
			"-0.019": 0.0,
			"-0.018": 0.0,
			"-0.017": 0.0,
			"-0.016": 0.0,
			"-0.015": 0.0,
			"-0.014": 0.309711932172,
			"-0.013": 0.784676098778,
			"-0.012": 0.502761661825,
			"-0.011": 0.570065307301,
			"-0.01": 1.02694918089,
			"-0.009": 1.06411062505,
			"-0.008": 3.48762398919,
			"-0.007": 9.8115894162,
			"-0.006": 14.8781897038,
			"-0.005": 11.718258237,
			"-0.004": 14.3592125945,
			"-0.003": 15.4337866409,
			"-0.002": 15.2827979646,
			"-0.001": 17.3622809765,
			"0.0": 20.0300342517,
			"0.001": 23.6986749952,
			"0.002": 18.3892347298,
			"0.003": 12.141540368,
			"0.004": 14.3692031646,
			"0.005": 7.72456237106,
			"0.006": 5.85787808834,
			"0.007": 3.00684399265,
			"0.008": 3.41165140669,
			"0.009": 2.72153076558,
			"0.01": 3.32085970975,
			"0.011": 2.97963376069,
			"0.012": 2.19205833708,
			"0.013": 3.19914628274,
			"0.014": 0.334048000573,
			"0.015": 0.0,
			"0.016": 0.0,
			"0.017": 0.0,
			"0.018": 0.0,
			"0.019": 0.0,
			"0.02": 0.0,
			"0.021": 0.0,
			"0.022": 0.0,
			"0.023": 0.0,
			"0.024": 0.0,
			"0.025": 0.0
		}
	}
}
