{
	 "smiles": "C(N1C=CN=C1)C1=NC=CC=C1", 
	 "Tm": 337.15, 
	 "num_atms": 21, 
	 "gaussian": { 
		 "optdone": 1, 
		 "sigma_profile": "yes", 
		 "theory": "DFT", 
		 "functional": "B3LYP", 
		 "basiset": "6-31G**", 
		 "properties": { 
			 "R2extent": 2405.7301, 
			 "electric_dipole_moment_norm": 3.40804077734, 
			 "electric_quadrupole_moment_norm": 11.3260945281, 
			 "total_energy": -512.620377023, 
			 "HOMO_LUMO_gap": 0.19096, 
			 "cosmo_polarized_energy": -12.3, 
			 "cosmo_cavitation_energy": 25.2, 
			 "cosmo_dispersion_energy": -18.31, 
			 "cosmo_repulsion_energy": 1.44, 
			 "cosmo_total_nonelectrostatic_energy": 8.33, 
			 "SMD_solvation_energy": 1.92 
		},
		"coords": [
			{
				"x": -1.8620975247,
				"y": 0.1650618301,
				"z": -0.7738775715,
				"element": "C" 
			},
			{
				"x": -0.9968994165,
				"y": -0.3705179586,
				"z": -1.8100808298,
				"element": "N" 
			},
			{
				"x": -0.4913759327,
				"y": -1.6555489921,
				"z": -1.8856762591,
				"element": "C" 
			},
			{
				"x": 0.3271269148,
				"y": -1.6659205827,
				"z": -2.9879483178,
				"element": "C" 
			},
			{
				"x": 0.3459221743,
				"y": -0.428472183,
				"z": -3.592739677,
				"element": "N" 
			},
			{
				"x": -0.4523618906,
				"y": 0.3189998306,
				"z": -2.8614488156,
				"element": "C" 
			},
			{
				"x": -1.1578765603,
				"y": 0.5204492006,
				"z": 0.528783636,
				"element": "C" 
			},
			{
				"x": -1.9912873185,
				"y": 0.7848619695,
				"z": 1.545958671,
				"element": "N" 
			},
			{
				"x": -1.4537824986,
				"y": 1.1315743744,
				"z": 2.7201264297,
				"element": "C" 
			},
			{
				"x": -0.0788586074,
				"y": 1.2280087622,
				"z": 2.9413779992,
				"element": "C" 
			},
			{
				"x": 0.7781023473,
				"y": 0.9487879498,
				"z": 1.8786246416,
				"element": "C" 
			},
			{
				"x": 0.2332028883,
				"y": 0.5885331493,
				"z": 0.6459788111,
				"element": "C" 
			},
			{
				"x": -2.6602476336,
				"y": -0.5507369071,
				"z": -0.5558740422,
				"element": "H" 
			},
			{
				"x": -2.3510596622,
				"y": 1.060707295,
				"z": -1.1721144907,
				"element": "H" 
			},
			{
				"x": -0.7608948819,
				"y": -2.41441957,
				"z": -1.1667737098,
				"element": "H" 
			},
			{
				"x": 0.8963034358,
				"y": -2.4956373375,
				"z": -3.3842895577,
				"element": "H" 
			},
			{
				"x": -0.6871285018,
				"y": 1.3607186458,
				"z": -3.0384931488,
				"element": "H" 
			},
			{
				"x": -2.157489871,
				"y": 1.3394453119,
				"z": 3.5244609068,
				"element": "H" 
			},
			{
				"x": 0.3024147987,
				"y": 1.5109129819,
				"z": 3.9172584392,
				"element": "H" 
			},
			{
				"x": 1.8553954984,
				"y": 1.0092591247,
				"z": 2.0040262194,
				"element": "H" 
			},
			{
				"x": 0.8689922422,
				"y": 0.3612331051,
				"z": -0.2024793339,
				"element": "H" 
			}
		],
		 "valence_orbital": [ 
			{
				"type": "occ",
				"energy": -0.27455,
				"method": "rhf"
			},
			{
				"type": "occ",
				"energy": -0.26662,
				"method": "rhf"
			},
			{
				"type": "occ",
				"energy": -0.26122,
				"method": "rhf"
			},
			{
				"type": "occ",
				"energy": -0.26041,
				"method": "rhf"
			},
			{
				"type": "occ",
				"energy": -0.22544,
				"method": "rhf"
			},
			{
				"type": "unocc",
				"energy": -0.03448,
				"method": "rhf"
			},
			{
				"type": "unocc",
				"energy": -0.01842,
				"method": "rhf"
			},
			{
				"type": "unocc",
				"energy": 0.02698,
				"method": "rhf"
			},
			{
				"type": "unocc",
				"energy": 0.07156,
				"method": "rhf"
			},
			{
				"type": "unocc",
				"energy": 0.09242,
				"method": "rhf"
			}
		],
		"cosmo_sigma_profile": { 
			"-0.025": 0.0,
			"-0.024": 0.0,
			"-0.023": 0.0,
			"-0.022": 0.0,
			"-0.021": 0.0,
			"-0.02": 0.0,
			"-0.019": 0.0,
			"-0.018": 0.0,
			"-0.017": 0.0,
			"-0.016": 0.0,
			"-0.015": 0.0,
			"-0.014": 0.0,
			"-0.013": 0.0,
			"-0.012": 0.0,
			"-0.011": 0.0,
			"-0.01": 0.000157220154207,
			"-0.009": 2.37796760878,
			"-0.008": 7.35144735111,
			"-0.007": 11.1066785608,
			"-0.006": 15.3921623262,
			"-0.005": 16.5554361112,
			"-0.004": 13.9851291312,
			"-0.003": 13.5532148458,
			"-0.002": 11.9076689318,
			"-0.001": 11.4286725839,
			"0.0": 11.5703684469,
			"0.001": 12.5944212697,
			"0.002": 16.1208429343,
			"0.003": 16.5672655876,
			"0.004": 5.76712575981,
			"0.005": 6.41903400334,
			"0.006": 4.75184315058,
			"0.007": 3.39904891233,
			"0.008": 2.47596182188,
			"0.009": 2.63033640527,
			"0.01": 3.22636569753,
			"0.011": 1.88942422291,
			"0.012": 1.66639098515,
			"0.013": 2.31685574437,
			"0.014": 1.58431924609,
			"0.015": 2.09868452363,
			"0.016": 1.35128204972,
			"0.017": 1.19995414526,
			"0.018": 0.893339800885,
			"0.019": 0.14465336564,
			"0.02": 0.0,
			"0.021": 0.0,
			"0.022": 0.0,
			"0.023": 0.0,
			"0.024": 0.0,
			"0.025": 0.0
		}
	}
}
