{
	 "smiles": "CC1=NN(C(=O)N1C(F)F)C1=CC(NS(C)(=O)=O)=C(Cl)C=C1Cl", 
	 "Tm": 395.15, 
	 "num_atms": 33, 
	 "gaussian": { 
		 "optdone": 1, 
		 "sigma_profile": "yes", 
		 "theory": "DFT", 
		 "functional": "B3LYP", 
		 "basiset": "6-31G**", 
		 "properties": { 
			 "R2extent": 12463.0214, 
			 "electric_dipole_moment_norm": 6.40783132971, 
			 "electric_quadrupole_moment_norm": 26.1681773486, 
			 "total_energy": -2388.04832161, 
			 "HOMO_LUMO_gap": 0.19231, 
			 "cosmo_polarized_energy": -26.82, 
			 "cosmo_cavitation_energy": 44.14, 
			 "cosmo_dispersion_energy": -30.56, 
			 "cosmo_repulsion_energy": 2.27, 
			 "cosmo_total_nonelectrostatic_energy": 15.85, 
			 "SMD_solvation_energy": 7.45 
		},
		"coords": [
			{
				"x": 3.2147935928,
				"y": 0.0640582829,
				"z": -3.3809515573,
				"element": "C" 
			},
			{
				"x": 2.282953068,
				"y": 0.6904933743,
				"z": -2.4031726313,
				"element": "C" 
			},
			{
				"x": 0.9890802309,
				"y": 0.670858434,
				"z": -2.4908272191,
				"element": "N" 
			},
			{
				"x": 0.5286685572,
				"y": 1.3961782946,
				"z": -1.3926486176,
				"element": "N" 
			},
			{
				"x": 1.5571266608,
				"y": 1.8245143669,
				"z": -0.564032691,
				"element": "C" 
			},
			{
				"x": 1.524027089,
				"y": 2.4057625169,
				"z": 0.5019887209,
				"element": "O" 
			},
			{
				"x": 2.6965786387,
				"y": 1.3880803478,
				"z": -1.2733421482,
				"element": "N" 
			},
			{
				"x": 4.0183118583,
				"y": 1.6026530498,
				"z": -0.7958325299,
				"element": "C" 
			},
			{
				"x": 4.7568738543,
				"y": 2.2559000609,
				"z": -1.7335472922,
				"element": "F" 
			},
			{
				"x": 4.6400761313,
				"y": 0.4109271153,
				"z": -0.571206267,
				"element": "F" 
			},
			{
				"x": -0.856807262,
				"y": 1.4599498283,
				"z": -1.1173029839,
				"element": "C" 
			},
			{
				"x": -1.5904717257,
				"y": 0.2729402326,
				"z": -1.0705838624,
				"element": "C" 
			},
			{
				"x": -2.9665643974,
				"y": 0.2566547148,
				"z": -0.8287699659,
				"element": "C" 
			},
			{
				"x": -3.6883795081,
				"y": -0.9687539281,
				"z": -0.8334226495,
				"element": "N" 
			},
			{
				"x": -3.9950443362,
				"y": -1.84476411,
				"z": 0.5929829516,
				"element": "S" 
			},
			{
				"x": -2.3810835471,
				"y": -2.4205618536,
				"z": 1.1691644989,
				"element": "C" 
			},
			{
				"x": -4.7543167432,
				"y": -3.0116223291,
				"z": 0.1501088387,
				"element": "O" 
			},
			{
				"x": -4.4909194867,
				"y": -0.9032539372,
				"z": 1.5894569821,
				"element": "O" 
			},
			{
				"x": -3.6191115955,
				"y": 1.4878136931,
				"z": -0.6194729652,
				"element": "C" 
			},
			{
				"x": -5.3394406517,
				"y": 1.5713112565,
				"z": -0.3904433078,
				"element": "Cl" 
			},
			{
				"x": -2.8966822022,
				"y": 2.6797875143,
				"z": -0.6472009101,
				"element": "C" 
			},
			{
				"x": -1.5275126949,
				"y": 2.6749604028,
				"z": -0.9114845785,
				"element": "C" 
			},
			{
				"x": -0.7011994851,
				"y": 4.202080364,
				"z": -1.0448404272,
				"element": "Cl" 
			},
			{
				"x": 2.631471641,
				"y": -0.4322205291,
				"z": -4.157070443,
				"element": "H" 
			},
			{
				"x": 3.8592059356,
				"y": 0.8210104984,
				"z": -3.8379415513,
				"element": "H" 
			},
			{
				"x": 3.8628786675,
				"y": -0.6646774808,
				"z": -2.8851443068,
				"element": "H" 
			},
			{
				"x": 3.9696986732,
				"y": 2.1840070057,
				"z": 0.1276732634,
				"element": "H" 
			},
			{
				"x": -1.0652342979,
				"y": -0.6604301691,
				"z": -1.2432789636,
				"element": "H" 
			},
			{
				"x": -3.5075175578,
				"y": -1.5951507719,
				"z": -1.6110925657,
				"element": "H" 
			},
			{
				"x": -2.5579832913,
				"y": -2.9527467576,
				"z": 2.1055982452,
				"element": "H" 
			},
			{
				"x": -1.9525707948,
				"y": -3.0971460286,
				"z": 0.4283113832,
				"element": "H" 
			},
			{
				"x": -1.7355243472,
				"y": -1.559333648,
				"z": 1.3459789243,
				"element": "H" 
			},
			{
				"x": -3.4099806742,
				"y": 3.6219201889,
				"z": -0.5013533738,
				"element": "H" 
			}
		],
		 "valence_orbital": [ 
			{
				"type": "occ",
				"energy": -0.30766,
				"method": "rhf"
			},
			{
				"type": "occ",
				"energy": -0.29307,
				"method": "rhf"
			},
			{
				"type": "occ",
				"energy": -0.27968,
				"method": "rhf"
			},
			{
				"type": "occ",
				"energy": -0.26536,
				"method": "rhf"
			},
			{
				"type": "occ",
				"energy": -0.24369,
				"method": "rhf"
			},
			{
				"type": "unocc",
				"energy": -0.05138,
				"method": "rhf"
			},
			{
				"type": "unocc",
				"energy": -0.04932,
				"method": "rhf"
			},
			{
				"type": "unocc",
				"energy": -0.01394,
				"method": "rhf"
			},
			{
				"type": "unocc",
				"energy": -0.00068,
				"method": "rhf"
			},
			{
				"type": "unocc",
				"energy": 0.0247,
				"method": "rhf"
			}
		],
		"cosmo_sigma_profile": { 
			"-0.025": 0.0,
			"-0.024": 0.0,
			"-0.023": 0.0,
			"-0.022": 0.0,
			"-0.021": 0.0,
			"-0.02": 0.0,
			"-0.019": 0.0,
			"-0.018": 0.0,
			"-0.017": 0.11851874599,
			"-0.016": 1.32830064519,
			"-0.015": 1.23094264452,
			"-0.014": 1.26768744647,
			"-0.013": 1.96705390572,
			"-0.012": 2.24739111687,
			"-0.011": 2.62028232842,
			"-0.01": 3.34404415452,
			"-0.009": 7.68506196259,
			"-0.008": 9.14409244772,
			"-0.007": 12.4791622044,
			"-0.006": 18.0994289844,
			"-0.005": 21.3391167567,
			"-0.004": 21.7770936043,
			"-0.003": 24.1802085432,
			"-0.002": 20.6065058844,
			"-0.001": 26.152707999,
			"0.0": 23.4477958978,
			"0.001": 18.8245229769,
			"0.002": 20.5492899796,
			"0.003": 31.3285520833,
			"0.004": 16.4291797757,
			"0.005": 8.29328718807,
			"0.006": 8.20123963593,
			"0.007": 7.8903611586,
			"0.008": 6.98946904445,
			"0.009": 6.62667794501,
			"0.01": 11.1405787823,
			"0.011": 15.0131582074,
			"0.012": 7.01289982498,
			"0.013": 0.331451568667,
			"0.014": 0.0,
			"0.015": 0.0,
			"0.016": 0.0,
			"0.017": 0.0,
			"0.018": 0.0,
			"0.019": 0.0,
			"0.02": 0.0,
			"0.021": 0.0,
			"0.022": 0.0,
			"0.023": 0.0,
			"0.024": 0.0,
			"0.025": 0.0
		}
	}
}
