{
	 "smiles": "NC1=CC=C(NC2=C3C(=O)C4=CC=CC=C4C(=O)C3=C(N)C=C2)C2=C1C(=O)C1=C(C=CC=C1)C2=O", 
	 "Tm": 548.15, 
	 "num_atms": 52, 
	 "gaussian": { 
		 "optdone": 1, 
		 "sigma_profile": "yes", 
		 "theory": "DFT", 
		 "functional": "B3LYP", 
		 "basiset": "6-31G**", 
		 "properties": { 
			 "R2extent": 20091.1307, 
			 "electric_dipole_moment_norm": 3.90271928404, 
			 "electric_quadrupole_moment_norm": 21.5024526301, 
			 "total_energy": -1542.44237853, 
			 "HOMO_LUMO_gap": 0.08027, 
			 "cosmo_polarized_energy": -24.92, 
			 "cosmo_cavitation_energy": 55.0, 
			 "cosmo_dispersion_energy": -40.53, 
			 "cosmo_repulsion_energy": 2.86, 
			 "cosmo_total_nonelectrostatic_energy": 17.33, 
			 "SMD_solvation_energy": 9.01 
		},
		"coords": [
			{
				"x": -3.6607512349,
				"y": 1.6424113663,
				"z": -3.63204347,
				"element": "N" 
			},
			{
				"x": -2.7730432034,
				"y": 1.3805186712,
				"z": -2.6399668011,
				"element": "C" 
			},
			{
				"x": -3.2561273703,
				"y": 0.9381472552,
				"z": -1.3792709965,
				"element": "C" 
			},
			{
				"x": -2.4080850889,
				"y": 0.6899210222,
				"z": -0.3337737461,
				"element": "C" 
			},
			{
				"x": -1.0009435621,
				"y": 0.8629290726,
				"z": -0.4471647169,
				"element": "C" 
			},
			{
				"x": -0.1854920053,
				"y": 0.5870876638,
				"z": 0.6406637158,
				"element": "N" 
			},
			{
				"x": -0.5235847155,
				"y": 0.6855382096,
				"z": 1.9823968358,
				"element": "C" 
			},
			{
				"x": 0.1297912302,
				"y": -0.0704855002,
				"z": 2.9867746151,
				"element": "C" 
			},
			{
				"x": 1.2218857682,
				"y": -0.9972519223,
				"z": 2.6182497778,
				"element": "C" 
			},
			{
				"x": 1.6838512806,
				"y": -1.0557113733,
				"z": 1.4718136933,
				"element": "O" 
			},
			{
				"x": 1.7885318595,
				"y": -1.8794629149,
				"z": 3.6719360839,
				"element": "C" 
			},
			{
				"x": 2.7612482254,
				"y": -2.825153158,
				"z": 3.3192930259,
				"element": "C" 
			},
			{
				"x": 3.3165287734,
				"y": -3.6495367833,
				"z": 4.2920602331,
				"element": "C" 
			},
			{
				"x": 2.9131229779,
				"y": -3.5301148509,
				"z": 5.6291022349,
				"element": "C" 
			},
			{
				"x": 1.9552166509,
				"y": -2.5877219385,
				"z": 5.9874577625,
				"element": "C" 
			},
			{
				"x": 1.3851579676,
				"y": -1.7592494676,
				"z": 5.0106844716,
				"element": "C" 
			},
			{
				"x": 0.3636626283,
				"y": -0.7588856836,
				"z": 5.4097033347,
				"element": "C" 
			},
			{
				"x": 0.0554029462,
				"y": -0.6637000784,
				"z": 6.6130328732,
				"element": "O" 
			},
			{
				"x": -0.2592590234,
				"y": 0.0647467842,
				"z": 4.3644948461,
				"element": "C" 
			},
			{
				"x": -1.2773805021,
				"y": 0.9877094021,
				"z": 4.7314514421,
				"element": "C" 
			},
			{
				"x": -1.6974895268,
				"y": 1.1497087406,
				"z": 6.0113701292,
				"element": "N" 
			},
			{
				"x": -1.8662392399,
				"y": 1.7750730008,
				"z": 3.7059056565,
				"element": "C" 
			},
			{
				"x": -1.5036902705,
				"y": 1.6305044009,
				"z": 2.3938520022,
				"element": "C" 
			},
			{
				"x": -0.4800089042,
				"y": 1.2407320026,
				"z": -1.7093238809,
				"element": "C" 
			},
			{
				"x": -1.3672872569,
				"y": 1.5199465605,
				"z": -2.8058959204,
				"element": "C" 
			},
			{
				"x": -0.8464014978,
				"y": 1.9763173284,
				"z": -4.101774885,
				"element": "C" 
			},
			{
				"x": -1.585382471,
				"y": 2.2216202561,
				"z": -5.0743061162,
				"element": "O" 
			},
			{
				"x": 0.6174452817,
				"y": 2.1736933563,
				"z": -4.2488549107,
				"element": "C" 
			},
			{
				"x": 1.4920100767,
				"y": 1.8784872685,
				"z": -3.1917840101,
				"element": "C" 
			},
			{
				"x": 2.8716594302,
				"y": 2.0640433262,
				"z": -3.3560552456,
				"element": "C" 
			},
			{
				"x": 3.3708926957,
				"y": 2.5501814849,
				"z": -4.5596587923,
				"element": "C" 
			},
			{
				"x": 2.4973998923,
				"y": 2.8458762459,
				"z": -5.6152441824,
				"element": "C" 
			},
			{
				"x": 1.1282997698,
				"y": 2.6553887465,
				"z": -5.4622859042,
				"element": "C" 
			},
			{
				"x": 0.9828623406,
				"y": 1.3413129297,
				"z": -1.9026489225,
				"element": "C" 
			},
			{
				"x": 1.792378116,
				"y": 0.9863208406,
				"z": -1.0367824519,
				"element": "O" 
			},
			{
				"x": -3.2838552842,
				"y": 1.9130482439,
				"z": -4.5349307382,
				"element": "H" 
			},
			{
				"x": -4.6426694712,
				"y": 1.4817544457,
				"z": -3.4836095806,
				"element": "H" 
			},
			{
				"x": -4.3242135852,
				"y": 0.7755574681,
				"z": -1.2575045148,
				"element": "H" 
			},
			{
				"x": -2.8138868059,
				"y": 0.3146271096,
				"z": 0.5986287193,
				"element": "H" 
			},
			{
				"x": 0.7649096614,
				"y": 0.2791023626,
				"z": 0.4315928598,
				"element": "H" 
			},
			{
				"x": 3.06156664,
				"y": -2.8883189265,
				"z": 2.2791784329,
				"element": "H" 
			},
			{
				"x": 4.0660583686,
				"y": -4.385323548,
				"z": 4.0151027877,
				"element": "H" 
			},
			{
				"x": 3.3508461975,
				"y": -4.1730123913,
				"z": 6.387397231,
				"element": "H" 
			},
			{
				"x": 1.6286635315,
				"y": -2.4701632558,
				"z": 7.0147577039,
				"element": "H" 
			},
			{
				"x": -2.383829821,
				"y": 1.851917726,
				"z": 6.230158045,
				"element": "H" 
			},
			{
				"x": -1.22604271,
				"y": 0.6075023127,
				"z": 6.7284967631,
				"element": "H" 
			},
			{
				"x": -2.6063947191,
				"y": 2.5222192403,
				"z": 3.9816097531,
				"element": "H" 
			},
			{
				"x": -1.9478398013,
				"y": 2.2795373171,
				"z": 1.6479514091,
				"element": "H" 
			},
			{
				"x": 3.5245693063,
				"y": 1.8172285951,
				"z": -2.5261079117,
				"element": "H" 
			},
			{
				"x": 4.4399510818,
				"y": 2.6983475003,
				"z": -4.6823064091,
				"element": "H" 
			},
			{
				"x": 2.8902960943,
				"y": 3.2223344553,
				"z": -6.55537181,
				"element": "H" 
			},
			{
				"x": 0.4304892782,
				"y": 2.8706990803,
				"z": -6.2638505214,
				"element": "H" 
			}
		],
		 "valence_orbital": [ 
			{
				"type": "occ",
				"energy": -0.2549,
				"method": "rhf"
			},
			{
				"type": "occ",
				"energy": -0.24654,
				"method": "rhf"
			},
			{
				"type": "occ",
				"energy": -0.2447,
				"method": "rhf"
			},
			{
				"type": "occ",
				"energy": -0.21536,
				"method": "rhf"
			},
			{
				"type": "occ",
				"energy": -0.17738,
				"method": "rhf"
			},
			{
				"type": "unocc",
				"energy": -0.09711,
				"method": "rhf"
			},
			{
				"type": "unocc",
				"energy": -0.08634,
				"method": "rhf"
			},
			{
				"type": "unocc",
				"energy": -0.04538,
				"method": "rhf"
			},
			{
				"type": "unocc",
				"energy": -0.03625,
				"method": "rhf"
			},
			{
				"type": "unocc",
				"energy": -0.01818,
				"method": "rhf"
			}
		],
		"cosmo_sigma_profile": { 
			"-0.025": 0.0,
			"-0.024": 0.0,
			"-0.023": 0.0,
			"-0.022": 0.0,
			"-0.021": 0.0,
			"-0.02": 0.0,
			"-0.019": 0.0,
			"-0.018": 0.0,
			"-0.017": 0.0,
			"-0.016": 0.0,
			"-0.015": 0.171950407439,
			"-0.014": 2.67510076428,
			"-0.013": 2.99753533623,
			"-0.012": 2.72740105629,
			"-0.011": 3.23269657646,
			"-0.01": 3.1952051695,
			"-0.009": 3.66706740563,
			"-0.008": 6.75604770816,
			"-0.007": 14.5546828326,
			"-0.006": 20.8270036607,
			"-0.005": 23.9825618608,
			"-0.004": 23.3123372038,
			"-0.003": 21.468120986,
			"-0.002": 25.479767234,
			"-0.001": 30.8701940945,
			"0.0": 32.3843257972,
			"0.001": 49.5867395887,
			"0.002": 59.0904461897,
			"0.003": 41.9157922426,
			"0.004": 16.1731660482,
			"0.005": 9.14588682597,
			"0.006": 8.24739632374,
			"0.007": 6.85634361045,
			"0.008": 6.8424737368,
			"0.009": 6.63245555402,
			"0.01": 8.06292969701,
			"0.011": 9.43250288659,
			"0.012": 4.3491793183,
			"0.013": 0.0100090693187,
			"0.014": 0.0,
			"0.015": 0.0,
			"0.016": 0.0,
			"0.017": 0.0,
			"0.018": 0.0,
			"0.019": 0.0,
			"0.02": 0.0,
			"0.021": 0.0,
			"0.022": 0.0,
			"0.023": 0.0,
			"0.024": 0.0,
			"0.025": 0.0
		}
	}
}
