{
	 "smiles": "COC1=CC(F)=CC=C1C=O", 
	 "Tm": 334.15, 
	 "num_atms": 18, 
	 "gaussian": { 
		 "optdone": 1, 
		 "sigma_profile": "yes", 
		 "theory": "DFT", 
		 "functional": "B3LYP", 
		 "basiset": "6-31G**", 
		 "properties": { 
			 "R2extent": 1920.3596, 
			 "electric_dipole_moment_norm": 4.04994801695, 
			 "electric_quadrupole_moment_norm": 16.6108364573, 
			 "total_energy": -559.330281774, 
			 "HOMO_LUMO_gap": 0.18283, 
			 "cosmo_polarized_energy": -8.83, 
			 "cosmo_cavitation_energy": 23.05, 
			 "cosmo_dispersion_energy": -16.74, 
			 "cosmo_repulsion_energy": 1.31, 
			 "cosmo_total_nonelectrostatic_energy": 7.62, 
			 "SMD_solvation_energy": 6.42 
		},
		"coords": [
			{
				"x": -2.8025013508,
				"y": -0.592415672,
				"z": -1.2692265508,
				"element": "C" 
			},
			{
				"x": -2.0768377164,
				"y": -0.9326058112,
				"z": -0.0938841804,
				"element": "O" 
			},
			{
				"x": -0.8590374995,
				"y": -0.3694970061,
				"z": 0.1112561228,
				"element": "C" 
			},
			{
				"x": -0.2690120503,
				"y": 0.5371563677,
				"z": -0.7771252617,
				"element": "C" 
			},
			{
				"x": 0.9851018059,
				"y": 1.0518021989,
				"z": -0.4641047803,
				"element": "C" 
			},
			{
				"x": 1.5397873639,
				"y": 1.9222694396,
				"z": -1.3275261897,
				"element": "F" 
			},
			{
				"x": 1.6838396543,
				"y": 0.7099353377,
				"z": 0.6899391469,
				"element": "C" 
			},
			{
				"x": 1.0825241262,
				"y": -0.1911319257,
				"z": 1.5595627271,
				"element": "C" 
			},
			{
				"x": -0.1791197773,
				"y": -0.7422454583,
				"z": 1.2966855277,
				"element": "C" 
			},
			{
				"x": -0.7632555005,
				"y": -1.6959914304,
				"z": 2.2636579108,
				"element": "C" 
			},
			{
				"x": -0.2040258297,
				"y": -2.0374222651,
				"z": 3.2931434297,
				"element": "O" 
			},
			{
				"x": -2.2542106868,
				"y": -0.8780676157,
				"z": -2.1749489856,
				"element": "H" 
			},
			{
				"x": -3.0291409133,
				"y": 0.479973325,
				"z": -1.3034325417,
				"element": "H" 
			},
			{
				"x": -3.7338334316,
				"y": -1.1570298106,
				"z": -1.2175390549,
				"element": "H" 
			},
			{
				"x": -0.7471248253,
				"y": 0.8530867756,
				"z": -1.694597039,
				"element": "H" 
			},
			{
				"x": 2.6585387263,
				"y": 1.142788903,
				"z": 0.881982478,
				"element": "H" 
			},
			{
				"x": 1.5746936682,
				"y": -0.4988987125,
				"z": 2.4767575999,
				"element": "H" 
			},
			{
				"x": -1.7598857634,
				"y": -2.0952066397,
				"z": 1.9994996412,
				"element": "H" 
			}
		],
		 "valence_orbital": [ 
			{
				"type": "occ",
				"energy": -0.3578,
				"method": "rhf"
			},
			{
				"type": "occ",
				"energy": -0.33239,
				"method": "rhf"
			},
			{
				"type": "occ",
				"energy": -0.26313,
				"method": "rhf"
			},
			{
				"type": "occ",
				"energy": -0.24664,
				"method": "rhf"
			},
			{
				"type": "occ",
				"energy": -0.24016,
				"method": "rhf"
			},
			{
				"type": "unocc",
				"energy": -0.05733,
				"method": "rhf"
			},
			{
				"type": "unocc",
				"energy": -0.00977,
				"method": "rhf"
			},
			{
				"type": "unocc",
				"energy": 0.04285,
				"method": "rhf"
			},
			{
				"type": "unocc",
				"energy": 0.07748,
				"method": "rhf"
			},
			{
				"type": "unocc",
				"energy": 0.09085,
				"method": "rhf"
			}
		],
		"cosmo_sigma_profile": { 
			"-0.025": 0.0,
			"-0.024": 0.0,
			"-0.023": 0.0,
			"-0.022": 0.0,
			"-0.021": 0.0,
			"-0.02": 0.0,
			"-0.019": 0.0,
			"-0.018": 0.0,
			"-0.017": 0.0,
			"-0.016": 0.0,
			"-0.015": 0.0,
			"-0.014": 0.0,
			"-0.013": 0.0,
			"-0.012": 0.0,
			"-0.011": 0.0,
			"-0.01": 0.0,
			"-0.009": 0.195609327106,
			"-0.008": 2.68643842155,
			"-0.007": 6.05949056763,
			"-0.006": 12.7990789192,
			"-0.005": 14.2521234559,
			"-0.004": 14.4423354183,
			"-0.003": 12.8479304365,
			"-0.002": 9.52127107347,
			"-0.001": 12.0012267743,
			"0.0": 17.4021789162,
			"0.001": 19.5733800402,
			"0.002": 15.0971618955,
			"0.003": 13.8869036226,
			"0.004": 11.4001303118,
			"0.005": 3.61015710212,
			"0.006": 2.50659813024,
			"0.007": 1.79027683284,
			"0.008": 1.97242361622,
			"0.009": 1.35607274795,
			"0.01": 2.44403352996,
			"0.011": 3.82225899154,
			"0.012": 3.57783679276,
			"0.013": 1.48172771645,
			"0.014": 0.122335687646,
			"0.015": 0.0,
			"0.016": 0.0,
			"0.017": 0.0,
			"0.018": 0.0,
			"0.019": 0.0,
			"0.02": 0.0,
			"0.021": 0.0,
			"0.022": 0.0,
			"0.023": 0.0,
			"0.024": 0.0,
			"0.025": 0.0
		}
	}
}
