{
	 "smiles": "CCCC(C)=CC(O)=O", 
	 "Tm": 307.15, 
	 "num_atms": 21, 
	 "gaussian": { 
		 "optdone": 1, 
		 "sigma_profile": "yes", 
		 "theory": "DFT", 
		 "functional": "B3LYP", 
		 "basiset": "6-31G**", 
		 "properties": { 
			 "R2extent": 1767.8748, 
			 "electric_dipole_moment_norm": 2.81463897152, 
			 "electric_quadrupole_moment_norm": 8.7558631956, 
			 "total_energy": -424.437920761, 
			 "HOMO_LUMO_gap": 0.2193, 
			 "cosmo_polarized_energy": -8.7, 
			 "cosmo_cavitation_energy": 24.11, 
			 "cosmo_dispersion_energy": -17.1, 
			 "cosmo_repulsion_energy": 1.44, 
			 "cosmo_total_nonelectrostatic_energy": 8.45, 
			 "SMD_solvation_energy": 5.63 
		},
		"coords": [
			{
				"x": -1.7159602045,
				"y": 1.1251963441,
				"z": -3.2982741922,
				"element": "C" 
			},
			{
				"x": -1.2104471994,
				"y": 1.0318863612,
				"z": -1.8558295216,
				"element": "C" 
			},
			{
				"x": -0.0480354572,
				"y": 0.025336194,
				"z": -1.7048426838,
				"element": "C" 
			},
			{
				"x": 0.5128593345,
				"y": -0.0080260448,
				"z": -0.2999622947,
				"element": "C" 
			},
			{
				"x": 1.6485913028,
				"y": 0.9520846329,
				"z": -0.0474292888,
				"element": "C" 
			},
			{
				"x": 0.0777689676,
				"y": -0.7887738209,
				"z": 0.7118334462,
				"element": "C" 
			},
			{
				"x": -0.9959446975,
				"y": -1.796281669,
				"z": 0.7384669115,
				"element": "C" 
			},
			{
				"x": -1.7432259519,
				"y": -1.9002540685,
				"z": -0.3974255301,
				"element": "O" 
			},
			{
				"x": -1.2294832422,
				"y": -2.4953610117,
				"z": 1.7073270853,
				"element": "O" 
			},
			{
				"x": -2.544718488,
				"y": 1.8357228042,
				"z": -3.3818102223,
				"element": "H" 
			},
			{
				"x": -2.073373036,
				"y": 0.152552705,
				"z": -3.6541904579,
				"element": "H" 
			},
			{
				"x": -0.9233078867,
				"y": 1.4566387599,
				"z": -3.9788877605,
				"element": "H" 
			},
			{
				"x": -2.0257166421,
				"y": 0.720916318,
				"z": -1.1943012293,
				"element": "H" 
			},
			{
				"x": -0.887972786,
				"y": 2.0238879218,
				"z": -1.513761174,
				"element": "H" 
			},
			{
				"x": 0.7573540439,
				"y": 0.3114459056,
				"z": -2.3940744309,
				"element": "H" 
			},
			{
				"x": -0.4011043946,
				"y": -0.9633611735,
				"z": -2.0025244176,
				"element": "H" 
			},
			{
				"x": 1.3637868602,
				"y": 1.9717175891,
				"z": -0.3357911953,
				"element": "H" 
			},
			{
				"x": 2.5156836052,
				"y": 0.6870715717,
				"z": -0.6660901168,
				"element": "H" 
			},
			{
				"x": 1.961585472,
				"y": 0.9634894325,
				"z": 0.9992133053,
				"element": "H" 
			},
			{
				"x": 0.56494981,
				"y": -0.7134509059,
				"z": 1.6794775305,
				"element": "H" 
			},
			{
				"x": -2.3901894101,
				"y": -2.5999378458,
				"z": -0.2067237629,
				"element": "H" 
			}
		],
		 "valence_orbital": [ 
			{
				"type": "occ",
				"energy": -0.33643,
				"method": "rhf"
			},
			{
				"type": "occ",
				"energy": -0.32868,
				"method": "rhf"
			},
			{
				"type": "occ",
				"energy": -0.3111,
				"method": "rhf"
			},
			{
				"type": "occ",
				"energy": -0.26774,
				"method": "rhf"
			},
			{
				"type": "occ",
				"energy": -0.25739,
				"method": "rhf"
			},
			{
				"type": "unocc",
				"energy": -0.03809,
				"method": "rhf"
			},
			{
				"type": "unocc",
				"energy": 0.07485,
				"method": "rhf"
			},
			{
				"type": "unocc",
				"energy": 0.09191,
				"method": "rhf"
			},
			{
				"type": "unocc",
				"energy": 0.0952,
				"method": "rhf"
			},
			{
				"type": "unocc",
				"energy": 0.11259,
				"method": "rhf"
			}
		],
		"cosmo_sigma_profile": { 
			"-0.025": 0.0,
			"-0.024": 0.0,
			"-0.023": 0.0,
			"-0.022": 0.0,
			"-0.021": 0.0,
			"-0.02": 0.0,
			"-0.019": 0.0,
			"-0.018": 0.0435946302114,
			"-0.017": 1.05699270974,
			"-0.016": 0.580558473886,
			"-0.015": 0.802074463858,
			"-0.014": 0.773293787143,
			"-0.013": 1.09695804699,
			"-0.012": 0.338752297725,
			"-0.011": 0.27574240753,
			"-0.01": 1.02376463211,
			"-0.009": 0.770924258301,
			"-0.008": 0.691389911551,
			"-0.007": 0.376274594254,
			"-0.006": 1.71218617914,
			"-0.005": 8.26951470446,
			"-0.004": 11.1765443586,
			"-0.003": 16.2954148382,
			"-0.002": 20.4805611309,
			"-0.001": 25.9120913213,
			"0.0": 27.2017957782,
			"0.001": 22.4254864871,
			"0.002": 11.1084003413,
			"0.003": 7.72187350546,
			"0.004": 4.38737061945,
			"0.005": 3.6577473245,
			"0.006": 2.71091152721,
			"0.007": 1.61075946169,
			"0.008": 1.42313226179,
			"0.009": 1.42640894189,
			"0.01": 1.20402463197,
			"0.011": 2.14671367608,
			"0.012": 4.81676135928,
			"0.013": 3.98202032177,
			"0.014": 0.516495149362,
			"0.015": 0.0,
			"0.016": 0.0,
			"0.017": 0.0,
			"0.018": 0.0,
			"0.019": 0.0,
			"0.02": 0.0,
			"0.021": 0.0,
			"0.022": 0.0,
			"0.023": 0.0,
			"0.024": 0.0,
			"0.025": 0.0
		}
	}
}
