{
	 "smiles": "OCC1OC(O)C(O)C(O)C1O", 
	 "Tm": 443.15, 
	 "num_atms": 24, 
	 "gaussian": { 
		 "optdone": 1, 
		 "sigma_profile": "yes", 
		 "theory": "DFT", 
		 "functional": "B3LYP", 
		 "basiset": "6-31G**", 
		 "properties": { 
			 "R2extent": 2462.1389, 
			 "electric_dipole_moment_norm": 2.30165712911, 
			 "electric_quadrupole_moment_norm": 6.49986688556, 
			 "total_energy": -687.164730705, 
			 "HOMO_LUMO_gap": 0.30586, 
			 "cosmo_polarized_energy": -17.45, 
			 "cosmo_cavitation_energy": 25.65, 
			 "cosmo_dispersion_energy": -19.42, 
			 "cosmo_repulsion_energy": 1.58, 
			 "cosmo_total_nonelectrostatic_energy": 7.82, 
			 "SMD_solvation_energy": 4.06 
		},
		"coords": [
			{
				"x": -1.7685580648,
				"y": -2.4877784761,
				"z": -0.8219373314,
				"element": "O" 
			},
			{
				"x": -0.555376207,
				"y": -1.902284428,
				"z": -0.3814395565,
				"element": "C" 
			},
			{
				"x": -0.8292907406,
				"y": -0.4744729289,
				"z": 0.0494106564,
				"element": "C" 
			},
			{
				"x": -1.1324487369,
				"y": 0.291024821,
				"z": -1.1245574184,
				"element": "O" 
			},
			{
				"x": -1.6419585613,
				"y": 1.5884580827,
				"z": -0.8663588892,
				"element": "C" 
			},
			{
				"x": -1.3150307495,
				"y": 2.4035124624,
				"z": -1.9630914268,
				"element": "O" 
			},
			{
				"x": -0.9557327023,
				"y": 2.2226053026,
				"z": 0.362871173,
				"element": "C" 
			},
			{
				"x": -0.9324384019,
				"y": 3.6400803762,
				"z": 0.3087656703,
				"element": "O" 
			},
			{
				"x": 0.458636057,
				"y": 1.6469423275,
				"z": 0.466986749,
				"element": "C" 
			},
			{
				"x": 1.1859374432,
				"y": 2.2954603093,
				"z": 1.4998473712,
				"element": "O" 
			},
			{
				"x": 0.3656834901,
				"y": 0.14744115,
				"z": 0.8127590426,
				"element": "C" 
			},
			{
				"x": 0.1325460603,
				"y": -0.0271501938,
				"z": 2.1981481871,
				"element": "O" 
			},
			{
				"x": -1.5801371936,
				"y": -3.3913636704,
				"z": -1.1025528507,
				"element": "H" 
			},
			{
				"x": -0.1335396215,
				"y": -2.4336820881,
				"z": 0.4861880755,
				"element": "H" 
			},
			{
				"x": 0.2075675542,
				"y": -1.8876118373,
				"z": -1.1765711503,
				"element": "H" 
			},
			{
				"x": -1.6908195513,
				"y": -0.4831480444,
				"z": 0.7319068898,
				"element": "H" 
			},
			{
				"x": -2.7358093883,
				"y": 1.5325713905,
				"z": -0.7367245415,
				"element": "H" 
			},
			{
				"x": -1.6176386285,
				"y": 1.960070065,
				"z": -2.7663315135,
				"element": "H" 
			},
			{
				"x": -1.500711973,
				"y": 1.9562047603,
				"z": 1.2744586781,
				"element": "H" 
			},
			{
				"x": -0.8063938884,
				"y": 3.8713785821,
				"z": -0.6254161584,
				"element": "H" 
			},
			{
				"x": 0.9655118885,
				"y": 1.7699827163,
				"z": -0.5003666919,
				"element": "H" 
			},
			{
				"x": 0.8747815508,
				"y": 3.2152367359,
				"z": 1.4948681752,
				"element": "H" 
			},
			{
				"x": 1.3069497378,
				"y": -0.3449729086,
				"z": 0.5160778247,
				"element": "H" 
			},
			{
				"x": 0.6394706272,
				"y": 0.6816954938,
				"z": 2.6282590358,
				"element": "H" 
			}
		],
		 "valence_orbital": [ 
			{
				"type": "occ",
				"energy": -0.29655,
				"method": "rhf"
			},
			{
				"type": "occ",
				"energy": -0.28303,
				"method": "rhf"
			},
			{
				"type": "occ",
				"energy": -0.2716,
				"method": "rhf"
			},
			{
				"type": "occ",
				"energy": -0.27055,
				"method": "rhf"
			},
			{
				"type": "occ",
				"energy": -0.24549,
				"method": "rhf"
			},
			{
				"type": "unocc",
				"energy": 0.06037,
				"method": "rhf"
			},
			{
				"type": "unocc",
				"energy": 0.07181,
				"method": "rhf"
			},
			{
				"type": "unocc",
				"energy": 0.08347,
				"method": "rhf"
			},
			{
				"type": "unocc",
				"energy": 0.10129,
				"method": "rhf"
			},
			{
				"type": "unocc",
				"energy": 0.10558,
				"method": "rhf"
			}
		],
		"cosmo_sigma_profile": { 
			"-0.025": 0.0,
			"-0.024": 0.0,
			"-0.023": 0.0,
			"-0.022": 0.0,
			"-0.021": 0.0,
			"-0.02": 0.0,
			"-0.019": 0.0,
			"-0.018": 0.00847776686155,
			"-0.017": 0.746564876078,
			"-0.016": 1.97460971438,
			"-0.015": 1.56924811465,
			"-0.014": 1.88900935002,
			"-0.013": 1.84105656432,
			"-0.012": 2.74724811424,
			"-0.011": 2.65518355636,
			"-0.01": 2.73953294503,
			"-0.009": 3.44982037997,
			"-0.008": 3.40319909761,
			"-0.007": 4.80555424656,
			"-0.006": 7.55419328703,
			"-0.005": 14.2173505075,
			"-0.004": 21.1730551988,
			"-0.003": 13.6401842103,
			"-0.002": 11.8236763502,
			"-0.001": 11.1664100745,
			"0.0": 9.23392284531,
			"0.001": 6.5283056966,
			"0.002": 5.66852308168,
			"0.003": 6.21695885939,
			"0.004": 6.98384692199,
			"0.005": 7.25468544398,
			"0.006": 7.01245098123,
			"0.007": 5.39899174398,
			"0.008": 6.3175099238,
			"0.009": 4.06425856239,
			"0.01": 4.21811908557,
			"0.011": 5.64600082452,
			"0.012": 5.20717770401,
			"0.013": 5.61235492405,
			"0.014": 3.33093170258,
			"0.015": 1.26234743623,
			"0.016": 0.12991057135,
			"0.017": 0.0,
			"0.018": 0.0,
			"0.019": 0.0,
			"0.02": 0.0,
			"0.021": 0.0,
			"0.022": 0.0,
			"0.023": 0.0,
			"0.024": 0.0,
			"0.025": 0.0
		}
	}
}
