{
	 "smiles": "CC1=NC=C(OCC2=CC(=CC=C2)C(O)=O)C=C1", 
	 "Tm": 440.15, 
	 "num_atms": 31, 
	 "gaussian": { 
		 "optdone": 1, 
		 "sigma_profile": "yes", 
		 "theory": "DFT", 
		 "functional": "B3LYP", 
		 "basiset": "6-31G**", 
		 "properties": { 
			 "R2extent": 5908.1566, 
			 "electric_dipole_moment_norm": 5.06046715235, 
			 "electric_quadrupole_moment_norm": 31.1699374462, 
			 "total_energy": -821.747483717, 
			 "HOMO_LUMO_gap": 0.17703, 
			 "cosmo_polarized_energy": -19.09, 
			 "cosmo_cavitation_energy": 35.83, 
			 "cosmo_dispersion_energy": -25.38, 
			 "cosmo_repulsion_energy": 1.98, 
			 "cosmo_total_nonelectrostatic_energy": 12.43, 
			 "SMD_solvation_energy": 6.06 
		},
		"coords": [
			{
				"x": -0.5454285313,
				"y": -4.9952016221,
				"z": -1.3901115291,
				"element": "C" 
			},
			{
				"x": -0.7341064427,
				"y": -3.4985976348,
				"z": -1.3353417401,
				"element": "C" 
			},
			{
				"x": -0.5455521517,
				"y": -2.8982842075,
				"z": -0.1544253174,
				"element": "N" 
			},
			{
				"x": -0.7007622747,
				"y": -1.5697230492,
				"z": -0.0613563522,
				"element": "C" 
			},
			{
				"x": -1.0654339116,
				"y": -0.7697678032,
				"z": -1.1478840654,
				"element": "C" 
			},
			{
				"x": -1.2545945088,
				"y": 0.589005201,
				"z": -1.1129836059,
				"element": "O" 
			},
			{
				"x": -1.254904891,
				"y": 1.2503887572,
				"z": 0.1489230894,
				"element": "C" 
			},
			{
				"x": 0.1322255055,
				"y": 1.5424867616,
				"z": 0.6921772817,
				"element": "C" 
			},
			{
				"x": 1.2154547121,
				"y": 1.7123318137,
				"z": -0.1742513515,
				"element": "C" 
			},
			{
				"x": 2.4867394281,
				"y": 2.0279232229,
				"z": 0.3218047267,
				"element": "C" 
			},
			{
				"x": 2.6762899627,
				"y": 2.162287857,
				"z": 1.7037077187,
				"element": "C" 
			},
			{
				"x": 1.5993190316,
				"y": 2.0043024097,
				"z": 2.5709282022,
				"element": "C" 
			},
			{
				"x": 0.3335974905,
				"y": 1.6942448548,
				"z": 2.0682257135,
				"element": "C" 
			},
			{
				"x": 3.6883999967,
				"y": 2.2044740736,
				"z": -0.5611647724,
				"element": "C" 
			},
			{
				"x": 3.4554945455,
				"y": 2.4359358605,
				"z": -1.8800374163,
				"element": "O" 
			},
			{
				"x": 4.8234997886,
				"y": 2.1535610178,
				"z": -0.1493853998,
				"element": "O" 
			},
			{
				"x": -1.2592864195,
				"y": -1.3907473456,
				"z": -2.3876152316,
				"element": "C" 
			},
			{
				"x": -1.0899833813,
				"y": -2.7633054046,
				"z": -2.4798572127,
				"element": "C" 
			},
			{
				"x": -1.4597152345,
				"y": -5.5020979284,
				"z": -1.7200619379,
				"element": "H" 
			},
			{
				"x": 0.2493852016,
				"y": -5.2723028979,
				"z": -2.0923928047,
				"element": "H" 
			},
			{
				"x": -0.2788764331,
				"y": -5.3657743534,
				"z": -0.3991131628,
				"element": "H" 
			},
			{
				"x": -0.5106739169,
				"y": -1.1389527242,
				"z": 0.9174716051,
				"element": "H" 
			},
			{
				"x": -1.7833678455,
				"y": 2.191454119,
				"z": -0.0405063377,
				"element": "H" 
			},
			{
				"x": -1.8455618301,
				"y": 0.6849930644,
				"z": 0.8810926902,
				"element": "H" 
			},
			{
				"x": 1.0454750927,
				"y": 1.5457459349,
				"z": -1.2348437214,
				"element": "H" 
			},
			{
				"x": 3.6721800929,
				"y": 2.3854362506,
				"z": 2.0700943125,
				"element": "H" 
			},
			{
				"x": 1.7444690847,
				"y": 2.1103845642,
				"z": 3.6417312516,
				"element": "H" 
			},
			{
				"x": -0.5008860746,
				"y": 1.5599406933,
				"z": 2.7526566815,
				"element": "H" 
			},
			{
				"x": 2.513242856,
				"y": 2.589417157,
				"z": -2.0337247134,
				"element": "H" 
			},
			{
				"x": -1.5415777039,
				"y": -0.787561243,
				"z": -3.2449398926,
				"element": "H" 
			},
			{
				"x": -1.2355612379,
				"y": -3.2694973993,
				"z": -3.430016708,
				"element": "H" 
			}
		],
		 "valence_orbital": [ 
			{
				"type": "occ",
				"energy": -0.27855,
				"method": "rhf"
			},
			{
				"type": "occ",
				"energy": -0.27336,
				"method": "rhf"
			},
			{
				"type": "occ",
				"energy": -0.26409,
				"method": "rhf"
			},
			{
				"type": "occ",
				"energy": -0.25169,
				"method": "rhf"
			},
			{
				"type": "occ",
				"energy": -0.2323,
				"method": "rhf"
			},
			{
				"type": "unocc",
				"energy": -0.05527,
				"method": "rhf"
			},
			{
				"type": "unocc",
				"energy": -0.02855,
				"method": "rhf"
			},
			{
				"type": "unocc",
				"energy": -0.02267,
				"method": "rhf"
			},
			{
				"type": "unocc",
				"energy": -0.00166,
				"method": "rhf"
			},
			{
				"type": "unocc",
				"energy": 0.04348,
				"method": "rhf"
			}
		],
		"cosmo_sigma_profile": { 
			"-0.025": 0.0,
			"-0.024": 0.0,
			"-0.023": 0.0,
			"-0.022": 0.0,
			"-0.021": 0.0,
			"-0.02": 0.0,
			"-0.019": 0.104934893764,
			"-0.018": 0.954673603391,
			"-0.017": 0.77263195718,
			"-0.016": 1.19040479578,
			"-0.015": 0.871738653654,
			"-0.014": 0.949327612288,
			"-0.013": 0.397353639154,
			"-0.012": 1.61603440547,
			"-0.011": 1.35013052853,
			"-0.01": 0.339385847994,
			"-0.009": 0.628969010925,
			"-0.008": 2.62063949757,
			"-0.007": 12.6821847139,
			"-0.006": 16.1933616616,
			"-0.005": 19.4039615131,
			"-0.004": 19.8480587573,
			"-0.003": 21.1400216219,
			"-0.002": 19.4812010729,
			"-0.001": 18.506046799,
			"0.0": 21.5451070975,
			"0.001": 20.0677383041,
			"0.002": 23.6371589557,
			"0.003": 22.9633259364,
			"0.004": 9.80429483987,
			"0.005": 5.11316000422,
			"0.006": 5.87374166283,
			"0.007": 4.17130600993,
			"0.008": 5.26375579364,
			"0.009": 5.51253117609,
			"0.01": 6.21533542556,
			"0.011": 6.30106830383,
			"0.012": 5.4144391073,
			"0.013": 2.64375998039,
			"0.014": 1.18760072967,
			"0.015": 0.62100956586,
			"0.016": 0.676643012933,
			"0.017": 0.127469717713,
			"0.018": 0.0,
			"0.019": 0.0,
			"0.02": 0.0,
			"0.021": 0.0,
			"0.022": 0.0,
			"0.023": 0.0,
			"0.024": 0.0,
			"0.025": 0.0
		}
	}
}
