{
	 "smiles": "OC(=O)C1=C(I)C(I)=CC(I)=C1", 
	 "Tm": 499.15, 
	 "num_atms": 15, 
	 "gaussian": { 
		 "optdone": 1, 
		 "sigma_profile": "no", 
		 "theory": "DFT", 
		 "functional": "B3LYP", 
		 "basiset": "6-31G**", 
		 "properties": { 
			 "R2extent": 2555.7605, 
			 "electric_dipole_moment_norm": 3.52343506681, 
			 "electric_quadrupole_moment_norm": 16.8873425464, 
			 "total_energy": -453.144147, 
			 "HOMO_LUMO_gap": 0.1691, 
			 "cosmo_polarized_energy": -378087.76, 
			 "cosmo_cavitation_energy": 29.12, 
			 "cosmo_dispersion_energy": -25.2, 
			 "cosmo_repulsion_energy": 1.91, 
			 "cosmo_total_nonelectrostatic_energy": 5.84, 
			 "SMD_solvation_energy": 3.63 
		},
		"coords": [
			{
				"x": -2.0885697997,
				"y": -2.7108585613,
				"z": 1.7818619769,
				"element": "O" 
			},
			{
				"x": -1.0220980905,
				"y": -2.7236972671,
				"z": 0.9595455879,
				"element": "C" 
			},
			{
				"x": -0.4973358931,
				"y": -3.7680414042,
				"z": 0.6578486052,
				"element": "O" 
			},
			{
				"x": -0.5634891126,
				"y": -1.4133359724,
				"z": 0.3384707415,
				"element": "C" 
			},
			{
				"x": -0.4553381507,
				"y": -0.151680143,
				"z": 0.9608651575,
				"element": "C" 
			},
			{
				"x": -0.8659298281,
				"y": 0.0751462991,
				"z": 3.0347785903,
				"element": "I" 
			},
			{
				"x": -0.0058775893,
				"y": 0.9476569455,
				"z": 0.2065781212,
				"element": "C" 
			},
			{
				"x": 0.2318770041,
				"y": 2.9034292905,
				"z": 0.9848131536,
				"element": "I" 
			},
			{
				"x": 0.3241913861,
				"y": 0.7985955906,
				"z": -1.1454336751,
				"element": "C" 
			},
			{
				"x": 0.2307280114,
				"y": -0.4562077245,
				"z": -1.7429014068,
				"element": "C" 
			},
			{
				"x": 0.7515994711,
				"y": -0.6855440843,
				"z": -3.7774697914,
				"element": "I" 
			},
			{
				"x": -0.195683158,
				"y": -1.5547381914,
				"z": -1.0078015947,
				"element": "C" 
			},
			{
				"x": -2.3899137631,
				"y": -1.8073226828,
				"z": 1.9654765368,
				"element": "H" 
			},
			{
				"x": 0.6593004524,
				"y": 1.6559183092,
				"z": -1.7148120386,
				"element": "H" 
			},
			{
				"x": -0.2505609402,
				"y": -2.5434204039,
				"z": -1.4458199643,
				"element": "H" 
			}
		],
		 "valence_orbital": [ 
			{
				"type": "occ",
				"energy": -0.29046,
				"method": "rhf"
			},
			{
				"type": "occ",
				"energy": -0.28653,
				"method": "rhf"
			},
			{
				"type": "occ",
				"energy": -0.27362,
				"method": "rhf"
			},
			{
				"type": "occ",
				"energy": -0.26933,
				"method": "rhf"
			},
			{
				"type": "occ",
				"energy": -0.25891,
				"method": "rhf"
			},
			{
				"type": "unocc",
				"energy": -0.08981,
				"method": "rhf"
			},
			{
				"type": "unocc",
				"energy": -0.07352,
				"method": "rhf"
			},
			{
				"type": "unocc",
				"energy": -0.05995,
				"method": "rhf"
			},
			{
				"type": "unocc",
				"energy": -0.0565,
				"method": "rhf"
			},
			{
				"type": "unocc",
				"energy": -0.03844,
				"method": "rhf"
			}
		],
		"cosmo_sigma_profile": { 
			"0.0": 0.0,
			"0.0": 0.0,
			"0.0": 0.0,
			"0.0": 0.0,
			"0.0": 0.0,
			"0.0": 0.0,
			"0.0": 0.0,
			"0.0": 0.0,
			"0.0": 0.0,
			"0.0": 0.0,
			"0.0": 0.0,
			"0.0": 0.0,
			"0.0": 0.0,
			"0.0": 0.0,
			"0.0": 0.0,
			"0.0": 0.0,
			"0.0": 0.0,
			"0.0": 0.0,
			"0.0": 0.0,
			"0.0": 0.0,
			"0.0": 0.0,
			"0.0": 0.0,
			"0.0": 0.0,
			"0.0": 0.0,
			"0.0": 0.0,
			"0.0": 0.0,
			"0.0": 0.0,
			"0.0": 0.0,
			"0.0": 0.0,
			"0.0": 0.0,
			"0.0": 0.0,
			"0.0": 0.0,
			"0.0": 0.0,
			"0.0": 0.0,
			"0.0": 0.0,
			"0.0": 0.0,
			"0.0": 0.0,
			"0.0": 0.0,
			"0.0": 0.0,
			"0.0": 0.0,
			"0.0": 0.0,
			"0.0": 0.0,
			"0.0": 0.0,
			"0.0": 0.0,
			"0.0": 0.0,
			"0.0": 0.0,
			"0.0": 0.0,
			"0.0": 0.0,
			"0.0": 0.0,
			"0.0": 0.0,
			"0.0": 0.0
		}
	}
}
