{
	 "smiles": "COC1=CC2=C(NC(=O)CC2)C=C1", 
	 "Tm": 415.15, 
	 "num_atms": 24, 
	 "gaussian": { 
		 "optdone": 1, 
		 "sigma_profile": "yes", 
		 "theory": "DFT", 
		 "functional": "B3LYP", 
		 "basiset": "6-31G**", 
		 "properties": { 
			 "R2extent": 3557.2709, 
			 "electric_dipole_moment_norm": 3.76930793781, 
			 "electric_quadrupole_moment_norm": 17.6868013979, 
			 "total_energy": -592.909281601, 
			 "HOMO_LUMO_gap": 0.18909, 
			 "cosmo_polarized_energy": -13.05, 
			 "cosmo_cavitation_energy": 27.08, 
			 "cosmo_dispersion_energy": -20.31, 
			 "cosmo_repulsion_energy": 1.61, 
			 "cosmo_total_nonelectrostatic_energy": 8.37, 
			 "SMD_solvation_energy": 5.58 
		},
		"coords": [
			{
				"x": 0.2724232934,
				"y": -2.348965167,
				"z": 2.6068857537,
				"element": "C" 
			},
			{
				"x": 1.2670402347,
				"y": -1.3412468246,
				"z": 2.5475328104,
				"element": "O" 
			},
			{
				"x": 1.4569691314,
				"y": -0.6902573319,
				"z": 1.3598006314,
				"element": "C" 
			},
			{
				"x": 0.7325515963,
				"y": -0.9401686249,
				"z": 0.1886761735,
				"element": "C" 
			},
			{
				"x": 1.0014670595,
				"y": -0.2241531935,
				"z": -0.9820789919,
				"element": "C" 
			},
			{
				"x": 1.993903518,
				"y": 0.7662431805,
				"z": -0.9718936517,
				"element": "C" 
			},
			{
				"x": 2.258130966,
				"y": 1.4868081956,
				"z": -2.1546094826,
				"element": "N" 
			},
			{
				"x": 1.4176178806,
				"y": 1.5770960549,
				"z": -3.2443299169,
				"element": "C" 
			},
			{
				"x": 1.701530664,
				"y": 2.2560782917,
				"z": -4.2192878566,
				"element": "O" 
			},
			{
				"x": 0.1167392082,
				"y": 0.7983207133,
				"z": -3.0979922072,
				"element": "C" 
			},
			{
				"x": 0.2903907331,
				"y": -0.4954722171,
				"z": -2.2884216897,
				"element": "C" 
			},
			{
				"x": 2.7173797213,
				"y": 1.0181185936,
				"z": 0.2004333867,
				"element": "C" 
			},
			{
				"x": 2.4563972594,
				"y": 0.2923612963,
				"z": 1.3554278802,
				"element": "C" 
			},
			{
				"x": -0.7267698119,
				"y": -1.9479371352,
				"z": 2.3906111528,
				"element": "H" 
			},
			{
				"x": 0.2900346171,
				"y": -2.7315814708,
				"z": 3.628642131,
				"element": "H" 
			},
			{
				"x": 0.48452872,
				"y": -3.1717870502,
				"z": 1.9112499924,
				"element": "H" 
			},
			{
				"x": -0.043365155,
				"y": -1.6973619718,
				"z": 0.1657106083,
				"element": "H" 
			},
			{
				"x": 3.0860738093,
				"y": 2.0661985719,
				"z": -2.2051372596,
				"element": "H" 
			},
			{
				"x": -0.5994104402,
				"y": 1.4610230625,
				"z": -2.5927761947,
				"element": "H" 
			},
			{
				"x": -0.2674031897,
				"y": 0.6095998584,
				"z": -4.1023916182,
				"element": "H" 
			},
			{
				"x": 0.880656895,
				"y": -1.211248522,
				"z": -2.8794720841,
				"element": "H" 
			},
			{
				"x": -0.6811054096,
				"y": -0.9675397761,
				"z": -2.1101050363,
				"element": "H" 
			},
			{
				"x": 3.4841846988,
				"y": 1.7884790726,
				"z": 0.2073384647,
				"element": "H" 
			},
			{
				"x": 3.0091340003,
				"y": 0.4775923938,
				"z": 2.2701870045,
				"element": "H" 
			}
		],
		 "valence_orbital": [ 
			{
				"type": "occ",
				"energy": -0.32533,
				"method": "rhf"
			},
			{
				"type": "occ",
				"energy": -0.27936,
				"method": "rhf"
			},
			{
				"type": "occ",
				"energy": -0.25301,
				"method": "rhf"
			},
			{
				"type": "occ",
				"energy": -0.24747,
				"method": "rhf"
			},
			{
				"type": "occ",
				"energy": -0.20003,
				"method": "rhf"
			},
			{
				"type": "unocc",
				"energy": -0.01094,
				"method": "rhf"
			},
			{
				"type": "unocc",
				"energy": -0.00036,
				"method": "rhf"
			},
			{
				"type": "unocc",
				"energy": 0.04364,
				"method": "rhf"
			},
			{
				"type": "unocc",
				"energy": 0.0874,
				"method": "rhf"
			},
			{
				"type": "unocc",
				"energy": 0.09317,
				"method": "rhf"
			}
		],
		"cosmo_sigma_profile": { 
			"-0.025": 0.0,
			"-0.024": 0.0,
			"-0.023": 0.0,
			"-0.022": 0.0,
			"-0.021": 0.0,
			"-0.02": 0.0,
			"-0.019": 0.0,
			"-0.018": 0.0,
			"-0.017": 0.0,
			"-0.016": 0.0,
			"-0.015": 0.143222535781,
			"-0.014": 0.894734434349,
			"-0.013": 1.46627056957,
			"-0.012": 1.09254766681,
			"-0.011": 1.07481927576,
			"-0.01": 1.16961651614,
			"-0.009": 1.09463038926,
			"-0.008": 1.07800021882,
			"-0.007": 2.25493947389,
			"-0.006": 9.03987448264,
			"-0.005": 23.5661233892,
			"-0.004": 23.4777415673,
			"-0.003": 22.7130849643,
			"-0.002": 17.4298120181,
			"-0.001": 13.9457270278,
			"0.0": 9.0228037394,
			"0.001": 9.93277518235,
			"0.002": 9.26491156267,
			"0.003": 10.2317237159,
			"0.004": 12.3727072936,
			"0.005": 12.8041197317,
			"0.006": 3.74450916669,
			"0.007": 3.20684495994,
			"0.008": 3.30675374224,
			"0.009": 2.53101106667,
			"0.01": 2.54041516031,
			"0.011": 2.50000584996,
			"0.012": 1.73581097104,
			"0.013": 4.98543158839,
			"0.014": 4.65928284622,
			"0.015": 0.936437396156,
			"0.016": 0.0,
			"0.017": 0.0,
			"0.018": 0.0,
			"0.019": 0.0,
			"0.02": 0.0,
			"0.021": 0.0,
			"0.022": 0.0,
			"0.023": 0.0,
			"0.024": 0.0,
			"0.025": 0.0
		}
	}
}
