{
	 "smiles": "BrCC1=CC(Br)=C2OCOC2=C1", 
	 "Tm": 397.15, 
	 "num_atms": 18, 
	 "gaussian": { 
		 "optdone": 1, 
		 "sigma_profile": "yes", 
		 "theory": "DFT", 
		 "functional": "B3LYP", 
		 "basiset": "6-31G**", 
		 "properties": { 
			 "R2extent": 6079.9535, 
			 "electric_dipole_moment_norm": 2.46636267812, 
			 "electric_quadrupole_moment_norm": 9.99955928329, 
			 "total_energy": -5601.69730219, 
			 "HOMO_LUMO_gap": 0.18218, 
			 "cosmo_polarized_energy": -8.92, 
			 "cosmo_cavitation_energy": 27.03, 
			 "cosmo_dispersion_energy": -20.85, 
			 "cosmo_repulsion_energy": 1.68, 
			 "cosmo_total_nonelectrostatic_energy": 7.87, 
			 "SMD_solvation_energy": 2.9 
		},
		"coords": [
			{
				"x": 3.0974500959,
				"y": 1.6152922888,
				"z": 1.9629566961,
				"element": "Br" 
			},
			{
				"x": 2.4140170182,
				"y": -0.1960945097,
				"z": 1.4200835239,
				"element": "C" 
			},
			{
				"x": 0.9389388024,
				"y": -0.2072634509,
				"z": 1.192511094,
				"element": "C" 
			},
			{
				"x": 0.0870959429,
				"y": -0.6829581497,
				"z": 2.193831561,
				"element": "C" 
			},
			{
				"x": -1.3041964371,
				"y": -0.7196512483,
				"z": 2.0079330366,
				"element": "C" 
			},
			{
				"x": -2.4605929955,
				"y": -1.3795238906,
				"z": 3.3604197508,
				"element": "Br" 
			},
			{
				"x": -1.8082853032,
				"y": -0.2641064017,
				"z": 0.8060648735,
				"element": "C" 
			},
			{
				"x": -3.1031932847,
				"y": -0.2152012219,
				"z": 0.3779477334,
				"element": "O" 
			},
			{
				"x": -3.0677520424,
				"y": 0.4434438171,
				"z": -0.8972473539,
				"element": "C" 
			},
			{
				"x": -1.6954339784,
				"y": 0.5771050097,
				"z": -1.2854560968,
				"element": "O" 
			},
			{
				"x": -0.9538985654,
				"y": 0.2129043969,
				"z": -0.1904413753,
				"element": "C" 
			},
			{
				"x": 0.4137227057,
				"y": 0.2547933887,
				"z": -0.036101983,
				"element": "C" 
			},
			{
				"x": 2.9820600305,
				"y": -0.4272887648,
				"z": 0.5207661286,
				"element": "H" 
			},
			{
				"x": 2.7174441804,
				"y": -0.8534730985,
				"z": 2.2319943357,
				"element": "H" 
			},
			{
				"x": 0.4976339285,
				"y": -1.0277747836,
				"z": 3.1362646422,
				"element": "H" 
			},
			{
				"x": -3.5239989519,
				"y": 1.4380665897,
				"z": -0.805467964,
				"element": "H" 
			},
			{
				"x": -3.5990846331,
				"y": -0.1663042979,
				"z": -1.6340344463,
				"element": "H" 
			},
			{
				"x": 1.0582734871,
				"y": 0.6347343266,
				"z": -0.8206241566,
				"element": "H" 
			}
		],
		 "valence_orbital": [ 
			{
				"type": "occ",
				"energy": -0.29378,
				"method": "rhf"
			},
			{
				"type": "occ",
				"energy": -0.27273,
				"method": "rhf"
			},
			{
				"type": "occ",
				"energy": -0.27142,
				"method": "rhf"
			},
			{
				"type": "occ",
				"energy": -0.24704,
				"method": "rhf"
			},
			{
				"type": "occ",
				"energy": -0.22306,
				"method": "rhf"
			},
			{
				"type": "unocc",
				"energy": -0.04088,
				"method": "rhf"
			},
			{
				"type": "unocc",
				"energy": -0.01664,
				"method": "rhf"
			},
			{
				"type": "unocc",
				"energy": 0.00015,
				"method": "rhf"
			},
			{
				"type": "unocc",
				"energy": 0.0272,
				"method": "rhf"
			},
			{
				"type": "unocc",
				"energy": 0.08683,
				"method": "rhf"
			}
		],
		"cosmo_sigma_profile": { 
			"-0.025": 0.0,
			"-0.024": 0.0,
			"-0.023": 0.0,
			"-0.022": 0.0,
			"-0.021": 0.0,
			"-0.02": 0.0,
			"-0.019": 0.0,
			"-0.018": 0.0,
			"-0.017": 0.0,
			"-0.016": 0.0,
			"-0.015": 0.0,
			"-0.014": 0.0,
			"-0.013": 0.0,
			"-0.012": 0.0,
			"-0.011": 0.0,
			"-0.01": 0.0,
			"-0.009": 1.05511943547,
			"-0.008": 13.3473423371,
			"-0.007": 15.0026965061,
			"-0.006": 11.3916114964,
			"-0.005": 10.0110755565,
			"-0.004": 10.6000699181,
			"-0.003": 8.32898520599,
			"-0.002": 10.921203173,
			"-0.001": 11.627148077,
			"0.0": 14.2352857524,
			"0.001": 19.8565979299,
			"0.002": 20.2392375093,
			"0.003": 17.8169955451,
			"0.004": 19.0420691533,
			"0.005": 12.1116565581,
			"0.006": 14.5418126429,
			"0.007": 7.65968752855,
			"0.008": 3.44736230027,
			"0.009": 2.04376933319,
			"0.01": 0.0245255793754,
			"0.011": 0.0,
			"0.012": 0.0,
			"0.013": 0.0,
			"0.014": 0.0,
			"0.015": 0.0,
			"0.016": 0.0,
			"0.017": 0.0,
			"0.018": 0.0,
			"0.019": 0.0,
			"0.02": 0.0,
			"0.021": 0.0,
			"0.022": 0.0,
			"0.023": 0.0,
			"0.024": 0.0,
			"0.025": 0.0
		}
	}
}
