{
	 "smiles": "NC1=NN=C(S1)C(F)(F)F", 
	 "Tm": 497.65, 
	 "num_atms": 12, 
	 "gaussian": { 
		 "optdone": 1, 
		 "sigma_profile": "yes", 
		 "theory": "DFT", 
		 "functional": "B3LYP", 
		 "basiset": "6-31G**", 
		 "properties": { 
			 "R2extent": 1995.2487, 
			 "electric_dipole_moment_norm": 4.92947365243, 
			 "electric_quadrupole_moment_norm": 7.73976115006, 
			 "total_energy": -977.449801063, 
			 "HOMO_LUMO_gap": 0.20503, 
			 "cosmo_polarized_energy": -13.24, 
			 "cosmo_cavitation_energy": 20.28, 
			 "cosmo_dispersion_energy": -15.24, 
			 "cosmo_repulsion_energy": 1.15, 
			 "cosmo_total_nonelectrostatic_energy": 6.18, 
			 "SMD_solvation_energy": 2.71 
		},
		"coords": [
			{
				"x": 1.27172739,
				"y": 1.4265446993,
				"z": 1.6704575064,
				"element": "N" 
			},
			{
				"x": 0.5632528238,
				"y": 0.5938657779,
				"z": 0.852298762,
				"element": "C" 
			},
			{
				"x": -0.3817252019,
				"y": 1.0177599197,
				"z": 0.0452793115,
				"element": "N" 
			},
			{
				"x": -0.8911081949,
				"y": 0.0198645824,
				"z": -0.7274800154,
				"element": "N" 
			},
			{
				"x": -0.3486986893,
				"y": -1.1338215028,
				"z": -0.5093050899,
				"element": "C" 
			},
			{
				"x": 0.9176219408,
				"y": -1.1260926424,
				"z": 0.7146519314,
				"element": "S" 
			},
			{
				"x": -0.8000123623,
				"y": -2.40273026,
				"z": -1.1765189254,
				"element": "C" 
			},
			{
				"x": -1.3874718776,
				"y": -2.1544384371,
				"z": -2.3504952321,
				"element": "F" 
			},
			{
				"x": -1.6764181592,
				"y": -3.0778860201,
				"z": -0.4028442232,
				"element": "F" 
			},
			{
				"x": 0.2543450494,
				"y": -3.2235629983,
				"z": -1.3857804712,
				"element": "F" 
			},
			{
				"x": 1.6540528092,
				"y": 1.0491109119,
				"z": 2.5241733536,
				"element": "H" 
			},
			{
				"x": 0.876034472,
				"y": 2.3542859696,
				"z": 1.7486630922,
				"element": "H" 
			}
		],
		 "valence_orbital": [ 
			{
				"type": "occ",
				"energy": -0.36646,
				"method": "rhf"
			},
			{
				"type": "occ",
				"energy": -0.32107,
				"method": "rhf"
			},
			{
				"type": "occ",
				"energy": -0.30919,
				"method": "rhf"
			},
			{
				"type": "occ",
				"energy": -0.27728,
				"method": "rhf"
			},
			{
				"type": "occ",
				"energy": -0.25299,
				"method": "rhf"
			},
			{
				"type": "unocc",
				"energy": -0.04796,
				"method": "rhf"
			},
			{
				"type": "unocc",
				"energy": -0.01984,
				"method": "rhf"
			},
			{
				"type": "unocc",
				"energy": 0.02224,
				"method": "rhf"
			},
			{
				"type": "unocc",
				"energy": 0.04703,
				"method": "rhf"
			},
			{
				"type": "unocc",
				"energy": 0.08193,
				"method": "rhf"
			}
		],
		"cosmo_sigma_profile": { 
			"-0.025": 0.0,
			"-0.024": 0.0,
			"-0.023": 0.0,
			"-0.022": 0.0,
			"-0.021": 0.0,
			"-0.02": 0.0,
			"-0.019": 0.0,
			"-0.018": 0.0,
			"-0.017": 0.0,
			"-0.016": 1.10884929527,
			"-0.015": 2.88195735842,
			"-0.014": 2.57115545113,
			"-0.013": 2.81419278635,
			"-0.012": 3.20544115407,
			"-0.011": 1.8802297157,
			"-0.01": 1.87569097704,
			"-0.009": 1.87243191368,
			"-0.008": 1.86503599652,
			"-0.007": 1.96255494314,
			"-0.006": 1.54235724622,
			"-0.005": 2.92769316854,
			"-0.004": 5.11082955758,
			"-0.003": 7.84456953999,
			"-0.002": 11.3050764687,
			"-0.001": 14.2636234126,
			"0.0": 13.4626879398,
			"0.001": 17.9836741576,
			"0.002": 30.5330019269,
			"0.003": 8.72176202314,
			"0.004": 3.21894196224,
			"0.005": 3.12909058138,
			"0.006": 2.9764318445,
			"0.007": 2.49694198,
			"0.008": 2.71572247455,
			"0.009": 3.44808207602,
			"0.01": 3.07039061114,
			"0.011": 3.14199656011,
			"0.012": 2.17055774624,
			"0.013": 2.1706932265,
			"0.014": 0.947523984179,
			"0.015": 0.114914143707,
			"0.016": 0.0,
			"0.017": 0.0,
			"0.018": 0.0,
			"0.019": 0.0,
			"0.02": 0.0,
			"0.021": 0.0,
			"0.022": 0.0,
			"0.023": 0.0,
			"0.024": 0.0,
			"0.025": 0.0
		}
	}
}
