{
	 "smiles": "COC1=CC2=C(C=C1OC)N=CN2", 
	 "Tm": 459.15, 
	 "num_atms": 23, 
	 "gaussian": { 
		 "optdone": 1, 
		 "sigma_profile": "yes", 
		 "theory": "DFT", 
		 "functional": "B3LYP", 
		 "basiset": "6-31G**", 
		 "properties": { 
			 "R2extent": 2974.064, 
			 "electric_dipole_moment_norm": 1.9778352712, 
			 "electric_quadrupole_moment_norm": 19.8347146942, 
			 "total_energy": -608.906474297, 
			 "HOMO_LUMO_gap": 0.19106, 
			 "cosmo_polarized_energy": -15.72, 
			 "cosmo_cavitation_energy": 26.72, 
			 "cosmo_dispersion_energy": -19.9, 
			 "cosmo_repulsion_energy": 1.57, 
			 "cosmo_total_nonelectrostatic_energy": 8.39, 
			 "SMD_solvation_energy": 4.37 
		},
		"coords": [
			{
				"x": 2.4114739923,
				"y": 0.8486812663,
				"z": 1.981318048,
				"element": "C" 
			},
			{
				"x": 2.3886573082,
				"y": 1.137546146,
				"z": 0.5819598529,
				"element": "O" 
			},
			{
				"x": 1.6702379242,
				"y": 0.2608066652,
				"z": -0.1961990541,
				"element": "C" 
			},
			{
				"x": 2.3645329012,
				"y": -0.5483027578,
				"z": -1.08637474,
				"element": "C" 
			},
			{
				"x": 1.6149791907,
				"y": -1.3832414902,
				"z": -1.9192721801,
				"element": "C" 
			},
			{
				"x": 0.2066633221,
				"y": -1.4291172739,
				"z": -1.8639700095,
				"element": "C" 
			},
			{
				"x": -0.490885121,
				"y": -0.6089861096,
				"z": -0.9617563262,
				"element": "C" 
			},
			{
				"x": 0.2421074167,
				"y": 0.2373534698,
				"z": -0.1364288271,
				"element": "C" 
			},
			{
				"x": -0.3104128991,
				"y": 1.1041831805,
				"z": 0.7689678623,
				"element": "O" 
			},
			{
				"x": -1.7243373551,
				"y": 1.1626387103,
				"z": 0.848223638,
				"element": "C" 
			},
			{
				"x": -0.2890035223,
				"y": -2.3418620821,
				"z": -2.7859718808,
				"element": "N" 
			},
			{
				"x": 0.7750546578,
				"y": -2.8274004068,
				"z": -3.3746124447,
				"element": "C" 
			},
			{
				"x": 1.9551740117,
				"y": -2.2969778323,
				"z": -2.9040925267,
				"element": "N" 
			},
			{
				"x": 3.0483022712,
				"y": 1.6091877963,
				"z": 2.438636954,
				"element": "H" 
			},
			{
				"x": 1.4100819422,
				"y": 0.9003282481,
				"z": 2.418416817,
				"element": "H" 
			},
			{
				"x": 2.842997233,
				"y": -0.1435904709,
				"z": 2.1696113859,
				"element": "H" 
			},
			{
				"x": 3.4476909119,
				"y": -0.4940140364,
				"z": -1.1099346372,
				"element": "H" 
			},
			{
				"x": -1.5724849585,
				"y": -0.6457268122,
				"z": -0.9360639252,
				"element": "H" 
			},
			{
				"x": -1.9537263582,
				"y": 1.9170167794,
				"z": 1.6026450388,
				"element": "H" 
			},
			{
				"x": -2.1695783182,
				"y": 1.461291505,
				"z": -0.1096119169,
				"element": "H" 
			},
			{
				"x": -2.1548840556,
				"y": 0.2004225178,
				"z": 1.1557497458,
				"element": "H" 
			},
			{
				"x": 0.7680839489,
				"y": -3.5743372594,
				"z": -4.1581432957,
				"element": "H" 
			},
			{
				"x": 2.883575556,
				"y": -2.5274997531,
				"z": -3.2207975785,
				"element": "H" 
			}
		],
		 "valence_orbital": [ 
			{
				"type": "occ",
				"energy": -0.29566,
				"method": "rhf"
			},
			{
				"type": "occ",
				"energy": -0.26803,
				"method": "rhf"
			},
			{
				"type": "occ",
				"energy": -0.26513,
				"method": "rhf"
			},
			{
				"type": "occ",
				"energy": -0.21643,
				"method": "rhf"
			},
			{
				"type": "occ",
				"energy": -0.19985,
				"method": "rhf"
			},
			{
				"type": "unocc",
				"energy": -0.00879,
				"method": "rhf"
			},
			{
				"type": "unocc",
				"energy": 0.03446,
				"method": "rhf"
			},
			{
				"type": "unocc",
				"energy": 0.05908,
				"method": "rhf"
			},
			{
				"type": "unocc",
				"energy": 0.07743,
				"method": "rhf"
			},
			{
				"type": "unocc",
				"energy": 0.09679,
				"method": "rhf"
			}
		],
		"cosmo_sigma_profile": { 
			"-0.025": 0.0,
			"-0.024": 0.0,
			"-0.023": 0.0,
			"-0.022": 0.0,
			"-0.021": 0.0,
			"-0.02": 0.0,
			"-0.019": 0.0,
			"-0.018": 0.0,
			"-0.017": 0.34089419534,
			"-0.016": 1.75278407519,
			"-0.015": 1.41586916932,
			"-0.014": 1.28029211421,
			"-0.013": 1.64748148486,
			"-0.012": 1.14581263298,
			"-0.011": 1.12988581925,
			"-0.01": 1.59679139628,
			"-0.009": 3.69648793594,
			"-0.008": 3.26022968697,
			"-0.007": 4.29352098361,
			"-0.006": 8.49856250394,
			"-0.005": 14.6620825569,
			"-0.004": 15.3583260752,
			"-0.003": 20.4208238139,
			"-0.002": 17.2091234343,
			"-0.001": 10.3287954166,
			"0.0": 9.37892724013,
			"0.001": 10.0581002014,
			"0.002": 13.5313549681,
			"0.003": 13.1714793352,
			"0.004": 16.6063786815,
			"0.005": 9.70931721247,
			"0.006": 5.14683460398,
			"0.007": 3.23006150415,
			"0.008": 3.37059653892,
			"0.009": 3.73934003189,
			"0.01": 4.10563270545,
			"0.011": 2.90621538062,
			"0.012": 4.15833084484,
			"0.013": 1.12787430581,
			"0.014": 0.787582143847,
			"0.015": 0.94368734179,
			"0.016": 1.55029499426,
			"0.017": 0.814637720871,
			"0.018": 0.576119067221,
			"0.019": 0.00772015174461,
			"0.02": 0.0,
			"0.021": 0.0,
			"0.022": 0.0,
			"0.023": 0.0,
			"0.024": 0.0,
			"0.025": 0.0
		}
	}
}
