{
	 "smiles": "NC1=C(CCC2=C(N)C=CC=C2)C=CC=C1", 
	 "Tm": 347.65, 
	 "num_atms": 32, 
	 "gaussian": { 
		 "optdone": 1, 
		 "sigma_profile": "yes", 
		 "theory": "DFT", 
		 "functional": "B3LYP", 
		 "basiset": "6-31G**", 
		 "properties": { 
			 "R2extent": 4080.5174, 
			 "electric_dipole_moment_norm": 1.61999720987, 
			 "electric_quadrupole_moment_norm": 10.269877344, 
			 "total_energy": -652.652603404, 
			 "HOMO_LUMO_gap": 0.19494, 
			 "cosmo_polarized_energy": -12.36, 
			 "cosmo_cavitation_energy": 33.65, 
			 "cosmo_dispersion_energy": -23.48, 
			 "cosmo_repulsion_energy": 1.82, 
			 "cosmo_total_nonelectrostatic_energy": 11.98, 
			 "SMD_solvation_energy": 4.79 
		},
		"coords": [
			{
				"x": -2.1422151174,
				"y": -0.7575004401,
				"z": 1.1997545273,
				"element": "N" 
			},
			{
				"x": -1.4932895249,
				"y": 0.4371970964,
				"z": 0.8666194245,
				"element": "C" 
			},
			{
				"x": -0.1022040631,
				"y": 0.5957031701,
				"z": 1.0893122153,
				"element": "C" 
			},
			{
				"x": 0.7334110625,
				"y": -0.5507212155,
				"z": 1.6165232097,
				"element": "C" 
			},
			{
				"x": 1.1906148398,
				"y": -1.5841265286,
				"z": 0.5447603385,
				"element": "C" 
			},
			{
				"x": 2.2505940951,
				"y": -1.0854445374,
				"z": -0.4174155512,
				"element": "C" 
			},
			{
				"x": 1.9186907794,
				"y": -0.5143741224,
				"z": -1.6690384768,
				"element": "C" 
			},
			{
				"x": 0.5790969601,
				"y": -0.4013311094,
				"z": -2.0741233108,
				"element": "N" 
			},
			{
				"x": 2.9522537259,
				"y": -0.1244297275,
				"z": -2.5381094146,
				"element": "C" 
			},
			{
				"x": 4.2894787978,
				"y": -0.2771003965,
				"z": -2.1832231466,
				"element": "C" 
			},
			{
				"x": 4.6260005385,
				"y": -0.8200447147,
				"z": -0.9426815042,
				"element": "C" 
			},
			{
				"x": 3.6030837095,
				"y": -1.2187825748,
				"z": -0.0825865723,
				"element": "C" 
			},
			{
				"x": 0.4810603449,
				"y": 1.8372561317,
				"z": 0.8087028144,
				"element": "C" 
			},
			{
				"x": -0.2612021115,
				"y": 2.9104995175,
				"z": 0.3147134885,
				"element": "C" 
			},
			{
				"x": -1.6292408397,
				"y": 2.7430984258,
				"z": 0.0958164703,
				"element": "C" 
			},
			{
				"x": -2.237747653,
				"y": 1.5201136025,
				"z": 0.3667151153,
				"element": "C" 
			},
			{
				"x": -1.5892762991,
				"y": -1.5986581595,
				"z": 1.1237620312,
				"element": "H" 
			},
			{
				"x": -3.053779197,
				"y": -0.8726831631,
				"z": 0.7785753285,
				"element": "H" 
			},
			{
				"x": 0.1718009988,
				"y": -1.0827240828,
				"z": 2.395953883,
				"element": "H" 
			},
			{
				"x": 1.6275870854,
				"y": -0.1486347573,
				"z": 2.1043880866,
				"element": "H" 
			},
			{
				"x": 0.3238774456,
				"y": -1.9424854749,
				"z": -0.0254310591,
				"element": "H" 
			},
			{
				"x": 1.591047079,
				"y": -2.4557070467,
				"z": 1.0760144079,
				"element": "H" 
			},
			{
				"x": 0.4672246304,
				"y": 0.1620954397,
				"z": -2.9077155433,
				"element": "H" 
			},
			{
				"x": -0.0416499406,
				"y": -0.0649199157,
				"z": -1.3472987051,
				"element": "H" 
			},
			{
				"x": 2.693207549,
				"y": 0.3076313874,
				"z": -3.5024899744,
				"element": "H" 
			},
			{
				"x": 5.066532676,
				"y": 0.0351157232,
				"z": -2.875614655,
				"element": "H" 
			},
			{
				"x": 5.665362464,
				"y": -0.9422983553,
				"z": -0.6538737091,
				"element": "H" 
			},
			{
				"x": 3.8554923224,
				"y": -1.6636747633,
				"z": 0.87808441,
				"element": "H" 
			},
			{
				"x": 1.547452261,
				"y": 1.9551065927,
				"z": 0.9829465777,
				"element": "H" 
			},
			{
				"x": 0.2207740991,
				"y": 3.8607632181,
				"z": 0.1075561926,
				"element": "H" 
			},
			{
				"x": -2.2285783406,
				"y": 3.5640498671,
				"z": -0.2880476167,
				"element": "H" 
			},
			{
				"x": -3.3056603774,
				"y": 1.3952109135,
				"z": 0.2011507178,
				"element": "H" 
			}
		],
		 "valence_orbital": [ 
			{
				"type": "occ",
				"energy": -0.29453,
				"method": "rhf"
			},
			{
				"type": "occ",
				"energy": -0.24253,
				"method": "rhf"
			},
			{
				"type": "occ",
				"energy": -0.23241,
				"method": "rhf"
			},
			{
				"type": "occ",
				"energy": -0.20463,
				"method": "rhf"
			},
			{
				"type": "occ",
				"energy": -0.19378,
				"method": "rhf"
			},
			{
				"type": "unocc",
				"energy": 0.00116,
				"method": "rhf"
			},
			{
				"type": "unocc",
				"energy": 0.00889,
				"method": "rhf"
			},
			{
				"type": "unocc",
				"energy": 0.01516,
				"method": "rhf"
			},
			{
				"type": "unocc",
				"energy": 0.02473,
				"method": "rhf"
			},
			{
				"type": "unocc",
				"energy": 0.07208,
				"method": "rhf"
			}
		],
		"cosmo_sigma_profile": { 
			"-0.025": 0.0,
			"-0.024": 0.0,
			"-0.023": 0.0,
			"-0.022": 0.0,
			"-0.021": 0.0,
			"-0.02": 0.0,
			"-0.019": 0.0,
			"-0.018": 0.0,
			"-0.017": 0.0,
			"-0.016": 0.0,
			"-0.015": 0.0,
			"-0.014": 0.0,
			"-0.013": 0.0772931052189,
			"-0.012": 1.54212781696,
			"-0.011": 3.54874870249,
			"-0.01": 4.19229599952,
			"-0.009": 4.76693833056,
			"-0.008": 4.26265525686,
			"-0.007": 4.93558930255,
			"-0.006": 5.99250697211,
			"-0.005": 13.5636729619,
			"-0.004": 20.0200118528,
			"-0.003": 26.2264742831,
			"-0.002": 27.4811275161,
			"-0.001": 17.701948783,
			"0.0": 18.6643157354,
			"0.001": 13.1615202931,
			"0.002": 13.1521349695,
			"0.003": 13.5968320513,
			"0.004": 14.655448941,
			"0.005": 17.2131926412,
			"0.006": 14.6497749019,
			"0.007": 11.9124619241,
			"0.008": 5.04639718518,
			"0.009": 2.35862965792,
			"0.01": 1.38698844019,
			"0.011": 1.40929187705,
			"0.012": 1.36648771281,
			"0.013": 0.486986537306,
			"0.014": 1.26260560682,
			"0.015": 1.01660328987,
			"0.016": 0.0650840900956,
			"0.017": 0.0,
			"0.018": 0.0,
			"0.019": 0.0,
			"0.02": 0.0,
			"0.021": 0.0,
			"0.022": 0.0,
			"0.023": 0.0,
			"0.024": 0.0,
			"0.025": 0.0
		}
	}
}
