{
	 "smiles": "CC(=O)C1=CNC2=C1C=CC(F)=C2", 
	 "Tm": 496.15, 
	 "num_atms": 21, 
	 "gaussian": { 
		 "optdone": 1, 
		 "sigma_profile": "yes", 
		 "theory": "DFT", 
		 "functional": "B3LYP", 
		 "basiset": "6-31G**", 
		 "properties": { 
			 "R2extent": 2974.76, 
			 "electric_dipole_moment_norm": 5.21998623178, 
			 "electric_quadrupole_moment_norm": 16.9358895757, 
			 "total_energy": -615.705669968, 
			 "HOMO_LUMO_gap": 0.17536, 
			 "cosmo_polarized_energy": -15.45, 
			 "cosmo_cavitation_energy": 25.81, 
			 "cosmo_dispersion_energy": -18.92, 
			 "cosmo_repulsion_energy": 1.45, 
			 "cosmo_total_nonelectrostatic_energy": 8.34, 
			 "SMD_solvation_energy": 5.43 
		},
		"coords": [
			{
				"x": 1.0747855662,
				"y": -3.0969659997,
				"z": 2.3982917248,
				"element": "C" 
			},
			{
				"x": 0.8732765879,
				"y": -1.9929973756,
				"z": 1.3681269726,
				"element": "C" 
			},
			{
				"x": 1.6708624569,
				"y": -1.8456282169,
				"z": 0.4479930176,
				"element": "O" 
			},
			{
				"x": -0.2973218336,
				"y": -1.1188101464,
				"z": 1.5085119011,
				"element": "C" 
			},
			{
				"x": -1.2691013663,
				"y": -1.1739718245,
				"z": 2.4891935102,
				"element": "C" 
			},
			{
				"x": -2.1983268478,
				"y": -0.1876010372,
				"z": 2.2772516001,
				"element": "N" 
			},
			{
				"x": -1.8552085622,
				"y": 0.539429658,
				"z": 1.1481115256,
				"element": "C" 
			},
			{
				"x": -0.6582847614,
				"y": -0.0204041132,
				"z": 0.634681725,
				"element": "C" 
			},
			{
				"x": -0.0860856779,
				"y": 0.5352037494,
				"z": -0.5214389445,
				"element": "C" 
			},
			{
				"x": -0.7112382941,
				"y": 1.6178542226,
				"z": -1.127320994,
				"element": "C" 
			},
			{
				"x": -1.8951387693,
				"y": 2.1383156875,
				"z": -0.582591833,
				"element": "C" 
			},
			{
				"x": -2.4734323085,
				"y": 3.192200166,
				"z": -1.2010098899,
				"element": "F" 
			},
			{
				"x": -2.5005899385,
				"y": 1.6286321284,
				"z": 0.5540625223,
				"element": "C" 
			},
			{
				"x": 1.1709429523,
				"y": -2.6791958838,
				"z": 3.4067681541,
				"element": "H" 
			},
			{
				"x": 1.9816965756,
				"y": -3.6487958532,
				"z": 2.1490173228,
				"element": "H" 
			},
			{
				"x": 0.2226226574,
				"y": -3.785852066,
				"z": 2.4064855991,
				"element": "H" 
			},
			{
				"x": -1.3684505249,
				"y": -1.8473948105,
				"z": 3.3283248093,
				"element": "H" 
			},
			{
				"x": -3.0063002169,
				"y": -0.0187891162,
				"z": 2.8551729111,
				"element": "H" 
			},
			{
				"x": 0.828307978,
				"y": 0.1132257879,
				"z": -0.9200224052,
				"element": "H" 
			},
			{
				"x": -0.3053536126,
				"y": 2.0786953587,
				"z": -2.0211674722,
				"element": "H" 
			},
			{
				"x": -3.4160620604,
				"y": 2.0651496846,
				"z": 0.9375582431,
				"element": "H" 
			}
		],
		 "valence_orbital": [ 
			{
				"type": "occ",
				"energy": -0.3339,
				"method": "rhf"
			},
			{
				"type": "occ",
				"energy": -0.28125,
				"method": "rhf"
			},
			{
				"type": "occ",
				"energy": -0.23959,
				"method": "rhf"
			},
			{
				"type": "occ",
				"energy": -0.23397,
				"method": "rhf"
			},
			{
				"type": "occ",
				"energy": -0.21608,
				"method": "rhf"
			},
			{
				"type": "unocc",
				"energy": -0.04072,
				"method": "rhf"
			},
			{
				"type": "unocc",
				"energy": -0.00259,
				"method": "rhf"
			},
			{
				"type": "unocc",
				"energy": 0.01946,
				"method": "rhf"
			},
			{
				"type": "unocc",
				"energy": 0.06364,
				"method": "rhf"
			},
			{
				"type": "unocc",
				"energy": 0.09689,
				"method": "rhf"
			}
		],
		"cosmo_sigma_profile": { 
			"-0.025": 0.0,
			"-0.024": 0.0,
			"-0.023": 0.0,
			"-0.022": 0.0,
			"-0.021": 0.0,
			"-0.02": 0.0,
			"-0.019": 0.0,
			"-0.018": 0.0,
			"-0.017": 0.504758060684,
			"-0.016": 1.97353276212,
			"-0.015": 1.54227547823,
			"-0.014": 1.2860077358,
			"-0.013": 1.49316076705,
			"-0.012": 1.27103359161,
			"-0.011": 1.26471929803,
			"-0.01": 2.15120179446,
			"-0.009": 3.31970935868,
			"-0.008": 4.34958781677,
			"-0.007": 4.5304907015,
			"-0.006": 8.30140811139,
			"-0.005": 11.2310361036,
			"-0.004": 10.5710799333,
			"-0.003": 11.5025756291,
			"-0.002": 10.2902649251,
			"-0.001": 13.5554490327,
			"0.0": 11.7606018461,
			"0.001": 11.9372590461,
			"0.002": 18.4656806092,
			"0.003": 17.8557844943,
			"0.004": 23.8674209931,
			"0.005": 14.4906243218,
			"0.006": 2.23674248397,
			"0.007": 2.54573576075,
			"0.008": 2.12325713494,
			"0.009": 0.997278162102,
			"0.01": 1.87147576668,
			"0.011": 2.42170800643,
			"0.012": 2.72330516879,
			"0.013": 2.63404756279,
			"0.014": 1.50287935055,
			"0.015": 0.194941796166,
			"0.016": 0.0,
			"0.017": 0.0,
			"0.018": 0.0,
			"0.019": 0.0,
			"0.02": 0.0,
			"0.021": 0.0,
			"0.022": 0.0,
			"0.023": 0.0,
			"0.024": 0.0,
			"0.025": 0.0
		}
	}
}
