{
	 "smiles": "NC1=CC(=CC=C1)S(=O)(=O)NC1=C(Cl)C=CC=C1", 
	 "Tm": 384.15, 
	 "num_atms": 29, 
	 "gaussian": { 
		 "optdone": 1, 
		 "sigma_profile": "yes", 
		 "theory": "DFT", 
		 "functional": "B3LYP", 
		 "basiset": "6-31G**", 
		 "properties": { 
			 "R2extent": 6333.2365, 
			 "electric_dipole_moment_norm": 6.03154684886, 
			 "electric_quadrupole_moment_norm": 22.1390462507, 
			 "total_energy": -1582.17202419, 
			 "HOMO_LUMO_gap": 0.18116, 
			 "cosmo_polarized_energy": -17.8, 
			 "cosmo_cavitation_energy": 36.49, 
			 "cosmo_dispersion_energy": -25.52, 
			 "cosmo_repulsion_energy": 1.95, 
			 "cosmo_total_nonelectrostatic_energy": 12.92, 
			 "SMD_solvation_energy": 4.94 
		},
		"coords": [
			{
				"x": -0.7018257322,
				"y": -2.160916929,
				"z": -1.9860178324,
				"element": "N" 
			},
			{
				"x": -0.9613413079,
				"y": -1.1857760949,
				"z": -1.02951888,
				"element": "C" 
			},
			{
				"x": -0.6736355198,
				"y": 0.1652425499,
				"z": -1.2900797394,
				"element": "C" 
			},
			{
				"x": -0.8983441275,
				"y": 1.1161128012,
				"z": -0.2972574877,
				"element": "C" 
			},
			{
				"x": -1.4088790148,
				"y": 0.7832327027,
				"z": 0.9590513287,
				"element": "C" 
			},
			{
				"x": -1.6920306352,
				"y": -0.5602774429,
				"z": 1.2078878368,
				"element": "C" 
			},
			{
				"x": -1.4704207957,
				"y": -1.532518962,
				"z": 0.2360550803,
				"element": "C" 
			},
			{
				"x": -0.4908122852,
				"y": 2.8301517792,
				"z": -0.6403061112,
				"element": "S" 
			},
			{
				"x": -1.2756643787,
				"y": 3.6805527085,
				"z": 0.2527976261,
				"element": "O" 
			},
			{
				"x": -0.4875956822,
				"y": 3.0097429672,
				"z": -2.0923484585,
				"element": "O" 
			},
			{
				"x": 1.1099472821,
				"y": 3.0627685843,
				"z": -0.1001753016,
				"element": "N" 
			},
			{
				"x": 2.2247412201,
				"y": 2.3659246444,
				"z": -0.615660402,
				"element": "C" 
			},
			{
				"x": 3.1450350256,
				"y": 1.739082019,
				"z": 0.2446226367,
				"element": "C" 
			},
			{
				"x": 2.8800175401,
				"y": 1.7749435743,
				"z": 1.9877366034,
				"element": "Cl" 
			},
			{
				"x": 4.2807815655,
				"y": 1.0989142517,
				"z": -0.245601748,
				"element": "C" 
			},
			{
				"x": 4.5078718168,
				"y": 1.053495,
				"z": -1.6198646251,
				"element": "C" 
			},
			{
				"x": 3.6047396008,
				"y": 1.6679135291,
				"z": -2.4892110828,
				"element": "C" 
			},
			{
				"x": 2.4847060019,
				"y": 2.3308716523,
				"z": -1.9955828138,
				"element": "C" 
			},
			{
				"x": -1.2271039485,
				"y": -3.0188009139,
				"z": -1.8948069337,
				"element": "H" 
			},
			{
				"x": -0.6503506095,
				"y": -1.837886527,
				"z": -2.941716445,
				"element": "H" 
			},
			{
				"x": -0.2991506994,
				"y": 0.4748313152,
				"z": -2.2597498071,
				"element": "H" 
			},
			{
				"x": -1.5992544271,
				"y": 1.5521850266,
				"z": 1.6980575397,
				"element": "H" 
			},
			{
				"x": -2.098917198,
				"y": -0.8540088036,
				"z": 2.1709377509,
				"element": "H" 
			},
			{
				"x": -1.6960349996,
				"y": -2.5739691016,
				"z": 0.4507650082,
				"element": "H" 
			},
			{
				"x": 1.1111401029,
				"y": 3.1770255882,
				"z": 0.9092863085,
				"element": "H" 
			},
			{
				"x": 4.9703991783,
				"y": 0.6353308707,
				"z": 0.4510812252,
				"element": "H" 
			},
			{
				"x": 5.3888029181,
				"y": 0.5484171917,
				"z": -2.0030005438,
				"element": "H" 
			},
			{
				"x": 3.7817506305,
				"y": 1.6509096482,
				"z": -3.5602766465,
				"element": "H" 
			},
			{
				"x": 1.7952284789,
				"y": 2.8355063705,
				"z": -2.6611040858,
				"element": "H" 
			}
		],
		 "valence_orbital": [ 
			{
				"type": "occ",
				"energy": -0.30394,
				"method": "rhf"
			},
			{
				"type": "occ",
				"energy": -0.26948,
				"method": "rhf"
			},
			{
				"type": "occ",
				"energy": -0.25689,
				"method": "rhf"
			},
			{
				"type": "occ",
				"energy": -0.23636,
				"method": "rhf"
			},
			{
				"type": "occ",
				"energy": -0.22029,
				"method": "rhf"
			},
			{
				"type": "unocc",
				"energy": -0.03913,
				"method": "rhf"
			},
			{
				"type": "unocc",
				"energy": -0.01813,
				"method": "rhf"
			},
			{
				"type": "unocc",
				"energy": -0.01314,
				"method": "rhf"
			},
			{
				"type": "unocc",
				"energy": -0.00488,
				"method": "rhf"
			},
			{
				"type": "unocc",
				"energy": 0.01903,
				"method": "rhf"
			}
		],
		"cosmo_sigma_profile": { 
			"-0.025": 0.0,
			"-0.024": 0.0,
			"-0.023": 0.0,
			"-0.022": 0.0,
			"-0.021": 0.0,
			"-0.02": 0.0,
			"-0.019": 0.0,
			"-0.018": 0.0,
			"-0.017": 0.0,
			"-0.016": 0.0,
			"-0.015": 0.0,
			"-0.014": 0.165073678184,
			"-0.013": 1.99732192877,
			"-0.012": 4.12067364846,
			"-0.011": 3.61008911181,
			"-0.01": 4.61863450382,
			"-0.009": 4.47701099114,
			"-0.008": 4.09210881227,
			"-0.007": 10.4080690753,
			"-0.006": 15.5357220283,
			"-0.005": 17.5608734695,
			"-0.004": 15.9640700527,
			"-0.003": 13.4550800164,
			"-0.002": 15.476339015,
			"-0.001": 15.6126085111,
			"0.0": 18.837155691,
			"0.001": 21.6537685022,
			"0.002": 26.462180279,
			"0.003": 29.9532068101,
			"0.004": 26.5284247788,
			"0.005": 7.93185898727,
			"0.006": 4.92121325462,
			"0.007": 5.12375069892,
			"0.008": 4.16228195261,
			"0.009": 4.16768556161,
			"0.01": 8.76533871739,
			"0.011": 7.37206217464,
			"0.012": 1.02407853422,
			"0.013": 0.495928834313,
			"0.014": 0.0761907176734,
			"0.015": 0.0,
			"0.016": 0.0,
			"0.017": 0.0,
			"0.018": 0.0,
			"0.019": 0.0,
			"0.02": 0.0,
			"0.021": 0.0,
			"0.022": 0.0,
			"0.023": 0.0,
			"0.024": 0.0,
			"0.025": 0.0
		}
	}
}
