{
	 "smiles": "COC1=CC=C2N=C(C=C(Cl)C2=C1)C1=CC=CC=C1", 
	 "Tm": 395.15, 
	 "num_atms": 31, 
	 "gaussian": { 
		 "optdone": 1, 
		 "sigma_profile": "yes", 
		 "theory": "DFT", 
		 "functional": "B3LYP", 
		 "basiset": "6-31G**", 
		 "properties": { 
			 "R2extent": 7411.8409, 
			 "electric_dipole_moment_norm": 1.3659568185, 
			 "electric_quadrupole_moment_norm": 16.8071429601, 
			 "total_energy": -1207.11030531, 
			 "HOMO_LUMO_gap": 0.15336, 
			 "cosmo_polarized_energy": -8.69, 
			 "cosmo_cavitation_energy": 36.78, 
			 "cosmo_dispersion_energy": -27.09, 
			 "cosmo_repulsion_energy": 2.05, 
			 "cosmo_total_nonelectrostatic_energy": 11.74, 
			 "SMD_solvation_energy": 5.31 
		},
		"coords": [
			{
				"x": -1.0144790977,
				"y": 1.7612791348,
				"z": 4.6032225301,
				"element": "C" 
			},
			{
				"x": 0.2572810587,
				"y": 1.4450655609,
				"z": 4.0542797535,
				"element": "O" 
			},
			{
				"x": 0.3190233406,
				"y": 1.0829004419,
				"z": 2.7448992205,
				"element": "C" 
			},
			{
				"x": 1.6292602297,
				"y": 0.7831341047,
				"z": 2.2758061458,
				"element": "C" 
			},
			{
				"x": 1.8313076936,
				"y": 0.4063370825,
				"z": 0.9750205588,
				"element": "C" 
			},
			{
				"x": 0.7424809317,
				"y": 0.3040995219,
				"z": 0.061639027,
				"element": "C" 
			},
			{
				"x": 1.0099230051,
				"y": -0.0685179132,
				"z": -1.2140453158,
				"element": "N" 
			},
			{
				"x": 0.0136781359,
				"y": -0.1669103034,
				"z": -2.0842158084,
				"element": "C" 
			},
			{
				"x": -1.3355106414,
				"y": 0.0920697164,
				"z": -1.7073899777,
				"element": "C" 
			},
			{
				"x": -1.6093278473,
				"y": 0.4734638115,
				"z": -0.41792043,
				"element": "C" 
			},
			{
				"x": -3.2792127715,
				"y": 0.7840630105,
				"z": 0.0383173175,
				"element": "Cl" 
			},
			{
				"x": -0.5729554019,
				"y": 0.60680673,
				"z": 0.5444617592,
				"element": "C" 
			},
			{
				"x": -0.7667697893,
				"y": 0.9963729116,
				"z": 1.8939558027,
				"element": "C" 
			},
			{
				"x": 0.3567873713,
				"y": -0.5789038698,
				"z": -3.4719326095,
				"element": "C" 
			},
			{
				"x": 1.588690899,
				"y": -1.2079587137,
				"z": -3.7211199283,
				"element": "C" 
			},
			{
				"x": 1.9351022739,
				"y": -1.6086225406,
				"z": -5.0084555413,
				"element": "C" 
			},
			{
				"x": 1.0615945278,
				"y": -1.3846349262,
				"z": -6.07602913,
				"element": "C" 
			},
			{
				"x": -0.1598537524,
				"y": -0.7512061561,
				"z": -5.8435277428,
				"element": "C" 
			},
			{
				"x": -0.5095301577,
				"y": -0.3519869031,
				"z": -4.5538569142,
				"element": "C" 
			},
			{
				"x": -1.697572463,
				"y": 0.9041422267,
				"z": 4.5527296162,
				"element": "H" 
			},
			{
				"x": -1.4718857037,
				"y": 2.6159967037,
				"z": 4.0893232274,
				"element": "H" 
			},
			{
				"x": -0.8356956845,
				"y": 2.020398411,
				"z": 5.6475454799,
				"element": "H" 
			},
			{
				"x": 2.4514129897,
				"y": 0.8645719903,
				"z": 2.9792587763,
				"element": "H" 
			},
			{
				"x": 2.8220893443,
				"y": 0.1757982762,
				"z": 0.5983155387,
				"element": "H" 
			},
			{
				"x": -2.1453958432,
				"y": -0.0315602081,
				"z": -2.4143528751,
				"element": "H" 
			},
			{
				"x": -1.7695806901,
				"y": 1.2189491283,
				"z": 2.2322160391,
				"element": "H" 
			},
			{
				"x": 2.2608150932,
				"y": -1.372186107,
				"z": -2.8866177322,
				"element": "H" 
			},
			{
				"x": 2.8890479888,
				"y": -2.0993098676,
				"z": -5.1802437345,
				"element": "H" 
			},
			{
				"x": 1.3325099854,
				"y": -1.6974030517,
				"z": -7.0803632764,
				"element": "H" 
			},
			{
				"x": -0.8411397915,
				"y": -0.5603359042,
				"z": -6.6677677884,
				"element": "H" 
			},
			{
				"x": -1.4533952335,
				"y": 0.162187702,
				"z": -4.402351988,
				"element": "H" 
			}
		],
		 "valence_orbital": [ 
			{
				"type": "occ",
				"energy": -0.26002,
				"method": "rhf"
			},
			{
				"type": "occ",
				"energy": -0.2585,
				"method": "rhf"
			},
			{
				"type": "occ",
				"energy": -0.2493,
				"method": "rhf"
			},
			{
				"type": "occ",
				"energy": -0.24229,
				"method": "rhf"
			},
			{
				"type": "occ",
				"energy": -0.21312,
				"method": "rhf"
			},
			{
				"type": "unocc",
				"energy": -0.05976,
				"method": "rhf"
			},
			{
				"type": "unocc",
				"energy": -0.03479,
				"method": "rhf"
			},
			{
				"type": "unocc",
				"energy": 0.00025,
				"method": "rhf"
			},
			{
				"type": "unocc",
				"energy": 0.01703,
				"method": "rhf"
			},
			{
				"type": "unocc",
				"energy": 0.02434,
				"method": "rhf"
			}
		],
		"cosmo_sigma_profile": { 
			"-0.025": 0.0,
			"-0.024": 0.0,
			"-0.023": 0.0,
			"-0.022": 0.0,
			"-0.021": 0.0,
			"-0.02": 0.0,
			"-0.019": 0.0,
			"-0.018": 0.0,
			"-0.017": 0.0,
			"-0.016": 0.0,
			"-0.015": 0.0,
			"-0.014": 0.0,
			"-0.013": 0.0,
			"-0.012": 0.0,
			"-0.011": 0.0,
			"-0.01": 0.00367477209441,
			"-0.009": 0.929711763889,
			"-0.008": 2.00341645176,
			"-0.007": 4.27535406614,
			"-0.006": 17.0098054564,
			"-0.005": 22.0482025579,
			"-0.004": 23.690133945,
			"-0.003": 22.7105622387,
			"-0.002": 15.2938761837,
			"-0.001": 16.2103491317,
			"0.0": 27.3322927506,
			"0.001": 32.5688733236,
			"0.002": 32.3421694465,
			"0.003": 27.9162544403,
			"0.004": 21.1914862387,
			"0.005": 15.4753960103,
			"0.006": 5.37822760112,
			"0.007": 3.77768629895,
			"0.008": 3.07755933839,
			"0.009": 2.30662554466,
			"0.01": 1.16690835836,
			"0.011": 1.07403054358,
			"0.012": 0.338034319674,
			"0.013": 0.0,
			"0.014": 0.0,
			"0.015": 0.0,
			"0.016": 0.0,
			"0.017": 0.0,
			"0.018": 0.0,
			"0.019": 0.0,
			"0.02": 0.0,
			"0.021": 0.0,
			"0.022": 0.0,
			"0.023": 0.0,
			"0.024": 0.0,
			"0.025": 0.0
		}
	}
}
