{
	 "smiles": "NC1=C(C=C(NC(=O)C2CCCO2)C=C1)C(F)(F)F", 
	 "Tm": 338.15, 
	 "num_atms": 32, 
	 "gaussian": { 
		 "optdone": 1, 
		 "sigma_profile": "yes", 
		 "theory": "DFT", 
		 "functional": "B3LYP", 
		 "basiset": "6-31G**", 
		 "properties": { 
			 "R2extent": 7090.1945, 
			 "electric_dipole_moment_norm": 3.60381062904, 
			 "electric_quadrupole_moment_norm": 4.19174024959, 
			 "total_energy": -1024.59780552, 
			 "HOMO_LUMO_gap": 0.18162, 
			 "cosmo_polarized_energy": -14.54, 
			 "cosmo_cavitation_energy": 35.99, 
			 "cosmo_dispersion_energy": -25.98, 
			 "cosmo_repulsion_energy": 1.96, 
			 "cosmo_total_nonelectrostatic_energy": 11.97, 
			 "SMD_solvation_energy": 7.36 
		},
		"coords": [
			{
				"x": 3.8223371263,
				"y": 1.6202285715,
				"z": 0.090595571,
				"element": "N" 
			},
			{
				"x": 2.5500395317,
				"y": 1.191775483,
				"z": -0.2529584499,
				"element": "C" 
			},
			{
				"x": 1.8559768254,
				"y": 1.7095234342,
				"z": -1.3726158964,
				"element": "C" 
			},
			{
				"x": 0.5904787749,
				"y": 1.225313383,
				"z": -1.7064623147,
				"element": "C" 
			},
			{
				"x": -0.0145996135,
				"y": 0.2058401613,
				"z": -0.9688335018,
				"element": "C" 
			},
			{
				"x": -1.2795822157,
				"y": -0.2882161623,
				"z": -1.388559871,
				"element": "N" 
			},
			{
				"x": -2.4133803191,
				"y": -0.5908058889,
				"z": -0.6710274474,
				"element": "C" 
			},
			{
				"x": -3.380349135,
				"y": -1.0942793004,
				"z": -1.2324163358,
				"element": "O" 
			},
			{
				"x": -2.408575311,
				"y": -0.3025852892,
				"z": 0.8411214107,
				"element": "C" 
			},
			{
				"x": -3.8359993246,
				"y": -0.0788556785,
				"z": 1.3914364266,
				"element": "C" 
			},
			{
				"x": -3.963484289,
				"y": -1.1275480523,
				"z": 2.5148721799,
				"element": "C" 
			},
			{
				"x": -2.9893547913,
				"y": -2.2063617239,
				"z": 2.0449649493,
				"element": "C" 
			},
			{
				"x": -1.8841032269,
				"y": -1.4704779097,
				"z": 1.5063705916,
				"element": "O" 
			},
			{
				"x": 0.6800076659,
				"y": -0.3348259343,
				"z": 0.1235286185,
				"element": "C" 
			},
			{
				"x": 1.9242411394,
				"y": 0.167097314,
				"z": 0.4805505401,
				"element": "C" 
			},
			{
				"x": 2.4879180741,
				"y": 2.7689032733,
				"z": -2.2273224807,
				"element": "C" 
			},
			{
				"x": 3.5886626469,
				"y": 2.3188681791,
				"z": -2.8721010124,
				"element": "F" 
			},
			{
				"x": 1.6474037941,
				"y": 3.2539854917,
				"z": -3.1616956606,
				"element": "F" 
			},
			{
				"x": 2.9055513494,
				"y": 3.8378781791,
				"z": -1.4823104945,
				"element": "F" 
			},
			{
				"x": 4.1198721382,
				"y": 1.3914214325,
				"z": 1.0275201716,
				"element": "H" 
			},
			{
				"x": 4.0808973479,
				"y": 2.5526981667,
				"z": -0.195667307,
				"element": "H" 
			},
			{
				"x": 0.0697163404,
				"y": 1.6556878192,
				"z": -2.5546028049,
				"element": "H" 
			},
			{
				"x": -1.3933859606,
				"y": -0.4854208188,
				"z": -2.3760952373,
				"element": "H" 
			},
			{
				"x": -1.7323100511,
				"y": 0.5253593463,
				"z": 1.07251185,
				"element": "H" 
			},
			{
				"x": -4.5592455494,
				"y": -0.2747883517,
				"z": 0.5973017366,
				"element": "H" 
			},
			{
				"x": -3.9752143127,
				"y": 0.9441870997,
				"z": 1.7494757148,
				"element": "H" 
			},
			{
				"x": -3.6308720836,
				"y": -0.717787624,
				"z": 3.4744487688,
				"element": "H" 
			},
			{
				"x": -4.985829384,
				"y": -1.4968264511,
				"z": 2.6348092764,
				"element": "H" 
			},
			{
				"x": -3.4431193907,
				"y": -2.8413668834,
				"z": 1.2707050095,
				"element": "H" 
			},
			{
				"x": -2.5978123205,
				"y": -2.8432199401,
				"z": 2.8430698785,
				"element": "H" 
			},
			{
				"x": 0.2329526941,
				"y": -1.1397540984,
				"z": 0.6966999981,
				"element": "H" 
			},
			{
				"x": 2.44336183,
				"y": -0.256347228,
				"z": 1.3364861224,
				"element": "H" 
			}
		],
		 "valence_orbital": [ 
			{
				"type": "occ",
				"energy": -0.283,
				"method": "rhf"
			},
			{
				"type": "occ",
				"energy": -0.27302,
				"method": "rhf"
			},
			{
				"type": "occ",
				"energy": -0.26743,
				"method": "rhf"
			},
			{
				"type": "occ",
				"energy": -0.23803,
				"method": "rhf"
			},
			{
				"type": "occ",
				"energy": -0.20792,
				"method": "rhf"
			},
			{
				"type": "unocc",
				"energy": -0.0263,
				"method": "rhf"
			},
			{
				"type": "unocc",
				"energy": -0.01205,
				"method": "rhf"
			},
			{
				"type": "unocc",
				"energy": 0.02202,
				"method": "rhf"
			},
			{
				"type": "unocc",
				"energy": 0.0794,
				"method": "rhf"
			},
			{
				"type": "unocc",
				"energy": 0.09211,
				"method": "rhf"
			}
		],
		"cosmo_sigma_profile": { 
			"-0.025": 0.0,
			"-0.024": 0.0,
			"-0.023": 0.0,
			"-0.022": 0.0,
			"-0.021": 0.0,
			"-0.02": 0.0,
			"-0.019": 0.0,
			"-0.018": 0.0,
			"-0.017": 0.0,
			"-0.016": 0.0,
			"-0.015": 0.0657115266031,
			"-0.014": 0.869801390527,
			"-0.013": 2.43582335396,
			"-0.012": 2.46688932196,
			"-0.011": 3.82694137944,
			"-0.01": 3.57847111256,
			"-0.009": 4.41693481382,
			"-0.008": 3.76489092106,
			"-0.007": 4.56002331378,
			"-0.006": 5.21337736276,
			"-0.005": 11.1544889633,
			"-0.004": 17.7327747015,
			"-0.003": 22.2195251037,
			"-0.002": 27.1244454179,
			"-0.001": 19.222077655,
			"0.0": 22.8405537815,
			"0.001": 21.9390270569,
			"0.002": 27.4351825675,
			"0.003": 36.1211545776,
			"0.004": 13.9701705795,
			"0.005": 4.95000565741,
			"0.006": 3.57325649237,
			"0.007": 4.22085730177,
			"0.008": 4.01916010404,
			"0.009": 2.6140406028,
			"0.01": 3.06069204063,
			"0.011": 2.32522973245,
			"0.012": 2.57497197239,
			"0.013": 4.67772970043,
			"0.014": 2.11276363005,
			"0.015": 0.00581885879254,
			"0.016": 0.0,
			"0.017": 0.0,
			"0.018": 0.0,
			"0.019": 0.0,
			"0.02": 0.0,
			"0.021": 0.0,
			"0.022": 0.0,
			"0.023": 0.0,
			"0.024": 0.0,
			"0.025": 0.0
		}
	}
}
