{
	 "smiles": "CC1CCC(CN2C(=O)NC(=O)C=C2N)CC1", 
	 "Tm": 513.15, 
	 "num_atms": 36, 
	 "gaussian": { 
		 "optdone": 1, 
		 "sigma_profile": "yes", 
		 "theory": "DFT", 
		 "functional": "B3LYP", 
		 "basiset": "6-31G**", 
		 "properties": { 
			 "R2extent": 5174.7506, 
			 "electric_dipole_moment_norm": 6.17996376527, 
			 "electric_quadrupole_moment_norm": 18.8909907898, 
			 "total_energy": -783.482380945, 
			 "HOMO_LUMO_gap": 0.20808, 
			 "cosmo_polarized_energy": -19.9, 
			 "cosmo_cavitation_energy": 35.32, 
			 "cosmo_dispersion_energy": -25.44, 
			 "cosmo_repulsion_energy": 1.95, 
			 "cosmo_total_nonelectrostatic_energy": 11.83, 
			 "SMD_solvation_energy": 6.42 
		},
		"coords": [
			{
				"x": 2.671783422,
				"y": 1.6323815699,
				"z": 2.1889049318,
				"element": "C" 
			},
			{
				"x": 1.8539374907,
				"y": 0.556625334,
				"z": 1.4626653307,
				"element": "C" 
			},
			{
				"x": 2.7539493712,
				"y": -0.294268911,
				"z": 0.5303769941,
				"element": "C" 
			},
			{
				"x": 1.9411625473,
				"y": -0.9635889995,
				"z": -0.5849736271,
				"element": "C" 
			},
			{
				"x": 1.3691459797,
				"y": 0.0924438233,
				"z": -1.5600049638,
				"element": "C" 
			},
			{
				"x": 0.2454345088,
				"y": -0.465480417,
				"z": -2.4759292715,
				"element": "C" 
			},
			{
				"x": -0.801087011,
				"y": -1.304838714,
				"z": -1.8513736152,
				"element": "N" 
			},
			{
				"x": -0.5810202167,
				"y": -2.6981418623,
				"z": -1.9188465695,
				"element": "C" 
			},
			{
				"x": 0.4531559966,
				"y": -3.1709467719,
				"z": -2.3677300708,
				"element": "O" 
			},
			{
				"x": -1.6101975893,
				"y": -3.4755935886,
				"z": -1.4462723892,
				"element": "N" 
			},
			{
				"x": -2.8723095409,
				"y": -3.0553885576,
				"z": -0.963661395,
				"element": "C" 
			},
			{
				"x": -3.6880658121,
				"y": -3.8879494497,
				"z": -0.5913292317,
				"element": "O" 
			},
			{
				"x": -3.0229652452,
				"y": -1.6258396263,
				"z": -0.9687827318,
				"element": "C" 
			},
			{
				"x": -2.0241034965,
				"y": -0.803092018,
				"z": -1.4155281635,
				"element": "C" 
			},
			{
				"x": -2.2013246067,
				"y": 0.5628897222,
				"z": -1.5167759936,
				"element": "N" 
			},
			{
				"x": 1.0382031341,
				"y": 1.4084945121,
				"z": -0.7975922541,
				"element": "C" 
			},
			{
				"x": 0.6610535932,
				"y": 1.1670131338,
				"z": 0.6719949655,
				"element": "C" 
			},
			{
				"x": 2.0660809272,
				"y": 2.1630841926,
				"z": 2.9316081047,
				"element": "H" 
			},
			{
				"x": 3.0624522327,
				"y": 2.3762165478,
				"z": 1.4833479534,
				"element": "H" 
			},
			{
				"x": 3.5300426699,
				"y": 1.192521066,
				"z": 2.7089268454,
				"element": "H" 
			},
			{
				"x": 1.4341223218,
				"y": -0.1148198169,
				"z": 2.2232762555,
				"element": "H" 
			},
			{
				"x": 3.2865415383,
				"y": -1.0475879235,
				"z": 1.1214884706,
				"element": "H" 
			},
			{
				"x": 3.5303834298,
				"y": 0.3428587583,
				"z": 0.0830279667,
				"element": "H" 
			},
			{
				"x": 2.5370000006,
				"y": -1.6953051272,
				"z": -1.1369928364,
				"element": "H" 
			},
			{
				"x": 1.1214707247,
				"y": -1.5288588631,
				"z": -0.1262019707,
				"element": "H" 
			},
			{
				"x": 2.1648648193,
				"y": 0.346316413,
				"z": -2.273783901,
				"element": "H" 
			},
			{
				"x": -0.2544549044,
				"y": 0.3479624553,
				"z": -3.0092547985,
				"element": "H" 
			},
			{
				"x": 0.7116091245,
				"y": -1.1149118494,
				"z": -3.2169425814,
				"element": "H" 
			},
			{
				"x": -1.4519040771,
				"y": -4.4745767531,
				"z": -1.4859246525,
				"element": "H" 
			},
			{
				"x": -3.9550085839,
				"y": -1.2138222706,
				"z": -0.6055417755,
				"element": "H" 
			},
			{
				"x": -3.0546425324,
				"y": 0.8930209275,
				"z": -1.0884295807,
				"element": "H" 
			},
			{
				"x": -1.406610213,
				"y": 1.147149268,
				"z": -1.3013816794,
				"element": "H" 
			},
			{
				"x": 0.2706691595,
				"y": 1.9891298579,
				"z": -1.3295008648,
				"element": "H" 
			},
			{
				"x": 1.9225865448,
				"y": 2.0565535139,
				"z": -0.8202636786,
				"element": "H" 
			},
			{
				"x": 0.3431462811,
				"y": 2.1051595455,
				"z": 1.1427322413,
				"element": "H" 
			},
			{
				"x": -0.2009019886,
				"y": 0.4908908786,
				"z": 0.7268685365,
				"element": "H" 
			}
		],
		 "valence_orbital": [ 
			{
				"type": "occ",
				"energy": -0.28745,
				"method": "rhf"
			},
			{
				"type": "occ",
				"energy": -0.2827,
				"method": "rhf"
			},
			{
				"type": "occ",
				"energy": -0.27044,
				"method": "rhf"
			},
			{
				"type": "occ",
				"energy": -0.24474,
				"method": "rhf"
			},
			{
				"type": "occ",
				"energy": -0.22073,
				"method": "rhf"
			},
			{
				"type": "unocc",
				"energy": -0.01265,
				"method": "rhf"
			},
			{
				"type": "unocc",
				"energy": 0.01999,
				"method": "rhf"
			},
			{
				"type": "unocc",
				"energy": 0.04753,
				"method": "rhf"
			},
			{
				"type": "unocc",
				"energy": 0.07577,
				"method": "rhf"
			},
			{
				"type": "unocc",
				"energy": 0.08517,
				"method": "rhf"
			}
		],
		"cosmo_sigma_profile": { 
			"-0.025": 0.0,
			"-0.024": 0.0,
			"-0.023": 0.0,
			"-0.022": 0.0,
			"-0.021": 0.0,
			"-0.02": 0.0,
			"-0.019": 0.0,
			"-0.018": 0.0,
			"-0.017": 0.0,
			"-0.016": 0.0557794785499,
			"-0.015": 0.983285677766,
			"-0.014": 2.32411980236,
			"-0.013": 2.18533133757,
			"-0.012": 3.25147117253,
			"-0.011": 2.98972752345,
			"-0.01": 3.26023742497,
			"-0.009": 3.46152069063,
			"-0.008": 3.08939371473,
			"-0.007": 4.44303843614,
			"-0.006": 4.49106391695,
			"-0.005": 4.74656099196,
			"-0.004": 12.7759540561,
			"-0.003": 23.8120763645,
			"-0.002": 39.2964939782,
			"-0.001": 36.1747924599,
			"0.0": 32.4924200967,
			"0.001": 24.4221682728,
			"0.002": 12.3577064983,
			"0.003": 6.80906964936,
			"0.004": 6.90924189758,
			"0.005": 3.98203397614,
			"0.006": 3.51903243608,
			"0.007": 4.12703981124,
			"0.008": 2.96905505553,
			"0.009": 2.43428613557,
			"0.01": 3.66527941747,
			"0.011": 3.4793062896,
			"0.012": 3.89052374384,
			"0.013": 7.18014866451,
			"0.014": 6.85486226635,
			"0.015": 2.12143615217,
			"0.016": 0.0820884614727,
			"0.017": 0.0,
			"0.018": 0.0,
			"0.019": 0.0,
			"0.02": 0.0,
			"0.021": 0.0,
			"0.022": 0.0,
			"0.023": 0.0,
			"0.024": 0.0,
			"0.025": 0.0
		}
	}
}
