{
	 "smiles": "NNC(=S)NC1CCCCC1", 
	 "Tm": 417.15, 
	 "num_atms": 26, 
	 "gaussian": { 
		 "optdone": 1, 
		 "sigma_profile": "yes", 
		 "theory": "DFT", 
		 "functional": "B3LYP", 
		 "basiset": "6-31G**", 
		 "properties": { 
			 "R2extent": 3236.133, 
			 "electric_dipole_moment_norm": 4.30707034886, 
			 "electric_quadrupole_moment_norm": 12.7784142107, 
			 "total_energy": -838.216409543, 
			 "HOMO_LUMO_gap": 0.20599, 
			 "cosmo_polarized_energy": -16.02, 
			 "cosmo_cavitation_energy": 28.22, 
			 "cosmo_dispersion_energy": -21.15, 
			 "cosmo_repulsion_energy": 1.69, 
			 "cosmo_total_nonelectrostatic_energy": 8.75, 
			 "SMD_solvation_energy": 3.33 
		},
		"coords": [
			{
				"x": -3.7993587397,
				"y": -0.1184953511,
				"z": -1.5415317904,
				"element": "N" 
			},
			{
				"x": -2.5557575061,
				"y": -0.3404721335,
				"z": -0.9227068174,
				"element": "N" 
			},
			{
				"x": -1.4706581464,
				"y": -0.8718407726,
				"z": -1.5815638168,
				"element": "C" 
			},
			{
				"x": -1.4742197052,
				"y": -1.1124946876,
				"z": -3.2488887604,
				"element": "S" 
			},
			{
				"x": -0.4332015464,
				"y": -1.1754295256,
				"z": -0.758912467,
				"element": "N" 
			},
			{
				"x": 0.8777667907,
				"y": -1.6811079862,
				"z": -1.1958945581,
				"element": "C" 
			},
			{
				"x": 1.5189722985,
				"y": -2.5416619822,
				"z": -0.0714184763,
				"element": "C" 
			},
			{
				"x": 2.6149930658,
				"y": -1.7984487759,
				"z": 0.7235839653,
				"element": "C" 
			},
			{
				"x": 2.2597368686,
				"y": -0.3183076345,
				"z": 0.9169684037,
				"element": "C" 
			},
			{
				"x": 2.149396907,
				"y": 0.41781764,
				"z": -0.4436834553,
				"element": "C" 
			},
			{
				"x": 1.8190257287,
				"y": -0.5375239265,
				"z": -1.6120638879,
				"element": "C" 
			},
			{
				"x": -3.9464204794,
				"y": -0.8750377893,
				"z": -2.2135898497,
				"element": "H" 
			},
			{
				"x": -3.7065004994,
				"y": 0.7227071899,
				"z": -2.109840459,
				"element": "H" 
			},
			{
				"x": -2.644768631,
				"y": -0.5223621195,
				"z": 0.0688358061,
				"element": "H" 
			},
			{
				"x": -0.49089441,
				"y": -0.8490711241,
				"z": 0.1976070495,
				"element": "H" 
			},
			{
				"x": 0.6667222622,
				"y": -2.3010481557,
				"z": -2.0693606125,
				"element": "H" 
			},
			{
				"x": 1.9413958989,
				"y": -3.4490336338,
				"z": -0.5158608092,
				"element": "H" 
			},
			{
				"x": 0.726560213,
				"y": -2.8810826424,
				"z": 0.6067389575,
				"element": "H" 
			},
			{
				"x": 3.5720221027,
				"y": -1.8669892566,
				"z": 0.1908061915,
				"element": "H" 
			},
			{
				"x": 2.7693077761,
				"y": -2.2911952017,
				"z": 1.6899739575,
				"element": "H" 
			},
			{
				"x": 2.9982924486,
				"y": 0.1748419466,
				"z": 1.5582015549,
				"element": "H" 
			},
			{
				"x": 1.3073542844,
				"y": -0.25158147,
				"z": 1.464227864,
				"element": "H" 
			},
			{
				"x": 1.3894064846,
				"y": 1.2042145963,
				"z": -0.377482166,
				"element": "H" 
			},
			{
				"x": 3.0926137566,
				"y": 0.9293225881,
				"z": -0.665811894,
				"element": "H" 
			},
			{
				"x": 2.7410389894,
				"y": -0.9971895996,
				"z": -1.9900420855,
				"element": "H" 
			},
			{
				"x": 1.3774737878,
				"y": 0.0088698075,
				"z": -2.4500918444,
				"element": "H" 
			}
		],
		 "valence_orbital": [ 
			{
				"type": "occ",
				"energy": -0.30902,
				"method": "rhf"
			},
			{
				"type": "occ",
				"energy": -0.27981,
				"method": "rhf"
			},
			{
				"type": "occ",
				"energy": -0.25065,
				"method": "rhf"
			},
			{
				"type": "occ",
				"energy": -0.21703,
				"method": "rhf"
			},
			{
				"type": "occ",
				"energy": -0.20402,
				"method": "rhf"
			},
			{
				"type": "unocc",
				"energy": 0.00197,
				"method": "rhf"
			},
			{
				"type": "unocc",
				"energy": 0.04589,
				"method": "rhf"
			},
			{
				"type": "unocc",
				"energy": 0.07748,
				"method": "rhf"
			},
			{
				"type": "unocc",
				"energy": 0.09308,
				"method": "rhf"
			},
			{
				"type": "unocc",
				"energy": 0.10033,
				"method": "rhf"
			}
		],
		"cosmo_sigma_profile": { 
			"-0.025": 0.0,
			"-0.024": 0.0,
			"-0.023": 0.0,
			"-0.022": 0.0,
			"-0.021": 0.0,
			"-0.02": 0.0,
			"-0.019": 0.0,
			"-0.018": 0.000215981186795,
			"-0.017": 0.578723783528,
			"-0.016": 1.33869521379,
			"-0.015": 1.90907978224,
			"-0.014": 1.34485781268,
			"-0.013": 1.23387872646,
			"-0.012": 2.02409759331,
			"-0.011": 2.27259425862,
			"-0.01": 3.12077177976,
			"-0.009": 3.27001925674,
			"-0.008": 3.65996486317,
			"-0.007": 3.56411128717,
			"-0.006": 3.729583866,
			"-0.005": 3.75294776485,
			"-0.004": 5.49077703393,
			"-0.003": 18.3750335197,
			"-0.002": 27.0999772714,
			"-0.001": 27.071780619,
			"0.0": 27.0558563744,
			"0.001": 21.5412460959,
			"0.002": 7.37425878539,
			"0.003": 5.81045342577,
			"0.004": 6.06257860919,
			"0.005": 4.96330289107,
			"0.006": 5.19444651091,
			"0.007": 4.24504338418,
			"0.008": 5.13690915406,
			"0.009": 5.12167184229,
			"0.01": 7.98007928366,
			"0.011": 6.90061221004,
			"0.012": 1.11131967497,
			"0.013": 0.772836891729,
			"0.014": 0.367676930202,
			"0.015": 0.636174166958,
			"0.016": 0.637554943609,
			"0.017": 0.0763226852305,
			"0.018": 0.0,
			"0.019": 0.0,
			"0.02": 0.0,
			"0.021": 0.0,
			"0.022": 0.0,
			"0.023": 0.0,
			"0.024": 0.0,
			"0.025": 0.0
		}
	}
}
