{
	 "smiles": "CC1=NC(OC2=CC=C(N)C=C2)=NC=C1", 
	 "Tm": 393.15, 
	 "num_atms": 26, 
	 "gaussian": { 
		 "optdone": 1, 
		 "sigma_profile": "yes", 
		 "theory": "DFT", 
		 "functional": "B3LYP", 
		 "basiset": "6-31G**", 
		 "properties": { 
			 "R2extent": 4223.3593, 
			 "electric_dipole_moment_norm": 4.2136499819, 
			 "electric_quadrupole_moment_norm": 19.3529677176, 
			 "total_energy": -665.279525227, 
			 "HOMO_LUMO_gap": 0.16387, 
			 "cosmo_polarized_energy": -16.15, 
			 "cosmo_cavitation_energy": 30.97, 
			 "cosmo_dispersion_energy": -22.25, 
			 "cosmo_repulsion_energy": 1.78, 
			 "cosmo_total_nonelectrostatic_energy": 10.49, 
			 "SMD_solvation_energy": 3.06 
		},
		"coords": [
			{
				"x": 1.5976234979,
				"y": -1.7551987591,
				"z": -1.4408338891,
				"element": "C" 
			},
			{
				"x": 0.1194806672,
				"y": -1.9197056638,
				"z": -1.2103182817,
				"element": "C" 
			},
			{
				"x": -0.4671473895,
				"y": -1.0068457387,
				"z": -0.4172246792,
				"element": "N" 
			},
			{
				"x": -1.7743810592,
				"y": -1.1493758636,
				"z": -0.2109254128,
				"element": "C" 
			},
			{
				"x": -2.4175195725,
				"y": -0.2578994471,
				"z": 0.5797242978,
				"element": "O" 
			},
			{
				"x": -1.7017442722,
				"y": 0.7918408131,
				"z": 1.1646843761,
				"element": "C" 
			},
			{
				"x": -1.153462918,
				"y": 0.6313613388,
				"z": 2.4336773905,
				"element": "C" 
			},
			{
				"x": -0.5237958041,
				"y": 1.7057964727,
				"z": 3.0566098955,
				"element": "C" 
			},
			{
				"x": -0.4362178197,
				"y": 2.9555341094,
				"z": 2.4194935591,
				"element": "C" 
			},
			{
				"x": 0.1436095762,
				"y": 4.050626241,
				"z": 3.0699267177,
				"element": "N" 
			},
			{
				"x": -1.0030336772,
				"y": 3.0970375645,
				"z": 1.1412641305,
				"element": "C" 
			},
			{
				"x": -1.6325276764,
				"y": 2.0223052232,
				"z": 0.518441773,
				"element": "C" 
			},
			{
				"x": -2.5830109175,
				"y": -2.0977701029,
				"z": -0.7001605782,
				"element": "N" 
			},
			{
				"x": -1.9827986472,
				"y": -2.9934353615,
				"z": -1.4843088813,
				"element": "C" 
			},
			{
				"x": -0.6201827654,
				"y": -2.9581415987,
				"z": -1.7806288437,
				"element": "C" 
			},
			{
				"x": 2.1320934477,
				"y": -1.7858690176,
				"z": -0.4858714161,
				"element": "H" 
			},
			{
				"x": 1.8012137884,
				"y": -0.7767743705,
				"z": -1.8877543422,
				"element": "H" 
			},
			{
				"x": 1.9957526135,
				"y": -2.5341066412,
				"z": -2.0953515353,
				"element": "H" 
			},
			{
				"x": -1.2246527401,
				"y": -0.3314369707,
				"z": 2.9291824164,
				"element": "H" 
			},
			{
				"x": -0.1013935948,
				"y": 1.5797977934,
				"z": 4.0503781249,
				"element": "H" 
			},
			{
				"x": 0.8236024541,
				"y": 3.810515986,
				"z": 3.7785157206,
				"element": "H" 
			},
			{
				"x": 0.4922725328,
				"y": 4.7726211252,
				"z": 2.4540544335,
				"element": "H" 
			},
			{
				"x": -0.9554947574,
				"y": 4.0589892256,
				"z": 0.6370240639,
				"element": "H" 
			},
			{
				"x": -2.0741925071,
				"y": 2.1344339765,
				"z": -0.46642113,
				"element": "H" 
			},
			{
				"x": -2.6215524607,
				"y": -3.7748564674,
				"z": -1.8940046781,
				"element": "H" 
			},
			{
				"x": -0.159839999,
				"y": -3.7008438669,
				"z": -2.4219732316,
				"element": "H" 
			}
		],
		 "valence_orbital": [ 
			{
				"type": "occ",
				"energy": -0.29809,
				"method": "rhf"
			},
			{
				"type": "occ",
				"energy": -0.24912,
				"method": "rhf"
			},
			{
				"type": "occ",
				"energy": -0.24621,
				"method": "rhf"
			},
			{
				"type": "occ",
				"energy": -0.24408,
				"method": "rhf"
			},
			{
				"type": "occ",
				"energy": -0.19711,
				"method": "rhf"
			},
			{
				"type": "unocc",
				"energy": -0.03324,
				"method": "rhf"
			},
			{
				"type": "unocc",
				"energy": -0.00315,
				"method": "rhf"
			},
			{
				"type": "unocc",
				"energy": 0.00495,
				"method": "rhf"
			},
			{
				"type": "unocc",
				"energy": 0.02199,
				"method": "rhf"
			},
			{
				"type": "unocc",
				"energy": 0.08071,
				"method": "rhf"
			}
		],
		"cosmo_sigma_profile": { 
			"-0.025": 0.0,
			"-0.024": 0.0,
			"-0.023": 0.0,
			"-0.022": 0.0,
			"-0.021": 0.0,
			"-0.02": 0.0,
			"-0.019": 0.0,
			"-0.018": 0.0,
			"-0.017": 0.0,
			"-0.016": 0.0,
			"-0.015": 0.0,
			"-0.014": 0.0,
			"-0.013": 0.192055492186,
			"-0.012": 2.42658833128,
			"-0.011": 3.1964422357,
			"-0.01": 2.45779524608,
			"-0.009": 3.71492979031,
			"-0.008": 3.71491593241,
			"-0.007": 9.47364745515,
			"-0.006": 14.7026071236,
			"-0.005": 17.7161453387,
			"-0.004": 15.123586069,
			"-0.003": 16.4618962612,
			"-0.002": 19.2018537288,
			"-0.001": 22.6620859999,
			"0.0": 14.9179256203,
			"0.001": 13.9039637564,
			"0.002": 11.8058730955,
			"0.003": 9.87877973837,
			"0.004": 11.7343313538,
			"0.005": 10.5011773517,
			"0.006": 10.5763355699,
			"0.007": 5.75467519362,
			"0.008": 4.89448017885,
			"0.009": 3.49803217358,
			"0.01": 3.70411880894,
			"0.011": 3.89088230372,
			"0.012": 3.98817927086,
			"0.013": 2.67206932247,
			"0.014": 2.50783935172,
			"0.015": 1.40868974454,
			"0.016": 0.486155837404,
			"0.017": 0.0,
			"0.018": 0.0,
			"0.019": 0.0,
			"0.02": 0.0,
			"0.021": 0.0,
			"0.022": 0.0,
			"0.023": 0.0,
			"0.024": 0.0,
			"0.025": 0.0
		}
	}
}
