{
	 "smiles": "OC(=O)C1=C(Br)C=CC(S)=C1", 
	 "Tm": 420.15, 
	 "num_atms": 16, 
	 "gaussian": { 
		 "optdone": 1, 
		 "sigma_profile": "yes", 
		 "theory": "DFT", 
		 "functional": "B3LYP", 
		 "basiset": "6-31G**", 
		 "properties": { 
			 "R2extent": 4161.3924, 
			 "electric_dipole_moment_norm": 3.82763451495, 
			 "electric_quadrupole_moment_norm": 15.6870053704, 
			 "total_energy": -3389.79821015, 
			 "HOMO_LUMO_gap": 0.17339, 
			 "cosmo_polarized_energy": -11.89, 
			 "cosmo_cavitation_energy": 24.41, 
			 "cosmo_dispersion_energy": -19.21, 
			 "cosmo_repulsion_energy": 1.47, 
			 "cosmo_total_nonelectrostatic_energy": 6.68, 
			 "SMD_solvation_energy": 3.82 
		},
		"coords": [
			{
				"x": -0.0807644057,
				"y": 3.0123829851,
				"z": -2.7735480708,
				"element": "O" 
			},
			{
				"x": -0.213364763,
				"y": 1.7093428207,
				"z": -2.4883019776,
				"element": "C" 
			},
			{
				"x": -0.1481540439,
				"y": 0.8898142418,
				"z": -3.3779503139,
				"element": "O" 
			},
			{
				"x": -0.444340961,
				"y": 1.2674713868,
				"z": -1.0488883643,
				"element": "C" 
			},
			{
				"x": -0.5554874325,
				"y": 2.037938146,
				"z": 0.1205165565,
				"element": "C" 
			},
			{
				"x": -0.4320499289,
				"y": 3.9621713502,
				"z": 0.165312826,
				"element": "Br" 
			},
			{
				"x": -0.769518558,
				"y": 1.4378410849,
				"z": 1.3622255526,
				"element": "C" 
			},
			{
				"x": -0.8778121211,
				"y": 0.0571924854,
				"z": 1.4687521541,
				"element": "C" 
			},
			{
				"x": -0.7718079216,
				"y": -0.7418820123,
				"z": 0.3221240617,
				"element": "C" 
			},
			{
				"x": -0.9175926236,
				"y": -2.5076041416,
				"z": 0.5113044356,
				"element": "S" 
			},
			{
				"x": -0.5581586258,
				"y": -0.1266672417,
				"z": -0.9098955041,
				"element": "C" 
			},
			{
				"x": -0.1514359972,
				"y": 3.5719798084,
				"z": -1.9796794886,
				"element": "H" 
			},
			{
				"x": -0.8514768772,
				"y": 2.0565721173,
				"z": 2.2482962762,
				"element": "H" 
			},
			{
				"x": -1.0442847829,
				"y": -0.391606209,
				"z": 2.4433042517,
				"element": "H" 
			},
			{
				"x": -0.7586958464,
				"y": -2.819082019,
				"z": -0.7886138826,
				"element": "H" 
			},
			{
				"x": -0.4697551112,
				"y": -0.703464803,
				"z": -1.8235585127,
				"element": "H" 
			}
		],
		 "valence_orbital": [ 
			{
				"type": "occ",
				"energy": -0.3212,
				"method": "rhf"
			},
			{
				"type": "occ",
				"energy": -0.30154,
				"method": "rhf"
			},
			{
				"type": "occ",
				"energy": -0.28457,
				"method": "rhf"
			},
			{
				"type": "occ",
				"energy": -0.28087,
				"method": "rhf"
			},
			{
				"type": "occ",
				"energy": -0.23994,
				"method": "rhf"
			},
			{
				"type": "unocc",
				"energy": -0.06655,
				"method": "rhf"
			},
			{
				"type": "unocc",
				"energy": -0.03572,
				"method": "rhf"
			},
			{
				"type": "unocc",
				"energy": -0.0303,
				"method": "rhf"
			},
			{
				"type": "unocc",
				"energy": 0.0026,
				"method": "rhf"
			},
			{
				"type": "unocc",
				"energy": 0.04051,
				"method": "rhf"
			}
		],
		"cosmo_sigma_profile": { 
			"-0.025": 0.0,
			"-0.024": 0.0,
			"-0.023": 0.0,
			"-0.022": 0.0,
			"-0.021": 0.0,
			"-0.02": 0.0,
			"-0.019": 0.0,
			"-0.018": 0.0,
			"-0.017": 0.0,
			"-0.016": 0.0,
			"-0.015": 0.0,
			"-0.014": 0.0,
			"-0.013": 0.0,
			"-0.012": 0.458358615064,
			"-0.011": 3.15926080934,
			"-0.01": 2.7782768171,
			"-0.009": 4.37311668509,
			"-0.008": 7.38956997984,
			"-0.007": 8.37727330485,
			"-0.006": 9.51571048991,
			"-0.005": 10.2654455451,
			"-0.004": 9.57551857511,
			"-0.003": 10.0821938788,
			"-0.002": 9.61617555124,
			"-0.001": 13.8618361546,
			"0.0": 19.0538272875,
			"0.001": 22.6561941351,
			"0.002": 17.9692129024,
			"0.003": 10.115475528,
			"0.004": 5.56287515397,
			"0.005": 5.54746233623,
			"0.006": 4.78609600037,
			"0.007": 5.20020029289,
			"0.008": 4.31697551583,
			"0.009": 2.797574833,
			"0.01": 4.98664904682,
			"0.011": 5.05873094691,
			"0.012": 3.46675665259,
			"0.013": 1.3872872477,
			"0.014": 0.00317134266163,
			"0.015": 0.0,
			"0.016": 0.0,
			"0.017": 0.0,
			"0.018": 0.0,
			"0.019": 0.0,
			"0.02": 0.0,
			"0.021": 0.0,
			"0.022": 0.0,
			"0.023": 0.0,
			"0.024": 0.0,
			"0.025": 0.0
		}
	}
}
