{
	 "smiles": "O1C(=NN=C1C1=CC=CC2=C1C=CC=C2)C1=CC=CC2=CC=CC=C12", 
	 "Tm": 450.15, 
	 "num_atms": 39, 
	 "gaussian": { 
		 "optdone": 1, 
		 "sigma_profile": "yes", 
		 "theory": "DFT", 
		 "functional": "B3LYP", 
		 "basiset": "6-31G**", 
		 "properties": { 
			 "R2extent": 9787.8355, 
			 "electric_dipole_moment_norm": 3.66042056327, 
			 "electric_quadrupole_moment_norm": 21.7540833059, 
			 "total_energy": -1031.50472698, 
			 "HOMO_LUMO_gap": 0.14014, 
			 "cosmo_polarized_energy": -12.48, 
			 "cosmo_cavitation_energy": 43.32, 
			 "cosmo_dispersion_energy": -30.96, 
			 "cosmo_repulsion_energy": 2.24, 
			 "cosmo_total_nonelectrostatic_energy": 14.61, 
			 "SMD_solvation_energy": 5.03 
		},
		"coords": [
			{
				"x": 0.6247681845,
				"y": -0.0078860023,
				"z": -0.5256310678,
				"element": "O" 
			},
			{
				"x": 1.8828393083,
				"y": 0.0351777039,
				"z": -1.0637074652,
				"element": "C" 
			},
			{
				"x": 2.1921761681,
				"y": -1.1001450091,
				"z": -1.6278231411,
				"element": "N" 
			},
			{
				"x": 1.1131412009,
				"y": -1.9458083462,
				"z": -1.4586853244,
				"element": "N" 
			},
			{
				"x": 0.1985978903,
				"y": -1.2771355389,
				"z": -0.8111118353,
				"element": "C" 
			},
			{
				"x": -1.146207033,
				"y": -1.7386658604,
				"z": -0.4634079179,
				"element": "C" 
			},
			{
				"x": -1.6165495996,
				"y": -2.8199096632,
				"z": -1.199128552,
				"element": "C" 
			},
			{
				"x": -2.894319514,
				"y": -3.3632571202,
				"z": -0.9702772233,
				"element": "C" 
			},
			{
				"x": -3.7101738202,
				"y": -2.8176809121,
				"z": -0.0060008219,
				"element": "C" 
			},
			{
				"x": -3.2725190357,
				"y": -1.7208167573,
				"z": 0.7809694342,
				"element": "C" 
			},
			{
				"x": -1.9643735879,
				"y": -1.1614619263,
				"z": 0.5709975287,
				"element": "C" 
			},
			{
				"x": -1.558239208,
				"y": -0.0906997322,
				"z": 1.4168735078,
				"element": "C" 
			},
			{
				"x": -2.3982328262,
				"y": 0.4076484457,
				"z": 2.3891906393,
				"element": "C" 
			},
			{
				"x": -3.6918014586,
				"y": -0.1306802981,
				"z": 2.5770235867,
				"element": "C" 
			},
			{
				"x": -4.1133773298,
				"y": -1.1749999991,
				"z": 1.7887315613,
				"element": "C" 
			},
			{
				"x": 2.7417070736,
				"y": 1.2129571796,
				"z": -0.9309230469,
				"element": "C" 
			},
			{
				"x": 4.1038027412,
				"y": 0.9799628177,
				"z": -1.0792390296,
				"element": "C" 
			},
			{
				"x": 5.0426206039,
				"y": 2.0229350178,
				"z": -0.9737405099,
				"element": "C" 
			},
			{
				"x": 4.6184065872,
				"y": 3.3050512391,
				"z": -0.7104327226,
				"element": "C" 
			},
			{
				"x": 3.2377296113,
				"y": 3.597973424,
				"z": -0.5624621504,
				"element": "C" 
			},
			{
				"x": 2.805525306,
				"y": 4.9283668835,
				"z": -0.3098586595,
				"element": "C" 
			},
			{
				"x": 1.4698300254,
				"y": 5.2311369177,
				"z": -0.1916537476,
				"element": "C" 
			},
			{
				"x": 0.5068196099,
				"y": 4.2054695036,
				"z": -0.3295147159,
				"element": "C" 
			},
			{
				"x": 0.8888678649,
				"y": 2.9028101503,
				"z": -0.567101082,
				"element": "C" 
			},
			{
				"x": 2.2627959576,
				"y": 2.5474135017,
				"z": -0.6809962669,
				"element": "C" 
			},
			{
				"x": -0.9759049966,
				"y": -3.2382335054,
				"z": -1.9674712668,
				"element": "H" 
			},
			{
				"x": -3.2315882047,
				"y": -4.2048094027,
				"z": -1.5673226148,
				"element": "H" 
			},
			{
				"x": -4.7035005691,
				"y": -3.2215133035,
				"z": 0.1712986921,
				"element": "H" 
			},
			{
				"x": -0.5731599697,
				"y": 0.3395986925,
				"z": 1.3016512985,
				"element": "H" 
			},
			{
				"x": -2.0584135044,
				"y": 1.2230697367,
				"z": 3.0211835935,
				"element": "H" 
			},
			{
				"x": -4.3428900499,
				"y": 0.2758200323,
				"z": 3.3452350008,
				"element": "H" 
			},
			{
				"x": -5.1004277976,
				"y": -1.6083928484,
				"z": 1.927432277,
				"element": "H" 
			},
			{
				"x": 4.4350575799,
				"y": -0.0341454618,
				"z": -1.273213706,
				"element": "H" 
			},
			{
				"x": 6.0994835602,
				"y": 1.8039836435,
				"z": -1.0900379546,
				"element": "H" 
			},
			{
				"x": 5.3353554553,
				"y": 4.116300819,
				"z": -0.6151737134,
				"element": "H" 
			},
			{
				"x": 3.5585946912,
				"y": 5.7067007927,
				"z": -0.2180918513,
				"element": "H" 
			},
			{
				"x": 1.1524162904,
				"y": 6.2520224439,
				"z": -0.0010019413,
				"element": "H" 
			},
			{
				"x": -0.5495071584,
				"y": 4.4458746327,
				"z": -0.2508861987,
				"element": "H" 
			},
			{
				"x": 0.1278499531,
				"y": 2.1421681096,
				"z": -0.6722925927,
				"element": "H" 
			}
		],
		 "valence_orbital": [ 
			{
				"type": "occ",
				"energy": -0.26512,
				"method": "rhf"
			},
			{
				"type": "occ",
				"energy": -0.25221,
				"method": "rhf"
			},
			{
				"type": "occ",
				"energy": -0.25214,
				"method": "rhf"
			},
			{
				"type": "occ",
				"energy": -0.22832,
				"method": "rhf"
			},
			{
				"type": "occ",
				"energy": -0.20968,
				"method": "rhf"
			},
			{
				"type": "unocc",
				"energy": -0.06954,
				"method": "rhf"
			},
			{
				"type": "unocc",
				"energy": -0.05331,
				"method": "rhf"
			},
			{
				"type": "unocc",
				"energy": -0.01733,
				"method": "rhf"
			},
			{
				"type": "unocc",
				"energy": -0.01684,
				"method": "rhf"
			},
			{
				"type": "unocc",
				"energy": -0.00816,
				"method": "rhf"
			}
		],
		"cosmo_sigma_profile": { 
			"-0.025": 0.0,
			"-0.024": 0.0,
			"-0.023": 0.0,
			"-0.022": 0.0,
			"-0.021": 0.0,
			"-0.02": 0.0,
			"-0.019": 0.0,
			"-0.018": 0.0,
			"-0.017": 0.0,
			"-0.016": 0.0,
			"-0.015": 0.0,
			"-0.014": 0.0,
			"-0.013": 0.0,
			"-0.012": 0.0,
			"-0.011": 0.0,
			"-0.01": 0.0,
			"-0.009": 0.0,
			"-0.008": 0.0,
			"-0.007": 6.74025446329,
			"-0.006": 24.4682244665,
			"-0.005": 25.403213899,
			"-0.004": 33.2997727589,
			"-0.003": 25.3449721629,
			"-0.002": 24.2974724526,
			"-0.001": 23.934978808,
			"0.0": 24.6425255534,
			"0.001": 23.6966853148,
			"0.002": 35.8170149385,
			"0.003": 44.7085486623,
			"0.004": 28.1301290408,
			"0.005": 9.65292838484,
			"0.006": 2.4507708386,
			"0.007": 1.27168193997,
			"0.008": 2.06840592212,
			"0.009": 2.21048411514,
			"0.01": 2.81565110705,
			"0.011": 3.02377424448,
			"0.012": 2.4549633102,
			"0.013": 2.39494900731,
			"0.014": 1.88883051491,
			"0.015": 0.174920326371,
			"0.016": 0.0,
			"0.017": 0.0,
			"0.018": 0.0,
			"0.019": 0.0,
			"0.02": 0.0,
			"0.021": 0.0,
			"0.022": 0.0,
			"0.023": 0.0,
			"0.024": 0.0,
			"0.025": 0.0
		}
	}
}
