{
	 "smiles": "COC1=C2OCCOC2=CC(C=CC(O)=O)=C1", 
	 "Tm": 457.15, 
	 "num_atms": 29, 
	 "gaussian": { 
		 "optdone": 1, 
		 "sigma_profile": "yes", 
		 "theory": "DFT", 
		 "functional": "B3LYP", 
		 "basiset": "6-31G**", 
		 "properties": { 
			 "R2extent": 5101.6169, 
			 "electric_dipole_moment_norm": 4.06022520681, 
			 "electric_quadrupole_moment_norm": 13.4345827181, 
			 "total_energy": -840.584394915, 
			 "HOMO_LUMO_gap": 0.14602, 
			 "cosmo_polarized_energy": -16.25, 
			 "cosmo_cavitation_energy": 33.11, 
			 "cosmo_dispersion_energy": -24.25, 
			 "cosmo_repulsion_energy": 1.88, 
			 "cosmo_total_nonelectrostatic_energy": 10.74, 
			 "SMD_solvation_energy": 8.09 
		},
		"coords": [
			{
				"x": -1.1108813929,
				"y": 2.5671472778,
				"z": -1.6834084884,
				"element": "C" 
			},
			{
				"x": 0.0148364393,
				"y": 2.4833892614,
				"z": -0.8235713197,
				"element": "O" 
			},
			{
				"x": 0.0845188855,
				"y": 1.4242642368,
				"z": 0.0292771994,
				"element": "C" 
			},
			{
				"x": 1.2369113945,
				"y": 1.3951636262,
				"z": 0.8469267406,
				"element": "C" 
			},
			{
				"x": 2.1589255095,
				"y": 2.3932383815,
				"z": 0.6992642164,
				"element": "O" 
			},
			{
				"x": 3.4149659059,
				"y": 2.1123139517,
				"z": 1.318715132,
				"element": "C" 
			},
			{
				"x": 3.1968878841,
				"y": 1.532997264,
				"z": 2.7068882068,
				"element": "C" 
			},
			{
				"x": 2.4753697148,
				"y": 0.3049613436,
				"z": 2.6162166967,
				"element": "O" 
			},
			{
				"x": 1.3873041676,
				"y": 0.3609770973,
				"z": 1.778176644,
				"element": "C" 
			},
			{
				"x": 0.4261871543,
				"y": -0.64177203,
				"z": 1.8801098308,
				"element": "C" 
			},
			{
				"x": -0.7025770202,
				"y": -0.64447505,
				"z": 1.0443452725,
				"element": "C" 
			},
			{
				"x": -1.6491165882,
				"y": -1.7423216433,
				"z": 1.2514329706,
				"element": "C" 
			},
			{
				"x": -2.7077547821,
				"y": -2.272117777,
				"z": 0.5899030101,
				"element": "C" 
			},
			{
				"x": -3.3478067031,
				"y": -2.0220881581,
				"z": -0.7107303755,
				"element": "C" 
			},
			{
				"x": -2.7258955432,
				"y": -1.1465502061,
				"z": -1.5493843552,
				"element": "O" 
			},
			{
				"x": -4.3686570398,
				"y": -2.5905850526,
				"z": -1.0563312299,
				"element": "O" 
			},
			{
				"x": -0.8700757586,
				"y": 0.4175536242,
				"z": 0.1290655329,
				"element": "C" 
			},
			{
				"x": -0.9571743054,
				"y": 3.4605589554,
				"z": -2.2905168533,
				"element": "H" 
			},
			{
				"x": -1.1857714169,
				"y": 1.6894584725,
				"z": -2.3376953682,
				"element": "H" 
			},
			{
				"x": -2.0453689096,
				"y": 2.6701398419,
				"z": -1.1169592719,
				"element": "H" 
			},
			{
				"x": 3.9818734506,
				"y": 1.4020054766,
				"z": 0.7019706159,
				"element": "H" 
			},
			{
				"x": 3.9562790586,
				"y": 3.0606414389,
				"z": 1.3611179044,
				"element": "H" 
			},
			{
				"x": 2.6415684466,
				"y": 2.2492168032,
				"z": 3.3279779284,
				"element": "H" 
			},
			{
				"x": 4.1468726512,
				"y": 1.3000183916,
				"z": 3.1943575213,
				"element": "H" 
			},
			{
				"x": 0.5782727592,
				"y": -1.420798887,
				"z": 2.6199938768,
				"element": "H" 
			},
			{
				"x": -1.4447697659,
				"y": -2.2639137573,
				"z": 2.1867306175,
				"element": "H" 
			},
			{
				"x": -3.219297625,
				"y": -3.0897909932,
				"z": 1.0881015584,
				"element": "H" 
			},
			{
				"x": -3.2739689301,
				"y": -1.146554333,
				"z": -2.352081654,
				"element": "H" 
			},
			{
				"x": -1.7426576405,
				"y": 0.435422443,
				"z": -0.5025925594,
				"element": "H" 
			}
		],
		 "valence_orbital": [ 
			{
				"type": "occ",
				"energy": -0.30424,
				"method": "rhf"
			},
			{
				"type": "occ",
				"energy": -0.26896,
				"method": "rhf"
			},
			{
				"type": "occ",
				"energy": -0.26668,
				"method": "rhf"
			},
			{
				"type": "occ",
				"energy": -0.22066,
				"method": "rhf"
			},
			{
				"type": "occ",
				"energy": -0.20595,
				"method": "rhf"
			},
			{
				"type": "unocc",
				"energy": -0.05993,
				"method": "rhf"
			},
			{
				"type": "unocc",
				"energy": 0.01282,
				"method": "rhf"
			},
			{
				"type": "unocc",
				"energy": 0.02664,
				"method": "rhf"
			},
			{
				"type": "unocc",
				"energy": 0.06947,
				"method": "rhf"
			},
			{
				"type": "unocc",
				"energy": 0.07983,
				"method": "rhf"
			}
		],
		"cosmo_sigma_profile": { 
			"-0.025": 0.0,
			"-0.024": 0.0,
			"-0.023": 0.0,
			"-0.022": 0.0,
			"-0.021": 0.0,
			"-0.02": 0.0,
			"-0.019": 0.0,
			"-0.018": 0.300264979104,
			"-0.017": 0.95131924342,
			"-0.016": 1.01337068151,
			"-0.015": 0.321470050677,
			"-0.014": 0.716654561997,
			"-0.013": 0.471299634656,
			"-0.012": 0.650383383378,
			"-0.011": 0.950926106162,
			"-0.01": 1.19197559753,
			"-0.009": 0.571064905286,
			"-0.008": 2.22583873606,
			"-0.007": 11.3393199904,
			"-0.006": 20.6189859402,
			"-0.005": 23.3650732447,
			"-0.004": 19.1106902562,
			"-0.003": 19.4676673005,
			"-0.002": 15.180723832,
			"-0.001": 14.326274805,
			"0.0": 13.5342098757,
			"0.001": 14.6741627761,
			"0.002": 17.8000170604,
			"0.003": 19.0735311831,
			"0.004": 15.4285722652,
			"0.005": 7.98208645798,
			"0.006": 5.3834136001,
			"0.007": 4.30570931444,
			"0.008": 6.65850989381,
			"0.009": 4.49255711228,
			"0.01": 5.15165833902,
			"0.011": 4.12097865065,
			"0.012": 7.33713552317,
			"0.013": 4.06792185348,
			"0.014": 0.555393930742,
			"0.015": 0.0,
			"0.016": 0.0,
			"0.017": 0.0,
			"0.018": 0.0,
			"0.019": 0.0,
			"0.02": 0.0,
			"0.021": 0.0,
			"0.022": 0.0,
			"0.023": 0.0,
			"0.024": 0.0,
			"0.025": 0.0
		}
	}
}
