{
	 "smiles": "OC1CCCCCCC1", 
	 "Tm": 298.25, 
	 "num_atms": 25, 
	 "gaussian": { 
		 "optdone": 1, 
		 "sigma_profile": "yes", 
		 "theory": "DFT", 
		 "functional": "B3LYP", 
		 "basiset": "6-31G**", 
		 "properties": { 
			 "R2extent": 1447.3471, 
			 "electric_dipole_moment_norm": 1.37911729378, 
			 "electric_quadrupole_moment_norm": 4.70565167219, 
			 "total_energy": -389.719510137, 
			 "HOMO_LUMO_gap": 0.32605, 
			 "cosmo_polarized_energy": -5.57, 
			 "cosmo_cavitation_energy": 23.65, 
			 "cosmo_dispersion_energy": -18.1, 
			 "cosmo_repulsion_energy": 1.48, 
			 "cosmo_total_nonelectrostatic_energy": 7.02, 
			 "SMD_solvation_energy": 2.95 
		},
		"coords": [
			{
				"x": 0.4731420657,
				"y": -0.5897291414,
				"z": 2.2291430545,
				"element": "O" 
			},
			{
				"x": -0.3717384533,
				"y": 0.2613634236,
				"z": 1.4489615585,
				"element": "C" 
			},
			{
				"x": 0.3820865787,
				"y": 0.8597918127,
				"z": 0.2519189613,
				"element": "C" 
			},
			{
				"x": 1.0128406329,
				"y": -0.1149162792,
				"z": -0.7531818068,
				"element": "C" 
			},
			{
				"x": 0.0589397084,
				"y": -0.9872941524,
				"z": -1.5985630496,
				"element": "C" 
			},
			{
				"x": -1.2089147594,
				"y": -0.2863392203,
				"z": -2.1415019808,
				"element": "C" 
			},
			{
				"x": -2.5016421712,
				"y": -0.5135877162,
				"z": -1.3332834376,
				"element": "C" 
			},
			{
				"x": -2.5928100675,
				"y": 0.0402998558,
				"z": 0.1018882378,
				"element": "C" 
			},
			{
				"x": -1.6171438272,
				"y": -0.5770675505,
				"z": 1.1288536912,
				"element": "C" 
			},
			{
				"x": 1.2325628252,
				"y": -0.0673510901,
				"z": 2.5186741231,
				"element": "H" 
			},
			{
				"x": -0.7048448578,
				"y": 1.1163902368,
				"z": 2.0643869943,
				"element": "H" 
			},
			{
				"x": -0.2838437224,
				"y": 1.5596846326,
				"z": -0.2666968002,
				"element": "H" 
			},
			{
				"x": 1.1875979284,
				"y": 1.4881975581,
				"z": 0.6611377557,
				"element": "H" 
			},
			{
				"x": 1.7097175672,
				"y": -0.7708387142,
				"z": -0.218454944,
				"element": "H" 
			},
			{
				"x": 1.6240260522,
				"y": 0.4866742997,
				"z": -1.4391010337,
				"element": "H" 
			},
			{
				"x": -0.238898643,
				"y": -1.8766069696,
				"z": -1.0322846359,
				"element": "H" 
			},
			{
				"x": 0.6430800679,
				"y": -1.3691973242,
				"z": -2.4448247769,
				"element": "H" 
			},
			{
				"x": -1.4047102246,
				"y": -0.6595353605,
				"z": -3.1543702738,
				"element": "H" 
			},
			{
				"x": -1.0249506418,
				"y": 0.7901578031,
				"z": -2.2610289431,
				"element": "H" 
			},
			{
				"x": -2.6898796723,
				"y": -1.5962222722,
				"z": -1.2922068293,
				"element": "H" 
			},
			{
				"x": -3.3355949694,
				"y": -0.0885874713,
				"z": -1.907797781,
				"element": "H" 
			},
			{
				"x": -3.6183767523,
				"y": -0.1422185551,
				"z": 0.444600272,
				"element": "H" 
			},
			{
				"x": -2.4858034927,
				"y": 1.133645221,
				"z": 0.0873115117,
				"element": "H" 
			},
			{
				"x": -1.2906425815,
				"y": -1.5682668985,
				"z": 0.7987401244,
				"element": "H" 
			},
			{
				"x": -2.1327985901,
				"y": -0.7417461276,
				"z": 2.0813800083,
				"element": "H" 
			}
		],
		 "valence_orbital": [ 
			{
				"type": "occ",
				"energy": -0.32134,
				"method": "rhf"
			},
			{
				"type": "occ",
				"energy": -0.30275,
				"method": "rhf"
			},
			{
				"type": "occ",
				"energy": -0.2968,
				"method": "rhf"
			},
			{
				"type": "occ",
				"energy": -0.2928,
				"method": "rhf"
			},
			{
				"type": "occ",
				"energy": -0.25657,
				"method": "rhf"
			},
			{
				"type": "unocc",
				"energy": 0.06948,
				"method": "rhf"
			},
			{
				"type": "unocc",
				"energy": 0.09351,
				"method": "rhf"
			},
			{
				"type": "unocc",
				"energy": 0.10278,
				"method": "rhf"
			},
			{
				"type": "unocc",
				"energy": 0.12244,
				"method": "rhf"
			},
			{
				"type": "unocc",
				"energy": 0.12573,
				"method": "rhf"
			}
		],
		"cosmo_sigma_profile": { 
			"-0.025": 0.0,
			"-0.024": 0.0,
			"-0.023": 0.0,
			"-0.022": 0.0,
			"-0.021": 0.0,
			"-0.02": 0.0,
			"-0.019": 0.0,
			"-0.018": 0.0,
			"-0.017": 0.0,
			"-0.016": 0.0,
			"-0.015": 0.125870554259,
			"-0.014": 1.2528158897,
			"-0.013": 0.663395107033,
			"-0.012": 0.848395902176,
			"-0.011": 0.962820063806,
			"-0.01": 0.905352716181,
			"-0.009": 0.921185876757,
			"-0.008": 1.30462600112,
			"-0.007": 1.46533070864,
			"-0.006": 0.663589829901,
			"-0.005": 0.722927546141,
			"-0.004": 1.48471236482,
			"-0.003": 7.51801537841,
			"-0.002": 29.1170930918,
			"-0.001": 35.3905705054,
			"0.0": 37.0625174564,
			"0.001": 29.47775498,
			"0.002": 11.5631264004,
			"0.003": 2.05340509035,
			"0.004": 1.76897038761,
			"0.005": 1.22488730727,
			"0.006": 1.28034374909,
			"0.007": 1.50154955663,
			"0.008": 1.11788987259,
			"0.009": 1.19621396608,
			"0.01": 1.6666797489,
			"0.011": 1.7307306886,
			"0.012": 1.23919728543,
			"0.013": 0.383509767303,
			"0.014": 2.27095329501,
			"0.015": 1.33176718631,
			"0.016": 0.0,
			"0.017": 0.0,
			"0.018": 0.0,
			"0.019": 0.0,
			"0.02": 0.0,
			"0.021": 0.0,
			"0.022": 0.0,
			"0.023": 0.0,
			"0.024": 0.0,
			"0.025": 0.0
		}
	}
}
