{
	 "smiles": "NC(=O)C1=CC(OCCC(O)=O)=CC=C1", 
	 "Tm": 470.15, 
	 "num_atms": 26, 
	 "gaussian": { 
		 "optdone": 1, 
		 "sigma_profile": "yes", 
		 "theory": "DFT", 
		 "functional": "B3LYP", 
		 "basiset": "6-31G**", 
		 "properties": { 
			 "R2extent": 4950.2445, 
			 "electric_dipole_moment_norm": 6.04266660507, 
			 "electric_quadrupole_moment_norm": 30.3374148239, 
			 "total_energy": -743.36441479, 
			 "HOMO_LUMO_gap": 0.19818, 
			 "cosmo_polarized_energy": -22.71, 
			 "cosmo_cavitation_energy": 30.85, 
			 "cosmo_dispersion_energy": -22.33, 
			 "cosmo_repulsion_energy": 1.77, 
			 "cosmo_total_nonelectrostatic_energy": 10.29, 
			 "SMD_solvation_energy": 7.31 
		},
		"coords": [
			{
				"x": -3.7027693192,
				"y": -0.7255046184,
				"z": -3.5862402239,
				"element": "N" 
			},
			{
				"x": -2.7922132826,
				"y": -0.9197064643,
				"z": -2.578219058,
				"element": "C" 
			},
			{
				"x": -2.3101805489,
				"y": -2.0216165711,
				"z": -2.3441482786,
				"element": "O" 
			},
			{
				"x": -2.4332600767,
				"y": 0.2909172114,
				"z": -1.7582255922,
				"element": "C" 
			},
			{
				"x": -1.2759042178,
				"y": 0.1853956447,
				"z": -0.9736496878,
				"element": "C" 
			},
			{
				"x": -0.8753707135,
				"y": 1.2628249044,
				"z": -0.1871672248,
				"element": "C" 
			},
			{
				"x": 0.2444782766,
				"y": 1.2547221289,
				"z": 0.6123742147,
				"element": "O" 
			},
			{
				"x": 1.0628968581,
				"y": 0.0739166994,
				"z": 0.650126147,
				"element": "C" 
			},
			{
				"x": 2.2143519583,
				"y": 0.3391221561,
				"z": 1.6161580117,
				"element": "C" 
			},
			{
				"x": 3.208354114,
				"y": 1.4211957927,
				"z": 1.1832969491,
				"element": "C" 
			},
			{
				"x": 2.6672613091,
				"y": 2.5346547131,
				"z": 0.6420532974,
				"element": "O" 
			},
			{
				"x": 4.40023471,
				"y": 1.3143968508,
				"z": 1.3363443764,
				"element": "O" 
			},
			{
				"x": -1.6283037544,
				"y": 2.4451542397,
				"z": -0.168306513,
				"element": "C" 
			},
			{
				"x": -2.7834497429,
				"y": 2.5364744665,
				"z": -0.9365271262,
				"element": "C" 
			},
			{
				"x": -3.1931853866,
				"y": 1.4643550059,
				"z": -1.7343290904,
				"element": "C" 
			},
			{
				"x": -3.8493615494,
				"y": -1.5157148455,
				"z": -4.197614575,
				"element": "H" 
			},
			{
				"x": -3.8502639518,
				"y": 0.191391709,
				"z": -3.9773203763,
				"element": "H" 
			},
			{
				"x": -0.7342149984,
				"y": -0.751300001,
				"z": -1.0071344757,
				"element": "H" 
			},
			{
				"x": 1.4319745668,
				"y": -0.1541523024,
				"z": -0.3579868781,
				"element": "H" 
			},
			{
				"x": 0.4640689056,
				"y": -0.7754704349,
				"z": 0.9980704924,
				"element": "H" 
			},
			{
				"x": 2.7857097782,
				"y": -0.5795082444,
				"z": 1.764027369,
				"element": "H" 
			},
			{
				"x": 1.7981170329,
				"y": 0.6274804806,
				"z": 2.5897529895,
				"element": "H" 
			},
			{
				"x": 1.6982590547,
				"y": 2.4330665516,
				"z": 0.5904926194,
				"element": "H" 
			},
			{
				"x": -1.3012128593,
				"y": 3.2690136972,
				"z": 0.457922433,
				"element": "H" 
			},
			{
				"x": -3.3739193984,
				"y": 3.4471520382,
				"z": -0.9073958693,
				"element": "H" 
			},
			{
				"x": -4.1178967643,
				"y": 1.5392391918,
				"z": -2.2972539303,
				"element": "H" 
			}
		],
		 "valence_orbital": [ 
			{
				"type": "occ",
				"energy": -0.2825,
				"method": "rhf"
			},
			{
				"type": "occ",
				"energy": -0.27358,
				"method": "rhf"
			},
			{
				"type": "occ",
				"energy": -0.26273,
				"method": "rhf"
			},
			{
				"type": "occ",
				"energy": -0.25986,
				"method": "rhf"
			},
			{
				"type": "occ",
				"energy": -0.2486,
				"method": "rhf"
			},
			{
				"type": "unocc",
				"energy": -0.05042,
				"method": "rhf"
			},
			{
				"type": "unocc",
				"energy": -0.01502,
				"method": "rhf"
			},
			{
				"type": "unocc",
				"energy": 0.01422,
				"method": "rhf"
			},
			{
				"type": "unocc",
				"energy": 0.04918,
				"method": "rhf"
			},
			{
				"type": "unocc",
				"energy": 0.06654,
				"method": "rhf"
			}
		],
		"cosmo_sigma_profile": { 
			"-0.025": 0.0,
			"-0.024": 0.0,
			"-0.023": 0.0,
			"-0.022": 0.0,
			"-0.021": 0.0,
			"-0.02": 0.0,
			"-0.019": 0.0,
			"-0.018": 0.0,
			"-0.017": 0.0,
			"-0.016": 0.0,
			"-0.015": 0.126301695023,
			"-0.014": 1.51338206189,
			"-0.013": 2.81994310818,
			"-0.012": 2.27102848213,
			"-0.011": 1.78268509422,
			"-0.01": 3.46870938772,
			"-0.009": 3.03462062758,
			"-0.008": 5.16343491362,
			"-0.007": 19.5888144744,
			"-0.006": 24.7280895516,
			"-0.005": 18.4046700835,
			"-0.004": 12.4482900731,
			"-0.003": 10.2552461253,
			"-0.002": 9.37713633898,
			"-0.001": 9.35381522105,
			"0.0": 11.4139593896,
			"0.001": 12.2428904427,
			"0.002": 11.849082511,
			"0.003": 15.6357213162,
			"0.004": 13.204511261,
			"0.005": 5.74058842307,
			"0.006": 4.16559391757,
			"0.007": 4.30075926733,
			"0.008": 4.74935850594,
			"0.009": 4.05557289462,
			"0.01": 6.09804972778,
			"0.011": 7.57858720413,
			"0.012": 7.93147816181,
			"0.013": 7.63654732964,
			"0.014": 3.88942683143,
			"0.015": 0.21313906286,
			"0.016": 0.0,
			"0.017": 0.0,
			"0.018": 0.0,
			"0.019": 0.0,
			"0.02": 0.0,
			"0.021": 0.0,
			"0.022": 0.0,
			"0.023": 0.0,
			"0.024": 0.0,
			"0.025": 0.0
		}
	}
}
