{
	 "smiles": "CCOC(=O)C1=C(NC(=O)CN(CC)CC)SC2=C1CCCC2", 
	 "Tm": 347.65, 
	 "num_atms": 49, 
	 "gaussian": { 
		 "optdone": 1, 
		 "sigma_profile": "yes", 
		 "theory": "DFT", 
		 "functional": "B3LYP", 
		 "basiset": "6-31G**", 
		 "properties": { 
			 "R2extent": 10173.2077, 
			 "electric_dipole_moment_norm": 1.90889243804, 
			 "electric_quadrupole_moment_norm": 16.3788475761, 
			 "total_energy": -1396.87655739, 
			 "HOMO_LUMO_gap": 0.17705, 
			 "cosmo_polarized_energy": -14.21, 
			 "cosmo_cavitation_energy": 50.2, 
			 "cosmo_dispersion_energy": -33.96, 
			 "cosmo_repulsion_energy": 2.62, 
			 "cosmo_total_nonelectrostatic_energy": 18.86, 
			 "SMD_solvation_energy": 8.19 
		},
		"coords": [
			{
				"x": -1.0734993162,
				"y": 3.2704307606,
				"z": -3.1536619634,
				"element": "C" 
			},
			{
				"x": -0.162113323,
				"y": 3.9536237012,
				"z": -2.1445092203,
				"element": "C" 
			},
			{
				"x": 0.908817411,
				"y": 3.0639536039,
				"z": -1.7447041151,
				"element": "O" 
			},
			{
				"x": 0.6311893737,
				"y": 2.2114691456,
				"z": -0.732105727,
				"element": "C" 
			},
			{
				"x": -0.4114540829,
				"y": 2.2369657727,
				"z": -0.1042519402,
				"element": "O" 
			},
			{
				"x": 1.7502716144,
				"y": 1.2661312396,
				"z": -0.4882754262,
				"element": "C" 
			},
			{
				"x": 1.5172914142,
				"y": -0.0060416694,
				"z": -0.0118785806,
				"element": "C" 
			},
			{
				"x": 0.3026332848,
				"y": -0.6499356229,
				"z": 0.215306539,
				"element": "N" 
			},
			{
				"x": -0.7564734288,
				"y": -0.6764925332,
				"z": -0.6658662348,
				"element": "C" 
			},
			{
				"x": -0.7281979594,
				"y": -0.263264344,
				"z": -1.8122983691,
				"element": "O" 
			},
			{
				"x": -2.0007034416,
				"y": -1.3452476902,
				"z": -0.0684687173,
				"element": "C" 
			},
			{
				"x": -2.0212198302,
				"y": -1.3356068576,
				"z": 1.3950355743,
				"element": "N" 
			},
			{
				"x": -2.8144269554,
				"y": -2.4444317248,
				"z": 1.9511762961,
				"element": "C" 
			},
			{
				"x": -2.0906185704,
				"y": -3.7900832917,
				"z": 1.8899521608,
				"element": "C" 
			},
			{
				"x": -2.449776125,
				"y": -0.0124626285,
				"z": 1.8977716372,
				"element": "C" 
			},
			{
				"x": -2.0385372263,
				"y": 0.2493285433,
				"z": 3.3464237311,
				"element": "C" 
			},
			{
				"x": 3.0116446489,
				"y": -0.8876398119,
				"z": 0.2050480007,
				"element": "S" 
			},
			{
				"x": 3.9547548548,
				"y": 0.4904509276,
				"z": -0.3079483118,
				"element": "C" 
			},
			{
				"x": 3.1582416977,
				"y": 1.546438259,
				"z": -0.6641641173,
				"element": "C" 
			},
			{
				"x": 3.7570082928,
				"y": 2.8523139067,
				"z": -1.1398331139,
				"element": "C" 
			},
			{
				"x": 5.2542061609,
				"y": 2.9497282062,
				"z": -0.8021628115,
				"element": "C" 
			},
			{
				"x": 5.9974475361,
				"y": 1.6519027705,
				"z": -1.1453295897,
				"element": "C" 
			},
			{
				"x": 5.4598354074,
				"y": 0.4748106313,
				"z": -0.3123460038,
				"element": "C" 
			},
			{
				"x": -1.8725689493,
				"y": 3.955539003,
				"z": -3.4572488367,
				"element": "H" 
			},
			{
				"x": -0.5131876066,
				"y": 2.9754309938,
				"z": -4.0454609132,
				"element": "H" 
			},
			{
				"x": -1.5230488763,
				"y": 2.3750744391,
				"z": -2.7178184491,
				"element": "H" 
			},
			{
				"x": -0.7144638517,
				"y": 4.2638767705,
				"z": -1.254851192,
				"element": "H" 
			},
			{
				"x": 0.3469680239,
				"y": 4.8183100979,
				"z": -2.5776847694,
				"element": "H" 
			},
			{
				"x": 0.0725525364,
				"y": -1.020120966,
				"z": 1.1355205418,
				"element": "H" 
			},
			{
				"x": -2.8748013137,
				"y": -0.8509623609,
				"z": -0.5207483308,
				"element": "H" 
			},
			{
				"x": -2.0032969841,
				"y": -2.3791078578,
				"z": -0.4295992115,
				"element": "H" 
			},
			{
				"x": -3.0209215613,
				"y": -2.2115124993,
				"z": 2.999077546,
				"element": "H" 
			},
			{
				"x": -3.7976420022,
				"y": -2.5165626944,
				"z": 1.4513151173,
				"element": "H" 
			},
			{
				"x": -2.708430042,
				"y": -4.5719454993,
				"z": 2.3435750037,
				"element": "H" 
			},
			{
				"x": -1.1423899838,
				"y": -3.7399359338,
				"z": 2.4336638864,
				"element": "H" 
			},
			{
				"x": -1.8737999369,
				"y": -4.1020352571,
				"z": 0.8632819666,
				"element": "H" 
			},
			{
				"x": -3.5425426455,
				"y": 0.1090165067,
				"z": 1.7832647351,
				"element": "H" 
			},
			{
				"x": -1.9781088452,
				"y": 0.7462776834,
				"z": 1.266202697,
				"element": "H" 
			},
			{
				"x": -0.9522182498,
				"y": 0.1766625936,
				"z": 3.4584788279,
				"element": "H" 
			},
			{
				"x": -2.3422582746,
				"y": 1.2594292248,
				"z": 3.6388705154,
				"element": "H" 
			},
			{
				"x": -2.4992766123,
				"y": -0.4477212898,
				"z": 4.0535262036,
				"element": "H" 
			},
			{
				"x": 3.215304909,
				"y": 3.697068962,
				"z": -0.7024742494,
				"element": "H" 
			},
			{
				"x": 3.6078281022,
				"y": 2.9410281477,
				"z": -2.2237621465,
				"element": "H" 
			},
			{
				"x": 5.374472947,
				"y": 3.1584817031,
				"z": 0.2694979615,
				"element": "H" 
			},
			{
				"x": 5.6967442178,
				"y": 3.7963588293,
				"z": -1.3388100687,
				"element": "H" 
			},
			{
				"x": 5.8677231265,
				"y": 1.43007422,
				"z": -2.2124692546,
				"element": "H" 
			},
			{
				"x": 7.0734080693,
				"y": 1.7636051189,
				"z": -0.9713120823,
				"element": "H" 
			},
			{
				"x": 5.837539989,
				"y": -0.4750033843,
				"z": -0.7100441405,
				"element": "H" 
			},
			{
				"x": 5.8375923767,
				"y": 0.5470321546,
				"z": 0.7180989451,
				"element": "H" 
			}
		],
		 "valence_orbital": [ 
			{
				"type": "occ",
				"energy": -0.26139,
				"method": "rhf"
			},
			{
				"type": "occ",
				"energy": -0.25154,
				"method": "rhf"
			},
			{
				"type": "occ",
				"energy": -0.24204,
				"method": "rhf"
			},
			{
				"type": "occ",
				"energy": -0.22765,
				"method": "rhf"
			},
			{
				"type": "occ",
				"energy": -0.20814,
				"method": "rhf"
			},
			{
				"type": "unocc",
				"energy": -0.03109,
				"method": "rhf"
			},
			{
				"type": "unocc",
				"energy": 0.01578,
				"method": "rhf"
			},
			{
				"type": "unocc",
				"energy": 0.02643,
				"method": "rhf"
			},
			{
				"type": "unocc",
				"energy": 0.03207,
				"method": "rhf"
			},
			{
				"type": "unocc",
				"energy": 0.08264,
				"method": "rhf"
			}
		],
		"cosmo_sigma_profile": { 
			"-0.025": 0.0,
			"-0.024": 0.0,
			"-0.023": 0.0,
			"-0.022": 0.0,
			"-0.021": 0.0,
			"-0.02": 0.0,
			"-0.019": 0.0,
			"-0.018": 0.0,
			"-0.017": 0.0,
			"-0.016": 0.0,
			"-0.015": 0.0,
			"-0.014": 0.0,
			"-0.013": 0.0,
			"-0.012": 0.0,
			"-0.011": 0.358733888517,
			"-0.01": 1.03666498537,
			"-0.009": 0.653370308601,
			"-0.008": 0.494377040686,
			"-0.007": 3.00719447424,
			"-0.006": 4.6162733671,
			"-0.005": 10.4676871978,
			"-0.004": 27.2489653034,
			"-0.003": 48.6770302383,
			"-0.002": 60.9887219795,
			"-0.001": 57.9058635269,
			"0.0": 45.9679087479,
			"0.001": 35.109909134,
			"0.002": 18.4245508419,
			"0.003": 17.8330176907,
			"0.004": 15.0179299831,
			"0.005": 8.84841561038,
			"0.006": 7.60749772124,
			"0.007": 7.22497818962,
			"0.008": 4.92316922199,
			"0.009": 3.30352864439,
			"0.01": 3.52803492019,
			"0.011": 3.93686707685,
			"0.012": 2.38807730275,
			"0.013": 3.18615587711,
			"0.014": 1.1724776947,
			"0.015": 0.0415738466952,
			"0.016": 0.0,
			"0.017": 0.0,
			"0.018": 0.0,
			"0.019": 0.0,
			"0.02": 0.0,
			"0.021": 0.0,
			"0.022": 0.0,
			"0.023": 0.0,
			"0.024": 0.0,
			"0.025": 0.0
		}
	}
}
