{
	 "smiles": "CCCC1=C(C)N=C(NC(=O)NS(=O)(=O)C2=CC=CS2)N=C1O", 
	 "Tm": 484.15, 
	 "num_atms": 39, 
	 "gaussian": { 
		 "optdone": 1, 
		 "sigma_profile": "yes", 
		 "theory": "DFT", 
		 "functional": "B3LYP", 
		 "basiset": "6-31G**", 
		 "properties": { 
			 "R2extent": 9368.2747, 
			 "electric_dipole_moment_norm": 6.62660280762, 
			 "electric_quadrupole_moment_norm": 23.3768828127, 
			 "total_energy": -1821.25747411, 
			 "HOMO_LUMO_gap": 0.17575, 
			 "cosmo_polarized_energy": -20.98, 
			 "cosmo_cavitation_energy": 44.8, 
			 "cosmo_dispersion_energy": -30.96, 
			 "cosmo_repulsion_energy": 2.25, 
			 "cosmo_total_nonelectrostatic_energy": 16.1, 
			 "SMD_solvation_energy": 5.86 
		},
		"coords": [
			{
				"x": 2.0330265922,
				"y": -2.4422986047,
				"z": -2.6140801551,
				"element": "C" 
			},
			{
				"x": 1.1654887828,
				"y": -1.8684369558,
				"z": -3.7381116685,
				"element": "C" 
			},
			{
				"x": -0.3499792254,
				"y": -1.8439642267,
				"z": -3.4290369047,
				"element": "C" 
			},
			{
				"x": -0.7512106132,
				"y": -0.9696134001,
				"z": -2.2622374126,
				"element": "C" 
			},
			{
				"x": -0.984352849,
				"y": 0.4110151299,
				"z": -2.3603171301,
				"element": "C" 
			},
			{
				"x": -0.8731890955,
				"y": 1.1488632868,
				"z": -3.6705281279,
				"element": "C" 
			},
			{
				"x": -1.3401328862,
				"y": 1.1593390185,
				"z": -1.3009318286,
				"element": "N" 
			},
			{
				"x": -1.4666542839,
				"y": 0.5242544212,
				"z": -0.1332495584,
				"element": "C" 
			},
			{
				"x": -1.8760481093,
				"y": 1.3610293326,
				"z": 0.9048763074,
				"element": "N" 
			},
			{
				"x": -2.2655649262,
				"y": 1.1420324905,
				"z": 2.2094850193,
				"element": "C" 
			},
			{
				"x": -3.0715268681,
				"y": 1.876936551,
				"z": 2.7539205149,
				"element": "O" 
			},
			{
				"x": -1.7339134487,
				"y": 0.0466473779,
				"z": 2.935465983,
				"element": "N" 
			},
			{
				"x": -0.059865299,
				"y": -0.2738042548,
				"z": 3.1827353126,
				"element": "S" 
			},
			{
				"x": 0.7204479852,
				"y": 0.4565410189,
				"z": 2.1918415367,
				"element": "O" 
			},
			{
				"x": 0.1262890899,
				"y": -0.0948481527,
				"z": 4.6227248467,
				"element": "O" 
			},
			{
				"x": 0.1241223226,
				"y": -2.0029037979,
				"z": 2.8534576807,
				"element": "C" 
			},
			{
				"x": 0.9650837054,
				"y": -2.5322036549,
				"z": 1.9088806921,
				"element": "C" 
			},
			{
				"x": 0.9847026486,
				"y": -3.9572771377,
				"z": 1.9474406168,
				"element": "C" 
			},
			{
				"x": 0.1666217144,
				"y": -4.4690086978,
				"z": 2.9211885915,
				"element": "C" 
			},
			{
				"x": -0.6311046327,
				"y": -3.2303221844,
				"z": 3.8293787835,
				"element": "S" 
			},
			{
				"x": -1.2915019326,
				"y": -0.7757576938,
				"z": 0.0925389448,
				"element": "N" 
			},
			{
				"x": -0.9407874743,
				"y": -1.49653208,
				"z": -0.9732241784,
				"element": "C" 
			},
			{
				"x": -0.7718353388,
				"y": -2.8200655146,
				"z": -0.7791221427,
				"element": "O" 
			},
			{
				"x": 1.7259818765,
				"y": -3.461416067,
				"z": -2.3569662915,
				"element": "H" 
			},
			{
				"x": 3.0865404093,
				"y": -2.4696907933,
				"z": -2.9108238841,
				"element": "H" 
			},
			{
				"x": 1.9611545169,
				"y": -1.8345055904,
				"z": -1.7061661451,
				"element": "H" 
			},
			{
				"x": 1.5073711732,
				"y": -0.8535907165,
				"z": -3.9772475244,
				"element": "H" 
			},
			{
				"x": 1.3116759212,
				"y": -2.4614095686,
				"z": -4.6498661228,
				"element": "H" 
			},
			{
				"x": -0.6856474137,
				"y": -2.8673310011,
				"z": -3.2331904977,
				"element": "H" 
			},
			{
				"x": -0.881456296,
				"y": -1.5093094984,
				"z": -4.3274269253,
				"element": "H" 
			},
			{
				"x": 0.1273964124,
				"y": 1.0525181721,
				"z": -4.1035567138,
				"element": "H" 
			},
			{
				"x": -1.0881710411,
				"y": 2.2054235682,
				"z": -3.5087501124,
				"element": "H" 
			},
			{
				"x": -1.5820136272,
				"y": 0.7530450185,
				"z": -4.4069576185,
				"element": "H" 
			},
			{
				"x": -2.1827714895,
				"y": 2.2656915246,
				"z": 0.5696956543,
				"element": "H" 
			},
			{
				"x": -2.1673036049,
				"y": 0.0759623964,
				"z": 3.8569955092,
				"element": "H" 
			},
			{
				"x": 1.5349751634,
				"y": -1.9167802001,
				"z": 1.2249582522,
				"element": "H" 
			},
			{
				"x": 1.5795121524,
				"y": -4.5707364448,
				"z": 1.2812881756,
				"element": "H" 
			},
			{
				"x": -0.0095861274,
				"y": -5.5071907192,
				"z": 3.1688966201,
				"element": "H" 
			},
			{
				"x": -0.9272738839,
				"y": -2.9866023517,
				"z": 0.1649219009,
				"element": "H" 
			}
		],
		 "valence_orbital": [ 
			{
				"type": "occ",
				"energy": -0.28459,
				"method": "rhf"
			},
			{
				"type": "occ",
				"energy": -0.28401,
				"method": "rhf"
			},
			{
				"type": "occ",
				"energy": -0.26516,
				"method": "rhf"
			},
			{
				"type": "occ",
				"energy": -0.26249,
				"method": "rhf"
			},
			{
				"type": "occ",
				"energy": -0.23574,
				"method": "rhf"
			},
			{
				"type": "unocc",
				"energy": -0.05999,
				"method": "rhf"
			},
			{
				"type": "unocc",
				"energy": -0.03586,
				"method": "rhf"
			},
			{
				"type": "unocc",
				"energy": -0.01956,
				"method": "rhf"
			},
			{
				"type": "unocc",
				"energy": -0.00045,
				"method": "rhf"
			},
			{
				"type": "unocc",
				"energy": 0.01668,
				"method": "rhf"
			}
		],
		"cosmo_sigma_profile": { 
			"-0.025": 0.0,
			"-0.024": 0.0,
			"-0.023": 0.0,
			"-0.022": 0.0,
			"-0.021": 0.0,
			"-0.02": 0.0,
			"-0.019": 0.0,
			"-0.018": 0.0,
			"-0.017": 0.0,
			"-0.016": 0.172612812344,
			"-0.015": 0.82223563695,
			"-0.014": 1.54105922138,
			"-0.013": 1.19276838596,
			"-0.012": 2.72190533817,
			"-0.011": 2.34153371614,
			"-0.01": 4.83805889702,
			"-0.009": 4.95543087446,
			"-0.008": 5.86908496205,
			"-0.007": 8.15359682278,
			"-0.006": 10.4425820351,
			"-0.005": 15.1669981579,
			"-0.004": 18.1400068476,
			"-0.003": 26.3052376376,
			"-0.002": 35.5599607248,
			"-0.001": 39.0014155259,
			"0.0": 41.3553721001,
			"0.001": 30.952841278,
			"0.002": 20.3812345838,
			"0.003": 11.6223132266,
			"0.004": 9.35778135406,
			"0.005": 9.17347678606,
			"0.006": 7.98207704627,
			"0.007": 7.35650261532,
			"0.008": 8.49145612574,
			"0.009": 11.5233155046,
			"0.01": 10.5172868062,
			"0.011": 6.92750044459,
			"0.012": 4.66831548236,
			"0.013": 0.180552871001,
			"0.014": 0.0,
			"0.015": 0.0,
			"0.016": 0.0,
			"0.017": 0.0,
			"0.018": 0.0,
			"0.019": 0.0,
			"0.02": 0.0,
			"0.021": 0.0,
			"0.022": 0.0,
			"0.023": 0.0,
			"0.024": 0.0,
			"0.025": 0.0
		}
	}
}
