{
	 "smiles": "CC1=CC(=CC=C1Br)C#N", 
	 "Tm": 326.15, 
	 "num_atms": 16, 
	 "gaussian": { 
		 "optdone": 1, 
		 "sigma_profile": "yes", 
		 "theory": "DFT", 
		 "functional": "B3LYP", 
		 "basiset": "6-31G**", 
		 "properties": { 
			 "R2extent": 2957.5267, 
			 "electric_dipole_moment_norm": 3.36595428519, 
			 "electric_quadrupole_moment_norm": 15.3475204281, 
			 "total_energy": -2934.61364969, 
			 "HOMO_LUMO_gap": 0.19721, 
			 "cosmo_polarized_energy": -8.12, 
			 "cosmo_cavitation_energy": 23.44, 
			 "cosmo_dispersion_energy": -17.03, 
			 "cosmo_repulsion_energy": 1.37, 
			 "cosmo_total_nonelectrostatic_energy": 7.79, 
			 "SMD_solvation_energy": 4.45 
		},
		"coords": [
			{
				"x": 0.1263351207,
				"y": -2.1747006875,
				"z": -0.3577352148,
				"element": "C" 
			},
			{
				"x": -0.4019523415,
				"y": -0.8103808973,
				"z": 0.0009002831,
				"element": "C" 
			},
			{
				"x": 0.3092137514,
				"y": 0.0205939701,
				"z": 0.8721032675,
				"element": "C" 
			},
			{
				"x": -0.1599822099,
				"y": 1.2959095841,
				"z": 1.223078682,
				"element": "C" 
			},
			{
				"x": -1.3725608137,
				"y": 1.7640458076,
				"z": 0.6946192244,
				"element": "C" 
			},
			{
				"x": -2.096180647,
				"y": 0.954504218,
				"z": -0.1736406987,
				"element": "C" 
			},
			{
				"x": -1.6115171738,
				"y": -0.3098735749,
				"z": -0.5093519533,
				"element": "C" 
			},
			{
				"x": -2.6521540001,
				"y": -1.3739482747,
				"z": -1.7074354373,
				"element": "Br" 
			},
			{
				"x": 0.6010303127,
				"y": 2.1157390301,
				"z": 2.119969115,
				"element": "C" 
			},
			{
				"x": 1.2193288489,
				"y": 2.780077683,
				"z": 2.8477166394,
				"element": "N" 
			},
			{
				"x": 1.0767646777,
				"y": -2.3666118766,
				"z": 0.1452191939,
				"element": "H" 
			},
			{
				"x": 0.2814481321,
				"y": -2.2666318654,
				"z": -1.4377348329,
				"element": "H" 
			},
			{
				"x": -0.5813537521,
				"y": -2.9597398704,
				"z": -0.0717123712,
				"element": "H" 
			},
			{
				"x": 1.2486099511,
				"y": -0.3294792588,
				"z": 1.287932895,
				"element": "H" 
			},
			{
				"x": -1.7397502935,
				"y": 2.7486193004,
				"z": 0.9624805796,
				"element": "H" 
			},
			{
				"x": -3.0346795631,
				"y": 1.2994767122,
				"z": -0.5915093717,
				"element": "H" 
			}
		],
		 "valence_orbital": [ 
			{
				"type": "occ",
				"energy": -0.33473,
				"method": "rhf"
			},
			{
				"type": "occ",
				"energy": -0.31843,
				"method": "rhf"
			},
			{
				"type": "occ",
				"energy": -0.30252,
				"method": "rhf"
			},
			{
				"type": "occ",
				"energy": -0.27904,
				"method": "rhf"
			},
			{
				"type": "occ",
				"energy": -0.25771,
				"method": "rhf"
			},
			{
				"type": "unocc",
				"energy": -0.0605,
				"method": "rhf"
			},
			{
				"type": "unocc",
				"energy": -0.03209,
				"method": "rhf"
			},
			{
				"type": "unocc",
				"energy": -0.00765,
				"method": "rhf"
			},
			{
				"type": "unocc",
				"energy": 0.03208,
				"method": "rhf"
			},
			{
				"type": "unocc",
				"energy": 0.06375,
				"method": "rhf"
			}
		],
		"cosmo_sigma_profile": { 
			"-0.025": 0.0,
			"-0.024": 0.0,
			"-0.023": 0.0,
			"-0.022": 0.0,
			"-0.021": 0.0,
			"-0.02": 0.0,
			"-0.019": 0.0,
			"-0.018": 0.0,
			"-0.017": 0.0,
			"-0.016": 0.0,
			"-0.015": 0.0,
			"-0.014": 0.0,
			"-0.013": 0.0,
			"-0.012": 0.0,
			"-0.011": 0.0,
			"-0.01": 0.0,
			"-0.009": 0.480601086125,
			"-0.008": 5.74520222957,
			"-0.007": 7.5657712133,
			"-0.006": 7.24413541131,
			"-0.005": 9.42503114178,
			"-0.004": 10.911172869,
			"-0.003": 14.505167096,
			"-0.002": 16.1439642329,
			"-0.001": 21.4358028282,
			"0.0": 18.5848322879,
			"0.001": 23.2720290872,
			"0.002": 11.903948592,
			"0.003": 11.6555616809,
			"0.004": 8.58088358829,
			"0.005": 2.78819827526,
			"0.006": 2.86033591374,
			"0.007": 2.34667429479,
			"0.008": 3.83602626877,
			"0.009": 3.14138630359,
			"0.01": 3.4902248122,
			"0.011": 2.44185427697,
			"0.012": 2.4207656792,
			"0.013": 1.36867815425,
			"0.014": 0.0343260118327,
			"0.015": 0.0,
			"0.016": 0.0,
			"0.017": 0.0,
			"0.018": 0.0,
			"0.019": 0.0,
			"0.02": 0.0,
			"0.021": 0.0,
			"0.022": 0.0,
			"0.023": 0.0,
			"0.024": 0.0,
			"0.025": 0.0
		}
	}
}
