{
	 "smiles": "COC1=CC(C2=NN=C(N)O2)=C(Br)C=C1", 
	 "Tm": 463.15, 
	 "num_atms": 23, 
	 "gaussian": { 
		 "optdone": 1, 
		 "sigma_profile": "yes", 
		 "theory": "DFT", 
		 "functional": "B3LYP", 
		 "basiset": "6-31G**", 
		 "properties": { 
			 "R2extent": 5016.5457, 
			 "electric_dipole_moment_norm": 3.42278615166, 
			 "electric_quadrupole_moment_norm": 28.2508281854, 
			 "total_energy": -3233.84114225, 
			 "HOMO_LUMO_gap": 0.17371, 
			 "cosmo_polarized_energy": -17.87, 
			 "cosmo_cavitation_energy": 30.42, 
			 "cosmo_dispersion_energy": -22.86, 
			 "cosmo_repulsion_energy": 1.79, 
			 "cosmo_total_nonelectrostatic_energy": 9.35, 
			 "SMD_solvation_energy": 3.51 
		},
		"coords": [
			{
				"x": 1.6216611171,
				"y": -4.5234441622,
				"z": 1.5980997193,
				"element": "C" 
			},
			{
				"x": 1.2997630472,
				"y": -3.8717366797,
				"z": 0.3785623404,
				"element": "O" 
			},
			{
				"x": 0.8775250228,
				"y": -2.5785047442,
				"z": 0.430150654,
				"element": "C" 
			},
			{
				"x": 0.5740575482,
				"y": -1.9910660609,
				"z": -0.7994625404,
				"element": "C" 
			},
			{
				"x": 0.1287495437,
				"y": -0.6640006366,
				"z": -0.8949203631,
				"element": "C" 
			},
			{
				"x": -0.132483599,
				"y": -0.182944428,
				"z": -2.2525325498,
				"element": "C" 
			},
			{
				"x": 0.2892159061,
				"y": -0.7174224595,
				"z": -3.3579936935,
				"element": "N" 
			},
			{
				"x": -0.2511121347,
				"y": 0.0159379833,
				"z": -4.4118357193,
				"element": "N" 
			},
			{
				"x": -0.9559849964,
				"y": 0.9559914319,
				"z": -3.849332396,
				"element": "C" 
			},
			{
				"x": -1.6292725206,
				"y": 1.9862446272,
				"z": -4.4407336672,
				"element": "N" 
			},
			{
				"x": -0.9429623852,
				"y": 0.9056375051,
				"z": -2.4956220677,
				"element": "O" 
			},
			{
				"x": -0.0081454637,
				"y": 0.0775391648,
				"z": 0.2976056318,
				"element": "C" 
			},
			{
				"x": -0.5433043895,
				"y": 1.9139322656,
				"z": 0.3483484339,
				"element": "Br" 
			},
			{
				"x": 0.2846911947,
				"y": -0.5137546672,
				"z": 1.5236874375,
				"element": "C" 
			},
			{
				"x": 0.7243400461,
				"y": -1.8340449472,
				"z": 1.6062166678,
				"element": "C" 
			},
			{
				"x": 0.7528081293,
				"y": -4.5847636927,
				"z": 2.2660322957,
				"element": "H" 
			},
			{
				"x": 1.9357248864,
				"y": -5.5317716426,
				"z": 1.3254287396,
				"element": "H" 
			},
			{
				"x": 2.4437618663,
				"y": -4.0190341305,
				"z": 2.1217982716,
				"element": "H" 
			},
			{
				"x": 0.6864397286,
				"y": -2.574524116,
				"z": -1.7055202139,
				"element": "H" 
			},
			{
				"x": -1.7829700723,
				"y": 1.853267022,
				"z": -5.4302325864,
				"element": "H" 
			},
			{
				"x": -2.4265170072,
				"y": 2.3410438649,
				"z": -3.9317974654,
				"element": "H" 
			},
			{
				"x": 0.1742650099,
				"y": 0.0714961473,
				"z": 2.4292570234,
				"element": "H" 
			},
			{
				"x": 0.9411495223,
				"y": -2.258777645,
				"z": 2.5786960476,
				"element": "H" 
			}
		],
		 "valence_orbital": [ 
			{
				"type": "occ",
				"energy": -0.28169,
				"method": "rhf"
			},
			{
				"type": "occ",
				"energy": -0.28071,
				"method": "rhf"
			},
			{
				"type": "occ",
				"energy": -0.26873,
				"method": "rhf"
			},
			{
				"type": "occ",
				"energy": -0.22778,
				"method": "rhf"
			},
			{
				"type": "occ",
				"energy": -0.2187,
				"method": "rhf"
			},
			{
				"type": "unocc",
				"energy": -0.04499,
				"method": "rhf"
			},
			{
				"type": "unocc",
				"energy": -0.00952,
				"method": "rhf"
			},
			{
				"type": "unocc",
				"energy": 0.00646,
				"method": "rhf"
			},
			{
				"type": "unocc",
				"energy": 0.03685,
				"method": "rhf"
			},
			{
				"type": "unocc",
				"energy": 0.06311,
				"method": "rhf"
			}
		],
		"cosmo_sigma_profile": { 
			"-0.025": 0.0,
			"-0.024": 0.0,
			"-0.023": 0.0,
			"-0.022": 0.0,
			"-0.021": 0.0,
			"-0.02": 0.0,
			"-0.019": 0.0,
			"-0.018": 0.0,
			"-0.017": 0.0,
			"-0.016": 0.300189353484,
			"-0.015": 2.47517514339,
			"-0.014": 2.52681749232,
			"-0.013": 2.9906213009,
			"-0.012": 2.05589624006,
			"-0.011": 1.65284676927,
			"-0.01": 2.25722894498,
			"-0.009": 1.9353440628,
			"-0.008": 3.64122057055,
			"-0.007": 6.21974504743,
			"-0.006": 12.825305837,
			"-0.005": 14.8311465529,
			"-0.004": 15.5776312954,
			"-0.003": 16.2662153382,
			"-0.002": 13.4095287392,
			"-0.001": 12.8441417184,
			"0.0": 13.6011491404,
			"0.001": 18.154540906,
			"0.002": 26.7256705471,
			"0.003": 17.3546023448,
			"0.004": 15.0887026317,
			"0.005": 9.92475676654,
			"0.006": 5.74283517988,
			"0.007": 3.76681634065,
			"0.008": 3.28750376884,
			"0.009": 4.4728798983,
			"0.01": 3.69716242358,
			"0.011": 2.49517595969,
			"0.012": 3.13613996155,
			"0.013": 3.14873181673,
			"0.014": 2.6219191078,
			"0.015": 1.36919420522,
			"0.016": 0.561742689814,
			"0.017": 0.0,
			"0.018": 0.0,
			"0.019": 0.0,
			"0.02": 0.0,
			"0.021": 0.0,
			"0.022": 0.0,
			"0.023": 0.0,
			"0.024": 0.0,
			"0.025": 0.0
		}
	}
}
