{
	 "smiles": "NN1CC(=O)C(=C1N)C1=NC2=C(N1)C=CC=C2", 
	 "Tm": 571.15, 
	 "num_atms": 28, 
	 "gaussian": { 
		 "optdone": 1, 
		 "sigma_profile": "yes", 
		 "theory": "DFT", 
		 "functional": "B3LYP", 
		 "basiset": "6-31G**", 
		 "properties": { 
			 "R2extent": 5066.8183, 
			 "electric_dipole_moment_norm": 5.44723555118, 
			 "electric_quadrupole_moment_norm": 16.9857815302, 
			 "total_energy": -774.784345086, 
			 "HOMO_LUMO_gap": 0.16951, 
			 "cosmo_polarized_energy": -21.3, 
			 "cosmo_cavitation_energy": 31.81, 
			 "cosmo_dispersion_energy": -24.09, 
			 "cosmo_repulsion_energy": 1.86, 
			 "cosmo_total_nonelectrostatic_energy": 9.58, 
			 "SMD_solvation_energy": 3.77 
		},
		"coords": [
			{
				"x": 0.5676817975,
				"y": 3.1022334683,
				"z": 2.4263452048,
				"element": "N" 
			},
			{
				"x": -0.0532554734,
				"y": 2.3705733291,
				"z": 1.4003004365,
				"element": "N" 
			},
			{
				"x": -1.3976430118,
				"y": 1.8219654613,
				"z": 1.6370767509,
				"element": "C" 
			},
			{
				"x": -1.4814273986,
				"y": 0.6307861706,
				"z": 0.6602773161,
				"element": "C" 
			},
			{
				"x": -2.4938319818,
				"y": -0.0408425238,
				"z": 0.4464578405,
				"element": "O" 
			},
			{
				"x": -0.1795205935,
				"y": 0.5018061904,
				"z": 0.0759081636,
				"element": "C" 
			},
			{
				"x": 0.641284849,
				"y": 1.5113956869,
				"z": 0.5799544395,
				"element": "C" 
			},
			{
				"x": 1.9555433415,
				"y": 1.6386720618,
				"z": 0.3325438774,
				"element": "N" 
			},
			{
				"x": 0.2336607174,
				"y": -0.4658300218,
				"z": -0.898814067,
				"element": "C" 
			},
			{
				"x": 1.4509473796,
				"y": -0.5610017388,
				"z": -1.4226799199,
				"element": "N" 
			},
			{
				"x": 1.3735937588,
				"y": -1.6271400278,
				"z": -2.3075252142,
				"element": "C" 
			},
			{
				"x": 0.0639744895,
				"y": -2.1779278437,
				"z": -2.2979984306,
				"element": "C" 
			},
			{
				"x": -0.6363751514,
				"y": -1.4097471619,
				"z": -1.3844929928,
				"element": "N" 
			},
			{
				"x": -0.2948079723,
				"y": -3.2649210031,
				"z": -3.094348962,
				"element": "C" 
			},
			{
				"x": 0.696028631,
				"y": -3.8020834,
				"z": -3.9160431166,
				"element": "C" 
			},
			{
				"x": 1.9985640497,
				"y": -3.268995375,
				"z": -3.9378011713,
				"element": "C" 
			},
			{
				"x": 2.3520989397,
				"y": -2.1830301808,
				"z": -3.1400037114,
				"element": "C" 
			},
			{
				"x": 1.3251624692,
				"y": 2.5691358929,
				"z": 2.8522621931,
				"element": "H" 
			},
			{
				"x": 0.9280188945,
				"y": 3.9796658815,
				"z": 2.0625255654,
				"element": "H" 
			},
			{
				"x": -1.4940995132,
				"y": 1.4872796301,
				"z": 2.6758721602,
				"element": "H" 
			},
			{
				"x": -2.1765250851,
				"y": 2.5631472503,
				"z": 1.436222002,
				"element": "H" 
			},
			{
				"x": 2.4316272172,
				"y": 2.5046444869,
				"z": 0.5295148987,
				"element": "H" 
			},
			{
				"x": 2.3104811446,
				"y": 0.9999951357,
				"z": -0.3854929043,
				"element": "H" 
			},
			{
				"x": -1.6022698679,
				"y": -1.458169109,
				"z": -1.0805032076,
				"element": "H" 
			},
			{
				"x": -1.2994623214,
				"y": -3.6764575869,
				"z": -3.0780884107,
				"element": "H" 
			},
			{
				"x": 0.4563937605,
				"y": -4.6492721567,
				"z": -4.5518739032,
				"element": "H" 
			},
			{
				"x": 2.7420664994,
				"y": -3.715912431,
				"z": -4.5914979514,
				"element": "H" 
			},
			{
				"x": 3.3562904315,
				"y": -1.7708700856,
				"z": -3.1555968854,
				"element": "H" 
			}
		],
		 "valence_orbital": [ 
			{
				"type": "occ",
				"energy": -0.27246,
				"method": "rhf"
			},
			{
				"type": "occ",
				"energy": -0.24577,
				"method": "rhf"
			},
			{
				"type": "occ",
				"energy": -0.2382,
				"method": "rhf"
			},
			{
				"type": "occ",
				"energy": -0.21419,
				"method": "rhf"
			},
			{
				"type": "occ",
				"energy": -0.18735,
				"method": "rhf"
			},
			{
				"type": "unocc",
				"energy": -0.01784,
				"method": "rhf"
			},
			{
				"type": "unocc",
				"energy": -0.00841,
				"method": "rhf"
			},
			{
				"type": "unocc",
				"energy": 0.03308,
				"method": "rhf"
			},
			{
				"type": "unocc",
				"energy": 0.03803,
				"method": "rhf"
			},
			{
				"type": "unocc",
				"energy": 0.04839,
				"method": "rhf"
			}
		],
		"cosmo_sigma_profile": { 
			"-0.025": 0.0,
			"-0.024": 0.0,
			"-0.023": 0.0,
			"-0.022": 0.0,
			"-0.021": 0.0,
			"-0.02": 0.0,
			"-0.019": 0.0,
			"-0.018": 0.0,
			"-0.017": 0.0,
			"-0.016": 0.0375855093894,
			"-0.015": 1.15793071956,
			"-0.014": 2.18691105014,
			"-0.013": 3.29298260984,
			"-0.012": 6.10057049122,
			"-0.011": 5.19361584986,
			"-0.01": 5.04120122337,
			"-0.009": 3.92900260441,
			"-0.008": 3.91073928118,
			"-0.007": 6.57801240273,
			"-0.006": 10.6709367881,
			"-0.005": 13.9356274241,
			"-0.004": 12.9698653003,
			"-0.003": 15.0299351557,
			"-0.002": 12.1783347459,
			"-0.001": 10.958023593,
			"0.0": 11.8968634242,
			"0.001": 16.3083134114,
			"0.002": 20.3619239645,
			"0.003": 17.3115494404,
			"0.004": 12.5248198496,
			"0.005": 15.328341042,
			"0.006": 12.6798843727,
			"0.007": 10.0252577701,
			"0.008": 3.87064127743,
			"0.009": 4.25661945233,
			"0.01": 3.07165468283,
			"0.011": 2.06814738988,
			"0.012": 2.73386474434,
			"0.013": 3.38157323542,
			"0.014": 3.07220295913,
			"0.015": 1.64765714001,
			"0.016": 0.0454585159409,
			"0.017": 0.0,
			"0.018": 0.0,
			"0.019": 0.0,
			"0.02": 0.0,
			"0.021": 0.0,
			"0.022": 0.0,
			"0.023": 0.0,
			"0.024": 0.0,
			"0.025": 0.0
		}
	}
}
