{
	 "smiles": "NCCNC(=O)C(=O)NCC1=NC=CC=C1", 
	 "Tm": 530.15, 
	 "num_atms": 30, 
	 "gaussian": { 
		 "optdone": 1, 
		 "sigma_profile": "yes", 
		 "theory": "DFT", 
		 "functional": "B3LYP", 
		 "basiset": "6-31G**", 
		 "properties": { 
			 "R2extent": 6143.7627, 
			 "electric_dipole_moment_norm": 3.8541789398, 
			 "electric_quadrupole_moment_norm": 22.341591512, 
			 "total_energy": -758.981612538, 
			 "HOMO_LUMO_gap": 0.18928, 
			 "cosmo_polarized_energy": -16.65, 
			 "cosmo_cavitation_energy": 34.38, 
			 "cosmo_dispersion_energy": -24.84, 
			 "cosmo_repulsion_energy": 1.98, 
			 "cosmo_total_nonelectrostatic_energy": 11.52, 
			 "SMD_solvation_energy": 3.55 
		},
		"coords": [
			{
				"x": 1.294944714,
				"y": 1.2608832769,
				"z": 4.7653089677,
				"element": "N" 
			},
			{
				"x": 0.2488094618,
				"y": 0.5201148574,
				"z": 5.46249987,
				"element": "C" 
			},
			{
				"x": -0.8977176085,
				"y": -0.024904017,
				"z": 4.5851531197,
				"element": "C" 
			},
			{
				"x": -0.4422719914,
				"y": -0.9223878355,
				"z": 3.5379979563,
				"element": "N" 
			},
			{
				"x": -0.2710699545,
				"y": -0.5403748209,
				"z": 2.2539119818,
				"element": "C" 
			},
			{
				"x": -0.473883218,
				"y": 0.590052122,
				"z": 1.8107783781,
				"element": "O" 
			},
			{
				"x": 0.215537608,
				"y": -1.7306028859,
				"z": 1.3949275415,
				"element": "C" 
			},
			{
				"x": 0.4272989225,
				"y": -2.818237314,
				"z": 1.9370436434,
				"element": "O" 
			},
			{
				"x": 0.392185626,
				"y": -1.5226891074,
				"z": 0.0741565171,
				"element": "N" 
			},
			{
				"x": 0.1857864745,
				"y": -0.3291181635,
				"z": -0.7283753645,
				"element": "C" 
			},
			{
				"x": 0.4988773171,
				"y": -0.6305448435,
				"z": -2.1859095659,
				"element": "C" 
			},
			{
				"x": 0.9008449311,
				"y": -1.8686629413,
				"z": -2.4913410586,
				"element": "N" 
			},
			{
				"x": 1.1822510529,
				"y": -2.1529464695,
				"z": -3.7710214384,
				"element": "C" 
			},
			{
				"x": 1.0771887796,
				"y": -1.2224635998,
				"z": -4.8004006592,
				"element": "C" 
			},
			{
				"x": 0.6571635701,
				"y": 0.0708991601,
				"z": -4.4788885724,
				"element": "C" 
			},
			{
				"x": 0.3632957272,
				"y": 0.3736789758,
				"z": -3.1538902086,
				"element": "C" 
			},
			{
				"x": 1.7665306804,
				"y": 0.6430250506,
				"z": 4.1089347118,
				"element": "H" 
			},
			{
				"x": 0.8767271865,
				"y": 1.9947834784,
				"z": 4.196937774,
				"element": "H" 
			},
			{
				"x": 0.7219458408,
				"y": -0.310927923,
				"z": 6.0007689035,
				"element": "H" 
			},
			{
				"x": -0.1960252109,
				"y": 1.170490303,
				"z": 6.2268301403,
				"element": "H" 
			},
			{
				"x": -1.4102205069,
				"y": 0.8047561182,
				"z": 4.088493457,
				"element": "H" 
			},
			{
				"x": -1.6307397508,
				"y": -0.5512284972,
				"z": 5.2092117875,
				"element": "H" 
			},
			{
				"x": -0.2126570948,
				"y": -1.893366484,
				"z": 3.7222188823,
				"element": "H" 
			},
			{
				"x": 0.7097743413,
				"y": -2.328443726,
				"z": -0.4607885249,
				"element": "H" 
			},
			{
				"x": 0.8173775931,
				"y": 0.4950027497,
				"z": -0.3787042812,
				"element": "H" 
			},
			{
				"x": -0.8443427638,
				"y": 0.0325584072,
				"z": -0.639152336,
				"element": "H" 
			},
			{
				"x": 1.5053010784,
				"y": -3.1719439714,
				"z": -3.9735715275,
				"element": "H" 
			},
			{
				"x": 1.3166885908,
				"y": -1.502024445,
				"z": -5.8210474164,
				"element": "H" 
			},
			{
				"x": 0.5609126316,
				"y": 0.8293755159,
				"z": -5.250369481,
				"element": "H" 
			},
			{
				"x": 0.0338859722,
				"y": 1.3679470293,
				"z": -2.8659131974,
				"element": "H" 
			}
		],
		 "valence_orbital": [ 
			{
				"type": "occ",
				"energy": -0.27383,
				"method": "rhf"
			},
			{
				"type": "occ",
				"energy": -0.2642,
				"method": "rhf"
			},
			{
				"type": "occ",
				"energy": -0.24848,
				"method": "rhf"
			},
			{
				"type": "occ",
				"energy": -0.23633,
				"method": "rhf"
			},
			{
				"type": "occ",
				"energy": -0.22674,
				"method": "rhf"
			},
			{
				"type": "unocc",
				"energy": -0.03746,
				"method": "rhf"
			},
			{
				"type": "unocc",
				"energy": -0.02855,
				"method": "rhf"
			},
			{
				"type": "unocc",
				"energy": -0.02318,
				"method": "rhf"
			},
			{
				"type": "unocc",
				"energy": 0.08601,
				"method": "rhf"
			},
			{
				"type": "unocc",
				"energy": 0.08677,
				"method": "rhf"
			}
		],
		"cosmo_sigma_profile": { 
			"-0.025": 0.0,
			"-0.024": 0.0,
			"-0.023": 0.0,
			"-0.022": 0.0,
			"-0.021": 0.0,
			"-0.02": 0.0,
			"-0.019": 0.0,
			"-0.018": 0.0,
			"-0.017": 0.0,
			"-0.016": 0.0,
			"-0.015": 0.0,
			"-0.014": 0.0,
			"-0.013": 0.0,
			"-0.012": 0.630411808109,
			"-0.011": 0.436959400152,
			"-0.01": 1.00011763887,
			"-0.009": 2.2859555377,
			"-0.008": 3.64944935732,
			"-0.007": 10.9860125076,
			"-0.006": 18.9105988763,
			"-0.005": 23.6827626671,
			"-0.004": 24.1817630476,
			"-0.003": 24.6464493964,
			"-0.002": 18.5144155924,
			"-0.001": 17.6428559773,
			"0.0": 17.2142410271,
			"0.001": 18.6902427648,
			"0.002": 20.2059597952,
			"0.003": 14.0112742499,
			"0.004": 6.55964096518,
			"0.005": 4.71001061516,
			"0.006": 6.08074718764,
			"0.007": 5.56866929559,
			"0.008": 3.4641333332,
			"0.009": 3.51683092624,
			"0.01": 3.33574597707,
			"0.011": 4.15605577352,
			"0.012": 5.05195516234,
			"0.013": 6.29875357693,
			"0.014": 2.37707778666,
			"0.015": 1.04452502858,
			"0.016": 0.789052399988,
			"0.017": 0.457151866582,
			"0.018": 0.374649209591,
			"0.019": 0.928171408442,
			"0.02": 0.257150703385,
			"0.021": 0.0,
			"0.022": 0.0,
			"0.023": 0.0,
			"0.024": 0.0,
			"0.025": 0.0
		}
	}
}
