{
	 "smiles": "O=CC1=CC=CC=C1N1CCN(CC2=CC=CC=C2)CC1", 
	 "Tm": 332.15, 
	 "num_atms": 41, 
	 "gaussian": { 
		 "optdone": 1, 
		 "sigma_profile": "yes", 
		 "theory": "DFT", 
		 "functional": "B3LYP", 
		 "basiset": "6-31G**", 
		 "properties": { 
			 "R2extent": 8759.5139, 
			 "electric_dipole_moment_norm": 4.42879311212, 
			 "electric_quadrupole_moment_norm": 15.6223540134, 
			 "total_energy": -882.662384851, 
			 "HOMO_LUMO_gap": 0.15088, 
			 "cosmo_polarized_energy": -12.38, 
			 "cosmo_cavitation_energy": 42.53, 
			 "cosmo_dispersion_energy": -29.53, 
			 "cosmo_repulsion_energy": 2.25, 
			 "cosmo_total_nonelectrostatic_energy": 15.24, 
			 "SMD_solvation_energy": 5.77 
		},
		"coords": [
			{
				"x": 4.4015357961,
				"y": 0.4850002446,
				"z": -0.3660281777,
				"element": "O" 
			},
			{
				"x": 3.361335423,
				"y": 0.8358675409,
				"z": 0.1659543724,
				"element": "C" 
			},
			{
				"x": 3.2559555304,
				"y": 1.970714435,
				"z": 1.1130817232,
				"element": "C" 
			},
			{
				"x": 4.4410219853,
				"y": 2.5076204567,
				"z": 1.6374822452,
				"element": "C" 
			},
			{
				"x": 4.4095138401,
				"y": 3.4554961899,
				"z": 2.6531898615,
				"element": "C" 
			},
			{
				"x": 3.1723438817,
				"y": 3.8717617768,
				"z": 3.1549555366,
				"element": "C" 
			},
			{
				"x": 1.9829314392,
				"y": 3.3754992566,
				"z": 2.6231762264,
				"element": "C" 
			},
			{
				"x": 1.9994753289,
				"y": 2.4312567581,
				"z": 1.5818912653,
				"element": "C" 
			},
			{
				"x": 0.8119544488,
				"y": 1.9411732753,
				"z": 0.991937693,
				"element": "N" 
			},
			{
				"x": -0.4099725286,
				"y": 1.9521036502,
				"z": 1.78881857,
				"element": "C" 
			},
			{
				"x": -1.3972073591,
				"y": 0.9060563106,
				"z": 1.235206293,
				"element": "C" 
			},
			{
				"x": -1.2924458626,
				"y": 0.7949318363,
				"z": -0.2264135645,
				"element": "N" 
			},
			{
				"x": -2.4789727453,
				"y": 0.2052812409,
				"z": -0.8348313559,
				"element": "C" 
			},
			{
				"x": -2.686351084,
				"y": -1.2478262256,
				"z": -0.4435495835,
				"element": "C" 
			},
			{
				"x": -3.9616603408,
				"y": -1.7276871644,
				"z": -0.1275233806,
				"element": "C" 
			},
			{
				"x": -4.161417368,
				"y": -3.075167553,
				"z": 0.1821077983,
				"element": "C" 
			},
			{
				"x": -3.0813263396,
				"y": -3.9581140135,
				"z": 0.1873295635,
				"element": "C" 
			},
			{
				"x": -1.8020213582,
				"y": -3.4859663341,
				"z": -0.1191805912,
				"element": "C" 
			},
			{
				"x": -1.6067814894,
				"y": -2.1418887834,
				"z": -0.4344576931,
				"element": "C" 
			},
			{
				"x": -0.8772523971,
				"y": 2.0563055229,
				"z": -0.8215599054,
				"element": "C" 
			},
			{
				"x": 0.5706427597,
				"y": 2.3683804608,
				"z": -0.4046979214,
				"element": "C" 
			},
			{
				"x": 2.4194761417,
				"y": 0.2777366462,
				"z": -0.0011001435,
				"element": "H" 
			},
			{
				"x": 5.378917099,
				"y": 2.1272020645,
				"z": 1.2443830707,
				"element": "H" 
			},
			{
				"x": 5.3315704889,
				"y": 3.8559899638,
				"z": 3.0629489289,
				"element": "H" 
			},
			{
				"x": 3.1303859622,
				"y": 4.6040312265,
				"z": 3.956881519,
				"element": "H" 
			},
			{
				"x": 1.0360528078,
				"y": 3.7440647216,
				"z": 3.0029730229,
				"element": "H" 
			},
			{
				"x": -0.886672911,
				"y": 2.9479901575,
				"z": 1.8102969877,
				"element": "H" 
			},
			{
				"x": -0.1616787587,
				"y": 1.6982594363,
				"z": 2.8222663516,
				"element": "H" 
			},
			{
				"x": -1.1940383048,
				"y": -0.0755716685,
				"z": 1.6745305923,
				"element": "H" 
			},
			{
				"x": -2.4179756618,
				"y": 1.1985493429,
				"z": 1.546362678,
				"element": "H" 
			},
			{
				"x": -3.3980477198,
				"y": 0.7772655165,
				"z": -0.5969282771,
				"element": "H" 
			},
			{
				"x": -2.350547323,
				"y": 0.2651329425,
				"z": -1.9240830806,
				"element": "H" 
			},
			{
				"x": -4.8055671819,
				"y": -1.0414942162,
				"z": -0.1231233539,
				"element": "H" 
			},
			{
				"x": -5.1586323014,
				"y": -3.4315165395,
				"z": 0.425190079,
				"element": "H" 
			},
			{
				"x": -3.2329375846,
				"y": -5.0056090987,
				"z": 0.4320479357,
				"element": "H" 
			},
			{
				"x": -0.9554582585,
				"y": -4.1671100185,
				"z": -0.113385264,
				"element": "H" 
			},
			{
				"x": -0.6141873849,
				"y": -1.7654451031,
				"z": -0.6636481,
				"element": "H" 
			},
			{
				"x": -0.9159275778,
				"y": 1.9691792567,
				"z": -1.9120966227,
				"element": "H" 
			},
			{
				"x": -1.5475846386,
				"y": 2.8955728789,
				"z": -0.5522975014,
				"element": "H" 
			},
			{
				"x": 0.7583622036,
				"y": 3.4474512452,
				"z": -0.5265666022,
				"element": "H" 
			},
			{
				"x": 1.2597893427,
				"y": 1.8365223639,
				"z": -1.0668411955,
				"element": "H" 
			}
		],
		 "valence_orbital": [ 
			{
				"type": "occ",
				"energy": -0.24749,
				"method": "rhf"
			},
			{
				"type": "occ",
				"energy": -0.24358,
				"method": "rhf"
			},
			{
				"type": "occ",
				"energy": -0.24194,
				"method": "rhf"
			},
			{
				"type": "occ",
				"energy": -0.2229,
				"method": "rhf"
			},
			{
				"type": "occ",
				"energy": -0.2053,
				"method": "rhf"
			},
			{
				"type": "unocc",
				"energy": -0.05442,
				"method": "rhf"
			},
			{
				"type": "unocc",
				"energy": -0.00357,
				"method": "rhf"
			},
			{
				"type": "unocc",
				"energy": -0.00217,
				"method": "rhf"
			},
			{
				"type": "unocc",
				"energy": 0.00144,
				"method": "rhf"
			},
			{
				"type": "unocc",
				"energy": 0.04159,
				"method": "rhf"
			}
		],
		"cosmo_sigma_profile": { 
			"-0.025": 0.0,
			"-0.024": 0.0,
			"-0.023": 0.0,
			"-0.022": 0.0,
			"-0.021": 0.0,
			"-0.02": 0.0,
			"-0.019": 0.0,
			"-0.018": 0.0,
			"-0.017": 0.0,
			"-0.016": 0.0,
			"-0.015": 0.0,
			"-0.014": 0.0,
			"-0.013": 0.0,
			"-0.012": 0.0,
			"-0.011": 0.0,
			"-0.01": 0.0,
			"-0.009": 0.0,
			"-0.008": 0.0,
			"-0.007": 0.487092597739,
			"-0.006": 7.73307955362,
			"-0.005": 25.8774576099,
			"-0.004": 35.9945461409,
			"-0.003": 45.7640328314,
			"-0.002": 42.3744817632,
			"-0.001": 29.259560833,
			"0.0": 19.7305099117,
			"0.001": 18.7052153767,
			"0.002": 20.4779626444,
			"0.003": 19.3598236809,
			"0.004": 21.1417433052,
			"0.005": 13.6567500825,
			"0.006": 11.5736117601,
			"0.007": 4.59351585524,
			"0.008": 3.03087404997,
			"0.009": 3.11846577249,
			"0.01": 2.80010336431,
			"0.011": 4.04027870659,
			"0.012": 4.43524630306,
			"0.013": 1.68124473959,
			"0.014": 0.242714502491,
			"0.015": 0.0,
			"0.016": 0.0,
			"0.017": 0.0,
			"0.018": 0.0,
			"0.019": 0.0,
			"0.02": 0.0,
			"0.021": 0.0,
			"0.022": 0.0,
			"0.023": 0.0,
			"0.024": 0.0,
			"0.025": 0.0
		}
	}
}
