{
	 "smiles": "CC1(C)C(O)CC1O", 
	 "Tm": 378.15, 
	 "num_atms": 20, 
	 "gaussian": { 
		 "optdone": 1, 
		 "sigma_profile": "yes", 
		 "theory": "DFT", 
		 "functional": "B3LYP", 
		 "basiset": "6-31G**", 
		 "properties": { 
			 "R2extent": 1038.471, 
			 "electric_dipole_moment_norm": 2.71610756414, 
			 "electric_quadrupole_moment_norm": 3.01958602129, 
			 "total_energy": -386.282643043, 
			 "HOMO_LUMO_gap": 0.31665, 
			 "cosmo_polarized_energy": -10.49, 
			 "cosmo_cavitation_energy": 21.54, 
			 "cosmo_dispersion_energy": -15.69, 
			 "cosmo_repulsion_energy": 1.32, 
			 "cosmo_total_nonelectrostatic_energy": 7.17, 
			 "SMD_solvation_energy": 3.84 
		},
		"coords": [
			{
				"x": 0.6161892702,
				"y": 0.336400786,
				"z": 2.2069720218,
				"element": "C" 
			},
			{
				"x": 0.5492632968,
				"y": 0.4572809903,
				"z": 0.6849851142,
				"element": "C" 
			},
			{
				"x": 1.9532752452,
				"y": 0.5910187474,
				"z": 0.0841678394,
				"element": "C" 
			},
			{
				"x": -0.3107995866,
				"y": -0.6129539883,
				"z": -0.055334294,
				"element": "C" 
			},
			{
				"x": 0.4338718531,
				"y": -1.6509707039,
				"z": -0.6578386755,
				"element": "O" 
			},
			{
				"x": -0.9118963074,
				"y": 0.5034964799,
				"z": -0.9491228484,
				"element": "C" 
			},
			{
				"x": -0.4393053641,
				"y": 1.523429775,
				"z": 0.1200077022,
				"element": "C" 
			},
			{
				"x": 0.1704962734,
				"y": 2.7267533496,
				"z": -0.2985299342,
				"element": "O" 
			},
			{
				"x": 1.1990016363,
				"y": -0.5430561629,
				"z": 2.5037842715,
				"element": "H" 
			},
			{
				"x": 1.093038718,
				"y": 1.2189878131,
				"z": 2.6484127889,
				"element": "H" 
			},
			{
				"x": -0.3835051454,
				"y": 0.2402142638,
				"z": 2.6464542865,
				"element": "H" 
			},
			{
				"x": 2.5528779119,
				"y": -0.2880318255,
				"z": 0.3370658254,
				"element": "H" 
			},
			{
				"x": 1.9340737334,
				"y": 0.6791496395,
				"z": -1.0039994303,
				"element": "H" 
			},
			{
				"x": 2.4464331749,
				"y": 1.4823372124,
				"z": 0.4823566361,
				"element": "H" 
			},
			{
				"x": -1.0742281915,
				"y": -1.0237190422,
				"z": 0.6236973576,
				"element": "H" 
			},
			{
				"x": -0.1830496128,
				"y": -2.2354787687,
				"z": -1.1164443771,
				"element": "H" 
			},
			{
				"x": -1.9773018613,
				"y": 0.4597959758,
				"z": -1.1974478341,
				"element": "H" 
			},
			{
				"x": -0.3237656299,
				"y": 0.61398908,
				"z": -1.8646170084,
				"element": "H" 
			},
			{
				"x": -1.2395336943,
				"y": 1.724498171,
				"z": 0.8492794489,
				"element": "H" 
			},
			{
				"x": -0.5161357199,
				"y": 3.3003582077,
				"z": -0.6619488907,
				"element": "H" 
			}
		],
		 "valence_orbital": [ 
			{
				"type": "occ",
				"energy": -0.32552,
				"method": "rhf"
			},
			{
				"type": "occ",
				"energy": -0.29639,
				"method": "rhf"
			},
			{
				"type": "occ",
				"energy": -0.28974,
				"method": "rhf"
			},
			{
				"type": "occ",
				"energy": -0.26471,
				"method": "rhf"
			},
			{
				"type": "occ",
				"energy": -0.2463,
				"method": "rhf"
			},
			{
				"type": "unocc",
				"energy": 0.07035,
				"method": "rhf"
			},
			{
				"type": "unocc",
				"energy": 0.08569,
				"method": "rhf"
			},
			{
				"type": "unocc",
				"energy": 0.10108,
				"method": "rhf"
			},
			{
				"type": "unocc",
				"energy": 0.12356,
				"method": "rhf"
			},
			{
				"type": "unocc",
				"energy": 0.13,
				"method": "rhf"
			}
		],
		"cosmo_sigma_profile": { 
			"-0.025": 0.0,
			"-0.024": 0.0,
			"-0.023": 0.0,
			"-0.022": 0.0,
			"-0.021": 0.0,
			"-0.02": 0.0,
			"-0.019": 0.0,
			"-0.018": 0.0,
			"-0.017": 0.0,
			"-0.016": 0.414926743343,
			"-0.015": 2.02071768539,
			"-0.014": 2.2773935032,
			"-0.013": 1.64164594959,
			"-0.012": 1.48920427333,
			"-0.011": 1.75496837133,
			"-0.01": 1.26993096522,
			"-0.009": 1.75742454781,
			"-0.008": 1.25761784797,
			"-0.007": 2.03094184523,
			"-0.006": 1.74769005596,
			"-0.005": 2.57857274425,
			"-0.004": 5.30182608849,
			"-0.003": 17.6671121319,
			"-0.002": 20.7899685715,
			"-0.001": 18.6516421881,
			"0.0": 17.3055224308,
			"0.001": 17.7228193502,
			"0.002": 11.7949383967,
			"0.003": 3.85583871212,
			"0.004": 3.29153621889,
			"0.005": 2.58474562455,
			"0.006": 2.60956928122,
			"0.007": 3.47640676013,
			"0.008": 2.92096533043,
			"0.009": 2.51852531224,
			"0.01": 3.00516345611,
			"0.011": 2.54750951134,
			"0.012": 3.16119520197,
			"0.013": 4.34784454423,
			"0.014": 1.45065312118,
			"0.015": 0.0444415572375,
			"0.016": 0.0,
			"0.017": 0.0,
			"0.018": 0.0,
			"0.019": 0.0,
			"0.02": 0.0,
			"0.021": 0.0,
			"0.022": 0.0,
			"0.023": 0.0,
			"0.024": 0.0,
			"0.025": 0.0
		}
	}
}
