{
	 "smiles": "COC1=CC=C(C=C1)S(=O)(=O)N(C)C1=CC=C(O)C=C1", 
	 "Tm": 362.15, 
	 "num_atms": 35, 
	 "gaussian": { 
		 "optdone": 1, 
		 "sigma_profile": "yes", 
		 "theory": "DFT", 
		 "functional": "B3LYP", 
		 "basiset": "6-31G**", 
		 "properties": { 
			 "R2extent": 7026.5346, 
			 "electric_dipole_moment_norm": 6.36023124501, 
			 "electric_quadrupole_moment_norm": 23.8647830191, 
			 "total_energy": -1296.27149866, 
			 "HOMO_LUMO_gap": 0.20214, 
			 "cosmo_polarized_energy": -20.01, 
			 "cosmo_cavitation_energy": 40.34, 
			 "cosmo_dispersion_energy": -27.88, 
			 "cosmo_repulsion_energy": 2.12, 
			 "cosmo_total_nonelectrostatic_energy": 14.58, 
			 "SMD_solvation_energy": 7.24 
		},
		"coords": [
			{
				"x": -0.3258025297,
				"y": 5.4460469577,
				"z": 1.9289890206,
				"element": "C" 
			},
			{
				"x": -0.7232104247,
				"y": 4.3599420831,
				"z": 2.7555292819,
				"element": "O" 
			},
			{
				"x": -1.1220627424,
				"y": 3.2046457258,
				"z": 2.1624154397,
				"element": "C" 
			},
			{
				"x": -1.5202031098,
				"y": 2.1809365132,
				"z": 3.0423897996,
				"element": "C" 
			},
			{
				"x": -1.9462721933,
				"y": 0.9609180304,
				"z": 2.5438728634,
				"element": "C" 
			},
			{
				"x": -1.9704046099,
				"y": 0.7527799868,
				"z": 1.157930256,
				"element": "C" 
			},
			{
				"x": -1.5865513819,
				"y": 1.7616419821,
				"z": 0.2791990429,
				"element": "C" 
			},
			{
				"x": -1.1584522521,
				"y": 2.9934549016,
				"z": 0.7777321802,
				"element": "C" 
			},
			{
				"x": -2.5602046213,
				"y": -0.8029860083,
				"z": 0.5132067017,
				"element": "S" 
			},
			{
				"x": -2.7195829775,
				"y": -0.6518915594,
				"z": -0.9418193777,
				"element": "O" 
			},
			{
				"x": -3.6913836569,
				"y": -1.2675121664,
				"z": 1.3251970645,
				"element": "O" 
			},
			{
				"x": -1.2640227391,
				"y": -1.8530285881,
				"z": 0.9048678816,
				"element": "N" 
			},
			{
				"x": -1.6495923412,
				"y": -3.2691809596,
				"z": 1.0559857356,
				"element": "C" 
			},
			{
				"x": -0.0219743947,
				"y": -1.616008492,
				"z": 0.2096533533,
				"element": "C" 
			},
			{
				"x": 1.0756612626,
				"y": -1.1654652519,
				"z": 0.9474804079,
				"element": "C" 
			},
			{
				"x": 2.3105896676,
				"y": -0.9648903208,
				"z": 0.3325398387,
				"element": "C" 
			},
			{
				"x": 2.4532916315,
				"y": -1.2119689451,
				"z": -1.0372336343,
				"element": "C" 
			},
			{
				"x": 3.633406153,
				"y": -1.0351265103,
				"z": -1.6995864181,
				"element": "O" 
			},
			{
				"x": 1.3561126724,
				"y": -1.6577646196,
				"z": -1.7855193507,
				"element": "C" 
			},
			{
				"x": 0.1289567265,
				"y": -1.8598262449,
				"z": -1.1641814737,
				"element": "C" 
			},
			{
				"x": 0.5444289321,
				"y": 5.1866234851,
				"z": 1.3133251479,
				"element": "H" 
			},
			{
				"x": -1.1439346023,
				"y": 5.7759976025,
				"z": 1.2770231657,
				"element": "H" 
			},
			{
				"x": -0.0574765373,
				"y": 6.2562374339,
				"z": 2.6080585454,
				"element": "H" 
			},
			{
				"x": -1.4924775444,
				"y": 2.3767142111,
				"z": 4.1089829652,
				"element": "H" 
			},
			{
				"x": -2.2696963081,
				"y": 0.1731197857,
				"z": 3.2155329778,
				"element": "H" 
			},
			{
				"x": -1.6296592934,
				"y": 1.5825475054,
				"z": -0.7892409067,
				"element": "H" 
			},
			{
				"x": -0.8629819774,
				"y": 3.7716886759,
				"z": 0.0848875586,
				"element": "H" 
			},
			{
				"x": -2.5545043297,
				"y": -3.3281099436,
				"z": 1.6605791933,
				"element": "H" 
			},
			{
				"x": -0.8336177875,
				"y": -3.776758253,
				"z": 1.5761136648,
				"element": "H" 
			},
			{
				"x": -1.8226976158,
				"y": -3.771727849,
				"z": 0.0952879678,
				"element": "H" 
			},
			{
				"x": 0.9517182309,
				"y": -0.9743525123,
				"z": 2.0084135498,
				"element": "H" 
			},
			{
				"x": 3.160099596,
				"y": -0.615636239,
				"z": 0.9157548716,
				"element": "H" 
			},
			{
				"x": 4.30614899,
				"y": -0.7328228335,
				"z": -1.0757466861,
				"element": "H" 
			},
			{
				"x": 1.4853652518,
				"y": -1.8377765743,
				"z": -2.8475377077,
				"element": "H" 
			},
			{
				"x": -0.7260131441,
				"y": -2.1873610093,
				"z": -1.7452829204,
				"element": "H" 
			}
		],
		 "valence_orbital": [ 
			{
				"type": "occ",
				"energy": -0.26779,
				"method": "rhf"
			},
			{
				"type": "occ",
				"energy": -0.25868,
				"method": "rhf"
			},
			{
				"type": "occ",
				"energy": -0.25142,
				"method": "rhf"
			},
			{
				"type": "occ",
				"energy": -0.23389,
				"method": "rhf"
			},
			{
				"type": "occ",
				"energy": -0.22625,
				"method": "rhf"
			},
			{
				"type": "unocc",
				"energy": -0.02411,
				"method": "rhf"
			},
			{
				"type": "unocc",
				"energy": -0.01661,
				"method": "rhf"
			},
			{
				"type": "unocc",
				"energy": -0.00873,
				"method": "rhf"
			},
			{
				"type": "unocc",
				"energy": -0.0023,
				"method": "rhf"
			},
			{
				"type": "unocc",
				"energy": 0.06323,
				"method": "rhf"
			}
		],
		"cosmo_sigma_profile": { 
			"-0.025": 0.0,
			"-0.024": 0.0,
			"-0.023": 0.0,
			"-0.022": 0.0,
			"-0.021": 0.0,
			"-0.02": 0.0,
			"-0.019": 0.0,
			"-0.018": 0.59553147414,
			"-0.017": 1.32817413267,
			"-0.016": 0.879438685429,
			"-0.015": 0.950999270364,
			"-0.014": 1.1293029246,
			"-0.013": 1.03999207939,
			"-0.012": 1.43898591243,
			"-0.011": 0.703753872656,
			"-0.01": 0.702791232635,
			"-0.009": 1.37014361927,
			"-0.008": 1.95336336725,
			"-0.007": 9.58767110106,
			"-0.006": 20.5703970926,
			"-0.005": 26.2092986474,
			"-0.004": 25.5318488998,
			"-0.003": 23.3014992608,
			"-0.002": 20.6021020464,
			"-0.001": 18.0906747509,
			"0.0": 16.5015404617,
			"0.001": 19.847310472,
			"0.002": 26.1496515529,
			"0.003": 27.1980618677,
			"0.004": 18.8081126296,
			"0.005": 10.1362645245,
			"0.006": 5.89540822324,
			"0.007": 6.73028731708,
			"0.008": 5.30946924253,
			"0.009": 5.94509799494,
			"0.01": 8.71418796252,
			"0.011": 8.68915273895,
			"0.012": 5.03394778391,
			"0.013": 0.131186213503,
			"0.014": 0.0,
			"0.015": 0.0,
			"0.016": 0.0,
			"0.017": 0.0,
			"0.018": 0.0,
			"0.019": 0.0,
			"0.02": 0.0,
			"0.021": 0.0,
			"0.022": 0.0,
			"0.023": 0.0,
			"0.024": 0.0,
			"0.025": 0.0
		}
	}
}
