{
	 "smiles": "CC(C)(NS(C)(=O)=O)C(O)=O", 
	 "Tm": 345.15, 
	 "num_atms": 22, 
	 "gaussian": { 
		 "optdone": 1, 
		 "sigma_profile": "yes", 
		 "theory": "DFT", 
		 "functional": "B3LYP", 
		 "basiset": "6-31G**", 
		 "properties": { 
			 "R2extent": 2038.844, 
			 "electric_dipole_moment_norm": 4.81758238539, 
			 "electric_quadrupole_moment_norm": 13.6660497193, 
			 "total_energy": -950.945586548, 
			 "HOMO_LUMO_gap": 0.25242, 
			 "cosmo_polarized_energy": -20.22, 
			 "cosmo_cavitation_energy": 26.05, 
			 "cosmo_dispersion_energy": -18.82, 
			 "cosmo_repulsion_energy": 1.45, 
			 "cosmo_total_nonelectrostatic_energy": 8.68, 
			 "SMD_solvation_energy": 4.81 
		},
		"coords": [
			{
				"x": 1.9280053059,
				"y": -1.8073277282,
				"z": 1.746292556,
				"element": "C" 
			},
			{
				"x": 1.39518545,
				"y": -0.5908563422,
				"z": 0.9568605942,
				"element": "C" 
			},
			{
				"x": 2.1593919854,
				"y": 0.6730646835,
				"z": 1.3631131511,
				"element": "C" 
			},
			{
				"x": -0.0453927107,
				"y": -0.5005764092,
				"z": 1.2786545965,
				"element": "N" 
			},
			{
				"x": -1.0787105773,
				"y": 0.7787609289,
				"z": 0.9001453643,
				"element": "S" 
			},
			{
				"x": -1.0169572542,
				"y": 1.0144135645,
				"z": -0.891757994,
				"element": "C" 
			},
			{
				"x": -2.4076031836,
				"y": 0.2625063685,
				"z": 1.2307171389,
				"element": "O" 
			},
			{
				"x": -0.5533425943,
				"y": 2.000023194,
				"z": 1.5074999426,
				"element": "O" 
			},
			{
				"x": 1.6190011491,
				"y": -0.8813237888,
				"z": -0.541633787,
				"element": "C" 
			},
			{
				"x": 0.7912741502,
				"y": -1.8614147993,
				"z": -0.9907212512,
				"element": "O" 
			},
			{
				"x": 2.4320335352,
				"y": -0.3427824458,
				"z": -1.2574018739,
				"element": "O" 
			},
			{
				"x": 1.8014446989,
				"y": -1.6224646049,
				"z": 2.8156060793,
				"element": "H" 
			},
			{
				"x": 1.3909828373,
				"y": -2.7217458914,
				"z": 1.4782580611,
				"element": "H" 
			},
			{
				"x": 2.9905317846,
				"y": -1.9590228818,
				"z": 1.5350743738,
				"element": "H" 
			},
			{
				"x": 1.9854535272,
				"y": 0.8779752279,
				"z": 2.4208988877,
				"element": "H" 
			},
			{
				"x": 3.225858322,
				"y": 0.51717506,
				"z": 1.1891487124,
				"element": "H" 
			},
			{
				"x": 1.847953804,
				"y": 1.5492394043,
				"z": 0.7947783121,
				"element": "H" 
			},
			{
				"x": -0.5489536734,
				"y": -1.3713191822,
				"z": 1.136311481,
				"element": "H" 
			},
			{
				"x": -0.0074418681,
				"y": 1.2989176136,
				"z": -1.19300903,
				"element": "H" 
			},
			{
				"x": -1.3298004142,
				"y": 0.0923994605,
				"z": -1.3825293457,
				"element": "H" 
			},
			{
				"x": -1.7142125124,
				"y": 1.8229144847,
				"z": -1.1183694871,
				"element": "H" 
			},
			{
				"x": 1.0239982384,
				"y": -2.0111559166,
				"z": -1.9226364821,
				"element": "H" 
			}
		],
		 "valence_orbital": [ 
			{
				"type": "occ",
				"energy": -0.32358,
				"method": "rhf"
			},
			{
				"type": "occ",
				"energy": -0.31346,
				"method": "rhf"
			},
			{
				"type": "occ",
				"energy": -0.30262,
				"method": "rhf"
			},
			{
				"type": "occ",
				"energy": -0.29899,
				"method": "rhf"
			},
			{
				"type": "occ",
				"energy": -0.27155,
				"method": "rhf"
			},
			{
				"type": "unocc",
				"energy": -0.01913,
				"method": "rhf"
			},
			{
				"type": "unocc",
				"energy": 0.04194,
				"method": "rhf"
			},
			{
				"type": "unocc",
				"energy": 0.06297,
				"method": "rhf"
			},
			{
				"type": "unocc",
				"energy": 0.07644,
				"method": "rhf"
			},
			{
				"type": "unocc",
				"energy": 0.08266,
				"method": "rhf"
			}
		],
		"cosmo_sigma_profile": { 
			"-0.025": 0.0,
			"-0.024": 0.0,
			"-0.023": 0.0,
			"-0.022": 0.0,
			"-0.021": 0.0,
			"-0.02": 0.0,
			"-0.019": 0.475400572777,
			"-0.018": 0.839316572066,
			"-0.017": 0.993879145046,
			"-0.016": 0.760023101399,
			"-0.015": 0.959746974381,
			"-0.014": 0.593578788381,
			"-0.013": 0.972508933099,
			"-0.012": 1.06558176519,
			"-0.011": 2.19329077827,
			"-0.01": 2.02452163747,
			"-0.009": 3.51971915043,
			"-0.008": 5.77521332836,
			"-0.007": 8.24042540811,
			"-0.006": 8.54701563885,
			"-0.005": 16.4716047295,
			"-0.004": 17.9540820481,
			"-0.003": 15.5067072298,
			"-0.002": 13.6383706465,
			"-0.001": 15.1015212841,
			"0.0": 10.2397217664,
			"0.001": 4.69410869221,
			"0.002": 5.24800624306,
			"0.003": 4.34291252559,
			"0.004": 5.0520961906,
			"0.005": 5.19461643687,
			"0.006": 5.41847675514,
			"0.007": 6.29043464822,
			"0.008": 5.94375555461,
			"0.009": 4.71285338746,
			"0.01": 8.04307647656,
			"0.011": 15.4940148083,
			"0.012": 7.02020327077,
			"0.013": 0.139331148264,
			"0.014": 0.0,
			"0.015": 0.0,
			"0.016": 0.0,
			"0.017": 0.0,
			"0.018": 0.0,
			"0.019": 0.0,
			"0.02": 0.0,
			"0.021": 0.0,
			"0.022": 0.0,
			"0.023": 0.0,
			"0.024": 0.0,
			"0.025": 0.0
		}
	}
}
