{
	 "smiles": "CC(=O)OC1=CC=CC2=C1C=CC=C2", 
	 "Tm": 317.95, 
	 "num_atms": 24, 
	 "gaussian": { 
		 "optdone": 1, 
		 "sigma_profile": "yes", 
		 "theory": "DFT", 
		 "functional": "B3LYP", 
		 "basiset": "6-31G**", 
		 "properties": { 
			 "R2extent": 3091.8388, 
			 "electric_dipole_moment_norm": 1.7383884261, 
			 "electric_quadrupole_moment_norm": 13.1029604136, 
			 "total_energy": -613.771749756, 
			 "HOMO_LUMO_gap": 0.17173, 
			 "cosmo_polarized_energy": -8.35, 
			 "cosmo_cavitation_energy": 28.23, 
			 "cosmo_dispersion_energy": -20.57, 
			 "cosmo_repulsion_energy": 1.6, 
			 "cosmo_total_nonelectrostatic_energy": 9.26, 
			 "SMD_solvation_energy": 5.9 
		},
		"coords": [
			{
				"x": -1.2924101787,
				"y": 3.4080245694,
				"z": -3.0393085939,
				"element": "C" 
			},
			{
				"x": -1.7411759118,
				"y": 2.2793280127,
				"z": -2.1437366752,
				"element": "C" 
			},
			{
				"x": -2.8418422739,
				"y": 2.1465471528,
				"z": -1.6706315516,
				"element": "O" 
			},
			{
				"x": -0.6944296161,
				"y": 1.4142752954,
				"z": -1.9441712533,
				"element": "O" 
			},
			{
				"x": -0.8111537294,
				"y": 0.2840241668,
				"z": -1.1335658817,
				"element": "C" 
			},
			{
				"x": -1.901541219,
				"y": -0.5545944647,
				"z": -1.1704361718,
				"element": "C" 
			},
			{
				"x": -1.910597591,
				"y": -1.7174582325,
				"z": -0.3639775981,
				"element": "C" 
			},
			{
				"x": -0.8445810357,
				"y": -2.0222850212,
				"z": 0.4498407435,
				"element": "C" 
			},
			{
				"x": 0.2930403512,
				"y": -1.1728975145,
				"z": 0.4969227773,
				"element": "C" 
			},
			{
				"x": 0.3195906193,
				"y": 0.0119574806,
				"z": -0.3095373459,
				"element": "C" 
			},
			{
				"x": 1.4594535119,
				"y": 0.8582560998,
				"z": -0.2602812217,
				"element": "C" 
			},
			{
				"x": 2.5259617675,
				"y": 0.5488416495,
				"z": 0.5539867948,
				"element": "C" 
			},
			{
				"x": 2.5044358451,
				"y": -0.6196653021,
				"z": 1.3534538776,
				"element": "C" 
			},
			{
				"x": 1.4136097689,
				"y": -1.4582474079,
				"z": 1.3232415495,
				"element": "C" 
			},
			{
				"x": -0.4815085537,
				"y": 3.9661427758,
				"z": -2.5616531752,
				"element": "H" 
			},
			{
				"x": -0.9036576992,
				"y": 3.0093794491,
				"z": -3.9807561119,
				"element": "H" 
			},
			{
				"x": -2.1346247452,
				"y": 4.0715571658,
				"z": -3.2320034211,
				"element": "H" 
			},
			{
				"x": -2.748552683,
				"y": -0.320328506,
				"z": -1.8007277582,
				"element": "H" 
			},
			{
				"x": -2.7775846821,
				"y": -2.3703351039,
				"z": -0.3970441117,
				"element": "H" 
			},
			{
				"x": -0.8578240262,
				"y": -2.9166265532,
				"z": 1.0666758533,
				"element": "H" 
			},
			{
				"x": 1.4752749469,
				"y": 1.7501966337,
				"z": -0.8759159518,
				"element": "H" 
			},
			{
				"x": 3.3915351543,
				"y": 1.2043351329,
				"z": 0.5842567596,
				"element": "H" 
			},
			{
				"x": 3.353022355,
				"y": -0.8517489038,
				"z": 1.9904561891,
				"element": "H" 
			},
			{
				"x": 1.3921596249,
				"y": -2.3566785746,
				"z": 1.9346122782,
				"element": "H" 
			}
		],
		 "valence_orbital": [ 
			{
				"type": "occ",
				"energy": -0.31856,
				"method": "rhf"
			},
			{
				"type": "occ",
				"energy": -0.27954,
				"method": "rhf"
			},
			{
				"type": "occ",
				"energy": -0.27435,
				"method": "rhf"
			},
			{
				"type": "occ",
				"energy": -0.24474,
				"method": "rhf"
			},
			{
				"type": "occ",
				"energy": -0.21244,
				"method": "rhf"
			},
			{
				"type": "unocc",
				"energy": -0.04071,
				"method": "rhf"
			},
			{
				"type": "unocc",
				"energy": -0.01031,
				"method": "rhf"
			},
			{
				"type": "unocc",
				"energy": 0.00195,
				"method": "rhf"
			},
			{
				"type": "unocc",
				"energy": 0.03897,
				"method": "rhf"
			},
			{
				"type": "unocc",
				"energy": 0.09415,
				"method": "rhf"
			}
		],
		"cosmo_sigma_profile": { 
			"-0.025": 0.0,
			"-0.024": 0.0,
			"-0.023": 0.0,
			"-0.022": 0.0,
			"-0.021": 0.0,
			"-0.02": 0.0,
			"-0.019": 0.0,
			"-0.018": 0.0,
			"-0.017": 0.0,
			"-0.016": 0.0,
			"-0.015": 0.0,
			"-0.014": 0.0,
			"-0.013": 0.0,
			"-0.012": 0.0,
			"-0.011": 0.0,
			"-0.01": 0.0,
			"-0.009": 0.0,
			"-0.008": 0.0,
			"-0.007": 2.735245148,
			"-0.006": 16.7139435269,
			"-0.005": 20.8902118473,
			"-0.004": 21.7260202095,
			"-0.003": 19.4398385601,
			"-0.002": 18.531175204,
			"-0.001": 14.9231385669,
			"0.0": 9.85742032502,
			"0.001": 11.736592127,
			"0.002": 15.9830807649,
			"0.003": 20.6113146817,
			"0.004": 22.1003160659,
			"0.005": 13.9407249439,
			"0.006": 2.80412231697,
			"0.007": 1.70104488289,
			"0.008": 1.63107819574,
			"0.009": 1.88898472293,
			"0.01": 2.95122240714,
			"0.011": 4.20549184056,
			"0.012": 1.88374233764,
			"0.013": 0.0822460689588,
			"0.014": 0.0,
			"0.015": 0.0,
			"0.016": 0.0,
			"0.017": 0.0,
			"0.018": 0.0,
			"0.019": 0.0,
			"0.02": 0.0,
			"0.021": 0.0,
			"0.022": 0.0,
			"0.023": 0.0,
			"0.024": 0.0,
			"0.025": 0.0
		}
	}
}
