{
	 "smiles": "BrC1=CC=C(C=C1)C(=O)C1=CC2=C(O1)C=CC(C=O)=C2", 
	 "Tm": 451.15, 
	 "num_atms": 29, 
	 "gaussian": { 
		 "optdone": 1, 
		 "sigma_profile": "yes", 
		 "theory": "DFT", 
		 "functional": "B3LYP", 
		 "basiset": "6-31G**", 
		 "properties": { 
			 "R2extent": 13875.8187, 
			 "electric_dipole_moment_norm": 3.02694641677, 
			 "electric_quadrupole_moment_norm": 18.8265266714, 
			 "total_energy": -3412.18330951, 
			 "HOMO_LUMO_gap": 0.16013, 
			 "cosmo_polarized_energy": -15.59, 
			 "cosmo_cavitation_energy": 37.84, 
			 "cosmo_dispersion_energy": -27.71, 
			 "cosmo_repulsion_energy": 2.09, 
			 "cosmo_total_nonelectrostatic_energy": 12.22, 
			 "SMD_solvation_energy": 6.97 
		},
		"coords": [
			{
				"x": 3.5281904043,
				"y": -6.2207847071,
				"z": -1.6141117021,
				"element": "Br" 
			},
			{
				"x": 2.6793173145,
				"y": -4.5134137747,
				"z": -1.6415684423,
				"element": "C" 
			},
			{
				"x": 1.9129367983,
				"y": -4.1131769576,
				"z": -0.5479634092,
				"element": "C" 
			},
			{
				"x": 1.3035802385,
				"y": -2.859128936,
				"z": -0.5677810289,
				"element": "C" 
			},
			{
				"x": 1.4514185043,
				"y": -2.0096031568,
				"z": -1.6743553302,
				"element": "C" 
			},
			{
				"x": 2.2052270181,
				"y": -2.4487741608,
				"z": -2.7742819251,
				"element": "C" 
			},
			{
				"x": 2.8298083483,
				"y": -3.6908081952,
				"z": -2.760437191,
				"element": "C" 
			},
			{
				"x": 0.7859680581,
				"y": -0.6737515016,
				"z": -1.7861163063,
				"element": "C" 
			},
			{
				"x": 0.500206277,
				"y": -0.1980094299,
				"z": -2.8774988493,
				"element": "O" 
			},
			{
				"x": 0.5103937406,
				"y": 0.0954285388,
				"z": -0.5510819381,
				"element": "C" 
			},
			{
				"x": 1.049451388,
				"y": 0.0785964325,
				"z": 0.7071923831,
				"element": "C" 
			},
			{
				"x": 0.4528049542,
				"y": 1.1712927489,
				"z": 1.4222154374,
				"element": "C" 
			},
			{
				"x": -0.4291707439,
				"y": 1.7778556745,
				"z": 0.502086552,
				"element": "C" 
			},
			{
				"x": -0.3877154331,
				"y": 1.1340115014,
				"z": -0.6904418825,
				"element": "O" 
			},
			{
				"x": -1.2238618614,
				"y": 2.8850608752,
				"z": 0.8046779306,
				"element": "C" 
			},
			{
				"x": -1.1075618335,
				"y": 3.3937649678,
				"z": 2.0884164337,
				"element": "C" 
			},
			{
				"x": -0.2283814177,
				"y": 2.8135236799,
				"z": 3.0378148863,
				"element": "C" 
			},
			{
				"x": -0.1397708846,
				"y": 3.393306469,
				"z": 4.3962708398,
				"element": "C" 
			},
			{
				"x": -0.7775200525,
				"y": 4.3546471141,
				"z": 4.7814948783,
				"element": "O" 
			},
			{
				"x": 0.5543740766,
				"y": 1.7048520995,
				"z": 2.7147993559,
				"element": "C" 
			},
			{
				"x": 1.788064265,
				"y": -4.7745487029,
				"z": 0.3016342155,
				"element": "H" 
			},
			{
				"x": 0.6836827451,
				"y": -2.5603739423,
				"z": 0.2703898156,
				"element": "H" 
			},
			{
				"x": 2.2903873523,
				"y": -1.7973442331,
				"z": -3.6376075254,
				"element": "H" 
			},
			{
				"x": 3.4230843493,
				"y": -4.0227847721,
				"z": -3.604660105,
				"element": "H" 
			},
			{
				"x": 1.8012256422,
				"y": -0.6072947923,
				"z": 1.0675731781,
				"element": "H" 
			},
			{
				"x": -1.8889231746,
				"y": 3.3170947912,
				"z": 0.0654636967,
				"element": "H" 
			},
			{
				"x": -1.6880012688,
				"y": 4.2549539053,
				"z": 2.4025604142,
				"element": "H" 
			},
			{
				"x": 0.575939249,
				"y": 2.8743689272,
				"z": 5.0726811153,
				"element": "H" 
			},
			{
				"x": 1.2228459464,
				"y": 1.270539537,
				"z": 3.454034503,
				"element": "H" 
			}
		],
		 "valence_orbital": [ 
			{
				"type": "occ",
				"energy": -0.2722,
				"method": "rhf"
			},
			{
				"type": "occ",
				"energy": -0.26421,
				"method": "rhf"
			},
			{
				"type": "occ",
				"energy": -0.26146,
				"method": "rhf"
			},
			{
				"type": "occ",
				"energy": -0.25782,
				"method": "rhf"
			},
			{
				"type": "occ",
				"energy": -0.25039,
				"method": "rhf"
			},
			{
				"type": "unocc",
				"energy": -0.09026,
				"method": "rhf"
			},
			{
				"type": "unocc",
				"energy": -0.06492,
				"method": "rhf"
			},
			{
				"type": "unocc",
				"energy": -0.03984,
				"method": "rhf"
			},
			{
				"type": "unocc",
				"energy": -0.0311,
				"method": "rhf"
			},
			{
				"type": "unocc",
				"energy": -0.00543,
				"method": "rhf"
			}
		],
		"cosmo_sigma_profile": { 
			"-0.025": 0.0,
			"-0.024": 0.0,
			"-0.023": 0.0,
			"-0.022": 0.0,
			"-0.021": 0.0,
			"-0.02": 0.0,
			"-0.019": 0.0,
			"-0.018": 0.0,
			"-0.017": 0.0,
			"-0.016": 0.0,
			"-0.015": 0.0,
			"-0.014": 0.0,
			"-0.013": 0.0,
			"-0.012": 0.0,
			"-0.011": 0.0,
			"-0.01": 0.0138126196438,
			"-0.009": 1.73361809369,
			"-0.008": 9.54858545945,
			"-0.007": 16.1306280178,
			"-0.006": 18.5970855101,
			"-0.005": 17.4654213641,
			"-0.004": 16.7126726703,
			"-0.003": 19.0202936942,
			"-0.002": 19.1952660651,
			"-0.001": 24.5330572715,
			"0.0": 28.7185884709,
			"0.001": 35.2575711461,
			"0.002": 31.7309622211,
			"0.003": 13.0060903989,
			"0.004": 14.9849779939,
			"0.005": 4.73478310459,
			"0.006": 3.63699674673,
			"0.007": 3.89862724266,
			"0.008": 4.26898916798,
			"0.009": 4.28644283176,
			"0.01": 5.51160537326,
			"0.011": 9.03135142574,
			"0.012": 5.93173795687,
			"0.013": 1.55335370456,
			"0.014": 0.0,
			"0.015": 0.0,
			"0.016": 0.0,
			"0.017": 0.0,
			"0.018": 0.0,
			"0.019": 0.0,
			"0.02": 0.0,
			"0.021": 0.0,
			"0.022": 0.0,
			"0.023": 0.0,
			"0.024": 0.0,
			"0.025": 0.0
		}
	}
}
