{
	 "smiles": "O=CC1=CC=C(C=C1)N1CCCC1=O", 
	 "Tm": 395.15, 
	 "num_atms": 25, 
	 "gaussian": { 
		 "optdone": 1, 
		 "sigma_profile": "yes", 
		 "theory": "DFT", 
		 "functional": "B3LYP", 
		 "basiset": "6-31G**", 
		 "properties": { 
			 "R2extent": 3570.4571, 
			 "electric_dipole_moment_norm": 6.96154974988, 
			 "electric_quadrupole_moment_norm": 5.01980912884, 
			 "total_energy": -631.013592364, 
			 "HOMO_LUMO_gap": 0.17176, 
			 "cosmo_polarized_energy": -14.65, 
			 "cosmo_cavitation_energy": 28.45, 
			 "cosmo_dispersion_energy": -21.11, 
			 "cosmo_repulsion_energy": 1.64, 
			 "cosmo_total_nonelectrostatic_energy": 8.98, 
			 "SMD_solvation_energy": 5.81 
		},
		"coords": [
			{
				"x": 1.1827390471,
				"y": -0.7867981372,
				"z": 4.5682513193,
				"element": "O" 
			},
			{
				"x": 1.4016745798,
				"y": 0.0625651034,
				"z": 3.7234486935,
				"element": "C" 
			},
			{
				"x": 0.796228738,
				"y": 0.0916018657,
				"z": 2.3791420019,
				"element": "C" 
			},
			{
				"x": -0.1109095799,
				"y": -0.9012190684,
				"z": 1.9748024717,
				"element": "C" 
			},
			{
				"x": -0.681483828,
				"y": -0.8822383416,
				"z": 0.7121754146,
				"element": "C" 
			},
			{
				"x": -0.3520168856,
				"y": 0.1517653239,
				"z": -0.1938668517,
				"element": "C" 
			},
			{
				"x": 0.5550045782,
				"y": 1.1514040368,
				"z": 0.2108036451,
				"element": "C" 
			},
			{
				"x": 1.1180832194,
				"y": 1.1150478014,
				"z": 1.4813998586,
				"element": "C" 
			},
			{
				"x": -0.8962550509,
				"y": 0.1985424908,
				"z": -1.4921799485,
				"element": "N" 
			},
			{
				"x": -0.4224112334,
				"y": 1.1699391491,
				"z": -2.4892772146,
				"element": "C" 
			},
			{
				"x": -1.0436788684,
				"y": 0.6837101518,
				"z": -3.8101166429,
				"element": "C" 
			},
			{
				"x": -2.3186006466,
				"y": -0.0356453213,
				"z": -3.3617278363,
				"element": "C" 
			},
			{
				"x": -2.0032725224,
				"y": -0.5221396314,
				"z": -1.9506368638,
				"element": "C" 
			},
			{
				"x": -2.6236946269,
				"y": -1.3691501472,
				"z": -1.3347217444,
				"element": "O" 
			},
			{
				"x": 2.1040801148,
				"y": 0.902377051,
				"z": 3.9298948414,
				"element": "H" 
			},
			{
				"x": -0.3556425139,
				"y": -1.6925825789,
				"z": 2.676447511,
				"element": "H" 
			},
			{
				"x": -1.3847857906,
				"y": -1.6440556238,
				"z": 0.4104413462,
				"element": "H" 
			},
			{
				"x": 0.8150048733,
				"y": 1.9637024166,
				"z": -0.4566123642,
				"element": "H" 
			},
			{
				"x": 1.8152098392,
				"y": 1.8944600676,
				"z": 1.7809690544,
				"element": "H" 
			},
			{
				"x": -0.7612353555,
				"y": 2.182381151,
				"z": -2.2289763379,
				"element": "H" 
			},
			{
				"x": 0.6705564456,
				"y": 1.1788363034,
				"z": -2.5222162732,
				"element": "H" 
			},
			{
				"x": -1.2226968544,
				"y": 1.5087198852,
				"z": -4.5031614734,
				"element": "H" 
			},
			{
				"x": -0.364665824,
				"y": -0.0226003113,
				"z": -4.297830156,
				"element": "H" 
			},
			{
				"x": -2.6174971265,
				"y": -0.8768672481,
				"z": -3.9899527835,
				"element": "H" 
			},
			{
				"x": -3.1759347286,
				"y": 0.6462436115,
				"z": -3.2963996674,
				"element": "H" 
			}
		],
		 "valence_orbital": [ 
			{
				"type": "occ",
				"energy": -0.30412,
				"method": "rhf"
			},
			{
				"type": "occ",
				"energy": -0.2644,
				"method": "rhf"
			},
			{
				"type": "occ",
				"energy": -0.26026,
				"method": "rhf"
			},
			{
				"type": "occ",
				"energy": -0.24708,
				"method": "rhf"
			},
			{
				"type": "occ",
				"energy": -0.23052,
				"method": "rhf"
			},
			{
				"type": "unocc",
				"energy": -0.05876,
				"method": "rhf"
			},
			{
				"type": "unocc",
				"energy": -0.0116,
				"method": "rhf"
			},
			{
				"type": "unocc",
				"energy": 0.00656,
				"method": "rhf"
			},
			{
				"type": "unocc",
				"energy": 0.0585,
				"method": "rhf"
			},
			{
				"type": "unocc",
				"energy": 0.07084,
				"method": "rhf"
			}
		],
		"cosmo_sigma_profile": { 
			"-0.025": 0.0,
			"-0.024": 0.0,
			"-0.023": 0.0,
			"-0.022": 0.0,
			"-0.021": 0.0,
			"-0.02": 0.0,
			"-0.019": 0.0,
			"-0.018": 0.0,
			"-0.017": 0.0,
			"-0.016": 0.0,
			"-0.015": 0.0,
			"-0.014": 0.0,
			"-0.013": 0.0,
			"-0.012": 0.0,
			"-0.011": 0.0,
			"-0.01": 0.0,
			"-0.009": 0.0,
			"-0.008": 0.316673925251,
			"-0.007": 7.30198406012,
			"-0.006": 17.0889718984,
			"-0.005": 24.5702633804,
			"-0.004": 27.2334118389,
			"-0.003": 19.4816417736,
			"-0.002": 14.9260968938,
			"-0.001": 15.4986742879,
			"0.0": 12.0554297763,
			"0.001": 11.7874177381,
			"0.002": 12.7806187997,
			"0.003": 15.8303549232,
			"0.004": 9.41746968301,
			"0.005": 3.18458892262,
			"0.006": 3.41130195074,
			"0.007": 3.73311092844,
			"0.008": 3.17432499488,
			"0.009": 2.29164444965,
			"0.01": 4.58141596719,
			"0.011": 5.72345299393,
			"0.012": 7.63903424014,
			"0.013": 3.68372026499,
			"0.014": 0.821429382642,
			"0.015": 0.0,
			"0.016": 0.0,
			"0.017": 0.0,
			"0.018": 0.0,
			"0.019": 0.0,
			"0.02": 0.0,
			"0.021": 0.0,
			"0.022": 0.0,
			"0.023": 0.0,
			"0.024": 0.0,
			"0.025": 0.0
		}
	}
}
