{
	 "smiles": "OC(=O)C1=CC(=C(Br)C=C1)N(=O)=O", 
	 "Tm": 477.15, 
	 "num_atms": 17, 
	 "gaussian": { 
		 "optdone": 1, 
		 "sigma_profile": "yes", 
		 "theory": "DFT", 
		 "functional": "B3LYP", 
		 "basiset": "6-31G**", 
		 "properties": { 
			 "R2extent": 5172.5176, 
			 "electric_dipole_moment_norm": 2.86079669498, 
			 "electric_quadrupole_moment_norm": 24.8449269695, 
			 "total_energy": -3196.10881404, 
			 "HOMO_LUMO_gap": 0.17628, 
			 "cosmo_polarized_energy": -12.54, 
			 "cosmo_cavitation_energy": 25.52, 
			 "cosmo_dispersion_energy": -19.07, 
			 "cosmo_repulsion_energy": 1.51, 
			 "cosmo_total_nonelectrostatic_energy": 7.96, 
			 "SMD_solvation_energy": 6.9 
		},
		"coords": [
			{
				"x": -2.8000823314,
				"y": -0.4699719627,
				"z": 0.1551795908,
				"element": "O" 
			},
			{
				"x": -1.6947866556,
				"y": -0.3251297344,
				"z": -0.6100478437,
				"element": "C" 
			},
			{
				"x": -1.7011120934,
				"y": -0.4759518985,
				"z": -1.814384959,
				"element": "O" 
			},
			{
				"x": -0.4867794464,
				"y": 0.0373164491,
				"z": 0.1823790923,
				"element": "C" 
			},
			{
				"x": -0.5244326336,
				"y": 0.1892378803,
				"z": 1.5680674121,
				"element": "C" 
			},
			{
				"x": 0.6296463811,
				"y": 0.5466648933,
				"z": 2.2633599584,
				"element": "C" 
			},
			{
				"x": 1.8468374712,
				"y": 0.7282718082,
				"z": 1.5893841878,
				"element": "C" 
			},
			{
				"x": 3.4910779871,
				"y": 1.1234810199,
				"z": 2.4427991318,
				"element": "Br" 
			},
			{
				"x": 1.8772955309,
				"y": 0.5535700029,
				"z": 0.2009280455,
				"element": "C" 
			},
			{
				"x": 0.7233066985,
				"y": 0.222843102,
				"z": -0.4978666245,
				"element": "C" 
			},
			{
				"x": 0.473512759,
				"y": 0.7250876345,
				"z": 3.7207807243,
				"element": "N" 
			},
			{
				"x": -0.3669952383,
				"y": 0.0173383907,
				"z": 4.2740880127,
				"element": "O" 
			},
			{
				"x": 1.1596699026,
				"y": 1.5769955982,
				"z": 4.2740957592,
				"element": "O" 
			},
			{
				"x": -3.5228281853,
				"y": -0.7056868661,
				"z": -0.4496272561,
				"element": "H" 
			},
			{
				"x": -1.4407165,
				"y": 0.0355920813,
				"z": 2.1229492329,
				"element": "H" 
			},
			{
				"x": 2.8186029422,
				"y": 0.6777516432,
				"z": -0.3210330328,
				"element": "H" 
			},
			{
				"x": 0.7432834113,
				"y": 0.096589958,
				"z": -1.5748514318,
				"element": "H" 
			}
		],
		 "valence_orbital": [ 
			{
				"type": "occ",
				"energy": -0.31682,
				"method": "rhf"
			},
			{
				"type": "occ",
				"energy": -0.29961,
				"method": "rhf"
			},
			{
				"type": "occ",
				"energy": -0.29772,
				"method": "rhf"
			},
			{
				"type": "occ",
				"energy": -0.28618,
				"method": "rhf"
			},
			{
				"type": "occ",
				"energy": -0.27557,
				"method": "rhf"
			},
			{
				"type": "unocc",
				"energy": -0.09929,
				"method": "rhf"
			},
			{
				"type": "unocc",
				"energy": -0.07555,
				"method": "rhf"
			},
			{
				"type": "unocc",
				"energy": -0.03036,
				"method": "rhf"
			},
			{
				"type": "unocc",
				"energy": -0.01943,
				"method": "rhf"
			},
			{
				"type": "unocc",
				"energy": 0.02933,
				"method": "rhf"
			}
		],
		"cosmo_sigma_profile": { 
			"-0.025": 0.0,
			"-0.024": 0.0,
			"-0.023": 0.0,
			"-0.022": 0.0,
			"-0.021": 0.0,
			"-0.02": 0.0,
			"-0.019": 0.479400970134,
			"-0.018": 1.19551516386,
			"-0.017": 0.716613201433,
			"-0.016": 0.577797528791,
			"-0.015": 1.33431742705,
			"-0.014": 0.601384769337,
			"-0.013": 0.28772460213,
			"-0.012": 0.964143809234,
			"-0.011": 0.856845646258,
			"-0.01": 0.302233565905,
			"-0.009": 1.51947306621,
			"-0.008": 6.10340452403,
			"-0.007": 7.7594465185,
			"-0.006": 7.3942662516,
			"-0.005": 8.27822017817,
			"-0.004": 10.3084492484,
			"-0.003": 14.8762384189,
			"-0.002": 23.0055859262,
			"-0.001": 20.4921499021,
			"0.0": 12.4808512779,
			"0.001": 10.3438480774,
			"0.002": 12.2938004384,
			"0.003": 11.5719337843,
			"0.004": 6.98511147231,
			"0.005": 5.11974345706,
			"0.006": 9.58881634313,
			"0.007": 12.83118846,
			"0.008": 7.36224922196,
			"0.009": 4.79906433383,
			"0.01": 2.71717380793,
			"0.011": 4.94464149614,
			"0.012": 0.611694496464,
			"0.013": 0.0,
			"0.014": 0.0,
			"0.015": 0.0,
			"0.016": 0.0,
			"0.017": 0.0,
			"0.018": 0.0,
			"0.019": 0.0,
			"0.02": 0.0,
			"0.021": 0.0,
			"0.022": 0.0,
			"0.023": 0.0,
			"0.024": 0.0,
			"0.025": 0.0
		}
	}
}
