{
	 "smiles": "CC1=NC(=CS1)C1=CC(=CC=C1)C(O)=O", 
	 "Tm": 473.15, 
	 "num_atms": 24, 
	 "gaussian": { 
		 "optdone": 1, 
		 "sigma_profile": "yes", 
		 "theory": "DFT", 
		 "functional": "B3LYP", 
		 "basiset": "6-31G**", 
		 "properties": { 
			 "R2extent": 4769.0001, 
			 "electric_dipole_moment_norm": 6.11446579024, 
			 "electric_quadrupole_moment_norm": 24.776226748, 
			 "total_energy": -1027.99607805, 
			 "HOMO_LUMO_gap": 0.17319, 
			 "cosmo_polarized_energy": -15.45, 
			 "cosmo_cavitation_energy": 30.55, 
			 "cosmo_dispersion_energy": -22.91, 
			 "cosmo_repulsion_energy": 1.73, 
			 "cosmo_total_nonelectrostatic_energy": 9.37, 
			 "SMD_solvation_energy": 5.11 
		},
		"coords": [
			{
				"x": 0.025787842,
				"y": 4.7422390274,
				"z": 0.5218186598,
				"element": "C" 
			},
			{
				"x": 0.6188835991,
				"y": 3.3669245935,
				"z": 0.5512068897,
				"element": "C" 
			},
			{
				"x": -0.0689055733,
				"y": 2.2678175938,
				"z": 0.478144375,
				"element": "N" 
			},
			{
				"x": 0.7328908422,
				"y": 1.1374546864,
				"z": 0.5267419517,
				"element": "C" 
			},
			{
				"x": 2.0746891852,
				"y": 1.3999045054,
				"z": 0.6421777858,
				"element": "C" 
			},
			{
				"x": 2.3580570574,
				"y": 3.1055620336,
				"z": 0.6899212268,
				"element": "S" 
			},
			{
				"x": 0.0925643367,
				"y": -0.1903332215,
				"z": 0.4568647389,
				"element": "C" 
			},
			{
				"x": -1.3074511437,
				"y": -0.2800271728,
				"z": 0.4324982132,
				"element": "C" 
			},
			{
				"x": -1.9506870145,
				"y": -1.5207001617,
				"z": 0.3742987646,
				"element": "C" 
			},
			{
				"x": -1.1904477099,
				"y": -2.6972452351,
				"z": 0.3607837467,
				"element": "C" 
			},
			{
				"x": 0.200084057,
				"y": -2.6194120692,
				"z": 0.3743126819,
				"element": "C" 
			},
			{
				"x": 0.8371359424,
				"y": -1.3802936208,
				"z": 0.4179760811,
				"element": "C" 
			},
			{
				"x": -3.4451203778,
				"y": -1.6605531727,
				"z": 0.3549577538,
				"element": "C" 
			},
			{
				"x": -4.1607285914,
				"y": -0.5602048057,
				"z": 0.0030543701,
				"element": "O" 
			},
			{
				"x": -4.0171969174,
				"y": -2.6897085778,
				"z": 0.6295229918,
				"element": "O" 
			},
			{
				"x": -1.058827671,
				"y": 4.6513366284,
				"z": 0.441300161,
				"element": "H" 
			},
			{
				"x": 0.265859081,
				"y": 5.3019353312,
				"z": 1.4317909897,
				"element": "H" 
			},
			{
				"x": 0.3954102548,
				"y": 5.3203138127,
				"z": -0.331617476,
				"element": "H" 
			},
			{
				"x": 2.8986632366,
				"y": 0.7051001583,
				"z": 0.7093300794,
				"element": "H" 
			},
			{
				"x": -1.8621109792,
				"y": 0.6512194844,
				"z": 0.4959250396,
				"element": "H" 
			},
			{
				"x": -1.7070255644,
				"y": -3.6502747957,
				"z": 0.33638006,
				"element": "H" 
			},
			{
				"x": 0.7940652191,
				"y": -3.528100131,
				"z": 0.3505196468,
				"element": "H" 
			},
			{
				"x": 1.9221638803,
				"y": -1.3427271051,
				"z": 0.4222949126,
				"element": "H" 
			},
			{
				"x": -3.5690529913,
				"y": 0.135772214,
				"z": -0.3151036438,
				"element": "H" 
			}
		],
		 "valence_orbital": [ 
			{
				"type": "occ",
				"energy": -0.28669,
				"method": "rhf"
			},
			{
				"type": "occ",
				"energy": -0.28595,
				"method": "rhf"
			},
			{
				"type": "occ",
				"energy": -0.27194,
				"method": "rhf"
			},
			{
				"type": "occ",
				"energy": -0.26525,
				"method": "rhf"
			},
			{
				"type": "occ",
				"energy": -0.2304,
				"method": "rhf"
			},
			{
				"type": "unocc",
				"energy": -0.05721,
				"method": "rhf"
			},
			{
				"type": "unocc",
				"energy": -0.03817,
				"method": "rhf"
			},
			{
				"type": "unocc",
				"energy": -0.0212,
				"method": "rhf"
			},
			{
				"type": "unocc",
				"energy": 0.00585,
				"method": "rhf"
			},
			{
				"type": "unocc",
				"energy": 0.03852,
				"method": "rhf"
			}
		],
		"cosmo_sigma_profile": { 
			"-0.025": 0.0,
			"-0.024": 0.0,
			"-0.023": 0.0,
			"-0.022": 0.0,
			"-0.021": 0.0,
			"-0.02": 0.0,
			"-0.019": 0.0546593501317,
			"-0.018": 0.527814335185,
			"-0.017": 0.860824439584,
			"-0.016": 0.843778523226,
			"-0.015": 0.997161606867,
			"-0.014": 0.814248876467,
			"-0.013": 1.28024644767,
			"-0.012": 1.1368477336,
			"-0.011": 0.768739563958,
			"-0.01": 1.95463479193,
			"-0.009": 3.31928881941,
			"-0.008": 4.21324454011,
			"-0.007": 4.83526100786,
			"-0.006": 11.4032964519,
			"-0.005": 17.5240790026,
			"-0.004": 15.7467007721,
			"-0.003": 14.2736946599,
			"-0.002": 16.1925127939,
			"-0.001": 17.19093825,
			"0.0": 15.1462319623,
			"0.001": 18.7980654238,
			"0.002": 28.1752862835,
			"0.003": 25.50201383,
			"0.004": 7.5868655641,
			"0.005": 3.25645210599,
			"0.006": 4.61784329827,
			"0.007": 4.21174068354,
			"0.008": 4.15223964438,
			"0.009": 3.85521740872,
			"0.01": 6.18412900837,
			"0.011": 5.72209424297,
			"0.012": 4.75949275011,
			"0.013": 1.65937465078,
			"0.014": 0.0593275677975,
			"0.015": 0.0,
			"0.016": 0.0,
			"0.017": 0.0,
			"0.018": 0.0,
			"0.019": 0.0,
			"0.02": 0.0,
			"0.021": 0.0,
			"0.022": 0.0,
			"0.023": 0.0,
			"0.024": 0.0,
			"0.025": 0.0
		}
	}
}
