{
	 "smiles": "COC1=C(OCC2=CC=CC=C2)C=C(C=NO)C=C1", 
	 "Tm": 349.15, 
	 "num_atms": 34, 
	 "gaussian": { 
		 "optdone": 1, 
		 "sigma_profile": "yes", 
		 "theory": "DFT", 
		 "functional": "B3LYP", 
		 "basiset": "6-31G**", 
		 "properties": { 
			 "R2extent": 7881.2779, 
			 "electric_dipole_moment_norm": 2.90680537016, 
			 "electric_quadrupole_moment_norm": 11.7425864804, 
			 "total_energy": -860.970774421, 
			 "HOMO_LUMO_gap": 0.17811, 
			 "cosmo_polarized_energy": -13.96, 
			 "cosmo_cavitation_energy": 38.74, 
			 "cosmo_dispersion_energy": -27.41, 
			 "cosmo_repulsion_energy": 2.11, 
			 "cosmo_total_nonelectrostatic_energy": 13.44, 
			 "SMD_solvation_energy": 7.45 
		},
		"coords": [
			{
				"x": -2.9767683519,
				"y": -1.1595865892,
				"z": 2.307260718,
				"element": "C" 
			},
			{
				"x": -2.1128957737,
				"y": -0.3098520037,
				"z": 1.5649593168,
				"element": "O" 
			},
			{
				"x": -0.7722875584,
				"y": -0.3929245116,
				"z": 1.7943490186,
				"element": "C" 
			},
			{
				"x": 0.0396950129,
				"y": 0.4909329794,
				"z": 1.0458884205,
				"element": "C" 
			},
			{
				"x": -0.5213479877,
				"y": 1.4083103663,
				"z": 0.190404166,
				"element": "O" 
			},
			{
				"x": -1.0559576908,
				"y": 0.875256354,
				"z": -1.0354166363,
				"element": "C" 
			},
			{
				"x": -1.9647655317,
				"y": 1.9030109014,
				"z": -1.6612864804,
				"element": "C" 
			},
			{
				"x": -1.8842079561,
				"y": 2.1929143226,
				"z": -3.0267071179,
				"element": "C" 
			},
			{
				"x": -2.7611134599,
				"y": 3.1096837071,
				"z": -3.6112587656,
				"element": "C" 
			},
			{
				"x": -3.7201509963,
				"y": 3.7538935596,
				"z": -2.8293426922,
				"element": "C" 
			},
			{
				"x": -3.8000403283,
				"y": 3.4752435984,
				"z": -1.4618862919,
				"element": "C" 
			},
			{
				"x": -2.9307965038,
				"y": 2.5529645191,
				"z": -0.8816671261,
				"element": "C" 
			},
			{
				"x": 1.4123635172,
				"y": 0.483370092,
				"z": 1.2351022942,
				"element": "C" 
			},
			{
				"x": 2.0358462648,
				"y": -0.3859429614,
				"z": 2.1556093398,
				"element": "C" 
			},
			{
				"x": 3.4943839699,
				"y": -0.2880412925,
				"z": 2.2650317746,
				"element": "C" 
			},
			{
				"x": 4.3751946161,
				"y": -0.9101457679,
				"z": 2.966072095,
				"element": "N" 
			},
			{
				"x": 3.8342998787,
				"y": -1.8947757957,
				"z": 3.8090608388,
				"element": "O" 
			},
			{
				"x": 1.2173297034,
				"y": -1.2672252675,
				"z": 2.882674292,
				"element": "C" 
			},
			{
				"x": -0.1664026351,
				"y": -1.267243263,
				"z": 2.7018405178,
				"element": "C" 
			},
			{
				"x": -3.988222016,
				"y": -0.9217925136,
				"z": 1.9753539844,
				"element": "H" 
			},
			{
				"x": -2.7697421475,
				"y": -2.2186635334,
				"z": 2.109119447,
				"element": "H" 
			},
			{
				"x": -2.8948471617,
				"y": -0.9719743833,
				"z": 3.384900684,
				"element": "H" 
			},
			{
				"x": -0.2313642435,
				"y": 0.618978467,
				"z": -1.7149465195,
				"element": "H" 
			},
			{
				"x": -1.614719003,
				"y": -0.0431922245,
				"z": -0.818132774,
				"element": "H" 
			},
			{
				"x": -1.1296814808,
				"y": 1.7017064495,
				"z": -3.6366703614,
				"element": "H" 
			},
			{
				"x": -2.6875833488,
				"y": 3.3262811754,
				"z": -4.6733164574,
				"element": "H" 
			},
			{
				"x": -4.3988970223,
				"y": 4.4722584232,
				"z": -3.2804214186,
				"element": "H" 
			},
			{
				"x": -4.5422005459,
				"y": 3.9779120836,
				"z": -0.8477324715,
				"element": "H" 
			},
			{
				"x": -2.9824664849,
				"y": 2.3338367706,
				"z": 0.1800854764,
				"element": "H" 
			},
			{
				"x": 2.0018205253,
				"y": 1.186569631,
				"z": 0.6537916342,
				"element": "H" 
			},
			{
				"x": 3.9585899693,
				"y": 0.4643105974,
				"z": 1.6271765774,
				"element": "H" 
			},
			{
				"x": 4.6249100439,
				"y": -2.2410192589,
				"z": 4.2425382751,
				"element": "H" 
			},
			{
				"x": 1.6612490859,
				"y": -1.9488579441,
				"z": 3.5929869245,
				"element": "H" 
			},
			{
				"x": -0.7701243594,
				"y": -1.9530966876,
				"z": 3.2845793176,
				"element": "H" 
			}
		],
		 "valence_orbital": [ 
			{
				"type": "occ",
				"energy": -0.26518,
				"method": "rhf"
			},
			{
				"type": "occ",
				"energy": -0.24608,
				"method": "rhf"
			},
			{
				"type": "occ",
				"energy": -0.24181,
				"method": "rhf"
			},
			{
				"type": "occ",
				"energy": -0.23851,
				"method": "rhf"
			},
			{
				"type": "occ",
				"energy": -0.21076,
				"method": "rhf"
			},
			{
				"type": "unocc",
				"energy": -0.03265,
				"method": "rhf"
			},
			{
				"type": "unocc",
				"energy": -0.00261,
				"method": "rhf"
			},
			{
				"type": "unocc",
				"energy": 0.00108,
				"method": "rhf"
			},
			{
				"type": "unocc",
				"energy": 0.00427,
				"method": "rhf"
			},
			{
				"type": "unocc",
				"energy": 0.06529,
				"method": "rhf"
			}
		],
		"cosmo_sigma_profile": { 
			"-0.025": 0.0,
			"-0.024": 0.0,
			"-0.023": 0.0,
			"-0.022": 0.0,
			"-0.021": 0.0,
			"-0.02": 0.0,
			"-0.019": 0.0,
			"-0.018": 0.0324429389867,
			"-0.017": 0.96160535623,
			"-0.016": 0.927866169357,
			"-0.015": 1.0467575271,
			"-0.014": 0.870816116836,
			"-0.013": 0.420428591973,
			"-0.012": 0.442978367951,
			"-0.011": 0.80365104346,
			"-0.01": 0.313112814162,
			"-0.009": 0.657456463754,
			"-0.008": 2.21886107262,
			"-0.007": 6.22427754065,
			"-0.006": 17.4770477269,
			"-0.005": 25.0921667234,
			"-0.004": 27.6961714974,
			"-0.003": 26.9283471447,
			"-0.002": 19.2148778239,
			"-0.001": 16.3208826989,
			"0.0": 15.135872815,
			"0.001": 16.7802671928,
			"0.002": 19.8392304521,
			"0.003": 25.711407436,
			"0.004": 26.6681448288,
			"0.005": 19.6327304857,
			"0.006": 15.7318591407,
			"0.007": 6.33987542285,
			"0.008": 4.34503346967,
			"0.009": 3.48892113926,
			"0.01": 2.9381468762,
			"0.011": 1.66311023306,
			"0.012": 1.19814625203,
			"0.013": 1.19325081797,
			"0.014": 0.423170982513,
			"0.015": 0.0,
			"0.016": 0.0,
			"0.017": 0.0,
			"0.018": 0.0,
			"0.019": 0.0,
			"0.02": 0.0,
			"0.021": 0.0,
			"0.022": 0.0,
			"0.023": 0.0,
			"0.024": 0.0,
			"0.025": 0.0
		}
	}
}
