{
	 "smiles": "COC1=CC=C(C=NNC(=O)C2=CC=NC=C2)C=C1OC", 
	 "Tm": 462.15, 
	 "num_atms": 36, 
	 "gaussian": { 
		 "optdone": 1, 
		 "sigma_profile": "yes", 
		 "theory": "DFT", 
		 "functional": "B3LYP", 
		 "basiset": "6-31G**", 
		 "properties": { 
			 "R2extent": 9585.3519, 
			 "electric_dipole_moment_norm": 4.94988482492, 
			 "electric_quadrupole_moment_norm": 18.5077919048, 
			 "total_energy": -970.500167801, 
			 "HOMO_LUMO_gap": 0.15623, 
			 "cosmo_polarized_energy": -16.81, 
			 "cosmo_cavitation_energy": 41.7, 
			 "cosmo_dispersion_energy": -29.03, 
			 "cosmo_repulsion_energy": 2.23, 
			 "cosmo_total_nonelectrostatic_energy": 14.9, 
			 "SMD_solvation_energy": 7.88 
		},
		"coords": [
			{
				"x": -1.7935378936,
				"y": 4.7141893693,
				"z": -0.7593301888,
				"element": "C" 
			},
			{
				"x": -2.527404508,
				"y": 3.5385016672,
				"z": -0.3868769179,
				"element": "O" 
			},
			{
				"x": -1.9057964547,
				"y": 2.3454742406,
				"z": -0.6599937466,
				"element": "C" 
			},
			{
				"x": -2.4855906648,
				"y": 1.4823084042,
				"z": -1.5905247661,
				"element": "C" 
			},
			{
				"x": -1.8999042849,
				"y": 0.2505939005,
				"z": -1.8740281869,
				"element": "C" 
			},
			{
				"x": -0.7111511005,
				"y": -0.1369491181,
				"z": -1.2366962936,
				"element": "C" 
			},
			{
				"x": -0.1102623284,
				"y": -1.4271237543,
				"z": -1.5683338918,
				"element": "C" 
			},
			{
				"x": 0.9986839173,
				"y": -1.8230292026,
				"z": -1.0508568376,
				"element": "N" 
			},
			{
				"x": 1.4594573745,
				"y": -3.0422039865,
				"z": -1.4314928975,
				"element": "N" 
			},
			{
				"x": 2.5616405733,
				"y": -3.6883568503,
				"z": -0.8998180972,
				"element": "C" 
			},
			{
				"x": 2.7364109781,
				"y": -4.8664940247,
				"z": -1.1888843544,
				"element": "O" 
			},
			{
				"x": 3.5183001086,
				"y": -2.9521490705,
				"z": -0.0062661563,
				"element": "C" 
			},
			{
				"x": 3.7637500852,
				"y": -1.5742852974,
				"z": -0.0297496066,
				"element": "C" 
			},
			{
				"x": 4.7441974668,
				"y": -1.0590749376,
				"z": 0.820366606,
				"element": "C" 
			},
			{
				"x": 5.4638433466,
				"y": -1.7985673372,
				"z": 1.672384173,
				"element": "N" 
			},
			{
				"x": 5.2248794366,
				"y": -3.1171541945,
				"z": 1.681612623,
				"element": "C" 
			},
			{
				"x": 4.2835394147,
				"y": -3.7379695121,
				"z": 0.8642233664,
				"element": "C" 
			},
			{
				"x": -0.1397119212,
				"y": 0.7252676392,
				"z": -0.2831862023,
				"element": "C" 
			},
			{
				"x": -0.7274601097,
				"y": 1.9484315786,
				"z": 0.0126582748,
				"element": "C" 
			},
			{
				"x": -0.1240496405,
				"y": 2.7699993407,
				"z": 0.9376481715,
				"element": "O" 
			},
			{
				"x": -0.8415164618,
				"y": 2.9127805702,
				"z": 2.1710136379,
				"element": "C" 
			},
			{
				"x": -2.4124732624,
				"y": 5.5633223407,
				"z": -0.4638121234,
				"element": "H" 
			},
			{
				"x": -0.827758119,
				"y": 4.7608093506,
				"z": -0.2485004819,
				"element": "H" 
			},
			{
				"x": -1.636099646,
				"y": 4.7407112411,
				"z": -1.8445805326,
				"element": "H" 
			},
			{
				"x": -3.3974118109,
				"y": 1.8001763269,
				"z": -2.0856512324,
				"element": "H" 
			},
			{
				"x": -2.3597870862,
				"y": -0.4085804469,
				"z": -2.6054627037,
				"element": "H" 
			},
			{
				"x": -0.6552719766,
				"y": -2.0541690923,
				"z": -2.2871450307,
				"element": "H" 
			},
			{
				"x": 0.8889290798,
				"y": -3.6436550787,
				"z": -2.0268022988,
				"element": "H" 
			},
			{
				"x": 3.212625552,
				"y": -0.9165349008,
				"z": -0.6878856451,
				"element": "H" 
			},
			{
				"x": 4.9578469684,
				"y": 0.0083643875,
				"z": 0.8140241234,
				"element": "H" 
			},
			{
				"x": 5.8208573077,
				"y": -3.7079474645,
				"z": 2.3748013688,
				"element": "H" 
			},
			{
				"x": 4.1382005153,
				"y": -4.8120065106,
				"z": 0.8843693631,
				"element": "H" 
			},
			{
				"x": 0.765041986,
				"y": 0.4390500334,
				"z": 0.2414898153,
				"element": "H" 
			},
			{
				"x": -0.9372940399,
				"y": 1.9439629731,
				"z": 2.6763712345,
				"element": "H" 
			},
			{
				"x": -1.8362470607,
				"y": 3.3389402583,
				"z": 2.0069485847,
				"element": "H" 
			},
			{
				"x": -0.2484757412,
				"y": 3.5865671577,
				"z": 2.7922668497,
				"element": "H" 
			}
		],
		 "valence_orbital": [ 
			{
				"type": "occ",
				"energy": -0.26928,
				"method": "rhf"
			},
			{
				"type": "occ",
				"energy": -0.26071,
				"method": "rhf"
			},
			{
				"type": "occ",
				"energy": -0.25356,
				"method": "rhf"
			},
			{
				"type": "occ",
				"energy": -0.25183,
				"method": "rhf"
			},
			{
				"type": "occ",
				"energy": -0.22133,
				"method": "rhf"
			},
			{
				"type": "unocc",
				"energy": -0.0651,
				"method": "rhf"
			},
			{
				"type": "unocc",
				"energy": -0.04326,
				"method": "rhf"
			},
			{
				"type": "unocc",
				"energy": -0.01073,
				"method": "rhf"
			},
			{
				"type": "unocc",
				"energy": -0.01004,
				"method": "rhf"
			},
			{
				"type": "unocc",
				"energy": 0.03355,
				"method": "rhf"
			}
		],
		"cosmo_sigma_profile": { 
			"-0.025": 0.0,
			"-0.024": 0.0,
			"-0.023": 0.0,
			"-0.022": 0.0,
			"-0.021": 0.0,
			"-0.02": 0.0,
			"-0.019": 0.0,
			"-0.018": 0.0,
			"-0.017": 0.0,
			"-0.016": 0.0,
			"-0.015": 0.772022433361,
			"-0.014": 1.85040508162,
			"-0.013": 0.963773500266,
			"-0.012": 1.40797920229,
			"-0.011": 1.47116453596,
			"-0.01": 0.6917274667,
			"-0.009": 1.69568237371,
			"-0.008": 3.67056797262,
			"-0.007": 7.38590494117,
			"-0.006": 15.4330915462,
			"-0.005": 20.7226633952,
			"-0.004": 25.7713427416,
			"-0.003": 28.9652833081,
			"-0.002": 30.0880933811,
			"-0.001": 25.7884762488,
			"0.0": 23.2846555092,
			"0.001": 29.3819926891,
			"0.002": 28.0318658514,
			"0.003": 22.0534504352,
			"0.004": 14.7369230276,
			"0.005": 6.98950301452,
			"0.006": 5.26021162533,
			"0.007": 6.09526871416,
			"0.008": 4.54196200078,
			"0.009": 4.48294831145,
			"0.01": 4.28291788902,
			"0.011": 5.34791112689,
			"0.012": 5.84755713644,
			"0.013": 3.8030919121,
			"0.014": 0.871076820278,
			"0.015": 0.818754889262,
			"0.016": 0.8508202651,
			"0.017": 0.0544861474652,
			"0.018": 0.0,
			"0.019": 0.0,
			"0.02": 0.0,
			"0.021": 0.0,
			"0.022": 0.0,
			"0.023": 0.0,
			"0.024": 0.0,
			"0.025": 0.0
		}
	}
}
