{
	 "smiles": "OC(=O)C(C(=O)OCC1=CC=CC=C1)C1=CC=CC=C1", 
	 "Tm": 339.15, 
	 "num_atms": 34, 
	 "gaussian": { 
		 "optdone": 1, 
		 "sigma_profile": "yes", 
		 "theory": "DFT", 
		 "functional": "B3LYP", 
		 "basiset": "6-31G**", 
		 "properties": { 
			 "R2extent": 7213.495, 
			 "electric_dipole_moment_norm": 1.13496157204, 
			 "electric_quadrupole_moment_norm": 15.1020818863, 
			 "total_energy": -919.057173734, 
			 "HOMO_LUMO_gap": 0.22795, 
			 "cosmo_polarized_energy": -15.26, 
			 "cosmo_cavitation_energy": 39.39, 
			 "cosmo_dispersion_energy": -27.19, 
			 "cosmo_repulsion_energy": 2.13, 
			 "cosmo_total_nonelectrostatic_energy": 14.33, 
			 "SMD_solvation_energy": 8.52 
		},
		"coords": [
			{
				"x": 3.3031828377,
				"y": 0.4798598089,
				"z": -0.5789330339,
				"element": "O" 
			},
			{
				"x": 2.1774079515,
				"y": 0.7908920388,
				"z": -1.2650542119,
				"element": "C" 
			},
			{
				"x": 2.176481154,
				"y": 1.4896151667,
				"z": -2.2498730867,
				"element": "O" 
			},
			{
				"x": 0.9409099208,
				"y": 0.1155764591,
				"z": -0.6654477727,
				"element": "C" 
			},
			{
				"x": 0.9203358737,
				"y": 0.2921412818,
				"z": 0.8592471291,
				"element": "C" 
			},
			{
				"x": 0.9477707025,
				"y": -0.5951393055,
				"z": 1.6808290202,
				"element": "O" 
			},
			{
				"x": 0.8600616309,
				"y": 1.6080152883,
				"z": 1.1472634248,
				"element": "O" 
			},
			{
				"x": 0.850386076,
				"y": 1.9753479871,
				"z": 2.55968321,
				"element": "C" 
			},
			{
				"x": -0.5534574917,
				"y": 2.0986634711,
				"z": 3.0953780995,
				"element": "C" 
			},
			{
				"x": -1.212751129,
				"y": 0.9841439539,
				"z": 3.6329501857,
				"element": "C" 
			},
			{
				"x": -2.5152453097,
				"y": 1.1027609897,
				"z": 4.11810028,
				"element": "C" 
			},
			{
				"x": -3.1722066931,
				"y": 2.3345404977,
				"z": 4.0718265969,
				"element": "C" 
			},
			{
				"x": -2.5226586144,
				"y": 3.4491335244,
				"z": 3.5378107777,
				"element": "C" 
			},
			{
				"x": -1.2200021915,
				"y": 3.3296730196,
				"z": 3.0525782994,
				"element": "C" 
			},
			{
				"x": 0.8371291424,
				"y": -1.329324615,
				"z": -1.1288703941,
				"element": "C" 
			},
			{
				"x": 1.7309445631,
				"y": -2.3111935584,
				"z": -0.6799217527,
				"element": "C" 
			},
			{
				"x": 1.6235829551,
				"y": -3.621719303,
				"z": -1.1434839606,
				"element": "C" 
			},
			{
				"x": 0.6289904634,
				"y": -3.9675758778,
				"z": -2.0611903858,
				"element": "C" 
			},
			{
				"x": -0.2612183643,
				"y": -2.9940539668,
				"z": -2.5146958028,
				"element": "C" 
			},
			{
				"x": -0.1553819434,
				"y": -1.6820631727,
				"z": -2.050524918,
				"element": "C" 
			},
			{
				"x": 4.0373364044,
				"y": 0.9127809159,
				"z": -1.0466021244,
				"element": "H" 
			},
			{
				"x": 0.0969613025,
				"y": 0.685235309,
				"z": -1.0626004645,
				"element": "H" 
			},
			{
				"x": 1.4261095131,
				"y": 1.230041329,
				"z": 3.1111041923,
				"element": "H" 
			},
			{
				"x": 1.3680041589,
				"y": 2.9361767606,
				"z": 2.5856279136,
				"element": "H" 
			},
			{
				"x": -0.7013045521,
				"y": 0.0268420969,
				"z": 3.6572780604,
				"element": "H" 
			},
			{
				"x": -3.0168523899,
				"y": 0.2338994923,
				"z": 4.5345664,
				"element": "H" 
			},
			{
				"x": -4.1854535811,
				"y": 2.4259962717,
				"z": 4.4527316221,
				"element": "H" 
			},
			{
				"x": -3.0280996643,
				"y": 4.4099451209,
				"z": 3.5018794007,
				"element": "H" 
			},
			{
				"x": -0.7142018258,
				"y": 4.1987724737,
				"z": 2.6388491274,
				"element": "H" 
			},
			{
				"x": 2.5016516162,
				"y": -2.0488214463,
				"z": 0.0352405298,
				"element": "H" 
			},
			{
				"x": 2.3188029755,
				"y": -4.3756010946,
				"z": -0.7852870437,
				"element": "H" 
			},
			{
				"x": 0.5490801391,
				"y": -4.9898315176,
				"z": -2.4197636146,
				"element": "H" 
			},
			{
				"x": -1.0379925576,
				"y": -3.2523299586,
				"z": -3.2286051024,
				"element": "H" 
			},
			{
				"x": -0.8495030731,
				"y": -0.9256994408,
				"z": -2.407690601,
				"element": "H" 
			}
		],
		 "valence_orbital": [ 
			{
				"type": "occ",
				"energy": -0.27531,
				"method": "rhf"
			},
			{
				"type": "occ",
				"energy": -0.25394,
				"method": "rhf"
			},
			{
				"type": "occ",
				"energy": -0.25249,
				"method": "rhf"
			},
			{
				"type": "occ",
				"energy": -0.24839,
				"method": "rhf"
			},
			{
				"type": "occ",
				"energy": -0.24446,
				"method": "rhf"
			},
			{
				"type": "unocc",
				"energy": -0.01651,
				"method": "rhf"
			},
			{
				"type": "unocc",
				"energy": -0.01526,
				"method": "rhf"
			},
			{
				"type": "unocc",
				"energy": -0.00496,
				"method": "rhf"
			},
			{
				"type": "unocc",
				"energy": -0.00179,
				"method": "rhf"
			},
			{
				"type": "unocc",
				"energy": 0.00237,
				"method": "rhf"
			}
		],
		"cosmo_sigma_profile": { 
			"-0.025": 0.0,
			"-0.024": 0.0,
			"-0.023": 0.0,
			"-0.022": 0.0,
			"-0.021": 0.0,
			"-0.02": 0.0,
			"-0.019": 0.482090562963,
			"-0.018": 1.13144516904,
			"-0.017": 0.983418529273,
			"-0.016": 0.39023581976,
			"-0.015": 0.917576510041,
			"-0.014": 0.32164795524,
			"-0.013": 1.09395758632,
			"-0.012": 0.789134715311,
			"-0.011": 0.668931728848,
			"-0.01": 0.787618644825,
			"-0.009": 1.59843331644,
			"-0.008": 3.04211260444,
			"-0.007": 6.76269469685,
			"-0.006": 18.4586212963,
			"-0.005": 23.4045165613,
			"-0.004": 28.0368117403,
			"-0.003": 24.3505189069,
			"-0.002": 17.6162259189,
			"-0.001": 17.5345254338,
			"0.0": 16.9811874893,
			"0.001": 19.5951763765,
			"0.002": 21.5652102949,
			"0.003": 22.9762467854,
			"0.004": 23.3457989154,
			"0.005": 24.4268993199,
			"0.006": 10.2709077972,
			"0.007": 4.32811174333,
			"0.008": 3.75072032603,
			"0.009": 3.93007930153,
			"0.01": 5.11512222942,
			"0.011": 7.93650441852,
			"0.012": 1.61743443561,
			"0.013": 0.0,
			"0.014": 0.0,
			"0.015": 0.0,
			"0.016": 0.0,
			"0.017": 0.0,
			"0.018": 0.0,
			"0.019": 0.0,
			"0.02": 0.0,
			"0.021": 0.0,
			"0.022": 0.0,
			"0.023": 0.0,
			"0.024": 0.0,
			"0.025": 0.0
		}
	}
}
