{
	 "smiles": "OC(=O)C1=CSC=C1SC1=CC=C(Cl)C=C1", 
	 "Tm": 469.15, 
	 "num_atms": 23, 
	 "gaussian": { 
		 "optdone": 1, 
		 "sigma_profile": "yes", 
		 "theory": "DFT", 
		 "functional": "B3LYP", 
		 "basiset": "6-31G**", 
		 "properties": { 
			 "R2extent": 5851.0579, 
			 "electric_dipole_moment_norm": 4.63537529117, 
			 "electric_quadrupole_moment_norm": 12.6464523606, 
			 "total_energy": -1830.3953371, 
			 "HOMO_LUMO_gap": 0.20534, 
			 "cosmo_polarized_energy": -12.68, 
			 "cosmo_cavitation_energy": 33.04, 
			 "cosmo_dispersion_energy": -24.59, 
			 "cosmo_repulsion_energy": 1.82, 
			 "cosmo_total_nonelectrostatic_energy": 10.27, 
			 "SMD_solvation_energy": 6.2 
		},
		"coords": [
			{
				"x": 0.668891646,
				"y": -3.1112533145,
				"z": 0.0007098128,
				"element": "O" 
			},
			{
				"x": 1.8248626705,
				"y": -2.4438150121,
				"z": 0.2089429392,
				"element": "C" 
			},
			{
				"x": 2.6286630366,
				"y": -2.8450569476,
				"z": 1.0200236468,
				"element": "O" 
			},
			{
				"x": 2.0670750428,
				"y": -1.2008690313,
				"z": -0.5945447806,
				"element": "C" 
			},
			{
				"x": 3.2905352485,
				"y": -0.5864696434,
				"z": -0.4936329774,
				"element": "C" 
			},
			{
				"x": 3.4110592774,
				"y": 0.8140521401,
				"z": -1.4881396244,
				"element": "S" 
			},
			{
				"x": 1.7937258991,
				"y": 0.6026731627,
				"z": -2.0663552463,
				"element": "C" 
			},
			{
				"x": 1.1946155606,
				"y": -0.4958715603,
				"z": -1.5086034324,
				"element": "C" 
			},
			{
				"x": -0.4746755134,
				"y": -0.978784523,
				"z": -1.9586989418,
				"element": "S" 
			},
			{
				"x": -1.4926869364,
				"y": -0.1055377708,
				"z": -0.7481670282,
				"element": "C" 
			},
			{
				"x": -2.2153446627,
				"y": 1.0182139942,
				"z": -1.1635946384,
				"element": "C" 
			},
			{
				"x": -3.0477943234,
				"y": 1.6903943657,
				"z": -0.2687515786,
				"element": "C" 
			},
			{
				"x": -3.1454895662,
				"y": 1.2306331815,
				"z": 1.0442486914,
				"element": "C" 
			},
			{
				"x": -4.1859867535,
				"y": 2.0743831261,
				"z": 2.176267304,
				"element": "Cl" 
			},
			{
				"x": -2.4343546599,
				"y": 0.1087515634,
				"z": 1.4724185601,
				"element": "C" 
			},
			{
				"x": -1.6126498722,
				"y": -0.5642655158,
				"z": 0.5695831739,
				"element": "C" 
			},
			{
				"x": 0.1505840921,
				"y": -2.6981778558,
				"z": -0.7225023067,
				"element": "H" 
			},
			{
				"x": 4.1131210746,
				"y": -0.9155189472,
				"z": 0.1250688718,
				"element": "H" 
			},
			{
				"x": 1.3668704986,
				"y": 1.292231358,
				"z": -2.7806984093,
				"element": "H" 
			},
			{
				"x": -2.1301155535,
				"y": 1.3683590573,
				"z": -2.187177101,
				"element": "H" 
			},
			{
				"x": -3.611329453,
				"y": 2.5611909601,
				"z": -0.584602376,
				"element": "H" 
			},
			{
				"x": -2.5283483906,
				"y": -0.2381581862,
				"z": 2.4953545172,
				"element": "H" 
			},
			{
				"x": -1.0691283621,
				"y": -1.4451046008,
				"z": 0.8944509238,
				"element": "H" 
			}
		],
		 "valence_orbital": [ 
			{
				"type": "occ",
				"energy": -0.27925,
				"method": "rhf"
			},
			{
				"type": "occ",
				"energy": -0.27824,
				"method": "rhf"
			},
			{
				"type": "occ",
				"energy": -0.27473,
				"method": "rhf"
			},
			{
				"type": "occ",
				"energy": -0.26376,
				"method": "rhf"
			},
			{
				"type": "occ",
				"energy": -0.25865,
				"method": "rhf"
			},
			{
				"type": "unocc",
				"energy": -0.05331,
				"method": "rhf"
			},
			{
				"type": "unocc",
				"energy": -0.04617,
				"method": "rhf"
			},
			{
				"type": "unocc",
				"energy": -0.03292,
				"method": "rhf"
			},
			{
				"type": "unocc",
				"energy": -0.02837,
				"method": "rhf"
			},
			{
				"type": "unocc",
				"energy": 0.00656,
				"method": "rhf"
			}
		],
		"cosmo_sigma_profile": { 
			"-0.025": 0.0,
			"-0.024": 0.0,
			"-0.023": 0.0,
			"-0.022": 0.0,
			"-0.021": 0.0,
			"-0.02": 0.0,
			"-0.019": 0.0,
			"-0.018": 0.0,
			"-0.017": 0.0,
			"-0.016": 0.0,
			"-0.015": 0.0,
			"-0.014": 0.0,
			"-0.013": 0.0,
			"-0.012": 0.0,
			"-0.011": 0.0302773461315,
			"-0.01": 2.50461003528,
			"-0.009": 4.33918080067,
			"-0.008": 7.25120782664,
			"-0.007": 11.2597711254,
			"-0.006": 13.4004467578,
			"-0.005": 12.7693926948,
			"-0.004": 12.4572458411,
			"-0.003": 13.8537118221,
			"-0.002": 18.247318233,
			"-0.001": 20.8294377188,
			"0.0": 26.6207633073,
			"0.001": 36.4656752557,
			"0.002": 31.3733203111,
			"0.003": 16.3119288197,
			"0.004": 12.9632121991,
			"0.005": 5.55764623039,
			"0.006": 3.40524222605,
			"0.007": 2.01504257105,
			"0.008": 2.49430168648,
			"0.009": 2.80307022804,
			"0.01": 4.03974685748,
			"0.011": 5.60940431002,
			"0.012": 4.74852330055,
			"0.013": 1.80249002237,
			"0.014": 0.150303054067,
			"0.015": 0.0,
			"0.016": 0.0,
			"0.017": 0.0,
			"0.018": 0.0,
			"0.019": 0.0,
			"0.02": 0.0,
			"0.021": 0.0,
			"0.022": 0.0,
			"0.023": 0.0,
			"0.024": 0.0,
			"0.025": 0.0
		}
	}
}
