{
	 "smiles": "NC(=O)C1=CC(=C(CCl)C=C1)[N+]([O-])=O", 
	 "Tm": 389.15, 
	 "num_atms": 21, 
	 "gaussian": { 
		 "optdone": 1, 
		 "sigma_profile": "yes", 
		 "theory": "DFT", 
		 "functional": "B3LYP", 
		 "basiset": "6-31G**", 
		 "properties": { 
			 "R2extent": 3599.0106, 
			 "electric_dipole_moment_norm": 2.20329281985, 
			 "electric_quadrupole_moment_norm": 25.3913507577, 
			 "total_energy": -1104.3528659, 
			 "HOMO_LUMO_gap": 0.16638, 
			 "cosmo_polarized_energy": -17.86, 
			 "cosmo_cavitation_energy": 28.19, 
			 "cosmo_dispersion_energy": -20.4, 
			 "cosmo_repulsion_energy": 1.61, 
			 "cosmo_total_nonelectrostatic_energy": 9.41, 
			 "SMD_solvation_energy": 7.34 
		},
		"coords": [
			{
				"x": -0.7197966704,
				"y": 1.8402557743,
				"z": -2.9425127168,
				"element": "N" 
			},
			{
				"x": -1.3776005135,
				"y": 0.7388442043,
				"z": -2.4641062093,
				"element": "C" 
			},
			{
				"x": -2.3620829345,
				"y": 0.2688153182,
				"z": -3.0190509788,
				"element": "O" 
			},
			{
				"x": -0.8114732905,
				"y": 0.1067315673,
				"z": -1.2188529446,
				"element": "C" 
			},
			{
				"x": 0.4787559006,
				"y": 0.3495658607,
				"z": -0.746830627,
				"element": "C" 
			},
			{
				"x": 0.9401030591,
				"y": -0.2886654103,
				"z": 0.4035305773,
				"element": "C" 
			},
			{
				"x": 0.1338992386,
				"y": -1.1848949647,
				"z": 1.1326873455,
				"element": "C" 
			},
			{
				"x": 0.5281469065,
				"y": -1.8844857767,
				"z": 2.40586911,
				"element": "C" 
			},
			{
				"x": 0.4689668655,
				"y": -0.7485016841,
				"z": 3.8348913268,
				"element": "Cl" 
			},
			{
				"x": -1.1585416229,
				"y": -1.4082823221,
				"z": 0.6348379705,
				"element": "C" 
			},
			{
				"x": -1.624194447,
				"y": -0.7936133714,
				"z": -0.5220296324,
				"element": "C" 
			},
			{
				"x": 2.3330383789,
				"y": 0.0266507566,
				"z": 0.7889375321,
				"element": "N" 
			},
			{
				"x": 2.9308430318,
				"y": -0.7548593017,
				"z": 1.5257677073,
				"element": "O" 
			},
			{
				"x": 2.8238719828,
				"y": 1.0550419047,
				"z": 0.3261069735,
				"element": "O" 
			},
			{
				"x": -1.1588722759,
				"y": 2.3111915214,
				"z": -3.7203942057,
				"element": "H" 
			},
			{
				"x": -0.1140011008,
				"y": 2.3893760691,
				"z": -2.3533590328,
				"element": "H" 
			},
			{
				"x": 1.1651163317,
				"y": 1.0077949532,
				"z": -1.263822912,
				"element": "H" 
			},
			{
				"x": 1.5404441857,
				"y": -2.2726615186,
				"z": 2.3743779499,
				"element": "H" 
			},
			{
				"x": -0.182714218,
				"y": -2.6792524824,
				"z": 2.628882435,
				"element": "H" 
			},
			{
				"x": -1.8111149033,
				"y": -2.0844690713,
				"z": 1.1791045235,
				"element": "H" 
			},
			{
				"x": -2.6186939044,
				"y": -0.9936820265,
				"z": -0.9056341921,
				"element": "H" 
			}
		],
		 "valence_orbital": [ 
			{
				"type": "occ",
				"energy": -0.29998,
				"method": "rhf"
			},
			{
				"type": "occ",
				"energy": -0.29305,
				"method": "rhf"
			},
			{
				"type": "occ",
				"energy": -0.2892,
				"method": "rhf"
			},
			{
				"type": "occ",
				"energy": -0.28725,
				"method": "rhf"
			},
			{
				"type": "occ",
				"energy": -0.27038,
				"method": "rhf"
			},
			{
				"type": "unocc",
				"energy": -0.104,
				"method": "rhf"
			},
			{
				"type": "unocc",
				"energy": -0.06938,
				"method": "rhf"
			},
			{
				"type": "unocc",
				"energy": -0.02276,
				"method": "rhf"
			},
			{
				"type": "unocc",
				"energy": 0.00926,
				"method": "rhf"
			},
			{
				"type": "unocc",
				"energy": 0.04897,
				"method": "rhf"
			}
		],
		"cosmo_sigma_profile": { 
			"-0.025": 0.0,
			"-0.024": 0.0,
			"-0.023": 0.0,
			"-0.022": 0.0,
			"-0.021": 0.0,
			"-0.02": 0.0,
			"-0.019": 0.0,
			"-0.018": 0.0,
			"-0.017": 0.0,
			"-0.016": 0.138142666942,
			"-0.015": 1.22616227239,
			"-0.014": 2.70488567337,
			"-0.013": 2.90274820141,
			"-0.012": 2.1019074565,
			"-0.011": 2.13746379578,
			"-0.01": 3.31548043336,
			"-0.009": 4.72948564841,
			"-0.008": 7.85386974279,
			"-0.007": 8.4470206113,
			"-0.006": 10.1888539792,
			"-0.005": 11.5455628992,
			"-0.004": 10.8414333715,
			"-0.003": 9.43702768381,
			"-0.002": 13.1538394843,
			"-0.001": 17.4853179954,
			"0.0": 16.1858016546,
			"0.001": 13.8075674334,
			"0.002": 8.61779145466,
			"0.003": 9.8794804737,
			"0.004": 10.9066468548,
			"0.005": 11.2071847162,
			"0.006": 14.7959007368,
			"0.007": 9.95180586369,
			"0.008": 5.75149224223,
			"0.009": 5.24612007862,
			"0.01": 2.2245726533,
			"0.011": 2.13091783984,
			"0.012": 2.45608557236,
			"0.013": 5.25384766378,
			"0.014": 1.20865353727,
			"0.015": 0.0,
			"0.016": 0.0,
			"0.017": 0.0,
			"0.018": 0.0,
			"0.019": 0.0,
			"0.02": 0.0,
			"0.021": 0.0,
			"0.022": 0.0,
			"0.023": 0.0,
			"0.024": 0.0,
			"0.025": 0.0
		}
	}
}
