{
	 "smiles": "CCC(CC)C1=NN=C(N)S1", 
	 "Tm": 432.15, 
	 "num_atms": 24, 
	 "gaussian": { 
		 "optdone": 1, 
		 "sigma_profile": "yes", 
		 "theory": "DFT", 
		 "functional": "B3LYP", 
		 "basiset": "6-31G**", 
		 "properties": { 
			 "R2extent": 2524.6073, 
			 "electric_dipole_moment_norm": 2.98330938054, 
			 "electric_quadrupole_moment_norm": 12.1987985384, 
			 "total_energy": -837.009949199, 
			 "HOMO_LUMO_gap": 0.21251, 
			 "cosmo_polarized_energy": -13.26, 
			 "cosmo_cavitation_energy": 27.98, 
			 "cosmo_dispersion_energy": -20.33, 
			 "cosmo_repulsion_energy": 1.62, 
			 "cosmo_total_nonelectrostatic_energy": 9.28, 
			 "SMD_solvation_energy": 2.71 
		},
		"coords": [
			{
				"x": 1.3295293375,
				"y": -3.0636265436,
				"z": -1.1993104638,
				"element": "C" 
			},
			{
				"x": 2.0954986937,
				"y": -2.4075939675,
				"z": -0.0460924062,
				"element": "C" 
			},
			{
				"x": 1.8813744024,
				"y": -0.8750699872,
				"z": 0.1037061572,
				"element": "C" 
			},
			{
				"x": 2.3120918619,
				"y": -0.0885524052,
				"z": -1.1524679127,
				"element": "C" 
			},
			{
				"x": 2.4274866718,
				"y": 1.4222234201,
				"z": -0.9279127269,
				"element": "C" 
			},
			{
				"x": 0.4565039806,
				"y": -0.5615115818,
				"z": 0.4938664513,
				"element": "C" 
			},
			{
				"x": -0.482437382,
				"y": -0.1947903219,
				"z": -0.319433598,
				"element": "N" 
			},
			{
				"x": -1.7145280342,
				"y": -0.0317283194,
				"z": 0.260514482,
				"element": "N" 
			},
			{
				"x": -1.6984325274,
				"y": -0.2689451751,
				"z": 1.5438405012,
				"element": "C" 
			},
			{
				"x": -2.7928239556,
				"y": -0.0915173532,
				"z": 2.3589194061,
				"element": "N" 
			},
			{
				"x": -0.1195772965,
				"y": -0.7302428355,
				"z": 2.1714671241,
				"element": "S" 
			},
			{
				"x": 1.6648244749,
				"y": -2.6904413383,
				"z": -2.1716829662,
				"element": "H" 
			},
			{
				"x": 0.2546128265,
				"y": -2.873110236,
				"z": -1.1261197741,
				"element": "H" 
			},
			{
				"x": 1.4829810424,
				"y": -4.1475777488,
				"z": -1.1913660826,
				"element": "H" 
			},
			{
				"x": 1.8180925752,
				"y": -2.8923691851,
				"z": 0.8983902981,
				"element": "H" 
			},
			{
				"x": 3.1721327339,
				"y": -2.5792428297,
				"z": -0.1730788638,
				"element": "H" 
			},
			{
				"x": 2.5233447849,
				"y": -0.551357916,
				"z": 0.9350306787,
				"element": "H" 
			},
			{
				"x": 1.6019591154,
				"y": -0.2830543628,
				"z": -1.9612130842,
				"element": "H" 
			},
			{
				"x": 3.2829232745,
				"y": -0.487112263,
				"z": -1.4745287898,
				"element": "H" 
			},
			{
				"x": 3.1405009126,
				"y": 1.6543567142,
				"z": -0.1279012685,
				"element": "H" 
			},
			{
				"x": 2.7745769651,
				"y": 1.9240232124,
				"z": -1.8368675848,
				"element": "H" 
			},
			{
				"x": 1.4603535999,
				"y": 1.8551690123,
				"z": -0.657958536,
				"element": "H" 
			},
			{
				"x": -2.8857084571,
				"y": -0.7278353147,
				"z": 3.1379079476,
				"element": "H" 
			},
			{
				"x": -3.6482796004,
				"y": 0.0313073259,
				"z": 1.8309910113,
				"element": "H" 
			}
		],
		 "valence_orbital": [ 
			{
				"type": "occ",
				"energy": -0.31657,
				"method": "rhf"
			},
			{
				"type": "occ",
				"energy": -0.29037,
				"method": "rhf"
			},
			{
				"type": "occ",
				"energy": -0.28232,
				"method": "rhf"
			},
			{
				"type": "occ",
				"energy": -0.25325,
				"method": "rhf"
			},
			{
				"type": "occ",
				"energy": -0.22813,
				"method": "rhf"
			},
			{
				"type": "unocc",
				"energy": -0.01562,
				"method": "rhf"
			},
			{
				"type": "unocc",
				"energy": 0.00038,
				"method": "rhf"
			},
			{
				"type": "unocc",
				"energy": 0.04707,
				"method": "rhf"
			},
			{
				"type": "unocc",
				"energy": 0.06784,
				"method": "rhf"
			},
			{
				"type": "unocc",
				"energy": 0.09174,
				"method": "rhf"
			}
		],
		"cosmo_sigma_profile": { 
			"-0.025": 0.0,
			"-0.024": 0.0,
			"-0.023": 0.0,
			"-0.022": 0.0,
			"-0.021": 0.0,
			"-0.02": 0.0,
			"-0.019": 0.0,
			"-0.018": 0.0,
			"-0.017": 0.0,
			"-0.016": 0.0,
			"-0.015": 0.697281980078,
			"-0.014": 2.2647091295,
			"-0.013": 2.83861700297,
			"-0.012": 2.97383640113,
			"-0.011": 2.62173595088,
			"-0.01": 1.72597379702,
			"-0.009": 2.1016771861,
			"-0.008": 2.18233689807,
			"-0.007": 1.45417883403,
			"-0.006": 1.58492983737,
			"-0.005": 4.86030021261,
			"-0.004": 6.30917955823,
			"-0.003": 18.2133464216,
			"-0.002": 25.2488347112,
			"-0.001": 29.1187744297,
			"0.0": 30.2244063906,
			"0.001": 28.698320616,
			"0.002": 14.9337417617,
			"0.003": 6.90122355196,
			"0.004": 4.85331381948,
			"0.005": 3.8071203926,
			"0.006": 2.90413302416,
			"0.007": 3.31648865791,
			"0.008": 2.43654583661,
			"0.009": 2.89294851527,
			"0.01": 2.72084537825,
			"0.011": 2.37569011021,
			"0.012": 2.85550424193,
			"0.013": 3.52609817194,
			"0.014": 2.18674311575,
			"0.015": 1.44848960193,
			"0.016": 0.492049699344,
			"0.017": 0.0,
			"0.018": 0.0,
			"0.019": 0.0,
			"0.02": 0.0,
			"0.021": 0.0,
			"0.022": 0.0,
			"0.023": 0.0,
			"0.024": 0.0,
			"0.025": 0.0
		}
	}
}
