{
	 "smiles": "COC1=CC=C(C=C1)C1=C(C)SC(N)=N1", 
	 "Tm": 394.15, 
	 "num_atms": 27, 
	 "gaussian": { 
		 "optdone": 1, 
		 "sigma_profile": "yes", 
		 "theory": "DFT", 
		 "functional": "B3LYP", 
		 "basiset": "6-31G**", 
		 "properties": { 
			 "R2extent": 5402.1482, 
			 "electric_dipole_moment_norm": 2.08952981075, 
			 "electric_quadrupole_moment_norm": 16.2570728137, 
			 "total_energy": -1009.31150056, 
			 "HOMO_LUMO_gap": 0.17531, 
			 "cosmo_polarized_energy": -13.1, 
			 "cosmo_cavitation_energy": 32.19, 
			 "cosmo_dispersion_energy": -24.25, 
			 "cosmo_repulsion_energy": 1.86, 
			 "cosmo_total_nonelectrostatic_energy": 9.81, 
			 "SMD_solvation_energy": 4.54 
		},
		"coords": [
			{
				"x": -4.5490849502,
				"y": -1.1234162994,
				"z": 2.7679001232,
				"element": "C" 
			},
			{
				"x": -4.4784730606,
				"y": -0.2239303761,
				"z": 1.6740515971,
				"element": "O" 
			},
			{
				"x": -3.2443076912,
				"y": 0.1618028576,
				"z": 1.2344185601,
				"element": "C" 
			},
			{
				"x": -3.2323458013,
				"y": 1.0671735915,
				"z": 0.1642705894,
				"element": "C" 
			},
			{
				"x": -2.0271962253,
				"y": 1.5195073452,
				"z": -0.3570049968,
				"element": "C" 
			},
			{
				"x": -0.7947883226,
				"y": 1.0775472647,
				"z": 0.1610361394,
				"element": "C" 
			},
			{
				"x": -0.8272360242,
				"y": 0.1905678087,
				"z": 1.2472341258,
				"element": "C" 
			},
			{
				"x": -2.0297480253,
				"y": -0.2708766426,
				"z": 1.7815680355,
				"element": "C" 
			},
			{
				"x": 0.5060967823,
				"y": 1.531932832,
				"z": -0.3714248056,
				"element": "C" 
			},
			{
				"x": 0.7957506308,
				"y": 1.8484881516,
				"z": -1.6770195806,
				"element": "C" 
			},
			{
				"x": -0.0393566717,
				"y": 1.7694331198,
				"z": -2.9203304112,
				"element": "C" 
			},
			{
				"x": 2.4865911874,
				"y": 2.3372896956,
				"z": -1.7910871488,
				"element": "S" 
			},
			{
				"x": 2.6563133981,
				"y": 2.0146857687,
				"z": -0.0636552859,
				"element": "C" 
			},
			{
				"x": 3.8410652405,
				"y": 2.2743835507,
				"z": 0.5953489335,
				"element": "N" 
			},
			{
				"x": 1.5725888101,
				"y": 1.6106610011,
				"z": 0.5217590117,
				"element": "N" 
			},
			{
				"x": -5.6113430637,
				"y": -1.2921974454,
				"z": 2.9522544331,
				"element": "H" 
			},
			{
				"x": -4.0894637448,
				"y": -0.7014844495,
				"z": 3.6711867069,
				"element": "H" 
			},
			{
				"x": -4.0671109712,
				"y": -2.0824863647,
				"z": 2.5372453678,
				"element": "H" 
			},
			{
				"x": -4.18131618,
				"y": 1.4151120356,
				"z": -0.2307534664,
				"element": "H" 
			},
			{
				"x": -2.0461713166,
				"y": 2.253109461,
				"z": -1.1555783612,
				"element": "H" 
			},
			{
				"x": 0.1125872408,
				"y": -0.1358814693,
				"z": 1.6790896799,
				"element": "H" 
			},
			{
				"x": -2.0081053848,
				"y": -0.9600039637,
				"z": 2.6177409895,
				"element": "H" 
			},
			{
				"x": 0.5497001665,
				"y": 1.4069517278,
				"z": -3.7695134881,
				"element": "H" 
			},
			{
				"x": -0.8712904634,
				"y": 1.0763016079,
				"z": -2.7729219376,
				"element": "H" 
			},
			{
				"x": -0.4600134291,
				"y": 2.741418944,
				"z": -3.2092093106,
				"element": "H" 
			},
			{
				"x": 4.690725524,
				"y": 2.0826888227,
				"z": 0.0826607328,
				"element": "H" 
			},
			{
				"x": 3.8455323455,
				"y": 1.8991214246,
				"z": 1.5355337671,
				"element": "H" 
			}
		],
		 "valence_orbital": [ 
			{
				"type": "occ",
				"energy": -0.26691,
				"method": "rhf"
			},
			{
				"type": "occ",
				"energy": -0.26408,
				"method": "rhf"
			},
			{
				"type": "occ",
				"energy": -0.24475,
				"method": "rhf"
			},
			{
				"type": "occ",
				"energy": -0.22309,
				"method": "rhf"
			},
			{
				"type": "occ",
				"energy": -0.18782,
				"method": "rhf"
			},
			{
				"type": "unocc",
				"energy": -0.01251,
				"method": "rhf"
			},
			{
				"type": "unocc",
				"energy": 0.00316,
				"method": "rhf"
			},
			{
				"type": "unocc",
				"energy": 0.01416,
				"method": "rhf"
			},
			{
				"type": "unocc",
				"energy": 0.02575,
				"method": "rhf"
			},
			{
				"type": "unocc",
				"energy": 0.07638,
				"method": "rhf"
			}
		],
		"cosmo_sigma_profile": { 
			"-0.025": 0.0,
			"-0.024": 0.0,
			"-0.023": 0.0,
			"-0.022": 0.0,
			"-0.021": 0.0,
			"-0.02": 0.0,
			"-0.019": 0.0,
			"-0.018": 0.0,
			"-0.017": 0.0,
			"-0.016": 0.0,
			"-0.015": 0.176621045147,
			"-0.014": 1.44394619745,
			"-0.013": 2.46031797078,
			"-0.012": 1.7755078969,
			"-0.011": 3.11529781597,
			"-0.01": 3.31541831996,
			"-0.009": 1.78460144635,
			"-0.008": 1.05798090905,
			"-0.007": 2.21061772632,
			"-0.006": 8.34691575683,
			"-0.005": 18.2264860419,
			"-0.004": 22.3403151166,
			"-0.003": 24.243738542,
			"-0.002": 18.8567704417,
			"-0.001": 15.9090056965,
			"0.0": 12.9249955553,
			"0.001": 12.2837854249,
			"0.002": 16.3583740691,
			"0.003": 19.4556489908,
			"0.004": 22.9704759468,
			"0.005": 19.2985572014,
			"0.006": 9.7590303427,
			"0.007": 4.00010486412,
			"0.008": 3.59876630377,
			"0.009": 3.9608787558,
			"0.01": 2.9604934775,
			"0.011": 2.51025136234,
			"0.012": 1.53782916044,
			"0.013": 0.728414564849,
			"0.014": 0.497829226469,
			"0.015": 0.109702518295,
			"0.016": 0.0,
			"0.017": 0.0,
			"0.018": 0.0,
			"0.019": 0.0,
			"0.02": 0.0,
			"0.021": 0.0,
			"0.022": 0.0,
			"0.023": 0.0,
			"0.024": 0.0,
			"0.025": 0.0
		}
	}
}
