{
	 "smiles": "CC1=NC2=C(C=CC(Br)=C2)C(=C1)C(O)=O", 
	 "Tm": 563.15, 
	 "num_atms": 23, 
	 "gaussian": { 
		 "optdone": 1, 
		 "sigma_profile": "yes", 
		 "theory": "DFT", 
		 "functional": "B3LYP", 
		 "basiset": "6-31G**", 
		 "properties": { 
			 "R2extent": 6396.7435, 
			 "electric_dipole_moment_norm": 3.56572741667, 
			 "electric_quadrupole_moment_norm": 17.7047633122, 
			 "total_energy": -3200.61519315, 
			 "HOMO_LUMO_gap": 0.16162, 
			 "cosmo_polarized_energy": -14.99, 
			 "cosmo_cavitation_energy": 30.0, 
			 "cosmo_dispersion_energy": -22.55, 
			 "cosmo_repulsion_energy": 1.75, 
			 "cosmo_total_nonelectrostatic_energy": 9.21, 
			 "SMD_solvation_energy": 3.54 
		},
		"coords": [
			{
				"x": -1.5024016399,
				"y": 3.8461800063,
				"z": 3.1561049478,
				"element": "C" 
			},
			{
				"x": -0.9990049816,
				"y": 2.6597849824,
				"z": 2.374062196,
				"element": "C" 
			},
			{
				"x": 0.2638972376,
				"y": 2.3126380784,
				"z": 2.5247095719,
				"element": "N" 
			},
			{
				"x": 0.7347937448,
				"y": 1.2278235974,
				"z": 1.840994378,
				"element": "C" 
			},
			{
				"x": -0.0759799473,
				"y": 0.4338081213,
				"z": 0.9670817488,
				"element": "C" 
			},
			{
				"x": 0.5134225966,
				"y": -0.6809471908,
				"z": 0.3130624991,
				"element": "C" 
			},
			{
				"x": 1.8404648799,
				"y": -0.9907820377,
				"z": 0.5105322392,
				"element": "C" 
			},
			{
				"x": 2.6284480456,
				"y": -0.1941256185,
				"z": 1.3722894175,
				"element": "C" 
			},
			{
				"x": 4.4644045877,
				"y": -0.6536470042,
				"z": 1.6178755322,
				"element": "Br" 
			},
			{
				"x": 2.1007680747,
				"y": 0.8911774645,
				"z": 2.0287940328,
				"element": "C" 
			},
			{
				"x": -1.4342345218,
				"y": 0.8516930908,
				"z": 0.8019198709,
				"element": "C" 
			},
			{
				"x": -1.8789710317,
				"y": 1.9520482084,
				"z": 1.5061518973,
				"element": "C" 
			},
			{
				"x": -2.3896650886,
				"y": 0.0939070514,
				"z": -0.0817190582,
				"element": "C" 
			},
			{
				"x": -3.312820295,
				"y": 0.8498861454,
				"z": -0.7302793402,
				"element": "O" 
			},
			{
				"x": -2.3866988611,
				"y": -1.1060663084,
				"z": -0.2185437672,
				"element": "O" 
			},
			{
				"x": -1.8931113839,
				"y": 4.6238006067,
				"z": 2.4894939852,
				"element": "H" 
			},
			{
				"x": -0.6895687924,
				"y": 4.2658679564,
				"z": 3.7498238727,
				"element": "H" 
			},
			{
				"x": -2.3186471456,
				"y": 3.5560119024,
				"z": 3.8277890046,
				"element": "H" 
			},
			{
				"x": -0.0977202472,
				"y": -1.3002091286,
				"z": -0.3308443451,
				"element": "H" 
			},
			{
				"x": 2.2861864996,
				"y": -1.8438747632,
				"z": 0.0122469777,
				"element": "H" 
			},
			{
				"x": 2.6923298745,
				"y": 1.5085680006,
				"z": 2.6933484965,
				"element": "H" 
			},
			{
				"x": -2.916112946,
				"y": 2.2709322277,
				"z": 1.4412626103,
				"element": "H" 
			},
			{
				"x": -3.1009786591,
				"y": 1.7889246115,
				"z": -0.6298567676,
				"element": "H" 
			}
		],
		 "valence_orbital": [ 
			{
				"type": "occ",
				"energy": -0.29422,
				"method": "rhf"
			},
			{
				"type": "occ",
				"energy": -0.29118,
				"method": "rhf"
			},
			{
				"type": "occ",
				"energy": -0.26959,
				"method": "rhf"
			},
			{
				"type": "occ",
				"energy": -0.25785,
				"method": "rhf"
			},
			{
				"type": "occ",
				"energy": -0.24633,
				"method": "rhf"
			},
			{
				"type": "unocc",
				"energy": -0.08471,
				"method": "rhf"
			},
			{
				"type": "unocc",
				"energy": -0.03943,
				"method": "rhf"
			},
			{
				"type": "unocc",
				"energy": -0.02038,
				"method": "rhf"
			},
			{
				"type": "unocc",
				"energy": 0.00177,
				"method": "rhf"
			},
			{
				"type": "unocc",
				"energy": 0.0297,
				"method": "rhf"
			}
		],
		"cosmo_sigma_profile": { 
			"-0.025": 0.0,
			"-0.024": 0.0,
			"-0.023": 0.0,
			"-0.022": 0.0,
			"-0.021": 0.0,
			"-0.02": 0.0,
			"-0.019": 0.32646296139,
			"-0.018": 0.873109862642,
			"-0.017": 0.902800989544,
			"-0.016": 1.3415077235,
			"-0.015": 0.681690840749,
			"-0.014": 1.04011617346,
			"-0.013": 1.43448913323,
			"-0.012": 1.40072724835,
			"-0.011": 1.02892033515,
			"-0.01": 1.14877341844,
			"-0.009": 1.67854002484,
			"-0.008": 3.15948208934,
			"-0.007": 5.45585609085,
			"-0.006": 8.63336305979,
			"-0.005": 15.7053212257,
			"-0.004": 13.255410077,
			"-0.003": 14.5618621302,
			"-0.002": 16.1234347893,
			"-0.001": 22.1562409071,
			"0.0": 21.366803341,
			"0.001": 23.3806332406,
			"0.002": 20.3524452199,
			"0.003": 14.1518589484,
			"0.004": 15.3933137501,
			"0.005": 6.58306753503,
			"0.006": 3.48545740047,
			"0.007": 4.62885867773,
			"0.008": 3.99065334011,
			"0.009": 4.53951437235,
			"0.01": 6.78316709718,
			"0.011": 4.87349293606,
			"0.012": 2.31020520347,
			"0.013": 1.09116459551,
			"0.014": 0.46502132738,
			"0.015": 0.0504599729453,
			"0.016": 0.0,
			"0.017": 0.0,
			"0.018": 0.0,
			"0.019": 0.0,
			"0.02": 0.0,
			"0.021": 0.0,
			"0.022": 0.0,
			"0.023": 0.0,
			"0.024": 0.0,
			"0.025": 0.0
		}
	}
}
