{
	 "smiles": "NC1=C(Cl)C=CC(Cl)=N1", 
	 "Tm": 368.15, 
	 "num_atms": 13, 
	 "gaussian": { 
		 "optdone": 1, 
		 "sigma_profile": "yes", 
		 "theory": "DFT", 
		 "functional": "B3LYP", 
		 "basiset": "6-31G**", 
		 "properties": { 
			 "R2extent": 2199.9442, 
			 "electric_dipole_moment_norm": 2.1035346087, 
			 "electric_quadrupole_moment_norm": 12.5122864749, 
			 "total_energy": -1222.83878497, 
			 "HOMO_LUMO_gap": 0.19083, 
			 "cosmo_polarized_energy": -8.08, 
			 "cosmo_cavitation_energy": 20.95, 
			 "cosmo_dispersion_energy": -16.24, 
			 "cosmo_repulsion_energy": 1.35, 
			 "cosmo_total_nonelectrostatic_energy": 6.05, 
			 "SMD_solvation_energy": 1.73 
		},
		"coords": [
			{
				"x": -1.985911267,
				"y": -2.1329259749,
				"z": -0.4639989501,
				"element": "N" 
			},
			{
				"x": -1.3159194759,
				"y": -1.1307324722,
				"z": 0.1780883089,
				"element": "C" 
			},
			{
				"x": -1.2068529712,
				"y": 0.1753808399,
				"z": -0.3524456006,
				"element": "C" 
			},
			{
				"x": -2.0044713336,
				"y": 0.5753527703,
				"z": -1.8661481809,
				"element": "Cl" 
			},
			{
				"x": -0.4727189463,
				"y": 1.1315998755,
				"z": 0.3316966358,
				"element": "C" 
			},
			{
				"x": 0.1488972289,
				"y": 0.7916788603,
				"z": 1.5349150576,
				"element": "C" 
			},
			{
				"x": -0.0263055693,
				"y": -0.5193403447,
				"z": 1.9723601718,
				"element": "C" 
			},
			{
				"x": 0.7235871019,
				"y": -1.0098578877,
				"z": 3.4905015433,
				"element": "Cl" 
			},
			{
				"x": -0.7223581659,
				"y": -1.4463401278,
				"z": 1.3424267484,
				"element": "N" 
			},
			{
				"x": -2.6472127399,
				"y": -1.893823354,
				"z": -1.1853768686,
				"element": "H" 
			},
			{
				"x": -2.1637012116,
				"y": -2.9618212731,
				"z": 0.0821225048,
				"element": "H" 
			},
			{
				"x": -0.3872449469,
				"y": 2.1347649373,
				"z": -0.0722329678,
				"element": "H" 
			},
			{
				"x": 0.7321122969,
				"y": 1.5060641512,
				"z": 2.1007915973,
				"element": "H" 
			}
		],
		 "valence_orbital": [ 
			{
				"type": "occ",
				"energy": -0.31425,
				"method": "rhf"
			},
			{
				"type": "occ",
				"energy": -0.31284,
				"method": "rhf"
			},
			{
				"type": "occ",
				"energy": -0.28464,
				"method": "rhf"
			},
			{
				"type": "occ",
				"energy": -0.27972,
				"method": "rhf"
			},
			{
				"type": "occ",
				"energy": -0.2263,
				"method": "rhf"
			},
			{
				"type": "unocc",
				"energy": -0.03547,
				"method": "rhf"
			},
			{
				"type": "unocc",
				"energy": -0.01106,
				"method": "rhf"
			},
			{
				"type": "unocc",
				"energy": 0.0186,
				"method": "rhf"
			},
			{
				"type": "unocc",
				"energy": 0.0349,
				"method": "rhf"
			},
			{
				"type": "unocc",
				"energy": 0.08351,
				"method": "rhf"
			}
		],
		"cosmo_sigma_profile": { 
			"-0.025": 0.0,
			"-0.024": 0.0,
			"-0.023": 0.0,
			"-0.022": 0.0,
			"-0.021": 0.0,
			"-0.02": 0.0,
			"-0.019": 0.0,
			"-0.018": 0.0,
			"-0.017": 0.0,
			"-0.016": 0.0,
			"-0.015": 0.0,
			"-0.014": 0.868013775879,
			"-0.013": 1.79330182617,
			"-0.012": 1.33414950245,
			"-0.011": 2.31014470111,
			"-0.01": 2.35507915188,
			"-0.009": 2.66685761295,
			"-0.008": 5.02424462913,
			"-0.007": 5.53155275141,
			"-0.006": 5.5561206915,
			"-0.005": 4.93294441973,
			"-0.004": 4.20213734026,
			"-0.003": 5.8031706396,
			"-0.002": 8.71857233994,
			"-0.001": 11.8002827084,
			"0.0": 17.9580134836,
			"0.001": 21.7389949254,
			"0.002": 15.4322331293,
			"0.003": 14.8356564722,
			"0.004": 17.7684636599,
			"0.005": 9.16151754677,
			"0.006": 3.20985750881,
			"0.007": 1.95931098116,
			"0.008": 2.49331895457,
			"0.009": 1.8576403821,
			"0.01": 1.45516837893,
			"0.011": 0.914302390889,
			"0.012": 0.591739400776,
			"0.013": 0.474674060229,
			"0.014": 0.0,
			"0.015": 0.0,
			"0.016": 0.0,
			"0.017": 0.0,
			"0.018": 0.0,
			"0.019": 0.0,
			"0.02": 0.0,
			"0.021": 0.0,
			"0.022": 0.0,
			"0.023": 0.0,
			"0.024": 0.0,
			"0.025": 0.0
		}
	}
}
