{
	 "smiles": "ClCCS(=O)(=O)C1=CC=C(C=C1)C#N", 
	 "Tm": 390.15, 
	 "num_atms": 22, 
	 "gaussian": { 
		 "optdone": 1, 
		 "sigma_profile": "yes", 
		 "theory": "DFT", 
		 "functional": "B3LYP", 
		 "basiset": "6-31G**", 
		 "properties": { 
			 "R2extent": 4305.5361, 
			 "electric_dipole_moment_norm": 3.92318031831, 
			 "electric_quadrupole_moment_norm": 18.6456334156, 
			 "total_energy": -1411.27435288, 
			 "HOMO_LUMO_gap": 0.20396, 
			 "cosmo_polarized_energy": -19.04, 
			 "cosmo_cavitation_energy": 30.42, 
			 "cosmo_dispersion_energy": -21.48, 
			 "cosmo_repulsion_energy": 1.65, 
			 "cosmo_total_nonelectrostatic_energy": 10.59, 
			 "SMD_solvation_energy": 5.56 
		},
		"coords": [
			{
				"x": 2.2630997929,
				"y": 0.7181179179,
				"z": -0.8799423698,
				"element": "Cl" 
			},
			{
				"x": 2.0774665211,
				"y": 2.2867022252,
				"z": 0.0096073828,
				"element": "C" 
			},
			{
				"x": 0.7508706909,
				"y": 2.9736095269,
				"z": -0.2590790064,
				"element": "C" 
			},
			{
				"x": -0.6787553804,
				"y": 2.3376968383,
				"z": 0.6994348472,
				"element": "S" 
			},
			{
				"x": -1.7031081693,
				"y": 3.3890694755,
				"z": 0.6052925284,
				"element": "O" 
			},
			{
				"x": -0.1631326981,
				"y": 1.8710119858,
				"z": 1.9967664741,
				"element": "O" 
			},
			{
				"x": -1.3128950642,
				"y": 0.9020197509,
				"z": -0.189586982,
				"element": "C" 
			},
			{
				"x": -2.1896410712,
				"y": 1.1034919921,
				"z": -1.2578030758,
				"element": "C" 
			},
			{
				"x": -2.7043515001,
				"y": -0.0011100514,
				"z": -1.9290478371,
				"element": "C" 
			},
			{
				"x": -2.3467386385,
				"y": -1.2965682386,
				"z": -1.5164427328,
				"element": "C" 
			},
			{
				"x": -1.4789693492,
				"y": -1.4825492663,
				"z": -0.4268963761,
				"element": "C" 
			},
			{
				"x": -0.9591029611,
				"y": -0.3771677587,
				"z": 0.2400014503,
				"element": "C" 
			},
			{
				"x": -2.8789264576,
				"y": -2.4361224643,
				"z": -2.2076194344,
				"element": "C" 
			},
			{
				"x": -3.3094241051,
				"y": -3.3587597105,
				"z": -2.769380402,
				"element": "N" 
			},
			{
				"x": 2.8971555833,
				"y": 2.9242824494,
				"z": -0.3245998763,
				"element": "H" 
			},
			{
				"x": 2.1925375652,
				"y": 2.0702031645,
				"z": 1.0722141245,
				"element": "H" 
			},
			{
				"x": 0.4756248685,
				"y": 2.9800618275,
				"z": -1.3162291904,
				"element": "H" 
			},
			{
				"x": 0.8017395509,
				"y": 4.0112413811,
				"z": 0.0898982029,
				"element": "H" 
			},
			{
				"x": -2.4810804776,
				"y": 2.1092470136,
				"z": -1.5404480137,
				"element": "H" 
			},
			{
				"x": -3.3872206004,
				"y": 0.1290413519,
				"z": -2.7613871217,
				"element": "H" 
			},
			{
				"x": -1.2204088687,
				"y": -2.4870915353,
				"z": -0.1106928069,
				"element": "H" 
			},
			{
				"x": -0.2956392312,
				"y": -0.4969278754,
				"z": 1.088540215,
				"element": "H" 
			}
		],
		 "valence_orbital": [ 
			{
				"type": "occ",
				"energy": -0.31891,
				"method": "rhf"
			},
			{
				"type": "occ",
				"energy": -0.31724,
				"method": "rhf"
			},
			{
				"type": "occ",
				"energy": -0.30409,
				"method": "rhf"
			},
			{
				"type": "occ",
				"energy": -0.29501,
				"method": "rhf"
			},
			{
				"type": "occ",
				"energy": -0.28803,
				"method": "rhf"
			},
			{
				"type": "unocc",
				"energy": -0.08407,
				"method": "rhf"
			},
			{
				"type": "unocc",
				"energy": -0.04581,
				"method": "rhf"
			},
			{
				"type": "unocc",
				"energy": 0.00125,
				"method": "rhf"
			},
			{
				"type": "unocc",
				"energy": 0.02174,
				"method": "rhf"
			},
			{
				"type": "unocc",
				"energy": 0.03119,
				"method": "rhf"
			}
		],
		"cosmo_sigma_profile": { 
			"-0.025": 0.0,
			"-0.024": 0.0,
			"-0.023": 0.0,
			"-0.022": 0.0,
			"-0.021": 0.0,
			"-0.02": 0.0,
			"-0.019": 0.0,
			"-0.018": 0.0,
			"-0.017": 0.0,
			"-0.016": 0.0,
			"-0.015": 0.0,
			"-0.014": 0.0,
			"-0.013": 0.0,
			"-0.012": 0.0,
			"-0.011": 0.108342402974,
			"-0.01": 3.25235880563,
			"-0.009": 12.5007742735,
			"-0.008": 15.7027658264,
			"-0.007": 15.5167539918,
			"-0.006": 13.4298474475,
			"-0.005": 11.0429276011,
			"-0.004": 9.32542317672,
			"-0.003": 13.4362390033,
			"-0.002": 12.9779864424,
			"-0.001": 15.0809564893,
			"0.0": 19.3297152165,
			"0.001": 11.5519213858,
			"0.002": 10.5251282094,
			"0.003": 8.81909982748,
			"0.004": 8.82894455939,
			"0.005": 10.7777493669,
			"0.006": 9.63420024481,
			"0.007": 6.77245185326,
			"0.008": 6.32993070316,
			"0.009": 6.20221164892,
			"0.01": 9.623095165,
			"0.011": 10.7006586613,
			"0.012": 4.71169717459,
			"0.013": 0.436366791814,
			"0.014": 0.0,
			"0.015": 0.0,
			"0.016": 0.0,
			"0.017": 0.0,
			"0.018": 0.0,
			"0.019": 0.0,
			"0.02": 0.0,
			"0.021": 0.0,
			"0.022": 0.0,
			"0.023": 0.0,
			"0.024": 0.0,
			"0.025": 0.0
		}
	}
}
