{
	 "smiles": "O=C(C=CC1=CC=CC=C1)N1C=CN=C1", 
	 "Tm": 403.15, 
	 "num_atms": 25, 
	 "gaussian": { 
		 "optdone": 1, 
		 "sigma_profile": "yes", 
		 "theory": "DFT", 
		 "functional": "B3LYP", 
		 "basiset": "6-31G**", 
		 "properties": { 
			 "R2extent": 3447.6873, 
			 "electric_dipole_moment_norm": 2.71138324108, 
			 "electric_quadrupole_moment_norm": 15.5976445776, 
			 "total_energy": -648.000589651, 
			 "HOMO_LUMO_gap": 0.16919, 
			 "cosmo_polarized_energy": -12.17, 
			 "cosmo_cavitation_energy": 29.76, 
			 "cosmo_dispersion_energy": -20.58, 
			 "cosmo_repulsion_energy": 1.6, 
			 "cosmo_total_nonelectrostatic_energy": 10.79, 
			 "SMD_solvation_energy": 4.94 
		},
		"coords": [
			{
				"x": 0.9901373135,
				"y": -1.2168750097,
				"z": -3.7509618617,
				"element": "O" 
			},
			{
				"x": 0.322366358,
				"y": -0.6504424884,
				"z": -2.9066263202,
				"element": "C" 
			},
			{
				"x": 0.5463197367,
				"y": 0.7789733401,
				"z": -2.543293907,
				"element": "C" 
			},
			{
				"x": 0.8682228616,
				"y": 1.2983845643,
				"z": -1.3440602623,
				"element": "C" 
			},
			{
				"x": 1.0938275928,
				"y": 0.6181053183,
				"z": -0.0591903686,
				"element": "C" 
			},
			{
				"x": 1.5718168718,
				"y": -0.7019970742,
				"z": 0.0327927866,
				"element": "C" 
			},
			{
				"x": 1.7714990426,
				"y": -1.2975992937,
				"z": 1.2759011878,
				"element": "C" 
			},
			{
				"x": 1.5055710642,
				"y": -0.587622365,
				"z": 2.4492541999,
				"element": "C" 
			},
			{
				"x": 1.0523060709,
				"y": 0.7310102298,
				"z": 2.3734176123,
				"element": "C" 
			},
			{
				"x": 0.8597885009,
				"y": 1.3306316499,
				"z": 1.1311099937,
				"element": "C" 
			},
			{
				"x": -0.7501501131,
				"y": -1.3247263629,
				"z": -2.279372117,
				"element": "N" 
			},
			{
				"x": -1.0518296184,
				"y": -2.6725610627,
				"z": -2.4675804323,
				"element": "C" 
			},
			{
				"x": -2.1758340182,
				"y": -2.8985240966,
				"z": -1.7309308721,
				"element": "C" 
			},
			{
				"x": -2.5985298745,
				"y": -1.7369495852,
				"z": -1.0941768281,
				"element": "N" 
			},
			{
				"x": -1.7355019059,
				"y": -0.8218004172,
				"z": -1.4371138023,
				"element": "C" 
			},
			{
				"x": 0.532194047,
				"y": 1.436852683,
				"z": -3.4087262481,
				"element": "H" 
			},
			{
				"x": 0.9987242435,
				"y": 2.3797622965,
				"z": -1.3118305179,
				"element": "H" 
			},
			{
				"x": 1.8199525294,
				"y": -1.2520565833,
				"z": -0.8689657523,
				"element": "H" 
			},
			{
				"x": 2.1456561787,
				"y": -2.315646291,
				"z": 1.3289199557,
				"element": "H" 
			},
			{
				"x": 1.6633355446,
				"y": -1.0552544961,
				"z": 3.4165879278,
				"element": "H" 
			},
			{
				"x": 0.8547082291,
				"y": 1.2933621349,
				"z": 3.2812030664,
				"element": "H" 
			},
			{
				"x": 0.512179126,
				"y": 2.3591463959,
				"z": 1.0752473951,
				"element": "H" 
			},
			{
				"x": -0.4368898708,
				"y": -3.2925566824,
				"z": -3.0982941864,
				"element": "H" 
			},
			{
				"x": -2.7183061337,
				"y": -3.8263893484,
				"z": -1.6148157529,
				"element": "H" 
			},
			{
				"x": -1.7477637767,
				"y": 0.2139725439,
				"z": -1.1347948961,
				"element": "H" 
			}
		],
		 "valence_orbital": [ 
			{
				"type": "occ",
				"energy": -0.28668,
				"method": "rhf"
			},
			{
				"type": "occ",
				"energy": -0.26759,
				"method": "rhf"
			},
			{
				"type": "occ",
				"energy": -0.26364,
				"method": "rhf"
			},
			{
				"type": "occ",
				"energy": -0.24751,
				"method": "rhf"
			},
			{
				"type": "occ",
				"energy": -0.23633,
				"method": "rhf"
			},
			{
				"type": "unocc",
				"energy": -0.06714,
				"method": "rhf"
			},
			{
				"type": "unocc",
				"energy": -0.03328,
				"method": "rhf"
			},
			{
				"type": "unocc",
				"energy": -0.01381,
				"method": "rhf"
			},
			{
				"type": "unocc",
				"energy": 0.02856,
				"method": "rhf"
			},
			{
				"type": "unocc",
				"energy": 0.05749,
				"method": "rhf"
			}
		],
		"cosmo_sigma_profile": { 
			"-0.025": 0.0,
			"-0.024": 0.0,
			"-0.023": 0.0,
			"-0.022": 0.0,
			"-0.021": 0.0,
			"-0.02": 0.0,
			"-0.019": 0.0,
			"-0.018": 0.0,
			"-0.017": 0.0,
			"-0.016": 0.0,
			"-0.015": 0.0,
			"-0.014": 0.0,
			"-0.013": 0.0,
			"-0.012": 0.0,
			"-0.011": 0.0,
			"-0.01": 0.0,
			"-0.009": 0.872291200942,
			"-0.008": 4.73268345342,
			"-0.007": 10.8578823071,
			"-0.006": 19.106193258,
			"-0.005": 18.8123445443,
			"-0.004": 21.7552799982,
			"-0.003": 15.5451719499,
			"-0.002": 16.5068356693,
			"-0.001": 12.6875214077,
			"0.0": 14.0268493059,
			"0.001": 16.4789831726,
			"0.002": 15.7028445186,
			"0.003": 16.8527667559,
			"0.004": 16.8719804902,
			"0.005": 9.63020928827,
			"0.006": 2.93872279591,
			"0.007": 3.17490912479,
			"0.008": 2.78416001089,
			"0.009": 3.03354819086,
			"0.01": 5.5594915173,
			"0.011": 4.60408353716,
			"0.012": 1.94006692453,
			"0.013": 1.43653279042,
			"0.014": 0.889782943778,
			"0.015": 1.30204333051,
			"0.016": 0.90099404718,
			"0.017": 0.528614587412,
			"0.018": 0.0,
			"0.019": 0.0,
			"0.02": 0.0,
			"0.021": 0.0,
			"0.022": 0.0,
			"0.023": 0.0,
			"0.024": 0.0,
			"0.025": 0.0
		}
	}
}
