{
	 "smiles": "CSC1=NC2=C(N1)C=CC(NCC1=C(Cl)C=CC=C1)=C2", 
	 "Tm": 481.15, 
	 "num_atms": 34, 
	 "gaussian": { 
		 "optdone": 1, 
		 "sigma_profile": "yes", 
		 "theory": "DFT", 
		 "functional": "B3LYP", 
		 "basiset": "6-31G**", 
		 "properties": { 
			 "R2extent": 10946.7051, 
			 "electric_dipole_moment_norm": 1.84400323752, 
			 "electric_quadrupole_moment_norm": 7.65647153328, 
			 "total_energy": -1602.67947375, 
			 "HOMO_LUMO_gap": 0.16687, 
			 "cosmo_polarized_energy": -16.19, 
			 "cosmo_cavitation_energy": 41.18, 
			 "cosmo_dispersion_energy": -30.27, 
			 "cosmo_repulsion_energy": 2.28, 
			 "cosmo_total_nonelectrostatic_energy": 13.19, 
			 "SMD_solvation_energy": 3.94 
		},
		"coords": [
			{
				"x": -3.9035106502,
				"y": -4.7766121435,
				"z": -0.7824571346,
				"element": "C" 
			},
			{
				"x": -2.8470217647,
				"y": -5.0711239822,
				"z": 0.6771993219,
				"element": "S" 
			},
			{
				"x": -1.9684606402,
				"y": -3.5420429713,
				"z": 0.6997879054,
				"element": "C" 
			},
			{
				"x": -2.109214597,
				"y": -2.5567006287,
				"z": -0.1543982115,
				"element": "N" 
			},
			{
				"x": -1.2111161045,
				"y": -1.5845381416,
				"z": 0.2776496794,
				"element": "C" 
			},
			{
				"x": -0.5211683546,
				"y": -2.0264322931,
				"z": 1.4303774094,
				"element": "C" 
			},
			{
				"x": -1.0323011117,
				"y": -3.2980547458,
				"z": 1.6792730046,
				"element": "N" 
			},
			{
				"x": 0.4387026106,
				"y": -1.2383259702,
				"z": 2.0546226608,
				"element": "C" 
			},
			{
				"x": 0.7042244392,
				"y": 0.0165021235,
				"z": 1.50590839,
				"element": "C" 
			},
			{
				"x": 0.0173821315,
				"y": 0.4884089441,
				"z": 0.3596162593,
				"element": "C" 
			},
			{
				"x": 0.2486715908,
				"y": 1.7684751226,
				"z": -0.1564063585,
				"element": "N" 
			},
			{
				"x": 1.3088588687,
				"y": 2.6467846104,
				"z": 0.2744182758,
				"element": "C" 
			},
			{
				"x": 2.724333137,
				"y": 2.3085017855,
				"z": -0.1954086445,
				"element": "C" 
			},
			{
				"x": 3.8223878205,
				"y": 3.0884125049,
				"z": 0.1935588636,
				"element": "C" 
			},
			{
				"x": 3.5764395302,
				"y": 4.4753393373,
				"z": 1.2624058983,
				"element": "Cl" 
			},
			{
				"x": 5.1197790295,
				"y": 2.8171962048,
				"z": -0.2367417141,
				"element": "C" 
			},
			{
				"x": 5.3439168219,
				"y": 1.7322525729,
				"z": -1.0843281736,
				"element": "C" 
			},
			{
				"x": 4.2720818562,
				"y": 0.9373727837,
				"z": -1.489105418,
				"element": "C" 
			},
			{
				"x": 2.9810513201,
				"y": 1.228008497,
				"z": -1.0474245494,
				"element": "C" 
			},
			{
				"x": -0.9450679899,
				"y": -0.3249320568,
				"z": -0.2605244522,
				"element": "C" 
			},
			{
				"x": -3.2861731768,
				"y": -4.6110211014,
				"z": -1.6650330111,
				"element": "H" 
			},
			{
				"x": -4.5064318336,
				"y": -5.6787062254,
				"z": -0.9015913671,
				"element": "H" 
			},
			{
				"x": -4.542759551,
				"y": -3.9101694946,
				"z": -0.6144961037,
				"element": "H" 
			},
			{
				"x": -0.7791755437,
				"y": -3.9189591236,
				"z": 2.4314244993,
				"element": "H" 
			},
			{
				"x": 0.9797423813,
				"y": -1.5759874322,
				"z": 2.9335253908,
				"element": "H" 
			},
			{
				"x": 1.4660447893,
				"y": 0.6322775396,
				"z": 1.9689005912,
				"element": "H" 
			},
			{
				"x": -0.0874608961,
				"y": 1.915332624,
				"z": -1.0960979896,
				"element": "H" 
			},
			{
				"x": 1.0613565537,
				"y": 3.6582588217,
				"z": -0.0688608291,
				"element": "H" 
			},
			{
				"x": 1.2982888219,
				"y": 2.7120415756,
				"z": 1.3684816505,
				"element": "H" 
			},
			{
				"x": 5.9372260088,
				"y": 3.4506592127,
				"z": 0.0900544113,
				"element": "H" 
			},
			{
				"x": 6.3524388768,
				"y": 1.5145074736,
				"z": -1.4227313682,
				"element": "H" 
			},
			{
				"x": 4.4379694329,
				"y": 0.0895884264,
				"z": -2.147008456,
				"element": "H" 
			},
			{
				"x": 2.1492259075,
				"y": 0.6045308041,
				"z": -1.3571239826,
				"element": "H" 
			},
			{
				"x": -1.4868597141,
				"y": 0.018355346,
				"z": -1.1372664476,
				"element": "H" 
			}
		],
		 "valence_orbital": [ 
			{
				"type": "occ",
				"energy": -0.2565,
				"method": "rhf"
			},
			{
				"type": "occ",
				"energy": -0.25246,
				"method": "rhf"
			},
			{
				"type": "occ",
				"energy": -0.2434,
				"method": "rhf"
			},
			{
				"type": "occ",
				"energy": -0.20894,
				"method": "rhf"
			},
			{
				"type": "occ",
				"energy": -0.18124,
				"method": "rhf"
			},
			{
				"type": "unocc",
				"energy": -0.01437,
				"method": "rhf"
			},
			{
				"type": "unocc",
				"energy": -0.00801,
				"method": "rhf"
			},
			{
				"type": "unocc",
				"energy": -0.00428,
				"method": "rhf"
			},
			{
				"type": "unocc",
				"energy": 0.01907,
				"method": "rhf"
			},
			{
				"type": "unocc",
				"energy": 0.03025,
				"method": "rhf"
			}
		],
		"cosmo_sigma_profile": { 
			"-0.025": 0.0,
			"-0.024": 0.0,
			"-0.023": 0.0,
			"-0.022": 0.0,
			"-0.021": 0.0,
			"-0.02": 0.0,
			"-0.019": 0.0,
			"-0.018": 0.0,
			"-0.017": 0.149695039052,
			"-0.016": 1.58565135117,
			"-0.015": 1.32517815614,
			"-0.014": 1.15992919693,
			"-0.013": 1.61812098884,
			"-0.012": 2.21761759487,
			"-0.011": 2.54064731301,
			"-0.01": 2.86238644369,
			"-0.009": 2.42167374172,
			"-0.008": 2.97914493228,
			"-0.007": 7.94828959628,
			"-0.006": 18.039409713,
			"-0.005": 20.0799978311,
			"-0.004": 22.6741376345,
			"-0.003": 20.6679845707,
			"-0.002": 22.3753183085,
			"-0.001": 18.6271760904,
			"0.0": 18.1324179778,
			"0.001": 18.833363306,
			"0.002": 27.5830053007,
			"0.003": 27.6300153317,
			"0.004": 29.4528766795,
			"0.005": 24.7159528502,
			"0.006": 15.9199462679,
			"0.007": 8.23949403979,
			"0.008": 3.6648774933,
			"0.009": 2.32086099691,
			"0.01": 1.56970473141,
			"0.011": 1.85267342067,
			"0.012": 0.867151938891,
			"0.013": 1.10501984355,
			"0.014": 0.871372876407,
			"0.015": 0.668795661759,
			"0.016": 0.296406792526,
			"0.017": 0.0,
			"0.018": 0.0,
			"0.019": 0.0,
			"0.02": 0.0,
			"0.021": 0.0,
			"0.022": 0.0,
			"0.023": 0.0,
			"0.024": 0.0,
			"0.025": 0.0
		}
	}
}
