{
	 "smiles": "O=C=NC12CC3CC(CC(C3)C1)C2", 
	 "Tm": 418.15, 
	 "num_atms": 28, 
	 "gaussian": { 
		 "optdone": 1, 
		 "sigma_profile": "yes", 
		 "theory": "DFT", 
		 "functional": "B3LYP", 
		 "basiset": "6-31G**", 
		 "properties": { 
			 "R2extent": 2260.2933, 
			 "electric_dipole_moment_norm": 3.42897167967, 
			 "electric_quadrupole_moment_norm": 12.4435330288, 
			 "total_energy": -558.218719512, 
			 "HOMO_LUMO_gap": 0.28687, 
			 "cosmo_polarized_energy": -4.26, 
			 "cosmo_cavitation_energy": 27.36, 
			 "cosmo_dispersion_energy": -20.35, 
			 "cosmo_repulsion_energy": 1.58, 
			 "cosmo_total_nonelectrostatic_energy": 8.6, 
			 "SMD_solvation_energy": 4.79 
		},
		"coords": [
			{
				"x": -0.0751410014,
				"y": 4.1566498279,
				"z": 1.8786231433,
				"element": "O" 
			},
			{
				"x": 0.2077427108,
				"y": 3.0335839027,
				"z": 1.6393640767,
				"element": "C" 
			},
			{
				"x": 0.6039380361,
				"y": 1.9020876265,
				"z": 1.4942753146,
				"element": "N" 
			},
			{
				"x": 0.2805794082,
				"y": 0.7209461626,
				"z": 0.7029948534,
				"element": "C" 
			},
			{
				"x": 0.4186541078,
				"y": 1.0252732925,
				"z": -0.8067561037,
				"element": "C" 
			},
			{
				"x": 0.1069571655,
				"y": -0.244761018,
				"z": -1.6267933648,
				"element": "C" 
			},
			{
				"x": -1.3345668676,
				"y": -0.7073512934,
				"z": -1.3281739396,
				"element": "C" 
			},
			{
				"x": -1.475126366,
				"y": -1.0202071631,
				"z": 0.1762724616,
				"element": "C" 
			},
			{
				"x": -0.4841895994,
				"y": -2.13745765,
				"z": 0.5644377999,
				"element": "C" 
			},
			{
				"x": 0.9572127686,
				"y": -1.6740702162,
				"z": 0.2666702111,
				"element": "C" 
			},
			{
				"x": 1.0973479668,
				"y": -1.3622330181,
				"z": -1.2379486374,
				"element": "C" 
			},
			{
				"x": 1.2668397038,
				"y": -0.4037376386,
				"z": 1.0847216785,
				"element": "C" 
			},
			{
				"x": -1.1629010868,
				"y": 0.2500510539,
				"z": 0.9957862299,
				"element": "C" 
			},
			{
				"x": 1.435357845,
				"y": 1.3807436308,
				"z": -1.0124641506,
				"element": "H" 
			},
			{
				"x": -0.270546639,
				"y": 1.8356756474,
				"z": -1.0770488815,
				"element": "H" 
			},
			{
				"x": 0.2083290509,
				"y": -0.014704319,
				"z": -2.6945724178,
				"element": "H" 
			},
			{
				"x": -2.0500696379,
				"y": 0.0720633068,
				"z": -1.6208908717,
				"element": "H" 
			},
			{
				"x": -1.5738078606,
				"y": -1.5989748836,
				"z": -1.9216081975,
				"element": "H" 
			},
			{
				"x": -2.5009401718,
				"y": -1.3426181052,
				"z": 0.3933029673,
				"element": "H" 
			},
			{
				"x": -0.7100278923,
				"y": -3.0523375234,
				"z": 0.0018639493,
				"element": "H" 
			},
			{
				"x": -0.5897587285,
				"y": -2.3829977143,
				"z": 1.6290847196,
				"element": "H" 
			},
			{
				"x": 1.6648989879,
				"y": -2.4633377124,
				"z": 0.5482564914,
				"element": "H" 
			},
			{
				"x": 2.1254224858,
				"y": -1.0519680652,
				"z": -1.4653685995,
				"element": "H" 
			},
			{
				"x": 0.8977010149,
				"y": -2.2643327104,
				"z": -1.8302798551,
				"element": "H" 
			},
			{
				"x": 2.2918294057,
				"y": -0.0616339543,
				"z": 0.8982818842,
				"element": "H" 
			},
			{
				"x": 1.1849258098,
				"y": -0.6041886826,
				"z": 2.1596745547,
				"element": "H" 
			},
			{
				"x": -1.8647771752,
				"y": 1.0542623394,
				"z": 0.7399148061,
				"element": "H" 
			},
			{
				"x": -1.2688834408,
				"y": 0.0553748773,
				"z": 2.0696798777,
				"element": "H" 
			}
		],
		 "valence_orbital": [ 
			{
				"type": "occ",
				"energy": -0.31266,
				"method": "rhf"
			},
			{
				"type": "occ",
				"energy": -0.29721,
				"method": "rhf"
			},
			{
				"type": "occ",
				"energy": -0.29568,
				"method": "rhf"
			},
			{
				"type": "occ",
				"energy": -0.27409,
				"method": "rhf"
			},
			{
				"type": "occ",
				"energy": -0.26327,
				"method": "rhf"
			},
			{
				"type": "unocc",
				"energy": 0.0236,
				"method": "rhf"
			},
			{
				"type": "unocc",
				"energy": 0.06759,
				"method": "rhf"
			},
			{
				"type": "unocc",
				"energy": 0.07046,
				"method": "rhf"
			},
			{
				"type": "unocc",
				"energy": 0.1097,
				"method": "rhf"
			},
			{
				"type": "unocc",
				"energy": 0.1175,
				"method": "rhf"
			}
		],
		"cosmo_sigma_profile": { 
			"-0.025": 0.0,
			"-0.024": 0.0,
			"-0.023": 0.0,
			"-0.022": 0.0,
			"-0.021": 0.0,
			"-0.02": 0.0,
			"-0.019": 0.0,
			"-0.018": 0.0,
			"-0.017": 0.0,
			"-0.016": 0.0,
			"-0.015": 0.0,
			"-0.014": 0.0,
			"-0.013": 0.0,
			"-0.012": 0.0,
			"-0.011": 0.0,
			"-0.01": 0.0,
			"-0.009": 0.0,
			"-0.008": 0.0,
			"-0.007": 0.0,
			"-0.006": 0.0657008621957,
			"-0.005": 1.61363588872,
			"-0.004": 4.6879352115,
			"-0.003": 19.6714872825,
			"-0.002": 45.1798872562,
			"-0.001": 43.7091639861,
			"0.0": 41.1282370241,
			"0.001": 20.0867782254,
			"0.002": 6.17899669892,
			"0.003": 3.379424657,
			"0.004": 4.45575341317,
			"0.005": 2.48457279159,
			"0.006": 3.51756202277,
			"0.007": 3.93959548713,
			"0.008": 5.783552483,
			"0.009": 6.00567289473,
			"0.01": 0.0,
			"0.011": 0.0,
			"0.012": 0.0,
			"0.013": 0.0,
			"0.014": 0.0,
			"0.015": 0.0,
			"0.016": 0.0,
			"0.017": 0.0,
			"0.018": 0.0,
			"0.019": 0.0,
			"0.02": 0.0,
			"0.021": 0.0,
			"0.022": 0.0,
			"0.023": 0.0,
			"0.024": 0.0,
			"0.025": 0.0
		}
	}
}
