{
	 "smiles": "OC(=O)C1=NC=CN2C(Br)=CN=C12", 
	 "Tm": 432.15, 
	 "num_atms": 17, 
	 "gaussian": { 
		 "optdone": 1, 
		 "sigma_profile": "yes", 
		 "theory": "DFT", 
		 "functional": "B3LYP", 
		 "basiset": "6-31G**", 
		 "properties": { 
			 "R2extent": 4199.0719, 
			 "electric_dipole_moment_norm": 7.03276170363, 
			 "electric_quadrupole_moment_norm": 11.7324885272, 
			 "total_energy": -3155.24352171, 
			 "HOMO_LUMO_gap": 0.15467, 
			 "cosmo_polarized_energy": -18.48, 
			 "cosmo_cavitation_energy": 24.79, 
			 "cosmo_dispersion_energy": -19.09, 
			 "cosmo_repulsion_energy": 1.49, 
			 "cosmo_total_nonelectrostatic_energy": 7.18, 
			 "SMD_solvation_energy": 2.79 
		},
		"coords": [
			{
				"x": 0.553173286,
				"y": -0.4008057184,
				"z": 3.3781623992,
				"element": "O" 
			},
			{
				"x": 0.1599979721,
				"y": 0.6135410757,
				"z": 2.5898649625,
				"element": "C" 
			},
			{
				"x": -0.0990121842,
				"y": 1.7154379193,
				"z": 3.00436183,
				"element": "O" 
			},
			{
				"x": 0.0804721572,
				"y": 0.213944591,
				"z": 1.1273071392,
				"element": "C" 
			},
			{
				"x": 0.4030210458,
				"y": -1.040625897,
				"z": 0.8628009644,
				"element": "N" 
			},
			{
				"x": 0.3623146373,
				"y": -1.4933465521,
				"z": -0.4208169801,
				"element": "C" 
			},
			{
				"x": -0.0017860412,
				"y": -0.7050236721,
				"z": -1.4756859389,
				"element": "C" 
			},
			{
				"x": -0.3378916471,
				"y": 0.5978260413,
				"z": -1.209937248,
				"element": "N" 
			},
			{
				"x": -0.7386289936,
				"y": 1.6316686661,
				"z": -2.013015237,
				"element": "C" 
			},
			{
				"x": -0.9314157584,
				"y": 1.4498647521,
				"z": -3.8635692604,
				"element": "Br" 
			},
			{
				"x": -0.9368378892,
				"y": 2.717404678,
				"z": -1.1721681605,
				"element": "C" 
			},
			{
				"x": -0.676131856,
				"y": 2.4009752425,
				"z": 0.1179119128,
				"element": "N" 
			},
			{
				"x": -0.3129997597,
				"y": 1.1225378427,
				"z": 0.1093891274,
				"element": "C" 
			},
			{
				"x": 0.6949945325,
				"y": -1.1719464365,
				"z": 2.7899210873,
				"element": "H" 
			},
			{
				"x": 0.6359079513,
				"y": -2.5296824487,
				"z": -0.5849441918,
				"element": "H" 
			},
			{
				"x": -0.0449269474,
				"y": -1.0318691304,
				"z": -2.5064069758,
				"element": "H" 
			},
			{
				"x": -1.2577505052,
				"y": 3.7069990465,
				"z": -1.4668754303,
				"element": "H" 
			}
		],
		 "valence_orbital": [ 
			{
				"type": "occ",
				"energy": -0.3101,
				"method": "rhf"
			},
			{
				"type": "occ",
				"energy": -0.3017,
				"method": "rhf"
			},
			{
				"type": "occ",
				"energy": -0.27995,
				"method": "rhf"
			},
			{
				"type": "occ",
				"energy": -0.2638,
				"method": "rhf"
			},
			{
				"type": "occ",
				"energy": -0.24831,
				"method": "rhf"
			},
			{
				"type": "unocc",
				"energy": -0.09364,
				"method": "rhf"
			},
			{
				"type": "unocc",
				"energy": -0.041,
				"method": "rhf"
			},
			{
				"type": "unocc",
				"energy": -0.0176,
				"method": "rhf"
			},
			{
				"type": "unocc",
				"energy": 0.02651,
				"method": "rhf"
			},
			{
				"type": "unocc",
				"energy": 0.03493,
				"method": "rhf"
			}
		],
		"cosmo_sigma_profile": { 
			"-0.025": 0.0,
			"-0.024": 0.0,
			"-0.023": 0.0,
			"-0.022": 0.0,
			"-0.021": 0.0,
			"-0.02": 0.0,
			"-0.019": 0.0,
			"-0.018": 0.0,
			"-0.017": 0.0,
			"-0.016": 0.0,
			"-0.015": 0.0,
			"-0.014": 0.0,
			"-0.013": 0.220458521609,
			"-0.012": 0.719617063618,
			"-0.011": 1.03394506083,
			"-0.01": 3.12011718613,
			"-0.009": 6.10819259559,
			"-0.008": 6.17313191369,
			"-0.007": 6.62801807148,
			"-0.006": 10.2325985755,
			"-0.005": 16.7398954115,
			"-0.004": 15.0681605603,
			"-0.003": 13.4750484516,
			"-0.002": 13.7719955358,
			"-0.001": 15.6802332271,
			"0.0": 15.5609385411,
			"0.001": 12.8893167019,
			"0.002": 12.76673173,
			"0.003": 9.04259332139,
			"0.004": 4.33617154575,
			"0.005": 2.32870719463,
			"0.006": 3.47336234784,
			"0.007": 3.8183902427,
			"0.008": 3.6199164364,
			"0.009": 5.05711298342,
			"0.01": 5.55489973301,
			"0.011": 5.35511070165,
			"0.012": 4.29001885502,
			"0.013": 2.11999531398,
			"0.014": 1.44503818715,
			"0.015": 1.44176413244,
			"0.016": 1.04022690378,
			"0.017": 1.1980427753,
			"0.018": 0.239909856762,
			"0.019": 0.0,
			"0.02": 0.0,
			"0.021": 0.0,
			"0.022": 0.0,
			"0.023": 0.0,
			"0.024": 0.0,
			"0.025": 0.0
		}
	}
}
