{
	 "smiles": "OC(=O)COC1=CC=CC=C1C(O)=O", 
	 "Tm": 463.15, 
	 "num_atms": 22, 
	 "gaussian": { 
		 "optdone": 1, 
		 "sigma_profile": "yes", 
		 "theory": "DFT", 
		 "functional": "B3LYP", 
		 "basiset": "6-31G**", 
		 "properties": { 
			 "R2extent": 3381.0, 
			 "electric_dipole_moment_norm": 4.25195407901, 
			 "electric_quadrupole_moment_norm": 23.9209014251, 
			 "total_energy": -723.911177632, 
			 "HOMO_LUMO_gap": 0.18819, 
			 "cosmo_polarized_energy": -17.26, 
			 "cosmo_cavitation_energy": 26.9, 
			 "cosmo_dispersion_energy": -19.87, 
			 "cosmo_repulsion_energy": 1.55, 
			 "cosmo_total_nonelectrostatic_energy": 8.58, 
			 "SMD_solvation_energy": 7.36 
		},
		"coords": [
			{
				"x": -2.6145252123,
				"y": 1.7237748748,
				"z": 2.2266002451,
				"element": "O" 
			},
			{
				"x": -1.782908503,
				"y": 1.5658147908,
				"z": 3.2624359032,
				"element": "C" 
			},
			{
				"x": -2.0311731744,
				"y": 1.9441057151,
				"z": 4.3809136079,
				"element": "O" 
			},
			{
				"x": -0.4459021037,
				"y": 0.8853183448,
				"z": 2.9422628238,
				"element": "C" 
			},
			{
				"x": -0.515993067,
				"y": 0.3911688732,
				"z": 1.6105695727,
				"element": "O" 
			},
			{
				"x": 0.6041972768,
				"y": 0.1858467661,
				"z": 0.8670719569,
				"element": "C" 
			},
			{
				"x": 1.8598089913,
				"y": -0.0195866771,
				"z": 1.4501982403,
				"element": "C" 
			},
			{
				"x": 2.9705842903,
				"y": -0.2719379076,
				"z": 0.6469601651,
				"element": "C" 
			},
			{
				"x": 2.8436541921,
				"y": -0.3327141159,
				"z": -0.7420063429,
				"element": "C" 
			},
			{
				"x": 1.5957421732,
				"y": -0.1301880325,
				"z": -1.3193222567,
				"element": "C" 
			},
			{
				"x": 0.4605750805,
				"y": 0.1429381066,
				"z": -0.5392101953,
				"element": "C" 
			},
			{
				"x": -0.7992647027,
				"y": 0.3817864032,
				"z": -1.2963106963,
				"element": "C" 
			},
			{
				"x": -1.8591177469,
				"y": 0.8382947876,
				"z": -0.5688552807,
				"element": "O" 
			},
			{
				"x": -0.9053264868,
				"y": 0.2168677456,
				"z": -2.4951372502,
				"element": "O" 
			},
			{
				"x": -2.2166991008,
				"y": 1.3370547382,
				"z": 1.4197151106,
				"element": "H" 
			},
			{
				"x": -0.2796145572,
				"y": 0.0801012509,
				"z": 3.6658990317,
				"element": "H" 
			},
			{
				"x": 0.3542283916,
				"y": 1.627261896,
				"z": 3.0516850248,
				"element": "H" 
			},
			{
				"x": 1.9647544132,
				"y": -0.0024728724,
				"z": 2.5289434131,
				"element": "H" 
			},
			{
				"x": 3.9375383724,
				"y": -0.430643145,
				"z": 1.115385872,
				"element": "H" 
			},
			{
				"x": 3.7078578312,
				"y": -0.5347044586,
				"z": -1.36588659,
				"element": "H" 
			},
			{
				"x": 1.4628434713,
				"y": -0.1666790859,
				"z": -2.39483055,
				"element": "H" 
			},
			{
				"x": -2.5730598289,
				"y": 0.9572920022,
				"z": -1.2186818051,
				"element": "H" 
			}
		],
		 "valence_orbital": [ 
			{
				"type": "occ",
				"energy": -0.31081,
				"method": "rhf"
			},
			{
				"type": "occ",
				"energy": -0.29468,
				"method": "rhf"
			},
			{
				"type": "occ",
				"energy": -0.2789,
				"method": "rhf"
			},
			{
				"type": "occ",
				"energy": -0.2747,
				"method": "rhf"
			},
			{
				"type": "occ",
				"energy": -0.25256,
				"method": "rhf"
			},
			{
				"type": "unocc",
				"energy": -0.06437,
				"method": "rhf"
			},
			{
				"type": "unocc",
				"energy": -0.01808,
				"method": "rhf"
			},
			{
				"type": "unocc",
				"energy": 0.00872,
				"method": "rhf"
			},
			{
				"type": "unocc",
				"energy": 0.03828,
				"method": "rhf"
			},
			{
				"type": "unocc",
				"energy": 0.06395,
				"method": "rhf"
			}
		],
		"cosmo_sigma_profile": { 
			"-0.025": 0.0,
			"-0.024": 0.0,
			"-0.023": 0.0,
			"-0.022": 0.0,
			"-0.021": 0.0,
			"-0.02": 0.0,
			"-0.019": 0.125505582317,
			"-0.018": 1.09551416402,
			"-0.017": 0.684855537657,
			"-0.016": 0.70606568171,
			"-0.015": 0.792839194804,
			"-0.014": 0.768757331875,
			"-0.013": 0.64379364686,
			"-0.012": 0.764304505013,
			"-0.011": 1.12154512936,
			"-0.01": 0.370643760166,
			"-0.009": 4.74204794463,
			"-0.008": 10.8652543584,
			"-0.007": 10.6815495288,
			"-0.006": 12.5383311755,
			"-0.005": 11.7245700086,
			"-0.004": 11.4632638873,
			"-0.003": 13.0767660102,
			"-0.002": 12.1605927694,
			"-0.001": 10.1466334462,
			"0.0": 13.5321262667,
			"0.001": 12.3347025934,
			"0.002": 14.8343604181,
			"0.003": 14.6628832882,
			"0.004": 8.85598607205,
			"0.005": 4.03184235178,
			"0.006": 4.28521096168,
			"0.007": 3.59096770762,
			"0.008": 4.20068921247,
			"0.009": 4.87345294521,
			"0.01": 7.55875259685,
			"0.011": 9.25850130812,
			"0.012": 7.2807536199,
			"0.013": 1.67170750639,
			"0.014": 0.0091822648177,
			"0.015": 0.0,
			"0.016": 0.0,
			"0.017": 0.0,
			"0.018": 0.0,
			"0.019": 0.0,
			"0.02": 0.0,
			"0.021": 0.0,
			"0.022": 0.0,
			"0.023": 0.0,
			"0.024": 0.0,
			"0.025": 0.0
		}
	}
}
