{
	 "smiles": "NC1=CC=C(NC2=CC=CC=C2)C2=C1C(=O)C1=C(C=CC=C1)C2=O", 
	 "Tm": 465.15, 
	 "num_atms": 38, 
	 "gaussian": { 
		 "optdone": 1, 
		 "sigma_profile": "yes", 
		 "theory": "DFT", 
		 "functional": "B3LYP", 
		 "basiset": "6-31G**", 
		 "properties": { 
			 "R2extent": 9327.0159, 
			 "electric_dipole_moment_norm": 2.29360907959, 
			 "electric_quadrupole_moment_norm": 16.8310914085, 
			 "total_energy": -1030.55687415, 
			 "HOMO_LUMO_gap": 0.0892, 
			 "cosmo_polarized_energy": -13.86, 
			 "cosmo_cavitation_energy": 41.14, 
			 "cosmo_dispersion_energy": -30.65, 
			 "cosmo_repulsion_energy": 2.23, 
			 "cosmo_total_nonelectrostatic_energy": 12.73, 
			 "SMD_solvation_energy": 6.65 
		},
		"coords": [
			{
				"x": 0.3624231845,
				"y": 4.7285528427,
				"z": 0.3762763657,
				"element": "N" 
			},
			{
				"x": -0.0474436191,
				"y": 3.4421616626,
				"z": 0.5226002831,
				"element": "C" 
			},
			{
				"x": -1.3174445094,
				"y": 3.1862949033,
				"z": 1.1133381073,
				"element": "C" 
			},
			{
				"x": -1.8076743275,
				"y": 1.9177476047,
				"z": 1.2522119564,
				"element": "C" 
			},
			{
				"x": -1.0715354155,
				"y": 0.7808795724,
				"z": 0.809408808,
				"element": "C" 
			},
			{
				"x": -1.5767574266,
				"y": -0.4871575294,
				"z": 0.9643556233,
				"element": "N" 
			},
			{
				"x": -2.8997670301,
				"y": -0.8888428858,
				"z": 1.2129550847,
				"element": "C" 
			},
			{
				"x": -4.0203611562,
				"y": -0.217995329,
				"z": 0.6923524254,
				"element": "C" 
			},
			{
				"x": -5.3048627672,
				"y": -0.6982753255,
				"z": 0.9452522904,
				"element": "C" 
			},
			{
				"x": -5.4984272051,
				"y": -1.8599504328,
				"z": 1.6945313345,
				"element": "C" 
			},
			{
				"x": -4.3859089625,
				"y": -2.5447020512,
				"z": 2.1898065899,
				"element": "C" 
			},
			{
				"x": -3.099926541,
				"y": -2.0639588327,
				"z": 1.9587055925,
				"element": "C" 
			},
			{
				"x": 0.2265368124,
				"y": 0.9927680178,
				"z": 0.2699963595,
				"element": "C" 
			},
			{
				"x": 0.7368195389,
				"y": 2.3323338202,
				"z": 0.1157891637,
				"element": "C" 
			},
			{
				"x": 2.0630198661,
				"y": 2.5720815871,
				"z": -0.460787253,
				"element": "C" 
			},
			{
				"x": 2.5367925305,
				"y": 3.7155098567,
				"z": -0.6138999476,
				"element": "O" 
			},
			{
				"x": 2.8694743809,
				"y": 1.4004389023,
				"z": -0.8851325971,
				"element": "C" 
			},
			{
				"x": 2.3827198925,
				"y": 0.0930302283,
				"z": -0.7219769102,
				"element": "C" 
			},
			{
				"x": 3.1664692534,
				"y": -0.9967932832,
				"z": -1.1286672707,
				"element": "C" 
			},
			{
				"x": 4.4181959388,
				"y": -0.7837179113,
				"z": -1.6951249388,
				"element": "C" 
			},
			{
				"x": 4.9035168668,
				"y": 0.5212823533,
				"z": -1.8579457082,
				"element": "C" 
			},
			{
				"x": 4.1340593131,
				"y": 1.6067704017,
				"z": -1.4540713644,
				"element": "C" 
			},
			{
				"x": 1.0527982011,
				"y": -0.1576211902,
				"z": -0.1142776378,
				"element": "C" 
			},
			{
				"x": 0.6873374967,
				"y": -1.3400225444,
				"z": 0.0550510964,
				"element": "O" 
			},
			{
				"x": -0.1887390051,
				"y": 5.4772658076,
				"z": 0.7608564194,
				"element": "H" 
			},
			{
				"x": 1.2986054944,
				"y": 4.8762118159,
				"z": 0.0112472439,
				"element": "H" 
			},
			{
				"x": -1.9022878576,
				"y": 4.0299296964,
				"z": 1.472085619,
				"element": "H" 
			},
			{
				"x": -2.7653804434,
				"y": 1.7664958534,
				"z": 1.7349197604,
				"element": "H" 
			},
			{
				"x": -0.8793775037,
				"y": -1.2103524149,
				"z": 0.7635056663,
				"element": "H" 
			},
			{
				"x": -3.8839890543,
				"y": 0.6559958112,
				"z": 0.064908344,
				"element": "H" 
			},
			{
				"x": -6.1591952327,
				"y": -0.1678359835,
				"z": 0.5338949232,
				"element": "H" 
			},
			{
				"x": -6.50100403,
				"y": -2.2312821026,
				"z": 1.8829174001,
				"element": "H" 
			},
			{
				"x": -4.5188690214,
				"y": -3.4544345277,
				"z": 2.7684328868,
				"element": "H" 
			},
			{
				"x": -2.236030118,
				"y": -2.5867921241,
				"z": 2.3591790223,
				"element": "H" 
			},
			{
				"x": 2.7686270158,
				"y": -1.995614994,
				"z": -0.9881264553,
				"element": "H" 
			},
			{
				"x": 5.0208958166,
				"y": -1.6303193156,
				"z": -2.0112570222,
				"element": "H" 
			},
			{
				"x": 5.8823113099,
				"y": 0.6850909183,
				"z": -2.2996373861,
				"element": "H" 
			},
			{
				"x": 4.4846783142,
				"y": 2.6267271219,
				"z": -1.566273875,
				"element": "H" 
			}
		],
		 "valence_orbital": [ 
			{
				"type": "occ",
				"energy": -0.2552,
				"method": "rhf"
			},
			{
				"type": "occ",
				"energy": -0.25344,
				"method": "rhf"
			},
			{
				"type": "occ",
				"energy": -0.24873,
				"method": "rhf"
			},
			{
				"type": "occ",
				"energy": -0.23398,
				"method": "rhf"
			},
			{
				"type": "occ",
				"energy": -0.18157,
				"method": "rhf"
			},
			{
				"type": "unocc",
				"energy": -0.09237,
				"method": "rhf"
			},
			{
				"type": "unocc",
				"energy": -0.04073,
				"method": "rhf"
			},
			{
				"type": "unocc",
				"energy": -0.01545,
				"method": "rhf"
			},
			{
				"type": "unocc",
				"energy": -0.005,
				"method": "rhf"
			},
			{
				"type": "unocc",
				"energy": -0.0039,
				"method": "rhf"
			}
		],
		"cosmo_sigma_profile": { 
			"-0.025": 0.0,
			"-0.024": 0.0,
			"-0.023": 0.0,
			"-0.022": 0.0,
			"-0.021": 0.0,
			"-0.02": 0.0,
			"-0.019": 0.0,
			"-0.018": 0.0,
			"-0.017": 0.0,
			"-0.016": 0.0,
			"-0.015": 0.0517420038066,
			"-0.014": 1.19858897024,
			"-0.013": 1.73853334712,
			"-0.012": 1.30849212117,
			"-0.011": 1.46591354284,
			"-0.01": 1.16119058944,
			"-0.009": 1.87187438429,
			"-0.008": 3.17011358084,
			"-0.007": 7.18923107294,
			"-0.006": 16.9826176485,
			"-0.005": 23.5361867746,
			"-0.004": 23.8789444238,
			"-0.003": 18.9780363692,
			"-0.002": 18.5192277191,
			"-0.001": 22.4990140127,
			"0.0": 21.4868199754,
			"0.001": 30.3045357286,
			"0.002": 41.2008917998,
			"0.003": 33.9074220922,
			"0.004": 18.0987138986,
			"0.005": 13.4003904419,
			"0.006": 9.76041405313,
			"0.007": 3.76703645653,
			"0.008": 1.97705016951,
			"0.009": 3.50622933958,
			"0.01": 3.69190905841,
			"0.011": 3.61428866911,
			"0.012": 3.32483598412,
			"0.013": 0.116826712705,
			"0.014": 0.0,
			"0.015": 0.0,
			"0.016": 0.0,
			"0.017": 0.0,
			"0.018": 0.0,
			"0.019": 0.0,
			"0.02": 0.0,
			"0.021": 0.0,
			"0.022": 0.0,
			"0.023": 0.0,
			"0.024": 0.0,
			"0.025": 0.0
		}
	}
}
