{
	 "smiles": "COC1=CC=C(NC2=NC3=C(O2)C=CC(=C3)S(=O)(=O)N2CCOCC2)C=C1", 
	 "Tm": 493.15, 
	 "num_atms": 46, 
	 "gaussian": { 
		 "optdone": 1, 
		 "sigma_profile": "yes", 
		 "theory": "DFT", 
		 "functional": "B3LYP", 
		 "basiset": "6-31G**", 
		 "properties": { 
			 "R2extent": 18780.9583, 
			 "electric_dipole_moment_norm": 4.60695935298, 
			 "electric_quadrupole_moment_norm": 33.3012105076, 
			 "total_energy": -1635.8253955, 
			 "HOMO_LUMO_gap": 0.17047, 
			 "cosmo_polarized_energy": -22.91, 
			 "cosmo_cavitation_energy": 50.81, 
			 "cosmo_dispersion_energy": -37.24, 
			 "cosmo_repulsion_energy": 2.73, 
			 "cosmo_total_nonelectrostatic_energy": 16.3, 
			 "SMD_solvation_energy": 6.43 
		},
		"coords": [
			{
				"x": -8.84542549,
				"y": -0.0914703397,
				"z": 1.3903837186,
				"element": "C" 
			},
			{
				"x": -8.3109237535,
				"y": -1.3849084688,
				"z": 1.6210816127,
				"element": "O" 
			},
			{
				"x": -6.9928697607,
				"y": -1.5966731352,
				"z": 1.3324448326,
				"element": "C" 
			},
			{
				"x": -6.5154291056,
				"y": -2.8931848102,
				"z": 1.5758573751,
				"element": "C" 
			},
			{
				"x": -5.1914326811,
				"y": -3.2107914719,
				"z": 1.3159296182,
				"element": "C" 
			},
			{
				"x": -4.3100721756,
				"y": -2.2428931189,
				"z": 0.8062531723,
				"element": "C" 
			},
			{
				"x": -2.9751733021,
				"y": -2.6414899029,
				"z": 0.5652745468,
				"element": "N" 
			},
			{
				"x": -1.9456863798,
				"y": -1.904717518,
				"z": 0.0894207053,
				"element": "C" 
			},
			{
				"x": -1.8950533729,
				"y": -0.6528626728,
				"z": -0.2659688437,
				"element": "N" 
			},
			{
				"x": -0.5704934339,
				"y": -0.477760568,
				"z": -0.6653064742,
				"element": "C" 
			},
			{
				"x": 0.1246057526,
				"y": -1.6884485601,
				"z": -0.5190641656,
				"element": "C" 
			},
			{
				"x": -0.7665043045,
				"y": -2.617311779,
				"z": -0.028960987,
				"element": "O" 
			},
			{
				"x": 1.4607175291,
				"y": -1.8675419718,
				"z": -0.8328585931,
				"element": "C" 
			},
			{
				"x": 2.1312441834,
				"y": -0.7419284321,
				"z": -1.3189619063,
				"element": "C" 
			},
			{
				"x": 1.451951392,
				"y": 0.4778929348,
				"z": -1.4656906528,
				"element": "C" 
			},
			{
				"x": 0.09875635,
				"y": 0.6435383621,
				"z": -1.1543578259,
				"element": "C" 
			},
			{
				"x": 2.3635839411,
				"y": 1.8842838188,
				"z": -2.1047065679,
				"element": "S" 
			},
			{
				"x": 3.3280458902,
				"y": 1.4116209842,
				"z": -3.1046534513,
				"element": "O" 
			},
			{
				"x": 1.3828724466,
				"y": 2.9257860042,
				"z": -2.4430096489,
				"element": "O" 
			},
			{
				"x": 3.2815361597,
				"y": 2.3474958477,
				"z": -0.7588060449,
				"element": "N" 
			},
			{
				"x": 4.6429548752,
				"y": 2.84069225,
				"z": -1.0062547544,
				"element": "C" 
			},
			{
				"x": 5.4497007913,
				"y": 2.6483832123,
				"z": 0.28703334,
				"element": "C" 
			},
			{
				"x": 4.6862768388,
				"y": 2.9094729099,
				"z": 1.4661861995,
				"element": "O" 
			},
			{
				"x": 3.5758517899,
				"y": 3.7523649199,
				"z": 1.2276638401,
				"element": "C" 
			},
			{
				"x": 2.5519846876,
				"y": 3.0738554945,
				"z": 0.3026508512,
				"element": "C" 
			},
			{
				"x": -4.7812172421,
				"y": -0.9501385913,
				"z": 0.5623301254,
				"element": "C" 
			},
			{
				"x": -6.1169820295,
				"y": -0.6321128722,
				"z": 0.8254401229,
				"element": "C" 
			},
			{
				"x": -9.8955706224,
				"y": -0.1422357538,
				"z": 1.6820691818,
				"element": "H" 
			},
			{
				"x": -8.7787460618,
				"y": 0.1922088076,
				"z": 0.3319497905,
				"element": "H" 
			},
			{
				"x": -8.3394419096,
				"y": 0.6707983122,
				"z": 1.9971831011,
				"element": "H" 
			},
			{
				"x": -7.2009585128,
				"y": -3.6362199837,
				"z": 1.9691638786,
				"element": "H" 
			},
			{
				"x": -4.8357520573,
				"y": -4.2203225926,
				"z": 1.5097324355,
				"element": "H" 
			},
			{
				"x": -2.7445190429,
				"y": -3.6034344851,
				"z": 0.7667905823,
				"element": "H" 
			},
			{
				"x": 1.9576640472,
				"y": -2.8235766016,
				"z": -0.7143287368,
				"element": "H" 
			},
			{
				"x": 3.1759888359,
				"y": -0.8069256089,
				"z": -1.5993828984,
				"element": "H" 
			},
			{
				"x": -0.398306193,
				"y": 1.5939435763,
				"z": -1.3052588926,
				"element": "H" 
			},
			{
				"x": 4.6418073357,
				"y": 3.8951039212,
				"z": -1.3190768406,
				"element": "H" 
			},
			{
				"x": 5.0864624821,
				"y": 2.2604692566,
				"z": -1.815957979,
				"element": "H" 
			},
			{
				"x": 6.336789846,
				"y": 3.3002633051,
				"z": 0.2559663524,
				"element": "H" 
			},
			{
				"x": 5.7880241806,
				"y": 1.61047331,
				"z": 0.368767415,
				"element": "H" 
			},
			{
				"x": 3.8926583437,
				"y": 4.7191370154,
				"z": 0.8067295326,
				"element": "H" 
			},
			{
				"x": 3.1164566452,
				"y": 3.9535573191,
				"z": 2.1990913786,
				"element": "H" 
			},
			{
				"x": 1.8742767737,
				"y": 3.8295050068,
				"z": -0.1167109646,
				"element": "H" 
			},
			{
				"x": 1.9556919072,
				"y": 2.3486853478,
				"z": 0.8666628285,
				"element": "H" 
			},
			{
				"x": -4.1080341648,
				"y": -0.1993442171,
				"z": 0.169602906,
				"element": "H" 
			},
			{
				"x": -6.4556114288,
				"y": 0.3776615389,
				"z": 0.6265567844,
				"element": "H" 
			}
		],
		 "valence_orbital": [ 
			{
				"type": "occ",
				"energy": -0.26031,
				"method": "rhf"
			},
			{
				"type": "occ",
				"energy": -0.25613,
				"method": "rhf"
			},
			{
				"type": "occ",
				"energy": -0.24673,
				"method": "rhf"
			},
			{
				"type": "occ",
				"energy": -0.23808,
				"method": "rhf"
			},
			{
				"type": "occ",
				"energy": -0.20076,
				"method": "rhf"
			},
			{
				"type": "unocc",
				"energy": -0.03029,
				"method": "rhf"
			},
			{
				"type": "unocc",
				"energy": -0.02451,
				"method": "rhf"
			},
			{
				"type": "unocc",
				"energy": -0.0096,
				"method": "rhf"
			},
			{
				"type": "unocc",
				"energy": 0.00987,
				"method": "rhf"
			},
			{
				"type": "unocc",
				"energy": 0.05535,
				"method": "rhf"
			}
		],
		"cosmo_sigma_profile": { 
			"-0.025": 0.0,
			"-0.024": 0.0,
			"-0.023": 0.0,
			"-0.022": 0.0,
			"-0.021": 0.0,
			"-0.02": 0.0,
			"-0.019": 0.0,
			"-0.018": 0.0,
			"-0.017": 0.175957855656,
			"-0.016": 1.06933923019,
			"-0.015": 1.40693991394,
			"-0.014": 1.22742631592,
			"-0.013": 0.712640282031,
			"-0.012": 1.27496632694,
			"-0.011": 1.25124656092,
			"-0.01": 0.977541548167,
			"-0.009": 1.83508940971,
			"-0.008": 3.76834317515,
			"-0.007": 7.20698342468,
			"-0.006": 20.2102714524,
			"-0.005": 41.423013464,
			"-0.004": 38.5791510009,
			"-0.003": 35.717283152,
			"-0.002": 26.097286305,
			"-0.001": 23.0153579973,
			"0.0": 23.0886826152,
			"0.001": 29.1029758121,
			"0.002": 23.0337151741,
			"0.003": 22.9472016292,
			"0.004": 21.4455118146,
			"0.005": 19.7915155527,
			"0.006": 8.38011503755,
			"0.007": 8.4188059345,
			"0.008": 8.35511849594,
			"0.009": 7.70101903386,
			"0.01": 10.046208518,
			"0.011": 9.73603702096,
			"0.012": 5.15306974262,
			"0.013": 1.55543280573,
			"0.014": 0.0772639868552,
			"0.015": 0.0,
			"0.016": 0.0,
			"0.017": 0.0,
			"0.018": 0.0,
			"0.019": 0.0,
			"0.02": 0.0,
			"0.021": 0.0,
			"0.022": 0.0,
			"0.023": 0.0,
			"0.024": 0.0,
			"0.025": 0.0
		}
	}
}
