{
	 "smiles": "NN1C(S)=NN=C1C1=CC=CO1", 
	 "Tm": 481.15, 
	 "num_atms": 18, 
	 "gaussian": { 
		 "optdone": 1, 
		 "sigma_profile": "yes", 
		 "theory": "DFT", 
		 "functional": "B3LYP", 
		 "basiset": "6-31G**", 
		 "properties": { 
			 "R2extent": 2846.0054, 
			 "electric_dipole_moment_norm": 6.77068628501, 
			 "electric_quadrupole_moment_norm": 9.15877486512, 
			 "total_energy": -924.579574877, 
			 "HOMO_LUMO_gap": 0.17306, 
			 "cosmo_polarized_energy": -19.4, 
			 "cosmo_cavitation_energy": 24.86, 
			 "cosmo_dispersion_energy": -18.95, 
			 "cosmo_repulsion_energy": 1.45, 
			 "cosmo_total_nonelectrostatic_energy": 7.36, 
			 "SMD_solvation_energy": 3.07 
		},
		"coords": [
			{
				"x": -1.4593435845,
				"y": -1.0015527797,
				"z": -1.9586564197,
				"element": "N" 
			},
			{
				"x": -1.0252957421,
				"y": -1.2741749688,
				"z": -0.655563285,
				"element": "N" 
			},
			{
				"x": -1.2779365989,
				"y": -2.449010593,
				"z": 0.0184916447,
				"element": "C" 
			},
			{
				"x": -2.1899565417,
				"y": -3.7946957818,
				"z": -0.6510874672,
				"element": "S" 
			},
			{
				"x": -0.745011147,
				"y": -2.4141260176,
				"z": 1.2162430759,
				"element": "N" 
			},
			{
				"x": -0.1188579731,
				"y": -1.1906042888,
				"z": 1.3552509045,
				"element": "N" 
			},
			{
				"x": -0.2872904673,
				"y": -0.514181735,
				"z": 0.2393090704,
				"element": "C" 
			},
			{
				"x": 0.2219630099,
				"y": 0.8149528331,
				"z": -0.005576894,
				"element": "C" 
			},
			{
				"x": 0.9545598567,
				"y": 1.6636098096,
				"z": 0.7787225054,
				"element": "C" 
			},
			{
				"x": 1.1653483217,
				"y": 2.8455085096,
				"z": 0.0031578183,
				"element": "C" 
			},
			{
				"x": 0.5507959392,
				"y": 2.6388701367,
				"z": -1.1938856532,
				"element": "C" 
			},
			{
				"x": -0.0338323007,
				"y": 1.4020655134,
				"z": -1.2218057891,
				"element": "O" 
			},
			{
				"x": -2.0316133707,
				"y": -0.160281799,
				"z": -1.9406694189,
				"element": "H" 
			},
			{
				"x": -0.6458600823,
				"y": -0.8019434979,
				"z": -2.5365381297,
				"element": "H" 
			},
			{
				"x": -2.4017416295,
				"y": -3.1627617247,
				"z": -1.8261243032,
				"element": "H" 
			},
			{
				"x": 1.2923397625,
				"y": 1.453550573,
				"z": 1.7821393507,
				"element": "H" 
			},
			{
				"x": 1.7051458456,
				"y": 3.7325588596,
				"z": 0.3013352164,
				"element": "H" 
			},
			{
				"x": 0.4367867021,
				"y": 3.2304169514,
				"z": -2.0885422264,
				"element": "H" 
			}
		],
		 "valence_orbital": [ 
			{
				"type": "occ",
				"energy": -0.30027,
				"method": "rhf"
			},
			{
				"type": "occ",
				"energy": -0.29646,
				"method": "rhf"
			},
			{
				"type": "occ",
				"energy": -0.2621,
				"method": "rhf"
			},
			{
				"type": "occ",
				"energy": -0.25201,
				"method": "rhf"
			},
			{
				"type": "occ",
				"energy": -0.21074,
				"method": "rhf"
			},
			{
				"type": "unocc",
				"energy": -0.03768,
				"method": "rhf"
			},
			{
				"type": "unocc",
				"energy": 0.01949,
				"method": "rhf"
			},
			{
				"type": "unocc",
				"energy": 0.03083,
				"method": "rhf"
			},
			{
				"type": "unocc",
				"energy": 0.03885,
				"method": "rhf"
			},
			{
				"type": "unocc",
				"energy": 0.04858,
				"method": "rhf"
			}
		],
		"cosmo_sigma_profile": { 
			"-0.025": 0.0,
			"-0.024": 0.0,
			"-0.023": 0.0,
			"-0.022": 0.0,
			"-0.021": 0.0,
			"-0.02": 0.0,
			"-0.019": 0.0,
			"-0.018": 0.0,
			"-0.017": 0.0,
			"-0.016": 0.0,
			"-0.015": 0.0,
			"-0.014": 0.725640126129,
			"-0.013": 3.32814644348,
			"-0.012": 2.34941986315,
			"-0.011": 3.64792664241,
			"-0.01": 3.78615352643,
			"-0.009": 5.63746848404,
			"-0.008": 6.64591077379,
			"-0.007": 7.6608947293,
			"-0.006": 7.735424311,
			"-0.005": 8.22741351136,
			"-0.004": 10.6859536735,
			"-0.003": 10.4370195732,
			"-0.002": 9.60262731494,
			"-0.001": 11.8724664278,
			"0.0": 11.1256554,
			"0.001": 16.3994931639,
			"0.002": 16.2137443019,
			"0.003": 17.0334206225,
			"0.004": 11.3861104912,
			"0.005": 7.18186015704,
			"0.006": 4.8870797113,
			"0.007": 3.82057271607,
			"0.008": 2.4756217118,
			"0.009": 1.59918239701,
			"0.01": 1.94132402867,
			"0.011": 2.13450796518,
			"0.012": 3.63036295179,
			"0.013": 3.16315556512,
			"0.014": 3.05328675755,
			"0.015": 2.32743145285,
			"0.016": 1.88037084822,
			"0.017": 0.168470591507,
			"0.018": 0.0,
			"0.019": 0.0,
			"0.02": 0.0,
			"0.021": 0.0,
			"0.022": 0.0,
			"0.023": 0.0,
			"0.024": 0.0,
			"0.025": 0.0
		}
	}
}
