{
	 "smiles": "FC(F)(F)C1=C(NNC2=CC=CC3=C2C=CC=C3)C(=O)N=C2C=CC=CC2=N1", 
	 "Tm": 444.15, 
	 "num_atms": 41, 
	 "gaussian": { 
		 "optdone": 1, 
		 "sigma_profile": "yes", 
		 "theory": "DFT", 
		 "functional": "B3LYP", 
		 "basiset": "6-31G**", 
		 "properties": { 
			 "R2extent": 12702.5927, 
			 "electric_dipole_moment_norm": 3.31767417026, 
			 "electric_quadrupole_moment_norm": 28.6523139141, 
			 "total_energy": -1363.64390655, 
			 "HOMO_LUMO_gap": 0.09676, 
			 "cosmo_polarized_energy": -18.28, 
			 "cosmo_cavitation_energy": 46.48, 
			 "cosmo_dispersion_energy": -32.81, 
			 "cosmo_repulsion_energy": 2.34, 
			 "cosmo_total_nonelectrostatic_energy": 16.01, 
			 "SMD_solvation_energy": 6.8 
		},
		"coords": [
			{
				"x": -0.210972373,
				"y": 1.5131291151,
				"z": -0.7905438347,
				"element": "F" 
			},
			{
				"x": -0.439807053,
				"y": 1.7200003188,
				"z": 0.5263610875,
				"element": "C" 
			},
			{
				"x": -1.576209065,
				"y": 1.0008322663,
				"z": 0.8335669091,
				"element": "F" 
			},
			{
				"x": -0.745399443,
				"y": 3.0012456527,
				"z": 0.693588452,
				"element": "F" 
			},
			{
				"x": 0.7459605805,
				"y": 1.273420636,
				"z": 1.3801925661,
				"element": "C" 
			},
			{
				"x": 1.4262210855,
				"y": 0.0565685691,
				"z": 1.0536129015,
				"element": "C" 
			},
			{
				"x": 1.0243000609,
				"y": -0.9071876267,
				"z": 0.2341466731,
				"element": "N" 
			},
			{
				"x": -0.2103019784,
				"y": -1.242224864,
				"z": -0.2532483655,
				"element": "N" 
			},
			{
				"x": -0.3071593846,
				"y": -1.5574078644,
				"z": -1.6298101549,
				"element": "C" 
			},
			{
				"x": 0.7506344152,
				"y": -1.370364329,
				"z": -2.4990734756,
				"element": "C" 
			},
			{
				"x": 0.6239591391,
				"y": -1.7290266564,
				"z": -3.8605908639,
				"element": "C" 
			},
			{
				"x": -0.5563353065,
				"y": -2.2382271489,
				"z": -4.3467466573,
				"element": "C" 
			},
			{
				"x": -1.6647906624,
				"y": -2.4395582816,
				"z": -3.4793745133,
				"element": "C" 
			},
			{
				"x": -1.5433278112,
				"y": -2.1220422095,
				"z": -2.0873752473,
				"element": "C" 
			},
			{
				"x": -2.6429006915,
				"y": -2.3813217774,
				"z": -1.2269435389,
				"element": "C" 
			},
			{
				"x": -3.8217470562,
				"y": -2.8961688252,
				"z": -1.7221943772,
				"element": "C" 
			},
			{
				"x": -3.9537977835,
				"y": -3.1832144785,
				"z": -3.1002902909,
				"element": "C" 
			},
			{
				"x": -2.8957549741,
				"y": -2.9659745077,
				"z": -3.953954441,
				"element": "C" 
			},
			{
				"x": 2.8389302921,
				"y": -0.3093212495,
				"z": 1.5286093816,
				"element": "C" 
			},
			{
				"x": 3.3738042842,
				"y": -1.2064640318,
				"z": 0.8491137885,
				"element": "O" 
			},
			{
				"x": 3.4219807741,
				"y": 0.1954426108,
				"z": 2.6190101641,
				"element": "N" 
			},
			{
				"x": 3.069707386,
				"y": 1.2089787504,
				"z": 3.4195120882,
				"element": "C" 
			},
			{
				"x": 3.9248573229,
				"y": 1.3918302353,
				"z": 4.5564560473,
				"element": "C" 
			},
			{
				"x": 3.7507183402,
				"y": 2.4198757675,
				"z": 5.4475682521,
				"element": "C" 
			},
			{
				"x": 2.7011690588,
				"y": 3.362338499,
				"z": 5.2739165191,
				"element": "C" 
			},
			{
				"x": 1.8493724701,
				"y": 3.2265155893,
				"z": 4.2100202261,
				"element": "C" 
			},
			{
				"x": 1.9750946172,
				"y": 2.15202818,
				"z": 3.2708653008,
				"element": "C" 
			},
			{
				"x": 1.0213199907,
				"y": 2.1377289193,
				"z": 2.3245564803,
				"element": "N" 
			},
			{
				"x": 1.8020166136,
				"y": -1.5801189879,
				"z": 0.0914038121,
				"element": "H" 
			},
			{
				"x": -0.9640033834,
				"y": -0.6941431649,
				"z": 0.1433433317,
				"element": "H" 
			},
			{
				"x": 1.6728310945,
				"y": -0.92081208,
				"z": -2.147305881,
				"element": "H" 
			},
			{
				"x": 1.468823151,
				"y": -1.5732970013,
				"z": -4.5243251257,
				"element": "H" 
			},
			{
				"x": -0.6584172355,
				"y": -2.4952684045,
				"z": -5.3970958905,
				"element": "H" 
			},
			{
				"x": -2.5483214897,
				"y": -2.201082966,
				"z": -0.1609929925,
				"element": "H" 
			},
			{
				"x": -4.6506471419,
				"y": -3.0919723128,
				"z": -1.0486232879,
				"element": "H" 
			},
			{
				"x": -4.8879329669,
				"y": -3.5862982699,
				"z": -3.4800033681,
				"element": "H" 
			},
			{
				"x": -2.9854579598,
				"y": -3.1991181592,
				"z": -5.0116173688,
				"element": "H" 
			},
			{
				"x": 4.731768004,
				"y": 0.6754383672,
				"z": 4.6638450457,
				"element": "H" 
			},
			{
				"x": 4.4285757567,
				"y": 2.521355887,
				"z": 6.2905651238,
				"element": "H" 
			},
			{
				"x": 2.5789428905,
				"y": 4.1783511383,
				"z": 5.9789279621,
				"element": "H" 
			},
			{
				"x": 1.0309964318,
				"y": 3.9178346952,
				"z": 4.0387275624,
				"element": "H" 
			}
		],
		 "valence_orbital": [ 
			{
				"type": "occ",
				"energy": -0.25669,
				"method": "rhf"
			},
			{
				"type": "occ",
				"energy": -0.25178,
				"method": "rhf"
			},
			{
				"type": "occ",
				"energy": -0.24896,
				"method": "rhf"
			},
			{
				"type": "occ",
				"energy": -0.22361,
				"method": "rhf"
			},
			{
				"type": "occ",
				"energy": -0.20584,
				"method": "rhf"
			},
			{
				"type": "unocc",
				"energy": -0.10908,
				"method": "rhf"
			},
			{
				"type": "unocc",
				"energy": -0.06208,
				"method": "rhf"
			},
			{
				"type": "unocc",
				"energy": -0.04715,
				"method": "rhf"
			},
			{
				"type": "unocc",
				"energy": -0.02234,
				"method": "rhf"
			},
			{
				"type": "unocc",
				"energy": -0.00483,
				"method": "rhf"
			}
		],
		"cosmo_sigma_profile": { 
			"-0.025": 0.0,
			"-0.024": 0.0,
			"-0.023": 0.0,
			"-0.022": 0.0,
			"-0.021": 0.0,
			"-0.02": 0.0,
			"-0.019": 0.0,
			"-0.018": 0.0,
			"-0.017": 0.0,
			"-0.016": 0.0,
			"-0.015": 0.0,
			"-0.014": 0.0650214486759,
			"-0.013": 0.395392497993,
			"-0.012": 1.26458997318,
			"-0.011": 1.880371842,
			"-0.01": 2.04086860103,
			"-0.009": 2.35147502244,
			"-0.008": 2.92246875738,
			"-0.007": 8.9795136744,
			"-0.006": 26.4300869559,
			"-0.005": 29.7872148529,
			"-0.004": 28.9627713518,
			"-0.003": 21.2358138127,
			"-0.002": 20.6220363711,
			"-0.001": 22.4891570833,
			"0.0": 23.1177869502,
			"0.001": 31.2535136407,
			"0.002": 46.8081538176,
			"0.003": 37.5743112027,
			"0.004": 26.5831344774,
			"0.005": 11.6789080356,
			"0.006": 3.12908730198,
			"0.007": 3.12924980793,
			"0.008": 3.01070516241,
			"0.009": 2.36944637503,
			"0.01": 1.46520142911,
			"0.011": 2.56506214136,
			"0.012": 3.33586389017,
			"0.013": 2.67103858506,
			"0.014": 2.56291961318,
			"0.015": 2.47865685907,
			"0.016": 1.6182246237,
			"0.017": 0.836992012197,
			"0.018": 0.000830462859937,
			"0.019": 0.0,
			"0.02": 0.0,
			"0.021": 0.0,
			"0.022": 0.0,
			"0.023": 0.0,
			"0.024": 0.0,
			"0.025": 0.0
		}
	}
}
