{
	 "smiles": "CC1=CC=C(C=C1)C1=CC=CC(=N1)C1=CC=C(C)C=C1", 
	 "Tm": 438.15, 
	 "num_atms": 37, 
	 "gaussian": { 
		 "optdone": 1, 
		 "sigma_profile": "yes", 
		 "theory": "DFT", 
		 "functional": "B3LYP", 
		 "basiset": "6-31G**", 
		 "properties": { 
			 "R2extent": 8598.9277, 
			 "electric_dipole_moment_norm": 0.734444606488, 
			 "electric_quadrupole_moment_norm": 16.3202736448, 
			 "total_energy": -789.050977197, 
			 "HOMO_LUMO_gap": 0.17482, 
			 "cosmo_polarized_energy": -8.93, 
			 "cosmo_cavitation_energy": 40.52, 
			 "cosmo_dispersion_energy": -29.21, 
			 "cosmo_repulsion_energy": 2.21, 
			 "cosmo_total_nonelectrostatic_energy": 13.51, 
			 "SMD_solvation_energy": 5.95 
		},
		"coords": [
			{
				"x": -6.4265263067,
				"y": 0.4511659511,
				"z": 1.4166456563,
				"element": "C" 
			},
			{
				"x": -4.9286987874,
				"y": 0.3068929682,
				"z": 1.2903054933,
				"element": "C" 
			},
			{
				"x": -4.1847435222,
				"y": -0.403832398,
				"z": 2.239858149,
				"element": "C" 
			},
			{
				"x": -2.8053875527,
				"y": -0.5562656757,
				"z": 2.1100727288,
				"element": "C" 
			},
			{
				"x": -2.1177127017,
				"y": 0.0016442909,
				"z": 1.0217222945,
				"element": "C" 
			},
			{
				"x": -2.8638423048,
				"y": 0.7081083188,
				"z": 0.0636926833,
				"element": "C" 
			},
			{
				"x": -4.2394961327,
				"y": 0.8599379416,
				"z": 0.2007872303,
				"element": "C" 
			},
			{
				"x": -0.6456792717,
				"y": -0.1377342564,
				"z": 0.8622255604,
				"element": "C" 
			},
			{
				"x": 0.1983537148,
				"y": -0.4086928199,
				"z": 1.9528276743,
				"element": "C" 
			},
			{
				"x": 1.5634467229,
				"y": -0.5461209822,
				"z": 1.7222932551,
				"element": "C" 
			},
			{
				"x": 2.0601239502,
				"y": -0.3933587946,
				"z": 0.431759014,
				"element": "C" 
			},
			{
				"x": 1.1622966233,
				"y": -0.0822499815,
				"z": -0.6037719168,
				"element": "C" 
			},
			{
				"x": -0.1573729107,
				"y": 0.0289171121,
				"z": -0.3781603107,
				"element": "N" 
			},
			{
				"x": 1.6165848577,
				"y": 0.1184725678,
				"z": -2.005573909,
				"element": "C" 
			},
			{
				"x": 2.9400539105,
				"y": 0.4643989969,
				"z": -2.3175916629,
				"element": "C" 
			},
			{
				"x": 3.3416658826,
				"y": 0.6387656698,
				"z": -3.6408768722,
				"element": "C" 
			},
			{
				"x": 2.4402763806,
				"y": 0.4773807176,
				"z": -4.6999378684,
				"element": "C" 
			},
			{
				"x": 2.8681259581,
				"y": 0.6901777994,
				"z": -6.1323934527,
				"element": "C" 
			},
			{
				"x": 1.1165365963,
				"y": 0.1359055912,
				"z": -4.3851100344,
				"element": "C" 
			},
			{
				"x": 0.7087751539,
				"y": -0.0357546034,
				"z": -3.0666089711,
				"element": "C" 
			},
			{
				"x": -6.759409068,
				"y": 1.4490075755,
				"z": 1.1130341747,
				"element": "H" 
			},
			{
				"x": -6.9500929011,
				"y": -0.2710821492,
				"z": 0.7774627498,
				"element": "H" 
			},
			{
				"x": -6.7608854344,
				"y": 0.2805670611,
				"z": 2.4441083516,
				"element": "H" 
			},
			{
				"x": -4.6926035681,
				"y": -0.8510795006,
				"z": 3.0909829835,
				"element": "H" 
			},
			{
				"x": -2.2692781404,
				"y": -1.1361697103,
				"z": 2.8552073846,
				"element": "H" 
			},
			{
				"x": -2.3413009411,
				"y": 1.1388539821,
				"z": -0.7830346399,
				"element": "H" 
			},
			{
				"x": -4.7912263389,
				"y": 1.421776994,
				"z": -0.5495321906,
				"element": "H" 
			},
			{
				"x": -0.2009304022,
				"y": -0.4935686625,
				"z": 2.9569065708,
				"element": "H" 
			},
			{
				"x": 2.2370860716,
				"y": -0.7712440732,
				"z": 2.5445474526,
				"element": "H" 
			},
			{
				"x": 3.1164425812,
				"y": -0.5280802161,
				"z": 0.2296566179,
				"element": "H" 
			},
			{
				"x": 3.6641180337,
				"y": 0.6235646937,
				"z": -1.5242852531,
				"element": "H" 
			},
			{
				"x": 4.3725441208,
				"y": 0.9116806523,
				"z": -3.8533857637,
				"element": "H" 
			},
			{
				"x": 2.4105700504,
				"y": -0.0468916708,
				"z": -6.8003160365,
				"element": "H" 
			},
			{
				"x": 3.9541304026,
				"y": 0.6181824784,
				"z": -6.2417400403,
				"element": "H" 
			},
			{
				"x": 2.5672962069,
				"y": 1.6819041149,
				"z": -6.493321845,
				"element": "H" 
			},
			{
				"x": 0.3958236391,
				"y": -0.0010327684,
				"z": -5.18815384,
				"element": "H" 
			},
			{
				"x": -0.3171645723,
				"y": -0.2986472147,
				"z": -2.8345014174,
				"element": "H" 
			}
		],
		 "valence_orbital": [ 
			{
				"type": "occ",
				"energy": -0.25047,
				"method": "rhf"
			},
			{
				"type": "occ",
				"energy": -0.24479,
				"method": "rhf"
			},
			{
				"type": "occ",
				"energy": -0.24312,
				"method": "rhf"
			},
			{
				"type": "occ",
				"energy": -0.23056,
				"method": "rhf"
			},
			{
				"type": "occ",
				"energy": -0.21196,
				"method": "rhf"
			},
			{
				"type": "unocc",
				"energy": -0.03714,
				"method": "rhf"
			},
			{
				"type": "unocc",
				"energy": -0.03501,
				"method": "rhf"
			},
			{
				"type": "unocc",
				"energy": 0.00339,
				"method": "rhf"
			},
			{
				"type": "unocc",
				"energy": 0.00494,
				"method": "rhf"
			},
			{
				"type": "unocc",
				"energy": 0.02158,
				"method": "rhf"
			}
		],
		"cosmo_sigma_profile": { 
			"-0.025": 0.0,
			"-0.024": 0.0,
			"-0.023": 0.0,
			"-0.022": 0.0,
			"-0.021": 0.0,
			"-0.02": 0.0,
			"-0.019": 0.0,
			"-0.018": 0.0,
			"-0.017": 0.0,
			"-0.016": 0.0,
			"-0.015": 0.0,
			"-0.014": 0.0,
			"-0.013": 0.0,
			"-0.012": 0.0,
			"-0.011": 0.0,
			"-0.01": 0.0,
			"-0.009": 0.0,
			"-0.008": 0.404215320437,
			"-0.007": 6.31794939225,
			"-0.006": 8.59533823902,
			"-0.005": 19.3371649179,
			"-0.004": 31.6279592416,
			"-0.003": 30.4889288001,
			"-0.002": 26.6009021199,
			"-0.001": 27.2452840054,
			"0.0": 30.7986338708,
			"0.001": 22.9128433653,
			"0.002": 27.3535855365,
			"0.003": 28.0314513596,
			"0.004": 20.4229185384,
			"0.005": 21.5505198044,
			"0.006": 16.0856478328,
			"0.007": 2.84193724327,
			"0.008": 2.15457619378,
			"0.009": 1.01813788257,
			"0.01": 0.0,
			"0.011": 0.0,
			"0.012": 0.0,
			"0.013": 0.0,
			"0.014": 0.0,
			"0.015": 0.0,
			"0.016": 0.0,
			"0.017": 0.0,
			"0.018": 0.0,
			"0.019": 0.0,
			"0.02": 0.0,
			"0.021": 0.0,
			"0.022": 0.0,
			"0.023": 0.0,
			"0.024": 0.0,
			"0.025": 0.0
		}
	}
}
