{
	 "smiles": "CC=CC=C", 
	 "Tm": 185.95, 
	 "num_atms": 13, 
	 "gaussian": { 
		 "optdone": 1, 
		 "sigma_profile": "yes", 
		 "theory": "DFT", 
		 "functional": "B3LYP", 
		 "basiset": "6-31G**", 
		 "properties": { 
			 "R2extent": 730.9794, 
			 "electric_dipole_moment_norm": 0.477693583796, 
			 "electric_quadrupole_moment_norm": 2.62527330006, 
			 "total_energy": -195.314535315, 
			 "HOMO_LUMO_gap": 0.20327, 
			 "cosmo_polarized_energy": -2.32, 
			 "cosmo_cavitation_energy": 16.56, 
			 "cosmo_dispersion_energy": -11.87, 
			 "cosmo_repulsion_energy": 1.06, 
			 "cosmo_total_nonelectrostatic_energy": 5.75, 
			 "SMD_solvation_energy": 3.99 
		},
		"coords": [
			{
				"x": -1.3210626533,
				"y": -0.2929579759,
				"z": 2.465361329,
				"element": "C" 
			},
			{
				"x": -0.3618454739,
				"y": -0.6346769423,
				"z": 1.364702586,
				"element": "C" 
			},
			{
				"x": -0.6646852325,
				"y": -1.3648116297,
				"z": 0.2803953156,
				"element": "C" 
			},
			{
				"x": 0.2506578392,
				"y": -1.689764248,
				"z": -0.8212569432,
				"element": "C" 
			},
			{
				"x": 1.2810273783,
				"y": -0.9441119857,
				"z": -1.2422616523,
				"element": "C" 
			},
			{
				"x": -1.435765333,
				"y": 0.79431405,
				"z": 2.5674326865,
				"element": "H" 
			},
			{
				"x": -2.3118708467,
				"y": -0.7209320952,
				"z": 2.2849745617,
				"element": "H" 
			},
			{
				"x": -0.9620548642,
				"y": -0.6587398235,
				"z": 3.4361363725,
				"element": "H" 
			},
			{
				"x": 0.6564836873,
				"y": -0.2617810971,
				"z": 1.4772114536,
				"element": "H" 
			},
			{
				"x": -1.6695791058,
				"y": -1.7825957464,
				"z": 0.2031863041,
				"element": "H" 
			},
			{
				"x": 0.0422488118,
				"y": -2.6239780315,
				"z": -1.343494141,
				"element": "H" 
			},
			{
				"x": 1.5085302543,
				"y": 0.0219505354,
				"z": -0.7997229346,
				"element": "H" 
			},
			{
				"x": 1.9243155384,
				"y": -1.2747150101,
				"z": -2.051664938,
				"element": "H" 
			}
		],
		 "valence_orbital": [ 
			{
				"type": "occ",
				"energy": -0.38595,
				"method": "rhf"
			},
			{
				"type": "occ",
				"energy": -0.3493,
				"method": "rhf"
			},
			{
				"type": "occ",
				"energy": -0.33994,
				"method": "rhf"
			},
			{
				"type": "occ",
				"energy": -0.298,
				"method": "rhf"
			},
			{
				"type": "occ",
				"energy": -0.22045,
				"method": "rhf"
			},
			{
				"type": "unocc",
				"energy": -0.01718,
				"method": "rhf"
			},
			{
				"type": "unocc",
				"energy": 0.08287,
				"method": "rhf"
			},
			{
				"type": "unocc",
				"energy": 0.11542,
				"method": "rhf"
			},
			{
				"type": "unocc",
				"energy": 0.11905,
				"method": "rhf"
			},
			{
				"type": "unocc",
				"energy": 0.1276,
				"method": "rhf"
			}
		],
		"cosmo_sigma_profile": { 
			"-0.025": 0.0,
			"-0.024": 0.0,
			"-0.023": 0.0,
			"-0.022": 0.0,
			"-0.021": 0.0,
			"-0.02": 0.0,
			"-0.019": 0.0,
			"-0.018": 0.0,
			"-0.017": 0.0,
			"-0.016": 0.0,
			"-0.015": 0.0,
			"-0.014": 0.0,
			"-0.013": 0.0,
			"-0.012": 0.0,
			"-0.011": 0.0,
			"-0.01": 0.0,
			"-0.009": 0.0,
			"-0.008": 0.0,
			"-0.007": 0.0,
			"-0.006": 0.0496533433903,
			"-0.005": 4.20146910952,
			"-0.004": 13.8878196223,
			"-0.003": 16.2966181825,
			"-0.002": 16.9140594545,
			"-0.001": 15.3029796243,
			"0.0": 15.7170682691,
			"0.001": 10.3951965692,
			"0.002": 6.84280517413,
			"0.003": 7.39459368861,
			"0.004": 5.93744641472,
			"0.005": 6.39254920298,
			"0.006": 7.21032309849,
			"0.007": 3.79789419793,
			"0.008": 0.348400037368,
			"0.009": 0.0,
			"0.01": 0.0,
			"0.011": 0.0,
			"0.012": 0.0,
			"0.013": 0.0,
			"0.014": 0.0,
			"0.015": 0.0,
			"0.016": 0.0,
			"0.017": 0.0,
			"0.018": 0.0,
			"0.019": 0.0,
			"0.02": 0.0,
			"0.021": 0.0,
			"0.022": 0.0,
			"0.023": 0.0,
			"0.024": 0.0,
			"0.025": 0.0
		}
	}
}
