{
	 "smiles": "NC1=NC(=CN=N1)C1=C(F)C=CC(F)=C1", 
	 "Tm": 513.15, 
	 "num_atms": 21, 
	 "gaussian": { 
		 "optdone": 1, 
		 "sigma_profile": "yes", 
		 "theory": "DFT", 
		 "functional": "B3LYP", 
		 "basiset": "6-31G**", 
		 "properties": { 
			 "R2extent": 4673.4007, 
			 "electric_dipole_moment_norm": 3.09343884536, 
			 "electric_quadrupole_moment_norm": 16.3413501159, 
			 "total_energy": -765.214052289, 
			 "HOMO_LUMO_gap": 0.15421, 
			 "cosmo_polarized_energy": -13.87, 
			 "cosmo_cavitation_energy": 27.48, 
			 "cosmo_dispersion_energy": -19.99, 
			 "cosmo_repulsion_energy": 1.52, 
			 "cosmo_total_nonelectrostatic_energy": 9.0, 
			 "SMD_solvation_energy": 2.81 
		},
		"coords": [
			{
				"x": 2.6483199923,
				"y": 2.9264190725,
				"z": -2.207724152,
				"element": "N" 
			},
			{
				"x": 1.3500790388,
				"y": 2.5373703704,
				"z": -2.2924673555,
				"element": "C" 
			},
			{
				"x": 0.7593199761,
				"y": 2.1034637348,
				"z": -1.1616930672,
				"element": "N" 
			},
			{
				"x": -0.5212340044,
				"y": 1.7612886912,
				"z": -1.2870723106,
				"element": "C" 
			},
			{
				"x": -1.1536653558,
				"y": 1.8585399799,
				"z": -2.5422283773,
				"element": "C" 
			},
			{
				"x": -0.5014557384,
				"y": 2.2984912251,
				"z": -3.6182515155,
				"element": "N" 
			},
			{
				"x": 0.769820125,
				"y": 2.6511963966,
				"z": -3.5115788893,
				"element": "N" 
			},
			{
				"x": -1.2590630338,
				"y": 1.2920362544,
				"z": -0.0898720736,
				"element": "C" 
			},
			{
				"x": -0.6670026227,
				"y": 0.4768303521,
				"z": 0.8872962381,
				"element": "C" 
			},
			{
				"x": 0.604953104,
				"y": 0.0670523544,
				"z": 0.7429928579,
				"element": "F" 
			},
			{
				"x": -1.3677549103,
				"y": 0.0365415764,
				"z": 2.0049398187,
				"element": "C" 
			},
			{
				"x": -2.6985882952,
				"y": 0.4109728743,
				"z": 2.1803045096,
				"element": "C" 
			},
			{
				"x": -3.294422437,
				"y": 1.2168820343,
				"z": 1.2162832449,
				"element": "C" 
			},
			{
				"x": -4.5796872744,
				"y": 1.5915776665,
				"z": 1.3770118479,
				"element": "F" 
			},
			{
				"x": -2.603876824,
				"y": 1.6539704752,
				"z": 0.0951390719,
				"element": "C" 
			},
			{
				"x": 3.142758822,
				"y": 3.10260765,
				"z": -3.0673357978,
				"element": "H" 
			},
			{
				"x": 3.1626377924,
				"y": 2.6897847981,
				"z": -1.3752080604,
				"element": "H" 
			},
			{
				"x": -2.1840636365,
				"y": 1.5572411492,
				"z": -2.6971712674,
				"element": "H" 
			},
			{
				"x": -0.8607708283,
				"y": -0.5989179539,
				"z": 2.7224862135,
				"element": "H" 
			},
			{
				"x": -3.2695370404,
				"y": 0.0892767117,
				"z": 3.0440210206,
				"element": "H" 
			},
			{
				"x": -3.1061668497,
				"y": 2.2996745869,
				"z": -0.6161719564,
				"element": "H" 
			}
		],
		 "valence_orbital": [ 
			{
				"type": "occ",
				"energy": -0.31533,
				"method": "rhf"
			},
			{
				"type": "occ",
				"energy": -0.27751,
				"method": "rhf"
			},
			{
				"type": "occ",
				"energy": -0.25143,
				"method": "rhf"
			},
			{
				"type": "occ",
				"energy": -0.24,
				"method": "rhf"
			},
			{
				"type": "occ",
				"energy": -0.22822,
				"method": "rhf"
			},
			{
				"type": "unocc",
				"energy": -0.07401,
				"method": "rhf"
			},
			{
				"type": "unocc",
				"energy": -0.03287,
				"method": "rhf"
			},
			{
				"type": "unocc",
				"energy": -0.01305,
				"method": "rhf"
			},
			{
				"type": "unocc",
				"energy": 0.00752,
				"method": "rhf"
			},
			{
				"type": "unocc",
				"energy": 0.07529,
				"method": "rhf"
			}
		],
		"cosmo_sigma_profile": { 
			"-0.025": 0.0,
			"-0.024": 0.0,
			"-0.023": 0.0,
			"-0.022": 0.0,
			"-0.021": 0.0,
			"-0.02": 0.0,
			"-0.019": 0.0,
			"-0.018": 0.0,
			"-0.017": 0.0,
			"-0.016": 0.0,
			"-0.015": 0.247497816276,
			"-0.014": 2.37335606487,
			"-0.013": 1.85978142423,
			"-0.012": 1.53898686222,
			"-0.011": 2.19315125627,
			"-0.01": 2.5956583109,
			"-0.009": 3.56036240898,
			"-0.008": 9.22273650329,
			"-0.007": 8.28563142356,
			"-0.006": 8.24945817377,
			"-0.005": 7.69476934704,
			"-0.004": 8.37816810564,
			"-0.003": 11.7804216753,
			"-0.002": 12.699431021,
			"-0.001": 15.2058950121,
			"0.0": 23.4510343998,
			"0.001": 21.6683026718,
			"0.002": 12.9579160438,
			"0.003": 11.8287603032,
			"0.004": 18.7117070368,
			"0.005": 6.6968004745,
			"0.006": 5.48304854041,
			"0.007": 4.13330337722,
			"0.008": 2.72762909717,
			"0.009": 2.52443528241,
			"0.01": 3.18628428475,
			"0.011": 3.14122633733,
			"0.012": 2.87743121623,
			"0.013": 2.78959100792,
			"0.014": 2.17457216614,
			"0.015": 1.50215756301,
			"0.016": 0.0502445002552,
			"0.017": 0.0,
			"0.018": 0.0,
			"0.019": 0.0,
			"0.02": 0.0,
			"0.021": 0.0,
			"0.022": 0.0,
			"0.023": 0.0,
			"0.024": 0.0,
			"0.025": 0.0
		}
	}
}
