{
	 "smiles": "NC(CC(=O)N1CCOCC1)=NO", 
	 "Tm": 421.15, 
	 "num_atms": 26, 
	 "gaussian": { 
		 "optdone": 1, 
		 "sigma_profile": "yes", 
		 "theory": "DFT", 
		 "functional": "B3LYP", 
		 "basiset": "6-31G**", 
		 "properties": { 
			 "R2extent": 2762.0077, 
			 "electric_dipole_moment_norm": 2.29576831801, 
			 "electric_quadrupole_moment_norm": 4.0465349807, 
			 "total_energy": -664.44035639, 
			 "HOMO_LUMO_gap": 0.22697, 
			 "cosmo_polarized_energy": -17.17, 
			 "cosmo_cavitation_energy": 28.19, 
			 "cosmo_dispersion_energy": -20.53, 
			 "cosmo_repulsion_energy": 1.66, 
			 "cosmo_total_nonelectrostatic_energy": 9.33, 
			 "SMD_solvation_energy": 4.42 
		},
		"coords": [
			{
				"x": -2.2580116248,
				"y": 1.9968210429,
				"z": 0.3390656877,
				"element": "N" 
			},
			{
				"x": -1.3678628507,
				"y": 1.96134921,
				"z": -0.7149084811,
				"element": "C" 
			},
			{
				"x": -1.0831831223,
				"y": 0.5833415768,
				"z": -1.2726312859,
				"element": "C" 
			},
			{
				"x": -0.7396790206,
				"y": -0.4136636764,
				"z": -0.1626381485,
				"element": "C" 
			},
			{
				"x": -1.6113165005,
				"y": -1.1511477031,
				"z": 0.2969959021,
				"element": "O" 
			},
			{
				"x": 0.5422701085,
				"y": -0.4476536424,
				"z": 0.3030994124,
				"element": "N" 
			},
			{
				"x": 0.8482232634,
				"y": -1.4285754253,
				"z": 1.3547716986,
				"element": "C" 
			},
			{
				"x": 2.3563036439,
				"y": -1.4358176799,
				"z": 1.6180089158,
				"element": "C" 
			},
			{
				"x": 3.0782801998,
				"y": -1.4721899166,
				"z": 0.3977445771,
				"element": "O" 
			},
			{
				"x": 2.8846565249,
				"y": -0.311708665,
				"z": -0.4118298328,
				"element": "C" 
			},
			{
				"x": 1.62047433,
				"y": 0.476652462,
				"z": -0.035142453,
				"element": "C" 
			},
			{
				"x": -0.8322993997,
				"y": 3.0668413428,
				"z": -1.1052370895,
				"element": "N" 
			},
			{
				"x": 0.146820861,
				"y": 2.8348897784,
				"z": -2.1217817146,
				"element": "O" 
			},
			{
				"x": -2.6337343242,
				"y": 2.9030028552,
				"z": 0.5781071249,
				"element": "H" 
			},
			{
				"x": -2.8867075461,
				"y": 1.21188215,
				"z": 0.4277477075,
				"element": "H" 
			},
			{
				"x": -1.9990127276,
				"y": 0.1958751204,
				"z": -1.7288477852,
				"element": "H" 
			},
			{
				"x": -0.3212918308,
				"y": 0.6537883369,
				"z": -2.0466334537,
				"element": "H" 
			},
			{
				"x": 0.5147573212,
				"y": -2.4125547062,
				"z": 1.0131463104,
				"element": "H" 
			},
			{
				"x": 0.2908697346,
				"y": -1.1989076951,
				"z": 2.2730323848,
				"element": "H" 
			},
			{
				"x": 2.6561802216,
				"y": -0.5739586033,
				"z": 2.2348899708,
				"element": "H" 
			},
			{
				"x": 2.6298952372,
				"y": -2.3394927,
				"z": 2.1689914682,
				"element": "H" 
			},
			{
				"x": 3.7586120013,
				"y": 0.3541554945,
				"z": -0.3373772975,
				"element": "H" 
			},
			{
				"x": 2.8155349907,
				"y": -0.6654119514,
				"z": -1.4467873086,
				"element": "H" 
			},
			{
				"x": 1.8215144286,
				"y": 1.1299374297,
				"z": 0.8249688076,
				"element": "H" 
			},
			{
				"x": 1.3339040533,
				"y": 1.1344667198,
				"z": -0.856435643,
				"element": "H" 
			},
			{
				"x": 0.4590020273,
				"y": 3.7328788452,
				"z": -2.2877194746,
				"element": "H" 
			}
		],
		 "valence_orbital": [ 
			{
				"type": "occ",
				"energy": -0.27314,
				"method": "rhf"
			},
			{
				"type": "occ",
				"energy": -0.25551,
				"method": "rhf"
			},
			{
				"type": "occ",
				"energy": -0.24783,
				"method": "rhf"
			},
			{
				"type": "occ",
				"energy": -0.23758,
				"method": "rhf"
			},
			{
				"type": "occ",
				"energy": -0.21121,
				"method": "rhf"
			},
			{
				"type": "unocc",
				"energy": 0.01576,
				"method": "rhf"
			},
			{
				"type": "unocc",
				"energy": 0.03814,
				"method": "rhf"
			},
			{
				"type": "unocc",
				"energy": 0.06853,
				"method": "rhf"
			},
			{
				"type": "unocc",
				"energy": 0.08321,
				"method": "rhf"
			},
			{
				"type": "unocc",
				"energy": 0.09777,
				"method": "rhf"
			}
		],
		"cosmo_sigma_profile": { 
			"-0.025": 0.0,
			"-0.024": 0.0,
			"-0.023": 0.0,
			"-0.022": 0.0,
			"-0.021": 0.0,
			"-0.02": 0.0,
			"-0.019": 0.0,
			"-0.018": 0.0,
			"-0.017": 0.116250116018,
			"-0.016": 0.98030510279,
			"-0.015": 1.04536033355,
			"-0.014": 0.53857013086,
			"-0.013": 1.65676964237,
			"-0.012": 2.91854066679,
			"-0.011": 2.01000505869,
			"-0.01": 2.66595116643,
			"-0.009": 3.62320618889,
			"-0.008": 2.60904885128,
			"-0.007": 3.5530002603,
			"-0.006": 11.0161279944,
			"-0.005": 23.5563856609,
			"-0.004": 26.1871622331,
			"-0.003": 17.8062131562,
			"-0.002": 13.284540668,
			"-0.001": 10.1142540199,
			"0.0": 9.26788804856,
			"0.001": 8.73338772963,
			"0.002": 7.22029029676,
			"0.003": 6.81419202347,
			"0.004": 7.08775660509,
			"0.005": 6.67997144639,
			"0.006": 6.84669891915,
			"0.007": 6.3577270273,
			"0.008": 6.71458328457,
			"0.009": 4.9540676569,
			"0.01": 4.0910078729,
			"0.011": 5.57276045231,
			"0.012": 4.59132637157,
			"0.013": 5.09574658733,
			"0.014": 5.44566813771,
			"0.015": 0.822465742921,
			"0.016": 0.0,
			"0.017": 0.0,
			"0.018": 0.0,
			"0.019": 0.0,
			"0.02": 0.0,
			"0.021": 0.0,
			"0.022": 0.0,
			"0.023": 0.0,
			"0.024": 0.0,
			"0.025": 0.0
		}
	}
}
