{
	 "smiles": "CC1=CC=CC=C1C", 
	 "Tm": 248.05, 
	 "num_atms": 18, 
	 "gaussian": { 
		 "optdone": 1, 
		 "sigma_profile": "yes", 
		 "theory": "DFT", 
		 "functional": "B3LYP", 
		 "basiset": "6-31G**", 
		 "properties": { 
			 "R2extent": 1149.1421, 
			 "electric_dipole_moment_norm": 0.584074969503, 
			 "electric_quadrupole_moment_norm": 3.85133987334, 
			 "total_energy": -310.892254918, 
			 "HOMO_LUMO_gap": 0.23662, 
			 "cosmo_polarized_energy": -3.16, 
			 "cosmo_cavitation_energy": 20.52, 
			 "cosmo_dispersion_energy": -15.23, 
			 "cosmo_repulsion_energy": 1.25, 
			 "cosmo_total_nonelectrostatic_energy": 6.54, 
			 "SMD_solvation_energy": 3.62 
		},
		"coords": [
			{
				"x": -1.3524251845,
				"y": 0.4706259937,
				"z": 0.1330024935,
				"element": "C" 
			},
			{
				"x": 0.1165878886,
				"y": 0.3462486215,
				"z": -0.1965630655,
				"element": "C" 
			},
			{
				"x": 1.0217397525,
				"y": 1.3183695863,
				"z": 0.2442219076,
				"element": "C" 
			},
			{
				"x": 2.3843761386,
				"y": 1.2300152195,
				"z": -0.0448292343,
				"element": "C" 
			},
			{
				"x": 2.8600221358,
				"y": 0.1520091535,
				"z": -0.7885897231,
				"element": "C" 
			},
			{
				"x": 1.966950291,
				"y": -0.8238712724,
				"z": -1.2337967757,
				"element": "C" 
			},
			{
				"x": 0.5986432691,
				"y": -0.7462836513,
				"z": -0.9503707468,
				"element": "C" 
			},
			{
				"x": -0.3422278521,
				"y": -1.8188978426,
				"z": -1.446720192,
				"element": "C" 
			},
			{
				"x": -1.7135715312,
				"y": -0.3894989226,
				"z": 0.7102103991,
				"element": "H" 
			},
			{
				"x": -1.9692068696,
				"y": 0.5209742741,
				"z": -0.7727881655,
				"element": "H" 
			},
			{
				"x": -1.5495695667,
				"y": 1.3715413572,
				"z": 0.720100673,
				"element": "H" 
			},
			{
				"x": 0.6491791385,
				"y": 2.1592508193,
				"z": 0.8246013294,
				"element": "H" 
			},
			{
				"x": 3.0660764654,
				"y": 1.9981821359,
				"z": 0.3092811024,
				"element": "H" 
			},
			{
				"x": 3.917636909,
				"y": 0.0681900095,
				"z": -1.0222892144,
				"element": "H" 
			},
			{
				"x": 2.3368664011,
				"y": -1.6657768482,
				"z": -1.8143811946,
				"element": "H" 
			},
			{
				"x": 0.1962988158,
				"y": -2.5852549032,
				"z": -2.0105318028,
				"element": "H" 
			},
			{
				"x": -0.8628657224,
				"y": -2.3171800521,
				"z": -0.6196392969,
				"element": "H" 
			},
			{
				"x": -1.1190104789,
				"y": -1.4063436781,
				"z": -2.1023184935,
				"element": "H" 
			}
		],
		 "valence_orbital": [ 
			{
				"type": "occ",
				"energy": -0.34059,
				"method": "rhf"
			},
			{
				"type": "occ",
				"energy": -0.3285,
				"method": "rhf"
			},
			{
				"type": "occ",
				"energy": -0.32796,
				"method": "rhf"
			},
			{
				"type": "occ",
				"energy": -0.23772,
				"method": "rhf"
			},
			{
				"type": "occ",
				"energy": -0.2295,
				"method": "rhf"
			},
			{
				"type": "unocc",
				"energy": 0.00712,
				"method": "rhf"
			},
			{
				"type": "unocc",
				"energy": 0.01049,
				"method": "rhf"
			},
			{
				"type": "unocc",
				"energy": 0.09502,
				"method": "rhf"
			},
			{
				"type": "unocc",
				"energy": 0.10525,
				"method": "rhf"
			},
			{
				"type": "unocc",
				"energy": 0.13082,
				"method": "rhf"
			}
		],
		"cosmo_sigma_profile": { 
			"-0.025": 0.0,
			"-0.024": 0.0,
			"-0.023": 0.0,
			"-0.022": 0.0,
			"-0.021": 0.0,
			"-0.02": 0.0,
			"-0.019": 0.0,
			"-0.018": 0.0,
			"-0.017": 0.0,
			"-0.016": 0.0,
			"-0.015": 0.0,
			"-0.014": 0.0,
			"-0.013": 0.0,
			"-0.012": 0.0,
			"-0.011": 0.0,
			"-0.01": 0.0,
			"-0.009": 0.0,
			"-0.008": 0.0,
			"-0.007": 0.0,
			"-0.006": 0.234220483204,
			"-0.005": 6.17283680388,
			"-0.004": 17.3910770984,
			"-0.003": 22.4561838093,
			"-0.002": 18.3425128097,
			"-0.001": 16.1091899012,
			"0.0": 19.6386120886,
			"0.001": 15.1679931711,
			"0.002": 8.92999989527,
			"0.003": 7.46076487933,
			"0.004": 7.52991345452,
			"0.005": 7.60376340461,
			"0.006": 7.53785774911,
			"0.007": 6.66086809762,
			"0.008": 0.610786049114,
			"0.009": 0.0,
			"0.01": 0.0,
			"0.011": 0.0,
			"0.012": 0.0,
			"0.013": 0.0,
			"0.014": 0.0,
			"0.015": 0.0,
			"0.016": 0.0,
			"0.017": 0.0,
			"0.018": 0.0,
			"0.019": 0.0,
			"0.02": 0.0,
			"0.021": 0.0,
			"0.022": 0.0,
			"0.023": 0.0,
			"0.024": 0.0,
			"0.025": 0.0
		}
	}
}
