{
	 "smiles": "CN(C)CCCNC1=C2C=CC=CC2=NC2=CC=CC(=C12)N(=O)=O", 
	 "Tm": 407.15, 
	 "num_atms": 44, 
	 "gaussian": { 
		 "optdone": 1, 
		 "sigma_profile": "yes", 
		 "theory": "DFT", 
		 "functional": "B3LYP", 
		 "basiset": "6-31G**", 
		 "properties": { 
			 "R2extent": 8438.7666, 
			 "electric_dipole_moment_norm": 2.82805732969, 
			 "electric_quadrupole_moment_norm": 15.7088064368, 
			 "total_energy": -1067.31102624, 
			 "HOMO_LUMO_gap": 0.10907, 
			 "cosmo_polarized_energy": -16.42, 
			 "cosmo_cavitation_energy": 44.92, 
			 "cosmo_dispersion_energy": -31.22, 
			 "cosmo_repulsion_energy": 2.31, 
			 "cosmo_total_nonelectrostatic_energy": 16.01, 
			 "SMD_solvation_energy": 6.28 
		},
		"coords": [
			{
				"x": 1.2016495468,
				"y": -4.3485032407,
				"z": 0.416732555,
				"element": "C" 
			},
			{
				"x": 1.6030233316,
				"y": -3.3655362021,
				"z": 1.4187317262,
				"element": "N" 
			},
			{
				"x": 2.6920346964,
				"y": -3.8682563062,
				"z": 2.2442248292,
				"element": "C" 
			},
			{
				"x": 0.4755541875,
				"y": -2.8818214653,
				"z": 2.2138768035,
				"element": "C" 
			},
			{
				"x": 0.7242912575,
				"y": -1.4642237306,
				"z": 2.7538708092,
				"element": "C" 
			},
			{
				"x": 0.7179873375,
				"y": -0.3953335347,
				"z": 1.6574284686,
				"element": "C" 
			},
			{
				"x": -0.6675882848,
				"y": -0.13582562,
				"z": 1.22266016,
				"element": "N" 
			},
			{
				"x": -1.0275768311,
				"y": 0.847254572,
				"z": 0.3386682513,
				"element": "C" 
			},
			{
				"x": -2.2059427329,
				"y": 1.6230552591,
				"z": 0.5962490576,
				"element": "C" 
			},
			{
				"x": -3.1921214501,
				"y": 1.2523370876,
				"z": 1.55584173,
				"element": "C" 
			},
			{
				"x": -4.2880958127,
				"y": 2.0465649563,
				"z": 1.7958468306,
				"element": "C" 
			},
			{
				"x": -4.4469329528,
				"y": 3.2753228928,
				"z": 1.1032942886,
				"element": "C" 
			},
			{
				"x": -3.5162396066,
				"y": 3.6685713951,
				"z": 0.1762635798,
				"element": "C" 
			},
			{
				"x": -2.3785160669,
				"y": 2.8573661771,
				"z": -0.1190116302,
				"element": "C" 
			},
			{
				"x": -1.4956058591,
				"y": 3.3211139368,
				"z": -1.0239427543,
				"element": "N" 
			},
			{
				"x": -0.5034871206,
				"y": 2.5014161435,
				"z": -1.389887842,
				"element": "C" 
			},
			{
				"x": 0.3986549709,
				"y": 2.9945313391,
				"z": -2.3894757396,
				"element": "C" 
			},
			{
				"x": 1.4048715558,
				"y": 2.2182095051,
				"z": -2.8959146721,
				"element": "C" 
			},
			{
				"x": 1.5208075707,
				"y": 0.8673193704,
				"z": -2.4849371904,
				"element": "C" 
			},
			{
				"x": 0.6900329876,
				"y": 0.3713090247,
				"z": -1.5089266737,
				"element": "C" 
			},
			{
				"x": -0.2826819446,
				"y": 1.1831036203,
				"z": -0.8309034657,
				"element": "C" 
			},
			{
				"x": 0.6900115649,
				"y": -1.0970669996,
				"z": -1.3917704017,
				"element": "N" 
			},
			{
				"x": -0.3841902044,
				"y": -1.6447675946,
				"z": -1.1401084219,
				"element": "O" 
			},
			{
				"x": 1.7480119622,
				"y": -1.6943164988,
				"z": -1.6056654684,
				"element": "O" 
			},
			{
				"x": 2.0743618958,
				"y": -4.6343330798,
				"z": -0.178306389,
				"element": "H" 
			},
			{
				"x": 0.7744643846,
				"y": -5.269894698,
				"z": 0.8582155013,
				"element": "H" 
			},
			{
				"x": 0.4712755877,
				"y": -3.9020453781,
				"z": -0.2609842626,
				"element": "H" 
			},
			{
				"x": 3.5459620801,
				"y": -4.1264408541,
				"z": 1.6102351897,
				"element": "H" 
			},
			{
				"x": 3.0275647897,
				"y": -3.1045692289,
				"z": 2.9526105189,
				"element": "H" 
			},
			{
				"x": 2.4136539206,
				"y": -4.768847154,
				"z": 2.8269998047,
				"element": "H" 
			},
			{
				"x": 0.2394526153,
				"y": -3.5636374517,
				"z": 3.0541488677,
				"element": "H" 
			},
			{
				"x": -0.4080789306,
				"y": -2.8565723054,
				"z": 1.5682310218,
				"element": "H" 
			},
			{
				"x": -0.0285741341,
				"y": -1.2208722452,
				"z": 3.5181343714,
				"element": "H" 
			},
			{
				"x": 1.6907506196,
				"y": -1.4215495287,
				"z": 3.2671080419,
				"element": "H" 
			},
			{
				"x": 1.1677069601,
				"y": 0.5375505626,
				"z": 2.0286415249,
				"element": "H" 
			},
			{
				"x": 1.3358163302,
				"y": -0.7556846624,
				"z": 0.8360933964,
				"element": "H" 
			},
			{
				"x": -1.2911082176,
				"y": -0.1756636626,
				"z": 2.0169061754,
				"element": "H" 
			},
			{
				"x": -3.1246786589,
				"y": 0.2985716407,
				"z": 2.0721940645,
				"element": "H" 
			},
			{
				"x": -5.0393759716,
				"y": 1.7294407486,
				"z": 2.5126017164,
				"element": "H" 
			},
			{
				"x": -5.3126228415,
				"y": 3.8986809911,
				"z": 1.3073840994,
				"element": "H" 
			},
			{
				"x": -3.6106072271,
				"y": 4.5982587704,
				"z": -0.3749469356,
				"element": "H" 
			},
			{
				"x": 0.222471839,
				"y": 4.0071963714,
				"z": -2.7363062944,
				"element": "H" 
			},
			{
				"x": 2.0736273825,
				"y": 2.6029721545,
				"z": -3.659099734,
				"element": "H" 
			},
			{
				"x": 2.2112854735,
				"y": 0.1903149224,
				"z": -2.9723055089,
				"element": "H" 
			}
		],
		 "valence_orbital": [ 
			{
				"type": "occ",
				"energy": -0.25835,
				"method": "rhf"
			},
			{
				"type": "occ",
				"energy": -0.25568,
				"method": "rhf"
			},
			{
				"type": "occ",
				"energy": -0.2525,
				"method": "rhf"
			},
			{
				"type": "occ",
				"energy": -0.20518,
				"method": "rhf"
			},
			{
				"type": "occ",
				"energy": -0.20104,
				"method": "rhf"
			},
			{
				"type": "unocc",
				"energy": -0.09197,
				"method": "rhf"
			},
			{
				"type": "unocc",
				"energy": -0.05517,
				"method": "rhf"
			},
			{
				"type": "unocc",
				"energy": -0.02661,
				"method": "rhf"
			},
			{
				"type": "unocc",
				"energy": -0.00052,
				"method": "rhf"
			},
			{
				"type": "unocc",
				"energy": 0.03086,
				"method": "rhf"
			}
		],
		"cosmo_sigma_profile": { 
			"-0.025": 0.0,
			"-0.024": 0.0,
			"-0.023": 0.0,
			"-0.022": 0.0,
			"-0.021": 0.0,
			"-0.02": 0.0,
			"-0.019": 0.0,
			"-0.018": 0.0,
			"-0.017": 0.0,
			"-0.016": 0.0,
			"-0.015": 0.0,
			"-0.014": 0.172527223401,
			"-0.013": 1.07652524166,
			"-0.012": 1.62566004925,
			"-0.011": 1.37117988508,
			"-0.01": 1.24800972226,
			"-0.009": 1.62842598414,
			"-0.008": 3.45978112507,
			"-0.007": 7.96838962251,
			"-0.006": 13.8591083564,
			"-0.005": 18.8566776597,
			"-0.004": 24.8264825091,
			"-0.003": 25.9950236838,
			"-0.002": 29.993368887,
			"-0.001": 39.4259262571,
			"0.0": 42.7208581387,
			"0.001": 29.1031196497,
			"0.002": 23.1283241704,
			"0.003": 19.3071574821,
			"0.004": 17.2124131049,
			"0.005": 8.7794563052,
			"0.006": 7.51548515735,
			"0.007": 8.95784779671,
			"0.008": 12.8677072937,
			"0.009": 6.38151573654,
			"0.01": 2.57021531764,
			"0.011": 1.65716017235,
			"0.012": 1.48074289168,
			"0.013": 1.2940674466,
			"0.014": 0.994625524244,
			"0.015": 0.531601687027,
			"0.016": 0.253082481805,
			"0.017": 0.0,
			"0.018": 0.0,
			"0.019": 0.0,
			"0.02": 0.0,
			"0.021": 0.0,
			"0.022": 0.0,
			"0.023": 0.0,
			"0.024": 0.0,
			"0.025": 0.0
		}
	}
}
