{
	 "smiles": "OC(=O)C1=CC=CC=C1C(=O)C1=CC=C(Cl)C(=C1)[N+]([O-])=O", 
	 "Tm": 472.65, 
	 "num_atms": 29, 
	 "gaussian": { 
		 "optdone": 1, 
		 "sigma_profile": "yes", 
		 "theory": "DFT", 
		 "functional": "B3LYP", 
		 "basiset": "6-31G**", 
		 "properties": { 
			 "R2extent": 7371.3042, 
			 "electric_dipole_moment_norm": 2.09446972287, 
			 "electric_quadrupole_moment_norm": 29.0708819271, 
			 "total_energy": -1429.27149173, 
			 "HOMO_LUMO_gap": 0.16694, 
			 "cosmo_polarized_energy": -17.92, 
			 "cosmo_cavitation_energy": 37.84, 
			 "cosmo_dispersion_energy": -26.06, 
			 "cosmo_repulsion_energy": 2.01, 
			 "cosmo_total_nonelectrostatic_energy": 13.79, 
			 "SMD_solvation_energy": 10.04 
		},
		"coords": [
			{
				"x": -1.8622130891,
				"y": -1.8186842089,
				"z": 1.0408197138,
				"element": "O" 
			},
			{
				"x": -1.3373789578,
				"y": -1.7708043111,
				"z": 2.2881284248,
				"element": "C" 
			},
			{
				"x": -1.9087382564,
				"y": -2.2348142859,
				"z": 3.2526595153,
				"element": "O" 
			},
			{
				"x": -0.0342944969,
				"y": -1.0456094888,
				"z": 2.3464941312,
				"element": "C" 
			},
			{
				"x": 0.3356733631,
				"y": -0.5312760442,
				"z": 3.5951868809,
				"element": "C" 
			},
			{
				"x": 1.5041927567,
				"y": 0.2118921106,
				"z": 3.7415866806,
				"element": "C" 
			},
			{
				"x": 2.3154228042,
				"y": 0.4494292697,
				"z": 2.6317596679,
				"element": "C" 
			},
			{
				"x": 1.9606945445,
				"y": -0.0672522056,
				"z": 1.3846213401,
				"element": "C" 
			},
			{
				"x": 0.7939099947,
				"y": -0.825288969,
				"z": 1.2273086747,
				"element": "C" 
			},
			{
				"x": 0.5734288076,
				"y": -1.5046144673,
				"z": -0.1069230357,
				"element": "C" 
			},
			{
				"x": 0.7102767379,
				"y": -2.7118756008,
				"z": -0.2087332271,
				"element": "O" 
			},
			{
				"x": 0.2623706894,
				"y": -0.6647339896,
				"z": -1.3085226564,
				"element": "C" 
			},
			{
				"x": 0.2349254976,
				"y": -1.283898751,
				"z": -2.5679351286,
				"element": "C" 
			},
			{
				"x": -0.05524651,
				"y": -0.5521920886,
				"z": -3.7102055002,
				"element": "C" 
			},
			{
				"x": -0.3539955714,
				"y": 0.8143140618,
				"z": -3.6252841268,
				"element": "C" 
			},
			{
				"x": -0.6557653123,
				"y": 1.6647804244,
				"z": -5.1104491996,
				"element": "Cl" 
			},
			{
				"x": -0.3389047964,
				"y": 1.4301208179,
				"z": -2.3639985871,
				"element": "C" 
			},
			{
				"x": -0.0186464826,
				"y": 0.6983786627,
				"z": -1.2201992216,
				"element": "C" 
			},
			{
				"x": -0.6603906052,
				"y": 2.8544471112,
				"z": -2.1561415514,
				"element": "N" 
			},
			{
				"x": -0.0880076725,
				"y": 3.4158248344,
				"z": -1.221991831,
				"element": "O" 
			},
			{
				"x": -1.4879687196,
				"y": 3.3746062358,
				"z": -2.8955895403,
				"element": "O" 
			},
			{
				"x": -2.6870294461,
				"y": -2.327450462,
				"z": 1.1110206229,
				"element": "H" 
			},
			{
				"x": -0.3179061543,
				"y": -0.7227277219,
				"z": 4.4393783125,
				"element": "H" 
			},
			{
				"x": 1.7766357531,
				"y": 0.6088116095,
				"z": 4.7144801271,
				"element": "H" 
			},
			{
				"x": 3.2265438489,
				"y": 1.0312894945,
				"z": 2.7333148247,
				"element": "H" 
			},
			{
				"x": 2.606768566,
				"y": 0.1024947027,
				"z": 0.5280064119,
				"element": "H" 
			},
			{
				"x": 0.4517601537,
				"y": -2.3452035532,
				"z": -2.6264261853,
				"element": "H" 
			},
			{
				"x": -0.0538881422,
				"y": -1.023801155,
				"z": -4.6863721491,
				"element": "H" 
			},
			{
				"x": -0.0020293047,
				"y": 1.2178379676,
				"z": -0.2702933881,
				"element": "H" 
			}
		],
		 "valence_orbital": [ 
			{
				"type": "occ",
				"energy": -0.29044,
				"method": "rhf"
			},
			{
				"type": "occ",
				"energy": -0.28241,
				"method": "rhf"
			},
			{
				"type": "occ",
				"energy": -0.2807,
				"method": "rhf"
			},
			{
				"type": "occ",
				"energy": -0.2752,
				"method": "rhf"
			},
			{
				"type": "occ",
				"energy": -0.26807,
				"method": "rhf"
			},
			{
				"type": "unocc",
				"energy": -0.10113,
				"method": "rhf"
			},
			{
				"type": "unocc",
				"energy": -0.08266,
				"method": "rhf"
			},
			{
				"type": "unocc",
				"energy": -0.0614,
				"method": "rhf"
			},
			{
				"type": "unocc",
				"energy": -0.03708,
				"method": "rhf"
			},
			{
				"type": "unocc",
				"energy": -0.02502,
				"method": "rhf"
			}
		],
		"cosmo_sigma_profile": { 
			"-0.025": 0.0,
			"-0.024": 0.0,
			"-0.023": 0.0,
			"-0.022": 0.0,
			"-0.021": 0.0,
			"-0.02": 0.0,
			"-0.019": 0.383305088007,
			"-0.018": 0.947590793361,
			"-0.017": 1.22492713423,
			"-0.016": 0.28931302059,
			"-0.015": 1.0996153926,
			"-0.014": 0.221409300214,
			"-0.013": 0.249417985783,
			"-0.012": 1.12047407753,
			"-0.011": 0.907993796896,
			"-0.01": 0.885482998206,
			"-0.009": 2.3823860329,
			"-0.008": 8.1033730132,
			"-0.007": 14.4089552028,
			"-0.006": 16.3627793528,
			"-0.005": 16.2946460771,
			"-0.004": 15.200969789,
			"-0.003": 18.9792106562,
			"-0.002": 26.8697704708,
			"-0.001": 23.0106118455,
			"0.0": 22.6343013679,
			"0.001": 19.3375702392,
			"0.002": 25.3213699723,
			"0.003": 17.4463729776,
			"0.004": 9.54034288985,
			"0.005": 8.14516845393,
			"0.006": 8.8984678304,
			"0.007": 13.964364898,
			"0.008": 9.807641463,
			"0.009": 6.28666483771,
			"0.01": 6.82150891453,
			"0.011": 7.19996127129,
			"0.012": 2.6936012106,
			"0.013": 0.0,
			"0.014": 0.0,
			"0.015": 0.0,
			"0.016": 0.0,
			"0.017": 0.0,
			"0.018": 0.0,
			"0.019": 0.0,
			"0.02": 0.0,
			"0.021": 0.0,
			"0.022": 0.0,
			"0.023": 0.0,
			"0.024": 0.0,
			"0.025": 0.0
		}
	}
}
