{
	 "smiles": "OC1CC(NC2(CCCC2)C1)C1=CC=CC=C1", 
	 "Tm": 515.15, 
	 "num_atms": 38, 
	 "gaussian": { 
		 "optdone": 1, 
		 "sigma_profile": "yes", 
		 "theory": "DFT", 
		 "functional": "B3LYP", 
		 "basiset": "6-31G**", 
		 "properties": { 
			 "R2extent": 4099.9277, 
			 "electric_dipole_moment_norm": 1.82194011976, 
			 "electric_quadrupole_moment_norm": 8.97284863519, 
			 "total_energy": -714.225829182, 
			 "HOMO_LUMO_gap": 0.22009, 
			 "cosmo_polarized_energy": -10.36, 
			 "cosmo_cavitation_energy": 35.82, 
			 "cosmo_dispersion_energy": -25.46, 
			 "cosmo_repulsion_energy": 1.95, 
			 "cosmo_total_nonelectrostatic_energy": 12.31, 
			 "SMD_solvation_energy": 4.3 
		},
		"coords": [
			{
				"x": 3.0476994264,
				"y": -0.1398187749,
				"z": 2.3655349521,
				"element": "O" 
			},
			{
				"x": 1.9204047262,
				"y": -0.1415553439,
				"z": 1.4918550565,
				"element": "C" 
			},
			{
				"x": 0.8755532936,
				"y": 0.8968710827,
				"z": 1.9111703191,
				"element": "C" 
			},
			{
				"x": -0.3535046246,
				"y": 0.9236460498,
				"z": 0.9725151381,
				"element": "C" 
			},
			{
				"x": 0.0267347065,
				"y": 0.9931031185,
				"z": -0.4553944654,
				"element": "N" 
			},
			{
				"x": 1.1071878312,
				"y": 0.0877204129,
				"z": -0.9216780689,
				"element": "C" 
			},
			{
				"x": 1.4825530911,
				"y": 0.5243078512,
				"z": -2.3542258929,
				"element": "C" 
			},
			{
				"x": 0.3362750846,
				"y": 0.0148942156,
				"z": -3.2533821603,
				"element": "C" 
			},
			{
				"x": -0.2499798548,
				"y": -1.2197579315,
				"z": -2.5079010351,
				"element": "C" 
			},
			{
				"x": 0.5484135902,
				"y": -1.3332792604,
				"z": -1.1897352242,
				"element": "C" 
			},
			{
				"x": 2.3211833819,
				"y": 0.0953779248,
				"z": 0.0332415397,
				"element": "C" 
			},
			{
				"x": -1.4031940759,
				"y": -0.1680772089,
				"z": 1.2232273893,
				"element": "C" 
			},
			{
				"x": -2.5068399109,
				"y": -0.2354630186,
				"z": 0.3567708224,
				"element": "C" 
			},
			{
				"x": -3.528325483,
				"y": -1.1598711199,
				"z": 0.5616031628,
				"element": "C" 
			},
			{
				"x": -3.469401481,
				"y": -2.0448778697,
				"z": 1.6422218608,
				"element": "C" 
			},
			{
				"x": -2.382511143,
				"y": -1.9874245661,
				"z": 2.5118146216,
				"element": "C" 
			},
			{
				"x": -1.3608839831,
				"y": -1.0539235768,
				"z": 2.3064689912,
				"element": "C" 
			},
			{
				"x": 3.4707619569,
				"y": 0.7267236123,
				"z": 2.2893231663,
				"element": "H" 
			},
			{
				"x": 1.5009426402,
				"y": -1.1488908591,
				"z": 1.5925695171,
				"element": "H" 
			},
			{
				"x": 0.5871984726,
				"y": 0.747767814,
				"z": 2.9562088069,
				"element": "H" 
			},
			{
				"x": 1.3510532099,
				"y": 1.8880771407,
				"z": 1.8611610892,
				"element": "H" 
			},
			{
				"x": -0.8770636499,
				"y": 1.8699714707,
				"z": 1.1659196935,
				"element": "H" 
			},
			{
				"x": 0.3156316837,
				"y": 1.947900916,
				"z": -0.6535330662,
				"element": "H" 
			},
			{
				"x": 1.647889791,
				"y": 1.6064896528,
				"z": -2.4305675898,
				"element": "H" 
			},
			{
				"x": 2.4285604882,
				"y": 0.0395661884,
				"z": -2.6247951156,
				"element": "H" 
			},
			{
				"x": 0.6924313951,
				"y": -0.2325113158,
				"z": -4.2583991462,
				"element": "H" 
			},
			{
				"x": -0.4283060544,
				"y": 0.7885531416,
				"z": -3.3654028135,
				"element": "H" 
			},
			{
				"x": -0.1681007951,
				"y": -2.1369521551,
				"z": -3.0997935123,
				"element": "H" 
			},
			{
				"x": -1.3117552031,
				"y": -1.0705966295,
				"z": -2.2965767926,
				"element": "H" 
			},
			{
				"x": 1.4014562731,
				"y": -2.0108437498,
				"z": -1.3205607972,
				"element": "H" 
			},
			{
				"x": -0.0520686972,
				"y": -1.7255311205,
				"z": -0.3673759551,
				"element": "H" 
			},
			{
				"x": 2.8175114887,
				"y": 1.0776874151,
				"z": -0.0301158812,
				"element": "H" 
			},
			{
				"x": 3.059080807,
				"y": -0.6547887486,
				"z": -0.2733934645,
				"element": "H" 
			},
			{
				"x": -2.5428128259,
				"y": 0.4440217907,
				"z": -0.4889314385,
				"element": "H" 
			},
			{
				"x": -4.3725818746,
				"y": -1.1908761356,
				"z": -0.1219743688,
				"element": "H" 
			},
			{
				"x": -4.2633011638,
				"y": -2.7687036391,
				"z": 1.8029172349,
				"element": "H" 
			},
			{
				"x": -2.3223569302,
				"y": -2.668764226,
				"z": 3.3560551016,
				"element": "H" 
			},
			{
				"x": -0.5296355875,
				"y": -1.032272548,
				"z": 3.0032583248,
				"element": "H" 
			}
		],
		 "valence_orbital": [ 
			{
				"type": "occ",
				"energy": -0.29876,
				"method": "rhf"
			},
			{
				"type": "occ",
				"energy": -0.25828,
				"method": "rhf"
			},
			{
				"type": "occ",
				"energy": -0.24431,
				"method": "rhf"
			},
			{
				"type": "occ",
				"energy": -0.23799,
				"method": "rhf"
			},
			{
				"type": "occ",
				"energy": -0.21987,
				"method": "rhf"
			},
			{
				"type": "unocc",
				"energy": 0.00022,
				"method": "rhf"
			},
			{
				"type": "unocc",
				"energy": 0.00409,
				"method": "rhf"
			},
			{
				"type": "unocc",
				"energy": 0.06607,
				"method": "rhf"
			},
			{
				"type": "unocc",
				"energy": 0.08178,
				"method": "rhf"
			},
			{
				"type": "unocc",
				"energy": 0.09692,
				"method": "rhf"
			}
		],
		"cosmo_sigma_profile": { 
			"-0.025": 0.0,
			"-0.024": 0.0,
			"-0.023": 0.0,
			"-0.022": 0.0,
			"-0.021": 0.0,
			"-0.02": 0.0,
			"-0.019": 0.0,
			"-0.018": 0.0,
			"-0.017": 0.0,
			"-0.016": 0.0,
			"-0.015": 0.177043870281,
			"-0.014": 0.742884351602,
			"-0.013": 0.878414352211,
			"-0.012": 1.21062529272,
			"-0.011": 0.679784318144,
			"-0.01": 1.15518650827,
			"-0.009": 2.44169492465,
			"-0.008": 2.03401993764,
			"-0.007": 2.35315169421,
			"-0.006": 4.87283896104,
			"-0.005": 11.9260107189,
			"-0.004": 18.5233858671,
			"-0.003": 23.4726804181,
			"-0.002": 33.4334102714,
			"-0.001": 32.7297563074,
			"0.0": 32.1756956722,
			"0.001": 27.6631347341,
			"0.002": 21.5363046655,
			"0.003": 11.2807333218,
			"0.004": 11.2559376215,
			"0.005": 9.91964490915,
			"0.006": 8.48705842609,
			"0.007": 3.90192503676,
			"0.008": 2.42315836358,
			"0.009": 1.86290108659,
			"0.01": 2.23469984069,
			"0.011": 1.66285884491,
			"0.012": 0.659591546304,
			"0.013": 2.04363501707,
			"0.014": 2.00235699317,
			"0.015": 1.8271961284,
			"0.016": 0.0399646156439,
			"0.017": 0.0,
			"0.018": 0.0,
			"0.019": 0.0,
			"0.02": 0.0,
			"0.021": 0.0,
			"0.022": 0.0,
			"0.023": 0.0,
			"0.024": 0.0,
			"0.025": 0.0
		}
	}
}
