{
	 "smiles": "CCC1=CC2=C(C=C(OC)C(OC)=C2)C(CC2=CC=CC=C2)=N1", 
	 "Tm": 351.15, 
	 "num_atms": 44, 
	 "gaussian": { 
		 "optdone": 1, 
		 "sigma_profile": "yes", 
		 "theory": "DFT", 
		 "functional": "B3LYP", 
		 "basiset": "6-31G**", 
		 "properties": { 
			 "R2extent": 9934.7231, 
			 "electric_dipole_moment_norm": 2.92466539112, 
			 "electric_quadrupole_moment_norm": 13.4478731805, 
			 "total_energy": -979.979656262, 
			 "HOMO_LUMO_gap": 0.16889, 
			 "cosmo_polarized_energy": -13.53, 
			 "cosmo_cavitation_energy": 47.0, 
			 "cosmo_dispersion_energy": -31.94, 
			 "cosmo_repulsion_energy": 2.47, 
			 "cosmo_total_nonelectrostatic_energy": 17.53, 
			 "SMD_solvation_energy": 8.19 
		},
		"coords": [
			{
				"x": 1.5691255794,
				"y": -1.0245455812,
				"z": 3.3786597143,
				"element": "C" 
			},
			{
				"x": 0.199920047,
				"y": -0.3277579107,
				"z": 3.4272266799,
				"element": "C" 
			},
			{
				"x": -0.1443397553,
				"y": 0.3699071784,
				"z": 2.1310320192,
				"element": "C" 
			},
			{
				"x": -0.3183778862,
				"y": 1.7334097887,
				"z": 2.0424817946,
				"element": "C" 
			},
			{
				"x": -0.6338270258,
				"y": 2.3221500767,
				"z": 0.7925199923,
				"element": "C" 
			},
			{
				"x": -0.7581438062,
				"y": 1.4702218592,
				"z": -0.3431017241,
				"element": "C" 
			},
			{
				"x": -1.0694585789,
				"y": 2.0414254326,
				"z": -1.608178544,
				"element": "C" 
			},
			{
				"x": -1.254088127,
				"y": 3.402399669,
				"z": -1.745676296,
				"element": "C" 
			},
			{
				"x": -1.525163493,
				"y": 4.0412077791,
				"z": -2.9195318801,
				"element": "O" 
			},
			{
				"x": -1.5991087645,
				"y": 3.260227287,
				"z": -4.1026349664,
				"element": "C" 
			},
			{
				"x": -1.1459876662,
				"y": 4.2571313258,
				"z": -0.5974495713,
				"element": "C" 
			},
			{
				"x": -1.2679532281,
				"y": 5.6159210097,
				"z": -0.7178449648,
				"element": "O" 
			},
			{
				"x": -2.5717490158,
				"y": 6.1089169737,
				"z": -1.0415068193,
				"element": "C" 
			},
			{
				"x": -0.8413171909,
				"y": 3.7172951506,
				"z": 0.628604795,
				"element": "C" 
			},
			{
				"x": -0.5521284692,
				"y": 0.0649202226,
				"z": -0.1372577743,
				"element": "C" 
			},
			{
				"x": -0.6688525702,
				"y": -0.8982397676,
				"z": -1.3167418167,
				"element": "C" 
			},
			{
				"x": -0.419404595,
				"y": -2.3542214495,
				"z": -0.9928089229,
				"element": "C" 
			},
			{
				"x": -1.4802894117,
				"y": -3.208187374,
				"z": -0.6706759679,
				"element": "C" 
			},
			{
				"x": -1.253926102,
				"y": -4.5545399198,
				"z": -0.3812884064,
				"element": "C" 
			},
			{
				"x": 0.0433650841,
				"y": -5.0684667552,
				"z": -0.4113773805,
				"element": "C" 
			},
			{
				"x": 1.1099348439,
				"y": -4.226391563,
				"z": -0.7327999261,
				"element": "C" 
			},
			{
				"x": 0.8774430602,
				"y": -2.881623767,
				"z": -1.0218742392,
				"element": "C" 
			},
			{
				"x": -0.2630661572,
				"y": -0.4445804792,
				"z": 1.0420947814,
				"element": "N" 
			},
			{
				"x": 1.5997566073,
				"y": -1.7309259268,
				"z": 2.5448573187,
				"element": "H" 
			},
			{
				"x": 2.376399557,
				"y": -0.2974161154,
				"z": 3.2391230751,
				"element": "H" 
			},
			{
				"x": 1.7625405446,
				"y": -1.5726904762,
				"z": 4.3065441049,
				"element": "H" 
			},
			{
				"x": -0.5731620746,
				"y": -1.0799947938,
				"z": 3.6294076468,
				"element": "H" 
			},
			{
				"x": 0.1692390297,
				"y": 0.3941092419,
				"z": 4.2513528577,
				"element": "H" 
			},
			{
				"x": -0.2179915899,
				"y": 2.3630366701,
				"z": 2.9223949648,
				"element": "H" 
			},
			{
				"x": -1.1506769966,
				"y": 1.3972887625,
				"z": -2.4734285328,
				"element": "H" 
			},
			{
				"x": -1.7995487197,
				"y": 3.9611109096,
				"z": -4.9140758068,
				"element": "H" 
			},
			{
				"x": -0.6533891269,
				"y": 2.7391384175,
				"z": -4.2976493153,
				"element": "H" 
			},
			{
				"x": -2.4107665282,
				"y": 2.5231384445,
				"z": -4.0502440748,
				"element": "H" 
			},
			{
				"x": -3.2996874118,
				"y": 5.8149121575,
				"z": -0.27435081,
				"element": "H" 
			},
			{
				"x": -2.4866534466,
				"y": 7.1971908927,
				"z": -1.0572181373,
				"element": "H" 
			},
			{
				"x": -2.9055324228,
				"y": 5.7536768277,
				"z": -2.0202417206,
				"element": "H" 
			},
			{
				"x": -0.7524979871,
				"y": 4.3875276855,
				"z": 1.4780802306,
				"element": "H" 
			},
			{
				"x": -1.6694272904,
				"y": -0.7892748685,
				"z": -1.756510056,
				"element": "H" 
			},
			{
				"x": 0.033050497,
				"y": -0.5743348244,
				"z": -2.0973303564,
				"element": "H" 
			},
			{
				"x": -2.4934651832,
				"y": -2.814121104,
				"z": -0.6447227871,
				"element": "H" 
			},
			{
				"x": -2.091110069,
				"y": -5.2020831324,
				"z": -0.1352444688,
				"element": "H" 
			},
			{
				"x": 0.2218564423,
				"y": -6.1169151709,
				"z": -0.1897838701,
				"element": "H" 
			},
			{
				"x": 2.123234674,
				"y": -4.6176681253,
				"z": -0.7621473261,
				"element": "H" 
			},
			{
				"x": 1.7123247235,
				"y": -2.2312846579,
				"z": -1.2715835129,
				"element": "H" 
			}
		],
		 "valence_orbital": [ 
			{
				"type": "occ",
				"energy": -0.24117,
				"method": "rhf"
			},
			{
				"type": "occ",
				"energy": -0.23895,
				"method": "rhf"
			},
			{
				"type": "occ",
				"energy": -0.23099,
				"method": "rhf"
			},
			{
				"type": "occ",
				"energy": -0.23021,
				"method": "rhf"
			},
			{
				"type": "occ",
				"energy": -0.2079,
				"method": "rhf"
			},
			{
				"type": "unocc",
				"energy": -0.03901,
				"method": "rhf"
			},
			{
				"type": "unocc",
				"energy": -0.00934,
				"method": "rhf"
			},
			{
				"type": "unocc",
				"energy": 0.00905,
				"method": "rhf"
			},
			{
				"type": "unocc",
				"energy": 0.0106,
				"method": "rhf"
			},
			{
				"type": "unocc",
				"energy": 0.03546,
				"method": "rhf"
			}
		],
		"cosmo_sigma_profile": { 
			"-0.025": 0.0,
			"-0.024": 0.0,
			"-0.023": 0.0,
			"-0.022": 0.0,
			"-0.021": 0.0,
			"-0.02": 0.0,
			"-0.019": 0.0,
			"-0.018": 0.0,
			"-0.017": 0.0,
			"-0.016": 0.0,
			"-0.015": 0.0,
			"-0.014": 0.0,
			"-0.013": 0.0,
			"-0.012": 0.0,
			"-0.011": 0.0,
			"-0.01": 0.0,
			"-0.009": 0.0,
			"-0.008": 0.0,
			"-0.007": 1.82576414027,
			"-0.006": 14.9224029288,
			"-0.005": 33.3989936545,
			"-0.004": 35.1438064567,
			"-0.003": 40.4690149954,
			"-0.002": 31.9070773401,
			"-0.001": 29.2762523279,
			"0.0": 29.1590980474,
			"0.001": 28.3522125557,
			"0.002": 27.3488177643,
			"0.003": 31.7021563716,
			"0.004": 20.8764724736,
			"0.005": 10.963858181,
			"0.006": 10.9058447006,
			"0.007": 7.50761049979,
			"0.008": 4.19432103606,
			"0.009": 3.72429022859,
			"0.01": 4.2584154369,
			"0.011": 2.9021681029,
			"0.012": 1.43899554151,
			"0.013": 1.11475578398,
			"0.014": 0.501122094159,
			"0.015": 0.636151613904,
			"0.016": 0.0623752382972,
			"0.017": 0.0,
			"0.018": 0.0,
			"0.019": 0.0,
			"0.02": 0.0,
			"0.021": 0.0,
			"0.022": 0.0,
			"0.023": 0.0,
			"0.024": 0.0,
			"0.025": 0.0
		}
	}
}
