{
	 "smiles": "CNC(=O)C1=NC(Cl)=CC=C1", 
	 "Tm": 316.15, 
	 "num_atms": 18, 
	 "gaussian": { 
		 "optdone": 1, 
		 "sigma_profile": "yes", 
		 "theory": "DFT", 
		 "functional": "B3LYP", 
		 "basiset": "6-31G**", 
		 "properties": { 
			 "R2extent": 2596.2684, 
			 "electric_dipole_moment_norm": 1.10027962355, 
			 "electric_quadrupole_moment_norm": 18.0423133725, 
			 "total_energy": -915.891926811, 
			 "HOMO_LUMO_gap": 0.1886, 
			 "cosmo_polarized_energy": -10.61, 
			 "cosmo_cavitation_energy": 24.33, 
			 "cosmo_dispersion_energy": -17.94, 
			 "cosmo_repulsion_energy": 1.45, 
			 "cosmo_total_nonelectrostatic_energy": 7.84, 
			 "SMD_solvation_energy": 3.82 
		},
		"coords": [
			{
				"x": -2.7419768316,
				"y": -0.2714057167,
				"z": -2.2013554274,
				"element": "C" 
			},
			{
				"x": -3.5778864986,
				"y": -0.1752961388,
				"z": -1.0076463924,
				"element": "N" 
			},
			{
				"x": -3.2824169636,
				"y": -0.0511151055,
				"z": 0.3170528043,
				"element": "C" 
			},
			{
				"x": -4.1816278016,
				"y": 0.0116582321,
				"z": 1.1566751654,
				"element": "O" 
			},
			{
				"x": -1.8437934406,
				"y": 0.0105622955,
				"z": 0.7800935955,
				"element": "C" 
			},
			{
				"x": -0.8412336555,
				"y": -0.0567958426,
				"z": -0.1118039884,
				"element": "N" 
			},
			{
				"x": 0.3951111256,
				"y": 0.0013028849,
				"z": 0.3429854763,
				"element": "C" 
			},
			{
				"x": 1.6844646757,
				"y": -0.0902557804,
				"z": -0.8578046812,
				"element": "Cl" 
			},
			{
				"x": 0.7424321544,
				"y": 0.1282844004,
				"z": 1.6899115174,
				"element": "C" 
			},
			{
				"x": -0.3030834162,
				"y": 0.1974383653,
				"z": 2.6083519411,
				"element": "C" 
			},
			{
				"x": -1.6189006643,
				"y": 0.138323506,
				"z": 2.1541297946,
				"element": "C" 
			},
			{
				"x": -2.0879982631,
				"y": -1.1456735754,
				"z": -2.1759128298,
				"element": "H" 
			},
			{
				"x": -3.4139847049,
				"y": -0.3586392979,
				"z": -3.0585399959,
				"element": "H" 
			},
			{
				"x": -2.1132123778,
				"y": 0.6114790056,
				"z": -2.3350288108,
				"element": "H" 
			},
			{
				"x": -4.5792826574,
				"y": -0.2019090307,
				"z": -1.1443398361,
				"element": "H" 
			},
			{
				"x": 1.7814218926,
				"y": 0.1699532507,
				"z": 1.9936667343,
				"element": "H" 
			},
			{
				"x": -0.0885613781,
				"y": 0.2965455781,
				"z": 3.6682716869,
				"element": "H" 
			},
			{
				"x": -2.4729711948,
				"y": 0.1869429694,
				"z": 2.8176932462,
				"element": "H" 
			}
		],
		 "valence_orbital": [ 
			{
				"type": "occ",
				"energy": -0.30688,
				"method": "rhf"
			},
			{
				"type": "occ",
				"energy": -0.28918,
				"method": "rhf"
			},
			{
				"type": "occ",
				"energy": -0.26513,
				"method": "rhf"
			},
			{
				"type": "occ",
				"energy": -0.25238,
				"method": "rhf"
			},
			{
				"type": "occ",
				"energy": -0.24887,
				"method": "rhf"
			},
			{
				"type": "unocc",
				"energy": -0.06027,
				"method": "rhf"
			},
			{
				"type": "unocc",
				"energy": -0.03636,
				"method": "rhf"
			},
			{
				"type": "unocc",
				"energy": 0.0266,
				"method": "rhf"
			},
			{
				"type": "unocc",
				"energy": 0.05225,
				"method": "rhf"
			},
			{
				"type": "unocc",
				"energy": 0.08492,
				"method": "rhf"
			}
		],
		"cosmo_sigma_profile": { 
			"-0.025": 0.0,
			"-0.024": 0.0,
			"-0.023": 0.0,
			"-0.022": 0.0,
			"-0.021": 0.0,
			"-0.02": 0.0,
			"-0.019": 0.0,
			"-0.018": 0.0,
			"-0.017": 0.0,
			"-0.016": 0.0,
			"-0.015": 0.0,
			"-0.014": 0.421232427149,
			"-0.013": 1.12854560634,
			"-0.012": 1.44932133666,
			"-0.011": 0.953513616093,
			"-0.01": 0.729044400914,
			"-0.009": 1.85320406168,
			"-0.008": 5.61321307721,
			"-0.007": 6.83622663207,
			"-0.006": 7.97057519354,
			"-0.005": 7.76939677054,
			"-0.004": 9.31901709024,
			"-0.003": 10.2125018311,
			"-0.002": 18.2078918166,
			"-0.001": 24.3513909006,
			"0.0": 20.6634050026,
			"0.001": 17.1091863614,
			"0.002": 9.83495171117,
			"0.003": 10.4574242229,
			"0.004": 12.6001690536,
			"0.005": 7.72707548922,
			"0.006": 3.424154951,
			"0.007": 2.68563572822,
			"0.008": 1.43447912014,
			"0.009": 1.05039947309,
			"0.01": 1.65253307656,
			"0.011": 1.46946685845,
			"0.012": 1.96405854014,
			"0.013": 3.84067353267,
			"0.014": 3.72842091418,
			"0.015": 0.393671944843,
			"0.016": 0.0,
			"0.017": 0.0,
			"0.018": 0.0,
			"0.019": 0.0,
			"0.02": 0.0,
			"0.021": 0.0,
			"0.022": 0.0,
			"0.023": 0.0,
			"0.024": 0.0,
			"0.025": 0.0
		}
	}
}
