{
	 "smiles": "ClC1=NC=CC2=C1C=CO2", 
	 "Tm": 314.65, 
	 "num_atms": 14, 
	 "gaussian": { 
		 "optdone": 1, 
		 "sigma_profile": "yes", 
		 "theory": "DFT", 
		 "functional": "B3LYP", 
		 "basiset": "6-31G**", 
		 "properties": { 
			 "R2extent": 2072.6931, 
			 "electric_dipole_moment_norm": 3.27679091796, 
			 "electric_quadrupole_moment_norm": 12.1123667861, 
			 "total_energy": -859.302875159, 
			 "HOMO_LUMO_gap": 0.19809, 
			 "cosmo_polarized_energy": -7.19, 
			 "cosmo_cavitation_energy": 20.43, 
			 "cosmo_dispersion_energy": -15.68, 
			 "cosmo_repulsion_energy": 1.25, 
			 "cosmo_total_nonelectrostatic_energy": 6.01, 
			 "SMD_solvation_energy": 2.73 
		},
		"coords": [
			{
				"x": 0.5328899445,
				"y": 0.5415890537,
				"z": -3.9492333308,
				"element": "Cl" 
			},
			{
				"x": 0.93673572,
				"y": 0.5879298438,
				"z": -2.2353335028,
				"element": "C" 
			},
			{
				"x": 2.0970239638,
				"y": 1.1029923313,
				"z": -1.895827253,
				"element": "N" 
			},
			{
				"x": 2.428103128,
				"y": 1.1489688328,
				"z": -0.5870636217,
				"element": "C" 
			},
			{
				"x": 1.6204085923,
				"y": 0.6845704409,
				"z": 0.4470610911,
				"element": "C" 
			},
			{
				"x": 0.4027234865,
				"y": 0.1479833174,
				"z": 0.0430986692,
				"element": "C" 
			},
			{
				"x": 0.0167567408,
				"y": 0.0797081018,
				"z": -1.3070570513,
				"element": "C" 
			},
			{
				"x": -1.287818606,
				"y": -0.5306671128,
				"z": -1.3162208502,
				"element": "C" 
			},
			{
				"x": -1.5814459972,
				"y": -0.7764634537,
				"z": -0.0165224318,
				"element": "C" 
			},
			{
				"x": -0.572839988,
				"y": -0.3748606726,
				"z": 0.8337076723,
				"element": "O" 
			},
			{
				"x": 3.3985786708,
				"y": 1.5849798665,
				"z": -0.3657891616,
				"element": "H" 
			},
			{
				"x": 1.9219313159,
				"y": 0.7391655609,
				"z": 1.4861398703,
				"element": "H" 
			},
			{
				"x": -1.9048278806,
				"y": -0.7482277071,
				"z": -2.1746307472,
				"element": "H" 
			},
			{
				"x": -2.4377190908,
				"y": -1.2180684028,
				"z": 0.4696706475,
				"element": "H" 
			}
		],
		 "valence_orbital": [ 
			{
				"type": "occ",
				"energy": -0.31522,
				"method": "rhf"
			},
			{
				"type": "occ",
				"energy": -0.30562,
				"method": "rhf"
			},
			{
				"type": "occ",
				"energy": -0.2805,
				"method": "rhf"
			},
			{
				"type": "occ",
				"energy": -0.27594,
				"method": "rhf"
			},
			{
				"type": "occ",
				"energy": -0.23946,
				"method": "rhf"
			},
			{
				"type": "unocc",
				"energy": -0.04137,
				"method": "rhf"
			},
			{
				"type": "unocc",
				"energy": -0.01854,
				"method": "rhf"
			},
			{
				"type": "unocc",
				"energy": 0.03443,
				"method": "rhf"
			},
			{
				"type": "unocc",
				"energy": 0.03662,
				"method": "rhf"
			},
			{
				"type": "unocc",
				"energy": 0.10077,
				"method": "rhf"
			}
		],
		"cosmo_sigma_profile": { 
			"-0.025": 0.0,
			"-0.024": 0.0,
			"-0.023": 0.0,
			"-0.022": 0.0,
			"-0.021": 0.0,
			"-0.02": 0.0,
			"-0.019": 0.0,
			"-0.018": 0.0,
			"-0.017": 0.0,
			"-0.016": 0.0,
			"-0.015": 0.0,
			"-0.014": 0.0,
			"-0.013": 0.0,
			"-0.012": 0.0,
			"-0.011": 0.364717691232,
			"-0.01": 1.90050371324,
			"-0.009": 2.68333920917,
			"-0.008": 6.11197686745,
			"-0.007": 6.06644361181,
			"-0.006": 7.64598975609,
			"-0.005": 6.09420349768,
			"-0.004": 6.6393044758,
			"-0.003": 6.60160928312,
			"-0.002": 7.38100032616,
			"-0.001": 16.9659907463,
			"0.0": 23.6871460527,
			"0.001": 17.5328419485,
			"0.002": 14.6441047028,
			"0.003": 10.7114406399,
			"0.004": 10.9868321301,
			"0.005": 6.37688712924,
			"0.006": 4.05675747144,
			"0.007": 3.25245418519,
			"0.008": 2.06397610893,
			"0.009": 1.153546887,
			"0.01": 1.10768013963,
			"0.011": 1.03945243026,
			"0.012": 1.00599780632,
			"0.013": 0.736460590693,
			"0.014": 0.970457392226,
			"0.015": 0.333452990087,
			"0.016": 0.0,
			"0.017": 0.0,
			"0.018": 0.0,
			"0.019": 0.0,
			"0.02": 0.0,
			"0.021": 0.0,
			"0.022": 0.0,
			"0.023": 0.0,
			"0.024": 0.0,
			"0.025": 0.0
		}
	}
}
