{
	 "smiles": "CNC(=O)C1=CC(CCN)=CC=C1", 
	 "Tm": 384.15, 
	 "num_atms": 27, 
	 "gaussian": { 
		 "optdone": 1, 
		 "sigma_profile": "yes", 
		 "theory": "DFT", 
		 "functional": "B3LYP", 
		 "basiset": "6-31G**", 
		 "properties": { 
			 "R2extent": 3997.7678, 
			 "electric_dipole_moment_norm": 2.85822756792, 
			 "electric_quadrupole_moment_norm": 18.9109093708, 
			 "total_energy": -574.246906316, 
			 "HOMO_LUMO_gap": 0.20933, 
			 "cosmo_polarized_energy": -14.92, 
			 "cosmo_cavitation_energy": 30.07, 
			 "cosmo_dispersion_energy": -21.96, 
			 "cosmo_repulsion_energy": 1.78, 
			 "cosmo_total_nonelectrostatic_energy": 9.89, 
			 "SMD_solvation_energy": 4.76 
		},
		"coords": [
			{
				"x": -0.8234266615,
				"y": -3.6987753105,
				"z": 3.6219561505,
				"element": "C" 
			},
			{
				"x": -0.9541793996,
				"y": -3.0585935711,
				"z": 2.3259604518,
				"element": "N" 
			},
			{
				"x": 0.1042159743,
				"y": -2.4270239349,
				"z": 1.7242700388,
				"element": "C" 
			},
			{
				"x": 1.2284972379,
				"y": -2.4112982157,
				"z": 2.2202975803,
				"element": "O" 
			},
			{
				"x": -0.1918602729,
				"y": -1.7524534943,
				"z": 0.4131617228,
				"element": "C" 
			},
			{
				"x": 0.6924318344,
				"y": -0.749161448,
				"z": -0.0038937625,
				"element": "C" 
			},
			{
				"x": 0.5030044287,
				"y": -0.0567678824,
				"z": -1.2031841292,
				"element": "C" 
			},
			{
				"x": 1.4809939512,
				"y": 1.0221893896,
				"z": -1.6207041874,
				"element": "C" 
			},
			{
				"x": 2.3436234878,
				"y": 0.6695062607,
				"z": -2.8495188407,
				"element": "C" 
			},
			{
				"x": 1.5523569538,
				"y": 0.699980016,
				"z": -4.0844563369,
				"element": "N" 
			},
			{
				"x": -0.599460915,
				"y": -0.3993685676,
				"z": -2.0034250984,
				"element": "C" 
			},
			{
				"x": -1.474222538,
				"y": -1.41146381,
				"z": -1.6096600374,
				"element": "C" 
			},
			{
				"x": -1.2776231312,
				"y": -2.0887214973,
				"z": -0.4056664507,
				"element": "C" 
			},
			{
				"x": -1.2110512235,
				"y": -3.0701853916,
				"z": 4.4340253558,
				"element": "H" 
			},
			{
				"x": -1.3563576259,
				"y": -4.6549603902,
				"z": 3.6330848433,
				"element": "H" 
			},
			{
				"x": 0.2383740618,
				"y": -3.87191339,
				"z": 3.7980200835,
				"element": "H" 
			},
			{
				"x": -1.8809441091,
				"y": -2.8678751242,
				"z": 1.9786049534,
				"element": "H" 
			},
			{
				"x": 1.5380118871,
				"y": -0.5241773912,
				"z": 0.6391645846,
				"element": "H" 
			},
			{
				"x": 2.1517764763,
				"y": 1.2384676754,
				"z": -0.7817732254,
				"element": "H" 
			},
			{
				"x": 0.9442193824,
				"y": 1.9573635607,
				"z": -1.8340191755,
				"element": "H" 
			},
			{
				"x": 2.7406726333,
				"y": -0.344315844,
				"z": -2.7260930063,
				"element": "H" 
			},
			{
				"x": 3.212811556,
				"y": 1.3498751838,
				"z": -2.8673148002,
				"element": "H" 
			},
			{
				"x": 1.364411042,
				"y": 1.6647626986,
				"z": -4.3483867283,
				"element": "H" 
			},
			{
				"x": 2.0795360786,
				"y": 0.2901100893,
				"z": -4.8507504867,
				"element": "H" 
			},
			{
				"x": -0.7433953563,
				"y": 0.1113998603,
				"z": -2.9490768776,
				"element": "H" 
			},
			{
				"x": -2.310597753,
				"y": -1.6803555673,
				"z": -2.2489404082,
				"element": "H" 
			},
			{
				"x": -1.9489179998,
				"y": -2.8985439042,
				"z": -0.1332822137,
				"element": "H" 
			}
		],
		 "valence_orbital": [ 
			{
				"type": "occ",
				"energy": -0.25076,
				"method": "rhf"
			},
			{
				"type": "occ",
				"energy": -0.24756,
				"method": "rhf"
			},
			{
				"type": "occ",
				"energy": -0.23913,
				"method": "rhf"
			},
			{
				"type": "occ",
				"energy": -0.23649,
				"method": "rhf"
			},
			{
				"type": "occ",
				"energy": -0.23316,
				"method": "rhf"
			},
			{
				"type": "unocc",
				"energy": -0.02383,
				"method": "rhf"
			},
			{
				"type": "unocc",
				"energy": 0.00255,
				"method": "rhf"
			},
			{
				"type": "unocc",
				"energy": 0.06762,
				"method": "rhf"
			},
			{
				"type": "unocc",
				"energy": 0.08152,
				"method": "rhf"
			},
			{
				"type": "unocc",
				"energy": 0.08783,
				"method": "rhf"
			}
		],
		"cosmo_sigma_profile": { 
			"-0.025": 0.0,
			"-0.024": 0.0,
			"-0.023": 0.0,
			"-0.022": 0.0,
			"-0.021": 0.0,
			"-0.02": 0.0,
			"-0.019": 0.0,
			"-0.018": 0.0,
			"-0.017": 0.0,
			"-0.016": 0.0,
			"-0.015": 0.0,
			"-0.014": 0.497743003374,
			"-0.013": 1.45378761633,
			"-0.012": 0.548732053322,
			"-0.011": 1.56719797913,
			"-0.01": 2.40180487555,
			"-0.009": 4.00033218958,
			"-0.008": 4.82036502401,
			"-0.007": 4.38524894439,
			"-0.006": 6.96393726808,
			"-0.005": 11.2287091826,
			"-0.004": 19.5931385497,
			"-0.003": 22.0179682395,
			"-0.002": 25.1770748241,
			"-0.001": 24.2000755931,
			"0.0": 17.7230521276,
			"0.001": 12.5181214119,
			"0.002": 11.0250294975,
			"0.003": 10.6065161646,
			"0.004": 11.1701379984,
			"0.005": 12.7582010548,
			"0.006": 6.03825996325,
			"0.007": 2.74738773976,
			"0.008": 2.68691706744,
			"0.009": 2.91263787154,
			"0.01": 1.78908664973,
			"0.011": 2.20777425697,
			"0.012": 3.27181294847,
			"0.013": 3.43353641607,
			"0.014": 5.72922425492,
			"0.015": 0.849565976284,
			"0.016": 0.0,
			"0.017": 0.0,
			"0.018": 0.0,
			"0.019": 0.0,
			"0.02": 0.0,
			"0.021": 0.0,
			"0.022": 0.0,
			"0.023": 0.0,
			"0.024": 0.0,
			"0.025": 0.0
		}
	}
}
