{
	 "smiles": "CNC1(CCCCC1=O)C1=C(Cl)C=CC=C1", 
	 "Tm": 365.65, 
	 "num_atms": 32, 
	 "gaussian": { 
		 "optdone": 1, 
		 "sigma_profile": "yes", 
		 "theory": "DFT", 
		 "functional": "B3LYP", 
		 "basiset": "6-31G**", 
		 "properties": { 
			 "R2extent": 3724.1864, 
			 "electric_dipole_moment_norm": 4.04313904906, 
			 "electric_quadrupole_moment_norm": 6.51397762277, 
			 "total_energy": -1095.18406568, 
			 "HOMO_LUMO_gap": 0.18533, 
			 "cosmo_polarized_energy": -10.05, 
			 "cosmo_cavitation_energy": 33.31, 
			 "cosmo_dispersion_energy": -23.66, 
			 "cosmo_repulsion_energy": 1.83, 
			 "cosmo_total_nonelectrostatic_energy": 11.47, 
			 "SMD_solvation_energy": 4.32 
		},
		"coords": [
			{
				"x": 0.4329351201,
				"y": 1.9161265594,
				"z": -2.0739412628,
				"element": "C" 
			},
			{
				"x": -0.1099867534,
				"y": 0.5851725995,
				"z": -1.8573369667,
				"element": "N" 
			},
			{
				"x": -0.0844921381,
				"y": 0.0246342813,
				"z": -0.509062266,
				"element": "C" 
			},
			{
				"x": 1.2824548623,
				"y": -0.7212436863,
				"z": -0.3204473731,
				"element": "C" 
			},
			{
				"x": 1.382656717,
				"y": -1.6287551576,
				"z": 0.9174253907,
				"element": "C" 
			},
			{
				"x": 0.251325317,
				"y": -2.6646478666,
				"z": 0.944679652,
				"element": "C" 
			},
			{
				"x": -1.1236766875,
				"y": -1.9753390798,
				"z": 0.7954139331,
				"element": "C" 
			},
			{
				"x": -1.1218838607,
				"y": -1.1358270755,
				"z": -0.4681066921,
				"element": "C" 
			},
			{
				"x": -1.788774547,
				"y": -1.4233911227,
				"z": -1.4418257113,
				"element": "O" 
			},
			{
				"x": -0.3566914952,
				"y": 1.0793954659,
				"z": 0.5952424649,
				"element": "C" 
			},
			{
				"x": -1.5984851065,
				"y": 1.7253968963,
				"z": 0.7619686249,
				"element": "C" 
			},
			{
				"x": -2.9900497142,
				"y": 1.3329424364,
				"z": -0.2487799497,
				"element": "Cl" 
			},
			{
				"x": -1.8050886612,
				"y": 2.7216163194,
				"z": 1.7181727905,
				"element": "C" 
			},
			{
				"x": -0.758179291,
				"y": 3.1267109034,
				"z": 2.5414777745,
				"element": "C" 
			},
			{
				"x": 0.4926005147,
				"y": 2.5336557668,
				"z": 2.3889812932,
				"element": "C" 
			},
			{
				"x": 0.6769998565,
				"y": 1.5366774581,
				"z": 1.4326109749,
				"element": "C" 
			},
			{
				"x": 0.3986512741,
				"y": 2.1307656937,
				"z": -3.1464958213,
				"element": "H" 
			},
			{
				"x": -0.0898649087,
				"y": 2.7313328108,
				"z": -1.5469752533,
				"element": "H" 
			},
			{
				"x": 1.485715749,
				"y": 1.951681702,
				"z": -1.7716646833,
				"element": "H" 
			},
			{
				"x": -1.0370024083,
				"y": 0.4686230486,
				"z": -2.2535795169,
				"element": "H" 
			},
			{
				"x": 2.1032019843,
				"y": 0.0039891109,
				"z": -0.3485049357,
				"element": "H" 
			},
			{
				"x": 1.3940041569,
				"y": -1.3278327383,
				"z": -1.2255464124,
				"element": "H" 
			},
			{
				"x": 2.3546673582,
				"y": -2.1363506826,
				"z": 0.9100077591,
				"element": "H" 
			},
			{
				"x": 1.3482183938,
				"y": -1.0364853372,
				"z": 1.8387850218,
				"element": "H" 
			},
			{
				"x": 0.2769906302,
				"y": -3.2461895325,
				"z": 1.8728819068,
				"element": "H" 
			},
			{
				"x": 0.3800714144,
				"y": -3.3765847242,
				"z": 0.1194077623,
				"element": "H" 
			},
			{
				"x": -1.9350282019,
				"y": -2.7031881655,
				"z": 0.7201693031,
				"element": "H" 
			},
			{
				"x": -1.3058401464,
				"y": -1.3332085791,
				"z": 1.6655357103,
				"element": "H" 
			},
			{
				"x": -2.7866277456,
				"y": 3.1748742377,
				"z": 1.8024500884,
				"element": "H" 
			},
			{
				"x": -0.9217758906,
				"y": 3.9020240614,
				"z": 3.2836521734,
				"element": "H" 
			},
			{
				"x": 1.3286139784,
				"y": 2.8437462408,
				"z": 3.0086284518,
				"element": "H" 
			},
			{
				"x": 1.6650402295,
				"y": 1.1055781555,
				"z": 1.332575769,
				"element": "H" 
			}
		],
		 "valence_orbital": [ 
			{
				"type": "occ",
				"energy": -0.30663,
				"method": "rhf"
			},
			{
				"type": "occ",
				"energy": -0.26787,
				"method": "rhf"
			},
			{
				"type": "occ",
				"energy": -0.25068,
				"method": "rhf"
			},
			{
				"type": "occ",
				"energy": -0.23933,
				"method": "rhf"
			},
			{
				"type": "occ",
				"energy": -0.21057,
				"method": "rhf"
			},
			{
				"type": "unocc",
				"energy": -0.02524,
				"method": "rhf"
			},
			{
				"type": "unocc",
				"energy": -0.01869,
				"method": "rhf"
			},
			{
				"type": "unocc",
				"energy": -0.00884,
				"method": "rhf"
			},
			{
				"type": "unocc",
				"energy": 0.03131,
				"method": "rhf"
			},
			{
				"type": "unocc",
				"energy": 0.08967,
				"method": "rhf"
			}
		],
		"cosmo_sigma_profile": { 
			"-0.025": 0.0,
			"-0.024": 0.0,
			"-0.023": 0.0,
			"-0.022": 0.0,
			"-0.021": 0.0,
			"-0.02": 0.0,
			"-0.019": 0.0,
			"-0.018": 0.0,
			"-0.017": 0.0,
			"-0.016": 0.0,
			"-0.015": 0.0,
			"-0.014": 0.0,
			"-0.013": 0.0,
			"-0.012": 0.0,
			"-0.011": 0.0,
			"-0.01": 0.0,
			"-0.009": 0.0,
			"-0.008": 0.0134740735853,
			"-0.007": 3.68598379693,
			"-0.006": 9.2138945013,
			"-0.005": 12.3193591195,
			"-0.004": 21.9074435839,
			"-0.003": 31.3817280038,
			"-0.002": 33.2681536299,
			"-0.001": 30.3149308971,
			"0.0": 27.6076634097,
			"0.001": 16.9536594171,
			"0.002": 15.4519983815,
			"0.003": 14.7417241359,
			"0.004": 16.1272832315,
			"0.005": 6.54674133424,
			"0.006": 2.82641116607,
			"0.007": 2.63361557897,
			"0.008": 2.62697841095,
			"0.009": 2.08444229159,
			"0.01": 3.65853415508,
			"0.011": 4.380854769,
			"0.012": 3.40746594665,
			"0.013": 1.3438987457,
			"0.014": 0.44758292287,
			"0.015": 0.395075619661,
			"0.016": 0.0845081184937,
			"0.017": 0.0,
			"0.018": 0.0,
			"0.019": 0.0,
			"0.02": 0.0,
			"0.021": 0.0,
			"0.022": 0.0,
			"0.023": 0.0,
			"0.024": 0.0,
			"0.025": 0.0
		}
	}
}
