{
	 "smiles": "BrCC1=CC=CC2=NSN=C12", 
	 "Tm": 363.65, 
	 "num_atms": 16, 
	 "gaussian": { 
		 "optdone": 1, 
		 "sigma_profile": "yes", 
		 "theory": "DFT", 
		 "functional": "B3LYP", 
		 "basiset": "6-31G**", 
		 "properties": { 
			 "R2extent": 4175.2437, 
			 "electric_dipole_moment_norm": 2.7539655045, 
			 "electric_quadrupole_moment_norm": 6.83036879531, 
			 "total_energy": -3348.83332555, 
			 "HOMO_LUMO_gap": 0.14973, 
			 "cosmo_polarized_energy": -8.26, 
			 "cosmo_cavitation_energy": 24.4, 
			 "cosmo_dispersion_energy": -18.95, 
			 "cosmo_repulsion_energy": 1.47, 
			 "cosmo_total_nonelectrostatic_energy": 6.91, 
			 "SMD_solvation_energy": -0.27 
		},
		"coords": [
			{
				"x": -1.9472832804,
				"y": -2.8250476448,
				"z": -1.7663124312,
				"element": "Br" 
			},
			{
				"x": -0.0724911568,
				"y": -2.4082360614,
				"z": -1.1877180452,
				"element": "C" 
			},
			{
				"x": 0.0874592892,
				"y": -0.9737772053,
				"z": -0.8219057136,
				"element": "C" 
			},
			{
				"x": -0.0543519407,
				"y": -0.5158955486,
				"z": 0.4684208878,
				"element": "C" 
			},
			{
				"x": 0.096120211,
				"y": 0.8623828025,
				"z": 0.8175018535,
				"element": "C" 
			},
			{
				"x": 0.3926592742,
				"y": 1.8189523392,
				"z": -0.119039955,
				"element": "C" 
			},
			{
				"x": 0.5582525013,
				"y": 1.3990034791,
				"z": -1.4704640743,
				"element": "C" 
			},
			{
				"x": 0.8624582207,
				"y": 2.1841076327,
				"z": -2.5122581222,
				"element": "N" 
			},
			{
				"x": 0.9452796771,
				"y": 1.1980372808,
				"z": -3.8231643096,
				"element": "S" 
			},
			{
				"x": 0.6026009703,
				"y": -0.2490161747,
				"z": -3.1234389168,
				"element": "N" 
			},
			{
				"x": 0.4062134154,
				"y": 0.0007794458,
				"z": -1.8241613303,
				"element": "C" 
			},
			{
				"x": 0.1070642052,
				"y": -3.0747401139,
				"z": -0.3468135475,
				"element": "H" 
			},
			{
				"x": 0.5376303756,
				"y": -2.6870887749,
				"z": -2.0435314697,
				"element": "H" 
			},
			{
				"x": -0.2989094007,
				"y": -1.2248186053,
				"z": 1.2549408621,
				"element": "H" 
			},
			{
				"x": -0.0319919228,
				"y": 1.1479920506,
				"z": 1.8571377808,
				"element": "H" 
			},
			{
				"x": 0.5066895613,
				"y": 2.8663650981,
				"z": 0.1366065313,
				"element": "H" 
			}
		],
		 "valence_orbital": [ 
			{
				"type": "occ",
				"energy": -0.30689,
				"method": "rhf"
			},
			{
				"type": "occ",
				"energy": -0.27482,
				"method": "rhf"
			},
			{
				"type": "occ",
				"energy": -0.27368,
				"method": "rhf"
			},
			{
				"type": "occ",
				"energy": -0.2685,
				"method": "rhf"
			},
			{
				"type": "occ",
				"energy": -0.2457,
				"method": "rhf"
			},
			{
				"type": "unocc",
				"energy": -0.09597,
				"method": "rhf"
			},
			{
				"type": "unocc",
				"energy": -0.02968,
				"method": "rhf"
			},
			{
				"type": "unocc",
				"energy": 0.00022,
				"method": "rhf"
			},
			{
				"type": "unocc",
				"energy": 0.00599,
				"method": "rhf"
			},
			{
				"type": "unocc",
				"energy": 0.0299,
				"method": "rhf"
			}
		],
		"cosmo_sigma_profile": { 
			"-0.025": 0.0,
			"-0.024": 0.0,
			"-0.023": 0.0,
			"-0.022": 0.0,
			"-0.021": 0.0,
			"-0.02": 0.0,
			"-0.019": 0.0,
			"-0.018": 0.0,
			"-0.017": 0.0,
			"-0.016": 0.0,
			"-0.015": 0.0,
			"-0.014": 0.0,
			"-0.013": 0.0,
			"-0.012": 0.0,
			"-0.011": 0.0,
			"-0.01": 0.0,
			"-0.009": 0.643865771685,
			"-0.008": 5.36030618978,
			"-0.007": 9.52071016151,
			"-0.006": 9.29589625015,
			"-0.005": 11.3671278546,
			"-0.004": 12.8952094367,
			"-0.003": 13.0620689659,
			"-0.002": 18.7749692788,
			"-0.001": 19.834036648,
			"0.0": 14.389379805,
			"0.001": 15.3863527522,
			"0.002": 14.5644687561,
			"0.003": 10.4817581368,
			"0.004": 8.08352681465,
			"0.005": 9.43492014139,
			"0.006": 14.3751711788,
			"0.007": 5.63440713772,
			"0.008": 2.36395551951,
			"0.009": 1.28312716652,
			"0.01": 2.12692455527,
			"0.011": 1.76916904617,
			"0.012": 1.17532885639,
			"0.013": 0.649573108856,
			"0.014": 0.0026230095483,
			"0.015": 0.0,
			"0.016": 0.0,
			"0.017": 0.0,
			"0.018": 0.0,
			"0.019": 0.0,
			"0.02": 0.0,
			"0.021": 0.0,
			"0.022": 0.0,
			"0.023": 0.0,
			"0.024": 0.0,
			"0.025": 0.0
		}
	}
}
