{
	 "smiles": "CC1=C(SC(=N1)C1=CC(=CC=C1)N1C=CC=C1)C(=O)NN", 
	 "Tm": 459.15, 
	 "num_atms": 35, 
	 "gaussian": { 
		 "optdone": 1, 
		 "sigma_profile": "yes", 
		 "theory": "DFT", 
		 "functional": "B3LYP", 
		 "basiset": "6-31G**", 
		 "properties": { 
			 "R2extent": 9279.3481, 
			 "electric_dipole_moment_norm": 2.54115021398, 
			 "electric_quadrupole_moment_norm": 19.889700549, 
			 "total_energy": -1272.41923964, 
			 "HOMO_LUMO_gap": 0.14029, 
			 "cosmo_polarized_energy": -16.76, 
			 "cosmo_cavitation_energy": 40.85, 
			 "cosmo_dispersion_energy": -29.96, 
			 "cosmo_repulsion_energy": 2.23, 
			 "cosmo_total_nonelectrostatic_energy": 13.11, 
			 "SMD_solvation_energy": 7.24 
		},
		"coords": [
			{
				"x": -4.768466678,
				"y": 1.2522795248,
				"z": 0.6547247051,
				"element": "C" 
			},
			{
				"x": -3.3824889414,
				"y": 0.7324949294,
				"z": 0.9028261576,
				"element": "C" 
			},
			{
				"x": -2.9649683377,
				"y": -0.0514956371,
				"z": 1.9705822078,
				"element": "C" 
			},
			{
				"x": -1.2519630823,
				"y": -0.3877431044,
				"z": 1.794561262,
				"element": "S" 
			},
			{
				"x": -1.2373158006,
				"y": 0.5442930189,
				"z": 0.3072312636,
				"element": "C" 
			},
			{
				"x": -2.4054505217,
				"y": 1.0482087206,
				"z": -0.0038156454,
				"element": "N" 
			},
			{
				"x": -0.0266109723,
				"y": 0.7403896903,
				"z": -0.5013127455,
				"element": "C" 
			},
			{
				"x": 1.1911030001,
				"y": 0.1311334541,
				"z": -0.1660863033,
				"element": "C" 
			},
			{
				"x": 2.329016189,
				"y": 0.3410468597,
				"z": -0.9499916129,
				"element": "C" 
			},
			{
				"x": 2.2487264678,
				"y": 1.1541541477,
				"z": -2.0885418959,
				"element": "C" 
			},
			{
				"x": 1.03126413,
				"y": 1.7400740514,
				"z": -2.4341569434,
				"element": "C" 
			},
			{
				"x": -0.102097072,
				"y": 1.5465917807,
				"z": -1.6503942866,
				"element": "C" 
			},
			{
				"x": 3.5558398583,
				"y": -0.2683196974,
				"z": -0.59386252,
				"element": "N" 
			},
			{
				"x": 4.0155349061,
				"y": -0.4707889489,
				"z": 0.6978899339,
				"element": "C" 
			},
			{
				"x": 5.2410328118,
				"y": -1.0891487423,
				"z": 0.6283142597,
				"element": "C" 
			},
			{
				"x": 5.5446419125,
				"y": -1.2814475146,
				"z": -0.7521209585,
				"element": "C" 
			},
			{
				"x": 4.4986568843,
				"y": -0.7657191418,
				"z": -1.4793780421,
				"element": "C" 
			},
			{
				"x": -3.8598178506,
				"y": -0.5051917518,
				"z": 3.0608841194,
				"element": "C" 
			},
			{
				"x": -5.0498742431,
				"y": -0.1919154596,
				"z": 3.0649581412,
				"element": "O" 
			},
			{
				"x": -3.3794423182,
				"y": -1.2844151486,
				"z": 4.0910286941,
				"element": "N" 
			},
			{
				"x": -2.1008467216,
				"y": -1.7881594555,
				"z": 4.3361557289,
				"element": "N" 
			},
			{
				"x": -5.1098353984,
				"y": 1.8748246402,
				"z": 1.4855066047,
				"element": "H" 
			},
			{
				"x": -4.7658066407,
				"y": 1.832939472,
				"z": -0.2694155965,
				"element": "H" 
			},
			{
				"x": -5.4881459958,
				"y": 0.4334081927,
				"z": 0.5787241564,
				"element": "H" 
			},
			{
				"x": 1.2598152427,
				"y": -0.5323422973,
				"z": 0.6897816932,
				"element": "H" 
			},
			{
				"x": 3.1388075144,
				"y": 1.3403554969,
				"z": -2.6796582494,
				"element": "H" 
			},
			{
				"x": 0.9738546744,
				"y": 2.3694101196,
				"z": -3.3171385829,
				"element": "H" 
			},
			{
				"x": -1.049769761,
				"y": 2.0061595732,
				"z": -1.9046948538,
				"element": "H" 
			},
			{
				"x": 3.4530762229,
				"y": -0.1070365168,
				"z": 1.5440061566,
				"element": "H" 
			},
			{
				"x": 5.8579281068,
				"y": -1.3617702756,
				"z": 1.4730808042,
				"element": "H" 
			},
			{
				"x": 6.42526553,
				"y": -1.7542782921,
				"z": -1.163699113,
				"element": "H" 
			},
			{
				"x": 4.313875884,
				"y": -0.7523884705,
				"z": -2.5424672461,
				"element": "H" 
			},
			{
				"x": -4.0853392419,
				"y": -1.5323498926,
				"z": 4.7718766309,
				"element": "H" 
			},
			{
				"x": -1.422450883,
				"y": -1.0441990842,
				"z": 4.4702210836,
				"element": "H" 
			},
			{
				"x": -1.7929488748,
				"y": -2.4118542411,
				"z": 3.5958809923,
				"element": "H" 
			}
		],
		 "valence_orbital": [ 
			{
				"type": "occ",
				"energy": -0.26197,
				"method": "rhf"
			},
			{
				"type": "occ",
				"energy": -0.25416,
				"method": "rhf"
			},
			{
				"type": "occ",
				"energy": -0.23612,
				"method": "rhf"
			},
			{
				"type": "occ",
				"energy": -0.2249,
				"method": "rhf"
			},
			{
				"type": "occ",
				"energy": -0.21668,
				"method": "rhf"
			},
			{
				"type": "unocc",
				"energy": -0.07639,
				"method": "rhf"
			},
			{
				"type": "unocc",
				"energy": -0.02523,
				"method": "rhf"
			},
			{
				"type": "unocc",
				"energy": -0.01253,
				"method": "rhf"
			},
			{
				"type": "unocc",
				"energy": 0.00855,
				"method": "rhf"
			},
			{
				"type": "unocc",
				"energy": 0.0266,
				"method": "rhf"
			}
		],
		"cosmo_sigma_profile": { 
			"-0.025": 0.0,
			"-0.024": 0.0,
			"-0.023": 0.0,
			"-0.022": 0.0,
			"-0.021": 0.0,
			"-0.02": 0.0,
			"-0.019": 0.0,
			"-0.018": 0.0,
			"-0.017": 0.0,
			"-0.016": 0.0,
			"-0.015": 0.0,
			"-0.014": 0.355661977436,
			"-0.013": 0.70296152467,
			"-0.012": 2.40696328437,
			"-0.011": 3.23491069138,
			"-0.01": 3.69952686834,
			"-0.009": 4.09299841243,
			"-0.008": 5.24421007051,
			"-0.007": 13.1875039238,
			"-0.006": 13.143725993,
			"-0.005": 17.098815174,
			"-0.004": 18.0808222332,
			"-0.003": 19.5186478544,
			"-0.002": 22.1591027752,
			"-0.001": 26.6216908591,
			"0.0": 33.2728968182,
			"0.001": 29.727262474,
			"0.002": 26.8746752336,
			"0.003": 21.0583171886,
			"0.004": 12.8737319273,
			"0.005": 10.8027468575,
			"0.006": 8.65875553042,
			"0.007": 8.533515123,
			"0.008": 8.26801977359,
			"0.009": 3.24211875845,
			"0.01": 3.43025323212,
			"0.011": 2.94639323835,
			"0.012": 2.4396528487,
			"0.013": 3.72890454187,
			"0.014": 3.1003252259,
			"0.015": 0.142784198832,
			"0.016": 0.0,
			"0.017": 0.0,
			"0.018": 0.0,
			"0.019": 0.0,
			"0.02": 0.0,
			"0.021": 0.0,
			"0.022": 0.0,
			"0.023": 0.0,
			"0.024": 0.0,
			"0.025": 0.0
		}
	}
}
