{
	 "smiles": "NC1=CC=CC=C1C1=NC2=C(N1)C=CC=C2", 
	 "Tm": 487.15, 
	 "num_atms": 27, 
	 "gaussian": { 
		 "optdone": 1, 
		 "sigma_profile": "yes", 
		 "theory": "DFT", 
		 "functional": "B3LYP", 
		 "basiset": "6-31G**", 
		 "properties": { 
			 "R2extent": 5190.4548, 
			 "electric_dipole_moment_norm": 4.1271622854, 
			 "electric_quadrupole_moment_norm": 13.5812132197, 
			 "total_energy": -666.294139963, 
			 "HOMO_LUMO_gap": 0.16527, 
			 "cosmo_polarized_energy": -15.07, 
			 "cosmo_cavitation_energy": 30.56, 
			 "cosmo_dispersion_energy": -23.08, 
			 "cosmo_repulsion_energy": 1.77, 
			 "cosmo_total_nonelectrostatic_energy": 9.25, 
			 "SMD_solvation_energy": 3.19 
		},
		"coords": [
			{
				"x": 0.3954995221,
				"y": -1.5421623115,
				"z": -2.7802744035,
				"element": "N" 
			},
			{
				"x": -0.4720925866,
				"y": -2.2343032656,
				"z": -1.896212445,
				"element": "C" 
			},
			{
				"x": -1.6052622956,
				"y": -2.8900939983,
				"z": -2.395636528,
				"element": "C" 
			},
			{
				"x": -2.474468555,
				"y": -3.5709414871,
				"z": -1.5472761779,
				"element": "C" 
			},
			{
				"x": -2.211933428,
				"y": -3.6259081631,
				"z": -0.1763378238,
				"element": "C" 
			},
			{
				"x": -1.0985390085,
				"y": -2.9672996862,
				"z": 0.3326979997,
				"element": "C" 
			},
			{
				"x": -0.227676769,
				"y": -2.246194388,
				"z": -0.5015934733,
				"element": "C" 
			},
			{
				"x": 0.8767807273,
				"y": -1.5139373077,
				"z": 0.1326407629,
				"element": "C" 
			},
			{
				"x": 1.3252868379,
				"y": -1.7457695593,
				"z": 1.3520304965,
				"element": "N" 
			},
			{
				"x": 2.3002499942,
				"y": -0.7905821664,
				"z": 1.5720150915,
				"element": "C" 
			},
			{
				"x": 2.4376962632,
				"y": 0.0472475065,
				"z": 0.435933159,
				"element": "C" 
			},
			{
				"x": 1.5260141877,
				"y": -0.4507379932,
				"z": -0.47415508,
				"element": "N" 
			},
			{
				"x": 3.3509989458,
				"y": 1.102562479,
				"z": 0.3866465234,
				"element": "C" 
			},
			{
				"x": 4.1373881678,
				"y": 1.3044170558,
				"z": 1.5185030347,
				"element": "C" 
			},
			{
				"x": 4.0177185631,
				"y": 0.479147317,
				"z": 2.6558924084,
				"element": "C" 
			},
			{
				"x": 3.1066139606,
				"y": -0.5708576032,
				"z": 2.6978448365,
				"element": "C" 
			},
			{
				"x": 1.3668664315,
				"y": -1.8172489843,
				"z": -2.6642193963,
				"element": "H" 
			},
			{
				"x": 0.1300272233,
				"y": -1.6761940516,
				"z": -3.7496391719,
				"element": "H" 
			},
			{
				"x": -1.7926542818,
				"y": -2.8745607201,
				"z": -3.4670451959,
				"element": "H" 
			},
			{
				"x": -3.3456842566,
				"y": -4.070404063,
				"z": -1.9611316697,
				"element": "H" 
			},
			{
				"x": -2.8761276094,
				"y": -4.1666819445,
				"z": 0.4903943315,
				"element": "H" 
			},
			{
				"x": -0.8786725538,
				"y": -2.9765309448,
				"z": 1.3946528695,
				"element": "H" 
			},
			{
				"x": 1.2561104405,
				"y": -0.0676067487,
				"z": -1.3705473257,
				"element": "H" 
			},
			{
				"x": 3.4457757569,
				"y": 1.7397856262,
				"z": -0.4876433615,
				"element": "H" 
			},
			{
				"x": 4.8594176137,
				"y": 2.1157117685,
				"z": 1.524848949,
				"element": "H" 
			},
			{
				"x": 4.6523001993,
				"y": 0.6721358563,
				"z": 3.5159419007,
				"element": "H" 
			},
			{
				"x": 3.0092665096,
				"y": -1.2075922226,
				"z": 3.5712696891,
				"element": "H" 
			}
		],
		 "valence_orbital": [ 
			{
				"type": "occ",
				"energy": -0.26482,
				"method": "rhf"
			},
			{
				"type": "occ",
				"energy": -0.26187,
				"method": "rhf"
			},
			{
				"type": "occ",
				"energy": -0.22992,
				"method": "rhf"
			},
			{
				"type": "occ",
				"energy": -0.21953,
				"method": "rhf"
			},
			{
				"type": "occ",
				"energy": -0.2023,
				"method": "rhf"
			},
			{
				"type": "unocc",
				"energy": -0.03703,
				"method": "rhf"
			},
			{
				"type": "unocc",
				"energy": 0.00331,
				"method": "rhf"
			},
			{
				"type": "unocc",
				"energy": 0.01663,
				"method": "rhf"
			},
			{
				"type": "unocc",
				"energy": 0.03037,
				"method": "rhf"
			},
			{
				"type": "unocc",
				"energy": 0.071,
				"method": "rhf"
			}
		],
		"cosmo_sigma_profile": { 
			"-0.025": 0.0,
			"-0.024": 0.0,
			"-0.023": 0.0,
			"-0.022": 0.0,
			"-0.021": 0.0,
			"-0.02": 0.0,
			"-0.019": 0.0,
			"-0.018": 0.0,
			"-0.017": 0.0,
			"-0.016": 0.0,
			"-0.015": 0.0,
			"-0.014": 0.0,
			"-0.013": 1.02061449913,
			"-0.012": 3.39883497645,
			"-0.011": 3.77335380453,
			"-0.01": 4.22229298644,
			"-0.009": 4.64925869238,
			"-0.008": 4.30283560832,
			"-0.007": 4.60251951602,
			"-0.006": 9.68421865037,
			"-0.005": 17.0740368928,
			"-0.004": 16.467993479,
			"-0.003": 17.380279443,
			"-0.002": 12.2913284825,
			"-0.001": 13.090618131,
			"0.0": 10.9181116411,
			"0.001": 14.8315306485,
			"0.002": 16.0953357719,
			"0.003": 17.6637549005,
			"0.004": 20.4954376602,
			"0.005": 22.7601183952,
			"0.006": 13.9666779329,
			"0.007": 4.31524569694,
			"0.008": 2.62004933174,
			"0.009": 1.92480639005,
			"0.01": 1.40655335155,
			"0.011": 1.33162011501,
			"0.012": 1.14898107379,
			"0.013": 1.14458418906,
			"0.014": 0.715799878442,
			"0.015": 0.906341772032,
			"0.016": 0.752532853521,
			"0.017": 0.149269832648,
			"0.018": 0.0,
			"0.019": 0.0,
			"0.02": 0.0,
			"0.021": 0.0,
			"0.022": 0.0,
			"0.023": 0.0,
			"0.024": 0.0,
			"0.025": 0.0
		}
	}
}
