{
	 "smiles": "[O-][N+](=O)C1=C(Cl)C=CC(CN2C(=O)CNC2=O)=C1", 
	 "Tm": 457.15, 
	 "num_atms": 26, 
	 "gaussian": { 
		 "optdone": 1, 
		 "sigma_profile": "yes", 
		 "theory": "DFT", 
		 "functional": "B3LYP", 
		 "basiset": "6-31G**", 
		 "properties": { 
			 "R2extent": 6700.1745, 
			 "electric_dipole_moment_norm": 6.07981465918, 
			 "electric_quadrupole_moment_norm": 20.5098027406, 
			 "total_energy": -1311.15536698, 
			 "HOMO_LUMO_gap": 0.17869, 
			 "cosmo_polarized_energy": -19.94, 
			 "cosmo_cavitation_energy": 33.85, 
			 "cosmo_dispersion_energy": -23.99, 
			 "cosmo_repulsion_energy": 1.87, 
			 "cosmo_total_nonelectrostatic_energy": 11.73, 
			 "SMD_solvation_energy": 8.09 
		},
		"coords": [
			{
				"x": -2.4420809675,
				"y": 3.7060463385,
				"z": -0.4915142968,
				"element": "O" 
			},
			{
				"x": -2.7897559474,
				"y": 2.8333749213,
				"z": -1.286273272,
				"element": "N" 
			},
			{
				"x": -3.9495536469,
				"y": 2.5579893879,
				"z": -1.5748369314,
				"element": "O" 
			},
			{
				"x": -1.7139655441,
				"y": 2.0380981998,
				"z": -1.9051115993,
				"element": "C" 
			},
			{
				"x": -1.7899613112,
				"y": 1.5352481746,
				"z": -3.2124740379,
				"element": "C" 
			},
			{
				"x": -3.110563372,
				"y": 1.8670795819,
				"z": -4.2994340077,
				"element": "Cl" 
			},
			{
				"x": -0.7234421527,
				"y": 0.7731019675,
				"z": -3.6977079491,
				"element": "C" 
			},
			{
				"x": 0.3836474381,
				"y": 0.5096923774,
				"z": -2.896239882,
				"element": "C" 
			},
			{
				"x": 0.4642004837,
				"y": 1.0229906051,
				"z": -1.5954861672,
				"element": "C" 
			},
			{
				"x": 1.664898031,
				"y": 0.7282838925,
				"z": -0.7176271136,
				"element": "C" 
			},
			{
				"x": 1.5159469674,
				"y": -0.5043854603,
				"z": 0.0499124441,
				"element": "N" 
			},
			{
				"x": 1.8418857022,
				"y": -1.7606670073,
				"z": -0.4151095223,
				"element": "C" 
			},
			{
				"x": 2.315504028,
				"y": -2.0308017109,
				"z": -1.5010840889,
				"element": "O" 
			},
			{
				"x": 1.4849740235,
				"y": -2.7336743586,
				"z": 0.715249479,
				"element": "C" 
			},
			{
				"x": 0.9818459389,
				"y": -1.8437024466,
				"z": 1.7430906533,
				"element": "N" 
			},
			{
				"x": 0.9510005885,
				"y": -0.5326637521,
				"z": 1.3485766397,
				"element": "C" 
			},
			{
				"x": 0.5430391201,
				"y": 0.4378657662,
				"z": 1.9548792674,
				"element": "O" 
			},
			{
				"x": -0.5920544218,
				"y": 1.7935434421,
				"z": -1.1116185445,
				"element": "C" 
			},
			{
				"x": -0.7721762068,
				"y": 0.3943316702,
				"z": -4.7123372344,
				"element": "H" 
			},
			{
				"x": 1.1919296979,
				"y": -0.1053576429,
				"z": -3.2803297912,
				"element": "H" 
			},
			{
				"x": 2.5651710972,
				"y": 0.6179992377,
				"z": -1.3268279419,
				"element": "H" 
			},
			{
				"x": 1.8183610219,
				"y": 1.5320158794,
				"z": 0.005217252,
				"element": "H" 
			},
			{
				"x": 2.3782948974,
				"y": -3.2890763544,
				"z": 1.0235175247,
				"element": "H" 
			},
			{
				"x": 0.7373410829,
				"y": -3.4524413217,
				"z": 0.3587020008,
				"element": "H" 
			},
			{
				"x": 0.5393516866,
				"y": -2.1306717875,
				"z": 2.6011765093,
				"element": "H" 
			},
			{
				"x": -0.5688382348,
				"y": 2.2019804003,
				"z": -0.1076093903,
				"element": "H" 
			}
		],
		 "valence_orbital": [ 
			{
				"type": "occ",
				"energy": -0.29265,
				"method": "rhf"
			},
			{
				"type": "occ",
				"energy": -0.28174,
				"method": "rhf"
			},
			{
				"type": "occ",
				"energy": -0.27971,
				"method": "rhf"
			},
			{
				"type": "occ",
				"energy": -0.27895,
				"method": "rhf"
			},
			{
				"type": "occ",
				"energy": -0.26669,
				"method": "rhf"
			},
			{
				"type": "unocc",
				"energy": -0.088,
				"method": "rhf"
			},
			{
				"type": "unocc",
				"energy": -0.04071,
				"method": "rhf"
			},
			{
				"type": "unocc",
				"energy": -0.02434,
				"method": "rhf"
			},
			{
				"type": "unocc",
				"energy": -0.01777,
				"method": "rhf"
			},
			{
				"type": "unocc",
				"energy": 0.01178,
				"method": "rhf"
			}
		],
		"cosmo_sigma_profile": { 
			"-0.025": 0.0,
			"-0.024": 0.0,
			"-0.023": 0.0,
			"-0.022": 0.0,
			"-0.021": 0.0,
			"-0.02": 0.0,
			"-0.019": 0.0,
			"-0.018": 0.0,
			"-0.017": 0.0,
			"-0.016": 0.66189648312,
			"-0.015": 1.21319110558,
			"-0.014": 1.2941542651,
			"-0.013": 1.06866796166,
			"-0.012": 1.32552193731,
			"-0.011": 0.696678223619,
			"-0.01": 0.79700506731,
			"-0.009": 2.29532398561,
			"-0.008": 9.78713315053,
			"-0.007": 17.0456589852,
			"-0.006": 17.9058331258,
			"-0.005": 15.0711266232,
			"-0.004": 17.0829639896,
			"-0.003": 14.2669657562,
			"-0.002": 15.6861322616,
			"-0.001": 22.3314149831,
			"0.0": 19.3861704467,
			"0.001": 17.1288481143,
			"0.002": 12.7234432435,
			"0.003": 13.1369864221,
			"0.004": 8.2884768391,
			"0.005": 6.98917929497,
			"0.006": 6.98813094033,
			"0.007": 13.3715431761,
			"0.008": 10.5229752504,
			"0.009": 5.37779387697,
			"0.01": 4.90085013606,
			"0.011": 4.65951724955,
			"0.012": 7.11727077062,
			"0.013": 3.8631945929,
			"0.014": 0.222446493023,
			"0.015": 0.0,
			"0.016": 0.0,
			"0.017": 0.0,
			"0.018": 0.0,
			"0.019": 0.0,
			"0.02": 0.0,
			"0.021": 0.0,
			"0.022": 0.0,
			"0.023": 0.0,
			"0.024": 0.0,
			"0.025": 0.0
		}
	}
}
