{
	 "smiles": "CCC1=CC=C(C=C1)N(C(C)=O)C1=NC(CCl)=CS1", 
	 "Tm": 469.15, 
	 "num_atms": 34, 
	 "gaussian": { 
		 "optdone": 1, 
		 "sigma_profile": "yes", 
		 "theory": "DFT", 
		 "functional": "B3LYP", 
		 "basiset": "6-31G**", 
		 "properties": { 
			 "R2extent": 8248.3172, 
			 "electric_dipole_moment_norm": 4.05656948295, 
			 "electric_quadrupole_moment_norm": 10.5703592706, 
			 "total_energy": -1585.65123618, 
			 "HOMO_LUMO_gap": 0.18795, 
			 "cosmo_polarized_energy": -13.75, 
			 "cosmo_cavitation_energy": 41.56, 
			 "cosmo_dispersion_energy": -28.59, 
			 "cosmo_repulsion_energy": 2.23, 
			 "cosmo_total_nonelectrostatic_energy": 15.2, 
			 "SMD_solvation_energy": 6.76 
		},
		"coords": [
			{
				"x": 1.4050751043,
				"y": -1.6909604228,
				"z": -5.8079795458,
				"element": "C" 
			},
			{
				"x": 0.3358966488,
				"y": -0.7832576733,
				"z": -5.1726812542,
				"element": "C" 
			},
			{
				"x": 0.5084817226,
				"y": -0.6353427472,
				"z": -3.6760341292,
				"element": "C" 
			},
			{
				"x": -0.100090635,
				"y": -1.534495024,
				"z": -2.7895364749,
				"element": "C" 
			},
			{
				"x": 0.0859703764,
				"y": -1.4274550327,
				"z": -1.4126653475,
				"element": "C" 
			},
			{
				"x": 0.8920950173,
				"y": -0.409022166,
				"z": -0.9012679936,
				"element": "C" 
			},
			{
				"x": 1.5104774944,
				"y": 0.4948703628,
				"z": -1.766880075,
				"element": "C" 
			},
			{
				"x": 1.3137515768,
				"y": 0.3800679959,
				"z": -3.1414524469,
				"element": "C" 
			},
			{
				"x": 1.0779505093,
				"y": -0.2807059741,
				"z": 0.5274088253,
				"element": "N" 
			},
			{
				"x": 1.9723994355,
				"y": -1.2052083708,
				"z": 1.1404453882,
				"element": "C" 
			},
			{
				"x": 2.1059857082,
				"y": -1.2065958404,
				"z": 2.6447082854,
				"element": "C" 
			},
			{
				"x": 2.5845548874,
				"y": -1.9781353319,
				"z": 0.4289288028,
				"element": "O" 
			},
			{
				"x": 0.3645774272,
				"y": 0.7177032338,
				"z": 1.1847627876,
				"element": "C" 
			},
			{
				"x": 0.6561185634,
				"y": 1.229389623,
				"z": 2.3438044926,
				"element": "N" 
			},
			{
				"x": -0.282618729,
				"y": 2.1660480545,
				"z": 2.7281621781,
				"element": "C" 
			},
			{
				"x": -0.1187804524,
				"y": 2.8623993264,
				"z": 4.0346032233,
				"element": "C" 
			},
			{
				"x": -0.6154632647,
				"y": 1.8098265399,
				"z": 5.453665912,
				"element": "Cl" 
			},
			{
				"x": -1.2920786755,
				"y": 2.3933575405,
				"z": 1.8379208479,
				"element": "C" 
			},
			{
				"x": -1.1063154588,
				"y": 1.3828697558,
				"z": 0.438111354,
				"element": "S" 
			},
			{
				"x": 1.2514735123,
				"y": -1.7769948625,
				"z": -6.8886325183,
				"element": "H" 
			},
			{
				"x": 1.3715087381,
				"y": -2.6970241051,
				"z": -5.3779484584,
				"element": "H" 
			},
			{
				"x": 2.4101346392,
				"y": -1.2920658459,
				"z": -5.6375769306,
				"element": "H" 
			},
			{
				"x": -0.6587053132,
				"y": -1.1920014019,
				"z": -5.3867288628,
				"element": "H" 
			},
			{
				"x": 0.3746924796,
				"y": 0.2057760704,
				"z": -5.6443257005,
				"element": "H" 
			},
			{
				"x": -0.7307082433,
				"y": -2.3282668421,
				"z": -3.1817930484,
				"element": "H" 
			},
			{
				"x": -0.3861904263,
				"y": -2.1299051361,
				"z": -0.7334026706,
				"element": "H" 
			},
			{
				"x": 2.1399625072,
				"y": 1.2804773307,
				"z": -1.3604280182,
				"element": "H" 
			},
			{
				"x": 1.7949727696,
				"y": 1.0892727325,
				"z": -3.8101680491,
				"element": "H" 
			},
			{
				"x": 2.6133861977,
				"y": -0.3043809624,
				"z": 2.9919049447,
				"element": "H" 
			},
			{
				"x": 2.6874140238,
				"y": -2.0906159875,
				"z": 2.9075748686,
				"element": "H" 
			},
			{
				"x": 1.1344116818,
				"y": -1.2234280034,
				"z": 3.1438621694,
				"element": "H" 
			},
			{
				"x": -0.7373455325,
				"y": 3.7569899852,
				"z": 4.0938900841,
				"element": "H" 
			},
			{
				"x": 0.92541933,
				"y": 3.1159743797,
				"z": 4.2162949206,
				"element": "H" 
			},
			{
				"x": -2.1099136201,
				"y": 3.0956387991,
				"z": 1.9151524397,
				"element": "H" 
			}
		],
		 "valence_orbital": [ 
			{
				"type": "occ",
				"energy": -0.28484,
				"method": "rhf"
			},
			{
				"type": "occ",
				"energy": -0.26353,
				"method": "rhf"
			},
			{
				"type": "occ",
				"energy": -0.25965,
				"method": "rhf"
			},
			{
				"type": "occ",
				"energy": -0.25304,
				"method": "rhf"
			},
			{
				"type": "occ",
				"energy": -0.22532,
				"method": "rhf"
			},
			{
				"type": "unocc",
				"energy": -0.03737,
				"method": "rhf"
			},
			{
				"type": "unocc",
				"energy": -0.01943,
				"method": "rhf"
			},
			{
				"type": "unocc",
				"energy": -0.01473,
				"method": "rhf"
			},
			{
				"type": "unocc",
				"energy": -0.00507,
				"method": "rhf"
			},
			{
				"type": "unocc",
				"energy": 0.01102,
				"method": "rhf"
			}
		],
		"cosmo_sigma_profile": { 
			"-0.025": 0.0,
			"-0.024": 0.0,
			"-0.023": 0.0,
			"-0.022": 0.0,
			"-0.021": 0.0,
			"-0.02": 0.0,
			"-0.019": 0.0,
			"-0.018": 0.0,
			"-0.017": 0.0,
			"-0.016": 0.0,
			"-0.015": 0.0,
			"-0.014": 0.0,
			"-0.013": 0.0,
			"-0.012": 0.0,
			"-0.011": 0.0,
			"-0.01": 0.597554541264,
			"-0.009": 3.76172094616,
			"-0.008": 5.72891487958,
			"-0.007": 7.51768825895,
			"-0.006": 12.9943667776,
			"-0.005": 21.6734086268,
			"-0.004": 25.1399809698,
			"-0.003": 28.1757131259,
			"-0.002": 28.6416929596,
			"-0.001": 30.9043403638,
			"0.0": 28.553548208,
			"0.001": 27.490280537,
			"0.002": 24.7823029431,
			"0.003": 20.0994148415,
			"0.004": 14.7702618609,
			"0.005": 11.1749718004,
			"0.006": 15.1749148761,
			"0.007": 9.64788945473,
			"0.008": 2.35594231142,
			"0.009": 2.17212390725,
			"0.01": 2.15659761224,
			"0.011": 2.86309540945,
			"0.012": 5.15728574105,
			"0.013": 2.67307075243,
			"0.014": 0.0720211230628,
			"0.015": 0.0,
			"0.016": 0.0,
			"0.017": 0.0,
			"0.018": 0.0,
			"0.019": 0.0,
			"0.02": 0.0,
			"0.021": 0.0,
			"0.022": 0.0,
			"0.023": 0.0,
			"0.024": 0.0,
			"0.025": 0.0
		}
	}
}
