{
	 "smiles": "FC(F)(F)C1=C(C#N)C(=O)NC(=C1)C1=CC=CS1", 
	 "Tm": 567.15, 
	 "num_atms": 23, 
	 "gaussian": { 
		 "optdone": 1, 
		 "sigma_profile": "yes", 
		 "theory": "DFT", 
		 "functional": "B3LYP", 
		 "basiset": "6-31G**", 
		 "properties": { 
			 "R2extent": 5978.638, 
			 "electric_dipole_moment_norm": 10.2419541202, 
			 "electric_quadrupole_moment_norm": 12.8550592558, 
			 "total_energy": -1304.59489005, 
			 "HOMO_LUMO_gap": 0.13057, 
			 "cosmo_polarized_energy": -21.59, 
			 "cosmo_cavitation_energy": 32.43, 
			 "cosmo_dispersion_energy": -22.97, 
			 "cosmo_repulsion_energy": 1.65, 
			 "cosmo_total_nonelectrostatic_energy": 11.11, 
			 "SMD_solvation_energy": 8.3 
		},
		"coords": [
			{
				"x": -0.1683002622,
				"y": -0.1001028045,
				"z": -4.2418276511,
				"element": "F" 
			},
			{
				"x": 1.0142838915,
				"y": 0.1654078349,
				"z": -3.6463121159,
				"element": "C" 
			},
			{
				"x": 1.8743749585,
				"y": -0.8039032299,
				"z": -4.0039245117,
				"element": "F" 
			},
			{
				"x": 1.4673307259,
				"y": 1.3281887585,
				"z": -4.1461669307,
				"element": "F" 
			},
			{
				"x": 0.8695658734,
				"y": 0.2372488354,
				"z": -2.134133266,
				"element": "C" 
			},
			{
				"x": 1.976604741,
				"y": 0.5098635755,
				"z": -1.3466302475,
				"element": "C" 
			},
			{
				"x": 3.2822243829,
				"y": 0.7227811783,
				"z": -1.8775511426,
				"element": "C" 
			},
			{
				"x": 4.3534356814,
				"y": 0.8995317137,
				"z": -2.2951415872,
				"element": "N" 
			},
			{
				"x": 1.8487819895,
				"y": 0.5800730523,
				"z": 0.112823217,
				"element": "C" 
			},
			{
				"x": 2.742940918,
				"y": 0.7976283581,
				"z": 0.9137954087,
				"element": "O" 
			},
			{
				"x": 0.5342186915,
				"y": 0.3462940329,
				"z": 0.5686836646,
				"element": "N" 
			},
			{
				"x": -0.56650819,
				"y": 0.0916507237,
				"z": -0.1996853133,
				"element": "C" 
			},
			{
				"x": -0.4077844081,
				"y": 0.0347844325,
				"z": -1.5713687003,
				"element": "C" 
			},
			{
				"x": -1.8381286109,
				"y": -0.0876396279,
				"z": 0.4866115008,
				"element": "C" 
			},
			{
				"x": -2.2069562717,
				"y": 0.3822672746,
				"z": 1.7316118626,
				"element": "C" 
			},
			{
				"x": -3.5362296186,
				"y": 0.0330328942,
				"z": 2.0913740408,
				"element": "C" 
			},
			{
				"x": -4.1685515759,
				"y": -0.7000818939,
				"z": 1.1215843477,
				"element": "C" 
			},
			{
				"x": -3.1509660214,
				"y": -0.9813762631,
				"z": -0.2462708893,
				"element": "S" 
			},
			{
				"x": 0.4591872501,
				"y": 0.3314214372,
				"z": 1.5788119327,
				"element": "H" 
			},
			{
				"x": -1.2605813151,
				"y": -0.1340754941,
				"z": -2.2123312264,
				"element": "H" 
			},
			{
				"x": -1.5653329908,
				"y": 0.9949518216,
				"z": 2.3556778637,
				"element": "H" 
			},
			{
				"x": -4.0044702146,
				"y": 0.3204017633,
				"z": 3.0251233676,
				"element": "H" 
			},
			{
				"x": -5.1734396243,
				"y": -1.0992483736,
				"z": 1.1325463756,
				"element": "H" 
			}
		],
		 "valence_orbital": [ 
			{
				"type": "occ",
				"energy": -0.3197,
				"method": "rhf"
			},
			{
				"type": "occ",
				"energy": -0.29187,
				"method": "rhf"
			},
			{
				"type": "occ",
				"energy": -0.28426,
				"method": "rhf"
			},
			{
				"type": "occ",
				"energy": -0.27888,
				"method": "rhf"
			},
			{
				"type": "occ",
				"energy": -0.23771,
				"method": "rhf"
			},
			{
				"type": "unocc",
				"energy": -0.10714,
				"method": "rhf"
			},
			{
				"type": "unocc",
				"energy": -0.0512,
				"method": "rhf"
			},
			{
				"type": "unocc",
				"energy": -0.01509,
				"method": "rhf"
			},
			{
				"type": "unocc",
				"energy": -0.00158,
				"method": "rhf"
			},
			{
				"type": "unocc",
				"energy": 0.02359,
				"method": "rhf"
			}
		],
		"cosmo_sigma_profile": { 
			"-0.025": 0.0,
			"-0.024": 0.0,
			"-0.023": 0.0,
			"-0.022": 0.0,
			"-0.021": 0.0,
			"-0.02": 0.0,
			"-0.019": 0.0,
			"-0.018": 0.0,
			"-0.017": 0.505967962841,
			"-0.016": 1.08500589515,
			"-0.015": 1.13551610358,
			"-0.014": 1.21702673898,
			"-0.013": 1.81716317348,
			"-0.012": 0.445038668042,
			"-0.011": 1.2168861165,
			"-0.01": 2.73536113959,
			"-0.009": 4.55712765294,
			"-0.008": 6.24076134248,
			"-0.007": 7.84876078548,
			"-0.006": 9.63013900106,
			"-0.005": 12.538300427,
			"-0.004": 16.9111706937,
			"-0.003": 19.3195487754,
			"-0.002": 17.7397641611,
			"-0.001": 16.6374121785,
			"0.0": 15.9027924531,
			"0.001": 27.2605259278,
			"0.002": 38.7269112243,
			"0.003": 14.0073336718,
			"0.004": 3.96237495776,
			"0.005": 3.86801531389,
			"0.006": 4.04884591738,
			"0.007": 5.43667064291,
			"0.008": 4.65547549871,
			"0.009": 4.77235908262,
			"0.01": 4.39610363924,
			"0.011": 5.23305181355,
			"0.012": 7.94085922928,
			"0.013": 3.63576633175,
			"0.014": 0.0,
			"0.015": 0.0,
			"0.016": 0.0,
			"0.017": 0.0,
			"0.018": 0.0,
			"0.019": 0.0,
			"0.02": 0.0,
			"0.021": 0.0,
			"0.022": 0.0,
			"0.023": 0.0,
			"0.024": 0.0,
			"0.025": 0.0
		}
	}
}
