{
	 "smiles": "OC(=O)CCCN1C=CC=N1", 
	 "Tm": 348.15, 
	 "num_atms": 21, 
	 "gaussian": { 
		 "optdone": 1, 
		 "sigma_profile": "yes", 
		 "theory": "DFT", 
		 "functional": "B3LYP", 
		 "basiset": "6-31G**", 
		 "properties": { 
			 "R2extent": 2469.1282, 
			 "electric_dipole_moment_norm": 2.22222375561, 
			 "electric_quadrupole_moment_norm": 13.9272770505, 
			 "total_energy": -532.711398395, 
			 "HOMO_LUMO_gap": 0.2453, 
			 "cosmo_polarized_energy": -16.45, 
			 "cosmo_cavitation_energy": 25.02, 
			 "cosmo_dispersion_energy": -17.63, 
			 "cosmo_repulsion_energy": 1.44, 
			 "cosmo_total_nonelectrostatic_energy": 8.83, 
			 "SMD_solvation_energy": 5.11 
		},
		"coords": [
			{
				"x": -1.8571192104,
				"y": 2.7232455296,
				"z": 0.0939522172,
				"element": "O" 
			},
			{
				"x": -1.3679067569,
				"y": 1.4585598372,
				"z": -0.0047420141,
				"element": "C" 
			},
			{
				"x": -1.3989814497,
				"y": 0.8858150478,
				"z": -1.0672362188,
				"element": "O" 
			},
			{
				"x": -0.8165100427,
				"y": 0.8715632074,
				"z": 1.2880496992,
				"element": "C" 
			},
			{
				"x": -0.2330140042,
				"y": -0.5354109406,
				"z": 1.1337867604,
				"element": "C" 
			},
			{
				"x": 1.011576348,
				"y": -0.6045266164,
				"z": 0.2396110125,
				"element": "C" 
			},
			{
				"x": 2.0790245397,
				"y": 0.2764203393,
				"z": 0.699594713,
				"element": "N" 
			},
			{
				"x": 2.6924336202,
				"y": 1.2753856733,
				"z": 0.0086440419,
				"element": "C" 
			},
			{
				"x": 3.6354818709,
				"y": 1.8289534153,
				"z": 0.8554043127,
				"element": "C" 
			},
			{
				"x": 3.5106751396,
				"y": 1.0854907216,
				"z": 2.0483722946,
				"element": "C" 
			},
			{
				"x": 2.5677963173,
				"y": 0.1457004389,
				"z": 1.9534454209,
				"element": "N" 
			},
			{
				"x": -1.7569330448,
				"y": 3.0508541914,
				"z": 0.9993048688,
				"element": "H" 
			},
			{
				"x": -1.6317100733,
				"y": 0.8576045125,
				"z": 2.0242232024,
				"element": "H" 
			},
			{
				"x": -0.0556520203,
				"y": 1.5537276909,
				"z": 1.6898293606,
				"element": "H" 
			},
			{
				"x": -0.9888735219,
				"y": -1.2024836682,
				"z": 0.7068831352,
				"element": "H" 
			},
			{
				"x": 0.0273770413,
				"y": -0.9138105196,
				"z": 2.1261476425,
				"element": "H" 
			},
			{
				"x": 0.7597793804,
				"y": -0.3077063099,
				"z": -0.7795129832,
				"element": "H" 
			},
			{
				"x": 1.3888245315,
				"y": -1.6323140683,
				"z": 0.2184442998,
				"element": "H" 
			},
			{
				"x": 2.4162014357,
				"y": 1.5052136489,
				"z": -1.0103936867,
				"element": "H" 
			},
			{
				"x": 4.3103339601,
				"y": 2.6438090079,
				"z": 0.6403549081,
				"element": "H" 
			},
			{
				"x": 4.0668959393,
				"y": 1.1921088611,
				"z": 2.970537013,
				"element": "H" 
			}
		],
		 "valence_orbital": [ 
			{
				"type": "occ",
				"energy": -0.3212,
				"method": "rhf"
			},
			{
				"type": "occ",
				"energy": -0.28434,
				"method": "rhf"
			},
			{
				"type": "occ",
				"energy": -0.27728,
				"method": "rhf"
			},
			{
				"type": "occ",
				"energy": -0.24836,
				"method": "rhf"
			},
			{
				"type": "occ",
				"energy": -0.2418,
				"method": "rhf"
			},
			{
				"type": "unocc",
				"energy": 0.0035,
				"method": "rhf"
			},
			{
				"type": "unocc",
				"energy": 0.01983,
				"method": "rhf"
			},
			{
				"type": "unocc",
				"energy": 0.05136,
				"method": "rhf"
			},
			{
				"type": "unocc",
				"energy": 0.07331,
				"method": "rhf"
			},
			{
				"type": "unocc",
				"energy": 0.09716,
				"method": "rhf"
			}
		],
		"cosmo_sigma_profile": { 
			"-0.025": 0.0,
			"-0.024": 0.0,
			"-0.023": 0.0,
			"-0.022": 0.0,
			"-0.021": 0.0,
			"-0.02": 0.0,
			"-0.019": 0.534421117077,
			"-0.018": 1.11313667639,
			"-0.017": 1.47186044518,
			"-0.016": 0.694067608711,
			"-0.015": 1.12072969829,
			"-0.014": 0.994526511955,
			"-0.013": 1.410916243,
			"-0.012": 0.890608521139,
			"-0.011": 1.03518339426,
			"-0.01": 1.13709724541,
			"-0.009": 1.89216268663,
			"-0.008": 4.45034332052,
			"-0.007": 6.60748420581,
			"-0.006": 10.3594113272,
			"-0.005": 11.6763857595,
			"-0.004": 16.5496646083,
			"-0.003": 18.3028965361,
			"-0.002": 15.2465261648,
			"-0.001": 11.8555105635,
			"0.0": 8.23789987289,
			"0.001": 7.60431018653,
			"0.002": 7.00009607743,
			"0.003": 7.15825457327,
			"0.004": 8.22956826002,
			"0.005": 8.45186471536,
			"0.006": 8.92339604036,
			"0.007": 4.1095683173,
			"0.008": 4.53683976101,
			"0.009": 4.4965980138,
			"0.01": 5.19232271114,
			"0.011": 6.24534176432,
			"0.012": 5.49393841027,
			"0.013": 2.61424934551,
			"0.014": 0.849211919876,
			"0.015": 1.02029462054,
			"0.016": 0.303748564639,
			"0.017": 0.0,
			"0.018": 0.0,
			"0.019": 0.0,
			"0.02": 0.0,
			"0.021": 0.0,
			"0.022": 0.0,
			"0.023": 0.0,
			"0.024": 0.0,
			"0.025": 0.0
		}
	}
}
