{
	 "smiles": "FC1=CC2=C(C=C1)C(Cl)=NC=N2", 
	 "Tm": 364.15, 
	 "num_atms": 16, 
	 "gaussian": { 
		 "optdone": 1, 
		 "sigma_profile": "yes", 
		 "theory": "DFT", 
		 "functional": "B3LYP", 
		 "basiset": "6-31G**", 
		 "properties": { 
			 "R2extent": 3336.9658, 
			 "electric_dipole_moment_norm": 1.94041756846, 
			 "electric_quadrupole_moment_norm": 8.82805605669, 
			 "total_energy": -976.793857118, 
			 "HOMO_LUMO_gap": 0.18088, 
			 "cosmo_polarized_energy": -6.57, 
			 "cosmo_cavitation_energy": 22.99, 
			 "cosmo_dispersion_energy": -17.4, 
			 "cosmo_repulsion_energy": 1.33, 
			 "cosmo_total_nonelectrostatic_energy": 6.92, 
			 "SMD_solvation_energy": 1.27 
		},
		"coords": [
			{
				"x": -0.5478830845,
				"y": -2.2347531696,
				"z": 0.6082727362,
				"element": "F" 
			},
			{
				"x": -0.2188222247,
				"y": -1.1700823786,
				"z": -0.1423164557,
				"element": "C" 
			},
			{
				"x": -0.1892638515,
				"y": 0.0776605496,
				"z": 0.4283404336,
				"element": "C" 
			},
			{
				"x": 0.1600516754,
				"y": 1.1864518449,
				"z": -0.3802444572,
				"element": "C" 
			},
			{
				"x": 0.4710709597,
				"y": 0.9762697621,
				"z": -1.7632354747,
				"element": "C" 
			},
			{
				"x": 0.4253904302,
				"y": -0.3335410172,
				"z": -2.3028393538,
				"element": "C" 
			},
			{
				"x": 0.0840212937,
				"y": -1.3988638875,
				"z": -1.5026071136,
				"element": "C" 
			},
			{
				"x": 0.8067793423,
				"y": 2.1636918588,
				"z": -2.4724163586,
				"element": "C" 
			},
			{
				"x": 1.2128766869,
				"y": 2.0608863361,
				"z": -4.1829467646,
				"element": "Cl" 
			},
			{
				"x": 0.8360778843,
				"y": 3.3489363668,
				"z": -1.9353161229,
				"element": "N" 
			},
			{
				"x": 0.5208141822,
				"y": 3.4211695354,
				"z": -0.6115276094,
				"element": "C" 
			},
			{
				"x": 0.1911097615,
				"y": 2.4300944247,
				"z": 0.1820327348,
				"element": "N" 
			},
			{
				"x": -0.4251633732,
				"y": 0.2312750738,
				"z": 1.4742173861,
				"element": "H" 
			},
			{
				"x": 0.6617355166,
				"y": -0.4852894321,
				"z": -3.3495191642,
				"element": "H" 
			},
			{
				"x": 0.0402391659,
				"y": -2.412227438,
				"z": -1.885776278,
				"element": "H" 
			},
			{
				"x": 0.5509656353,
				"y": 4.4196215707,
				"z": -0.1816181382,
				"element": "H" 
			}
		],
		 "valence_orbital": [ 
			{
				"type": "occ",
				"energy": -0.31833,
				"method": "rhf"
			},
			{
				"type": "occ",
				"energy": -0.316,
				"method": "rhf"
			},
			{
				"type": "occ",
				"energy": -0.27899,
				"method": "rhf"
			},
			{
				"type": "occ",
				"energy": -0.27167,
				"method": "rhf"
			},
			{
				"type": "occ",
				"energy": -0.26217,
				"method": "rhf"
			},
			{
				"type": "unocc",
				"energy": -0.08129,
				"method": "rhf"
			},
			{
				"type": "unocc",
				"energy": -0.04652,
				"method": "rhf"
			},
			{
				"type": "unocc",
				"energy": -0.00404,
				"method": "rhf"
			},
			{
				"type": "unocc",
				"energy": 0.02076,
				"method": "rhf"
			},
			{
				"type": "unocc",
				"energy": 0.0638,
				"method": "rhf"
			}
		],
		"cosmo_sigma_profile": { 
			"-0.025": 0.0,
			"-0.024": 0.0,
			"-0.023": 0.0,
			"-0.022": 0.0,
			"-0.021": 0.0,
			"-0.02": 0.0,
			"-0.019": 0.0,
			"-0.018": 0.0,
			"-0.017": 0.0,
			"-0.016": 0.0,
			"-0.015": 0.0,
			"-0.014": 0.0,
			"-0.013": 0.0,
			"-0.012": 0.0,
			"-0.011": 0.0,
			"-0.01": 0.0,
			"-0.009": 1.12847660102,
			"-0.008": 6.42084504847,
			"-0.007": 6.10609607933,
			"-0.006": 6.87807562462,
			"-0.005": 6.12460579524,
			"-0.004": 7.88127665015,
			"-0.003": 14.3966392834,
			"-0.002": 19.0023854514,
			"-0.001": 24.6988531356,
			"0.0": 18.7903991854,
			"0.001": 17.9087154003,
			"0.002": 11.3447176196,
			"0.003": 17.2542428688,
			"0.004": 10.094363499,
			"0.005": 4.09270569027,
			"0.006": 2.9474896825,
			"0.007": 2.04108349572,
			"0.008": 2.16707564075,
			"0.009": 1.91202209208,
			"0.01": 2.19077688829,
			"0.011": 1.40841438913,
			"0.012": 1.95109392888,
			"0.013": 1.33941618049,
			"0.014": 0.854359920432,
			"0.015": 0.111819227155,
			"0.016": 0.0,
			"0.017": 0.0,
			"0.018": 0.0,
			"0.019": 0.0,
			"0.02": 0.0,
			"0.021": 0.0,
			"0.022": 0.0,
			"0.023": 0.0,
			"0.024": 0.0,
			"0.025": 0.0
		}
	}
}
