{
	 "smiles": "CC1=C(C=C(CN2C=C(Br)C=N2)O1)C(O)=O", 
	 "Tm": 433.15, 
	 "num_atms": 25, 
	 "gaussian": { 
		 "optdone": 1, 
		 "sigma_profile": "yes", 
		 "theory": "DFT", 
		 "functional": "B3LYP", 
		 "basiset": "6-31G**", 
		 "properties": { 
			 "R2extent": 7477.012, 
			 "electric_dipole_moment_norm": 3.32246724739, 
			 "electric_quadrupole_moment_norm": 24.1889569976, 
			 "total_energy": -3293.03071354, 
			 "HOMO_LUMO_gap": 0.20116, 
			 "cosmo_polarized_energy": -18.67, 
			 "cosmo_cavitation_energy": 33.37, 
			 "cosmo_dispersion_energy": -24.03, 
			 "cosmo_repulsion_energy": 1.91, 
			 "cosmo_total_nonelectrostatic_energy": 11.25, 
			 "SMD_solvation_energy": 5.48 
		},
		"coords": [
			{
				"x": 3.1674696292,
				"y": -1.8611940859,
				"z": 0.9485045805,
				"element": "C" 
			},
			{
				"x": 1.8138330831,
				"y": -1.319500984,
				"z": 1.2315679743,
				"element": "C" 
			},
			{
				"x": 0.792386893,
				"y": -1.7063753516,
				"z": 2.0704728043,
				"element": "C" 
			},
			{
				"x": -0.2721940463,
				"y": -0.7529541225,
				"z": 1.8747073406,
				"element": "C" 
			},
			{
				"x": 0.1660795868,
				"y": 0.1332237441,
				"z": 0.944496033,
				"element": "C" 
			},
			{
				"x": -0.4412777344,
				"y": 1.3305810663,
				"z": 0.2951783521,
				"element": "C" 
			},
			{
				"x": -0.9532387113,
				"y": 1.0745877653,
				"z": -1.0503075895,
				"element": "N" 
			},
			{
				"x": -0.258475423,
				"y": 1.0680794263,
				"z": -2.2193821696,
				"element": "C" 
			},
			{
				"x": -1.1585244513,
				"y": 0.6697167908,
				"z": -3.1885194769,
				"element": "C" 
			},
			{
				"x": -0.8230643841,
				"y": 0.4837926954,
				"z": -5.0324910773,
				"element": "Br" 
			},
			{
				"x": -2.3738390836,
				"y": 0.4479971493,
				"z": -2.5078940916,
				"element": "C" 
			},
			{
				"x": -2.2399363584,
				"y": 0.6891611727,
				"z": -1.2050709,
				"element": "N" 
			},
			{
				"x": 1.4365290407,
				"y": -0.2076633093,
				"z": 0.545151086,
				"element": "O" 
			},
			{
				"x": 0.8399576432,
				"y": -2.8757189724,
				"z": 2.9757867655,
				"element": "C" 
			},
			{
				"x": -0.3415523766,
				"y": -3.239817108,
				"z": 3.5439483984,
				"element": "O" 
			},
			{
				"x": 1.8434959616,
				"y": -3.5036924709,
				"z": 3.2328824085,
				"element": "O" 
			},
			{
				"x": 3.3420070165,
				"y": -2.7297607267,
				"z": 1.5824111532,
				"element": "H" 
			},
			{
				"x": 3.9354975243,
				"y": -1.107063072,
				"z": 1.1537435801,
				"element": "H" 
			},
			{
				"x": 3.2594683086,
				"y": -2.148499609,
				"z": -0.1049947964,
				"element": "H" 
			},
			{
				"x": -1.2329122633,
				"y": -0.7074112117,
				"z": 2.3701532795,
				"element": "H" 
			},
			{
				"x": -1.290093924,
				"y": 1.6765928428,
				"z": 0.8867550201,
				"element": "H" 
			},
			{
				"x": 0.2920576258,
				"y": 2.1405252527,
				"z": 0.230051643,
				"element": "H" 
			},
			{
				"x": 0.7849777848,
				"y": 1.3361905104,
				"z": -2.2798009031,
				"element": "H" 
			},
			{
				"x": -3.3238906454,
				"y": 0.1353152012,
				"z": -2.9171231768,
				"element": "H" 
			},
			{
				"x": -1.072360696,
				"y": -2.7321125931,
				"z": 3.1660737621,
				"element": "H" 
			}
		],
		 "valence_orbital": [ 
			{
				"type": "occ",
				"energy": -0.28657,
				"method": "rhf"
			},
			{
				"type": "occ",
				"energy": -0.27763,
				"method": "rhf"
			},
			{
				"type": "occ",
				"energy": -0.26945,
				"method": "rhf"
			},
			{
				"type": "occ",
				"energy": -0.2487,
				"method": "rhf"
			},
			{
				"type": "occ",
				"energy": -0.2393,
				"method": "rhf"
			},
			{
				"type": "unocc",
				"energy": -0.03814,
				"method": "rhf"
			},
			{
				"type": "unocc",
				"energy": -0.01531,
				"method": "rhf"
			},
			{
				"type": "unocc",
				"energy": 0.00607,
				"method": "rhf"
			},
			{
				"type": "unocc",
				"energy": 0.01558,
				"method": "rhf"
			},
			{
				"type": "unocc",
				"energy": 0.04979,
				"method": "rhf"
			}
		],
		"cosmo_sigma_profile": { 
			"-0.025": 0.0,
			"-0.024": 0.0,
			"-0.023": 0.0,
			"-0.022": 0.0,
			"-0.021": 0.0,
			"-0.02": 0.0,
			"-0.019": 0.265773211092,
			"-0.018": 0.777054941523,
			"-0.017": 0.704154581761,
			"-0.016": 1.69452352421,
			"-0.015": 0.883617633894,
			"-0.014": 1.06485293997,
			"-0.013": 0.940087435873,
			"-0.012": 1.33625080764,
			"-0.011": 1.53744681407,
			"-0.01": 3.04222239072,
			"-0.009": 5.00432035167,
			"-0.008": 9.32904291959,
			"-0.007": 9.3852100525,
			"-0.006": 10.9961065586,
			"-0.005": 13.8503064247,
			"-0.004": 12.0631726527,
			"-0.003": 12.9351283605,
			"-0.002": 17.5092822195,
			"-0.001": 19.7879484127,
			"0.0": 18.7982919645,
			"0.001": 18.8214701681,
			"0.002": 20.6553063421,
			"0.003": 22.863651772,
			"0.004": 18.7901586607,
			"0.005": 10.2705622481,
			"0.006": 4.3226295898,
			"0.007": 3.7543159758,
			"0.008": 4.22387776615,
			"0.009": 4.73598523818,
			"0.01": 5.64134155554,
			"0.011": 5.9633603891,
			"0.012": 4.36912231879,
			"0.013": 3.29166468245,
			"0.014": 1.14343938885,
			"0.015": 0.230657834729,
			"0.016": 0.0,
			"0.017": 0.0,
			"0.018": 0.0,
			"0.019": 0.0,
			"0.02": 0.0,
			"0.021": 0.0,
			"0.022": 0.0,
			"0.023": 0.0,
			"0.024": 0.0,
			"0.025": 0.0
		}
	}
}
