{
	 "smiles": "COCCN1C=NC2=C1C(=O)N(CC(O)=O)C(=O)N2CC1=CC=CC=C1", 
	 "Tm": 405.15, 
	 "num_atms": 44, 
	 "gaussian": { 
		 "optdone": 1, 
		 "sigma_profile": "yes", 
		 "theory": "DFT", 
		 "functional": "B3LYP", 
		 "basiset": "6-31G**", 
		 "properties": { 
			 "R2extent": 11323.773, 
			 "electric_dipole_moment_norm": 4.39818625458, 
			 "electric_quadrupole_moment_norm": 15.1123489091, 
			 "total_energy": -1253.83205992, 
			 "HOMO_LUMO_gap": 0.18551, 
			 "cosmo_polarized_energy": -20.73, 
			 "cosmo_cavitation_energy": 48.36, 
			 "cosmo_dispersion_energy": -33.12, 
			 "cosmo_repulsion_energy": 2.53, 
			 "cosmo_total_nonelectrostatic_energy": 17.77, 
			 "SMD_solvation_energy": 9.6 
		},
		"coords": [
			{
				"x": 1.4595439938,
				"y": -2.729162496,
				"z": -5.0471894195,
				"element": "C" 
			},
			{
				"x": 0.9729066507,
				"y": -3.3073562101,
				"z": -3.8508089382,
				"element": "O" 
			},
			{
				"x": 1.940123812,
				"y": -3.3470274015,
				"z": -2.8200387958,
				"element": "C" 
			},
			{
				"x": 1.2794565609,
				"y": -3.8908170632,
				"z": -1.5613271645,
				"element": "C" 
			},
			{
				"x": 0.2712988731,
				"y": -2.9784026869,
				"z": -1.014887633,
				"element": "N" 
			},
			{
				"x": -0.9286081911,
				"y": -2.6428722461,
				"z": -1.554717332,
				"element": "C" 
			},
			{
				"x": -1.6174026426,
				"y": -1.772573201,
				"z": -0.8195148573,
				"element": "N" 
			},
			{
				"x": -0.8099791125,
				"y": -1.537669308,
				"z": 0.2484056605,
				"element": "C" 
			},
			{
				"x": 0.3676921982,
				"y": -2.2567008785,
				"z": 0.1684852611,
				"element": "C" 
			},
			{
				"x": 1.382435054,
				"y": -2.216711015,
				"z": 1.1758599133,
				"element": "C" 
			},
			{
				"x": 2.4465565526,
				"y": -2.8343702393,
				"z": 1.1873801994,
				"element": "O" 
			},
			{
				"x": 1.029517796,
				"y": -1.3237687734,
				"z": 2.2194998363,
				"element": "N" 
			},
			{
				"x": 1.9358837538,
				"y": -1.2355256501,
				"z": 3.3512363325,
				"element": "C" 
			},
			{
				"x": 1.4789888199,
				"y": -2.1246928782,
				"z": 4.4986218562,
				"element": "C" 
			},
			{
				"x": 2.2349721647,
				"y": -1.8981540924,
				"z": 5.5957209125,
				"element": "O" 
			},
			{
				"x": 0.5882058842,
				"y": -2.9388252688,
				"z": 4.4538419348,
				"element": "O" 
			},
			{
				"x": -0.1695012122,
				"y": -0.5927185112,
				"z": 2.3496165004,
				"element": "C" 
			},
			{
				"x": -0.3690946534,
				"y": 0.1168800996,
				"z": 3.3277261689,
				"element": "O" 
			},
			{
				"x": -1.0882575449,
				"y": -0.714749454,
				"z": 1.3168276578,
				"element": "N" 
			},
			{
				"x": -2.3509774769,
				"y": 0.0499947083,
				"z": 1.3846029984,
				"element": "C" 
			},
			{
				"x": -2.2552890119,
				"y": 1.4247601195,
				"z": 0.7518039174,
				"element": "C" 
			},
			{
				"x": -1.8202537599,
				"y": 2.5235781698,
				"z": 1.5052117102,
				"element": "C" 
			},
			{
				"x": -1.7327434434,
				"y": 3.7878338832,
				"z": 0.9211583694,
				"element": "C" 
			},
			{
				"x": -2.0789829018,
				"y": 3.9669369223,
				"z": -0.4200254451,
				"element": "C" 
			},
			{
				"x": -2.5104189602,
				"y": 2.8756116854,
				"z": -1.1765740345,
				"element": "C" 
			},
			{
				"x": -2.5979949696,
				"y": 1.6103573092,
				"z": -0.5936868686,
				"element": "C" 
			},
			{
				"x": 0.6415259048,
				"y": -2.7459040224,
				"z": -5.7705884505,
				"element": "H" 
			},
			{
				"x": 1.780328932,
				"y": -1.6877827128,
				"z": -4.8937125694,
				"element": "H" 
			},
			{
				"x": 2.3085825127,
				"y": -3.2977475626,
				"z": -5.4561559314,
				"element": "H" 
			},
			{
				"x": 2.7794151206,
				"y": -4.0077517596,
				"z": -3.0938427296,
				"element": "H" 
			},
			{
				"x": 2.3530730124,
				"y": -2.3440976845,
				"z": -2.6266041627,
				"element": "H" 
			},
			{
				"x": 0.8019526117,
				"y": -4.8491319837,
				"z": -1.7868283345,
				"element": "H" 
			},
			{
				"x": 2.0258282582,
				"y": -4.0384183439,
				"z": -0.7791196614,
				"element": "H" 
			},
			{
				"x": -1.2523766693,
				"y": -3.0500107147,
				"z": -2.500934763,
				"element": "H" 
			},
			{
				"x": 1.9978294696,
				"y": -0.2044015615,
				"z": 3.7000737497,
				"element": "H" 
			},
			{
				"x": 2.9193486272,
				"y": -1.573697888,
				"z": 3.0188567156,
				"element": "H" 
			},
			{
				"x": 1.9077333801,
				"y": -2.5024666493,
				"z": 6.282824129,
				"element": "H" 
			},
			{
				"x": -3.1034613391,
				"y": -0.5552356899,
				"z": 0.8765713903,
				"element": "H" 
			},
			{
				"x": -2.604469383,
				"y": 0.1272814876,
				"z": 2.4421770854,
				"element": "H" 
			},
			{
				"x": -1.5428350887,
				"y": 2.3759993818,
				"z": 2.5446089841,
				"element": "H" 
			},
			{
				"x": -1.3973374735,
				"y": 4.6340292142,
				"z": 1.5143907554,
				"element": "H" 
			},
			{
				"x": -2.0143092636,
				"y": 4.9525526842,
				"z": -0.8726592602,
				"element": "H" 
			},
			{
				"x": -2.7818796192,
				"y": 3.0095038564,
				"z": -2.2201146463,
				"element": "H" 
			},
			{
				"x": -2.9226272265,
				"y": 0.7561244253,
				"z": -1.1812710409,
				"element": "H" 
			}
		],
		 "valence_orbital": [ 
			{
				"type": "occ",
				"energy": -0.26876,
				"method": "rhf"
			},
			{
				"type": "occ",
				"energy": -0.26294,
				"method": "rhf"
			},
			{
				"type": "occ",
				"energy": -0.2444,
				"method": "rhf"
			},
			{
				"type": "occ",
				"energy": -0.24285,
				"method": "rhf"
			},
			{
				"type": "occ",
				"energy": -0.2186,
				"method": "rhf"
			},
			{
				"type": "unocc",
				"energy": -0.03309,
				"method": "rhf"
			},
			{
				"type": "unocc",
				"energy": -0.00195,
				"method": "rhf"
			},
			{
				"type": "unocc",
				"energy": 0.00403,
				"method": "rhf"
			},
			{
				"type": "unocc",
				"energy": 0.01372,
				"method": "rhf"
			},
			{
				"type": "unocc",
				"energy": 0.02191,
				"method": "rhf"
			}
		],
		"cosmo_sigma_profile": { 
			"-0.025": 0.0,
			"-0.024": 0.0,
			"-0.023": 0.0,
			"-0.022": 0.0,
			"-0.021": 0.0,
			"-0.02": 0.0,
			"-0.019": 0.270324656015,
			"-0.018": 1.02256904337,
			"-0.017": 1.15595102482,
			"-0.016": 0.50091885584,
			"-0.015": 0.633773575988,
			"-0.014": 0.884481411218,
			"-0.013": 0.852064514375,
			"-0.012": 0.973628791031,
			"-0.011": 0.559608872756,
			"-0.01": 0.551269808674,
			"-0.009": 1.03359950552,
			"-0.008": 3.03337880452,
			"-0.007": 7.6886866812,
			"-0.006": 14.3616481397,
			"-0.005": 30.1075071379,
			"-0.004": 42.8865293922,
			"-0.003": 40.9787935137,
			"-0.002": 34.0488883832,
			"-0.001": 27.9199774037,
			"0.0": 17.332726243,
			"0.001": 19.8760361739,
			"0.002": 18.4339917406,
			"0.003": 19.144695375,
			"0.004": 19.5471622542,
			"0.005": 19.145323104,
			"0.006": 15.3767677656,
			"0.007": 8.45982505543,
			"0.008": 6.6628105596,
			"0.009": 6.79179769845,
			"0.01": 7.08348609321,
			"0.011": 10.2407452013,
			"0.012": 6.60744711161,
			"0.013": 0.571300432369,
			"0.014": 0.0,
			"0.015": 0.0,
			"0.016": 0.0,
			"0.017": 0.0,
			"0.018": 0.0,
			"0.019": 0.0,
			"0.02": 0.0,
			"0.021": 0.0,
			"0.022": 0.0,
			"0.023": 0.0,
			"0.024": 0.0,
			"0.025": 0.0
		}
	}
}
