{
	 "smiles": "FC(F)(F)C1=CC(CC#N)=C(Br)C=C1", 
	 "Tm": 334.15, 
	 "num_atms": 19, 
	 "gaussian": { 
		 "optdone": 1, 
		 "sigma_profile": "yes", 
		 "theory": "DFT", 
		 "functional": "B3LYP", 
		 "basiset": "6-31G**", 
		 "properties": { 
			 "R2extent": 5499.5509, 
			 "electric_dipole_moment_norm": 3.43807388228, 
			 "electric_quadrupole_moment_norm": 21.9690705042, 
			 "total_energy": -3271.63482492, 
			 "HOMO_LUMO_gap": 0.21689, 
			 "cosmo_polarized_energy": -11.23, 
			 "cosmo_cavitation_energy": 28.4, 
			 "cosmo_dispersion_energy": -19.66, 
			 "cosmo_repulsion_energy": 1.49, 
			 "cosmo_total_nonelectrostatic_energy": 10.23, 
			 "SMD_solvation_energy": 6.33 
		},
		"coords": [
			{
				"x": -1.8673731598,
				"y": -1.0406641826,
				"z": -1.5409376122,
				"element": "F" 
			},
			{
				"x": -1.1320699038,
				"y": 0.0473010663,
				"z": -1.8543192502,
				"element": "C" 
			},
			{
				"x": -1.9420936974,
				"y": 0.8898954621,
				"z": -2.5351974073,
				"element": "F" 
			},
			{
				"x": -0.1619009745,
				"y": -0.3425949301,
				"z": -2.7080230263,
				"element": "F" 
			},
			{
				"x": -0.5590973169,
				"y": 0.7078126758,
				"z": -0.6280122015,
				"element": "C" 
			},
			{
				"x": -1.2254796109,
				"y": 0.6082430776,
				"z": 0.592829206,
				"element": "C" 
			},
			{
				"x": -0.747789049,
				"y": 1.2580440473,
				"z": 1.7351561027,
				"element": "C" 
			},
			{
				"x": -1.5036818631,
				"y": 1.1215877003,
				"z": 3.0468869598,
				"element": "C" 
			},
			{
				"x": -0.9030563232,
				"y": 0.132643324,
				"z": 3.9526323617,
				"element": "C" 
			},
			{
				"x": -0.4371344853,
				"y": -0.658652273,
				"z": 4.6617757311,
				"element": "N" 
			},
			{
				"x": 0.4261486261,
				"y": 2.01540845,
				"z": 1.6144774209,
				"element": "C" 
			},
			{
				"x": 1.1474082644,
				"y": 2.9347012395,
				"z": 3.1234086295,
				"element": "Br" 
			},
			{
				"x": 1.1019484144,
				"y": 2.1214826015,
				"z": 0.3986898036,
				"element": "C" 
			},
			{
				"x": 0.6087847181,
				"y": 1.4661864824,
				"z": -0.7256682156,
				"element": "C" 
			},
			{
				"x": -2.1265954554,
				"y": 0.0075199973,
				"z": 0.6607995879,
				"element": "H" 
			},
			{
				"x": -2.5359847183,
				"y": 0.8165969299,
				"z": 2.846524382,
				"element": "H" 
			},
			{
				"x": -1.5431451197,
				"y": 2.0832933118,
				"z": 3.5691439087,
				"element": "H" 
			},
			{
				"x": 2.0086572633,
				"y": 2.711709934,
				"z": 0.3380127231,
				"element": "H" 
			},
			{
				"x": 1.1343543908,
				"y": 1.5393850861,
				"z": -1.6713791039,
				"element": "H" 
			}
		],
		 "valence_orbital": [ 
			{
				"type": "occ",
				"energy": -0.33366,
				"method": "rhf"
			},
			{
				"type": "occ",
				"energy": -0.32854,
				"method": "rhf"
			},
			{
				"type": "occ",
				"energy": -0.30905,
				"method": "rhf"
			},
			{
				"type": "occ",
				"energy": -0.28961,
				"method": "rhf"
			},
			{
				"type": "occ",
				"energy": -0.27051,
				"method": "rhf"
			},
			{
				"type": "unocc",
				"energy": -0.05362,
				"method": "rhf"
			},
			{
				"type": "unocc",
				"energy": -0.0448,
				"method": "rhf"
			},
			{
				"type": "unocc",
				"energy": -0.0162,
				"method": "rhf"
			},
			{
				"type": "unocc",
				"energy": 0.03186,
				"method": "rhf"
			},
			{
				"type": "unocc",
				"energy": 0.03453,
				"method": "rhf"
			}
		],
		"cosmo_sigma_profile": { 
			"-0.025": 0.0,
			"-0.024": 0.0,
			"-0.023": 0.0,
			"-0.022": 0.0,
			"-0.021": 0.0,
			"-0.02": 0.0,
			"-0.019": 0.0,
			"-0.018": 0.0,
			"-0.017": 0.0,
			"-0.016": 0.0,
			"-0.015": 0.0,
			"-0.014": 0.0,
			"-0.013": 0.0,
			"-0.012": 0.0,
			"-0.011": 0.472888094178,
			"-0.01": 3.14872141209,
			"-0.009": 4.57565314681,
			"-0.008": 8.5856431756,
			"-0.007": 9.25150966433,
			"-0.006": 10.4161899498,
			"-0.005": 9.39837656148,
			"-0.004": 9.09676310738,
			"-0.003": 9.51247006689,
			"-0.002": 10.8179985256,
			"-0.001": 16.4684415473,
			"0.0": 24.0560084033,
			"0.001": 25.2184359918,
			"0.002": 29.0974575291,
			"0.003": 31.7205812214,
			"0.004": 5.91662375444,
			"0.005": 2.19305399394,
			"0.006": 2.9909436889,
			"0.007": 2.6305130873,
			"0.008": 3.75905811646,
			"0.009": 3.22581334255,
			"0.01": 3.51774950863,
			"0.011": 2.41303070431,
			"0.012": 2.45709947035,
			"0.013": 1.54566335615,
			"0.014": 0.0267071459516,
			"0.015": 0.0,
			"0.016": 0.0,
			"0.017": 0.0,
			"0.018": 0.0,
			"0.019": 0.0,
			"0.02": 0.0,
			"0.021": 0.0,
			"0.022": 0.0,
			"0.023": 0.0,
			"0.024": 0.0,
			"0.025": 0.0
		}
	}
}
