{
	 "smiles": "OC(=O)C1=C(O)N=C2C=CC=CC2=N1", 
	 "Tm": 541.15, 
	 "num_atms": 20, 
	 "gaussian": { 
		 "optdone": 1, 
		 "sigma_profile": "yes", 
		 "theory": "DFT", 
		 "functional": "B3LYP", 
		 "basiset": "6-31G**", 
		 "properties": { 
			 "R2extent": 2998.4997, 
			 "electric_dipole_moment_norm": 6.4379534916, 
			 "electric_quadrupole_moment_norm": 19.3020630263, 
			 "total_energy": -681.758816515, 
			 "HOMO_LUMO_gap": 0.16288, 
			 "cosmo_polarized_energy": -18.25, 
			 "cosmo_cavitation_energy": 25.24, 
			 "cosmo_dispersion_energy": -19.3, 
			 "cosmo_repulsion_energy": 1.5, 
			 "cosmo_total_nonelectrostatic_energy": 7.44, 
			 "SMD_solvation_energy": 3.16 
		},
		"coords": [
			{
				"x": 3.9719888833,
				"y": 1.0659496438,
				"z": 1.4786004928,
				"element": "O" 
			},
			{
				"x": 2.9741493077,
				"y": 0.171517377,
				"z": 1.6238729054,
				"element": "C" 
			},
			{
				"x": 3.0073844878,
				"y": -0.6684647006,
				"z": 2.486403875,
				"element": "O" 
			},
			{
				"x": 1.80288241,
				"y": 0.2687732522,
				"z": 0.650096443,
				"element": "C" 
			},
			{
				"x": 1.67988092,
				"y": 1.2372654936,
				"z": -0.4072861101,
				"element": "C" 
			},
			{
				"x": 2.6737843273,
				"y": 2.1519454255,
				"z": -0.5746798288,
				"element": "O" 
			},
			{
				"x": 0.6661009305,
				"y": 1.2973995623,
				"z": -1.2263915487,
				"element": "N" 
			},
			{
				"x": -0.3274356839,
				"y": 0.3788006636,
				"z": -1.0548202951,
				"element": "C" 
			},
			{
				"x": -1.4596721772,
				"y": 0.3786176162,
				"z": -1.9026245905,
				"element": "C" 
			},
			{
				"x": -2.452608148,
				"y": -0.5593100803,
				"z": -1.7113545667,
				"element": "C" 
			},
			{
				"x": -2.3578784504,
				"y": -1.5254177845,
				"z": -0.6773454928,
				"element": "C" 
			},
			{
				"x": -1.2656431191,
				"y": -1.5455258237,
				"z": 0.1607443801,
				"element": "C" 
			},
			{
				"x": -0.2278428173,
				"y": -0.59334029,
				"z": -0.011208355,
				"element": "C" 
			},
			{
				"x": 0.8468632815,
				"y": -0.6187502969,
				"z": 0.8188570099,
				"element": "N" 
			},
			{
				"x": 3.7980359762,
				"y": 1.6755889121,
				"z": 0.7403849776,
				"element": "H" 
			},
			{
				"x": 2.4224996471,
				"y": 2.7157247198,
				"z": -1.3249203492,
				"element": "H" 
			},
			{
				"x": -1.5175828531,
				"y": 1.1239295787,
				"z": -2.6889467286,
				"element": "H" 
			},
			{
				"x": -3.3228577306,
				"y": -0.5613398474,
				"z": -2.361106738,
				"element": "H" 
			},
			{
				"x": -3.1552495189,
				"y": -2.2511387659,
				"z": -0.551085692,
				"element": "H" 
			},
			{
				"x": -1.161299673,
				"y": -2.2702246555,
				"z": 0.9613102116,
				"element": "H" 
			}
		],
		 "valence_orbital": [ 
			{
				"type": "occ",
				"energy": -0.30634,
				"method": "rhf"
			},
			{
				"type": "occ",
				"energy": -0.28023,
				"method": "rhf"
			},
			{
				"type": "occ",
				"energy": -0.26733,
				"method": "rhf"
			},
			{
				"type": "occ",
				"energy": -0.26392,
				"method": "rhf"
			},
			{
				"type": "occ",
				"energy": -0.25686,
				"method": "rhf"
			},
			{
				"type": "unocc",
				"energy": -0.09398,
				"method": "rhf"
			},
			{
				"type": "unocc",
				"energy": -0.04398,
				"method": "rhf"
			},
			{
				"type": "unocc",
				"energy": -0.00656,
				"method": "rhf"
			},
			{
				"type": "unocc",
				"energy": 0.02385,
				"method": "rhf"
			},
			{
				"type": "unocc",
				"energy": 0.04967,
				"method": "rhf"
			}
		],
		"cosmo_sigma_profile": { 
			"-0.025": 0.0,
			"-0.024": 0.0,
			"-0.023": 0.0,
			"-0.022": 0.0,
			"-0.021": 0.0,
			"-0.02": 0.0,
			"-0.019": 0.84322149318,
			"-0.018": 0.763540070128,
			"-0.017": 0.643377772153,
			"-0.016": 0.87490468681,
			"-0.015": 0.982780178307,
			"-0.014": 0.400434163544,
			"-0.013": 0.322408849693,
			"-0.012": 1.40464499559,
			"-0.011": 0.549880958497,
			"-0.01": 1.31986617817,
			"-0.009": 1.89739484977,
			"-0.008": 3.3693113888,
			"-0.007": 10.3389792162,
			"-0.006": 13.3978246099,
			"-0.005": 14.8800537957,
			"-0.004": 12.0031533507,
			"-0.003": 12.7898508546,
			"-0.002": 12.22100018,
			"-0.001": 11.7558667157,
			"0.0": 13.1986368284,
			"0.001": 16.7695059965,
			"0.002": 16.3598488157,
			"0.003": 9.99158950182,
			"0.004": 3.64507718693,
			"0.005": 4.3323379107,
			"0.006": 3.24339596712,
			"0.007": 3.90651171391,
			"0.008": 4.11816436017,
			"0.009": 4.42305737881,
			"0.01": 5.64258904453,
			"0.011": 6.29749465834,
			"0.012": 5.34434742381,
			"0.013": 2.34475976863,
			"0.014": 1.12086814122,
			"0.015": 1.07925380107,
			"0.016": 0.869299350608,
			"0.017": 0.389948555175,
			"0.018": 0.0,
			"0.019": 0.0,
			"0.02": 0.0,
			"0.021": 0.0,
			"0.022": 0.0,
			"0.023": 0.0,
			"0.024": 0.0,
			"0.025": 0.0
		}
	}
}
