{
	 "smiles": "COC1=C(OC(C)=O)C2=C(C(=CC=C2)C#N)C(OC(C)=O)=C1OC", 
	 "Tm": 425.15, 
	 "num_atms": 39, 
	 "gaussian": { 
		 "optdone": 1, 
		 "sigma_profile": "yes", 
		 "theory": "DFT", 
		 "functional": "B3LYP", 
		 "basiset": "6-31G**", 
		 "properties": { 
			 "R2extent": 8009.6432, 
			 "electric_dipole_moment_norm": 5.46783503957, 
			 "electric_quadrupole_moment_norm": 25.6815715354, 
			 "total_energy": -1162.91624753, 
			 "HOMO_LUMO_gap": 0.15197, 
			 "cosmo_polarized_energy": -18.04, 
			 "cosmo_cavitation_energy": 43.98, 
			 "cosmo_dispersion_energy": -28.97, 
			 "cosmo_repulsion_energy": 2.21, 
			 "cosmo_total_nonelectrostatic_energy": 17.21, 
			 "SMD_solvation_energy": 12.02 
		},
		"coords": [
			{
				"x": 1.5611161867,
				"y": -0.1032799139,
				"z": -2.4908848703,
				"element": "C" 
			},
			{
				"x": 0.2237406715,
				"y": -0.1841625088,
				"z": -1.9697428446,
				"element": "O" 
			},
			{
				"x": 0.149694371,
				"y": -0.3093790676,
				"z": -0.608827611,
				"element": "C" 
			},
			{
				"x": -0.2587015837,
				"y": -1.5052478465,
				"z": -0.0575671946,
				"element": "C" 
			},
			{
				"x": -0.5181563805,
				"y": -2.5878568621,
				"z": -0.8875522841,
				"element": "O" 
			},
			{
				"x": -1.6520885974,
				"y": -2.5348166978,
				"z": -1.6813422812,
				"element": "C" 
			},
			{
				"x": -1.6628459058,
				"y": -3.709699613,
				"z": -2.6240556752,
				"element": "C" 
			},
			{
				"x": -2.4805638755,
				"y": -1.6688665092,
				"z": -1.5984457053,
				"element": "O" 
			},
			{
				"x": -0.3387640364,
				"y": -1.6919187917,
				"z": 1.347565191,
				"element": "C" 
			},
			{
				"x": 0.0302631602,
				"y": -0.6079380832,
				"z": 2.213325797,
				"element": "C" 
			},
			{
				"x": -0.0434044803,
				"y": -0.8345415375,
				"z": 3.6303541176,
				"element": "C" 
			},
			{
				"x": -0.455327045,
				"y": -2.0656470566,
				"z": 4.1271476167,
				"element": "C" 
			},
			{
				"x": -0.8048840851,
				"y": -3.1174745048,
				"z": 3.2607776233,
				"element": "C" 
			},
			{
				"x": -0.7470712991,
				"y": -2.933225881,
				"z": 1.898292472,
				"element": "C" 
			},
			{
				"x": 0.2779361845,
				"y": 0.1646186321,
				"z": 4.6088031799,
				"element": "C" 
			},
			{
				"x": 0.5029718,
				"y": 0.9031971449,
				"z": 5.4800617953,
				"element": "N" 
			},
			{
				"x": 0.4279584087,
				"y": 0.6205461531,
				"z": 1.6205503475,
				"element": "C" 
			},
			{
				"x": 0.8700455334,
				"y": 1.6426250019,
				"z": 2.441167153,
				"element": "O" 
			},
			{
				"x": 0.1074096077,
				"y": 2.7875360942,
				"z": 2.5680588936,
				"element": "C" 
			},
			{
				"x": 0.7932694434,
				"y": 3.7457469406,
				"z": 3.5000284846,
				"element": "C" 
			},
			{
				"x": -0.9536089897,
				"y": 2.9397069553,
				"z": 2.0179442981,
				"element": "O" 
			},
			{
				"x": 0.4710834042,
				"y": 0.7856201941,
				"z": 0.2454464464,
				"element": "C" 
			},
			{
				"x": 0.8965538893,
				"y": 1.9727150911,
				"z": -0.2729836784,
				"element": "O" 
			},
			{
				"x": -0.0870161094,
				"y": 2.7081335027,
				"z": -1.0373098983,
				"element": "C" 
			},
			{
				"x": 2.1158719506,
				"y": -1.022344369,
				"z": -2.2688280533,
				"element": "H" 
			},
			{
				"x": 1.4566637927,
				"y": 0.0074490822,
				"z": -3.5715088067,
				"element": "H" 
			},
			{
				"x": 2.0932789473,
				"y": 0.7588531667,
				"z": -2.0789207133,
				"element": "H" 
			},
			{
				"x": -0.8529400931,
				"y": -3.5976124677,
				"z": -3.3516608387,
				"element": "H" 
			},
			{
				"x": -2.6193503023,
				"y": -3.7463283564,
				"z": -3.1440693892,
				"element": "H" 
			},
			{
				"x": -1.488491774,
				"y": -4.642289403,
				"z": -2.0809044154,
				"element": "H" 
			},
			{
				"x": -0.5048601049,
				"y": -2.2055285583,
				"z": 5.2016575437,
				"element": "H" 
			},
			{
				"x": -1.1204571792,
				"y": -4.070048997,
				"z": 3.6735814163,
				"element": "H" 
			},
			{
				"x": -1.0074936524,
				"y": -3.736793605,
				"z": 1.2194385816,
				"element": "H" 
			},
			{
				"x": 1.8159119685,
				"y": 3.9326707037,
				"z": 3.1612667587,
				"element": "H" 
			},
			{
				"x": 0.8504810918,
				"y": 3.2912690717,
				"z": 4.494405342,
				"element": "H" 
			},
			{
				"x": 0.2293255409,
				"y": 4.6768899494,
				"z": 3.5418345104,
				"element": "H" 
			},
			{
				"x": -0.936511461,
				"y": 2.9585853468,
				"z": -0.3981997098,
				"element": "H" 
			},
			{
				"x": -0.4152348185,
				"y": 2.1337515245,
				"z": -1.9066466944,
				"element": "H" 
			},
			{
				"x": 0.4185958206,
				"y": 3.6198860754,
				"z": -1.3593569049,
				"element": "H" 
			}
		],
		 "valence_orbital": [ 
			{
				"type": "occ",
				"energy": -0.28319,
				"method": "rhf"
			},
			{
				"type": "occ",
				"energy": -0.27891,
				"method": "rhf"
			},
			{
				"type": "occ",
				"energy": -0.27662,
				"method": "rhf"
			},
			{
				"type": "occ",
				"energy": -0.24976,
				"method": "rhf"
			},
			{
				"type": "occ",
				"energy": -0.2234,
				"method": "rhf"
			},
			{
				"type": "unocc",
				"energy": -0.07143,
				"method": "rhf"
			},
			{
				"type": "unocc",
				"energy": -0.02947,
				"method": "rhf"
			},
			{
				"type": "unocc",
				"energy": -0.00757,
				"method": "rhf"
			},
			{
				"type": "unocc",
				"energy": 0.00254,
				"method": "rhf"
			},
			{
				"type": "unocc",
				"energy": 0.0096,
				"method": "rhf"
			}
		],
		"cosmo_sigma_profile": { 
			"-0.025": 0.0,
			"-0.024": 0.0,
			"-0.023": 0.0,
			"-0.022": 0.0,
			"-0.021": 0.0,
			"-0.02": 0.0,
			"-0.019": 0.0,
			"-0.018": 0.0,
			"-0.017": 0.0,
			"-0.016": 0.0,
			"-0.015": 0.0,
			"-0.014": 0.0,
			"-0.013": 0.0,
			"-0.012": 0.0,
			"-0.011": 0.0,
			"-0.01": 0.0,
			"-0.009": 0.393343818794,
			"-0.008": 2.84468924798,
			"-0.007": 10.9127225642,
			"-0.006": 21.2573726835,
			"-0.005": 24.1071853938,
			"-0.004": 29.9236967261,
			"-0.003": 38.4208870381,
			"-0.002": 37.7463907186,
			"-0.001": 29.6038041066,
			"0.0": 28.6488555784,
			"0.001": 23.004470648,
			"0.002": 17.2825561059,
			"0.003": 9.79103465096,
			"0.004": 10.2309147705,
			"0.005": 9.8481647068,
			"0.006": 9.55186299121,
			"0.007": 8.10536885589,
			"0.008": 7.65307227567,
			"0.009": 8.45912072544,
			"0.01": 10.8526461495,
			"0.011": 9.33366598415,
			"0.012": 3.36450596043,
			"0.013": 0.870660934117,
			"0.014": 0.00680334139715,
			"0.015": 0.0,
			"0.016": 0.0,
			"0.017": 0.0,
			"0.018": 0.0,
			"0.019": 0.0,
			"0.02": 0.0,
			"0.021": 0.0,
			"0.022": 0.0,
			"0.023": 0.0,
			"0.024": 0.0,
			"0.025": 0.0
		}
	}
}
