{
	 "smiles": "CN1CC(=O)NC2=C1C=CC(Cl)=C2", 
	 "Tm": 455.15, 
	 "num_atms": 22, 
	 "gaussian": { 
		 "optdone": 1, 
		 "sigma_profile": "yes", 
		 "theory": "DFT", 
		 "functional": "B3LYP", 
		 "basiset": "6-31G**", 
		 "properties": { 
			 "R2extent": 3589.9197, 
			 "electric_dipole_moment_norm": 2.79854959041, 
			 "electric_quadrupole_moment_norm": 17.5258629611, 
			 "total_energy": -993.315730215, 
			 "HOMO_LUMO_gap": 0.18084, 
			 "cosmo_polarized_energy": -12.57, 
			 "cosmo_cavitation_energy": 27.05, 
			 "cosmo_dispersion_energy": -20.4, 
			 "cosmo_repulsion_energy": 1.6, 
			 "cosmo_total_nonelectrostatic_energy": 8.25, 
			 "SMD_solvation_energy": 3.78 
		},
		"coords": [
			{
				"x": -0.5182324756,
				"y": 0.3975747704,
				"z": -3.0017303301,
				"element": "C" 
			},
			{
				"x": -0.6770883725,
				"y": 1.0188505303,
				"z": -1.6994839182,
				"element": "N" 
			},
			{
				"x": -1.2397551527,
				"y": 2.3651217232,
				"z": -1.7195130913,
				"element": "C" 
			},
			{
				"x": -1.6940306791,
				"y": 2.8241737788,
				"z": -0.3391619283,
				"element": "C" 
			},
			{
				"x": -2.5955778984,
				"y": 3.6278865659,
				"z": -0.1722239414,
				"element": "O" 
			},
			{
				"x": -0.9708402701,
				"y": 2.2895009415,
				"z": 0.6979210195,
				"element": "N" 
			},
			{
				"x": 0.1081975515,
				"y": 1.4052263542,
				"z": 0.5445658722,
				"element": "C" 
			},
			{
				"x": 0.2708867698,
				"y": 0.7589229594,
				"z": -0.705323381,
				"element": "C" 
			},
			{
				"x": 1.3384732073,
				"y": -0.1374323583,
				"z": -0.8464134822,
				"element": "C" 
			},
			{
				"x": 2.2044435499,
				"y": -0.4098176734,
				"z": 0.2161894726,
				"element": "C" 
			},
			{
				"x": 2.0164143896,
				"y": 0.2358258121,
				"z": 1.4323242048,
				"element": "C" 
			},
			{
				"x": 3.100674658,
				"y": -0.0882286242,
				"z": 2.7785345641,
				"element": "Cl" 
			},
			{
				"x": 0.9761054761,
				"y": 1.1499536647,
				"z": 1.6027090116,
				"element": "C" 
			},
			{
				"x": -1.4141551092,
				"y": 0.5932133529,
				"z": -3.5962625103,
				"element": "H" 
			},
			{
				"x": 0.3553514946,
				"y": 0.7730849436,
				"z": -3.5606833736,
				"element": "H" 
			},
			{
				"x": -0.4194626564,
				"y": -0.6859218732,
				"z": -2.8925477244,
				"element": "H" 
			},
			{
				"x": -0.5305713786,
				"y": 3.1190272446,
				"z": -2.1121629799,
				"element": "H" 
			},
			{
				"x": -2.1210359002,
				"y": 2.3817050546,
				"z": -2.364151253,
				"element": "H" 
			},
			{
				"x": -1.2065467106,
				"y": 2.6353474144,
				"z": 1.6194207162,
				"element": "H" 
			},
			{
				"x": 1.5039146258,
				"y": -0.6378584358,
				"z": -1.792786558,
				"element": "H" 
			},
			{
				"x": 3.0212309224,
				"y": -1.1108524759,
				"z": 0.0891745246,
				"element": "H" 
			},
			{
				"x": 0.8392039583,
				"y": 1.6543963302,
				"z": 2.553605086,
				"element": "H" 
			}
		],
		 "valence_orbital": [ 
			{
				"type": "occ",
				"energy": -0.30974,
				"method": "rhf"
			},
			{
				"type": "occ",
				"energy": -0.28706,
				"method": "rhf"
			},
			{
				"type": "occ",
				"energy": -0.26478,
				"method": "rhf"
			},
			{
				"type": "occ",
				"energy": -0.24201,
				"method": "rhf"
			},
			{
				"type": "occ",
				"energy": -0.20186,
				"method": "rhf"
			},
			{
				"type": "unocc",
				"energy": -0.02102,
				"method": "rhf"
			},
			{
				"type": "unocc",
				"energy": -0.0079,
				"method": "rhf"
			},
			{
				"type": "unocc",
				"energy": 0.02798,
				"method": "rhf"
			},
			{
				"type": "unocc",
				"energy": 0.02995,
				"method": "rhf"
			},
			{
				"type": "unocc",
				"energy": 0.07707,
				"method": "rhf"
			}
		],
		"cosmo_sigma_profile": { 
			"-0.025": 0.0,
			"-0.024": 0.0,
			"-0.023": 0.0,
			"-0.022": 0.0,
			"-0.021": 0.0,
			"-0.02": 0.0,
			"-0.019": 0.0,
			"-0.018": 0.0,
			"-0.017": 0.0,
			"-0.016": 0.112334438938,
			"-0.015": 1.13787938171,
			"-0.014": 1.2961412563,
			"-0.013": 1.53320873372,
			"-0.012": 1.02221128865,
			"-0.011": 1.16455139474,
			"-0.01": 1.55205342646,
			"-0.009": 0.991698551379,
			"-0.008": 1.6969934371,
			"-0.007": 6.49722302137,
			"-0.006": 13.9397673218,
			"-0.005": 13.1796247361,
			"-0.004": 17.9371745227,
			"-0.003": 16.6135772678,
			"-0.002": 15.0942275176,
			"-0.001": 11.9553251112,
			"0.0": 11.1144281023,
			"0.001": 12.2434325257,
			"0.002": 13.9059721184,
			"0.003": 18.4814946934,
			"0.004": 18.9338901918,
			"0.005": 15.1657106774,
			"0.006": 3.24662198486,
			"0.007": 2.05433484436,
			"0.008": 1.30927444615,
			"0.009": 1.26174226115,
			"0.01": 1.89292656043,
			"0.011": 1.16943282279,
			"0.012": 3.89134841557,
			"0.013": 5.56859739497,
			"0.014": 1.51221027422,
			"0.015": 0.0,
			"0.016": 0.0,
			"0.017": 0.0,
			"0.018": 0.0,
			"0.019": 0.0,
			"0.02": 0.0,
			"0.021": 0.0,
			"0.022": 0.0,
			"0.023": 0.0,
			"0.024": 0.0,
			"0.025": 0.0
		}
	}
}
