{
	 "smiles": "OC1=CC=CC=CC1=O", 
	 "Tm": 325.05, 
	 "num_atms": 15, 
	 "gaussian": { 
		 "optdone": 1, 
		 "sigma_profile": "yes", 
		 "theory": "DFT", 
		 "functional": "B3LYP", 
		 "basiset": "6-31G**", 
		 "properties": { 
			 "R2extent": 2009.7944, 
			 "electric_dipole_moment_norm": 3.50571756706, 
			 "electric_quadrupole_moment_norm": 8.55927538931, 
			 "total_energy": -420.780803495, 
			 "HOMO_LUMO_gap": 0.15241, 
			 "cosmo_polarized_energy": -8.49, 
			 "cosmo_cavitation_energy": 18.99, 
			 "cosmo_dispersion_energy": -14.56, 
			 "cosmo_repulsion_energy": 1.18, 
			 "cosmo_total_nonelectrostatic_energy": 5.61, 
			 "SMD_solvation_energy": 4.3 
		},
		"coords": [
			{
				"x": -2.9312921984,
				"y": 2.3153327539,
				"z": -1.1531820601,
				"element": "O" 
			},
			{
				"x": -1.7994798076,
				"y": 1.6804698426,
				"z": -1.4475025699,
				"element": "C" 
			},
			{
				"x": -1.651437008,
				"y": 1.1119851444,
				"z": -2.6942069344,
				"element": "C" 
			},
			{
				"x": -0.5504287943,
				"y": 0.3996401445,
				"z": -3.2161118598,
				"element": "C" 
			},
			{
				"x": 0.6544044161,
				"y": 0.0881270279,
				"z": -2.6223882193,
				"element": "C" 
			},
			{
				"x": 1.082961664,
				"y": 0.4182977415,
				"z": -1.3138366571,
				"element": "C" 
			},
			{
				"x": 0.4419451156,
				"y": 1.1124381019,
				"z": -0.3147818342,
				"element": "C" 
			},
			{
				"x": -0.8608694006,
				"y": 1.7151946468,
				"z": -0.2948033977,
				"element": "C" 
			},
			{
				"x": -1.3017953515,
				"y": 2.3198189489,
				"z": 0.7089969584,
				"element": "O" 
			},
			{
				"x": -2.7632388429,
				"y": 2.6149984131,
				"z": -0.2164104859,
				"element": "H" 
			},
			{
				"x": -2.5078464768,
				"y": 1.2388706818,
				"z": -3.351373512,
				"element": "H" 
			},
			{
				"x": -0.6821337661,
				"y": 0.0493380246,
				"z": -4.2375697187,
				"element": "H" 
			},
			{
				"x": 1.361389122,
				"y": -0.4764290911,
				"z": -3.2241244849,
				"element": "H" 
			},
			{
				"x": 2.0805524045,
				"y": 0.0656028331,
				"z": -1.058186463,
				"element": "H" 
			},
			{
				"x": 0.9743689241,
				"y": 1.2463147861,
				"z": 0.6231812386,
				"element": "H" 
			}
		],
		 "valence_orbital": [ 
			{
				"type": "occ",
				"energy": -0.3603,
				"method": "rhf"
			},
			{
				"type": "occ",
				"energy": -0.35038,
				"method": "rhf"
			},
			{
				"type": "occ",
				"energy": -0.28358,
				"method": "rhf"
			},
			{
				"type": "occ",
				"energy": -0.26917,
				"method": "rhf"
			},
			{
				"type": "occ",
				"energy": -0.22384,
				"method": "rhf"
			},
			{
				"type": "unocc",
				"energy": -0.07143,
				"method": "rhf"
			},
			{
				"type": "unocc",
				"energy": -0.05786,
				"method": "rhf"
			},
			{
				"type": "unocc",
				"energy": 0.06745,
				"method": "rhf"
			},
			{
				"type": "unocc",
				"energy": 0.10773,
				"method": "rhf"
			},
			{
				"type": "unocc",
				"energy": 0.11262,
				"method": "rhf"
			}
		],
		"cosmo_sigma_profile": { 
			"-0.025": 0.0,
			"-0.024": 0.0,
			"-0.023": 0.0,
			"-0.022": 0.0,
			"-0.021": 0.0,
			"-0.02": 0.0,
			"-0.019": 0.0,
			"-0.018": 0.0,
			"-0.017": 0.0,
			"-0.016": 0.0,
			"-0.015": 0.0,
			"-0.014": 0.0,
			"-0.013": 0.0,
			"-0.012": 0.0,
			"-0.011": 0.111889962368,
			"-0.01": 0.528838479006,
			"-0.009": 0.430080139559,
			"-0.008": 1.55078571433,
			"-0.007": 10.8414615475,
			"-0.006": 13.7827279363,
			"-0.005": 9.73992626318,
			"-0.004": 7.01117281166,
			"-0.003": 8.5645742753,
			"-0.002": 10.9698959261,
			"-0.001": 10.2978527072,
			"0.0": 12.6648557217,
			"0.001": 15.3950176076,
			"0.002": 15.8287360899,
			"0.003": 6.56237143224,
			"0.004": 2.25811309468,
			"0.005": 3.53385663108,
			"0.006": 1.98981533353,
			"0.007": 2.59306882067,
			"0.008": 2.28006687468,
			"0.009": 2.91792328096,
			"0.01": 3.39005702372,
			"0.011": 2.48426286155,
			"0.012": 2.10986332334,
			"0.013": 2.31147788828,
			"0.014": 1.85343850147,
			"0.015": 0.274523270089,
			"0.016": 0.0,
			"0.017": 0.0,
			"0.018": 0.0,
			"0.019": 0.0,
			"0.02": 0.0,
			"0.021": 0.0,
			"0.022": 0.0,
			"0.023": 0.0,
			"0.024": 0.0,
			"0.025": 0.0
		}
	}
}
