{
	 "smiles": "OC1=CC(=CC=C1)N1C=NN=N1", 
	 "Tm": 448.15, 
	 "num_atms": 18, 
	 "gaussian": { 
		 "optdone": 1, 
		 "sigma_profile": "yes", 
		 "theory": "DFT", 
		 "functional": "B3LYP", 
		 "basiset": "6-31G**", 
		 "properties": { 
			 "R2extent": 2384.5885, 
			 "electric_dipole_moment_norm": 6.91413349235, 
			 "electric_quadrupole_moment_norm": 8.2336677289, 
			 "total_energy": -564.522945967, 
			 "HOMO_LUMO_gap": 0.19065, 
			 "cosmo_polarized_energy": -17.77, 
			 "cosmo_cavitation_energy": 23.17, 
			 "cosmo_dispersion_energy": -17.39, 
			 "cosmo_repulsion_energy": 1.35, 
			 "cosmo_total_nonelectrostatic_energy": 7.12, 
			 "SMD_solvation_energy": 3.12 
		},
		"coords": [
			{
				"x": 0.4628313634,
				"y": 3.2426173793,
				"z": 2.378771012,
				"element": "O" 
			},
			{
				"x": 0.0940612428,
				"y": 2.7933098993,
				"z": 1.1466293104,
				"element": "C" 
			},
			{
				"x": 0.2102292656,
				"y": 1.4184742734,
				"z": 0.9200704743,
				"element": "C" 
			},
			{
				"x": -0.1528414085,
				"y": 0.9014212545,
				"z": -0.3233352051,
				"element": "C" 
			},
			{
				"x": -0.6296631408,
				"y": 1.7295759556,
				"z": -1.3453464342,
				"element": "C" 
			},
			{
				"x": -0.736903589,
				"y": 3.0955521038,
				"z": -1.0969301169,
				"element": "C" 
			},
			{
				"x": -0.3805571875,
				"y": 3.6377727173,
				"z": 0.1375816133,
				"element": "C" 
			},
			{
				"x": -0.0375437617,
				"y": -0.4988602019,
				"z": -0.5625348417,
				"element": "N" 
			},
			{
				"x": 0.3864712538,
				"y": -1.5098885561,
				"z": 0.2336140282,
				"element": "C" 
			},
			{
				"x": 0.3146109269,
				"y": -2.643275769,
				"z": -0.4286859088,
				"element": "N" 
			},
			{
				"x": -0.1654433903,
				"y": -2.316689495,
				"z": -1.6626711989,
				"element": "N" 
			},
			{
				"x": -0.380359383,
				"y": -1.0487611966,
				"z": -1.7596097566,
				"element": "N" 
			},
			{
				"x": 0.3415093654,
				"y": 4.2000927383,
				"z": 2.4214805518,
				"element": "H" 
			},
			{
				"x": 0.5814936138,
				"y": 0.7960294179,
				"z": 1.7249729801,
				"element": "H" 
			},
			{
				"x": -0.9043673008,
				"y": 1.3026848312,
				"z": -2.3005880829,
				"element": "H" 
			},
			{
				"x": -1.1052947599,
				"y": 3.7504461869,
				"z": -1.8803999421,
				"element": "H" 
			},
			{
				"x": -0.4697422636,
				"y": 4.7064067834,
				"z": 0.316867349,
				"element": "H" 
			},
			{
				"x": 0.7273091533,
				"y": -1.3944083221,
				"z": 1.2494141681,
				"element": "H" 
			}
		],
		 "valence_orbital": [ 
			{
				"type": "occ",
				"energy": -0.30693,
				"method": "rhf"
			},
			{
				"type": "occ",
				"energy": -0.29856,
				"method": "rhf"
			},
			{
				"type": "occ",
				"energy": -0.28661,
				"method": "rhf"
			},
			{
				"type": "occ",
				"energy": -0.26539,
				"method": "rhf"
			},
			{
				"type": "occ",
				"energy": -0.24434,
				"method": "rhf"
			},
			{
				"type": "unocc",
				"energy": -0.05369,
				"method": "rhf"
			},
			{
				"type": "unocc",
				"energy": -0.01862,
				"method": "rhf"
			},
			{
				"type": "unocc",
				"energy": 0.01523,
				"method": "rhf"
			},
			{
				"type": "unocc",
				"energy": 0.0264,
				"method": "rhf"
			},
			{
				"type": "unocc",
				"energy": 0.05201,
				"method": "rhf"
			}
		],
		"cosmo_sigma_profile": { 
			"-0.025": 0.0,
			"-0.024": 0.0,
			"-0.023": 0.0,
			"-0.022": 0.0,
			"-0.021": 0.0,
			"-0.02": 0.0,
			"-0.019": 0.0425623514492,
			"-0.018": 0.962229693147,
			"-0.017": 1.08101367644,
			"-0.016": 1.18562989826,
			"-0.015": 0.857209381335,
			"-0.014": 2.09178401812,
			"-0.013": 2.90835356159,
			"-0.012": 2.88541031404,
			"-0.011": 2.9830738564,
			"-0.01": 2.60509709155,
			"-0.009": 2.9591926881,
			"-0.008": 3.63538139268,
			"-0.007": 5.40701364002,
			"-0.006": 7.49545767973,
			"-0.005": 11.238542104,
			"-0.004": 10.431530745,
			"-0.003": 7.87555574512,
			"-0.002": 8.86668613131,
			"-0.001": 8.41233781845,
			"0.0": 9.66960006405,
			"0.001": 10.7369911648,
			"0.002": 15.2165269578,
			"0.003": 14.2339467274,
			"0.004": 9.27901307695,
			"0.005": 4.06461107025,
			"0.006": 4.58445554715,
			"0.007": 5.31753350819,
			"0.008": 7.18109978432,
			"0.009": 6.09573976827,
			"0.01": 5.66818410684,
			"0.011": 4.45080229201,
			"0.012": 2.23752628604,
			"0.013": 2.67808109472,
			"0.014": 1.40364262863,
			"0.015": 0.327288960752,
			"0.016": 0.0,
			"0.017": 0.0,
			"0.018": 0.0,
			"0.019": 0.0,
			"0.02": 0.0,
			"0.021": 0.0,
			"0.022": 0.0,
			"0.023": 0.0,
			"0.024": 0.0,
			"0.025": 0.0
		}
	}
}
