{
	 "smiles": "O=C=NC1=C(C=CC=C1)N(=O)=O", 
	 "Tm": 314.15, 
	 "num_atms": 16, 
	 "gaussian": { 
		 "optdone": 1, 
		 "sigma_profile": "yes", 
		 "theory": "DFT", 
		 "functional": "B3LYP", 
		 "basiset": "6-31G**", 
		 "properties": { 
			 "R2extent": 2505.6696, 
			 "electric_dipole_moment_norm": 5.27660022647, 
			 "electric_quadrupole_moment_norm": 8.51157469567, 
			 "total_energy": -604.217022035, 
			 "HOMO_LUMO_gap": 0.16962, 
			 "cosmo_polarized_energy": -10.46, 
			 "cosmo_cavitation_energy": 22.88, 
			 "cosmo_dispersion_energy": -16.42, 
			 "cosmo_repulsion_energy": 1.31, 
			 "cosmo_total_nonelectrostatic_energy": 7.77, 
			 "SMD_solvation_energy": 8.83 
		},
		"coords": [
			{
				"x": 1.983593211,
				"y": -2.1391610589,
				"z": -3.4064799795,
				"element": "O" 
			},
			{
				"x": 1.5576903273,
				"y": -1.8856021694,
				"z": -2.3392647138,
				"element": "C" 
			},
			{
				"x": 1.1170014283,
				"y": -1.7653523682,
				"z": -1.2205653268,
				"element": "N" 
			},
			{
				"x": 0.7133162659,
				"y": -0.8018166683,
				"z": -0.317868835,
				"element": "C" 
			},
			{
				"x": 0.194627508,
				"y": -1.14984006,
				"z": 0.9460054971,
				"element": "C" 
			},
			{
				"x": -0.1670348653,
				"y": -0.1696668338,
				"z": 1.8718962164,
				"element": "C" 
			},
			{
				"x": -0.0399475297,
				"y": 1.1762679696,
				"z": 1.5516631314,
				"element": "C" 
			},
			{
				"x": 0.4686433416,
				"y": 1.5399429081,
				"z": 0.3011065774,
				"element": "C" 
			},
			{
				"x": 0.8463304287,
				"y": 0.5663864545,
				"z": -0.6159861985,
				"element": "C" 
			},
			{
				"x": 0.0014280374,
				"y": -2.5516735486,
				"z": 1.3511807551,
				"element": "N" 
			},
			{
				"x": -0.1094066734,
				"y": -3.4022720494,
				"z": 0.4732703435,
				"element": "O" 
			},
			{
				"x": -0.056278627,
				"y": -2.777554836,
				"z": 2.5612818453,
				"element": "O" 
			},
			{
				"x": -0.5454807046,
				"y": -0.4932517411,
				"z": 2.8333197807,
				"element": "H" 
			},
			{
				"x": -0.333311891,
				"y": 1.9343496718,
				"z": 2.2698676183,
				"element": "H" 
			},
			{
				"x": 0.5771645293,
				"y": 2.587870591,
				"z": 0.0388412671,
				"element": "H" 
			},
			{
				"x": 1.2554652133,
				"y": 0.8471737388,
				"z": -1.5812679785,
				"element": "H" 
			}
		],
		 "valence_orbital": [ 
			{
				"type": "occ",
				"energy": -0.31104,
				"method": "rhf"
			},
			{
				"type": "occ",
				"energy": -0.30717,
				"method": "rhf"
			},
			{
				"type": "occ",
				"energy": -0.29583,
				"method": "rhf"
			},
			{
				"type": "occ",
				"energy": -0.28316,
				"method": "rhf"
			},
			{
				"type": "occ",
				"energy": -0.26247,
				"method": "rhf"
			},
			{
				"type": "unocc",
				"energy": -0.09285,
				"method": "rhf"
			},
			{
				"type": "unocc",
				"energy": -0.04769,
				"method": "rhf"
			},
			{
				"type": "unocc",
				"energy": -0.01367,
				"method": "rhf"
			},
			{
				"type": "unocc",
				"energy": 0.00239,
				"method": "rhf"
			},
			{
				"type": "unocc",
				"energy": 0.05981,
				"method": "rhf"
			}
		],
		"cosmo_sigma_profile": { 
			"-0.025": 0.0,
			"-0.024": 0.0,
			"-0.023": 0.0,
			"-0.022": 0.0,
			"-0.021": 0.0,
			"-0.02": 0.0,
			"-0.019": 0.0,
			"-0.018": 0.0,
			"-0.017": 0.0,
			"-0.016": 0.0,
			"-0.015": 0.0,
			"-0.014": 0.0,
			"-0.013": 0.0,
			"-0.012": 0.0,
			"-0.011": 0.0,
			"-0.01": 0.311963412119,
			"-0.009": 2.3348035482,
			"-0.008": 6.08386647334,
			"-0.007": 11.0174869321,
			"-0.006": 11.2913942365,
			"-0.005": 10.9653157729,
			"-0.004": 11.2187967151,
			"-0.003": 11.9840357051,
			"-0.002": 11.6062436086,
			"-0.001": 15.7839449182,
			"0.0": 13.0152189398,
			"0.001": 14.3101964134,
			"0.002": 12.4768655056,
			"0.003": 3.32705389565,
			"0.004": 4.79058102614,
			"0.005": 5.74390955917,
			"0.006": 8.16282656879,
			"0.007": 14.8392647313,
			"0.008": 9.81248086943,
			"0.009": 4.78428444081,
			"0.01": 2.04973390207,
			"0.011": 0.047573727708,
			"0.012": 0.0,
			"0.013": 0.0,
			"0.014": 0.0,
			"0.015": 0.0,
			"0.016": 0.0,
			"0.017": 0.0,
			"0.018": 0.0,
			"0.019": 0.0,
			"0.02": 0.0,
			"0.021": 0.0,
			"0.022": 0.0,
			"0.023": 0.0,
			"0.024": 0.0,
			"0.025": 0.0
		}
	}
}
