{
	 "smiles": "CS(=O)(=O)C1=CC(=CC=C1)C(Cl)=O", 
	 "Tm": 359.15, 
	 "num_atms": 20, 
	 "gaussian": { 
		 "optdone": 1, 
		 "sigma_profile": "yes", 
		 "theory": "DFT", 
		 "functional": "B3LYP", 
		 "basiset": "6-31G**", 
		 "properties": { 
			 "R2extent": 3996.0253, 
			 "electric_dipole_moment_norm": 5.01174370554, 
			 "electric_quadrupole_moment_norm": 17.6154216339, 
			 "total_energy": -1393.06182285, 
			 "HOMO_LUMO_gap": 0.19978, 
			 "cosmo_polarized_energy": -16.43, 
			 "cosmo_cavitation_energy": 28.19, 
			 "cosmo_dispersion_energy": -20.87, 
			 "cosmo_repulsion_energy": 1.61, 
			 "cosmo_total_nonelectrostatic_energy": 8.93, 
			 "SMD_solvation_energy": 5.23 
		},
		"coords": [
			{
				"x": -0.1311269087,
				"y": 0.6597490049,
				"z": -2.5761121287,
				"element": "C" 
			},
			{
				"x": 1.2248224645,
				"y": 0.1891814287,
				"z": -1.4762052414,
				"element": "S" 
			},
			{
				"x": 1.54602414,
				"y": -1.2196509785,
				"z": -1.7418553219,
				"element": "O" 
			},
			{
				"x": 2.2494057268,
				"y": 1.2410034259,
				"z": -1.5540034616,
				"element": "O" 
			},
			{
				"x": 0.484969307,
				"y": 0.2822917708,
				"z": 0.170148135,
				"element": "C" 
			},
			{
				"x": -0.1875363031,
				"y": -0.8237561981,
				"z": 0.6769700927,
				"element": "C" 
			},
			{
				"x": -0.7566854637,
				"y": -0.7475750082,
				"z": 1.9588674643,
				"element": "C" 
			},
			{
				"x": -0.6297828999,
				"y": 0.429118976,
				"z": 2.7107205372,
				"element": "C" 
			},
			{
				"x": 0.0623520943,
				"y": 1.5218631848,
				"z": 2.1901160932,
				"element": "C" 
			},
			{
				"x": 0.626187673,
				"y": 1.4557950439,
				"z": 0.9156093861,
				"element": "C" 
			},
			{
				"x": -1.4683219496,
				"y": -1.9650229633,
				"z": 2.4302173546,
				"element": "C" 
			},
			{
				"x": -2.178170241,
				"y": -1.8525582689,
				"z": 4.1069597669,
				"element": "Cl" 
			},
			{
				"x": -1.6064275953,
				"y": -2.9739840289,
				"z": 1.8077745311,
				"element": "O" 
			},
			{
				"x": -0.4544786042,
				"y": 1.6736326103,
				"z": -2.3364093432,
				"element": "H" 
			},
			{
				"x": -0.9483773041,
				"y": -0.0544194726,
				"z": -2.4667675146,
				"element": "H" 
			},
			{
				"x": 0.274321267,
				"y": 0.6199366699,
				"z": -3.5893172897,
				"element": "H" 
			},
			{
				"x": -0.2595210186,
				"y": -1.7425003616,
				"z": 0.1053634916,
				"element": "H" 
			},
			{
				"x": -1.0666087771,
				"y": 0.4827230252,
				"z": 3.7004133354,
				"element": "H" 
			},
			{
				"x": 0.1679674058,
				"y": 2.4247662262,
				"z": 2.7827486334,
				"element": "H" 
			},
			{
				"x": 1.1870869869,
				"y": 2.2874059134,
				"z": 0.5019614795,
				"element": "H" 
			}
		],
		 "valence_orbital": [ 
			{
				"type": "occ",
				"energy": -0.30887,
				"method": "rhf"
			},
			{
				"type": "occ",
				"energy": -0.30868,
				"method": "rhf"
			},
			{
				"type": "occ",
				"energy": -0.30508,
				"method": "rhf"
			},
			{
				"type": "occ",
				"energy": -0.29849,
				"method": "rhf"
			},
			{
				"type": "occ",
				"energy": -0.29534,
				"method": "rhf"
			},
			{
				"type": "unocc",
				"energy": -0.09556,
				"method": "rhf"
			},
			{
				"type": "unocc",
				"energy": -0.05912,
				"method": "rhf"
			},
			{
				"type": "unocc",
				"energy": 0.00112,
				"method": "rhf"
			},
			{
				"type": "unocc",
				"energy": 0.00584,
				"method": "rhf"
			},
			{
				"type": "unocc",
				"energy": 0.05556,
				"method": "rhf"
			}
		],
		"cosmo_sigma_profile": { 
			"-0.025": 0.0,
			"-0.024": 0.0,
			"-0.023": 0.0,
			"-0.022": 0.0,
			"-0.021": 0.0,
			"-0.02": 0.0,
			"-0.019": 0.0,
			"-0.018": 0.0,
			"-0.017": 0.0,
			"-0.016": 0.0,
			"-0.015": 0.0,
			"-0.014": 0.0,
			"-0.013": 0.0,
			"-0.012": 0.0,
			"-0.011": 0.0,
			"-0.01": 0.124544326611,
			"-0.009": 5.25927456718,
			"-0.008": 12.0510763141,
			"-0.007": 13.5216347709,
			"-0.006": 11.281895759,
			"-0.005": 14.9319202957,
			"-0.004": 15.9175081913,
			"-0.003": 14.3376837298,
			"-0.002": 14.875651483,
			"-0.001": 18.675686577,
			"0.0": 16.6250064605,
			"0.001": 12.5676613995,
			"0.002": 8.80194069033,
			"0.003": 9.50737779667,
			"0.004": 10.8258313925,
			"0.005": 6.42400804586,
			"0.006": 4.19573168722,
			"0.007": 4.76116712323,
			"0.008": 7.87734687215,
			"0.009": 4.90340327446,
			"0.01": 6.02640430644,
			"0.011": 9.47360151115,
			"0.012": 5.84946476258,
			"0.013": 0.0106387759315,
			"0.014": 0.0,
			"0.015": 0.0,
			"0.016": 0.0,
			"0.017": 0.0,
			"0.018": 0.0,
			"0.019": 0.0,
			"0.02": 0.0,
			"0.021": 0.0,
			"0.022": 0.0,
			"0.023": 0.0,
			"0.024": 0.0,
			"0.025": 0.0
		}
	}
}
