{
	 "smiles": "CC(C)C1=C(O)C(=C(C)C(=C1)[N+]([O-])=O)[N+]([O-])=O", 
	 "Tm": 328.65, 
	 "num_atms": 29, 
	 "gaussian": { 
		 "optdone": 1, 
		 "sigma_profile": "yes", 
		 "theory": "DFT", 
		 "functional": "B3LYP", 
		 "basiset": "6-31G**", 
		 "properties": { 
			 "R2extent": 4378.7443, 
			 "electric_dipole_moment_norm": 5.51494692903, 
			 "electric_quadrupole_moment_norm": 18.980965879, 
			 "total_energy": -873.71521587, 
			 "HOMO_LUMO_gap": 0.17114, 
			 "cosmo_polarized_energy": -16.14, 
			 "cosmo_cavitation_energy": 33.07, 
			 "cosmo_dispersion_energy": -23.17, 
			 "cosmo_repulsion_energy": 1.79, 
			 "cosmo_total_nonelectrostatic_energy": 11.69, 
			 "SMD_solvation_energy": 10.58 
		},
		"coords": [
			{
				"x": -3.1850648094,
				"y": -0.5478198912,
				"z": -1.7454285965,
				"element": "C" 
			},
			{
				"x": -1.7474296232,
				"y": -0.5997563485,
				"z": -2.2818558077,
				"element": "C" 
			},
			{
				"x": -1.5127994781,
				"y": 0.5155973752,
				"z": -3.3257504727,
				"element": "C" 
			},
			{
				"x": -0.6857930145,
				"y": -0.5526650572,
				"z": -1.1881268882,
				"element": "C" 
			},
			{
				"x": 0.6087149019,
				"y": -1.0538524056,
				"z": -1.4349804378,
				"element": "C" 
			},
			{
				"x": 0.9806425315,
				"y": -1.6043673264,
				"z": -2.612601429,
				"element": "O" 
			},
			{
				"x": 1.5912997567,
				"y": -0.9720687499,
				"z": -0.4378355556,
				"element": "C" 
			},
			{
				"x": 1.389698261,
				"y": -0.3983307672,
				"z": 0.8217976702,
				"element": "C" 
			},
			{
				"x": 2.4965536816,
				"y": -0.3796108448,
				"z": 1.8486081281,
				"element": "C" 
			},
			{
				"x": 0.0853097837,
				"y": 0.0928241215,
				"z": 1.032921109,
				"element": "C" 
			},
			{
				"x": -0.9159581242,
				"y": 0.0057114265,
				"z": 0.0625477287,
				"element": "C" 
			},
			{
				"x": -0.3048156955,
				"y": 0.7395110478,
				"z": 2.2933995447,
				"element": "N" 
			},
			{
				"x": -1.5097900314,
				"y": 0.8646531691,
				"z": 2.5206373179,
				"element": "O" 
			},
			{
				"x": 0.5835014822,
				"y": 1.1386896261,
				"z": 3.0474599343,
				"element": "O" 
			},
			{
				"x": 2.914449966,
				"y": -1.5400419246,
				"z": -0.7704957654,
				"element": "N" 
			},
			{
				"x": 2.9782008025,
				"y": -2.7549563777,
				"z": -0.9186201899,
				"element": "O" 
			},
			{
				"x": 3.8521780155,
				"y": -0.7522687604,
				"z": -0.8630173938,
				"element": "O" 
			},
			{
				"x": -3.4130199889,
				"y": 0.4263530541,
				"z": -1.3007450713,
				"element": "H" 
			},
			{
				"x": -3.8926709844,
				"y": -0.7034300287,
				"z": -2.5649696251,
				"element": "H" 
			},
			{
				"x": -3.3634737925,
				"y": -1.3187820797,
				"z": -0.9902481768,
				"element": "H" 
			},
			{
				"x": -1.6512557279,
				"y": -1.571942926,
				"z": -2.7944005157,
				"element": "H" 
			},
			{
				"x": -2.2291560231,
				"y": 0.4310273695,
				"z": -4.1491924211,
				"element": "H" 
			},
			{
				"x": -1.6405415307,
				"y": 1.4992247382,
				"z": -2.8628953149,
				"element": "H" 
			},
			{
				"x": -0.5033357637,
				"y": 0.4816860023,
				"z": -3.7485200383,
				"element": "H" 
			},
			{
				"x": 0.2230075383,
				"y": -1.6560087717,
				"z": -3.2094590323,
				"element": "H" 
			},
			{
				"x": 2.9033262976,
				"y": 0.6293685304,
				"z": 1.9537338292,
				"element": "H" 
			},
			{
				"x": 2.1188382974,
				"y": -0.6663843945,
				"z": 2.8302542356,
				"element": "H" 
			},
			{
				"x": 3.3091636241,
				"y": -1.0488342805,
				"z": 1.5685732438,
				"element": "H" 
			},
			{
				"x": -1.8904803529,
				"y": 0.3952744739,
				"z": 0.3236099905,
				"element": "H" 
			}
		],
		 "valence_orbital": [ 
			{
				"type": "occ",
				"energy": -0.31232,
				"method": "rhf"
			},
			{
				"type": "occ",
				"energy": -0.30682,
				"method": "rhf"
			},
			{
				"type": "occ",
				"energy": -0.29343,
				"method": "rhf"
			},
			{
				"type": "occ",
				"energy": -0.2748,
				"method": "rhf"
			},
			{
				"type": "occ",
				"energy": -0.26199,
				"method": "rhf"
			},
			{
				"type": "unocc",
				"energy": -0.09085,
				"method": "rhf"
			},
			{
				"type": "unocc",
				"energy": -0.08114,
				"method": "rhf"
			},
			{
				"type": "unocc",
				"energy": -0.0373,
				"method": "rhf"
			},
			{
				"type": "unocc",
				"energy": -0.00753,
				"method": "rhf"
			},
			{
				"type": "unocc",
				"energy": 0.02885,
				"method": "rhf"
			}
		],
		"cosmo_sigma_profile": { 
			"-0.025": 0.0,
			"-0.024": 0.0,
			"-0.023": 0.0,
			"-0.022": 0.0,
			"-0.021": 0.0,
			"-0.02": 0.0,
			"-0.019": 0.0132479027478,
			"-0.018": 0.728271362059,
			"-0.017": 0.831351023579,
			"-0.016": 0.907094313672,
			"-0.015": 0.812156708811,
			"-0.014": 0.864539589336,
			"-0.013": 0.945657886439,
			"-0.012": 1.39030007092,
			"-0.011": 0.591920464753,
			"-0.01": 1.15614854671,
			"-0.009": 1.27674413938,
			"-0.008": 1.36373759758,
			"-0.007": 5.16263619683,
			"-0.006": 8.48824299149,
			"-0.005": 11.1837328146,
			"-0.004": 21.5679635547,
			"-0.003": 28.5116218655,
			"-0.002": 29.2783136661,
			"-0.001": 28.688317722,
			"0.0": 24.8076055255,
			"0.001": 10.0016298056,
			"0.002": 5.99793653561,
			"0.003": 6.29312887555,
			"0.004": 6.76295761764,
			"0.005": 7.56439623332,
			"0.006": 11.0193844051,
			"0.007": 18.1876052493,
			"0.008": 15.6456817451,
			"0.009": 8.07304017654,
			"0.01": 3.30414411973,
			"0.011": 0.309336944825,
			"0.012": 0.0,
			"0.013": 0.0,
			"0.014": 0.0,
			"0.015": 0.0,
			"0.016": 0.0,
			"0.017": 0.0,
			"0.018": 0.0,
			"0.019": 0.0,
			"0.02": 0.0,
			"0.021": 0.0,
			"0.022": 0.0,
			"0.023": 0.0,
			"0.024": 0.0,
			"0.025": 0.0
		}
	}
}
