{
	 "smiles": "ClC1=NN=CS1", 
	 "Tm": 433.15, 
	 "num_atms": 7, 
	 "gaussian": { 
		 "optdone": 1, 
		 "sigma_profile": "yes", 
		 "theory": "DFT", 
		 "functional": "B3LYP", 
		 "basiset": "6-31G**", 
		 "properties": { 
			 "R2extent": 1368.3035, 
			 "electric_dipole_moment_norm": 3.15578051518, 
			 "electric_quadrupole_moment_norm": 8.05114606438, 
			 "total_energy": -1044.64466224, 
			 "HOMO_LUMO_gap": 0.22688, 
			 "cosmo_polarized_energy": -8.04, 
			 "cosmo_cavitation_energy": 15.18, 
			 "cosmo_dispersion_energy": -12.33, 
			 "cosmo_repulsion_energy": 1.0, 
			 "cosmo_total_nonelectrostatic_energy": 3.85, 
			 "SMD_solvation_energy": 0.9 
		},
		"coords": [
			{
				"x": -1.3185626789,
				"y": 0.7823779871,
				"z": 3.1938707794,
				"element": "Cl" 
			},
			{
				"x": -0.0947531357,
				"y": 0.2825086893,
				"z": 2.091707943,
				"element": "C" 
			},
			{
				"x": 1.0185652788,
				"y": -0.2645421961,
				"z": 2.4679407647,
				"element": "N" 
			},
			{
				"x": 1.826840631,
				"y": -0.5722803926,
				"z": 1.4044229859,
				"element": "N" 
			},
			{
				"x": 1.3018534452,
				"y": -0.2495933728,
				"z": 0.2592502432,
				"element": "C" 
			},
			{
				"x": -0.2773408817,
				"y": 0.4837192281,
				"z": 0.360089178,
				"element": "S" 
			},
			{
				"x": 1.7977973412,
				"y": -0.418689943,
				"z": -0.6885818942,
				"element": "H" 
			}
		],
		 "valence_orbital": [ 
			{
				"type": "occ",
				"energy": -0.3506,
				"method": "rhf"
			},
			{
				"type": "occ",
				"energy": -0.32687,
				"method": "rhf"
			},
			{
				"type": "occ",
				"energy": -0.31884,
				"method": "rhf"
			},
			{
				"type": "occ",
				"energy": -0.28725,
				"method": "rhf"
			},
			{
				"type": "occ",
				"energy": -0.28555,
				"method": "rhf"
			},
			{
				"type": "unocc",
				"energy": -0.05867,
				"method": "rhf"
			},
			{
				"type": "unocc",
				"energy": -0.02435,
				"method": "rhf"
			},
			{
				"type": "unocc",
				"energy": 0.00636,
				"method": "rhf"
			},
			{
				"type": "unocc",
				"energy": 0.00663,
				"method": "rhf"
			},
			{
				"type": "unocc",
				"energy": 0.08911,
				"method": "rhf"
			}
		],
		"cosmo_sigma_profile": { 
			"-0.025": 0.0,
			"-0.024": 0.0,
			"-0.023": 0.0,
			"-0.022": 0.0,
			"-0.021": 0.0,
			"-0.02": 0.0,
			"-0.019": 0.0,
			"-0.018": 0.0,
			"-0.017": 0.0,
			"-0.016": 0.0,
			"-0.015": 0.0,
			"-0.014": 0.0,
			"-0.013": 0.0074569438118,
			"-0.012": 1.79753655575,
			"-0.011": 2.56544893743,
			"-0.01": 1.74310470345,
			"-0.009": 2.18684394288,
			"-0.008": 1.44997024541,
			"-0.007": 1.77142103709,
			"-0.006": 2.49746484897,
			"-0.005": 5.36155447635,
			"-0.004": 10.5782212701,
			"-0.003": 13.0929011924,
			"-0.002": 12.7803096805,
			"-0.001": 10.9355739186,
			"0.0": 10.5098146701,
			"0.001": 10.0270573264,
			"0.002": 10.020699251,
			"0.003": 4.67052031022,
			"0.004": 2.67499724431,
			"0.005": 3.04208766158,
			"0.006": 2.64159289753,
			"0.007": 0.954751114727,
			"0.008": 2.86865503788,
			"0.009": 2.75534877714,
			"0.01": 3.25285426028,
			"0.011": 3.12356331217,
			"0.012": 2.32051233597,
			"0.013": 1.90918094461,
			"0.014": 0.548873602481,
			"0.015": 0.0,
			"0.016": 0.0,
			"0.017": 0.0,
			"0.018": 0.0,
			"0.019": 0.0,
			"0.02": 0.0,
			"0.021": 0.0,
			"0.022": 0.0,
			"0.023": 0.0,
			"0.024": 0.0,
			"0.025": 0.0
		}
	}
}
