{
	 "smiles": "FC(F)COC1=CC=C(C=C1)S(Cl)(=O)=O", 
	 "Tm": 316.15, 
	 "num_atms": 22, 
	 "gaussian": { 
		 "optdone": 1, 
		 "sigma_profile": "yes", 
		 "theory": "DFT", 
		 "functional": "B3LYP", 
		 "basiset": "6-31G**", 
		 "properties": { 
			 "R2extent": 6143.7, 
			 "electric_dipole_moment_norm": 7.29622504656, 
			 "electric_quadrupole_moment_norm": 15.551206641, 
			 "total_energy": -1592.71348163, 
			 "HOMO_LUMO_gap": 0.17603, 
			 "cosmo_polarized_energy": -14.13, 
			 "cosmo_cavitation_energy": 30.85, 
			 "cosmo_dispersion_energy": -22.76, 
			 "cosmo_repulsion_energy": 1.72, 
			 "cosmo_total_nonelectrostatic_energy": 9.8, 
			 "SMD_solvation_energy": 5.06 
		},
		"coords": [
			{
				"x": -1.2906952937,
				"y": -0.6192996291,
				"z": -4.3015852865,
				"element": "F" 
			},
			{
				"x": -2.0325794309,
				"y": -0.3571814938,
				"z": -3.1934013234,
				"element": "C" 
			},
			{
				"x": -1.9004953579,
				"y": 0.9747946439,
				"z": -2.9043255433,
				"element": "F" 
			},
			{
				"x": -1.5506367482,
				"y": -1.2119445475,
				"z": -2.0316529444,
				"element": "C" 
			},
			{
				"x": -0.1545507258,
				"y": -1.0933139522,
				"z": -1.8038322816,
				"element": "O" 
			},
			{
				"x": 0.335550976,
				"y": -0.232865042,
				"z": -0.8680751743,
				"element": "C" 
			},
			{
				"x": 1.6703012137,
				"y": -0.4688456617,
				"z": -0.496658776,
				"element": "C" 
			},
			{
				"x": 2.2803883203,
				"y": 0.3288150931,
				"z": 0.4585576686,
				"element": "C" 
			},
			{
				"x": 1.5438396259,
				"y": 1.3658834955,
				"z": 1.0416427484,
				"element": "C" 
			},
			{
				"x": 0.222339344,
				"y": 1.6195461721,
				"z": 0.6761537925,
				"element": "C" 
			},
			{
				"x": -0.3851245577,
				"y": 0.822540023,
				"z": -0.2906981237,
				"element": "C" 
			},
			{
				"x": 2.3148546104,
				"y": 2.3949556056,
				"z": 2.26604435,
				"element": "S" 
			},
			{
				"x": 1.8741322797,
				"y": 1.3269682925,
				"z": 4.0717568972,
				"element": "Cl" 
			},
			{
				"x": 3.7633914959,
				"y": 2.3325108674,
				"z": 2.1137714182,
				"element": "O" 
			},
			{
				"x": 1.5938138958,
				"y": 3.6580618021,
				"z": 2.3677063478,
				"element": "O" 
			},
			{
				"x": -3.089265913,
				"y": -0.5543572956,
				"z": -3.4188811167,
				"element": "H" 
			},
			{
				"x": -1.7227060867,
				"y": -2.2604411838,
				"z": -2.2932744748,
				"element": "H" 
			},
			{
				"x": -2.13299574,
				"y": -0.9784545414,
				"z": -1.133297559,
				"element": "H" 
			},
			{
				"x": 2.2038210424,
				"y": -1.2852027867,
				"z": -0.9706092276,
				"element": "H" 
			},
			{
				"x": 3.3103970566,
				"y": 0.1585177557,
				"z": 0.750715256,
				"element": "H" 
			},
			{
				"x": -0.3169894489,
				"y": 2.4458992574,
				"z": 1.1252915094,
				"element": "H" 
			},
			{
				"x": -1.3876905576,
				"y": 1.0577131256,
				"z": -0.6208481566,
				"element": "H" 
			}
		],
		 "valence_orbital": [ 
			{
				"type": "occ",
				"energy": -0.33115,
				"method": "rhf"
			},
			{
				"type": "occ",
				"energy": -0.32246,
				"method": "rhf"
			},
			{
				"type": "occ",
				"energy": -0.30769,
				"method": "rhf"
			},
			{
				"type": "occ",
				"energy": -0.2889,
				"method": "rhf"
			},
			{
				"type": "occ",
				"energy": -0.26097,
				"method": "rhf"
			},
			{
				"type": "unocc",
				"energy": -0.08494,
				"method": "rhf"
			},
			{
				"type": "unocc",
				"energy": -0.03801,
				"method": "rhf"
			},
			{
				"type": "unocc",
				"energy": -0.0336,
				"method": "rhf"
			},
			{
				"type": "unocc",
				"energy": 0.05469,
				"method": "rhf"
			},
			{
				"type": "unocc",
				"energy": 0.06377,
				"method": "rhf"
			}
		],
		"cosmo_sigma_profile": { 
			"-0.025": 0.0,
			"-0.024": 0.0,
			"-0.023": 0.0,
			"-0.022": 0.0,
			"-0.021": 0.0,
			"-0.02": 0.0,
			"-0.019": 0.0,
			"-0.018": 0.0,
			"-0.017": 0.0,
			"-0.016": 0.0,
			"-0.015": 0.0,
			"-0.014": 0.0,
			"-0.013": 0.0,
			"-0.012": 0.0,
			"-0.011": 0.401264238776,
			"-0.01": 4.66673051692,
			"-0.009": 8.69508304506,
			"-0.008": 10.8792600733,
			"-0.007": 12.640059465,
			"-0.006": 9.70758128233,
			"-0.005": 10.7980540289,
			"-0.004": 8.62373869796,
			"-0.003": 9.65798601487,
			"-0.002": 9.2017042387,
			"-0.001": 14.2801363568,
			"0.0": 19.3348512511,
			"0.001": 24.1328752018,
			"0.002": 18.0898771578,
			"0.003": 19.2268159287,
			"0.004": 29.7687356446,
			"0.005": 11.5439576572,
			"0.006": 4.84206026403,
			"0.007": 6.74580971045,
			"0.008": 10.7497546259,
			"0.009": 5.78698837718,
			"0.01": 0.261838976703,
			"0.011": 0.0,
			"0.012": 0.0,
			"0.013": 0.0,
			"0.014": 0.0,
			"0.015": 0.0,
			"0.016": 0.0,
			"0.017": 0.0,
			"0.018": 0.0,
			"0.019": 0.0,
			"0.02": 0.0,
			"0.021": 0.0,
			"0.022": 0.0,
			"0.023": 0.0,
			"0.024": 0.0,
			"0.025": 0.0
		}
	}
}
