{
	 "smiles": "C1CC1C1=NC2=C(N1)C=CC=C2", 
	 "Tm": 506.15, 
	 "num_atms": 22, 
	 "gaussian": { 
		 "optdone": 1, 
		 "sigma_profile": "yes", 
		 "theory": "DFT", 
		 "functional": "B3LYP", 
		 "basiset": "6-31G**", 
		 "properties": { 
			 "R2extent": 2382.7618, 
			 "electric_dipole_moment_norm": 3.37818796546, 
			 "electric_quadrupole_moment_norm": 7.82454920363, 
			 "total_energy": -496.582175749, 
			 "HOMO_LUMO_gap": 0.20161, 
			 "cosmo_polarized_energy": -12.5, 
			 "cosmo_cavitation_energy": 25.48, 
			 "cosmo_dispersion_energy": -19.14, 
			 "cosmo_repulsion_energy": 1.52, 
			 "cosmo_total_nonelectrostatic_energy": 7.86, 
			 "SMD_solvation_energy": 2.01 
		},
		"coords": [
			{
				"x": -0.7666654749,
				"y": -3.4669171117,
				"z": -0.850784819,
				"element": "C" 
			},
			{
				"x": -1.1871836492,
				"y": -3.5288721439,
				"z": 0.5846557803,
				"element": "C" 
			},
			{
				"x": -0.044296861,
				"y": -2.6134382693,
				"z": 0.1784071008,
				"element": "C" 
			},
			{
				"x": -0.2681882277,
				"y": -1.1555634954,
				"z": 0.1758849126,
				"element": "C" 
			},
			{
				"x": -1.3971299385,
				"y": -0.5568802358,
				"z": -0.1287524695,
				"element": "N" 
			},
			{
				"x": -1.1395772956,
				"y": 0.8003303897,
				"z": 0.0053955533,
				"element": "C" 
			},
			{
				"x": 0.2025723552,
				"y": 1.0112735167,
				"z": 0.407493928,
				"element": "C" 
			},
			{
				"x": 0.7342813128,
				"y": -0.2649839535,
				"z": 0.5078063464,
				"element": "N" 
			},
			{
				"x": 0.734769231,
				"y": 2.2831642171,
				"z": 0.618547028,
				"element": "C" 
			},
			{
				"x": -0.1224075949,
				"y": 3.3636516017,
				"z": 0.4143987357,
				"element": "C" 
			},
			{
				"x": -1.4596153887,
				"y": 3.1744606873,
				"z": 0.0146124166,
				"element": "C" 
			},
			{
				"x": -1.9822341692,
				"y": 1.9007553895,
				"z": -0.1936384842,
				"element": "C" 
			},
			{
				"x": -1.410893939,
				"y": -2.9317865322,
				"z": -1.540244551,
				"element": "H" 
			},
			{
				"x": -0.2229596068,
				"y": -4.3060656714,
				"z": -1.2740501154,
				"element": "H" 
			},
			{
				"x": -0.9385356253,
				"y": -4.4114614217,
				"z": 1.1661535712,
				"element": "H" 
			},
			{
				"x": -2.1134130619,
				"y": -3.0348148251,
				"z": 0.8581391987,
				"element": "H" 
			},
			{
				"x": 0.9591840553,
				"y": -2.9229548121,
				"z": 0.4588588089,
				"element": "H" 
			},
			{
				"x": 1.6760314023,
				"y": -0.5060658989,
				"z": 0.7737907412,
				"element": "H" 
			},
			{
				"x": 1.7656273618,
				"y": 2.431705001,
				"z": 0.9267782129,
				"element": "H" 
			},
			{
				"x": 0.2499554334,
				"y": 4.3723323119,
				"z": 0.5671934833,
				"element": "H" 
			},
			{
				"x": -2.0939850403,
				"y": 4.0435379315,
				"z": -0.1334658532,
				"element": "H" 
			},
			{
				"x": -3.0120352789,
				"y": 1.7507933247,
				"z": -0.5016795258,
				"element": "H" 
			}
		],
		 "valence_orbital": [ 
			{
				"type": "occ",
				"energy": -0.30706,
				"method": "rhf"
			},
			{
				"type": "occ",
				"energy": -0.29,
				"method": "rhf"
			},
			{
				"type": "occ",
				"energy": -0.26456,
				"method": "rhf"
			},
			{
				"type": "occ",
				"energy": -0.22056,
				"method": "rhf"
			},
			{
				"type": "occ",
				"energy": -0.2093,
				"method": "rhf"
			},
			{
				"type": "unocc",
				"energy": -0.00769,
				"method": "rhf"
			},
			{
				"type": "unocc",
				"energy": 0.02923,
				"method": "rhf"
			},
			{
				"type": "unocc",
				"energy": 0.0563,
				"method": "rhf"
			},
			{
				"type": "unocc",
				"energy": 0.0713,
				"method": "rhf"
			},
			{
				"type": "unocc",
				"energy": 0.09691,
				"method": "rhf"
			}
		],
		"cosmo_sigma_profile": { 
			"-0.025": 0.0,
			"-0.024": 0.0,
			"-0.023": 0.0,
			"-0.022": 0.0,
			"-0.021": 0.0,
			"-0.02": 0.0,
			"-0.019": 0.0,
			"-0.018": 0.0,
			"-0.017": 0.0135687199185,
			"-0.016": 1.25711716277,
			"-0.015": 1.39914638346,
			"-0.014": 1.59566994789,
			"-0.013": 1.30628807075,
			"-0.012": 1.32823823905,
			"-0.011": 1.38857267184,
			"-0.01": 1.58810807149,
			"-0.009": 0.990970068844,
			"-0.008": 1.93895835675,
			"-0.007": 2.31734040474,
			"-0.006": 6.21083511588,
			"-0.005": 14.144925133,
			"-0.004": 16.1012142684,
			"-0.003": 15.1093319174,
			"-0.002": 14.1629187918,
			"-0.001": 13.623749067,
			"0.0": 11.9881185853,
			"0.001": 13.4191018639,
			"0.002": 16.4239551854,
			"0.003": 15.4022327324,
			"0.004": 11.7522562862,
			"0.005": 12.4014698212,
			"0.006": 11.1258872677,
			"0.007": 6.23062973706,
			"0.008": 1.07815329989,
			"0.009": 1.24650999596,
			"0.01": 2.0014322558,
			"0.011": 1.4497186043,
			"0.012": 0.994247018994,
			"0.013": 0.666629171899,
			"0.014": 0.59406861438,
			"0.015": 0.907192868939,
			"0.016": 0.683020916515,
			"0.017": 0.340220736055,
			"0.018": 0.0,
			"0.019": 0.0,
			"0.02": 0.0,
			"0.021": 0.0,
			"0.022": 0.0,
			"0.023": 0.0,
			"0.024": 0.0,
			"0.025": 0.0
		}
	}
}
