{
	 "smiles": "OC(=O)CCC(=O)NCC(=O)C1=CC=CC=C1", 
	 "Tm": 417.15, 
	 "num_atms": 30, 
	 "gaussian": { 
		 "optdone": 1, 
		 "sigma_profile": "yes", 
		 "theory": "DFT", 
		 "functional": "B3LYP", 
		 "basiset": "6-31G**", 
		 "properties": { 
			 "R2extent": 6678.3741, 
			 "electric_dipole_moment_norm": 8.11989170617, 
			 "electric_quadrupole_moment_norm": 14.3871980556, 
			 "total_energy": -820.787674543, 
			 "HOMO_LUMO_gap": 0.17405, 
			 "cosmo_polarized_energy": -24.8, 
			 "cosmo_cavitation_energy": 35.01, 
			 "cosmo_dispersion_energy": -24.71, 
			 "cosmo_repulsion_energy": 1.95, 
			 "cosmo_total_nonelectrostatic_energy": 12.25, 
			 "SMD_solvation_energy": 7.25 
		},
		"coords": [
			{
				"x": 0.1229802375,
				"y": -3.5767007918,
				"z": -2.8996338008,
				"element": "O" 
			},
			{
				"x": -0.06007358,
				"y": -4.1077410136,
				"z": -1.6620882217,
				"element": "C" 
			},
			{
				"x": 0.0271243034,
				"y": -5.2950603235,
				"z": -1.4497048571,
				"element": "O" 
			},
			{
				"x": -0.4546622586,
				"y": -3.0670743531,
				"z": -0.6336196309,
				"element": "C" 
			},
			{
				"x": 0.0281114527,
				"y": -1.6442872627,
				"z": -0.9161932949,
				"element": "C" 
			},
			{
				"x": 1.5518382987,
				"y": -1.5654738553,
				"z": -0.9100743075,
				"element": "C" 
			},
			{
				"x": 2.2515015619,
				"y": -2.5345019839,
				"z": -0.6494924949,
				"element": "O" 
			},
			{
				"x": 2.121918603,
				"y": -0.3606686101,
				"z": -1.2550209526,
				"element": "N" 
			},
			{
				"x": 1.4590831003,
				"y": 0.9170935074,
				"z": -1.3435110005,
				"element": "C" 
			},
			{
				"x": 1.1027776906,
				"y": 1.543592049,
				"z": 0.0216626592,
				"element": "C" 
			},
			{
				"x": 1.2431935087,
				"y": 0.8938258484,
				"z": 1.0442124441,
				"element": "O" 
			},
			{
				"x": 0.5695023422,
				"y": 2.9403498476,
				"z": 0.048744125,
				"element": "C" 
			},
			{
				"x": 0.2704564057,
				"y": 3.5041629662,
				"z": 1.3002185833,
				"element": "C" 
			},
			{
				"x": -0.230827528,
				"y": 4.7986927388,
				"z": 1.3886784107,
				"element": "C" 
			},
			{
				"x": -0.4436938612,
				"y": 5.5465165416,
				"z": 0.2263246907,
				"element": "C" 
			},
			{
				"x": -0.1528808669,
				"y": 4.9951993045,
				"z": -1.0230636558,
				"element": "C" 
			},
			{
				"x": 0.3530938149,
				"y": 3.6987745318,
				"z": -1.1133477528,
				"element": "C" 
			},
			{
				"x": 0.3649727195,
				"y": -4.3243954959,
				"z": -3.4710979903,
				"element": "H" 
			},
			{
				"x": -0.0793675213,
				"y": -3.4244182381,
				"z": 0.3265486709,
				"element": "H" 
			},
			{
				"x": -1.5507182456,
				"y": -3.0759577205,
				"z": -0.5792037383,
				"element": "H" 
			},
			{
				"x": -0.3606507294,
				"y": -0.9671757353,
				"z": -0.1474258258,
				"element": "H" 
			},
			{
				"x": -0.3551204344,
				"y": -1.2954017443,
				"z": -1.8813999836,
				"element": "H" 
			},
			{
				"x": 3.1208886032,
				"y": -0.3523672521,
				"z": -1.0935221301,
				"element": "H" 
			},
			{
				"x": 2.1043426572,
				"y": 1.6046934419,
				"z": -1.9006646859,
				"element": "H" 
			},
			{
				"x": 0.538367465,
				"y": 0.8287784644,
				"z": -1.9328303066,
				"element": "H" 
			},
			{
				"x": 0.4420306248,
				"y": 2.903103641,
				"z": 2.1868785859,
				"element": "H" 
			},
			{
				"x": -0.4572016378,
				"y": 5.2274526875,
				"z": 2.3603895143,
				"element": "H" 
			},
			{
				"x": -0.8358019878,
				"y": 6.5571851869,
				"z": 0.2945181506,
				"element": "H" 
			},
			{
				"x": -0.3191838183,
				"y": 5.5744199006,
				"z": -1.9263374933,
				"element": "H" 
			},
			{
				"x": 0.5718990801,
				"y": 3.2870837225,
				"z": -2.093343711,
				"element": "H" 
			}
		],
		 "valence_orbital": [ 
			{
				"type": "occ",
				"energy": -0.27553,
				"method": "rhf"
			},
			{
				"type": "occ",
				"energy": -0.272,
				"method": "rhf"
			},
			{
				"type": "occ",
				"energy": -0.26043,
				"method": "rhf"
			},
			{
				"type": "occ",
				"energy": -0.25095,
				"method": "rhf"
			},
			{
				"type": "occ",
				"energy": -0.24602,
				"method": "rhf"
			},
			{
				"type": "unocc",
				"energy": -0.07197,
				"method": "rhf"
			},
			{
				"type": "unocc",
				"energy": -0.0233,
				"method": "rhf"
			},
			{
				"type": "unocc",
				"energy": 0.02353,
				"method": "rhf"
			},
			{
				"type": "unocc",
				"energy": 0.02517,
				"method": "rhf"
			},
			{
				"type": "unocc",
				"energy": 0.02925,
				"method": "rhf"
			}
		],
		"cosmo_sigma_profile": { 
			"-0.025": 0.0,
			"-0.024": 0.0,
			"-0.023": 0.0,
			"-0.022": 0.0,
			"-0.021": 0.0,
			"-0.02": 0.0,
			"-0.019": 0.0,
			"-0.018": 0.481198595187,
			"-0.017": 0.898332289652,
			"-0.016": 1.06681361347,
			"-0.015": 0.46736749564,
			"-0.014": 1.41605154311,
			"-0.013": 1.56429758596,
			"-0.012": 2.72300057713,
			"-0.011": 2.04201024252,
			"-0.01": 1.26542342966,
			"-0.009": 2.29965641218,
			"-0.008": 11.8785162646,
			"-0.007": 12.0032275162,
			"-0.006": 19.6673680313,
			"-0.005": 21.1502033564,
			"-0.004": 20.7373405993,
			"-0.003": 15.6326892296,
			"-0.002": 14.6393463978,
			"-0.001": 11.8375082723,
			"0.0": 11.1204363837,
			"0.001": 12.0032709534,
			"0.002": 15.6438693056,
			"0.003": 17.2832262475,
			"0.004": 15.9731471805,
			"0.005": 6.47328768224,
			"0.006": 7.30740821339,
			"0.007": 7.1771648005,
			"0.008": 5.57289378747,
			"0.009": 5.37679273761,
			"0.01": 6.36176300612,
			"0.011": 8.30261286114,
			"0.012": 8.55000838478,
			"0.013": 6.09307030597,
			"0.014": 2.26378033495,
			"0.015": 0.0642576832181,
			"0.016": 0.0,
			"0.017": 0.0,
			"0.018": 0.0,
			"0.019": 0.0,
			"0.02": 0.0,
			"0.021": 0.0,
			"0.022": 0.0,
			"0.023": 0.0,
			"0.024": 0.0,
			"0.025": 0.0
		}
	}
}
