{
	 "smiles": "CC(C)CCCC(C)C1CCC2C3CC(OC(C)=O)C4(O)CC(O)CCC4(C)C3CCC12C", 
	 "Tm": 414.15, 
	 "num_atms": 83, 
	 "gaussian": { 
		 "optdone": 1, 
		 "sigma_profile": "yes", 
		 "theory": "DFT", 
		 "functional": "B3LYP", 
		 "basiset": "6-31G**", 
		 "properties": { 
			 "R2extent": 22635.6609, 
			 "electric_dipole_moment_norm": 2.2893048945, 
			 "electric_quadrupole_moment_norm": 18.3205797062, 
			 "total_energy": -1436.13975485, 
			 "HOMO_LUMO_gap": 0.2599, 
			 "cosmo_polarized_energy": -16.88, 
			 "cosmo_cavitation_energy": 69.64, 
			 "cosmo_dispersion_energy": -45.78, 
			 "cosmo_repulsion_energy": 3.36, 
			 "cosmo_total_nonelectrostatic_energy": 27.22, 
			 "SMD_solvation_energy": 10.51 
		},
		"coords": [
			{
				"x": -0.9124108399,
				"y": 2.5265351236,
				"z": -6.0310639052,
				"element": "C" 
			},
			{
				"x": 0.2286335039,
				"y": 1.9371956492,
				"z": -6.874071618,
				"element": "C" 
			},
			{
				"x": 0.7036781988,
				"y": 2.9399096509,
				"z": -7.9377050606,
				"element": "C" 
			},
			{
				"x": 1.3980603593,
				"y": 1.3959335449,
				"z": -6.016370403,
				"element": "C" 
			},
			{
				"x": 2.0956477106,
				"y": 2.4200383737,
				"z": -5.0846535877,
				"element": "C" 
			},
			{
				"x": 1.7299931707,
				"y": 2.3118012138,
				"z": -3.5891980618,
				"element": "C" 
			},
			{
				"x": 2.2877423024,
				"y": 1.0698924417,
				"z": -2.852402806,
				"element": "C" 
			},
			{
				"x": 3.8234419483,
				"y": 1.150171814,
				"z": -2.741141656,
				"element": "C" 
			},
			{
				"x": 1.6794048839,
				"y": 0.8379308527,
				"z": -1.4379437265,
				"element": "C" 
			},
			{
				"x": 1.4146648288,
				"y": 2.0824653874,
				"z": -0.5691626065,
				"element": "C" 
			},
			{
				"x": 0.6960002339,
				"y": 1.4888902042,
				"z": 0.6486796481,
				"element": "C" 
			},
			{
				"x": -0.3144493447,
				"y": 0.509525574,
				"z": 0.0114421816,
				"element": "C" 
			},
			{
				"x": -0.9364397712,
				"y": -0.6025128235,
				"z": 0.8855082562,
				"element": "C" 
			},
			{
				"x": -1.6581834297,
				"y": -0.0421332465,
				"z": 2.1246644774,
				"element": "C" 
			},
			{
				"x": -2.1237222925,
				"y": -1.2335634613,
				"z": 2.9518744591,
				"element": "C" 
			},
			{
				"x": -3.1474390105,
				"y": -0.981387547,
				"z": 3.9621989628,
				"element": "O" 
			},
			{
				"x": -3.2999265116,
				"y": 0.2046093436,
				"z": 4.6100997662,
				"element": "C" 
			},
			{
				"x": -4.5226741947,
				"y": 0.1338956473,
				"z": 5.5018729542,
				"element": "C" 
			},
			{
				"x": -2.5907296954,
				"y": 1.1757559494,
				"z": 4.4932770451,
				"element": "O" 
			},
			{
				"x": -0.9626920962,
				"y": -2.0409946747,
				"z": 3.6199619709,
				"element": "C" 
			},
			{
				"x": -0.6488650782,
				"y": -1.4616426746,
				"z": 4.8892099358,
				"element": "O" 
			},
			{
				"x": -1.4366080482,
				"y": -3.4928420862,
				"z": 3.8380477435,
				"element": "C" 
			},
			{
				"x": -0.4465136866,
				"y": -4.3310809526,
				"z": 4.6674937815,
				"element": "C" 
			},
			{
				"x": -0.7173923474,
				"y": -5.7260862243,
				"z": 4.512099986,
				"element": "O" 
			},
			{
				"x": 1.0092806645,
				"y": -3.9584351779,
				"z": 4.3143716543,
				"element": "C" 
			},
			{
				"x": 1.1133978494,
				"y": -3.3693082008,
				"z": 2.90311934,
				"element": "C" 
			},
			{
				"x": 0.3682935284,
				"y": -2.0026672787,
				"z": 2.7496639877,
				"element": "C" 
			},
			{
				"x": 1.322376091,
				"y": -0.9030812235,
				"z": 3.2688934546,
				"element": "C" 
			},
			{
				"x": -0.0125053682,
				"y": -1.8265644392,
				"z": 1.2369720939,
				"element": "C" 
			},
			{
				"x": 1.1804307404,
				"y": -1.9109450552,
				"z": 0.2599834824,
				"element": "C" 
			},
			{
				"x": 0.7488810663,
				"y": -1.5315829056,
				"z": -1.163078974,
				"element": "C" 
			},
			{
				"x": 0.3691815285,
				"y": -0.0329626538,
				"z": -1.3055148729,
				"element": "C" 
			},
			{
				"x": -0.6119705808,
				"y": 0.1095332836,
				"z": -2.4815162977,
				"element": "C" 
			},
			{
				"x": -0.5874977415,
				"y": 3.4152097146,
				"z": -5.4778221166,
				"element": "H" 
			},
			{
				"x": -1.2905825835,
				"y": 1.7994831054,
				"z": -5.3041651466,
				"element": "H" 
			},
			{
				"x": -1.7513789921,
				"y": 2.8291342499,
				"z": -6.6675563461,
				"element": "H" 
			},
			{
				"x": -0.1801042414,
				"y": 1.0691005821,
				"z": -7.4118491119,
				"element": "H" 
			},
			{
				"x": -0.125414302,
				"y": 3.2453015719,
				"z": -8.5855454872,
				"element": "H" 
			},
			{
				"x": 1.1136905503,
				"y": 3.8497355291,
				"z": -7.484571998,
				"element": "H" 
			},
			{
				"x": 1.4830831189,
				"y": 2.5055479058,
				"z": -8.5737419611,
				"element": "H" 
			},
			{
				"x": 2.1371345944,
				"y": 0.9641465257,
				"z": -6.7030459108,
				"element": "H" 
			},
			{
				"x": 1.025369609,
				"y": 0.5532673587,
				"z": -5.420158752,
				"element": "H" 
			},
			{
				"x": 1.8592897185,
				"y": 3.438262881,
				"z": -5.4167275018,
				"element": "H" 
			},
			{
				"x": 3.1818867226,
				"y": 2.3331441874,
				"z": -5.1968888622,
				"element": "H" 
			},
			{
				"x": 0.6403546316,
				"y": 2.3451736763,
				"z": -3.4947193056,
				"element": "H" 
			},
			{
				"x": 2.1027222096,
				"y": 3.2089762742,
				"z": -3.076990613,
				"element": "H" 
			},
			{
				"x": 2.0577513895,
				"y": 0.1800589191,
				"z": -3.4560957844,
				"element": "H" 
			},
			{
				"x": 4.3022281019,
				"y": 1.284550664,
				"z": -3.7155501843,
				"element": "H" 
			},
			{
				"x": 4.2337071577,
				"y": 0.2357257236,
				"z": -2.299394691,
				"element": "H" 
			},
			{
				"x": 4.1278924906,
				"y": 1.9907255442,
				"z": -2.1059020955,
				"element": "H" 
			},
			{
				"x": 2.4440104369,
				"y": 0.2699194791,
				"z": -0.8898987627,
				"element": "H" 
			},
			{
				"x": 0.753991996,
				"y": 2.7911152792,
				"z": -1.083824945,
				"element": "H" 
			},
			{
				"x": 2.3300799913,
				"y": 2.6238615121,
				"z": -0.3067132447,
				"element": "H" 
			},
			{
				"x": 1.420438494,
				"y": 0.9667394345,
				"z": 1.2809892544,
				"element": "H" 
			},
			{
				"x": 0.2077279487,
				"y": 2.2440879475,
				"z": 1.272955011,
				"element": "H" 
			},
			{
				"x": -1.1641046559,
				"y": 1.1305352863,
				"z": -0.3069932223,
				"element": "H" 
			},
			{
				"x": -1.7285956953,
				"y": -1.028379676,
				"z": 0.2514647487,
				"element": "H" 
			},
			{
				"x": -1.0234551562,
				"y": 0.6142055647,
				"z": 2.7164344073,
				"element": "H" 
			},
			{
				"x": -2.518771104,
				"y": 0.5577528683,
				"z": 1.8098280107,
				"element": "H" 
			},
			{
				"x": -2.6527447944,
				"y": -1.9143559036,
				"z": 2.274779677,
				"element": "H" 
			},
			{
				"x": -4.5710595931,
				"y": 1.0310886468,
				"z": 6.1182515453,
				"element": "H" 
			},
			{
				"x": -4.4943036193,
				"y": -0.7584619779,
				"z": 6.1331129328,
				"element": "H" 
			},
			{
				"x": -5.4236442625,
				"y": 0.064521057,
				"z": 4.8841444865,
				"element": "H" 
			},
			{
				"x": -1.4554080593,
				"y": -1.498670106,
				"z": 5.4201525895,
				"element": "H" 
			},
			{
				"x": -1.5697704107,
				"y": -3.9733318062,
				"z": 2.85874999,
				"element": "H" 
			},
			{
				"x": -2.4254799766,
				"y": -3.4959424398,
				"z": 4.3109715618,
				"element": "H" 
			},
			{
				"x": -0.6135507603,
				"y": -4.1483017648,
				"z": 5.7324531781,
				"element": "H" 
			},
			{
				"x": -0.5717548212,
				"y": -5.9508375515,
				"z": 3.5829590415,
				"element": "H" 
			},
			{
				"x": 1.6279274583,
				"y": -4.8573378564,
				"z": 4.4126731487,
				"element": "H" 
			},
			{
				"x": 1.3821252369,
				"y": -3.2319732051,
				"z": 5.0426940053,
				"element": "H" 
			},
			{
				"x": 0.7108417353,
				"y": -4.0948503983,
				"z": 2.1815455327,
				"element": "H" 
			},
			{
				"x": 2.1651990654,
				"y": -3.2344827323,
				"z": 2.6301082595,
				"element": "H" 
			},
			{
				"x": 2.1997054903,
				"y": -0.830511039,
				"z": 2.6199641176,
				"element": "H" 
			},
			{
				"x": 1.6741457122,
				"y": -1.1434297008,
				"z": 4.2733847249,
				"element": "H" 
			},
			{
				"x": 0.8559726264,
				"y": 0.0793716244,
				"z": 3.32861361,
				"element": "H" 
			},
			{
				"x": -0.6232158457,
				"y": -2.7142103512,
				"z": 1.0116789008,
				"element": "H" 
			},
			{
				"x": 1.5945198134,
				"y": -2.9245622112,
				"z": 0.2619412267,
				"element": "H" 
			},
			{
				"x": 1.9949003018,
				"y": -1.2515693998,
				"z": 0.5791539715,
				"element": "H" 
			},
			{
				"x": -0.1052054404,
				"y": -2.1611145671,
				"z": -1.4500592646,
				"element": "H" 
			},
			{
				"x": 1.5478457421,
				"y": -1.7690576214,
				"z": -1.8775108227,
				"element": "H" 
			},
			{
				"x": -1.5301369047,
				"y": -0.4520218562,
				"z": -2.2700508897,
				"element": "H" 
			},
			{
				"x": -0.1984930505,
				"y": -0.2876934767,
				"z": -3.4148594765,
				"element": "H" 
			},
			{
				"x": -0.9018566462,
				"y": 1.1502590997,
				"z": -2.6536790415,
				"element": "H" 
			}
		],
		 "valence_orbital": [ 
			{
				"type": "occ",
				"energy": -0.27827,
				"method": "rhf"
			},
			{
				"type": "occ",
				"energy": -0.27262,
				"method": "rhf"
			},
			{
				"type": "occ",
				"energy": -0.26695,
				"method": "rhf"
			},
			{
				"type": "occ",
				"energy": -0.2625,
				"method": "rhf"
			},
			{
				"type": "occ",
				"energy": -0.25024,
				"method": "rhf"
			},
			{
				"type": "unocc",
				"energy": 0.00966,
				"method": "rhf"
			},
			{
				"type": "unocc",
				"energy": 0.05237,
				"method": "rhf"
			},
			{
				"type": "unocc",
				"energy": 0.06672,
				"method": "rhf"
			},
			{
				"type": "unocc",
				"energy": 0.07146,
				"method": "rhf"
			},
			{
				"type": "unocc",
				"energy": 0.07622,
				"method": "rhf"
			}
		],
		"cosmo_sigma_profile": { 
			"-0.025": 0.0,
			"-0.024": 0.0,
			"-0.023": 0.0,
			"-0.022": 0.0,
			"-0.021": 0.0,
			"-0.02": 0.0,
			"-0.019": 0.0,
			"-0.018": 0.0,
			"-0.017": 0.0,
			"-0.016": 0.0,
			"-0.015": 0.0511682443221,
			"-0.014": 0.95790538092,
			"-0.013": 1.15564693094,
			"-0.012": 2.17364036437,
			"-0.011": 1.9034554958,
			"-0.01": 2.48812767876,
			"-0.009": 2.13009508483,
			"-0.008": 2.08196018023,
			"-0.007": 3.06286589029,
			"-0.006": 7.68414870709,
			"-0.005": 12.520229812,
			"-0.004": 15.0777261902,
			"-0.003": 29.1336160994,
			"-0.002": 76.0947580934,
			"-0.001": 100.293529846,
			"0.0": 93.4461000408,
			"0.001": 71.3635538309,
			"0.002": 48.2194773085,
			"0.003": 8.55071177565,
			"0.004": 5.35656315161,
			"0.005": 4.40634682489,
			"0.006": 4.9380987329,
			"0.007": 5.09202246521,
			"0.008": 4.77009580548,
			"0.009": 4.2865755002,
			"0.01": 5.09785042603,
			"0.011": 6.48800783284,
			"0.012": 5.15262523701,
			"0.013": 3.36180165336,
			"0.014": 2.15845986662,
			"0.015": 1.88016339214,
			"0.016": 0.034704031022,
			"0.017": 0.0,
			"0.018": 0.0,
			"0.019": 0.0,
			"0.02": 0.0,
			"0.021": 0.0,
			"0.022": 0.0,
			"0.023": 0.0,
			"0.024": 0.0,
			"0.025": 0.0
		}
	}
}
