{
	 "smiles": "CC1=CC=C(C=C1)C1=C(C#N)C(=O)N2C3=CC=CC=C3SC2=C1C(N)=O", 
	 "Tm": 472.15, 
	 "num_atms": 39, 
	 "gaussian": { 
		 "optdone": 1, 
		 "sigma_profile": "yes", 
		 "theory": "DFT", 
		 "functional": "B3LYP", 
		 "basiset": "6-31G**", 
		 "properties": { 
			 "R2extent": 10630.3656, 
			 "electric_dipole_moment_norm": 4.96871154325, 
			 "electric_quadrupole_moment_norm": 44.9326300206, 
			 "total_energy": -1482.87880482, 
			 "HOMO_LUMO_gap": 0.14426, 
			 "cosmo_polarized_energy": -22.08, 
			 "cosmo_cavitation_energy": 45.18, 
			 "cosmo_dispersion_energy": -32.01, 
			 "cosmo_repulsion_energy": 2.34, 
			 "cosmo_total_nonelectrostatic_energy": 15.5, 
			 "SMD_solvation_energy": 9.25 
		},
		"coords": [
			{
				"x": 6.4139851556,
				"y": 1.2566223739,
				"z": -1.4321840288,
				"element": "C" 
			},
			{
				"x": 4.9487239229,
				"y": 0.9620024955,
				"z": -1.2193874963,
				"element": "C" 
			},
			{
				"x": 4.5382686397,
				"y": -0.1453462677,
				"z": -0.4630832361,
				"element": "C" 
			},
			{
				"x": 3.1889072278,
				"y": -0.4057116244,
				"z": -0.2376840111,
				"element": "C" 
			},
			{
				"x": 2.2037939909,
				"y": 0.4454817942,
				"z": -0.7619027971,
				"element": "C" 
			},
			{
				"x": 2.6055815189,
				"y": 1.558380099,
				"z": -1.5144701011,
				"element": "C" 
			},
			{
				"x": 3.9593641424,
				"y": 1.8025462464,
				"z": -1.7455468688,
				"element": "C" 
			},
			{
				"x": 0.7573430618,
				"y": 0.1884232388,
				"z": -0.4797672223,
				"element": "C" 
			},
			{
				"x": 0.1204437123,
				"y": 1.0312321055,
				"z": 0.4267953653,
				"element": "C" 
			},
			{
				"x": 0.8085736682,
				"y": 2.1196528101,
				"z": 1.0472729538,
				"element": "C" 
			},
			{
				"x": 1.3662484588,
				"y": 3.0072731101,
				"z": 1.5525539151,
				"element": "N" 
			},
			{
				"x": -1.261347842,
				"y": 0.8646822513,
				"z": 0.8381400283,
				"element": "C" 
			},
			{
				"x": -1.8622767103,
				"y": 1.5993468589,
				"z": 1.6070412899,
				"element": "O" 
			},
			{
				"x": -1.8988452474,
				"y": -0.2912662878,
				"z": 0.2739973166,
				"element": "N" 
			},
			{
				"x": -3.2350260402,
				"y": -0.6648955507,
				"z": 0.5790080634,
				"element": "C" 
			},
			{
				"x": -4.1406942505,
				"y": -0.0329050586,
				"z": 1.4416011032,
				"element": "C" 
			},
			{
				"x": -5.4083874564,
				"y": -0.5945728784,
				"z": 1.5803900226,
				"element": "C" 
			},
			{
				"x": -5.7779173414,
				"y": -1.753415671,
				"z": 0.885422117,
				"element": "C" 
			},
			{
				"x": -4.8759387289,
				"y": -2.3791685708,
				"z": 0.0291428703,
				"element": "C" 
			},
			{
				"x": -3.6041963742,
				"y": -1.8237459385,
				"z": -0.1166610976,
				"element": "C" 
			},
			{
				"x": -2.3009710188,
				"y": -2.4464169628,
				"z": -1.1299284223,
				"element": "S" 
			},
			{
				"x": -1.2695761163,
				"y": -1.1242859118,
				"z": -0.62322981,
				"element": "C" 
			},
			{
				"x": 0.0439192793,
				"y": -0.903268003,
				"z": -1.0582160876,
				"element": "C" 
			},
			{
				"x": 0.5233816537,
				"y": -1.8307167559,
				"z": -2.1272533854,
				"element": "C" 
			},
			{
				"x": 1.6430115468,
				"y": -1.534334349,
				"z": -2.8348144783,
				"element": "N" 
			},
			{
				"x": -0.1335571507,
				"y": -2.8435230504,
				"z": -2.3979118407,
				"element": "O" 
			},
			{
				"x": 7.0078017025,
				"y": 0.3382787441,
				"z": -1.4639807145,
				"element": "H" 
			},
			{
				"x": 6.8099087676,
				"y": 1.8724906471,
				"z": -0.6153833653,
				"element": "H" 
			},
			{
				"x": 6.5819374783,
				"y": 1.8047036508,
				"z": -2.3637498515,
				"element": "H" 
			},
			{
				"x": 5.2859688473,
				"y": -0.813254855,
				"z": -0.043268434,
				"element": "H" 
			},
			{
				"x": 2.8936996368,
				"y": -1.2711787891,
				"z": 0.3479681977,
				"element": "H" 
			},
			{
				"x": 1.8569735761,
				"y": 2.2325804598,
				"z": -1.9194248316,
				"element": "H" 
			},
			{
				"x": 4.2496011245,
				"y": 2.6676747487,
				"z": -2.3357579772,
				"element": "H" 
			},
			{
				"x": -3.8523331352,
				"y": 0.8603657929,
				"z": 1.9733633211,
				"element": "H" 
			},
			{
				"x": -6.1214483179,
				"y": -0.1164158179,
				"z": 2.2445639774,
				"element": "H" 
			},
			{
				"x": -6.7730861679,
				"y": -2.1679863613,
				"z": 1.0134276708,
				"element": "H" 
			},
			{
				"x": -5.1508123263,
				"y": -3.2778116364,
				"z": -0.5140960026,
				"element": "H" 
			},
			{
				"x": 2.2214883911,
				"y": -0.7306514274,
				"z": -2.6553375289,
				"element": "H" 
			},
			{
				"x": 1.904288721,
				"y": -2.1952656598,
				"z": -3.5500486234,
				"element": "H" 
			}
		],
		 "valence_orbital": [ 
			{
				"type": "occ",
				"energy": -0.26795,
				"method": "rhf"
			},
			{
				"type": "occ",
				"energy": -0.26691,
				"method": "rhf"
			},
			{
				"type": "occ",
				"energy": -0.25599,
				"method": "rhf"
			},
			{
				"type": "occ",
				"energy": -0.25437,
				"method": "rhf"
			},
			{
				"type": "occ",
				"energy": -0.22028,
				"method": "rhf"
			},
			{
				"type": "unocc",
				"energy": -0.07602,
				"method": "rhf"
			},
			{
				"type": "unocc",
				"energy": -0.04382,
				"method": "rhf"
			},
			{
				"type": "unocc",
				"energy": -0.0238,
				"method": "rhf"
			},
			{
				"type": "unocc",
				"energy": -0.02142,
				"method": "rhf"
			},
			{
				"type": "unocc",
				"energy": -0.01851,
				"method": "rhf"
			}
		],
		"cosmo_sigma_profile": { 
			"-0.025": 0.0,
			"-0.024": 0.0,
			"-0.023": 0.0,
			"-0.022": 0.0,
			"-0.021": 0.0,
			"-0.02": 0.0,
			"-0.019": 0.0,
			"-0.018": 0.0,
			"-0.017": 0.0,
			"-0.016": 0.0,
			"-0.015": 0.228324621695,
			"-0.014": 1.12144327596,
			"-0.013": 1.04049208292,
			"-0.012": 0.987641390556,
			"-0.011": 1.18050708154,
			"-0.01": 1.90460443919,
			"-0.009": 1.55289385273,
			"-0.008": 3.64954007416,
			"-0.007": 9.77889121775,
			"-0.006": 20.5858184033,
			"-0.005": 31.2724197352,
			"-0.004": 30.220740384,
			"-0.003": 28.0858950229,
			"-0.002": 28.8659396668,
			"-0.001": 28.7863248659,
			"0.0": 28.3635005215,
			"0.001": 22.6663990244,
			"0.002": 25.2510014248,
			"0.003": 23.0501071,
			"0.004": 15.0314680931,
			"0.005": 7.65241714934,
			"0.006": 6.63932120041,
			"0.007": 6.24014055017,
			"0.008": 8.01529575419,
			"0.009": 7.6200504641,
			"0.01": 6.94672317795,
			"0.011": 7.44323781338,
			"0.012": 6.44314528958,
			"0.013": 4.66364722105,
			"0.014": 0.910025387378,
			"0.015": 0.0,
			"0.016": 0.0,
			"0.017": 0.0,
			"0.018": 0.0,
			"0.019": 0.0,
			"0.02": 0.0,
			"0.021": 0.0,
			"0.022": 0.0,
			"0.023": 0.0,
			"0.024": 0.0,
			"0.025": 0.0
		}
	}
}
