{
	 "smiles": "CC(C1NCC(C)CC1O)C1=C(C)C2=C(C=C1)C1CC=C3CC(CCC3(C)C1C2)OC1OC(CO)C(O)C(O)C1O", 
	 "Tm": 515.15, 
	 "num_atms": 90, 
	 "gaussian": { 
		 "optdone": 1, 
		 "sigma_profile": "yes", 
		 "theory": "DFT", 
		 "functional": "B3LYP", 
		 "basiset": "6-31G**", 
		 "properties": { 
			 "R2extent": 50112.6935, 
			 "electric_dipole_moment_norm": 4.60809943686, 
			 "electric_quadrupole_moment_norm": 48.2889695132, 
			 "total_energy": -1868.3186258, 
			 "HOMO_LUMO_gap": 0.22342, 
			 "cosmo_polarized_energy": -28.7, 
			 "cosmo_cavitation_energy": 79.79, 
			 "cosmo_dispersion_energy": -54.54, 
			 "cosmo_repulsion_energy": 4.03, 
			 "cosmo_total_nonelectrostatic_energy": 29.29, 
			 "SMD_solvation_energy": 9.39 
		},
		"coords": [
			{
				"x": -2.0122651603,
				"y": -4.4132745889,
				"z": 5.4590540915,
				"element": "C" 
			},
			{
				"x": -1.0000191029,
				"y": -3.2657712425,
				"z": 5.30936872,
				"element": "C" 
			},
			{
				"x": -1.1410225679,
				"y": -2.1799237997,
				"z": 6.4266468848,
				"element": "C" 
			},
			{
				"x": -0.4883162332,
				"y": -2.6689718894,
				"z": 7.6515547567,
				"element": "N" 
			},
			{
				"x": -0.3845134978,
				"y": -1.6582178414,
				"z": 8.7040108184,
				"element": "C" 
			},
			{
				"x": -1.7831966034,
				"y": -1.2312088981,
				"z": 9.1677049657,
				"element": "C" 
			},
			{
				"x": -1.7212489021,
				"y": -0.1543879793,
				"z": 10.2553419432,
				"element": "C" 
			},
			{
				"x": -2.5860406248,
				"y": -0.7687188633,
				"z": 7.9411079224,
				"element": "C" 
			},
			{
				"x": -2.5834548966,
				"y": -1.8117302727,
				"z": 6.815690292,
				"element": "C" 
			},
			{
				"x": -3.2466832056,
				"y": -1.3192511048,
				"z": 5.654875293,
				"element": "O" 
			},
			{
				"x": -0.9254935549,
				"y": -2.6710739026,
				"z": 3.9011995399,
				"element": "C" 
			},
			{
				"x": 0.31580073,
				"y": -2.2041471966,
				"z": 3.3959375227,
				"element": "C" 
			},
			{
				"x": 1.5809804534,
				"y": -2.2602064086,
				"z": 4.2282092366,
				"element": "C" 
			},
			{
				"x": 0.3577988181,
				"y": -1.6990153668,
				"z": 2.0907201379,
				"element": "C" 
			},
			{
				"x": -0.7975721021,
				"y": -1.6262421086,
				"z": 1.2956810976,
				"element": "C" 
			},
			{
				"x": -2.0146610439,
				"y": -2.0719113076,
				"z": 1.7944925242,
				"element": "C" 
			},
			{
				"x": -2.0629547457,
				"y": -2.596252616,
				"z": 3.0879008621,
				"element": "C" 
			},
			{
				"x": -0.4716817414,
				"y": -0.9860404996,
				"z": -0.0356306764,
				"element": "C" 
			},
			{
				"x": -1.1497758153,
				"y": -1.4723013647,
				"z": -1.3156447818,
				"element": "C" 
			},
			{
				"x": -0.4255637071,
				"y": -0.8914588749,
				"z": -2.5108147098,
				"element": "C" 
			},
			{
				"x": 0.8198683534,
				"y": -0.3897898079,
				"z": -2.4937424935,
				"element": "C" 
			},
			{
				"x": 1.4102780572,
				"y": 0.297767403,
				"z": -3.7094188375,
				"element": "C" 
			},
			{
				"x": 2.0887035642,
				"y": 1.6458385094,
				"z": -3.3349629948,
				"element": "C" 
			},
			{
				"x": 1.5856007255,
				"y": 2.1418776463,
				"z": -1.9804784159,
				"element": "C" 
			},
			{
				"x": 1.8916706854,
				"y": 1.1466611957,
				"z": -0.839411358,
				"element": "C" 
			},
			{
				"x": 1.7099940115,
				"y": -0.3579893955,
				"z": -1.2446110068,
				"element": "C" 
			},
			{
				"x": 3.0937698874,
				"y": -0.9773658795,
				"z": -1.5660715683,
				"element": "C" 
			},
			{
				"x": 1.0481486499,
				"y": -1.2155493587,
				"z": -0.1441951636,
				"element": "C" 
			},
			{
				"x": 1.555657505,
				"y": -1.1600755693,
				"z": 1.316729647,
				"element": "C" 
			},
			{
				"x": 1.7888643198,
				"y": 2.6649624582,
				"z": -4.3067089077,
				"element": "O" 
			},
			{
				"x": 2.7285930982,
				"y": 2.8362611862,
				"z": -5.3172416318,
				"element": "C" 
			},
			{
				"x": 2.7243479265,
				"y": 1.6559824345,
				"z": -6.1213791353,
				"element": "O" 
			},
			{
				"x": 3.3448199205,
				"y": 1.7507035678,
				"z": -7.4116100085,
				"element": "C" 
			},
			{
				"x": 4.8551058872,
				"y": 2.0430231241,
				"z": -7.339633538,
				"element": "C" 
			},
			{
				"x": 5.4765349299,
				"y": 1.7796064399,
				"z": -8.5851891263,
				"element": "O" 
			},
			{
				"x": 2.5474890186,
				"y": 2.7506194725,
				"z": -8.3052366523,
				"element": "C" 
			},
			{
				"x": 3.4291204742,
				"y": 3.5109177421,
				"z": -9.123906773,
				"element": "O" 
			},
			{
				"x": 1.6703035081,
				"y": 3.687000006,
				"z": -7.4320192039,
				"element": "C" 
			},
			{
				"x": 1.4052343455,
				"y": 4.9046707805,
				"z": -8.1507862277,
				"element": "O" 
			},
			{
				"x": 2.3260388899,
				"y": 4.0941927293,
				"z": -6.1141695581,
				"element": "C" 
			},
			{
				"x": 3.4946919128,
				"y": 4.8765893962,
				"z": -6.3161364171,
				"element": "O" 
			},
			{
				"x": -1.8018296498,
				"y": -5.2052148701,
				"z": 4.7337446655,
				"element": "H" 
			},
			{
				"x": -3.0423728997,
				"y": -4.0828329079,
				"z": 5.3039823973,
				"element": "H" 
			},
			{
				"x": -1.9416660563,
				"y": -4.838959553,
				"z": 6.464459003,
				"element": "H" 
			},
			{
				"x": -0.0177561891,
				"y": -3.7197383938,
				"z": 5.494645565,
				"element": "H" 
			},
			{
				"x": -0.6705543614,
				"y": -1.2494605275,
				"z": 6.0560712581,
				"element": "H" 
			},
			{
				"x": 0.4384169918,
				"y": -3.0150175683,
				"z": 7.4194196742,
				"element": "H" 
			},
			{
				"x": 0.1659049669,
				"y": -0.7540270583,
				"z": 8.3728814286,
				"element": "H" 
			},
			{
				"x": 0.1754485343,
				"y": -2.087815009,
				"z": 9.5431092673,
				"element": "H" 
			},
			{
				"x": -2.2711436863,
				"y": -2.1248260798,
				"z": 9.581035557,
				"element": "H" 
			},
			{
				"x": -2.7253864032,
				"y": 0.1287248842,
				"z": 10.5888042758,
				"element": "H" 
			},
			{
				"x": -1.1656698107,
				"y": -0.505144205,
				"z": 11.1321507126,
				"element": "H" 
			},
			{
				"x": -1.2264326236,
				"y": 0.7521218489,
				"z": 9.8869092089,
				"element": "H" 
			},
			{
				"x": -2.1569917339,
				"y": 0.1627986105,
				"z": 7.545518296,
				"element": "H" 
			},
			{
				"x": -3.6231111194,
				"y": -0.5429941726,
				"z": 8.2298300758,
				"element": "H" 
			},
			{
				"x": -3.0749498345,
				"y": -2.7251603948,
				"z": 7.1832679387,
				"element": "H" 
			},
			{
				"x": -4.1316961886,
				"y": -1.0378409464,
				"z": 5.9206296993,
				"element": "H" 
			},
			{
				"x": 1.4531538008,
				"y": -1.781822324,
				"z": 5.2053312395,
				"element": "H" 
			},
			{
				"x": 2.4071952849,
				"y": -1.7516393737,
				"z": 3.7279430003,
				"element": "H" 
			},
			{
				"x": 1.9018198352,
				"y": -3.2930881051,
				"z": 4.4170133966,
				"element": "H" 
			},
			{
				"x": -2.9197838902,
				"y": -2.0191120412,
				"z": 1.1944790752,
				"element": "H" 
			},
			{
				"x": -3.0144023827,
				"y": -2.9320991749,
				"z": 3.4816655872,
				"element": "H" 
			},
			{
				"x": -0.6644023279,
				"y": 0.0969943459,
				"z": 0.0453494525,
				"element": "H" 
			},
			{
				"x": -2.2054831742,
				"y": -1.1727112977,
				"z": -1.3486692931,
				"element": "H" 
			},
			{
				"x": -1.1472195622,
				"y": -2.5726013958,
				"z": -1.3499333835,
				"element": "H" 
			},
			{
				"x": -0.9839611015,
				"y": -0.8508567766,
				"z": -3.4460173319,
				"element": "H" 
			},
			{
				"x": 0.6200446792,
				"y": 0.5191056119,
				"z": -4.431195439,
				"element": "H" 
			},
			{
				"x": 2.1352354255,
				"y": -0.3410918322,
				"z": -4.2267260536,
				"element": "H" 
			},
			{
				"x": 3.180770147,
				"y": 1.5279044508,
				"z": -3.297451188,
				"element": "H" 
			},
			{
				"x": 0.502220161,
				"y": 2.2898096612,
				"z": -2.0638579545,
				"element": "H" 
			},
			{
				"x": 2.0255628829,
				"y": 3.1202815721,
				"z": -1.7610583081,
				"element": "H" 
			},
			{
				"x": 1.2345374903,
				"y": 1.3894709948,
				"z": 0.0021531517,
				"element": "H" 
			},
			{
				"x": 2.9169241467,
				"y": 1.3002553451,
				"z": -0.4805802652,
				"element": "H" 
			},
			{
				"x": 3.7116495225,
				"y": -1.0066615063,
				"z": -0.6619425458,
				"element": "H" 
			},
			{
				"x": 3.6472747456,
				"y": -0.4076478356,
				"z": -2.3173423649,
				"element": "H" 
			},
			{
				"x": 2.9871509025,
				"y": -2.0027674941,
				"z": -1.9359633158,
				"element": "H" 
			},
			{
				"x": 1.1617251771,
				"y": -2.2634200041,
				"z": -0.4618543793,
				"element": "H" 
			},
			{
				"x": 1.7866262718,
				"y": -0.1312282459,
				"z": 1.628680402,
				"element": "H" 
			},
			{
				"x": 2.4680415764,
				"y": -1.7473520245,
				"z": 1.4629795353,
				"element": "H" 
			},
			{
				"x": 3.7346114492,
				"y": 2.9931352639,
				"z": -4.8942129245,
				"element": "H" 
			},
			{
				"x": 3.2450712587,
				"y": 0.7449458739,
				"z": -7.8280758846,
				"element": "H" 
			},
			{
				"x": 5.2904188204,
				"y": 1.3548899802,
				"z": -6.6069128509,
				"element": "H" 
			},
			{
				"x": 5.0350259209,
				"y": 3.070716961,
				"z": -7.0032597323,
				"element": "H" 
			},
			{
				"x": 5.1335080478,
				"y": 2.4608236865,
				"z": -9.1829594972,
				"element": "H" 
			},
			{
				"x": 1.8696096074,
				"y": 2.1776514582,
				"z": -8.9577955665,
				"element": "H" 
			},
			{
				"x": 3.0255622907,
				"y": 4.390474133,
				"z": -9.1971110787,
				"element": "H" 
			},
			{
				"x": 0.7366728817,
				"y": 3.1688708837,
				"z": -7.1861778118,
				"element": "H" 
			},
			{
				"x": 0.6742319486,
				"y": 4.7550511249,
				"z": -8.7640261805,
				"element": "H" 
			},
			{
				"x": 1.5908998977,
				"y": 4.6464787419,
				"z": -5.5142449627,
				"element": "H" 
			},
			{
				"x": 3.2379461627,
				"y": 5.6311277308,
				"z": -6.8635126207,
				"element": "H" 
			}
		],
		 "valence_orbital": [ 
			{
				"type": "occ",
				"energy": -0.23364,
				"method": "rhf"
			},
			{
				"type": "occ",
				"energy": -0.22382,
				"method": "rhf"
			},
			{
				"type": "occ",
				"energy": -0.22164,
				"method": "rhf"
			},
			{
				"type": "occ",
				"energy": -0.21889,
				"method": "rhf"
			},
			{
				"type": "occ",
				"energy": -0.21069,
				"method": "rhf"
			},
			{
				"type": "unocc",
				"energy": 0.01273,
				"method": "rhf"
			},
			{
				"type": "unocc",
				"energy": 0.01965,
				"method": "rhf"
			},
			{
				"type": "unocc",
				"energy": 0.02936,
				"method": "rhf"
			},
			{
				"type": "unocc",
				"energy": 0.03208,
				"method": "rhf"
			},
			{
				"type": "unocc",
				"energy": 0.07128,
				"method": "rhf"
			}
		],
		"cosmo_sigma_profile": { 
			"-0.025": 0.0,
			"-0.024": 0.0,
			"-0.023": 0.0,
			"-0.022": 0.0,
			"-0.021": 0.0,
			"-0.02": 0.0,
			"-0.019": 0.0,
			"-0.018": 0.0690527251209,
			"-0.017": 1.20397875273,
			"-0.016": 1.16798840235,
			"-0.015": 1.54668375062,
			"-0.014": 2.36856606649,
			"-0.013": 2.90751241411,
			"-0.012": 1.93559392938,
			"-0.011": 3.10481559043,
			"-0.01": 3.44950901717,
			"-0.009": 4.92151768686,
			"-0.008": 4.39952100097,
			"-0.007": 7.70783834303,
			"-0.006": 9.26270006557,
			"-0.005": 17.8145842056,
			"-0.004": 28.8301852819,
			"-0.003": 55.8082990874,
			"-0.002": 82.5467810914,
			"-0.001": 87.7166954087,
			"0.0": 72.8186816563,
			"0.001": 55.9941466671,
			"0.002": 33.0927690684,
			"0.003": 21.6020905001,
			"0.004": 18.8535328235,
			"0.005": 14.9691497079,
			"0.006": 15.8426325425,
			"0.007": 16.4159535521,
			"0.008": 12.6225427966,
			"0.009": 8.3315110111,
			"0.01": 6.74886469355,
			"0.011": 5.32552018177,
			"0.012": 3.8470561731,
			"0.013": 4.00155176755,
			"0.014": 3.48450817406,
			"0.015": 2.66300872002,
			"0.016": 0.448257094514,
			"0.017": 0.0,
			"0.018": 0.0,
			"0.019": 0.0,
			"0.02": 0.0,
			"0.021": 0.0,
			"0.022": 0.0,
			"0.023": 0.0,
			"0.024": 0.0,
			"0.025": 0.0
		}
	}
}
