{
	 "smiles": "CCOC(=O)CCC(C)[C@H]1CCC2C3C=C[C@@H]4CC(CC[C@]4(C)C3C[C@H](OC(C)=O)[C@]12C)OC(C)=O", 
	 "Tm": 356.65, 
	 "num_atms": 82, 
	 "gaussian": { 
		 "optdone": 1, 
		 "sigma_profile": "yes", 
		 "theory": "DFT", 
		 "functional": "B3LYP", 
		 "basiset": "6-31G**", 
		 "properties": { 
			 "R2extent": 26605.5856, 
			 "electric_dipole_moment_norm": 4.63345782111, 
			 "electric_quadrupole_moment_norm": 19.3137099673, 
			 "total_energy": -1622.31273077, 
			 "HOMO_LUMO_gap": 0.24454, 
			 "cosmo_polarized_energy": -18.9, 
			 "cosmo_cavitation_energy": 72.85, 
			 "cosmo_dispersion_energy": -47.26, 
			 "cosmo_repulsion_energy": 3.53, 
			 "cosmo_total_nonelectrostatic_energy": 29.11, 
			 "SMD_solvation_energy": 13.93 
		},
		"coords": [
			{
				"x": 6.9153549214,
				"y": -5.6253412202,
				"z": 5.6563460421,
				"element": "C" 
			},
			{
				"x": 6.5406201238,
				"y": -4.5233852869,
				"z": 4.6833829846,
				"element": "C" 
			},
			{
				"x": 5.1099007453,
				"y": -4.3330910024,
				"z": 4.7717649779,
				"element": "O" 
			},
			{
				"x": 4.5901706993,
				"y": -3.3791424816,
				"z": 3.9665632312,
				"element": "C" 
			},
			{
				"x": 5.2562336999,
				"y": -2.7179015717,
				"z": 3.1978365195,
				"element": "O" 
			},
			{
				"x": 3.0926251855,
				"y": -3.2518560777,
				"z": 4.1752101649,
				"element": "C" 
			},
			{
				"x": 2.4229032125,
				"y": -2.369138183,
				"z": 3.116495971,
				"element": "C" 
			},
			{
				"x": 0.9425282647,
				"y": -2.0601521821,
				"z": 3.4223883813,
				"element": "C" 
			},
			{
				"x": 0.0892646512,
				"y": -3.3382815902,
				"z": 3.5557035718,
				"element": "C" 
			},
			{
				"x": 0.2755340404,
				"y": -0.9450858838,
				"z": 2.5485248452,
				"element": "C" 
			},
			{
				"x": 1.0509673674,
				"y": 0.3940892819,
				"z": 2.6507723884,
				"element": "C" 
			},
			{
				"x": 1.8583954866,
				"y": 0.5180687636,
				"z": 1.3530164588,
				"element": "C" 
			},
			{
				"x": 1.000795565,
				"y": -0.1491357807,
				"z": 0.2484899667,
				"element": "C" 
			},
			{
				"x": 0.3255503484,
				"y": 0.891782494,
				"z": -0.6902899612,
				"element": "C" 
			},
			{
				"x": -0.1566814608,
				"y": 0.2968461659,
				"z": -1.9936980103,
				"element": "C" 
			},
			{
				"x": -1.2560839607,
				"y": 0.7020333264,
				"z": -2.6360358195,
				"element": "C" 
			},
			{
				"x": -2.2055403535,
				"y": 1.7676874688,
				"z": -2.129907679,
				"element": "C" 
			},
			{
				"x": -2.7803970382,
				"y": 2.6243880633,
				"z": -3.2846986713,
				"element": "C" 
			},
			{
				"x": -1.8088016463,
				"y": 3.660019428,
				"z": -3.8604569386,
				"element": "C" 
			},
			{
				"x": -1.1579129246,
				"y": 4.5010187221,
				"z": -2.7638984616,
				"element": "C" 
			},
			{
				"x": -0.5470238204,
				"y": 3.6284699408,
				"z": -1.6556310652,
				"element": "C" 
			},
			{
				"x": -1.5538410547,
				"y": 2.635616106,
				"z": -1.0090883659,
				"element": "C" 
			},
			{
				"x": -2.6215014657,
				"y": 3.4485921836,
				"z": -0.2440806387,
				"element": "C" 
			},
			{
				"x": -0.7969132235,
				"y": 1.707192932,
				"z": 0.0024499318,
				"element": "C" 
			},
			{
				"x": -1.7491327515,
				"y": 0.7708253823,
				"z": 0.8135518952,
				"element": "C" 
			},
			{
				"x": -1.4369869439,
				"y": -0.7167118952,
				"z": 0.6467919646,
				"element": "C" 
			},
			{
				"x": -2.3440009027,
				"y": -1.4923901261,
				"z": 1.4885328883,
				"element": "O" 
			},
			{
				"x": -3.5781757816,
				"y": -1.7486263285,
				"z": 0.9994716881,
				"element": "C" 
			},
			{
				"x": -4.3748513911,
				"y": -2.5891343864,
				"z": 1.9714446102,
				"element": "C" 
			},
			{
				"x": -3.9842027346,
				"y": -1.356525468,
				"z": -0.0746131727,
				"element": "O" 
			},
			{
				"x": 0.0118183183,
				"y": -1.1390140507,
				"z": 0.9921115666,
				"element": "C" 
			},
			{
				"x": 0.1947516295,
				"y": -2.5663083788,
				"z": 0.438340564,
				"element": "C" 
			},
			{
				"x": -0.7180372272,
				"y": 3.0079614525,
				"z": -4.575206773,
				"element": "O" 
			},
			{
				"x": -0.9480915713,
				"y": 2.6419119397,
				"z": -5.8557909144,
				"element": "C" 
			},
			{
				"x": 0.2793139933,
				"y": 1.9904324135,
				"z": -6.4502231443,
				"element": "C" 
			},
			{
				"x": -1.9974652551,
				"y": 2.8197856776,
				"z": -6.4375533112,
				"element": "O" 
			},
			{
				"x": 6.405100416,
				"y": -6.5595811913,
				"z": 5.4046781051,
				"element": "H" 
			},
			{
				"x": 7.9948625832,
				"y": -5.8022328801,
				"z": 5.6201440739,
				"element": "H" 
			},
			{
				"x": 6.6457712011,
				"y": -5.3516934238,
				"z": 6.6805297659,
				"element": "H" 
			},
			{
				"x": 7.039468847,
				"y": -3.5780989724,
				"z": 4.9204481694,
				"element": "H" 
			},
			{
				"x": 6.8005552642,
				"y": -4.7798625496,
				"z": 3.6514017517,
				"element": "H" 
			},
			{
				"x": 2.6699135219,
				"y": -4.2612445128,
				"z": 4.2072316377,
				"element": "H" 
			},
			{
				"x": 2.9398567605,
				"y": -2.8363143312,
				"z": 5.1815426418,
				"element": "H" 
			},
			{
				"x": 2.9958939892,
				"y": -1.4405365974,
				"z": 3.0535452084,
				"element": "H" 
			},
			{
				"x": 2.5304435853,
				"y": -2.8543817161,
				"z": 2.140645288,
				"element": "H" 
			},
			{
				"x": 0.9421628844,
				"y": -1.6004986606,
				"z": 4.4238950572,
				"element": "H" 
			},
			{
				"x": 0.2470729873,
				"y": -4.034415944,
				"z": 2.7277286826,
				"element": "H" 
			},
			{
				"x": 0.3307347807,
				"y": -3.8741777113,
				"z": 4.4794729076,
				"element": "H" 
			},
			{
				"x": -0.9772069906,
				"y": -3.0945972645,
				"z": 3.5857648236,
				"element": "H" 
			},
			{
				"x": -0.7027401993,
				"y": -0.8186281521,
				"z": 3.0220069577,
				"element": "H" 
			},
			{
				"x": 0.3455956307,
				"y": 1.2285142248,
				"z": 2.7304412048,
				"element": "H" 
			},
			{
				"x": 1.6821115863,
				"y": 0.4408620918,
				"z": 3.5452986919,
				"element": "H" 
			},
			{
				"x": 2.1091390126,
				"y": 1.557288452,
				"z": 1.1124226454,
				"element": "H" 
			},
			{
				"x": 2.8090073994,
				"y": -0.0164105409,
				"z": 1.4478611888,
				"element": "H" 
			},
			{
				"x": 1.6604834172,
				"y": -0.7444972119,
				"z": -0.3938800657,
				"element": "H" 
			},
			{
				"x": 1.1385163795,
				"y": 1.5873446225,
				"z": -0.9460533412,
				"element": "H" 
			},
			{
				"x": 0.4627743909,
				"y": -0.4845738593,
				"z": -2.4340850929,
				"element": "H" 
			},
			{
				"x": -1.528496655,
				"y": 0.2256990306,
				"z": -3.5770917835,
				"element": "H" 
			},
			{
				"x": -3.0674177456,
				"y": 1.2355614328,
				"z": -1.6972072191,
				"element": "H" 
			},
			{
				"x": -3.1366614101,
				"y": 1.9778187849,
				"z": -4.0931423427,
				"element": "H" 
			},
			{
				"x": -3.6598594903,
				"y": 3.1727654344,
				"z": -2.926418948,
				"element": "H" 
			},
			{
				"x": -2.3370738865,
				"y": 4.2897536886,
				"z": -4.5817087284,
				"element": "H" 
			},
			{
				"x": -0.3843754633,
				"y": 5.1359268804,
				"z": -3.2098309969,
				"element": "H" 
			},
			{
				"x": -1.9198652044,
				"y": 5.176904795,
				"z": -2.3589732871,
				"element": "H" 
			},
			{
				"x": 0.2846513606,
				"y": 3.075935651,
				"z": -2.099644445,
				"element": "H" 
			},
			{
				"x": -0.1216966874,
				"y": 4.270425624,
				"z": -0.8733028968,
				"element": "H" 
			},
			{
				"x": -2.1554018111,
				"y": 4.0172325216,
				"z": 0.5694331542,
				"element": "H" 
			},
			{
				"x": -3.3930480425,
				"y": 2.8111728338,
				"z": 0.1952244648,
				"element": "H" 
			},
			{
				"x": -3.1356924683,
				"y": 4.1662872065,
				"z": -0.8879524873,
				"element": "H" 
			},
			{
				"x": -0.3097265454,
				"y": 2.3801775739,
				"z": 0.7200545128,
				"element": "H" 
			},
			{
				"x": -1.7134644658,
				"y": 1.0244914952,
				"z": 1.8780353008,
				"element": "H" 
			},
			{
				"x": -2.7871867974,
				"y": 0.9040033913,
				"z": 0.5047344525,
				"element": "H" 
			},
			{
				"x": -1.6499460911,
				"y": -1.001386789,
				"z": -0.384241561,
				"element": "H" 
			},
			{
				"x": -3.8778592672,
				"y": -3.5510393779,
				"z": 2.1298267433,
				"element": "H" 
			},
			{
				"x": -4.4334646429,
				"y": -2.088885744,
				"z": 2.9424839001,
				"element": "H" 
			},
			{
				"x": -5.3763412239,
				"y": -2.7516477515,
				"z": 1.5742696294,
				"element": "H" 
			},
			{
				"x": 0.0507243634,
				"y": -2.5552418992,
				"z": -0.647727373,
				"element": "H" 
			},
			{
				"x": 1.1950532736,
				"y": -2.960522839,
				"z": 0.6285958408,
				"element": "H" 
			},
			{
				"x": -0.5360207001,
				"y": -3.2611534437,
				"z": 0.8569037499,
				"element": "H" 
			},
			{
				"x": 1.1146923972,
				"y": 2.6971428778,
				"z": -6.4516008709,
				"element": "H" 
			},
			{
				"x": 0.0640738627,
				"y": 1.6689734141,
				"z": -7.4687949334,
				"element": "H" 
			},
			{
				"x": 0.5796991485,
				"y": 1.1343414881,
				"z": -5.8390818626,
				"element": "H" 
			}
		],
		 "valence_orbital": [ 
			{
				"type": "occ",
				"energy": -0.27242,
				"method": "rhf"
			},
			{
				"type": "occ",
				"energy": -0.26748,
				"method": "rhf"
			},
			{
				"type": "occ",
				"energy": -0.26493,
				"method": "rhf"
			},
			{
				"type": "occ",
				"energy": -0.26237,
				"method": "rhf"
			},
			{
				"type": "occ",
				"energy": -0.23037,
				"method": "rhf"
			},
			{
				"type": "unocc",
				"energy": 0.01417,
				"method": "rhf"
			},
			{
				"type": "unocc",
				"energy": 0.01598,
				"method": "rhf"
			},
			{
				"type": "unocc",
				"energy": 0.0181,
				"method": "rhf"
			},
			{
				"type": "unocc",
				"energy": 0.02494,
				"method": "rhf"
			},
			{
				"type": "unocc",
				"energy": 0.06875,
				"method": "rhf"
			}
		],
		"cosmo_sigma_profile": { 
			"-0.025": 0.0,
			"-0.024": 0.0,
			"-0.023": 0.0,
			"-0.022": 0.0,
			"-0.021": 0.0,
			"-0.02": 0.0,
			"-0.019": 0.0,
			"-0.018": 0.0,
			"-0.017": 0.0,
			"-0.016": 0.0,
			"-0.015": 0.0,
			"-0.014": 0.0,
			"-0.013": 0.0,
			"-0.012": 0.0,
			"-0.011": 0.0,
			"-0.01": 0.0,
			"-0.009": 0.0,
			"-0.008": 0.0,
			"-0.007": 0.50138261882,
			"-0.006": 7.00289286336,
			"-0.005": 21.2470769604,
			"-0.004": 44.1482120716,
			"-0.003": 66.4910148547,
			"-0.002": 103.213242842,
			"-0.001": 87.6117296692,
			"0.0": 63.7042405667,
			"0.001": 43.2739455634,
			"0.002": 25.3067735769,
			"0.003": 14.7862241334,
			"0.004": 13.1445665825,
			"0.005": 11.4084923285,
			"0.006": 10.0223716011,
			"0.007": 6.37524772157,
			"0.008": 7.35952689323,
			"0.009": 6.41092837697,
			"0.01": 5.93893921076,
			"0.011": 6.48764348113,
			"0.012": 11.8210839304,
			"0.013": 6.07275125684,
			"0.014": 0.312502509634,
			"0.015": 0.0,
			"0.016": 0.0,
			"0.017": 0.0,
			"0.018": 0.0,
			"0.019": 0.0,
			"0.02": 0.0,
			"0.021": 0.0,
			"0.022": 0.0,
			"0.023": 0.0,
			"0.024": 0.0,
			"0.025": 0.0
		}
	}
}
