{
	 "smiles": "OC(=O)C=CC1=CC=C(C=C1)[N+]([O-])=O", 
	 "Tm": 562.15, 
	 "num_atms": 21, 
	 "gaussian": { 
		 "optdone": 1, 
		 "sigma_profile": "yes", 
		 "theory": "DFT", 
		 "functional": "B3LYP", 
		 "basiset": "6-31G**", 
		 "properties": { 
			 "R2extent": 4507.403, 
			 "electric_dipole_moment_norm": 3.4309285303, 
			 "electric_quadrupole_moment_norm": 19.0646794586, 
			 "total_energy": -702.725663119, 
			 "HOMO_LUMO_gap": 0.15412, 
			 "cosmo_polarized_energy": -14.61, 
			 "cosmo_cavitation_energy": 27.69, 
			 "cosmo_dispersion_energy": -20.08, 
			 "cosmo_repulsion_energy": 1.57, 
			 "cosmo_total_nonelectrostatic_energy": 9.17, 
			 "SMD_solvation_energy": 8.43 
		},
		"coords": [
			{
				"x": -3.2401771659,
				"y": -0.8533868964,
				"z": -3.8296713618,
				"element": "O" 
			},
			{
				"x": -3.018256136,
				"y": -1.0773674747,
				"z": -2.5106656508,
				"element": "C" 
			},
			{
				"x": -3.7812400666,
				"y": -1.7203510974,
				"z": -1.816033946,
				"element": "O" 
			},
			{
				"x": -1.7581718173,
				"y": -0.4464307754,
				"z": -2.063040824,
				"element": "C" 
			},
			{
				"x": -1.3725488391,
				"y": -0.5632908211,
				"z": -0.7801867609,
				"element": "C" 
			},
			{
				"x": -0.1672500414,
				"y": -0.0118729032,
				"z": -0.1592908137,
				"element": "C" 
			},
			{
				"x": 0.0523762418,
				"y": -0.2535647815,
				"z": 1.2106213348,
				"element": "C" 
			},
			{
				"x": 1.1773621611,
				"y": 0.2420451065,
				"z": 1.8602466,
				"element": "C" 
			},
			{
				"x": 2.0935240808,
				"y": 0.9899024006,
				"z": 1.1251674501,
				"element": "C" 
			},
			{
				"x": 1.9123233343,
				"y": 1.2517108976,
				"z": -0.2340044855,
				"element": "C" 
			},
			{
				"x": 0.7845566095,
				"y": 0.7501096052,
				"z": -0.8678157011,
				"element": "C" 
			},
			{
				"x": 3.2880889856,
				"y": 1.5202709418,
				"z": 1.8003029831,
				"element": "N" 
			},
			{
				"x": 3.4217101111,
				"y": 1.2740725746,
				"z": 2.9984087375,
				"element": "O" 
			},
			{
				"x": 4.0792830488,
				"y": 2.1772972587,
				"z": 1.1244999073,
				"element": "O" 
			},
			{
				"x": -4.0786408542,
				"y": -1.2965110539,
				"z": -4.0413550486,
				"element": "H" 
			},
			{
				"x": -1.1902339827,
				"y": 0.0950356631,
				"z": -2.812056638,
				"element": "H" 
			},
			{
				"x": -2.0318208143,
				"y": -1.1333316648,
				"z": -0.1276774972,
				"element": "H" 
			},
			{
				"x": -0.6724330768,
				"y": -0.838847951,
				"z": 1.768630609,
				"element": "H" 
			},
			{
				"x": 1.3565791671,
				"y": 0.0625725016,
				"z": 2.9127775847,
				"element": "H" 
			},
			{
				"x": 2.6516259806,
				"y": 1.83828536,
				"z": -0.7646484297,
				"element": "H" 
			},
			{
				"x": 0.6417430735,
				"y": 0.9524531099,
				"z": -1.9238080494,
				"element": "H" 
			}
		],
		 "valence_orbital": [ 
			{
				"type": "occ",
				"energy": -0.31306,
				"method": "rhf"
			},
			{
				"type": "occ",
				"energy": -0.29688,
				"method": "rhf"
			},
			{
				"type": "occ",
				"energy": -0.28908,
				"method": "rhf"
			},
			{
				"type": "occ",
				"energy": -0.28716,
				"method": "rhf"
			},
			{
				"type": "occ",
				"energy": -0.26366,
				"method": "rhf"
			},
			{
				"type": "unocc",
				"energy": -0.10954,
				"method": "rhf"
			},
			{
				"type": "unocc",
				"energy": -0.0608,
				"method": "rhf"
			},
			{
				"type": "unocc",
				"energy": -0.03667,
				"method": "rhf"
			},
			{
				"type": "unocc",
				"energy": 0.01276,
				"method": "rhf"
			},
			{
				"type": "unocc",
				"energy": 0.07135,
				"method": "rhf"
			}
		],
		"cosmo_sigma_profile": { 
			"-0.025": 0.0,
			"-0.024": 0.0,
			"-0.023": 0.0,
			"-0.022": 0.0,
			"-0.021": 0.0,
			"-0.02": 0.0,
			"-0.019": 0.0207707520274,
			"-0.018": 0.839161612148,
			"-0.017": 0.73295249303,
			"-0.016": 1.07816608465,
			"-0.015": 0.957769311247,
			"-0.014": 0.256704778758,
			"-0.013": 0.519884380824,
			"-0.012": 0.797688989558,
			"-0.011": 1.42827965181,
			"-0.01": 1.38378791313,
			"-0.009": 3.37976346734,
			"-0.008": 8.39966825471,
			"-0.007": 9.76426359571,
			"-0.006": 11.0810087117,
			"-0.005": 9.74264379097,
			"-0.004": 9.3237811224,
			"-0.003": 10.4661372684,
			"-0.002": 16.5935782925,
			"-0.001": 18.1845828615,
			"0.0": 22.6129772722,
			"0.001": 22.595423915,
			"0.002": 8.19342283686,
			"0.003": 5.56046230284,
			"0.004": 5.68659238998,
			"0.005": 5.84322374432,
			"0.006": 6.30024120392,
			"0.007": 10.5317821592,
			"0.008": 9.79376030503,
			"0.009": 7.25825155206,
			"0.01": 4.85175592953,
			"0.011": 3.6620564007,
			"0.012": 4.38249929137,
			"0.013": 0.24174276364,
			"0.014": 0.0,
			"0.015": 0.0,
			"0.016": 0.0,
			"0.017": 0.0,
			"0.018": 0.0,
			"0.019": 0.0,
			"0.02": 0.0,
			"0.021": 0.0,
			"0.022": 0.0,
			"0.023": 0.0,
			"0.024": 0.0,
			"0.025": 0.0
		}
	}
}
