{
	 "smiles": "CN(C)C1=CC=C(C=C1)N(C)C", 
	 "Tm": 323.65, 
	 "num_atms": 28, 
	 "gaussian": { 
		 "optdone": 1, 
		 "sigma_profile": "yes", 
		 "theory": "DFT", 
		 "functional": "B3LYP", 
		 "basiset": "6-31G**", 
		 "properties": { 
			 "R2extent": 3071.3567, 
			 "electric_dipole_moment_norm": 0.812015172272, 
			 "electric_quadrupole_moment_norm": 11.9830393987, 
			 "total_energy": -500.190664072, 
			 "HOMO_LUMO_gap": 0.17275, 
			 "cosmo_polarized_energy": -6.78, 
			 "cosmo_cavitation_energy": 28.91, 
			 "cosmo_dispersion_energy": -21.51, 
			 "cosmo_repulsion_energy": 1.68, 
			 "cosmo_total_nonelectrostatic_energy": 9.08, 
			 "SMD_solvation_energy": 3.51 
		},
		"coords": [
			{
				"x": -0.3815733198,
				"y": -0.4927555314,
				"z": 3.6781542094,
				"element": "C" 
			},
			{
				"x": -0.9730896915,
				"y": -0.2884780171,
				"z": 2.3674135482,
				"element": "N" 
			},
			{
				"x": -2.1698208718,
				"y": 0.5333940623,
				"z": 2.3223536836,
				"element": "C" 
			},
			{
				"x": -0.1181821626,
				"y": -0.2721164721,
				"z": 1.2522796041,
				"element": "C" 
			},
			{
				"x": -0.533890307,
				"y": 0.2270584942,
				"z": 0.0025554433,
				"element": "C" 
			},
			{
				"x": 0.297936934,
				"y": 0.2014492562,
				"z": -1.1137012478,
				"element": "C" 
			},
			{
				"x": 1.6030767745,
				"y": -0.3250688571,
				"z": -1.057549741,
				"element": "C" 
			},
			{
				"x": 2.030810212,
				"y": -0.7923743849,
				"z": 0.2004177661,
				"element": "C" 
			},
			{
				"x": 1.1989837022,
				"y": -0.7667944677,
				"z": 1.3166500836,
				"element": "C" 
			},
			{
				"x": 2.426280175,
				"y": -0.3930138482,
				"z": -2.1943861935,
				"element": "N" 
			},
			{
				"x": 3.8469544098,
				"y": -0.6210239881,
				"z": -1.9959103735,
				"element": "C" 
			},
			{
				"x": 2.0576131683,
				"y": 0.4019013331,
				"z": -3.352749975,
				"element": "C" 
			},
			{
				"x": 0.1162124344,
				"y": -1.466621848,
				"z": 3.732670376,
				"element": "H" 
			},
			{
				"x": -1.1732186228,
				"y": -0.492477128,
				"z": 4.4305563957,
				"element": "H" 
			},
			{
				"x": 0.3567363199,
				"y": 0.2800633547,
				"z": 3.9533898013,
				"element": "H" 
			},
			{
				"x": -1.960394108,
				"y": 1.6095677524,
				"z": 2.1955531492,
				"element": "H" 
			},
			{
				"x": -2.7284225125,
				"y": 0.401094251,
				"z": 3.2514725272,
				"element": "H" 
			},
			{
				"x": -2.8258213018,
				"y": 0.220658312,
				"z": 1.5031799972,
				"element": "H" 
			},
			{
				"x": -1.5227120937,
				"y": 0.6532819738,
				"z": -0.1170393231,
				"element": "H" 
			},
			{
				"x": -0.0902019646,
				"y": 0.6091753063,
				"z": -2.0393604192,
				"element": "H" 
			},
			{
				"x": 3.0333509252,
				"y": -1.1822588,
				"z": 0.3294026293,
				"element": "H" 
			},
			{
				"x": 1.6008261505,
				"y": -1.1381831354,
				"z": 2.2517100797,
				"element": "H" 
			},
			{
				"x": 4.3377617911,
				"y": 0.1599339556,
				"z": -1.3898588389,
				"element": "H" 
			},
			{
				"x": 4.3412826103,
				"y": -0.6595179051,
				"z": -2.9690280558,
				"element": "H" 
			},
			{
				"x": 4.0215240601,
				"y": -1.5847508291,
				"z": -1.5060777445,
				"element": "H" 
			},
			{
				"x": 2.0193467312,
				"y": 1.4859086224,
				"z": -3.1488789844,
				"element": "H" 
			},
			{
				"x": 1.0781866545,
				"y": 0.0981950481,
				"z": -3.7370345588,
				"element": "H" 
			},
			{
				"x": 2.7844439032,
				"y": 0.2294534902,
				"z": -4.1494838385,
				"element": "H" 
			}
		],
		 "valence_orbital": [ 
			{
				"type": "occ",
				"energy": -0.31585,
				"method": "rhf"
			},
			{
				"type": "occ",
				"energy": -0.2871,
				"method": "rhf"
			},
			{
				"type": "occ",
				"energy": -0.23177,
				"method": "rhf"
			},
			{
				"type": "occ",
				"energy": -0.22325,
				"method": "rhf"
			},
			{
				"type": "occ",
				"energy": -0.15706,
				"method": "rhf"
			},
			{
				"type": "unocc",
				"energy": 0.01569,
				"method": "rhf"
			},
			{
				"type": "unocc",
				"energy": 0.04142,
				"method": "rhf"
			},
			{
				"type": "unocc",
				"energy": 0.08973,
				"method": "rhf"
			},
			{
				"type": "unocc",
				"energy": 0.10001,
				"method": "rhf"
			},
			{
				"type": "unocc",
				"energy": 0.11762,
				"method": "rhf"
			}
		],
		"cosmo_sigma_profile": { 
			"-0.025": 0.0,
			"-0.024": 0.0,
			"-0.023": 0.0,
			"-0.022": 0.0,
			"-0.021": 0.0,
			"-0.02": 0.0,
			"-0.019": 0.0,
			"-0.018": 0.0,
			"-0.017": 0.0,
			"-0.016": 0.0,
			"-0.015": 0.0,
			"-0.014": 0.0,
			"-0.013": 0.0,
			"-0.012": 0.0,
			"-0.011": 0.0,
			"-0.01": 0.0,
			"-0.009": 0.0,
			"-0.008": 0.0,
			"-0.007": 0.0,
			"-0.006": 2.42244835701,
			"-0.005": 15.4634205925,
			"-0.004": 21.0899640319,
			"-0.003": 24.205301506,
			"-0.002": 32.3791238445,
			"-0.001": 39.13978686,
			"0.0": 22.2026532251,
			"0.001": 10.3754634865,
			"0.002": 6.880666265,
			"0.003": 6.57422140269,
			"0.004": 6.4859152103,
			"0.005": 7.06283621267,
			"0.006": 7.71925265984,
			"0.007": 10.2018223255,
			"0.008": 9.7957913637,
			"0.009": 2.49956692617,
			"0.01": 1.39638914074,
			"0.011": 0.871265861603,
			"0.012": 0.0920670373296,
			"0.013": 0.0,
			"0.014": 0.0,
			"0.015": 0.0,
			"0.016": 0.0,
			"0.017": 0.0,
			"0.018": 0.0,
			"0.019": 0.0,
			"0.02": 0.0,
			"0.021": 0.0,
			"0.022": 0.0,
			"0.023": 0.0,
			"0.024": 0.0,
			"0.025": 0.0
		}
	}
}
