{
	 "smiles": "CN1C(=CC=C1C(F)(F)C(O)=O)C(C)=O", 
	 "Tm": 389.15, 
	 "num_atms": 24, 
	 "gaussian": { 
		 "optdone": 1, 
		 "sigma_profile": "yes", 
		 "theory": "DFT", 
		 "functional": "B3LYP", 
		 "basiset": "6-31G**", 
		 "properties": { 
			 "R2extent": 4961.0556, 
			 "electric_dipole_moment_norm": 2.14383980978, 
			 "electric_quadrupole_moment_norm": 18.3054660304, 
			 "total_energy": -828.478574594, 
			 "HOMO_LUMO_gap": 0.18271, 
			 "cosmo_polarized_energy": -13.07, 
			 "cosmo_cavitation_energy": 28.83, 
			 "cosmo_dispersion_energy": -20.68, 
			 "cosmo_repulsion_energy": 1.57, 
			 "cosmo_total_nonelectrostatic_energy": 9.72, 
			 "SMD_solvation_energy": 7.53 
		},
		"coords": [
			{
				"x": 1.110392507,
				"y": 3.2321582164,
				"z": -0.861690806,
				"element": "C" 
			},
			{
				"x": 0.7469101111,
				"y": 1.825224149,
				"z": -0.6502438934,
				"element": "N" 
			},
			{
				"x": 0.515332447,
				"y": 1.1994149278,
				"z": 0.5649691148,
				"element": "C" 
			},
			{
				"x": 0.2362595422,
				"y": -0.1441862308,
				"z": 0.3042200968,
				"element": "C" 
			},
			{
				"x": 0.3015892561,
				"y": -0.3419446608,
				"z": -1.0820347887,
				"element": "C" 
			},
			{
				"x": 0.6216925799,
				"y": 0.8878602651,
				"z": -1.6473222939,
				"element": "C" 
			},
			{
				"x": 0.8352167947,
				"y": 1.2273738244,
				"z": -3.0774792229,
				"element": "C" 
			},
			{
				"x": 2.0887654325,
				"y": 1.8274608214,
				"z": -3.2480566008,
				"element": "F" 
			},
			{
				"x": -0.0645846962,
				"y": 2.1644139488,
				"z": -3.5269883821,
				"element": "F" 
			},
			{
				"x": 0.7513812412,
				"y": 0.0196829376,
				"z": -4.0492589422,
				"element": "C" 
			},
			{
				"x": 1.7926994586,
				"y": -0.094050464,
				"z": -4.8839031351,
				"element": "O" 
			},
			{
				"x": -0.1949473096,
				"y": -0.7222371611,
				"z": -4.0640051973,
				"element": "O" 
			},
			{
				"x": 0.5506979923,
				"y": 1.8639674737,
				"z": 1.8792740243,
				"element": "C" 
			},
			{
				"x": 0.2621096103,
				"y": 0.9859452832,
				"z": 3.0877828263,
				"element": "C" 
			},
			{
				"x": 0.7940929951,
				"y": 3.0577223114,
				"z": 2.0273331053,
				"element": "O" 
			},
			{
				"x": 0.5959849708,
				"y": 3.6016897918,
				"z": -1.7478999284,
				"element": "H" 
			},
			{
				"x": 0.8209252654,
				"y": 3.7969849924,
				"z": 0.0186379415,
				"element": "H" 
			},
			{
				"x": 2.190196633,
				"y": 3.3254399599,
				"z": -1.0074286885,
				"element": "H" 
			},
			{
				"x": 0.0016041611,
				"y": -0.8917939559,
				"z": 1.0474070315,
				"element": "H" 
			},
			{
				"x": 0.1134535887,
				"y": -1.2520747801,
				"z": -1.6295371255,
				"element": "H" 
			},
			{
				"x": 2.4348380181,
				"y": 0.6068002779,
				"z": -4.6806885807,
				"element": "H" 
			},
			{
				"x": 0.3325019298,
				"y": 1.6031268786,
				"z": 3.9837697642,
				"element": "H" 
			},
			{
				"x": -0.7400113827,
				"y": 0.5490595883,
				"z": 3.0246794073,
				"element": "H" 
			},
			{
				"x": 0.9782988537,
				"y": 0.160561605,
				"z": 3.1557642735,
				"element": "H" 
			}
		],
		 "valence_orbital": [ 
			{
				"type": "occ",
				"energy": -0.33898,
				"method": "rhf"
			},
			{
				"type": "occ",
				"energy": -0.29659,
				"method": "rhf"
			},
			{
				"type": "occ",
				"energy": -0.26354,
				"method": "rhf"
			},
			{
				"type": "occ",
				"energy": -0.25598,
				"method": "rhf"
			},
			{
				"type": "occ",
				"energy": -0.24469,
				"method": "rhf"
			},
			{
				"type": "unocc",
				"energy": -0.06198,
				"method": "rhf"
			},
			{
				"type": "unocc",
				"energy": -0.02464,
				"method": "rhf"
			},
			{
				"type": "unocc",
				"energy": 0.01786,
				"method": "rhf"
			},
			{
				"type": "unocc",
				"energy": 0.07239,
				"method": "rhf"
			},
			{
				"type": "unocc",
				"energy": 0.08736,
				"method": "rhf"
			}
		],
		"cosmo_sigma_profile": { 
			"-0.025": 0.0,
			"-0.024": 0.0,
			"-0.023": 0.0,
			"-0.022": 0.0,
			"-0.021": 0.0,
			"-0.02": 0.0,
			"-0.019": 0.0,
			"-0.018": 0.103618857551,
			"-0.017": 0.709073072063,
			"-0.016": 1.14672544416,
			"-0.015": 0.495175328718,
			"-0.014": 0.338523955642,
			"-0.013": 1.44583181118,
			"-0.012": 1.11406107923,
			"-0.011": 1.24397705661,
			"-0.01": 1.51430319459,
			"-0.009": 1.74959325224,
			"-0.008": 1.52738415908,
			"-0.007": 3.35307901076,
			"-0.006": 10.3794803382,
			"-0.005": 16.7856950482,
			"-0.004": 16.8624092984,
			"-0.003": 17.9180842072,
			"-0.002": 20.7256902194,
			"-0.001": 19.6025153482,
			"0.0": 13.9081972036,
			"0.001": 14.3770101231,
			"0.002": 18.9955823539,
			"0.003": 15.3220520143,
			"0.004": 8.79702250651,
			"0.005": 5.64699967963,
			"0.006": 4.74678366497,
			"0.007": 5.7745024349,
			"0.008": 6.01805634709,
			"0.009": 4.85806231907,
			"0.01": 7.00112335298,
			"0.011": 3.8414990289,
			"0.012": 2.33634871127,
			"0.013": 1.37874917588,
			"0.014": 0.135456434467,
			"0.015": 0.0,
			"0.016": 0.0,
			"0.017": 0.0,
			"0.018": 0.0,
			"0.019": 0.0,
			"0.02": 0.0,
			"0.021": 0.0,
			"0.022": 0.0,
			"0.023": 0.0,
			"0.024": 0.0,
			"0.025": 0.0
		}
	}
}
