{
	 "smiles": "FC1=C(F)C(F)=C(OC(=O)C2=C(C=CS2)C2OCCO2)C(F)=C1F", 
	 "Tm": 330.65, 
	 "num_atms": 31, 
	 "gaussian": { 
		 "optdone": 1, 
		 "sigma_profile": "yes", 
		 "theory": "DFT", 
		 "functional": "B3LYP", 
		 "basiset": "6-31G**", 
		 "properties": { 
			 "R2extent": 10338.5848, 
			 "electric_dipole_moment_norm": 4.92989128988, 
			 "electric_quadrupole_moment_norm": 10.9113926027, 
			 "total_energy": -1735.87912693, 
			 "HOMO_LUMO_gap": 0.18413, 
			 "cosmo_polarized_energy": -11.45, 
			 "cosmo_cavitation_energy": 41.26, 
			 "cosmo_dispersion_energy": -28.27, 
			 "cosmo_repulsion_energy": 2.01, 
			 "cosmo_total_nonelectrostatic_energy": 15.0, 
			 "SMD_solvation_energy": 10.24 
		},
		"coords": [
			{
				"x": -2.4644199038,
				"y": 4.2878445701,
				"z": 3.7909518521,
				"element": "F" 
			},
			{
				"x": -1.740907917,
				"y": 3.5862506142,
				"z": 2.9143716902,
				"element": "C" 
			},
			{
				"x": -0.8683964821,
				"y": 2.5976031064,
				"z": 3.3650370054,
				"element": "C" 
			},
			{
				"x": -0.7543753098,
				"y": 2.3517126237,
				"z": 4.6742732529,
				"element": "F" 
			},
			{
				"x": -0.1143337059,
				"y": 1.87219929,
				"z": 2.446010499,
				"element": "C" 
			},
			{
				"x": 0.7255925421,
				"y": 0.9255943675,
				"z": 2.8797246201,
				"element": "F" 
			},
			{
				"x": -0.2318260131,
				"y": 2.1186150418,
				"z": 1.0781340127,
				"element": "C" 
			},
			{
				"x": 0.4771596935,
				"y": 1.325231721,
				"z": 0.2065184758,
				"element": "O" 
			},
			{
				"x": 1.4521114514,
				"y": 1.9326411404,
				"z": -0.5690018872,
				"element": "C" 
			},
			{
				"x": 1.6744767679,
				"y": 3.1200849793,
				"z": -0.5330660572,
				"element": "O" 
			},
			{
				"x": 2.1537116247,
				"y": 0.955507143,
				"z": -1.39922984,
				"element": "C" 
			},
			{
				"x": 2.0739619948,
				"y": -0.4279974948,
				"z": -1.4760921087,
				"element": "C" 
			},
			{
				"x": 2.9870494405,
				"y": -0.9557013423,
				"z": -2.4314332174,
				"element": "C" 
			},
			{
				"x": 3.7274442778,
				"y": 0.0135863526,
				"z": -3.0587882554,
				"element": "C" 
			},
			{
				"x": 3.3441072977,
				"y": 1.5957848486,
				"z": -2.5022912375,
				"element": "S" 
			},
			{
				"x": 1.1333960415,
				"y": -1.3082554165,
				"z": -0.6678221161,
				"element": "C" 
			},
			{
				"x": -0.2053989544,
				"y": -1.2467150836,
				"z": -1.159981004,
				"element": "O" 
			},
			{
				"x": -0.4557668991,
				"y": -2.466839747,
				"z": -1.8539728578,
				"element": "C" 
			},
			{
				"x": 0.4163865375,
				"y": -3.4531555213,
				"z": -1.0861977592,
				"element": "C" 
			},
			{
				"x": 1.5615368231,
				"y": -2.6593938034,
				"z": -0.7702088853,
				"element": "O" 
			},
			{
				"x": -1.1156257781,
				"y": 3.1029657688,
				"z": 0.6341500104,
				"element": "C" 
			},
			{
				"x": -1.2570839719,
				"y": 3.3377778341,
				"z": -0.6713013003,
				"element": "F" 
			},
			{
				"x": -1.8630390728,
				"y": 3.8406451539,
				"z": 1.5493407102,
				"element": "C" 
			},
			{
				"x": -2.7065949953,
				"y": 4.7849243565,
				"z": 1.1212815269,
				"element": "F" 
			},
			{
				"x": 3.0900231148,
				"y": -2.0165057892,
				"z": -2.6154185919,
				"element": "H" 
			},
			{
				"x": 4.4859407525,
				"y": -0.1228297036,
				"z": -3.8180232067,
				"element": "H" 
			},
			{
				"x": 1.1041225238,
				"y": -0.9877746439,
				"z": 0.3788189252,
				"element": "H" 
			},
			{
				"x": -0.1517892888,
				"y": -2.3982402272,
				"z": -2.9087291802,
				"element": "H" 
			},
			{
				"x": -1.5267774785,
				"y": -2.6769577121,
				"z": -1.7997931183,
				"element": "H" 
			},
			{
				"x": -0.0823582962,
				"y": -3.8008143819,
				"z": -0.17063016,
				"element": "H" 
			},
			{
				"x": 0.7465731834,
				"y": -4.316188045,
				"z": -1.6700317975,
				"element": "H" 
			}
		],
		 "valence_orbital": [ 
			{
				"type": "occ",
				"energy": -0.2696,
				"method": "rhf"
			},
			{
				"type": "occ",
				"energy": -0.26558,
				"method": "rhf"
			},
			{
				"type": "occ",
				"energy": -0.26287,
				"method": "rhf"
			},
			{
				"type": "occ",
				"energy": -0.25883,
				"method": "rhf"
			},
			{
				"type": "occ",
				"energy": -0.25498,
				"method": "rhf"
			},
			{
				"type": "unocc",
				"energy": -0.07085,
				"method": "rhf"
			},
			{
				"type": "unocc",
				"energy": -0.02512,
				"method": "rhf"
			},
			{
				"type": "unocc",
				"energy": -0.01849,
				"method": "rhf"
			},
			{
				"type": "unocc",
				"energy": -0.00069,
				"method": "rhf"
			},
			{
				"type": "unocc",
				"energy": 0.0179,
				"method": "rhf"
			}
		],
		"cosmo_sigma_profile": { 
			"-0.025": 0.0,
			"-0.024": 0.0,
			"-0.023": 0.0,
			"-0.022": 0.0,
			"-0.021": 0.0,
			"-0.02": 0.0,
			"-0.019": 0.0,
			"-0.018": 0.0,
			"-0.017": 0.0,
			"-0.016": 0.0,
			"-0.015": 0.0,
			"-0.014": 0.0,
			"-0.013": 0.0,
			"-0.012": 0.0,
			"-0.011": 0.0,
			"-0.01": 1.23530533951,
			"-0.009": 2.63688409832,
			"-0.008": 1.9864619518,
			"-0.007": 3.8742288227,
			"-0.006": 10.4231236628,
			"-0.005": 21.2369130443,
			"-0.004": 35.5276141306,
			"-0.003": 29.4809652128,
			"-0.002": 21.7678366308,
			"-0.001": 21.9728563392,
			"0.0": 22.6043200672,
			"0.001": 32.2162154138,
			"0.002": 62.1092431469,
			"0.003": 27.2484986698,
			"0.004": 5.90945904443,
			"0.005": 4.9594842281,
			"0.006": 4.3919606213,
			"0.007": 4.73559920087,
			"0.008": 4.29612127591,
			"0.009": 5.2019011129,
			"0.01": 6.88129222826,
			"0.011": 3.34899201328,
			"0.012": 1.06449711057,
			"0.013": 0.0,
			"0.014": 0.0,
			"0.015": 0.0,
			"0.016": 0.0,
			"0.017": 0.0,
			"0.018": 0.0,
			"0.019": 0.0,
			"0.02": 0.0,
			"0.021": 0.0,
			"0.022": 0.0,
			"0.023": 0.0,
			"0.024": 0.0,
			"0.025": 0.0
		}
	}
}
