{
	 "smiles": "CNC(NCCSCC1=CC=C(CN(C)C)O1)=CN(=O)=O", 
	 "Tm": 342.15, 
	 "num_atms": 43, 
	 "gaussian": { 
		 "optdone": 1, 
		 "sigma_profile": "yes", 
		 "theory": "DFT", 
		 "functional": "B3LYP", 
		 "basiset": "6-31G**", 
		 "properties": { 
			 "R2extent": 8902.2462, 
			 "electric_dipole_moment_norm": 8.06044365652, 
			 "electric_quadrupole_moment_norm": 38.5607336482, 
			 "total_energy": -1351.36085249, 
			 "HOMO_LUMO_gap": 0.17901, 
			 "cosmo_polarized_energy": -24.91, 
			 "cosmo_cavitation_energy": 47.16, 
			 "cosmo_dispersion_energy": -31.04, 
			 "cosmo_repulsion_energy": 2.37, 
			 "cosmo_total_nonelectrostatic_energy": 18.5, 
			 "SMD_solvation_energy": 7.58 
		},
		"coords": [
			{
				"x": -2.0442237191,
				"y": -0.0664080477,
				"z": 1.910596887,
				"element": "C" 
			},
			{
				"x": -0.6895186868,
				"y": 0.3769832439,
				"z": 1.6253348497,
				"element": "N" 
			},
			{
				"x": -0.2230963255,
				"y": 1.6516773174,
				"z": 1.7059183179,
				"element": "C" 
			},
			{
				"x": 0.8615126408,
				"y": 1.8849812001,
				"z": 0.893453831,
				"element": "N" 
			},
			{
				"x": 1.7392272707,
				"y": 3.0380405321,
				"z": 0.9618525508,
				"element": "C" 
			},
			{
				"x": 3.2120365174,
				"y": 2.652545774,
				"z": 0.7753607742,
				"element": "C" 
			},
			{
				"x": 3.5883915083,
				"y": 1.7553838446,
				"z": -0.7898570753,
				"element": "S" 
			},
			{
				"x": 3.5115879389,
				"y": -0.0339160841,
				"z": -0.2424816193,
				"element": "C" 
			},
			{
				"x": 2.6324336547,
				"y": -0.8716738341,
				"z": -1.0898992979,
				"element": "C" 
			},
			{
				"x": 2.8729868022,
				"y": -1.765253007,
				"z": -2.0906091237,
				"element": "C" 
			},
			{
				"x": 1.5975167437,
				"y": -2.2172555256,
				"z": -2.563640394,
				"element": "C" 
			},
			{
				"x": 0.6551435641,
				"y": -1.5667286223,
				"z": -1.8272787064,
				"element": "C" 
			},
			{
				"x": -0.84171485,
				"y": -1.6202492625,
				"z": -1.7866223331,
				"element": "C" 
			},
			{
				"x": -1.409103186,
				"y": -1.8913334252,
				"z": -3.1032963891,
				"element": "N" 
			},
			{
				"x": -2.7873903251,
				"y": -2.3584126141,
				"z": -3.0106240755,
				"element": "C" 
			},
			{
				"x": -1.2961875523,
				"y": -0.7440841997,
				"z": -3.9993681888,
				"element": "C" 
			},
			{
				"x": 1.270822172,
				"y": -0.7387917705,
				"z": -0.9171150398,
				"element": "O" 
			},
			{
				"x": -0.760764501,
				"y": 2.6812852793,
				"z": 2.4655841191,
				"element": "C" 
			},
			{
				"x": -1.483872511,
				"y": 2.5308510663,
				"z": 3.6639165643,
				"element": "N" 
			},
			{
				"x": -1.9772634893,
				"y": 3.5636756681,
				"z": 4.1510369506,
				"element": "O" 
			},
			{
				"x": -1.5702358015,
				"y": 1.4125695985,
				"z": 4.2111005861,
				"element": "O" 
			},
			{
				"x": -2.2893885306,
				"y": -0.8861459162,
				"z": 1.2283625941,
				"element": "H" 
			},
			{
				"x": -2.7426028582,
				"y": 0.7549461639,
				"z": 1.7307744392,
				"element": "H" 
			},
			{
				"x": -2.1641665962,
				"y": -0.386608415,
				"z": 2.9475040256,
				"element": "H" 
			},
			{
				"x": -0.0501689456,
				"y": -0.2946663649,
				"z": 1.2251812998,
				"element": "H" 
			},
			{
				"x": 0.9121090518,
				"y": 1.3413221354,
				"z": 0.0398473031,
				"element": "H" 
			},
			{
				"x": 1.6237906154,
				"y": 3.4946825219,
				"z": 1.9489143775,
				"element": "H" 
			},
			{
				"x": 1.4614336561,
				"y": 3.7952171959,
				"z": 0.2149512684,
				"element": "H" 
			},
			{
				"x": 3.8203852415,
				"y": 3.5615056524,
				"z": 0.7507155911,
				"element": "H" 
			},
			{
				"x": 3.5640235477,
				"y": 2.0449749501,
				"z": 1.6139472662,
				"element": "H" 
			},
			{
				"x": 4.5262816185,
				"y": -0.435103017,
				"z": -0.2764078194,
				"element": "H" 
			},
			{
				"x": 3.1757150254,
				"y": -0.033497135,
				"z": 0.7976160968,
				"element": "H" 
			},
			{
				"x": 3.8470520555,
				"y": -2.0625650894,
				"z": -2.4529179147,
				"element": "H" 
			},
			{
				"x": 1.3951793054,
				"y": -2.9298778483,
				"z": -3.3490204581,
				"element": "H" 
			},
			{
				"x": -1.158995282,
				"y": -2.4300133361,
				"z": -1.1148686408,
				"element": "H" 
			},
			{
				"x": -1.2183825778,
				"y": -0.679446458,
				"z": -1.3370351494,
				"element": "H" 
			},
			{
				"x": -3.1528476982,
				"y": -2.611739479,
				"z": -4.0103164607,
				"element": "H" 
			},
			{
				"x": -2.8356918094,
				"y": -3.2616134116,
				"z": -2.3940608152,
				"element": "H" 
			},
			{
				"x": -3.4772809217,
				"y": -1.608621513,
				"z": -2.5784625603,
				"element": "H" 
			},
			{
				"x": -1.6486301544,
				"y": -1.0237050805,
				"z": -4.9967208972,
				"element": "H" 
			},
			{
				"x": -1.8870070338,
				"y": 0.1272113865,
				"z": -3.6579286723,
				"element": "H" 
			},
			{
				"x": -0.2505409229,
				"y": -0.4376984243,
				"z": -4.0821609795,
				"element": "H" 
			},
			{
				"x": -0.5849546519,
				"y": 3.7135543507,
				"z": 2.2103229182,
				"element": "H" 
			}
		],
		 "valence_orbital": [ 
			{
				"type": "occ",
				"energy": -0.24587,
				"method": "rhf"
			},
			{
				"type": "occ",
				"energy": -0.23613,
				"method": "rhf"
			},
			{
				"type": "occ",
				"energy": -0.23381,
				"method": "rhf"
			},
			{
				"type": "occ",
				"energy": -0.22801,
				"method": "rhf"
			},
			{
				"type": "occ",
				"energy": -0.21104,
				"method": "rhf"
			},
			{
				"type": "unocc",
				"energy": -0.03203,
				"method": "rhf"
			},
			{
				"type": "unocc",
				"energy": -0.02196,
				"method": "rhf"
			},
			{
				"type": "unocc",
				"energy": 0.01772,
				"method": "rhf"
			},
			{
				"type": "unocc",
				"energy": 0.041,
				"method": "rhf"
			},
			{
				"type": "unocc",
				"energy": 0.05663,
				"method": "rhf"
			}
		],
		"cosmo_sigma_profile": { 
			"-0.025": 0.0,
			"-0.024": 0.0,
			"-0.023": 0.0,
			"-0.022": 0.0,
			"-0.021": 0.0,
			"-0.02": 0.0,
			"-0.019": 0.0,
			"-0.018": 0.0,
			"-0.017": 0.0,
			"-0.016": 0.0,
			"-0.015": 0.0,
			"-0.014": 0.0,
			"-0.013": 0.0,
			"-0.012": 0.0,
			"-0.011": 0.210701732232,
			"-0.01": 1.15726104895,
			"-0.009": 0.968148066668,
			"-0.008": 1.8102914594,
			"-0.007": 10.7121724488,
			"-0.006": 21.7135234505,
			"-0.005": 30.4964391508,
			"-0.004": 34.5942258848,
			"-0.003": 36.2227587682,
			"-0.002": 43.3080752485,
			"-0.001": 35.6031076313,
			"0.0": 28.9738515042,
			"0.001": 16.3738726684,
			"0.002": 14.0076438262,
			"0.003": 13.6013197062,
			"0.004": 12.6055699337,
			"0.005": 11.9726434564,
			"0.006": 7.90838789388,
			"0.007": 6.58230654114,
			"0.008": 5.38455865387,
			"0.009": 6.04571822674,
			"0.01": 5.05908709315,
			"0.011": 10.0515121296,
			"0.012": 8.36933732945,
			"0.013": 4.50202802078,
			"0.014": 3.60154191268,
			"0.015": 0.482811515542,
			"0.016": 0.0,
			"0.017": 0.0,
			"0.018": 0.0,
			"0.019": 0.0,
			"0.02": 0.0,
			"0.021": 0.0,
			"0.022": 0.0,
			"0.023": 0.0,
			"0.024": 0.0,
			"0.025": 0.0
		}
	}
}
