{
	 "smiles": "CC1=C(SC=C1)C(=O)NC1=CC2=C(NCCC2)C=C1", 
	 "Tm": 409.15, 
	 "num_atms": 35, 
	 "gaussian": { 
		 "optdone": 1, 
		 "sigma_profile": "yes", 
		 "theory": "DFT", 
		 "functional": "B3LYP", 
		 "basiset": "6-31G**", 
		 "properties": { 
			 "R2extent": 6789.5474, 
			 "electric_dipole_moment_norm": 5.88743516737, 
			 "electric_quadrupole_moment_norm": 23.1904766514, 
			 "total_energy": -1164.16630139, 
			 "HOMO_LUMO_gap": 0.15403, 
			 "cosmo_polarized_energy": -15.21, 
			 "cosmo_cavitation_energy": 38.5, 
			 "cosmo_dispersion_energy": -27.33, 
			 "cosmo_repulsion_energy": 2.07, 
			 "cosmo_total_nonelectrostatic_energy": 13.25, 
			 "SMD_solvation_energy": 5.46 
		},
		"coords": [
			{
				"x": -1.1369828207,
				"y": 2.4623575232,
				"z": 1.0843083641,
				"element": "C" 
			},
			{
				"x": -0.4201577909,
				"y": 2.2459097753,
				"z": 2.3905570533,
				"element": "C" 
			},
			{
				"x": -0.6477886643,
				"y": 1.2227802838,
				"z": 3.2934317225,
				"element": "C" 
			},
			{
				"x": 0.3301782533,
				"y": 1.4026217501,
				"z": 4.7331674175,
				"element": "S" 
			},
			{
				"x": 1.0881725447,
				"y": 2.8128963762,
				"z": 4.0914336207,
				"element": "C" 
			},
			{
				"x": 0.586364362,
				"y": 3.1466828324,
				"z": 2.8633949398,
				"element": "C" 
			},
			{
				"x": -1.6400916618,
				"y": 0.1183500199,
				"z": 3.3233712608,
				"element": "C" 
			},
			{
				"x": -2.1777052552,
				"y": -0.2202496025,
				"z": 4.3756325824,
				"element": "O" 
			},
			{
				"x": -1.9811381109,
				"y": -0.5105294144,
				"z": 2.1384582986,
				"element": "N" 
			},
			{
				"x": -1.1941015362,
				"y": -0.7378667527,
				"z": 0.9724966213,
				"element": "C" 
			},
			{
				"x": 0.1941318156,
				"y": -0.9016193425,
				"z": 1.0238258683,
				"element": "C" 
			},
			{
				"x": 0.9492247846,
				"y": -1.1460538987,
				"z": -0.1245207743,
				"element": "C" 
			},
			{
				"x": 0.2932253129,
				"y": -1.2564710685,
				"z": -1.3716381566,
				"element": "C" 
			},
			{
				"x": 1.0175048694,
				"y": -1.4525751175,
				"z": -2.5475140428,
				"element": "N" 
			},
			{
				"x": 2.3924730098,
				"y": -1.9292077783,
				"z": -2.4753334205,
				"element": "C" 
			},
			{
				"x": 3.1389870604,
				"y": -1.1445471294,
				"z": -1.3947271829,
				"element": "C" 
			},
			{
				"x": 2.4532733646,
				"y": -1.3362308986,
				"z": -0.0347842946,
				"element": "C" 
			},
			{
				"x": -1.1054586365,
				"y": -1.1172125239,
				"z": -1.4171720752,
				"element": "C" 
			},
			{
				"x": -1.8370857785,
				"y": -0.8528416484,
				"z": -0.2662451345,
				"element": "C" 
			},
			{
				"x": -0.5864672995,
				"y": 2.0156016581,
				"z": 0.2487879004,
				"element": "H" 
			},
			{
				"x": -1.2382310974,
				"y": 3.5333266513,
				"z": 0.8829281647,
				"element": "H" 
			},
			{
				"x": -2.1338821032,
				"y": 2.0183925308,
				"z": 1.091460753,
				"element": "H" 
			},
			{
				"x": 1.8522224974,
				"y": 3.326574752,
				"z": 4.6591834697,
				"element": "H" 
			},
			{
				"x": 0.907618441,
				"y": 4.0179239019,
				"z": 2.3020658235,
				"element": "H" 
			},
			{
				"x": -2.738513051,
				"y": -1.1663263336,
				"z": 2.2963628491,
				"element": "H" 
			},
			{
				"x": 0.7032521689,
				"y": -0.8427330436,
				"z": 1.9811170572,
				"element": "H" 
			},
			{
				"x": 0.4750465424,
				"y": -1.8200340743,
				"z": -3.3168053874,
				"element": "H" 
			},
			{
				"x": 2.8598423255,
				"y": -1.779267883,
				"z": -3.4543546832,
				"element": "H" 
			},
			{
				"x": 2.4477133945,
				"y": -3.0082397942,
				"z": -2.2467094804,
				"element": "H" 
			},
			{
				"x": 3.1399893437,
				"y": -0.0833946429,
				"z": -1.6693987956,
				"element": "H" 
			},
			{
				"x": 4.1819922559,
				"y": -1.4744155224,
				"z": -1.3483684841,
				"element": "H" 
			},
			{
				"x": 2.6714699502,
				"y": -2.3468599818,
				"z": 0.3392847339,
				"element": "H" 
			},
			{
				"x": 2.8726880509,
				"y": -0.6436707497,
				"z": 0.7037922707,
				"element": "H" 
			},
			{
				"x": -1.617156673,
				"y": -1.2002412644,
				"z": -2.3732152922,
				"element": "H" 
			},
			{
				"x": -2.9147098684,
				"y": -0.7273295896,
				"z": -0.3246735674,
				"element": "H" 
			}
		],
		 "valence_orbital": [ 
			{
				"type": "occ",
				"energy": -0.25128,
				"method": "rhf"
			},
			{
				"type": "occ",
				"energy": -0.24553,
				"method": "rhf"
			},
			{
				"type": "occ",
				"energy": -0.2378,
				"method": "rhf"
			},
			{
				"type": "occ",
				"energy": -0.22667,
				"method": "rhf"
			},
			{
				"type": "occ",
				"energy": -0.18769,
				"method": "rhf"
			},
			{
				"type": "unocc",
				"energy": -0.03366,
				"method": "rhf"
			},
			{
				"type": "unocc",
				"energy": -0.00511,
				"method": "rhf"
			},
			{
				"type": "unocc",
				"energy": 0.01222,
				"method": "rhf"
			},
			{
				"type": "unocc",
				"energy": 0.03317,
				"method": "rhf"
			},
			{
				"type": "unocc",
				"energy": 0.04742,
				"method": "rhf"
			}
		],
		"cosmo_sigma_profile": { 
			"-0.025": 0.0,
			"-0.024": 0.0,
			"-0.023": 0.0,
			"-0.022": 0.0,
			"-0.021": 0.0,
			"-0.02": 0.0,
			"-0.019": 0.0,
			"-0.018": 0.0,
			"-0.017": 0.0,
			"-0.016": 0.0,
			"-0.015": 0.0,
			"-0.014": 0.107994184973,
			"-0.013": 1.36469262092,
			"-0.012": 1.75301571958,
			"-0.011": 2.09108202738,
			"-0.01": 2.61491331655,
			"-0.009": 2.76171247676,
			"-0.008": 4.57017859714,
			"-0.007": 6.47462384661,
			"-0.006": 8.26134488772,
			"-0.005": 11.3465563649,
			"-0.004": 19.8344057741,
			"-0.003": 29.7013672662,
			"-0.002": 33.4857364618,
			"-0.001": 32.6245956561,
			"0.0": 26.7734555328,
			"0.001": 19.8565497458,
			"0.002": 17.618072501,
			"0.003": 21.1367290268,
			"0.004": 19.9564518924,
			"0.005": 12.3455900188,
			"0.006": 7.89810363529,
			"0.007": 3.20690927303,
			"0.008": 2.37848385905,
			"0.009": 1.76239377973,
			"0.01": 1.92272776744,
			"0.011": 2.9171595545,
			"0.012": 2.70139890438,
			"0.013": 4.76577573003,
			"0.014": 3.82895910418,
			"0.015": 0.189015328213,
			"0.016": 0.0,
			"0.017": 0.0,
			"0.018": 0.0,
			"0.019": 0.0,
			"0.02": 0.0,
			"0.021": 0.0,
			"0.022": 0.0,
			"0.023": 0.0,
			"0.024": 0.0,
			"0.025": 0.0
		}
	}
}
