{
	 "smiles": "C=C1CCC(=O)O1", 
	 "Tm": 291.15, 
	 "num_atms": 13, 
	 "gaussian": { 
		 "optdone": 1, 
		 "sigma_profile": "yes", 
		 "theory": "DFT", 
		 "functional": "B3LYP", 
		 "basiset": "6-31G**", 
		 "properties": { 
			 "R2extent": 1371.3075, 
			 "electric_dipole_moment_norm": 3.96480266344, 
			 "electric_quadrupole_moment_norm": 14.546575552, 
			 "total_energy": -344.583219756, 
			 "HOMO_LUMO_gap": 0.24221, 
			 "cosmo_polarized_energy": -9.06, 
			 "cosmo_cavitation_energy": 16.93, 
			 "cosmo_dispersion_energy": -12.7, 
			 "cosmo_repulsion_energy": 1.09, 
			 "cosmo_total_nonelectrostatic_energy": 5.32, 
			 "SMD_solvation_energy": 4.75 
		},
		"coords": [
			{
				"x": -1.0717467188,
				"y": 1.510387906,
				"z": 2.1234394455,
				"element": "C" 
			},
			{
				"x": -0.5761797003,
				"y": 1.5989346538,
				"z": 0.8937555175,
				"element": "C" 
			},
			{
				"x": -0.649667276,
				"y": 0.6204479256,
				"z": -0.2608258882,
				"element": "C" 
			},
			{
				"x": 0.4808857894,
				"y": 1.0966838197,
				"z": -1.1820002043,
				"element": "C" 
			},
			{
				"x": 0.7441081027,
				"y": 2.527354746,
				"z": -0.7287997338,
				"element": "C" 
			},
			{
				"x": 1.3830078837,
				"y": 3.3884549361,
				"z": -1.2660328795,
				"element": "O" 
			},
			{
				"x": 0.1295860373,
				"y": 2.7266974713,
				"z": 0.4894206742,
				"element": "O" 
			},
			{
				"x": -1.6251233909,
				"y": 0.6288088729,
				"z": 2.42378438,
				"element": "H" 
			},
			{
				"x": -0.9428517992,
				"y": 2.3118849212,
				"z": 2.8405956968,
				"element": "H" 
			},
			{
				"x": -1.6204410511,
				"y": 0.7099592616,
				"z": -0.7625799846,
				"element": "H" 
			},
			{
				"x": -0.5458876957,
				"y": -0.413261141,
				"z": 0.0751211084,
				"element": "H" 
			},
			{
				"x": 1.4061676598,
				"y": 0.5280063377,
				"z": -1.0350975349,
				"element": "H" 
			},
			{
				"x": 0.249142159,
				"y": 1.0781402892,
				"z": -2.2480805973,
				"element": "H" 
			}
		],
		 "valence_orbital": [ 
			{
				"type": "occ",
				"energy": -0.38697,
				"method": "rhf"
			},
			{
				"type": "occ",
				"energy": -0.36419,
				"method": "rhf"
			},
			{
				"type": "occ",
				"energy": -0.3399,
				"method": "rhf"
			},
			{
				"type": "occ",
				"energy": -0.27896,
				"method": "rhf"
			},
			{
				"type": "occ",
				"energy": -0.2464,
				"method": "rhf"
			},
			{
				"type": "unocc",
				"energy": -0.00419,
				"method": "rhf"
			},
			{
				"type": "unocc",
				"energy": 0.01703,
				"method": "rhf"
			},
			{
				"type": "unocc",
				"energy": 0.07992,
				"method": "rhf"
			},
			{
				"type": "unocc",
				"energy": 0.11877,
				"method": "rhf"
			},
			{
				"type": "unocc",
				"energy": 0.13049,
				"method": "rhf"
			}
		],
		"cosmo_sigma_profile": { 
			"-0.025": 0.0,
			"-0.024": 0.0,
			"-0.023": 0.0,
			"-0.022": 0.0,
			"-0.021": 0.0,
			"-0.02": 0.0,
			"-0.019": 0.0,
			"-0.018": 0.0,
			"-0.017": 0.0,
			"-0.016": 0.0,
			"-0.015": 0.0,
			"-0.014": 0.0,
			"-0.013": 0.0,
			"-0.012": 0.0,
			"-0.011": 0.0,
			"-0.01": 0.0,
			"-0.009": 0.0,
			"-0.008": 2.05287594436,
			"-0.007": 7.3077402262,
			"-0.006": 14.7363072272,
			"-0.005": 13.1199949813,
			"-0.004": 12.5526934516,
			"-0.003": 10.8577703384,
			"-0.002": 9.79322861973,
			"-0.001": 5.36949175492,
			"0.0": 5.59381364833,
			"0.001": 4.16886204839,
			"0.002": 4.95808861464,
			"0.003": 5.06275856227,
			"0.004": 6.24533597198,
			"0.005": 6.48240460683,
			"0.006": 3.99635004766,
			"0.007": 2.1998106587,
			"0.008": 3.40822658835,
			"0.009": 4.25455598439,
			"0.01": 3.52730751236,
			"0.011": 5.96387320976,
			"0.012": 2.84710601896,
			"0.013": 0.1177596427,
			"0.014": 0.0,
			"0.015": 0.0,
			"0.016": 0.0,
			"0.017": 0.0,
			"0.018": 0.0,
			"0.019": 0.0,
			"0.02": 0.0,
			"0.021": 0.0,
			"0.022": 0.0,
			"0.023": 0.0,
			"0.024": 0.0,
			"0.025": 0.0
		}
	}
}
