{
	 "smiles": "CCC(C)C(O)=O", 
	 "Tm": 203.15, 
	 "num_atms": 17, 
	 "gaussian": { 
		 "optdone": 1, 
		 "sigma_profile": "yes", 
		 "theory": "DFT", 
		 "functional": "B3LYP", 
		 "basiset": "6-31G**", 
		 "properties": { 
			 "R2extent": 1379.8464, 
			 "electric_dipole_moment_norm": 1.60200894816, 
			 "electric_quadrupole_moment_norm": 8.97170808876, 
			 "total_energy": -347.03466398, 
			 "HOMO_LUMO_gap": 0.28073, 
			 "cosmo_polarized_energy": -7.57, 
			 "cosmo_cavitation_energy": 19.8, 
			 "cosmo_dispersion_energy": -14.37, 
			 "cosmo_repulsion_energy": 1.24, 
			 "cosmo_total_nonelectrostatic_energy": 6.67, 
			 "SMD_solvation_energy": 4.78 
		},
		"coords": [
			{
				"x": -1.3774730628,
				"y": -0.5106099882,
				"z": -1.4747891481,
				"element": "C" 
			},
			{
				"x": -1.252005408,
				"y": 0.4580164791,
				"z": -0.2945389367,
				"element": "C" 
			},
			{
				"x": -1.0130524884,
				"y": -0.2421386675,
				"z": 1.0691745018,
				"element": "C" 
			},
			{
				"x": -2.1833953966,
				"y": -1.122048902,
				"z": 1.5178823121,
				"element": "C" 
			},
			{
				"x": -0.7117212893,
				"y": 0.8104707325,
				"z": 2.1238780069,
				"element": "C" 
			},
			{
				"x": 0.5036141035,
				"y": 1.3856257614,
				"z": 1.9292530511,
				"element": "O" 
			},
			{
				"x": -1.4411803083,
				"y": 1.1421099536,
				"z": 3.0331266878,
				"element": "O" 
			},
			{
				"x": -2.2462898155,
				"y": -1.1685247096,
				"z": -1.3781301357,
				"element": "H" 
			},
			{
				"x": -1.4875451964,
				"y": 0.0413191469,
				"z": -2.4137325254,
				"element": "H" 
			},
			{
				"x": -0.4865109199,
				"y": -1.1427314342,
				"z": -1.5637085335,
				"element": "H" 
			},
			{
				"x": -2.1592532688,
				"y": 1.0718374468,
				"z": -0.2193761071,
				"element": "H" 
			},
			{
				"x": -0.4211321198,
				"y": 1.1468670509,
				"z": -0.4801390499,
				"element": "H" 
			},
			{
				"x": -0.104360779,
				"y": -0.8513771727,
				"z": 0.9696801654,
				"element": "H" 
			},
			{
				"x": -2.3696121973,
				"y": -1.9218635885,
				"z": 0.7966851587,
				"element": "H" 
			},
			{
				"x": -1.9788400832,
				"y": -1.5816968477,
				"z": 2.4885673515,
				"element": "H" 
			},
			{
				"x": -3.0948565568,
				"y": -0.5267454367,
				"z": 1.6234926189,
				"element": "H" 
			},
			{
				"x": 0.5954147867,
				"y": 2.0574901758,
				"z": 2.6255745821,
				"element": "H" 
			}
		],
		 "valence_orbital": [ 
			{
				"type": "occ",
				"energy": -0.35249,
				"method": "rhf"
			},
			{
				"type": "occ",
				"energy": -0.33569,
				"method": "rhf"
			},
			{
				"type": "occ",
				"energy": -0.33053,
				"method": "rhf"
			},
			{
				"type": "occ",
				"energy": -0.31378,
				"method": "rhf"
			},
			{
				"type": "occ",
				"energy": -0.26934,
				"method": "rhf"
			},
			{
				"type": "unocc",
				"energy": 0.01139,
				"method": "rhf"
			},
			{
				"type": "unocc",
				"energy": 0.07727,
				"method": "rhf"
			},
			{
				"type": "unocc",
				"energy": 0.09185,
				"method": "rhf"
			},
			{
				"type": "unocc",
				"energy": 0.12983,
				"method": "rhf"
			},
			{
				"type": "unocc",
				"energy": 0.13928,
				"method": "rhf"
			}
		],
		"cosmo_sigma_profile": { 
			"-0.025": 0.0,
			"-0.024": 0.0,
			"-0.023": 0.0,
			"-0.022": 0.0,
			"-0.021": 0.0,
			"-0.02": 0.0,
			"-0.019": 0.0180920222851,
			"-0.018": 0.60767402129,
			"-0.017": 0.833957638409,
			"-0.016": 1.09573563652,
			"-0.015": 0.382863564288,
			"-0.014": 0.744457573828,
			"-0.013": 0.405173783959,
			"-0.012": 0.500141136324,
			"-0.011": 1.06755763308,
			"-0.01": 0.598889688743,
			"-0.009": 0.528655632112,
			"-0.008": 0.695558520169,
			"-0.007": 0.919710151227,
			"-0.006": 1.2303743016,
			"-0.005": 1.75441815878,
			"-0.004": 7.23451359586,
			"-0.003": 20.0093313663,
			"-0.002": 21.215343851,
			"-0.001": 22.4329562291,
			"0.0": 19.6251833646,
			"0.001": 15.7265232403,
			"0.002": 5.05713748348,
			"0.003": 2.90388791379,
			"0.004": 2.77959267762,
			"0.005": 2.97589057687,
			"0.006": 2.18962698856,
			"0.007": 2.22062029233,
			"0.008": 2.82501978266,
			"0.009": 2.88438520612,
			"0.01": 2.81160535607,
			"0.011": 2.85487953506,
			"0.012": 5.26333827993,
			"0.013": 1.08365037865,
			"0.014": 0.0,
			"0.015": 0.0,
			"0.016": 0.0,
			"0.017": 0.0,
			"0.018": 0.0,
			"0.019": 0.0,
			"0.02": 0.0,
			"0.021": 0.0,
			"0.022": 0.0,
			"0.023": 0.0,
			"0.024": 0.0,
			"0.025": 0.0
		}
	}
}
