{
	 "smiles": "CC(=O)NC1=C(C=CC2=CC=CC=C2)C=C2CC(N(C(C)=O)C2=C1)C1=CC=CC=C1", 
	 "Tm": 545.15, 
	 "num_atms": 54, 
	 "gaussian": { 
		 "optdone": 1, 
		 "sigma_profile": "yes", 
		 "theory": "DFT", 
		 "functional": "B3LYP", 
		 "basiset": "6-31G**", 
		 "properties": { 
			 "R2extent": 18478.6406, 
			 "electric_dipole_moment_norm": 7.20398637006, 
			 "electric_quadrupole_moment_norm": 11.4638521135, 
			 "total_energy": -1265.21783697, 
			 "HOMO_LUMO_gap": 0.14148, 
			 "cosmo_polarized_energy": -20.65, 
			 "cosmo_cavitation_energy": 56.98, 
			 "cosmo_dispersion_energy": -38.37, 
			 "cosmo_repulsion_energy": 2.86, 
			 "cosmo_total_nonelectrostatic_energy": 21.48, 
			 "SMD_solvation_energy": 10.61 
		},
		"coords": [
			{
				"x": 0.7753063399,
				"y": -2.8465724661,
				"z": 1.1180082323,
				"element": "C" 
			},
			{
				"x": -0.6258344408,
				"y": -2.6638181392,
				"z": 0.5683614317,
				"element": "C" 
			},
			{
				"x": -1.3575538318,
				"y": -3.6141547735,
				"z": 0.3257056023,
				"element": "O" 
			},
			{
				"x": -1.1032163539,
				"y": -1.377956597,
				"z": 0.3618971713,
				"element": "N" 
			},
			{
				"x": -0.5191539991,
				"y": -0.1117878611,
				"z": 0.5694691802,
				"element": "C" 
			},
			{
				"x": -1.3078025415,
				"y": 0.9371923693,
				"z": 1.1194698591,
				"element": "C" 
			},
			{
				"x": -2.692075577,
				"y": 0.8140151779,
				"z": 1.5893039073,
				"element": "C" 
			},
			{
				"x": -3.3716644241,
				"y": -0.2720498915,
				"z": 2.0244960979,
				"element": "C" 
			},
			{
				"x": -4.7556557101,
				"y": -0.2830302051,
				"z": 2.5134538743,
				"element": "C" 
			},
			{
				"x": -5.6440521949,
				"y": 0.8010474551,
				"z": 2.3683497534,
				"element": "C" 
			},
			{
				"x": -6.941923977,
				"y": 0.7333270378,
				"z": 2.86569462,
				"element": "C" 
			},
			{
				"x": -7.3932883685,
				"y": -0.4200824354,
				"z": 3.5147657957,
				"element": "C" 
			},
			{
				"x": -6.5314987587,
				"y": -1.5087013617,
				"z": 3.6558477331,
				"element": "C" 
			},
			{
				"x": -5.2318193477,
				"y": -1.4406182607,
				"z": 3.1580614412,
				"element": "C" 
			},
			{
				"x": -0.7181145888,
				"y": 2.2189089264,
				"z": 1.2092815141,
				"element": "C" 
			},
			{
				"x": 0.5934821265,
				"y": 2.4388306983,
				"z": 0.835230271,
				"element": "C" 
			},
			{
				"x": 1.4402606018,
				"y": 3.6842938399,
				"z": 0.9188893969,
				"element": "C" 
			},
			{
				"x": 2.703384317,
				"y": 3.3230740603,
				"z": 0.072558196,
				"element": "C" 
			},
			{
				"x": 2.6430555773,
				"y": 1.8405598543,
				"z": -0.0333706565,
				"element": "N" 
			},
			{
				"x": 3.6974078998,
				"y": 1.0271436187,
				"z": -0.416189373,
				"element": "C" 
			},
			{
				"x": 5.0337023293,
				"y": 1.7117450113,
				"z": -0.6449585572,
				"element": "C" 
			},
			{
				"x": 3.5659808105,
				"y": -0.1843901699,
				"z": -0.5437158873,
				"element": "O" 
			},
			{
				"x": 1.3506964777,
				"y": 1.3840695897,
				"z": 0.3098077625,
				"element": "C" 
			},
			{
				"x": 0.7992759634,
				"y": 0.1161286411,
				"z": 0.1457765753,
				"element": "C" 
			},
			{
				"x": 2.7126612132,
				"y": 4.0203985282,
				"z": -1.2824969993,
				"element": "C" 
			},
			{
				"x": 2.0209758794,
				"y": 3.5022293646,
				"z": -2.3850519096,
				"element": "C" 
			},
			{
				"x": 2.0010119795,
				"y": 4.1962981513,
				"z": -3.5957929825,
				"element": "C" 
			},
			{
				"x": 2.6704394226,
				"y": 5.4150809041,
				"z": -3.721627292,
				"element": "C" 
			},
			{
				"x": 3.3648867237,
				"y": 5.9366558462,
				"z": -2.6288752363,
				"element": "C" 
			},
			{
				"x": 3.3861340807,
				"y": 5.2412911964,
				"z": -1.4191284067,
				"element": "C" 
			},
			{
				"x": 1.0682331078,
				"y": -2.0554322242,
				"z": 1.8114935562,
				"element": "H" 
			},
			{
				"x": 1.5088954909,
				"y": -2.8639756547,
				"z": 0.3055082073,
				"element": "H" 
			},
			{
				"x": 0.8014477353,
				"y": -3.8161502436,
				"z": 1.6167650832,
				"element": "H" 
			},
			{
				"x": -2.0869981914,
				"y": -1.3828559533,
				"z": 0.1167628988,
				"element": "H" 
			},
			{
				"x": -3.2064139746,
				"y": 1.7732056718,
				"z": 1.637025487,
				"element": "H" 
			},
			{
				"x": -2.8708701364,
				"y": -1.2342200999,
				"z": 2.0782452457,
				"element": "H" 
			},
			{
				"x": -5.3236374211,
				"y": 1.6987418464,
				"z": 1.8483414182,
				"element": "H" 
			},
			{
				"x": -7.6094176537,
				"y": 1.581327438,
				"z": 2.7396069597,
				"element": "H" 
			},
			{
				"x": -8.4082325678,
				"y": -0.470414592,
				"z": 3.8980307562,
				"element": "H" 
			},
			{
				"x": -6.871550693,
				"y": -2.413580142,
				"z": 4.1514647225,
				"element": "H" 
			},
			{
				"x": -4.5666848886,
				"y": -2.2932308769,
				"z": 3.2694407761,
				"element": "H" 
			},
			{
				"x": -1.3116586604,
				"y": 3.0353670633,
				"z": 1.6133000499,
				"element": "H" 
			},
			{
				"x": 1.7217458585,
				"y": 3.897679952,
				"z": 1.9578345995,
				"element": "H" 
			},
			{
				"x": 0.9461869146,
				"y": 4.5759710921,
				"z": 0.5241793237,
				"element": "H" 
			},
			{
				"x": 3.6086458553,
				"y": 3.6079224706,
				"z": 0.6150805146,
				"element": "H" 
			},
			{
				"x": 4.960667616,
				"y": 2.5195223835,
				"z": -1.3782676462,
				"element": "H" 
			},
			{
				"x": 5.4207980841,
				"y": 2.1400112669,
				"z": 0.2866956565,
				"element": "H" 
			},
			{
				"x": 5.7321198258,
				"y": 0.9553221761,
				"z": -1.0014888983,
				"element": "H" 
			},
			{
				"x": 1.375910312,
				"y": -0.663613833,
				"z": -0.324487377,
				"element": "H" 
			},
			{
				"x": 1.503048356,
				"y": 2.5521071423,
				"z": -2.299668782,
				"element": "H" 
			},
			{
				"x": 1.4626565186,
				"y": 3.7812985596,
				"z": -4.4430223733,
				"element": "H" 
			},
			{
				"x": 2.6560264478,
				"y": 5.9512419293,
				"z": -4.6659720689,
				"element": "H" 
			},
			{
				"x": 3.896620144,
				"y": 6.8795705956,
				"z": -2.7190123907,
				"element": "H" 
			},
			{
				"x": 3.933754292,
				"y": 5.6500559226,
				"z": -0.5725768338,
				"element": "H" 
			}
		],
		 "valence_orbital": [ 
			{
				"type": "occ",
				"energy": -0.24916,
				"method": "rhf"
			},
			{
				"type": "occ",
				"energy": -0.24403,
				"method": "rhf"
			},
			{
				"type": "occ",
				"energy": -0.24063,
				"method": "rhf"
			},
			{
				"type": "occ",
				"energy": -0.22907,
				"method": "rhf"
			},
			{
				"type": "occ",
				"energy": -0.19393,
				"method": "rhf"
			},
			{
				"type": "unocc",
				"energy": -0.05245,
				"method": "rhf"
			},
			{
				"type": "unocc",
				"energy": -0.01933,
				"method": "rhf"
			},
			{
				"type": "unocc",
				"energy": -0.01696,
				"method": "rhf"
			},
			{
				"type": "unocc",
				"energy": -0.01001,
				"method": "rhf"
			},
			{
				"type": "unocc",
				"energy": -0.00076,
				"method": "rhf"
			}
		],
		"cosmo_sigma_profile": { 
			"-0.025": 0.0,
			"-0.024": 0.0,
			"-0.023": 0.0,
			"-0.022": 0.0,
			"-0.021": 0.0,
			"-0.02": 0.0,
			"-0.019": 0.0,
			"-0.018": 0.0,
			"-0.017": 0.0,
			"-0.016": 0.0,
			"-0.015": 0.0,
			"-0.014": 0.0,
			"-0.013": 0.0,
			"-0.012": 0.0776259539117,
			"-0.011": 0.726561748355,
			"-0.01": 0.614393011447,
			"-0.009": 0.598898984465,
			"-0.008": 1.50804196364,
			"-0.007": 9.32937529851,
			"-0.006": 25.3822758148,
			"-0.005": 39.7833190461,
			"-0.004": 41.980670132,
			"-0.003": 44.3802664548,
			"-0.002": 41.6185064419,
			"-0.001": 36.7240577067,
			"0.0": 26.402537184,
			"0.001": 27.3109803848,
			"0.002": 27.2564742615,
			"0.003": 29.8231993885,
			"0.004": 31.2626554977,
			"0.005": 23.1503024302,
			"0.006": 13.6885636232,
			"0.007": 3.42587931553,
			"0.008": 2.91762973062,
			"0.009": 2.36046648073,
			"0.01": 3.24504233256,
			"0.011": 2.81091066248,
			"0.012": 4.31792191707,
			"0.013": 6.56696036192,
			"0.014": 6.16512872745,
			"0.015": 0.947305258966,
			"0.016": 0.0,
			"0.017": 0.0,
			"0.018": 0.0,
			"0.019": 0.0,
			"0.02": 0.0,
			"0.021": 0.0,
			"0.022": 0.0,
			"0.023": 0.0,
			"0.024": 0.0,
			"0.025": 0.0
		}
	}
}
