{
	 "smiles": "NC1=CC(OC2=NC=CC=N2)=CC=C1", 
	 "Tm": 399.15, 
	 "num_atms": 23, 
	 "gaussian": { 
		 "optdone": 1, 
		 "sigma_profile": "yes", 
		 "theory": "DFT", 
		 "functional": "B3LYP", 
		 "basiset": "6-31G**", 
		 "properties": { 
			 "R2extent": 4461.5358, 
			 "electric_dipole_moment_norm": 1.48871570825, 
			 "electric_quadrupole_moment_norm": 26.6295057119, 
			 "total_energy": -625.956080916, 
			 "HOMO_LUMO_gap": 0.16298, 
			 "cosmo_polarized_energy": -15.63, 
			 "cosmo_cavitation_energy": 28.12, 
			 "cosmo_dispersion_energy": -20.65, 
			 "cosmo_repulsion_energy": 1.64, 
			 "cosmo_total_nonelectrostatic_energy": 9.11, 
			 "SMD_solvation_energy": 2.59 
		},
		"coords": [
			{
				"x": -0.5096780758,
				"y": 0.1771579194,
				"z": 2.9129415946,
				"element": "N" 
			},
			{
				"x": -0.8700665599,
				"y": 0.7997846303,
				"z": 1.7169294566,
				"element": "C" 
			},
			{
				"x": -1.5926177975,
				"y": 0.0959217595,
				"z": 0.7386060714,
				"element": "C" 
			},
			{
				"x": -1.8968154893,
				"y": 0.7123637413,
				"z": -0.4680015494,
				"element": "C" 
			},
			{
				"x": -2.7085804224,
				"y": 0.009262555,
				"z": -1.3629541359,
				"element": "O" 
			},
			{
				"x": -2.1786460565,
				"y": -0.5178989432,
				"z": -2.4901220043,
				"element": "C" 
			},
			{
				"x": -3.0904460285,
				"y": -1.0909986043,
				"z": -3.2845363105,
				"element": "N" 
			},
			{
				"x": -2.6100118039,
				"y": -1.6352313904,
				"z": -4.4035061028,
				"element": "C" 
			},
			{
				"x": -1.2546460615,
				"y": -1.6150811366,
				"z": -4.7371010943,
				"element": "C" 
			},
			{
				"x": -0.4140743672,
				"y": -0.9875630049,
				"z": -3.8224324146,
				"element": "C" 
			},
			{
				"x": -0.8624813452,
				"y": -0.4335200619,
				"z": -2.6905381117,
				"element": "N" 
			},
			{
				"x": -1.5152031604,
				"y": 2.0222257089,
				"z": -0.7483684129,
				"element": "C" 
			},
			{
				"x": -0.7948384701,
				"y": 2.7140357388,
				"z": 0.2254733559,
				"element": "C" 
			},
			{
				"x": -0.4721260421,
				"y": 2.1200746848,
				"z": 1.4436950681,
				"element": "C" 
			},
			{
				"x": -1.0976936505,
				"y": -0.596599132,
				"z": 3.1901618152,
				"element": "H" 
			},
			{
				"x": -0.323067571,
				"y": 0.8039608124,
				"z": 3.6833685397,
				"element": "H" 
			},
			{
				"x": -1.9210157373,
				"y": -0.9243188621,
				"z": 0.9115010615,
				"element": "H" 
			},
			{
				"x": -3.3420351775,
				"y": -2.1054192745,
				"z": -5.0585761089,
				"element": "H" 
			},
			{
				"x": -0.8805506353,
				"y": -2.0609898507,
				"z": -5.6510519966,
				"element": "H" 
			},
			{
				"x": 0.6593972253,
				"y": -0.9231223971,
				"z": -3.9929874875,
				"element": "H" 
			},
			{
				"x": -1.7794327873,
				"y": 2.4778632324,
				"z": -1.6954534451,
				"element": "H" 
			},
			{
				"x": -0.4842507605,
				"y": 3.7373688563,
				"z": 0.0348726386,
				"element": "H" 
			},
			{
				"x": 0.0898807741,
				"y": 2.6754230186,
				"z": 2.1900795728,
				"element": "H" 
			}
		],
		 "valence_orbital": [ 
			{
				"type": "occ",
				"energy": -0.30216,
				"method": "rhf"
			},
			{
				"type": "occ",
				"energy": -0.25484,
				"method": "rhf"
			},
			{
				"type": "occ",
				"energy": -0.25129,
				"method": "rhf"
			},
			{
				"type": "occ",
				"energy": -0.23684,
				"method": "rhf"
			},
			{
				"type": "occ",
				"energy": -0.20125,
				"method": "rhf"
			},
			{
				"type": "unocc",
				"energy": -0.03827,
				"method": "rhf"
			},
			{
				"type": "unocc",
				"energy": -0.00986,
				"method": "rhf"
			},
			{
				"type": "unocc",
				"energy": 0.0084,
				"method": "rhf"
			},
			{
				"type": "unocc",
				"energy": 0.01963,
				"method": "rhf"
			},
			{
				"type": "unocc",
				"energy": 0.08146,
				"method": "rhf"
			}
		],
		"cosmo_sigma_profile": { 
			"-0.025": 0.0,
			"-0.024": 0.0,
			"-0.023": 0.0,
			"-0.022": 0.0,
			"-0.021": 0.0,
			"-0.02": 0.0,
			"-0.019": 0.0,
			"-0.018": 0.0,
			"-0.017": 0.0,
			"-0.016": 0.0,
			"-0.015": 0.0,
			"-0.014": 0.0,
			"-0.013": 0.606121562623,
			"-0.012": 2.73449537274,
			"-0.011": 3.26196375655,
			"-0.01": 2.73551899891,
			"-0.009": 3.63943471863,
			"-0.008": 6.7774105843,
			"-0.007": 10.5400133173,
			"-0.006": 14.5115430392,
			"-0.005": 13.3506406716,
			"-0.004": 13.5047983534,
			"-0.003": 12.9796477949,
			"-0.002": 13.1876151163,
			"-0.001": 15.1162437021,
			"0.0": 14.0232939928,
			"0.001": 14.2779520473,
			"0.002": 9.14373314939,
			"0.003": 9.64693322945,
			"0.004": 11.1144532782,
			"0.005": 11.5232239878,
			"0.006": 11.5127467824,
			"0.007": 5.4249658952,
			"0.008": 4.05607532969,
			"0.009": 4.23533285877,
			"0.01": 4.11347425903,
			"0.011": 4.01912775411,
			"0.012": 3.01852936461,
			"0.013": 3.13607190346,
			"0.014": 2.22565985848,
			"0.015": 1.12301811528,
			"0.016": 0.0058699735308,
			"0.017": 0.0,
			"0.018": 0.0,
			"0.019": 0.0,
			"0.02": 0.0,
			"0.021": 0.0,
			"0.022": 0.0,
			"0.023": 0.0,
			"0.024": 0.0,
			"0.025": 0.0
		}
	}
}
