{
	 "smiles": "CC(N)C1=CC=CC=C1", 
	 "Tm": 305.15, 
	 "num_atms": 20, 
	 "gaussian": { 
		 "optdone": 1, 
		 "sigma_profile": "yes", 
		 "theory": "DFT", 
		 "functional": "B3LYP", 
		 "basiset": "6-31G**", 
		 "properties": { 
			 "R2extent": 1471.0179, 
			 "electric_dipole_moment_norm": 1.43146255278, 
			 "electric_quadrupole_moment_norm": 4.02925099367, 
			 "total_energy": -366.233005519, 
			 "HOMO_LUMO_gap": 0.23336, 
			 "cosmo_polarized_energy": -6.39, 
			 "cosmo_cavitation_energy": 22.36, 
			 "cosmo_dispersion_energy": -16.59, 
			 "cosmo_repulsion_energy": 1.36, 
			 "cosmo_total_nonelectrostatic_energy": 7.13, 
			 "SMD_solvation_energy": 3.12 
		},
		"coords": [
			{
				"x": -0.0572638554,
				"y": -1.8159458774,
				"z": -1.9949631143,
				"element": "C" 
			},
			{
				"x": 0.3581601128,
				"y": -0.5362534635,
				"z": -1.2502353,
				"element": "C" 
			},
			{
				"x": 1.6205657095,
				"y": -0.6785728342,
				"z": -0.5030067268,
				"element": "N" 
			},
			{
				"x": -0.7163616825,
				"y": 0.020610935,
				"z": -0.3138760176,
				"element": "C" 
			},
			{
				"x": -0.3641830751,
				"y": 1.0118996447,
				"z": 0.6166864117,
				"element": "C" 
			},
			{
				"x": -1.3176579634,
				"y": 1.5681359,
				"z": 1.4674908049,
				"element": "C" 
			},
			{
				"x": -2.6475978554,
				"y": 1.1439544939,
				"z": 1.4090256806,
				"element": "C" 
			},
			{
				"x": -3.0103260302,
				"y": 0.159646124,
				"z": 0.4912493111,
				"element": "C" 
			},
			{
				"x": -2.052785415,
				"y": -0.3965005447,
				"z": -0.3617739389,
				"element": "C" 
			},
			{
				"x": 0.7720660074,
				"y": -2.1636875181,
				"z": -2.6201973705,
				"element": "H" 
			},
			{
				"x": -0.916591345,
				"y": -1.6562187258,
				"z": -2.6546602908,
				"element": "H" 
			},
			{
				"x": -0.3110726046,
				"y": -2.6184551024,
				"z": -1.2925931726,
				"element": "H" 
			},
			{
				"x": 0.5522347042,
				"y": 0.2342505653,
				"z": -2.0120019929,
				"element": "H" 
			},
			{
				"x": 1.5114815347,
				"y": -1.4000163865,
				"z": 0.2081678529,
				"element": "H" 
			},
			{
				"x": 2.3527825069,
				"y": -1.0002100914,
				"z": -1.1325394256,
				"element": "H" 
			},
			{
				"x": 0.6722674167,
				"y": 1.3279278278,
				"z": 0.6689918453,
				"element": "H" 
			},
			{
				"x": -1.0217330849,
				"y": 2.3337314135,
				"z": 2.1798204959,
				"element": "H" 
			},
			{
				"x": -3.3913585381,
				"y": 1.5757902015,
				"z": 2.0728460863,
				"element": "H" 
			},
			{
				"x": -4.0403214666,
				"y": -0.1823528396,
				"z": 0.4364000163,
				"element": "H" 
			},
			{
				"x": -2.3624050758,
				"y": -1.1621337219,
				"z": -1.0652311548,
				"element": "H" 
			}
		],
		 "valence_orbital": [ 
			{
				"type": "occ",
				"energy": -0.32987,
				"method": "rhf"
			},
			{
				"type": "occ",
				"energy": -0.32315,
				"method": "rhf"
			},
			{
				"type": "occ",
				"energy": -0.24316,
				"method": "rhf"
			},
			{
				"type": "occ",
				"energy": -0.24084,
				"method": "rhf"
			},
			{
				"type": "occ",
				"energy": -0.22866,
				"method": "rhf"
			},
			{
				"type": "unocc",
				"energy": 0.0047,
				"method": "rhf"
			},
			{
				"type": "unocc",
				"energy": 0.00797,
				"method": "rhf"
			},
			{
				"type": "unocc",
				"energy": 0.08481,
				"method": "rhf"
			},
			{
				"type": "unocc",
				"energy": 0.10667,
				"method": "rhf"
			},
			{
				"type": "unocc",
				"energy": 0.13125,
				"method": "rhf"
			}
		],
		"cosmo_sigma_profile": { 
			"-0.025": 0.0,
			"-0.024": 0.0,
			"-0.023": 0.0,
			"-0.022": 0.0,
			"-0.021": 0.0,
			"-0.02": 0.0,
			"-0.019": 0.0,
			"-0.018": 0.0,
			"-0.017": 0.0,
			"-0.016": 0.0,
			"-0.015": 0.0,
			"-0.014": 0.0,
			"-0.013": 0.0,
			"-0.012": 0.0,
			"-0.011": 0.0,
			"-0.01": 0.226167801324,
			"-0.009": 2.53904063821,
			"-0.008": 2.63887160586,
			"-0.007": 2.44021913989,
			"-0.006": 4.30084990811,
			"-0.005": 9.8416543908,
			"-0.004": 14.594471733,
			"-0.003": 21.402981775,
			"-0.002": 17.1491284105,
			"-0.001": 16.4986019377,
			"0.0": 13.2718036773,
			"0.001": 13.2034779544,
			"0.002": 9.5227552987,
			"0.003": 8.32972997835,
			"0.004": 8.66581630991,
			"0.005": 9.90450112656,
			"0.006": 8.67407393536,
			"0.007": 5.66735438191,
			"0.008": 1.02981369427,
			"0.009": 0.886855371853,
			"0.01": 0.602745510935,
			"0.011": 0.860421511567,
			"0.012": 0.996733509642,
			"0.013": 0.379056779002,
			"0.014": 0.509006356441,
			"0.015": 0.528140573699,
			"0.016": 0.643918297967,
			"0.017": 0.290580877893,
			"0.018": 0.0,
			"0.019": 0.0,
			"0.02": 0.0,
			"0.021": 0.0,
			"0.022": 0.0,
			"0.023": 0.0,
			"0.024": 0.0,
			"0.025": 0.0
		}
	}
}
