{
	 "smiles": "ClC1=CC=CC=C1C(=O)C(=O)C1=CC=CC=C1Cl", 
	 "Tm": 407.15, 
	 "num_atms": 26, 
	 "gaussian": { 
		 "optdone": 1, 
		 "sigma_profile": "yes", 
		 "theory": "DFT", 
		 "functional": "B3LYP", 
		 "basiset": "6-31G**", 
		 "properties": { 
			 "R2extent": 5239.1643, 
			 "electric_dipole_moment_norm": 1.4850970911, 
			 "electric_quadrupole_moment_norm": 31.1140214591, 
			 "total_energy": -1609.11988804, 
			 "HOMO_LUMO_gap": 0.16402, 
			 "cosmo_polarized_energy": -11.1, 
			 "cosmo_cavitation_energy": 34.5, 
			 "cosmo_dispersion_energy": -24.32, 
			 "cosmo_repulsion_energy": 1.85, 
			 "cosmo_total_nonelectrostatic_energy": 12.03, 
			 "SMD_solvation_energy": 6.28 
		},
		"coords": [
			{
				"x": -0.9381258695,
				"y": -1.2821271231,
				"z": 1.7943067747,
				"element": "Cl" 
			},
			{
				"x": -0.0457885227,
				"y": -2.4605192479,
				"z": 0.844677037,
				"element": "C" 
			},
			{
				"x": -0.1457646529,
				"y": -3.7961631555,
				"z": 1.2355485968,
				"element": "C" 
			},
			{
				"x": 0.5011279651,
				"y": -4.7846031397,
				"z": 0.4960640704,
				"element": "C" 
			},
			{
				"x": 1.2361751745,
				"y": -4.4439559822,
				"z": -0.6421081956,
				"element": "C" 
			},
			{
				"x": 1.3247140671,
				"y": -3.1119993921,
				"z": -1.0255301076,
				"element": "C" 
			},
			{
				"x": 0.7011505015,
				"y": -2.0908373785,
				"z": -0.2866735097,
				"element": "C" 
			},
			{
				"x": 0.8877798145,
				"y": -0.7012492401,
				"z": -0.8030936231,
				"element": "C" 
			},
			{
				"x": 1.2809500299,
				"y": -0.4816300305,
				"z": -1.9375492329,
				"element": "O" 
			},
			{
				"x": 0.8840473456,
				"y": 0.5155448024,
				"z": 0.1352590062,
				"element": "C" 
			},
			{
				"x": 1.7445564799,
				"y": 0.5071079457,
				"z": 1.0008551595,
				"element": "O" 
			},
			{
				"x": 0.0812695364,
				"y": 1.7384442782,
				"z": -0.1690123556,
				"element": "C" 
			},
			{
				"x": 0.5930751204,
				"y": 2.9509105399,
				"z": 0.3264606714,
				"element": "C" 
			},
			{
				"x": -0.0540612629,
				"y": 4.1589014468,
				"z": 0.1007891073,
				"element": "C" 
			},
			{
				"x": -1.2484538014,
				"y": 4.1744193411,
				"z": -0.62375188,
				"element": "C" 
			},
			{
				"x": -1.790841724,
				"y": 2.9855894927,
				"z": -1.1083395643,
				"element": "C" 
			},
			{
				"x": -1.1297342152,
				"y": 1.7781845778,
				"z": -0.8806533526,
				"element": "C" 
			},
			{
				"x": -1.9077741506,
				"y": 0.3183210397,
				"z": -1.4722869648,
				"element": "Cl" 
			},
			{
				"x": -0.733293359,
				"y": -4.0512745402,
				"z": 2.1102816217,
				"element": "H" 
			},
			{
				"x": 0.4226625375,
				"y": -5.8213583009,
				"z": 0.8095628012,
				"element": "H" 
			},
			{
				"x": 1.7354088564,
				"y": -5.2125127724,
				"z": -1.2235354001,
				"element": "H" 
			},
			{
				"x": 1.8832243696,
				"y": -2.8155392634,
				"z": -1.9070513092,
				"element": "H" 
			},
			{
				"x": 1.5191026872,
				"y": 2.9046103601,
				"z": 0.8896925456,
				"element": "H" 
			},
			{
				"x": 0.3670301146,
				"y": 5.0825377459,
				"z": 0.4849122202,
				"element": "H" 
			},
			{
				"x": -1.7663956365,
				"y": 5.1106790274,
				"z": -0.8093749395,
				"element": "H" 
			},
			{
				"x": -2.7261414056,
				"y": 2.9841189687,
				"z": -1.6566491768,
				"element": "H" 
			}
		],
		 "valence_orbital": [ 
			{
				"type": "occ",
				"energy": -0.27395,
				"method": "rhf"
			},
			{
				"type": "occ",
				"energy": -0.27245,
				"method": "rhf"
			},
			{
				"type": "occ",
				"energy": -0.25894,
				"method": "rhf"
			},
			{
				"type": "occ",
				"energy": -0.25765,
				"method": "rhf"
			},
			{
				"type": "occ",
				"energy": -0.24366,
				"method": "rhf"
			},
			{
				"type": "unocc",
				"energy": -0.07964,
				"method": "rhf"
			},
			{
				"type": "unocc",
				"energy": -0.06334,
				"method": "rhf"
			},
			{
				"type": "unocc",
				"energy": -0.02276,
				"method": "rhf"
			},
			{
				"type": "unocc",
				"energy": -0.02212,
				"method": "rhf"
			},
			{
				"type": "unocc",
				"energy": 0.00465,
				"method": "rhf"
			}
		],
		"cosmo_sigma_profile": { 
			"-0.025": 0.0,
			"-0.024": 0.0,
			"-0.023": 0.0,
			"-0.022": 0.0,
			"-0.021": 0.0,
			"-0.02": 0.0,
			"-0.019": 0.0,
			"-0.018": 0.0,
			"-0.017": 0.0,
			"-0.016": 0.0,
			"-0.015": 0.0,
			"-0.014": 0.0,
			"-0.013": 0.0,
			"-0.012": 0.0,
			"-0.011": 0.0,
			"-0.01": 0.0,
			"-0.009": 0.00307280868685,
			"-0.008": 4.78415931494,
			"-0.007": 15.2574701313,
			"-0.006": 17.9433426171,
			"-0.005": 15.0901417153,
			"-0.004": 10.8920973522,
			"-0.003": 14.4770759171,
			"-0.002": 15.8864306715,
			"-0.001": 20.6087219282,
			"0.0": 30.084779808,
			"0.001": 36.0173231731,
			"0.002": 35.9906510419,
			"0.003": 20.5271360681,
			"0.004": 13.1147487443,
			"0.005": 5.84912845448,
			"0.006": 4.04095906923,
			"0.007": 3.67860082712,
			"0.008": 3.50878241265,
			"0.009": 5.38030528555,
			"0.01": 7.61478515875,
			"0.011": 1.50716495056,
			"0.012": 0.0,
			"0.013": 0.0,
			"0.014": 0.0,
			"0.015": 0.0,
			"0.016": 0.0,
			"0.017": 0.0,
			"0.018": 0.0,
			"0.019": 0.0,
			"0.02": 0.0,
			"0.021": 0.0,
			"0.022": 0.0,
			"0.023": 0.0,
			"0.024": 0.0,
			"0.025": 0.0
		}
	}
}
