{
	 "smiles": "CC1=NC(=CS1)C1=CC=CC=C1", 
	 "Tm": 327.15, 
	 "num_atms": 21, 
	 "gaussian": { 
		 "optdone": 1, 
		 "sigma_profile": "yes", 
		 "theory": "DFT", 
		 "functional": "B3LYP", 
		 "basiset": "6-31G**", 
		 "properties": { 
			 "R2extent": 4163.1529, 
			 "electric_dipole_moment_norm": 0.894760107515, 
			 "electric_quadrupole_moment_norm": 11.1412009945, 
			 "total_energy": -839.432215104, 
			 "HOMO_LUMO_gap": 0.17807, 
			 "cosmo_polarized_energy": -6.9, 
			 "cosmo_cavitation_energy": 26.48, 
			 "cosmo_dispersion_energy": -20.25, 
			 "cosmo_repulsion_energy": 1.55, 
			 "cosmo_total_nonelectrostatic_energy": 7.78, 
			 "SMD_solvation_energy": 3.26 
		},
		"coords": [
			{
				"x": -5.0988695078,
				"y": 0.813070218,
				"z": 0.8552836893,
				"element": "C" 
			},
			{
				"x": -3.722013995,
				"y": 1.3871157734,
				"z": 0.9962011108,
				"element": "C" 
			},
			{
				"x": -2.6919515437,
				"y": 1.0014960021,
				"z": 0.3077022099,
				"element": "N" 
			},
			{
				"x": -1.5397679151,
				"y": 1.7011448638,
				"z": 0.6367130983,
				"element": "C" 
			},
			{
				"x": -1.7176711207,
				"y": 2.6494089885,
				"z": 1.6131347261,
				"element": "C" 
			},
			{
				"x": -3.364642869,
				"y": 2.6795485318,
				"z": 2.1440284498,
				"element": "S" 
			},
			{
				"x": -0.2805071077,
				"y": 1.3761385097,
				"z": -0.0624607546,
				"element": "C" 
			},
			{
				"x": 0.9186081114,
				"y": 2.0540649579,
				"z": 0.2162688382,
				"element": "C" 
			},
			{
				"x": 2.0939158535,
				"y": 1.7290548751,
				"z": -0.4561857423,
				"element": "C" 
			},
			{
				"x": 2.0972901094,
				"y": 0.7196715554,
				"z": -1.4222644303,
				"element": "C" 
			},
			{
				"x": 0.9119901691,
				"y": 0.0400101774,
				"z": -1.7075004928,
				"element": "C" 
			},
			{
				"x": -0.2657569794,
				"y": 0.3632886884,
				"z": -1.0358314135,
				"element": "C" 
			},
			{
				"x": -5.4534607145,
				"y": 0.3826113469,
				"z": 1.797735532,
				"element": "H" 
			},
			{
				"x": -5.0703531884,
				"y": 0.0272015949,
				"z": 0.0983995082,
				"element": "H" 
			},
			{
				"x": -5.8218118736,
				"y": 1.5749690809,
				"z": 0.5449383992,
				"element": "H" 
			},
			{
				"x": -0.9910276934,
				"y": 3.3205155872,
				"z": 2.0462089535,
				"element": "H" 
			},
			{
				"x": 0.9380453559,
				"y": 2.8425527921,
				"z": 0.9627546246,
				"element": "H" 
			},
			{
				"x": 3.0099569055,
				"y": 2.2656562111,
				"z": -0.2255671785,
				"element": "H" 
			},
			{
				"x": 3.0146741224,
				"y": 0.4672263493,
				"z": -1.9461383223,
				"element": "H" 
			},
			{
				"x": 0.9026454218,
				"y": -0.7465883238,
				"z": -2.4569274014,
				"element": "H" 
			},
			{
				"x": -1.1893915406,
				"y": -0.16085778,
				"z": -1.2529934041,
				"element": "H" 
			}
		],
		 "valence_orbital": [ 
			{
				"type": "occ",
				"energy": -0.2872,
				"method": "rhf"
			},
			{
				"type": "occ",
				"energy": -0.27085,
				"method": "rhf"
			},
			{
				"type": "occ",
				"energy": -0.27061,
				"method": "rhf"
			},
			{
				"type": "occ",
				"energy": -0.24635,
				"method": "rhf"
			},
			{
				"type": "occ",
				"energy": -0.21332,
				"method": "rhf"
			},
			{
				"type": "unocc",
				"energy": -0.03525,
				"method": "rhf"
			},
			{
				"type": "unocc",
				"energy": -0.0044,
				"method": "rhf"
			},
			{
				"type": "unocc",
				"energy": 0.00714,
				"method": "rhf"
			},
			{
				"type": "unocc",
				"energy": 0.01824,
				"method": "rhf"
			},
			{
				"type": "unocc",
				"energy": 0.08122,
				"method": "rhf"
			}
		],
		"cosmo_sigma_profile": { 
			"-0.025": 0.0,
			"-0.024": 0.0,
			"-0.023": 0.0,
			"-0.022": 0.0,
			"-0.021": 0.0,
			"-0.02": 0.0,
			"-0.019": 0.0,
			"-0.018": 0.0,
			"-0.017": 0.0,
			"-0.016": 0.0,
			"-0.015": 0.0,
			"-0.014": 0.0,
			"-0.013": 0.0,
			"-0.012": 0.0,
			"-0.011": 0.0,
			"-0.01": 0.173396240745,
			"-0.009": 2.2147770842,
			"-0.008": 2.31351979605,
			"-0.007": 2.6118400279,
			"-0.006": 8.21670702219,
			"-0.005": 17.0647329772,
			"-0.004": 18.1951956822,
			"-0.003": 18.5547089726,
			"-0.002": 16.1770237039,
			"-0.001": 15.2476503965,
			"0.0": 12.4407955796,
			"0.001": 15.1472683418,
			"0.002": 17.7418386121,
			"0.003": 23.0558141675,
			"0.004": 17.4603430435,
			"0.005": 12.1824928888,
			"0.006": 8.77891598969,
			"0.007": 1.72465264703,
			"0.008": 1.26462195218,
			"0.009": 1.26918498576,
			"0.01": 1.29991155193,
			"0.011": 1.43115798017,
			"0.012": 0.13683780046,
			"0.013": 0.0,
			"0.014": 0.0,
			"0.015": 0.0,
			"0.016": 0.0,
			"0.017": 0.0,
			"0.018": 0.0,
			"0.019": 0.0,
			"0.02": 0.0,
			"0.021": 0.0,
			"0.022": 0.0,
			"0.023": 0.0,
			"0.024": 0.0,
			"0.025": 0.0
		}
	}
}
