{
	 "smiles": "CN(C)C1=CC(F)=C(C=C1)C#N", 
	 "Tm": 330.15, 
	 "num_atms": 21, 
	 "gaussian": { 
		 "optdone": 1, 
		 "sigma_profile": "yes", 
		 "theory": "DFT", 
		 "functional": "B3LYP", 
		 "basiset": "6-31G**", 
		 "properties": { 
			 "R2extent": 2780.3488, 
			 "electric_dipole_moment_norm": 8.38217157066, 
			 "electric_quadrupole_moment_norm": 16.9001280738, 
			 "total_energy": -557.697423969, 
			 "HOMO_LUMO_gap": 0.18104, 
			 "cosmo_polarized_energy": -12.63, 
			 "cosmo_cavitation_energy": 25.9, 
			 "cosmo_dispersion_energy": -18.33, 
			 "cosmo_repulsion_energy": 1.42, 
			 "cosmo_total_nonelectrostatic_energy": 8.99, 
			 "SMD_solvation_energy": 6.2 
		},
		"coords": [
			{
				"x": -2.3659361754,
				"y": -1.2191923854,
				"z": 1.0755329389,
				"element": "C" 
			},
			{
				"x": -2.0818971277,
				"y": 0.1326671491,
				"z": 0.6188574443,
				"element": "N" 
			},
			{
				"x": -3.176113472,
				"y": 1.0677675814,
				"z": 0.4087790184,
				"element": "C" 
			},
			{
				"x": -0.7848167589,
				"y": 0.5278457151,
				"z": 0.3935830832,
				"element": "C" 
			},
			{
				"x": -0.4905324943,
				"y": 1.8407627671,
				"z": -0.0472743823,
				"element": "C" 
			},
			{
				"x": 0.8203960977,
				"y": 2.2163209589,
				"z": -0.2679265385,
				"element": "C" 
			},
			{
				"x": 1.0629195212,
				"y": 3.4700011083,
				"z": -0.6860058665,
				"element": "F" 
			},
			{
				"x": 1.9065545478,
				"y": 1.3504921758,
				"z": -0.0756862133,
				"element": "C" 
			},
			{
				"x": 1.6068415835,
				"y": 0.046484277,
				"z": 0.3629360536,
				"element": "C" 
			},
			{
				"x": 0.3046640255,
				"y": -0.3615323736,
				"z": 0.5932265842,
				"element": "C" 
			},
			{
				"x": 3.244908123,
				"y": 1.7780613049,
				"z": -0.3148703411,
				"element": "C" 
			},
			{
				"x": 4.3446512774,
				"y": 2.1095335621,
				"z": -0.5050576529,
				"element": "N" 
			},
			{
				"x": -1.8934222643,
				"y": -1.431159779,
				"z": 2.0436761475,
				"element": "H" 
			},
			{
				"x": -3.4429732215,
				"y": -1.3370098106,
				"z": 1.195440881,
				"element": "H" 
			},
			{
				"x": -2.0222512085,
				"y": -1.9736040062,
				"z": 0.3557560789,
				"element": "H" 
			},
			{
				"x": -3.2213734021,
				"y": 1.4143249383,
				"z": -0.6321254566,
				"element": "H" 
			},
			{
				"x": -4.1198956629,
				"y": 0.5732113371,
				"z": 0.6387785472,
				"element": "H" 
			},
			{
				"x": -3.089497957,
				"y": 1.9492364801,
				"z": 1.0578663925,
				"element": "H" 
			},
			{
				"x": -1.2616864994,
				"y": 2.5781161923,
				"z": -0.2227707729,
				"element": "H" 
			},
			{
				"x": 2.4236503528,
				"y": -0.6496518483,
				"z": 0.5219582418,
				"element": "H" 
			},
			{
				"x": 0.129610715,
				"y": -1.3747753444,
				"z": 0.9296258126,
				"element": "H" 
			}
		],
		 "valence_orbital": [ 
			{
				"type": "occ",
				"energy": -0.34412,
				"method": "rhf"
			},
			{
				"type": "occ",
				"energy": -0.31681,
				"method": "rhf"
			},
			{
				"type": "occ",
				"energy": -0.29083,
				"method": "rhf"
			},
			{
				"type": "occ",
				"energy": -0.26143,
				"method": "rhf"
			},
			{
				"type": "occ",
				"energy": -0.21253,
				"method": "rhf"
			},
			{
				"type": "unocc",
				"energy": -0.03149,
				"method": "rhf"
			},
			{
				"type": "unocc",
				"energy": -0.01129,
				"method": "rhf"
			},
			{
				"type": "unocc",
				"energy": 0.04559,
				"method": "rhf"
			},
			{
				"type": "unocc",
				"energy": 0.06732,
				"method": "rhf"
			},
			{
				"type": "unocc",
				"energy": 0.08679,
				"method": "rhf"
			}
		],
		"cosmo_sigma_profile": { 
			"-0.025": 0.0,
			"-0.024": 0.0,
			"-0.023": 0.0,
			"-0.022": 0.0,
			"-0.021": 0.0,
			"-0.02": 0.0,
			"-0.019": 0.0,
			"-0.018": 0.0,
			"-0.017": 0.0,
			"-0.016": 0.0,
			"-0.015": 0.0,
			"-0.014": 0.0,
			"-0.013": 0.0,
			"-0.012": 0.0,
			"-0.011": 0.0,
			"-0.01": 0.0,
			"-0.009": 0.0,
			"-0.008": 2.22873108037,
			"-0.007": 7.25363853786,
			"-0.006": 10.6394579884,
			"-0.005": 19.0286312852,
			"-0.004": 16.3050306557,
			"-0.003": 18.0805285104,
			"-0.002": 18.5298027994,
			"-0.001": 14.0666240244,
			"0.0": 14.0204187276,
			"0.001": 14.7587284063,
			"0.002": 17.2219019549,
			"0.003": 16.57260145,
			"0.004": 11.8303077607,
			"0.005": 2.53665170262,
			"0.006": 2.48303082777,
			"0.007": 2.71250721488,
			"0.008": 3.22079180354,
			"0.009": 3.59389394014,
			"0.01": 3.43352614197,
			"0.011": 3.04386902772,
			"0.012": 2.79703217053,
			"0.013": 2.39752645606,
			"0.014": 0.774842651689,
			"0.015": 0.0,
			"0.016": 0.0,
			"0.017": 0.0,
			"0.018": 0.0,
			"0.019": 0.0,
			"0.02": 0.0,
			"0.021": 0.0,
			"0.022": 0.0,
			"0.023": 0.0,
			"0.024": 0.0,
			"0.025": 0.0
		}
	}
}
