{
	 "smiles": "CNC1=NC=C(C=C1[N+]([O-])=O)C(F)(F)F", 
	 "Tm": 372.15, 
	 "num_atms": 21, 
	 "gaussian": { 
		 "optdone": 1, 
		 "sigma_profile": "yes", 
		 "theory": "DFT", 
		 "functional": "B3LYP", 
		 "basiset": "6-31G**", 
		 "properties": { 
			 "R2extent": 3785.8923, 
			 "electric_dipole_moment_norm": 3.53683000157, 
			 "electric_quadrupole_moment_norm": 11.7921102954, 
			 "total_energy": -884.496435986, 
			 "HOMO_LUMO_gap": 0.1429, 
			 "cosmo_polarized_energy": -8.96, 
			 "cosmo_cavitation_energy": 27.56, 
			 "cosmo_dispersion_energy": -19.9, 
			 "cosmo_repulsion_energy": 1.5, 
			 "cosmo_total_nonelectrostatic_energy": 9.17, 
			 "SMD_solvation_energy": 6.56 
		},
		"coords": [
			{
				"x": -0.7096591277,
				"y": -3.2149171507,
				"z": -0.8361881463,
				"element": "C" 
			},
			{
				"x": -0.6207267694,
				"y": -1.8986420019,
				"z": -1.4474131258,
				"element": "N" 
			},
			{
				"x": -0.0836939501,
				"y": -0.8367484923,
				"z": -0.8256278928,
				"element": "C" 
			},
			{
				"x": 0.385565003,
				"y": -1.0427787218,
				"z": 0.4314706321,
				"element": "N" 
			},
			{
				"x": 0.9227399195,
				"y": -0.0347391048,
				"z": 1.0980019089,
				"element": "C" 
			},
			{
				"x": 1.0501230887,
				"y": 1.2700335248,
				"z": 0.592420944,
				"element": "C" 
			},
			{
				"x": 0.5843387485,
				"y": 1.5089990192,
				"z": -0.6915104465,
				"element": "C" 
			},
			{
				"x": 0.0150700637,
				"y": 0.467017446,
				"z": -1.4174729487,
				"element": "C" 
			},
			{
				"x": -0.4505890736,
				"y": 0.7618323912,
				"z": -2.7570028858,
				"element": "N" 
			},
			{
				"x": -0.3177667096,
				"y": 1.9072940986,
				"z": -3.1851508565,
				"element": "O" 
			},
			{
				"x": -0.9678421825,
				"y": -0.1560525243,
				"z": -3.4210295321,
				"element": "O" 
			},
			{
				"x": 1.6262847295,
				"y": 2.3662942777,
				"z": 1.4373424684,
				"element": "C" 
			},
			{
				"x": 2.1056418189,
				"y": 3.3780359367,
				"z": 0.683365632,
				"element": "F" 
			},
			{
				"x": 2.6367598559,
				"y": 1.9106318149,
				"z": 2.21200838,
				"element": "F" 
			},
			{
				"x": 0.7047932688,
				"y": 2.8971643966,
				"z": 2.274412442,
				"element": "F" 
			},
			{
				"x": 0.2811888704,
				"y": -3.5999377876,
				"z": -0.5777034279,
				"element": "H" 
			},
			{
				"x": -1.1810574284,
				"y": -3.8880873659,
				"z": -1.5538921048,
				"element": "H" 
			},
			{
				"x": -1.3082533028,
				"y": -3.1878057933,
				"z": 0.0791206858,
				"element": "H" 
			},
			{
				"x": -0.9624690308,
				"y": -1.7277048032,
				"z": -2.3849899445,
				"element": "H" 
			},
			{
				"x": 1.2887274358,
				"y": -0.2643267503,
				"z": 2.0968808479,
				"element": "H" 
			},
			{
				"x": 0.6564247723,
				"y": 2.4856375906,
				"z": -1.1533426293,
				"element": "H" 
			}
		],
		 "valence_orbital": [ 
			{
				"type": "occ",
				"energy": -0.32195,
				"method": "rhf"
			},
			{
				"type": "occ",
				"energy": -0.31831,
				"method": "rhf"
			},
			{
				"type": "occ",
				"energy": -0.3037,
				"method": "rhf"
			},
			{
				"type": "occ",
				"energy": -0.28905,
				"method": "rhf"
			},
			{
				"type": "occ",
				"energy": -0.24504,
				"method": "rhf"
			},
			{
				"type": "unocc",
				"energy": -0.10214,
				"method": "rhf"
			},
			{
				"type": "unocc",
				"energy": -0.03828,
				"method": "rhf"
			},
			{
				"type": "unocc",
				"energy": -0.02106,
				"method": "rhf"
			},
			{
				"type": "unocc",
				"energy": 0.08972,
				"method": "rhf"
			},
			{
				"type": "unocc",
				"energy": 0.09997,
				"method": "rhf"
			}
		],
		"cosmo_sigma_profile": { 
			"-0.025": 0.0,
			"-0.024": 0.0,
			"-0.023": 0.0,
			"-0.022": 0.0,
			"-0.021": 0.0,
			"-0.02": 0.0,
			"-0.019": 0.0,
			"-0.018": 0.0,
			"-0.017": 0.0,
			"-0.016": 0.0,
			"-0.015": 0.0,
			"-0.014": 0.0,
			"-0.013": 0.0,
			"-0.012": 0.633593874279,
			"-0.011": 0.640885329697,
			"-0.01": 0.853244870107,
			"-0.009": 1.51434320922,
			"-0.008": 3.03056321624,
			"-0.007": 5.18491109413,
			"-0.006": 8.8137908293,
			"-0.005": 12.3148370202,
			"-0.004": 14.2861661809,
			"-0.003": 22.0610683394,
			"-0.002": 24.7715092263,
			"-0.001": 17.2601251837,
			"0.0": 12.5906646793,
			"0.001": 12.5837570959,
			"0.002": 24.2025883784,
			"0.003": 23.4556258593,
			"0.004": 4.6742734039,
			"0.005": 3.31993146936,
			"0.006": 5.28552276764,
			"0.007": 6.69428334822,
			"0.008": 6.25048816966,
			"0.009": 5.15713299065,
			"0.01": 3.92890475664,
			"0.011": 1.30362660325,
			"0.012": 0.444402295196,
			"0.013": 0.0,
			"0.014": 0.0,
			"0.015": 0.0,
			"0.016": 0.0,
			"0.017": 0.0,
			"0.018": 0.0,
			"0.019": 0.0,
			"0.02": 0.0,
			"0.021": 0.0,
			"0.022": 0.0,
			"0.023": 0.0,
			"0.024": 0.0,
			"0.025": 0.0
		}
	}
}
