{
	 "smiles": "ClC1=CC2=C(OCC(=O)N2)C=C1", 
	 "Tm": 485.15, 
	 "num_atms": 18, 
	 "gaussian": { 
		 "optdone": 1, 
		 "sigma_profile": "yes", 
		 "theory": "DFT", 
		 "functional": "B3LYP", 
		 "basiset": "6-31G**", 
		 "properties": { 
			 "R2extent": 2943.0318, 
			 "electric_dipole_moment_norm": 1.13601444533, 
			 "electric_quadrupole_moment_norm": 12.0504529234, 
			 "total_energy": -973.86271567, 
			 "HOMO_LUMO_gap": 0.19481, 
			 "cosmo_polarized_energy": -11.74, 
			 "cosmo_cavitation_energy": 24.17, 
			 "cosmo_dispersion_energy": -18.51, 
			 "cosmo_repulsion_energy": 1.47, 
			 "cosmo_total_nonelectrostatic_energy": 7.13, 
			 "SMD_solvation_energy": 4.69 
		},
		"coords": [
			{
				"x": 2.3931803978,
				"y": -2.0370947189,
				"z": -0.6808888026,
				"element": "Cl" 
			},
			{
				"x": 0.7984254763,
				"y": -1.3138441139,
				"z": -0.5324916247,
				"element": "C" 
			},
			{
				"x": 0.6034851208,
				"y": -0.0116584393,
				"z": -0.9923949281,
				"element": "C" 
			},
			{
				"x": -0.6628951963,
				"y": 0.5644088099,
				"z": -0.883062066,
				"element": "C" 
			},
			{
				"x": -1.715971296,
				"y": -0.1600050083,
				"z": -0.2987074009,
				"element": "C" 
			},
			{
				"x": -2.9718739555,
				"y": 0.3822006784,
				"z": -0.2316156552,
				"element": "O" 
			},
			{
				"x": -3.0172947989,
				"y": 1.8050732941,
				"z": -0.104232309,
				"element": "C" 
			},
			{
				"x": -2.0833629125,
				"y": 2.5477752282,
				"z": -1.0566405778,
				"element": "C" 
			},
			{
				"x": -2.3118374074,
				"y": 3.6754089896,
				"z": -1.4567536581,
				"element": "O" 
			},
			{
				"x": -0.9417337827,
				"y": 1.8509664781,
				"z": -1.3696867113,
				"element": "N" 
			},
			{
				"x": -1.500183722,
				"y": -1.4555896129,
				"z": 0.1595034119,
				"element": "C" 
			},
			{
				"x": -0.2405317945,
				"y": -2.0457465078,
				"z": 0.0392723214,
				"element": "C" 
			},
			{
				"x": 1.422795046,
				"y": 0.543283219,
				"z": -1.4370883218,
				"element": "H" 
			},
			{
				"x": -4.0410865061,
				"y": 2.1108252387,
				"z": -0.3187335756,
				"element": "H" 
			},
			{
				"x": -2.7691844579,
				"y": 2.1050155305,
				"z": 0.9257513326,
				"element": "H" 
			},
			{
				"x": -0.2640799574,
				"y": 2.3347705242,
				"z": -1.9450684752,
				"element": "H" 
			},
			{
				"x": -2.3311940045,
				"y": -1.9964206729,
				"z": 0.5993628795,
				"element": "H" 
			},
			{
				"x": -0.0680562493,
				"y": -3.0556689166,
				"z": 0.3919741607,
				"element": "H" 
			}
		],
		 "valence_orbital": [ 
			{
				"type": "occ",
				"energy": -0.31921,
				"method": "rhf"
			},
			{
				"type": "occ",
				"energy": -0.30964,
				"method": "rhf"
			},
			{
				"type": "occ",
				"energy": -0.27099,
				"method": "rhf"
			},
			{
				"type": "occ",
				"energy": -0.25408,
				"method": "rhf"
			},
			{
				"type": "occ",
				"energy": -0.22508,
				"method": "rhf"
			},
			{
				"type": "unocc",
				"energy": -0.03027,
				"method": "rhf"
			},
			{
				"type": "unocc",
				"energy": -0.01866,
				"method": "rhf"
			},
			{
				"type": "unocc",
				"energy": 0.0188,
				"method": "rhf"
			},
			{
				"type": "unocc",
				"energy": 0.02232,
				"method": "rhf"
			},
			{
				"type": "unocc",
				"energy": 0.06988,
				"method": "rhf"
			}
		],
		"cosmo_sigma_profile": { 
			"-0.025": 0.0,
			"-0.024": 0.0,
			"-0.023": 0.0,
			"-0.022": 0.0,
			"-0.021": 0.0,
			"-0.02": 0.0,
			"-0.019": 0.0,
			"-0.018": 0.0,
			"-0.017": 0.0,
			"-0.016": 0.579017769782,
			"-0.015": 1.67319442692,
			"-0.014": 1.17083046833,
			"-0.013": 1.33034630324,
			"-0.012": 1.73958439919,
			"-0.011": 0.795973397268,
			"-0.01": 0.721638445351,
			"-0.009": 2.28885184758,
			"-0.008": 7.00266827462,
			"-0.007": 9.81625526126,
			"-0.006": 9.51312197217,
			"-0.005": 9.70799343064,
			"-0.004": 8.24867479068,
			"-0.003": 9.36664648197,
			"-0.002": 9.84149150182,
			"-0.001": 9.72640428733,
			"0.0": 13.6265991037,
			"0.001": 15.0417363729,
			"0.002": 19.8337854617,
			"0.003": 18.1190274782,
			"0.004": 13.2801301654,
			"0.005": 9.56822822979,
			"0.006": 3.08869511081,
			"0.007": 1.23033423264,
			"0.008": 2.17221512639,
			"0.009": 2.48772370673,
			"0.01": 2.72839595857,
			"0.011": 2.17549048952,
			"0.012": 5.14343555198,
			"0.013": 3.74893360629,
			"0.014": 0.262363991129,
			"0.015": 0.0,
			"0.016": 0.0,
			"0.017": 0.0,
			"0.018": 0.0,
			"0.019": 0.0,
			"0.02": 0.0,
			"0.021": 0.0,
			"0.022": 0.0,
			"0.023": 0.0,
			"0.024": 0.0,
			"0.025": 0.0
		}
	}
}
