{
	 "smiles": "CC(O)C1=CC2=C(OCC(=O)N2)C=C1", 
	 "Tm": 411.15, 
	 "num_atms": 25, 
	 "gaussian": { 
		 "optdone": 1, 
		 "sigma_profile": "yes", 
		 "theory": "DFT", 
		 "functional": "B3LYP", 
		 "basiset": "6-31G**", 
		 "properties": { 
			 "R2extent": 3590.4668, 
			 "electric_dipole_moment_norm": 2.74904988678, 
			 "electric_quadrupole_moment_norm": 11.0896588509, 
			 "total_energy": -668.121081078, 
			 "HOMO_LUMO_gap": 0.19684, 
			 "cosmo_polarized_energy": -14.89, 
			 "cosmo_cavitation_energy": 28.66, 
			 "cosmo_dispersion_energy": -21.12, 
			 "cosmo_repulsion_energy": 1.68, 
			 "cosmo_total_nonelectrostatic_energy": 9.21, 
			 "SMD_solvation_energy": 5.74 
		},
		"coords": [
			{
				"x": -0.1737755109,
				"y": 1.829048578,
				"z": 2.6538105958,
				"element": "C" 
			},
			{
				"x": -1.0816379934,
				"y": 1.8924719513,
				"z": 1.4245732169,
				"element": "C" 
			},
			{
				"x": -0.5954608878,
				"y": 2.9740330554,
				"z": 0.6298998281,
				"element": "O" 
			},
			{
				"x": -1.1006228441,
				"y": 0.5800921424,
				"z": 0.653327339,
				"element": "C" 
			},
			{
				"x": -0.1275470386,
				"y": 0.3271435485,
				"z": -0.3205681873,
				"element": "C" 
			},
			{
				"x": -0.1072108184,
				"y": -0.8890073645,
				"z": -1.002578337,
				"element": "C" 
			},
			{
				"x": -1.0792406318,
				"y": -1.8637387981,
				"z": -0.7235103617,
				"element": "C" 
			},
			{
				"x": -1.0416525275,
				"y": -3.0799520543,
				"z": -1.3562160499,
				"element": "O" 
			},
			{
				"x": -0.502364477,
				"y": -3.0629884418,
				"z": -2.6789422573,
				"element": "C" 
			},
			{
				"x": 0.7888618011,
				"y": -2.2597299599,
				"z": -2.8208895552,
				"element": "C" 
			},
			{
				"x": 1.6310666349,
				"y": -2.5146491408,
				"z": -3.6649823658,
				"element": "O" 
			},
			{
				"x": 0.8788504838,
				"y": -1.2000167823,
				"z": -1.9552473954,
				"element": "N" 
			},
			{
				"x": -2.0557161487,
				"y": -1.6153863485,
				"z": 0.2361284785,
				"element": "C" 
			},
			{
				"x": -2.0626647944,
				"y": -0.3997000256,
				"z": 0.9221025003,
				"element": "C" 
			},
			{
				"x": -0.5083871285,
				"y": 1.0467982542,
				"z": 3.3407258867,
				"element": "H" 
			},
			{
				"x": -0.1849721421,
				"y": 2.7900179409,
				"z": 3.1762207036,
				"element": "H" 
			},
			{
				"x": 0.8543144273,
				"y": 1.6090940197,
				"z": 2.3509789381,
				"element": "H" 
			},
			{
				"x": -2.1093669912,
				"y": 2.1043581056,
				"z": 1.763047239,
				"element": "H" 
			},
			{
				"x": -1.1513545778,
				"y": 3.0305360834,
				"z": -0.1589082239,
				"element": "H" 
			},
			{
				"x": 0.6148681409,
				"y": 1.0891193325,
				"z": -0.5411896888,
				"element": "H" 
			},
			{
				"x": -0.2941273882,
				"y": -4.0975661951,
				"z": -2.951441976,
				"element": "H" 
			},
			{
				"x": -1.2401413094,
				"y": -2.6555510629,
				"z": -3.3880422143,
				"element": "H" 
			},
			{
				"x": 1.6890490082,
				"y": -0.6022290932,
				"z": -2.0574987336,
				"element": "H" 
			},
			{
				"x": -2.7972508994,
				"y": -2.382650873,
				"z": 0.4327687776,
				"element": "H" 
			},
			{
				"x": -2.8319163871,
				"y": -0.2109468717,
				"z": 1.6664318425,
				"element": "H" 
			}
		],
		 "valence_orbital": [ 
			{
				"type": "occ",
				"energy": -0.31317,
				"method": "rhf"
			},
			{
				"type": "occ",
				"energy": -0.28039,
				"method": "rhf"
			},
			{
				"type": "occ",
				"energy": -0.26274,
				"method": "rhf"
			},
			{
				"type": "occ",
				"energy": -0.24369,
				"method": "rhf"
			},
			{
				"type": "occ",
				"energy": -0.21716,
				"method": "rhf"
			},
			{
				"type": "unocc",
				"energy": -0.02032,
				"method": "rhf"
			},
			{
				"type": "unocc",
				"energy": -0.00851,
				"method": "rhf"
			},
			{
				"type": "unocc",
				"energy": 0.02619,
				"method": "rhf"
			},
			{
				"type": "unocc",
				"energy": 0.07779,
				"method": "rhf"
			},
			{
				"type": "unocc",
				"energy": 0.07905,
				"method": "rhf"
			}
		],
		"cosmo_sigma_profile": { 
			"-0.025": 0.0,
			"-0.024": 0.0,
			"-0.023": 0.0,
			"-0.022": 0.0,
			"-0.021": 0.0,
			"-0.02": 0.0,
			"-0.019": 0.0,
			"-0.018": 0.0,
			"-0.017": 0.0,
			"-0.016": 0.323286905446,
			"-0.015": 1.80182760122,
			"-0.014": 2.29451551824,
			"-0.013": 1.75078505863,
			"-0.012": 1.64898713098,
			"-0.011": 2.22378337141,
			"-0.01": 1.31093899485,
			"-0.009": 2.66790066281,
			"-0.008": 4.60451752767,
			"-0.007": 7.16409217069,
			"-0.006": 9.37202045257,
			"-0.005": 12.928880906,
			"-0.004": 15.6426141997,
			"-0.003": 16.4036827567,
			"-0.002": 15.6551164877,
			"-0.001": 17.4638663338,
			"0.0": 17.1618276149,
			"0.001": 16.3769956819,
			"0.002": 10.3977266573,
			"0.003": 12.4463037329,
			"0.004": 11.8563323713,
			"0.005": 8.60774371617,
			"0.006": 3.76829436758,
			"0.007": 3.86706209686,
			"0.008": 3.29741422213,
			"0.009": 3.73174301218,
			"0.01": 3.73037441742,
			"0.011": 3.59854087826,
			"0.012": 4.79632101706,
			"0.013": 7.15756594301,
			"0.014": 2.2246329244,
			"0.015": 0.0578484831419,
			"0.016": 0.0,
			"0.017": 0.0,
			"0.018": 0.0,
			"0.019": 0.0,
			"0.02": 0.0,
			"0.021": 0.0,
			"0.022": 0.0,
			"0.023": 0.0,
			"0.024": 0.0,
			"0.025": 0.0
		}
	}
}
