{
	 "smiles": "OC(=O)C=C/C(=O)NC1=CC=CC=C1", 
	 "Tm": 450.15, 
	 "num_atms": 23, 
	 "gaussian": { 
		 "optdone": 1, 
		 "sigma_profile": "yes", 
		 "theory": "DFT", 
		 "functional": "B3LYP", 
		 "basiset": "6-31G**", 
		 "properties": { 
			 "R2extent": 4763.3392, 
			 "electric_dipole_moment_norm": 8.70570738309, 
			 "electric_quadrupole_moment_norm": 32.4881267881, 
			 "total_energy": -666.917196981, 
			 "HOMO_LUMO_gap": 0.16885, 
			 "cosmo_polarized_energy": -17.85, 
			 "cosmo_cavitation_energy": 28.12, 
			 "cosmo_dispersion_energy": -20.58, 
			 "cosmo_repulsion_energy": 1.62, 
			 "cosmo_total_nonelectrostatic_energy": 9.16, 
			 "SMD_solvation_energy": 6.81 
		},
		"coords": [
			{
				"x": -2.0781636699,
				"y": -3.1745992923,
				"z": 3.5234544696,
				"element": "O" 
			},
			{
				"x": -1.559004491,
				"y": -2.2824992161,
				"z": 4.3574547752,
				"element": "C" 
			},
			{
				"x": -1.8995337606,
				"y": -2.2006068739,
				"z": 5.5224469905,
				"element": "O" 
			},
			{
				"x": -0.4955474179,
				"y": -1.3253092902,
				"z": 3.8738459097,
				"element": "C" 
			},
			{
				"x": -0.0308478954,
				"y": -0.9918463622,
				"z": 2.6545807159,
				"element": "C" 
			},
			{
				"x": -0.4089805913,
				"y": -1.5802652017,
				"z": 1.3474322681,
				"element": "C" 
			},
			{
				"x": -1.0592715859,
				"y": -2.6310616101,
				"z": 1.2195107257,
				"element": "O" 
			},
			{
				"x": 0.0496458768,
				"y": -0.9597686333,
				"z": 0.2170330022,
				"element": "N" 
			},
			{
				"x": 0.6717851247,
				"y": 0.3069634393,
				"z": 0.043239492,
				"element": "C" 
			},
			{
				"x": 1.7715175019,
				"y": 0.4017450568,
				"z": -0.8193951025,
				"element": "C" 
			},
			{
				"x": 2.3750325667,
				"y": 1.6375048046,
				"z": -1.0450043667,
				"element": "C" 
			},
			{
				"x": 1.8980014541,
				"y": 2.782322947,
				"z": -0.4025654499,
				"element": "C" 
			},
			{
				"x": 0.8000214364,
				"y": 2.6871104087,
				"z": 0.4538432783,
				"element": "C" 
			},
			{
				"x": 0.1738865914,
				"y": 1.4587628229,
				"z": 0.6667144495,
				"element": "C" 
			},
			{
				"x": -1.6908252612,
				"y": -3.0828251326,
				"z": 2.6078690979,
				"element": "H" 
			},
			{
				"x": -0.0750568151,
				"y": -0.7893125558,
				"z": 4.7202561579,
				"element": "H" 
			},
			{
				"x": 0.7300807245,
				"y": -0.2189276923,
				"z": 2.6127598391,
				"element": "H" 
			},
			{
				"x": -0.1376815985,
				"y": -1.5025981541,
				"z": -0.6184060587,
				"element": "H" 
			},
			{
				"x": 2.152720253,
				"y": -0.4946682858,
				"z": -1.300092628,
				"element": "H" 
			},
			{
				"x": 3.2262278934,
				"y": 1.7027914023,
				"z": -1.7159322564,
				"element": "H" 
			},
			{
				"x": 2.3743628865,
				"y": 3.7425431996,
				"z": -0.574043111,
				"element": "H" 
			},
			{
				"x": 0.4121941262,
				"y": 3.5746709903,
				"z": 0.9445213897,
				"element": "H" 
			},
			{
				"x": -0.7062633489,
				"y": 1.3931732289,
				"z": 1.297776412,
				"element": "H" 
			}
		],
		 "valence_orbital": [ 
			{
				"type": "occ",
				"energy": -0.29071,
				"method": "rhf"
			},
			{
				"type": "occ",
				"energy": -0.28589,
				"method": "rhf"
			},
			{
				"type": "occ",
				"energy": -0.27952,
				"method": "rhf"
			},
			{
				"type": "occ",
				"energy": -0.25827,
				"method": "rhf"
			},
			{
				"type": "occ",
				"energy": -0.25627,
				"method": "rhf"
			},
			{
				"type": "unocc",
				"energy": -0.08742,
				"method": "rhf"
			},
			{
				"type": "unocc",
				"energy": -0.03155,
				"method": "rhf"
			},
			{
				"type": "unocc",
				"energy": -0.02988,
				"method": "rhf"
			},
			{
				"type": "unocc",
				"energy": 0.03005,
				"method": "rhf"
			},
			{
				"type": "unocc",
				"energy": 0.06983,
				"method": "rhf"
			}
		],
		"cosmo_sigma_profile": { 
			"-0.025": 0.0,
			"-0.024": 0.0,
			"-0.023": 0.0,
			"-0.022": 0.0,
			"-0.021": 0.0,
			"-0.02": 0.0,
			"-0.019": 0.0,
			"-0.018": 0.0,
			"-0.017": 0.0,
			"-0.016": 0.256019147457,
			"-0.015": 0.994054851088,
			"-0.014": 0.98055993354,
			"-0.013": 1.06214759544,
			"-0.012": 1.05475119089,
			"-0.011": 0.990779190889,
			"-0.01": 1.13783509605,
			"-0.009": 1.25469018789,
			"-0.008": 4.34295601383,
			"-0.007": 9.47073806261,
			"-0.006": 14.9586326262,
			"-0.005": 17.39918657,
			"-0.004": 18.8392388493,
			"-0.003": 15.5560635748,
			"-0.002": 16.1364710198,
			"-0.001": 15.006036336,
			"0.0": 14.5566802541,
			"0.001": 11.6325362303,
			"0.002": 10.9744658025,
			"0.003": 10.9697225123,
			"0.004": 13.0522622035,
			"0.005": 8.04441193273,
			"0.006": 2.709219163,
			"0.007": 2.04036389886,
			"0.008": 4.23048151576,
			"0.009": 4.13715161428,
			"0.01": 5.25990288021,
			"0.011": 6.28352223474,
			"0.012": 7.44618076714,
			"0.013": 3.93542512799,
			"0.014": 1.0090793158,
			"0.015": 0.0,
			"0.016": 0.0,
			"0.017": 0.0,
			"0.018": 0.0,
			"0.019": 0.0,
			"0.02": 0.0,
			"0.021": 0.0,
			"0.022": 0.0,
			"0.023": 0.0,
			"0.024": 0.0,
			"0.025": 0.0
		}
	}
}
