{
	 "smiles": "COC1=CC(=CC=C1)C(N)(C(O)=O)C(F)(F)F", 
	 "Tm": 413.15, 
	 "num_atms": 27, 
	 "gaussian": { 
		 "optdone": 1, 
		 "sigma_profile": "yes", 
		 "theory": "DFT", 
		 "functional": "B3LYP", 
		 "basiset": "6-31G**", 
		 "properties": { 
			 "R2extent": 4309.0626, 
			 "electric_dipole_moment_norm": 3.91432830892, 
			 "electric_quadrupole_moment_norm": 13.9224752753, 
			 "total_energy": -967.029367799, 
			 "HOMO_LUMO_gap": 0.20266, 
			 "cosmo_polarized_energy": -12.68, 
			 "cosmo_cavitation_energy": 31.39, 
			 "cosmo_dispersion_energy": -21.89, 
			 "cosmo_repulsion_energy": 1.64, 
			 "cosmo_total_nonelectrostatic_energy": 11.15, 
			 "SMD_solvation_energy": 7.46 
		},
		"coords": [
			{
				"x": -0.4026885118,
				"y": 2.9171278419,
				"z": -2.0448401325,
				"element": "C" 
			},
			{
				"x": 0.7171687608,
				"y": 3.0703521147,
				"z": -1.1846379144,
				"element": "O" 
			},
			{
				"x": 0.8887396822,
				"y": 2.1779995152,
				"z": -0.169498641,
				"element": "C" 
			},
			{
				"x": 0.0249688409,
				"y": 1.1043217321,
				"z": 0.0853368134,
				"element": "C" 
			},
			{
				"x": 0.2866046883,
				"y": 0.2334298257,
				"z": 1.1541950726,
				"element": "C" 
			},
			{
				"x": 1.4176467245,
				"y": 0.4424537644,
				"z": 1.9543351735,
				"element": "C" 
			},
			{
				"x": 2.268777571,
				"y": 1.5176953203,
				"z": 1.6932302505,
				"element": "C" 
			},
			{
				"x": 2.0135624971,
				"y": 2.3865578707,
				"z": 0.6393931497,
				"element": "C" 
			},
			{
				"x": -0.577359041,
				"y": -1.0054488835,
				"z": 1.4724581025,
				"element": "C" 
			},
			{
				"x": 0.1095838719,
				"y": -2.2595799151,
				"z": 1.2047396739,
				"element": "N" 
			},
			{
				"x": -0.9284449245,
				"y": -0.9600908859,
				"z": 2.9980983665,
				"element": "C" 
			},
			{
				"x": -1.7862066928,
				"y": -0.0117896815,
				"z": 3.3999324336,
				"element": "O" 
			},
			{
				"x": -0.4113975593,
				"y": -1.7129695314,
				"z": 3.7872793258,
				"element": "O" 
			},
			{
				"x": -1.900652666,
				"y": -1.065313398,
				"z": 0.6739525929,
				"element": "C" 
			},
			{
				"x": -2.6789466042,
				"y": -2.0644891695,
				"z": 1.1076682135,
				"element": "F" 
			},
			{
				"x": -2.6383885125,
				"y": 0.0913688223,
				"z": 0.8110509484,
				"element": "F" 
			},
			{
				"x": -1.6960926465,
				"y": -1.229466624,
				"z": -0.6413871545,
				"element": "F" 
			},
			{
				"x": -0.3378782234,
				"y": 3.731030293,
				"z": -2.7681487201,
				"element": "H" 
			},
			{
				"x": -0.3762085789,
				"y": 1.9582311089,
				"z": -2.5777585487,
				"element": "H" 
			},
			{
				"x": -1.3494878336,
				"y": 2.9974476402,
				"z": -1.4957681265,
				"element": "H" 
			},
			{
				"x": -0.8328200473,
				"y": 0.9491742297,
				"z": -0.5509045614,
				"element": "H" 
			},
			{
				"x": 1.6291252404,
				"y": -0.22916131,
				"z": 2.7801509112,
				"element": "H" 
			},
			{
				"x": 3.1392957507,
				"y": 1.6781909865,
				"z": 2.3222563857,
				"element": "H" 
			},
			{
				"x": 2.6640977639,
				"y": 3.2266750566,
				"z": 0.4209937653,
				"element": "H" 
			},
			{
				"x": 0.3680226571,
				"y": -2.6876085362,
				"z": 2.0904039288,
				"element": "H" 
			},
			{
				"x": 0.9405004167,
				"y": -2.1032832012,
				"z": 0.647451757,
				"element": "H" 
			},
			{
				"x": -2.1306226237,
				"y": 0.484045014,
				"z": 2.6400169344,
				"element": "H" 
			}
		],
		 "valence_orbital": [ 
			{
				"type": "occ",
				"energy": -0.33141,
				"method": "rhf"
			},
			{
				"type": "occ",
				"energy": -0.29615,
				"method": "rhf"
			},
			{
				"type": "occ",
				"energy": -0.2725,
				"method": "rhf"
			},
			{
				"type": "occ",
				"energy": -0.25777,
				"method": "rhf"
			},
			{
				"type": "occ",
				"energy": -0.23105,
				"method": "rhf"
			},
			{
				"type": "unocc",
				"energy": -0.02839,
				"method": "rhf"
			},
			{
				"type": "unocc",
				"energy": -0.00966,
				"method": "rhf"
			},
			{
				"type": "unocc",
				"energy": 0.00191,
				"method": "rhf"
			},
			{
				"type": "unocc",
				"energy": 0.0827,
				"method": "rhf"
			},
			{
				"type": "unocc",
				"energy": 0.09125,
				"method": "rhf"
			}
		],
		"cosmo_sigma_profile": { 
			"-0.025": 0.0,
			"-0.024": 0.0,
			"-0.023": 0.0,
			"-0.022": 0.0,
			"-0.021": 0.0,
			"-0.02": 0.0,
			"-0.019": 0.0,
			"-0.018": 0.0,
			"-0.017": 0.0218201208703,
			"-0.016": 0.451480404603,
			"-0.015": 0.166986947889,
			"-0.014": 0.348624411689,
			"-0.013": 1.20062106466,
			"-0.012": 0.798247698188,
			"-0.011": 1.97054997181,
			"-0.01": 1.8070311238,
			"-0.009": 2.77627960864,
			"-0.008": 3.29950095396,
			"-0.007": 4.74553782335,
			"-0.006": 13.7684567487,
			"-0.005": 18.894845042,
			"-0.004": 18.800967386,
			"-0.003": 16.3202929486,
			"-0.002": 13.5725536974,
			"-0.001": 15.0288694698,
			"0.0": 16.8700101694,
			"0.001": 23.5323990849,
			"0.002": 25.4091739263,
			"0.003": 15.3189947515,
			"0.004": 12.9495732506,
			"0.005": 7.23027911227,
			"0.006": 5.94986962531,
			"0.007": 4.41264228473,
			"0.008": 6.418874084,
			"0.009": 7.25115901708,
			"0.01": 5.38991549696,
			"0.011": 2.68105403076,
			"0.012": 1.39758006179,
			"0.013": 0.473115645025,
			"0.014": 0.469210378169,
			"0.015": 0.0682624912336,
			"0.016": 0.0,
			"0.017": 0.0,
			"0.018": 0.0,
			"0.019": 0.0,
			"0.02": 0.0,
			"0.021": 0.0,
			"0.022": 0.0,
			"0.023": 0.0,
			"0.024": 0.0,
			"0.025": 0.0
		}
	}
}
