{
	 "smiles": "OC(=O)C1=CC(COC2=C(C=CC=C2)C#N)=CC=C1", 
	 "Tm": 427.15, 
	 "num_atms": 30, 
	 "gaussian": { 
		 "optdone": 1, 
		 "sigma_profile": "yes", 
		 "theory": "DFT", 
		 "functional": "B3LYP", 
		 "basiset": "6-31G**", 
		 "properties": { 
			 "R2extent": 5983.6866, 
			 "electric_dipole_moment_norm": 9.76960808272, 
			 "electric_quadrupole_moment_norm": 19.6910187906, 
			 "total_energy": -858.635310494, 
			 "HOMO_LUMO_gap": 0.18767, 
			 "cosmo_polarized_energy": -19.11, 
			 "cosmo_cavitation_energy": 35.19, 
			 "cosmo_dispersion_energy": -24.91, 
			 "cosmo_repulsion_energy": 1.85, 
			 "cosmo_total_nonelectrostatic_energy": 12.13, 
			 "SMD_solvation_energy": 8.17 
		},
		"coords": [
			{
				"x": 1.7668761843,
				"y": 1.2283976674,
				"z": -2.493285659,
				"element": "O" 
			},
			{
				"x": 1.99185424,
				"y": 0.0146513249,
				"z": -3.0390119659,
				"element": "C" 
			},
			{
				"x": 2.7646100595,
				"y": -0.0965178031,
				"z": -3.9661375611,
				"element": "O" 
			},
			{
				"x": 1.272195496,
				"y": -1.1749521736,
				"z": -2.4623967694,
				"element": "C" 
			},
			{
				"x": 0.6663614555,
				"y": -1.1549584122,
				"z": -1.2052912324,
				"element": "C" 
			},
			{
				"x": -0.0066615004,
				"y": -2.2783406569,
				"z": -0.712364048,
				"element": "C" 
			},
			{
				"x": -0.6676004562,
				"y": -2.2118375621,
				"z": 0.647341511,
				"element": "C" 
			},
			{
				"x": -1.2035066418,
				"y": -0.8867517286,
				"z": 0.7885665703,
				"element": "O" 
			},
			{
				"x": -1.3072488183,
				"y": -0.2986575613,
				"z": 2.0031628879,
				"element": "C" 
			},
			{
				"x": -1.0712375202,
				"y": 1.0972481152,
				"z": 2.0242824841,
				"element": "C" 
			},
			{
				"x": -1.2196774421,
				"y": 1.8181521733,
				"z": 3.2176918959,
				"element": "C" 
			},
			{
				"x": -1.5783812253,
				"y": 1.154857911,
				"z": 4.388271164,
				"element": "C" 
			},
			{
				"x": -1.7817652251,
				"y": -0.2277427328,
				"z": 4.3673854014,
				"element": "C" 
			},
			{
				"x": -1.6497266135,
				"y": -0.9587729512,
				"z": 3.1850987174,
				"element": "C" 
			},
			{
				"x": -0.6104337616,
				"y": 1.705088992,
				"z": 0.8132973489,
				"element": "C" 
			},
			{
				"x": -0.1881748765,
				"y": 2.12039145,
				"z": -0.1884613458,
				"element": "N" 
			},
			{
				"x": -0.0519867535,
				"y": -3.4391378093,
				"z": -1.4874840267,
				"element": "C" 
			},
			{
				"x": 0.5820601786,
				"y": -3.4783829918,
				"z": -2.7335284387,
				"element": "C" 
			},
			{
				"x": 1.2422238475,
				"y": -2.354341764,
				"z": -3.2210771137,
				"element": "C" 
			},
			{
				"x": 1.0327087991,
				"y": 1.2619541902,
				"z": -1.8558652167,
				"element": "H" 
			},
			{
				"x": 0.7008811472,
				"y": -0.2627331892,
				"z": -0.593809443,
				"element": "H" 
			},
			{
				"x": 0.0529025396,
				"y": -2.3957635883,
				"z": 1.4562165844,
				"element": "H" 
			},
			{
				"x": -1.469379757,
				"y": -2.9563030499,
				"z": 0.729362222,
				"element": "H" 
			},
			{
				"x": -1.0361897218,
				"y": 2.8873787073,
				"z": 3.2176251132,
				"element": "H" 
			},
			{
				"x": -1.6909557193,
				"y": 1.7102440781,
				"z": 5.3131442727,
				"element": "H" 
			},
			{
				"x": -2.0554800212,
				"y": -0.7463966775,
				"z": 5.2813775037,
				"element": "H" 
			},
			{
				"x": -1.8311698189,
				"y": -2.028078216,
				"z": 3.1752921873,
				"element": "H" 
			},
			{
				"x": -0.5859287639,
				"y": -4.3140566755,
				"z": -1.124172489,
				"element": "H" 
			},
			{
				"x": 0.5458321007,
				"y": -4.3863700329,
				"z": -3.3280151874,
				"element": "H" 
			},
			{
				"x": 1.7352985884,
				"y": -2.3600690332,
				"z": -4.1869153674,
				"element": "H" 
			}
		],
		 "valence_orbital": [ 
			{
				"type": "occ",
				"energy": -0.28396,
				"method": "rhf"
			},
			{
				"type": "occ",
				"energy": -0.26628,
				"method": "rhf"
			},
			{
				"type": "occ",
				"energy": -0.26384,
				"method": "rhf"
			},
			{
				"type": "occ",
				"energy": -0.25621,
				"method": "rhf"
			},
			{
				"type": "occ",
				"energy": -0.25286,
				"method": "rhf"
			},
			{
				"type": "unocc",
				"energy": -0.06519,
				"method": "rhf"
			},
			{
				"type": "unocc",
				"energy": -0.0426,
				"method": "rhf"
			},
			{
				"type": "unocc",
				"energy": -0.02831,
				"method": "rhf"
			},
			{
				"type": "unocc",
				"energy": -0.02008,
				"method": "rhf"
			},
			{
				"type": "unocc",
				"energy": 0.00966,
				"method": "rhf"
			}
		],
		"cosmo_sigma_profile": { 
			"-0.025": 0.0,
			"-0.024": 0.0,
			"-0.023": 0.0,
			"-0.022": 0.0,
			"-0.021": 0.0,
			"-0.02": 0.0,
			"-0.019": 0.0,
			"-0.018": 0.0,
			"-0.017": 0.0,
			"-0.016": 0.0,
			"-0.015": 0.0,
			"-0.014": 0.0,
			"-0.013": 0.0,
			"-0.012": 0.0,
			"-0.011": 0.00595052981258,
			"-0.01": 0.35078156127,
			"-0.009": 0.658803702521,
			"-0.008": 5.75063112107,
			"-0.007": 19.1130935629,
			"-0.006": 24.1010731235,
			"-0.005": 22.9760767134,
			"-0.004": 17.3392934766,
			"-0.003": 15.6349984604,
			"-0.002": 15.0207836069,
			"-0.001": 17.3317814303,
			"0.0": 17.6554496066,
			"0.001": 20.860613253,
			"0.002": 22.0973875273,
			"0.003": 25.2347255258,
			"0.004": 10.8214718813,
			"0.005": 6.62094621204,
			"0.006": 6.51099542083,
			"0.007": 6.49653567052,
			"0.008": 5.40191019481,
			"0.009": 5.71731839576,
			"0.01": 4.93673717001,
			"0.011": 5.11817379658,
			"0.012": 5.6701470782,
			"0.013": 2.45443106298,
			"0.014": 0.405331019687,
			"0.015": 0.0,
			"0.016": 0.0,
			"0.017": 0.0,
			"0.018": 0.0,
			"0.019": 0.0,
			"0.02": 0.0,
			"0.021": 0.0,
			"0.022": 0.0,
			"0.023": 0.0,
			"0.024": 0.0,
			"0.025": 0.0
		}
	}
}
