{
	 "smiles": "FC1=C(Br)C=C(Br)C=C1", 
	 "Tm": 342.15, 
	 "num_atms": 12, 
	 "gaussian": { 
		 "optdone": 1, 
		 "sigma_profile": "yes", 
		 "theory": "DFT", 
		 "functional": "B3LYP", 
		 "basiset": "6-31G**", 
		 "properties": { 
			 "R2extent": 3987.1189, 
			 "electric_dipole_moment_norm": 1.25308995687, 
			 "electric_quadrupole_moment_norm": 4.99605246269, 
			 "total_energy": -5473.08240145, 
			 "HOMO_LUMO_gap": 0.21136, 
			 "cosmo_polarized_energy": -3.8, 
			 "cosmo_cavitation_energy": 21.63, 
			 "cosmo_dispersion_energy": -16.82, 
			 "cosmo_repulsion_energy": 1.36, 
			 "cosmo_total_nonelectrostatic_energy": 6.17, 
			 "SMD_solvation_energy": 1.98 
		},
		"coords": [
			{
				"x": -0.7477624996,
				"y": 1.5488870209,
				"z": -1.75206452,
				"element": "F" 
			},
			{
				"x": -0.5152741632,
				"y": 0.8650664411,
				"z": -0.6227207087,
				"element": "C" 
			},
			{
				"x": -1.5190057575,
				"y": 0.7436601623,
				"z": 0.3378888128,
				"element": "C" 
			},
			{
				"x": -3.2116113255,
				"y": 1.5490631497,
				"z": 0.0406838771,
				"element": "Br" 
			},
			{
				"x": -1.2726018616,
				"y": 0.0313397568,
				"z": 1.5110939975,
				"element": "C" 
			},
			{
				"x": -0.0199084489,
				"y": -0.5493281856,
				"z": 1.7025322407,
				"element": "C" 
			},
			{
				"x": 0.3174749182,
				"y": -1.523866443,
				"z": 3.3075468563,
				"element": "Br" 
			},
			{
				"x": 0.9865106926,
				"y": -0.4300719945,
				"z": 0.7442473267,
				"element": "C" 
			},
			{
				"x": 0.7320714852,
				"y": 0.2834353787,
				"z": -0.4255134957,
				"element": "C" 
			},
			{
				"x": -2.04934469,
				"y": -0.0648696367,
				"z": 2.2587473616,
				"element": "H" 
			},
			{
				"x": 1.9551579357,
				"y": -0.8868590128,
				"z": 0.9072230943,
				"element": "H" 
			},
			{
				"x": 1.4904937146,
				"y": 0.3968433631,
				"z": -1.1923648427,
				"element": "H" 
			}
		],
		 "valence_orbital": [ 
			{
				"type": "occ",
				"energy": -0.31142,
				"method": "rhf"
			},
			{
				"type": "occ",
				"energy": -0.30152,
				"method": "rhf"
			},
			{
				"type": "occ",
				"energy": -0.29668,
				"method": "rhf"
			},
			{
				"type": "occ",
				"energy": -0.26779,
				"method": "rhf"
			},
			{
				"type": "occ",
				"energy": -0.24796,
				"method": "rhf"
			},
			{
				"type": "unocc",
				"energy": -0.0366,
				"method": "rhf"
			},
			{
				"type": "unocc",
				"energy": -0.02488,
				"method": "rhf"
			},
			{
				"type": "unocc",
				"energy": -0.02357,
				"method": "rhf"
			},
			{
				"type": "unocc",
				"energy": 0.01651,
				"method": "rhf"
			},
			{
				"type": "unocc",
				"energy": 0.10345,
				"method": "rhf"
			}
		],
		"cosmo_sigma_profile": { 
			"-0.025": 0.0,
			"-0.024": 0.0,
			"-0.023": 0.0,
			"-0.022": 0.0,
			"-0.021": 0.0,
			"-0.02": 0.0,
			"-0.019": 0.0,
			"-0.018": 0.0,
			"-0.017": 0.0,
			"-0.016": 0.0,
			"-0.015": 0.0,
			"-0.014": 0.0,
			"-0.013": 0.0,
			"-0.012": 0.0,
			"-0.011": 0.0,
			"-0.01": 0.0,
			"-0.009": 1.16102768993,
			"-0.008": 4.79765930201,
			"-0.007": 5.42330030742,
			"-0.006": 5.53589817505,
			"-0.005": 6.53882928094,
			"-0.004": 8.29864301771,
			"-0.003": 7.39366415615,
			"-0.002": 9.90355825832,
			"-0.001": 18.1437010779,
			"0.0": 20.6193738355,
			"0.001": 25.2824142895,
			"0.002": 17.2918625256,
			"0.003": 23.4421202479,
			"0.004": 23.7806144295,
			"0.005": 3.78384127646,
			"0.006": 0.0,
			"0.007": 0.0,
			"0.008": 0.0,
			"0.009": 0.0,
			"0.01": 0.0,
			"0.011": 0.0,
			"0.012": 0.0,
			"0.013": 0.0,
			"0.014": 0.0,
			"0.015": 0.0,
			"0.016": 0.0,
			"0.017": 0.0,
			"0.018": 0.0,
			"0.019": 0.0,
			"0.02": 0.0,
			"0.021": 0.0,
			"0.022": 0.0,
			"0.023": 0.0,
			"0.024": 0.0,
			"0.025": 0.0
		}
	}
}
