{
	 "smiles": "N(C1=CC=CC=C1)C1=CC=C(C=C1)N=NC1=CC=CC=C1", 
	 "Tm": 363.15, 
	 "num_atms": 36, 
	 "gaussian": { 
		 "optdone": 1, 
		 "sigma_profile": "yes", 
		 "theory": "DFT", 
		 "functional": "B3LYP", 
		 "basiset": "6-31G**", 
		 "properties": { 
			 "R2extent": 11905.9841, 
			 "electric_dipole_moment_norm": 2.33361272494, 
			 "electric_quadrupole_moment_norm": 18.4753113855, 
			 "total_energy": -859.17477993, 
			 "HOMO_LUMO_gap": 0.11977, 
			 "cosmo_polarized_energy": -12.21, 
			 "cosmo_cavitation_energy": 41.08, 
			 "cosmo_dispersion_energy": -30.02, 
			 "cosmo_repulsion_energy": 2.27, 
			 "cosmo_total_nonelectrostatic_energy": 13.33, 
			 "SMD_solvation_energy": 5.4 
		},
		"coords": [
			{
				"x": 2.1127120206,
				"y": 0.0523594696,
				"z": -2.9942803264,
				"element": "N" 
			},
			{
				"x": 3.3042633554,
				"y": -0.6602126094,
				"z": -2.786783164,
				"element": "C" 
			},
			{
				"x": 3.469397324,
				"y": -1.5755114657,
				"z": -1.7333082092,
				"element": "C" 
			},
			{
				"x": 4.6657080513,
				"y": -2.2794254208,
				"z": -1.6018190351,
				"element": "C" 
			},
			{
				"x": 5.7046498594,
				"y": -2.1075606916,
				"z": -2.5181131795,
				"element": "C" 
			},
			{
				"x": 5.5332658619,
				"y": -1.2158786817,
				"z": -3.579316783,
				"element": "C" 
			},
			{
				"x": 4.3506413955,
				"y": -0.4930396135,
				"z": -3.7105642536,
				"element": "C" 
			},
			{
				"x": 1.16415065,
				"y": 0.4874589454,
				"z": -2.0767382061,
				"element": "C" 
			},
			{
				"x": -0.107366396,
				"y": 0.8644150638,
				"z": -2.5550340128,
				"element": "C" 
			},
			{
				"x": -1.0751038816,
				"y": 1.3413015021,
				"z": -1.6849005554,
				"element": "C" 
			},
			{
				"x": -0.8167684025,
				"y": 1.4504742096,
				"z": -0.309556772,
				"element": "C" 
			},
			{
				"x": 0.4564325795,
				"y": 1.0872862612,
				"z": 0.1689469795,
				"element": "C" 
			},
			{
				"x": 1.4323343256,
				"y": 0.6196474207,
				"z": -0.6948134678,
				"element": "C" 
			},
			{
				"x": -1.8732921165,
				"y": 1.936222026,
				"z": 0.4822865731,
				"element": "N" 
			},
			{
				"x": -1.630792248,
				"y": 2.0008413114,
				"z": 1.7215766962,
				"element": "N" 
			},
			{
				"x": -2.6992810833,
				"y": 2.4976631889,
				"z": 2.5085590195,
				"element": "C" 
			},
			{
				"x": -3.9480371338,
				"y": 2.9029615824,
				"z": 2.0042697207,
				"element": "C" 
			},
			{
				"x": -4.9228246649,
				"y": 3.3744926323,
				"z": 2.8759614523,
				"element": "C" 
			},
			{
				"x": -4.6700588231,
				"y": 3.4489328661,
				"z": 4.2519359453,
				"element": "C" 
			},
			{
				"x": -3.4310947117,
				"y": 3.0473440987,
				"z": 4.7547700168,
				"element": "C" 
			},
			{
				"x": -2.4494345939,
				"y": 2.5734296397,
				"z": 3.8860356187,
				"element": "C" 
			},
			{
				"x": 1.9244506531,
				"y": 0.2995973394,
				"z": -3.9546131373,
				"element": "H" 
			},
			{
				"x": 2.6570854236,
				"y": -1.7536820252,
				"z": -1.0384138792,
				"element": "H" 
			},
			{
				"x": 4.7757749945,
				"y": -2.9828877948,
				"z": -0.781263106,
				"element": "H" 
			},
			{
				"x": 6.6308267715,
				"y": -2.6632383834,
				"z": -2.4105034974,
				"element": "H" 
			},
			{
				"x": 6.3284040447,
				"y": -1.0718310565,
				"z": -4.3053255185,
				"element": "H" 
			},
			{
				"x": 4.2314388513,
				"y": 0.2149194587,
				"z": -4.5272220947,
				"element": "H" 
			},
			{
				"x": -0.327382016,
				"y": 0.7697352873,
				"z": -3.6155923781,
				"element": "H" 
			},
			{
				"x": -2.0566819065,
				"y": 1.6305743168,
				"z": -2.0470222974,
				"element": "H" 
			},
			{
				"x": 0.6618075464,
				"y": 1.1968643223,
				"z": 1.2278566541,
				"element": "H" 
			},
			{
				"x": 2.4178003499,
				"y": 0.3807700849,
				"z": -0.3131769677,
				"element": "H" 
			},
			{
				"x": -4.1244151547,
				"y": 2.8379464235,
				"z": 0.9367716592,
				"element": "H" 
			},
			{
				"x": -5.8877360081,
				"y": 3.6876501018,
				"z": 2.4865293773,
				"element": "H" 
			},
			{
				"x": -5.4376954466,
				"y": 3.8188422644,
				"z": 4.9256935154,
				"element": "H" 
			},
			{
				"x": -3.2304811616,
				"y": 3.1032966942,
				"z": 5.8207756052,
				"element": "H" 
			},
			{
				"x": -1.4769983095,
				"y": 2.2541412315,
				"z": 4.2476920079,
				"element": "H" 
			}
		],
		 "valence_orbital": [ 
			{
				"type": "occ",
				"energy": -0.25534,
				"method": "rhf"
			},
			{
				"type": "occ",
				"energy": -0.24825,
				"method": "rhf"
			},
			{
				"type": "occ",
				"energy": -0.23436,
				"method": "rhf"
			},
			{
				"type": "occ",
				"energy": -0.2159,
				"method": "rhf"
			},
			{
				"type": "occ",
				"energy": -0.19122,
				"method": "rhf"
			},
			{
				"type": "unocc",
				"energy": -0.07145,
				"method": "rhf"
			},
			{
				"type": "unocc",
				"energy": -0.00809,
				"method": "rhf"
			},
			{
				"type": "unocc",
				"energy": -0.00622,
				"method": "rhf"
			},
			{
				"type": "unocc",
				"energy": -0.00212,
				"method": "rhf"
			},
			{
				"type": "unocc",
				"energy": 0.00353,
				"method": "rhf"
			}
		],
		"cosmo_sigma_profile": { 
			"-0.025": 0.0,
			"-0.024": 0.0,
			"-0.023": 0.0,
			"-0.022": 0.0,
			"-0.021": 0.0,
			"-0.02": 0.0,
			"-0.019": 0.0,
			"-0.018": 0.0,
			"-0.017": 0.0,
			"-0.016": 0.0,
			"-0.015": 0.370830684634,
			"-0.014": 1.11266667468,
			"-0.013": 1.46815656576,
			"-0.012": 1.38108319084,
			"-0.011": 1.28611375387,
			"-0.01": 1.52270243949,
			"-0.009": 1.85720496058,
			"-0.008": 1.94613064854,
			"-0.007": 2.42845586166,
			"-0.006": 14.5068805358,
			"-0.005": 25.0959697165,
			"-0.004": 29.4732926223,
			"-0.003": 23.674553807,
			"-0.002": 20.4177295784,
			"-0.001": 16.9098720391,
			"0.0": 17.203559383,
			"0.001": 19.5468664066,
			"0.002": 29.7340449689,
			"0.003": 39.688233398,
			"0.004": 38.136402432,
			"0.005": 23.6895747741,
			"0.006": 10.748591655,
			"0.007": 3.33188977115,
			"0.008": 3.18793366935,
			"0.009": 1.40419154483,
			"0.01": 0.150077323976,
			"0.011": 0.0,
			"0.012": 0.0,
			"0.013": 0.0,
			"0.014": 0.0,
			"0.015": 0.0,
			"0.016": 0.0,
			"0.017": 0.0,
			"0.018": 0.0,
			"0.019": 0.0,
			"0.02": 0.0,
			"0.021": 0.0,
			"0.022": 0.0,
			"0.023": 0.0,
			"0.024": 0.0,
			"0.025": 0.0
		}
	}
}
