{
	 "smiles": "CC(Cl)C1=NN=C(O1)C1=CC=CC=C1", 
	 "Tm": 290.15, 
	 "num_atms": 23, 
	 "gaussian": { 
		 "optdone": 1, 
		 "sigma_profile": "yes", 
		 "theory": "DFT", 
		 "functional": "B3LYP", 
		 "basiset": "6-31G**", 
		 "properties": { 
			 "R2extent": 5197.3794, 
			 "electric_dipole_moment_norm": 3.66418594643, 
			 "electric_quadrupole_moment_norm": 18.6686412034, 
			 "total_energy": -1031.39089606, 
			 "HOMO_LUMO_gap": 0.18597, 
			 "cosmo_polarized_energy": -10.93, 
			 "cosmo_cavitation_energy": 29.74, 
			 "cosmo_dispersion_energy": -21.51, 
			 "cosmo_repulsion_energy": 1.71, 
			 "cosmo_total_nonelectrostatic_energy": 9.94, 
			 "SMD_solvation_energy": 3.05 
		},
		"coords": [
			{
				"x": 0.4325424596,
				"y": -3.8147972249,
				"z": 1.499154141,
				"element": "C" 
			},
			{
				"x": -1.0548868547,
				"y": -3.7176009258,
				"z": 1.1754810149,
				"element": "C" 
			},
			{
				"x": -2.0365117703,
				"y": -3.9444793029,
				"z": 2.716195291,
				"element": "Cl" 
			},
			{
				"x": -1.44487896,
				"y": -2.4423908433,
				"z": 0.5223909764,
				"element": "C" 
			},
			{
				"x": -2.0901853056,
				"y": -2.2925789532,
				"z": -0.591878296,
				"element": "N" 
			},
			{
				"x": -2.1955072921,
				"y": -0.9225347779,
				"z": -0.803726387,
				"element": "N" 
			},
			{
				"x": -1.606190029,
				"y": -0.3425190746,
				"z": 0.2033605519,
				"element": "C" 
			},
			{
				"x": -1.0975787614,
				"y": -1.2531598064,
				"z": 1.0882515082,
				"element": "O" 
			},
			{
				"x": -1.4440728523,
				"y": 1.0824437407,
				"z": 0.4647743752,
				"element": "C" 
			},
			{
				"x": -1.9486180389,
				"y": 2.0074929149,
				"z": -0.4644703595,
				"element": "C" 
			},
			{
				"x": -1.8037946769,
				"y": 3.3715807375,
				"z": -0.2317165699,
				"element": "C" 
			},
			{
				"x": -1.1583689466,
				"y": 3.8243803217,
				"z": 0.922981567,
				"element": "C" 
			},
			{
				"x": -0.6570958462,
				"y": 2.9059048173,
				"z": 1.8477939707,
				"element": "C" 
			},
			{
				"x": -0.797261235,
				"y": 1.5377639033,
				"z": 1.6238643573,
				"element": "C" 
			},
			{
				"x": 1.012186613,
				"y": -3.7331178641,
				"z": 0.5733310024,
				"element": "H" 
			},
			{
				"x": 0.6547100922,
				"y": -4.7755712079,
				"z": 1.9676944713,
				"element": "H" 
			},
			{
				"x": 0.7373250058,
				"y": -3.0133623676,
				"z": 2.1756654936,
				"element": "H" 
			},
			{
				"x": -1.3769490774,
				"y": -4.521141633,
				"z": 0.5132073749,
				"element": "H" 
			},
			{
				"x": -2.4471930589,
				"y": 1.6409302134,
				"z": -1.3553178248,
				"element": "H" 
			},
			{
				"x": -2.1949234847,
				"y": 4.0840755155,
				"z": -0.951676871,
				"element": "H" 
			},
			{
				"x": -1.0475517772,
				"y": 4.8899549042,
				"z": 1.101124973,
				"element": "H" 
			},
			{
				"x": -0.1569444265,
				"y": 3.2547481307,
				"z": 2.7462082042,
				"element": "H" 
			},
			{
				"x": -0.4117517771,
				"y": 0.8220787824,
				"z": 2.3421070351,
				"element": "H" 
			}
		],
		 "valence_orbital": [ 
			{
				"type": "occ",
				"energy": -0.30585,
				"method": "rhf"
			},
			{
				"type": "occ",
				"energy": -0.30384,
				"method": "rhf"
			},
			{
				"type": "occ",
				"energy": -0.2831,
				"method": "rhf"
			},
			{
				"type": "occ",
				"energy": -0.26696,
				"method": "rhf"
			},
			{
				"type": "occ",
				"energy": -0.24582,
				"method": "rhf"
			},
			{
				"type": "unocc",
				"energy": -0.05985,
				"method": "rhf"
			},
			{
				"type": "unocc",
				"energy": -0.0228,
				"method": "rhf"
			},
			{
				"type": "unocc",
				"energy": -0.01471,
				"method": "rhf"
			},
			{
				"type": "unocc",
				"energy": 0.04122,
				"method": "rhf"
			},
			{
				"type": "unocc",
				"energy": 0.05632,
				"method": "rhf"
			}
		],
		"cosmo_sigma_profile": { 
			"-0.025": 0.0,
			"-0.024": 0.0,
			"-0.023": 0.0,
			"-0.022": 0.0,
			"-0.021": 0.0,
			"-0.02": 0.0,
			"-0.019": 0.0,
			"-0.018": 0.0,
			"-0.017": 0.0,
			"-0.016": 0.0,
			"-0.015": 0.0,
			"-0.014": 0.0,
			"-0.013": 0.0,
			"-0.012": 0.0,
			"-0.011": 0.0,
			"-0.01": 0.211922994356,
			"-0.009": 1.8227524139,
			"-0.008": 1.88220475072,
			"-0.007": 6.26126783983,
			"-0.006": 16.7167853694,
			"-0.005": 19.0301795131,
			"-0.004": 19.5251351285,
			"-0.003": 17.0911843464,
			"-0.002": 19.4464564913,
			"-0.001": 18.9356795722,
			"0.0": 15.489843901,
			"0.001": 17.7781266325,
			"0.002": 15.6883465185,
			"0.003": 18.7514192015,
			"0.004": 16.7487843966,
			"0.005": 10.2854733905,
			"0.006": 5.7225051426,
			"0.007": 2.47861416704,
			"0.008": 2.12962265715,
			"0.009": 2.34085900693,
			"0.01": 2.2783863062,
			"0.011": 3.44062855161,
			"0.012": 2.83991432731,
			"0.013": 1.93786942087,
			"0.014": 1.65657587232,
			"0.015": 0.135121050648,
			"0.016": 0.0,
			"0.017": 0.0,
			"0.018": 0.0,
			"0.019": 0.0,
			"0.02": 0.0,
			"0.021": 0.0,
			"0.022": 0.0,
			"0.023": 0.0,
			"0.024": 0.0,
			"0.025": 0.0
		}
	}
}
