{
	 "smiles": "O[C@H]1CCC[C@@H]1O", 
	 "Tm": 328.15, 
	 "num_atms": 17, 
	 "gaussian": { 
		 "optdone": 1, 
		 "sigma_profile": "yes", 
		 "theory": "DFT", 
		 "functional": "B3LYP", 
		 "basiset": "6-31G**", 
		 "properties": { 
			 "R2extent": 1009.9033, 
			 "electric_dipole_moment_norm": 1.77753481822, 
			 "electric_quadrupole_moment_norm": 5.42599340029, 
			 "total_energy": -346.99169801, 
			 "HOMO_LUMO_gap": 0.33412, 
			 "cosmo_polarized_energy": -9.57, 
			 "cosmo_cavitation_energy": 18.55, 
			 "cosmo_dispersion_energy": -14.22, 
			 "cosmo_repulsion_energy": 1.22, 
			 "cosmo_total_nonelectrostatic_energy": 5.54, 
			 "SMD_solvation_energy": 2.8 
		},
		"coords": [
			{
				"x": -0.0761500152,
				"y": 1.2717619103,
				"z": 0.4895030078,
				"element": "O" 
			},
			{
				"x": 0.6734713677,
				"y": 0.8920734088,
				"z": -0.6653679761,
				"element": "C" 
			},
			{
				"x": 2.1652412061,
				"y": 0.9180220386,
				"z": -0.2758167924,
				"element": "C" 
			},
			{
				"x": 2.55645056,
				"y": -0.5490603449,
				"z": 0.0679672756,
				"element": "C" 
			},
			{
				"x": 1.2325403355,
				"y": -1.3420210246,
				"z": 0.006232174,
				"element": "C" 
			},
			{
				"x": 0.3990354636,
				"y": -0.5785824614,
				"z": -1.0293582309,
				"element": "C" 
			},
			{
				"x": 0.8855360803,
				"y": -0.7571564727,
				"z": -2.3584454433,
				"element": "O" 
			},
			{
				"x": -1.0132221373,
				"y": 1.2549536204,
				"z": 0.2538569627,
				"element": "H" 
			},
			{
				"x": 0.4495794723,
				"y": 1.5491291713,
				"z": -1.5169567271,
				"element": "H" 
			},
			{
				"x": 2.2915110281,
				"y": 1.5969371869,
				"z": 0.5716269957,
				"element": "H" 
			},
			{
				"x": 2.7675113771,
				"y": 1.3012714683,
				"z": -1.1031868219,
				"element": "H" 
			},
			{
				"x": 3.0399708716,
				"y": -0.6362805296,
				"z": 1.0449094361,
				"element": "H" 
			},
			{
				"x": 3.2590303189,
				"y": -0.9336910529,
				"z": -0.6768924559,
				"element": "H" 
			},
			{
				"x": 0.7125444017,
				"y": -1.2935511863,
				"z": 0.9687462245,
				"element": "H" 
			},
			{
				"x": 1.3644955955,
				"y": -2.4005441352,
				"z": -0.2487536676,
				"element": "H" 
			},
			{
				"x": -0.6763694866,
				"y": -0.8163976679,
				"z": -0.9724817996,
				"element": "H" 
			},
			{
				"x": 0.9141235606,
				"y": -1.7051639294,
				"z": -2.5396821616,
				"element": "H" 
			}
		],
		 "valence_orbital": [ 
			{
				"type": "occ",
				"energy": -0.33162,
				"method": "rhf"
			},
			{
				"type": "occ",
				"energy": -0.31576,
				"method": "rhf"
			},
			{
				"type": "occ",
				"energy": -0.30804,
				"method": "rhf"
			},
			{
				"type": "occ",
				"energy": -0.26703,
				"method": "rhf"
			},
			{
				"type": "occ",
				"energy": -0.26156,
				"method": "rhf"
			},
			{
				"type": "unocc",
				"energy": 0.07256,
				"method": "rhf"
			},
			{
				"type": "unocc",
				"energy": 0.07711,
				"method": "rhf"
			},
			{
				"type": "unocc",
				"energy": 0.10752,
				"method": "rhf"
			},
			{
				"type": "unocc",
				"energy": 0.12826,
				"method": "rhf"
			},
			{
				"type": "unocc",
				"energy": 0.15373,
				"method": "rhf"
			}
		],
		"cosmo_sigma_profile": { 
			"-0.025": 0.0,
			"-0.024": 0.0,
			"-0.023": 0.0,
			"-0.022": 0.0,
			"-0.021": 0.0,
			"-0.02": 0.0,
			"-0.019": 0.0,
			"-0.018": 0.0,
			"-0.017": 0.0,
			"-0.016": 0.235508091059,
			"-0.015": 1.53851851969,
			"-0.014": 1.8677659701,
			"-0.013": 1.88137006989,
			"-0.012": 2.02614546386,
			"-0.011": 1.39597338662,
			"-0.01": 1.82358994766,
			"-0.009": 1.29205390086,
			"-0.008": 2.85479772105,
			"-0.007": 2.73007812197,
			"-0.006": 1.92614543356,
			"-0.005": 2.48084950934,
			"-0.004": 4.49245288131,
			"-0.003": 11.5586285485,
			"-0.002": 14.9600783627,
			"-0.001": 17.7162914805,
			"0.0": 16.8505590932,
			"0.001": 14.7878062981,
			"0.002": 6.38558482874,
			"0.003": 2.61186674179,
			"0.004": 3.61142858949,
			"0.005": 3.08013862776,
			"0.006": 2.45822463438,
			"0.007": 2.75620236498,
			"0.008": 2.37150765802,
			"0.009": 3.37519488535,
			"0.01": 1.80465869067,
			"0.011": 1.98792430015,
			"0.012": 2.83850695142,
			"0.013": 2.99958924248,
			"0.014": 3.24435836649,
			"0.015": 0.474731287323,
			"0.016": 0.0,
			"0.017": 0.0,
			"0.018": 0.0,
			"0.019": 0.0,
			"0.02": 0.0,
			"0.021": 0.0,
			"0.022": 0.0,
			"0.023": 0.0,
			"0.024": 0.0,
			"0.025": 0.0
		}
	}
}
