{
	 "smiles": "NC1=C(Cl)C=CC(=C1)N1CCCC1=O", 
	 "Tm": 413.15, 
	 "num_atms": 25, 
	 "gaussian": { 
		 "optdone": 1, 
		 "sigma_profile": "yes", 
		 "theory": "DFT", 
		 "functional": "B3LYP", 
		 "basiset": "6-31G**", 
		 "properties": { 
			 "R2extent": 4390.7202, 
			 "electric_dipole_moment_norm": 3.48113738597, 
			 "electric_quadrupole_moment_norm": 13.3532783271, 
			 "total_energy": -1032.64007597, 
			 "HOMO_LUMO_gap": 0.18888, 
			 "cosmo_polarized_energy": -13.1, 
			 "cosmo_cavitation_energy": 29.31, 
			 "cosmo_dispersion_energy": -22.28, 
			 "cosmo_repulsion_energy": 1.75, 
			 "cosmo_total_nonelectrostatic_energy": 8.77, 
			 "SMD_solvation_energy": 4.5 
		},
		"coords": [
			{
				"x": 1.1066476539,
				"y": 3.401139782,
				"z": -1.5885450844,
				"element": "N" 
			},
			{
				"x": 1.1222742789,
				"y": 2.0956081395,
				"z": -1.1287943925,
				"element": "C" 
			},
			{
				"x": 2.1362682087,
				"y": 1.6245566569,
				"z": -0.2725850279,
				"element": "C" 
			},
			{
				"x": 3.4713069464,
				"y": 2.6935930152,
				"z": 0.1641872503,
				"element": "Cl" 
			},
			{
				"x": 2.1030538567,
				"y": 0.3307714621,
				"z": 0.2297991954,
				"element": "C" 
			},
			{
				"x": 1.0668189252,
				"y": -0.5353656347,
				"z": -0.108083844,
				"element": "C" 
			},
			{
				"x": 0.0463284565,
				"y": -0.0952616525,
				"z": -0.9720036821,
				"element": "C" 
			},
			{
				"x": 0.0857688366,
				"y": 1.2121934752,
				"z": -1.4730056978,
				"element": "C" 
			},
			{
				"x": -0.9946981965,
				"y": -0.9873115499,
				"z": -1.3269374094,
				"element": "N" 
			},
			{
				"x": -0.9674616361,
				"y": -2.3939253435,
				"z": -0.9037582986,
				"element": "C" 
			},
			{
				"x": -2.0925883529,
				"y": -3.0539442192,
				"z": -1.7199338697,
				"element": "C" 
			},
			{
				"x": -3.0658807012,
				"y": -1.9020360921,
				"z": -1.9837835779,
				"element": "C" 
			},
			{
				"x": -2.1882531103,
				"y": -0.6533031001,
				"z": -1.9584150362,
				"element": "C" 
			},
			{
				"x": -2.5014306374,
				"y": 0.4402204797,
				"z": -2.4002065737,
				"element": "O" 
			},
			{
				"x": 1.9925274349,
				"y": 3.8855727243,
				"z": -1.5869875185,
				"element": "H" 
			},
			{
				"x": 0.5453655045,
				"y": 3.5699921741,
				"z": -2.4100074947,
				"element": "H" 
			},
			{
				"x": 2.8953118292,
				"y": -0.0020371773,
				"z": 0.8915775127,
				"element": "H" 
			},
			{
				"x": 1.0617787464,
				"y": -1.5324283466,
				"z": 0.3119894024,
				"element": "H" 
			},
			{
				"x": -0.7091864366,
				"y": 1.5530941273,
				"z": -2.1215691903,
				"element": "H" 
			},
			{
				"x": 0.0105888039,
				"y": -2.835865732,
				"z": -1.1135476258,
				"element": "H" 
			},
			{
				"x": -1.1473655556,
				"y": -2.4722630049,
				"z": 0.1776117033,
				"element": "H" 
			},
			{
				"x": -2.5394150742,
				"y": -3.8976971297,
				"z": -1.1890718901,
				"element": "H" 
			},
			{
				"x": -1.6892614509,
				"y": -3.4293109948,
				"z": -2.6657112332,
				"element": "H" 
			},
			{
				"x": -3.6047699278,
				"y": -1.9634670734,
				"z": -2.9312710839,
				"element": "H" 
			},
			{
				"x": -3.8135284024,
				"y": -1.8023249858,
				"z": -1.1866465331,
				"element": "H" 
			}
		],
		 "valence_orbital": [ 
			{
				"type": "occ",
				"energy": -0.31088,
				"method": "rhf"
			},
			{
				"type": "occ",
				"energy": -0.27871,
				"method": "rhf"
			},
			{
				"type": "occ",
				"energy": -0.25048,
				"method": "rhf"
			},
			{
				"type": "occ",
				"energy": -0.22086,
				"method": "rhf"
			},
			{
				"type": "occ",
				"energy": -0.20149,
				"method": "rhf"
			},
			{
				"type": "unocc",
				"energy": -0.01261,
				"method": "rhf"
			},
			{
				"type": "unocc",
				"energy": 0.00788,
				"method": "rhf"
			},
			{
				"type": "unocc",
				"energy": 0.03691,
				"method": "rhf"
			},
			{
				"type": "unocc",
				"energy": 0.04409,
				"method": "rhf"
			},
			{
				"type": "unocc",
				"energy": 0.07872,
				"method": "rhf"
			}
		],
		"cosmo_sigma_profile": { 
			"-0.025": 0.0,
			"-0.024": 0.0,
			"-0.023": 0.0,
			"-0.022": 0.0,
			"-0.021": 0.0,
			"-0.02": 0.0,
			"-0.019": 0.0,
			"-0.018": 0.0,
			"-0.017": 0.0,
			"-0.016": 0.0,
			"-0.015": 0.0,
			"-0.014": 0.0707373022071,
			"-0.013": 1.0945884067,
			"-0.012": 1.5239873738,
			"-0.011": 1.70728946505,
			"-0.01": 2.52799625425,
			"-0.009": 2.87329952487,
			"-0.008": 2.05009871184,
			"-0.007": 3.60427134088,
			"-0.006": 10.0788282011,
			"-0.005": 20.4681044646,
			"-0.004": 25.5053596041,
			"-0.003": 18.8027786239,
			"-0.002": 16.0603292125,
			"-0.001": 14.0368194039,
			"0.0": 10.1839183756,
			"0.001": 11.7574339559,
			"0.002": 11.7218003639,
			"0.003": 16.0818405599,
			"0.004": 18.7545632749,
			"0.005": 19.8590481209,
			"0.006": 5.02275086479,
			"0.007": 2.64696166453,
			"0.008": 2.57965622586,
			"0.009": 1.95078072942,
			"0.01": 2.65557767407,
			"0.011": 2.52787229345,
			"0.012": 3.45081842992,
			"0.013": 3.518903629,
			"0.014": 1.45541015504,
			"0.015": 0.101606662171,
			"0.016": 0.0,
			"0.017": 0.0,
			"0.018": 0.0,
			"0.019": 0.0,
			"0.02": 0.0,
			"0.021": 0.0,
			"0.022": 0.0,
			"0.023": 0.0,
			"0.024": 0.0,
			"0.025": 0.0
		}
	}
}
