{
	 "smiles": "CCCCNC1=CC(=O)OC2=CC=CC=C12", 
	 "Tm": 391.15, 
	 "num_atms": 31, 
	 "gaussian": { 
		 "optdone": 1, 
		 "sigma_profile": "yes", 
		 "theory": "DFT", 
		 "functional": "B3LYP", 
		 "basiset": "6-31G**", 
		 "properties": { 
			 "R2extent": 5727.7075, 
			 "electric_dipole_moment_norm": 6.08937938135, 
			 "electric_quadrupole_moment_norm": 27.2752532298, 
			 "total_energy": -709.637686864, 
			 "HOMO_LUMO_gap": 0.16921, 
			 "cosmo_polarized_energy": -14.36, 
			 "cosmo_cavitation_energy": 34.02, 
			 "cosmo_dispersion_energy": -24.24, 
			 "cosmo_repulsion_energy": 1.9, 
			 "cosmo_total_nonelectrostatic_energy": 11.68, 
			 "SMD_solvation_energy": 5.8 
		},
		"coords": [
			{
				"x": -0.6489698305,
				"y": -3.0219082037,
				"z": 2.2324376929,
				"element": "C" 
			},
			{
				"x": 0.841144644,
				"y": -3.1585773566,
				"z": 2.5691406301,
				"element": "C" 
			},
			{
				"x": 1.6197052946,
				"y": -1.8334477472,
				"z": 2.5548651824,
				"element": "C" 
			},
			{
				"x": 1.7143432327,
				"y": -1.1863909828,
				"z": 1.1711885211,
				"element": "C" 
			},
			{
				"x": 2.5576903723,
				"y": 0.0240596292,
				"z": 1.218058276,
				"element": "N" 
			},
			{
				"x": 2.5240655967,
				"y": 0.9491803351,
				"z": 0.1747182149,
				"element": "C" 
			},
			{
				"x": 3.6442630291,
				"y": 1.2530944816,
				"z": -0.5462728057,
				"element": "C" 
			},
			{
				"x": 3.6581367761,
				"y": 2.2075901186,
				"z": -1.6325811215,
				"element": "C" 
			},
			{
				"x": 4.6104687539,
				"y": 2.5128238729,
				"z": -2.3135330577,
				"element": "O" 
			},
			{
				"x": 2.4232129389,
				"y": 2.7883817527,
				"z": -1.9535979842,
				"element": "O" 
			},
			{
				"x": 1.3065228664,
				"y": 2.5689821327,
				"z": -1.2069244857,
				"element": "C" 
			},
			{
				"x": 0.1664942643,
				"y": 3.2977208965,
				"z": -1.5623901954,
				"element": "C" 
			},
			{
				"x": -0.9890811329,
				"y": 3.1761112823,
				"z": -0.8016472527,
				"element": "C" 
			},
			{
				"x": -1.0081200716,
				"y": 2.3458131963,
				"z": 0.3280878391,
				"element": "C" 
			},
			{
				"x": 0.1218542471,
				"y": 1.6150858401,
				"z": 0.6688499356,
				"element": "C" 
			},
			{
				"x": 1.2922135941,
				"y": 1.6815378961,
				"z": -0.1123251649,
				"element": "C" 
			},
			{
				"x": -1.1598550804,
				"y": -3.9859993552,
				"z": 2.3196998235,
				"element": "H" 
			},
			{
				"x": -0.8098895712,
				"y": -2.6610453974,
				"z": 1.2110977273,
				"element": "H" 
			},
			{
				"x": -1.1447684782,
				"y": -2.3213289916,
				"z": 2.9144053158,
				"element": "H" 
			},
			{
				"x": 0.9427222246,
				"y": -3.6069379696,
				"z": 3.5647387427,
				"element": "H" 
			},
			{
				"x": 1.3120838127,
				"y": -3.8640751279,
				"z": 1.8711166133,
				"element": "H" 
			},
			{
				"x": 1.1619729091,
				"y": -1.1188184741,
				"z": 3.2510051794,
				"element": "H" 
			},
			{
				"x": 2.6374626604,
				"y": -2.0140514422,
				"z": 2.9277931326,
				"element": "H" 
			},
			{
				"x": 0.7260974027,
				"y": -0.9063021623,
				"z": 0.8048780771,
				"element": "H" 
			},
			{
				"x": 2.1205023263,
				"y": -1.9116405672,
				"z": 0.4468919137,
				"element": "H" 
			},
			{
				"x": 3.516647327,
				"y": -0.2310891298,
				"z": 1.4323122774,
				"element": "H" 
			},
			{
				"x": 4.5861589549,
				"y": 0.7460868058,
				"z": -0.366597081,
				"element": "H" 
			},
			{
				"x": 0.2225225249,
				"y": 3.9592861422,
				"z": -2.4199340986,
				"element": "H" 
			},
			{
				"x": -1.8726012566,
				"y": 3.7457530764,
				"z": -1.0737562969,
				"element": "H" 
			},
			{
				"x": -1.8999860157,
				"y": 2.2822097599,
				"z": 0.9433457451,
				"element": "H" 
			},
			{
				"x": 0.122085684,
				"y": 1.0071956892,
				"z": 1.5661287044,
				"element": "H" 
			}
		],
		 "valence_orbital": [ 
			{
				"type": "occ",
				"energy": -0.31994,
				"method": "rhf"
			},
			{
				"type": "occ",
				"energy": -0.26618,
				"method": "rhf"
			},
			{
				"type": "occ",
				"energy": -0.25876,
				"method": "rhf"
			},
			{
				"type": "occ",
				"energy": -0.24261,
				"method": "rhf"
			},
			{
				"type": "occ",
				"energy": -0.22482,
				"method": "rhf"
			},
			{
				"type": "unocc",
				"energy": -0.05561,
				"method": "rhf"
			},
			{
				"type": "unocc",
				"energy": -0.0086,
				"method": "rhf"
			},
			{
				"type": "unocc",
				"energy": 0.00938,
				"method": "rhf"
			},
			{
				"type": "unocc",
				"energy": 0.06449,
				"method": "rhf"
			},
			{
				"type": "unocc",
				"energy": 0.07959,
				"method": "rhf"
			}
		],
		"cosmo_sigma_profile": { 
			"-0.025": 0.0,
			"-0.024": 0.0,
			"-0.023": 0.0,
			"-0.022": 0.0,
			"-0.021": 0.0,
			"-0.02": 0.0,
			"-0.019": 0.0,
			"-0.018": 0.0,
			"-0.017": 0.0,
			"-0.016": 0.0,
			"-0.015": 0.0,
			"-0.014": 0.0,
			"-0.013": 0.73963099598,
			"-0.012": 1.26922644088,
			"-0.011": 1.72573626872,
			"-0.01": 1.54130046188,
			"-0.009": 1.53315808602,
			"-0.008": 2.48966920656,
			"-0.007": 5.39336867779,
			"-0.006": 8.63241964364,
			"-0.005": 12.1013431547,
			"-0.004": 16.4287137894,
			"-0.003": 23.7985524962,
			"-0.002": 32.7435805177,
			"-0.001": 27.0919298176,
			"0.0": 28.825217577,
			"0.001": 28.3795423555,
			"0.002": 19.7813797711,
			"0.003": 14.0407978754,
			"0.004": 9.80509174871,
			"0.005": 3.35922397441,
			"0.006": 2.37138263345,
			"0.007": 3.39706939465,
			"0.008": 1.83379456927,
			"0.009": 3.36602821452,
			"0.01": 2.95364677409,
			"0.011": 2.4509548559,
			"0.012": 5.03439451594,
			"0.013": 6.08848154246,
			"0.014": 1.77373792146,
			"0.015": 0.0,
			"0.016": 0.0,
			"0.017": 0.0,
			"0.018": 0.0,
			"0.019": 0.0,
			"0.02": 0.0,
			"0.021": 0.0,
			"0.022": 0.0,
			"0.023": 0.0,
			"0.024": 0.0,
			"0.025": 0.0
		}
	}
}
