{
	 "smiles": "CC1=CC=C(C=C1)C1=CSC(=N1)C(=N/NC1=C(Cl)C=C(Cl)C=C1)C#N", 
	 "Tm": 484.15, 
	 "num_atms": 37, 
	 "gaussian": { 
		 "optdone": 1, 
		 "sigma_profile": "yes", 
		 "theory": "DFT", 
		 "functional": "B3LYP", 
		 "basiset": "6-31G**", 
		 "properties": { 
			 "R2extent": 14277.8753, 
			 "electric_dipole_moment_norm": 5.27135587207, 
			 "electric_quadrupole_moment_norm": 22.4976857719, 
			 "total_energy": -2230.68671175, 
			 "HOMO_LUMO_gap": 0.12585, 
			 "cosmo_polarized_energy": -11.6, 
			 "cosmo_cavitation_energy": 48.66, 
			 "cosmo_dispersion_energy": -34.08, 
			 "cosmo_repulsion_energy": 2.5, 
			 "cosmo_total_nonelectrostatic_energy": 17.08, 
			 "SMD_solvation_energy": 7.44 
		},
		"coords": [
			{
				"x": -4.0198368277,
				"y": 3.4257073915,
				"z": 2.447141272,
				"element": "C" 
			},
			{
				"x": -3.2143753276,
				"y": 2.8211431103,
				"z": 1.3222811541,
				"element": "C" 
			},
			{
				"x": -2.8564152175,
				"y": 3.5805663164,
				"z": 0.1997472033,
				"element": "C" 
			},
			{
				"x": -2.1356136552,
				"y": 3.0197212347,
				"z": -0.8509561324,
				"element": "C" 
			},
			{
				"x": -1.7484634421,
				"y": 1.6710451572,
				"z": -0.8156233135,
				"element": "C" 
			},
			{
				"x": -2.0980375621,
				"y": 0.9081861407,
				"z": 0.3090133349,
				"element": "C" 
			},
			{
				"x": -2.8171423203,
				"y": 1.4775303502,
				"z": 1.3568529153,
				"element": "C" 
			},
			{
				"x": -1.0054549378,
				"y": 1.061664649,
				"z": -1.9343314555,
				"element": "C" 
			},
			{
				"x": -1.0678270551,
				"y": 1.4586289498,
				"z": -3.2505998504,
				"element": "C" 
			},
			{
				"x": -0.0676648051,
				"y": 0.4755361964,
				"z": -4.2551582486,
				"element": "S" 
			},
			{
				"x": 0.39002296,
				"y": -0.4423207237,
				"z": -2.8261663537,
				"element": "C" 
			},
			{
				"x": -0.174671989,
				"y": -0.0192561917,
				"z": -1.7163797042,
				"element": "N" 
			},
			{
				"x": 1.3321796229,
				"y": -1.5532065516,
				"z": -2.8866109247,
				"element": "C" 
			},
			{
				"x": 1.8012458031,
				"y": -2.2410100587,
				"z": -1.8716811974,
				"element": "N" 
			},
			{
				"x": 1.4278629949,
				"y": -1.9534211454,
				"z": -0.6402495255,
				"element": "N" 
			},
			{
				"x": 1.955919559,
				"y": -2.6878531032,
				"z": 0.4259276568,
				"element": "C" 
			},
			{
				"x": 1.6274192241,
				"y": -2.3534295232,
				"z": 1.7512681618,
				"element": "C" 
			},
			{
				"x": 0.5592040663,
				"y": -0.9983326466,
				"z": 2.0768184813,
				"element": "Cl" 
			},
			{
				"x": 2.1384317518,
				"y": -3.0723371752,
				"z": 2.8288430362,
				"element": "C" 
			},
			{
				"x": 2.9933120918,
				"y": -4.1435728623,
				"z": 2.5832405765,
				"element": "C" 
			},
			{
				"x": 3.6398718938,
				"y": -5.0539250616,
				"z": 3.9350743759,
				"element": "Cl" 
			},
			{
				"x": 3.3383300738,
				"y": -4.4965877141,
				"z": 1.2772868065,
				"element": "C" 
			},
			{
				"x": 2.8215904905,
				"y": -3.7725567769,
				"z": 0.2108268521,
				"element": "C" 
			},
			{
				"x": 1.8213277529,
				"y": -1.9508265224,
				"z": -4.1760877696,
				"element": "C" 
			},
			{
				"x": 2.1914049222,
				"y": -2.2369589167,
				"z": -5.2416010294,
				"element": "N" 
			},
			{
				"x": -3.7981347107,
				"y": 2.942585594,
				"z": 3.4033502682,
				"element": "H" 
			},
			{
				"x": -5.0964372907,
				"y": 3.3122423692,
				"z": 2.2673690252,
				"element": "H" 
			},
			{
				"x": -3.8199933465,
				"y": 4.4962158923,
				"z": 2.5527921141,
				"element": "H" 
			},
			{
				"x": -3.1353525249,
				"y": 4.6303038318,
				"z": 0.1535394541,
				"element": "H" 
			},
			{
				"x": -1.8465345207,
				"y": 3.6428303011,
				"z": -1.6925007487,
				"element": "H" 
			},
			{
				"x": -1.8095014852,
				"y": -0.1360267068,
				"z": 0.353637267,
				"element": "H" 
			},
			{
				"x": -3.0779547966,
				"y": 0.8654588444,
				"z": 2.2167404922,
				"element": "H" 
			},
			{
				"x": -1.6721690332,
				"y": 2.2453112845,
				"z": -3.6775653451,
				"element": "H" 
			},
			{
				"x": 0.7648574944,
				"y": -1.183358161,
				"z": -0.4863495357,
				"element": "H" 
			},
			{
				"x": 1.8709590035,
				"y": -2.7937724086,
				"z": 3.8405776991,
				"element": "H" 
			},
			{
				"x": 4.0049068589,
				"y": -5.3322110604,
				"z": 1.0975734704,
				"element": "H" 
			},
			{
				"x": 3.0777342841,
				"y": -4.0312143035,
				"z": -0.8090404822,
				"element": "H" 
			}
		],
		 "valence_orbital": [ 
			{
				"type": "occ",
				"energy": -0.27797,
				"method": "rhf"
			},
			{
				"type": "occ",
				"energy": -0.27125,
				"method": "rhf"
			},
			{
				"type": "occ",
				"energy": -0.26057,
				"method": "rhf"
			},
			{
				"type": "occ",
				"energy": -0.23929,
				"method": "rhf"
			},
			{
				"type": "occ",
				"energy": -0.21678,
				"method": "rhf"
			},
			{
				"type": "unocc",
				"energy": -0.09093,
				"method": "rhf"
			},
			{
				"type": "unocc",
				"energy": -0.04266,
				"method": "rhf"
			},
			{
				"type": "unocc",
				"energy": -0.03233,
				"method": "rhf"
			},
			{
				"type": "unocc",
				"energy": -0.01681,
				"method": "rhf"
			},
			{
				"type": "unocc",
				"energy": -0.012,
				"method": "rhf"
			}
		],
		"cosmo_sigma_profile": { 
			"-0.025": 0.0,
			"-0.024": 0.0,
			"-0.023": 0.0,
			"-0.022": 0.0,
			"-0.021": 0.0,
			"-0.02": 0.0,
			"-0.019": 0.0,
			"-0.018": 0.0,
			"-0.017": 0.0,
			"-0.016": 0.0,
			"-0.015": 0.0,
			"-0.014": 0.0,
			"-0.013": 0.0,
			"-0.012": 0.0,
			"-0.011": 0.0,
			"-0.01": 1.27709774087,
			"-0.009": 3.01301188166,
			"-0.008": 5.78861830235,
			"-0.007": 6.96283513211,
			"-0.006": 9.40664451723,
			"-0.005": 15.6282339906,
			"-0.004": 26.5279077401,
			"-0.003": 28.1286900591,
			"-0.002": 34.7722998212,
			"-0.001": 42.1292977345,
			"0.0": 50.4492475591,
			"0.001": 49.4655930532,
			"0.002": 36.1152090483,
			"0.003": 28.7770626614,
			"0.004": 25.9701209063,
			"0.005": 14.3158411847,
			"0.006": 4.47710504374,
			"0.007": 2.95834868785,
			"0.008": 3.3510611537,
			"0.009": 2.80835281444,
			"0.01": 2.82376602616,
			"0.011": 2.55922113081,
			"0.012": 2.02233316945,
			"0.013": 0.337049961162,
			"0.014": 0.0,
			"0.015": 0.0,
			"0.016": 0.0,
			"0.017": 0.0,
			"0.018": 0.0,
			"0.019": 0.0,
			"0.02": 0.0,
			"0.021": 0.0,
			"0.022": 0.0,
			"0.023": 0.0,
			"0.024": 0.0,
			"0.025": 0.0
		}
	}
}
