{
	 "smiles": "COC1=CC(C)=CC(OC)=C1OC", 
	 "Tm": 309.15, 
	 "num_atms": 27, 
	 "gaussian": { 
		 "optdone": 1, 
		 "sigma_profile": "yes", 
		 "theory": "DFT", 
		 "functional": "B3LYP", 
		 "basiset": "6-31G**", 
		 "properties": { 
			 "R2extent": 2646.8536, 
			 "electric_dipole_moment_norm": 0.983231702093, 
			 "electric_quadrupole_moment_norm": 4.44089272444, 
			 "total_energy": -615.127586797, 
			 "HOMO_LUMO_gap": 0.22752, 
			 "cosmo_polarized_energy": -6.65, 
			 "cosmo_cavitation_energy": 30.23, 
			 "cosmo_dispersion_energy": -21.01, 
			 "cosmo_repulsion_energy": 1.7, 
			 "cosmo_total_nonelectrostatic_energy": 10.92, 
			 "SMD_solvation_energy": 7.58 
		},
		"coords": [
			{
				"x": 0.170935884,
				"y": 2.9077515206,
				"z": 0.642201914,
				"element": "C" 
			},
			{
				"x": -0.0708208851,
				"y": 2.0766359167,
				"z": -0.4975091173,
				"element": "O" 
			},
			{
				"x": 0.097249756,
				"y": 0.7263170634,
				"z": -0.2941450978,
				"element": "C" 
			},
			{
				"x": 1.1136330587,
				"y": 0.0661587227,
				"z": -0.9873819992,
				"element": "C" 
			},
			{
				"x": 1.2770324577,
				"y": -1.319572031,
				"z": -0.878877743,
				"element": "C" 
			},
			{
				"x": 2.350636018,
				"y": -2.0337563882,
				"z": -1.6670600551,
				"element": "C" 
			},
			{
				"x": 0.4163805109,
				"y": -2.0319613509,
				"z": -0.0359564747,
				"element": "C" 
			},
			{
				"x": -0.6039518782,
				"y": -1.383946106,
				"z": 0.6628786473,
				"element": "C" 
			},
			{
				"x": -1.4722700624,
				"y": -2.1407059623,
				"z": 1.4154911795,
				"element": "O" 
			},
			{
				"x": -1.4281670738,
				"y": -1.9099112325,
				"z": 2.8272105125,
				"element": "C" 
			},
			{
				"x": -0.7756260889,
				"y": 0.004326847,
				"z": 0.5362670177,
				"element": "C" 
			},
			{
				"x": -1.7870934024,
				"y": 0.650236255,
				"z": 1.2193701575,
				"element": "O" 
			},
			{
				"x": -3.0145452638,
				"y": 0.7232551241,
				"z": 0.483512563,
				"element": "C" 
			},
			{
				"x": 1.2075886326,
				"y": 2.8022498409,
				"z": 0.9876616175,
				"element": "H" 
			},
			{
				"x": 0.00772468,
				"y": 3.9350724149,
				"z": 0.3091753885,
				"element": "H" 
			},
			{
				"x": -0.5142091058,
				"y": 2.6715637317,
				"z": 1.4612232389,
				"element": "H" 
			},
			{
				"x": 1.7634283165,
				"y": 0.6586974883,
				"z": -1.6244291431,
				"element": "H" 
			},
			{
				"x": 2.7003960509,
				"y": -2.9299051351,
				"z": -1.1458621586,
				"element": "H" 
			},
			{
				"x": 3.2140502969,
				"y": -1.3858269574,
				"z": -1.8453021237,
				"element": "H" 
			},
			{
				"x": 1.9752100695,
				"y": -2.3529667392,
				"z": -2.6474698241,
				"element": "H" 
			},
			{
				"x": 0.511997918,
				"y": -3.1070541569,
				"z": 0.083207231,
				"element": "H" 
			},
			{
				"x": -2.1600329552,
				"y": -2.5895652716,
				"z": 3.2692234328,
				"element": "H" 
			},
			{
				"x": -1.6892786912,
				"y": -0.8763261171,
				"z": 3.0712152518,
				"element": "H" 
			},
			{
				"x": -0.4332027236,
				"y": -2.1426591969,
				"z": 3.2284560451,
				"element": "H" 
			},
			{
				"x": -2.8764149105,
				"y": 1.2825040681,
				"z": -0.4487238005,
				"element": "H" 
			},
			{
				"x": -3.3946204261,
				"y": -0.2800839513,
				"z": 0.2605004479,
				"element": "H" 
			},
			{
				"x": -3.7275301826,
				"y": 1.2495716032,
				"z": 1.122122892,
				"element": "H" 
			}
		],
		 "valence_orbital": [ 
			{
				"type": "occ",
				"energy": -0.29045,
				"method": "rhf"
			},
			{
				"type": "occ",
				"energy": -0.27421,
				"method": "rhf"
			},
			{
				"type": "occ",
				"energy": -0.25567,
				"method": "rhf"
			},
			{
				"type": "occ",
				"energy": -0.22423,
				"method": "rhf"
			},
			{
				"type": "occ",
				"energy": -0.22171,
				"method": "rhf"
			},
			{
				"type": "unocc",
				"energy": 0.00581,
				"method": "rhf"
			},
			{
				"type": "unocc",
				"energy": 0.00997,
				"method": "rhf"
			},
			{
				"type": "unocc",
				"energy": 0.07899,
				"method": "rhf"
			},
			{
				"type": "unocc",
				"energy": 0.11295,
				"method": "rhf"
			},
			{
				"type": "unocc",
				"energy": 0.1268,
				"method": "rhf"
			}
		],
		"cosmo_sigma_profile": { 
			"-0.025": 0.0,
			"-0.024": 0.0,
			"-0.023": 0.0,
			"-0.022": 0.0,
			"-0.021": 0.0,
			"-0.02": 0.0,
			"-0.019": 0.0,
			"-0.018": 0.0,
			"-0.017": 0.0,
			"-0.016": 0.0,
			"-0.015": 0.0,
			"-0.014": 0.0,
			"-0.013": 0.0,
			"-0.012": 0.0,
			"-0.011": 0.0,
			"-0.01": 0.0,
			"-0.009": 0.0,
			"-0.008": 0.0,
			"-0.007": 0.0,
			"-0.006": 2.48289272589,
			"-0.005": 12.8436769862,
			"-0.004": 25.6509741722,
			"-0.003": 31.6523427815,
			"-0.002": 32.9700229687,
			"-0.001": 21.0292782981,
			"0.0": 21.9105035406,
			"0.001": 15.6585282648,
			"0.002": 13.4907863157,
			"0.003": 15.5240384116,
			"0.004": 14.6879157901,
			"0.005": 11.0909606807,
			"0.006": 4.4016404709,
			"0.007": 2.49914434351,
			"0.008": 3.01677955914,
			"0.009": 2.54853312141,
			"0.01": 2.95611906955,
			"0.011": 1.82688189332,
			"0.012": 1.75926367845,
			"0.013": 0.0523368335924,
			"0.014": 0.0,
			"0.015": 0.0,
			"0.016": 0.0,
			"0.017": 0.0,
			"0.018": 0.0,
			"0.019": 0.0,
			"0.02": 0.0,
			"0.021": 0.0,
			"0.022": 0.0,
			"0.023": 0.0,
			"0.024": 0.0,
			"0.025": 0.0
		}
	}
}
