{
	 "smiles": "FC(F)(F)COC(=O)NC1=C(Cl)C=C2NC(=O)COC2=C1", 
	 "Tm": 501.15, 
	 "num_atms": 29, 
	 "gaussian": { 
		 "optdone": 1, 
		 "sigma_profile": "yes", 
		 "theory": "DFT", 
		 "functional": "B3LYP", 
		 "basiset": "6-31G**", 
		 "properties": { 
			 "R2extent": 10594.9689, 
			 "electric_dipole_moment_norm": 2.24083036841, 
			 "electric_quadrupole_moment_norm": 14.986509266, 
			 "total_energy": -1594.13474175, 
			 "HOMO_LUMO_gap": 0.18485, 
			 "cosmo_polarized_energy": -16.93, 
			 "cosmo_cavitation_energy": 37.92, 
			 "cosmo_dispersion_energy": -27.45, 
			 "cosmo_repulsion_energy": 2.05, 
			 "cosmo_total_nonelectrostatic_energy": 12.51, 
			 "SMD_solvation_energy": 9.0 
		},
		"coords": [
			{
				"x": -3.6510583242,
				"y": -2.9290664375,
				"z": 0.2571018854,
				"element": "F" 
			},
			{
				"x": -3.5002866205,
				"y": -4.1385407126,
				"z": -0.3126748004,
				"element": "C" 
			},
			{
				"x": -4.7077630223,
				"y": -4.5599973491,
				"z": -0.7428763295,
				"element": "F" 
			},
			{
				"x": -3.0774350997,
				"y": -4.9912069712,
				"z": 0.6395875802,
				"element": "F" 
			},
			{
				"x": -2.5385203379,
				"y": -4.0830001969,
				"z": -1.4881828789,
				"element": "C" 
			},
			{
				"x": -1.2696248962,
				"y": -3.6180326024,
				"z": -1.0451927323,
				"element": "O" 
			},
			{
				"x": -0.9694805236,
				"y": -2.311787965,
				"z": -1.3469618344,
				"element": "C" 
			},
			{
				"x": -1.6561054217,
				"y": -1.5923687741,
				"z": -2.042425057,
				"element": "O" 
			},
			{
				"x": 0.2201239313,
				"y": -2.0082529255,
				"z": -0.7467656704,
				"element": "N" 
			},
			{
				"x": 0.9269509981,
				"y": -0.7980789072,
				"z": -0.8082927805,
				"element": "C" 
			},
			{
				"x": 2.1496968272,
				"y": -0.6883468716,
				"z": -0.1211325062,
				"element": "C" 
			},
			{
				"x": 2.7750724359,
				"y": -2.0572497917,
				"z": 0.7958929804,
				"element": "Cl" 
			},
			{
				"x": 2.894839647,
				"y": 0.4875612303,
				"z": -0.1421273958,
				"element": "C" 
			},
			{
				"x": 2.4357428482,
				"y": 1.5857547252,
				"z": -0.8646418108,
				"element": "C" 
			},
			{
				"x": 3.1643871885,
				"y": 2.781413834,
				"z": -0.9710689676,
				"element": "N" 
			},
			{
				"x": 2.6291436876,
				"y": 3.948662195,
				"z": -1.4566872966,
				"element": "C" 
			},
			{
				"x": 3.2519458054,
				"y": 4.9932135569,
				"z": -1.531554619,
				"element": "O" 
			},
			{
				"x": 1.1551954236,
				"y": 3.8375877171,
				"z": -1.8392854677,
				"element": "C" 
			},
			{
				"x": 0.7631922746,
				"y": 2.5410260321,
				"z": -2.2986453663,
				"element": "O" 
			},
			{
				"x": 1.2116319468,
				"y": 1.490789415,
				"z": -1.5463396288,
				"element": "C" 
			},
			{
				"x": 0.4637068374,
				"y": 0.3210525898,
				"z": -1.5174985631,
				"element": "C" 
			},
			{
				"x": -2.4062580559,
				"y": -5.091557234,
				"z": -1.8845180442,
				"element": "H" 
			},
			{
				"x": -2.9467977076,
				"y": -3.4197596731,
				"z": -2.2526160689,
				"element": "H" 
			},
			{
				"x": 0.6341711335,
				"y": -2.7466950479,
				"z": -0.1935396866,
				"element": "H" 
			},
			{
				"x": 3.8347277877,
				"y": 0.5363450349,
				"z": 0.3970153616,
				"element": "H" 
			},
			{
				"x": 4.1237037183,
				"y": 2.8249323203,
				"z": -0.651866666,
				"element": "H" 
			},
			{
				"x": 0.5483982612,
				"y": 4.1324759975,
				"z": -0.9694469578,
				"element": "H" 
			},
			{
				"x": 0.9580434723,
				"y": 4.5343728671,
				"z": -2.6535743635,
				"element": "H" 
			},
			{
				"x": -0.473644215,
				"y": 0.2728539443,
				"z": -2.0533823155,
				"element": "H" 
			}
		],
		 "valence_orbital": [ 
			{
				"type": "occ",
				"energy": -0.30289,
				"method": "rhf"
			},
			{
				"type": "occ",
				"energy": -0.29355,
				"method": "rhf"
			},
			{
				"type": "occ",
				"energy": -0.27161,
				"method": "rhf"
			},
			{
				"type": "occ",
				"energy": -0.25132,
				"method": "rhf"
			},
			{
				"type": "occ",
				"energy": -0.21844,
				"method": "rhf"
			},
			{
				"type": "unocc",
				"energy": -0.03359,
				"method": "rhf"
			},
			{
				"type": "unocc",
				"energy": -0.02354,
				"method": "rhf"
			},
			{
				"type": "unocc",
				"energy": 0.00806,
				"method": "rhf"
			},
			{
				"type": "unocc",
				"energy": 0.00981,
				"method": "rhf"
			},
			{
				"type": "unocc",
				"energy": 0.04704,
				"method": "rhf"
			}
		],
		"cosmo_sigma_profile": { 
			"-0.025": 0.0,
			"-0.024": 0.0,
			"-0.023": 0.0,
			"-0.022": 0.0,
			"-0.021": 0.0,
			"-0.02": 0.0,
			"-0.019": 0.0,
			"-0.018": 0.0,
			"-0.017": 0.0107211198937,
			"-0.016": 0.95480653544,
			"-0.015": 1.41324546147,
			"-0.014": 1.36661410505,
			"-0.013": 1.37594328193,
			"-0.012": 1.19980699588,
			"-0.011": 2.46750189845,
			"-0.01": 2.59918718499,
			"-0.009": 6.2809668619,
			"-0.008": 10.6169266391,
			"-0.007": 11.5905195262,
			"-0.006": 11.1818100766,
			"-0.005": 11.5507799766,
			"-0.004": 11.1328473932,
			"-0.003": 13.0805721467,
			"-0.002": 17.7182419626,
			"-0.001": 18.8672894002,
			"0.0": 23.5072118539,
			"0.001": 29.6619437181,
			"0.002": 46.1191575864,
			"0.003": 31.9187335918,
			"0.004": 11.7419972253,
			"0.005": 6.056725722,
			"0.006": 4.37554973908,
			"0.007": 3.53378747149,
			"0.008": 3.60392602585,
			"0.009": 4.7182998528,
			"0.01": 4.26826338845,
			"0.011": 4.12497629493,
			"0.012": 5.19431456844,
			"0.013": 3.81123456342,
			"0.014": 0.286183146817,
			"0.015": 0.0,
			"0.016": 0.0,
			"0.017": 0.0,
			"0.018": 0.0,
			"0.019": 0.0,
			"0.02": 0.0,
			"0.021": 0.0,
			"0.022": 0.0,
			"0.023": 0.0,
			"0.024": 0.0,
			"0.025": 0.0
		}
	}
}
