{
	 "smiles": "COC(=O)C1=CC=C(C=C1)N1CCN(CC1)C(=O)OC(C)(C)C", 
	 "Tm": 439.15, 
	 "num_atms": 47, 
	 "gaussian": { 
		 "optdone": 1, 
		 "sigma_profile": "yes", 
		 "theory": "DFT", 
		 "functional": "B3LYP", 
		 "basiset": "6-31G**", 
		 "properties": { 
			 "R2extent": 14504.786, 
			 "electric_dipole_moment_norm": 4.19913608853, 
			 "electric_quadrupole_moment_norm": 8.66622076282, 
			 "total_energy": -1072.71750316, 
			 "HOMO_LUMO_gap": 0.17003, 
			 "cosmo_polarized_energy": -15.95, 
			 "cosmo_cavitation_energy": 48.03, 
			 "cosmo_dispersion_energy": -33.78, 
			 "cosmo_repulsion_energy": 2.56, 
			 "cosmo_total_nonelectrostatic_energy": 16.82, 
			 "SMD_solvation_energy": 8.98 
		},
		"coords": [
			{
				"x": 1.2349654372,
				"y": 7.0921814693,
				"z": 4.7897535183,
				"element": "C" 
			},
			{
				"x": 1.0215737404,
				"y": 5.7336849162,
				"z": 4.3859849886,
				"element": "O" 
			},
			{
				"x": 2.023912232,
				"y": 5.1887766903,
				"z": 3.6480594992,
				"element": "C" 
			},
			{
				"x": 3.0287600697,
				"y": 5.8086168369,
				"z": 3.3484473194,
				"element": "O" 
			},
			{
				"x": 1.7478808656,
				"y": 3.7870194088,
				"z": 3.2650576559,
				"element": "C" 
			},
			{
				"x": 2.6973239421,
				"y": 3.1041005607,
				"z": 2.494474468,
				"element": "C" 
			},
			{
				"x": 2.4929846903,
				"y": 1.7905322433,
				"z": 2.0965233893,
				"element": "C" 
			},
			{
				"x": 1.3200955399,
				"y": 1.0902860416,
				"z": 2.465478002,
				"element": "C" 
			},
			{
				"x": 0.3702371895,
				"y": 1.7880837999,
				"z": 3.2509118856,
				"element": "C" 
			},
			{
				"x": 0.5796973989,
				"y": 3.1029914667,
				"z": 3.6359730286,
				"element": "C" 
			},
			{
				"x": 1.113901769,
				"y": -0.2467391461,
				"z": 2.123797702,
				"element": "N" 
			},
			{
				"x": 2.1411611648,
				"y": -1.0415527571,
				"z": 1.4530835869,
				"element": "C" 
			},
			{
				"x": 1.9473829658,
				"y": -1.0693296378,
				"z": -0.0685653924,
				"element": "C" 
			},
			{
				"x": 0.5902968943,
				"y": -1.5186747607,
				"z": -0.3737755468,
				"element": "N" 
			},
			{
				"x": -0.481227956,
				"y": -0.7955383753,
				"z": 0.3065657493,
				"element": "C" 
			},
			{
				"x": -0.2215068093,
				"y": -0.7648133602,
				"z": 1.8234501935,
				"element": "C" 
			},
			{
				"x": 0.4040481769,
				"y": -2.4184284375,
				"z": -1.3962441779,
				"element": "C" 
			},
			{
				"x": 1.324560146,
				"y": -2.9437046426,
				"z": -2.0069517891,
				"element": "O" 
			},
			{
				"x": -0.9139876303,
				"y": -2.6442340265,
				"z": -1.6133861932,
				"element": "O" 
			},
			{
				"x": -1.3566964509,
				"y": -3.5986930127,
				"z": -2.6437023659,
				"element": "C" 
			},
			{
				"x": -0.8978493465,
				"y": -3.1281612594,
				"z": -4.0278976867,
				"element": "C" 
			},
			{
				"x": -0.8508168432,
				"y": -5.0059974567,
				"z": -2.3096833969,
				"element": "C" 
			},
			{
				"x": -2.8816227804,
				"y": -3.52819572,
				"z": -2.525327802,
				"element": "C" 
			},
			{
				"x": 0.3517040704,
				"y": 7.3718467441,
				"z": 5.3647910399,
				"element": "H" 
			},
			{
				"x": 1.3461189277,
				"y": 7.7430725304,
				"z": 3.9184409449,
				"element": "H" 
			},
			{
				"x": 2.1347163505,
				"y": 7.1774642233,
				"z": 5.404881673,
				"element": "H" 
			},
			{
				"x": 3.598078497,
				"y": 3.6315456021,
				"z": 2.1978393224,
				"element": "H" 
			},
			{
				"x": 3.2429637329,
				"y": 1.3186497657,
				"z": 1.4736236346,
				"element": "H" 
			},
			{
				"x": -0.5253927557,
				"y": 1.2839677266,
				"z": 3.5956018307,
				"element": "H" 
			},
			{
				"x": -0.1624043995,
				"y": 3.6068794868,
				"z": 4.2451387994,
				"element": "H" 
			},
			{
				"x": 3.1337651955,
				"y": -0.6757098854,
				"z": 1.7174278125,
				"element": "H" 
			},
			{
				"x": 2.0632563472,
				"y": -2.0689783925,
				"z": 1.832930952,
				"element": "H" 
			},
			{
				"x": 2.644131621,
				"y": -1.7580639857,
				"z": -0.5470304045,
				"element": "H" 
			},
			{
				"x": 2.1118774128,
				"y": -0.0638233422,
				"z": -0.4842480357,
				"element": "H" 
			},
			{
				"x": -1.4308145956,
				"y": -1.2836818992,
				"z": 0.0936087284,
				"element": "H" 
			},
			{
				"x": -0.5325843938,
				"y": 0.238613019,
				"z": -0.067803332,
				"element": "H" 
			},
			{
				"x": -0.9866911653,
				"y": -0.1579250533,
				"z": 2.3056073165,
				"element": "H" 
			},
			{
				"x": -0.3002201972,
				"y": -1.7838849996,
				"z": 2.2241878396,
				"element": "H" 
			},
			{
				"x": -1.2422335868,
				"y": -2.1059916937,
				"z": -4.2148240613,
				"element": "H" 
			},
			{
				"x": 0.1886453741,
				"y": -3.1565971261,
				"z": -4.1095766601,
				"element": "H" 
			},
			{
				"x": -1.3290038196,
				"y": -3.7772087152,
				"z": -4.7970472175,
				"element": "H" 
			},
			{
				"x": -1.1616979491,
				"y": -5.2915973971,
				"z": -1.2995675435,
				"element": "H" 
			},
			{
				"x": 0.2362049922,
				"y": -5.0553728586,
				"z": -2.3734837875,
				"element": "H" 
			},
			{
				"x": -1.2807556495,
				"y": -5.7267119852,
				"z": -3.0128703769,
				"element": "H" 
			},
			{
				"x": -3.237962099,
				"y": -2.5119351997,
				"z": -2.7177599775,
				"element": "H" 
			},
			{
				"x": -3.3460618483,
				"y": -4.2008657773,
				"z": -3.252359915,
				"element": "H" 
			},
			{
				"x": -3.2065144675,
				"y": -3.8250016282,
				"z": -1.5236352182,
				"element": "H" 
			}
		],
		 "valence_orbital": [ 
			{
				"type": "occ",
				"energy": -0.2643,
				"method": "rhf"
			},
			{
				"type": "occ",
				"energy": -0.26126,
				"method": "rhf"
			},
			{
				"type": "occ",
				"energy": -0.25378,
				"method": "rhf"
			},
			{
				"type": "occ",
				"energy": -0.24666,
				"method": "rhf"
			},
			{
				"type": "occ",
				"energy": -0.19889,
				"method": "rhf"
			},
			{
				"type": "unocc",
				"energy": -0.02886,
				"method": "rhf"
			},
			{
				"type": "unocc",
				"energy": -0.00334,
				"method": "rhf"
			},
			{
				"type": "unocc",
				"energy": 0.0476,
				"method": "rhf"
			},
			{
				"type": "unocc",
				"energy": 0.06855,
				"method": "rhf"
			},
			{
				"type": "unocc",
				"energy": 0.07991,
				"method": "rhf"
			}
		],
		"cosmo_sigma_profile": { 
			"-0.025": 0.0,
			"-0.024": 0.0,
			"-0.023": 0.0,
			"-0.022": 0.0,
			"-0.021": 0.0,
			"-0.02": 0.0,
			"-0.019": 0.0,
			"-0.018": 0.0,
			"-0.017": 0.0,
			"-0.016": 0.0,
			"-0.015": 0.0,
			"-0.014": 0.0,
			"-0.013": 0.0,
			"-0.012": 0.0,
			"-0.011": 0.0,
			"-0.01": 0.0,
			"-0.009": 0.0463156336751,
			"-0.008": 2.2764404642,
			"-0.007": 4.87242922712,
			"-0.006": 9.58877634252,
			"-0.005": 24.0927685531,
			"-0.004": 46.1245654233,
			"-0.003": 43.7134276044,
			"-0.002": 35.5029190193,
			"-0.001": 31.2561207835,
			"0.0": 35.363971044,
			"0.001": 33.1779176421,
			"0.002": 18.5069402651,
			"0.003": 18.7274182398,
			"0.004": 18.3640407667,
			"0.005": 17.9128149887,
			"0.006": 7.18065332033,
			"0.007": 5.49634136689,
			"0.008": 3.05193132379,
			"0.009": 2.8595444886,
			"0.01": 2.49720168254,
			"0.011": 3.6171044378,
			"0.012": 5.70258879588,
			"0.013": 6.12769326843,
			"0.014": 1.19047354121,
			"0.015": 0.0,
			"0.016": 0.0,
			"0.017": 0.0,
			"0.018": 0.0,
			"0.019": 0.0,
			"0.02": 0.0,
			"0.021": 0.0,
			"0.022": 0.0,
			"0.023": 0.0,
			"0.024": 0.0,
			"0.025": 0.0
		}
	}
}
