{
	 "smiles": "NNC(=O)CC1=CC=NC=C1", 
	 "Tm": 365.15, 
	 "num_atms": 20, 
	 "gaussian": { 
		 "optdone": 1, 
		 "sigma_profile": "yes", 
		 "theory": "DFT", 
		 "functional": "B3LYP", 
		 "basiset": "6-31G**", 
		 "properties": { 
			 "R2extent": 2018.3315, 
			 "electric_dipole_moment_norm": 3.19040500407, 
			 "electric_quadrupole_moment_norm": 9.67098942353, 
			 "total_energy": -511.618876026, 
			 "HOMO_LUMO_gap": 0.21539, 
			 "cosmo_polarized_energy": -16.81, 
			 "cosmo_cavitation_energy": 24.13, 
			 "cosmo_dispersion_energy": -17.34, 
			 "cosmo_repulsion_energy": 1.41, 
			 "cosmo_total_nonelectrostatic_energy": 8.19, 
			 "SMD_solvation_energy": 3.74 
		},
		"coords": [
			{
				"x": 2.3882163654,
				"y": -1.1644921726,
				"z": 1.8705329581,
				"element": "N" 
			},
			{
				"x": 1.5017272716,
				"y": -2.2308541991,
				"z": 1.6635552305,
				"element": "N" 
			},
			{
				"x": 0.1984617446,
				"y": -2.1667479049,
				"z": 1.239784933,
				"element": "C" 
			},
			{
				"x": -0.4215837807,
				"y": -3.1781528402,
				"z": 0.9410814235,
				"element": "O" 
			},
			{
				"x": -0.4230096798,
				"y": -0.7707177152,
				"z": 1.1357714223,
				"element": "C" 
			},
			{
				"x": -0.0908834246,
				"y": -0.1095642767,
				"z": -0.1896708654,
				"element": "C" 
			},
			{
				"x": 0.4851015808,
				"y": 1.1633065855,
				"z": -0.2574219608,
				"element": "C" 
			},
			{
				"x": 0.7620832904,
				"y": 1.7201294574,
				"z": -1.5084088462,
				"element": "C" 
			},
			{
				"x": 0.5121466309,
				"y": 1.1044936255,
				"z": -2.6687059273,
				"element": "N" 
			},
			{
				"x": -0.0380525294,
				"y": -0.1162383866,
				"z": -2.596855462,
				"element": "C" 
			},
			{
				"x": -0.3540503867,
				"y": -0.7604842494,
				"z": -1.4020849444,
				"element": "C" 
			},
			{
				"x": 2.1296273796,
				"y": -0.6417064554,
				"z": 2.7029118232,
				"element": "H" 
			},
			{
				"x": 2.3952846924,
				"y": -0.5397253398,
				"z": 1.0683449082,
				"element": "H" 
			},
			{
				"x": 1.9234466181,
				"y": -3.1507610102,
				"z": 1.6429118754,
				"element": "H" 
			},
			{
				"x": -1.5024792621,
				"y": -0.9247856872,
				"z": 1.2158488483,
				"element": "H" 
			},
			{
				"x": -0.1079565379,
				"y": -0.1286905567,
				"z": 1.9636295828,
				"element": "H" 
			},
			{
				"x": 0.7028725858,
				"y": 1.7251022065,
				"z": 0.6474310708,
				"element": "H" 
			},
			{
				"x": 1.2067344173,
				"y": 2.7118909995,
				"z": -1.5760796411,
				"element": "H" 
			},
			{
				"x": -0.2369774735,
				"y": -0.6071204053,
				"z": -3.547908818,
				"element": "H" 
			},
			{
				"x": -0.7917095021,
				"y": -1.7540816752,
				"z": -1.4062676108,
				"element": "H" 
			}
		],
		 "valence_orbital": [ 
			{
				"type": "occ",
				"energy": -0.28988,
				"method": "rhf"
			},
			{
				"type": "occ",
				"energy": -0.26917,
				"method": "rhf"
			},
			{
				"type": "occ",
				"energy": -0.2651,
				"method": "rhf"
			},
			{
				"type": "occ",
				"energy": -0.25985,
				"method": "rhf"
			},
			{
				"type": "occ",
				"energy": -0.24893,
				"method": "rhf"
			},
			{
				"type": "unocc",
				"energy": -0.03354,
				"method": "rhf"
			},
			{
				"type": "unocc",
				"energy": -0.02067,
				"method": "rhf"
			},
			{
				"type": "unocc",
				"energy": 0.0169,
				"method": "rhf"
			},
			{
				"type": "unocc",
				"energy": 0.05914,
				"method": "rhf"
			},
			{
				"type": "unocc",
				"energy": 0.10116,
				"method": "rhf"
			}
		],
		"cosmo_sigma_profile": { 
			"-0.025": 0.0,
			"-0.024": 0.0,
			"-0.023": 0.0,
			"-0.022": 0.0,
			"-0.021": 0.0,
			"-0.02": 0.0,
			"-0.019": 0.0,
			"-0.018": 0.0,
			"-0.017": 0.0,
			"-0.016": 0.0,
			"-0.015": 0.0,
			"-0.014": 0.231292213538,
			"-0.013": 0.859227530587,
			"-0.012": 2.05137324986,
			"-0.011": 3.46553985069,
			"-0.01": 2.48135562854,
			"-0.009": 5.26093995572,
			"-0.008": 5.29318969941,
			"-0.007": 9.00491969734,
			"-0.006": 13.0049799355,
			"-0.005": 12.8468668999,
			"-0.004": 12.279576959,
			"-0.003": 11.9458701558,
			"-0.002": 11.784393365,
			"-0.001": 8.18622412401,
			"0.0": 11.7451643968,
			"0.001": 10.6963542273,
			"0.002": 15.8294431299,
			"0.003": 8.42429419849,
			"0.004": 5.26487119743,
			"0.005": 4.37956764643,
			"0.006": 2.56623751451,
			"0.007": 2.93741655262,
			"0.008": 3.61615257658,
			"0.009": 2.58188469751,
			"0.01": 3.27589539893,
			"0.011": 3.38021995905,
			"0.012": 2.65072588532,
			"0.013": 6.50005138208,
			"0.014": 5.33988732297,
			"0.015": 1.66573837491,
			"0.016": 1.34291695852,
			"0.017": 0.302335917802,
			"0.018": 0.0,
			"0.019": 0.0,
			"0.02": 0.0,
			"0.021": 0.0,
			"0.022": 0.0,
			"0.023": 0.0,
			"0.024": 0.0,
			"0.025": 0.0
		}
	}
}
