{
	 "smiles": "COC1=C(N)C=C(C=C1)C#N", 
	 "Tm": 348.15, 
	 "num_atms": 19, 
	 "gaussian": { 
		 "optdone": 1, 
		 "sigma_profile": "yes", 
		 "theory": "DFT", 
		 "functional": "B3LYP", 
		 "basiset": "6-31G**", 
		 "properties": { 
			 "R2extent": 2364.0132, 
			 "electric_dipole_moment_norm": 6.57447663392, 
			 "electric_quadrupole_moment_norm": 20.8938531542, 
			 "total_energy": -494.375789021, 
			 "HOMO_LUMO_gap": 0.17817, 
			 "cosmo_polarized_energy": -13.84, 
			 "cosmo_cavitation_energy": 24.06, 
			 "cosmo_dispersion_energy": -17.35, 
			 "cosmo_repulsion_energy": 1.4, 
			 "cosmo_total_nonelectrostatic_energy": 8.12, 
			 "SMD_solvation_energy": 6.29 
		},
		"coords": [
			{
				"x": -1.4125865213,
				"y": -2.9794597025,
				"z": 0.6740491001,
				"element": "C" 
			},
			{
				"x": -1.0674478893,
				"y": -1.7551731621,
				"z": 0.0415107955,
				"element": "O" 
			},
			{
				"x": -0.370373419,
				"y": -0.824984512,
				"z": 0.7607196383,
				"element": "C" 
			},
			{
				"x": -0.0802404174,
				"y": 0.3656012244,
				"z": 0.0428962838,
				"element": "C" 
			},
			{
				"x": -0.4490344024,
				"y": 0.4542088847,
				"z": -1.2923185691,
				"element": "N" 
			},
			{
				"x": 0.6123628527,
				"y": 1.3822447885,
				"z": 0.6987483614,
				"element": "C" 
			},
			{
				"x": 1.0196687312,
				"y": 1.2298407609,
				"z": 2.0374134213,
				"element": "C" 
			},
			{
				"x": 0.7324754672,
				"y": 0.0487585267,
				"z": 2.7307927913,
				"element": "C" 
			},
			{
				"x": 0.0347520627,
				"y": -0.9744621369,
				"z": 2.085160091,
				"element": "C" 
			},
			{
				"x": 1.728998939,
				"y": 2.2914429816,
				"z": 2.6873739514,
				"element": "C" 
			},
			{
				"x": 2.303513386,
				"y": 3.1549558232,
				"z": 3.2156955786,
				"element": "N" 
			},
			{
				"x": -1.9551962224,
				"y": -3.5620795677,
				"z": -0.07154853,
				"element": "H" 
			},
			{
				"x": -2.05817803,
				"y": -2.8130679133,
				"z": 1.5453868092,
				"element": "H" 
			},
			{
				"x": -0.518928925,
				"y": -3.5333397017,
				"z": 0.986421103,
				"element": "H" 
			},
			{
				"x": -1.1797186524,
				"y": -0.18494282,
				"z": -1.5706326604,
				"element": "H" 
			},
			{
				"x": -0.5644348153,
				"y": 1.3890377347,
				"z": -1.6554847387,
				"element": "H" 
			},
			{
				"x": 0.8455231574,
				"y": 2.3002359171,
				"z": 0.1683791959,
				"element": "H" 
			},
			{
				"x": 1.0468887023,
				"y": -0.0683430601,
				"z": 3.7613702339,
				"element": "H" 
			},
			{
				"x": -0.191244004,
				"y": -1.8850740654,
				"z": 2.6267671435,
				"element": "H" 
			}
		],
		 "valence_orbital": [ 
			{
				"type": "occ",
				"energy": -0.33218,
				"method": "rhf"
			},
			{
				"type": "occ",
				"energy": -0.31785,
				"method": "rhf"
			},
			{
				"type": "occ",
				"energy": -0.30683,
				"method": "rhf"
			},
			{
				"type": "occ",
				"energy": -0.24618,
				"method": "rhf"
			},
			{
				"type": "occ",
				"energy": -0.20826,
				"method": "rhf"
			},
			{
				"type": "unocc",
				"energy": -0.03009,
				"method": "rhf"
			},
			{
				"type": "unocc",
				"energy": -0.00363,
				"method": "rhf"
			},
			{
				"type": "unocc",
				"energy": 0.04907,
				"method": "rhf"
			},
			{
				"type": "unocc",
				"energy": 0.07287,
				"method": "rhf"
			},
			{
				"type": "unocc",
				"energy": 0.08443,
				"method": "rhf"
			}
		],
		"cosmo_sigma_profile": { 
			"-0.025": 0.0,
			"-0.024": 0.0,
			"-0.023": 0.0,
			"-0.022": 0.0,
			"-0.021": 0.0,
			"-0.02": 0.0,
			"-0.019": 0.0,
			"-0.018": 0.0,
			"-0.017": 0.0,
			"-0.016": 0.0,
			"-0.015": 0.0,
			"-0.014": 0.0382934393971,
			"-0.013": 0.993403934519,
			"-0.012": 1.63189962298,
			"-0.011": 2.22258353585,
			"-0.01": 2.56771648827,
			"-0.009": 2.77947118178,
			"-0.008": 3.447172316,
			"-0.007": 6.91291393704,
			"-0.006": 13.7189721506,
			"-0.005": 16.1682409705,
			"-0.004": 13.7675654144,
			"-0.003": 11.7828876926,
			"-0.002": 8.37295781119,
			"-0.001": 7.99977883617,
			"0.0": 11.4764299834,
			"0.001": 12.0351574806,
			"0.002": 11.9583830254,
			"0.003": 13.9012929227,
			"0.004": 13.6136060724,
			"0.005": 4.60496114362,
			"0.006": 4.98331775259,
			"0.007": 4.29172352778,
			"0.008": 4.31826437329,
			"0.009": 3.94039150716,
			"0.01": 4.86729056631,
			"0.011": 3.26916649841,
			"0.012": 3.36448385522,
			"0.013": 2.82690413279,
			"0.014": 0.863864307041,
			"0.015": 0.0,
			"0.016": 0.0,
			"0.017": 0.0,
			"0.018": 0.0,
			"0.019": 0.0,
			"0.02": 0.0,
			"0.021": 0.0,
			"0.022": 0.0,
			"0.023": 0.0,
			"0.024": 0.0,
			"0.025": 0.0
		}
	}
}
