{
	 "smiles": "CCCCCCC=C", 
	 "Tm": 171.15, 
	 "num_atms": 24, 
	 "gaussian": { 
		 "optdone": 1, 
		 "sigma_profile": "yes", 
		 "theory": "DFT", 
		 "functional": "B3LYP", 
		 "basiset": "6-31G**", 
		 "properties": { 
			 "R2extent": 2006.2334, 
			 "electric_dipole_moment_norm": 0.405624617103, 
			 "electric_quadrupole_moment_norm": 1.88794529847, 
			 "total_energy": -314.490097472, 
			 "HOMO_LUMO_gap": 0.27438, 
			 "cosmo_polarized_energy": -1.67, 
			 "cosmo_cavitation_energy": 25.66, 
			 "cosmo_dispersion_energy": -18.24, 
			 "cosmo_repulsion_energy": 1.56, 
			 "cosmo_total_nonelectrostatic_energy": 8.98, 
			 "SMD_solvation_energy": 4.62 
		},
		"coords": [
			{
				"x": -0.2237083981,
				"y": 4.1267697655,
				"z": 0.2587954436,
				"element": "C" 
			},
			{
				"x": -1.2061687618,
				"y": 2.9738135987,
				"z": 0.4980642565,
				"element": "C" 
			},
			{
				"x": -0.5430330847,
				"y": 1.6193486048,
				"z": 0.8026986649,
				"element": "C" 
			},
			{
				"x": 0.2521235924,
				"y": 1.0233156073,
				"z": -0.3687272247,
				"element": "C" 
			},
			{
				"x": 0.9308825455,
				"y": -0.3220860123,
				"z": -0.0618154968,
				"element": "C" 
			},
			{
				"x": -0.0439325186,
				"y": -1.489597706,
				"z": 0.1932918703,
				"element": "C" 
			},
			{
				"x": 0.6620978264,
				"y": -2.8072263657,
				"z": 0.3630884913,
				"element": "C" 
			},
			{
				"x": 0.613259043,
				"y": -3.5746377019,
				"z": 1.4523645573,
				"element": "C" 
			},
			{
				"x": 0.4419094791,
				"y": 4.2619386098,
				"z": 1.1194857076,
				"element": "H" 
			},
			{
				"x": 0.4047397605,
				"y": 3.9553595123,
				"z": -0.6210836516,
				"element": "H" 
			},
			{
				"x": -0.7561132972,
				"y": 5.0705151064,
				"z": 0.1004738549,
				"element": "H" 
			},
			{
				"x": -1.8633854833,
				"y": 3.2374359054,
				"z": 1.3366336605,
				"element": "H" 
			},
			{
				"x": -1.8623564794,
				"y": 2.8650620505,
				"z": -0.3766296802,
				"element": "H" 
			},
			{
				"x": -1.324825642,
				"y": 0.9132923133,
				"z": 1.1093296363,
				"element": "H" 
			},
			{
				"x": 0.1235405022,
				"y": 1.7306242411,
				"z": 1.6706097203,
				"element": "H" 
			},
			{
				"x": -0.4162116273,
				"y": 0.9026119711,
				"z": -1.2340903235,
				"element": "H" 
			},
			{
				"x": 1.0268591499,
				"y": 1.7341516183,
				"z": -0.681387733,
				"element": "H" 
			},
			{
				"x": 1.5825877034,
				"y": -0.5891370936,
				"z": -0.9045811817,
				"element": "H" 
			},
			{
				"x": 1.5915190028,
				"y": -0.2124406893,
				"z": 0.8086177183,
				"element": "H" 
			},
			{
				"x": -0.6579324165,
				"y": -1.2900856597,
				"z": 1.0789114469,
				"element": "H" 
			},
			{
				"x": -0.7359743744,
				"y": -1.5556648338,
				"z": -0.660413999,
				"element": "H" 
			},
			{
				"x": 1.2673987761,
				"y": -3.1328521371,
				"z": -0.4850034214,
				"element": "H" 
			},
			{
				"x": 1.1530795202,
				"y": -4.5150790302,
				"z": 1.5153715719,
				"element": "H" 
			},
			{
				"x": 0.0265451819,
				"y": -3.290731675,
				"z": 2.3233961113,
				"element": "H" 
			}
		],
		 "valence_orbital": [ 
			{
				"type": "occ",
				"energy": -0.33221,
				"method": "rhf"
			},
			{
				"type": "occ",
				"energy": -0.31827,
				"method": "rhf"
			},
			{
				"type": "occ",
				"energy": -0.31262,
				"method": "rhf"
			},
			{
				"type": "occ",
				"energy": -0.30477,
				"method": "rhf"
			},
			{
				"type": "occ",
				"energy": -0.24886,
				"method": "rhf"
			},
			{
				"type": "unocc",
				"energy": 0.02552,
				"method": "rhf"
			},
			{
				"type": "unocc",
				"energy": 0.09067,
				"method": "rhf"
			},
			{
				"type": "unocc",
				"energy": 0.10864,
				"method": "rhf"
			},
			{
				"type": "unocc",
				"energy": 0.11389,
				"method": "rhf"
			},
			{
				"type": "unocc",
				"energy": 0.12616,
				"method": "rhf"
			}
		],
		"cosmo_sigma_profile": { 
			"-0.025": 0.0,
			"-0.024": 0.0,
			"-0.023": 0.0,
			"-0.022": 0.0,
			"-0.021": 0.0,
			"-0.02": 0.0,
			"-0.019": 0.0,
			"-0.018": 0.0,
			"-0.017": 0.0,
			"-0.016": 0.0,
			"-0.015": 0.0,
			"-0.014": 0.0,
			"-0.013": 0.0,
			"-0.012": 0.0,
			"-0.011": 0.0,
			"-0.01": 0.0,
			"-0.009": 0.0,
			"-0.008": 0.0,
			"-0.007": 0.0,
			"-0.006": 0.0,
			"-0.005": 0.949448242836,
			"-0.004": 5.17402529777,
			"-0.003": 11.381333579,
			"-0.002": 31.8239839266,
			"-0.001": 37.3804221382,
			"0.0": 40.6907833042,
			"0.001": 35.9551039325,
			"0.002": 15.259538751,
			"0.003": 5.46773195512,
			"0.004": 3.75842520545,
			"0.005": 3.65990560527,
			"0.006": 2.95177349327,
			"0.007": 2.72161784705,
			"0.008": 0.939503917806,
			"0.009": 0.0,
			"0.01": 0.0,
			"0.011": 0.0,
			"0.012": 0.0,
			"0.013": 0.0,
			"0.014": 0.0,
			"0.015": 0.0,
			"0.016": 0.0,
			"0.017": 0.0,
			"0.018": 0.0,
			"0.019": 0.0,
			"0.02": 0.0,
			"0.021": 0.0,
			"0.022": 0.0,
			"0.023": 0.0,
			"0.024": 0.0,
			"0.025": 0.0
		}
	}
}
