{
	 "smiles": "NC1=C(F)C=CC(=C1)S(N)(=O)=O", 
	 "Tm": 408.15, 
	 "num_atms": 19, 
	 "gaussian": { 
		 "optdone": 1, 
		 "sigma_profile": "yes", 
		 "theory": "DFT", 
		 "functional": "B3LYP", 
		 "basiset": "6-31G**", 
		 "properties": { 
			 "R2extent": 3040.5735, 
			 "electric_dipole_moment_norm": 5.34553968276, 
			 "electric_quadrupole_moment_norm": 27.4020348768, 
			 "total_energy": -990.761474745, 
			 "HOMO_LUMO_gap": 0.19313, 
			 "cosmo_polarized_energy": -21.01, 
			 "cosmo_cavitation_energy": 25.24, 
			 "cosmo_dispersion_energy": -19.09, 
			 "cosmo_repulsion_energy": 1.46, 
			 "cosmo_total_nonelectrostatic_energy": 7.61, 
			 "SMD_solvation_energy": 4.41 
		},
		"coords": [
			{
				"x": 1.0494397667,
				"y": -0.7802016867,
				"z": 1.9048966347,
				"element": "N" 
			},
			{
				"x": -0.0098656178,
				"y": -0.3782172378,
				"z": 1.1065892144,
				"element": "C" 
			},
			{
				"x": -1.2084876507,
				"y": -1.1136865539,
				"z": 1.1112729984,
				"element": "C" 
			},
			{
				"x": -1.2799427328,
				"y": -2.1627869784,
				"z": 1.9666435818,
				"element": "F" 
			},
			{
				"x": -2.2963111597,
				"y": -0.7981619032,
				"z": 0.3168464872,
				"element": "C" 
			},
			{
				"x": -2.217046828,
				"y": 0.2954131533,
				"z": -0.5488007823,
				"element": "C" 
			},
			{
				"x": -1.0329082193,
				"y": 1.0331592918,
				"z": -0.5754542063,
				"element": "C" 
			},
			{
				"x": 0.0590722582,
				"y": 0.7176487605,
				"z": 0.2355212064,
				"element": "C" 
			},
			{
				"x": -0.8882917774,
				"y": 2.4218745136,
				"z": -1.7089720825,
				"element": "S" 
			},
			{
				"x": -0.3121958153,
				"y": 1.8021157226,
				"z": -3.1644675141,
				"element": "N" 
			},
			{
				"x": 0.1750027977,
				"y": 3.2908050203,
				"z": -1.2057079033,
				"element": "O" 
			},
			{
				"x": -2.2398180846,
				"y": 2.8996286775,
				"z": -1.9945843895,
				"element": "O" 
			},
			{
				"x": 1.7129831176,
				"y": -0.0607213978,
				"z": 2.1532575663,
				"element": "H" 
			},
			{
				"x": 0.7963963635,
				"y": -1.379366482,
				"z": 2.6777184051,
				"element": "H" 
			},
			{
				"x": -3.194797841,
				"y": -1.4010368727,
				"z": 0.3927289064,
				"element": "H" 
			},
			{
				"x": -3.0607660443,
				"y": 0.5877204005,
				"z": -1.1625486474,
				"element": "H" 
			},
			{
				"x": 0.9487327026,
				"y": 1.3386483586,
				"z": 0.2066297926,
				"element": "H" 
			},
			{
				"x": -0.9673822063,
				"y": 1.16123544,
				"z": -3.6012515213,
				"element": "H" 
			},
			{
				"x": 0.6222869709,
				"y": 1.4141297737,
				"z": -3.0807177466,
				"element": "H" 
			}
		],
		 "valence_orbital": [ 
			{
				"type": "occ",
				"energy": -0.3102,
				"method": "rhf"
			},
			{
				"type": "occ",
				"energy": -0.30235,
				"method": "rhf"
			},
			{
				"type": "occ",
				"energy": -0.30192,
				"method": "rhf"
			},
			{
				"type": "occ",
				"energy": -0.26677,
				"method": "rhf"
			},
			{
				"type": "occ",
				"energy": -0.2272,
				"method": "rhf"
			},
			{
				"type": "unocc",
				"energy": -0.03407,
				"method": "rhf"
			},
			{
				"type": "unocc",
				"energy": -0.01595,
				"method": "rhf"
			},
			{
				"type": "unocc",
				"energy": 0.05047,
				"method": "rhf"
			},
			{
				"type": "unocc",
				"energy": 0.0658,
				"method": "rhf"
			},
			{
				"type": "unocc",
				"energy": 0.07719,
				"method": "rhf"
			}
		],
		"cosmo_sigma_profile": { 
			"-0.025": 0.0,
			"-0.024": 0.0,
			"-0.023": 0.0,
			"-0.022": 0.0,
			"-0.021": 0.0,
			"-0.02": 0.0,
			"-0.019": 0.0,
			"-0.018": 0.0,
			"-0.017": 0.0,
			"-0.016": 0.111006380254,
			"-0.015": 1.80516456585,
			"-0.014": 3.40053633102,
			"-0.013": 4.7118440465,
			"-0.012": 4.65951514625,
			"-0.011": 5.2843931758,
			"-0.01": 5.27869167531,
			"-0.009": 4.23443895209,
			"-0.008": 5.79229512335,
			"-0.007": 7.25793129228,
			"-0.006": 6.71113672347,
			"-0.005": 9.85738085396,
			"-0.004": 6.02860145355,
			"-0.003": 4.90451659113,
			"-0.002": 6.87647955968,
			"-0.001": 9.47333163248,
			"0.0": 10.8257866491,
			"0.001": 13.799848787,
			"0.002": 14.0969449958,
			"0.003": 15.7199327467,
			"0.004": 10.2729205793,
			"0.005": 4.14300693088,
			"0.006": 4.55684197268,
			"0.007": 4.34020718407,
			"0.008": 5.68307132057,
			"0.009": 4.61298942067,
			"0.01": 8.55879105678,
			"0.011": 11.1934251594,
			"0.012": 6.23041342892,
			"0.013": 0.66439197615,
			"0.014": 0.0,
			"0.015": 0.0,
			"0.016": 0.0,
			"0.017": 0.0,
			"0.018": 0.0,
			"0.019": 0.0,
			"0.02": 0.0,
			"0.021": 0.0,
			"0.022": 0.0,
			"0.023": 0.0,
			"0.024": 0.0,
			"0.025": 0.0
		}
	}
}
