{
	 "smiles": "FC(F)(F)COC(=O)NCCCN1CCCC1=O", 
	 "Tm": 309.15, 
	 "num_atms": 33, 
	 "gaussian": { 
		 "optdone": 1, 
		 "sigma_profile": "yes", 
		 "theory": "DFT", 
		 "functional": "B3LYP", 
		 "basiset": "6-31G**", 
		 "properties": { 
			 "R2extent": 5674.2934, 
			 "electric_dipole_moment_norm": 2.52017683705, 
			 "electric_quadrupole_moment_norm": 16.5492632313, 
			 "total_energy": -1024.85037475, 
			 "HOMO_LUMO_gap": 0.26414, 
			 "cosmo_polarized_energy": -17.2, 
			 "cosmo_cavitation_energy": 37.46, 
			 "cosmo_dispersion_energy": -24.94, 
			 "cosmo_repulsion_energy": 1.91, 
			 "cosmo_total_nonelectrostatic_energy": 14.43, 
			 "SMD_solvation_energy": 7.18 
		},
		"coords": [
			{
				"x": -0.8125942994,
				"y": -0.1451687071,
				"z": 2.112846425,
				"element": "F" 
			},
			{
				"x": -2.1163279352,
				"y": -0.0693317179,
				"z": 1.7636739608,
				"element": "C" 
			},
			{
				"x": -2.3263863279,
				"y": -1.0007036245,
				"z": 0.8094992534,
				"element": "F" 
			},
			{
				"x": -2.8585378304,
				"y": -0.399991588,
				"z": 2.8377173919,
				"element": "F" 
			},
			{
				"x": -2.483702104,
				"y": 1.3252388634,
				"z": 1.2859472885,
				"element": "C" 
			},
			{
				"x": -1.6843344902,
				"y": 1.6407244878,
				"z": 0.1584971241,
				"element": "O" 
			},
			{
				"x": -0.7452709919,
				"y": 2.6359132598,
				"z": 0.3400094159,
				"element": "C" 
			},
			{
				"x": -0.7229827674,
				"y": 3.3810324193,
				"z": 1.2995227188,
				"element": "O" 
			},
			{
				"x": 0.1068899326,
				"y": 2.6734014905,
				"z": -0.7191831988,
				"element": "N" 
			},
			{
				"x": 0.2612188588,
				"y": 1.5944746252,
				"z": -1.696675033,
				"element": "C" 
			},
			{
				"x": 0.9214396039,
				"y": 0.3369325612,
				"z": -1.1125297511,
				"element": "C" 
			},
			{
				"x": 0.8543800005,
				"y": -0.8633252676,
				"z": -2.0697725488,
				"element": "C" 
			},
			{
				"x": 1.2876205611,
				"y": -2.1017366655,
				"z": -1.4514883542,
				"element": "N" 
			},
			{
				"x": 0.5217835994,
				"y": -2.7875551363,
				"z": -0.4150805059,
				"element": "C" 
			},
			{
				"x": 1.2542297909,
				"y": -4.1408677888,
				"z": -0.2803144222,
				"element": "C" 
			},
			{
				"x": 2.6914314996,
				"y": -3.8301312528,
				"z": -0.7293940225,
				"element": "C" 
			},
			{
				"x": 2.5474109605,
				"y": -2.6149590408,
				"z": -1.6474666984,
				"element": "C" 
			},
			{
				"x": 3.3886595676,
				"y": -2.1561299804,
				"z": -2.4062854294,
				"element": "O" 
			},
			{
				"x": -2.3169520866,
				"y": 2.0445396221,
				"z": 2.0905317633,
				"element": "H" 
			},
			{
				"x": -3.5351812912,
				"y": 1.3278785714,
				"z": 0.9883447989,
				"element": "H" 
			},
			{
				"x": 0.8628926658,
				"y": 3.3308428397,
				"z": -0.5956681075,
				"element": "H" 
			},
			{
				"x": 0.8465990857,
				"y": 1.9948612418,
				"z": -2.5302841753,
				"element": "H" 
			},
			{
				"x": -0.7292381458,
				"y": 1.3487381439,
				"z": -2.0898115669,
				"element": "H" 
			},
			{
				"x": 0.4055391249,
				"y": 0.0843637437,
				"z": -0.1820593549,
				"element": "H" 
			},
			{
				"x": 1.9680069241,
				"y": 0.5413031814,
				"z": -0.8582013904,
				"element": "H" 
			},
			{
				"x": -0.1754829916,
				"y": -0.9929368764,
				"z": -2.430538065,
				"element": "H" 
			},
			{
				"x": 1.5028103818,
				"y": -0.7071029623,
				"z": -2.9367588445,
				"element": "H" 
			},
			{
				"x": 0.5264668177,
				"y": -2.2241077947,
				"z": 0.5291495056,
				"element": "H" 
			},
			{
				"x": -0.5257880403,
				"y": -2.8990495212,
				"z": -0.7176777892,
				"element": "H" 
			},
			{
				"x": 1.1894024602,
				"y": -4.5432432591,
				"z": 0.7333107509,
				"element": "H" 
			},
			{
				"x": 0.8007324677,
				"y": -4.8703607791,
				"z": -0.9587538258,
				"element": "H" 
			},
			{
				"x": 3.3342461109,
				"y": -3.5412659607,
				"z": 0.1114265296,
				"element": "H" 
			},
			{
				"x": 3.1902188882,
				"y": -4.6483771281,
				"z": -1.2531338429,
				"element": "H" 
			}
		],
		 "valence_orbital": [ 
			{
				"type": "occ",
				"energy": -0.31475,
				"method": "rhf"
			},
			{
				"type": "occ",
				"energy": -0.28988,
				"method": "rhf"
			},
			{
				"type": "occ",
				"energy": -0.26986,
				"method": "rhf"
			},
			{
				"type": "occ",
				"energy": -0.24171,
				"method": "rhf"
			},
			{
				"type": "occ",
				"energy": -0.23296,
				"method": "rhf"
			},
			{
				"type": "unocc",
				"energy": 0.03118,
				"method": "rhf"
			},
			{
				"type": "unocc",
				"energy": 0.03905,
				"method": "rhf"
			},
			{
				"type": "unocc",
				"energy": 0.06642,
				"method": "rhf"
			},
			{
				"type": "unocc",
				"energy": 0.08113,
				"method": "rhf"
			},
			{
				"type": "unocc",
				"energy": 0.09229,
				"method": "rhf"
			}
		],
		"cosmo_sigma_profile": { 
			"-0.025": 0.0,
			"-0.024": 0.0,
			"-0.023": 0.0,
			"-0.022": 0.0,
			"-0.021": 0.0,
			"-0.02": 0.0,
			"-0.019": 0.0,
			"-0.018": 0.0,
			"-0.017": 0.0,
			"-0.016": 0.0,
			"-0.015": 0.286618692628,
			"-0.014": 1.2017258445,
			"-0.013": 1.28251701492,
			"-0.012": 0.985829475476,
			"-0.011": 1.07872254565,
			"-0.01": 0.818126129196,
			"-0.009": 3.63830632202,
			"-0.008": 4.72918851569,
			"-0.007": 4.47124450914,
			"-0.006": 8.1151170363,
			"-0.005": 16.7203500059,
			"-0.004": 28.1954753717,
			"-0.003": 30.3600275347,
			"-0.002": 27.0270529855,
			"-0.001": 28.9187210495,
			"0.0": 25.673180016,
			"0.001": 16.7437178172,
			"0.002": 26.6245966292,
			"0.003": 19.9559569176,
			"0.004": 4.98377034808,
			"0.005": 4.76185205741,
			"0.006": 3.36392343904,
			"0.007": 2.53143941613,
			"0.008": 2.32128702157,
			"0.009": 2.87009932892,
			"0.01": 3.23996926081,
			"0.011": 3.05968081631,
			"0.012": 5.80256697017,
			"0.013": 5.46991975143,
			"0.014": 6.12326893218,
			"0.015": 2.58383632157,
			"0.016": 0.309889666602,
			"0.017": 0.0,
			"0.018": 0.0,
			"0.019": 0.0,
			"0.02": 0.0,
			"0.021": 0.0,
			"0.022": 0.0,
			"0.023": 0.0,
			"0.024": 0.0,
			"0.025": 0.0
		}
	}
}
