{
	 "smiles": "CNC(CCO)C1=CC=CC=C1", 
	 "Tm": 330.15, 
	 "num_atms": 27, 
	 "gaussian": { 
		 "optdone": 1, 
		 "sigma_profile": "yes", 
		 "theory": "DFT", 
		 "functional": "B3LYP", 
		 "basiset": "6-31G**", 
		 "properties": { 
			 "R2extent": 2974.028, 
			 "electric_dipole_moment_norm": 3.31217086969, 
			 "electric_quadrupole_moment_norm": 12.8266237253, 
			 "total_energy": -520.072677951, 
			 "HOMO_LUMO_gap": 0.22533, 
			 "cosmo_polarized_energy": -9.41, 
			 "cosmo_cavitation_energy": 28.79, 
			 "cosmo_dispersion_energy": -20.41, 
			 "cosmo_repulsion_energy": 1.65, 
			 "cosmo_total_nonelectrostatic_energy": 10.04, 
			 "SMD_solvation_energy": 4.68 
		},
		"coords": [
			{
				"x": 1.1317200749,
				"y": 2.4461781319,
				"z": 1.0436068552,
				"element": "C" 
			},
			{
				"x": 0.5938564037,
				"y": 2.3195736745,
				"z": -0.313195764,
				"element": "N" 
			},
			{
				"x": 0.0249101661,
				"y": 0.9885882297,
				"z": -0.6257728121,
				"element": "C" 
			},
			{
				"x": -0.7045062898,
				"y": 1.0456255035,
				"z": -1.9841757836,
				"element": "C" 
			},
			{
				"x": -1.8546788744,
				"y": 2.0619273501,
				"z": -2.023187279,
				"element": "C" 
			},
			{
				"x": -1.4171436447,
				"y": 3.4029040604,
				"z": -1.9391015286,
				"element": "O" 
			},
			{
				"x": 1.0355052473,
				"y": -0.1563531726,
				"z": -0.5654649955,
				"element": "C" 
			},
			{
				"x": 2.171075333,
				"y": -0.1613532594,
				"z": -1.3892241218,
				"element": "C" 
			},
			{
				"x": 3.0879465965,
				"y": -1.2109416162,
				"z": -1.3397670119,
				"element": "C" 
			},
			{
				"x": 2.8842729558,
				"y": -2.2798368883,
				"z": -0.4634451337,
				"element": "C" 
			},
			{
				"x": 1.7594476001,
				"y": -2.2881925016,
				"z": 0.3615162864,
				"element": "C" 
			},
			{
				"x": 0.8462303583,
				"y": -1.2325985763,
				"z": 0.3096297791,
				"element": "C" 
			},
			{
				"x": 1.9035315644,
				"y": 1.7023946235,
				"z": 1.2912973185,
				"element": "H" 
			},
			{
				"x": 1.5577111926,
				"y": 3.4456314679,
				"z": 1.1685505666,
				"element": "H" 
			},
			{
				"x": 0.3150766289,
				"y": 2.3386175895,
				"z": 1.7652618256,
				"element": "H" 
			},
			{
				"x": 1.3284040823,
				"y": 2.5280012847,
				"z": -0.9872721399,
				"element": "H" 
			},
			{
				"x": -0.7321144016,
				"y": 0.8005721443,
				"z": 0.1484622803,
				"element": "H" 
			},
			{
				"x": 0.0128936193,
				"y": 1.2897853015,
				"z": -2.7791243164,
				"element": "H" 
			},
			{
				"x": -1.0933331882,
				"y": 0.0446331092,
				"z": -2.2075837844,
				"element": "H" 
			},
			{
				"x": -2.3963325156,
				"y": 1.9588499343,
				"z": -2.9709896244,
				"element": "H" 
			},
			{
				"x": -2.5736476042,
				"y": 1.8162622512,
				"z": -1.2191310451,
				"element": "H" 
			},
			{
				"x": -0.7844993085,
				"y": 3.4104139216,
				"z": -1.194150615,
				"element": "H" 
			},
			{
				"x": 2.3426171819,
				"y": 0.6602412136,
				"z": -2.0813852532,
				"element": "H" 
			},
			{
				"x": 3.9605218567,
				"y": -1.1966079466,
				"z": -1.9869466688,
				"element": "H" 
			},
			{
				"x": 3.5977429432,
				"y": -3.0978832426,
				"z": -0.4247037392,
				"element": "H" 
			},
			{
				"x": 1.5930411012,
				"y": -3.1131586916,
				"z": 1.0486443269,
				"element": "H" 
			},
			{
				"x": -0.0275490795,
				"y": -1.2447738961,
				"z": 0.9573523779,
				"element": "H" 
			}
		],
		 "valence_orbital": [ 
			{
				"type": "occ",
				"energy": -0.31236,
				"method": "rhf"
			},
			{
				"type": "occ",
				"energy": -0.25556,
				"method": "rhf"
			},
			{
				"type": "occ",
				"energy": -0.25105,
				"method": "rhf"
			},
			{
				"type": "occ",
				"energy": -0.23935,
				"method": "rhf"
			},
			{
				"type": "occ",
				"energy": -0.23425,
				"method": "rhf"
			},
			{
				"type": "unocc",
				"energy": -0.00892,
				"method": "rhf"
			},
			{
				"type": "unocc",
				"energy": -0.00571,
				"method": "rhf"
			},
			{
				"type": "unocc",
				"energy": 0.07564,
				"method": "rhf"
			},
			{
				"type": "unocc",
				"energy": 0.09439,
				"method": "rhf"
			},
			{
				"type": "unocc",
				"energy": 0.09717,
				"method": "rhf"
			}
		],
		"cosmo_sigma_profile": { 
			"-0.025": 0.0,
			"-0.024": 0.0,
			"-0.023": 0.0,
			"-0.022": 0.0,
			"-0.021": 0.0,
			"-0.02": 0.0,
			"-0.019": 0.0,
			"-0.018": 0.0,
			"-0.017": 0.0,
			"-0.016": 0.0,
			"-0.015": 0.0,
			"-0.014": 0.0,
			"-0.013": 0.0,
			"-0.012": 0.0,
			"-0.011": 0.0663931401864,
			"-0.01": 1.49124096855,
			"-0.009": 2.08478829167,
			"-0.008": 1.55397431854,
			"-0.007": 2.15081980638,
			"-0.006": 4.24055437547,
			"-0.005": 13.1337959597,
			"-0.004": 21.0729188132,
			"-0.003": 26.6036436306,
			"-0.002": 26.2448601603,
			"-0.001": 25.329592021,
			"0.0": 20.9829118904,
			"0.001": 13.8989685405,
			"0.002": 11.3396752993,
			"0.003": 11.3915662414,
			"0.004": 10.2493571763,
			"0.005": 9.07358631763,
			"0.006": 8.32982725938,
			"0.007": 2.41732195628,
			"0.008": 1.35642834088,
			"0.009": 0.923543102165,
			"0.01": 1.61826374779,
			"0.011": 1.06047437937,
			"0.012": 1.07064628186,
			"0.013": 1.63645813748,
			"0.014": 1.39273472794,
			"0.015": 2.28735997503,
			"0.016": 2.11451558736,
			"0.017": 0.118472042476,
			"0.018": 0.0,
			"0.019": 0.0,
			"0.02": 0.0,
			"0.021": 0.0,
			"0.022": 0.0,
			"0.023": 0.0,
			"0.024": 0.0,
			"0.025": 0.0
		}
	}
}
