{
	 "smiles": "ClC(Cl)=C(Cl)C(=O)NC1=CC=C(Cl)C=C1", 
	 "Tm": 419.15, 
	 "num_atms": 20, 
	 "gaussian": { 
		 "optdone": 1, 
		 "sigma_profile": "yes", 
		 "theory": "DFT", 
		 "functional": "B3LYP", 
		 "basiset": "6-31G**", 
		 "properties": { 
			 "R2extent": 8031.913, 
			 "electric_dipole_moment_norm": 2.69081712868, 
			 "electric_quadrupole_moment_norm": 7.47583496139, 
			 "total_energy": -2316.6922936, 
			 "HOMO_LUMO_gap": 0.15472, 
			 "cosmo_polarized_energy": -9.82, 
			 "cosmo_cavitation_energy": 32.43, 
			 "cosmo_dispersion_energy": -24.38, 
			 "cosmo_repulsion_energy": 1.91, 
			 "cosmo_total_nonelectrostatic_energy": 9.96, 
			 "SMD_solvation_energy": 5.13 
		},
		"coords": [
			{
				"x": 0.0087663279,
				"y": -1.4017147561,
				"z": -4.7424766891,
				"element": "Cl" 
			},
			{
				"x": 0.8350023912,
				"y": -1.3390459105,
				"z": -3.2179761991,
				"element": "C" 
			},
			{
				"x": 2.4554738929,
				"y": -1.9204144694,
				"z": -3.2960991232,
				"element": "Cl" 
			},
			{
				"x": 0.2502386524,
				"y": -0.8562143087,
				"z": -2.0978841267,
				"element": "C" 
			},
			{
				"x": -1.400888713,
				"y": -0.2572417121,
				"z": -2.2026831544,
				"element": "Cl" 
			},
			{
				"x": 0.9170348458,
				"y": -0.8110754307,
				"z": -0.7377591601,
				"element": "C" 
			},
			{
				"x": 1.8775380936,
				"y": -1.5219316233,
				"z": -0.4810875488,
				"element": "O" 
			},
			{
				"x": 0.3602697629,
				"y": 0.0861109321,
				"z": 0.1366922311,
				"element": "N" 
			},
			{
				"x": 0.7452220837,
				"y": 0.3570457764,
				"z": 1.4663179531,
				"element": "C" 
			},
			{
				"x": -0.0054715636,
				"y": 1.3192440031,
				"z": 2.1610821813,
				"element": "C" 
			},
			{
				"x": 0.302624583,
				"y": 1.651834688,
				"z": 3.4756038335,
				"element": "C" 
			},
			{
				"x": 1.3722775124,
				"y": 1.0167917338,
				"z": 4.1060958909,
				"element": "C" 
			},
			{
				"x": 1.7695678556,
				"y": 1.4294729628,
				"z": 5.7670265092,
				"element": "Cl" 
			},
			{
				"x": 2.1264728383,
				"y": 0.0601133637,
				"z": 3.430087494,
				"element": "C" 
			},
			{
				"x": 1.8199017673,
				"y": -0.2742595603,
				"z": 2.1116643644,
				"element": "C" 
			},
			{
				"x": -0.4358698266,
				"y": 0.610745433,
				"z": -0.1969037188,
				"element": "H" 
			},
			{
				"x": -0.8395574724,
				"y": 1.8143228741,
				"z": 1.6695707519,
				"element": "H" 
			},
			{
				"x": -0.2816834506,
				"y": 2.3957872889,
				"z": 4.0052092332,
				"element": "H" 
			},
			{
				"x": 2.9562297887,
				"y": -0.4272476883,
				"z": 3.929989111,
				"element": "H" 
			},
			{
				"x": 2.4023506304,
				"y": -1.0148235964,
				"z": 1.5835301665,
				"element": "H" 
			}
		],
		 "valence_orbital": [ 
			{
				"type": "occ",
				"energy": -0.3065,
				"method": "rhf"
			},
			{
				"type": "occ",
				"energy": -0.27776,
				"method": "rhf"
			},
			{
				"type": "occ",
				"energy": -0.27251,
				"method": "rhf"
			},
			{
				"type": "occ",
				"energy": -0.27102,
				"method": "rhf"
			},
			{
				"type": "occ",
				"energy": -0.2315,
				"method": "rhf"
			},
			{
				"type": "unocc",
				"energy": -0.07678,
				"method": "rhf"
			},
			{
				"type": "unocc",
				"energy": -0.03056,
				"method": "rhf"
			},
			{
				"type": "unocc",
				"energy": -0.02129,
				"method": "rhf"
			},
			{
				"type": "unocc",
				"energy": -0.01456,
				"method": "rhf"
			},
			{
				"type": "unocc",
				"energy": -0.0115,
				"method": "rhf"
			}
		],
		"cosmo_sigma_profile": { 
			"-0.025": 0.0,
			"-0.024": 0.0,
			"-0.023": 0.0,
			"-0.022": 0.0,
			"-0.021": 0.0,
			"-0.02": 0.0,
			"-0.019": 0.0,
			"-0.018": 0.0,
			"-0.017": 0.0,
			"-0.016": 0.0,
			"-0.015": 0.409295762567,
			"-0.014": 0.952423451999,
			"-0.013": 0.972474022144,
			"-0.012": 1.34938374568,
			"-0.011": 0.995392585068,
			"-0.01": 1.56290347038,
			"-0.009": 1.66100808523,
			"-0.008": 3.49500027543,
			"-0.007": 6.5010001473,
			"-0.006": 6.04683628588,
			"-0.005": 10.7825904386,
			"-0.004": 13.3949152246,
			"-0.003": 19.4241881898,
			"-0.002": 21.4453923771,
			"-0.001": 19.8920770464,
			"0.0": 23.8853377304,
			"0.001": 30.1665921385,
			"0.002": 41.5108032066,
			"0.003": 28.9968713911,
			"0.004": 14.4624694712,
			"0.005": 9.40937387645,
			"0.006": 1.85873715971,
			"0.007": 1.36029172599,
			"0.008": 2.09705860327,
			"0.009": 1.99063006124,
			"0.01": 2.25423586566,
			"0.011": 2.80555951859,
			"0.012": 0.987627561038,
			"0.013": 0.0,
			"0.014": 0.0,
			"0.015": 0.0,
			"0.016": 0.0,
			"0.017": 0.0,
			"0.018": 0.0,
			"0.019": 0.0,
			"0.02": 0.0,
			"0.021": 0.0,
			"0.022": 0.0,
			"0.023": 0.0,
			"0.024": 0.0,
			"0.025": 0.0
		}
	}
}
