{
	 "smiles": "COC(=O)C1=CN=CC=N1", 
	 "Tm": 331.15, 
	 "num_atms": 16, 
	 "gaussian": { 
		 "optdone": 1, 
		 "sigma_profile": "yes", 
		 "theory": "DFT", 
		 "functional": "B3LYP", 
		 "basiset": "6-31G**", 
		 "properties": { 
			 "R2extent": 1648.8618, 
			 "electric_dipole_moment_norm": 1.8439670984, 
			 "electric_quadrupole_moment_norm": 8.26963958646, 
			 "total_energy": -492.190241733, 
			 "HOMO_LUMO_gap": 0.18076, 
			 "cosmo_polarized_energy": -10.13, 
			 "cosmo_cavitation_energy": 21.22, 
			 "cosmo_dispersion_energy": -15.79, 
			 "cosmo_repulsion_energy": 1.28, 
			 "cosmo_total_nonelectrostatic_energy": 6.71, 
			 "SMD_solvation_energy": 2.89 
		},
		"coords": [
			{
				"x": 3.0707649296,
				"y": -0.6003731759,
				"z": -1.0837363459,
				"element": "C" 
			},
			{
				"x": 1.8280400123,
				"y": -1.0148106365,
				"z": -0.4910705681,
				"element": "O" 
			},
			{
				"x": 0.8605114255,
				"y": -0.0887546492,
				"z": -0.4971620424,
				"element": "C" 
			},
			{
				"x": 0.9832276561,
				"y": 1.0296459224,
				"z": -0.959715602,
				"element": "O" 
			},
			{
				"x": -0.4153982983,
				"y": -0.571175006,
				"z": 0.1315553884,
				"element": "C" 
			},
			{
				"x": -1.5042772111,
				"y": 0.3107361023,
				"z": 0.182805236,
				"element": "C" 
			},
			{
				"x": -2.6739328632,
				"y": -0.0416133907,
				"z": 0.7253800058,
				"element": "N" 
			},
			{
				"x": -2.742155168,
				"y": -1.2840733509,
				"z": 1.2154258512,
				"element": "C" 
			},
			{
				"x": -1.6561982905,
				"y": -2.1642909478,
				"z": 1.1646155998,
				"element": "C" 
			},
			{
				"x": -0.4876943124,
				"y": -1.8147953667,
				"z": 0.6234417382,
				"element": "N" 
			},
			{
				"x": 2.9242881427,
				"y": -0.3296876939,
				"z": -2.1324460807,
				"element": "H" 
			},
			{
				"x": 3.7355884372,
				"y": -1.4588808715,
				"z": -0.9968029962,
				"element": "H" 
			},
			{
				"x": 3.4810902491,
				"y": 0.2615471464,
				"z": -0.5515237047,
				"element": "H" 
			},
			{
				"x": -1.4114451852,
				"y": 1.3125787941,
				"z": -0.2255711359,
				"element": "H" 
			},
			{
				"x": -3.6862951141,
				"y": -1.5899560701,
				"z": 1.6614275614,
				"element": "H" 
			},
			{
				"x": -1.7342144096,
				"y": -3.1709968061,
				"z": 1.5696770951,
				"element": "H" 
			}
		],
		 "valence_orbital": [ 
			{
				"type": "occ",
				"energy": -0.31804,
				"method": "rhf"
			},
			{
				"type": "occ",
				"energy": -0.30856,
				"method": "rhf"
			},
			{
				"type": "occ",
				"energy": -0.29018,
				"method": "rhf"
			},
			{
				"type": "occ",
				"energy": -0.28455,
				"method": "rhf"
			},
			{
				"type": "occ",
				"energy": -0.25458,
				"method": "rhf"
			},
			{
				"type": "unocc",
				"energy": -0.07382,
				"method": "rhf"
			},
			{
				"type": "unocc",
				"energy": -0.04802,
				"method": "rhf"
			},
			{
				"type": "unocc",
				"energy": 0.0375,
				"method": "rhf"
			},
			{
				"type": "unocc",
				"energy": 0.10844,
				"method": "rhf"
			},
			{
				"type": "unocc",
				"energy": 0.11435,
				"method": "rhf"
			}
		],
		"cosmo_sigma_profile": { 
			"-0.025": 0.0,
			"-0.024": 0.0,
			"-0.023": 0.0,
			"-0.022": 0.0,
			"-0.021": 0.0,
			"-0.02": 0.0,
			"-0.019": 0.0,
			"-0.018": 0.0,
			"-0.017": 0.0,
			"-0.016": 0.0,
			"-0.015": 0.0,
			"-0.014": 0.0,
			"-0.013": 0.0,
			"-0.012": 0.0,
			"-0.011": 0.0,
			"-0.01": 0.0,
			"-0.009": 1.07441519132,
			"-0.008": 5.75696433888,
			"-0.007": 7.65279154004,
			"-0.006": 11.0664094635,
			"-0.005": 11.5715714868,
			"-0.004": 17.5710871786,
			"-0.003": 19.3088627445,
			"-0.002": 15.7445753603,
			"-0.001": 12.6658087022,
			"0.0": 7.88831992099,
			"0.001": 6.20368444064,
			"0.002": 6.62449465768,
			"0.003": 4.71720912373,
			"0.004": 3.88198099551,
			"0.005": 4.87557979487,
			"0.006": 4.31209517701,
			"0.007": 3.63920712085,
			"0.008": 3.0538906882,
			"0.009": 4.37963380403,
			"0.01": 4.76855825849,
			"0.011": 5.26933773419,
			"0.012": 3.98684731969,
			"0.013": 1.30805451028,
			"0.014": 2.06384665492,
			"0.015": 1.14220569561,
			"0.016": 0.107673253223,
			"0.017": 0.0,
			"0.018": 0.0,
			"0.019": 0.0,
			"0.02": 0.0,
			"0.021": 0.0,
			"0.022": 0.0,
			"0.023": 0.0,
			"0.024": 0.0,
			"0.025": 0.0
		}
	}
}
