{
	 "smiles": "CC(=O)C1=C(Cl)C=C(N)C=C1", 
	 "Tm": 332.15, 
	 "num_atms": 19, 
	 "gaussian": { 
		 "optdone": 1, 
		 "sigma_profile": "yes", 
		 "theory": "DFT", 
		 "functional": "B3LYP", 
		 "basiset": "6-31G**", 
		 "properties": { 
			 "R2extent": 3201.6745, 
			 "electric_dipole_moment_norm": 4.70814618826, 
			 "electric_quadrupole_moment_norm": 16.6908970676, 
			 "total_energy": -899.844304864, 
			 "HOMO_LUMO_gap": 0.17663, 
			 "cosmo_polarized_energy": -12.68, 
			 "cosmo_cavitation_energy": 24.49, 
			 "cosmo_dispersion_energy": -18.36, 
			 "cosmo_repulsion_energy": 1.46, 
			 "cosmo_total_nonelectrostatic_energy": 7.6, 
			 "SMD_solvation_energy": 4.65 
		},
		"coords": [
			{
				"x": -0.5532054348,
				"y": -1.4652628608,
				"z": 2.6807045772,
				"element": "C" 
			},
			{
				"x": -0.5221803405,
				"y": -1.2426122332,
				"z": 1.1811266774,
				"element": "C" 
			},
			{
				"x": -1.5806088922,
				"y": -1.2483410371,
				"z": 0.5639067492,
				"element": "O" 
			},
			{
				"x": 0.7563289952,
				"y": -1.005963671,
				"z": 0.4220687912,
				"element": "C" 
			},
			{
				"x": 2.0893300507,
				"y": -0.9957245242,
				"z": 0.8802313207,
				"element": "C" 
			},
			{
				"x": 2.5423570213,
				"y": -1.2947523396,
				"z": 2.5620760114,
				"element": "Cl" 
			},
			{
				"x": 3.1655630798,
				"y": -0.7574035378,
				"z": 0.0306470705,
				"element": "C" 
			},
			{
				"x": 2.9607374286,
				"y": -0.5111738357,
				"z": -1.3367112418,
				"element": "C" 
			},
			{
				"x": 4.0252297477,
				"y": -0.2253664291,
				"z": -2.1687250052,
				"element": "N" 
			},
			{
				"x": 1.6382172213,
				"y": -0.5164418976,
				"z": -1.8222124144,
				"element": "C" 
			},
			{
				"x": 0.5888311547,
				"y": -0.7581948993,
				"z": -0.9590416852,
				"element": "C" 
			},
			{
				"x": -0.0951660189,
				"y": -0.6324917761,
				"z": 3.2215622716,
				"element": "H" 
			},
			{
				"x": -1.5992504052,
				"y": -1.567023362,
				"z": 2.9727085203,
				"element": "H" 
			},
			{
				"x": -0.0030193961,
				"y": -2.3677815862,
				"z": 2.9617467612,
				"element": "H" 
			},
			{
				"x": 4.1714065149,
				"y": -0.7600325783,
				"z": 0.4369837627,
				"element": "H" 
			},
			{
				"x": 3.8754978156,
				"y": -0.3411865416,
				"z": -3.159854407,
				"element": "H" 
			},
			{
				"x": 4.944008951,
				"y": -0.5040633578,
				"z": -1.8582934336,
				"element": "H" 
			},
			{
				"x": 1.4482647566,
				"y": -0.3266300233,
				"z": -2.8751840511,
				"element": "H" 
			},
			{
				"x": -0.4321422497,
				"y": -0.7678535091,
				"z": -1.3244402753,
				"element": "H" 
			}
		],
		 "valence_orbital": [ 
			{
				"type": "occ",
				"energy": -0.31136,
				"method": "rhf"
			},
			{
				"type": "occ",
				"energy": -0.30439,
				"method": "rhf"
			},
			{
				"type": "occ",
				"energy": -0.25371,
				"method": "rhf"
			},
			{
				"type": "occ",
				"energy": -0.24229,
				"method": "rhf"
			},
			{
				"type": "occ",
				"energy": -0.22145,
				"method": "rhf"
			},
			{
				"type": "unocc",
				"energy": -0.04482,
				"method": "rhf"
			},
			{
				"type": "unocc",
				"energy": -0.01324,
				"method": "rhf"
			},
			{
				"type": "unocc",
				"energy": 0.02486,
				"method": "rhf"
			},
			{
				"type": "unocc",
				"energy": 0.04486,
				"method": "rhf"
			},
			{
				"type": "unocc",
				"energy": 0.0668,
				"method": "rhf"
			}
		],
		"cosmo_sigma_profile": { 
			"-0.025": 0.0,
			"-0.024": 0.0,
			"-0.023": 0.0,
			"-0.022": 0.0,
			"-0.021": 0.0,
			"-0.02": 0.0,
			"-0.019": 0.0,
			"-0.018": 0.0,
			"-0.017": 0.0,
			"-0.016": 0.0,
			"-0.015": 0.0,
			"-0.014": 1.05580682944,
			"-0.013": 2.72485707802,
			"-0.012": 3.36156991676,
			"-0.011": 3.17546596425,
			"-0.01": 3.44967343437,
			"-0.009": 2.59431565859,
			"-0.008": 3.323451475,
			"-0.007": 4.04245197986,
			"-0.006": 4.27262147599,
			"-0.005": 7.58272757419,
			"-0.004": 11.0331770307,
			"-0.003": 11.4695126914,
			"-0.002": 13.451846031,
			"-0.001": 14.1057608535,
			"0.0": 15.7010382901,
			"0.001": 14.3243210519,
			"0.002": 16.5765584459,
			"0.003": 20.1453388034,
			"0.004": 16.634349285,
			"0.005": 5.9665619214,
			"0.006": 2.18014871212,
			"0.007": 2.81293956968,
			"0.008": 2.34371982105,
			"0.009": 2.18241795064,
			"0.01": 2.57836567912,
			"0.011": 3.05893279697,
			"0.012": 3.79329472089,
			"0.013": 2.51142534745,
			"0.014": 0.471302466308,
			"0.015": 0.0,
			"0.016": 0.0,
			"0.017": 0.0,
			"0.018": 0.0,
			"0.019": 0.0,
			"0.02": 0.0,
			"0.021": 0.0,
			"0.022": 0.0,
			"0.023": 0.0,
			"0.024": 0.0,
			"0.025": 0.0
		}
	}
}
