{
	 "smiles": "ClCCCCCCCCCCCl", 
	 "Tm": 288.75, 
	 "num_atms": 32, 
	 "gaussian": { 
		 "optdone": 1, 
		 "sigma_profile": "yes", 
		 "theory": "DFT", 
		 "functional": "B3LYP", 
		 "basiset": "6-31G**", 
		 "properties": { 
			 "R2extent": 4774.1026, 
			 "electric_dipole_moment_norm": 3.98995777672, 
			 "electric_quadrupole_moment_norm": 10.5665529493, 
			 "total_energy": -1313.53192833, 
			 "HOMO_LUMO_gap": 0.30625, 
			 "cosmo_polarized_energy": -7.98, 
			 "cosmo_cavitation_energy": 36.06, 
			 "cosmo_dispersion_energy": -24.3, 
			 "cosmo_repulsion_energy": 2.01, 
			 "cosmo_total_nonelectrostatic_energy": 13.77, 
			 "SMD_solvation_energy": 4.07 
		},
		"coords": [
			{
				"x": -0.7826503737,
				"y": 0.3421267432,
				"z": 3.8893826937,
				"element": "Cl" 
			},
			{
				"x": 0.0458407718,
				"y": 0.7095290701,
				"z": 2.3097611124,
				"element": "C" 
			},
			{
				"x": 1.5608740007,
				"y": 0.5875183837,
				"z": 2.4300132891,
				"element": "C" 
			},
			{
				"x": 2.3148475908,
				"y": 0.9150636437,
				"z": 1.1194003796,
				"element": "C" 
			},
			{
				"x": 2.5803956674,
				"y": -0.2740860854,
				"z": 0.175491263,
				"element": "C" 
			},
			{
				"x": 1.3729466197,
				"y": -0.916481775,
				"z": -0.5305836603,
				"element": "C" 
			},
			{
				"x": 0.6580839606,
				"y": 0.0025015625,
				"z": -1.5339420974,
				"element": "C" 
			},
			{
				"x": -0.441910177,
				"y": -0.7034265505,
				"z": -2.3514597376,
				"element": "C" 
			},
			{
				"x": -1.745742038,
				"y": -1.0393851537,
				"z": -1.5891490752,
				"element": "C" 
			},
			{
				"x": -2.888466609,
				"y": -0.016670428,
				"z": -1.750840418,
				"element": "C" 
			},
			{
				"x": -2.5780773516,
				"y": 1.3557473175,
				"z": -1.1670993657,
				"element": "C" 
			},
			{
				"x": -3.9908037553,
				"y": 2.4908305628,
				"z": -1.3486722465,
				"element": "Cl" 
			},
			{
				"x": -0.2523328664,
				"y": 1.7256539773,
				"z": 2.0427149056,
				"element": "H" 
			},
			{
				"x": -0.3771462723,
				"y": 0.0145316725,
				"z": 1.5845408723,
				"element": "H" 
			},
			{
				"x": 1.8187977943,
				"y": -0.4223754511,
				"z": 2.7700099905,
				"element": "H" 
			},
			{
				"x": 1.8874402734,
				"y": 1.2725039643,
				"z": 3.219709271,
				"element": "H" 
			},
			{
				"x": 3.2908635701,
				"y": 1.3312247133,
				"z": 1.3952926963,
				"element": "H" 
			},
			{
				"x": 1.7975174557,
				"y": 1.7224775599,
				"z": 0.5838217607,
				"element": "H" 
			},
			{
				"x": 3.287891855,
				"y": 0.0592398185,
				"z": -0.596124984,
				"element": "H" 
			},
			{
				"x": 3.1052380135,
				"y": -1.0514909578,
				"z": 0.7466481296,
				"element": "H" 
			},
			{
				"x": 1.7333061161,
				"y": -1.8008413023,
				"z": -1.0735911272,
				"element": "H" 
			},
			{
				"x": 0.6623084384,
				"y": -1.302098976,
				"z": 0.2117264759,
				"element": "H" 
			},
			{
				"x": 1.4090855987,
				"y": 0.4005853852,
				"z": -2.2298431864,
				"element": "H" 
			},
			{
				"x": 0.2406674229,
				"y": 0.8752623018,
				"z": -1.0155345459,
				"element": "H" 
			},
			{
				"x": -0.0147586162,
				"y": -1.6298212388,
				"z": -2.7562233623,
				"element": "H" 
			},
			{
				"x": -0.6921697816,
				"y": -0.0893406204,
				"z": -3.2267895433,
				"element": "H" 
			},
			{
				"x": -1.5348348556,
				"y": -1.1891203698,
				"z": -0.5218066938,
				"element": "H" 
			},
			{
				"x": -2.1324518616,
				"y": -2.0007687258,
				"z": -1.9462358954,
				"element": "H" 
			},
			{
				"x": -3.1286481838,
				"y": 0.0967114753,
				"z": -2.8147249978,
				"element": "H" 
			},
			{
				"x": -3.7904844699,
				"y": -0.4049572078,
				"z": -1.2650337687,
				"element": "H" 
			},
			{
				"x": -1.742381724,
				"y": 1.8431807687,
				"z": -1.6703129933,
				"element": "H" 
			},
			{
				"x": -2.3689462131,
				"y": 1.3041759221,
				"z": -0.096445141,
				"element": "H" 
			}
		],
		 "valence_orbital": [ 
			{
				"type": "occ",
				"energy": -0.31872,
				"method": "rhf"
			},
			{
				"type": "occ",
				"energy": -0.29329,
				"method": "rhf"
			},
			{
				"type": "occ",
				"energy": -0.29266,
				"method": "rhf"
			},
			{
				"type": "occ",
				"energy": -0.29168,
				"method": "rhf"
			},
			{
				"type": "occ",
				"energy": -0.29062,
				"method": "rhf"
			},
			{
				"type": "unocc",
				"energy": 0.01563,
				"method": "rhf"
			},
			{
				"type": "unocc",
				"energy": 0.02556,
				"method": "rhf"
			},
			{
				"type": "unocc",
				"energy": 0.06453,
				"method": "rhf"
			},
			{
				"type": "unocc",
				"energy": 0.08286,
				"method": "rhf"
			},
			{
				"type": "unocc",
				"energy": 0.08604,
				"method": "rhf"
			}
		],
		"cosmo_sigma_profile": { 
			"-0.025": 0.0,
			"-0.024": 0.0,
			"-0.023": 0.0,
			"-0.022": 0.0,
			"-0.021": 0.0,
			"-0.02": 0.0,
			"-0.019": 0.0,
			"-0.018": 0.0,
			"-0.017": 0.0,
			"-0.016": 0.0,
			"-0.015": 0.0,
			"-0.014": 0.0,
			"-0.013": 0.0,
			"-0.012": 0.0,
			"-0.011": 0.0,
			"-0.01": 0.0,
			"-0.009": 0.0,
			"-0.008": 0.0,
			"-0.007": 0.237583601975,
			"-0.006": 3.81937846281,
			"-0.005": 12.281699259,
			"-0.004": 21.0181010767,
			"-0.003": 33.1115031544,
			"-0.002": 39.2197915292,
			"-0.001": 39.2471169467,
			"0.0": 38.168095499,
			"0.001": 25.4462656094,
			"0.002": 10.5034563694,
			"0.003": 5.88477212204,
			"0.004": 8.88728686029,
			"0.005": 10.0481300765,
			"0.006": 13.3559042387,
			"0.007": 19.8504358832,
			"0.008": 1.9555732217,
			"0.009": 0.0,
			"0.01": 0.0,
			"0.011": 0.0,
			"0.012": 0.0,
			"0.013": 0.0,
			"0.014": 0.0,
			"0.015": 0.0,
			"0.016": 0.0,
			"0.017": 0.0,
			"0.018": 0.0,
			"0.019": 0.0,
			"0.02": 0.0,
			"0.021": 0.0,
			"0.022": 0.0,
			"0.023": 0.0,
			"0.024": 0.0,
			"0.025": 0.0
		}
	}
}
