{
	 "smiles": "COC1=C(C=C(Cl)C=C1)C1=NNC(N)=C1", 
	 "Tm": 400.15, 
	 "num_atms": 25, 
	 "gaussian": { 
		 "optdone": 1, 
		 "sigma_profile": "yes", 
		 "theory": "DFT", 
		 "functional": "B3LYP", 
		 "basiset": "6-31G**", 
		 "properties": { 
			 "R2extent": 4626.7834, 
			 "electric_dipole_moment_norm": 5.61536803959, 
			 "electric_quadrupole_moment_norm": 21.4107948451, 
			 "total_energy": -1086.73105288, 
			 "HOMO_LUMO_gap": 0.17946, 
			 "cosmo_polarized_energy": -17.38, 
			 "cosmo_cavitation_energy": 30.99, 
			 "cosmo_dispersion_energy": -23.14, 
			 "cosmo_repulsion_energy": 1.82, 
			 "cosmo_total_nonelectrostatic_energy": 9.67, 
			 "SMD_solvation_energy": 4.9 
		},
		"coords": [
			{
				"x": 3.0908038431,
				"y": 2.9363264616,
				"z": 0.2682795128,
				"element": "C" 
			},
			{
				"x": 1.9492142439,
				"y": 2.0967026621,
				"z": 0.2186098236,
				"element": "O" 
			},
			{
				"x": 2.0543462358,
				"y": 0.8787133217,
				"z": -0.3950655162,
				"element": "C" 
			},
			{
				"x": 0.901685404,
				"y": 0.0564409658,
				"z": -0.3961483781,
				"element": "C" 
			},
			{
				"x": 0.9899248914,
				"y": -1.1984426638,
				"z": -1.0180647716,
				"element": "C" 
			},
			{
				"x": 2.1712190845,
				"y": -1.6229309705,
				"z": -1.6131833133,
				"element": "C" 
			},
			{
				"x": 2.2350441223,
				"y": -3.2070814833,
				"z": -2.3833626798,
				"element": "Cl" 
			},
			{
				"x": 3.3030796209,
				"y": -0.8145003102,
				"z": -1.6131068433,
				"element": "C" 
			},
			{
				"x": 3.2364641087,
				"y": 0.4366226967,
				"z": -1.0011231377,
				"element": "C" 
			},
			{
				"x": -0.3809396806,
				"y": 0.4419725125,
				"z": 0.2250223746,
				"element": "C" 
			},
			{
				"x": -1.3673435236,
				"y": -0.463443585,
				"z": 0.2704011888,
				"element": "N" 
			},
			{
				"x": -2.3963766423,
				"y": 0.18248979,
				"z": 0.8657868912,
				"element": "N" 
			},
			{
				"x": -2.1028426209,
				"y": 1.4699367849,
				"z": 1.1949857431,
				"element": "C" 
			},
			{
				"x": -3.0314415548,
				"y": 2.2722241715,
				"z": 1.8703537626,
				"element": "N" 
			},
			{
				"x": -0.796677531,
				"y": 1.6803635182,
				"z": 0.7930542324,
				"element": "C" 
			},
			{
				"x": 3.4283808035,
				"y": 3.2238673332,
				"z": -0.7357511585,
				"element": "H" 
			},
			{
				"x": 3.9215727045,
				"y": 2.4599000166,
				"z": 0.8041127052,
				"element": "H" 
			},
			{
				"x": 2.7819777716,
				"y": 3.831235794,
				"z": 0.8111031857,
				"element": "H" 
			},
			{
				"x": 0.1116879339,
				"y": -1.8319322474,
				"z": -1.0221446843,
				"element": "H" 
			},
			{
				"x": 4.2217010704,
				"y": -1.1494693482,
				"z": -2.0814391791,
				"element": "H" 
			},
			{
				"x": 4.1195127281,
				"y": 1.0632933022,
				"z": -1.0023412563,
				"element": "H" 
			},
			{
				"x": -3.2350026214,
				"y": -0.3281368324,
				"z": 1.0936215003,
				"element": "H" 
			},
			{
				"x": -3.8993212391,
				"y": 2.3975650567,
				"z": 1.3582161872,
				"element": "H" 
			},
			{
				"x": -2.6426673485,
				"y": 3.1809562454,
				"z": 2.0896197983,
				"element": "H" 
			},
			{
				"x": -0.2287018045,
				"y": 2.5903268076,
				"z": 0.8740640126,
				"element": "H" 
			}
		],
		 "valence_orbital": [ 
			{
				"type": "occ",
				"energy": -0.28162,
				"method": "rhf"
			},
			{
				"type": "occ",
				"energy": -0.27652,
				"method": "rhf"
			},
			{
				"type": "occ",
				"energy": -0.23081,
				"method": "rhf"
			},
			{
				"type": "occ",
				"energy": -0.21488,
				"method": "rhf"
			},
			{
				"type": "occ",
				"energy": -0.20027,
				"method": "rhf"
			},
			{
				"type": "unocc",
				"energy": -0.02081,
				"method": "rhf"
			},
			{
				"type": "unocc",
				"energy": 0.01129,
				"method": "rhf"
			},
			{
				"type": "unocc",
				"energy": 0.04344,
				"method": "rhf"
			},
			{
				"type": "unocc",
				"energy": 0.04412,
				"method": "rhf"
			},
			{
				"type": "unocc",
				"energy": 0.06735,
				"method": "rhf"
			}
		],
		"cosmo_sigma_profile": { 
			"-0.025": 0.0,
			"-0.024": 0.0,
			"-0.023": 0.0,
			"-0.022": 0.0,
			"-0.021": 0.0,
			"-0.02": 0.0,
			"-0.019": 0.0,
			"-0.018": 0.0,
			"-0.017": 0.0480882433796,
			"-0.016": 1.13387106116,
			"-0.015": 1.32792184578,
			"-0.014": 0.970565641401,
			"-0.013": 3.01405085911,
			"-0.012": 4.51384681955,
			"-0.011": 3.52768949287,
			"-0.01": 4.54006074363,
			"-0.009": 3.57850438768,
			"-0.008": 2.70299353137,
			"-0.007": 5.75278241403,
			"-0.006": 12.4341135932,
			"-0.005": 14.7089513847,
			"-0.004": 14.4829709368,
			"-0.003": 12.7731058597,
			"-0.002": 9.88436599104,
			"-0.001": 9.70543634866,
			"0.0": 11.5308689877,
			"0.001": 12.2100426231,
			"0.002": 16.271210459,
			"0.003": 25.8374638901,
			"0.004": 26.2029600273,
			"0.005": 20.9701946877,
			"0.006": 11.1613300857,
			"0.007": 5.21068258384,
			"0.008": 3.61001733262,
			"0.009": 1.9291483431,
			"0.01": 1.75709786086,
			"0.011": 2.30358521151,
			"0.012": 1.79098943704,
			"0.013": 1.95963666298,
			"0.014": 1.19705597821,
			"0.015": 0.421992250291,
			"0.016": 0.0,
			"0.017": 0.0,
			"0.018": 0.0,
			"0.019": 0.0,
			"0.02": 0.0,
			"0.021": 0.0,
			"0.022": 0.0,
			"0.023": 0.0,
			"0.024": 0.0,
			"0.025": 0.0
		}
	}
}
