{
	 "smiles": "CC1(C)C(CCC2=CC=CC=C2)CCC1(C)C(O)=O", 
	 "Tm": 391.15, 
	 "num_atms": 43, 
	 "gaussian": { 
		 "optdone": 1, 
		 "sigma_profile": "yes", 
		 "theory": "DFT", 
		 "functional": "B3LYP", 
		 "basiset": "6-31G**", 
		 "properties": { 
			 "R2extent": 6095.5892, 
			 "electric_dipole_moment_norm": 4.12186787027, 
			 "electric_quadrupole_moment_norm": 11.9043507324, 
			 "total_energy": -812.733494588, 
			 "HOMO_LUMO_gap": 0.23897, 
			 "cosmo_polarized_energy": -13.97, 
			 "cosmo_cavitation_energy": 40.58, 
			 "cosmo_dispersion_energy": -27.93, 
			 "cosmo_repulsion_energy": 2.09, 
			 "cosmo_total_nonelectrostatic_energy": 14.74, 
			 "SMD_solvation_energy": 6.83 
		},
		"coords": [
			{
				"x": 1.3262415338,
				"y": -0.8091149041,
				"z": -3.0838738813,
				"element": "C" 
			},
			{
				"x": 0.9882538134,
				"y": -0.3147803191,
				"z": -1.6503079225,
				"element": "C" 
			},
			{
				"x": 1.9569864572,
				"y": -1.0575420183,
				"z": -0.7123040742,
				"element": "C" 
			},
			{
				"x": -0.5161064896,
				"y": -0.6903372892,
				"z": -1.3993992245,
				"element": "C" 
			},
			{
				"x": -0.9935000989,
				"y": -0.9664872167,
				"z": 0.0470711172,
				"element": "C" 
			},
			{
				"x": -1.0850142836,
				"y": 0.2036294185,
				"z": 1.0505111925,
				"element": "C" 
			},
			{
				"x": -1.6710745989,
				"y": -0.2392144471,
				"z": 2.3760685997,
				"element": "C" 
			},
			{
				"x": -0.8381378901,
				"y": -0.6123380267,
				"z": 3.4395449361,
				"element": "C" 
			},
			{
				"x": -1.3747194089,
				"y": -1.0545052432,
				"z": 4.6500494584,
				"element": "C" 
			},
			{
				"x": -2.7583847571,
				"y": -1.1301524213,
				"z": 4.8180363482,
				"element": "C" 
			},
			{
				"x": -3.6002488245,
				"y": -0.7587836297,
				"z": 3.767634955,
				"element": "C" 
			},
			{
				"x": -3.0588166469,
				"y": -0.317883406,
				"z": 2.559625821,
				"element": "C" 
			},
			{
				"x": -1.2938443782,
				"y": 0.4331499627,
				"z": -2.1163593353,
				"element": "C" 
			},
			{
				"x": -0.456220908,
				"y": 1.716461569,
				"z": -1.9332895747,
				"element": "C" 
			},
			{
				"x": 1.0250141258,
				"y": 1.2863316413,
				"z": -1.6151898321,
				"element": "C" 
			},
			{
				"x": 2.0138583643,
				"y": 1.9001711257,
				"z": -2.6480215033,
				"element": "C" 
			},
			{
				"x": 1.5048703158,
				"y": 1.9189771481,
				"z": -0.2850793312,
				"element": "C" 
			},
			{
				"x": 1.1419473196,
				"y": 3.2224496777,
				"z": -0.0962903508,
				"element": "O" 
			},
			{
				"x": 2.2301279949,
				"y": 1.4134356366,
				"z": 0.5364398982,
				"element": "O" 
			},
			{
				"x": 2.3670898498,
				"y": -0.6057852223,
				"z": -3.3496042677,
				"element": "H" 
			},
			{
				"x": 1.1879131248,
				"y": -1.8937699056,
				"z": -3.1292893168,
				"element": "H" 
			},
			{
				"x": 0.6904535547,
				"y": -0.3665710019,
				"z": -3.8567271874,
				"element": "H" 
			},
			{
				"x": 1.7770226787,
				"y": -0.863732451,
				"z": 0.3420138137,
				"element": "H" 
			},
			{
				"x": 1.8609846116,
				"y": -2.135213203,
				"z": -0.8916797872,
				"element": "H" 
			},
			{
				"x": 2.9954266958,
				"y": -0.7794056936,
				"z": -0.9143348486,
				"element": "H" 
			},
			{
				"x": -0.6989114977,
				"y": -1.637890109,
				"z": -1.921679552,
				"element": "H" 
			},
			{
				"x": -1.9966412314,
				"y": -1.4057672941,
				"z": -0.036814084,
				"element": "H" 
			},
			{
				"x": -0.3685648421,
				"y": -1.7523515539,
				"z": 0.4863403881,
				"element": "H" 
			},
			{
				"x": -0.0948789237,
				"y": 0.6309006934,
				"z": 1.2272987895,
				"element": "H" 
			},
			{
				"x": -1.7135923805,
				"y": 0.9996961617,
				"z": 0.6324431416,
				"element": "H" 
			},
			{
				"x": 0.2405985551,
				"y": -0.5472702306,
				"z": 3.3185291484,
				"element": "H" 
			},
			{
				"x": -0.7111810247,
				"y": -1.3347151431,
				"z": 5.463606464,
				"element": "H" 
			},
			{
				"x": -3.1775374722,
				"y": -1.4705391692,
				"z": 5.7606540062,
				"element": "H" 
			},
			{
				"x": -4.6788476624,
				"y": -0.8076755997,
				"z": 3.8906665252,
				"element": "H" 
			},
			{
				"x": -3.7217245341,
				"y": -0.0250652982,
				"z": 1.7479964815,
				"element": "H" 
			},
			{
				"x": -1.395564693,
				"y": 0.1986079766,
				"z": -3.1802306351,
				"element": "H" 
			},
			{
				"x": -2.3104784096,
				"y": 0.5527540025,
				"z": -1.7276091868,
				"element": "H" 
			},
			{
				"x": -0.8789261903,
				"y": 2.2937261155,
				"z": -1.1048569345,
				"element": "H" 
			},
			{
				"x": -0.5013987091,
				"y": 2.357074722,
				"z": -2.8211643931,
				"element": "H" 
			},
			{
				"x": 3.0329174392,
				"y": 1.5374284332,
				"z": -2.4843975758,
				"element": "H" 
			},
			{
				"x": 2.039348507,
				"y": 2.9910657222,
				"z": -2.5599346179,
				"element": "H" 
			},
			{
				"x": 1.7189567876,
				"y": 1.6606832584,
				"z": -3.6710614869,
				"element": "H" 
			},
			{
				"x": 0.5710041267,
				"y": 3.5277475316,
				"z": -0.8143321807,
				"element": "H" 
			}
		],
		 "valence_orbital": [ 
			{
				"type": "occ",
				"energy": -0.30302,
				"method": "rhf"
			},
			{
				"type": "occ",
				"energy": -0.29934,
				"method": "rhf"
			},
			{
				"type": "occ",
				"energy": -0.25916,
				"method": "rhf"
			},
			{
				"type": "occ",
				"energy": -0.24168,
				"method": "rhf"
			},
			{
				"type": "occ",
				"energy": -0.23334,
				"method": "rhf"
			},
			{
				"type": "unocc",
				"energy": 0.00563,
				"method": "rhf"
			},
			{
				"type": "unocc",
				"energy": 0.00694,
				"method": "rhf"
			},
			{
				"type": "unocc",
				"energy": 0.01035,
				"method": "rhf"
			},
			{
				"type": "unocc",
				"energy": 0.05359,
				"method": "rhf"
			},
			{
				"type": "unocc",
				"energy": 0.07163,
				"method": "rhf"
			}
		],
		"cosmo_sigma_profile": { 
			"-0.025": 0.0,
			"-0.024": 0.0,
			"-0.023": 0.0,
			"-0.022": 0.0,
			"-0.021": 0.0,
			"-0.02": 0.0,
			"-0.019": 0.0,
			"-0.018": 0.0,
			"-0.017": 0.502974774708,
			"-0.016": 0.617588600172,
			"-0.015": 0.858700352242,
			"-0.014": 1.10692039658,
			"-0.013": 1.15916051321,
			"-0.012": 0.704991100687,
			"-0.011": 0.91465820667,
			"-0.01": 1.09961990083,
			"-0.009": 0.518567500677,
			"-0.008": 1.05203091547,
			"-0.007": 1.795084382,
			"-0.006": 2.93305764407,
			"-0.005": 11.4639844775,
			"-0.004": 20.757258311,
			"-0.003": 37.6256566464,
			"-0.002": 44.6405663425,
			"-0.001": 41.8679194855,
			"0.0": 32.0649952709,
			"0.001": 26.6983986554,
			"0.002": 17.7572129326,
			"0.003": 10.1924700579,
			"0.004": 11.0462956016,
			"0.005": 9.86827048003,
			"0.006": 10.2388391673,
			"0.007": 6.94680058867,
			"0.008": 3.180021686,
			"0.009": 2.72402230463,
			"0.01": 3.14209613994,
			"0.011": 4.73987254116,
			"0.012": 4.62648068666,
			"0.013": 2.08771607418,
			"0.014": 0.429593126857,
			"0.015": 0.0,
			"0.016": 0.0,
			"0.017": 0.0,
			"0.018": 0.0,
			"0.019": 0.0,
			"0.02": 0.0,
			"0.021": 0.0,
			"0.022": 0.0,
			"0.023": 0.0,
			"0.024": 0.0,
			"0.025": 0.0
		}
	}
}
