{
	 "smiles": "CC(=O)NC1=CC=C(C(F)=C1)[N+]([O-])=O", 
	 "Tm": 449.15, 
	 "num_atms": 21, 
	 "gaussian": { 
		 "optdone": 1, 
		 "sigma_profile": "yes", 
		 "theory": "DFT", 
		 "functional": "B3LYP", 
		 "basiset": "6-31G**", 
		 "properties": { 
			 "R2extent": 4178.52, 
			 "electric_dipole_moment_norm": 3.25505147271, 
			 "electric_quadrupole_moment_norm": 33.6109137263, 
			 "total_energy": -743.984127658, 
			 "HOMO_LUMO_gap": 0.16437, 
			 "cosmo_polarized_energy": -17.26, 
			 "cosmo_cavitation_energy": 26.93, 
			 "cosmo_dispersion_energy": -19.59, 
			 "cosmo_repulsion_energy": 1.51, 
			 "cosmo_total_nonelectrostatic_energy": 8.85, 
			 "SMD_solvation_energy": 8.21 
		},
		"coords": [
			{
				"x": -0.0910337504,
				"y": 2.5382095161,
				"z": 0.7245138074,
				"element": "C" 
			},
			{
				"x": -1.354244409,
				"y": 2.6456091952,
				"z": -0.1005198107,
				"element": "C" 
			},
			{
				"x": -1.9809798031,
				"y": 3.6862943359,
				"z": -0.2003497629,
				"element": "O" 
			},
			{
				"x": -1.8239654405,
				"y": 1.5302915358,
				"z": -0.8017877847,
				"element": "N" 
			},
			{
				"x": -1.3974767505,
				"y": 0.2102482996,
				"z": -0.9436991587,
				"element": "C" 
			},
			{
				"x": -1.8702218237,
				"y": -0.5050393571,
				"z": -2.0665538211,
				"element": "C" 
			},
			{
				"x": -1.5096221841,
				"y": -1.8237574099,
				"z": -2.2655744465,
				"element": "C" 
			},
			{
				"x": -0.6639390458,
				"y": -2.4821530442,
				"z": -1.3650338739,
				"element": "C" 
			},
			{
				"x": -0.2042744089,
				"y": -1.7780272744,
				"z": -0.2434589794,
				"element": "C" 
			},
			{
				"x": 0.5776073436,
				"y": -2.3417368047,
				"z": 0.677192704,
				"element": "F" 
			},
			{
				"x": -0.5715402242,
				"y": -0.4550798285,
				"z": -0.0260301377,
				"element": "C" 
			},
			{
				"x": -0.3012829753,
				"y": -3.8705712671,
				"z": -1.6375702751,
				"element": "N" 
			},
			{
				"x": -0.8292599385,
				"y": -4.4055244552,
				"z": -2.6157727493,
				"element": "O" 
			},
			{
				"x": 0.5031496686,
				"y": -4.4198342558,
				"z": -0.8884872177,
				"element": "O" 
			},
			{
				"x": 0.2417506515,
				"y": 3.554327712,
				"z": 0.9354038087,
				"element": "H" 
			},
			{
				"x": 0.7000424889,
				"y": 1.9873208,
				"z": 0.20956785,
				"element": "H" 
			},
			{
				"x": -0.2934718104,
				"y": 2.0402384181,
				"z": 1.6788517647,
				"element": "H" 
			},
			{
				"x": -2.611790973,
				"y": 1.7970661809,
				"z": -1.381241266,
				"element": "H" 
			},
			{
				"x": -2.5130085425,
				"y": -0.0078645668,
				"z": -2.7864243516,
				"element": "H" 
			},
			{
				"x": -1.861599434,
				"y": -2.3795703071,
				"z": -3.1255656686,
				"element": "H" 
			},
			{
				"x": -0.2164386387,
				"y": 0.0082525773,
				"z": 0.8821393689,
				"element": "H" 
			}
		],
		 "valence_orbital": [ 
			{
				"type": "occ",
				"energy": -0.30803,
				"method": "rhf"
			},
			{
				"type": "occ",
				"energy": -0.29037,
				"method": "rhf"
			},
			{
				"type": "occ",
				"energy": -0.28566,
				"method": "rhf"
			},
			{
				"type": "occ",
				"energy": -0.2813,
				"method": "rhf"
			},
			{
				"type": "occ",
				"energy": -0.25706,
				"method": "rhf"
			},
			{
				"type": "unocc",
				"energy": -0.09269,
				"method": "rhf"
			},
			{
				"type": "unocc",
				"energy": -0.0381,
				"method": "rhf"
			},
			{
				"type": "unocc",
				"energy": -0.02434,
				"method": "rhf"
			},
			{
				"type": "unocc",
				"energy": 0.0172,
				"method": "rhf"
			},
			{
				"type": "unocc",
				"energy": 0.05402,
				"method": "rhf"
			}
		],
		"cosmo_sigma_profile": { 
			"-0.025": 0.0,
			"-0.024": 0.0,
			"-0.023": 0.0,
			"-0.022": 0.0,
			"-0.021": 0.0,
			"-0.02": 0.0,
			"-0.019": 0.0,
			"-0.018": 0.0,
			"-0.017": 0.0,
			"-0.016": 0.0703067071739,
			"-0.015": 1.28071325547,
			"-0.014": 1.03440570269,
			"-0.013": 1.68332256045,
			"-0.012": 1.14845003908,
			"-0.011": 0.691157582094,
			"-0.01": 2.70574126768,
			"-0.009": 4.21593605994,
			"-0.008": 5.82194315054,
			"-0.007": 7.81757930475,
			"-0.006": 11.6290314686,
			"-0.005": 12.60629848,
			"-0.004": 12.6101154575,
			"-0.003": 14.0843241151,
			"-0.002": 19.1775523485,
			"-0.001": 19.0555621953,
			"0.0": 16.3295013187,
			"0.001": 10.381406099,
			"0.002": 6.31755030177,
			"0.003": 9.5025623269,
			"0.004": 5.27259570576,
			"0.005": 4.32377224804,
			"0.006": 5.15381271893,
			"0.007": 7.43491048243,
			"0.008": 12.2072026168,
			"0.009": 7.11839028863,
			"0.01": 4.66889057828,
			"0.011": 3.05233340826,
			"0.012": 5.16186390201,
			"0.013": 3.00951856971,
			"0.014": 0.326764989886,
			"0.015": 0.0,
			"0.016": 0.0,
			"0.017": 0.0,
			"0.018": 0.0,
			"0.019": 0.0,
			"0.02": 0.0,
			"0.021": 0.0,
			"0.022": 0.0,
			"0.023": 0.0,
			"0.024": 0.0,
			"0.025": 0.0
		}
	}
}
