{
	 "smiles": "ClC(=O)OCC1=CC=CC=C1", 
	 "Tm": 253.15, 
	 "num_atms": 18, 
	 "gaussian": { 
		 "optdone": 1, 
		 "sigma_profile": "yes", 
		 "theory": "DFT", 
		 "functional": "B3LYP", 
		 "basiset": "6-31G**", 
		 "properties": { 
			 "R2extent": 6082.2693, 
			 "electric_dipole_moment_norm": 3.25874779632, 
			 "electric_quadrupole_moment_norm": 16.9020011951, 
			 "total_energy": -919.715383118, 
			 "HOMO_LUMO_gap": 0.23404, 
			 "cosmo_polarized_energy": -6.72, 
			 "cosmo_cavitation_energy": 24.62, 
			 "cosmo_dispersion_energy": -17.99, 
			 "cosmo_repulsion_energy": 1.47, 
			 "cosmo_total_nonelectrostatic_energy": 8.1, 
			 "SMD_solvation_energy": 5.35 
		},
		"coords": [
			{
				"x": -4.8681089632,
				"y": 3.3731142562,
				"z": -0.3464532033,
				"element": "Cl" 
			},
			{
				"x": -3.3739579435,
				"y": 2.4403378604,
				"z": -0.068189646,
				"element": "C" 
			},
			{
				"x": -2.3114971517,
				"y": 2.9614816249,
				"z": 0.1109125932,
				"element": "O" 
			},
			{
				"x": -3.670376642,
				"y": 1.1491298885,
				"z": -0.11255286,
				"element": "O" 
			},
			{
				"x": -2.5435543331,
				"y": 0.2267098263,
				"z": 0.1190087265,
				"element": "C" 
			},
			{
				"x": -2.3570064975,
				"y": -0.0679611051,
				"z": 1.5819903154,
				"element": "C" 
			},
			{
				"x": -3.0865013552,
				"y": -1.0983633642,
				"z": 2.1897933602,
				"element": "C" 
			},
			{
				"x": -2.9279474222,
				"y": -1.3716266006,
				"z": 3.5479520531,
				"element": "C" 
			},
			{
				"x": -2.0354397155,
				"y": -0.6157473257,
				"z": 4.3113277592,
				"element": "C" 
			},
			{
				"x": -1.304342315,
				"y": 0.412765139,
				"z": 3.7133527369,
				"element": "C" 
			},
			{
				"x": -1.463890179,
				"y": 0.6868849164,
				"z": 2.3548733098,
				"element": "C" 
			},
			{
				"x": -1.6505605143,
				"y": 0.6651766823,
				"z": -0.3286843113,
				"element": "H" 
			},
			{
				"x": -2.8398445563,
				"y": -0.6636135691,
				"z": -0.437034373,
				"element": "H" 
			},
			{
				"x": -3.7798155086,
				"y": -1.687974996,
				"z": 1.5951107949,
				"element": "H" 
			},
			{
				"x": -3.4963995331,
				"y": -2.1740155245,
				"z": 4.0089534034,
				"element": "H" 
			},
			{
				"x": -1.9085249029,
				"y": -0.8295670163,
				"z": 5.3686965616,
				"element": "H" 
			},
			{
				"x": -0.6086854439,
				"y": 1.0012879172,
				"z": 4.3042618634,
				"element": "H" 
			},
			{
				"x": -0.904947023,
				"y": 1.4926813903,
				"z": 1.889180916,
				"element": "H" 
			}
		],
		 "valence_orbital": [ 
			{
				"type": "occ",
				"energy": -0.32598,
				"method": "rhf"
			},
			{
				"type": "occ",
				"energy": -0.32491,
				"method": "rhf"
			},
			{
				"type": "occ",
				"energy": -0.30051,
				"method": "rhf"
			},
			{
				"type": "occ",
				"energy": -0.26191,
				"method": "rhf"
			},
			{
				"type": "occ",
				"energy": -0.26146,
				"method": "rhf"
			},
			{
				"type": "unocc",
				"energy": -0.02742,
				"method": "rhf"
			},
			{
				"type": "unocc",
				"energy": -0.01286,
				"method": "rhf"
			},
			{
				"type": "unocc",
				"energy": -0.00351,
				"method": "rhf"
			},
			{
				"type": "unocc",
				"energy": 0.02109,
				"method": "rhf"
			},
			{
				"type": "unocc",
				"energy": 0.08582,
				"method": "rhf"
			}
		],
		"cosmo_sigma_profile": { 
			"-0.025": 0.0,
			"-0.024": 0.0,
			"-0.023": 0.0,
			"-0.022": 0.0,
			"-0.021": 0.0,
			"-0.02": 0.0,
			"-0.019": 0.0,
			"-0.018": 0.0,
			"-0.017": 0.0,
			"-0.016": 0.0,
			"-0.015": 0.0,
			"-0.014": 0.0,
			"-0.013": 0.0,
			"-0.012": 0.0,
			"-0.011": 0.0,
			"-0.01": 0.0,
			"-0.009": 0.0,
			"-0.008": 1.91172286247,
			"-0.007": 5.72060746611,
			"-0.006": 12.6193452737,
			"-0.005": 16.7694550303,
			"-0.004": 16.7690064229,
			"-0.003": 14.153345479,
			"-0.002": 11.6092334281,
			"-0.001": 10.8523423745,
			"0.0": 12.3664010844,
			"0.001": 13.6386113657,
			"0.002": 16.6751566246,
			"0.003": 21.6541965495,
			"0.004": 17.7864269408,
			"0.005": 13.0380511522,
			"0.006": 3.82084641294,
			"0.007": 3.06813768534,
			"0.008": 2.41707460136,
			"0.009": 3.28414543767,
			"0.01": 1.51698669102,
			"0.011": 0.0106862482891,
			"0.012": 0.0,
			"0.013": 0.0,
			"0.014": 0.0,
			"0.015": 0.0,
			"0.016": 0.0,
			"0.017": 0.0,
			"0.018": 0.0,
			"0.019": 0.0,
			"0.02": 0.0,
			"0.021": 0.0,
			"0.022": 0.0,
			"0.023": 0.0,
			"0.024": 0.0,
			"0.025": 0.0
		}
	}
}
