{
	 "smiles": "COC1=CC(I)=C(C=C1)[N+]([O-])=O", 
	 "Tm": 343.65, 
	 "num_atms": 18, 
	 "gaussian": { 
		 "optdone": 1, 
		 "sigma_profile": "no", 
		 "theory": "DFT", 
		 "functional": "B3LYP", 
		 "basiset": "6-31G**", 
		 "properties": { 
			 "R2extent": 2940.1772, 
			 "electric_dipole_moment_norm": 5.72696465678, 
			 "electric_quadrupole_moment_norm": 20.5578300983, 
			 "total_energy": -562.038696381, 
			 "HOMO_LUMO_gap": 0.17044, 
			 "cosmo_polarized_energy": -90760.14, 
			 "cosmo_cavitation_energy": 26.65, 
			 "cosmo_dispersion_energy": -20.33, 
			 "cosmo_repulsion_energy": 1.59, 
			 "cosmo_total_nonelectrostatic_energy": 7.91, 
			 "SMD_solvation_energy": 7.23 
		},
		"coords": [
			{
				"x": 3.21094765,
				"y": 1.7377188968,
				"z": 0.3692734896,
				"element": "C" 
			},
			{
				"x": 1.8322787535,
				"y": 1.4486516453,
				"z": 0.5677629327,
				"element": "O" 
			},
			{
				"x": 1.2453223432,
				"y": 0.5159512195,
				"z": -0.2245282497,
				"element": "C" 
			},
			{
				"x": -0.1166947034,
				"y": 0.2853774672,
				"z": 0.0317143071,
				"element": "C" 
			},
			{
				"x": -0.8243763409,
				"y": -0.6482184675,
				"z": -0.7164591695,
				"element": "C" 
			},
			{
				"x": -2.8694102601,
				"y": -0.9618412061,
				"z": -0.296442541,
				"element": "I" 
			},
			{
				"x": -0.1640398472,
				"y": -1.3541570817,
				"z": -1.7262461571,
				"element": "C" 
			},
			{
				"x": 1.182225583,
				"y": -1.1316616541,
				"z": -1.9854209956,
				"element": "C" 
			},
			{
				"x": 1.897637634,
				"y": -0.1967842259,
				"z": -1.238808123,
				"element": "C" 
			},
			{
				"x": -0.8638123816,
				"y": -2.3573835456,
				"z": -2.5527620622,
				"element": "N" 
			},
			{
				"x": -1.3854464713,
				"y": -1.9582150248,
				"z": -3.588682534,
				"element": "O" 
			},
			{
				"x": -0.8490069686,
				"y": -3.5164107408,
				"z": -2.1515063546,
				"element": "O" 
			},
			{
				"x": 3.4635397725,
				"y": 2.502616673,
				"z": 1.1040936033,
				"element": "H" 
			},
			{
				"x": 3.8357152616,
				"y": 0.8521934601,
				"z": 0.5389934539,
				"element": "H" 
			},
			{
				"x": 3.3987510139,
				"y": 2.1278117315,
				"z": -0.6386229841,
				"element": "H" 
			},
			{
				"x": -0.5949372536,
				"y": 0.8510370131,
				"z": 0.822068667,
				"element": "H" 
			},
			{
				"x": 1.673253736,
				"y": -1.6918315027,
				"z": -2.7744532534,
				"element": "H" 
			},
			{
				"x": 2.9461524791,
				"y": -0.0366546574,
				"z": -1.4549740293,
				"element": "H" 
			}
		],
		 "valence_orbital": [ 
			{
				"type": "occ",
				"energy": -0.30685,
				"method": "rhf"
			},
			{
				"type": "occ",
				"energy": -0.30246,
				"method": "rhf"
			},
			{
				"type": "occ",
				"energy": -0.27891,
				"method": "rhf"
			},
			{
				"type": "occ",
				"energy": -0.25822,
				"method": "rhf"
			},
			{
				"type": "occ",
				"energy": -0.24476,
				"method": "rhf"
			},
			{
				"type": "unocc",
				"energy": -0.07432,
				"method": "rhf"
			},
			{
				"type": "unocc",
				"energy": -0.05126,
				"method": "rhf"
			},
			{
				"type": "unocc",
				"energy": -0.03825,
				"method": "rhf"
			},
			{
				"type": "unocc",
				"energy": -0.02377,
				"method": "rhf"
			},
			{
				"type": "unocc",
				"energy": 0.05247,
				"method": "rhf"
			}
		],
		"cosmo_sigma_profile": { 
			"0.0": 0.0,
			"0.0": 0.0,
			"0.0": 0.0,
			"0.0": 0.0,
			"0.0": 0.0,
			"0.0": 0.0,
			"0.0": 0.0,
			"0.0": 0.0,
			"0.0": 0.0,
			"0.0": 0.0,
			"0.0": 0.0,
			"0.0": 0.0,
			"0.0": 0.0,
			"0.0": 0.0,
			"0.0": 0.0,
			"0.0": 0.0,
			"0.0": 0.0,
			"0.0": 0.0,
			"0.0": 0.0,
			"0.0": 0.0,
			"0.0": 0.0,
			"0.0": 0.0,
			"0.0": 0.0,
			"0.0": 0.0,
			"0.0": 0.0,
			"0.0": 0.0,
			"0.0": 0.0,
			"0.0": 0.0,
			"0.0": 0.0,
			"0.0": 0.0,
			"0.0": 0.0,
			"0.0": 0.0,
			"0.0": 0.0,
			"0.0": 0.0,
			"0.0": 0.0,
			"0.0": 0.0,
			"0.0": 0.0,
			"0.0": 0.0,
			"0.0": 0.0,
			"0.0": 0.0,
			"0.0": 0.0,
			"0.0": 0.0,
			"0.0": 0.0,
			"0.0": 0.0,
			"0.0": 0.0,
			"0.0": 0.0,
			"0.0": 0.0,
			"0.0": 0.0,
			"0.0": 0.0,
			"0.0": 0.0,
			"0.0": 0.0
		}
	}
}
