{
	 "smiles": "CC(=O)NCC(=O)NCC(O)=O", 
	 "Tm": 448.15, 
	 "num_atms": 22, 
	 "gaussian": { 
		 "optdone": 1, 
		 "sigma_profile": "yes", 
		 "theory": "DFT", 
		 "functional": "B3LYP", 
		 "basiset": "6-31G**", 
		 "properties": { 
			 "R2extent": 2943.4747, 
			 "electric_dipole_moment_norm": 3.77239930151, 
			 "electric_quadrupole_moment_norm": 19.1651025155, 
			 "total_energy": -645.09775082, 
			 "HOMO_LUMO_gap": 0.23532, 
			 "cosmo_polarized_energy": -27.26, 
			 "cosmo_cavitation_energy": 27.28, 
			 "cosmo_dispersion_energy": -18.97, 
			 "cosmo_repulsion_energy": 1.57, 
			 "cosmo_total_nonelectrostatic_energy": 9.89, 
			 "SMD_solvation_energy": 6.95 
		},
		"coords": [
			{
				"x": 3.5528667185,
				"y": -1.2728621798,
				"z": 0.4156784017,
				"element": "C" 
			},
			{
				"x": 3.2731658501,
				"y": -0.7555880918,
				"z": -0.9855848232,
				"element": "C" 
			},
			{
				"x": 3.6977517093,
				"y": -1.3048765556,
				"z": -1.9896750722,
				"element": "O" 
			},
			{
				"x": 2.4902434305,
				"y": 0.3812695974,
				"z": -1.0845848502,
				"element": "N" 
			},
			{
				"x": 2.0516674444,
				"y": 1.2478613608,
				"z": -0.0070075726,
				"element": "C" 
			},
			{
				"x": 0.6465297879,
				"y": 0.9907941777,
				"z": 0.5620244786,
				"element": "C" 
			},
			{
				"x": 0.2071636895,
				"y": 1.6856888218,
				"z": 1.470647361,
				"element": "O" 
			},
			{
				"x": -0.0441066201,
				"y": -0.036960081,
				"z": 0.0021496569,
				"element": "N" 
			},
			{
				"x": -1.4148427062,
				"y": -0.2872684919,
				"z": 0.3677834144,
				"element": "C" 
			},
			{
				"x": -2.1349024216,
				"y": -0.9833620778,
				"z": -0.781119159,
				"element": "C" 
			},
			{
				"x": -3.4452480412,
				"y": -1.2420169666,
				"z": -0.5739325604,
				"element": "O" 
			},
			{
				"x": -1.5921429391,
				"y": -1.3085792129,
				"z": -1.8076458889,
				"element": "O" 
			},
			{
				"x": 2.6390138609,
				"y": -1.3577413254,
				"z": 1.0115104486,
				"element": "H" 
			},
			{
				"x": 4.0217032134,
				"y": -2.2517728013,
				"z": 0.3218104838,
				"element": "H" 
			},
			{
				"x": 4.2395276086,
				"y": -0.605620292,
				"z": 0.9488857603,
				"element": "H" 
			},
			{
				"x": 2.4002448551,
				"y": 0.7138348125,
				"z": -2.0362175399,
				"element": "H" 
			},
			{
				"x": 2.7431803082,
				"y": 1.2044631321,
				"z": 0.8387779713,
				"element": "H" 
			},
			{
				"x": 2.0610465767,
				"y": 2.2878749519,
				"z": -0.3475534027,
				"element": "H" 
			},
			{
				"x": 0.3006949861,
				"y": -0.4913718453,
				"z": -0.8355902702,
				"element": "H" 
			},
			{
				"x": -1.9065670408,
				"y": 0.6618658802,
				"z": 0.6185692969,
				"element": "H" 
			},
			{
				"x": -1.4900391863,
				"y": -0.9210260844,
				"z": 1.2650082669,
				"element": "H" 
			},
			{
				"x": -3.7313510839,
				"y": -0.9085067286,
				"z": 0.2892655989,
				"element": "H" 
			}
		],
		 "valence_orbital": [ 
			{
				"type": "occ",
				"energy": -0.3018,
				"method": "rhf"
			},
			{
				"type": "occ",
				"energy": -0.28561,
				"method": "rhf"
			},
			{
				"type": "occ",
				"energy": -0.27324,
				"method": "rhf"
			},
			{
				"type": "occ",
				"energy": -0.2571,
				"method": "rhf"
			},
			{
				"type": "occ",
				"energy": -0.24661,
				"method": "rhf"
			},
			{
				"type": "unocc",
				"energy": -0.01129,
				"method": "rhf"
			},
			{
				"type": "unocc",
				"energy": 0.01252,
				"method": "rhf"
			},
			{
				"type": "unocc",
				"energy": 0.01857,
				"method": "rhf"
			},
			{
				"type": "unocc",
				"energy": 0.03571,
				"method": "rhf"
			},
			{
				"type": "unocc",
				"energy": 0.0692,
				"method": "rhf"
			}
		],
		"cosmo_sigma_profile": { 
			"-0.025": 0.0,
			"-0.024": 0.0,
			"-0.023": 0.0,
			"-0.022": 0.0,
			"-0.021": 0.00432347821365,
			"-0.02": 0.95622527423,
			"-0.019": 1.18076754943,
			"-0.018": 1.55923113621,
			"-0.017": 1.29108033909,
			"-0.016": 0.683381016546,
			"-0.015": 1.17663743757,
			"-0.014": 1.93265339512,
			"-0.013": 2.67134125461,
			"-0.012": 2.51960283663,
			"-0.011": 2.66078123304,
			"-0.01": 3.27820043406,
			"-0.009": 4.00688754664,
			"-0.008": 8.3888746593,
			"-0.007": 10.8583750031,
			"-0.006": 12.6686054614,
			"-0.005": 13.306930629,
			"-0.004": 14.0126043553,
			"-0.003": 12.6350074311,
			"-0.002": 11.7274054099,
			"-0.001": 13.2466408091,
			"0.0": 8.40354992375,
			"0.001": 5.47065358589,
			"0.002": 4.20011859386,
			"0.003": 4.50125451625,
			"0.004": 5.75529021452,
			"0.005": 4.51988296962,
			"0.006": 4.16279224248,
			"0.007": 4.99656463231,
			"0.008": 5.4651659413,
			"0.009": 6.60477450638,
			"0.01": 8.03863199707,
			"0.011": 7.17072951934,
			"0.012": 5.65937521563,
			"0.013": 8.72960003255,
			"0.014": 8.91541939305,
			"0.015": 1.40637091738,
			"0.016": 0.0,
			"0.017": 0.0,
			"0.018": 0.0,
			"0.019": 0.0,
			"0.02": 0.0,
			"0.021": 0.0,
			"0.022": 0.0,
			"0.023": 0.0,
			"0.024": 0.0,
			"0.025": 0.0
		}
	}
}
