{
	 "smiles": "CC1=C(Cl)C=C(N)C=C1Cl", 
	 "Tm": 329.15, 
	 "num_atms": 17, 
	 "gaussian": { 
		 "optdone": 1, 
		 "sigma_profile": "yes", 
		 "theory": "DFT", 
		 "functional": "B3LYP", 
		 "basiset": "6-31G**", 
		 "properties": { 
			 "R2extent": 3088.9423, 
			 "electric_dipole_moment_norm": 2.95292736958, 
			 "electric_quadrupole_moment_norm": 5.51405061003, 
			 "total_energy": -1246.11014524, 
			 "HOMO_LUMO_gap": 0.19837, 
			 "cosmo_polarized_energy": -8.29, 
			 "cosmo_cavitation_energy": 23.9, 
			 "cosmo_dispersion_energy": -18.13, 
			 "cosmo_repulsion_energy": 1.47, 
			 "cosmo_total_nonelectrostatic_energy": 7.24, 
			 "SMD_solvation_energy": 3.59 
		},
		"coords": [
			{
				"x": 3.9225893248,
				"y": 0.98178583,
				"z": -0.6316822421,
				"element": "C" 
			},
			{
				"x": 2.5080848289,
				"y": 0.6073863114,
				"z": -0.2726635899,
				"element": "C" 
			},
			{
				"x": 1.4620333235,
				"y": 0.5828265244,
				"z": -1.2115389969,
				"element": "C" 
			},
			{
				"x": 1.7905698484,
				"y": 1.0105871449,
				"z": -2.8926558538,
				"element": "Cl" 
			},
			{
				"x": 0.1498285442,
				"y": 0.2408439759,
				"z": -0.903463,
				"element": "C" 
			},
			{
				"x": -0.1910180971,
				"y": -0.1003717597,
				"z": 0.4134067808,
				"element": "C" 
			},
			{
				"x": -1.5087079971,
				"y": -0.3924419234,
				"z": 0.7557986423,
				"element": "N" 
			},
			{
				"x": 0.8163404554,
				"y": -0.078891187,
				"z": 1.3888575393,
				"element": "C" 
			},
			{
				"x": 2.114976276,
				"y": 0.2695895751,
				"z": 1.0341167118,
				"element": "C" 
			},
			{
				"x": 3.310102172,
				"y": 0.2816570909,
				"z": 2.3335629141,
				"element": "Cl" 
			},
			{
				"x": 4.6377798644,
				"y": 0.4791724556,
				"z": 0.0211043532,
				"element": "H" 
			},
			{
				"x": 4.147230013,
				"y": 0.7151922977,
				"z": -1.6654622137,
				"element": "H" 
			},
			{
				"x": 4.0854646995,
				"y": 2.0617656521,
				"z": -0.5279089023,
				"element": "H" 
			},
			{
				"x": -0.6038539567,
				"y": 0.2469700278,
				"z": -1.6832930145,
				"element": "H" 
			},
			{
				"x": -1.6282643853,
				"y": -0.9423917735,
				"z": 1.5949880941,
				"element": "H" 
			},
			{
				"x": -2.0923758448,
				"y": -0.7197655898,
				"z": -0.0012784462,
				"element": "H" 
			},
			{
				"x": 0.5893209309,
				"y": -0.3254146525,
				"z": 2.4203112239,
				"element": "H" 
			}
		],
		 "valence_orbital": [ 
			{
				"type": "occ",
				"energy": -0.31721,
				"method": "rhf"
			},
			{
				"type": "occ",
				"energy": -0.30697,
				"method": "rhf"
			},
			{
				"type": "occ",
				"energy": -0.28945,
				"method": "rhf"
			},
			{
				"type": "occ",
				"energy": -0.2445,
				"method": "rhf"
			},
			{
				"type": "occ",
				"energy": -0.21468,
				"method": "rhf"
			},
			{
				"type": "unocc",
				"energy": -0.01631,
				"method": "rhf"
			},
			{
				"type": "unocc",
				"energy": 0.00035,
				"method": "rhf"
			},
			{
				"type": "unocc",
				"energy": 0.01154,
				"method": "rhf"
			},
			{
				"type": "unocc",
				"energy": 0.0544,
				"method": "rhf"
			},
			{
				"type": "unocc",
				"energy": 0.07011,
				"method": "rhf"
			}
		],
		"cosmo_sigma_profile": { 
			"-0.025": 0.0,
			"-0.024": 0.0,
			"-0.023": 0.0,
			"-0.022": 0.0,
			"-0.021": 0.0,
			"-0.02": 0.0,
			"-0.019": 0.0,
			"-0.018": 0.0,
			"-0.017": 0.0,
			"-0.016": 0.0,
			"-0.015": 0.0,
			"-0.014": 0.0202076173608,
			"-0.013": 2.00480332723,
			"-0.012": 3.2399273102,
			"-0.011": 3.4862836272,
			"-0.01": 2.89756020995,
			"-0.009": 3.39297730005,
			"-0.008": 3.44898950599,
			"-0.007": 4.49341208612,
			"-0.006": 3.49827923671,
			"-0.005": 4.53515060137,
			"-0.004": 5.97431071533,
			"-0.003": 8.06018435741,
			"-0.002": 11.562892952,
			"-0.001": 15.6021842823,
			"0.0": 16.5838387772,
			"0.001": 16.409006666,
			"0.002": 22.3928895132,
			"0.003": 24.2771262978,
			"0.004": 23.9031027734,
			"0.005": 12.5503779944,
			"0.006": 1.29290207305,
			"0.007": 0.693187117781,
			"0.008": 0.494329196931,
			"0.009": 0.961193594108,
			"0.01": 0.76127221311,
			"0.011": 0.452584258344,
			"0.012": 0.724493372514,
			"0.013": 0.552583668891,
			"0.014": 0.226771928949,
			"0.015": 0.0,
			"0.016": 0.0,
			"0.017": 0.0,
			"0.018": 0.0,
			"0.019": 0.0,
			"0.02": 0.0,
			"0.021": 0.0,
			"0.022": 0.0,
			"0.023": 0.0,
			"0.024": 0.0,
			"0.025": 0.0
		}
	}
}
