{
	 "smiles": "CN1C=NN=C1CN", 
	 "Tm": 306.15, 
	 "num_atms": 16, 
	 "gaussian": { 
		 "optdone": 1, 
		 "sigma_profile": "yes", 
		 "theory": "DFT", 
		 "functional": "B3LYP", 
		 "basiset": "6-31G**", 
		 "properties": { 
			 "R2extent": 1068.4815, 
			 "electric_dipole_moment_norm": 5.33632388916, 
			 "electric_quadrupole_moment_norm": 17.4028243377, 
			 "total_energy": -376.223083793, 
			 "HOMO_LUMO_gap": 0.2582, 
			 "cosmo_polarized_energy": -17.67, 
			 "cosmo_cavitation_energy": 19.43, 
			 "cosmo_dispersion_energy": -14.46, 
			 "cosmo_repulsion_energy": 1.22, 
			 "cosmo_total_nonelectrostatic_energy": 6.18, 
			 "SMD_solvation_energy": 1.43 
		},
		"coords": [
			{
				"x": 0.7818815004,
				"y": -0.6084330989,
				"z": -0.9767066091,
				"element": "C" 
			},
			{
				"x": -0.436458651,
				"y": -0.1803347617,
				"z": -0.3012977307,
				"element": "N" 
			},
			{
				"x": -1.6194648582,
				"y": -0.8587445516,
				"z": -0.1914478178,
				"element": "C" 
			},
			{
				"x": -2.4928950642,
				"y": -0.1787104554,
				"z": 0.5111315919,
				"element": "N" 
			},
			{
				"x": -1.8752729963,
				"y": 0.9969223741,
				"z": 0.8876175692,
				"element": "N" 
			},
			{
				"x": -0.6517827904,
				"y": 0.9802844177,
				"z": 0.4019310232,
				"element": "C" 
			},
			{
				"x": 0.3521145382,
				"y": 2.0758543493,
				"z": 0.5790997217,
				"element": "C" 
			},
			{
				"x": 0.7871499669,
				"y": 2.6095586174,
				"z": -0.7229465837,
				"element": "N" 
			},
			{
				"x": 1.2604402931,
				"y": 0.2681456174,
				"z": -1.4166839382,
				"element": "H" 
			},
			{
				"x": 0.5238349036,
				"y": -1.3203549278,
				"z": -1.7634086636,
				"element": "H" 
			},
			{
				"x": 1.4704351224,
				"y": -1.0920780973,
				"z": -0.2755964195,
				"element": "H" 
			},
			{
				"x": -1.7863095954,
				"y": -1.8263231763,
				"z": -0.644721709,
				"element": "H" 
			},
			{
				"x": 1.2429189471,
				"y": 1.6888401281,
				"z": 1.0911621993,
				"element": "H" 
			},
			{
				"x": -0.1134907756,
				"y": 2.8099525978,
				"z": 1.2515554045,
				"element": "H" 
			},
			{
				"x": 0.0042336457,
				"y": 3.0787597606,
				"z": -1.1728886602,
				"element": "H" 
			},
			{
				"x": 1.5060658137,
				"y": 3.3146612067,
				"z": -0.5801993781,
				"element": "H" 
			}
		],
		 "valence_orbital": [ 
			{
				"type": "occ",
				"energy": -0.29656,
				"method": "rhf"
			},
			{
				"type": "occ",
				"energy": -0.27898,
				"method": "rhf"
			},
			{
				"type": "occ",
				"energy": -0.2579,
				"method": "rhf"
			},
			{
				"type": "occ",
				"energy": -0.24782,
				"method": "rhf"
			},
			{
				"type": "occ",
				"energy": -0.24175,
				"method": "rhf"
			},
			{
				"type": "unocc",
				"energy": 0.01645,
				"method": "rhf"
			},
			{
				"type": "unocc",
				"energy": 0.04885,
				"method": "rhf"
			},
			{
				"type": "unocc",
				"energy": 0.08077,
				"method": "rhf"
			},
			{
				"type": "unocc",
				"energy": 0.10269,
				"method": "rhf"
			},
			{
				"type": "unocc",
				"energy": 0.12672,
				"method": "rhf"
			}
		],
		"cosmo_sigma_profile": { 
			"-0.025": 0.0,
			"-0.024": 0.0,
			"-0.023": 0.0,
			"-0.022": 0.0,
			"-0.021": 0.0,
			"-0.02": 0.0,
			"-0.019": 0.0,
			"-0.018": 0.0,
			"-0.017": 0.0,
			"-0.016": 0.0,
			"-0.015": 0.0,
			"-0.014": 0.0,
			"-0.013": 0.0,
			"-0.012": 0.0,
			"-0.011": 0.856077220365,
			"-0.01": 4.5230380808,
			"-0.009": 5.91792176072,
			"-0.008": 5.17416879795,
			"-0.007": 7.51382679949,
			"-0.006": 10.950017576,
			"-0.005": 12.8994989784,
			"-0.004": 15.390045209,
			"-0.003": 15.5250425979,
			"-0.002": 8.25597900637,
			"-0.001": 6.37633532821,
			"0.0": 6.0186132341,
			"0.001": 4.84811113182,
			"0.002": 3.46753903401,
			"0.003": 3.62278312566,
			"0.004": 3.80105682255,
			"0.005": 2.94032161651,
			"0.006": 2.75077695054,
			"0.007": 3.26305533424,
			"0.008": 2.77983756601,
			"0.009": 1.96567357996,
			"0.01": 2.69891887961,
			"0.011": 3.32823506536,
			"0.012": 3.1401263565,
			"0.013": 2.74819715777,
			"0.014": 3.28285573806,
			"0.015": 3.6121881434,
			"0.016": 2.74081999265,
			"0.017": 2.14722267286,
			"0.018": 0.743077989265,
			"0.019": 0.0,
			"0.02": 0.0,
			"0.021": 0.0,
			"0.022": 0.0,
			"0.023": 0.0,
			"0.024": 0.0,
			"0.025": 0.0
		}
	}
}
