{
	 "smiles": "CCC(=O)C1=CC=C(Br)C=C1", 
	 "Tm": 320.15, 
	 "num_atms": 20, 
	 "gaussian": { 
		 "optdone": 1, 
		 "sigma_profile": "yes", 
		 "theory": "DFT", 
		 "functional": "B3LYP", 
		 "basiset": "6-31G**", 
		 "properties": { 
			 "R2extent": 5651.835, 
			 "electric_dipole_moment_norm": 2.29070530187, 
			 "electric_quadrupole_moment_norm": 7.43900377672, 
			 "total_energy": -2995.0158821, 
			 "HOMO_LUMO_gap": 0.18597, 
			 "cosmo_polarized_energy": -7.62, 
			 "cosmo_cavitation_energy": 26.2, 
			 "cosmo_dispersion_energy": -19.42, 
			 "cosmo_repulsion_energy": 1.57, 
			 "cosmo_total_nonelectrostatic_energy": 8.34, 
			 "SMD_solvation_energy": 3.93 
		},
		"coords": [
			{
				"x": 0.6661048648,
				"y": -0.5968954733,
				"z": 1.8971165723,
				"element": "C" 
			},
			{
				"x": 1.3299942203,
				"y": 0.5267123155,
				"z": 1.0771056006,
				"element": "C" 
			},
			{
				"x": 1.3767178845,
				"y": 0.1878498463,
				"z": -0.4079210849,
				"element": "C" 
			},
			{
				"x": 2.3860824968,
				"y": -0.3029875481,
				"z": -0.8931243663,
				"element": "O" 
			},
			{
				"x": 0.1657174965,
				"y": 0.4196992928,
				"z": -1.2653592082,
				"element": "C" 
			},
			{
				"x": -1.0179069965,
				"y": 1.0036355364,
				"z": -0.7898600059,
				"element": "C" 
			},
			{
				"x": -2.1110171415,
				"y": 1.1940270297,
				"z": -1.6344024033,
				"element": "C" 
			},
			{
				"x": -2.015138717,
				"y": 0.7962302177,
				"z": -2.9669515795,
				"element": "C" 
			},
			{
				"x": -3.5060697425,
				"y": 1.0541438205,
				"z": -4.1293847246,
				"element": "Br" 
			},
			{
				"x": -0.8486679153,
				"y": 0.2129702721,
				"z": -3.4670237884,
				"element": "C" 
			},
			{
				"x": 0.2321102911,
				"y": 0.0286866021,
				"z": -2.6125291192,
				"element": "C" 
			},
			{
				"x": -0.3769223391,
				"y": -0.7523588026,
				"z": 1.6047143646,
				"element": "H" 
			},
			{
				"x": 1.1999416507,
				"y": -1.5410049132,
				"z": 1.7542216393,
				"element": "H" 
			},
			{
				"x": 0.6857634845,
				"y": -0.3538745401,
				"z": 2.9635701963,
				"element": "H" 
			},
			{
				"x": 2.3677421491,
				"y": 0.6524499639,
				"z": 1.3964993121,
				"element": "H" 
			},
			{
				"x": 0.8100812968,
				"y": 1.4758378505,
				"z": 1.2472909687,
				"element": "H" 
			},
			{
				"x": -1.1021429448,
				"y": 1.3177806709,
				"z": 0.2450057705,
				"element": "H" 
			},
			{
				"x": -3.0241742354,
				"y": 1.645789182,
				"z": -1.264460822,
				"element": "H" 
			},
			{
				"x": -0.793580945,
				"y": -0.0894952249,
				"z": -4.5065664679,
				"element": "H" 
			},
			{
				"x": 1.1525651421,
				"y": -0.421096098,
				"z": -2.9693408542,
				"element": "H" 
			}
		],
		 "valence_orbital": [ 
			{
				"type": "occ",
				"energy": -0.317,
				"method": "rhf"
			},
			{
				"type": "occ",
				"energy": -0.29526,
				"method": "rhf"
			},
			{
				"type": "occ",
				"energy": -0.27394,
				"method": "rhf"
			},
			{
				"type": "occ",
				"energy": -0.2524,
				"method": "rhf"
			},
			{
				"type": "occ",
				"energy": -0.25087,
				"method": "rhf"
			},
			{
				"type": "unocc",
				"energy": -0.0649,
				"method": "rhf"
			},
			{
				"type": "unocc",
				"energy": -0.02355,
				"method": "rhf"
			},
			{
				"type": "unocc",
				"energy": -0.00019,
				"method": "rhf"
			},
			{
				"type": "unocc",
				"energy": 0.02756,
				"method": "rhf"
			},
			{
				"type": "unocc",
				"energy": 0.0881,
				"method": "rhf"
			}
		],
		"cosmo_sigma_profile": { 
			"-0.025": 0.0,
			"-0.024": 0.0,
			"-0.023": 0.0,
			"-0.022": 0.0,
			"-0.021": 0.0,
			"-0.02": 0.0,
			"-0.019": 0.0,
			"-0.018": 0.0,
			"-0.017": 0.0,
			"-0.016": 0.0,
			"-0.015": 0.0,
			"-0.014": 0.0,
			"-0.013": 0.0,
			"-0.012": 0.0,
			"-0.011": 0.0,
			"-0.01": 0.0,
			"-0.009": 0.0,
			"-0.008": 2.0478550419,
			"-0.007": 6.41228221875,
			"-0.006": 9.09125364608,
			"-0.005": 9.60638762968,
			"-0.004": 15.5026791709,
			"-0.003": 17.6405196219,
			"-0.002": 21.5962226748,
			"-0.001": 20.3522798802,
			"0.0": 20.1836725693,
			"0.001": 20.0619589283,
			"0.002": 22.5126214513,
			"0.003": 14.3815180372,
			"0.004": 12.7164260896,
			"0.005": 3.4110415583,
			"0.006": 1.64721566495,
			"0.007": 1.7011956845,
			"0.008": 1.3803718446,
			"0.009": 1.36663847931,
			"0.01": 2.2045214342,
			"0.011": 2.98246740709,
			"0.012": 3.8056441787,
			"0.013": 1.23933853233,
			"0.014": 0.187735284895,
			"0.015": 0.0,
			"0.016": 0.0,
			"0.017": 0.0,
			"0.018": 0.0,
			"0.019": 0.0,
			"0.02": 0.0,
			"0.021": 0.0,
			"0.022": 0.0,
			"0.023": 0.0,
			"0.024": 0.0,
			"0.025": 0.0
		}
	}
}
