{
	 "smiles": "CC1=CC(=CC(C)=C1OCC(=O)N1CCCCC1)C(O)=O", 
	 "Tm": 449.15, 
	 "num_atms": 42, 
	 "gaussian": { 
		 "optdone": 1, 
		 "sigma_profile": "yes", 
		 "theory": "DFT", 
		 "functional": "B3LYP", 
		 "basiset": "6-31G**", 
		 "properties": { 
			 "R2extent": 10142.0256, 
			 "electric_dipole_moment_norm": 5.30482261815, 
			 "electric_quadrupole_moment_norm": 19.0332575163, 
			 "total_energy": -978.03989932, 
			 "HOMO_LUMO_gap": 0.19489, 
			 "cosmo_polarized_energy": -17.43, 
			 "cosmo_cavitation_energy": 43.64, 
			 "cosmo_dispersion_energy": -30.12, 
			 "cosmo_repulsion_energy": 2.31, 
			 "cosmo_total_nonelectrostatic_energy": 15.83, 
			 "SMD_solvation_energy": 7.92 
		},
		"coords": [
			{
				"x": 1.6340358295,
				"y": 2.0527890604,
				"z": 0.217726699,
				"element": "C" 
			},
			{
				"x": 1.3350403033,
				"y": 1.6062948554,
				"z": 1.6280099848,
				"element": "C" 
			},
			{
				"x": 2.062318347,
				"y": 2.0962385165,
				"z": 2.7146938425,
				"element": "C" 
			},
			{
				"x": 1.7801433848,
				"y": 1.6655530745,
				"z": 4.0165413067,
				"element": "C" 
			},
			{
				"x": 0.7680798746,
				"y": 0.7235739308,
				"z": 4.2356968148,
				"element": "C" 
			},
			{
				"x": 0.0222501289,
				"y": 0.2059669088,
				"z": 3.176175883,
				"element": "C" 
			},
			{
				"x": -1.047154107,
				"y": -0.8357444294,
				"z": 3.3953378569,
				"element": "C" 
			},
			{
				"x": 0.3193915265,
				"y": 0.6694118786,
				"z": 1.8818857027,
				"element": "C" 
			},
			{
				"x": -0.3819316563,
				"y": 0.1357119002,
				"z": 0.8113468367,
				"element": "O" 
			},
			{
				"x": -1.6034879132,
				"y": 0.8138174915,
				"z": 0.4597475371,
				"element": "C" 
			},
			{
				"x": -2.6981041278,
				"y": -0.219309207,
				"z": 0.1649105424,
				"element": "C" 
			},
			{
				"x": -3.6406043996,
				"y": -0.3447126943,
				"z": 0.9473057912,
				"element": "O" 
			},
			{
				"x": -2.5875905559,
				"y": -0.9601459438,
				"z": -0.9730840506,
				"element": "N" 
			},
			{
				"x": -1.4549594455,
				"y": -0.8896572375,
				"z": -1.9093302391,
				"element": "C" 
			},
			{
				"x": -1.1615520204,
				"y": -2.2817745376,
				"z": -2.4801567678,
				"element": "C" 
			},
			{
				"x": -2.3712346603,
				"y": -2.8565763802,
				"z": -3.2547369434,
				"element": "C" 
			},
			{
				"x": -3.7011085567,
				"y": -2.2529864107,
				"z": -2.7517179509,
				"element": "C" 
			},
			{
				"x": -3.6572339991,
				"y": -1.9329324936,
				"z": -1.2574493933,
				"element": "C" 
			},
			{
				"x": 2.5306550998,
				"y": 2.1672076477,
				"z": 5.1948454375,
				"element": "C" 
			},
			{
				"x": 3.4912805653,
				"y": 3.0729239692,
				"z": 4.8719736642,
				"element": "O" 
			},
			{
				"x": 2.3347959612,
				"y": 1.8268218023,
				"z": 6.3457810119,
				"element": "O" 
			},
			{
				"x": 2.5434872267,
				"y": 2.6580937786,
				"z": 0.1874046086,
				"element": "H" 
			},
			{
				"x": 1.7676932358,
				"y": 1.1952023268,
				"z": -0.4489503663,
				"element": "H" 
			},
			{
				"x": 0.8202435056,
				"y": 2.6587840275,
				"z": -0.1980437266,
				"element": "H" 
			},
			{
				"x": 2.8543086817,
				"y": 2.8186120481,
				"z": 2.5496492219,
				"element": "H" 
			},
			{
				"x": 0.5758806488,
				"y": 0.3979055976,
				"z": 5.2529267373,
				"element": "H" 
			},
			{
				"x": -2.0253028079,
				"y": -0.5147021916,
				"z": 3.0232318992,
				"element": "H" 
			},
			{
				"x": -0.8019568872,
				"y": -1.7610546472,
				"z": 2.8623020965,
				"element": "H" 
			},
			{
				"x": -1.1426235747,
				"y": -1.0688526703,
				"z": 4.4586150241,
				"element": "H" 
			},
			{
				"x": -1.9673756405,
				"y": 1.413635074,
				"z": 1.2957772135,
				"element": "H" 
			},
			{
				"x": -1.422340406,
				"y": 1.4735244323,
				"z": -0.3998456214,
				"element": "H" 
			},
			{
				"x": -1.6766351321,
				"y": -0.1889420305,
				"z": -2.7289215099,
				"element": "H" 
			},
			{
				"x": -0.5785945137,
				"y": -0.5195607359,
				"z": -1.3777694999,
				"element": "H" 
			},
			{
				"x": -0.27692156,
				"y": -2.2263837012,
				"z": -3.1232684693,
				"element": "H" 
			},
			{
				"x": -0.8994023823,
				"y": -2.9391763958,
				"z": -1.6434144474,
				"element": "H" 
			},
			{
				"x": -2.3868776647,
				"y": -3.946419045,
				"z": -3.1434138749,
				"element": "H" 
			},
			{
				"x": -2.266525828,
				"y": -2.6579539976,
				"z": -4.3271658512,
				"element": "H" 
			},
			{
				"x": -4.5340380775,
				"y": -2.9362141206,
				"z": -2.9471316737,
				"element": "H" 
			},
			{
				"x": -3.9250784302,
				"y": -1.3293148599,
				"z": -3.2990746295,
				"element": "H" 
			},
			{
				"x": -3.4937445108,
				"y": -2.848532715,
				"z": -0.6708723455,
				"element": "H" 
			},
			{
				"x": -4.597930958,
				"y": -1.5028732216,
				"z": -0.90761582,
				"element": "H" 
			},
			{
				"x": 3.9054054961,
				"y": 3.3219513454,
				"z": 5.7142774682,
				"element": "H" 
			}
		],
		 "valence_orbital": [ 
			{
				"type": "occ",
				"energy": -0.27065,
				"method": "rhf"
			},
			{
				"type": "occ",
				"energy": -0.24575,
				"method": "rhf"
			},
			{
				"type": "occ",
				"energy": -0.24271,
				"method": "rhf"
			},
			{
				"type": "occ",
				"energy": -0.24225,
				"method": "rhf"
			},
			{
				"type": "occ",
				"energy": -0.23714,
				"method": "rhf"
			},
			{
				"type": "unocc",
				"energy": -0.04225,
				"method": "rhf"
			},
			{
				"type": "unocc",
				"energy": -0.00203,
				"method": "rhf"
			},
			{
				"type": "unocc",
				"energy": 0.00979,
				"method": "rhf"
			},
			{
				"type": "unocc",
				"energy": 0.05747,
				"method": "rhf"
			},
			{
				"type": "unocc",
				"energy": 0.06842,
				"method": "rhf"
			}
		],
		"cosmo_sigma_profile": { 
			"-0.025": 0.0,
			"-0.024": 0.0,
			"-0.023": 0.0,
			"-0.022": 0.0,
			"-0.021": 0.0,
			"-0.02": 0.0,
			"-0.019": 0.0,
			"-0.018": 0.67118655018,
			"-0.017": 0.870170406376,
			"-0.016": 0.809009702316,
			"-0.015": 1.05327161128,
			"-0.014": 0.875310143074,
			"-0.013": 0.400656517785,
			"-0.012": 0.255644822512,
			"-0.011": 0.802094333199,
			"-0.01": 0.721060949425,
			"-0.009": 0.552536669582,
			"-0.008": 0.754283368394,
			"-0.007": 1.31149399142,
			"-0.006": 7.60962479634,
			"-0.005": 14.5382208901,
			"-0.004": 28.3377327651,
			"-0.003": 43.0425171874,
			"-0.002": 48.0939209849,
			"-0.001": 36.4321070868,
			"0.0": 36.5180306484,
			"0.001": 23.5094282412,
			"0.002": 18.0196809462,
			"0.003": 17.6063526223,
			"0.004": 10.4370404794,
			"0.005": 6.790665632,
			"0.006": 6.1747565357,
			"0.007": 5.06926336209,
			"0.008": 4.50350142525,
			"0.009": 2.8971075326,
			"0.01": 3.03887675883,
			"0.011": 4.80863958305,
			"0.012": 6.54936203242,
			"0.013": 3.51434012202,
			"0.014": 3.97503192712,
			"0.015": 0.832382549372,
			"0.016": 0.451948780059,
			"0.017": 0.158718638716,
			"0.018": 0.0,
			"0.019": 0.0,
			"0.02": 0.0,
			"0.021": 0.0,
			"0.022": 0.0,
			"0.023": 0.0,
			"0.024": 0.0,
			"0.025": 0.0
		}
	}
}
