{
	 "smiles": "CN1C=C(C#N)C(=O)N(C)C1=O", 
	 "Tm": 428.15, 
	 "num_atms": 19, 
	 "gaussian": { 
		 "optdone": 1, 
		 "sigma_profile": "yes", 
		 "theory": "DFT", 
		 "functional": "B3LYP", 
		 "basiset": "6-31G**", 
		 "properties": { 
			 "R2extent": 2065.6095, 
			 "electric_dipole_moment_norm": 5.90342357789, 
			 "electric_quadrupole_moment_norm": 22.1493720873, 
			 "total_energy": -585.676438904, 
			 "HOMO_LUMO_gap": 0.18795, 
			 "cosmo_polarized_energy": -20.28, 
			 "cosmo_cavitation_energy": 24.51, 
			 "cosmo_dispersion_energy": -17.43, 
			 "cosmo_repulsion_energy": 1.37, 
			 "cosmo_total_nonelectrostatic_energy": 8.46, 
			 "SMD_solvation_energy": 7.53 
		},
		"coords": [
			{
				"x": 0.2907193087,
				"y": 2.5942308384,
				"z": 0.2005942864,
				"element": "C" 
			},
			{
				"x": 0.256926779,
				"y": 1.1321494909,
				"z": 0.0900342513,
				"element": "N" 
			},
			{
				"x": 1.353525958,
				"y": 0.3640835782,
				"z": 0.3225710855,
				"element": "C" 
			},
			{
				"x": 1.3306956173,
				"y": -0.9958569735,
				"z": 0.2222201674,
				"element": "C" 
			},
			{
				"x": 2.5061012209,
				"y": -1.7594379812,
				"z": 0.4756108868,
				"element": "C" 
			},
			{
				"x": 3.482016544,
				"y": -2.3557177336,
				"z": 0.6886324428,
				"element": "N" 
			},
			{
				"x": 0.0896448924,
				"y": -1.6887284951,
				"z": -0.1493900964,
				"element": "C" 
			},
			{
				"x": -0.0201430578,
				"y": -2.8963261597,
				"z": -0.2618998999,
				"element": "O" 
			},
			{
				"x": -1.0056151115,
				"y": -0.8177220677,
				"z": -0.3743392752,
				"element": "N" 
			},
			{
				"x": -2.2981922834,
				"y": -1.4047674905,
				"z": -0.7519192449,
				"element": "C" 
			},
			{
				"x": -0.9803072244,
				"y": 0.5653263024,
				"z": -0.2716650786,
				"element": "C" 
			},
			{
				"x": -1.9535862788,
				"y": 1.2701729911,
				"z": -0.4762691595,
				"element": "O" 
			},
			{
				"x": 1.2986553307,
				"y": 2.8982189805,
				"z": 0.4836233162,
				"element": "H" 
			},
			{
				"x": -0.4238987745,
				"y": 2.9289405273,
				"z": 0.9548916482,
				"element": "H" 
			},
			{
				"x": 0.0202629171,
				"y": 3.0478641269,
				"z": -0.7547660569,
				"element": "H" 
			},
			{
				"x": 2.2593501144,
				"y": 0.893692119,
				"z": 0.5954578623,
				"element": "H" 
			},
			{
				"x": -3.0562410437,
				"y": -1.1366884496,
				"z": -0.013328303,
				"element": "H" 
			},
			{
				"x": -2.6094751411,
				"y": -1.0197096718,
				"z": -1.7250038431,
				"element": "H" 
			},
			{
				"x": -2.1636397673,
				"y": -2.4830239318,
				"z": -0.7905549894,
				"element": "H" 
			}
		],
		 "valence_orbital": [ 
			{
				"type": "occ",
				"energy": -0.33597,
				"method": "rhf"
			},
			{
				"type": "occ",
				"energy": -0.31182,
				"method": "rhf"
			},
			{
				"type": "occ",
				"energy": -0.29005,
				"method": "rhf"
			},
			{
				"type": "occ",
				"energy": -0.28175,
				"method": "rhf"
			},
			{
				"type": "occ",
				"energy": -0.25804,
				"method": "rhf"
			},
			{
				"type": "unocc",
				"energy": -0.07009,
				"method": "rhf"
			},
			{
				"type": "unocc",
				"energy": -0.01946,
				"method": "rhf"
			},
			{
				"type": "unocc",
				"energy": 0.02469,
				"method": "rhf"
			},
			{
				"type": "unocc",
				"energy": 0.04571,
				"method": "rhf"
			},
			{
				"type": "unocc",
				"energy": 0.05786,
				"method": "rhf"
			}
		],
		"cosmo_sigma_profile": { 
			"-0.025": 0.0,
			"-0.024": 0.0,
			"-0.023": 0.0,
			"-0.022": 0.0,
			"-0.021": 0.0,
			"-0.02": 0.0,
			"-0.019": 0.0,
			"-0.018": 0.0,
			"-0.017": 0.0,
			"-0.016": 0.0,
			"-0.015": 0.0,
			"-0.014": 0.0,
			"-0.013": 1.56867868158,
			"-0.012": 2.93924476714,
			"-0.011": 2.47331275048,
			"-0.01": 2.0928710931,
			"-0.009": 2.40692283481,
			"-0.008": 4.28972224207,
			"-0.007": 7.60471879881,
			"-0.006": 15.7334583548,
			"-0.005": 21.8041436761,
			"-0.004": 20.0328754528,
			"-0.003": 16.3929127306,
			"-0.002": 10.926434408,
			"-0.001": 7.31628998484,
			"0.0": 4.83134336665,
			"0.001": 4.87311752679,
			"0.002": 4.64717056724,
			"0.003": 3.51696968712,
			"0.004": 5.59757574991,
			"0.005": 4.8946163431,
			"0.006": 5.71117934232,
			"0.007": 6.09796031692,
			"0.008": 6.91517005999,
			"0.009": 6.804074766,
			"0.01": 6.62201557822,
			"0.011": 10.6329607954,
			"0.012": 8.73566541758,
			"0.013": 1.53956833718,
			"0.014": 0.0493341474634,
			"0.015": 0.0,
			"0.016": 0.0,
			"0.017": 0.0,
			"0.018": 0.0,
			"0.019": 0.0,
			"0.02": 0.0,
			"0.021": 0.0,
			"0.022": 0.0,
			"0.023": 0.0,
			"0.024": 0.0,
			"0.025": 0.0
		}
	}
}
