{
	 "smiles": "COC1=CC(C(=O)CCl)=C(OC)C=C1", 
	 "Tm": 361.15, 
	 "num_atms": 25, 
	 "gaussian": { 
		 "optdone": 1, 
		 "sigma_profile": "yes", 
		 "theory": "DFT", 
		 "functional": "B3LYP", 
		 "basiset": "6-31G**", 
		 "properties": { 
			 "R2extent": 4223.9783, 
			 "electric_dipole_moment_norm": 3.30825885021, 
			 "electric_quadrupole_moment_norm": 17.1991295207, 
			 "total_energy": -1073.52694753, 
			 "HOMO_LUMO_gap": 0.14875, 
			 "cosmo_polarized_energy": -10.8, 
			 "cosmo_cavitation_energy": 30.49, 
			 "cosmo_dispersion_energy": -21.84, 
			 "cosmo_repulsion_energy": 1.73, 
			 "cosmo_total_nonelectrostatic_energy": 10.38, 
			 "SMD_solvation_energy": 7.08 
		},
		"coords": [
			{
				"x": 4.6161059442,
				"y": 1.4046158816,
				"z": -0.2331612199,
				"element": "C" 
			},
			{
				"x": 3.4451454205,
				"y": 1.6635917572,
				"z": 0.5267837053,
				"element": "O" 
			},
			{
				"x": 2.2687946643,
				"y": 1.126245974,
				"z": 0.0880006209,
				"element": "C" 
			},
			{
				"x": 2.1236486922,
				"y": 0.3400160648,
				"z": -1.0498125093,
				"element": "C" 
			},
			{
				"x": 0.8730823843,
				"y": -0.1886767375,
				"z": -1.4235365044,
				"element": "C" 
			},
			{
				"x": 0.8837065691,
				"y": -1.0244538347,
				"z": -2.6641556566,
				"element": "C" 
			},
			{
				"x": 1.8463256768,
				"y": -1.0042050455,
				"z": -3.4186604736,
				"element": "O" 
			},
			{
				"x": -0.2751082665,
				"y": -1.951257636,
				"z": -3.0304503121,
				"element": "C" 
			},
			{
				"x": -0.4278954208,
				"y": -3.3125815872,
				"z": -1.8362359462,
				"element": "Cl" 
			},
			{
				"x": -0.2624752075,
				"y": 0.116480653,
				"z": -0.6407583109,
				"element": "C" 
			},
			{
				"x": -1.4739598502,
				"y": -0.3544550236,
				"z": -1.0545796339,
				"element": "O" 
			},
			{
				"x": -2.6047977029,
				"y": -0.1852268802,
				"z": -0.2112143348,
				"element": "C" 
			},
			{
				"x": -0.1092747553,
				"y": 0.9120958247,
				"z": 0.505704288,
				"element": "C" 
			},
			{
				"x": 1.137245103,
				"y": 1.4045852868,
				"z": 0.8676438642,
				"element": "C" 
			},
			{
				"x": 4.8381258641,
				"y": 0.3308294584,
				"z": -0.2810579002,
				"element": "H" 
			},
			{
				"x": 5.4293034505,
				"y": 1.917578356,
				"z": 0.2824552521,
				"element": "H" 
			},
			{
				"x": 4.5306267951,
				"y": 1.7968151015,
				"z": -1.2546571103,
				"element": "H" 
			},
			{
				"x": 2.9610669093,
				"y": 0.0968008475,
				"z": -1.6910453381,
				"element": "H" 
			},
			{
				"x": -0.0449516288,
				"y": -2.3988748066,
				"z": -3.9954324287,
				"element": "H" 
			},
			{
				"x": -1.2322980481,
				"y": -1.4348590796,
				"z": -3.0402288327,
				"element": "H" 
			},
			{
				"x": -2.8675682513,
				"y": 0.873639865,
				"z": -0.0952763847,
				"element": "H" 
			},
			{
				"x": -3.4254832594,
				"y": -0.7061151907,
				"z": -0.7058556249,
				"element": "H" 
			},
			{
				"x": -2.4375169909,
				"y": -0.6298853651,
				"z": 0.7768843708,
				"element": "H" 
			},
			{
				"x": -0.9661463872,
				"y": 1.1567242018,
				"z": 1.1208741944,
				"element": "H" 
			},
			{
				"x": 1.2537982957,
				"y": 2.0158719144,
				"z": 1.7567722255,
				"element": "H" 
			}
		],
		 "valence_orbital": [ 
			{
				"type": "occ",
				"energy": -0.29946,
				"method": "rhf"
			},
			{
				"type": "occ",
				"energy": -0.29163,
				"method": "rhf"
			},
			{
				"type": "occ",
				"energy": -0.26369,
				"method": "rhf"
			},
			{
				"type": "occ",
				"energy": -0.25247,
				"method": "rhf"
			},
			{
				"type": "occ",
				"energy": -0.21232,
				"method": "rhf"
			},
			{
				"type": "unocc",
				"energy": -0.06357,
				"method": "rhf"
			},
			{
				"type": "unocc",
				"energy": 0.00359,
				"method": "rhf"
			},
			{
				"type": "unocc",
				"energy": 0.01526,
				"method": "rhf"
			},
			{
				"type": "unocc",
				"energy": 0.06326,
				"method": "rhf"
			},
			{
				"type": "unocc",
				"energy": 0.08509,
				"method": "rhf"
			}
		],
		"cosmo_sigma_profile": { 
			"-0.025": 0.0,
			"-0.024": 0.0,
			"-0.023": 0.0,
			"-0.022": 0.0,
			"-0.021": 0.0,
			"-0.02": 0.0,
			"-0.019": 0.0,
			"-0.018": 0.0,
			"-0.017": 0.0,
			"-0.016": 0.0,
			"-0.015": 0.0,
			"-0.014": 0.0,
			"-0.013": 0.0,
			"-0.012": 0.0,
			"-0.011": 0.0,
			"-0.01": 0.0,
			"-0.009": 0.0,
			"-0.008": 0.656137882357,
			"-0.007": 7.62659141713,
			"-0.006": 18.1540091195,
			"-0.005": 26.5017050536,
			"-0.004": 22.6489189993,
			"-0.003": 20.7573315066,
			"-0.002": 12.4119091708,
			"-0.001": 10.6474487537,
			"0.0": 13.9771715178,
			"0.001": 14.0299640137,
			"0.002": 17.4752173477,
			"0.003": 22.6245929834,
			"0.004": 13.3403032269,
			"0.005": 13.4496472053,
			"0.006": 10.8487521038,
			"0.007": 3.14547788435,
			"0.008": 3.1252061095,
			"0.009": 3.24037299407,
			"0.01": 4.11146159988,
			"0.011": 3.99497676267,
			"0.012": 1.87296389288,
			"0.013": 0.0433342730232,
			"0.014": 0.0,
			"0.015": 0.0,
			"0.016": 0.0,
			"0.017": 0.0,
			"0.018": 0.0,
			"0.019": 0.0,
			"0.02": 0.0,
			"0.021": 0.0,
			"0.022": 0.0,
			"0.023": 0.0,
			"0.024": 0.0,
			"0.025": 0.0
		}
	}
}
