{
	 "smiles": "CC(C)CCOC1=CC=C(C=C1)C(=O)NN", 
	 "Tm": 382.15, 
	 "num_atms": 34, 
	 "gaussian": { 
		 "optdone": 1, 
		 "sigma_profile": "yes", 
		 "theory": "DFT", 
		 "functional": "B3LYP", 
		 "basiset": "6-31G**", 
		 "properties": { 
			 "R2extent": 6699.6119, 
			 "electric_dipole_moment_norm": 4.48872370056, 
			 "electric_quadrupole_moment_norm": 8.67919481346, 
			 "total_energy": -728.066995941, 
			 "HOMO_LUMO_gap": 0.1966, 
			 "cosmo_polarized_energy": -14.26, 
			 "cosmo_cavitation_energy": 36.8, 
			 "cosmo_dispersion_energy": -26.33, 
			 "cosmo_repulsion_energy": 2.08, 
			 "cosmo_total_nonelectrostatic_energy": 12.54, 
			 "SMD_solvation_energy": 7.38 
		},
		"coords": [
			{
				"x": 2.7534943885,
				"y": 2.6466564596,
				"z": 2.6785178834,
				"element": "C" 
			},
			{
				"x": 1.2689374093,
				"y": 2.3344984974,
				"z": 2.9195547347,
				"element": "C" 
			},
			{
				"x": 0.6417294271,
				"y": 3.382248948,
				"z": 3.8535843016,
				"element": "C" 
			},
			{
				"x": 0.5243671393,
				"y": 2.2186857425,
				"z": 1.5741627703,
				"element": "C" 
			},
			{
				"x": -0.9265177714,
				"y": 1.7500826128,
				"z": 1.700247253,
				"element": "C" 
			},
			{
				"x": -1.5694805205,
				"y": 1.6277677443,
				"z": 0.4260970653,
				"element": "O" 
			},
			{
				"x": -1.3751732488,
				"y": 0.5204557203,
				"z": -0.3394949286,
				"element": "C" 
			},
			{
				"x": -0.6079117564,
				"y": -0.5947311114,
				"z": 0.0281878056,
				"element": "C" 
			},
			{
				"x": -0.5027102366,
				"y": -1.6781952722,
				"z": -0.8445326734,
				"element": "C" 
			},
			{
				"x": -1.1442594904,
				"y": -1.6737806741,
				"z": -2.0885357641,
				"element": "C" 
			},
			{
				"x": -1.9237652142,
				"y": -0.5577638487,
				"z": -2.4365858722,
				"element": "C" 
			},
			{
				"x": -2.0341703715,
				"y": 0.5262338668,
				"z": -1.5818116498,
				"element": "C" 
			},
			{
				"x": -1.0690870217,
				"y": -2.8040132012,
				"z": -3.0602455773,
				"element": "C" 
			},
			{
				"x": -1.8826851528,
				"y": -2.9581085692,
				"z": -3.9686850444,
				"element": "O" 
			},
			{
				"x": -0.0178243977,
				"y": -3.6839043093,
				"z": -2.8904590301,
				"element": "N" 
			},
			{
				"x": 0.2176662445,
				"y": -4.6745735802,
				"z": -3.8736974627,
				"element": "N" 
			},
			{
				"x": 2.8728347276,
				"y": 3.6149379744,
				"z": 2.1776925299,
				"element": "H" 
			},
			{
				"x": 3.2261800594,
				"y": 1.8857816885,
				"z": 2.0481354154,
				"element": "H" 
			},
			{
				"x": 3.3060304602,
				"y": 2.6914420415,
				"z": 3.6229901328,
				"element": "H" 
			},
			{
				"x": 1.2103581398,
				"y": 1.3563176819,
				"z": 3.4215022765,
				"element": "H" 
			},
			{
				"x": 1.2104638583,
				"y": 3.4613203298,
				"z": 4.7860637436,
				"element": "H" 
			},
			{
				"x": 0.6394756187,
				"y": 4.3725532648,
				"z": 3.3819385859,
				"element": "H" 
			},
			{
				"x": -0.390988958,
				"y": 3.1383998904,
				"z": 4.1223992015,
				"element": "H" 
			},
			{
				"x": 0.5316229907,
				"y": 3.1895288829,
				"z": 1.0616443969,
				"element": "H" 
			},
			{
				"x": 1.0659286009,
				"y": 1.5213800603,
				"z": 0.9240450468,
				"element": "H" 
			},
			{
				"x": -1.5309645476,
				"y": 2.488074382,
				"z": 2.2326784879,
				"element": "H" 
			},
			{
				"x": -0.9970286945,
				"y": 0.8059019226,
				"z": 2.2563851867,
				"element": "H" 
			},
			{
				"x": -0.1010381432,
				"y": -0.6356722496,
				"z": 0.9845642996,
				"element": "H" 
			},
			{
				"x": 0.0656990043,
				"y": -2.5471827278,
				"z": -0.5256899944,
				"element": "H" 
			},
			{
				"x": -2.4383444703,
				"y": -0.5678204573,
				"z": -3.3915287944,
				"element": "H" 
			},
			{
				"x": -2.6300475516,
				"y": 1.3944267825,
				"z": -1.8434044073,
				"element": "H" 
			},
			{
				"x": 0.8310794911,
				"y": -3.331540124,
				"z": -2.4707553224,
				"element": "H" 
			},
			{
				"x": -0.3305550278,
				"y": -5.4928247691,
				"z": -3.6097048392,
				"element": "H" 
			},
			{
				"x": -0.2188149847,
				"y": -4.3293835995,
				"z": -4.7313597569,
				"element": "H" 
			}
		],
		 "valence_orbital": [ 
			{
				"type": "occ",
				"energy": -0.28505,
				"method": "rhf"
			},
			{
				"type": "occ",
				"energy": -0.2597,
				"method": "rhf"
			},
			{
				"type": "occ",
				"energy": -0.25458,
				"method": "rhf"
			},
			{
				"type": "occ",
				"energy": -0.24512,
				"method": "rhf"
			},
			{
				"type": "occ",
				"energy": -0.22432,
				"method": "rhf"
			},
			{
				"type": "unocc",
				"energy": -0.02772,
				"method": "rhf"
			},
			{
				"type": "unocc",
				"energy": -0.00875,
				"method": "rhf"
			},
			{
				"type": "unocc",
				"energy": 0.06222,
				"method": "rhf"
			},
			{
				"type": "unocc",
				"energy": 0.06702,
				"method": "rhf"
			},
			{
				"type": "unocc",
				"energy": 0.0916,
				"method": "rhf"
			}
		],
		"cosmo_sigma_profile": { 
			"-0.025": 0.0,
			"-0.024": 0.0,
			"-0.023": 0.0,
			"-0.022": 0.0,
			"-0.021": 0.0,
			"-0.02": 0.0,
			"-0.019": 0.0,
			"-0.018": 0.0,
			"-0.017": 0.0,
			"-0.016": 0.0,
			"-0.015": 0.0,
			"-0.014": 0.519993639163,
			"-0.013": 0.89900981582,
			"-0.012": 1.49934224906,
			"-0.011": 2.56188268538,
			"-0.01": 2.42051907356,
			"-0.009": 3.58952857863,
			"-0.008": 4.47278581819,
			"-0.007": 5.30768349705,
			"-0.006": 8.7684654201,
			"-0.005": 13.0591118534,
			"-0.004": 15.1122413413,
			"-0.003": 22.642815741,
			"-0.002": 34.5775198973,
			"-0.001": 27.7513952827,
			"0.0": 26.7402443679,
			"0.001": 28.1450699308,
			"0.002": 20.2169690595,
			"0.003": 14.5860633779,
			"0.004": 16.7022258611,
			"0.005": 7.21026700206,
			"0.006": 3.7229424393,
			"0.007": 3.53548865496,
			"0.008": 4.06973371412,
			"0.009": 2.84023887902,
			"0.01": 2.86813572573,
			"0.011": 2.13807960784,
			"0.012": 2.94778307023,
			"0.013": 4.50227344109,
			"0.014": 3.19893483014,
			"0.015": 0.7213368737,
			"0.016": 0.467380622385,
			"0.017": 0.365601988471,
			"0.018": 0.0,
			"0.019": 0.0,
			"0.02": 0.0,
			"0.021": 0.0,
			"0.022": 0.0,
			"0.023": 0.0,
			"0.024": 0.0,
			"0.025": 0.0
		}
	}
}
