{
	 "smiles": "ON=C1CCN(CC2=NC=CC=C2)CC1", 
	 "Tm": 335.15, 
	 "num_atms": 30, 
	 "gaussian": { 
		 "optdone": 1, 
		 "sigma_profile": "yes", 
		 "theory": "DFT", 
		 "functional": "B3LYP", 
		 "basiset": "6-31G**", 
		 "properties": { 
			 "R2extent": 3482.5803, 
			 "electric_dipole_moment_norm": 2.36657156452, 
			 "electric_quadrupole_moment_norm": 4.10829697807, 
			 "total_energy": -667.613122045, 
			 "HOMO_LUMO_gap": 0.16469, 
			 "cosmo_polarized_energy": -12.1, 
			 "cosmo_cavitation_energy": 31.97, 
			 "cosmo_dispersion_energy": -22.74, 
			 "cosmo_repulsion_energy": 1.8, 
			 "cosmo_total_nonelectrostatic_energy": 11.03, 
			 "SMD_solvation_energy": 1.81 
		},
		"coords": [
			{
				"x": -0.3576763588,
				"y": 0.7847552351,
				"z": 3.797090847,
				"element": "O" 
			},
			{
				"x": -0.3193483454,
				"y": -0.6023359417,
				"z": 3.5132986104,
				"element": "N" 
			},
			{
				"x": 0.3919987794,
				"y": -0.8408378185,
				"z": 2.476433088,
				"element": "C" 
			},
			{
				"x": 1.087983199,
				"y": 0.1972411369,
				"z": 1.6275631367,
				"element": "C" 
			},
			{
				"x": 2.0893653587,
				"y": -0.4791289606,
				"z": 0.6768062958,
				"element": "C" 
			},
			{
				"x": 1.5278928256,
				"y": -1.5708101387,
				"z": -0.1313298898,
				"element": "N" 
			},
			{
				"x": 1.3540384182,
				"y": -1.2975926266,
				"z": -1.5578195633,
				"element": "C" 
			},
			{
				"x": 0.3655481634,
				"y": -0.1953974766,
				"z": -1.9175807574,
				"element": "C" 
			},
			{
				"x": -0.9434886957,
				"y": -0.5025979082,
				"z": -1.8375358849,
				"element": "N" 
			},
			{
				"x": -1.8355326274,
				"y": 0.4572739192,
				"z": -2.1055263299,
				"element": "C" 
			},
			{
				"x": -1.489651448,
				"y": 1.7581990922,
				"z": -2.4750098189,
				"element": "C" 
			},
			{
				"x": -0.1355824415,
				"y": 2.0745146846,
				"z": -2.5689754702,
				"element": "C" 
			},
			{
				"x": 0.804138395,
				"y": 1.084684226,
				"z": -2.2857202405,
				"element": "C" 
			},
			{
				"x": 0.4224363121,
				"y": -2.322117217,
				"z": 0.4838893289,
				"element": "C" 
			},
			{
				"x": 0.5187986862,
				"y": -2.2720742373,
				"z": 2.0145583466,
				"element": "C" 
			},
			{
				"x": -0.9030478771,
				"y": 0.8066289231,
				"z": 4.5938498526,
				"element": "H" 
			},
			{
				"x": 1.5892106952,
				"y": 0.9289568434,
				"z": 2.2710231639,
				"element": "H" 
			},
			{
				"x": 0.3302608455,
				"y": 0.7564648848,
				"z": 1.062730409,
				"element": "H" 
			},
			{
				"x": 2.9260909279,
				"y": -0.8670581506,
				"z": 1.2771997828,
				"element": "H" 
			},
			{
				"x": 2.5214124631,
				"y": 0.269310958,
				"z": 0.0060547358,
				"element": "H" 
			},
			{
				"x": 1.0193799618,
				"y": -2.2273313408,
				"z": -2.0318594818,
				"element": "H" 
			},
			{
				"x": 2.3347927314,
				"y": -1.0493737984,
				"z": -1.9823582888,
				"element": "H" 
			},
			{
				"x": -2.882994231,
				"y": 0.1695746413,
				"z": -2.0280701186,
				"element": "H" 
			},
			{
				"x": -2.2597630694,
				"y": 2.4929154793,
				"z": -2.6874237622,
				"element": "H" 
			},
			{
				"x": 0.183301415,
				"y": 3.0712355612,
				"z": -2.8611715938,
				"element": "H" 
			},
			{
				"x": 1.8676393289,
				"y": 1.2936732023,
				"z": -2.3578967095,
				"element": "H" 
			},
			{
				"x": -0.5605825452,
				"y": -1.9355235937,
				"z": 0.1773165579,
				"element": "H" 
			},
			{
				"x": 0.4743312234,
				"y": -3.3642351887,
				"z": 0.138834571,
				"element": "H" 
			},
			{
				"x": 1.4882568046,
				"y": -2.6831705181,
				"z": 2.3295831642,
				"element": "H" 
			},
			{
				"x": -0.2610088947,
				"y": -2.8830438718,
				"z": 2.475746019,
				"element": "H" 
			}
		],
		 "valence_orbital": [ 
			{
				"type": "occ",
				"energy": -0.26107,
				"method": "rhf"
			},
			{
				"type": "occ",
				"energy": -0.25861,
				"method": "rhf"
			},
			{
				"type": "occ",
				"energy": -0.25665,
				"method": "rhf"
			},
			{
				"type": "occ",
				"energy": -0.23518,
				"method": "rhf"
			},
			{
				"type": "occ",
				"energy": -0.19204,
				"method": "rhf"
			},
			{
				"type": "unocc",
				"energy": -0.02735,
				"method": "rhf"
			},
			{
				"type": "unocc",
				"energy": -0.01255,
				"method": "rhf"
			},
			{
				"type": "unocc",
				"energy": 0.01853,
				"method": "rhf"
			},
			{
				"type": "unocc",
				"energy": 0.08362,
				"method": "rhf"
			},
			{
				"type": "unocc",
				"energy": 0.08666,
				"method": "rhf"
			}
		],
		"cosmo_sigma_profile": { 
			"-0.025": 0.0,
			"-0.024": 0.0,
			"-0.023": 0.0,
			"-0.022": 0.0,
			"-0.021": 0.0,
			"-0.02": 0.0,
			"-0.019": 0.0,
			"-0.018": 0.0,
			"-0.017": 0.286683893419,
			"-0.016": 0.950995084426,
			"-0.015": 1.10349352819,
			"-0.014": 0.656892146005,
			"-0.013": 0.587436069081,
			"-0.012": 0.604501285094,
			"-0.011": 0.729848567696,
			"-0.01": 1.2004824052,
			"-0.009": 0.347003811214,
			"-0.008": 0.558327209868,
			"-0.007": 3.55598199795,
			"-0.006": 11.514095204,
			"-0.005": 14.5411316976,
			"-0.004": 21.2397803693,
			"-0.003": 24.2619104164,
			"-0.002": 28.1912592695,
			"-0.001": 26.8591492848,
			"0.0": 17.8584932498,
			"0.001": 13.9108558761,
			"0.002": 15.2775715163,
			"0.003": 15.644544027,
			"0.004": 7.36199123777,
			"0.005": 6.61454974873,
			"0.006": 5.43240580575,
			"0.007": 6.46747045645,
			"0.008": 5.74728283423,
			"0.009": 5.29626026111,
			"0.01": 4.24779036917,
			"0.011": 2.93330573815,
			"0.012": 2.2349695732,
			"0.013": 2.28006696299,
			"0.014": 1.82163458024,
			"0.015": 0.658966937104,
			"0.016": 0.1538548781,
			"0.017": 0.0,
			"0.018": 0.0,
			"0.019": 0.0,
			"0.02": 0.0,
			"0.021": 0.0,
			"0.022": 0.0,
			"0.023": 0.0,
			"0.024": 0.0,
			"0.025": 0.0
		}
	}
}
