{
	 "smiles": "CC1=NC2=CC=CC=C2C1(C)C", 
	 "Tm": 280.15, 
	 "num_atms": 25, 
	 "gaussian": { 
		 "optdone": 1, 
		 "sigma_profile": "yes", 
		 "theory": "DFT", 
		 "functional": "B3LYP", 
		 "basiset": "6-31G**", 
		 "properties": { 
			 "R2extent": 2164.9659, 
			 "electric_dipole_moment_norm": 2.328417396, 
			 "electric_quadrupole_moment_norm": 7.15073049975, 
			 "total_energy": -481.766019481, 
			 "HOMO_LUMO_gap": 0.19427, 
			 "cosmo_polarized_energy": -7.65, 
			 "cosmo_cavitation_energy": 27.19, 
			 "cosmo_dispersion_energy": -19.3, 
			 "cosmo_repulsion_energy": 1.52, 
			 "cosmo_total_nonelectrostatic_energy": 9.41, 
			 "SMD_solvation_energy": 2.92 
		},
		"coords": [
			{
				"x": 2.0696627565,
				"y": -2.1969969182,
				"z": -2.1338761529,
				"element": "C" 
			},
			{
				"x": 1.0438469783,
				"y": -1.4521896183,
				"z": -1.3393748259,
				"element": "C" 
			},
			{
				"x": 0.2432532043,
				"y": -0.5983923518,
				"z": -1.885220751,
				"element": "N" 
			},
			{
				"x": -0.5860399074,
				"y": -0.0871147888,
				"z": -0.8536638701,
				"element": "C" 
			},
			{
				"x": -1.5951110385,
				"y": 0.8611641202,
				"z": -0.9955326227,
				"element": "C" 
			},
			{
				"x": -2.3054808946,
				"y": 1.2377929581,
				"z": 0.1497746122,
				"element": "C" 
			},
			{
				"x": -2.0088157014,
				"y": 0.6774567601,
				"z": 1.3967084822,
				"element": "C" 
			},
			{
				"x": -0.9898541678,
				"y": -0.2775815478,
				"z": 1.5292610479,
				"element": "C" 
			},
			{
				"x": -0.2828685104,
				"y": -0.6539577423,
				"z": 0.3957918715,
				"element": "C" 
			},
			{
				"x": 0.8540089393,
				"y": -1.634640104,
				"z": 0.1788135246,
				"element": "C" 
			},
			{
				"x": 2.1272932409,
				"y": -1.2333847658,
				"z": 0.9551274353,
				"element": "C" 
			},
			{
				"x": 0.4478065729,
				"y": -3.0843676746,
				"z": 0.5227382031,
				"element": "C" 
			},
			{
				"x": 3.0826033914,
				"y": -1.99682762,
				"z": -1.7632726978,
				"element": "H" 
			},
			{
				"x": 1.9176939527,
				"y": -3.2811381998,
				"z": -2.0632883092,
				"element": "H" 
			},
			{
				"x": 2.0115937634,
				"y": -1.8994463196,
				"z": -3.1821530881,
				"element": "H" 
			},
			{
				"x": -1.8150677235,
				"y": 1.2880035019,
				"z": -1.9688633314,
				"element": "H" 
			},
			{
				"x": -3.0987949714,
				"y": 1.975788278,
				"z": 0.0702803987,
				"element": "H" 
			},
			{
				"x": -2.5737410505,
				"y": 0.9853197333,
				"z": 2.2719001303,
				"element": "H" 
			},
			{
				"x": -0.7670904557,
				"y": -0.7071363561,
				"z": 2.5032204555,
				"element": "H" 
			},
			{
				"x": 1.9442814398,
				"y": -1.2817056423,
				"z": 2.0335743477,
				"element": "H" 
			},
			{
				"x": 2.4353353637,
				"y": -0.2126658751,
				"z": 0.7103616406,
				"element": "H" 
			},
			{
				"x": 2.9573474578,
				"y": -1.9105799946,
				"z": 0.726613071,
				"element": "H" 
			},
			{
				"x": 1.2562293341,
				"y": -3.785617765,
				"z": 0.2892649,
				"element": "H" 
			},
			{
				"x": -0.4450670542,
				"y": -3.3877161352,
				"z": -0.0317196442,
				"element": "H" 
			},
			{
				"x": 0.2278750802,
				"y": -3.1724659323,
				"z": 1.5917351726,
				"element": "H" 
			}
		],
		 "valence_orbital": [ 
			{
				"type": "occ",
				"energy": -0.3212,
				"method": "rhf"
			},
			{
				"type": "occ",
				"energy": -0.31456,
				"method": "rhf"
			},
			{
				"type": "occ",
				"energy": -0.25393,
				"method": "rhf"
			},
			{
				"type": "occ",
				"energy": -0.24284,
				"method": "rhf"
			},
			{
				"type": "occ",
				"energy": -0.22037,
				"method": "rhf"
			},
			{
				"type": "unocc",
				"energy": -0.0261,
				"method": "rhf"
			},
			{
				"type": "unocc",
				"energy": 0.00252,
				"method": "rhf"
			},
			{
				"type": "unocc",
				"energy": 0.04607,
				"method": "rhf"
			},
			{
				"type": "unocc",
				"energy": 0.0758,
				"method": "rhf"
			},
			{
				"type": "unocc",
				"energy": 0.10456,
				"method": "rhf"
			}
		],
		"cosmo_sigma_profile": { 
			"-0.025": 0.0,
			"-0.024": 0.0,
			"-0.023": 0.0,
			"-0.022": 0.0,
			"-0.021": 0.0,
			"-0.02": 0.0,
			"-0.019": 0.0,
			"-0.018": 0.0,
			"-0.017": 0.0,
			"-0.016": 0.0,
			"-0.015": 0.0,
			"-0.014": 0.0,
			"-0.013": 0.0,
			"-0.012": 0.0,
			"-0.011": 0.0,
			"-0.01": 0.0,
			"-0.009": 0.0,
			"-0.008": 0.0,
			"-0.007": 0.0,
			"-0.006": 2.29505163415,
			"-0.005": 11.8320802514,
			"-0.004": 27.9088509834,
			"-0.003": 28.6725877736,
			"-0.002": 24.6608065354,
			"-0.001": 23.1378568786,
			"0.0": 22.8482482453,
			"0.001": 13.2244568725,
			"0.002": 8.51933050382,
			"0.003": 8.33482023206,
			"0.004": 10.4926684183,
			"0.005": 10.6587394347,
			"0.006": 9.10600771492,
			"0.007": 2.56596330967,
			"0.008": 1.72022980119,
			"0.009": 1.04920385822,
			"0.01": 1.07889518451,
			"0.011": 0.854905556296,
			"0.012": 1.12456240245,
			"0.013": 1.1047098017,
			"0.014": 0.668499531113,
			"0.015": 0.974290021236,
			"0.016": 0.727914003546,
			"0.017": 0.757574936724,
			"0.018": 0.013471707072,
			"0.019": 0.0,
			"0.02": 0.0,
			"0.021": 0.0,
			"0.022": 0.0,
			"0.023": 0.0,
			"0.024": 0.0,
			"0.025": 0.0
		}
	}
}
