{
	 "smiles": "OC(=O)C1=CN=C(S1)C1=C(F)C=CC=C1", 
	 "Tm": 461.15, 
	 "num_atms": 21, 
	 "gaussian": { 
		 "optdone": 1, 
		 "sigma_profile": "yes", 
		 "theory": "DFT", 
		 "functional": "B3LYP", 
		 "basiset": "6-31G**", 
		 "properties": { 
			 "R2extent": 4998.0443, 
			 "electric_dipole_moment_norm": 6.01661903896, 
			 "electric_quadrupole_moment_norm": 23.5636186841, 
			 "total_energy": -1087.9026557, 
			 "HOMO_LUMO_gap": 0.15786, 
			 "cosmo_polarized_energy": -13.95, 
			 "cosmo_cavitation_energy": 28.28, 
			 "cosmo_dispersion_energy": -21.51, 
			 "cosmo_repulsion_energy": 1.59, 
			 "cosmo_total_nonelectrostatic_energy": 8.36, 
			 "SMD_solvation_energy": 5.06 
		},
		"coords": [
			{
				"x": -3.1396014356,
				"y": -4.6154880428,
				"z": -1.1766099131,
				"element": "O" 
			},
			{
				"x": -1.8901093386,
				"y": -4.7182722198,
				"z": -0.6531585637,
				"element": "C" 
			},
			{
				"x": -1.4536243499,
				"y": -5.7994495385,
				"z": -0.3332278773,
				"element": "O" 
			},
			{
				"x": -1.1028069734,
				"y": -3.4741201085,
				"z": -0.4948442462,
				"element": "C" 
			},
			{
				"x": 0.1711795872,
				"y": -3.4281633698,
				"z": 0.0208142923,
				"element": "C" 
			},
			{
				"x": 0.7508891349,
				"y": -2.2015567247,
				"z": 0.0960774068,
				"element": "N" 
			},
			{
				"x": -0.0428513211,
				"y": -1.25518844,
				"z": -0.3540078637,
				"element": "C" 
			},
			{
				"x": -1.6046375487,
				"y": -1.8572743712,
				"z": -0.9142047969,
				"element": "S" 
			},
			{
				"x": 0.3473844551,
				"y": 0.1560517118,
				"z": -0.3806863593,
				"element": "C" 
			},
			{
				"x": -0.4781668015,
				"y": 1.1839879374,
				"z": -0.8545216452,
				"element": "C" 
			},
			{
				"x": -1.7118840082,
				"y": 0.8738304787,
				"z": -1.3186703676,
				"element": "F" 
			},
			{
				"x": -0.0899409048,
				"y": 2.5158385649,
				"z": -0.8715394726,
				"element": "C" 
			},
			{
				"x": 1.1770013581,
				"y": 2.8525446779,
				"z": -0.3972757099,
				"element": "C" 
			},
			{
				"x": 2.0316635023,
				"y": 1.8550666113,
				"z": 0.0844524617,
				"element": "C" 
			},
			{
				"x": 1.6225601821,
				"y": 0.5270390115,
				"z": 0.0924125465,
				"element": "C" 
			},
			{
				"x": -3.368433379,
				"y": -3.6995278284,
				"z": -1.3897569541,
				"element": "H" 
			},
			{
				"x": 0.7058053532,
				"y": -4.3085171051,
				"z": 0.3561470283,
				"element": "H" 
			},
			{
				"x": -0.7805417839,
				"y": 3.259836178,
				"z": -1.2526372087,
				"element": "H" 
			},
			{
				"x": 1.494091519,
				"y": 3.8906634177,
				"z": -0.4046528393,
				"element": "H" 
			},
			{
				"x": 3.0182093977,
				"y": 2.1154874984,
				"z": 0.4540355027,
				"element": "H" 
			},
			{
				"x": 2.2713133552,
				"y": -0.2586883389,
				"z": 0.4618545792,
				"element": "H" 
			}
		],
		 "valence_orbital": [ 
			{
				"type": "occ",
				"energy": -0.29878,
				"method": "rhf"
			},
			{
				"type": "occ",
				"energy": -0.29492,
				"method": "rhf"
			},
			{
				"type": "occ",
				"energy": -0.2803,
				"method": "rhf"
			},
			{
				"type": "occ",
				"energy": -0.27031,
				"method": "rhf"
			},
			{
				"type": "occ",
				"energy": -0.24349,
				"method": "rhf"
			},
			{
				"type": "unocc",
				"energy": -0.08563,
				"method": "rhf"
			},
			{
				"type": "unocc",
				"energy": -0.02962,
				"method": "rhf"
			},
			{
				"type": "unocc",
				"energy": -0.01678,
				"method": "rhf"
			},
			{
				"type": "unocc",
				"energy": -0.01182,
				"method": "rhf"
			},
			{
				"type": "unocc",
				"energy": 0.02916,
				"method": "rhf"
			}
		],
		"cosmo_sigma_profile": { 
			"-0.025": 0.0,
			"-0.024": 0.0,
			"-0.023": 0.0,
			"-0.022": 0.0,
			"-0.021": 0.0,
			"-0.02": 0.0,
			"-0.019": 0.304589465057,
			"-0.018": 0.597306509302,
			"-0.017": 0.957624112471,
			"-0.016": 1.13632994488,
			"-0.015": 0.70180522651,
			"-0.014": 1.23202500887,
			"-0.013": 1.17658819761,
			"-0.012": 0.962338294266,
			"-0.011": 0.608256731741,
			"-0.01": 1.46019491471,
			"-0.009": 1.52632082108,
			"-0.008": 4.02805757785,
			"-0.007": 7.41985405265,
			"-0.006": 10.8279683041,
			"-0.005": 11.1446196026,
			"-0.004": 10.2537454984,
			"-0.003": 11.827163946,
			"-0.002": 14.839378892,
			"-0.001": 20.9031514501,
			"0.0": 22.6023472827,
			"0.001": 23.0868384859,
			"0.002": 22.7973126623,
			"0.003": 17.1712862489,
			"0.004": 6.34732961743,
			"0.005": 4.03136572374,
			"0.006": 3.44720527183,
			"0.007": 3.79113166513,
			"0.008": 3.97830901737,
			"0.009": 5.0364126552,
			"0.01": 5.69515383872,
			"0.011": 6.43733565424,
			"0.012": 3.56465258302,
			"0.013": 0.695730173386,
			"0.014": 0.0,
			"0.015": 0.0,
			"0.016": 0.0,
			"0.017": 0.0,
			"0.018": 0.0,
			"0.019": 0.0,
			"0.02": 0.0,
			"0.021": 0.0,
			"0.022": 0.0,
			"0.023": 0.0,
			"0.024": 0.0,
			"0.025": 0.0
		}
	}
}
