{
	 "smiles": "CC(C)(C)C1=CSC(N)=N1", 
	 "Tm": 374.15, 
	 "num_atms": 22, 
	 "gaussian": { 
		 "optdone": 1, 
		 "sigma_profile": "yes", 
		 "theory": "DFT", 
		 "functional": "B3LYP", 
		 "basiset": "6-31G**", 
		 "properties": { 
			 "R2extent": 1913.7488, 
			 "electric_dipole_moment_norm": 1.49562536084, 
			 "electric_quadrupole_moment_norm": 10.405016949, 
			 "total_energy": -781.678289654, 
			 "HOMO_LUMO_gap": 0.20714, 
			 "cosmo_polarized_energy": -8.8, 
			 "cosmo_cavitation_energy": 25.75, 
			 "cosmo_dispersion_energy": -19.07, 
			 "cosmo_repulsion_energy": 1.51, 
			 "cosmo_total_nonelectrostatic_energy": 8.2, 
			 "SMD_solvation_energy": 3.49 
		},
		"coords": [
			{
				"x": -0.8989862789,
				"y": 2.0875378351,
				"z": 0.6985343664,
				"element": "C" 
			},
			{
				"x": -1.3270991293,
				"y": 0.8925538724,
				"z": -0.1834039776,
				"element": "C" 
			},
			{
				"x": -1.9339449181,
				"y": 1.4163087532,
				"z": -1.495925079,
				"element": "C" 
			},
			{
				"x": -2.3821863738,
				"y": 0.0529446741,
				"z": 0.5724053865,
				"element": "C" 
			},
			{
				"x": -0.1093954167,
				"y": 0.0190874825,
				"z": -0.4485323073,
				"element": "C" 
			},
			{
				"x": 0.4249919446,
				"y": -0.2952177268,
				"z": -1.6625842342,
				"element": "C" 
			},
			{
				"x": 1.8198055285,
				"y": -1.3369363214,
				"z": -1.4697647023,
				"element": "S" 
			},
			{
				"x": 1.5695625184,
				"y": -1.2434202272,
				"z": 0.2783004795,
				"element": "C" 
			},
			{
				"x": 2.3644035969,
				"y": -1.9575807122,
				"z": 1.1499729554,
				"element": "N" 
			},
			{
				"x": 0.5534470303,
				"y": -0.5218714675,
				"z": 0.6463151388,
				"element": "N" 
			},
			{
				"x": -0.4412528626,
				"y": 1.7367578481,
				"z": 1.6269884067,
				"element": "H" 
			},
			{
				"x": -0.1705030411,
				"y": 2.71820036,
				"z": 0.1775888818,
				"element": "H" 
			},
			{
				"x": -1.7675128127,
				"y": 2.7068420871,
				"z": 0.9498505201,
				"element": "H" 
			},
			{
				"x": -1.2177283671,
				"y": 2.0292969846,
				"z": -2.0536429066,
				"element": "H" 
			},
			{
				"x": -2.2606092514,
				"y": 0.595298591,
				"z": -2.1431498345,
				"element": "H" 
			},
			{
				"x": -2.8086429149,
				"y": 2.0391863601,
				"z": -1.2822661773,
				"element": "H" 
			},
			{
				"x": -2.7259005373,
				"y": -0.7877746029,
				"z": -0.0396562502,
				"element": "H" 
			},
			{
				"x": -1.9630002181,
				"y": -0.3509772595,
				"z": 1.4974867611,
				"element": "H" 
			},
			{
				"x": -3.2523425696,
				"y": 0.6700897962,
				"z": 0.8234838555,
				"element": "H" 
			},
			{
				"x": 0.1084933311,
				"y": 0.0080396844,
				"z": -2.6483499457,
				"element": "H" 
			},
			{
				"x": 2.2436793777,
				"y": -1.6670743382,
				"z": 2.1117718433,
				"element": "H" 
			},
			{
				"x": 3.3307213643,
				"y": -2.0815916728,
				"z": 0.8827768195,
				"element": "H" 
			}
		],
		 "valence_orbital": [ 
			{
				"type": "occ",
				"energy": -0.31665,
				"method": "rhf"
			},
			{
				"type": "occ",
				"energy": -0.30779,
				"method": "rhf"
			},
			{
				"type": "occ",
				"energy": -0.26601,
				"method": "rhf"
			},
			{
				"type": "occ",
				"energy": -0.26435,
				"method": "rhf"
			},
			{
				"type": "occ",
				"energy": -0.20449,
				"method": "rhf"
			},
			{
				"type": "unocc",
				"energy": 0.00265,
				"method": "rhf"
			},
			{
				"type": "unocc",
				"energy": 0.01721,
				"method": "rhf"
			},
			{
				"type": "unocc",
				"energy": 0.06731,
				"method": "rhf"
			},
			{
				"type": "unocc",
				"energy": 0.07554,
				"method": "rhf"
			},
			{
				"type": "unocc",
				"energy": 0.0939,
				"method": "rhf"
			}
		],
		"cosmo_sigma_profile": { 
			"-0.025": 0.0,
			"-0.024": 0.0,
			"-0.023": 0.0,
			"-0.022": 0.0,
			"-0.021": 0.0,
			"-0.02": 0.0,
			"-0.019": 0.0,
			"-0.018": 0.0,
			"-0.017": 0.0,
			"-0.016": 0.0,
			"-0.015": 0.252256552615,
			"-0.014": 1.42685510945,
			"-0.013": 2.52942395363,
			"-0.012": 2.32418147189,
			"-0.011": 2.46973194079,
			"-0.01": 2.55889243493,
			"-0.009": 2.2138877427,
			"-0.008": 1.94529654573,
			"-0.007": 3.34472182962,
			"-0.006": 2.90680463945,
			"-0.005": 3.77464671388,
			"-0.004": 4.03263155312,
			"-0.003": 12.9291293786,
			"-0.002": 22.7443482839,
			"-0.001": 19.0824798635,
			"0.0": 21.0282846328,
			"0.001": 26.7411353771,
			"0.002": 19.6506114571,
			"0.003": 11.3003252941,
			"0.004": 10.9777632003,
			"0.005": 10.534561849,
			"0.006": 5.14053380836,
			"0.007": 3.2656842668,
			"0.008": 2.68171225557,
			"0.009": 2.56388939533,
			"0.01": 1.35788109393,
			"0.011": 1.65271944191,
			"0.012": 1.34694085587,
			"0.013": 0.497083135309,
			"0.014": 0.109788929803,
			"0.015": 0.0,
			"0.016": 0.0,
			"0.017": 0.0,
			"0.018": 0.0,
			"0.019": 0.0,
			"0.02": 0.0,
			"0.021": 0.0,
			"0.022": 0.0,
			"0.023": 0.0,
			"0.024": 0.0,
			"0.025": 0.0
		}
	}
}
