{
	 "smiles": "OC(=O)C1=CC(C(O)=O)=C(C=C1)C(O)=O", 
	 "Tm": 504.15, 
	 "num_atms": 21, 
	 "gaussian": { 
		 "optdone": 1, 
		 "sigma_profile": "yes", 
		 "theory": "DFT", 
		 "functional": "B3LYP", 
		 "basiset": "6-31G**", 
		 "properties": { 
			 "R2extent": 3719.7154, 
			 "electric_dipole_moment_norm": 2.95808698486, 
			 "electric_quadrupole_moment_norm": 30.6396136366, 
			 "total_energy": -797.951917653, 
			 "HOMO_LUMO_gap": 0.18194, 
			 "cosmo_polarized_energy": -21.06, 
			 "cosmo_cavitation_energy": 27.17, 
			 "cosmo_dispersion_energy": -20.0, 
			 "cosmo_repulsion_energy": 1.55, 
			 "cosmo_total_nonelectrostatic_energy": 8.72, 
			 "SMD_solvation_energy": 8.26 
		},
		"coords": [
			{
				"x": 2.0757365001,
				"y": 0.906976718,
				"z": -3.0281825771,
				"element": "O" 
			},
			{
				"x": 2.4554497279,
				"y": 0.413442014,
				"z": -1.8265880283,
				"element": "C" 
			},
			{
				"x": 3.5934121172,
				"y": 0.064697464,
				"z": -1.5900926982,
				"element": "O" 
			},
			{
				"x": 1.3314051676,
				"y": 0.3528782177,
				"z": -0.8488523434,
				"element": "C" 
			},
			{
				"x": 1.596996895,
				"y": -0.1584498933,
				"z": 0.4206801612,
				"element": "C" 
			},
			{
				"x": 0.6042853466,
				"y": -0.2191247007,
				"z": 1.4081725612,
				"element": "C" 
			},
			{
				"x": 1.1180009931,
				"y": -0.7684875679,
				"z": 2.7031569214,
				"element": "C" 
			},
			{
				"x": 0.6668247588,
				"y": -0.0980387127,
				"z": 3.8108816609,
				"element": "O" 
			},
			{
				"x": 1.9252108341,
				"y": -1.6602244849,
				"z": 2.803631742,
				"element": "O" 
			},
			{
				"x": -0.7193974661,
				"y": 0.1869772403,
				"z": 1.0924842952,
				"element": "C" 
			},
			{
				"x": -0.9682827442,
				"y": 0.6666461318,
				"z": -0.2034155706,
				"element": "C" 
			},
			{
				"x": 0.0346135588,
				"y": 0.7756299915,
				"z": -1.1584929888,
				"element": "C" 
			},
			{
				"x": -1.9909718028,
				"y": 0.0623325696,
				"z": 1.9305761042,
				"element": "C" 
			},
			{
				"x": -1.9169429081,
				"y": 0.0553838977,
				"z": 3.2654795439,
				"element": "O" 
			},
			{
				"x": -3.066117526,
				"y": -0.0167172413,
				"z": 1.3779628497,
				"element": "O" 
			},
			{
				"x": 2.8714831553,
				"y": 0.903458437,
				"z": -3.5855405248,
				"element": "H" 
			},
			{
				"x": 2.5975836892,
				"y": -0.5084874233,
				"z": 0.6463854785,
				"element": "H" 
			},
			{
				"x": 1.0569139148,
				"y": -0.5406530921,
				"z": 4.5849323593,
				"element": "H" 
			},
			{
				"x": -1.9893628317,
				"y": 0.9347172036,
				"z": -0.4462887628,
				"element": "H" 
			},
			{
				"x": -0.1876136297,
				"y": 1.1683314376,
				"z": -2.1439555536,
				"element": "H" 
			},
			{
				"x": -1.00232775,
				"y": 0.1732117934,
				"z": 3.5848653701,
				"element": "H" 
			}
		],
		 "valence_orbital": [ 
			{
				"type": "occ",
				"energy": -0.31737,
				"method": "rhf"
			},
			{
				"type": "occ",
				"energy": -0.2957,
				"method": "rhf"
			},
			{
				"type": "occ",
				"energy": -0.29127,
				"method": "rhf"
			},
			{
				"type": "occ",
				"energy": -0.28843,
				"method": "rhf"
			},
			{
				"type": "occ",
				"energy": -0.27385,
				"method": "rhf"
			},
			{
				"type": "unocc",
				"energy": -0.09191,
				"method": "rhf"
			},
			{
				"type": "unocc",
				"energy": -0.06005,
				"method": "rhf"
			},
			{
				"type": "unocc",
				"energy": -0.00686,
				"method": "rhf"
			},
			{
				"type": "unocc",
				"energy": 0.00794,
				"method": "rhf"
			},
			{
				"type": "unocc",
				"energy": 0.04551,
				"method": "rhf"
			}
		],
		"cosmo_sigma_profile": { 
			"-0.025": 0.0,
			"-0.024": 0.0,
			"-0.023": 0.0,
			"-0.022": 0.0,
			"-0.021": 0.0,
			"-0.02": 0.727434240278,
			"-0.019": 1.33744330875,
			"-0.018": 1.88683237271,
			"-0.017": 2.1478632329,
			"-0.016": 1.98053249265,
			"-0.015": 0.595477573108,
			"-0.014": 1.62063597039,
			"-0.013": 1.86793947525,
			"-0.012": 1.44997584912,
			"-0.011": 2.14722679044,
			"-0.01": 2.40881499163,
			"-0.009": 3.03052387404,
			"-0.008": 6.00564653124,
			"-0.007": 7.59854018153,
			"-0.006": 8.88167247068,
			"-0.005": 7.59771209562,
			"-0.004": 10.9711942831,
			"-0.003": 12.2803516289,
			"-0.002": 15.2749121446,
			"-0.001": 19.4692519031,
			"0.0": 16.3073279699,
			"0.001": 11.546433689,
			"0.002": 7.53257652579,
			"0.003": 5.74864906318,
			"0.004": 6.16022052756,
			"0.005": 6.82420534026,
			"0.006": 6.57357915442,
			"0.007": 6.26874650367,
			"0.008": 5.96649456136,
			"0.009": 7.43482638866,
			"0.01": 11.7033252253,
			"0.011": 12.0047084539,
			"0.012": 3.92591021058,
			"0.013": 1.08080317427,
			"0.014": 0.0,
			"0.015": 0.0,
			"0.016": 0.0,
			"0.017": 0.0,
			"0.018": 0.0,
			"0.019": 0.0,
			"0.02": 0.0,
			"0.021": 0.0,
			"0.022": 0.0,
			"0.023": 0.0,
			"0.024": 0.0,
			"0.025": 0.0
		}
	}
}
