{
	 "smiles": "CSCCC=O", 
	 "Tm": 215.15, 
	 "num_atms": 14, 
	 "gaussian": { 
		 "optdone": 1, 
		 "sigma_profile": "yes", 
		 "theory": "DFT", 
		 "functional": "B3LYP", 
		 "basiset": "6-31G**", 
		 "properties": { 
			 "R2extent": 1387.2555, 
			 "electric_dipole_moment_norm": 1.2471725021, 
			 "electric_quadrupole_moment_norm": 11.2607903444, 
			 "total_energy": -630.643635374, 
			 "HOMO_LUMO_gap": 0.19387, 
			 "cosmo_polarized_energy": -8.81, 
			 "cosmo_cavitation_energy": 19.19, 
			 "cosmo_dispersion_energy": -14.29, 
			 "cosmo_repulsion_energy": 1.2, 
			 "cosmo_total_nonelectrostatic_energy": 6.1, 
			 "SMD_solvation_energy": 4.35 
		},
		"coords": [
			{
				"x": 2.6019672533,
				"y": -1.9167843712,
				"z": -1.7103911158,
				"element": "C" 
			},
			{
				"x": 1.9494930983,
				"y": -1.7093234596,
				"z": -0.0169468542,
				"element": "S" 
			},
			{
				"x": 0.8411583556,
				"y": -0.2681195691,
				"z": -0.2482442503,
				"element": "C" 
			},
			{
				"x": -0.4276870952,
				"y": -0.5547595761,
				"z": -1.0696801604,
				"element": "C" 
			},
			{
				"x": -1.3581136072,
				"y": 0.6409018293,
				"z": -1.0765753713,
				"element": "C" 
			},
			{
				"x": -1.7242709765,
				"y": 1.2234319582,
				"z": -2.0725267066,
				"element": "O" 
			},
			{
				"x": 1.8195565765,
				"y": -2.1983365675,
				"z": -2.4189258031,
				"element": "H" 
			},
			{
				"x": 3.1037850487,
				"y": -1.007265441,
				"z": -2.0517338517,
				"element": "H" 
			},
			{
				"x": 3.3352120182,
				"y": -2.7247929884,
				"z": -1.6621197476,
				"element": "H" 
			},
			{
				"x": 1.4142087468,
				"y": 0.552145847,
				"z": -0.6937426025,
				"element": "H" 
			},
			{
				"x": 0.5750337765,
				"y": 0.0394705859,
				"z": 0.7688259121,
				"element": "H" 
			},
			{
				"x": -0.1913541484,
				"y": -0.809061358,
				"z": -2.1061882553,
				"element": "H" 
			},
			{
				"x": -0.9588834821,
				"y": -1.4015646865,
				"z": -0.6148142077,
				"element": "H" 
			},
			{
				"x": -1.6953055644,
				"y": 0.9727577969,
				"z": -0.0663369856,
				"element": "H" 
			}
		],
		 "valence_orbital": [ 
			{
				"type": "occ",
				"energy": -0.36912,
				"method": "rhf"
			},
			{
				"type": "occ",
				"energy": -0.36129,
				"method": "rhf"
			},
			{
				"type": "occ",
				"energy": -0.32005,
				"method": "rhf"
			},
			{
				"type": "occ",
				"energy": -0.25968,
				"method": "rhf"
			},
			{
				"type": "occ",
				"energy": -0.22818,
				"method": "rhf"
			},
			{
				"type": "unocc",
				"energy": -0.03431,
				"method": "rhf"
			},
			{
				"type": "unocc",
				"energy": 0.0384,
				"method": "rhf"
			},
			{
				"type": "unocc",
				"energy": 0.07631,
				"method": "rhf"
			},
			{
				"type": "unocc",
				"energy": 0.08556,
				"method": "rhf"
			},
			{
				"type": "unocc",
				"energy": 0.10347,
				"method": "rhf"
			}
		],
		"cosmo_sigma_profile": { 
			"-0.025": 0.0,
			"-0.024": 0.0,
			"-0.023": 0.0,
			"-0.022": 0.0,
			"-0.021": 0.0,
			"-0.02": 0.0,
			"-0.019": 0.0,
			"-0.018": 0.0,
			"-0.017": 0.0,
			"-0.016": 0.0,
			"-0.015": 0.0,
			"-0.014": 0.0,
			"-0.013": 0.0,
			"-0.012": 0.0,
			"-0.011": 0.0,
			"-0.01": 0.0,
			"-0.009": 0.0,
			"-0.008": 0.344534837342,
			"-0.007": 4.40842983633,
			"-0.006": 15.9313478313,
			"-0.005": 19.322533944,
			"-0.004": 15.6490148009,
			"-0.003": 12.6860152822,
			"-0.002": 13.4189494781,
			"-0.001": 11.2107106598,
			"0.0": 4.6597217666,
			"0.001": 4.77065606222,
			"0.002": 4.3685865399,
			"0.003": 4.28098745072,
			"0.004": 4.4623559005,
			"0.005": 3.84517198525,
			"0.006": 5.55972590352,
			"0.007": 4.4819123806,
			"0.008": 3.90364561016,
			"0.009": 4.47439897224,
			"0.01": 5.18644013785,
			"0.011": 6.16267488649,
			"0.012": 3.11796062846,
			"0.013": 0.402797441545,
			"0.014": 0.0,
			"0.015": 0.0,
			"0.016": 0.0,
			"0.017": 0.0,
			"0.018": 0.0,
			"0.019": 0.0,
			"0.02": 0.0,
			"0.021": 0.0,
			"0.022": 0.0,
			"0.023": 0.0,
			"0.024": 0.0,
			"0.025": 0.0
		}
	}
}
