{
	 "smiles": "BrC1=CC(Br)=C(Br)C=C1Br", 
	 "Tm": 453.15, 
	 "num_atms": 12, 
	 "gaussian": { 
		 "optdone": 1, 
		 "sigma_profile": "yes", 
		 "theory": "DFT", 
		 "functional": "B3LYP", 
		 "basiset": "6-31G**", 
		 "properties": { 
			 "R2extent": 9109.825, 
			 "electric_dipole_moment_norm": 0.0, 
			 "electric_quadrupole_moment_norm": 3.96598448812, 
			 "total_energy": -10515.4464082, 
			 "HOMO_LUMO_gap": 0.20087, 
			 "cosmo_polarized_energy": -3.67, 
			 "cosmo_cavitation_energy": 25.73, 
			 "cosmo_dispersion_energy": -20.59, 
			 "cosmo_repulsion_energy": 1.66, 
			 "cosmo_total_nonelectrostatic_energy": 6.8, 
			 "SMD_solvation_energy": 0.09 
		},
		"coords": [
			{
				"x": -2.1524605346,
				"y": 0.2857027836,
				"z": -5.0752436,
				"element": "Br" 
			},
			{
				"x": -1.4343620705,
				"y": 0.2439820514,
				"z": -3.3198008976,
				"element": "C" 
			},
			{
				"x": -0.1900665719,
				"y": -0.357682439,
				"z": -3.1351632999,
				"element": "C" 
			},
			{
				"x": 0.3921317996,
				"y": -0.4205092679,
				"z": -1.8696788622,
				"element": "C" 
			},
			{
				"x": 2.0873150202,
				"y": -1.2568002054,
				"z": -1.7090069634,
				"element": "Br" 
			},
			{
				"x": -0.2806245043,
				"y": 0.1270006143,
				"z": -0.7714414005,
				"element": "C" 
			},
			{
				"x": 0.4374907862,
				"y": 0.0852751483,
				"z": 0.9839889941,
				"element": "Br" 
			},
			{
				"x": -1.5249172419,
				"y": 0.7286658436,
				"z": -0.9560831756,
				"element": "C" 
			},
			{
				"x": -2.1071235409,
				"y": 0.791491555,
				"z": -2.2215701513,
				"element": "C" 
			},
			{
				"x": -3.8022968777,
				"y": 1.6277861,
				"z": -2.3822505286,
				"element": "Br" 
			},
			{
				"x": 0.3300989263,
				"y": -0.7809325827,
				"z": -3.9842746114,
				"element": "H" 
			},
			{
				"x": -2.0450851904,
				"y": 1.1519203988,
				"z": -0.1069755037,
				"element": "H" 
			}
		],
		 "valence_orbital": [ 
			{
				"type": "occ",
				"energy": -0.29952,
				"method": "rhf"
			},
			{
				"type": "occ",
				"energy": -0.29153,
				"method": "rhf"
			},
			{
				"type": "occ",
				"energy": -0.29046,
				"method": "rhf"
			},
			{
				"type": "occ",
				"energy": -0.2665,
				"method": "rhf"
			},
			{
				"type": "occ",
				"energy": -0.25073,
				"method": "rhf"
			},
			{
				"type": "unocc",
				"energy": -0.04986,
				"method": "rhf"
			},
			{
				"type": "unocc",
				"energy": -0.0466,
				"method": "rhf"
			},
			{
				"type": "unocc",
				"energy": -0.04638,
				"method": "rhf"
			},
			{
				"type": "unocc",
				"energy": -0.01387,
				"method": "rhf"
			},
			{
				"type": "unocc",
				"energy": 0.0075,
				"method": "rhf"
			}
		],
		"cosmo_sigma_profile": { 
			"-0.025": 0.0,
			"-0.024": 0.0,
			"-0.023": 0.0,
			"-0.022": 0.0,
			"-0.021": 0.0,
			"-0.02": 0.0,
			"-0.019": 0.0,
			"-0.018": 0.0,
			"-0.017": 0.0,
			"-0.016": 0.0,
			"-0.015": 0.0,
			"-0.014": 0.0,
			"-0.013": 0.0,
			"-0.012": 0.0,
			"-0.011": 0.0,
			"-0.01": 0.0,
			"-0.009": 1.62306771993,
			"-0.008": 2.8083494325,
			"-0.007": 3.19110476923,
			"-0.006": 5.25460367479,
			"-0.005": 9.20459114286,
			"-0.004": 9.8657921907,
			"-0.003": 10.7769385932,
			"-0.002": 14.5781357494,
			"-0.001": 33.4183316733,
			"0.0": 27.4463730118,
			"0.001": 19.6629078196,
			"0.002": 23.9682734499,
			"0.003": 35.8280230234,
			"0.004": 20.0104686298,
			"0.005": 3.01697592858,
			"0.006": 0.0,
			"0.007": 0.0,
			"0.008": 0.0,
			"0.009": 0.0,
			"0.01": 0.0,
			"0.011": 0.0,
			"0.012": 0.0,
			"0.013": 0.0,
			"0.014": 0.0,
			"0.015": 0.0,
			"0.016": 0.0,
			"0.017": 0.0,
			"0.018": 0.0,
			"0.019": 0.0,
			"0.02": 0.0,
			"0.021": 0.0,
			"0.022": 0.0,
			"0.023": 0.0,
			"0.024": 0.0,
			"0.025": 0.0
		}
	}
}
