{
	 "smiles": "NS(=O)(=O)C1=C(Cl)C=C2N=CNS(=O)(=O)C2=C1", 
	 "Tm": 615.15, 
	 "num_atms": 23, 
	 "gaussian": { 
		 "optdone": 1, 
		 "sigma_profile": "yes", 
		 "theory": "DFT", 
		 "functional": "B3LYP", 
		 "basiset": "6-31G**", 
		 "properties": { 
			 "R2extent": 5562.8519, 
			 "electric_dipole_moment_norm": 7.71307174801, 
			 "electric_quadrupole_moment_norm": 14.5377532776, 
			 "total_energy": -1991.9119624, 
			 "HOMO_LUMO_gap": 0.17974, 
			 "cosmo_polarized_energy": -29.21, 
			 "cosmo_cavitation_energy": 32.15, 
			 "cosmo_dispersion_energy": -24.94, 
			 "cosmo_repulsion_energy": 1.82, 
			 "cosmo_total_nonelectrostatic_energy": 9.03, 
			 "SMD_solvation_energy": 2.92 
		},
		"coords": [
			{
				"x": 3.01763564,
				"y": -2.3537141361,
				"z": 0.2731020729,
				"element": "N" 
			},
			{
				"x": 1.3809136246,
				"y": -2.6535705856,
				"z": 0.1725207861,
				"element": "S" 
			},
			{
				"x": 0.8990896775,
				"y": -2.7156856526,
				"z": 1.5499441093,
				"element": "O" 
			},
			{
				"x": 1.2055172255,
				"y": -3.7461660719,
				"z": -0.7750524991,
				"element": "O" 
			},
			{
				"x": 0.6129378209,
				"y": -1.1722505905,
				"z": -0.5434915594,
				"element": "C" 
			},
			{
				"x": 0.9035355106,
				"y": -0.6608745647,
				"z": -1.8231725024,
				"element": "C" 
			},
			{
				"x": 2.1270136945,
				"y": -1.386584189,
				"z": -2.844897103,
				"element": "Cl" 
			},
			{
				"x": 0.2490264101,
				"y": 0.4614757853,
				"z": -2.3093949128,
				"element": "C" 
			},
			{
				"x": -0.7340476534,
				"y": 1.1154623481,
				"z": -1.5446934914,
				"element": "C" 
			},
			{
				"x": -1.2872520043,
				"y": 2.2732489713,
				"z": -2.0793023574,
				"element": "N" 
			},
			{
				"x": -1.9942278252,
				"y": 3.0403923868,
				"z": -1.3245995303,
				"element": "C" 
			},
			{
				"x": -2.3092040485,
				"y": 2.8251581464,
				"z": -0.0013444793,
				"element": "N" 
			},
			{
				"x": -2.3748924588,
				"y": 1.2394891036,
				"z": 0.6662296361,
				"element": "S" 
			},
			{
				"x": -2.0464797269,
				"y": 1.3586117276,
				"z": 2.0828785297,
				"element": "O" 
			},
			{
				"x": -3.6325578339,
				"y": 0.618645719,
				"z": 0.2584230348,
				"element": "O" 
			},
			{
				"x": -1.0308788117,
				"y": 0.5730290551,
				"z": -0.2735941532,
				"element": "C" 
			},
			{
				"x": -0.3661394661,
				"y": -0.5458742485,
				"z": 0.2238644582,
				"element": "C" 
			},
			{
				"x": 3.2582509864,
				"y": -1.6376694913,
				"z": 0.9500874111,
				"element": "H" 
			},
			{
				"x": 3.4750055555,
				"y": -2.2576686288,
				"z": -0.6274732762,
				"element": "H" 
			},
			{
				"x": 0.4891494016,
				"y": 0.8656775782,
				"z": -3.2854175853,
				"element": "H" 
			},
			{
				"x": -2.3564497317,
				"y": 3.9852689857,
				"z": -1.7283493797,
				"element": "H" 
			},
			{
				"x": -2.8843175021,
				"y": 3.501950901,
				"z": 0.4896195008,
				"element": "H" 
			},
			{
				"x": -0.5934284846,
				"y": -0.9397525491,
				"z": 1.2090132906,
				"element": "H" 
			}
		],
		 "valence_orbital": [ 
			{
				"type": "occ",
				"energy": -0.31648,
				"method": "rhf"
			},
			{
				"type": "occ",
				"energy": -0.31282,
				"method": "rhf"
			},
			{
				"type": "occ",
				"energy": -0.3062,
				"method": "rhf"
			},
			{
				"type": "occ",
				"energy": -0.28875,
				"method": "rhf"
			},
			{
				"type": "occ",
				"energy": -0.26827,
				"method": "rhf"
			},
			{
				"type": "unocc",
				"energy": -0.08853,
				"method": "rhf"
			},
			{
				"type": "unocc",
				"energy": -0.0631,
				"method": "rhf"
			},
			{
				"type": "unocc",
				"energy": -0.01374,
				"method": "rhf"
			},
			{
				"type": "unocc",
				"energy": -0.00698,
				"method": "rhf"
			},
			{
				"type": "unocc",
				"energy": 0.02137,
				"method": "rhf"
			}
		],
		"cosmo_sigma_profile": { 
			"-0.025": 0.0,
			"-0.024": 0.0,
			"-0.023": 0.0,
			"-0.022": 0.0,
			"-0.021": 0.0,
			"-0.02": 0.0,
			"-0.019": 0.571008927745,
			"-0.018": 2.54417265834,
			"-0.017": 1.99084998336,
			"-0.016": 2.61818298094,
			"-0.015": 2.11524935014,
			"-0.014": 3.16878339941,
			"-0.013": 3.99161498214,
			"-0.012": 4.07895111426,
			"-0.011": 4.86911803562,
			"-0.01": 4.61717265538,
			"-0.009": 5.9506648699,
			"-0.008": 5.63686624893,
			"-0.007": 7.02555311735,
			"-0.006": 5.26038966184,
			"-0.005": 7.00507272558,
			"-0.004": 12.2653575231,
			"-0.003": 15.9122754459,
			"-0.002": 22.8563371851,
			"-0.001": 17.7444618704,
			"0.0": 11.1359335058,
			"0.001": 11.2022453439,
			"0.002": 11.869174557,
			"0.003": 8.00982185382,
			"0.004": 6.50883880528,
			"0.005": 6.91031689213,
			"0.006": 8.53447172046,
			"0.007": 10.2696943196,
			"0.008": 8.588589897,
			"0.009": 19.3686774177,
			"0.01": 19.2132970236,
			"0.011": 7.35518821823,
			"0.012": 0.77402377967,
			"0.013": 0.860346204241,
			"0.014": 0.0522210819418,
			"0.015": 0.0,
			"0.016": 0.0,
			"0.017": 0.0,
			"0.018": 0.0,
			"0.019": 0.0,
			"0.02": 0.0,
			"0.021": 0.0,
			"0.022": 0.0,
			"0.023": 0.0,
			"0.024": 0.0,
			"0.025": 0.0
		}
	}
}
