{
	 "smiles": "OC(=O)C1COC2=C(C1)C=C(Cl)C=C2", 
	 "Tm": 359.15, 
	 "num_atms": 23, 
	 "gaussian": { 
		 "optdone": 1, 
		 "sigma_profile": "yes", 
		 "theory": "DFT", 
		 "functional": "B3LYP", 
		 "basiset": "6-31G**", 
		 "properties": { 
			 "R2extent": 3553.1937, 
			 "electric_dipole_moment_norm": 2.56951036775, 
			 "electric_quadrupole_moment_norm": 14.2946175493, 
			 "total_energy": -1072.36438645, 
			 "HOMO_LUMO_gap": 0.20055, 
			 "cosmo_polarized_energy": -12.78, 
			 "cosmo_cavitation_energy": 28.35, 
			 "cosmo_dispersion_energy": -20.96, 
			 "cosmo_repulsion_energy": 1.66, 
			 "cosmo_total_nonelectrostatic_energy": 9.05, 
			 "SMD_solvation_energy": 5.55 
		},
		"coords": [
			{
				"x": -2.4383817112,
				"y": -1.1169352855,
				"z": 1.9948393155,
				"element": "O" 
			},
			{
				"x": -2.8333814585,
				"y": -0.6771093233,
				"z": 0.7792429501,
				"element": "C" 
			},
			{
				"x": -3.6526631837,
				"y": -1.2635928093,
				"z": 0.1077430898,
				"element": "O" 
			},
			{
				"x": -2.1910207163,
				"y": 0.650587255,
				"z": 0.3800362303,
				"element": "C" 
			},
			{
				"x": -1.9546022886,
				"y": 0.6751016417,
				"z": -1.1327249792,
				"element": "C" 
			},
			{
				"x": -0.9531500444,
				"y": -0.2616389446,
				"z": -1.532743959,
				"element": "O" 
			},
			{
				"x": 0.1890779554,
				"y": -0.3168229584,
				"z": -0.7795058646,
				"element": "C" 
			},
			{
				"x": 0.2925941977,
				"y": 0.2569612903,
				"z": 0.4978997937,
				"element": "C" 
			},
			{
				"x": -0.8803673476,
				"y": 1.0006033866,
				"z": 1.1030824712,
				"element": "C" 
			},
			{
				"x": 1.4984342275,
				"y": 0.1197741838,
				"z": 1.195390194,
				"element": "C" 
			},
			{
				"x": 2.5668196002,
				"y": -0.5699209875,
				"z": 0.6324120966,
				"element": "C" 
			},
			{
				"x": 4.0722445248,
				"y": -0.7241583853,
				"z": 1.5330033969,
				"element": "Cl" 
			},
			{
				"x": 2.4584925837,
				"y": -1.1477453447,
				"z": -0.6340224439,
				"element": "C" 
			},
			{
				"x": 1.2655133639,
				"y": -1.0183888641,
				"z": -1.3356375129,
				"element": "C" 
			},
			{
				"x": -2.9247176491,
				"y": -1.943854415,
				"z": 2.1535692481,
				"element": "H" 
			},
			{
				"x": -2.9485043584,
				"y": 1.411831793,
				"z": 0.6113272178,
				"element": "H" 
			},
			{
				"x": -1.6539367961,
				"y": 1.6864706126,
				"z": -1.4390569658,
				"element": "H" 
			},
			{
				"x": -2.8561844354,
				"y": 0.3853830351,
				"z": -1.6725506036,
				"element": "H" 
			},
			{
				"x": -0.9574493668,
				"y": 0.7807557721,
				"z": 2.1704813738,
				"element": "H" 
			},
			{
				"x": -0.7183976488,
				"y": 2.0829184867,
				"z": 1.0146597636,
				"element": "H" 
			},
			{
				"x": 1.5964170933,
				"y": 0.5501407927,
				"z": 2.1872861159,
				"element": "H" 
			},
			{
				"x": 3.2954404596,
				"y": -1.6879600319,
				"z": -1.0620490585,
				"element": "H" 
			},
			{
				"x": 1.1457229988,
				"y": -1.4551009,
				"z": -2.3214818699,
				"element": "H" 
			}
		],
		 "valence_orbital": [ 
			{
				"type": "occ",
				"energy": -0.30759,
				"method": "rhf"
			},
			{
				"type": "occ",
				"energy": -0.30062,
				"method": "rhf"
			},
			{
				"type": "occ",
				"energy": -0.28459,
				"method": "rhf"
			},
			{
				"type": "occ",
				"energy": -0.25617,
				"method": "rhf"
			},
			{
				"type": "occ",
				"energy": -0.21906,
				"method": "rhf"
			},
			{
				"type": "unocc",
				"energy": -0.01851,
				"method": "rhf"
			},
			{
				"type": "unocc",
				"energy": 0.00025,
				"method": "rhf"
			},
			{
				"type": "unocc",
				"energy": 0.00131,
				"method": "rhf"
			},
			{
				"type": "unocc",
				"energy": 0.034,
				"method": "rhf"
			},
			{
				"type": "unocc",
				"energy": 0.06721,
				"method": "rhf"
			}
		],
		"cosmo_sigma_profile": { 
			"-0.025": 0.0,
			"-0.024": 0.0,
			"-0.023": 0.0,
			"-0.022": 0.0,
			"-0.021": 0.0,
			"-0.02": 0.0,
			"-0.019": 0.0152005432082,
			"-0.018": 1.33705956963,
			"-0.017": 0.510394579027,
			"-0.016": 0.526266902697,
			"-0.015": 1.33355138874,
			"-0.014": 0.672439898775,
			"-0.013": 0.548578257889,
			"-0.012": 0.662787914579,
			"-0.011": 0.816995876619,
			"-0.01": 0.674815772516,
			"-0.009": 0.471832065071,
			"-0.008": 3.31758025692,
			"-0.007": 9.11891425618,
			"-0.006": 16.7834815729,
			"-0.005": 16.4364376481,
			"-0.004": 13.5571325157,
			"-0.003": 13.1492827046,
			"-0.002": 12.1537833145,
			"-0.001": 11.3587787575,
			"0.0": 10.3522466888,
			"0.001": 11.7364779628,
			"0.002": 17.4346634385,
			"0.003": 20.9302710158,
			"0.004": 20.9753817199,
			"0.005": 15.3757091442,
			"0.006": 5.18257610033,
			"0.007": 5.08477692569,
			"0.008": 2.86308235341,
			"0.009": 2.95993831597,
			"0.01": 3.77857761028,
			"0.011": 4.2075927352,
			"0.012": 3.04373663808,
			"0.013": 0.0171529897605,
			"0.014": 0.0,
			"0.015": 0.0,
			"0.016": 0.0,
			"0.017": 0.0,
			"0.018": 0.0,
			"0.019": 0.0,
			"0.02": 0.0,
			"0.021": 0.0,
			"0.022": 0.0,
			"0.023": 0.0,
			"0.024": 0.0,
			"0.025": 0.0
		}
	}
}
