{
	 "smiles": "CN1N=C(C=C1CCl)C1=CC=CC=C1", 
	 "Tm": 344.15, 
	 "num_atms": 25, 
	 "gaussian": { 
		 "optdone": 1, 
		 "sigma_profile": "yes", 
		 "theory": "DFT", 
		 "functional": "B3LYP", 
		 "basiset": "6-31G**", 
		 "properties": { 
			 "R2extent": 5196.1917, 
			 "electric_dipole_moment_norm": 2.08832904495, 
			 "electric_quadrupole_moment_norm": 17.5490254462, 
			 "total_energy": -995.48893853, 
			 "HOMO_LUMO_gap": 0.18771, 
			 "cosmo_polarized_energy": -10.81, 
			 "cosmo_cavitation_energy": 30.61, 
			 "cosmo_dispersion_energy": -22.4, 
			 "cosmo_repulsion_energy": 1.76, 
			 "cosmo_total_nonelectrostatic_energy": 9.97, 
			 "SMD_solvation_energy": 3.94 
		},
		"coords": [
			{
				"x": -2.4949592625,
				"y": -1.2146216286,
				"z": 3.726363938,
				"element": "C" 
			},
			{
				"x": -1.851675485,
				"y": -0.6782562325,
				"z": 2.5392305718,
				"element": "N" 
			},
			{
				"x": -1.266846226,
				"y": -1.5149913833,
				"z": 1.6650048182,
				"element": "N" 
			},
			{
				"x": -0.751777638,
				"y": -0.7361119605,
				"z": 0.7007263789,
				"element": "C" 
			},
			{
				"x": -1.0197606133,
				"y": 0.6273148831,
				"z": 0.9745913839,
				"element": "C" 
			},
			{
				"x": -1.7250825049,
				"y": 0.6311014768,
				"z": 2.1657745893,
				"element": "C" 
			},
			{
				"x": -2.2579885332,
				"y": 1.7625485168,
				"z": 2.9567422491,
				"element": "C" 
			},
			{
				"x": -4.0853026692,
				"y": 1.970381936,
				"z": 2.7967227464,
				"element": "Cl" 
			},
			{
				"x": -0.0299431323,
				"y": -1.3282379662,
				"z": -0.438086189,
				"element": "C" 
			},
			{
				"x": 0.1311770345,
				"y": -2.7212435782,
				"z": -0.5311806431,
				"element": "C" 
			},
			{
				"x": 0.8132792561,
				"y": -3.2858566427,
				"z": -1.6057633981,
				"element": "C" 
			},
			{
				"x": 1.348589271,
				"y": -2.4737130504,
				"z": -2.6091077946,
				"element": "C" 
			},
			{
				"x": 1.1940345332,
				"y": -1.0890302414,
				"z": -2.5262595494,
				"element": "C" 
			},
			{
				"x": 0.5113410267,
				"y": -0.5214659992,
				"z": -1.451177553,
				"element": "C" 
			},
			{
				"x": -2.595500586,
				"y": -2.289131824,
				"z": 3.5796804204,
				"element": "H" 
			},
			{
				"x": -1.8910129564,
				"y": -1.0304632837,
				"z": 4.6219698544,
				"element": "H" 
			},
			{
				"x": -3.4827258357,
				"y": -0.7661282874,
				"z": 3.8562931418,
				"element": "H" 
			},
			{
				"x": -0.7495698905,
				"y": 1.4959594483,
				"z": 0.3930437595,
				"element": "H" 
			},
			{
				"x": -1.8253989392,
				"y": 2.7022137374,
				"z": 2.6179642406,
				"element": "H" 
			},
			{
				"x": -2.0840201505,
				"y": 1.6521896519,
				"z": 4.0278244933,
				"element": "H" 
			},
			{
				"x": -0.285935805,
				"y": -3.3485385178,
				"z": 0.2491289207,
				"element": "H" 
			},
			{
				"x": 0.9277742459,
				"y": -4.3649173669,
				"z": -1.661159542,
				"element": "H" 
			},
			{
				"x": 1.8802103688,
				"y": -2.9158792395,
				"z": -3.4467597057,
				"element": "H" 
			},
			{
				"x": 1.6052094867,
				"y": -0.4471318986,
				"z": -3.3003556121,
				"element": "H" 
			},
			{
				"x": 0.3993850049,
				"y": 0.5576094506,
				"z": -1.4023115193,
				"element": "H" 
			}
		],
		 "valence_orbital": [ 
			{
				"type": "occ",
				"energy": -0.28977,
				"method": "rhf"
			},
			{
				"type": "occ",
				"energy": -0.28339,
				"method": "rhf"
			},
			{
				"type": "occ",
				"energy": -0.25261,
				"method": "rhf"
			},
			{
				"type": "occ",
				"energy": -0.24418,
				"method": "rhf"
			},
			{
				"type": "occ",
				"energy": -0.21534,
				"method": "rhf"
			},
			{
				"type": "unocc",
				"energy": -0.02763,
				"method": "rhf"
			},
			{
				"type": "unocc",
				"energy": -0.01531,
				"method": "rhf"
			},
			{
				"type": "unocc",
				"energy": 0.00598,
				"method": "rhf"
			},
			{
				"type": "unocc",
				"energy": 0.05075,
				"method": "rhf"
			},
			{
				"type": "unocc",
				"energy": 0.08437,
				"method": "rhf"
			}
		],
		"cosmo_sigma_profile": { 
			"-0.025": 0.0,
			"-0.024": 0.0,
			"-0.023": 0.0,
			"-0.022": 0.0,
			"-0.021": 0.0,
			"-0.02": 0.0,
			"-0.019": 0.0,
			"-0.018": 0.0,
			"-0.017": 0.0,
			"-0.016": 0.0,
			"-0.015": 0.0,
			"-0.014": 0.0,
			"-0.013": 0.0,
			"-0.012": 0.0,
			"-0.011": 0.0,
			"-0.01": 0.0,
			"-0.009": 1.91815005825,
			"-0.008": 6.92678559052,
			"-0.007": 10.1039456462,
			"-0.006": 13.3352716516,
			"-0.005": 18.4939228218,
			"-0.004": 21.4797253851,
			"-0.003": 20.2401763506,
			"-0.002": 11.9878473305,
			"-0.001": 11.15744159,
			"0.0": 12.3821140074,
			"0.001": 12.5177262658,
			"0.002": 13.8611179288,
			"0.003": 19.2253800073,
			"0.004": 25.0086688158,
			"0.005": 19.3856995862,
			"0.006": 18.075879064,
			"0.007": 4.60506824796,
			"0.008": 1.03915156653,
			"0.009": 1.23278386749,
			"0.01": 1.56769974724,
			"0.011": 1.5087192646,
			"0.012": 0.828278676241,
			"0.013": 0.0,
			"0.014": 0.0,
			"0.015": 0.0,
			"0.016": 0.0,
			"0.017": 0.0,
			"0.018": 0.0,
			"0.019": 0.0,
			"0.02": 0.0,
			"0.021": 0.0,
			"0.022": 0.0,
			"0.023": 0.0,
			"0.024": 0.0,
			"0.025": 0.0
		}
	}
}
