{
	 "smiles": "NC1=NC(=O)C=NN1", 
	 "Tm": 523.15, 
	 "num_atms": 12, 
	 "gaussian": { 
		 "optdone": 1, 
		 "sigma_profile": "yes", 
		 "theory": "DFT", 
		 "functional": "B3LYP", 
		 "basiset": "6-31G**", 
		 "properties": { 
			 "R2extent": 1500.4414, 
			 "electric_dipole_moment_norm": 6.70743366497, 
			 "electric_quadrupole_moment_norm": 20.5356421312, 
			 "total_energy": -410.930304231, 
			 "HOMO_LUMO_gap": 0.18697, 
			 "cosmo_polarized_energy": -24.56, 
			 "cosmo_cavitation_energy": 16.92, 
			 "cosmo_dispersion_energy": -13.04, 
			 "cosmo_repulsion_energy": 1.1, 
			 "cosmo_total_nonelectrostatic_energy": 4.99, 
			 "SMD_solvation_energy": 1.76 
		},
		"coords": [
			{
				"x": -0.3882391092,
				"y": 0.6127676511,
				"z": 1.8419789461,
				"element": "N" 
			},
			{
				"x": -0.8136885469,
				"y": 0.9241463913,
				"z": 0.572830241,
				"element": "C" 
			},
			{
				"x": -1.1518579347,
				"y": 2.1466581257,
				"z": 0.2760388187,
				"element": "N" 
			},
			{
				"x": -1.509555266,
				"y": 2.4213893594,
				"z": -1.043969374,
				"element": "C" 
			},
			{
				"x": -1.8207246031,
				"y": 3.5357628653,
				"z": -1.435408362,
				"element": "O" 
			},
			{
				"x": -1.5047910668,
				"y": 1.257965457,
				"z": -1.9712478004,
				"element": "C" 
			},
			{
				"x": -1.1653314257,
				"y": 0.0575580745,
				"z": -1.6395421637,
				"element": "N" 
			},
			{
				"x": -0.8147480514,
				"y": -0.1056588685,
				"z": -0.333167845,
				"element": "N" 
			},
			{
				"x": -0.5422486871,
				"y": 1.3677203656,
				"z": 2.4968169841,
				"element": "H" 
			},
			{
				"x": -0.5913700481,
				"y": -0.3085717657,
				"z": 2.2034384964,
				"element": "H" 
			},
			{
				"x": -1.7944470482,
				"y": 1.4183126756,
				"z": -3.0055761578,
				"element": "H" 
			},
			{
				"x": -0.4538982129,
				"y": -1.0210503314,
				"z": -0.1088917833,
				"element": "H" 
			}
		],
		 "valence_orbital": [ 
			{
				"type": "occ",
				"energy": -0.33883,
				"method": "rhf"
			},
			{
				"type": "occ",
				"energy": -0.28502,
				"method": "rhf"
			},
			{
				"type": "occ",
				"energy": -0.28059,
				"method": "rhf"
			},
			{
				"type": "occ",
				"energy": -0.25233,
				"method": "rhf"
			},
			{
				"type": "occ",
				"energy": -0.23541,
				"method": "rhf"
			},
			{
				"type": "unocc",
				"energy": -0.04844,
				"method": "rhf"
			},
			{
				"type": "unocc",
				"energy": -0.01033,
				"method": "rhf"
			},
			{
				"type": "unocc",
				"energy": 0.03994,
				"method": "rhf"
			},
			{
				"type": "unocc",
				"energy": 0.08375,
				"method": "rhf"
			},
			{
				"type": "unocc",
				"energy": 0.10983,
				"method": "rhf"
			}
		],
		"cosmo_sigma_profile": { 
			"-0.025": 0.0,
			"-0.024": 0.0,
			"-0.023": 0.0,
			"-0.022": 0.0,
			"-0.021": 0.0,
			"-0.02": 0.0327349954434,
			"-0.019": 0.616076471064,
			"-0.018": 2.04136455123,
			"-0.017": 1.85037943024,
			"-0.016": 2.37433650662,
			"-0.015": 2.82626692423,
			"-0.014": 2.60830915604,
			"-0.013": 3.58580415248,
			"-0.012": 2.40970552035,
			"-0.011": 2.89719789189,
			"-0.01": 2.53599897242,
			"-0.009": 2.43177941182,
			"-0.008": 3.76633257114,
			"-0.007": 2.96876267718,
			"-0.006": 3.03367477841,
			"-0.005": 4.64776181995,
			"-0.004": 6.39636663313,
			"-0.003": 7.62705470798,
			"-0.002": 6.41770441095,
			"-0.001": 6.99844499299,
			"0.0": 4.71233099697,
			"0.001": 5.59761464002,
			"0.002": 3.94287130699,
			"0.003": 4.76290315615,
			"0.004": 4.62774003332,
			"0.005": 3.11431263018,
			"0.006": 3.23618438308,
			"0.007": 4.22740871347,
			"0.008": 2.98298080046,
			"0.009": 3.51114953336,
			"0.01": 2.96700183994,
			"0.011": 3.13615435925,
			"0.012": 3.56335057322,
			"0.013": 5.70511488514,
			"0.014": 5.95176250509,
			"0.015": 3.73127697417,
			"0.016": 1.37555384466,
			"0.017": 0.0,
			"0.018": 0.0,
			"0.019": 0.0,
			"0.02": 0.0,
			"0.021": 0.0,
			"0.022": 0.0,
			"0.023": 0.0,
			"0.024": 0.0,
			"0.025": 0.0
		}
	}
}
