{
	 "smiles": "IC1=NC=CC(=C1)C#N", 
	 "Tm": 352.15, 
	 "num_atms": 12, 
	 "gaussian": { 
		 "optdone": 1, 
		 "sigma_profile": "no", 
		 "theory": "DFT", 
		 "functional": "B3LYP", 
		 "basiset": "6-31G**", 
		 "properties": { 
			 "R2extent": 1360.9288, 
			 "electric_dipole_moment_norm": 1.7043287799, 
			 "electric_quadrupole_moment_norm": 14.6906730622, 
			 "total_energy": -351.303657928, 
			 "HOMO_LUMO_gap": 0.17851, 
			 "cosmo_polarized_energy": -102887.27, 
			 "cosmo_cavitation_energy": 21.3, 
			 "cosmo_dispersion_energy": -16.67, 
			 "cosmo_repulsion_energy": 1.34, 
			 "cosmo_total_nonelectrostatic_energy": 5.97, 
			 "SMD_solvation_energy": 2.87 
		},
		"coords": [
			{
				"x": 0.0280067815,
				"y": -1.5180182118,
				"z": -3.2267221539,
				"element": "I" 
			},
			{
				"x": -0.0046764426,
				"y": -0.7817066289,
				"z": -1.2266415067,
				"element": "C" 
			},
			{
				"x": -1.1883522338,
				"y": -0.5384333509,
				"z": -0.692122764,
				"element": "N" 
			},
			{
				"x": -1.2244240558,
				"y": -0.0745596336,
				"z": 0.5662061399,
				"element": "C" 
			},
			{
				"x": -0.0848801535,
				"y": 0.1605538473,
				"z": 1.3287208141,
				"element": "C" 
			},
			{
				"x": 1.1630506073,
				"y": -0.1041406411,
				"z": 0.7429279085,
				"element": "C" 
			},
			{
				"x": 1.2143753779,
				"y": -0.5889125925,
				"z": -0.5707285466,
				"element": "C" 
			},
			{
				"x": 2.3769011219,
				"y": 0.1173405926,
				"z": 1.476568345,
				"element": "C" 
			},
			{
				"x": 3.3587004911,
				"y": 0.2972675864,
				"z": 2.0722278494,
				"element": "N" 
			},
			{
				"x": -2.2129521587,
				"y": 0.1153538419,
				"z": 0.9764187914,
				"element": "H" 
			},
			{
				"x": -0.1556914055,
				"y": 0.5360563976,
				"z": 2.3428561709,
				"element": "H" 
			},
			{
				"x": 2.1605420701,
				"y": -0.8029012069,
				"z": -1.051111048,
				"element": "H" 
			}
		],
		 "valence_orbital": [ 
			{
				"type": "occ",
				"energy": -0.32291,
				"method": "rhf"
			},
			{
				"type": "occ",
				"energy": -0.31096,
				"method": "rhf"
			},
			{
				"type": "occ",
				"energy": -0.29571,
				"method": "rhf"
			},
			{
				"type": "occ",
				"energy": -0.27781,
				"method": "rhf"
			},
			{
				"type": "occ",
				"energy": -0.26691,
				"method": "rhf"
			},
			{
				"type": "unocc",
				"energy": -0.0884,
				"method": "rhf"
			},
			{
				"type": "unocc",
				"energy": -0.05495,
				"method": "rhf"
			},
			{
				"type": "unocc",
				"energy": -0.05363,
				"method": "rhf"
			},
			{
				"type": "unocc",
				"energy": 0.0141,
				"method": "rhf"
			},
			{
				"type": "unocc",
				"energy": 0.04154,
				"method": "rhf"
			}
		],
		"cosmo_sigma_profile": { 
			"0.0": 0.0,
			"0.0": 0.0,
			"0.0": 0.0,
			"0.0": 0.0,
			"0.0": 0.0,
			"0.0": 0.0,
			"0.0": 0.0,
			"0.0": 0.0,
			"0.0": 0.0,
			"0.0": 0.0,
			"0.0": 0.0,
			"0.0": 0.0,
			"0.0": 0.0,
			"0.0": 0.0,
			"0.0": 0.0,
			"0.0": 0.0,
			"0.0": 0.0,
			"0.0": 0.0,
			"0.0": 0.0,
			"0.0": 0.0,
			"0.0": 0.0,
			"0.0": 0.0,
			"0.0": 0.0,
			"0.0": 0.0,
			"0.0": 0.0,
			"0.0": 0.0,
			"0.0": 0.0,
			"0.0": 0.0,
			"0.0": 0.0,
			"0.0": 0.0,
			"0.0": 0.0,
			"0.0": 0.0,
			"0.0": 0.0,
			"0.0": 0.0,
			"0.0": 0.0,
			"0.0": 0.0,
			"0.0": 0.0,
			"0.0": 0.0,
			"0.0": 0.0,
			"0.0": 0.0,
			"0.0": 0.0,
			"0.0": 0.0,
			"0.0": 0.0,
			"0.0": 0.0,
			"0.0": 0.0,
			"0.0": 0.0,
			"0.0": 0.0,
			"0.0": 0.0,
			"0.0": 0.0,
			"0.0": 0.0,
			"0.0": 0.0
		}
	}
}
