{
	 "smiles": "CC1=NC(CCl)=C(C)O1", 
	 "Tm": 308.65, 
	 "num_atms": 17, 
	 "gaussian": { 
		 "optdone": 1, 
		 "sigma_profile": "yes", 
		 "theory": "DFT", 
		 "functional": "B3LYP", 
		 "basiset": "6-31G**", 
		 "properties": { 
			 "R2extent": 1981.2254, 
			 "electric_dipole_moment_norm": 3.38760264051, 
			 "electric_quadrupole_moment_norm": 7.98105464961, 
			 "total_energy": -823.63383319, 
			 "HOMO_LUMO_gap": 0.22145, 
			 "cosmo_polarized_energy": -9.02, 
			 "cosmo_cavitation_energy": 22.94, 
			 "cosmo_dispersion_energy": -16.79, 
			 "cosmo_repulsion_energy": 1.42, 
			 "cosmo_total_nonelectrostatic_energy": 7.57, 
			 "SMD_solvation_energy": 2.61 
		},
		"coords": [
			{
				"x": 0.3622136333,
				"y": 0.3664124143,
				"z": -2.5569927443,
				"element": "C" 
			},
			{
				"x": -0.1261707433,
				"y": -0.2413373908,
				"z": -1.2904473423,
				"element": "C" 
			},
			{
				"x": -0.1976589098,
				"y": 0.286779639,
				"z": -0.1106591459,
				"element": "N" 
			},
			{
				"x": -0.7320370751,
				"y": -0.7166264129,
				"z": 0.6987450583,
				"element": "C" 
			},
			{
				"x": -0.9738192159,
				"y": -0.5001394282,
				"z": 2.1432925409,
				"element": "C" 
			},
			{
				"x": 0.5007277506,
				"y": -0.8748857461,
				"z": 3.1838876349,
				"element": "Cl" 
			},
			{
				"x": -0.9596765364,
				"y": -1.8305445911,
				"z": -0.0543926049,
				"element": "C" 
			},
			{
				"x": -1.4865570202,
				"y": -3.1938289004,
				"z": 0.2099132757,
				"element": "C" 
			},
			{
				"x": -0.5744634309,
				"y": -1.5338823087,
				"z": -1.3390821071,
				"element": "O" 
			},
			{
				"x": 1.2070726557,
				"y": -0.19877515,
				"z": -2.9644057332,
				"element": "H" 
			},
			{
				"x": 0.6822730267,
				"y": 1.3890703772,
				"z": -2.3556920987,
				"element": "H" 
			},
			{
				"x": -0.4251119487,
				"y": 0.3804420143,
				"z": -3.318117373,
				"element": "H" 
			},
			{
				"x": -1.2058531902,
				"y": 0.5452289484,
				"z": 2.3415650742,
				"element": "H" 
			},
			{
				"x": -1.7676953425,
				"y": -1.1377742425,
				"z": 2.5309946429,
				"element": "H" 
			},
			{
				"x": -2.3595076362,
				"y": -3.4130157895,
				"z": -0.4150883625,
				"element": "H" 
			},
			{
				"x": -1.7793509167,
				"y": -3.2879601235,
				"z": 1.2579191931,
				"element": "H" 
			},
			{
				"x": -0.7292851004,
				"y": -3.9580633094,
				"z": 0.0016600919,
				"element": "H" 
			}
		],
		 "valence_orbital": [ 
			{
				"type": "occ",
				"energy": -0.31526,
				"method": "rhf"
			},
			{
				"type": "occ",
				"energy": -0.29217,
				"method": "rhf"
			},
			{
				"type": "occ",
				"energy": -0.28797,
				"method": "rhf"
			},
			{
				"type": "occ",
				"energy": -0.28582,
				"method": "rhf"
			},
			{
				"type": "occ",
				"energy": -0.2347,
				"method": "rhf"
			},
			{
				"type": "unocc",
				"energy": -0.01325,
				"method": "rhf"
			},
			{
				"type": "unocc",
				"energy": 0.01523,
				"method": "rhf"
			},
			{
				"type": "unocc",
				"energy": 0.07116,
				"method": "rhf"
			},
			{
				"type": "unocc",
				"energy": 0.10009,
				"method": "rhf"
			},
			{
				"type": "unocc",
				"energy": 0.10867,
				"method": "rhf"
			}
		],
		"cosmo_sigma_profile": { 
			"-0.025": 0.0,
			"-0.024": 0.0,
			"-0.023": 0.0,
			"-0.022": 0.0,
			"-0.021": 0.0,
			"-0.02": 0.0,
			"-0.019": 0.0,
			"-0.018": 0.0,
			"-0.017": 0.0,
			"-0.016": 0.0,
			"-0.015": 0.0,
			"-0.014": 0.0,
			"-0.013": 0.0,
			"-0.012": 0.0,
			"-0.011": 0.0,
			"-0.01": 0.0,
			"-0.009": 0.00296245031713,
			"-0.008": 3.03590093637,
			"-0.007": 5.13235126678,
			"-0.006": 12.0729585268,
			"-0.005": 15.105053307,
			"-0.004": 16.2615687229,
			"-0.003": 15.1108297746,
			"-0.002": 19.4683763124,
			"-0.001": 16.5804669897,
			"0.0": 10.2894656593,
			"0.001": 9.31151908588,
			"0.002": 7.17958434094,
			"0.003": 6.51978424623,
			"0.004": 7.06143925012,
			"0.005": 8.37095817131,
			"0.006": 10.2181235951,
			"0.007": 13.4724192307,
			"0.008": 1.84419124938,
			"0.009": 0.824425927464,
			"0.01": 1.50469423353,
			"0.011": 0.742162016425,
			"0.012": 0.664280560706,
			"0.013": 1.05833915207,
			"0.014": 0.886957947534,
			"0.015": 0.852928393029,
			"0.016": 0.595363296878,
			"0.017": 0.0516204986593,
			"0.018": 0.0,
			"0.019": 0.0,
			"0.02": 0.0,
			"0.021": 0.0,
			"0.022": 0.0,
			"0.023": 0.0,
			"0.024": 0.0,
			"0.025": 0.0
		}
	}
}
