{
	 "smiles": "CN1C=CC(=CC1=O)C(=O)NCCC(O)=O", 
	 "Tm": 488.15, 
	 "num_atms": 28, 
	 "gaussian": { 
		 "optdone": 1, 
		 "sigma_profile": "yes", 
		 "theory": "DFT", 
		 "functional": "B3LYP", 
		 "basiset": "6-31G**", 
		 "properties": { 
			 "R2extent": 4281.8763, 
			 "electric_dipole_moment_norm": 9.23629419518, 
			 "electric_quadrupole_moment_norm": 10.2057755379, 
			 "total_energy": -798.709269527, 
			 "HOMO_LUMO_gap": 0.16821, 
			 "cosmo_polarized_energy": -32.36, 
			 "cosmo_cavitation_energy": 32.33, 
			 "cosmo_dispersion_energy": -22.46, 
			 "cosmo_repulsion_energy": 1.77, 
			 "cosmo_total_nonelectrostatic_energy": 11.64, 
			 "SMD_solvation_energy": 7.68 
		},
		"coords": [
			{
				"x": 2.6287626822,
				"y": 3.6548031915,
				"z": 2.0582042708,
				"element": "C" 
			},
			{
				"x": 2.286403652,
				"y": 2.5294828053,
				"z": 1.187562737,
				"element": "N" 
			},
			{
				"x": 2.2793766257,
				"y": 2.6547361009,
				"z": -0.1694089519,
				"element": "C" 
			},
			{
				"x": 1.96190963,
				"y": 1.6106917833,
				"z": -0.9911748269,
				"element": "C" 
			},
			{
				"x": 1.6549196399,
				"y": 0.3470598723,
				"z": -0.3985872765,
				"element": "C" 
			},
			{
				"x": 1.669803445,
				"y": 0.2040759054,
				"z": 0.9640615117,
				"element": "C" 
			},
			{
				"x": 1.9824706988,
				"y": 1.3075088175,
				"z": 1.8531506829,
				"element": "C" 
			},
			{
				"x": 2.0049156714,
				"y": 1.2670829297,
				"z": 3.0795439331,
				"element": "O" 
			},
			{
				"x": 1.4066699792,
				"y": -0.8648167511,
				"z": -1.2710426459,
				"element": "C" 
			},
			{
				"x": 2.1421040946,
				"y": -1.8381311654,
				"z": -1.2213965419,
				"element": "O" 
			},
			{
				"x": 0.3530907093,
				"y": -0.7930629598,
				"z": -2.1534136533,
				"element": "N" 
			},
			{
				"x": -0.7892512369,
				"y": 0.1095374051,
				"z": -2.1056480231,
				"element": "C" 
			},
			{
				"x": -2.109526029,
				"y": -0.5918710794,
				"z": -1.7466320272,
				"element": "C" 
			},
			{
				"x": -2.1375885748,
				"y": -1.4152004099,
				"z": -0.4576978644,
				"element": "C" 
			},
			{
				"x": -1.4880317387,
				"y": -0.9137888006,
				"z": 0.6228017704,
				"element": "O" 
			},
			{
				"x": -2.744888265,
				"y": -2.4516873551,
				"z": -0.3690544867,
				"element": "O" 
			},
			{
				"x": 1.8000689058,
				"y": 3.8617016965,
				"z": 2.7390219986,
				"element": "H" 
			},
			{
				"x": 3.5004344178,
				"y": 3.4009868388,
				"z": 2.6655407378,
				"element": "H" 
			},
			{
				"x": 2.8405896605,
				"y": 4.53177305,
				"z": 1.4455090956,
				"element": "H" 
			},
			{
				"x": 2.5439758251,
				"y": 3.633414351,
				"z": -0.5556966529,
				"element": "H" 
			},
			{
				"x": 1.9789539692,
				"y": 1.7399972932,
				"z": -2.0660357422,
				"element": "H" 
			},
			{
				"x": 1.4671416078,
				"y": -0.7503063016,
				"z": 1.4362397139,
				"element": "H" 
			},
			{
				"x": 0.2566832607,
				"y": -1.6365724211,
				"z": -2.7080389307,
				"element": "H" 
			},
			{
				"x": -0.5589151938,
				"y": 0.9091932248,
				"z": -1.3965612954,
				"element": "H" 
			},
			{
				"x": -0.9167972851,
				"y": 0.6036050378,
				"z": -3.0770164657,
				"element": "H" 
			},
			{
				"x": -2.9002799784,
				"y": 0.1674069853,
				"z": -1.6754305139,
				"element": "H" 
			},
			{
				"x": -2.4098243126,
				"y": -1.2773111808,
				"z": -2.5433491925,
				"element": "H" 
			},
			{
				"x": -1.0007718608,
				"y": -0.1024088638,
				"z": 0.4192486393,
				"element": "H" 
			}
		],
		 "valence_orbital": [ 
			{
				"type": "occ",
				"energy": -0.27994,
				"method": "rhf"
			},
			{
				"type": "occ",
				"energy": -0.27218,
				"method": "rhf"
			},
			{
				"type": "occ",
				"energy": -0.2659,
				"method": "rhf"
			},
			{
				"type": "occ",
				"energy": -0.25592,
				"method": "rhf"
			},
			{
				"type": "occ",
				"energy": -0.23035,
				"method": "rhf"
			},
			{
				"type": "unocc",
				"energy": -0.06214,
				"method": "rhf"
			},
			{
				"type": "unocc",
				"energy": -0.00957,
				"method": "rhf"
			},
			{
				"type": "unocc",
				"energy": 0.00288,
				"method": "rhf"
			},
			{
				"type": "unocc",
				"energy": 0.01977,
				"method": "rhf"
			},
			{
				"type": "unocc",
				"energy": 0.0452,
				"method": "rhf"
			}
		],
		"cosmo_sigma_profile": { 
			"-0.025": 0.0,
			"-0.024": 0.0,
			"-0.023": 0.0,
			"-0.022": 0.0,
			"-0.021": 0.0,
			"-0.02": 0.0,
			"-0.019": 0.0,
			"-0.018": 0.172602448802,
			"-0.017": 0.589088927227,
			"-0.016": 0.532320952208,
			"-0.015": 0.996876348048,
			"-0.014": 2.02243525374,
			"-0.013": 2.01532975741,
			"-0.012": 1.88182661114,
			"-0.011": 2.62648109668,
			"-0.01": 4.43007591161,
			"-0.009": 5.66023388046,
			"-0.008": 9.39166077261,
			"-0.007": 12.8627766014,
			"-0.006": 19.768901293,
			"-0.005": 18.3930160872,
			"-0.004": 19.1356680232,
			"-0.003": 21.5470835876,
			"-0.002": 15.1473223614,
			"-0.001": 9.93201361238,
			"0.0": 8.87805657911,
			"0.001": 10.0079969003,
			"0.002": 9.02437983815,
			"0.003": 6.12156287452,
			"0.004": 4.83669619313,
			"0.005": 4.74806464027,
			"0.006": 4.31364115392,
			"0.007": 4.67969200872,
			"0.008": 5.71282684931,
			"0.009": 6.21137290793,
			"0.01": 6.68544387749,
			"0.011": 7.79004100056,
			"0.012": 10.8911732159,
			"0.013": 10.228197515,
			"0.014": 7.10566534306,
			"0.015": 1.56633758228,
			"0.016": 0.153151950212,
			"0.017": 0.0,
			"0.018": 0.0,
			"0.019": 0.0,
			"0.02": 0.0,
			"0.021": 0.0,
			"0.022": 0.0,
			"0.023": 0.0,
			"0.024": 0.0,
			"0.025": 0.0
		}
	}
}
