{
	 "smiles": "[O-][N+](=O)C1=CC=C(C=C1)C(=O)C1=NOC(=C1S(=O)(=O)C1=CC=CC=C1)C1=CC=C(Br)C=C1", 
	 "Tm": 451.15, 
	 "num_atms": 45, 
	 "gaussian": { 
		 "optdone": 1, 
		 "sigma_profile": "yes", 
		 "theory": "DFT", 
		 "functional": "B3LYP", 
		 "basiset": "6-31G**", 
		 "properties": { 
			 "R2extent": 24356.4516, 
			 "electric_dipole_moment_norm": 2.88793263426, 
			 "electric_quadrupole_moment_norm": 35.1317811362, 
			 "total_energy": -4376.37668722, 
			 "HOMO_LUMO_gap": 0.13387, 
			 "cosmo_polarized_energy": -21.63, 
			 "cosmo_cavitation_energy": 55.65, 
			 "cosmo_dispersion_energy": -38.6, 
			 "cosmo_repulsion_energy": 2.85, 
			 "cosmo_total_nonelectrostatic_energy": 19.89, 
			 "SMD_solvation_energy": 10.0 
		},
		"coords": [
			{
				"x": 4.4230650051,
				"y": 5.3882163748,
				"z": -3.6639394744,
				"element": "O" 
			},
			{
				"x": 3.6844859311,
				"y": 5.8379126861,
				"z": -2.7899856801,
				"element": "N" 
			},
			{
				"x": 3.4929783867,
				"y": 7.0329461817,
				"z": -2.5739508078,
				"element": "O" 
			},
			{
				"x": 2.9710442048,
				"y": 4.8688296028,
				"z": -1.9348225168,
				"element": "C" 
			},
			{
				"x": 3.1686462106,
				"y": 3.5085482498,
				"z": -2.1530384686,
				"element": "C" 
			},
			{
				"x": 2.4968801569,
				"y": 2.5951223531,
				"z": -1.3443258457,
				"element": "C" 
			},
			{
				"x": 1.63430604,
				"y": 3.0474845264,
				"z": -0.3325642378,
				"element": "C" 
			},
			{
				"x": 1.4482594437,
				"y": 4.4288677897,
				"z": -0.1454646864,
				"element": "C" 
			},
			{
				"x": 2.1201170331,
				"y": 5.3485761734,
				"z": -0.9394712397,
				"element": "C" 
			},
			{
				"x": 0.8299348682,
				"y": 2.1415399914,
				"z": 0.5496665575,
				"element": "C" 
			},
			{
				"x": -0.1142219056,
				"y": 2.5729740795,
				"z": 1.193435851,
				"element": "O" 
			},
			{
				"x": 1.1766941573,
				"y": 0.689005009,
				"z": 0.6928065499,
				"element": "C" 
			},
			{
				"x": 2.417933741,
				"y": 0.2915157796,
				"z": 0.5113585055,
				"element": "N" 
			},
			{
				"x": 2.4406466922,
				"y": -1.0481371382,
				"z": 0.8405754355,
				"element": "O" 
			},
			{
				"x": 1.2034334606,
				"y": -1.4709984443,
				"z": 1.2104040359,
				"element": "C" 
			},
			{
				"x": 0.3400765261,
				"y": -0.3961871901,
				"z": 1.1256881503,
				"element": "C" 
			},
			{
				"x": -1.4340095743,
				"y": -0.4360368417,
				"z": 1.4339429843,
				"element": "S" 
			},
			{
				"x": -1.8220580598,
				"y": -1.8479595661,
				"z": 1.2894108683,
				"element": "O" 
			},
			{
				"x": -1.7211779426,
				"y": 0.2840433235,
				"z": 2.67772052,
				"element": "O" 
			},
			{
				"x": -2.1633916698,
				"y": 0.4495919205,
				"z": 0.0527429395,
				"element": "C" 
			},
			{
				"x": -2.7744626695,
				"y": 1.6825439141,
				"z": 0.2819593218,
				"element": "C" 
			},
			{
				"x": -3.411641676,
				"y": 2.3220164592,
				"z": -0.7825374685,
				"element": "C" 
			},
			{
				"x": -3.4272657832,
				"y": 1.7325402061,
				"z": -2.0482259723,
				"element": "C" 
			},
			{
				"x": -2.8173861673,
				"y": 0.4922187415,
				"z": -2.259429626,
				"element": "C" 
			},
			{
				"x": -2.1879207419,
				"y": -0.1641157459,
				"z": -1.203087946,
				"element": "C" 
			},
			{
				"x": 1.1419298208,
				"y": -2.8839994523,
				"z": 1.5924838775,
				"element": "C" 
			},
			{
				"x": 1.9990907948,
				"y": -3.7954441192,
				"z": 0.9497944779,
				"element": "C" 
			},
			{
				"x": 2.00615393,
				"y": -5.1386759162,
				"z": 1.3102555362,
				"element": "C" 
			},
			{
				"x": 1.1586485081,
				"y": -5.5726551838,
				"z": 2.3298895769,
				"element": "C" 
			},
			{
				"x": 1.1641834412,
				"y": -7.4112473837,
				"z": 2.8311052642,
				"element": "Br" 
			},
			{
				"x": 0.3120437157,
				"y": -4.6834539048,
				"z": 2.991248789,
				"element": "C" 
			},
			{
				"x": 0.3051547524,
				"y": -3.3414893533,
				"z": 2.6229191403,
				"element": "C" 
			},
			{
				"x": 3.8363430431,
				"y": 3.1860921172,
				"z": -2.941757099,
				"element": "H" 
			},
			{
				"x": 2.6507475711,
				"y": 1.5354111819,
				"z": -1.4978215193,
				"element": "H" 
			},
			{
				"x": 0.7692851704,
				"y": 4.7595562554,
				"z": 0.6321999347,
				"element": "H" 
			},
			{
				"x": 1.9994089245,
				"y": 6.4163457534,
				"z": -0.8078631889,
				"element": "H" 
			},
			{
				"x": -2.7414708961,
				"y": 2.1194394234,
				"z": 1.272489064,
				"element": "H" 
			},
			{
				"x": -3.8945680177,
				"y": 3.2808044598,
				"z": -0.621273499,
				"element": "H" 
			},
			{
				"x": -3.9225117609,
				"y": 2.2368138863,
				"z": -2.8728355356,
				"element": "H" 
			},
			{
				"x": -2.8438859896,
				"y": 0.0309528895,
				"z": -3.2418705956,
				"element": "H" 
			},
			{
				"x": -1.7404185538,
				"y": -1.1426593395,
				"z": -1.3421629658,
				"element": "H" 
			},
			{
				"x": 2.6577856481,
				"y": -3.4507147492,
				"z": 0.1601969941,
				"element": "H" 
			},
			{
				"x": 2.6603199062,
				"y": -5.8405186124,
				"z": 0.8064865506,
				"element": "H" 
			},
			{
				"x": -0.333408234,
				"y": -5.0336285441,
				"z": 3.787981632,
				"element": "H" 
			},
			{
				"x": -0.3497974417,
				"y": -2.6550878443,
				"z": 3.1430658163,
				"element": "H" 
			}
		],
		 "valence_orbital": [ 
			{
				"type": "occ",
				"energy": -0.28876,
				"method": "rhf"
			},
			{
				"type": "occ",
				"energy": -0.28159,
				"method": "rhf"
			},
			{
				"type": "occ",
				"energy": -0.27697,
				"method": "rhf"
			},
			{
				"type": "occ",
				"energy": -0.27651,
				"method": "rhf"
			},
			{
				"type": "occ",
				"energy": -0.25238,
				"method": "rhf"
			},
			{
				"type": "unocc",
				"energy": -0.11851,
				"method": "rhf"
			},
			{
				"type": "unocc",
				"energy": -0.08216,
				"method": "rhf"
			},
			{
				"type": "unocc",
				"energy": -0.07185,
				"method": "rhf"
			},
			{
				"type": "unocc",
				"energy": -0.04805,
				"method": "rhf"
			},
			{
				"type": "unocc",
				"energy": -0.04032,
				"method": "rhf"
			}
		],
		"cosmo_sigma_profile": { 
			"-0.025": 0.0,
			"-0.024": 0.0,
			"-0.023": 0.0,
			"-0.022": 0.0,
			"-0.021": 0.0,
			"-0.02": 0.0,
			"-0.019": 0.0,
			"-0.018": 0.0,
			"-0.017": 0.0,
			"-0.016": 0.0,
			"-0.015": 0.0,
			"-0.014": 0.0,
			"-0.013": 0.0,
			"-0.012": 0.0,
			"-0.011": 0.0,
			"-0.01": 0.00714521980753,
			"-0.009": 0.653653042777,
			"-0.008": 8.45024196719,
			"-0.007": 26.3190315773,
			"-0.006": 29.3108658131,
			"-0.005": 32.593505569,
			"-0.004": 28.9821077135,
			"-0.003": 27.2651576813,
			"-0.002": 27.6552749956,
			"-0.001": 33.5386610218,
			"0.0": 39.0837825491,
			"0.001": 37.9653403821,
			"0.002": 34.7521478072,
			"0.003": 26.9118232319,
			"0.004": 22.3663905781,
			"0.005": 11.6638897284,
			"0.006": 9.29371703741,
			"0.007": 16.646138364,
			"0.008": 11.1298498982,
			"0.009": 10.5507367831,
			"0.01": 9.6308621833,
			"0.011": 7.63473536315,
			"0.012": 1.05743600563,
			"0.013": 0.0,
			"0.014": 0.0,
			"0.015": 0.0,
			"0.016": 0.0,
			"0.017": 0.0,
			"0.018": 0.0,
			"0.019": 0.0,
			"0.02": 0.0,
			"0.021": 0.0,
			"0.022": 0.0,
			"0.023": 0.0,
			"0.024": 0.0,
			"0.025": 0.0
		}
	}
}
