{
	 "smiles": "CS(=O)(=O)NC1=CC(C(O)=O)=C(O)C=C1", 
	 "Tm": 502.15, 
	 "num_atms": 24, 
	 "gaussian": { 
		 "optdone": 1, 
		 "sigma_profile": "yes", 
		 "theory": "DFT", 
		 "functional": "B3LYP", 
		 "basiset": "6-31G**", 
		 "properties": { 
			 "R2extent": 4641.1919, 
			 "electric_dipole_moment_norm": 4.24305893549, 
			 "electric_quadrupole_moment_norm": 16.1839711922, 
			 "total_energy": -1139.2836089, 
			 "HOMO_LUMO_gap": 0.1768, 
			 "cosmo_polarized_energy": -21.1, 
			 "cosmo_cavitation_energy": 29.87, 
			 "cosmo_dispersion_energy": -22.32, 
			 "cosmo_repulsion_energy": 1.69, 
			 "cosmo_total_nonelectrostatic_energy": 9.24, 
			 "SMD_solvation_energy": 6.36 
		},
		"coords": [
			{
				"x": -0.1944369177,
				"y": -3.3289685502,
				"z": 2.1188220113,
				"element": "C" 
			},
			{
				"x": 1.2604750865,
				"y": -3.2268798738,
				"z": 1.0681376679,
				"element": "S" 
			},
			{
				"x": 2.3110952404,
				"y": -4.1017282578,
				"z": 1.5918285358,
				"element": "O" 
			},
			{
				"x": 0.7997851197,
				"y": -3.3523657015,
				"z": -0.3209094114,
				"element": "O" 
			},
			{
				"x": 1.8173058334,
				"y": -1.6580603383,
				"z": 1.3918287715,
				"element": "N" 
			},
			{
				"x": 1.3134179612,
				"y": -0.5114355719,
				"z": 0.689763536,
				"element": "C" 
			},
			{
				"x": 1.2641278194,
				"y": -0.4468566106,
				"z": -0.6991565172,
				"element": "C" 
			},
			{
				"x": 0.7562213168,
				"y": 0.6840640708,
				"z": -1.3571699403,
				"element": "C" 
			},
			{
				"x": 0.6247471663,
				"y": 0.7562272031,
				"z": -2.829715045,
				"element": "C" 
			},
			{
				"x": 0.7844779414,
				"y": -0.3649961511,
				"z": -3.5553768526,
				"element": "O" 
			},
			{
				"x": 0.3616211407,
				"y": 1.8010059851,
				"z": -3.4171821013,
				"element": "O" 
			},
			{
				"x": 0.3570491579,
				"y": 1.8132384159,
				"z": -0.5900932427,
				"element": "C" 
			},
			{
				"x": -0.0783602417,
				"y": 2.9454716513,
				"z": -1.1481666677,
				"element": "O" 
			},
			{
				"x": 0.4101838197,
				"y": 1.7398200147,
				"z": 0.8138323261,
				"element": "C" 
			},
			{
				"x": 0.8652820853,
				"y": 0.5911618654,
				"z": 1.4394382363,
				"element": "C" 
			},
			{
				"x": -0.6559865724,
				"y": -4.3001524534,
				"z": 1.9329497485,
				"element": "H" 
			},
			{
				"x": -0.8795962266,
				"y": -2.5261972534,
				"z": 1.8420024144,
				"element": "H" 
			},
			{
				"x": 0.1196520958,
				"y": -3.2380536606,
				"z": 3.1582960249,
				"element": "H" 
			},
			{
				"x": 2.8211217145,
				"y": -1.7073905356,
				"z": 1.5456259868,
				"element": "H" 
			},
			{
				"x": 1.6332204852,
				"y": -1.3005393268,
				"z": -1.2562751629,
				"element": "H" 
			},
			{
				"x": 0.8304997222,
				"y": -1.1467603003,
				"z": -2.9861510791,
				"element": "H" 
			},
			{
				"x": -0.0020033625,
				"y": 2.8272588889,
				"z": -2.13021797,
				"element": "H" 
			},
			{
				"x": 0.0848134398,
				"y": 2.6034605092,
				"z": 1.3832896383,
				"element": "H" 
			},
			{
				"x": 0.8982861746,
				"y": 0.5328759811,
				"z": 2.5230990923,
				"element": "H" 
			}
		],
		 "valence_orbital": [ 
			{
				"type": "occ",
				"energy": -0.31384,
				"method": "rhf"
			},
			{
				"type": "occ",
				"energy": -0.30066,
				"method": "rhf"
			},
			{
				"type": "occ",
				"energy": -0.29077,
				"method": "rhf"
			},
			{
				"type": "occ",
				"energy": -0.28405,
				"method": "rhf"
			},
			{
				"type": "occ",
				"energy": -0.24398,
				"method": "rhf"
			},
			{
				"type": "unocc",
				"energy": -0.06718,
				"method": "rhf"
			},
			{
				"type": "unocc",
				"energy": -0.02601,
				"method": "rhf"
			},
			{
				"type": "unocc",
				"energy": 0.02945,
				"method": "rhf"
			},
			{
				"type": "unocc",
				"energy": 0.04614,
				"method": "rhf"
			},
			{
				"type": "unocc",
				"energy": 0.05175,
				"method": "rhf"
			}
		],
		"cosmo_sigma_profile": { 
			"-0.025": 0.0,
			"-0.024": 0.0,
			"-0.023": 0.0,
			"-0.022": 0.0,
			"-0.021": 0.0,
			"-0.02": 0.0,
			"-0.019": 0.0,
			"-0.018": 0.0906077232011,
			"-0.017": 0.546237979854,
			"-0.016": 1.3106101559,
			"-0.015": 1.76967496761,
			"-0.014": 1.72472170738,
			"-0.013": 2.08352728281,
			"-0.012": 2.66178873311,
			"-0.011": 2.19904449761,
			"-0.01": 2.12372084666,
			"-0.009": 4.13218351423,
			"-0.008": 7.84790787239,
			"-0.007": 11.5957587957,
			"-0.006": 13.4956867134,
			"-0.005": 14.6974166516,
			"-0.004": 16.6236532104,
			"-0.003": 13.2405552737,
			"-0.002": 12.3638106462,
			"-0.001": 12.2102097639,
			"0.0": 11.1277008279,
			"0.001": 14.1157265394,
			"0.002": 13.6705540744,
			"0.003": 8.99118369079,
			"0.004": 6.63796333968,
			"0.005": 5.62349868155,
			"0.006": 5.36937279669,
			"0.007": 6.29611935905,
			"0.008": 7.77397985316,
			"0.009": 9.33133874335,
			"0.01": 10.2067937995,
			"0.011": 13.1906168828,
			"0.012": 5.36829643124,
			"0.013": 0.206356390992,
			"0.014": 0.0,
			"0.015": 0.0,
			"0.016": 0.0,
			"0.017": 0.0,
			"0.018": 0.0,
			"0.019": 0.0,
			"0.02": 0.0,
			"0.021": 0.0,
			"0.022": 0.0,
			"0.023": 0.0,
			"0.024": 0.0,
			"0.025": 0.0
		}
	}
}
