{
	 "smiles": "CC1=C(C=C2C=CC=CC2=N1)C(O)=O", 
	 "Tm": 517.15, 
	 "num_atms": 23, 
	 "gaussian": { 
		 "optdone": 1, 
		 "sigma_profile": "yes", 
		 "theory": "DFT", 
		 "functional": "B3LYP", 
		 "basiset": "6-31G**", 
		 "properties": { 
			 "R2extent": 3076.5813, 
			 "electric_dipole_moment_norm": 4.74603516527, 
			 "electric_quadrupole_moment_norm": 6.82511573528, 
			 "total_energy": -629.814935725, 
			 "HOMO_LUMO_gap": 0.17159, 
			 "cosmo_polarized_energy": -15.64, 
			 "cosmo_cavitation_energy": 27.25, 
			 "cosmo_dispersion_energy": -20.2, 
			 "cosmo_repulsion_energy": 1.56, 
			 "cosmo_total_nonelectrostatic_energy": 8.61, 
			 "SMD_solvation_energy": 4.16 
		},
		"coords": [
			{
				"x": -1.6859582907,
				"y": 2.2496100503,
				"z": -1.8209489244,
				"element": "C" 
			},
			{
				"x": -1.1359022879,
				"y": 1.3435065158,
				"z": -0.7497152423,
				"element": "C" 
			},
			{
				"x": 0.2809820725,
				"y": 1.220167252,
				"z": -0.5105924804,
				"element": "C" 
			},
			{
				"x": 0.7129087299,
				"y": 0.3612245113,
				"z": 0.4807891645,
				"element": "C" 
			},
			{
				"x": -0.2172882652,
				"y": -0.3758262556,
				"z": 1.2493346701,
				"element": "C" 
			},
			{
				"x": 0.1532975296,
				"y": -1.2829853221,
				"z": 2.2758856954,
				"element": "C" 
			},
			{
				"x": -0.8150375523,
				"y": -1.9581347798,
				"z": 2.9849386297,
				"element": "C" 
			},
			{
				"x": -2.1871451392,
				"y": -1.7536475116,
				"z": 2.6937242623,
				"element": "C" 
			},
			{
				"x": -2.5740776001,
				"y": -0.8808086896,
				"z": 1.7001610092,
				"element": "C" 
			},
			{
				"x": -1.5994400994,
				"y": -0.1710731022,
				"z": 0.9523060041,
				"element": "C" 
			},
			{
				"x": -2.0195855289,
				"y": 0.6793670258,
				"z": -0.0289603876,
				"element": "N" 
			},
			{
				"x": 1.2794296734,
				"y": 1.9498595206,
				"z": -1.3583848404,
				"element": "C" 
			},
			{
				"x": 2.4259189141,
				"y": 2.3312732514,
				"z": -0.7272736881,
				"element": "O" 
			},
			{
				"x": 1.1357493847,
				"y": 2.187589925,
				"z": -2.5338403087,
				"element": "O" 
			},
			{
				"x": -2.7737921215,
				"y": 2.256986891,
				"z": -1.7458023239,
				"element": "H" 
			},
			{
				"x": -1.3821666747,
				"y": 1.9060646903,
				"z": -2.8131809808,
				"element": "H" 
			},
			{
				"x": -1.3040396232,
				"y": 3.2708115585,
				"z": -1.7214970322,
				"element": "H" 
			},
			{
				"x": 1.7757377636,
				"y": 0.2114003396,
				"z": 0.6612977387,
				"element": "H" 
			},
			{
				"x": 1.207673854,
				"y": -1.4352482917,
				"z": 2.4925770068,
				"element": "H" 
			},
			{
				"x": -0.5308932686,
				"y": -2.6513821842,
				"z": 3.7708289678,
				"element": "H" 
			},
			{
				"x": -2.9382169214,
				"y": -2.2946300687,
				"z": 3.2619430666,
				"element": "H" 
			},
			{
				"x": -3.6181064987,
				"y": -0.7110807812,
				"z": 1.4589266969,
				"element": "H" 
			},
			{
				"x": 2.3237519501,
				"y": 2.2291554551,
				"z": 0.2292832965,
				"element": "H" 
			}
		],
		 "valence_orbital": [ 
			{
				"type": "occ",
				"energy": -0.31644,
				"method": "rhf"
			},
			{
				"type": "occ",
				"energy": -0.28073,
				"method": "rhf"
			},
			{
				"type": "occ",
				"energy": -0.26148,
				"method": "rhf"
			},
			{
				"type": "occ",
				"energy": -0.25903,
				"method": "rhf"
			},
			{
				"type": "occ",
				"energy": -0.2451,
				"method": "rhf"
			},
			{
				"type": "unocc",
				"energy": -0.07351,
				"method": "rhf"
			},
			{
				"type": "unocc",
				"energy": -0.04125,
				"method": "rhf"
			},
			{
				"type": "unocc",
				"energy": 0.00401,
				"method": "rhf"
			},
			{
				"type": "unocc",
				"energy": 0.02141,
				"method": "rhf"
			},
			{
				"type": "unocc",
				"energy": 0.06429,
				"method": "rhf"
			}
		],
		"cosmo_sigma_profile": { 
			"-0.025": 0.0,
			"-0.024": 0.0,
			"-0.023": 0.0,
			"-0.022": 0.0,
			"-0.021": 0.0,
			"-0.02": 0.0,
			"-0.019": 0.290043553191,
			"-0.018": 0.788749460615,
			"-0.017": 0.515675358399,
			"-0.016": 1.65920156142,
			"-0.015": 1.12458364058,
			"-0.014": 0.522907382678,
			"-0.013": 1.14342454493,
			"-0.012": 1.4373207314,
			"-0.011": 1.27935693662,
			"-0.01": 0.931002060472,
			"-0.009": 2.53319569301,
			"-0.008": 3.45311966356,
			"-0.007": 5.80017711749,
			"-0.006": 11.1117025202,
			"-0.005": 12.7747308947,
			"-0.004": 14.061604744,
			"-0.003": 12.323643886,
			"-0.002": 12.2640972259,
			"-0.001": 17.6233183344,
			"0.0": 20.5670413085,
			"0.001": 14.3285018092,
			"0.002": 16.2956692611,
			"0.003": 15.0620863766,
			"0.004": 10.7155089083,
			"0.005": 4.3578513586,
			"0.006": 4.18898563239,
			"0.007": 4.2601737513,
			"0.008": 3.72592618567,
			"0.009": 4.8508217514,
			"0.01": 6.04570760206,
			"0.011": 5.79259458583,
			"0.012": 3.4910505657,
			"0.013": 2.17664686287,
			"0.014": 0.646116319899,
			"0.015": 0.0934033930898,
			"0.016": 0.0,
			"0.017": 0.0,
			"0.018": 0.0,
			"0.019": 0.0,
			"0.02": 0.0,
			"0.021": 0.0,
			"0.022": 0.0,
			"0.023": 0.0,
			"0.024": 0.0,
			"0.025": 0.0
		}
	}
}
