{
	 "smiles": "CCCCCCCCCCCCCCCCCCC1CCCCC1", 
	 "Tm": 314.75, 
	 "num_atms": 72, 
	 "gaussian": { 
		 "optdone": 1, 
		 "sigma_profile": "yes", 
		 "theory": "DFT", 
		 "functional": "B3LYP", 
		 "basiset": "6-31G**", 
		 "properties": { 
			 "R2extent": 12568.2536, 
			 "electric_dipole_moment_norm": 0.0414353713631, 
			 "electric_quadrupole_moment_norm": 0.893984054668, 
			 "total_energy": -943.55510981, 
			 "HOMO_LUMO_gap": 0.34342, 
			 "cosmo_polarized_energy": -1.39, 
			 "cosmo_cavitation_energy": 66.23, 
			 "cosmo_dispersion_energy": -39.19, 
			 "cosmo_repulsion_energy": 3.1, 
			 "cosmo_total_nonelectrostatic_energy": 30.15, 
			 "SMD_solvation_energy": 7.65 
		},
		"coords": [
			{
				"x": 5.9684848238,
				"y": -0.8419621528,
				"z": 0.8383325669,
				"element": "C" 
			},
			{
				"x": 5.7971696045,
				"y": -0.1658048368,
				"z": -0.5256528172,
				"element": "C" 
			},
			{
				"x": 4.3915539745,
				"y": 0.4087085194,
				"z": -0.7454514147,
				"element": "C" 
			},
			{
				"x": 4.2187877798,
				"y": 1.0865849229,
				"z": -2.1119923821,
				"element": "C" 
			},
			{
				"x": 2.8479355237,
				"y": 1.7453665614,
				"z": -2.3376094996,
				"element": "C" 
			},
			{
				"x": 1.6632956701,
				"y": 0.7691197612,
				"z": -2.3955746971,
				"element": "C" 
			},
			{
				"x": 0.3370780714,
				"y": 1.4742787829,
				"z": -2.7161067678,
				"element": "C" 
			},
			{
				"x": -0.9444149836,
				"y": 0.6238461798,
				"z": -2.6322619087,
				"element": "C" 
			},
			{
				"x": -1.1140452454,
				"y": -0.4822907276,
				"z": -3.6959841486,
				"element": "C" 
			},
			{
				"x": -0.4445036562,
				"y": -1.8538511596,
				"z": -3.4658532626,
				"element": "C" 
			},
			{
				"x": -1.008631027,
				"y": -2.7001900626,
				"z": -2.3002135323,
				"element": "C" 
			},
			{
				"x": -0.2835797132,
				"y": -2.5405509427,
				"z": -0.9534688499,
				"element": "C" 
			},
			{
				"x": -0.7726348699,
				"y": -3.4991858696,
				"z": 0.1467350181,
				"element": "C" 
			},
			{
				"x": -2.2387071482,
				"y": -3.3255425464,
				"z": 0.588126035,
				"element": "C" 
			},
			{
				"x": -2.6141980563,
				"y": -1.9386910467,
				"z": 1.1391726067,
				"element": "C" 
			},
			{
				"x": -1.8476981182,
				"y": -1.5167459623,
				"z": 2.4001874553,
				"element": "C" 
			},
			{
				"x": -2.3337749206,
				"y": -0.175948394,
				"z": 2.9739431228,
				"element": "C" 
			},
			{
				"x": -1.5843045185,
				"y": 0.2997787735,
				"z": 4.2410116674,
				"element": "C" 
			},
			{
				"x": -0.3968721327,
				"y": 1.2701747696,
				"z": 4.0446170263,
				"element": "C" 
			},
			{
				"x": -0.8405628062,
				"y": 2.6610553855,
				"z": 3.5474211159,
				"element": "C" 
			},
			{
				"x": 0.3392296222,
				"y": 3.6414134791,
				"z": 3.4471820012,
				"element": "C" 
			},
			{
				"x": 1.4668017819,
				"y": 3.0807123362,
				"z": 2.5677719866,
				"element": "C" 
			},
			{
				"x": 1.915093714,
				"y": 1.6947682466,
				"z": 3.054552326,
				"element": "C" 
			},
			{
				"x": 0.7294104757,
				"y": 0.7206425971,
				"z": 3.1480156007,
				"element": "C" 
			},
			{
				"x": 6.9810153212,
				"y": -1.2391544736,
				"z": 0.9654716803,
				"element": "H" 
			},
			{
				"x": 5.2670745085,
				"y": -1.6756701504,
				"z": 0.9583742516,
				"element": "H" 
			},
			{
				"x": 5.7834196922,
				"y": -0.1362243464,
				"z": 1.656428581,
				"element": "H" 
			},
			{
				"x": 6.0207394389,
				"y": -0.8880161334,
				"z": -1.3228661464,
				"element": "H" 
			},
			{
				"x": 6.5373028315,
				"y": 0.6392279458,
				"z": -0.6313279176,
				"element": "H" 
			},
			{
				"x": 4.1708580108,
				"y": 1.1372626907,
				"z": 0.0489756508,
				"element": "H" 
			},
			{
				"x": 3.6554535511,
				"y": -0.3979807346,
				"z": -0.6302062099,
				"element": "H" 
			},
			{
				"x": 4.4016940044,
				"y": 0.3494151764,
				"z": -2.9072708162,
				"element": "H" 
			},
			{
				"x": 4.9993252994,
				"y": 1.8514019417,
				"z": -2.2254663283,
				"element": "H" 
			},
			{
				"x": 2.8812629065,
				"y": 2.3130515329,
				"z": -3.2777702714,
				"element": "H" 
			},
			{
				"x": 2.6672885069,
				"y": 2.4862133924,
				"z": -1.5451022106,
				"element": "H" 
			},
			{
				"x": 1.5680012722,
				"y": 0.2385880675,
				"z": -1.4392790826,
				"element": "H" 
			},
			{
				"x": 1.8754547729,
				"y": 0.0024370007,
				"z": -3.1516559179,
				"element": "H" 
			},
			{
				"x": 0.223949173,
				"y": 2.3208984587,
				"z": -2.023984489,
				"element": "H" 
			},
			{
				"x": 0.4017459099,
				"y": 1.9187390052,
				"z": -3.7201107104,
				"element": "H" 
			},
			{
				"x": -1.7915018176,
				"y": 1.3140710115,
				"z": -2.7389130203,
				"element": "H" 
			},
			{
				"x": -1.0399986089,
				"y": 0.2011355949,
				"z": -1.6245165294,
				"element": "H" 
			},
			{
				"x": -2.1893381174,
				"y": -0.6681965366,
				"z": -3.8242411832,
				"element": "H" 
			},
			{
				"x": -0.7690369161,
				"y": -0.0850150689,
				"z": -4.6612744536,
				"element": "H" 
			},
			{
				"x": 0.6392567576,
				"y": -1.7431162239,
				"z": -3.3427959943,
				"element": "H" 
			},
			{
				"x": -0.5770108349,
				"y": -2.4231738034,
				"z": -4.3948695557,
				"element": "H" 
			},
			{
				"x": -2.0785432298,
				"y": -2.4818576043,
				"z": -2.1831176889,
				"element": "H" 
			},
			{
				"x": -0.9529670868,
				"y": -3.7613601832,
				"z": -2.5795859427,
				"element": "H" 
			},
			{
				"x": -0.3586763161,
				"y": -1.5057674071,
				"z": -0.5995771735,
				"element": "H" 
			},
			{
				"x": 0.7882885011,
				"y": -2.720138914,
				"z": -1.1143499735,
				"element": "H" 
			},
			{
				"x": -0.1165836707,
				"y": -3.393348479,
				"z": 1.0199876297,
				"element": "H" 
			},
			{
				"x": -0.6391817708,
				"y": -4.5328492709,
				"z": -0.2015975103,
				"element": "H" 
			},
			{
				"x": -2.4569084533,
				"y": -4.0806582896,
				"z": 1.3558335075,
				"element": "H" 
			},
			{
				"x": -2.9022694137,
				"y": -3.5589088814,
				"z": -0.2541906595,
				"element": "H" 
			},
			{
				"x": -2.4729736194,
				"y": -1.1769401922,
				"z": 0.3599076911,
				"element": "H" 
			},
			{
				"x": -3.6901858216,
				"y": -1.935846893,
				"z": 1.3619313784,
				"element": "H" 
			},
			{
				"x": -1.9593439294,
				"y": -2.2949411856,
				"z": 3.1694443332,
				"element": "H" 
			},
			{
				"x": -0.7750649798,
				"y": -1.4608443314,
				"z": 2.1829719891,
				"element": "H" 
			},
			{
				"x": -2.2821987326,
				"y": 0.5929702111,
				"z": 2.1916036672,
				"element": "H" 
			},
			{
				"x": -3.4011398089,
				"y": -0.2774539573,
				"z": 3.2103631604,
				"element": "H" 
			},
			{
				"x": -1.2299525577,
				"y": -0.582332555,
				"z": 4.7923948475,
				"element": "H" 
			},
			{
				"x": -2.2986833931,
				"y": 0.7978859136,
				"z": 4.90955839,
				"element": "H" 
			},
			{
				"x": 0.0391272401,
				"y": 1.4196722754,
				"z": 5.0457677808,
				"element": "H" 
			},
			{
				"x": -1.3100881454,
				"y": 2.5669288924,
				"z": 2.5580457941,
				"element": "H" 
			},
			{
				"x": -1.6102462379,
				"y": 3.0654297004,
				"z": 4.2176166556,
				"element": "H" 
			},
			{
				"x": 0.7326554995,
				"y": 3.8358090717,
				"z": 4.4553306031,
				"element": "H" 
			},
			{
				"x": -0.0041175643,
				"y": 4.607319251,
				"z": 3.0569321835,
				"element": "H" 
			},
			{
				"x": 1.1100725814,
				"y": 3.0002628202,
				"z": 1.53057201,
				"element": "H" 
			},
			{
				"x": 2.3172903962,
				"y": 3.7731160998,
				"z": 2.5512185609,
				"element": "H" 
			},
			{
				"x": 2.6855881993,
				"y": 1.287712792,
				"z": 2.3881584258,
				"element": "H" 
			},
			{
				"x": 2.3809292827,
				"y": 1.7932713944,
				"z": 4.0456338504,
				"element": "H" 
			},
			{
				"x": 1.0692856746,
				"y": -0.2521178302,
				"z": 3.5260682414,
				"element": "H" 
			},
			{
				"x": 0.3380178486,
				"y": 0.5436065909,
				"z": 2.1364796737,
				"element": "H" 
			}
		],
		 "valence_orbital": [ 
			{
				"type": "occ",
				"energy": -0.29404,
				"method": "rhf"
			},
			{
				"type": "occ",
				"energy": -0.29383,
				"method": "rhf"
			},
			{
				"type": "occ",
				"energy": -0.29157,
				"method": "rhf"
			},
			{
				"type": "occ",
				"energy": -0.28581,
				"method": "rhf"
			},
			{
				"type": "occ",
				"energy": -0.28445,
				"method": "rhf"
			},
			{
				"type": "unocc",
				"energy": 0.05897,
				"method": "rhf"
			},
			{
				"type": "unocc",
				"energy": 0.07619,
				"method": "rhf"
			},
			{
				"type": "unocc",
				"energy": 0.08815,
				"method": "rhf"
			},
			{
				"type": "unocc",
				"energy": 0.0917,
				"method": "rhf"
			},
			{
				"type": "unocc",
				"energy": 0.09432,
				"method": "rhf"
			}
		],
		"cosmo_sigma_profile": { 
			"-0.025": 0.0,
			"-0.024": 0.0,
			"-0.023": 0.0,
			"-0.022": 0.0,
			"-0.021": 0.0,
			"-0.02": 0.0,
			"-0.019": 0.0,
			"-0.018": 0.0,
			"-0.017": 0.0,
			"-0.016": 0.0,
			"-0.015": 0.0,
			"-0.014": 0.0,
			"-0.013": 0.0,
			"-0.012": 0.0,
			"-0.011": 0.0,
			"-0.01": 0.0,
			"-0.009": 0.0,
			"-0.008": 0.0,
			"-0.007": 0.0,
			"-0.006": 0.0,
			"-0.005": 0.0,
			"-0.004": 0.0,
			"-0.003": 2.08079783033,
			"-0.002": 45.6430627114,
			"-0.001": 134.148742863,
			"0.0": 147.088168212,
			"0.001": 120.544464229,
			"0.002": 53.8213729335,
			"0.003": 0.643882984569,
			"0.004": 0.0,
			"0.005": 0.0,
			"0.006": 0.0,
			"0.007": 0.0,
			"0.008": 0.0,
			"0.009": 0.0,
			"0.01": 0.0,
			"0.011": 0.0,
			"0.012": 0.0,
			"0.013": 0.0,
			"0.014": 0.0,
			"0.015": 0.0,
			"0.016": 0.0,
			"0.017": 0.0,
			"0.018": 0.0,
			"0.019": 0.0,
			"0.02": 0.0,
			"0.021": 0.0,
			"0.022": 0.0,
			"0.023": 0.0,
			"0.024": 0.0,
			"0.025": 0.0
		}
	}
}
