{
	 "smiles": "CN(C)C1=CC=C(C=C1)C(O)(C1=CC=CC=C1)C1=CC=C(C=C1)N(C)C", 
	 "Tm": 386.15, 
	 "num_atms": 52, 
	 "gaussian": { 
		 "optdone": 1, 
		 "sigma_profile": "yes", 
		 "theory": "DFT", 
		 "functional": "B3LYP", 
		 "basiset": "6-31G**", 
		 "properties": { 
			 "R2extent": 12156.7263, 
			 "electric_dipole_moment_norm": 2.95984867519, 
			 "electric_quadrupole_moment_norm": 15.2456987672, 
			 "total_energy": -1076.82229625, 
			 "HOMO_LUMO_gap": 0.18014, 
			 "cosmo_polarized_energy": -14.45, 
			 "cosmo_cavitation_energy": 52.05, 
			 "cosmo_dispersion_energy": -36.04, 
			 "cosmo_repulsion_energy": 2.73, 
			 "cosmo_total_nonelectrostatic_energy": 18.73, 
			 "SMD_solvation_energy": 7.82 
		},
		"coords": [
			{
				"x": -2.3366946166,
				"y": -2.9237955877,
				"z": -4.9213080037,
				"element": "C" 
			},
			{
				"x": -2.6843600829,
				"y": -2.0235968619,
				"z": -3.835159304,
				"element": "N" 
			},
			{
				"x": -4.0954621643,
				"y": -1.826885321,
				"z": -3.5528095152,
				"element": "C" 
			},
			{
				"x": -1.7563964542,
				"y": -1.8027131303,
				"z": -2.8173978347,
				"element": "C" 
			},
			{
				"x": -2.1152984154,
				"y": -1.1487138625,
				"z": -1.6198763311,
				"element": "C" 
			},
			{
				"x": -1.1706491885,
				"y": -0.8966192515,
				"z": -0.6264111652,
				"element": "C" 
			},
			{
				"x": 0.1630080709,
				"y": -1.2919400293,
				"z": -0.762146499,
				"element": "C" 
			},
			{
				"x": 0.5188858854,
				"y": -1.9569472523,
				"z": -1.9422618013,
				"element": "C" 
			},
			{
				"x": -0.4085907751,
				"y": -2.2091556952,
				"z": -2.9464299019,
				"element": "C" 
			},
			{
				"x": 1.2080905489,
				"y": -1.0857437483,
				"z": 0.3438809566,
				"element": "C" 
			},
			{
				"x": 2.4530211431,
				"y": -0.8460375132,
				"z": -0.3486276002,
				"element": "O" 
			},
			{
				"x": 1.3172466244,
				"y": -2.3809219074,
				"z": 1.1799436752,
				"element": "C" 
			},
			{
				"x": 2.5457278678,
				"y": -3.0304413448,
				"z": 1.338232796,
				"element": "C" 
			},
			{
				"x": 2.6466429176,
				"y": -4.2015932882,
				"z": 2.0943209196,
				"element": "C" 
			},
			{
				"x": 1.5177250949,
				"y": -4.7440905668,
				"z": 2.7058051454,
				"element": "C" 
			},
			{
				"x": 0.2830487198,
				"y": -4.1093223038,
				"z": 2.5468555587,
				"element": "C" 
			},
			{
				"x": 0.1843510236,
				"y": -2.9443577113,
				"z": 1.7877162056,
				"element": "C" 
			},
			{
				"x": 0.9169338258,
				"y": 0.1548309739,
				"z": 1.2028032784,
				"element": "C" 
			},
			{
				"x": 0.8542718185,
				"y": 1.4052153369,
				"z": 0.5639687198,
				"element": "C" 
			},
			{
				"x": 0.6575674599,
				"y": 2.5837851852,
				"z": 1.2700531256,
				"element": "C" 
			},
			{
				"x": 0.5250041364,
				"y": 2.5760875772,
				"z": 2.6795112464,
				"element": "C" 
			},
			{
				"x": 0.584389502,
				"y": 1.3206185288,
				"z": 3.3202080557,
				"element": "C" 
			},
			{
				"x": 0.7838670481,
				"y": 0.1465269857,
				"z": 2.5944458451,
				"element": "C" 
			},
			{
				"x": 0.3577842516,
				"y": 3.7550121459,
				"z": 3.3983474172,
				"element": "N" 
			},
			{
				"x": 0.0066239846,
				"y": 3.6817703393,
				"z": 4.8060366877,
				"element": "C" 
			},
			{
				"x": 0.0657714851,
				"y": 4.9871024755,
				"z": 2.6855874221,
				"element": "C" 
			},
			{
				"x": -3.1651521863,
				"y": -2.9631678802,
				"z": -5.6311023848,
				"element": "H" 
			},
			{
				"x": -1.4581673981,
				"y": -2.5603460499,
				"z": -5.4654667292,
				"element": "H" 
			},
			{
				"x": -2.1235854035,
				"y": -3.9509140907,
				"z": -4.5831007779,
				"element": "H" 
			},
			{
				"x": -4.6722912016,
				"y": -2.0261479638,
				"z": -4.457911602,
				"element": "H" 
			},
			{
				"x": -4.4736828618,
				"y": -2.4828999492,
				"z": -2.7517261979,
				"element": "H" 
			},
			{
				"x": -4.2955933317,
				"y": -0.7902453618,
				"z": -3.2599666048,
				"element": "H" 
			},
			{
				"x": -3.1348190264,
				"y": -0.82188173,
				"z": -1.4556850921,
				"element": "H" 
			},
			{
				"x": -1.4878912651,
				"y": -0.3710954452,
				"z": 0.2693111063,
				"element": "H" 
			},
			{
				"x": 1.5453669172,
				"y": -2.2797890546,
				"z": -2.0780106017,
				"element": "H" 
			},
			{
				"x": -0.0754002223,
				"y": -2.7281400908,
				"z": -3.8369480554,
				"element": "H" 
			},
			{
				"x": 3.0403247685,
				"y": -0.4105894017,
				"z": 0.2836123505,
				"element": "H" 
			},
			{
				"x": 3.4228089944,
				"y": -2.6276040132,
				"z": 0.8449761495,
				"element": "H" 
			},
			{
				"x": 3.6115441898,
				"y": -4.6906641565,
				"z": 2.1988698257,
				"element": "H" 
			},
			{
				"x": 1.5944556151,
				"y": -5.6550136814,
				"z": 3.2928260471,
				"element": "H" 
			},
			{
				"x": -0.6078131077,
				"y": -4.5267084672,
				"z": 3.0085136289,
				"element": "H" 
			},
			{
				"x": -0.784748561,
				"y": -2.4731555753,
				"z": 1.6561368573,
				"element": "H" 
			},
			{
				"x": 0.9599789716,
				"y": 1.4489853238,
				"z": -0.5157480249,
				"element": "H" 
			},
			{
				"x": 0.6076225517,
				"y": 3.5151044911,
				"z": 0.7191513662,
				"element": "H" 
			},
			{
				"x": 0.4792158537,
				"y": 1.2475760992,
				"z": 4.3956949288,
				"element": "H" 
			},
			{
				"x": 0.831079676,
				"y": -0.7910718257,
				"z": 3.1371137616,
				"element": "H" 
			},
			{
				"x": -0.954326485,
				"y": 3.1734364192,
				"z": 4.9851149908,
				"element": "H" 
			},
			{
				"x": 0.7780703176,
				"y": 3.1520399098,
				"z": 5.3762296361,
				"element": "H" 
			},
			{
				"x": -0.0618011826,
				"y": 4.6929579231,
				"z": 5.2108217547,
				"element": "H" 
			},
			{
				"x": -0.8731287214,
				"y": 4.9415824799,
				"z": 2.1111031588,
				"element": "H" 
			},
			{
				"x": 0.8735694337,
				"y": 5.2406550774,
				"z": 1.9899614786,
				"element": "H" 
			},
			{
				"x": -0.0138460462,
				"y": 5.8048228412,
				"z": 3.403939931,
				"element": "H" 
			}
		],
		 "valence_orbital": [ 
			{
				"type": "occ",
				"energy": -0.23625,
				"method": "rhf"
			},
			{
				"type": "occ",
				"energy": -0.23228,
				"method": "rhf"
			},
			{
				"type": "occ",
				"energy": -0.2291,
				"method": "rhf"
			},
			{
				"type": "occ",
				"energy": -0.18579,
				"method": "rhf"
			},
			{
				"type": "occ",
				"energy": -0.17772,
				"method": "rhf"
			},
			{
				"type": "unocc",
				"energy": 0.00242,
				"method": "rhf"
			},
			{
				"type": "unocc",
				"energy": 0.0068,
				"method": "rhf"
			},
			{
				"type": "unocc",
				"energy": 0.0117,
				"method": "rhf"
			},
			{
				"type": "unocc",
				"energy": 0.01697,
				"method": "rhf"
			},
			{
				"type": "unocc",
				"energy": 0.02512,
				"method": "rhf"
			}
		],
		"cosmo_sigma_profile": { 
			"-0.025": 0.0,
			"-0.024": 0.0,
			"-0.023": 0.0,
			"-0.022": 0.0,
			"-0.021": 0.0,
			"-0.02": 0.0,
			"-0.019": 0.0,
			"-0.018": 0.0,
			"-0.017": 0.0,
			"-0.016": 0.0,
			"-0.015": 0.0503332005874,
			"-0.014": 0.893580186344,
			"-0.013": 0.642166106866,
			"-0.012": 0.522115387167,
			"-0.011": 0.485389694549,
			"-0.01": 0.844811440524,
			"-0.009": 0.567008273727,
			"-0.008": 1.289619786,
			"-0.007": 2.47232510619,
			"-0.006": 8.50002626213,
			"-0.005": 27.047413171,
			"-0.004": 36.1443861579,
			"-0.003": 50.1757724627,
			"-0.002": 50.5280100872,
			"-0.001": 45.6185446642,
			"0.0": 25.7055291426,
			"0.001": 19.9093677043,
			"0.002": 20.9229728447,
			"0.003": 21.4287625438,
			"0.004": 20.7836177603,
			"0.005": 23.8980254892,
			"0.006": 27.9015919384,
			"0.007": 15.0033482647,
			"0.008": 3.66812136708,
			"0.009": 1.93046108116,
			"0.01": 1.45261639689,
			"0.011": 1.2129351196,
			"0.012": 1.24852377312,
			"0.013": 0.569126923943,
			"0.014": 0.0240190569877,
			"0.015": 0.0,
			"0.016": 0.0,
			"0.017": 0.0,
			"0.018": 0.0,
			"0.019": 0.0,
			"0.02": 0.0,
			"0.021": 0.0,
			"0.022": 0.0,
			"0.023": 0.0,
			"0.024": 0.0,
			"0.025": 0.0
		}
	}
}
