{
	 "smiles": "CC1=CC=C(C=C1)C1=C(CC(O)=O)SC(=N1)C1=CC=CC=C1", 
	 "Tm": 439.15, 
	 "num_atms": 37, 
	 "gaussian": { 
		 "optdone": 1, 
		 "sigma_profile": "yes", 
		 "theory": "DFT", 
		 "functional": "B3LYP", 
		 "basiset": "6-31G**", 
		 "properties": { 
			 "R2extent": 9364.4885, 
			 "electric_dipole_moment_norm": 1.52232143124, 
			 "electric_quadrupole_moment_norm": 11.5477002126, 
			 "total_energy": -1298.37487561, 
			 "HOMO_LUMO_gap": 0.15346, 
			 "cosmo_polarized_energy": -13.55, 
			 "cosmo_cavitation_energy": 42.91, 
			 "cosmo_dispersion_energy": -30.85, 
			 "cosmo_repulsion_energy": 2.3, 
			 "cosmo_total_nonelectrostatic_energy": 14.36, 
			 "SMD_solvation_energy": 6.85 
		},
		"coords": [
			{
				"x": -1.4319046554,
				"y": -5.7126540983,
				"z": 2.6868413309,
				"element": "C" 
			},
			{
				"x": -0.9352873836,
				"y": -4.3745494052,
				"z": 2.1935463228,
				"element": "C" 
			},
			{
				"x": -1.8303691254,
				"y": -3.4062616077,
				"z": 1.7130806007,
				"element": "C" 
			},
			{
				"x": -1.3829564408,
				"y": -2.1634187577,
				"z": 1.2797626169,
				"element": "C" 
			},
			{
				"x": -0.015427804,
				"y": -1.8370184455,
				"z": 1.3168459679,
				"element": "C" 
			},
			{
				"x": 0.8878791908,
				"y": -2.810654938,
				"z": 1.7729313759,
				"element": "C" 
			},
			{
				"x": 0.4265499345,
				"y": -4.0543500574,
				"z": 2.2071139184,
				"element": "C" 
			},
			{
				"x": 0.4157359607,
				"y": -0.5009561502,
				"z": 0.8505313221,
				"element": "C" 
			},
			{
				"x": 1.4338016222,
				"y": 0.2775373868,
				"z": 1.3678315006,
				"element": "C" 
			},
			{
				"x": 2.32935477,
				"y": 0.0236797418,
				"z": 2.5516831935,
				"element": "C" 
			},
			{
				"x": 3.7264242443,
				"y": -0.4119305366,
				"z": 2.1304491814,
				"element": "C" 
			},
			{
				"x": 4.5269874088,
				"y": 0.6521513964,
				"z": 1.8950405074,
				"element": "O" 
			},
			{
				"x": 4.0978996387,
				"y": -1.5562783872,
				"z": 1.9899337625,
				"element": "O" 
			},
			{
				"x": 1.5312333829,
				"y": 1.7802415979,
				"z": 0.4858616375,
				"element": "S" 
			},
			{
				"x": 0.1626229469,
				"y": 1.2656563499,
				"z": -0.5003062543,
				"element": "C" 
			},
			{
				"x": -0.2876707415,
				"y": 0.0832094903,
				"z": -0.1836117092,
				"element": "N" 
			},
			{
				"x": -0.389862977,
				"y": 2.0929533626,
				"z": -1.5819766188,
				"element": "C" 
			},
			{
				"x": -1.4179250288,
				"y": 1.5668057403,
				"z": -2.3845846459,
				"element": "C" 
			},
			{
				"x": -1.9646136321,
				"y": 2.3269239632,
				"z": -3.4142378477,
				"element": "C" 
			},
			{
				"x": -1.4968482267,
				"y": 3.6203469026,
				"z": -3.6626819467,
				"element": "C" 
			},
			{
				"x": -0.4760886482,
				"y": 4.1499747134,
				"z": -2.8705898432,
				"element": "C" 
			},
			{
				"x": 0.073247164,
				"y": 3.3937305997,
				"z": -1.8374587399,
				"element": "C" 
			},
			{
				"x": -1.8387927044,
				"y": -5.6349853935,
				"z": 3.7030879653,
				"element": "H" 
			},
			{
				"x": -0.6275359575,
				"y": -6.4533805189,
				"z": 2.7125566421,
				"element": "H" 
			},
			{
				"x": -2.2321533904,
				"y": -6.1031150753,
				"z": 2.0496091836,
				"element": "H" 
			},
			{
				"x": -2.8935765957,
				"y": -3.6326147373,
				"z": 1.6766769025,
				"element": "H" 
			},
			{
				"x": -2.0864872046,
				"y": -1.4291781922,
				"z": 0.9017803552,
				"element": "H" 
			},
			{
				"x": 1.9562307662,
				"y": -2.6197227293,
				"z": 1.7584971974,
				"element": "H" 
			},
			{
				"x": 1.146286328,
				"y": -4.794760015,
				"z": 2.5476850051,
				"element": "H" 
			},
			{
				"x": 2.4147324695,
				"y": 0.9269574477,
				"z": 3.1639669357,
				"element": "H" 
			},
			{
				"x": 1.9005271333,
				"y": -0.7749438456,
				"z": 3.1593168578,
				"element": "H" 
			},
			{
				"x": 5.3752579988,
				"y": 0.296497958,
				"z": 1.5793442914,
				"element": "H" 
			},
			{
				"x": -1.7691780319,
				"y": 0.5609949127,
				"z": -2.1832688434,
				"element": "H" 
			},
			{
				"x": -2.7575027915,
				"y": 1.9083102062,
				"z": -4.0274064308,
				"element": "H" 
			},
			{
				"x": -1.9244029385,
				"y": 4.2109357898,
				"z": -4.4676505304,
				"element": "H" 
			},
			{
				"x": -0.1074366219,
				"y": 5.1546398852,
				"z": -3.0555373373,
				"element": "H" 
			},
			{
				"x": 0.8632499404,
				"y": 3.8216254465,
				"z": -1.2261638269,
				"element": "H" 
			}
		],
		 "valence_orbital": [ 
			{
				"type": "occ",
				"energy": -0.27056,
				"method": "rhf"
			},
			{
				"type": "occ",
				"energy": -0.2559,
				"method": "rhf"
			},
			{
				"type": "occ",
				"energy": -0.24355,
				"method": "rhf"
			},
			{
				"type": "occ",
				"energy": -0.23982,
				"method": "rhf"
			},
			{
				"type": "occ",
				"energy": -0.20869,
				"method": "rhf"
			},
			{
				"type": "unocc",
				"energy": -0.05523,
				"method": "rhf"
			},
			{
				"type": "unocc",
				"energy": -0.01947,
				"method": "rhf"
			},
			{
				"type": "unocc",
				"energy": -0.00474,
				"method": "rhf"
			},
			{
				"type": "unocc",
				"energy": 0.00037,
				"method": "rhf"
			},
			{
				"type": "unocc",
				"energy": 0.00504,
				"method": "rhf"
			}
		],
		"cosmo_sigma_profile": { 
			"-0.025": 0.0,
			"-0.024": 0.0,
			"-0.023": 0.0,
			"-0.022": 0.0,
			"-0.021": 0.0,
			"-0.02": 0.0,
			"-0.019": 0.239642041431,
			"-0.018": 0.870019312085,
			"-0.017": 0.78842811073,
			"-0.016": 1.37528440363,
			"-0.015": 0.492060207278,
			"-0.014": 0.716149524848,
			"-0.013": 0.880506902241,
			"-0.012": 0.555859445803,
			"-0.011": 0.819551576213,
			"-0.01": 0.581831194571,
			"-0.009": 0.311058077973,
			"-0.008": 1.40086810777,
			"-0.007": 5.29206077288,
			"-0.006": 14.165781037,
			"-0.005": 22.256780723,
			"-0.004": 28.3909419621,
			"-0.003": 24.9864824278,
			"-0.002": 24.1705236402,
			"-0.001": 24.2819581378,
			"0.0": 29.9668531921,
			"0.001": 32.4743579924,
			"0.002": 27.7086464354,
			"0.003": 26.4110117291,
			"0.004": 25.1657333156,
			"0.005": 21.8421811248,
			"0.006": 9.04794535706,
			"0.007": 4.72676954123,
			"0.008": 4.11936898969,
			"0.009": 3.33702603743,
			"0.01": 3.12856918401,
			"0.011": 4.42512424806,
			"0.012": 0.59325685697,
			"0.013": 0.0,
			"0.014": 0.0,
			"0.015": 0.0,
			"0.016": 0.0,
			"0.017": 0.0,
			"0.018": 0.0,
			"0.019": 0.0,
			"0.02": 0.0,
			"0.021": 0.0,
			"0.022": 0.0,
			"0.023": 0.0,
			"0.024": 0.0,
			"0.025": 0.0
		}
	}
}
