{
	 "smiles": "COC(=O)C1=C(C=C(Cl)C=C1)S(Cl)(=O)=O", 
	 "Tm": 337.15, 
	 "num_atms": 21, 
	 "gaussian": { 
		 "optdone": 1, 
		 "sigma_profile": "yes", 
		 "theory": "DFT", 
		 "functional": "B3LYP", 
		 "basiset": "6-31G**", 
		 "properties": { 
			 "R2extent": 4724.7155, 
			 "electric_dipole_moment_norm": 5.8366607054, 
			 "electric_quadrupole_moment_norm": 7.80450683131, 
			 "total_energy": -1927.85932876, 
			 "HOMO_LUMO_gap": 0.1853, 
			 "cosmo_polarized_energy": -13.0, 
			 "cosmo_cavitation_energy": 31.13, 
			 "cosmo_dispersion_energy": -23.05, 
			 "cosmo_repulsion_energy": 1.78, 
			 "cosmo_total_nonelectrostatic_energy": 9.86, 
			 "SMD_solvation_energy": 5.24 
		},
		"coords": [
			{
				"x": -3.6198433252,
				"y": -1.1448834604,
				"z": 1.0671748969,
				"element": "C" 
			},
			{
				"x": -2.6877525528,
				"y": -0.718520818,
				"z": 0.0542373923,
				"element": "O" 
			},
			{
				"x": -1.3934887365,
				"y": -0.9737763883,
				"z": 0.3295479569,
				"element": "C" 
			},
			{
				"x": -1.0072902594,
				"y": -1.5231091012,
				"z": 1.3353817546,
				"element": "O" 
			},
			{
				"x": -0.5067953551,
				"y": -0.5445590155,
				"z": -0.8033527792,
				"element": "C" 
			},
			{
				"x": 0.8048186854,
				"y": -0.0636329225,
				"z": -0.6315742705,
				"element": "C" 
			},
			{
				"x": 1.6270134944,
				"y": 0.2265362964,
				"z": -1.7190373225,
				"element": "C" 
			},
			{
				"x": 1.13872904,
				"y": 0.022307054,
				"z": -3.009643774,
				"element": "C" 
			},
			{
				"x": 2.1680211162,
				"y": 0.36853554,
				"z": -4.3776764867,
				"element": "Cl" 
			},
			{
				"x": -0.1600108314,
				"y": -0.4370390553,
				"z": -3.2166376722,
				"element": "C" 
			},
			{
				"x": -0.9692598834,
				"y": -0.7069881402,
				"z": -2.1156664232,
				"element": "C" 
			},
			{
				"x": 1.5077421286,
				"y": 0.3987854577,
				"z": 0.975573575,
				"element": "S" 
			},
			{
				"x": 2.1793296123,
				"y": -1.4467383129,
				"z": 1.7448692612,
				"element": "Cl" 
			},
			{
				"x": 0.4591744296,
				"y": 0.9155734288,
				"z": 1.8416907563,
				"element": "O" 
			},
			{
				"x": 2.719267925,
				"y": 1.1688406614,
				"z": 0.7143918286,
				"element": "O" 
			},
			{
				"x": -3.3978703544,
				"y": -0.6513383851,
				"z": 2.0156743041,
				"element": "H" 
			},
			{
				"x": -4.6026271619,
				"y": -0.8526146143,
				"z": 0.699222851,
				"element": "H" 
			},
			{
				"x": -3.5638929059,
				"y": -2.2270129629,
				"z": 1.2071003017,
				"element": "H" 
			},
			{
				"x": 2.622122615,
				"y": 0.6210313576,
				"z": -1.5572316064,
				"element": "H" 
			},
			{
				"x": -0.533497247,
				"y": -0.579682712,
				"z": -4.2243240523,
				"element": "H" 
			},
			{
				"x": -1.9819904336,
				"y": -1.0615139072,
				"z": -2.2667204916,
				"element": "H" 
			}
		],
		 "valence_orbital": [ 
			{
				"type": "occ",
				"energy": -0.3203,
				"method": "rhf"
			},
			{
				"type": "occ",
				"energy": -0.311,
				"method": "rhf"
			},
			{
				"type": "occ",
				"energy": -0.30324,
				"method": "rhf"
			},
			{
				"type": "occ",
				"energy": -0.29587,
				"method": "rhf"
			},
			{
				"type": "occ",
				"energy": -0.28049,
				"method": "rhf"
			},
			{
				"type": "unocc",
				"energy": -0.09519,
				"method": "rhf"
			},
			{
				"type": "unocc",
				"energy": -0.07024,
				"method": "rhf"
			},
			{
				"type": "unocc",
				"energy": -0.05507,
				"method": "rhf"
			},
			{
				"type": "unocc",
				"energy": 0.00402,
				"method": "rhf"
			},
			{
				"type": "unocc",
				"energy": 0.01401,
				"method": "rhf"
			}
		],
		"cosmo_sigma_profile": { 
			"-0.025": 0.0,
			"-0.024": 0.0,
			"-0.023": 0.0,
			"-0.022": 0.0,
			"-0.021": 0.0,
			"-0.02": 0.0,
			"-0.019": 0.0,
			"-0.018": 0.0,
			"-0.017": 0.0,
			"-0.016": 0.0,
			"-0.015": 0.0,
			"-0.014": 0.0,
			"-0.013": 0.0,
			"-0.012": 0.0,
			"-0.011": 0.0,
			"-0.01": 0.345527722489,
			"-0.009": 3.4269343937,
			"-0.008": 5.1294614306,
			"-0.007": 8.04579280121,
			"-0.006": 13.2657710043,
			"-0.005": 14.8872411348,
			"-0.004": 18.0099264858,
			"-0.003": 19.1804204666,
			"-0.002": 25.7828590112,
			"-0.001": 23.1467851308,
			"0.0": 16.6088500242,
			"0.001": 14.2795722858,
			"0.002": 16.4019803412,
			"0.003": 23.6596977639,
			"0.004": 8.97763916785,
			"0.005": 5.7473541091,
			"0.006": 5.72376394873,
			"0.007": 8.49340238085,
			"0.008": 10.69184922,
			"0.009": 6.89249380408,
			"0.01": 3.89804472894,
			"0.011": 2.36985888459,
			"0.012": 0.11519773832,
			"0.013": 0.0,
			"0.014": 0.0,
			"0.015": 0.0,
			"0.016": 0.0,
			"0.017": 0.0,
			"0.018": 0.0,
			"0.019": 0.0,
			"0.02": 0.0,
			"0.021": 0.0,
			"0.022": 0.0,
			"0.023": 0.0,
			"0.024": 0.0,
			"0.025": 0.0
		}
	}
}
