{
	 "smiles": "CC1(NC(=O)NC1=O)C1=CC=C(C=C1)[N+]([O-])=O", 
	 "Tm": 509.15, 
	 "num_atms": 26, 
	 "gaussian": { 
		 "optdone": 1, 
		 "sigma_profile": "yes", 
		 "theory": "DFT", 
		 "functional": "B3LYP", 
		 "basiset": "6-31G**", 
		 "properties": { 
			 "R2extent": 5702.903, 
			 "electric_dipole_moment_norm": 4.34969402717, 
			 "electric_quadrupole_moment_norm": 17.3910614383, 
			 "total_energy": -851.580710826, 
			 "HOMO_LUMO_gap": 0.18109, 
			 "cosmo_polarized_energy": -20.86, 
			 "cosmo_cavitation_energy": 31.39, 
			 "cosmo_dispersion_energy": -22.37, 
			 "cosmo_repulsion_energy": 1.73, 
			 "cosmo_total_nonelectrostatic_energy": 10.75, 
			 "SMD_solvation_energy": 9.37 
		},
		"coords": [
			{
				"x": -1.9056700881,
				"y": -0.003010228,
				"z": -1.2656703664,
				"element": "C" 
			},
			{
				"x": -0.7700041912,
				"y": 1.013500685,
				"z": -1.5103141737,
				"element": "C" 
			},
			{
				"x": -1.1844546542,
				"y": 2.3746209056,
				"z": -1.1767455307,
				"element": "N" 
			},
			{
				"x": -1.3225097074,
				"y": 3.194125014,
				"z": -2.2756767732,
				"element": "C" 
			},
			{
				"x": -1.7612321804,
				"y": 4.321700428,
				"z": -2.3234631488,
				"element": "O" 
			},
			{
				"x": -0.8408595138,
				"y": 2.4417510941,
				"z": -3.3673240489,
				"element": "N" 
			},
			{
				"x": -0.5241432367,
				"y": 1.1440164507,
				"z": -3.0419521282,
				"element": "C" 
			},
			{
				"x": -0.1517974978,
				"y": 0.2659518974,
				"z": -3.7898800622,
				"element": "O" 
			},
			{
				"x": 0.5194669484,
				"y": 0.5878569408,
				"z": -0.7988984238,
				"element": "C" 
			},
			{
				"x": 1.1260433461,
				"y": -0.6349975473,
				"z": -1.1315890327,
				"element": "C" 
			},
			{
				"x": 2.2810895725,
				"y": -1.0543839773,
				"z": -0.4801763862,
				"element": "C" 
			},
			{
				"x": 2.824589551,
				"y": -0.2422799648,
				"z": 0.5134431316,
				"element": "C" 
			},
			{
				"x": 2.2528300873,
				"y": 0.9787883984,
				"z": 0.8572147667,
				"element": "C" 
			},
			{
				"x": 1.100154739,
				"y": 1.3899465937,
				"z": 0.1914222701,
				"element": "C" 
			},
			{
				"x": 4.0409647045,
				"y": -0.684670904,
				"z": 1.2141417751,
				"element": "N" 
			},
			{
				"x": 4.5231831963,
				"y": -1.7689618764,
				"z": 0.8894018673,
				"element": "O" 
			},
			{
				"x": 4.4999200781,
				"y": 0.056386067,
				"z": 2.0826988344,
				"element": "O" 
			},
			{
				"x": -2.8186404743,
				"y": 0.3167810649,
				"z": -1.7764419828,
				"element": "H" 
			},
			{
				"x": -2.1099910625,
				"y": -0.0869457581,
				"z": -0.1939745535,
				"element": "H" 
			},
			{
				"x": -1.6249492577,
				"y": -0.988380497,
				"z": -1.6420860949,
				"element": "H" 
			},
			{
				"x": -1.7145541336,
				"y": 2.5970106663,
				"z": -0.3468136416,
				"element": "H" 
			},
			{
				"x": -0.8050925178,
				"y": 2.8161210741,
				"z": -4.3051328256,
				"element": "H" 
			},
			{
				"x": 0.7113212664,
				"y": -1.2432584864,
				"z": -1.9267748141,
				"element": "H" 
			},
			{
				"x": 2.765133607,
				"y": -1.9905253318,
				"z": -0.7283638565,
				"element": "H" 
			},
			{
				"x": 2.7117854711,
				"y": 1.585460501,
				"z": 1.6277125562,
				"element": "H" 
			},
			{
				"x": 0.6569159478,
				"y": 2.3481967902,
				"z": 0.4360426422,
				"element": "H" 
			}
		],
		 "valence_orbital": [ 
			{
				"type": "occ",
				"energy": -0.29396,
				"method": "rhf"
			},
			{
				"type": "occ",
				"energy": -0.29164,
				"method": "rhf"
			},
			{
				"type": "occ",
				"energy": -0.28658,
				"method": "rhf"
			},
			{
				"type": "occ",
				"energy": -0.28274,
				"method": "rhf"
			},
			{
				"type": "occ",
				"energy": -0.27475,
				"method": "rhf"
			},
			{
				"type": "unocc",
				"energy": -0.09366,
				"method": "rhf"
			},
			{
				"type": "unocc",
				"energy": -0.03442,
				"method": "rhf"
			},
			{
				"type": "unocc",
				"energy": -0.02937,
				"method": "rhf"
			},
			{
				"type": "unocc",
				"energy": -0.00306,
				"method": "rhf"
			},
			{
				"type": "unocc",
				"energy": 0.04164,
				"method": "rhf"
			}
		],
		"cosmo_sigma_profile": { 
			"-0.025": 0.0,
			"-0.024": 0.0,
			"-0.023": 0.0,
			"-0.022": 0.0,
			"-0.021": 0.0,
			"-0.02": 0.0,
			"-0.019": 0.0,
			"-0.018": 0.0233541391725,
			"-0.017": 0.889974243588,
			"-0.016": 1.52472800523,
			"-0.015": 2.46701727046,
			"-0.014": 2.1324786047,
			"-0.013": 1.40244225249,
			"-0.012": 2.07577378441,
			"-0.011": 2.04169875739,
			"-0.01": 2.65607121883,
			"-0.009": 2.34854528414,
			"-0.008": 3.24687489206,
			"-0.007": 9.69649141832,
			"-0.006": 14.7588449257,
			"-0.005": 16.4223365155,
			"-0.004": 14.5724231829,
			"-0.003": 16.2643806985,
			"-0.002": 19.6207799994,
			"-0.001": 19.1271470347,
			"0.0": 15.02697414,
			"0.001": 17.0423186056,
			"0.002": 11.7232898205,
			"0.003": 5.55899848267,
			"0.004": 4.96463538937,
			"0.005": 5.80113833572,
			"0.006": 6.22333731116,
			"0.007": 9.64519468467,
			"0.008": 11.1459762887,
			"0.009": 7.3903263246,
			"0.01": 5.98122711591,
			"0.011": 6.85460334982,
			"0.012": 8.1450483952,
			"0.013": 3.67870348439,
			"0.014": 0.0991198120412,
			"0.015": 0.0,
			"0.016": 0.0,
			"0.017": 0.0,
			"0.018": 0.0,
			"0.019": 0.0,
			"0.02": 0.0,
			"0.021": 0.0,
			"0.022": 0.0,
			"0.023": 0.0,
			"0.024": 0.0,
			"0.025": 0.0
		}
	}
}
