{
	 "smiles": "N1C2=CC=CC=C2C2=CC=CC=C12", 
	 "Tm": 518.15, 
	 "num_atms": 22, 
	 "gaussian": { 
		 "optdone": 1, 
		 "sigma_profile": "yes", 
		 "theory": "DFT", 
		 "functional": "B3LYP", 
		 "basiset": "6-31G**", 
		 "properties": { 
			 "R2extent": 2513.6088, 
			 "electric_dipole_moment_norm": 1.64886466698, 
			 "electric_quadrupole_moment_norm": 11.7188224771, 
			 "total_energy": -517.475952719, 
			 "HOMO_LUMO_gap": 0.17612, 
			 "cosmo_polarized_energy": -8.71, 
			 "cosmo_cavitation_energy": 25.5, 
			 "cosmo_dispersion_energy": -19.3, 
			 "cosmo_repulsion_energy": 1.49, 
			 "cosmo_total_nonelectrostatic_energy": 7.69, 
			 "SMD_solvation_energy": 3.62 
		},
		"coords": [
			{
				"x": -1.0557931707,
				"y": -1.6928998912,
				"z": 1.1018028141,
				"element": "N" 
			},
			{
				"x": -1.1356807217,
				"y": -0.310062208,
				"z": 1.1711974891,
				"element": "C" 
			},
			{
				"x": -1.6799620001,
				"y": 0.5019673476,
				"z": 2.1689948211,
				"element": "C" 
			},
			{
				"x": -1.6257956215,
				"y": 1.8814479063,
				"z": 1.980751519,
				"element": "C" 
			},
			{
				"x": -1.0446352866,
				"y": 2.4399190396,
				"z": 0.8284885199,
				"element": "C" 
			},
			{
				"x": -0.5038288107,
				"y": 1.624793608,
				"z": -0.1624599806,
				"element": "C" 
			},
			{
				"x": -0.5440416038,
				"y": 0.2344836472,
				"z": -0.0003537044,
				"element": "C" 
			},
			{
				"x": -0.0928456166,
				"y": -0.8882050514,
				"z": -0.7999469935,
				"element": "C" 
			},
			{
				"x": 0.5536044293,
				"y": -1.0064250309,
				"z": -2.0364691038,
				"element": "C" 
			},
			{
				"x": 0.8500417758,
				"y": -2.27456283,
				"z": -2.529250799,
				"element": "C" 
			},
			{
				"x": 0.5076951915,
				"y": -3.4271812792,
				"z": -1.8001296922,
				"element": "C" 
			},
			{
				"x": -0.135840357,
				"y": -3.3401437638,
				"z": -0.5674027139,
				"element": "C" 
			},
			{
				"x": -0.4303316555,
				"y": -2.0650973559,
				"z": -0.0787503982,
				"element": "C" 
			},
			{
				"x": -1.3993569203,
				"y": -2.3295190147,
				"z": 1.8017989123,
				"element": "H" 
			},
			{
				"x": -2.1299889801,
				"y": 0.075278167,
				"z": 3.0608740595,
				"element": "H" 
			},
			{
				"x": -2.0414444792,
				"y": 2.5369597562,
				"z": 2.7405993808,
				"element": "H" 
			},
			{
				"x": -1.018556954,
				"y": 3.5192045756,
				"z": 0.7125687428,
				"element": "H" 
			},
			{
				"x": -0.0561156388,
				"y": 2.0621619238,
				"z": -1.0505527113,
				"element": "H" 
			},
			{
				"x": 0.8206204498,
				"y": -0.1195332893,
				"z": -2.6044242193,
				"element": "H" 
			},
			{
				"x": 1.3511326122,
				"y": -2.3772933473,
				"z": -3.487023444,
				"element": "H" 
			},
			{
				"x": 0.7489124208,
				"y": -4.4060897586,
				"z": -2.2043344931,
				"element": "H" 
			},
			{
				"x": -0.3982890626,
				"y": -4.2335031509,
				"z": -0.0078780053,
				"element": "H" 
			}
		],
		 "valence_orbital": [ 
			{
				"type": "occ",
				"energy": -0.32436,
				"method": "rhf"
			},
			{
				"type": "occ",
				"energy": -0.27579,
				"method": "rhf"
			},
			{
				"type": "occ",
				"energy": -0.2488,
				"method": "rhf"
			},
			{
				"type": "occ",
				"energy": -0.20997,
				"method": "rhf"
			},
			{
				"type": "occ",
				"energy": -0.20054,
				"method": "rhf"
			},
			{
				"type": "unocc",
				"energy": -0.02442,
				"method": "rhf"
			},
			{
				"type": "unocc",
				"energy": 0.009,
				"method": "rhf"
			},
			{
				"type": "unocc",
				"energy": 0.03335,
				"method": "rhf"
			},
			{
				"type": "unocc",
				"energy": 0.04657,
				"method": "rhf"
			},
			{
				"type": "unocc",
				"energy": 0.08478,
				"method": "rhf"
			}
		],
		"cosmo_sigma_profile": { 
			"-0.025": 0.0,
			"-0.024": 0.0,
			"-0.023": 0.0,
			"-0.022": 0.0,
			"-0.021": 0.0,
			"-0.02": 0.0,
			"-0.019": 0.0,
			"-0.018": 0.0,
			"-0.017": 0.0,
			"-0.016": 0.112766653526,
			"-0.015": 1.44079233251,
			"-0.014": 1.59097588113,
			"-0.013": 0.60807684183,
			"-0.012": 1.48246799219,
			"-0.011": 1.49344583827,
			"-0.01": 1.30649669692,
			"-0.009": 1.44376417344,
			"-0.008": 1.28661208173,
			"-0.007": 1.95355492006,
			"-0.006": 7.26989088301,
			"-0.005": 16.7261562336,
			"-0.004": 15.0235415599,
			"-0.003": 17.2698869827,
			"-0.002": 12.8681122489,
			"-0.001": 12.3060815584,
			"0.0": 9.44788502268,
			"0.001": 9.10142790333,
			"0.002": 11.9104751284,
			"0.003": 16.6387499332,
			"0.004": 19.6227743962,
			"0.005": 19.2744938882,
			"0.006": 17.5055283444,
			"0.007": 7.26901853054,
			"0.008": 0.0,
			"0.009": 0.0,
			"0.01": 0.0,
			"0.011": 0.0,
			"0.012": 0.0,
			"0.013": 0.0,
			"0.014": 0.0,
			"0.015": 0.0,
			"0.016": 0.0,
			"0.017": 0.0,
			"0.018": 0.0,
			"0.019": 0.0,
			"0.02": 0.0,
			"0.021": 0.0,
			"0.022": 0.0,
			"0.023": 0.0,
			"0.024": 0.0,
			"0.025": 0.0
		}
	}
}
