{
	 "smiles": "CC1=CC=CC(C#N)=C1C", 
	 "Tm": 297.15, 
	 "num_atms": 19, 
	 "gaussian": { 
		 "optdone": 1, 
		 "sigma_profile": "yes", 
		 "theory": "DFT", 
		 "functional": "B3LYP", 
		 "basiset": "6-31G**", 
		 "properties": { 
			 "R2extent": 2070.1228, 
			 "electric_dipole_moment_norm": 4.62471070987, 
			 "electric_quadrupole_moment_norm": 12.8142074386, 
			 "total_energy": -403.132275771, 
			 "HOMO_LUMO_gap": 0.21214, 
			 "cosmo_polarized_energy": -8.2, 
			 "cosmo_cavitation_energy": 23.08, 
			 "cosmo_dispersion_energy": -16.38, 
			 "cosmo_repulsion_energy": 1.32, 
			 "cosmo_total_nonelectrostatic_energy": 8.01, 
			 "SMD_solvation_energy": 5.29 
		},
		"coords": [
			{
				"x": -2.1194911083,
				"y": 0.5896792565,
				"z": -1.5170114099,
				"element": "C" 
			},
			{
				"x": -1.6111915547,
				"y": 1.2063619643,
				"z": -0.2355723514,
				"element": "C" 
			},
			{
				"x": -2.1500006526,
				"y": 2.4138763999,
				"z": 0.221764781,
				"element": "C" 
			},
			{
				"x": -1.7059914229,
				"y": 3.0142527352,
				"z": 1.4011615605,
				"element": "C" 
			},
			{
				"x": -0.7052399349,
				"y": 2.405161637,
				"z": 2.1452710873,
				"element": "C" 
			},
			{
				"x": -0.1525030562,
				"y": 1.1910813695,
				"z": 1.70021408,
				"element": "C" 
			},
			{
				"x": 0.8810465555,
				"y": 0.5870834793,
				"z": 2.4931744698,
				"element": "C" 
			},
			{
				"x": 1.717846202,
				"y": 0.1087288347,
				"z": 3.1454655074,
				"element": "N" 
			},
			{
				"x": -0.5933090315,
				"y": 0.5739399605,
				"z": 0.508792259,
				"element": "C" 
			},
			{
				"x": 0.0026933482,
				"y": -0.7284288406,
				"z": 0.0354850396,
				"element": "C" 
			},
			{
				"x": -2.5342756544,
				"y": -0.4110098177,
				"z": -1.347722066,
				"element": "H" 
			},
			{
				"x": -2.9040701004,
				"y": 1.2050184518,
				"z": -1.9641063156,
				"element": "H" 
			},
			{
				"x": -1.3187361089,
				"y": 0.4778064242,
				"z": -2.2575412321,
				"element": "H" 
			},
			{
				"x": -2.9338467416,
				"y": 2.8922311128,
				"z": -0.3597872891,
				"element": "H" 
			},
			{
				"x": -2.1402438555,
				"y": 3.9515125368,
				"z": 1.7347273575,
				"element": "H" 
			},
			{
				"x": -0.3417708767,
				"y": 2.8501248184,
				"z": 3.0653460136,
				"element": "H" 
			},
			{
				"x": 0.4510823661,
				"y": -0.6183981363,
				"z": -0.9588528162,
				"element": "H" 
			},
			{
				"x": -0.7656248924,
				"y": -1.505910278,
				"z": -0.0486465005,
				"element": "H" 
			},
			{
				"x": 0.7756265191,
				"y": -1.0918119083,
				"z": 0.7143378251,
				"element": "H" 
			}
		],
		 "valence_orbital": [ 
			{
				"type": "occ",
				"energy": -0.34955,
				"method": "rhf"
			},
			{
				"type": "occ",
				"energy": -0.33767,
				"method": "rhf"
			},
			{
				"type": "occ",
				"energy": -0.32418,
				"method": "rhf"
			},
			{
				"type": "occ",
				"energy": -0.2572,
				"method": "rhf"
			},
			{
				"type": "occ",
				"energy": -0.25574,
				"method": "rhf"
			},
			{
				"type": "unocc",
				"energy": -0.0436,
				"method": "rhf"
			},
			{
				"type": "unocc",
				"energy": -0.0179,
				"method": "rhf"
			},
			{
				"type": "unocc",
				"energy": 0.04124,
				"method": "rhf"
			},
			{
				"type": "unocc",
				"energy": 0.08175,
				"method": "rhf"
			},
			{
				"type": "unocc",
				"energy": 0.08364,
				"method": "rhf"
			}
		],
		"cosmo_sigma_profile": { 
			"-0.025": 0.0,
			"-0.024": 0.0,
			"-0.023": 0.0,
			"-0.022": 0.0,
			"-0.021": 0.0,
			"-0.02": 0.0,
			"-0.019": 0.0,
			"-0.018": 0.0,
			"-0.017": 0.0,
			"-0.016": 0.0,
			"-0.015": 0.0,
			"-0.014": 0.0,
			"-0.013": 0.0,
			"-0.012": 0.0,
			"-0.011": 0.0,
			"-0.01": 0.0,
			"-0.009": 0.0,
			"-0.008": 0.393674380631,
			"-0.007": 2.73440003788,
			"-0.006": 7.29715307201,
			"-0.005": 15.9723432047,
			"-0.004": 17.2280353715,
			"-0.003": 15.16842042,
			"-0.002": 17.7021285115,
			"-0.001": 24.8097872552,
			"0.0": 18.1911689189,
			"0.001": 11.091130039,
			"0.002": 10.6126925558,
			"0.003": 11.7185789877,
			"0.004": 7.25645922513,
			"0.005": 1.946255979,
			"0.006": 3.09969870127,
			"0.007": 1.45628927977,
			"0.008": 3.55674806214,
			"0.009": 3.03739019547,
			"0.01": 3.46794290855,
			"0.011": 2.82406570876,
			"0.012": 2.52311286826,
			"0.013": 2.0577748276,
			"0.014": 0.296342427375,
			"0.015": 0.0,
			"0.016": 0.0,
			"0.017": 0.0,
			"0.018": 0.0,
			"0.019": 0.0,
			"0.02": 0.0,
			"0.021": 0.0,
			"0.022": 0.0,
			"0.023": 0.0,
			"0.024": 0.0,
			"0.025": 0.0
		}
	}
}
