{
	 "smiles": "C1CN2CCC1C(C2)NC1=CC2=C(NN=C2)C=C1", 
	 "Tm": 466.15, 
	 "num_atms": 36, 
	 "gaussian": { 
		 "optdone": 1, 
		 "sigma_profile": "yes", 
		 "theory": "DFT", 
		 "functional": "B3LYP", 
		 "basiset": "6-31G**", 
		 "properties": { 
			 "R2extent": 5842.646, 
			 "electric_dipole_moment_norm": 2.01242172519, 
			 "electric_quadrupole_moment_norm": 14.8302569715, 
			 "total_energy": -763.302708196, 
			 "HOMO_LUMO_gap": 0.16126, 
			 "cosmo_polarized_energy": -13.72, 
			 "cosmo_cavitation_energy": 35.3, 
			 "cosmo_dispersion_energy": -25.96, 
			 "cosmo_repulsion_energy": 1.96, 
			 "cosmo_total_nonelectrostatic_energy": 11.3, 
			 "SMD_solvation_energy": -0.55 
		},
		"coords": [
			{
				"x": -1.1233715167,
				"y": 2.1414934251,
				"z": 1.5641982465,
				"element": "C" 
			},
			{
				"x": -0.6520153385,
				"y": 1.1917565998,
				"z": 2.7145978354,
				"element": "C" 
			},
			{
				"x": -0.1927806257,
				"y": -0.1073691957,
				"z": 2.193775858,
				"element": "N" 
			},
			{
				"x": -1.2568801409,
				"y": -0.687734854,
				"z": 1.357075213,
				"element": "C" 
			},
			{
				"x": -1.5263359795,
				"y": 0.1816131935,
				"z": 0.0901450835,
				"element": "C" 
			},
			{
				"x": -0.7156849842,
				"y": 1.4922868158,
				"z": 0.2209348456,
				"element": "C" 
			},
			{
				"x": 0.8093823504,
				"y": 1.2413408998,
				"z": 0.3194998861,
				"element": "C" 
			},
			{
				"x": 1.0066704778,
				"y": 0.0931588682,
				"z": 1.3616929466,
				"element": "C" 
			},
			{
				"x": 1.5526274941,
				"y": 1.0899124772,
				"z": -0.9539958622,
				"element": "N" 
			},
			{
				"x": 1.3483854944,
				"y": -0.0153593175,
				"z": -1.8319296831,
				"element": "C" 
			},
			{
				"x": 2.2284674598,
				"y": -1.0935077529,
				"z": -1.8687062683,
				"element": "C" 
			},
			{
				"x": 2.041347066,
				"y": -2.1051290513,
				"z": -2.8307654164,
				"element": "C" 
			},
			{
				"x": 0.9496769863,
				"y": -2.0256079235,
				"z": -3.7292931995,
				"element": "C" 
			},
			{
				"x": 1.032304972,
				"y": -3.1452055961,
				"z": -4.5127066986,
				"element": "N" 
			},
			{
				"x": 2.0892876207,
				"y": -3.9344580647,
				"z": -4.1878297944,
				"element": "N" 
			},
			{
				"x": 2.6986843813,
				"y": -3.3236671607,
				"z": -3.1853259767,
				"element": "C" 
			},
			{
				"x": 0.0545272005,
				"y": -0.9428604653,
				"z": -3.7101437324,
				"element": "C" 
			},
			{
				"x": 0.2804800392,
				"y": 0.0499518379,
				"z": -2.773322406,
				"element": "C" 
			},
			{
				"x": -0.6726512328,
				"y": 3.1355048991,
				"z": 1.6674177691,
				"element": "H" 
			},
			{
				"x": -2.2108614426,
				"y": 2.2791455337,
				"z": 1.5890408648,
				"element": "H" 
			},
			{
				"x": 0.1756412831,
				"y": 1.6382895103,
				"z": 3.2771831376,
				"element": "H" 
			},
			{
				"x": -1.4616834288,
				"y": 1.0085165737,
				"z": 3.4295044673,
				"element": "H" 
			},
			{
				"x": -2.1561098901,
				"y": -0.7778176954,
				"z": 1.9768530355,
				"element": "H" 
			},
			{
				"x": -0.9567005567,
				"y": -1.7037028608,
				"z": 1.0785896783,
				"element": "H" 
			},
			{
				"x": -1.255151082,
				"y": -0.361401871,
				"z": -0.8170014462,
				"element": "H" 
			},
			{
				"x": -2.5912909818,
				"y": 0.4289965582,
				"z": 0.003942734,
				"element": "H" 
			},
			{
				"x": -0.9258466228,
				"y": 2.1692250168,
				"z": -0.6137281415,
				"element": "H" 
			},
			{
				"x": 1.2365234627,
				"y": 2.1617752036,
				"z": 0.7375307105,
				"element": "H" 
			},
			{
				"x": 1.8631581605,
				"y": 0.3055203561,
				"z": 2.0141060746,
				"element": "H" 
			},
			{
				"x": 1.2156866653,
				"y": -0.8493351074,
				"z": 0.8430433985,
				"element": "H" 
			},
			{
				"x": 2.5425017284,
				"y": 1.1567022969,
				"z": -0.7370266756,
				"element": "H" 
			},
			{
				"x": 3.0550102199,
				"y": -1.1470319376,
				"z": -1.1645200812,
				"element": "H" 
			},
			{
				"x": 0.4295123795,
				"y": -3.4268064271,
				"z": -5.2685158944,
				"element": "H" 
			},
			{
				"x": 3.5817480956,
				"y": -3.7670318391,
				"z": -2.7447215575,
				"element": "H" 
			},
			{
				"x": -0.7654711685,
				"y": -0.8668008042,
				"z": -4.4178652683,
				"element": "H" 
			},
			{
				"x": -0.3526885456,
				"y": 0.9306378585,
				"z": -2.7580336826,
				"element": "H" 
			}
		],
		 "valence_orbital": [ 
			{
				"type": "occ",
				"energy": -0.2891,
				"method": "rhf"
			},
			{
				"type": "occ",
				"energy": -0.25908,
				"method": "rhf"
			},
			{
				"type": "occ",
				"energy": -0.23045,
				"method": "rhf"
			},
			{
				"type": "occ",
				"energy": -0.21538,
				"method": "rhf"
			},
			{
				"type": "occ",
				"energy": -0.18886,
				"method": "rhf"
			},
			{
				"type": "unocc",
				"energy": -0.0276,
				"method": "rhf"
			},
			{
				"type": "unocc",
				"energy": 0.01913,
				"method": "rhf"
			},
			{
				"type": "unocc",
				"energy": 0.05915,
				"method": "rhf"
			},
			{
				"type": "unocc",
				"energy": 0.07177,
				"method": "rhf"
			},
			{
				"type": "unocc",
				"energy": 0.08438,
				"method": "rhf"
			}
		],
		"cosmo_sigma_profile": { 
			"-0.025": 0.0,
			"-0.024": 0.0,
			"-0.023": 0.0,
			"-0.022": 0.0,
			"-0.021": 0.0,
			"-0.02": 0.0,
			"-0.019": 0.0,
			"-0.018": 0.0,
			"-0.017": 0.0116169609776,
			"-0.016": 1.30552855405,
			"-0.015": 1.32176981104,
			"-0.014": 1.15245061042,
			"-0.013": 1.37173284637,
			"-0.012": 0.798123654928,
			"-0.011": 1.43798665496,
			"-0.01": 2.52792528609,
			"-0.009": 2.66038810598,
			"-0.008": 2.15065083481,
			"-0.007": 5.46127943745,
			"-0.006": 7.84119616648,
			"-0.005": 8.5628795712,
			"-0.004": 12.4004264391,
			"-0.003": 31.6998615288,
			"-0.002": 34.1268107136,
			"-0.001": 27.1714601013,
			"0.0": 27.0244648228,
			"0.001": 20.8093459805,
			"0.002": 12.8610885258,
			"0.003": 14.2815645614,
			"0.004": 16.8033422592,
			"0.005": 12.0919919633,
			"0.006": 4.50400226309,
			"0.007": 3.9200099696,
			"0.008": 3.23129704898,
			"0.009": 2.64925525489,
			"0.01": 2.49598025597,
			"0.011": 2.63657963117,
			"0.012": 2.75346845563,
			"0.013": 1.51100691196,
			"0.014": 2.5131476184,
			"0.015": 2.43018177293,
			"0.016": 0.980265493375,
			"0.017": 0.545452289849,
			"0.018": 0.420518573344,
			"0.019": 0.0262860542955,
			"0.02": 0.0,
			"0.021": 0.0,
			"0.022": 0.0,
			"0.023": 0.0,
			"0.024": 0.0,
			"0.025": 0.0
		}
	}
}
