{
	 "smiles": "CN1N=C(N)C2=C1NC=C(C(O)=O)C2=O", 
	 "Tm": 497.15, 
	 "num_atms": 23, 
	 "gaussian": { 
		 "optdone": 1, 
		 "sigma_profile": "yes", 
		 "theory": "DFT", 
		 "functional": "B3LYP", 
		 "basiset": "6-31G**", 
		 "properties": { 
			 "R2extent": 3636.1319, 
			 "electric_dipole_moment_norm": 8.53098665161, 
			 "electric_quadrupole_moment_norm": 15.2166600511, 
			 "total_energy": -754.36441909, 
			 "HOMO_LUMO_gap": 0.16293, 
			 "cosmo_polarized_energy": -28.71, 
			 "cosmo_cavitation_energy": 27.55, 
			 "cosmo_dispersion_energy": -20.97, 
			 "cosmo_repulsion_energy": 1.62, 
			 "cosmo_total_nonelectrostatic_energy": 8.19, 
			 "SMD_solvation_energy": 5.28 
		},
		"coords": [
			{
				"x": 3.1406259248,
				"y": -1.0140156525,
				"z": -2.2553608211,
				"element": "C" 
			},
			{
				"x": 1.7171127383,
				"y": -0.7603413241,
				"z": -2.2569757056,
				"element": "N" 
			},
			{
				"x": 1.0743951882,
				"y": -0.5208928128,
				"z": -3.4695126307,
				"element": "N" 
			},
			{
				"x": -0.1757726128,
				"y": -0.2064176355,
				"z": -3.1500578425,
				"element": "C" 
			},
			{
				"x": -1.1314087454,
				"y": 0.1354921539,
				"z": -4.0676276411,
				"element": "N" 
			},
			{
				"x": -0.3759329715,
				"y": -0.2255771571,
				"z": -1.7323646128,
				"element": "C" 
			},
			{
				"x": 0.8761792022,
				"y": -0.5698510903,
				"z": -1.2240539472,
				"element": "C" 
			},
			{
				"x": 1.0989991984,
				"y": -0.6924086103,
				"z": 0.1248335854,
				"element": "N" 
			},
			{
				"x": 0.044674951,
				"y": -0.4901444286,
				"z": 0.976211287,
				"element": "C" 
			},
			{
				"x": -1.2141653154,
				"y": -0.1768978028,
				"z": 0.5456621781,
				"element": "C" 
			},
			{
				"x": -2.2682491131,
				"y": 0.0049099824,
				"z": 1.601677462,
				"element": "C" 
			},
			{
				"x": -3.4856394482,
				"y": 0.2982597453,
				"z": 1.1421479972,
				"element": "O" 
			},
			{
				"x": -2.0213553808,
				"y": -0.1100099411,
				"z": 2.7872447579,
				"element": "O" 
			},
			{
				"x": -1.5145140044,
				"y": -0.028356007,
				"z": -0.8869192286,
				"element": "C" 
			},
			{
				"x": -2.6625414234,
				"y": 0.2392185868,
				"z": -1.3220491977,
				"element": "O" 
			},
			{
				"x": 3.7209088748,
				"y": -0.0840609301,
				"z": -2.2565507206,
				"element": "H" 
			},
			{
				"x": 3.3811504882,
				"y": -1.5827215873,
				"z": -3.1543328602,
				"element": "H" 
			},
			{
				"x": 3.4145748547,
				"y": -1.6122945593,
				"z": -1.3810413375,
				"element": "H" 
			},
			{
				"x": -0.9855016778,
				"y": -0.1731570458,
				"z": -5.0167479307,
				"element": "H" 
			},
			{
				"x": -2.0803507245,
				"y": 0.1197488385,
				"z": -3.7197525144,
				"element": "H" 
			},
			{
				"x": 2.0108816054,
				"y": -0.9157976129,
				"z": 0.4946669084,
				"element": "H" 
			},
			{
				"x": 0.2424590526,
				"y": -0.5899290069,
				"z": 2.0375228993,
				"element": "H" 
			},
			{
				"x": -3.4460306611,
				"y": 0.3390438976,
				"z": 0.1448799156,
				"element": "H" 
			}
		],
		 "valence_orbital": [ 
			{
				"type": "occ",
				"energy": -0.27283,
				"method": "rhf"
			},
			{
				"type": "occ",
				"energy": -0.26684,
				"method": "rhf"
			},
			{
				"type": "occ",
				"energy": -0.25394,
				"method": "rhf"
			},
			{
				"type": "occ",
				"energy": -0.2501,
				"method": "rhf"
			},
			{
				"type": "occ",
				"energy": -0.21704,
				"method": "rhf"
			},
			{
				"type": "unocc",
				"energy": -0.05411,
				"method": "rhf"
			},
			{
				"type": "unocc",
				"energy": -0.02405,
				"method": "rhf"
			},
			{
				"type": "unocc",
				"energy": 0.02241,
				"method": "rhf"
			},
			{
				"type": "unocc",
				"energy": 0.0285,
				"method": "rhf"
			},
			{
				"type": "unocc",
				"energy": 0.07905,
				"method": "rhf"
			}
		],
		"cosmo_sigma_profile": { 
			"-0.025": 0.0,
			"-0.024": 0.0,
			"-0.023": 0.0,
			"-0.022": 0.0,
			"-0.021": 0.0,
			"-0.02": 0.0,
			"-0.019": 0.327700969914,
			"-0.018": 1.71679952079,
			"-0.017": 1.52980609053,
			"-0.016": 2.28637400745,
			"-0.015": 1.78269313802,
			"-0.014": 1.93665446726,
			"-0.013": 2.36033687136,
			"-0.012": 3.11029703847,
			"-0.011": 3.90103535406,
			"-0.01": 4.15530634935,
			"-0.009": 3.37106931159,
			"-0.008": 4.49483265101,
			"-0.007": 5.62595922358,
			"-0.006": 10.4850237881,
			"-0.005": 10.9290061324,
			"-0.004": 11.1360282178,
			"-0.003": 14.9214452647,
			"-0.002": 14.942401443,
			"-0.001": 14.1110016839,
			"0.0": 12.9532007394,
			"0.001": 11.335198426,
			"0.002": 7.68480985893,
			"0.003": 6.95960064321,
			"0.004": 7.18957994297,
			"0.005": 5.16826027578,
			"0.006": 5.52620049766,
			"0.007": 6.66729222816,
			"0.008": 5.94803781356,
			"0.009": 5.57506913849,
			"0.01": 6.59291374988,
			"0.011": 8.8876844939,
			"0.012": 7.77052044972,
			"0.013": 5.3925450705,
			"0.014": 2.6664649624,
			"0.015": 0.769043107472,
			"0.016": 0.133989375656,
			"0.017": 0.0,
			"0.018": 0.0,
			"0.019": 0.0,
			"0.02": 0.0,
			"0.021": 0.0,
			"0.022": 0.0,
			"0.023": 0.0,
			"0.024": 0.0,
			"0.025": 0.0
		}
	}
}
