{
	 "smiles": "FC(F)(F)C1=NNC(=O)C1=NNC1=CC=C(Cl)C=C1", 
	 "Tm": 488.15, 
	 "num_atms": 25, 
	 "gaussian": { 
		 "optdone": 1, 
		 "sigma_profile": "yes", 
		 "theory": "DFT", 
		 "functional": "B3LYP", 
		 "basiset": "6-31G**", 
		 "properties": { 
			 "R2extent": 8337.1267, 
			 "electric_dipole_moment_norm": 2.09373429308, 
			 "electric_quadrupole_moment_norm": 8.03884725007, 
			 "total_energy": -1438.56493708, 
			 "HOMO_LUMO_gap": 0.12057, 
			 "cosmo_polarized_energy": -16.08, 
			 "cosmo_cavitation_energy": 34.57, 
			 "cosmo_dispersion_energy": -24.57, 
			 "cosmo_repulsion_energy": 1.83, 
			 "cosmo_total_nonelectrostatic_energy": 11.84, 
			 "SMD_solvation_energy": 6.03 
		},
		"coords": [
			{
				"x": 1.8616243309,
				"y": -0.0553461735,
				"z": 0.7666256841,
				"element": "F" 
			},
			{
				"x": 1.4623131461,
				"y": -1.3525847728,
				"z": 0.7697669654,
				"element": "C" 
			},
			{
				"x": 2.4388831831,
				"y": -2.0947348445,
				"z": 1.2835762917,
				"element": "F" 
			},
			{
				"x": 0.3982713362,
				"y": -1.398148038,
				"z": 1.6341930662,
				"element": "F" 
			},
			{
				"x": 1.0444481868,
				"y": -1.7886120813,
				"z": -0.5955222987,
				"element": "C" 
			},
			{
				"x": 1.7347906212,
				"y": -2.7074104215,
				"z": -1.2154824587,
				"element": "N" 
			},
			{
				"x": 1.1803257174,
				"y": -2.8740119538,
				"z": -2.4424137599,
				"element": "N" 
			},
			{
				"x": 0.0906742448,
				"y": -2.0366788486,
				"z": -2.7095328413,
				"element": "C" 
			},
			{
				"x": -0.5534242907,
				"y": -1.996706187,
				"z": -3.7394798621,
				"element": "O" 
			},
			{
				"x": -0.0341104801,
				"y": -1.2725762533,
				"z": -1.4301245664,
				"element": "C" 
			},
			{
				"x": -0.983218992,
				"y": -0.3848101945,
				"z": -1.3075604268,
				"element": "N" 
			},
			{
				"x": -1.177389284,
				"y": 0.2932889881,
				"z": -0.2051383771,
				"element": "N" 
			},
			{
				"x": -2.2053529655,
				"y": 1.248512603,
				"z": -0.1135600675,
				"element": "C" 
			},
			{
				"x": -2.3810908887,
				"y": 1.9167896153,
				"z": 1.1043613726,
				"element": "C" 
			},
			{
				"x": -3.3856915257,
				"y": 2.8714529313,
				"z": 1.237278108,
				"element": "C" 
			},
			{
				"x": -4.2102996604,
				"y": 3.1528838741,
				"z": 0.1484178334,
				"element": "C" 
			},
			{
				"x": -5.4777373324,
				"y": 4.355357328,
				"z": 0.3099845516,
				"element": "Cl" 
			},
			{
				"x": -4.0390663388,
				"y": 2.489827698,
				"z": -1.0691407484,
				"element": "C" 
			},
			{
				"x": -3.0357309441,
				"y": 1.5361783062,
				"z": -1.2046848078,
				"element": "C" 
			},
			{
				"x": 1.5856116274,
				"y": -3.541246716,
				"z": -3.0811887938,
				"element": "H" 
			},
			{
				"x": -0.6305422118,
				"y": 0.1102511267,
				"z": 0.6335235959,
				"element": "H" 
			},
			{
				"x": -1.7349966801,
				"y": 1.6938048124,
				"z": 1.9494290168,
				"element": "H" 
			},
			{
				"x": -3.526751245,
				"y": 3.3919445258,
				"z": 2.1776214194,
				"element": "H" 
			},
			{
				"x": -4.6880192622,
				"y": 2.7197981863,
				"z": -1.9067076373,
				"element": "H" 
			},
			{
				"x": -2.8878202923,
				"y": 1.0116764895,
				"z": -2.140841259,
				"element": "H" 
			}
		],
		 "valence_orbital": [ 
			{
				"type": "occ",
				"energy": -0.30682,
				"method": "rhf"
			},
			{
				"type": "occ",
				"energy": -0.28134,
				"method": "rhf"
			},
			{
				"type": "occ",
				"energy": -0.26527,
				"method": "rhf"
			},
			{
				"type": "occ",
				"energy": -0.26388,
				"method": "rhf"
			},
			{
				"type": "occ",
				"energy": -0.22549,
				"method": "rhf"
			},
			{
				"type": "unocc",
				"energy": -0.10492,
				"method": "rhf"
			},
			{
				"type": "unocc",
				"energy": -0.0306,
				"method": "rhf"
			},
			{
				"type": "unocc",
				"energy": -0.01549,
				"method": "rhf"
			},
			{
				"type": "unocc",
				"energy": 0.00923,
				"method": "rhf"
			},
			{
				"type": "unocc",
				"energy": 0.0204,
				"method": "rhf"
			}
		],
		"cosmo_sigma_profile": { 
			"-0.025": 0.0,
			"-0.024": 0.0,
			"-0.023": 0.0,
			"-0.022": 0.0,
			"-0.021": 0.0,
			"-0.02": 0.0,
			"-0.019": 0.0,
			"-0.018": 0.0,
			"-0.017": 0.920477977904,
			"-0.016": 1.58847164722,
			"-0.015": 1.46382875593,
			"-0.014": 1.37843855546,
			"-0.013": 1.30584120177,
			"-0.012": 1.8036817226,
			"-0.011": 2.8275665512,
			"-0.01": 1.82377605115,
			"-0.009": 2.27308619686,
			"-0.008": 5.81953491569,
			"-0.007": 7.96721291205,
			"-0.006": 10.5191759707,
			"-0.005": 10.128388722,
			"-0.004": 11.7234476248,
			"-0.003": 15.5329943406,
			"-0.002": 17.7557626586,
			"-0.001": 22.4698179147,
			"0.0": 23.6174144973,
			"0.001": 32.4810096323,
			"0.002": 41.1664816133,
			"0.003": 16.8551344687,
			"0.004": 13.6764326965,
			"0.005": 6.63073602882,
			"0.006": 3.45567584913,
			"0.007": 2.46570639847,
			"0.008": 2.96512550654,
			"0.009": 3.22371318969,
			"0.01": 2.47205576717,
			"0.011": 4.13825141655,
			"0.012": 6.78043973596,
			"0.013": 3.94822995995,
			"0.014": 0.516643458383,
			"0.015": 0.0,
			"0.016": 0.0,
			"0.017": 0.0,
			"0.018": 0.0,
			"0.019": 0.0,
			"0.02": 0.0,
			"0.021": 0.0,
			"0.022": 0.0,
			"0.023": 0.0,
			"0.024": 0.0,
			"0.025": 0.0
		}
	}
}
