{
	 "smiles": "CC1CCC2=C(C=C(CCC(C)=O)C=C2N1C(=O)C1=CC=C(C=C1)[N+]([O-])=O)[N+]([O-])=O", 
	 "Tm": 388.15, 
	 "num_atms": 51, 
	 "gaussian": { 
		 "optdone": 1, 
		 "sigma_profile": "yes", 
		 "theory": "DFT", 
		 "functional": "B3LYP", 
		 "basiset": "6-31G**", 
		 "properties": { 
			 "R2extent": 13812.9299, 
			 "electric_dipole_moment_norm": 5.82691086769, 
			 "electric_quadrupole_moment_norm": 36.6244520868, 
			 "total_energy": -1428.31436078, 
			 "HOMO_LUMO_gap": 0.13498, 
			 "cosmo_polarized_energy": -23.53, 
			 "cosmo_cavitation_energy": 54.62, 
			 "cosmo_dispersion_energy": -35.88, 
			 "cosmo_repulsion_energy": 2.73, 
			 "cosmo_total_nonelectrostatic_energy": 21.47, 
			 "SMD_solvation_energy": 13.88 
		},
		"coords": [
			{
				"x": 3.2406190002,
				"y": 1.6200337552,
				"z": 3.142803335,
				"element": "C" 
			},
			{
				"x": 1.7194712818,
				"y": 1.4127032842,
				"z": 3.1467938911,
				"element": "C" 
			},
			{
				"x": 0.9748680804,
				"y": 2.750370038,
				"z": 3.2044070365,
				"element": "C" 
			},
			{
				"x": 0.8925867263,
				"y": 3.4120570837,
				"z": 1.8195582584,
				"element": "C" 
			},
			{
				"x": 0.0660798028,
				"y": 2.5092576497,
				"z": 0.9371210831,
				"element": "C" 
			},
			{
				"x": -0.9584472486,
				"y": 2.9147790744,
				"z": 0.069166815,
				"element": "C" 
			},
			{
				"x": -1.8231085482,
				"y": 2.0282867559,
				"z": -0.5702943944,
				"element": "C" 
			},
			{
				"x": -1.6891010327,
				"y": 0.6569913484,
				"z": -0.3418817084,
				"element": "C" 
			},
			{
				"x": -2.6317573622,
				"y": -0.3467223302,
				"z": -0.9768290945,
				"element": "C" 
			},
			{
				"x": -3.9629132743,
				"y": -0.5189718467,
				"z": -0.2221668275,
				"element": "C" 
			},
			{
				"x": -4.9879267342,
				"y": 0.579083701,
				"z": -0.5008553826,
				"element": "C" 
			},
			{
				"x": -6.2056827954,
				"y": 0.6107390424,
				"z": 0.4024222245,
				"element": "C" 
			},
			{
				"x": -4.8446717088,
				"y": 1.3752903039,
				"z": -1.4102311707,
				"element": "O" 
			},
			{
				"x": -0.67483681,
				"y": 0.2222706913,
				"z": 0.5156593559,
				"element": "C" 
			},
			{
				"x": 0.2270306664,
				"y": 1.1169223154,
				"z": 1.1125692046,
				"element": "C" 
			},
			{
				"x": 1.2888669572,
				"y": 0.644893284,
				"z": 1.9311778345,
				"element": "N" 
			},
			{
				"x": 1.8106746418,
				"y": -0.6441373781,
				"z": 1.8293097017,
				"element": "C" 
			},
			{
				"x": 2.2670255264,
				"y": -1.2232992046,
				"z": 2.8091239752,
				"element": "O" 
			},
			{
				"x": 1.9446825465,
				"y": -1.2882654487,
				"z": 0.4724951138,
				"element": "C" 
			},
			{
				"x": 2.2249978437,
				"y": -0.5538059661,
				"z": -0.6895553777,
				"element": "C" 
			},
			{
				"x": 2.4627934373,
				"y": -1.2073138883,
				"z": -1.8948152061,
				"element": "C" 
			},
			{
				"x": 2.4062564061,
				"y": -2.5995417679,
				"z": -1.9229237168,
				"element": "C" 
			},
			{
				"x": 2.1420983307,
				"y": -3.3552742925,
				"z": -0.7819169619,
				"element": "C" 
			},
			{
				"x": 1.9263108241,
				"y": -2.6897472248,
				"z": 0.4200113502,
				"element": "C" 
			},
			{
				"x": 2.641914282,
				"y": -3.2958118933,
				"z": -3.2002057988,
				"element": "N" 
			},
			{
				"x": 2.8880463571,
				"y": -2.6053318486,
				"z": -4.1878859453,
				"element": "O" 
			},
			{
				"x": 2.5754111604,
				"y": -4.5241357879,
				"z": -3.1989307852,
				"element": "O" 
			},
			{
				"x": -1.1569891217,
				"y": 4.3445064353,
				"z": -0.2341002799,
				"element": "N" 
			},
			{
				"x": -0.1730262577,
				"y": 5.0864394076,
				"z": -0.1882237664,
				"element": "O" 
			},
			{
				"x": -2.2900498228,
				"y": 4.708728527,
				"z": -0.5409320069,
				"element": "O" 
			},
			{
				"x": 3.7720375156,
				"y": 0.669700369,
				"z": 3.0853149606,
				"element": "H" 
			},
			{
				"x": 3.5561369229,
				"y": 2.2521967625,
				"z": 2.306720386,
				"element": "H" 
			},
			{
				"x": 3.5383189219,
				"y": 2.1132243639,
				"z": 4.0733944365,
				"element": "H" 
			},
			{
				"x": 1.4568818623,
				"y": 0.8002767785,
				"z": 4.0152109217,
				"element": "H" 
			},
			{
				"x": -0.0421357953,
				"y": 2.6065036164,
				"z": 3.5866948923,
				"element": "H" 
			},
			{
				"x": 1.493107165,
				"y": 3.4028453121,
				"z": 3.9137713802,
				"element": "H" 
			},
			{
				"x": 0.4513804162,
				"y": 4.4051177354,
				"z": 1.8862788111,
				"element": "H" 
			},
			{
				"x": 1.8951818839,
				"y": 3.5562951766,
				"z": 1.3980311851,
				"element": "H" 
			},
			{
				"x": -2.6018769564,
				"y": 2.4118493329,
				"z": -1.2170843279,
				"element": "H" 
			},
			{
				"x": -2.8599543801,
				"y": -0.0393682703,
				"z": -2.0015650418,
				"element": "H" 
			},
			{
				"x": -2.131523093,
				"y": -1.3188048943,
				"z": -1.0310905708,
				"element": "H" 
			},
			{
				"x": -4.4392313131,
				"y": -1.464558893,
				"z": -0.5208703601,
				"element": "H" 
			},
			{
				"x": -3.8034457887,
				"y": -0.6025630072,
				"z": 0.8604447851,
				"element": "H" 
			},
			{
				"x": -6.9523398297,
				"y": 1.2931862985,
				"z": -0.0054433081,
				"element": "H" 
			},
			{
				"x": -6.6356218054,
				"y": -0.3889676655,
				"z": 0.527834068,
				"element": "H" 
			},
			{
				"x": -5.9094729508,
				"y": 0.9588947478,
				"z": 1.3996279085,
				"element": "H" 
			},
			{
				"x": -0.5852736163,
				"y": -0.8384607671,
				"z": 0.7210259661,
				"element": "H" 
			},
			{
				"x": 2.2671785119,
				"y": 0.5287959464,
				"z": -0.6507918901,
				"element": "H" 
			},
			{
				"x": 2.6896081887,
				"y": -0.6642901691,
				"z": -2.8035809304,
				"element": "H" 
			},
			{
				"x": 2.1204671362,
				"y": -4.4355677563,
				"z": -0.850609652,
				"element": "H" 
			},
			{
				"x": 1.7532538496,
				"y": -3.2444988369,
				"z": 1.3355156233,
				"element": "H" 
			}
		],
		 "valence_orbital": [ 
			{
				"type": "occ",
				"energy": -0.28945,
				"method": "rhf"
			},
			{
				"type": "occ",
				"energy": -0.2753,
				"method": "rhf"
			},
			{
				"type": "occ",
				"energy": -0.26918,
				"method": "rhf"
			},
			{
				"type": "occ",
				"energy": -0.25994,
				"method": "rhf"
			},
			{
				"type": "occ",
				"energy": -0.23866,
				"method": "rhf"
			},
			{
				"type": "unocc",
				"energy": -0.10368,
				"method": "rhf"
			},
			{
				"type": "unocc",
				"energy": -0.08725,
				"method": "rhf"
			},
			{
				"type": "unocc",
				"energy": -0.0484,
				"method": "rhf"
			},
			{
				"type": "unocc",
				"energy": -0.03889,
				"method": "rhf"
			},
			{
				"type": "unocc",
				"energy": -0.02748,
				"method": "rhf"
			}
		],
		"cosmo_sigma_profile": { 
			"-0.025": 0.0,
			"-0.024": 0.0,
			"-0.023": 0.0,
			"-0.022": 0.0,
			"-0.021": 0.0,
			"-0.02": 0.0,
			"-0.019": 0.0,
			"-0.018": 0.0,
			"-0.017": 0.0,
			"-0.016": 0.0,
			"-0.015": 0.0,
			"-0.014": 0.0,
			"-0.013": 0.0,
			"-0.012": 0.0,
			"-0.011": 0.0,
			"-0.01": 0.0,
			"-0.009": 0.143267292833,
			"-0.008": 3.58564160524,
			"-0.007": 12.7103503742,
			"-0.006": 23.7667351817,
			"-0.005": 30.2548957217,
			"-0.004": 44.0924505143,
			"-0.003": 46.0285987423,
			"-0.002": 45.7469586316,
			"-0.001": 39.1804088855,
			"0.0": 34.0378059614,
			"0.001": 27.9347045406,
			"0.002": 15.1070755003,
			"0.003": 10.1395615822,
			"0.004": 9.23440382379,
			"0.005": 10.6136688726,
			"0.006": 11.1250451204,
			"0.007": 18.7420168452,
			"0.008": 17.9058033116,
			"0.009": 12.5065564741,
			"0.01": 7.69249897197,
			"0.011": 5.08120863327,
			"0.012": 5.72353455935,
			"0.013": 1.69901049263,
			"0.014": 0.0509295701993,
			"0.015": 0.0,
			"0.016": 0.0,
			"0.017": 0.0,
			"0.018": 0.0,
			"0.019": 0.0,
			"0.02": 0.0,
			"0.021": 0.0,
			"0.022": 0.0,
			"0.023": 0.0,
			"0.024": 0.0,
			"0.025": 0.0
		}
	}
}
