{
	 "smiles": "NNC(=O)CC(F)(F)F", 
	 "Tm": 364.15, 
	 "num_atms": 14, 
	 "gaussian": { 
		 "optdone": 1, 
		 "sigma_profile": "yes", 
		 "theory": "DFT", 
		 "functional": "B3LYP", 
		 "basiset": "6-31G**", 
		 "properties": { 
			 "R2extent": 1542.3686, 
			 "electric_dipole_moment_norm": 1.44685437415, 
			 "electric_quadrupole_moment_norm": 4.10426400467, 
			 "total_energy": -601.569510982, 
			 "HOMO_LUMO_gap": 0.276, 
			 "cosmo_polarized_energy": -10.98, 
			 "cosmo_cavitation_energy": 19.65, 
			 "cosmo_dispersion_energy": -13.99, 
			 "cosmo_repulsion_energy": 1.13, 
			 "cosmo_total_nonelectrostatic_energy": 6.79, 
			 "SMD_solvation_energy": 5.66 
		},
		"coords": [
			{
				"x": -2.379766556,
				"y": 1.5246771372,
				"z": 2.2458663776,
				"element": "N" 
			},
			{
				"x": -1.7823061233,
				"y": 0.7756392393,
				"z": 1.214217891,
				"element": "N" 
			},
			{
				"x": -0.4334172858,
				"y": 0.77997632,
				"z": 1.0180929307,
				"element": "C" 
			},
			{
				"x": 0.3410148294,
				"y": 1.3551255235,
				"z": 1.7693590151,
				"element": "O" 
			},
			{
				"x": 0.0749799478,
				"y": -0.0407896364,
				"z": -0.1752978416,
				"element": "C" 
			},
			{
				"x": -0.6208834142,
				"y": 0.2100125466,
				"z": -1.4954993917,
				"element": "C" 
			},
			{
				"x": -1.9208910434,
				"y": -0.2028587256,
				"z": -1.4697191324,
				"element": "F" 
			},
			{
				"x": -0.6283485969,
				"y": 1.5158856702,
				"z": -1.8225461687,
				"element": "F" 
			},
			{
				"x": -0.0194453009,
				"y": -0.4640555053,
				"z": -2.4939479032,
				"element": "F" 
			},
			{
				"x": -2.0728292969,
				"y": 1.1230924639,
				"z": 3.131336652,
				"element": "H" 
			},
			{
				"x": -1.9722962107,
				"y": 2.4598277403,
				"z": 2.2194929143,
				"element": "H" 
			},
			{
				"x": -2.4144890608,
				"y": 0.4010698074,
				"z": 0.5226857544,
				"element": "H" 
			},
			{
				"x": -0.0067998558,
				"y": -1.1098702518,
				"z": 0.0455057303,
				"element": "H" 
			},
			{
				"x": 1.1311779675,
				"y": 0.2030676707,
				"z": -0.295546828,
				"element": "H" 
			}
		],
		 "valence_orbital": [ 
			{
				"type": "occ",
				"energy": -0.40172,
				"method": "rhf"
			},
			{
				"type": "occ",
				"energy": -0.37615,
				"method": "rhf"
			},
			{
				"type": "occ",
				"energy": -0.28694,
				"method": "rhf"
			},
			{
				"type": "occ",
				"energy": -0.27152,
				"method": "rhf"
			},
			{
				"type": "occ",
				"energy": -0.26819,
				"method": "rhf"
			},
			{
				"type": "unocc",
				"energy": 0.00781,
				"method": "rhf"
			},
			{
				"type": "unocc",
				"energy": 0.07925,
				"method": "rhf"
			},
			{
				"type": "unocc",
				"energy": 0.09304,
				"method": "rhf"
			},
			{
				"type": "unocc",
				"energy": 0.10883,
				"method": "rhf"
			},
			{
				"type": "unocc",
				"energy": 0.1249,
				"method": "rhf"
			}
		],
		"cosmo_sigma_profile": { 
			"-0.025": 0.0,
			"-0.024": 0.0,
			"-0.023": 0.0,
			"-0.022": 0.0,
			"-0.021": 0.0,
			"-0.02": 0.0,
			"-0.019": 0.0,
			"-0.018": 0.0,
			"-0.017": 0.0,
			"-0.016": 0.0,
			"-0.015": 0.0,
			"-0.014": 0.0,
			"-0.013": 0.0201662008378,
			"-0.012": 1.10914642479,
			"-0.011": 3.15726000304,
			"-0.01": 3.75678499014,
			"-0.009": 6.37628622645,
			"-0.008": 7.78529872866,
			"-0.007": 7.02864904923,
			"-0.006": 6.14789210382,
			"-0.005": 7.52819138705,
			"-0.004": 4.94295277496,
			"-0.003": 5.89610569672,
			"-0.002": 6.00788245215,
			"-0.001": 7.98997999358,
			"0.0": 8.85253779021,
			"0.001": 10.7481533941,
			"0.002": 24.6295585397,
			"0.003": 15.8407380266,
			"0.004": 2.39727095325,
			"0.005": 1.91370466737,
			"0.006": 1.65653522071,
			"0.007": 1.61647335272,
			"0.008": 1.29867505409,
			"0.009": 1.58791285728,
			"0.01": 2.08627095852,
			"0.011": 2.7411877532,
			"0.012": 3.35419413924,
			"0.013": 5.69421692897,
			"0.014": 1.87877088463,
			"0.015": 0.513823058759,
			"0.016": 0.644720967433,
			"0.017": 0.060668758765,
			"0.018": 0.0,
			"0.019": 0.0,
			"0.02": 0.0,
			"0.021": 0.0,
			"0.022": 0.0,
			"0.023": 0.0,
			"0.024": 0.0,
			"0.025": 0.0
		}
	}
}
