{
	 "smiles": "CCN1N=C(C)C(C(O)=O)=C1C(F)F", 
	 "Tm": 408.15, 
	 "num_atms": 24, 
	 "gaussian": { 
		 "optdone": 1, 
		 "sigma_profile": "yes", 
		 "theory": "DFT", 
		 "functional": "B3LYP", 
		 "basiset": "6-31G**", 
		 "properties": { 
			 "R2extent": 2829.6661, 
			 "electric_dipole_moment_norm": 2.93781691227, 
			 "electric_quadrupole_moment_norm": 14.7847104818, 
			 "total_energy": -770.508198355, 
			 "HOMO_LUMO_gap": 0.22226, 
			 "cosmo_polarized_energy": -14.84, 
			 "cosmo_cavitation_energy": 28.68, 
			 "cosmo_dispersion_energy": -20.17, 
			 "cosmo_repulsion_energy": 1.57, 
			 "cosmo_total_nonelectrostatic_energy": 10.08, 
			 "SMD_solvation_energy": 5.82 
		},
		"coords": [
			{
				"x": -0.5536446358,
				"y": -0.5753083375,
				"z": -2.932052777,
				"element": "C" 
			},
			{
				"x": 0.7933252481,
				"y": -0.1567879177,
				"z": -2.338176632,
				"element": "C" 
			},
			{
				"x": 0.6587623768,
				"y": 0.409832738,
				"z": -0.9950990861,
				"element": "N" 
			},
			{
				"x": 0.6451956694,
				"y": 1.7595970153,
				"z": -0.8686768039,
				"element": "N" 
			},
			{
				"x": 0.401289821,
				"y": 2.0033572251,
				"z": 0.4174277522,
				"element": "C" 
			},
			{
				"x": 0.3352802218,
				"y": 3.4180714151,
				"z": 0.9032971488,
				"element": "C" 
			},
			{
				"x": 0.234318762,
				"y": 0.7833090386,
				"z": 1.1351608465,
				"element": "C" 
			},
			{
				"x": -0.1013882218,
				"y": 0.5753958653,
				"z": 2.5483240375,
				"element": "C" 
			},
			{
				"x": -0.0767751419,
				"y": 1.736914825,
				"z": 3.2595113529,
				"element": "O" 
			},
			{
				"x": -0.3894672178,
				"y": -0.4851320202,
				"z": 3.0646258865,
				"element": "O" 
			},
			{
				"x": 0.4115528725,
				"y": -0.2208784713,
				"z": 0.1797098285,
				"element": "C" 
			},
			{
				"x": 0.364254724,
				"y": -1.7171774614,
				"z": 0.2684643982,
				"element": "C" 
			},
			{
				"x": 1.0506912188,
				"y": -2.1676175869,
				"z": 1.3491323638,
				"element": "F" 
			},
			{
				"x": -0.9317123756,
				"y": -2.1470639077,
				"z": 0.3683531565,
				"element": "F" 
			},
			{
				"x": -1.2217409511,
				"y": 0.2873485303,
				"z": -3.0012754724,
				"element": "H" 
			},
			{
				"x": -0.4092261225,
				"y": -0.9839891596,
				"z": -3.9368035679,
				"element": "H" 
			},
			{
				"x": -1.0408808432,
				"y": -1.3367258295,
				"z": -2.315822607,
				"element": "H" 
			},
			{
				"x": 1.4895573047,
				"y": -1.0004848348,
				"z": -2.2991835887,
				"element": "H" 
			},
			{
				"x": 1.260132202,
				"y": 0.6292652292,
				"z": -2.9335118085,
				"element": "H" 
			},
			{
				"x": -0.6308352771,
				"y": 3.6321904731,
				"z": 1.3690011557,
				"element": "H" 
			},
			{
				"x": 1.1006828635,
				"y": 3.6122776609,
				"z": 1.6600207348,
				"element": "H" 
			},
			{
				"x": 0.4852494894,
				"y": 4.0948124102,
				"z": 0.0596866094,
				"element": "H" 
			},
			{
				"x": -0.3313114398,
				"y": 1.4874857697,
				"z": 4.1633492468,
				"element": "H" 
			},
			{
				"x": 0.7976894524,
				"y": -2.1892926693,
				"z": -0.6210621747,
				"element": "H" 
			}
		],
		 "valence_orbital": [ 
			{
				"type": "occ",
				"energy": -0.31358,
				"method": "rhf"
			},
			{
				"type": "occ",
				"energy": -0.306,
				"method": "rhf"
			},
			{
				"type": "occ",
				"energy": -0.26843,
				"method": "rhf"
			},
			{
				"type": "occ",
				"energy": -0.2627,
				"method": "rhf"
			},
			{
				"type": "occ",
				"energy": -0.2577,
				"method": "rhf"
			},
			{
				"type": "unocc",
				"energy": -0.03544,
				"method": "rhf"
			},
			{
				"type": "unocc",
				"energy": 0.01202,
				"method": "rhf"
			},
			{
				"type": "unocc",
				"energy": 0.07095,
				"method": "rhf"
			},
			{
				"type": "unocc",
				"energy": 0.08235,
				"method": "rhf"
			},
			{
				"type": "unocc",
				"energy": 0.09275,
				"method": "rhf"
			}
		],
		"cosmo_sigma_profile": { 
			"-0.025": 0.0,
			"-0.024": 0.0,
			"-0.023": 0.0,
			"-0.022": 0.0,
			"-0.021": 0.0,
			"-0.02": 0.0,
			"-0.019": 0.00304445912879,
			"-0.018": 0.609707119776,
			"-0.017": 0.646845794426,
			"-0.016": 1.35027997906,
			"-0.015": 0.532301076746,
			"-0.014": 0.409974828321,
			"-0.013": 0.331052664148,
			"-0.012": 1.47512896433,
			"-0.011": 2.8514282952,
			"-0.01": 3.47132488192,
			"-0.009": 3.24538582801,
			"-0.008": 2.66609878733,
			"-0.007": 4.11163151121,
			"-0.006": 6.10717787268,
			"-0.005": 9.37096493387,
			"-0.004": 16.7445007249,
			"-0.003": 15.0673884557,
			"-0.002": 19.6164306545,
			"-0.001": 24.2713514318,
			"0.0": 19.7097860428,
			"0.001": 14.2603529234,
			"0.002": 9.85150860006,
			"0.003": 10.4920644057,
			"0.004": 17.0544762429,
			"0.005": 9.51676068107,
			"0.006": 7.61776118021,
			"0.007": 3.48265301427,
			"0.008": 2.93089600493,
			"0.009": 3.59898466161,
			"0.01": 3.48161939899,
			"0.011": 4.69118769345,
			"0.012": 5.49291831823,
			"0.013": 1.11635442221,
			"0.014": 0.650111294646,
			"0.015": 0.139224029507,
			"0.016": 0.0,
			"0.017": 0.0,
			"0.018": 0.0,
			"0.019": 0.0,
			"0.02": 0.0,
			"0.021": 0.0,
			"0.022": 0.0,
			"0.023": 0.0,
			"0.024": 0.0,
			"0.025": 0.0
		}
	}
}
