{
	 "smiles": "COC1=CC=C(C=C1)C1=NN=C(S)O1", 
	 "Tm": 476.15, 
	 "num_atms": 22, 
	 "gaussian": { 
		 "optdone": 1, 
		 "sigma_profile": "yes", 
		 "theory": "DFT", 
		 "functional": "B3LYP", 
		 "basiset": "6-31G**", 
		 "properties": { 
			 "R2extent": 5933.8962, 
			 "electric_dipole_moment_norm": 6.11382848467, 
			 "electric_quadrupole_moment_norm": 16.6888403809, 
			 "total_energy": -1005.8676325, 
			 "HOMO_LUMO_gap": 0.17468, 
			 "cosmo_polarized_energy": -14.21, 
			 "cosmo_cavitation_energy": 29.11, 
			 "cosmo_dispersion_energy": -22.17, 
			 "cosmo_repulsion_energy": 1.68, 
			 "cosmo_total_nonelectrostatic_energy": 8.63, 
			 "SMD_solvation_energy": 3.79 
		},
		"coords": [
			{
				"x": -3.4329067265,
				"y": 0.5510230731,
				"z": -0.6246333098,
				"element": "C" 
			},
			{
				"x": -2.9446521311,
				"y": -0.5731262516,
				"z": 0.0940191203,
				"element": "O" 
			},
			{
				"x": -1.6009382553,
				"y": -0.7164330504,
				"z": 0.2406823726,
				"element": "C" 
			},
			{
				"x": -0.6440122035,
				"y": 0.1709969006,
				"z": -0.2691241438,
				"element": "C" 
			},
			{
				"x": 0.7113509692,
				"y": -0.078375879,
				"z": -0.0561737457,
				"element": "C" 
			},
			{
				"x": 1.1306607557,
				"y": -1.2049907584,
				"z": 0.6611442643,
				"element": "C" 
			},
			{
				"x": 0.1604867764,
				"y": -2.0913695489,
				"z": 1.1698183827,
				"element": "C" 
			},
			{
				"x": -1.1856840506,
				"y": -1.8501271738,
				"z": 0.9623153272,
				"element": "C" 
			},
			{
				"x": 2.5387614464,
				"y": -1.4824035624,
				"z": 0.893586874,
				"element": "C" 
			},
			{
				"x": 3.0817590086,
				"y": -2.4753530058,
				"z": 1.5329386017,
				"element": "N" 
			},
			{
				"x": 4.4653751104,
				"y": -2.2913464262,
				"z": 1.4779985879,
				"element": "N" 
			},
			{
				"x": 4.6482710624,
				"y": -1.1996743976,
				"z": 0.8082272594,
				"element": "C" 
			},
			{
				"x": 6.1922806225,
				"y": -0.4587031528,
				"z": 0.414482159,
				"element": "S" 
			},
			{
				"x": 3.4884695737,
				"y": -0.6154812865,
				"z": 0.3961608813,
				"element": "O" 
			},
			{
				"x": -3.078015487,
				"y": 0.5510701829,
				"z": -1.6628846437,
				"element": "H" 
			},
			{
				"x": -4.5200385427,
				"y": 0.4631692981,
				"z": -0.6165273776,
				"element": "H" 
			},
			{
				"x": -3.1428714854,
				"y": 1.4938213174,
				"z": -0.1440956046,
				"element": "H" 
			},
			{
				"x": -0.9395403113,
				"y": 1.0506600979,
				"z": -0.8277753818,
				"element": "H" 
			},
			{
				"x": 1.4480426664,
				"y": 0.6120979519,
				"z": -0.4531366391,
				"element": "H" 
			},
			{
				"x": 0.4849243208,
				"y": -2.9644468264,
				"z": 1.7257222395,
				"element": "H" 
			},
			{
				"x": -1.9440971034,
				"y": -2.5232452931,
				"z": 1.3476471467,
				"element": "H" 
			},
			{
				"x": 5.6472739845,
				"y": 0.5768377912,
				"z": -0.2518923706,
				"element": "H" 
			}
		],
		 "valence_orbital": [ 
			{
				"type": "occ",
				"energy": -0.31861,
				"method": "rhf"
			},
			{
				"type": "occ",
				"energy": -0.27703,
				"method": "rhf"
			},
			{
				"type": "occ",
				"energy": -0.26761,
				"method": "rhf"
			},
			{
				"type": "occ",
				"energy": -0.2612,
				"method": "rhf"
			},
			{
				"type": "occ",
				"energy": -0.21794,
				"method": "rhf"
			},
			{
				"type": "unocc",
				"energy": -0.04326,
				"method": "rhf"
			},
			{
				"type": "unocc",
				"energy": -0.01461,
				"method": "rhf"
			},
			{
				"type": "unocc",
				"energy": -0.00271,
				"method": "rhf"
			},
			{
				"type": "unocc",
				"energy": 0.01628,
				"method": "rhf"
			},
			{
				"type": "unocc",
				"energy": 0.05053,
				"method": "rhf"
			}
		],
		"cosmo_sigma_profile": { 
			"-0.025": 0.0,
			"-0.024": 0.0,
			"-0.023": 0.0,
			"-0.022": 0.0,
			"-0.021": 0.0,
			"-0.02": 0.0,
			"-0.019": 0.0,
			"-0.018": 0.0,
			"-0.017": 0.0,
			"-0.016": 0.0,
			"-0.015": 0.0,
			"-0.014": 0.160248452923,
			"-0.013": 1.77729703997,
			"-0.012": 1.72024879555,
			"-0.011": 1.46737631681,
			"-0.01": 1.27657513904,
			"-0.009": 1.10047797739,
			"-0.008": 1.88227593094,
			"-0.007": 5.64840940227,
			"-0.006": 15.0002274039,
			"-0.005": 17.8983636653,
			"-0.004": 18.0272567589,
			"-0.003": 17.3759514956,
			"-0.002": 15.4219947418,
			"-0.001": 14.962540524,
			"0.0": 15.3048743087,
			"0.001": 19.979389497,
			"0.002": 19.7541273275,
			"0.003": 19.5746261488,
			"0.004": 13.3124874105,
			"0.005": 6.21951413192,
			"0.006": 3.56875814195,
			"0.007": 2.76481984077,
			"0.008": 3.92980649811,
			"0.009": 3.96640796308,
			"0.01": 3.28598053981,
			"0.011": 2.90456207776,
			"0.012": 3.54396023761,
			"0.013": 2.32522605644,
			"0.014": 1.97684069516,
			"0.015": 0.599841490381,
			"0.016": 0.0,
			"0.017": 0.0,
			"0.018": 0.0,
			"0.019": 0.0,
			"0.02": 0.0,
			"0.021": 0.0,
			"0.022": 0.0,
			"0.023": 0.0,
			"0.024": 0.0,
			"0.025": 0.0
		}
	}
}
