{
	 "smiles": "CN(C)C1=CC2=C(C=C1)C(=CC(=O)O2)C(F)(F)F", 
	 "Tm": 421.15, 
	 "num_atms": 28, 
	 "gaussian": { 
		 "optdone": 1, 
		 "sigma_profile": "yes", 
		 "theory": "DFT", 
		 "functional": "B3LYP", 
		 "basiset": "6-31G**", 
		 "properties": { 
			 "R2extent": 8266.0444, 
			 "electric_dipole_moment_norm": 6.99498503858, 
			 "electric_quadrupole_moment_norm": 28.6661582156, 
			 "total_energy": -968.027957939, 
			 "HOMO_LUMO_gap": 0.13842, 
			 "cosmo_polarized_energy": -12.01, 
			 "cosmo_cavitation_energy": 32.9, 
			 "cosmo_dispersion_energy": -23.82, 
			 "cosmo_repulsion_energy": 1.74, 
			 "cosmo_total_nonelectrostatic_energy": 10.83, 
			 "SMD_solvation_energy": 7.7 
		},
		"coords": [
			{
				"x": 2.86175659,
				"y": 0.7577736605,
				"z": 1.6263224377,
				"element": "C" 
			},
			{
				"x": 2.0617670088,
				"y": 0.0168520726,
				"z": 0.6631852802,
				"element": "N" 
			},
			{
				"x": 2.2133218215,
				"y": -1.4265587488,
				"z": 0.5596326943,
				"element": "C" 
			},
			{
				"x": 1.1633992126,
				"y": 0.6806050562,
				"z": -0.137891391,
				"element": "C" 
			},
			{
				"x": 0.9992283976,
				"y": 2.0784287701,
				"z": -0.045954009,
				"element": "C" 
			},
			{
				"x": 0.086641411,
				"y": 2.7300932592,
				"z": -0.8649498063,
				"element": "C" 
			},
			{
				"x": -0.7071684522,
				"y": 2.0456118052,
				"z": -1.8108689178,
				"element": "C" 
			},
			{
				"x": -0.5338906943,
				"y": 0.6472068485,
				"z": -1.8929383773,
				"element": "C" 
			},
			{
				"x": 0.3670428935,
				"y": -0.0200322286,
				"z": -1.0888428221,
				"element": "C" 
			},
			{
				"x": -1.6156387808,
				"y": 2.8398974272,
				"z": -2.5991947528,
				"element": "C" 
			},
			{
				"x": -1.6940393941,
				"y": 4.1835827036,
				"z": -2.4289712804,
				"element": "C" 
			},
			{
				"x": -0.8714344151,
				"y": 4.8800806259,
				"z": -1.4504345484,
				"element": "C" 
			},
			{
				"x": -0.8770005762,
				"y": 6.0691348956,
				"z": -1.2334559812,
				"element": "O" 
			},
			{
				"x": -0.0030963894,
				"y": 4.0840780389,
				"z": -0.7044084727,
				"element": "O" 
			},
			{
				"x": -2.494962578,
				"y": 2.169735888,
				"z": -3.6310946714,
				"element": "C" 
			},
			{
				"x": -3.283370481,
				"y": 3.0444224339,
				"z": -4.2811732468,
				"element": "F" 
			},
			{
				"x": -3.3006170515,
				"y": 1.2457031849,
				"z": -3.0597139719,
				"element": "F" 
			},
			{
				"x": -1.752874591,
				"y": 1.5254588656,
				"z": -4.5603716367,
				"element": "F" 
			},
			{
				"x": 2.2345341295,
				"y": 1.2729614845,
				"z": 2.3657630406,
				"element": "H" 
			},
			{
				"x": 3.5129818749,
				"y": 0.0658126303,
				"z": 2.1604963453,
				"element": "H" 
			},
			{
				"x": 3.4947931233,
				"y": 1.5086512631,
				"z": 1.1357363236,
				"element": "H" 
			},
			{
				"x": 2.9654095132,
				"y": -1.7585402996,
				"z": 1.2754793384,
				"element": "H" 
			},
			{
				"x": 1.2771804473,
				"y": -1.9535400561,
				"z": 0.7860079902,
				"element": "H" 
			},
			{
				"x": 2.543491191,
				"y": -1.7323132951,
				"z": -0.441752946,
				"element": "H" 
			},
			{
				"x": 1.5648163322,
				"y": 2.6820507833,
				"z": 0.6504203014,
				"element": "H" 
			},
			{
				"x": -1.1206795046,
				"y": 0.0782937321,
				"z": -2.6037533923,
				"element": "H" 
			},
			{
				"x": 0.4602214181,
				"y": -1.0930184157,
				"z": -1.1930779291,
				"element": "H" 
			},
			{
				"x": -2.3675124561,
				"y": 4.800167615,
				"z": -3.0081955987,
				"element": "H" 
			}
		],
		 "valence_orbital": [ 
			{
				"type": "occ",
				"energy": -0.33513,
				"method": "rhf"
			},
			{
				"type": "occ",
				"energy": -0.27912,
				"method": "rhf"
			},
			{
				"type": "occ",
				"energy": -0.27233,
				"method": "rhf"
			},
			{
				"type": "occ",
				"energy": -0.2469,
				"method": "rhf"
			},
			{
				"type": "occ",
				"energy": -0.20754,
				"method": "rhf"
			},
			{
				"type": "unocc",
				"energy": -0.06912,
				"method": "rhf"
			},
			{
				"type": "unocc",
				"energy": -0.01025,
				"method": "rhf"
			},
			{
				"type": "unocc",
				"energy": 0.00512,
				"method": "rhf"
			},
			{
				"type": "unocc",
				"energy": 0.0709,
				"method": "rhf"
			},
			{
				"type": "unocc",
				"energy": 0.08497,
				"method": "rhf"
			}
		],
		"cosmo_sigma_profile": { 
			"-0.025": 0.0,
			"-0.024": 0.0,
			"-0.023": 0.0,
			"-0.022": 0.0,
			"-0.021": 0.0,
			"-0.02": 0.0,
			"-0.019": 0.0,
			"-0.018": 0.0,
			"-0.017": 0.0,
			"-0.016": 0.0,
			"-0.015": 0.0,
			"-0.014": 0.0,
			"-0.013": 0.0,
			"-0.012": 0.0,
			"-0.011": 0.0,
			"-0.01": 0.0,
			"-0.009": 0.0,
			"-0.008": 1.40175172724,
			"-0.007": 5.43408708094,
			"-0.006": 10.8251035788,
			"-0.005": 20.4696767226,
			"-0.004": 21.1754886753,
			"-0.003": 24.9106691229,
			"-0.002": 24.3291510177,
			"-0.001": 21.6829482376,
			"0.0": 17.3224521678,
			"0.001": 22.8637470248,
			"0.002": 40.6315849977,
			"0.003": 20.1778926202,
			"0.004": 5.72510800657,
			"0.005": 1.81445119926,
			"0.006": 2.62479915283,
			"0.007": 1.75700929673,
			"0.008": 2.99419836288,
			"0.009": 1.77661183679,
			"0.01": 3.03930904475,
			"0.011": 3.76914500299,
			"0.012": 6.27202203932,
			"0.013": 2.293845864,
			"0.014": 0.0686019173282,
			"0.015": 0.0,
			"0.016": 0.0,
			"0.017": 0.0,
			"0.018": 0.0,
			"0.019": 0.0,
			"0.02": 0.0,
			"0.021": 0.0,
			"0.022": 0.0,
			"0.023": 0.0,
			"0.024": 0.0,
			"0.025": 0.0
		}
	}
}
