{
	 "smiles": "OC(=O)C1=CC2=C(OC1)C(O)=CC=C2", 
	 "Tm": 507.15, 
	 "num_atms": 22, 
	 "gaussian": { 
		 "optdone": 1, 
		 "sigma_profile": "yes", 
		 "theory": "DFT", 
		 "functional": "B3LYP", 
		 "basiset": "6-31G**", 
		 "properties": { 
			 "R2extent": 3526.7406, 
			 "electric_dipole_moment_norm": 3.37557883333, 
			 "electric_quadrupole_moment_norm": 16.5344580945, 
			 "total_energy": -686.765385608, 
			 "HOMO_LUMO_gap": 0.14571, 
			 "cosmo_polarized_energy": -16.65, 
			 "cosmo_cavitation_energy": 26.39, 
			 "cosmo_dispersion_energy": -19.9, 
			 "cosmo_repulsion_energy": 1.55, 
			 "cosmo_total_nonelectrostatic_energy": 8.03, 
			 "SMD_solvation_energy": 5.98 
		},
		"coords": [
			{
				"x": 0.0367641477,
				"y": 0.3954027776,
				"z": -3.4820327105,
				"element": "O" 
			},
			{
				"x": -1.0818151656,
				"y": 0.106496412,
				"z": -2.7651989493,
				"element": "C" 
			},
			{
				"x": -2.0597731999,
				"y": -0.3485969644,
				"z": -3.3187020448,
				"element": "O" 
			},
			{
				"x": -1.0514572091,
				"y": 0.3477972241,
				"z": -1.3022877923,
				"element": "C" 
			},
			{
				"x": 0.0673273174,
				"y": 0.4727244895,
				"z": -0.556661882,
				"element": "C" 
			},
			{
				"x": -0.0195972091,
				"y": 0.6532729056,
				"z": 0.882373218,
				"element": "C" 
			},
			{
				"x": -1.2888830941,
				"y": 0.9398386252,
				"z": 1.4076663335,
				"element": "C" 
			},
			{
				"x": -2.3982800293,
				"y": 1.0575651405,
				"z": 0.6097376822,
				"element": "O" 
			},
			{
				"x": -2.3891263771,
				"y": 0.2745734196,
				"z": -0.5984457755,
				"element": "C" 
			},
			{
				"x": -1.4665890391,
				"y": 1.2006783127,
				"z": 2.7724667639,
				"element": "C" 
			},
			{
				"x": -2.697282798,
				"y": 1.5023421335,
				"z": 3.2637883742,
				"element": "O" 
			},
			{
				"x": -0.3606930398,
				"y": 1.1451279928,
				"z": 3.6226477812,
				"element": "C" 
			},
			{
				"x": 0.9069486214,
				"y": 0.8471320756,
				"z": 3.1108637986,
				"element": "C" 
			},
			{
				"x": 1.0844393751,
				"y": 0.6079290919,
				"z": 1.7513561523,
				"element": "C" 
			},
			{
				"x": 0.6530189087,
				"y": 0.9105688956,
				"z": -2.9433241126,
				"element": "H" 
			},
			{
				"x": 1.0610060398,
				"y": 0.4336087701,
				"z": -0.999606913,
				"element": "H" 
			},
			{
				"x": -3.1867074327,
				"y": 0.6731059208,
				"z": -1.2255135018,
				"element": "H" 
			},
			{
				"x": -2.6383338933,
				"y": -0.770570802,
				"z": -0.3575354317,
				"element": "H" 
			},
			{
				"x": -3.3192510919,
				"y": 1.4685274843,
				"z": 2.520160541,
				"element": "H" 
			},
			{
				"x": -0.5120590815,
				"y": 1.334056888,
				"z": 4.6802737901,
				"element": "H" 
			},
			{
				"x": 1.7568125881,
				"y": 0.8059216003,
				"z": 3.7845242002,
				"element": "H" 
			},
			{
				"x": 2.0692316625,
				"y": 0.3838976067,
				"z": 1.3517504784,
				"element": "H" 
			}
		],
		 "valence_orbital": [ 
			{
				"type": "occ",
				"energy": -0.3212,
				"method": "rhf"
			},
			{
				"type": "occ",
				"energy": -0.30851,
				"method": "rhf"
			},
			{
				"type": "occ",
				"energy": -0.27974,
				"method": "rhf"
			},
			{
				"type": "occ",
				"energy": -0.23654,
				"method": "rhf"
			},
			{
				"type": "occ",
				"energy": -0.22309,
				"method": "rhf"
			},
			{
				"type": "unocc",
				"energy": -0.07738,
				"method": "rhf"
			},
			{
				"type": "unocc",
				"energy": 0.00051,
				"method": "rhf"
			},
			{
				"type": "unocc",
				"energy": 0.01282,
				"method": "rhf"
			},
			{
				"type": "unocc",
				"energy": 0.05125,
				"method": "rhf"
			},
			{
				"type": "unocc",
				"energy": 0.05958,
				"method": "rhf"
			}
		],
		"cosmo_sigma_profile": { 
			"-0.025": 0.0,
			"-0.024": 0.0,
			"-0.023": 0.0,
			"-0.022": 0.0,
			"-0.021": 0.0,
			"-0.02": 0.0,
			"-0.019": 0.485970324981,
			"-0.018": 0.790659444475,
			"-0.017": 1.22050225044,
			"-0.016": 0.924734393161,
			"-0.015": 1.0210110296,
			"-0.014": 1.31857529485,
			"-0.013": 2.33745016988,
			"-0.012": 2.02999399421,
			"-0.011": 1.62505202537,
			"-0.01": 1.68231344117,
			"-0.009": 2.89360111381,
			"-0.008": 3.19616370133,
			"-0.007": 5.57631455113,
			"-0.006": 11.0772749615,
			"-0.005": 13.2367791523,
			"-0.004": 14.184669463,
			"-0.003": 12.8276333085,
			"-0.002": 12.8583203492,
			"-0.001": 9.79984431682,
			"0.0": 11.6907215701,
			"0.001": 14.1680435086,
			"0.002": 14.1845769264,
			"0.003": 13.1228495395,
			"0.004": 12.3872884388,
			"0.005": 7.54554422202,
			"0.006": 5.18768531746,
			"0.007": 4.41009587719,
			"0.008": 4.34153660365,
			"0.009": 4.72075281928,
			"0.01": 6.39821161632,
			"0.011": 7.09465625227,
			"0.012": 4.8397798569,
			"0.013": 1.72505007079,
			"0.014": 0.0974561121045,
			"0.015": 0.0,
			"0.016": 0.0,
			"0.017": 0.0,
			"0.018": 0.0,
			"0.019": 0.0,
			"0.02": 0.0,
			"0.021": 0.0,
			"0.022": 0.0,
			"0.023": 0.0,
			"0.024": 0.0,
			"0.025": 0.0
		}
	}
}
