{
	 "smiles": "OC(=O)C(Cl)Br", 
	 "Tm": 302.35, 
	 "num_atms": 8, 
	 "gaussian": { 
		 "optdone": 1, 
		 "sigma_profile": "yes", 
		 "theory": "DFT", 
		 "functional": "B3LYP", 
		 "basiset": "6-31G**", 
		 "properties": { 
			 "R2extent": 1716.4286, 
			 "electric_dipole_moment_norm": 2.42303813631, 
			 "electric_quadrupole_moment_norm": 6.78955936125, 
			 "total_energy": -3259.45438277, 
			 "HOMO_LUMO_gap": 0.23127, 
			 "cosmo_polarized_energy": -9.32, 
			 "cosmo_cavitation_energy": 16.71, 
			 "cosmo_dispersion_energy": -12.87, 
			 "cosmo_repulsion_energy": 1.13, 
			 "cosmo_total_nonelectrostatic_energy": 4.96, 
			 "SMD_solvation_energy": 2.85 
		},
		"coords": [
			{
				"x": 1.0980868483,
				"y": 0.8259914857,
				"z": -0.3324556757,
				"element": "O" 
			},
			{
				"x": 0.2597144935,
				"y": 1.8142523056,
				"z": -0.6767449114,
				"element": "C" 
			},
			{
				"x": 0.6168521008,
				"y": 2.78926349,
				"z": -1.2837004017,
				"element": "O" 
			},
			{
				"x": -1.2049198431,
				"y": 1.6635367002,
				"z": -0.2425575041,
				"element": "C" 
			},
			{
				"x": -1.3445066621,
				"y": 1.6363900654,
				"z": 1.5466824953,
				"element": "Cl" 
			},
			{
				"x": -1.9804526794,
				"y": 0.0366947401,
				"z": -1.0498718157,
				"element": "Br" 
			},
			{
				"x": 0.6208440778,
				"y": 0.1038974926,
				"z": 0.1065189719,
				"element": "H" 
			},
			{
				"x": -1.7772183358,
				"y": 2.5050737205,
				"z": -0.6193711586,
				"element": "H" 
			}
		],
		 "valence_orbital": [ 
			{
				"type": "occ",
				"energy": -0.34867,
				"method": "rhf"
			},
			{
				"type": "occ",
				"energy": -0.34078,
				"method": "rhf"
			},
			{
				"type": "occ",
				"energy": -0.32205,
				"method": "rhf"
			},
			{
				"type": "occ",
				"energy": -0.31437,
				"method": "rhf"
			},
			{
				"type": "occ",
				"energy": -0.29588,
				"method": "rhf"
			},
			{
				"type": "unocc",
				"energy": -0.06461,
				"method": "rhf"
			},
			{
				"type": "unocc",
				"energy": -0.04626,
				"method": "rhf"
			},
			{
				"type": "unocc",
				"energy": 0.04693,
				"method": "rhf"
			},
			{
				"type": "unocc",
				"energy": 0.05097,
				"method": "rhf"
			},
			{
				"type": "unocc",
				"energy": 0.10352,
				"method": "rhf"
			}
		],
		"cosmo_sigma_profile": { 
			"-0.025": 0.0,
			"-0.024": 0.0,
			"-0.023": 0.0,
			"-0.022": 0.0,
			"-0.021": 0.0,
			"-0.02": 0.0,
			"-0.019": 0.28887184359,
			"-0.018": 0.589166685328,
			"-0.017": 0.552597207423,
			"-0.016": 0.720196497885,
			"-0.015": 0.702422319866,
			"-0.014": 0.626643898965,
			"-0.013": 1.29745935599,
			"-0.012": 2.06265102626,
			"-0.011": 2.20650577651,
			"-0.01": 2.63375002648,
			"-0.009": 2.31147229178,
			"-0.008": 1.95767878255,
			"-0.007": 2.02253358977,
			"-0.006": 2.35730225957,
			"-0.005": 3.94479782046,
			"-0.004": 7.88842019327,
			"-0.003": 8.83225222444,
			"-0.002": 7.42272560764,
			"-0.001": 8.9729953259,
			"0.0": 10.2996001827,
			"0.001": 10.2801697404,
			"0.002": 15.7308095317,
			"0.003": 17.1105017472,
			"0.004": 3.42665147563,
			"0.005": 2.69980987555,
			"0.006": 1.94610290093,
			"0.007": 3.22912978919,
			"0.008": 5.14285503553,
			"0.009": 4.58467375525,
			"0.01": 5.23945270598,
			"0.011": 1.8542164283,
			"0.012": 0.00402734493699,
			"0.013": 0.0,
			"0.014": 0.0,
			"0.015": 0.0,
			"0.016": 0.0,
			"0.017": 0.0,
			"0.018": 0.0,
			"0.019": 0.0,
			"0.02": 0.0,
			"0.021": 0.0,
			"0.022": 0.0,
			"0.023": 0.0,
			"0.024": 0.0,
			"0.025": 0.0
		}
	}
}
