{
	 "smiles": "NC1=C2C=CC=NC2=CC=C1[N+]([O-])=O", 
	 "Tm": 545.15, 
	 "num_atms": 21, 
	 "gaussian": { 
		 "optdone": 1, 
		 "sigma_profile": "yes", 
		 "theory": "DFT", 
		 "functional": "B3LYP", 
		 "basiset": "6-31G**", 
		 "properties": { 
			 "R2extent": 3429.8304, 
			 "electric_dipole_moment_norm": 5.43350866476, 
			 "electric_quadrupole_moment_norm": 20.7966860185, 
			 "total_energy": -661.791216229, 
			 "HOMO_LUMO_gap": 0.13556, 
			 "cosmo_polarized_energy": -15.03, 
			 "cosmo_cavitation_energy": 25.24, 
			 "cosmo_dispersion_energy": -19.47, 
			 "cosmo_repulsion_energy": 1.48, 
			 "cosmo_total_nonelectrostatic_energy": 7.26, 
			 "SMD_solvation_energy": 4.61 
		},
		"coords": [
			{
				"x": -3.1813412861,
				"y": 1.2665384365,
				"z": 0.6040490755,
				"element": "N" 
			},
			{
				"x": -2.1888161128,
				"y": 0.5186172198,
				"z": 0.0697487112,
				"element": "C" 
			},
			{
				"x": -0.8055000298,
				"y": 0.7972280052,
				"z": 0.410626081,
				"element": "C" 
			},
			{
				"x": -0.4299564431,
				"y": 1.8491634571,
				"z": 1.2775612104,
				"element": "C" 
			},
			{
				"x": 0.9005626163,
				"y": 2.0552615316,
				"z": 1.5723451805,
				"element": "C" 
			},
			{
				"x": 1.8572186618,
				"y": 1.198807692,
				"z": 0.9871729197,
				"element": "C" 
			},
			{
				"x": 1.5567965102,
				"y": 0.2147068159,
				"z": 0.1602502795,
				"element": "N" 
			},
			{
				"x": 0.2463910047,
				"y": 0.0023229765,
				"z": -0.1421230896,
				"element": "C" 
			},
			{
				"x": -0.0608304293,
				"y": -1.0508319142,
				"z": -1.0515580419,
				"element": "C" 
			},
			{
				"x": -1.358772895,
				"y": -1.2986855728,
				"z": -1.3900221364,
				"element": "C" 
			},
			{
				"x": -2.4238710635,
				"y": -0.5336442464,
				"z": -0.8427824297,
				"element": "C" 
			},
			{
				"x": -3.7592663704,
				"y": -0.9055443601,
				"z": -1.2508306006,
				"element": "N" 
			},
			{
				"x": -4.7379088139,
				"y": -0.2747753883,
				"z": -0.7955690101,
				"element": "O" 
			},
			{
				"x": -3.8933116069,
				"y": -1.8417400075,
				"z": -2.0404889025,
				"element": "O" 
			},
			{
				"x": -4.1289337872,
				"y": 0.9906211615,
				"z": 0.3736621761,
				"element": "H" 
			},
			{
				"x": -2.9993919407,
				"y": 1.8818808132,
				"z": 1.3770392518,
				"element": "H" 
			},
			{
				"x": -1.1715443452,
				"y": 2.5158203163,
				"z": 1.707473297,
				"element": "H" 
			},
			{
				"x": 1.2131827796,
				"y": 2.8574527469,
				"z": 2.2323146382,
				"element": "H" 
			},
			{
				"x": 2.9149307335,
				"y": 1.3378053785,
				"z": 1.2079156322,
				"element": "H" 
			},
			{
				"x": 0.7607470285,
				"y": -1.6297880935,
				"z": -1.4559368464,
				"element": "H" 
			},
			{
				"x": -1.6243842107,
				"y": -2.0892169681,
				"z": -2.0794473958,
				"element": "H" 
			}
		],
		 "valence_orbital": [ 
			{
				"type": "occ",
				"energy": -0.2977,
				"method": "rhf"
			},
			{
				"type": "occ",
				"energy": -0.28476,
				"method": "rhf"
			},
			{
				"type": "occ",
				"energy": -0.27324,
				"method": "rhf"
			},
			{
				"type": "occ",
				"energy": -0.26922,
				"method": "rhf"
			},
			{
				"type": "occ",
				"energy": -0.22239,
				"method": "rhf"
			},
			{
				"type": "unocc",
				"energy": -0.08683,
				"method": "rhf"
			},
			{
				"type": "unocc",
				"energy": -0.05914,
				"method": "rhf"
			},
			{
				"type": "unocc",
				"energy": -0.01644,
				"method": "rhf"
			},
			{
				"type": "unocc",
				"energy": 0.01811,
				"method": "rhf"
			},
			{
				"type": "unocc",
				"energy": 0.05419,
				"method": "rhf"
			}
		],
		"cosmo_sigma_profile": { 
			"-0.025": 0.0,
			"-0.024": 0.0,
			"-0.023": 0.0,
			"-0.022": 0.0,
			"-0.021": 0.0,
			"-0.02": 0.0,
			"-0.019": 0.0,
			"-0.018": 0.0,
			"-0.017": 0.171655373677,
			"-0.016": 1.10337007865,
			"-0.015": 1.12906253299,
			"-0.014": 1.12121904729,
			"-0.013": 1.46793699515,
			"-0.012": 1.24120328468,
			"-0.011": 1.63659680527,
			"-0.01": 3.35721169601,
			"-0.009": 1.95185174177,
			"-0.008": 2.77942452139,
			"-0.007": 7.63188064117,
			"-0.006": 10.5508396528,
			"-0.005": 8.77494757624,
			"-0.004": 11.2440482521,
			"-0.003": 9.77021978402,
			"-0.002": 11.1832639835,
			"-0.001": 16.0197651962,
			"0.0": 21.6044345801,
			"0.001": 20.2031864214,
			"0.002": 15.1247880225,
			"0.003": 9.20096670399,
			"0.004": 6.18019554274,
			"0.005": 4.25087383737,
			"0.006": 4.73791227426,
			"0.007": 4.51160340351,
			"0.008": 7.64318134021,
			"0.009": 5.93883880683,
			"0.01": 4.57523572092,
			"0.011": 4.40331235931,
			"0.012": 1.49183858082,
			"0.013": 0.878572436751,
			"0.014": 0.88550492237,
			"0.015": 0.458484567211,
			"0.016": 0.436288808789,
			"0.017": 0.0,
			"0.018": 0.0,
			"0.019": 0.0,
			"0.02": 0.0,
			"0.021": 0.0,
			"0.022": 0.0,
			"0.023": 0.0,
			"0.024": 0.0,
			"0.025": 0.0
		}
	}
}
