{
	 "smiles": "COC1=CC=C(C=C1)N=NC1=C2N=C(C)C=C(N2N=C1N)C(F)(F)F", 
	 "Tm": 431.15, 
	 "num_atms": 38, 
	 "gaussian": { 
		 "optdone": 1, 
		 "sigma_profile": "yes", 
		 "theory": "DFT", 
		 "functional": "B3LYP", 
		 "basiset": "6-31G**", 
		 "properties": { 
			 "R2extent": 14496.9924, 
			 "electric_dipole_moment_norm": 2.34981032, 
			 "electric_quadrupole_moment_norm": 13.7901809908, 
			 "total_energy": -1282.62404927, 
			 "HOMO_LUMO_gap": 0.12426, 
			 "cosmo_polarized_energy": -16.31, 
			 "cosmo_cavitation_energy": 45.13, 
			 "cosmo_dispersion_energy": -32.27, 
			 "cosmo_repulsion_energy": 2.39, 
			 "cosmo_total_nonelectrostatic_energy": 15.25, 
			 "SMD_solvation_energy": 6.26 
		},
		"coords": [
			{
				"x": -4.8825588696,
				"y": 1.5618030667,
				"z": 4.4869207156,
				"element": "C" 
			},
			{
				"x": -3.5161578048,
				"y": 1.8856343677,
				"z": 4.6931071495,
				"element": "O" 
			},
			{
				"x": -2.6110083234,
				"y": 1.5173671701,
				"z": 3.7430809915,
				"element": "C" 
			},
			{
				"x": -1.2769408416,
				"y": 1.8662546939,
				"z": 4.0043187788,
				"element": "C" 
			},
			{
				"x": -0.2840641717,
				"y": 1.5338240326,
				"z": 3.0956201383,
				"element": "C" 
			},
			{
				"x": -0.5918499761,
				"y": 0.848382275,
				"z": 1.9078527396,
				"element": "C" 
			},
			{
				"x": -1.9285072606,
				"y": 0.5026964751,
				"z": 1.6536508665,
				"element": "C" 
			},
			{
				"x": -2.9315932188,
				"y": 0.8318801833,
				"z": 2.5595107318,
				"element": "C" 
			},
			{
				"x": 0.4909691705,
				"y": 0.5577789191,
				"z": 1.0507034366,
				"element": "N" 
			},
			{
				"x": 0.1733143354,
				"y": -0.0639578143,
				"z": -0.0179948093,
				"element": "N" 
			},
			{
				"x": 1.21718342,
				"y": -0.3492799246,
				"z": -0.8585381515,
				"element": "C" 
			},
			{
				"x": 1.0891855145,
				"y": -1.0156357903,
				"z": -2.0906134431,
				"element": "C" 
			},
			{
				"x": 0.037374627,
				"y": -1.5249694852,
				"z": -2.7461254361,
				"element": "N" 
			},
			{
				"x": 0.254131349,
				"y": -2.1043729357,
				"z": -3.9202789311,
				"element": "C" 
			},
			{
				"x": -0.9331545442,
				"y": -2.6739828292,
				"z": -4.6491841879,
				"element": "C" 
			},
			{
				"x": 1.5554103759,
				"y": -2.1946281201,
				"z": -4.4882248223,
				"element": "C" 
			},
			{
				"x": 2.626662543,
				"y": -1.6673639097,
				"z": -3.8052256982,
				"element": "C" 
			},
			{
				"x": 2.3955357612,
				"y": -1.0781121658,
				"z": -2.6074575696,
				"element": "N" 
			},
			{
				"x": 3.3301162772,
				"y": -0.5060279861,
				"z": -1.7983829325,
				"element": "N" 
			},
			{
				"x": 2.6226666214,
				"y": -0.0683671127,
				"z": -0.7435538075,
				"element": "C" 
			},
			{
				"x": 3.2056990522,
				"y": 0.5556516948,
				"z": 0.29830829,
				"element": "N" 
			},
			{
				"x": 4.0469330434,
				"y": -1.7131543426,
				"z": -4.325131614,
				"element": "C" 
			},
			{
				"x": 4.5509323623,
				"y": -0.4800519639,
				"z": -4.4922169005,
				"element": "F" 
			},
			{
				"x": 4.8549841653,
				"y": -2.3902574687,
				"z": -3.4940665968,
				"element": "F" 
			},
			{
				"x": 4.0765860831,
				"y": -2.3345389004,
				"z": -5.5235299922,
				"element": "F" 
			},
			{
				"x": -5.4172344756,
				"y": 1.9454634128,
				"z": 5.3571682852,
				"element": "H" 
			},
			{
				"x": -5.2794454133,
				"y": 2.0376970151,
				"z": 3.5811125829,
				"element": "H" 
			},
			{
				"x": -5.0360197539,
				"y": 0.4772440464,
				"z": 4.4186526344,
				"element": "H" 
			},
			{
				"x": -1.0496578727,
				"y": 2.3951910503,
				"z": 4.9238735037,
				"element": "H" 
			},
			{
				"x": 0.7510989996,
				"y": 1.7989658079,
				"z": 3.2887124373,
				"element": "H" 
			},
			{
				"x": -2.1632862643,
				"y": -0.0262004052,
				"z": 0.7368990586,
				"element": "H" 
			},
			{
				"x": -3.9557546373,
				"y": 0.5535658569,
				"z": 2.3399162083,
				"element": "H" 
			},
			{
				"x": -1.0543159865,
				"y": -2.202658984,
				"z": -5.6313507211,
				"element": "H" 
			},
			{
				"x": -1.8375662169,
				"y": -2.5093663704,
				"z": -4.0625825485,
				"element": "H" 
			},
			{
				"x": -0.809963607,
				"y": -3.7496539105,
				"z": -4.820227913,
				"element": "H" 
			},
			{
				"x": 1.7184291562,
				"y": -2.6696132894,
				"z": -5.4460534311,
				"element": "H" 
			},
			{
				"x": 2.5857104684,
				"y": 0.8921569266,
				"z": 1.0238161693,
				"element": "H" 
			},
			{
				"x": 4.189155913,
				"y": 0.7690367142,
				"z": 0.2715147883,
				"element": "H" 
			}
		],
		 "valence_orbital": [ 
			{
				"type": "occ",
				"energy": -0.25293,
				"method": "rhf"
			},
			{
				"type": "occ",
				"energy": -0.24477,
				"method": "rhf"
			},
			{
				"type": "occ",
				"energy": -0.22461,
				"method": "rhf"
			},
			{
				"type": "occ",
				"energy": -0.22137,
				"method": "rhf"
			},
			{
				"type": "occ",
				"energy": -0.19254,
				"method": "rhf"
			},
			{
				"type": "unocc",
				"energy": -0.06828,
				"method": "rhf"
			},
			{
				"type": "unocc",
				"energy": -0.0591,
				"method": "rhf"
			},
			{
				"type": "unocc",
				"energy": -0.00771,
				"method": "rhf"
			},
			{
				"type": "unocc",
				"energy": 0.00185,
				"method": "rhf"
			},
			{
				"type": "unocc",
				"energy": 0.04262,
				"method": "rhf"
			}
		],
		"cosmo_sigma_profile": { 
			"-0.025": 0.0,
			"-0.024": 0.0,
			"-0.023": 0.0,
			"-0.022": 0.0,
			"-0.021": 0.0,
			"-0.02": 0.0,
			"-0.019": 0.0,
			"-0.018": 0.0,
			"-0.017": 0.0,
			"-0.016": 0.0,
			"-0.015": 0.263470773086,
			"-0.014": 0.946291528097,
			"-0.013": 1.45041128664,
			"-0.012": 0.751264857798,
			"-0.011": 1.07135307053,
			"-0.01": 0.949088994007,
			"-0.009": 2.11502747737,
			"-0.008": 4.05742541207,
			"-0.007": 4.08688012016,
			"-0.006": 17.6657311949,
			"-0.005": 28.4479328036,
			"-0.004": 30.6389737175,
			"-0.003": 28.042194993,
			"-0.002": 25.1928317645,
			"-0.001": 23.9200753407,
			"0.0": 20.3841497302,
			"0.001": 24.5318050727,
			"0.002": 41.3642451239,
			"0.003": 32.7525274102,
			"0.004": 25.5550182507,
			"0.005": 13.6981905701,
			"0.006": 6.57908122762,
			"0.007": 6.06920935896,
			"0.008": 4.99783503063,
			"0.009": 4.48562934424,
			"0.01": 4.5921361237,
			"0.011": 2.88639826879,
			"0.012": 1.87771871925,
			"0.013": 1.28423136029,
			"0.014": 1.08331254718,
			"0.015": 0.358993378673,
			"0.016": 0.0,
			"0.017": 0.0,
			"0.018": 0.0,
			"0.019": 0.0,
			"0.02": 0.0,
			"0.021": 0.0,
			"0.022": 0.0,
			"0.023": 0.0,
			"0.024": 0.0,
			"0.025": 0.0
		}
	}
}
