{
	 "smiles": "CN1N=C(C(C=O)=C1Cl)C1=CC=CC=C1", 
	 "Tm": 335.15, 
	 "num_atms": 24, 
	 "gaussian": { 
		 "optdone": 1, 
		 "sigma_profile": "yes", 
		 "theory": "DFT", 
		 "functional": "B3LYP", 
		 "basiset": "6-31G**", 
		 "properties": { 
			 "R2extent": 4348.6684, 
			 "electric_dipole_moment_norm": 4.39706045103, 
			 "electric_quadrupole_moment_norm": 6.92255749561, 
			 "total_energy": -1069.48501197, 
			 "HOMO_LUMO_gap": 0.16988, 
			 "cosmo_polarized_energy": -10.24, 
			 "cosmo_cavitation_energy": 30.07, 
			 "cosmo_dispersion_energy": -22.19, 
			 "cosmo_repulsion_energy": 1.71, 
			 "cosmo_total_nonelectrostatic_energy": 9.59, 
			 "SMD_solvation_energy": 5.19 
		},
		"coords": [
			{
				"x": 0.9018352056,
				"y": 2.4316312173,
				"z": -1.5717438381,
				"element": "C" 
			},
			{
				"x": 0.5837486337,
				"y": 1.1676270908,
				"z": -0.9269722527,
				"element": "N" 
			},
			{
				"x": -0.3581603721,
				"y": 0.3532035272,
				"z": -1.4621904068,
				"element": "N" 
			},
			{
				"x": -0.440957331,
				"y": -0.721894431,
				"z": -0.6731713012,
				"element": "C" 
			},
			{
				"x": 0.4910753439,
				"y": -0.6011154067,
				"z": 0.4270221581,
				"element": "C" 
			},
			{
				"x": 0.8610313298,
				"y": -1.4158918405,
				"z": 1.5827100952,
				"element": "C" 
			},
			{
				"x": 0.4156508811,
				"y": -2.5035993945,
				"z": 1.913515515,
				"element": "O" 
			},
			{
				"x": 1.1056221775,
				"y": 0.6343178086,
				"z": 0.1898642766,
				"element": "C" 
			},
			{
				"x": 2.3312191488,
				"y": 1.4596654914,
				"z": 1.0811574908,
				"element": "Cl" 
			},
			{
				"x": -1.4125071302,
				"y": -1.7727990905,
				"z": -1.049051757,
				"element": "C" 
			},
			{
				"x": -2.1922373124,
				"y": -1.58193061,
				"z": -2.2078219997,
				"element": "C" 
			},
			{
				"x": -3.1195484034,
				"y": -2.5381937821,
				"z": -2.6057829215,
				"element": "C" 
			},
			{
				"x": -3.2916407085,
				"y": -3.707211012,
				"z": -1.8582618418,
				"element": "C" 
			},
			{
				"x": -2.5249458037,
				"y": -3.9041580214,
				"z": -0.71113496,
				"element": "C" 
			},
			{
				"x": -1.5914440488,
				"y": -2.9488718521,
				"z": -0.3044442033,
				"element": "C" 
			},
			{
				"x": 0.2608767757,
				"y": 2.5025491207,
				"z": -2.4486953736,
				"element": "H" 
			},
			{
				"x": 0.702991774,
				"y": 3.2684846231,
				"z": -0.8972559365,
				"element": "H" 
			},
			{
				"x": 1.9515612973,
				"y": 2.4554487092,
				"z": -1.8757238276,
				"element": "H" 
			},
			{
				"x": 1.6480483891,
				"y": -0.9412903226,
				"z": 2.2031302414,
				"element": "H" 
			},
			{
				"x": -2.060109569,
				"y": -0.6762902371,
				"z": -2.7884050794,
				"element": "H" 
			},
			{
				"x": -3.7104890814,
				"y": -2.3716319606,
				"z": -3.5021344089,
				"element": "H" 
			},
			{
				"x": -4.0164770074,
				"y": -4.4542080794,
				"z": -2.1696609,
				"element": "H" 
			},
			{
				"x": -2.6489726865,
				"y": -4.8081100202,
				"z": -0.1214663815,
				"element": "H" 
			},
			{
				"x": -1.0009715023,
				"y": -3.1117315274,
				"z": 0.5885176127,
				"element": "H" 
			}
		],
		 "valence_orbital": [ 
			{
				"type": "occ",
				"energy": -0.29403,
				"method": "rhf"
			},
			{
				"type": "occ",
				"energy": -0.26492,
				"method": "rhf"
			},
			{
				"type": "occ",
				"energy": -0.25372,
				"method": "rhf"
			},
			{
				"type": "occ",
				"energy": -0.24238,
				"method": "rhf"
			},
			{
				"type": "occ",
				"energy": -0.22533,
				"method": "rhf"
			},
			{
				"type": "unocc",
				"energy": -0.05545,
				"method": "rhf"
			},
			{
				"type": "unocc",
				"energy": -0.02605,
				"method": "rhf"
			},
			{
				"type": "unocc",
				"energy": 0.00803,
				"method": "rhf"
			},
			{
				"type": "unocc",
				"energy": 0.0092,
				"method": "rhf"
			},
			{
				"type": "unocc",
				"energy": 0.03223,
				"method": "rhf"
			}
		],
		"cosmo_sigma_profile": { 
			"-0.025": 0.0,
			"-0.024": 0.0,
			"-0.023": 0.0,
			"-0.022": 0.0,
			"-0.021": 0.0,
			"-0.02": 0.0,
			"-0.019": 0.0,
			"-0.018": 0.0,
			"-0.017": 0.0,
			"-0.016": 0.0,
			"-0.015": 0.0,
			"-0.014": 0.0,
			"-0.013": 0.0,
			"-0.012": 0.0,
			"-0.011": 0.0,
			"-0.01": 0.0,
			"-0.009": 0.0,
			"-0.008": 1.21308335624,
			"-0.007": 7.38911279615,
			"-0.006": 11.8505890153,
			"-0.005": 19.7283298525,
			"-0.004": 24.7093590306,
			"-0.003": 18.7033170904,
			"-0.002": 17.5229612316,
			"-0.001": 17.3333225167,
			"0.0": 19.4866845769,
			"0.001": 19.7641424055,
			"0.002": 16.7776551687,
			"0.003": 15.7310141889,
			"0.004": 15.3882255802,
			"0.005": 14.595883952,
			"0.006": 7.0930326204,
			"0.007": 3.39052067526,
			"0.008": 3.00035537571,
			"0.009": 3.70916484805,
			"0.01": 2.11658280968,
			"0.011": 2.39656449516,
			"0.012": 1.91309443662,
			"0.013": 0.734997964432,
			"0.014": 0.0,
			"0.015": 0.0,
			"0.016": 0.0,
			"0.017": 0.0,
			"0.018": 0.0,
			"0.019": 0.0,
			"0.02": 0.0,
			"0.021": 0.0,
			"0.022": 0.0,
			"0.023": 0.0,
			"0.024": 0.0,
			"0.025": 0.0
		}
	}
}
