{
	 "smiles": "CC(C)(C)C1=CC=C(C=C1)C(C)(C)C(O)=O", 
	 "Tm": 439.15, 
	 "num_atms": 36, 
	 "gaussian": { 
		 "optdone": 1, 
		 "sigma_profile": "yes", 
		 "theory": "DFT", 
		 "functional": "B3LYP", 
		 "basiset": "6-31G**", 
		 "properties": { 
			 "R2extent": 4919.4226, 
			 "electric_dipole_moment_norm": 4.87050606919, 
			 "electric_quadrupole_moment_norm": 20.3831288484, 
			 "total_energy": -696.023883116, 
			 "HOMO_LUMO_gap": 0.22724, 
			 "cosmo_polarized_energy": -11.87, 
			 "cosmo_cavitation_energy": 36.44, 
			 "cosmo_dispersion_energy": -25.05, 
			 "cosmo_repulsion_energy": 1.94, 
			 "cosmo_total_nonelectrostatic_energy": 13.33, 
			 "SMD_solvation_energy": 7.4 
		},
		"coords": [
			{
				"x": 1.0300023823,
				"y": 0.9044078529,
				"z": -3.5847510427,
				"element": "C" 
			},
			{
				"x": 0.8299680774,
				"y": 1.6609237045,
				"z": -2.2579470283,
				"element": "C" 
			},
			{
				"x": -0.4344449429,
				"y": 2.5433076807,
				"z": -2.390144282,
				"element": "C" 
			},
			{
				"x": 2.0640821558,
				"y": 2.5653888584,
				"z": -2.0262021655,
				"element": "C" 
			},
			{
				"x": 0.6650753821,
				"y": 0.7074528769,
				"z": -1.0616204624,
				"element": "C" 
			},
			{
				"x": 0.4735605372,
				"y": 1.2257086525,
				"z": 0.2326485983,
				"element": "C" 
			},
			{
				"x": 0.3246390058,
				"y": 0.396249241,
				"z": 1.3374350022,
				"element": "C" 
			},
			{
				"x": 0.3565329833,
				"y": -1.0057547662,
				"z": 1.212962526,
				"element": "C" 
			},
			{
				"x": 0.5380795453,
				"y": -1.5244996069,
				"z": -0.0731339802,
				"element": "C" 
			},
			{
				"x": 0.6910132644,
				"y": -0.6855394175,
				"z": -1.1831101871,
				"element": "C" 
			},
			{
				"x": 0.2130160235,
				"y": -1.8797275889,
				"z": 2.4672603902,
				"element": "C" 
			},
			{
				"x": 0.1117726604,
				"y": -3.3900695153,
				"z": 2.1434977605,
				"element": "C" 
			},
			{
				"x": 1.4064047964,
				"y": -1.653282798,
				"z": 3.4176646048,
				"element": "C" 
			},
			{
				"x": -1.0973092936,
				"y": -1.5337995152,
				"z": 3.2207571847,
				"element": "C" 
			},
			{
				"x": -2.1758629546,
				"y": -1.2675433973,
				"z": 2.442247746,
				"element": "O" 
			},
			{
				"x": -1.2083108683,
				"y": -1.5624249975,
				"z": 4.4220962422,
				"element": "O" 
			},
			{
				"x": 1.9290836377,
				"y": 0.2796348913,
				"z": -3.5667535543,
				"element": "H" 
			},
			{
				"x": 1.1440786356,
				"y": 1.6217046832,
				"z": -4.4037475978,
				"element": "H" 
			},
			{
				"x": 0.173218924,
				"y": 0.2658050551,
				"z": -3.8239293739,
				"element": "H" 
			},
			{
				"x": -1.3248503616,
				"y": 1.9297779104,
				"z": -2.5626522609,
				"element": "H" 
			},
			{
				"x": -0.3295113466,
				"y": 3.2338600752,
				"z": -3.2343583024,
				"element": "H" 
			},
			{
				"x": -0.6104007843,
				"y": 3.1420207953,
				"z": -1.4915598785,
				"element": "H" 
			},
			{
				"x": 1.9657440193,
				"y": 3.1646939923,
				"z": -1.1162372817,
				"element": "H" 
			},
			{
				"x": 2.1923373621,
				"y": 3.2561698607,
				"z": -2.8670278665,
				"element": "H" 
			},
			{
				"x": 2.9768809347,
				"y": 1.9675431494,
				"z": -1.9355322601,
				"element": "H" 
			},
			{
				"x": 0.4387292128,
				"y": 2.3003829022,
				"z": 0.3851497136,
				"element": "H" 
			},
			{
				"x": 0.175100591,
				"y": 0.8456166231,
				"z": 2.3162328507,
				"element": "H" 
			},
			{
				"x": 0.5695885912,
				"y": -2.597087856,
				"z": -0.231299734,
				"element": "H" 
			},
			{
				"x": 0.8323016366,
				"y": -1.1463179739,
				"z": -2.1540781148,
				"element": "H" 
			},
			{
				"x": -0.0301573011,
				"y": -3.9522035898,
				"z": 3.070194617,
				"element": "H" 
			},
			{
				"x": 1.0314876328,
				"y": -3.7464363275,
				"z": 1.6700339716,
				"element": "H" 
			},
			{
				"x": -0.7289953674,
				"y": -3.6148448874,
				"z": 1.4800290638,
				"element": "H" 
			},
			{
				"x": 1.5053062641,
				"y": -0.6005917442,
				"z": 3.6937955254,
				"element": "H" 
			},
			{
				"x": 1.2687603979,
				"y": -2.2267230891,
				"z": 4.3366121124,
				"element": "H" 
			},
			{
				"x": 2.334418422,
				"y": -1.9674012188,
				"z": 2.9306276972,
				"element": "H" 
			},
			{
				"x": -1.8895398552,
				"y": -1.1866005154,
				"z": 1.5183397668,
				"element": "H" 
			}
		],
		 "valence_orbital": [ 
			{
				"type": "occ",
				"energy": -0.32217,
				"method": "rhf"
			},
			{
				"type": "occ",
				"energy": -0.30694,
				"method": "rhf"
			},
			{
				"type": "occ",
				"energy": -0.268,
				"method": "rhf"
			},
			{
				"type": "occ",
				"energy": -0.26007,
				"method": "rhf"
			},
			{
				"type": "occ",
				"energy": -0.24324,
				"method": "rhf"
			},
			{
				"type": "unocc",
				"energy": -0.016,
				"method": "rhf"
			},
			{
				"type": "unocc",
				"energy": -0.01378,
				"method": "rhf"
			},
			{
				"type": "unocc",
				"energy": 0.01558,
				"method": "rhf"
			},
			{
				"type": "unocc",
				"energy": 0.07305,
				"method": "rhf"
			},
			{
				"type": "unocc",
				"energy": 0.07911,
				"method": "rhf"
			}
		],
		"cosmo_sigma_profile": { 
			"-0.025": 0.0,
			"-0.024": 0.0,
			"-0.023": 0.0,
			"-0.022": 0.0,
			"-0.021": 0.0,
			"-0.02": 0.0,
			"-0.019": 0.0,
			"-0.018": 0.0,
			"-0.017": 0.0,
			"-0.016": 0.0,
			"-0.015": 0.252549992814,
			"-0.014": 0.295302950688,
			"-0.013": 0.454837220683,
			"-0.012": 1.1918239264,
			"-0.011": 0.917441000209,
			"-0.01": 1.2164715387,
			"-0.009": 0.840307317405,
			"-0.008": 1.42837669318,
			"-0.007": 1.39787931999,
			"-0.006": 5.00645525533,
			"-0.005": 12.122512571,
			"-0.004": 21.1515794869,
			"-0.003": 32.648998331,
			"-0.002": 37.7338963358,
			"-0.001": 31.846019147,
			"0.0": 31.4082404326,
			"0.001": 32.5728638135,
			"0.002": 15.467133491,
			"0.003": 9.20226080971,
			"0.004": 8.18322514892,
			"0.005": 8.24437247128,
			"0.006": 4.54814954124,
			"0.007": 2.3217473429,
			"0.008": 2.55977822843,
			"0.009": 3.43568784428,
			"0.01": 4.4414356796,
			"0.011": 5.07613060076,
			"0.012": 5.55973252386,
			"0.013": 2.02019600282,
			"0.014": 0.173971600039,
			"0.015": 0.0,
			"0.016": 0.0,
			"0.017": 0.0,
			"0.018": 0.0,
			"0.019": 0.0,
			"0.02": 0.0,
			"0.021": 0.0,
			"0.022": 0.0,
			"0.023": 0.0,
			"0.024": 0.0,
			"0.025": 0.0
		}
	}
}
