{
	 "smiles": "COC1=C(O)C2=C(CC3N(C)CCC4=CC=CC2=C34)C=C1", 
	 "Tm": 397.15, 
	 "num_atms": 40, 
	 "gaussian": { 
		 "optdone": 1, 
		 "sigma_profile": "yes", 
		 "theory": "DFT", 
		 "functional": "B3LYP", 
		 "basiset": "6-31G**", 
		 "properties": { 
			 "R2extent": 6919.4293, 
			 "electric_dipole_moment_norm": 3.06715107877, 
			 "electric_quadrupole_moment_norm": 20.5805077685, 
			 "total_energy": -902.56184661, 
			 "HOMO_LUMO_gap": 0.17113, 
			 "cosmo_polarized_energy": -10.17, 
			 "cosmo_cavitation_energy": 39.56, 
			 "cosmo_dispersion_energy": -29.21, 
			 "cosmo_repulsion_energy": 2.18, 
			 "cosmo_total_nonelectrostatic_energy": 12.52, 
			 "SMD_solvation_energy": 4.86 
		},
		"coords": [
			{
				"x": 0.0861865789,
				"y": 4.3510668494,
				"z": 4.5517278423,
				"element": "C" 
			},
			{
				"x": 0.3857918028,
				"y": 3.0320604664,
				"z": 4.1251204487,
				"element": "O" 
			},
			{
				"x": -0.0039059176,
				"y": 2.6545724347,
				"z": 2.8578225319,
				"element": "C" 
			},
			{
				"x": 0.3262834716,
				"y": 1.3176165351,
				"z": 2.550093275,
				"element": "C" 
			},
			{
				"x": 0.955016048,
				"y": 0.5796036705,
				"z": 3.5104918982,
				"element": "O" 
			},
			{
				"x": 0.0019388043,
				"y": 0.7684580104,
				"z": 1.2990179275,
				"element": "C" 
			},
			{
				"x": -0.6931419284,
				"y": 1.5922593287,
				"z": 0.373003681,
				"element": "C" 
			},
			{
				"x": -1.120238939,
				"y": 0.9891737095,
				"z": -0.9470888469,
				"element": "C" 
			},
			{
				"x": -1.5892601455,
				"y": -0.464242248,
				"z": -0.6859198768,
				"element": "C" 
			},
			{
				"x": -2.2606855923,
				"y": -1.1649816525,
				"z": -1.7798610719,
				"element": "N" 
			},
			{
				"x": -3.3199276352,
				"y": -0.4155885215,
				"z": -2.426270654,
				"element": "C" 
			},
			{
				"x": -1.3935811996,
				"y": -1.9099734106,
				"z": -2.6798026755,
				"element": "C" 
			},
			{
				"x": -0.716235121,
				"y": -3.0251507136,
				"z": -1.8832165764,
				"element": "C" 
			},
			{
				"x": 0.0169339097,
				"y": -2.451385418,
				"z": -0.6910170112,
				"element": "C" 
			},
			{
				"x": 1.1311460629,
				"y": -3.107060815,
				"z": -0.1522078112,
				"element": "C" 
			},
			{
				"x": 1.8460738034,
				"y": -2.5384346301,
				"z": 0.8967009787,
				"element": "C" 
			},
			{
				"x": 1.4794518728,
				"y": -1.2916278476,
				"z": 1.4013736211,
				"element": "C" 
			},
			{
				"x": 0.3702852283,
				"y": -0.6085218239,
				"z": 0.8789526326,
				"element": "C" 
			},
			{
				"x": -0.3815274151,
				"y": -1.2203054702,
				"z": -0.155115143,
				"element": "C" 
			},
			{
				"x": -1.0103530626,
				"y": 2.9070775194,
				"z": 0.6955943651,
				"element": "C" 
			},
			{
				"x": -0.6626175942,
				"y": 3.4551895623,
				"z": 1.9358852672,
				"element": "C" 
			},
			{
				"x": 0.4701410624,
				"y": 4.4383531089,
				"z": 5.5692821836,
				"element": "H" 
			},
			{
				"x": 0.5757554563,
				"y": 5.097908664,
				"z": 3.9141443985,
				"element": "H" 
			},
			{
				"x": -0.9957199126,
				"y": 4.5340651452,
				"z": 4.5545745497,
				"element": "H" 
			},
			{
				"x": 1.0471475928,
				"y": 1.1574832416,
				"z": 4.2846621043,
				"element": "H" 
			},
			{
				"x": -0.2901587245,
				"y": 0.9856577946,
				"z": -1.6684129817,
				"element": "H" 
			},
			{
				"x": -1.9240666898,
				"y": 1.5929433856,
				"z": -1.3782886961,
				"element": "H" 
			},
			{
				"x": -2.3262128985,
				"y": -0.3945354012,
				"z": 0.1321879402,
				"element": "H" 
			},
			{
				"x": -3.9269282954,
				"y": -1.0956948408,
				"z": -3.0342593359,
				"element": "H" 
			},
			{
				"x": -2.9753704467,
				"y": 0.4017571846,
				"z": -3.0867332045,
				"element": "H" 
			},
			{
				"x": -3.9753733981,
				"y": 0.0253755684,
				"z": -1.6665289823,
				"element": "H" 
			},
			{
				"x": -0.6303459318,
				"y": -1.2818195848,
				"z": -3.1791289224,
				"element": "H" 
			},
			{
				"x": -2.0166977947,
				"y": -2.338983603,
				"z": -3.4724210103,
				"element": "H" 
			},
			{
				"x": -1.4887260846,
				"y": -3.73345357,
				"z": -1.5563462541,
				"element": "H" 
			},
			{
				"x": -0.0148505191,
				"y": -3.5802626799,
				"z": -2.5177436368,
				"element": "H" 
			},
			{
				"x": 1.4412752712,
				"y": -4.0608224906,
				"z": -0.5730133821,
				"element": "H" 
			},
			{
				"x": 2.7103479471,
				"y": -3.0519974671,
				"z": 1.3088237442,
				"element": "H" 
			},
			{
				"x": 2.0607058244,
				"y": -0.8396271365,
				"z": 2.1932455742,
				"element": "H" 
			},
			{
				"x": -1.543638763,
				"y": 3.5202964441,
				"z": -0.0252475564,
				"element": "H" 
			},
			{
				"x": -0.9192167272,
				"y": 4.4820507016,
				"z": 2.1691186656,
				"element": "H" 
			}
		],
		 "valence_orbital": [ 
			{
				"type": "occ",
				"energy": -0.25986,
				"method": "rhf"
			},
			{
				"type": "occ",
				"energy": -0.22469,
				"method": "rhf"
			},
			{
				"type": "occ",
				"energy": -0.21148,
				"method": "rhf"
			},
			{
				"type": "occ",
				"energy": -0.19964,
				"method": "rhf"
			},
			{
				"type": "occ",
				"energy": -0.19171,
				"method": "rhf"
			},
			{
				"type": "unocc",
				"energy": -0.02058,
				"method": "rhf"
			},
			{
				"type": "unocc",
				"energy": 0.01315,
				"method": "rhf"
			},
			{
				"type": "unocc",
				"energy": 0.02305,
				"method": "rhf"
			},
			{
				"type": "unocc",
				"energy": 0.04388,
				"method": "rhf"
			},
			{
				"type": "unocc",
				"energy": 0.07901,
				"method": "rhf"
			}
		],
		"cosmo_sigma_profile": { 
			"-0.025": 0.0,
			"-0.024": 0.0,
			"-0.023": 0.0,
			"-0.022": 0.0,
			"-0.021": 0.0,
			"-0.02": 0.0,
			"-0.019": 0.0,
			"-0.018": 0.0,
			"-0.017": 0.0,
			"-0.016": 0.0,
			"-0.015": 0.0,
			"-0.014": 0.201142648925,
			"-0.013": 0.370824710349,
			"-0.012": 0.801807666702,
			"-0.011": 0.390816615095,
			"-0.01": 0.397091239452,
			"-0.009": 0.434839865498,
			"-0.008": 0.652791999081,
			"-0.007": 1.86188099382,
			"-0.006": 6.97002142079,
			"-0.005": 17.3464798305,
			"-0.004": 24.3512810636,
			"-0.003": 37.6030443696,
			"-0.002": 34.136338681,
			"-0.001": 34.9207795442,
			"0.0": 31.8262655464,
			"0.001": 17.0242054043,
			"0.002": 17.031908041,
			"0.003": 17.7590149221,
			"0.004": 20.5194878496,
			"0.005": 18.0620246324,
			"0.006": 15.3101191525,
			"0.007": 5.44936193863,
			"0.008": 2.59359187835,
			"0.009": 1.78642395093,
			"0.01": 1.62826744488,
			"0.011": 1.17210820653,
			"0.012": 0.460142074225,
			"0.013": 0.23797920872,
			"0.014": 0.44498742963,
			"0.015": 0.00421990932435,
			"0.016": 0.0,
			"0.017": 0.0,
			"0.018": 0.0,
			"0.019": 0.0,
			"0.02": 0.0,
			"0.021": 0.0,
			"0.022": 0.0,
			"0.023": 0.0,
			"0.024": 0.0,
			"0.025": 0.0
		}
	}
}
