{
	 "smiles": "CC(Cl)C(=O)N1CC(=O)NC2=C1C=CC=C2", 
	 "Tm": 413.15, 
	 "num_atms": 27, 
	 "gaussian": { 
		 "optdone": 1, 
		 "sigma_profile": "yes", 
		 "theory": "DFT", 
		 "functional": "B3LYP", 
		 "basiset": "6-31G**", 
		 "properties": { 
			 "R2extent": 3903.6139, 
			 "electric_dipole_moment_norm": 4.44925608501, 
			 "electric_quadrupole_moment_norm": 16.3902431382, 
			 "total_energy": -1145.96672133, 
			 "HOMO_LUMO_gap": 0.19075, 
			 "cosmo_polarized_energy": -16.54, 
			 "cosmo_cavitation_energy": 31.65, 
			 "cosmo_dispersion_energy": -22.57, 
			 "cosmo_repulsion_energy": 1.76, 
			 "cosmo_total_nonelectrostatic_energy": 10.84, 
			 "SMD_solvation_energy": 6.03 
		},
		"coords": [
			{
				"x": 1.5358785128,
				"y": -2.8878474113,
				"z": -1.6909807665,
				"element": "C" 
			},
			{
				"x": 2.0899181128,
				"y": -2.0669430874,
				"z": -0.5271667321,
				"element": "C" 
			},
			{
				"x": 2.6687211539,
				"y": -0.4298616047,
				"z": -1.0892856482,
				"element": "Cl" 
			},
			{
				"x": 1.2010607692,
				"y": -2.0858548815,
				"z": 0.7334537538,
				"element": "C" 
			},
			{
				"x": 1.3280719911,
				"y": -3.0817649777,
				"z": 1.4364338829,
				"element": "O" 
			},
			{
				"x": 0.3638616822,
				"y": -1.0523044584,
				"z": 1.1115510871,
				"element": "N" 
			},
			{
				"x": -0.0556751938,
				"y": -1.0190422107,
				"z": 2.5188278922,
				"element": "C" 
			},
			{
				"x": 0.3077669073,
				"y": 0.3184337957,
				"z": 3.1619631776,
				"element": "C" 
			},
			{
				"x": 0.5600223357,
				"y": 0.4443668043,
				"z": 4.346178027,
				"element": "O" 
			},
			{
				"x": 0.2937572438,
				"y": 1.3829598415,
				"z": 2.2841885334,
				"element": "N" 
			},
			{
				"x": -0.1484877623,
				"y": 1.2915876744,
				"z": 0.9567390321,
				"element": "C" 
			},
			{
				"x": -0.1265498231,
				"y": 0.0293752891,
				"z": 0.3325019508,
				"element": "C" 
			},
			{
				"x": -0.6571773205,
				"y": -0.1100948484,
				"z": -0.9498696116,
				"element": "C" 
			},
			{
				"x": -1.1122280913,
				"y": 1.0067296282,
				"z": -1.6502649397,
				"element": "C" 
			},
			{
				"x": -1.0764668198,
				"y": 2.2665257919,
				"z": -1.0505941002,
				"element": "C" 
			},
			{
				"x": -0.6138491863,
				"y": 2.4072949712,
				"z": 0.257072373,
				"element": "C" 
			},
			{
				"x": 0.6899595458,
				"y": -2.3995835112,
				"z": -2.1774619642,
				"element": "H" 
			},
			{
				"x": 2.3161237543,
				"y": -3.0423830261,
				"z": -2.4396885047,
				"element": "H" 
			},
			{
				"x": 1.2164101885,
				"y": -3.8627631165,
				"z": -1.3101773466,
				"element": "H" 
			},
			{
				"x": 2.9964370479,
				"y": -2.5509074172,
				"z": -0.16505362,
				"element": "H" 
			},
			{
				"x": -1.1398492221,
				"y": -1.1729851905,
				"z": 2.6059945537,
				"element": "H" 
			},
			{
				"x": 0.4470513624,
				"y": -1.8209768989,
				"z": 3.0545205999,
				"element": "H" 
			},
			{
				"x": 0.4443187894,
				"y": 2.2934697567,
				"z": 2.6997350574,
				"element": "H" 
			},
			{
				"x": -0.715381703,
				"y": -1.0962767797,
				"z": -1.394578573,
				"element": "H" 
			},
			{
				"x": -1.5052412296,
				"y": 0.888242638,
				"z": -2.6546924469,
				"element": "H" 
			},
			{
				"x": -1.4315175985,
				"y": 3.1392208766,
				"z": -1.5895991558,
				"element": "H" 
			},
			{
				"x": -0.6180354468,
				"y": 3.3790823523,
				"z": 0.7431534888,
				"element": "H" 
			}
		],
		 "valence_orbital": [ 
			{
				"type": "occ",
				"energy": -0.30012,
				"method": "rhf"
			},
			{
				"type": "occ",
				"energy": -0.27319,
				"method": "rhf"
			},
			{
				"type": "occ",
				"energy": -0.26332,
				"method": "rhf"
			},
			{
				"type": "occ",
				"energy": -0.24652,
				"method": "rhf"
			},
			{
				"type": "occ",
				"energy": -0.2267,
				"method": "rhf"
			},
			{
				"type": "unocc",
				"energy": -0.03595,
				"method": "rhf"
			},
			{
				"type": "unocc",
				"energy": -0.02157,
				"method": "rhf"
			},
			{
				"type": "unocc",
				"energy": 9e-05,
				"method": "rhf"
			},
			{
				"type": "unocc",
				"energy": 0.02387,
				"method": "rhf"
			},
			{
				"type": "unocc",
				"energy": 0.02998,
				"method": "rhf"
			}
		],
		"cosmo_sigma_profile": { 
			"-0.025": 0.0,
			"-0.024": 0.0,
			"-0.023": 0.0,
			"-0.022": 0.0,
			"-0.021": 0.0,
			"-0.02": 0.0,
			"-0.019": 0.0,
			"-0.018": 0.0,
			"-0.017": 0.0,
			"-0.016": 0.322457839183,
			"-0.015": 0.996010294658,
			"-0.014": 1.67719692361,
			"-0.013": 1.03237759499,
			"-0.012": 0.951162240057,
			"-0.011": 1.22891989512,
			"-0.01": 1.50842366039,
			"-0.009": 1.68906148703,
			"-0.008": 7.29185945296,
			"-0.007": 9.8558641804,
			"-0.006": 13.1683219631,
			"-0.005": 19.7960446723,
			"-0.004": 20.2257919869,
			"-0.003": 17.7426896541,
			"-0.002": 18.4208096078,
			"-0.001": 16.0627981705,
			"0.0": 11.8132765697,
			"0.001": 12.8264771725,
			"0.002": 13.6207724119,
			"0.003": 13.2618005822,
			"0.004": 14.9929641585,
			"0.005": 13.336661125,
			"0.006": 11.7178800464,
			"0.007": 2.46192205681,
			"0.008": 2.29990442042,
			"0.009": 3.4221368496,
			"0.01": 2.70652735567,
			"0.011": 4.95527014663,
			"0.012": 8.96861046475,
			"0.013": 5.10713621655,
			"0.014": 0.320514275259,
			"0.015": 0.0,
			"0.016": 0.0,
			"0.017": 0.0,
			"0.018": 0.0,
			"0.019": 0.0,
			"0.02": 0.0,
			"0.021": 0.0,
			"0.022": 0.0,
			"0.023": 0.0,
			"0.024": 0.0,
			"0.025": 0.0
		}
	}
}
