{
	 "smiles": "CCC1=CC2=C(S1)N=CNC2=O", 
	 "Tm": 457.15, 
	 "num_atms": 20, 
	 "gaussian": { 
		 "optdone": 1, 
		 "sigma_profile": "yes", 
		 "theory": "DFT", 
		 "functional": "B3LYP", 
		 "basiset": "6-31G**", 
		 "properties": { 
			 "R2extent": 2571.8021, 
			 "electric_dipole_moment_norm": 0.965688940601, 
			 "electric_quadrupole_moment_norm": 22.2937697169, 
			 "total_energy": -892.607625671, 
			 "HOMO_LUMO_gap": 0.17339, 
			 "cosmo_polarized_energy": -13.49, 
			 "cosmo_cavitation_energy": 25.73, 
			 "cosmo_dispersion_energy": -19.58, 
			 "cosmo_repulsion_energy": 1.51, 
			 "cosmo_total_nonelectrostatic_energy": 7.67, 
			 "SMD_solvation_energy": 3.36 
		},
		"coords": [
			{
				"x": 2.5703009162,
				"y": -1.9382743745,
				"z": 1.6489888751,
				"element": "C" 
			},
			{
				"x": 2.7324539178,
				"y": -0.8484233649,
				"z": 0.5742834727,
				"element": "C" 
			},
			{
				"x": 1.4334152814,
				"y": -0.282100117,
				"z": 0.0730490254,
				"element": "C" 
			},
			{
				"x": 0.8785637687,
				"y": -0.4186164489,
				"z": -1.1681605647,
				"element": "C" 
			},
			{
				"x": -0.3797049774,
				"y": 0.2431038401,
				"z": -1.2977986157,
				"element": "C" 
			},
			{
				"x": -0.7808799202,
				"y": 0.8908685905,
				"z": -0.1315924719,
				"element": "C" 
			},
			{
				"x": 0.4035720185,
				"y": 0.6811330152,
				"z": 1.135248545,
				"element": "S" 
			},
			{
				"x": -1.9292475152,
				"y": 1.6059631681,
				"z": 0.0516492471,
				"element": "N" 
			},
			{
				"x": -2.6951624235,
				"y": 1.6599747557,
				"z": -0.9969324561,
				"element": "C" 
			},
			{
				"x": -2.406859565,
				"y": 1.0647521095,
				"z": -2.1931217558,
				"element": "N" 
			},
			{
				"x": -1.2386743844,
				"y": 0.3069699431,
				"z": -2.4653834162,
				"element": "C" 
			},
			{
				"x": -1.0606596411,
				"y": -0.1914305141,
				"z": -3.5674464299,
				"element": "O" 
			},
			{
				"x": 1.9755508199,
				"y": -2.7745795816,
				"z": 1.2696470981,
				"element": "H" 
			},
			{
				"x": 2.0685177484,
				"y": -1.5477109899,
				"z": 2.5399249932,
				"element": "H" 
			},
			{
				"x": 3.5480964319,
				"y": -2.322993179,
				"z": 1.9555464409,
				"element": "H" 
			},
			{
				"x": 3.3632466126,
				"y": -0.0412132973,
				"z": 0.9687550361,
				"element": "H" 
			},
			{
				"x": 3.2650934332,
				"y": -1.260434483,
				"z": -0.2902302533,
				"element": "H" 
			},
			{
				"x": 1.3438105163,
				"y": -0.9697490076,
				"z": -1.9769958757,
				"element": "H" 
			},
			{
				"x": -3.6333786722,
				"y": 2.2072306334,
				"z": -0.9501479008,
				"element": "H" 
			},
			{
				"x": -3.0516543657,
				"y": 1.1487293021,
				"z": -2.9700829934,
				"element": "H" 
			}
		],
		 "valence_orbital": [ 
			{
				"type": "occ",
				"energy": -0.29179,
				"method": "rhf"
			},
			{
				"type": "occ",
				"energy": -0.2901,
				"method": "rhf"
			},
			{
				"type": "occ",
				"energy": -0.26321,
				"method": "rhf"
			},
			{
				"type": "occ",
				"energy": -0.25992,
				"method": "rhf"
			},
			{
				"type": "occ",
				"energy": -0.21985,
				"method": "rhf"
			},
			{
				"type": "unocc",
				"energy": -0.04646,
				"method": "rhf"
			},
			{
				"type": "unocc",
				"energy": -0.00814,
				"method": "rhf"
			},
			{
				"type": "unocc",
				"energy": 0.01796,
				"method": "rhf"
			},
			{
				"type": "unocc",
				"energy": 0.02552,
				"method": "rhf"
			},
			{
				"type": "unocc",
				"energy": 0.07233,
				"method": "rhf"
			}
		],
		"cosmo_sigma_profile": { 
			"-0.025": 0.0,
			"-0.024": 0.0,
			"-0.023": 0.0,
			"-0.022": 0.0,
			"-0.021": 0.0,
			"-0.02": 0.0,
			"-0.019": 0.0,
			"-0.018": 0.0,
			"-0.017": 0.977873313694,
			"-0.016": 1.63536569878,
			"-0.015": 1.34391963417,
			"-0.014": 1.15011525981,
			"-0.013": 1.37661932417,
			"-0.012": 0.815231021108,
			"-0.011": 1.77633920901,
			"-0.01": 3.07369845901,
			"-0.009": 2.66965441355,
			"-0.008": 1.85698076994,
			"-0.007": 2.64111518762,
			"-0.006": 3.74248994151,
			"-0.005": 7.65274220634,
			"-0.004": 12.522029346,
			"-0.003": 17.6609297319,
			"-0.002": 20.1445386805,
			"-0.001": 18.3240678807,
			"0.0": 18.5672674126,
			"0.001": 20.1079829167,
			"0.002": 17.7623688317,
			"0.003": 13.0937073022,
			"0.004": 7.76156842116,
			"0.005": 2.82668886,
			"0.006": 2.46253758991,
			"0.007": 3.6966038547,
			"0.008": 1.85077490219,
			"0.009": 1.56725769037,
			"0.01": 2.39509015431,
			"0.011": 2.88421101288,
			"0.012": 3.53399262961,
			"0.013": 6.89244966988,
			"0.014": 2.51420304817,
			"0.015": 0.124049046765,
			"0.016": 0.0,
			"0.017": 0.0,
			"0.018": 0.0,
			"0.019": 0.0,
			"0.02": 0.0,
			"0.021": 0.0,
			"0.022": 0.0,
			"0.023": 0.0,
			"0.024": 0.0,
			"0.025": 0.0
		}
	}
}
