{
	 "smiles": "ClC1=NC=CC=C1C#N", 
	 "Tm": 381.15, 
	 "num_atms": 12, 
	 "gaussian": { 
		 "optdone": 1, 
		 "sigma_profile": "yes", 
		 "theory": "DFT", 
		 "functional": "B3LYP", 
		 "basiset": "6-31G**", 
		 "properties": { 
			 "R2extent": 1660.6431, 
			 "electric_dipole_moment_norm": 4.87807033672, 
			 "electric_quadrupole_moment_norm": 8.16908312603, 
			 "total_energy": -800.112616922, 
			 "HOMO_LUMO_gap": 0.20067, 
			 "cosmo_polarized_energy": -10.61, 
			 "cosmo_cavitation_energy": 19.65, 
			 "cosmo_dispersion_energy": -14.23, 
			 "cosmo_repulsion_energy": 1.17, 
			 "cosmo_total_nonelectrostatic_energy": 6.59, 
			 "SMD_solvation_energy": 3.22 
		},
		"coords": [
			{
				"x": 1.0978285906,
				"y": 0.6383642291,
				"z": 2.6153762465,
				"element": "Cl" 
			},
			{
				"x": -0.3157860155,
				"y": 0.7476635638,
				"z": 1.5920167472,
				"element": "C" 
			},
			{
				"x": -1.4850799982,
				"y": 0.8036561472,
				"z": 2.1980373584,
				"element": "N" 
			},
			{
				"x": -2.5872621505,
				"y": 0.8879094585,
				"z": 1.440423753,
				"element": "C" 
			},
			{
				"x": -2.5583620276,
				"y": 0.919202888,
				"z": 0.046926082,
				"element": "C" 
			},
			{
				"x": -1.3217009152,
				"y": 0.8597692006,
				"z": -0.5868530206,
				"element": "C" 
			},
			{
				"x": -0.1557273753,
				"y": 0.7712171022,
				"z": 0.1887146056,
				"element": "C" 
			},
			{
				"x": 1.1263021632,
				"y": 0.7089241103,
				"z": -0.4417594009,
				"element": "C" 
			},
			{
				"x": 2.1490070016,
				"y": 0.6603586327,
				"z": -0.992898981,
				"element": "N" 
			},
			{
				"x": -3.5301501572,
				"y": 0.9318485396,
				"z": 1.9801990533,
				"element": "H" 
			},
			{
				"x": -3.4777761132,
				"y": 0.9880608262,
				"z": -0.5236693269,
				"element": "H" 
			},
			{
				"x": -1.2394930028,
				"y": 0.8804253018,
				"z": -1.6684131167,
				"element": "H" 
			}
		],
		 "valence_orbital": [ 
			{
				"type": "occ",
				"energy": -0.35236,
				"method": "rhf"
			},
			{
				"type": "occ",
				"energy": -0.32969,
				"method": "rhf"
			},
			{
				"type": "occ",
				"energy": -0.3138,
				"method": "rhf"
			},
			{
				"type": "occ",
				"energy": -0.29717,
				"method": "rhf"
			},
			{
				"type": "occ",
				"energy": -0.27992,
				"method": "rhf"
			},
			{
				"type": "unocc",
				"energy": -0.07925,
				"method": "rhf"
			},
			{
				"type": "unocc",
				"energy": -0.05616,
				"method": "rhf"
			},
			{
				"type": "unocc",
				"energy": 0.00947,
				"method": "rhf"
			},
			{
				"type": "unocc",
				"energy": 0.02761,
				"method": "rhf"
			},
			{
				"type": "unocc",
				"energy": 0.05197,
				"method": "rhf"
			}
		],
		"cosmo_sigma_profile": { 
			"-0.025": 0.0,
			"-0.024": 0.0,
			"-0.023": 0.0,
			"-0.022": 0.0,
			"-0.021": 0.0,
			"-0.02": 0.0,
			"-0.019": 0.0,
			"-0.018": 0.0,
			"-0.017": 0.0,
			"-0.016": 0.0,
			"-0.015": 0.0,
			"-0.014": 0.0,
			"-0.013": 0.0,
			"-0.012": 0.0,
			"-0.011": 0.0958102911586,
			"-0.01": 1.83895620984,
			"-0.009": 4.8070082886,
			"-0.008": 9.23720827579,
			"-0.007": 6.12238734799,
			"-0.006": 5.21979062133,
			"-0.005": 5.67202770515,
			"-0.004": 10.393694908,
			"-0.003": 14.3888036081,
			"-0.002": 12.9868522325,
			"-0.001": 13.5427930919,
			"0.0": 9.87219810334,
			"0.001": 7.22774924517,
			"0.002": 9.02086757396,
			"0.003": 12.2792632328,
			"0.004": 6.77224697501,
			"0.005": 5.49836237371,
			"0.006": 3.56969157604,
			"0.007": 4.75347523139,
			"0.008": 4.53073228713,
			"0.009": 4.50360731958,
			"0.01": 3.17067995344,
			"0.011": 3.74892765934,
			"0.012": 2.53725634839,
			"0.013": 0.738515711816,
			"0.014": 0.0407283844954,
			"0.015": 0.0,
			"0.016": 0.0,
			"0.017": 0.0,
			"0.018": 0.0,
			"0.019": 0.0,
			"0.02": 0.0,
			"0.021": 0.0,
			"0.022": 0.0,
			"0.023": 0.0,
			"0.024": 0.0,
			"0.025": 0.0
		}
	}
}
