{
	 "smiles": "CC(C)C(CCC(C)CC(O)=O)=N/O", 
	 "Tm": 459.15, 
	 "num_atms": 33, 
	 "gaussian": { 
		 "optdone": 1, 
		 "sigma_profile": "yes", 
		 "theory": "DFT", 
		 "functional": "B3LYP", 
		 "basiset": "6-31G**", 
		 "properties": { 
			 "R2extent": 5405.9452, 
			 "electric_dipole_moment_norm": 4.00394294914, 
			 "electric_quadrupole_moment_norm": 26.3663091621, 
			 "total_energy": -672.907613937, 
			 "HOMO_LUMO_gap": 0.25122, 
			 "cosmo_polarized_energy": -19.33, 
			 "cosmo_cavitation_energy": 35.1, 
			 "cosmo_dispersion_energy": -24.02, 
			 "cosmo_repulsion_energy": 1.95, 
			 "cosmo_total_nonelectrostatic_energy": 13.03, 
			 "SMD_solvation_energy": 6.93 
		},
		"coords": [
			{
				"x": -3.7829466965,
				"y": -0.2381215319,
				"z": -0.3210503312,
				"element": "C" 
			},
			{
				"x": -2.343405196,
				"y": 0.0697700268,
				"z": 0.139873119,
				"element": "C" 
			},
			{
				"x": -2.2664814909,
				"y": 1.380523901,
				"z": 0.9478479128,
				"element": "C" 
			},
			{
				"x": -1.7244314046,
				"y": -1.1144240279,
				"z": 0.8751800109,
				"element": "C" 
			},
			{
				"x": -0.5312587139,
				"y": -1.8054997378,
				"z": 0.2497279778,
				"element": "C" 
			},
			{
				"x": 0.7505886989,
				"y": -0.9487334726,
				"z": 0.2830967877,
				"element": "C" 
			},
			{
				"x": 1.9948166424,
				"y": -1.623684362,
				"z": -0.3299018267,
				"element": "C" 
			},
			{
				"x": 3.2691665933,
				"y": -0.851788907,
				"z": 0.0441093395,
				"element": "C" 
			},
			{
				"x": 1.8731612994,
				"y": -1.7675111011,
				"z": -1.8564057681,
				"element": "C" 
			},
			{
				"x": 2.9048019974,
				"y": -2.7076917293,
				"z": -2.4716385611,
				"element": "C" 
			},
			{
				"x": 2.953997927,
				"y": -2.7011342474,
				"z": -3.8329007718,
				"element": "O" 
			},
			{
				"x": 3.6290464487,
				"y": -3.4445710873,
				"z": -1.8506535355,
				"element": "O" 
			},
			{
				"x": -2.105935012,
				"y": -1.6240370188,
				"z": 1.989247543,
				"element": "N" 
			},
			{
				"x": -3.2193920643,
				"y": -0.9591049101,
				"z": 2.5525425274,
				"element": "O" 
			},
			{
				"x": -4.4409396367,
				"y": -0.392846099,
				"z": 0.5356782287,
				"element": "H" 
			},
			{
				"x": -4.1717579966,
				"y": 0.5960273234,
				"z": -0.9152485666,
				"element": "H" 
			},
			{
				"x": -3.8160446166,
				"y": -1.1381866796,
				"z": -0.9441560682,
				"element": "H" 
			},
			{
				"x": -1.7392699361,
				"y": 0.2131692133,
				"z": -0.7657635172,
				"element": "H" 
			},
			{
				"x": -2.6541075576,
				"y": 2.2110636571,
				"z": 0.3476592716,
				"element": "H" 
			},
			{
				"x": -2.8528986901,
				"y": 1.3097299888,
				"z": 1.8651063731,
				"element": "H" 
			},
			{
				"x": -1.2331991447,
				"y": 1.6177962794,
				"z": 1.2214708635,
				"element": "H" 
			},
			{
				"x": -0.7904789281,
				"y": -2.0636985286,
				"z": -0.7868314252,
				"element": "H" 
			},
			{
				"x": -0.3550569251,
				"y": -2.7436355337,
				"z": 0.784813321,
				"element": "H" 
			},
			{
				"x": 0.5778107325,
				"y": 0.0149981744,
				"z": -0.2170266986,
				"element": "H" 
			},
			{
				"x": 0.9684510849,
				"y": -0.7119201227,
				"z": 1.3314562287,
				"element": "H" 
			},
			{
				"x": 2.0811416347,
				"y": -2.6369687051,
				"z": 0.0820599745,
				"element": "H" 
			},
			{
				"x": 3.3858077187,
				"y": -0.7990403907,
				"z": 1.1313050313,
				"element": "H" 
			},
			{
				"x": 4.1570768686,
				"y": -1.3397509567,
				"z": -0.3650076481,
				"element": "H" 
			},
			{
				"x": 3.2318306621,
				"y": 0.1771862328,
				"z": -0.3358327504,
				"element": "H" 
			},
			{
				"x": 0.8866919506,
				"y": -2.1610981319,
				"z": -2.1375771402,
				"element": "H" 
			},
			{
				"x": 1.9552135796,
				"y": -0.7811631668,
				"z": -2.3366964021,
				"element": "H" 
			},
			{
				"x": 2.3210875497,
				"y": -2.0601350973,
				"z": -4.1865753772,
				"element": "H" 
			},
			{
				"x": -3.3661873788,
				"y": -1.4715192517,
				"z": 3.3579918782,
				"element": "H" 
			}
		],
		 "valence_orbital": [ 
			{
				"type": "occ",
				"energy": -0.32247,
				"method": "rhf"
			},
			{
				"type": "occ",
				"energy": -0.31554,
				"method": "rhf"
			},
			{
				"type": "occ",
				"energy": -0.27279,
				"method": "rhf"
			},
			{
				"type": "occ",
				"energy": -0.26191,
				"method": "rhf"
			},
			{
				"type": "occ",
				"energy": -0.2453,
				"method": "rhf"
			},
			{
				"type": "unocc",
				"energy": 0.00592,
				"method": "rhf"
			},
			{
				"type": "unocc",
				"energy": 0.01002,
				"method": "rhf"
			},
			{
				"type": "unocc",
				"energy": 0.05277,
				"method": "rhf"
			},
			{
				"type": "unocc",
				"energy": 0.0714,
				"method": "rhf"
			},
			{
				"type": "unocc",
				"energy": 0.07376,
				"method": "rhf"
			}
		],
		"cosmo_sigma_profile": { 
			"-0.025": 0.0,
			"-0.024": 0.0,
			"-0.023": 0.0,
			"-0.022": 0.0,
			"-0.021": 0.0,
			"-0.02": 0.0,
			"-0.019": 0.260356413671,
			"-0.018": 1.09507569539,
			"-0.017": 1.51691449059,
			"-0.016": 1.99350630041,
			"-0.015": 1.73066748882,
			"-0.014": 2.11713311803,
			"-0.013": 1.67060236429,
			"-0.012": 2.21516763659,
			"-0.011": 1.50337485666,
			"-0.01": 1.789095673,
			"-0.009": 1.81140461708,
			"-0.008": 2.19583226818,
			"-0.007": 4.46136939606,
			"-0.006": 5.46034417195,
			"-0.005": 6.32071767633,
			"-0.004": 11.4190772643,
			"-0.003": 28.4465296911,
			"-0.002": 32.4950597017,
			"-0.001": 30.8540881213,
			"0.0": 23.7830436264,
			"0.001": 26.2121182824,
			"0.002": 15.7751165201,
			"0.003": 5.23319599947,
			"0.004": 6.33047863009,
			"0.005": 5.94561159018,
			"0.006": 7.54660615961,
			"0.007": 9.61279927733,
			"0.008": 5.84360405568,
			"0.009": 4.15105684755,
			"0.01": 4.5654984126,
			"0.011": 7.01936630609,
			"0.012": 6.36140709367,
			"0.013": 2.84591624219,
			"0.014": 0.959493905546,
			"0.015": 0.0911638667023,
			"0.016": 0.0,
			"0.017": 0.0,
			"0.018": 0.0,
			"0.019": 0.0,
			"0.02": 0.0,
			"0.021": 0.0,
			"0.022": 0.0,
			"0.023": 0.0,
			"0.024": 0.0,
			"0.025": 0.0
		}
	}
}
