{
	 "smiles": "CCONC(CC)=C1C(=O)CC(CC1=O)C1=C(C)C=C(C)C=C1C", 
	 "Tm": 383.15, 
	 "num_atms": 51, 
	 "gaussian": { 
		 "optdone": 1, 
		 "sigma_profile": "yes", 
		 "theory": "DFT", 
		 "functional": "B3LYP", 
		 "basiset": "6-31G**", 
		 "properties": { 
			 "R2extent": 10364.6362, 
			 "electric_dipole_moment_norm": 2.42472347908, 
			 "electric_quadrupole_moment_norm": 24.2403245067, 
			 "total_energy": -1058.79196206, 
			 "HOMO_LUMO_gap": 0.17597, 
			 "cosmo_polarized_energy": -13.72, 
			 "cosmo_cavitation_energy": 49.8, 
			 "cosmo_dispersion_energy": -33.9, 
			 "cosmo_repulsion_energy": 2.6, 
			 "cosmo_total_nonelectrostatic_energy": 18.49, 
			 "SMD_solvation_energy": 9.42 
		},
		"coords": [
			{
				"x": -1.4291653393,
				"y": 5.4909928121,
				"z": -0.5117764859,
				"element": "C" 
			},
			{
				"x": -1.4239570263,
				"y": 5.025456514,
				"z": 0.9373080179,
				"element": "C" 
			},
			{
				"x": -2.4276299277,
				"y": 4.0209548673,
				"z": 1.2156818035,
				"element": "O" 
			},
			{
				"x": -2.1350047586,
				"y": 2.8341928205,
				"z": 0.5569770736,
				"element": "N" 
			},
			{
				"x": -1.9448897296,
				"y": 1.7022623173,
				"z": 1.2287435718,
				"element": "C" 
			},
			{
				"x": -1.863031418,
				"y": 1.7942986954,
				"z": 2.7325906685,
				"element": "C" 
			},
			{
				"x": -3.2148986819,
				"y": 1.4785569381,
				"z": 3.401981311,
				"element": "C" 
			},
			{
				"x": -1.8577248675,
				"y": 0.4908617623,
				"z": 0.4725077743,
				"element": "C" 
			},
			{
				"x": -1.6265389809,
				"y": -0.8013965287,
				"z": 1.1368969875,
				"element": "C" 
			},
			{
				"x": -1.422932523,
				"y": -0.9376450302,
				"z": 2.344673523,
				"element": "O" 
			},
			{
				"x": -1.7376629449,
				"y": -2.0713949367,
				"z": 0.2953257626,
				"element": "C" 
			},
			{
				"x": -1.2855602693,
				"y": -1.9918868217,
				"z": -1.1813545903,
				"element": "C" 
			},
			{
				"x": -1.8959219482,
				"y": -0.7243258635,
				"z": -1.810212532,
				"element": "C" 
			},
			{
				"x": -1.9698750955,
				"y": 0.5446308851,
				"z": -0.9733882917,
				"element": "C" 
			},
			{
				"x": -2.1637669774,
				"y": 1.6061372145,
				"z": -1.6135140275,
				"element": "O" 
			},
			{
				"x": 0.2066757367,
				"y": -2.3052237571,
				"z": -1.3939014776,
				"element": "C" 
			},
			{
				"x": 0.5374857464,
				"y": -3.6822330587,
				"z": -1.5252015147,
				"element": "C" 
			},
			{
				"x": -0.5074398488,
				"y": -4.7813941727,
				"z": -1.4699697159,
				"element": "C" 
			},
			{
				"x": 1.8634597286,
				"y": -4.0771273266,
				"z": -1.7196799863,
				"element": "C" 
			},
			{
				"x": 2.9060706522,
				"y": -3.1536990832,
				"z": -1.8006335008,
				"element": "C" 
			},
			{
				"x": 4.329071894,
				"y": -3.5962659865,
				"z": -2.0451513525,
				"element": "C" 
			},
			{
				"x": 2.5746771454,
				"y": -1.8084255289,
				"z": -1.6643913602,
				"element": "C" 
			},
			{
				"x": 1.2597331166,
				"y": -1.3620506834,
				"z": -1.4598562852,
				"element": "C" 
			},
			{
				"x": 1.0854413653,
				"y": 0.135070551,
				"z": -1.3028306932,
				"element": "C" 
			},
			{
				"x": -1.1482842868,
				"y": 4.6846901442,
				"z": -1.1959960939,
				"element": "H" 
			},
			{
				"x": -2.417973644,
				"y": 5.8629137315,
				"z": -0.7955435725,
				"element": "H" 
			},
			{
				"x": -0.705573267,
				"y": 6.3025354516,
				"z": -0.6406105513,
				"element": "H" 
			},
			{
				"x": -1.6982893176,
				"y": 5.83866151,
				"z": 1.6151587488,
				"element": "H" 
			},
			{
				"x": -0.4400016098,
				"y": 4.6397390873,
				"z": 1.2318592434,
				"element": "H" 
			},
			{
				"x": -2.2888925254,
				"y": 2.7506445626,
				"z": -0.4708035149,
				"element": "H" 
			},
			{
				"x": -1.5568444288,
				"y": 2.8078451452,
				"z": 2.997076382,
				"element": "H" 
			},
			{
				"x": -1.122640145,
				"y": 1.0770943124,
				"z": 3.0802740359,
				"element": "H" 
			},
			{
				"x": -3.1214163422,
				"y": 1.5912773039,
				"z": 4.4861542021,
				"element": "H" 
			},
			{
				"x": -3.5141711621,
				"y": 0.4490740565,
				"z": 3.1952972128,
				"element": "H" 
			},
			{
				"x": -3.9989955365,
				"y": 2.1581683916,
				"z": 3.0550380571,
				"element": "H" 
			},
			{
				"x": -1.2104469063,
				"y": -2.8535381781,
				"z": 0.8453020721,
				"element": "H" 
			},
			{
				"x": -2.8060831437,
				"y": -2.3364044824,
				"z": 0.3153296136,
				"element": "H" 
			},
			{
				"x": -1.8004948207,
				"y": -2.8112569661,
				"z": -1.6864973406,
				"element": "H" 
			},
			{
				"x": -2.9443922693,
				"y": -0.94999994,
				"z": -2.0547488997,
				"element": "H" 
			},
			{
				"x": -1.4289252251,
				"y": -0.4616458792,
				"z": -2.7624259031,
				"element": "H" 
			},
			{
				"x": -1.1057380936,
				"y": -4.7533305386,
				"z": -0.5533578238,
				"element": "H" 
			},
			{
				"x": -0.0262130947,
				"y": -5.7617504955,
				"z": -1.5141987412,
				"element": "H" 
			},
			{
				"x": -1.208892339,
				"y": -4.7289907715,
				"z": -2.3123481136,
				"element": "H" 
			},
			{
				"x": 2.0846470843,
				"y": -5.1383706359,
				"z": -1.8129189567,
				"element": "H" 
			},
			{
				"x": 5.0446413465,
				"y": -2.8239005382,
				"z": -1.7482062083,
				"element": "H" 
			},
			{
				"x": 4.5023739518,
				"y": -3.8124976358,
				"z": -3.1069799254,
				"element": "H" 
			},
			{
				"x": 4.5660110023,
				"y": -4.5089234085,
				"z": -1.4884829349,
				"element": "H" 
			},
			{
				"x": 3.3677814634,
				"y": -1.065282718,
				"z": -1.7112217111,
				"element": "H" 
			},
			{
				"x": 0.4540573264,
				"y": 0.5781245366,
				"z": -2.0777406691,
				"element": "H" 
			},
			{
				"x": 0.6459207633,
				"y": 0.3973144601,
				"z": -0.3373790191,
				"element": "H" 
			},
			{
				"x": 2.0587201714,
				"y": 0.6293628946,
				"z": -1.3621542682,
				"element": "H" 
			}
		],
		 "valence_orbital": [ 
			{
				"type": "occ",
				"energy": -0.24498,
				"method": "rhf"
			},
			{
				"type": "occ",
				"energy": -0.22896,
				"method": "rhf"
			},
			{
				"type": "occ",
				"energy": -0.22815,
				"method": "rhf"
			},
			{
				"type": "occ",
				"energy": -0.22109,
				"method": "rhf"
			},
			{
				"type": "occ",
				"energy": -0.21779,
				"method": "rhf"
			},
			{
				"type": "unocc",
				"energy": -0.04182,
				"method": "rhf"
			},
			{
				"type": "unocc",
				"energy": -0.01037,
				"method": "rhf"
			},
			{
				"type": "unocc",
				"energy": 0.00691,
				"method": "rhf"
			},
			{
				"type": "unocc",
				"energy": 0.01285,
				"method": "rhf"
			},
			{
				"type": "unocc",
				"energy": 0.06815,
				"method": "rhf"
			}
		],
		"cosmo_sigma_profile": { 
			"-0.025": 0.0,
			"-0.024": 0.0,
			"-0.023": 0.0,
			"-0.022": 0.0,
			"-0.021": 0.0,
			"-0.02": 0.0,
			"-0.019": 0.0,
			"-0.018": 0.0,
			"-0.017": 0.0,
			"-0.016": 0.0,
			"-0.015": 0.0,
			"-0.014": 0.0,
			"-0.013": 0.0,
			"-0.012": 0.0,
			"-0.011": 0.0,
			"-0.01": 0.0,
			"-0.009": 0.0,
			"-0.008": 0.0,
			"-0.007": 0.421170561654,
			"-0.006": 5.70921094418,
			"-0.005": 20.4966072474,
			"-0.004": 41.4762269284,
			"-0.003": 49.4496004329,
			"-0.002": 48.2223101071,
			"-0.001": 49.0888478911,
			"0.0": 48.99510416,
			"0.001": 32.0436993316,
			"0.002": 16.3147483338,
			"0.003": 12.553384876,
			"0.004": 11.1698338293,
			"0.005": 9.72316648816,
			"0.006": 9.6194123405,
			"0.007": 10.0802577011,
			"0.008": 4.54955998064,
			"0.009": 3.61647194419,
			"0.01": 3.04089596449,
			"0.011": 2.62400602328,
			"0.012": 2.65618411634,
			"0.013": 4.06968940011,
			"0.014": 3.12643176999,
			"0.015": 0.905689268688,
			"0.016": 0.0,
			"0.017": 0.0,
			"0.018": 0.0,
			"0.019": 0.0,
			"0.02": 0.0,
			"0.021": 0.0,
			"0.022": 0.0,
			"0.023": 0.0,
			"0.024": 0.0,
			"0.025": 0.0
		}
	}
}
