{
	 "smiles": "CC(OC1=C(Cl)C=CC(C)=C1)C(O)=O", 
	 "Tm": 411.15, 
	 "num_atms": 25, 
	 "gaussian": { 
		 "optdone": 1, 
		 "sigma_profile": "yes", 
		 "theory": "DFT", 
		 "functional": "B3LYP", 
		 "basiset": "6-31G**", 
		 "properties": { 
			 "R2extent": 3439.8562, 
			 "electric_dipole_moment_norm": 1.96573271326, 
			 "electric_quadrupole_moment_norm": 11.4692579141, 
			 "total_energy": -1073.56800645, 
			 "HOMO_LUMO_gap": 0.22501, 
			 "cosmo_polarized_energy": -10.94, 
			 "cosmo_cavitation_energy": 30.85, 
			 "cosmo_dispersion_energy": -21.77, 
			 "cosmo_repulsion_energy": 1.74, 
			 "cosmo_total_nonelectrostatic_energy": 10.83, 
			 "SMD_solvation_energy": 6.44 
		},
		"coords": [
			{
				"x": -1.6118340437,
				"y": -2.5496841182,
				"z": 0.9736645929,
				"element": "C" 
			},
			{
				"x": -0.4106780908,
				"y": -1.6273335831,
				"z": 0.763049397,
				"element": "C" 
			},
			{
				"x": -0.8455907604,
				"y": -0.5444617182,
				"z": -0.0523437511,
				"element": "O" 
			},
			{
				"x": -0.107678208,
				"y": 0.6171415598,
				"z": -0.0061937319,
				"element": "C" 
			},
			{
				"x": -0.2703341679,
				"y": 1.5461555787,
				"z": 1.0329795689,
				"element": "C" 
			},
			{
				"x": -1.3861875526,
				"y": 1.2155281721,
				"z": 2.3499317911,
				"element": "Cl" 
			},
			{
				"x": 0.4376627848,
				"y": 2.7458905885,
				"z": 1.0188555939,
				"element": "C" 
			},
			{
				"x": 1.305401649,
				"y": 3.0260577133,
				"z": -0.0359752738,
				"element": "C" 
			},
			{
				"x": 1.4764748586,
				"y": 2.1209095845,
				"z": -1.0908233265,
				"element": "C" 
			},
			{
				"x": 2.3900913245,
				"y": 2.4365181892,
				"z": -2.2516414848,
				"element": "C" 
			},
			{
				"x": 0.7631355976,
				"y": 0.9173884391,
				"z": -1.0553199493,
				"element": "C" 
			},
			{
				"x": 0.740613068,
				"y": -2.3814443327,
				"z": 0.0920632438,
				"element": "C" 
			},
			{
				"x": 1.2917249251,
				"y": -3.2654364724,
				"z": 0.9586041366,
				"element": "O" 
			},
			{
				"x": 1.1212570671,
				"y": -2.2516190189,
				"z": -1.0478185135,
				"element": "O" 
			},
			{
				"x": -2.404308333,
				"y": -1.9949060873,
				"z": 1.4803210727,
				"element": "H" 
			},
			{
				"x": -1.9900305717,
				"y": -2.8968773687,
				"z": 0.0080343697,
				"element": "H" 
			},
			{
				"x": -1.3300588647,
				"y": -3.4135794159,
				"z": 1.579675296,
				"element": "H" 
			},
			{
				"x": -0.050273504,
				"y": -1.2630783551,
				"z": 1.7328653704,
				"element": "H" 
			},
			{
				"x": 0.3027601376,
				"y": 3.4539548069,
				"z": 1.8293364032,
				"element": "H" 
			},
			{
				"x": 1.8521674002,
				"y": 3.9650689388,
				"z": -0.0363348703,
				"element": "H" 
			},
			{
				"x": 3.1394770463,
				"y": 3.1849584765,
				"z": -1.9784461451,
				"element": "H" 
			},
			{
				"x": 2.9136771757,
				"y": 1.5419604837,
				"z": -2.6020568946,
				"element": "H" 
			},
			{
				"x": 1.8235007769,
				"y": 2.8343738882,
				"z": -3.1026235528,
				"element": "H" 
			},
			{
				"x": 0.8728722812,
				"y": 0.172386873,
				"z": -1.8357811394,
				"element": "H" 
			},
			{
				"x": 1.992358004,
				"y": -3.7286728216,
				"z": 0.4690777968,
				"element": "H" 
			}
		],
		 "valence_orbital": [ 
			{
				"type": "occ",
				"energy": -0.31023,
				"method": "rhf"
			},
			{
				"type": "occ",
				"energy": -0.29598,
				"method": "rhf"
			},
			{
				"type": "occ",
				"energy": -0.27673,
				"method": "rhf"
			},
			{
				"type": "occ",
				"energy": -0.2488,
				"method": "rhf"
			},
			{
				"type": "occ",
				"energy": -0.23446,
				"method": "rhf"
			},
			{
				"type": "unocc",
				"energy": -0.00945,
				"method": "rhf"
			},
			{
				"type": "unocc",
				"energy": -0.00525,
				"method": "rhf"
			},
			{
				"type": "unocc",
				"energy": -0.00017,
				"method": "rhf"
			},
			{
				"type": "unocc",
				"energy": 0.0304,
				"method": "rhf"
			},
			{
				"type": "unocc",
				"energy": 0.06978,
				"method": "rhf"
			}
		],
		"cosmo_sigma_profile": { 
			"-0.025": 0.0,
			"-0.024": 0.0,
			"-0.023": 0.0,
			"-0.022": 0.0,
			"-0.021": 0.0,
			"-0.02": 0.0,
			"-0.019": 0.178794267823,
			"-0.018": 0.922571415253,
			"-0.017": 1.04047249028,
			"-0.016": 1.02695050853,
			"-0.015": 0.511485329312,
			"-0.014": 0.383226665487,
			"-0.013": 0.789863038921,
			"-0.012": 0.778386952384,
			"-0.011": 0.972389443755,
			"-0.01": 0.601450810415,
			"-0.009": 0.644496453255,
			"-0.008": 0.642497867166,
			"-0.007": 3.65291159303,
			"-0.006": 6.84177472424,
			"-0.005": 14.0063443369,
			"-0.004": 21.0162791202,
			"-0.003": 18.4215748213,
			"-0.002": 21.4333402341,
			"-0.001": 25.0018172627,
			"0.0": 21.2610589077,
			"0.001": 15.2439219138,
			"0.002": 17.9540317707,
			"0.003": 18.2269000799,
			"0.004": 18.5397413379,
			"0.005": 10.1825099996,
			"0.006": 4.54103776669,
			"0.007": 3.70171820532,
			"0.008": 4.37945258293,
			"0.009": 4.22954583496,
			"0.01": 4.32452192875,
			"0.011": 4.24308361585,
			"0.012": 0.762646513879,
			"0.013": 0.0,
			"0.014": 0.0,
			"0.015": 0.0,
			"0.016": 0.0,
			"0.017": 0.0,
			"0.018": 0.0,
			"0.019": 0.0,
			"0.02": 0.0,
			"0.021": 0.0,
			"0.022": 0.0,
			"0.023": 0.0,
			"0.024": 0.0,
			"0.025": 0.0
		}
	}
}
