{
	 "smiles": "CC1=C(CCl)N=C2C=CC=CC2=N1", 
	 "Tm": 395.15, 
	 "num_atms": 22, 
	 "gaussian": { 
		 "optdone": 1, 
		 "sigma_profile": "yes", 
		 "theory": "DFT", 
		 "functional": "B3LYP", 
		 "basiset": "6-31G**", 
		 "properties": { 
			 "R2extent": 3833.2609, 
			 "electric_dipole_moment_norm": 2.16325178609, 
			 "electric_quadrupole_moment_norm": 13.6233537571, 
			 "total_energy": -956.198014755, 
			 "HOMO_LUMO_gap": 0.17309, 
			 "cosmo_polarized_energy": -8.36, 
			 "cosmo_cavitation_energy": 27.47, 
			 "cosmo_dispersion_energy": -20.45, 
			 "cosmo_repulsion_energy": 1.61, 
			 "cosmo_total_nonelectrostatic_energy": 8.63, 
			 "SMD_solvation_energy": 1.35 
		},
		"coords": [
			{
				"x": 1.6795340543,
				"y": 1.0631643842,
				"z": -2.8928578211,
				"element": "C" 
			},
			{
				"x": 1.3275198737,
				"y": 0.8573796018,
				"z": -1.4427927089,
				"element": "C" 
			},
			{
				"x": 2.1401015433,
				"y": 1.4014277074,
				"z": -0.383276912,
				"element": "C" 
			},
			{
				"x": 3.3846740953,
				"y": 2.1967186308,
				"z": -0.6655064771,
				"element": "C" 
			},
			{
				"x": 4.7953801544,
				"y": 1.1212067336,
				"z": -1.1219476663,
				"element": "Cl" 
			},
			{
				"x": 1.8342064088,
				"y": 1.2447731428,
				"z": 0.8880634672,
				"element": "N" 
			},
			{
				"x": 0.7112736531,
				"y": 0.5314126694,
				"z": 1.1827229753,
				"element": "C" 
			},
			{
				"x": 0.338112356,
				"y": 0.3314774162,
				"z": 2.5358164328,
				"element": "C" 
			},
			{
				"x": -0.7953077235,
				"y": -0.3930429466,
				"z": 2.8328574645,
				"element": "C" 
			},
			{
				"x": -1.5942514362,
				"y": -0.940186069,
				"z": 1.7965863242,
				"element": "C" 
			},
			{
				"x": -1.2538678644,
				"y": -0.7580527024,
				"z": 0.4736015902,
				"element": "C" 
			},
			{
				"x": -0.0927826674,
				"y": -0.0171673739,
				"z": 0.1394284834,
				"element": "C" 
			},
			{
				"x": 0.2384698414,
				"y": 0.1664727492,
				"z": -1.1713660143,
				"element": "N" 
			},
			{
				"x": 1.6570913065,
				"y": 2.1263497958,
				"z": -3.1624951736,
				"element": "H" 
			},
			{
				"x": 0.9546737327,
				"y": 0.5337970053,
				"z": -3.5124462272,
				"element": "H" 
			},
			{
				"x": 2.6856086369,
				"y": 0.6938661539,
				"z": -3.1156026243,
				"element": "H" 
			},
			{
				"x": 3.265523643,
				"y": 2.8915816943,
				"z": -1.4971630468,
				"element": "H" 
			},
			{
				"x": 3.6851512984,
				"y": 2.7268741766,
				"z": 0.2360103946,
				"element": "H" 
			},
			{
				"x": 0.9683666799,
				"y": 0.7597462505,
				"z": 3.3085054647,
				"element": "H" 
			},
			{
				"x": -1.0836279335,
				"y": -0.5500107972,
				"z": 3.8679908472,
				"element": "H" 
			},
			{
				"x": -2.4834790738,
				"y": -1.5083037985,
				"z": 2.0535944455,
				"element": "H" 
			},
			{
				"x": -1.849570579,
				"y": -1.1663844241,
				"z": -0.3363232178,
				"element": "H" 
			}
		],
		 "valence_orbital": [ 
			{
				"type": "occ",
				"energy": -0.3034,
				"method": "rhf"
			},
			{
				"type": "occ",
				"energy": -0.29808,
				"method": "rhf"
			},
			{
				"type": "occ",
				"energy": -0.25672,
				"method": "rhf"
			},
			{
				"type": "occ",
				"energy": -0.25033,
				"method": "rhf"
			},
			{
				"type": "occ",
				"energy": -0.24715,
				"method": "rhf"
			},
			{
				"type": "unocc",
				"energy": -0.07406,
				"method": "rhf"
			},
			{
				"type": "unocc",
				"energy": -0.03625,
				"method": "rhf"
			},
			{
				"type": "unocc",
				"energy": 0.00617,
				"method": "rhf"
			},
			{
				"type": "unocc",
				"energy": 0.0237,
				"method": "rhf"
			},
			{
				"type": "unocc",
				"energy": 0.07697,
				"method": "rhf"
			}
		],
		"cosmo_sigma_profile": { 
			"-0.025": 0.0,
			"-0.024": 0.0,
			"-0.023": 0.0,
			"-0.022": 0.0,
			"-0.021": 0.0,
			"-0.02": 0.0,
			"-0.019": 0.0,
			"-0.018": 0.0,
			"-0.017": 0.0,
			"-0.016": 0.0,
			"-0.015": 0.0,
			"-0.014": 0.0,
			"-0.013": 0.0,
			"-0.012": 0.0,
			"-0.011": 0.0,
			"-0.01": 0.0,
			"-0.009": 0.784396886859,
			"-0.008": 4.089089158,
			"-0.007": 7.36713795483,
			"-0.006": 12.9654001905,
			"-0.005": 15.064042094,
			"-0.004": 14.5838499239,
			"-0.003": 14.7993109726,
			"-0.002": 16.648320713,
			"-0.001": 18.624939664,
			"0.0": 15.5976828769,
			"0.001": 17.7364518446,
			"0.002": 19.7361943536,
			"0.003": 18.7680577539,
			"0.004": 13.4713722756,
			"0.005": 8.56121618229,
			"0.006": 10.2211133276,
			"0.007": 2.63632415545,
			"0.008": 2.64233221772,
			"0.009": 1.75832482493,
			"0.01": 1.51487322507,
			"0.011": 1.60444395035,
			"0.012": 1.37169472692,
			"0.013": 1.22643739772,
			"0.014": 0.425136025596,
			"0.015": 0.0,
			"0.016": 0.0,
			"0.017": 0.0,
			"0.018": 0.0,
			"0.019": 0.0,
			"0.02": 0.0,
			"0.021": 0.0,
			"0.022": 0.0,
			"0.023": 0.0,
			"0.024": 0.0,
			"0.025": 0.0
		}
	}
}
