{
	 "smiles": "NNC1=NC=CN=C1", 
	 "Tm": 384.15, 
	 "num_atms": 14, 
	 "gaussian": { 
		 "optdone": 1, 
		 "sigma_profile": "yes", 
		 "theory": "DFT", 
		 "functional": "B3LYP", 
		 "basiset": "6-31G**", 
		 "properties": { 
			 "R2extent": 2134.5039, 
			 "electric_dipole_moment_norm": 0.844421867315, 
			 "electric_quadrupole_moment_norm": 8.13088556985, 
			 "total_energy": -375.001816462, 
			 "HOMO_LUMO_gap": 0.18162, 
			 "cosmo_polarized_energy": -10.14, 
			 "cosmo_cavitation_energy": 18.18, 
			 "cosmo_dispersion_energy": -13.86, 
			 "cosmo_repulsion_energy": 1.16, 
			 "cosmo_total_nonelectrostatic_energy": 5.48, 
			 "SMD_solvation_energy": 1.33 
		},
		"coords": [
			{
				"x": -0.6717832088,
				"y": 0.2284511754,
				"z": -0.1054671162,
				"element": "N" 
			},
			{
				"x": -0.1783934369,
				"y": 1.5307977378,
				"z": -0.3304336182,
				"element": "N" 
			},
			{
				"x": 1.1748287768,
				"y": 1.792215706,
				"z": -0.3531206427,
				"element": "C" 
			},
			{
				"x": 2.0167636014,
				"y": 0.7537261588,
				"z": -0.4131669941,
				"element": "N" 
			},
			{
				"x": 3.323812987,
				"y": 1.0531774379,
				"z": -0.4706999073,
				"element": "C" 
			},
			{
				"x": 3.7949223588,
				"y": 2.3591482959,
				"z": -0.4618248109,
				"element": "C" 
			},
			{
				"x": 2.9478386598,
				"y": 3.4048402635,
				"z": -0.3881228283,
				"element": "N" 
			},
			{
				"x": 1.6556835939,
				"y": 3.1273218633,
				"z": -0.3342155431,
				"element": "C" 
			},
			{
				"x": -0.0291850166,
				"y": -0.2496552727,
				"z": 0.5284057235,
				"element": "H" 
			},
			{
				"x": -0.6026620256,
				"y": -0.277803795,
				"z": -0.9869833839,
				"element": "H" 
			},
			{
				"x": -0.7805424586,
				"y": 2.2516478407,
				"z": 0.04045804,
				"element": "H" 
			},
			{
				"x": 4.0121433711,
				"y": 0.2115455856,
				"z": -0.521262958,
				"element": "H" 
			},
			{
				"x": 4.8574053993,
				"y": 2.5805180802,
				"z": -0.5101856545,
				"element": "H" 
			},
			{
				"x": 0.9614673983,
				"y": 3.9654689227,
				"z": -0.2747803062,
				"element": "H" 
			}
		],
		 "valence_orbital": [ 
			{
				"type": "occ",
				"energy": -0.31082,
				"method": "rhf"
			},
			{
				"type": "occ",
				"energy": -0.30636,
				"method": "rhf"
			},
			{
				"type": "occ",
				"energy": -0.27328,
				"method": "rhf"
			},
			{
				"type": "occ",
				"energy": -0.24836,
				"method": "rhf"
			},
			{
				"type": "occ",
				"energy": -0.22178,
				"method": "rhf"
			},
			{
				"type": "unocc",
				"energy": -0.04016,
				"method": "rhf"
			},
			{
				"type": "unocc",
				"energy": -0.00473,
				"method": "rhf"
			},
			{
				"type": "unocc",
				"energy": 0.0864,
				"method": "rhf"
			},
			{
				"type": "unocc",
				"energy": 0.09357,
				"method": "rhf"
			},
			{
				"type": "unocc",
				"energy": 0.12633,
				"method": "rhf"
			}
		],
		"cosmo_sigma_profile": { 
			"-0.025": 0.0,
			"-0.024": 0.0,
			"-0.023": 0.0,
			"-0.022": 0.0,
			"-0.021": 0.0,
			"-0.02": 0.0,
			"-0.019": 0.0,
			"-0.018": 0.0,
			"-0.017": 0.0,
			"-0.016": 0.0,
			"-0.015": 0.0,
			"-0.014": 0.952177891082,
			"-0.013": 1.60710997152,
			"-0.012": 1.4739886344,
			"-0.011": 2.18106373204,
			"-0.01": 2.30340347497,
			"-0.009": 3.70098859269,
			"-0.008": 4.65324690365,
			"-0.007": 6.92666311483,
			"-0.006": 8.16069796966,
			"-0.005": 7.37605518281,
			"-0.004": 6.3219424608,
			"-0.003": 7.37205224703,
			"-0.002": 5.52217691883,
			"-0.001": 9.57768974985,
			"0.0": 9.72932647718,
			"0.001": 10.7984306274,
			"0.002": 11.7759881398,
			"0.003": 6.54151564498,
			"0.004": 5.38949872041,
			"0.005": 5.58479826613,
			"0.006": 4.16404853909,
			"0.007": 3.49237177938,
			"0.008": 3.08439379848,
			"0.009": 2.92215390636,
			"0.01": 2.62308122258,
			"0.011": 2.19030525782,
			"0.012": 1.94656319954,
			"0.013": 1.63489051234,
			"0.014": 1.93722666356,
			"0.015": 1.37746272155,
			"0.016": 1.21546744317,
			"0.017": 0.214970894964,
			"0.018": 0.0,
			"0.019": 0.0,
			"0.02": 0.0,
			"0.021": 0.0,
			"0.022": 0.0,
			"0.023": 0.0,
			"0.024": 0.0,
			"0.025": 0.0
		}
	}
}
