{
	 "smiles": "CCC(C)(O)C(C)(C)C", 
	 "Tm": 267.15, 
	 "num_atms": 27, 
	 "gaussian": { 
		 "optdone": 1, 
		 "sigma_profile": "yes", 
		 "theory": "DFT", 
		 "functional": "B3LYP", 
		 "basiset": "6-31G**", 
		 "properties": { 
			 "R2extent": 1529.2379, 
			 "electric_dipole_moment_norm": 1.39872150552, 
			 "electric_quadrupole_moment_norm": 4.06337511436, 
			 "total_energy": -390.937765769, 
			 "HOMO_LUMO_gap": 0.32192, 
			 "cosmo_polarized_energy": -5.27, 
			 "cosmo_cavitation_energy": 25.48, 
			 "cosmo_dispersion_energy": -18.45, 
			 "cosmo_repulsion_energy": 1.47, 
			 "cosmo_total_nonelectrostatic_energy": 8.5, 
			 "SMD_solvation_energy": 4.66 
		},
		"coords": [
			{
				"x": -1.2463485789,
				"y": 0.5358818481,
				"z": 2.5744895922,
				"element": "C" 
			},
			{
				"x": -0.6699011138,
				"y": 0.7253614589,
				"z": 1.1649415464,
				"element": "C" 
			},
			{
				"x": -1.0570751565,
				"y": -0.3785522533,
				"z": 0.1438606615,
				"element": "C" 
			},
			{
				"x": -2.5799830238,
				"y": -0.4091033027,
				"z": -0.0503207128,
				"element": "C" 
			},
			{
				"x": -0.7558506783,
				"y": -1.6713668941,
				"z": 0.7026017146,
				"element": "O" 
			},
			{
				"x": -0.2807449685,
				"y": -0.2161696246,
				"z": -1.2318562657,
				"element": "C" 
			},
			{
				"x": 1.235979214,
				"y": -0.4477939348,
				"z": -1.0355874903,
				"element": "C" 
			},
			{
				"x": -0.777243501,
				"y": -1.2727038176,
				"z": -2.2434148762,
				"element": "C" 
			},
			{
				"x": -0.4771800665,
				"y": 1.1875610668,
				"z": -1.8426123759,
				"element": "C" 
			},
			{
				"x": -2.3304282205,
				"y": 0.6801783717,
				"z": 2.599739387,
				"element": "H" 
			},
			{
				"x": -1.0373191129,
				"y": -0.4693973729,
				"z": 2.9503108358,
				"element": "H" 
			},
			{
				"x": -0.8053578447,
				"y": 1.2604507679,
				"z": 3.266716178,
				"element": "H" 
			},
			{
				"x": -0.9789112259,
				"y": 1.7014530514,
				"z": 0.7754173493,
				"element": "H" 
			},
			{
				"x": 0.4237632949,
				"y": 0.7667386466,
				"z": 1.243860714,
				"element": "H" 
			},
			{
				"x": -2.8753533695,
				"y": -1.25011774,
				"z": -0.6795019204,
				"element": "H" 
			},
			{
				"x": -2.9487067868,
				"y": 0.5151923922,
				"z": -0.5032221987,
				"element": "H" 
			},
			{
				"x": -3.0746140589,
				"y": -0.5382272373,
				"z": 0.9144216495,
				"element": "H" 
			},
			{
				"x": 0.1717554389,
				"y": -1.6687998396,
				"z": 0.9720460744,
				"element": "H" 
			},
			{
				"x": 1.7551618128,
				"y": -0.3221186812,
				"z": -1.9913842993,
				"element": "H" 
			},
			{
				"x": 1.4498753212,
				"y": -1.4658719875,
				"z": -0.6922884915,
				"element": "H" 
			},
			{
				"x": 1.6878490095,
				"y": 0.2579423697,
				"z": -0.3315936725,
				"element": "H" 
			},
			{
				"x": -0.7811175647,
				"y": -2.268067824,
				"z": -1.7907540911,
				"element": "H" 
			},
			{
				"x": -0.1185262772,
				"y": -1.2952742879,
				"z": -3.1185120469,
				"element": "H" 
			},
			{
				"x": -1.7866859459,
				"y": -1.0549290497,
				"z": -2.6042118267,
				"element": "H" 
			},
			{
				"x": -0.0111864496,
				"y": 1.2295191121,
				"z": -2.8335219956,
				"element": "H" 
			},
			{
				"x": -1.5354186512,
				"y": 1.4352224604,
				"z": -1.9721652713,
				"element": "H" 
			},
			{
				"x": -0.0176314961,
				"y": 1.9732923011,
				"z": -1.2352581677,
				"element": "H" 
			}
		],
		 "valence_orbital": [ 
			{
				"type": "occ",
				"energy": -0.33005,
				"method": "rhf"
			},
			{
				"type": "occ",
				"energy": -0.32055,
				"method": "rhf"
			},
			{
				"type": "occ",
				"energy": -0.31731,
				"method": "rhf"
			},
			{
				"type": "occ",
				"energy": -0.29424,
				"method": "rhf"
			},
			{
				"type": "occ",
				"energy": -0.25617,
				"method": "rhf"
			},
			{
				"type": "unocc",
				"energy": 0.06575,
				"method": "rhf"
			},
			{
				"type": "unocc",
				"energy": 0.10449,
				"method": "rhf"
			},
			{
				"type": "unocc",
				"energy": 0.11413,
				"method": "rhf"
			},
			{
				"type": "unocc",
				"energy": 0.11821,
				"method": "rhf"
			},
			{
				"type": "unocc",
				"energy": 0.12934,
				"method": "rhf"
			}
		],
		"cosmo_sigma_profile": { 
			"-0.025": 0.0,
			"-0.024": 0.0,
			"-0.023": 0.0,
			"-0.022": 0.0,
			"-0.021": 0.0,
			"-0.02": 0.0,
			"-0.019": 0.0,
			"-0.018": 0.0,
			"-0.017": 0.0,
			"-0.016": 0.0,
			"-0.015": 0.0,
			"-0.014": 0.100439389178,
			"-0.013": 0.679379084707,
			"-0.012": 0.787173541868,
			"-0.011": 0.689629843138,
			"-0.01": 0.817172980355,
			"-0.009": 1.44023132432,
			"-0.008": 1.1140361968,
			"-0.007": 1.13417828266,
			"-0.006": 0.965521759158,
			"-0.005": 1.43167194375,
			"-0.004": 3.73196822376,
			"-0.003": 13.2005028091,
			"-0.002": 31.46605167,
			"-0.001": 32.5545595764,
			"0.0": 30.1806171775,
			"0.001": 33.3873745411,
			"0.002": 22.0212343012,
			"0.003": 3.59411190556,
			"0.004": 2.12689181817,
			"0.005": 1.6852526522,
			"0.006": 1.05861125887,
			"0.007": 1.4357372304,
			"0.008": 1.57283311788,
			"0.009": 1.2594182726,
			"0.01": 1.15002935483,
			"0.011": 0.712982580338,
			"0.012": 1.39373321833,
			"0.013": 1.2527881434,
			"0.014": 1.15532238867,
			"0.015": 0.872521655683,
			"0.016": 0.0,
			"0.017": 0.0,
			"0.018": 0.0,
			"0.019": 0.0,
			"0.02": 0.0,
			"0.021": 0.0,
			"0.022": 0.0,
			"0.023": 0.0,
			"0.024": 0.0,
			"0.025": 0.0
		}
	}
}
