{
	 "smiles": "CC1=C(C(O)=O)C2=C(NC(=O)N(C3=CC=CC=C3)C2=O)O1", 
	 "Tm": 563.15, 
	 "num_atms": 31, 
	 "gaussian": { 
		 "optdone": 1, 
		 "sigma_profile": "yes", 
		 "theory": "DFT", 
		 "functional": "B3LYP", 
		 "basiset": "6-31G**", 
		 "properties": { 
			 "R2extent": 7313.1102, 
			 "electric_dipole_moment_norm": 5.25492144375, 
			 "electric_quadrupole_moment_norm": 35.3164364193, 
			 "total_energy": -1025.18302287, 
			 "HOMO_LUMO_gap": 0.18855, 
			 "cosmo_polarized_energy": -23.59, 
			 "cosmo_cavitation_energy": 36.39, 
			 "cosmo_dispersion_energy": -26.36, 
			 "cosmo_repulsion_energy": 1.99, 
			 "cosmo_total_nonelectrostatic_energy": 12.02, 
			 "SMD_solvation_energy": 9.24 
		},
		"coords": [
			{
				"x": -2.6839001414,
				"y": 2.6817887094,
				"z": -3.6918086961,
				"element": "C" 
			},
			{
				"x": -1.9083289677,
				"y": 1.7078438698,
				"z": -2.8886764388,
				"element": "C" 
			},
			{
				"x": -0.5931610775,
				"y": 1.3352480827,
				"z": -2.8381087093,
				"element": "C" 
			},
			{
				"x": 0.4883670189,
				"y": 1.9084921069,
				"z": -3.6983105436,
				"element": "C" 
			},
			{
				"x": 1.7211812523,
				"y": 1.4310554514,
				"z": -3.5201088698,
				"element": "O" 
			},
			{
				"x": 0.2586402416,
				"y": 2.7714136935,
				"z": -4.5244303859,
				"element": "O" 
			},
			{
				"x": -0.5066368449,
				"y": 0.3110987302,
				"z": -1.8096586389,
				"element": "C" 
			},
			{
				"x": -1.777693425,
				"y": 0.162368707,
				"z": -1.3369112291,
				"element": "C" 
			},
			{
				"x": -2.1415801076,
				"y": -0.7051696909,
				"z": -0.3561366757,
				"element": "N" 
			},
			{
				"x": -1.1924845517,
				"y": -1.5333730857,
				"z": 0.2546473708,
				"element": "C" 
			},
			{
				"x": -1.5036152237,
				"y": -2.3120205553,
				"z": 1.1313303117,
				"element": "O" 
			},
			{
				"x": 0.1238715434,
				"y": -1.3825947495,
				"z": -0.2314573655,
				"element": "N" 
			},
			{
				"x": 1.1310551616,
				"y": -2.2276021591,
				"z": 0.3808538559,
				"element": "C" 
			},
			{
				"x": 1.3311947155,
				"y": -3.5184641086,
				"z": -0.1042788525,
				"element": "C" 
			},
			{
				"x": 2.3040522736,
				"y": -4.3265731662,
				"z": 0.4834679678,
				"element": "C" 
			},
			{
				"x": 3.069595976,
				"y": -3.841003209,
				"z": 1.5453061426,
				"element": "C" 
			},
			{
				"x": 2.8625300414,
				"y": -2.5451783258,
				"z": 2.0219591244,
				"element": "C" 
			},
			{
				"x": 1.8897347749,
				"y": -1.7328958573,
				"z": 1.4397962085,
				"element": "C" 
			},
			{
				"x": 0.5468855082,
				"y": -0.492903434,
				"z": -1.2508259719,
				"element": "C" 
			},
			{
				"x": 1.7310676747,
				"y": -0.4494181882,
				"z": -1.593975702,
				"element": "O" 
			},
			{
				"x": -2.6480944939,
				"y": 0.9732659724,
				"z": -1.9489976236,
				"element": "O" 
			},
			{
				"x": -1.9981387702,
				"y": 3.1803988494,
				"z": -4.3762517152,
				"element": "H" 
			},
			{
				"x": -3.4718187353,
				"y": 2.1781237177,
				"z": -4.2634954109,
				"element": "H" 
			},
			{
				"x": -3.1646446515,
				"y": 3.426123623,
				"z": -3.0466908899,
				"element": "H" 
			},
			{
				"x": 1.787672922,
				"y": 0.7307395543,
				"z": -2.8196086081,
				"element": "H" 
			},
			{
				"x": -3.0935158766,
				"y": -0.7912604663,
				"z": -0.0270065534,
				"element": "H" 
			},
			{
				"x": 0.7299702623,
				"y": -3.8826333494,
				"z": -0.9310430823,
				"element": "H" 
			},
			{
				"x": 2.4636938085,
				"y": -5.3336080542,
				"z": 0.1106223868,
				"element": "H" 
			},
			{
				"x": 3.8274470539,
				"y": -4.4716461955,
				"z": 2.000424671,
				"element": "H" 
			},
			{
				"x": 3.4575611698,
				"y": -2.1648305275,
				"z": 2.8465091539,
				"element": "H" 
			},
			{
				"x": 1.7188914683,
				"y": -0.7234859453,
				"z": 1.799664769,
				"element": "H" 
			}
		],
		 "valence_orbital": [ 
			{
				"type": "occ",
				"energy": -0.29343,
				"method": "rhf"
			},
			{
				"type": "occ",
				"energy": -0.26458,
				"method": "rhf"
			},
			{
				"type": "occ",
				"energy": -0.26433,
				"method": "rhf"
			},
			{
				"type": "occ",
				"energy": -0.2642,
				"method": "rhf"
			},
			{
				"type": "occ",
				"energy": -0.23824,
				"method": "rhf"
			},
			{
				"type": "unocc",
				"energy": -0.04969,
				"method": "rhf"
			},
			{
				"type": "unocc",
				"energy": -0.03751,
				"method": "rhf"
			},
			{
				"type": "unocc",
				"energy": -0.01997,
				"method": "rhf"
			},
			{
				"type": "unocc",
				"energy": -0.01584,
				"method": "rhf"
			},
			{
				"type": "unocc",
				"energy": -0.00526,
				"method": "rhf"
			}
		],
		"cosmo_sigma_profile": { 
			"-0.025": 0.0,
			"-0.024": 0.0,
			"-0.023": 0.0,
			"-0.022": 0.0,
			"-0.021": 0.0,
			"-0.02": 0.0,
			"-0.019": 0.449809871157,
			"-0.018": 1.26978079953,
			"-0.017": 1.23617022386,
			"-0.016": 0.587305897867,
			"-0.015": 1.25501188622,
			"-0.014": 1.32813469237,
			"-0.013": 0.561556945306,
			"-0.012": 0.904959296067,
			"-0.011": 0.660193519535,
			"-0.01": 1.06609045493,
			"-0.009": 1.03599964892,
			"-0.008": 2.1173648979,
			"-0.007": 10.5708985689,
			"-0.006": 22.3957041894,
			"-0.005": 23.9735437386,
			"-0.004": 25.8999840985,
			"-0.003": 23.2991271698,
			"-0.002": 22.111567105,
			"-0.001": 19.9971252059,
			"0.0": 16.0773357303,
			"0.001": 11.1356000893,
			"0.002": 10.785985829,
			"0.003": 13.5744611166,
			"0.004": 14.1175284435,
			"0.005": 9.73601290084,
			"0.006": 6.39807997032,
			"0.007": 6.04300136833,
			"0.008": 5.47279042669,
			"0.009": 7.71858582727,
			"0.01": 7.32634234273,
			"0.011": 10.8351351598,
			"0.012": 9.35785001896,
			"0.013": 2.75830562526,
			"0.014": 0.992018823331,
			"0.015": 0.0,
			"0.016": 0.0,
			"0.017": 0.0,
			"0.018": 0.0,
			"0.019": 0.0,
			"0.02": 0.0,
			"0.021": 0.0,
			"0.022": 0.0,
			"0.023": 0.0,
			"0.024": 0.0,
			"0.025": 0.0
		}
	}
}
