{
	 "smiles": "COC(=O)C1=CC=CC=C1SCC#N", 
	 "Tm": 395.15, 
	 "num_atms": 23, 
	 "gaussian": { 
		 "optdone": 1, 
		 "sigma_profile": "yes", 
		 "theory": "DFT", 
		 "functional": "B3LYP", 
		 "basiset": "6-31G**", 
		 "properties": { 
			 "R2extent": 4068.3977, 
			 "electric_dipole_moment_norm": 7.01337680864, 
			 "electric_quadrupole_moment_norm": 27.5165201143, 
			 "total_energy": -989.852877693, 
			 "HOMO_LUMO_gap": 0.17564, 
			 "cosmo_polarized_energy": -13.09, 
			 "cosmo_cavitation_energy": 30.15, 
			 "cosmo_dispersion_energy": -21.48, 
			 "cosmo_repulsion_energy": 1.67, 
			 "cosmo_total_nonelectrostatic_energy": 10.33, 
			 "SMD_solvation_energy": 7.85 
		},
		"coords": [
			{
				"x": 1.0632385033,
				"y": -1.6980976627,
				"z": -1.9855031551,
				"element": "C" 
			},
			{
				"x": -0.1756440585,
				"y": -1.4861793421,
				"z": -1.2852284218,
				"element": "O" 
			},
			{
				"x": -0.1709311341,
				"y": -0.465239161,
				"z": -0.4021922677,
				"element": "C" 
			},
			{
				"x": 0.80333779,
				"y": 0.238954044,
				"z": -0.2200668322,
				"element": "O" 
			},
			{
				"x": -1.4794279116,
				"y": -0.3546853782,
				"z": 0.315101775,
				"element": "C" 
			},
			{
				"x": -2.2019803645,
				"y": -1.5330652526,
				"z": 0.5572945175,
				"element": "C" 
			},
			{
				"x": -3.4093696995,
				"y": -1.5099493009,
				"z": 1.2514018351,
				"element": "C" 
			},
			{
				"x": -3.922906071,
				"y": -0.295249121,
				"z": 1.7016638648,
				"element": "C" 
			},
			{
				"x": -3.2214132446,
				"y": 0.8862384184,
				"z": 1.4598534287,
				"element": "C" 
			},
			{
				"x": -1.9966457752,
				"y": 0.8796587343,
				"z": 0.7779939302,
				"element": "C" 
			},
			{
				"x": -1.2857182401,
				"y": 2.4900732143,
				"z": 0.4079345297,
				"element": "S" 
			},
			{
				"x": 0.1192273956,
				"y": 2.5437963315,
				"z": 1.6202280756,
				"element": "C" 
			},
			{
				"x": 0.7173428897,
				"y": 3.8724050597,
				"z": 1.6110142011,
				"element": "C" 
			},
			{
				"x": 1.1910842934,
				"y": 4.9321961169,
				"z": 1.6000455368,
				"element": "N" 
			},
			{
				"x": 1.8700195555,
				"y": -1.9184233081,
				"z": -1.2821440189,
				"element": "H" 
			},
			{
				"x": 0.8837381531,
				"y": -2.5470387717,
				"z": -2.6444752033,
				"element": "H" 
			},
			{
				"x": 1.3307100921,
				"y": -0.8107285898,
				"z": -2.5636003973,
				"element": "H" 
			},
			{
				"x": -1.801550315,
				"y": -2.4717499161,
				"z": 0.1924432888,
				"element": "H" 
			},
			{
				"x": -3.9461418257,
				"y": -2.4360193399,
				"z": 1.4329945696,
				"element": "H" 
			},
			{
				"x": -4.8663769441,
				"y": -0.2616145221,
				"z": 2.2383552566,
				"element": "H" 
			},
			{
				"x": -3.6219049414,
				"y": 1.8366674301,
				"z": 1.79617349,
				"element": "H" 
			},
			{
				"x": -0.2594120242,
				"y": 2.3213086158,
				"z": 2.6217418775,
				"element": "H" 
			},
			{
				"x": 0.8518238765,
				"y": 1.7918417012,
				"z": 1.3192701193,
				"element": "H" 
			}
		],
		 "valence_orbital": [ 
			{
				"type": "occ",
				"energy": -0.31718,
				"method": "rhf"
			},
			{
				"type": "occ",
				"energy": -0.29248,
				"method": "rhf"
			},
			{
				"type": "occ",
				"energy": -0.27629,
				"method": "rhf"
			},
			{
				"type": "occ",
				"energy": -0.27487,
				"method": "rhf"
			},
			{
				"type": "occ",
				"energy": -0.23978,
				"method": "rhf"
			},
			{
				"type": "unocc",
				"energy": -0.06414,
				"method": "rhf"
			},
			{
				"type": "unocc",
				"energy": -0.0354,
				"method": "rhf"
			},
			{
				"type": "unocc",
				"energy": 0.0097,
				"method": "rhf"
			},
			{
				"type": "unocc",
				"energy": 0.02262,
				"method": "rhf"
			},
			{
				"type": "unocc",
				"energy": 0.03635,
				"method": "rhf"
			}
		],
		"cosmo_sigma_profile": { 
			"-0.025": 0.0,
			"-0.024": 0.0,
			"-0.023": 0.0,
			"-0.022": 0.0,
			"-0.021": 0.0,
			"-0.02": 0.0,
			"-0.019": 0.0,
			"-0.018": 0.0,
			"-0.017": 0.0,
			"-0.016": 0.0,
			"-0.015": 0.0,
			"-0.014": 0.0,
			"-0.013": 0.0,
			"-0.012": 0.0,
			"-0.011": 0.0,
			"-0.01": 0.786895894424,
			"-0.009": 2.2768446831,
			"-0.008": 2.31133323765,
			"-0.007": 9.56951701089,
			"-0.006": 18.538873083,
			"-0.005": 18.7608589231,
			"-0.004": 19.2791084855,
			"-0.003": 18.060476703,
			"-0.002": 15.7615603308,
			"-0.001": 17.6097063853,
			"0.0": 17.8337929032,
			"0.001": 14.9064145872,
			"0.002": 18.7116324189,
			"0.003": 16.3103193805,
			"0.004": 7.50414919492,
			"0.005": 7.97086663131,
			"0.006": 6.36112193294,
			"0.007": 6.98687650749,
			"0.008": 6.71217047158,
			"0.009": 5.67119437175,
			"0.01": 4.80538548469,
			"0.011": 4.214029795,
			"0.012": 2.35692528474,
			"0.013": 1.02165487092,
			"0.014": 0.0,
			"0.015": 0.0,
			"0.016": 0.0,
			"0.017": 0.0,
			"0.018": 0.0,
			"0.019": 0.0,
			"0.02": 0.0,
			"0.021": 0.0,
			"0.022": 0.0,
			"0.023": 0.0,
			"0.024": 0.0,
			"0.025": 0.0
		}
	}
}
