{
	 "smiles": "COC1=CC=C(C=CC(=O)C2=CC=CC=C2)C(OC)=C1", 
	 "Tm": 342.65, 
	 "num_atms": 36, 
	 "gaussian": { 
		 "optdone": 1, 
		 "sigma_profile": "yes", 
		 "theory": "DFT", 
		 "functional": "B3LYP", 
		 "basiset": "6-31G**", 
		 "properties": { 
			 "R2extent": 8210.4279, 
			 "electric_dipole_moment_norm": 7.39235350007, 
			 "electric_quadrupole_moment_norm": 11.8252340286, 
			 "total_energy": -883.087315809, 
			 "HOMO_LUMO_gap": 0.14526, 
			 "cosmo_polarized_energy": -15.73, 
			 "cosmo_cavitation_energy": 40.51, 
			 "cosmo_dispersion_energy": -28.43, 
			 "cosmo_repulsion_energy": 2.19, 
			 "cosmo_total_nonelectrostatic_energy": 14.27, 
			 "SMD_solvation_energy": 8.93 
		},
		"coords": [
			{
				"x": 0.7181418792,
				"y": 3.1728460409,
				"z": 5.6042262237,
				"element": "C" 
			},
			{
				"x": 1.6183476647,
				"y": 3.1464872726,
				"z": 4.5070597122,
				"element": "O" 
			},
			{
				"x": 1.3068694496,
				"y": 2.3890485714,
				"z": 3.4211305683,
				"element": "C" 
			},
			{
				"x": 2.2421128598,
				"y": 2.4090289208,
				"z": 2.3749784635,
				"element": "C" 
			},
			{
				"x": 2.0002840805,
				"y": 1.6647740947,
				"z": 1.2342213081,
				"element": "C" 
			},
			{
				"x": 0.8430233822,
				"y": 0.8774667952,
				"z": 1.0743323304,
				"element": "C" 
			},
			{
				"x": 0.5689106055,
				"y": 0.0905628655,
				"z": -0.1230787091,
				"element": "C" 
			},
			{
				"x": 1.3848874827,
				"y": -0.0735236974,
				"z": -1.1892016641,
				"element": "C" 
			},
			{
				"x": 1.1294822276,
				"y": -0.9599883777,
				"z": -2.3424215698,
				"element": "C" 
			},
			{
				"x": 2.082046594,
				"y": -1.3740271319,
				"z": -3.0026677188,
				"element": "O" 
			},
			{
				"x": -0.2660841024,
				"y": -1.380317705,
				"z": -2.7175933384,
				"element": "C" 
			},
			{
				"x": -0.4249509124,
				"y": -2.631732939,
				"z": -3.3336049453,
				"element": "C" 
			},
			{
				"x": -1.6822909873,
				"y": -3.0636606658,
				"z": -3.7458298727,
				"element": "C" 
			},
			{
				"x": -2.7973870595,
				"y": -2.2375897554,
				"z": -3.5732581812,
				"element": "C" 
			},
			{
				"x": -2.6460512478,
				"y": -0.9796502346,
				"z": -2.9884784881,
				"element": "C" 
			},
			{
				"x": -1.3882273241,
				"y": -0.553352113,
				"z": -2.5579337016,
				"element": "C" 
			},
			{
				"x": -0.0868034249,
				"y": 0.8773235433,
				"z": 2.1450364878,
				"element": "C" 
			},
			{
				"x": -1.2007672764,
				"y": 0.111469236,
				"z": 1.9700621343,
				"element": "O" 
			},
			{
				"x": -2.1748803443,
				"y": 0.0548934849,
				"z": 2.9998062831,
				"element": "C" 
			},
			{
				"x": 0.1401401519,
				"y": 1.6237732854,
				"z": 3.3083651076,
				"element": "C" 
			},
			{
				"x": 0.5859022295,
				"y": 2.1754543599,
				"z": 6.042568145,
				"element": "H" 
			},
			{
				"x": 1.1684105829,
				"y": 3.8334261903,
				"z": 6.3463554264,
				"element": "H" 
			},
			{
				"x": -0.2618646853,
				"y": 3.5723690866,
				"z": 5.3135851593,
				"element": "H" 
			},
			{
				"x": 3.1368924275,
				"y": 3.0113533549,
				"z": 2.4838013785,
				"element": "H" 
			},
			{
				"x": 2.7290868843,
				"y": 1.6922373067,
				"z": 0.430931128,
				"element": "H" 
			},
			{
				"x": -0.3858800815,
				"y": -0.4238988838,
				"z": -0.1211387288,
				"element": "H" 
			},
			{
				"x": 2.3837098915,
				"y": 0.3552712368,
				"z": -1.2102116536,
				"element": "H" 
			},
			{
				"x": 0.4562604187,
				"y": -3.2471263848,
				"z": -3.482103811,
				"element": "H" 
			},
			{
				"x": -1.7952010111,
				"y": -4.0399047115,
				"z": -4.2089009362,
				"element": "H" 
			},
			{
				"x": -3.7779661569,
				"y": -2.5706754917,
				"z": -3.901905569,
				"element": "H" 
			},
			{
				"x": -3.5058887634,
				"y": -0.3259507586,
				"z": -2.8718745481,
				"element": "H" 
			},
			{
				"x": -1.2732190582,
				"y": 0.4341816092,
				"z": -2.1241842908,
				"element": "H" 
			},
			{
				"x": -2.6083919338,
				"y": 1.0426419181,
				"z": 3.2015337619,
				"element": "H" 
			},
			{
				"x": -1.7574699318,
				"y": -0.3539054487,
				"z": 3.9285870327,
				"element": "H" 
			},
			{
				"x": -2.9569082826,
				"y": -0.6121157224,
				"z": 2.6345683854,
				"element": "H" 
			},
			{
				"x": -0.5812762288,
				"y": 1.6071108481,
				"z": 4.1121386905,
				"element": "H" 
			}
		],
		 "valence_orbital": [ 
			{
				"type": "occ",
				"energy": -0.24933,
				"method": "rhf"
			},
			{
				"type": "occ",
				"energy": -0.24912,
				"method": "rhf"
			},
			{
				"type": "occ",
				"energy": -0.24479,
				"method": "rhf"
			},
			{
				"type": "occ",
				"energy": -0.22987,
				"method": "rhf"
			},
			{
				"type": "occ",
				"energy": -0.20525,
				"method": "rhf"
			},
			{
				"type": "unocc",
				"energy": -0.05999,
				"method": "rhf"
			},
			{
				"type": "unocc",
				"energy": -0.01601,
				"method": "rhf"
			},
			{
				"type": "unocc",
				"energy": 0.00088,
				"method": "rhf"
			},
			{
				"type": "unocc",
				"energy": 0.00213,
				"method": "rhf"
			},
			{
				"type": "unocc",
				"energy": 0.03841,
				"method": "rhf"
			}
		],
		"cosmo_sigma_profile": { 
			"-0.025": 0.0,
			"-0.024": 0.0,
			"-0.023": 0.0,
			"-0.022": 0.0,
			"-0.021": 0.0,
			"-0.02": 0.0,
			"-0.019": 0.0,
			"-0.018": 0.0,
			"-0.017": 0.0,
			"-0.016": 0.0,
			"-0.015": 0.0,
			"-0.014": 0.0,
			"-0.013": 0.0,
			"-0.012": 0.0,
			"-0.011": 0.0,
			"-0.01": 0.0,
			"-0.009": 0.0,
			"-0.008": 1.10492255998,
			"-0.007": 6.09122497004,
			"-0.006": 24.0705563642,
			"-0.005": 31.6179229843,
			"-0.004": 31.6412918691,
			"-0.003": 27.9238696225,
			"-0.002": 18.9105027102,
			"-0.001": 19.8705602839,
			"0.0": 18.5801379035,
			"0.001": 18.9480972451,
			"0.002": 24.5168744704,
			"0.003": 30.1208879186,
			"0.004": 27.082310325,
			"0.005": 14.0067683412,
			"0.006": 6.13708008538,
			"0.007": 2.90345762769,
			"0.008": 2.50971226791,
			"0.009": 3.42178459579,
			"0.01": 2.64811877708,
			"0.011": 2.06363070296,
			"0.012": 2.9687919557,
			"0.013": 4.61904119734,
			"0.014": 2.00486133261,
			"0.015": 0.0629053346105,
			"0.016": 0.0,
			"0.017": 0.0,
			"0.018": 0.0,
			"0.019": 0.0,
			"0.02": 0.0,
			"0.021": 0.0,
			"0.022": 0.0,
			"0.023": 0.0,
			"0.024": 0.0,
			"0.025": 0.0
		}
	}
}
