{
	 "smiles": "CN1C(=O)NC(=O)C2=C1N=C(C=C2)C(O)=O", 
	 "Tm": 579.15, 
	 "num_atms": 23, 
	 "gaussian": { 
		 "optdone": 1, 
		 "sigma_profile": "yes", 
		 "theory": "DFT", 
		 "functional": "B3LYP", 
		 "basiset": "6-31G**", 
		 "properties": { 
			 "R2extent": 4096.9859, 
			 "electric_dipole_moment_norm": 2.16113000766, 
			 "electric_quadrupole_moment_norm": 18.4937322999, 
			 "total_energy": -812.396906561, 
			 "HOMO_LUMO_gap": 0.16446, 
			 "cosmo_polarized_energy": -18.72, 
			 "cosmo_cavitation_energy": 28.42, 
			 "cosmo_dispersion_energy": -21.0, 
			 "cosmo_repulsion_energy": 1.59, 
			 "cosmo_total_nonelectrostatic_energy": 9.01, 
			 "SMD_solvation_energy": 7.24 
		},
		"coords": [
			{
				"x": 2.2417550903,
				"y": -1.5076781609,
				"z": 2.550755245,
				"element": "C" 
			},
			{
				"x": 1.8913126439,
				"y": -0.2314214817,
				"z": 1.9185619834,
				"element": "N" 
			},
			{
				"x": 2.7198779423,
				"y": 0.8686731515,
				"z": 2.1636743469,
				"element": "C" 
			},
			{
				"x": 3.7094631717,
				"y": 0.8185034424,
				"z": 2.8703311089,
				"element": "O" 
			},
			{
				"x": 2.3349608829,
				"y": 2.051087209,
				"z": 1.5357611694,
				"element": "N" 
			},
			{
				"x": 1.2431577883,
				"y": 2.2797560966,
				"z": 0.7036753378,
				"element": "C" 
			},
			{
				"x": 1.0224650888,
				"y": 3.3755087261,
				"z": 0.2168622596,
				"element": "O" 
			},
			{
				"x": 0.4175246216,
				"y": 1.0774287359,
				"z": 0.4917227653,
				"element": "C" 
			},
			{
				"x": 0.7684630688,
				"y": -0.1447074952,
				"z": 1.1077365139,
				"element": "C" 
			},
			{
				"x": 0.0425235659,
				"y": -1.2559227848,
				"z": 0.9377577271,
				"element": "N" 
			},
			{
				"x": -1.046356321,
				"y": -1.1884458574,
				"z": 0.1566994102,
				"element": "C" 
			},
			{
				"x": -1.4751635275,
				"y": -0.0320114597,
				"z": -0.4936730522,
				"element": "C" 
			},
			{
				"x": -0.7183878752,
				"y": 1.1213321201,
				"z": -0.3150620275,
				"element": "C" 
			},
			{
				"x": -1.8223956671,
				"y": -2.4785093703,
				"z": 0.0060493248,
				"element": "C" 
			},
			{
				"x": -1.2999380538,
				"y": -3.5109441871,
				"z": 0.68401921,
				"element": "O" 
			},
			{
				"x": -2.8230822009,
				"y": -2.5628570297,
				"z": -0.6670718176,
				"element": "O" 
			},
			{
				"x": 3.1455226419,
				"y": -1.3406496437,
				"z": 3.1317054176,
				"element": "H" 
			},
			{
				"x": 2.4190966903,
				"y": -2.2691338311,
				"z": 1.7880541362,
				"element": "H" 
			},
			{
				"x": 1.4306219286,
				"y": -1.8399401107,
				"z": 3.2023980325,
				"element": "H" 
			},
			{
				"x": 2.9417329612,
				"y": 2.8415257778,
				"z": 1.7197761809,
				"element": "H" 
			},
			{
				"x": -2.3671248716,
				"y": -0.0654799536,
				"z": -1.1064953433,
				"element": "H" 
			},
			{
				"x": -0.9784812016,
				"y": 2.0652117114,
				"z": -0.7831363709,
				"element": "H" 
			},
			{
				"x": -0.5026483677,
				"y": -3.1713256048,
				"z": 1.137798442,
				"element": "H" 
			}
		],
		 "valence_orbital": [ 
			{
				"type": "occ",
				"energy": -0.3163,
				"method": "rhf"
			},
			{
				"type": "occ",
				"energy": -0.30627,
				"method": "rhf"
			},
			{
				"type": "occ",
				"energy": -0.28697,
				"method": "rhf"
			},
			{
				"type": "occ",
				"energy": -0.28226,
				"method": "rhf"
			},
			{
				"type": "occ",
				"energy": -0.2648,
				"method": "rhf"
			},
			{
				"type": "unocc",
				"energy": -0.10034,
				"method": "rhf"
			},
			{
				"type": "unocc",
				"energy": -0.0553,
				"method": "rhf"
			},
			{
				"type": "unocc",
				"energy": -0.01463,
				"method": "rhf"
			},
			{
				"type": "unocc",
				"energy": 0.01448,
				"method": "rhf"
			},
			{
				"type": "unocc",
				"energy": 0.07117,
				"method": "rhf"
			}
		],
		"cosmo_sigma_profile": { 
			"-0.025": 0.0,
			"-0.024": 0.0,
			"-0.023": 0.0,
			"-0.022": 0.0,
			"-0.021": 0.0,
			"-0.02": 0.0,
			"-0.019": 0.0,
			"-0.018": 0.0,
			"-0.017": 0.174597359071,
			"-0.016": 0.80704996319,
			"-0.015": 1.50873020162,
			"-0.014": 0.170968006027,
			"-0.013": 0.625634038526,
			"-0.012": 1.15144391915,
			"-0.011": 2.10430193169,
			"-0.01": 1.37853285922,
			"-0.009": 2.52464378664,
			"-0.008": 5.49688172874,
			"-0.007": 8.33688073515,
			"-0.006": 12.9060291483,
			"-0.005": 16.333988802,
			"-0.004": 23.3978725845,
			"-0.003": 24.8751365201,
			"-0.002": 20.3353977162,
			"-0.001": 15.325493196,
			"0.0": 10.3271363887,
			"0.001": 6.87284366279,
			"0.002": 4.74428886087,
			"0.003": 4.81216619013,
			"0.004": 3.46081420482,
			"0.005": 5.48366575353,
			"0.006": 4.27041865454,
			"0.007": 4.64083002955,
			"0.008": 6.53747310831,
			"0.009": 7.88416210688,
			"0.01": 8.37789538636,
			"0.011": 12.8909325483,
			"0.012": 9.96136003698,
			"0.013": 0.710985267095,
			"0.014": 0.0,
			"0.015": 0.0,
			"0.016": 0.0,
			"0.017": 0.0,
			"0.018": 0.0,
			"0.019": 0.0,
			"0.02": 0.0,
			"0.021": 0.0,
			"0.022": 0.0,
			"0.023": 0.0,
			"0.024": 0.0,
			"0.025": 0.0
		}
	}
}
