{
	 "smiles": "CCOC(=O)CCCCCCCCC(=O)OCC", 
	 "Tm": 276.65, 
	 "num_atms": 44, 
	 "gaussian": { 
		 "optdone": 1, 
		 "sigma_profile": "yes", 
		 "theory": "DFT", 
		 "functional": "B3LYP", 
		 "basiset": "6-31G**", 
		 "properties": { 
			 "R2extent": 10066.5341, 
			 "electric_dipole_moment_norm": 0.993889797714, 
			 "electric_quadrupole_moment_norm": 19.9553402369, 
			 "total_energy": -850.111953387, 
			 "HOMO_LUMO_gap": 0.27673, 
			 "cosmo_polarized_energy": -12.26, 
			 "cosmo_cavitation_energy": 46.39, 
			 "cosmo_dispersion_energy": -30.99, 
			 "cosmo_repulsion_energy": 2.57, 
			 "cosmo_total_nonelectrostatic_energy": 17.97, 
			 "SMD_solvation_energy": 8.74 
		},
		"coords": [
			{
				"x": 3.8628879836,
				"y": -3.150603601,
				"z": -2.480238447,
				"element": "C" 
			},
			{
				"x": 3.8069799434,
				"y": -1.6392362616,
				"z": -2.3623803494,
				"element": "C" 
			},
			{
				"x": 3.5655020076,
				"y": -1.3200498064,
				"z": -0.9723601997,
				"element": "O" 
			},
			{
				"x": 3.4799354415,
				"y": -0.0039565953,
				"z": -0.6759496824,
				"element": "C" 
			},
			{
				"x": 3.5757485881,
				"y": 0.8754253232,
				"z": -1.5069094959,
				"element": "O" 
			},
			{
				"x": 3.296630595,
				"y": 0.2197966866,
				"z": 0.8142036387,
				"element": "C" 
			},
			{
				"x": 2.4160376116,
				"y": 1.4364975903,
				"z": 1.1453419969,
				"element": "C" 
			},
			{
				"x": 0.9022345702,
				"y": 1.1686193032,
				"z": 1.0915879025,
				"element": "C" 
			},
			{
				"x": 0.3631909827,
				"y": 0.7404284599,
				"z": -0.2824648499,
				"element": "C" 
			},
			{
				"x": -1.1708165311,
				"y": 0.6618407496,
				"z": -0.3601976495,
				"element": "C" 
			},
			{
				"x": -1.8044688199,
				"y": -0.4232015889,
				"z": 0.5218193671,
				"element": "C" 
			},
			{
				"x": -3.3261513659,
				"y": -0.5156040975,
				"z": 0.3485239707,
				"element": "C" 
			},
			{
				"x": -3.9866431341,
				"y": -1.6070040105,
				"z": 1.2165833243,
				"element": "C" 
			},
			{
				"x": -3.8355672929,
				"y": -1.3431188679,
				"z": 2.7013565672,
				"element": "C" 
			},
			{
				"x": -3.133511391,
				"y": -1.9737582643,
				"z": 3.4635086902,
				"element": "O" 
			},
			{
				"x": -4.5800913022,
				"y": -0.2786670113,
				"z": 3.0841043649,
				"element": "O" 
			},
			{
				"x": -4.487666192,
				"y": 0.0875380418,
				"z": 4.4792450109,
				"element": "C" 
			},
			{
				"x": -5.3824271902,
				"y": 1.2933087816,
				"z": 4.6957772291,
				"element": "C" 
			},
			{
				"x": 4.0445949191,
				"y": -3.4360457764,
				"z": -3.5211431695,
				"element": "H" 
			},
			{
				"x": 4.6685051743,
				"y": -3.5617565766,
				"z": -1.8651021523,
				"element": "H" 
			},
			{
				"x": 2.920333049,
				"y": -3.603171697,
				"z": -2.1588758065,
				"element": "H" 
			},
			{
				"x": 4.7431651201,
				"y": -1.1665903098,
				"z": -2.6765752576,
				"element": "H" 
			},
			{
				"x": 3.003946646,
				"y": -1.2078285361,
				"z": -2.9682484565,
				"element": "H" 
			},
			{
				"x": 2.9196088248,
				"y": -0.6971882079,
				"z": 1.2775462685,
				"element": "H" 
			},
			{
				"x": 4.3064574046,
				"y": 0.379358446,
				"z": 1.2156137911,
				"element": "H" 
			},
			{
				"x": 2.6808198515,
				"y": 2.2462656598,
				"z": 0.4560102555,
				"element": "H" 
			},
			{
				"x": 2.6700433844,
				"y": 1.7826861883,
				"z": 2.1539007796,
				"element": "H" 
			},
			{
				"x": 0.3822227621,
				"y": 2.0849940219,
				"z": 1.4040267065,
				"element": "H" 
			},
			{
				"x": 0.6520142859,
				"y": 0.4075211779,
				"z": 1.8427636238,
				"element": "H" 
			},
			{
				"x": 0.72300045,
				"y": 1.4460243484,
				"z": -1.0412552504,
				"element": "H" 
			},
			{
				"x": 0.7802453605,
				"y": -0.2386083359,
				"z": -0.5567548257,
				"element": "H" 
			},
			{
				"x": -1.4606562097,
				"y": 0.481165143,
				"z": -1.4044105253,
				"element": "H" 
			},
			{
				"x": -1.5968464806,
				"y": 1.6400082853,
				"z": -0.0938433704,
				"element": "H" 
			},
			{
				"x": -1.5686523601,
				"y": -0.235436186,
				"z": 1.5765871543,
				"element": "H" 
			},
			{
				"x": -1.3533328643,
				"y": -1.3966728836,
				"z": 0.2820025241,
				"element": "H" 
			},
			{
				"x": -3.5611585258,
				"y": -0.7254278943,
				"z": -0.7026757096,
				"element": "H" 
			},
			{
				"x": -3.7879130227,
				"y": 0.4509248648,
				"z": 0.5836216261,
				"element": "H" 
			},
			{
				"x": -3.5386143191,
				"y": -2.583755291,
				"z": 1.0155480682,
				"element": "H" 
			},
			{
				"x": -5.0554189822,
				"y": -1.6603755586,
				"z": 0.9816868716,
				"element": "H" 
			},
			{
				"x": -4.7944049883,
				"y": -0.7673593235,
				"z": 5.0903789848,
				"element": "H" 
			},
			{
				"x": -3.4417275517,
				"y": 0.3023851281,
				"z": 4.7210395887,
				"element": "H" 
			},
			{
				"x": -5.0620787459,
				"y": 2.1351341453,
				"z": 4.0750309054,
				"element": "H" 
			},
			{
				"x": -6.421577873,
				"y": 1.0590860591,
				"z": 4.4471578526,
				"element": "H" 
			},
			{
				"x": -5.3410798133,
				"y": 1.6038082773,
				"z": 5.7445181343,
				"element": "H" 
			}
		],
		 "valence_orbital": [ 
			{
				"type": "occ",
				"energy": -0.30638,
				"method": "rhf"
			},
			{
				"type": "occ",
				"energy": -0.29509,
				"method": "rhf"
			},
			{
				"type": "occ",
				"energy": -0.29429,
				"method": "rhf"
			},
			{
				"type": "occ",
				"energy": -0.26473,
				"method": "rhf"
			},
			{
				"type": "occ",
				"energy": -0.26158,
				"method": "rhf"
			},
			{
				"type": "unocc",
				"energy": 0.01515,
				"method": "rhf"
			},
			{
				"type": "unocc",
				"energy": 0.01726,
				"method": "rhf"
			},
			{
				"type": "unocc",
				"energy": 0.08623,
				"method": "rhf"
			},
			{
				"type": "unocc",
				"energy": 0.0943,
				"method": "rhf"
			},
			{
				"type": "unocc",
				"energy": 0.10286,
				"method": "rhf"
			}
		],
		"cosmo_sigma_profile": { 
			"-0.025": 0.0,
			"-0.024": 0.0,
			"-0.023": 0.0,
			"-0.022": 0.0,
			"-0.021": 0.0,
			"-0.02": 0.0,
			"-0.019": 0.0,
			"-0.018": 0.0,
			"-0.017": 0.0,
			"-0.016": 0.0,
			"-0.015": 0.0,
			"-0.014": 0.0,
			"-0.013": 0.0,
			"-0.012": 0.0,
			"-0.011": 0.0,
			"-0.01": 0.0,
			"-0.009": 0.0,
			"-0.008": 0.0,
			"-0.007": 0.165846753748,
			"-0.006": 2.96026556462,
			"-0.005": 13.3256611235,
			"-0.004": 32.1490981461,
			"-0.003": 43.6165978859,
			"-0.002": 61.493729027,
			"-0.001": 57.5629962093,
			"0.0": 49.800366424,
			"0.001": 23.4405919223,
			"0.002": 10.6316934559,
			"0.003": 8.52242195882,
			"0.004": 6.59174300512,
			"0.005": 6.79114108732,
			"0.006": 6.48803550016,
			"0.007": 4.87476430353,
			"0.008": 5.05312301662,
			"0.009": 4.05797995285,
			"0.01": 3.6406460106,
			"0.011": 3.80036423771,
			"0.012": 8.77867183128,
			"0.013": 4.65021419987,
			"0.014": 0.295037227747,
			"0.015": 0.0,
			"0.016": 0.0,
			"0.017": 0.0,
			"0.018": 0.0,
			"0.019": 0.0,
			"0.02": 0.0,
			"0.021": 0.0,
			"0.022": 0.0,
			"0.023": 0.0,
			"0.024": 0.0,
			"0.025": 0.0
		}
	}
}
