{
	 "smiles": "NC(=O)NCC1=CC(F)=CC=C1", 
	 "Tm": 408.15, 
	 "num_atms": 21, 
	 "gaussian": { 
		 "optdone": 1, 
		 "sigma_profile": "yes", 
		 "theory": "DFT", 
		 "functional": "B3LYP", 
		 "basiset": "6-31G**", 
		 "properties": { 
			 "R2extent": 2601.5576, 
			 "electric_dipole_moment_norm": 4.09149866064, 
			 "electric_quadrupole_moment_norm": 12.7589975315, 
			 "total_energy": -594.862752536, 
			 "HOMO_LUMO_gap": 0.22079, 
			 "cosmo_polarized_energy": -14.59, 
			 "cosmo_cavitation_energy": 25.66, 
			 "cosmo_dispersion_energy": -18.36, 
			 "cosmo_repulsion_energy": 1.47, 
			 "cosmo_total_nonelectrostatic_energy": 8.77, 
			 "SMD_solvation_energy": 5.55 
		},
		"coords": [
			{
				"x": -1.0114877978,
				"y": -1.2626210021,
				"z": -1.4488974593,
				"element": "N" 
			},
			{
				"x": -1.3765271076,
				"y": -1.8510547344,
				"z": -0.2487034903,
				"element": "C" 
			},
			{
				"x": -2.2191737933,
				"y": -2.7338067854,
				"z": -0.1653164785,
				"element": "O" 
			},
			{
				"x": -0.6927592241,
				"y": -1.3824623682,
				"z": 0.8654437122,
				"element": "N" 
			},
			{
				"x": 0.5800821167,
				"y": -0.6771063283,
				"z": 0.8150324834,
				"element": "C" 
			},
			{
				"x": 0.4683912467,
				"y": 0.8154369188,
				"z": 0.5240407864,
				"element": "C" 
			},
			{
				"x": -0.6497942546,
				"y": 1.5450699896,
				"z": 0.9437579894,
				"element": "C" 
			},
			{
				"x": -0.6915567198,
				"y": 2.9134465848,
				"z": 0.705829667,
				"element": "C" 
			},
			{
				"x": -1.7730052818,
				"y": 3.609661691,
				"z": 1.1132153763,
				"element": "F" 
			},
			{
				"x": 0.3384321703,
				"y": 3.5907504442,
				"z": 0.0616686393,
				"element": "C" 
			},
			{
				"x": 1.4470847786,
				"y": 2.8558223883,
				"z": -0.3594612259,
				"element": "C" 
			},
			{
				"x": 1.5116437405,
				"y": 1.479064146,
				"z": -0.1357097419,
				"element": "C" 
			},
			{
				"x": -1.6511693463,
				"y": -1.4862356598,
				"z": -2.1975708583,
				"element": "H" 
			},
			{
				"x": -0.6820529304,
				"y": -0.3066214351,
				"z": -1.4386451669,
				"element": "H" 
			},
			{
				"x": -0.8787874072,
				"y": -1.9549548545,
				"z": 1.6756434049,
				"element": "H" 
			},
			{
				"x": 1.2532504301,
				"y": -1.134118524,
				"z": 0.0772983315,
				"element": "H" 
			},
			{
				"x": 1.0557474579,
				"y": -0.8075526991,
				"z": 1.7938480757,
				"element": "H" 
			},
			{
				"x": -1.4798603167,
				"y": 1.0539185766,
				"z": 1.4395177619,
				"element": "H" 
			},
			{
				"x": 0.2585805661,
				"y": 4.6593685101,
				"z": -0.1046112401,
				"element": "H" 
			},
			{
				"x": 2.2608763584,
				"y": 3.3599211178,
				"z": -0.8721642336,
				"element": "H" 
			},
			{
				"x": 2.3776853142,
				"y": 0.9161740236,
				"z": -0.4740163333,
				"element": "H" 
			}
		],
		 "valence_orbital": [ 
			{
				"type": "occ",
				"energy": -0.27119,
				"method": "rhf"
			},
			{
				"type": "occ",
				"energy": -0.26762,
				"method": "rhf"
			},
			{
				"type": "occ",
				"energy": -0.25723,
				"method": "rhf"
			},
			{
				"type": "occ",
				"energy": -0.25324,
				"method": "rhf"
			},
			{
				"type": "occ",
				"energy": -0.24335,
				"method": "rhf"
			},
			{
				"type": "unocc",
				"energy": -0.02256,
				"method": "rhf"
			},
			{
				"type": "unocc",
				"energy": -0.00992,
				"method": "rhf"
			},
			{
				"type": "unocc",
				"energy": 0.05506,
				"method": "rhf"
			},
			{
				"type": "unocc",
				"energy": 0.07644,
				"method": "rhf"
			},
			{
				"type": "unocc",
				"energy": 0.08647,
				"method": "rhf"
			}
		],
		"cosmo_sigma_profile": { 
			"-0.025": 0.0,
			"-0.024": 0.0,
			"-0.023": 0.0,
			"-0.022": 0.0,
			"-0.021": 0.0,
			"-0.02": 0.0,
			"-0.019": 0.0,
			"-0.018": 0.0,
			"-0.017": 0.0,
			"-0.016": 0.0,
			"-0.015": 0.0,
			"-0.014": 0.201660469837,
			"-0.013": 1.7586944145,
			"-0.012": 2.52262076583,
			"-0.011": 2.72113586041,
			"-0.01": 3.06224030591,
			"-0.009": 2.91700193645,
			"-0.008": 3.00269251421,
			"-0.007": 6.01958551486,
			"-0.006": 12.7401520662,
			"-0.005": 13.6566937645,
			"-0.004": 15.3805664931,
			"-0.003": 11.6343889121,
			"-0.002": 11.8276995509,
			"-0.001": 10.9133287502,
			"0.0": 11.6454860884,
			"0.001": 15.244703384,
			"0.002": 13.8222775403,
			"0.003": 13.6719798702,
			"0.004": 17.1228300508,
			"0.005": 9.14380458706,
			"0.006": 1.98577210677,
			"0.007": 2.13216149574,
			"0.008": 1.2098367193,
			"0.009": 2.23869027228,
			"0.01": 1.14746218542,
			"0.011": 1.69251988439,
			"0.012": 1.8737667695,
			"0.013": 2.20478233533,
			"0.014": 5.23112981787,
			"0.015": 4.69576928492,
			"0.016": 0.202812833739,
			"0.017": 0.0,
			"0.018": 0.0,
			"0.019": 0.0,
			"0.02": 0.0,
			"0.021": 0.0,
			"0.022": 0.0,
			"0.023": 0.0,
			"0.024": 0.0,
			"0.025": 0.0
		}
	}
}
