{
	 "smiles": "N#CC1=CC=C(C=C1)N1C=CN=C1", 
	 "Tm": 425.15, 
	 "num_atms": 20, 
	 "gaussian": { 
		 "optdone": 1, 
		 "sigma_profile": "yes", 
		 "theory": "DFT", 
		 "functional": "B3LYP", 
		 "basiset": "6-31G**", 
		 "properties": { 
			 "R2extent": 3120.6878, 
			 "electric_dipole_moment_norm": 2.16149782558, 
			 "electric_quadrupole_moment_norm": 35.1111369953, 
			 "total_energy": -549.505894144, 
			 "HOMO_LUMO_gap": 0.1743, 
			 "cosmo_polarized_energy": -15.72, 
			 "cosmo_cavitation_energy": 25.7, 
			 "cosmo_dispersion_energy": -18.52, 
			 "cosmo_repulsion_energy": 1.41, 
			 "cosmo_total_nonelectrostatic_energy": 8.59, 
			 "SMD_solvation_energy": 5.01 
		},
		"coords": [
			{
				"x": 4.5421873116,
				"y": -0.3794459674,
				"z": 0.058555462,
				"element": "N" 
			},
			{
				"x": 3.3800481776,
				"y": -0.3911191147,
				"z": 0.1131840904,
				"element": "C" 
			},
			{
				"x": 1.9496496308,
				"y": -0.4054647209,
				"z": 0.1799659719,
				"element": "C" 
			},
			{
				"x": 1.1887825335,
				"y": -0.8348392928,
				"z": -0.9196530419,
				"element": "C" 
			},
			{
				"x": -0.1977591971,
				"y": -0.8489419294,
				"z": -0.8553768009,
				"element": "C" 
			},
			{
				"x": -0.8621625901,
				"y": -0.433812069,
				"z": 0.3109700301,
				"element": "C" 
			},
			{
				"x": -0.1007082498,
				"y": -0.004771842,
				"z": 1.4097787993,
				"element": "C" 
			},
			{
				"x": 1.2865034856,
				"y": 0.0093618893,
				"z": 1.3455208038,
				"element": "C" 
			},
			{
				"x": -2.2742486276,
				"y": -0.4473332208,
				"z": 0.3782862217,
				"element": "N" 
			},
			{
				"x": -3.072206837,
				"y": -0.0684777473,
				"z": 1.4559854519,
				"element": "C" 
			},
			{
				"x": -4.3632765702,
				"y": -0.254170143,
				"z": 1.0507906502,
				"element": "C" 
			},
			{
				"x": -4.4078354727,
				"y": -0.7360086072,
				"z": -0.2425160718,
				"element": "N" 
			},
			{
				"x": -3.1577349718,
				"y": -0.8398513351,
				"z": -0.6132659667,
				"element": "C" 
			},
			{
				"x": 1.6897069243,
				"y": -1.1577979915,
				"z": -1.8258397252,
				"element": "H" 
			},
			{
				"x": -0.7543902962,
				"y": -1.1856427945,
				"z": -1.7206373778,
				"element": "H" 
			},
			{
				"x": -0.5836577664,
				"y": 0.3209579027,
				"z": 2.3222123616,
				"element": "H" 
			},
			{
				"x": 1.8628489502,
				"y": 0.343174602,
				"z": 2.2015802698,
				"element": "H" 
			},
			{
				"x": -2.6643407693,
				"y": 0.2883067011,
				"z": 2.3860537509,
				"element": "H" 
			},
			{
				"x": -5.2665146698,
				"y": -0.0689873532,
				"z": 1.6150713751,
				"element": "H" 
			},
			{
				"x": -2.8278909956,
				"y": -1.1898369662,
				"z": -1.5790662545,
				"element": "H" 
			}
		],
		 "valence_orbital": [ 
			{
				"type": "occ",
				"energy": -0.3166,
				"method": "rhf"
			},
			{
				"type": "occ",
				"energy": -0.2924,
				"method": "rhf"
			},
			{
				"type": "occ",
				"energy": -0.28222,
				"method": "rhf"
			},
			{
				"type": "occ",
				"energy": -0.25865,
				"method": "rhf"
			},
			{
				"type": "occ",
				"energy": -0.24274,
				"method": "rhf"
			},
			{
				"type": "unocc",
				"energy": -0.06844,
				"method": "rhf"
			},
			{
				"type": "unocc",
				"energy": -0.04036,
				"method": "rhf"
			},
			{
				"type": "unocc",
				"energy": 0.00984,
				"method": "rhf"
			},
			{
				"type": "unocc",
				"energy": 0.02901,
				"method": "rhf"
			},
			{
				"type": "unocc",
				"energy": 0.05558,
				"method": "rhf"
			}
		],
		"cosmo_sigma_profile": { 
			"-0.025": 0.0,
			"-0.024": 0.0,
			"-0.023": 0.0,
			"-0.022": 0.0,
			"-0.021": 0.0,
			"-0.02": 0.0,
			"-0.019": 0.0,
			"-0.018": 0.0,
			"-0.017": 0.0,
			"-0.016": 0.0,
			"-0.015": 0.0,
			"-0.014": 0.0,
			"-0.013": 0.0,
			"-0.012": 0.619431122156,
			"-0.011": 3.67618183542,
			"-0.01": 3.92490145044,
			"-0.009": 4.38773244669,
			"-0.008": 9.32546750573,
			"-0.007": 12.1460773555,
			"-0.006": 10.3938027027,
			"-0.005": 8.37043013918,
			"-0.004": 10.6256066568,
			"-0.003": 10.2105791933,
			"-0.002": 12.7007560903,
			"-0.001": 17.339180143,
			"0.0": 15.6690058024,
			"0.001": 19.1044517705,
			"0.002": 12.1017897482,
			"0.003": 7.03830846311,
			"0.004": 8.00274140091,
			"0.005": 5.92074381303,
			"0.006": 3.72406700379,
			"0.007": 5.14018004718,
			"0.008": 4.90112728124,
			"0.009": 5.82084184942,
			"0.01": 3.82721521121,
			"0.011": 4.22932990951,
			"0.012": 2.9786903805,
			"0.013": 2.6575738028,
			"0.014": 1.4021935238,
			"0.015": 0.877955626948,
			"0.016": 1.23529768886,
			"0.017": 0.810530207502,
			"0.018": 0.208292521815,
			"0.019": 0.0,
			"0.02": 0.0,
			"0.021": 0.0,
			"0.022": 0.0,
			"0.023": 0.0,
			"0.024": 0.0,
			"0.025": 0.0
		}
	}
}
