{
	 "smiles": "OC(=O)C1=CC=C(NS(=O)(=O)C(F)(F)F)C=C1", 
	 "Tm": 500.15, 
	 "num_atms": 23, 
	 "gaussian": { 
		 "optdone": 1, 
		 "sigma_profile": "yes", 
		 "theory": "DFT", 
		 "functional": "B3LYP", 
		 "basiset": "6-31G**", 
		 "properties": { 
			 "R2extent": 6480.8453, 
			 "electric_dipole_moment_norm": 4.08169486121, 
			 "electric_quadrupole_moment_norm": 26.0137630238, 
			 "total_energy": -1361.74060442, 
			 "HOMO_LUMO_gap": 0.1994, 
			 "cosmo_polarized_energy": -21.79, 
			 "cosmo_cavitation_energy": 31.41, 
			 "cosmo_dispersion_energy": -22.7, 
			 "cosmo_repulsion_energy": 1.64, 
			 "cosmo_total_nonelectrostatic_energy": 10.35, 
			 "SMD_solvation_energy": 6.95 
		},
		"coords": [
			{
				"x": -4.7018604223,
				"y": 0.7038932855,
				"z": 0.5582617687,
				"element": "O" 
			},
			{
				"x": -3.5506123005,
				"y": 0.1118843362,
				"z": 0.9771208931,
				"element": "C" 
			},
			{
				"x": -3.5179085714,
				"y": -0.4615195396,
				"z": 2.0400783266,
				"element": "O" 
			},
			{
				"x": -2.3679938729,
				"y": 0.2118339009,
				"z": 0.0628323285,
				"element": "C" 
			},
			{
				"x": -1.0962398434,
				"y": -0.0013439424,
				"z": 0.6129540483,
				"element": "C" 
			},
			{
				"x": 0.0448852177,
				"y": 0.0535046422,
				"z": -0.1760532172,
				"element": "C" 
			},
			{
				"x": -0.0731977496,
				"y": 0.3320967732,
				"z": -1.5444818452,
				"element": "C" 
			},
			{
				"x": 1.0628989641,
				"y": 0.3536217799,
				"z": -2.3991220067,
				"element": "N" 
			},
			{
				"x": 2.4810697496,
				"y": 1.209922468,
				"z": -2.0852889583,
				"element": "S" 
			},
			{
				"x": 2.9309089269,
				"y": 1.7421186843,
				"z": -3.366107989,
				"element": "O" 
			},
			{
				"x": 2.3473259329,
				"y": 2.0060768211,
				"z": -0.8746611317,
				"element": "O" 
			},
			{
				"x": 3.6492617804,
				"y": -0.1868295619,
				"z": -1.6684596207,
				"element": "C" 
			},
			{
				"x": 3.2089328959,
				"y": -0.8413580013,
				"z": -0.5894012976,
				"element": "F" 
			},
			{
				"x": 3.727314791,
				"y": -1.0290127932,
				"z": -2.6966785382,
				"element": "F" 
			},
			{
				"x": 4.8489517343,
				"y": 0.3292927353,
				"z": -1.4155299489,
				"element": "F" 
			},
			{
				"x": -1.3384639793,
				"y": 0.5300356924,
				"z": -2.1101903361,
				"element": "C" 
			},
			{
				"x": -2.4761382458,
				"y": 0.4603747147,
				"z": -1.3115121717,
				"element": "C" 
			},
			{
				"x": -4.529598776,
				"y": 1.2719142032,
				"z": -0.2051353668,
				"element": "H" 
			},
			{
				"x": -1.0236466084,
				"y": -0.224941318,
				"z": 1.6715922323,
				"element": "H" 
			},
			{
				"x": 1.0188088081,
				"y": -0.1227758141,
				"z": 0.261860934,
				"element": "H" 
			},
			{
				"x": 0.8666753703,
				"y": 0.3963996966,
				"z": -3.3942721471,
				"element": "H" 
			},
			{
				"x": -1.433097344,
				"y": 0.7318391466,
				"z": -3.1736056937,
				"element": "H" 
			},
			{
				"x": -3.4478764578,
				"y": 0.5753720903,
				"z": -1.7848002626,
				"element": "H" 
			}
		],
		 "valence_orbital": [ 
			{
				"type": "occ",
				"energy": -0.34196,
				"method": "rhf"
			},
			{
				"type": "occ",
				"energy": -0.32154,
				"method": "rhf"
			},
			{
				"type": "occ",
				"energy": -0.28725,
				"method": "rhf"
			},
			{
				"type": "occ",
				"energy": -0.28069,
				"method": "rhf"
			},
			{
				"type": "occ",
				"energy": -0.26192,
				"method": "rhf"
			},
			{
				"type": "unocc",
				"energy": -0.06252,
				"method": "rhf"
			},
			{
				"type": "unocc",
				"energy": -0.0376,
				"method": "rhf"
			},
			{
				"type": "unocc",
				"energy": 0.01763,
				"method": "rhf"
			},
			{
				"type": "unocc",
				"energy": 0.02812,
				"method": "rhf"
			},
			{
				"type": "unocc",
				"energy": 0.0314,
				"method": "rhf"
			}
		],
		"cosmo_sigma_profile": { 
			"-0.025": 0.0,
			"-0.024": 0.0,
			"-0.023": 0.0,
			"-0.022": 0.0,
			"-0.021": 0.0,
			"-0.02": 0.0,
			"-0.019": 0.273430470478,
			"-0.018": 1.02368294444,
			"-0.017": 2.36264257947,
			"-0.016": 2.06468209457,
			"-0.015": 2.49022457327,
			"-0.014": 1.82679844036,
			"-0.013": 1.63899674565,
			"-0.012": 3.07832243527,
			"-0.011": 2.29130992278,
			"-0.01": 2.24614660504,
			"-0.009": 3.55440618248,
			"-0.008": 4.63029978336,
			"-0.007": 6.70636311747,
			"-0.006": 9.07252112661,
			"-0.005": 7.68602665732,
			"-0.004": 8.68773897745,
			"-0.003": 10.7976599011,
			"-0.002": 16.3100467854,
			"-0.001": 22.2745005136,
			"0.0": 29.7895024617,
			"0.001": 25.0599486549,
			"0.002": 17.5754902588,
			"0.003": 9.32489043599,
			"0.004": 5.52489721975,
			"0.005": 4.45289722283,
			"0.006": 6.10108935728,
			"0.007": 6.60184338474,
			"0.008": 12.8259026305,
			"0.009": 9.7939661218,
			"0.01": 5.44965828453,
			"0.011": 5.04352410697,
			"0.012": 4.59314778766,
			"0.013": 1.45196341087,
			"0.014": 0.0591414427211,
			"0.015": 0.0,
			"0.016": 0.0,
			"0.017": 0.0,
			"0.018": 0.0,
			"0.019": 0.0,
			"0.02": 0.0,
			"0.021": 0.0,
			"0.022": 0.0,
			"0.023": 0.0,
			"0.024": 0.0,
			"0.025": 0.0
		}
	}
}
