{
	 "smiles": "CCCCCCCCNC(=S)NN", 
	 "Tm": 321.15, 
	 "num_atms": 34, 
	 "gaussian": { 
		 "optdone": 1, 
		 "sigma_profile": "yes", 
		 "theory": "DFT", 
		 "functional": "B3LYP", 
		 "basiset": "6-31G**", 
		 "properties": { 
			 "R2extent": 7014.7726, 
			 "electric_dipole_moment_norm": 5.651772, 
			 "electric_quadrupole_moment_norm": 48.0997797534, 
			 "total_energy": -918.054293259, 
			 "HOMO_LUMO_gap": 0.19487, 
			 "cosmo_polarized_energy": -17.61, 
			 "cosmo_cavitation_energy": 37.17, 
			 "cosmo_dispersion_energy": -26.5, 
			 "cosmo_repulsion_energy": 2.17, 
			 "cosmo_total_nonelectrostatic_energy": 12.84, 
			 "SMD_solvation_energy": 4.47 
		},
		"coords": [
			{
				"x": -2.0477989127,
				"y": 4.0540630416,
				"z": 0.4046343942,
				"element": "C" 
			},
			{
				"x": -1.9262722921,
				"y": 3.0471510979,
				"z": -0.7455071705,
				"element": "C" 
			},
			{
				"x": -1.9195684818,
				"y": 1.5739594266,
				"z": -0.305048504,
				"element": "C" 
			},
			{
				"x": -0.6993473829,
				"y": 1.1583322514,
				"z": 0.5293634838,
				"element": "C" 
			},
			{
				"x": -0.7014290984,
				"y": -0.3353407386,
				"z": 0.8844552329,
				"element": "C" 
			},
			{
				"x": 0.4471082738,
				"y": -0.7799383894,
				"z": 1.8080955695,
				"element": "C" 
			},
			{
				"x": 1.8714042724,
				"y": -0.6047876274,
				"z": 1.2535217542,
				"element": "C" 
			},
			{
				"x": 2.1548569342,
				"y": -1.451511564,
				"z": 0.0090050852,
				"element": "C" 
			},
			{
				"x": 3.5475689081,
				"y": -1.2564889827,
				"z": -0.4105393098,
				"element": "N" 
			},
			{
				"x": 4.3531091262,
				"y": -2.1100027568,
				"z": -1.0788011962,
				"element": "C" 
			},
			{
				"x": 6.036302887,
				"y": -1.9788284582,
				"z": -1.0328787334,
				"element": "S" 
			},
			{
				"x": 3.7792490338,
				"y": -3.1423980202,
				"z": -1.7897430925,
				"element": "N" 
			},
			{
				"x": 2.5227574687,
				"y": -2.9713685213,
				"z": -2.414627982,
				"element": "N" 
			},
			{
				"x": -2.9536918955,
				"y": 3.8710561734,
				"z": 0.9945491283,
				"element": "H" 
			},
			{
				"x": -2.1010899422,
				"y": 5.0799151619,
				"z": 0.0255582767,
				"element": "H" 
			},
			{
				"x": -1.1930938533,
				"y": 4.0022017314,
				"z": 1.0868966208,
				"element": "H" 
			},
			{
				"x": -2.7613258098,
				"y": 3.2000755471,
				"z": -1.4410730705,
				"element": "H" 
			},
			{
				"x": -1.0129570698,
				"y": 3.2561122952,
				"z": -1.3195502958,
				"element": "H" 
			},
			{
				"x": -1.9667163498,
				"y": 0.9379278186,
				"z": -1.1997392422,
				"element": "H" 
			},
			{
				"x": -2.8362187039,
				"y": 1.3627662392,
				"z": 0.2645792971,
				"element": "H" 
			},
			{
				"x": 0.2128003965,
				"y": 1.4115127601,
				"z": -0.0284507847,
				"element": "H" 
			},
			{
				"x": -0.6617150062,
				"y": 1.74446573,
				"z": 1.4573601464,
				"element": "H" 
			},
			{
				"x": -0.6943720531,
				"y": -0.9281853902,
				"z": -0.0401567951,
				"element": "H" 
			},
			{
				"x": -1.6497503341,
				"y": -0.5777175457,
				"z": 1.382755158,
				"element": "H" 
			},
			{
				"x": 0.3006767933,
				"y": -1.8356738233,
				"z": 2.073205059,
				"element": "H" 
			},
			{
				"x": 0.377267719,
				"y": -0.2209272907,
				"z": 2.7503022943,
				"element": "H" 
			},
			{
				"x": 2.0556318012,
				"y": 0.4520799259,
				"z": 1.0189188741,
				"element": "H" 
			},
			{
				"x": 2.5897200491,
				"y": -0.878515195,
				"z": 2.0369673957,
				"element": "H" 
			},
			{
				"x": 1.478474152,
				"y": -1.1935103381,
				"z": -0.8094544516,
				"element": "H" 
			},
			{
				"x": 1.9916599319,
				"y": -2.5126499434,
				"z": 0.2316060625,
				"element": "H" 
			},
			{
				"x": 4.0752987515,
				"y": -0.5558340307,
				"z": 0.091868118,
				"element": "H" 
			},
			{
				"x": 4.4863970806,
				"y": -3.6735987063,
				"z": -2.2886745682,
				"element": "H" 
			},
			{
				"x": 2.6505090325,
				"y": -2.704133375,
				"z": -3.3900005428,
				"element": "H" 
			},
			{
				"x": 2.0220545736,
				"y": -3.8545085032,
				"z": -2.3833962117,
				"element": "H" 
			}
		],
		 "valence_orbital": [ 
			{
				"type": "occ",
				"energy": -0.30876,
				"method": "rhf"
			},
			{
				"type": "occ",
				"energy": -0.28302,
				"method": "rhf"
			},
			{
				"type": "occ",
				"energy": -0.26116,
				"method": "rhf"
			},
			{
				"type": "occ",
				"energy": -0.20574,
				"method": "rhf"
			},
			{
				"type": "occ",
				"energy": -0.19448,
				"method": "rhf"
			},
			{
				"type": "unocc",
				"energy": 0.00039,
				"method": "rhf"
			},
			{
				"type": "unocc",
				"energy": 0.05638,
				"method": "rhf"
			},
			{
				"type": "unocc",
				"energy": 0.0743,
				"method": "rhf"
			},
			{
				"type": "unocc",
				"energy": 0.0844,
				"method": "rhf"
			},
			{
				"type": "unocc",
				"energy": 0.09278,
				"method": "rhf"
			}
		],
		"cosmo_sigma_profile": { 
			"-0.025": 0.0,
			"-0.024": 0.0,
			"-0.023": 0.0,
			"-0.022": 0.0,
			"-0.021": 0.0,
			"-0.02": 0.0,
			"-0.019": 0.0,
			"-0.018": 0.0,
			"-0.017": 0.0,
			"-0.016": 0.0,
			"-0.015": 0.0,
			"-0.014": 0.0503482808581,
			"-0.013": 1.05567212058,
			"-0.012": 5.28449639016,
			"-0.011": 6.10609750366,
			"-0.01": 5.81183473087,
			"-0.009": 5.27942321642,
			"-0.008": 3.52303545525,
			"-0.007": 2.51150125507,
			"-0.006": 3.30676362904,
			"-0.005": 3.16403120729,
			"-0.004": 6.75634693152,
			"-0.003": 16.3785961086,
			"-0.002": 37.0527934656,
			"-0.001": 42.9452852073,
			"0.0": 43.5645303086,
			"0.001": 35.3083895184,
			"0.002": 15.116731191,
			"0.003": 3.9736171498,
			"0.004": 4.67197717606,
			"0.005": 5.72433385743,
			"0.006": 5.81197876631,
			"0.007": 5.84102492241,
			"0.008": 3.33159444306,
			"0.009": 3.95379256459,
			"0.01": 4.5845084595,
			"0.011": 6.07226647311,
			"0.012": 7.96524045926,
			"0.013": 3.91635754327,
			"0.014": 0.123791979977,
			"0.015": 0.0,
			"0.016": 0.0,
			"0.017": 0.0,
			"0.018": 0.0,
			"0.019": 0.0,
			"0.02": 0.0,
			"0.021": 0.0,
			"0.022": 0.0,
			"0.023": 0.0,
			"0.024": 0.0,
			"0.025": 0.0
		}
	}
}
