{
	 "smiles": "CC1=C(C=C(O1)C(N)=O)C(=O)CCl", 
	 "Tm": 471.15, 
	 "num_atms": 21, 
	 "gaussian": { 
		 "optdone": 1, 
		 "sigma_profile": "yes", 
		 "theory": "DFT", 
		 "functional": "B3LYP", 
		 "basiset": "6-31G**", 
		 "properties": { 
			 "R2extent": 3605.6412, 
			 "electric_dipole_moment_norm": 2.48149684263, 
			 "electric_quadrupole_moment_norm": 19.5896370474, 
			 "total_energy": -1050.28590606, 
			 "HOMO_LUMO_gap": 0.17824, 
			 "cosmo_polarized_energy": -18.3, 
			 "cosmo_cavitation_energy": 28.09, 
			 "cosmo_dispersion_energy": -20.24, 
			 "cosmo_repulsion_energy": 1.65, 
			 "cosmo_total_nonelectrostatic_energy": 9.5, 
			 "SMD_solvation_energy": 6.62 
		},
		"coords": [
			{
				"x": -1.4875642419,
				"y": 1.3407351596,
				"z": -1.70107052,
				"element": "C" 
			},
			{
				"x": -0.7017159588,
				"y": 0.712255746,
				"z": -0.6087077431,
				"element": "C" 
			},
			{
				"x": -0.5631122808,
				"y": 0.9822273601,
				"z": 0.7446220989,
				"element": "C" 
			},
			{
				"x": 0.3584044732,
				"y": -0.0001926825,
				"z": 1.2469463211,
				"element": "C" 
			},
			{
				"x": 0.7118839711,
				"y": -0.7825971124,
				"z": 0.188644557,
				"element": "C" 
			},
			{
				"x": 0.0596217137,
				"y": -0.3484779016,
				"z": -0.9407631166,
				"element": "O" 
			},
			{
				"x": 1.5857757674,
				"y": -1.9675957676,
				"z": 0.0193423533,
				"element": "C" 
			},
			{
				"x": 2.4174095454,
				"y": -2.2146956157,
				"z": 1.0880299986,
				"element": "N" 
			},
			{
				"x": 1.5336429817,
				"y": -2.6840227761,
				"z": -0.9684512805,
				"element": "O" 
			},
			{
				"x": -1.2642836458,
				"y": 2.0407877527,
				"z": 1.4836149859,
				"element": "C" 
			},
			{
				"x": -2.0601735833,
				"y": 2.8122213781,
				"z": 0.9652185567,
				"element": "O" 
			},
			{
				"x": -1.0264731525,
				"y": 2.1532696076,
				"z": 2.993338666,
				"element": "C" 
			},
			{
				"x": 0.6782489416,
				"y": 2.6412219955,
				"z": 3.3878690634,
				"element": "Cl" 
			},
			{
				"x": -2.0840920427,
				"y": 2.1558514122,
				"z": -1.2947534248,
				"element": "H" 
			},
			{
				"x": -2.1432249438,
				"y": 0.6013876636,
				"z": -2.1738476049,
				"element": "H" 
			},
			{
				"x": -0.8192925909,
				"y": 1.7289917878,
				"z": -2.4780794603,
				"element": "H" 
			},
			{
				"x": 0.7004802956,
				"y": -0.1059697608,
				"z": 2.2656678111,
				"element": "H" 
			},
			{
				"x": 3.0883685747,
				"y": -2.9561351734,
				"z": 0.9456229204,
				"element": "H" 
			},
			{
				"x": 2.696535646,
				"y": -1.4612385917,
				"z": 1.6979722043,
				"element": "H" 
			},
			{
				"x": -1.2099600998,
				"y": 1.2042088446,
				"z": 3.5022572556,
				"element": "H" 
			},
			{
				"x": -1.68367937,
				"y": 2.9280666741,
				"z": 3.3834263579,
				"element": "H" 
			}
		],
		 "valence_orbital": [ 
			{
				"type": "occ",
				"energy": -0.30057,
				"method": "rhf"
			},
			{
				"type": "occ",
				"energy": -0.28198,
				"method": "rhf"
			},
			{
				"type": "occ",
				"energy": -0.2699,
				"method": "rhf"
			},
			{
				"type": "occ",
				"energy": -0.26084,
				"method": "rhf"
			},
			{
				"type": "occ",
				"energy": -0.24745,
				"method": "rhf"
			},
			{
				"type": "unocc",
				"energy": -0.06921,
				"method": "rhf"
			},
			{
				"type": "unocc",
				"energy": -0.04275,
				"method": "rhf"
			},
			{
				"type": "unocc",
				"energy": 0.0115,
				"method": "rhf"
			},
			{
				"type": "unocc",
				"energy": 0.05806,
				"method": "rhf"
			},
			{
				"type": "unocc",
				"energy": 0.07922,
				"method": "rhf"
			}
		],
		"cosmo_sigma_profile": { 
			"-0.025": 0.0,
			"-0.024": 0.0,
			"-0.023": 0.0,
			"-0.022": 0.0,
			"-0.021": 0.0,
			"-0.02": 0.0,
			"-0.019": 0.0,
			"-0.018": 0.0,
			"-0.017": 0.0,
			"-0.016": 0.0,
			"-0.015": 0.257120680181,
			"-0.014": 2.19896081399,
			"-0.013": 2.59216283377,
			"-0.012": 2.86107439777,
			"-0.011": 2.37685766617,
			"-0.01": 3.50985942771,
			"-0.009": 6.7579222735,
			"-0.008": 6.95642125307,
			"-0.007": 6.90256202308,
			"-0.006": 10.886495524,
			"-0.005": 9.88279211438,
			"-0.004": 9.78196437677,
			"-0.003": 12.7776012376,
			"-0.002": 15.5517165234,
			"-0.001": 19.3332599986,
			"0.0": 15.0516532848,
			"0.001": 14.7706083684,
			"0.002": 10.0390838402,
			"0.003": 10.3104251702,
			"0.004": 10.6726680138,
			"0.005": 11.0875506738,
			"0.006": 6.76009261132,
			"0.007": 4.42745661553,
			"0.008": 3.86679213581,
			"0.009": 4.08748626824,
			"0.01": 4.05604660444,
			"0.011": 4.87999168973,
			"0.012": 4.00369166317,
			"0.013": 6.25763551822,
			"0.014": 2.95166043944,
			"0.015": 0.092138316897,
			"0.016": 0.0,
			"0.017": 0.0,
			"0.018": 0.0,
			"0.019": 0.0,
			"0.02": 0.0,
			"0.021": 0.0,
			"0.022": 0.0,
			"0.023": 0.0,
			"0.024": 0.0,
			"0.025": 0.0
		}
	}
}
