{
	 "smiles": "OP(O)(=O)CCCCP(O)(O)=O", 
	 "Tm": 493.15, 
	 "num_atms": 24, 
	 "gaussian": { 
		 "optdone": 1, 
		 "sigma_profile": "yes", 
		 "theory": "DFT", 
		 "functional": "B3LYP", 
		 "basiset": "6-31G**", 
		 "properties": { 
			 "R2extent": 3214.6548, 
			 "electric_dipole_moment_norm": 3.81443569221, 
			 "electric_quadrupole_moment_norm": 23.8305489171, 
			 "total_energy": -1293.86124531, 
			 "HOMO_LUMO_gap": 0.29117, 
			 "cosmo_polarized_energy": -29.45, 
			 "cosmo_cavitation_energy": 29.26, 
			 "cosmo_dispersion_energy": -21.89, 
			 "cosmo_repulsion_energy": 1.73, 
			 "cosmo_total_nonelectrostatic_energy": 9.1, 
			 "SMD_solvation_energy": 8.8 
		},
		"coords": [
			{
				"x": -0.3919061212,
				"y": 2.3478249636,
				"z": -1.1902991422,
				"element": "O" 
			},
			{
				"x": 1.1789711127,
				"y": 1.9598702094,
				"z": -1.2543058551,
				"element": "P" 
			},
			{
				"x": 1.4507947225,
				"y": 1.4653343874,
				"z": -2.7871657949,
				"element": "O" 
			},
			{
				"x": 2.0617080527,
				"y": 3.0699471662,
				"z": -0.8209338034,
				"element": "O" 
			},
			{
				"x": 1.2678872438,
				"y": 0.3717509564,
				"z": -0.3730349063,
				"element": "C" 
			},
			{
				"x": 0.8063681775,
				"y": 0.4654844109,
				"z": 1.095947305,
				"element": "C" 
			},
			{
				"x": 0.4172323615,
				"y": -0.8966542807,
				"z": 1.7111816873,
				"element": "C" 
			},
			{
				"x": -1.0885429487,
				"y": -1.2392043866,
				"z": 1.6877956107,
				"element": "C" 
			},
			{
				"x": -1.9644354361,
				"y": -1.4635625916,
				"z": 0.1160868875,
				"element": "P" 
			},
			{
				"x": -2.0301359262,
				"y": 0.0314881425,
				"z": -0.5883939062,
				"element": "O" 
			},
			{
				"x": -0.8769298438,
				"y": -2.2630006087,
				"z": -0.7820124381,
				"element": "O" 
			},
			{
				"x": -3.3195478514,
				"y": -2.0650352894,
				"z": 0.1801058042,
				"element": "O" 
			},
			{
				"x": -0.9639864713,
				"y": 1.5615544278,
				"z": -1.1178876602,
				"element": "H" 
			},
			{
				"x": 1.8849589299,
				"y": 2.1765164185,
				"z": -3.2804536203,
				"element": "H" 
			},
			{
				"x": 2.3008078471,
				"y": 0.0137670566,
				"z": -0.4318115103,
				"element": "H" 
			},
			{
				"x": 0.6634523955,
				"y": -0.3437311255,
				"z": -0.9398583622,
				"element": "H" 
			},
			{
				"x": -0.0398670653,
				"y": 1.1564481304,
				"z": 1.179430542,
				"element": "H" 
			},
			{
				"x": 1.6141861114,
				"y": 0.9149150189,
				"z": 1.6809242538,
				"element": "H" 
			},
			{
				"x": 0.7070182636,
				"y": -0.9082896159,
				"z": 2.7678151659,
				"element": "H" 
			},
			{
				"x": 0.9807477907,
				"y": -1.7043834845,
				"z": 1.231767439,
				"element": "H" 
			},
			{
				"x": -1.6632539248,
				"y": -0.4794203258,
				"z": 2.2305809114,
				"element": "H" 
			},
			{
				"x": -1.2580833616,
				"y": -2.1865418969,
				"z": 2.2128700615,
				"element": "H" 
			},
			{
				"x": -2.960753488,
				"y": 0.2183813824,
				"z": -0.7890266995,
				"element": "H" 
			},
			{
				"x": -1.3011905705,
				"y": -2.7294590656,
				"z": -1.5178219696,
				"element": "H" 
			}
		],
		 "valence_orbital": [ 
			{
				"type": "occ",
				"energy": -0.32099,
				"method": "rhf"
			},
			{
				"type": "occ",
				"energy": -0.31128,
				"method": "rhf"
			},
			{
				"type": "occ",
				"energy": -0.30584,
				"method": "rhf"
			},
			{
				"type": "occ",
				"energy": -0.27522,
				"method": "rhf"
			},
			{
				"type": "occ",
				"energy": -0.27331,
				"method": "rhf"
			},
			{
				"type": "unocc",
				"energy": 0.01786,
				"method": "rhf"
			},
			{
				"type": "unocc",
				"energy": 0.04807,
				"method": "rhf"
			},
			{
				"type": "unocc",
				"energy": 0.06314,
				"method": "rhf"
			},
			{
				"type": "unocc",
				"energy": 0.06888,
				"method": "rhf"
			},
			{
				"type": "unocc",
				"energy": 0.08832,
				"method": "rhf"
			}
		],
		"cosmo_sigma_profile": { 
			"-0.025": 0.0,
			"-0.024": 0.0,
			"-0.023": 0.0,
			"-0.022": 0.0,
			"-0.021": 0.0,
			"-0.02": 0.128352533749,
			"-0.019": 1.61310923112,
			"-0.018": 3.2037551741,
			"-0.017": 2.47079717614,
			"-0.016": 2.26157172116,
			"-0.015": 2.0520726191,
			"-0.014": 2.37962151421,
			"-0.013": 2.1581948642,
			"-0.012": 2.43084369048,
			"-0.011": 2.77710054066,
			"-0.01": 2.83023600808,
			"-0.009": 2.51261651925,
			"-0.008": 3.32716740688,
			"-0.007": 7.78220883848,
			"-0.006": 10.651501023,
			"-0.005": 11.0761260335,
			"-0.004": 18.0054080333,
			"-0.003": 20.2831377972,
			"-0.002": 14.0832940975,
			"-0.001": 14.5043103113,
			"0.0": 8.44047749498,
			"0.001": 8.08915251756,
			"0.002": 7.03876442789,
			"0.003": 5.9161150953,
			"0.004": 4.16053375551,
			"0.005": 3.84829537663,
			"0.006": 4.46244274661,
			"0.007": 4.89103675058,
			"0.008": 5.75637626382,
			"0.009": 4.11772317708,
			"0.01": 4.82161349437,
			"0.011": 5.39208590137,
			"0.012": 3.94195737962,
			"0.013": 3.5686680736,
			"0.014": 8.31882403591,
			"0.015": 11.9122434822,
			"0.016": 1.83314235756,
			"0.017": 0.0,
			"0.018": 0.0,
			"0.019": 0.0,
			"0.02": 0.0,
			"0.021": 0.0,
			"0.022": 0.0,
			"0.023": 0.0,
			"0.024": 0.0,
			"0.025": 0.0
		}
	}
}
