{
	 "smiles": "CC1CC2C3CC(F)C4=CC(=O)C=CC4(C)C3C(O)CC2(C)C1C(=O)CO", 
	 "Tm": 461.15, 
	 "num_atms": 56, 
	 "gaussian": { 
		 "optdone": 1, 
		 "sigma_profile": "yes", 
		 "theory": "DFT", 
		 "functional": "B3LYP", 
		 "basiset": "6-31G**", 
		 "properties": { 
			 "R2extent": 10503.5975, 
			 "electric_dipole_moment_norm": 9.36241613741, 
			 "electric_quadrupole_moment_norm": 29.4399328576, 
			 "total_energy": -1256.50620049, 
			 "HOMO_LUMO_gap": 0.1745, 
			 "cosmo_polarized_energy": -21.32, 
			 "cosmo_cavitation_energy": 50.26, 
			 "cosmo_dispersion_energy": -33.98, 
			 "cosmo_repulsion_energy": 2.5, 
			 "cosmo_total_nonelectrostatic_energy": 18.77, 
			 "SMD_solvation_energy": 9.41 
		},
		"coords": [
			{
				"x": -3.1900947661,
				"y": 2.6006068862,
				"z": -2.1064801759,
				"element": "C" 
			},
			{
				"x": -2.2861120388,
				"y": 2.422695482,
				"z": -0.8839303699,
				"element": "C" 
			},
			{
				"x": -2.4073330274,
				"y": 1.0731946627,
				"z": -0.1630598626,
				"element": "C" 
			},
			{
				"x": -1.2696033849,
				"y": 1.1347274003,
				"z": 0.8715828183,
				"element": "C" 
			},
			{
				"x": -0.8309762731,
				"y": -0.1829089793,
				"z": 1.5381823364,
				"element": "C" 
			},
			{
				"x": -1.916897873,
				"y": -0.7391878232,
				"z": 2.4667131937,
				"element": "C" 
			},
			{
				"x": -1.4011104636,
				"y": -1.9543350005,
				"z": 3.2248676461,
				"element": "C" 
			},
			{
				"x": -0.3833429508,
				"y": -1.5171833061,
				"z": 4.0997126275,
				"element": "F" 
			},
			{
				"x": -0.8756474232,
				"y": -2.9902262522,
				"z": 2.263283692,
				"element": "C" 
			},
			{
				"x": -1.4212333489,
				"y": -4.2199225455,
				"z": 2.2852454918,
				"element": "C" 
			},
			{
				"x": -1.0998616565,
				"y": -5.2738057825,
				"z": 1.3017887115,
				"element": "C" 
			},
			{
				"x": -1.6091796671,
				"y": -6.3911434453,
				"z": 1.3614230719,
				"element": "O" 
			},
			{
				"x": -0.1496403215,
				"y": -4.8791622887,
				"z": 0.2516743985,
				"element": "C" 
			},
			{
				"x": 0.4124009546,
				"y": -3.660560211,
				"z": 0.2225477378,
				"element": "C" 
			},
			{
				"x": 0.1780672265,
				"y": -2.5635566735,
				"z": 1.241377236,
				"element": "C" 
			},
			{
				"x": 1.5378653272,
				"y": -2.3269930384,
				"z": 1.972555663,
				"element": "C" 
			},
			{
				"x": -0.3622946242,
				"y": -1.2541574755,
				"z": 0.5149181996,
				"element": "C" 
			},
			{
				"x": 0.5409813315,
				"y": -0.5782719424,
				"z": -0.5820874164,
				"element": "C" 
			},
			{
				"x": 1.6942883755,
				"y": -1.3755468976,
				"z": -0.8923969751,
				"element": "O" 
			},
			{
				"x": 1.0253991708,
				"y": 0.8291506124,
				"z": -0.1921065171,
				"element": "C" 
			},
			{
				"x": -0.0785105005,
				"y": 1.8635524539,
				"z": 0.1541014677,
				"element": "C" 
			},
			{
				"x": 0.5418019383,
				"y": 2.9316908653,
				"z": 1.0722388679,
				"element": "C" 
			},
			{
				"x": -0.7503223376,
				"y": 2.5976517613,
				"z": -1.0959944641,
				"element": "C" 
			},
			{
				"x": -0.2500825364,
				"y": 2.0995343233,
				"z": -2.441401409,
				"element": "C" 
			},
			{
				"x": -0.672717663,
				"y": 1.1011487198,
				"z": -3.0029504706,
				"element": "O" 
			},
			{
				"x": 0.8106100383,
				"y": 2.9374305691,
				"z": -3.1609434578,
				"element": "C" 
			},
			{
				"x": 1.6367003326,
				"y": 3.6057988064,
				"z": -2.2224044681,
				"element": "O" 
			},
			{
				"x": -3.0389859635,
				"y": 3.5796077513,
				"z": -2.5768503326,
				"element": "H" 
			},
			{
				"x": -3.0077789762,
				"y": 1.8290084114,
				"z": -2.8575850677,
				"element": "H" 
			},
			{
				"x": -4.2421638078,
				"y": 2.5433525463,
				"z": -1.8074094948,
				"element": "H" 
			},
			{
				"x": -2.562602201,
				"y": 3.2006832198,
				"z": -0.1570386169,
				"element": "H" 
			},
			{
				"x": -3.3925642519,
				"y": 0.934153728,
				"z": 0.2957817262,
				"element": "H" 
			},
			{
				"x": -2.2613925848,
				"y": 0.2622335843,
				"z": -0.8852129823,
				"element": "H" 
			},
			{
				"x": -1.6136317469,
				"y": 1.7937835881,
				"z": 1.6812599494,
				"element": "H" 
			},
			{
				"x": 0.0202142564,
				"y": 0.0678901168,
				"z": 2.1834743112,
				"element": "H" 
			},
			{
				"x": -2.8038822662,
				"y": -1.036619215,
				"z": 1.8931105665,
				"element": "H" 
			},
			{
				"x": -2.2336885857,
				"y": 0.023208469,
				"z": 3.1883558941,
				"element": "H" 
			},
			{
				"x": -2.1826642032,
				"y": -2.3922050969,
				"z": 3.8552967754,
				"element": "H" 
			},
			{
				"x": -2.1611945623,
				"y": -4.4916085631,
				"z": 3.0349315663,
				"element": "H" 
			},
			{
				"x": 0.084271847,
				"y": -5.6310530452,
				"z": -0.4970523896,
				"element": "H" 
			},
			{
				"x": 1.1217715889,
				"y": -3.407888013,
				"z": -0.5559728936,
				"element": "H" 
			},
			{
				"x": 2.3049345036,
				"y": -2.057683079,
				"z": 1.2460901471,
				"element": "H" 
			},
			{
				"x": 1.8394802763,
				"y": -3.2453256821,
				"z": 2.4845085517,
				"element": "H" 
			},
			{
				"x": 1.4542355114,
				"y": -1.5444160746,
				"z": 2.7263662844,
				"element": "H" 
			},
			{
				"x": -1.2612754377,
				"y": -1.6017819144,
				"z": -0.0096393821,
				"element": "H" 
			},
			{
				"x": -0.0747198407,
				"y": -0.5004581772,
				"z": -1.483251372,
				"element": "H" 
			},
			{
				"x": 2.083351599,
				"y": -1.0076758509,
				"z": -1.6958473351,
				"element": "H" 
			},
			{
				"x": 1.6868855965,
				"y": 0.7168733003,
				"z": 0.6748465584,
				"element": "H" 
			},
			{
				"x": 1.6658890428,
				"y": 1.2208784028,
				"z": -0.992574021,
				"element": "H" 
			},
			{
				"x": 0.8844701989,
				"y": 2.485421157,
				"z": 2.0130373571,
				"element": "H" 
			},
			{
				"x": -0.1874361421,
				"y": 3.7117189957,
				"z": 1.3189190345,
				"element": "H" 
			},
			{
				"x": 1.3989613256,
				"y": 3.4088231536,
				"z": 0.5869384083,
				"element": "H" 
			},
			{
				"x": -0.4816632233,
				"y": 3.6560981898,
				"z": -1.0453182263,
				"element": "H" 
			},
			{
				"x": 1.372990605,
				"y": 2.263251404,
				"z": -3.8209670385,
				"element": "H" 
			},
			{
				"x": 0.262289484,
				"y": 3.6483297708,
				"z": -3.8038099447,
				"element": "H" 
			},
			{
				"x": 2.2340441193,
				"y": 4.1933780415,
				"z": -2.7007456063,
				"element": "H" 
			}
		],
		 "valence_orbital": [ 
			{
				"type": "occ",
				"energy": -0.26634,
				"method": "rhf"
			},
			{
				"type": "occ",
				"energy": -0.26261,
				"method": "rhf"
			},
			{
				"type": "occ",
				"energy": -0.25495,
				"method": "rhf"
			},
			{
				"type": "occ",
				"energy": -0.2524,
				"method": "rhf"
			},
			{
				"type": "occ",
				"energy": -0.22638,
				"method": "rhf"
			},
			{
				"type": "unocc",
				"energy": -0.05188,
				"method": "rhf"
			},
			{
				"type": "unocc",
				"energy": -0.0399,
				"method": "rhf"
			},
			{
				"type": "unocc",
				"energy": 0.00552,
				"method": "rhf"
			},
			{
				"type": "unocc",
				"energy": 0.05077,
				"method": "rhf"
			},
			{
				"type": "unocc",
				"energy": 0.0622,
				"method": "rhf"
			}
		],
		"cosmo_sigma_profile": { 
			"-0.025": 0.0,
			"-0.024": 0.0,
			"-0.023": 0.0,
			"-0.022": 0.0,
			"-0.021": 0.0,
			"-0.02": 0.0,
			"-0.019": 0.0,
			"-0.018": 0.0,
			"-0.017": 0.335039669101,
			"-0.016": 1.34211923579,
			"-0.015": 1.5810314946,
			"-0.014": 2.76808763139,
			"-0.013": 1.39830884509,
			"-0.012": 1.53205332903,
			"-0.011": 1.42576603122,
			"-0.01": 1.51075301175,
			"-0.009": 1.97288024167,
			"-0.008": 2.98009900019,
			"-0.007": 4.46661281858,
			"-0.006": 11.949306784,
			"-0.005": 12.7585933033,
			"-0.004": 23.5133458506,
			"-0.003": 42.8691806107,
			"-0.002": 42.8006999172,
			"-0.001": 39.4974428005,
			"0.0": 38.2668962567,
			"0.001": 41.0961545535,
			"0.002": 25.0556239652,
			"0.003": 13.7066049864,
			"0.004": 11.9987012122,
			"0.005": 10.8249528919,
			"0.006": 13.1396985463,
			"0.007": 9.44898879599,
			"0.008": 5.54335362489,
			"0.009": 3.6140749897,
			"0.01": 3.45536261802,
			"0.011": 3.27391575401,
			"0.012": 5.41165984423,
			"0.013": 5.61410928202,
			"0.014": 3.43155739871,
			"0.015": 0.620245104338,
			"0.016": 0.0,
			"0.017": 0.0,
			"0.018": 0.0,
			"0.019": 0.0,
			"0.02": 0.0,
			"0.021": 0.0,
			"0.022": 0.0,
			"0.023": 0.0,
			"0.024": 0.0,
			"0.025": 0.0
		}
	}
}
