{
	 "smiles": "CN(C)C1=NN=C(S)S1", 
	 "Tm": 452.15, 
	 "num_atms": 16, 
	 "gaussian": { 
		 "optdone": 1, 
		 "sigma_profile": "yes", 
		 "theory": "DFT", 
		 "functional": "B3LYP", 
		 "basiset": "6-31G**", 
		 "properties": { 
			 "R2extent": 2295.0283, 
			 "electric_dipole_moment_norm": 4.7712030202, 
			 "electric_quadrupole_moment_norm": 11.3222091113, 
			 "total_energy": -1117.22635786, 
			 "HOMO_LUMO_gap": 0.18871, 
			 "cosmo_polarized_energy": -12.66, 
			 "cosmo_cavitation_energy": 23.0, 
			 "cosmo_dispersion_energy": -18.23, 
			 "cosmo_repulsion_energy": 1.4, 
			 "cosmo_total_nonelectrostatic_energy": 6.18, 
			 "SMD_solvation_energy": 1.38 
		},
		"coords": [
			{
				"x": 1.1761613491,
				"y": 0.6978958391,
				"z": 1.483490133,
				"element": "C" 
			},
			{
				"x": 0.2532327439,
				"y": -0.3586040618,
				"z": 1.1004747973,
				"element": "N" 
			},
			{
				"x": -0.4960165109,
				"y": -1.0202928413,
				"z": 2.1667444253,
				"element": "C" 
			},
			{
				"x": -0.2740164418,
				"y": -0.3886823521,
				"z": -0.1550010699,
				"element": "C" 
			},
			{
				"x": -1.3170097511,
				"y": -1.1242827349,
				"z": -0.4871062794,
				"element": "N" 
			},
			{
				"x": -1.6033901465,
				"y": -1.0725092763,
				"z": -1.8168913335,
				"element": "N" 
			},
			{
				"x": -0.8249362781,
				"y": -0.2925395556,
				"z": -2.5004877767,
				"element": "C" 
			},
			{
				"x": -1.0575346026,
				"y": 0.0562443679,
				"z": -4.2203698757,
				"element": "S" 
			},
			{
				"x": 0.4108237655,
				"y": 0.5148150901,
				"z": -1.5108178995,
				"element": "S" 
			},
			{
				"x": 0.6720226539,
				"y": 1.6608849727,
				"z": 1.653750918,
				"element": "H" 
			},
			{
				"x": 1.6838295406,
				"y": 0.4044969683,
				"z": 2.4053898622,
				"element": "H" 
			},
			{
				"x": 1.9391494761,
				"y": 0.8353146745,
				"z": 0.7118273114,
				"element": "H" 
			},
			{
				"x": -0.9605244318,
				"y": -1.9216809139,
				"z": 1.7690560927,
				"element": "H" 
			},
			{
				"x": 0.1964438778,
				"y": -1.2848120206,
				"z": 2.970280529,
				"element": "H" 
			},
			{
				"x": -1.2866427195,
				"y": -0.3746627155,
				"z": 2.5738517419,
				"element": "H" 
			},
			{
				"x": 0.0995074754,
				"y": -0.4868854406,
				"z": -4.6582915759,
				"element": "H" 
			}
		],
		 "valence_orbital": [ 
			{
				"type": "occ",
				"energy": -0.30127,
				"method": "rhf"
			},
			{
				"type": "occ",
				"energy": -0.29214,
				"method": "rhf"
			},
			{
				"type": "occ",
				"energy": -0.26679,
				"method": "rhf"
			},
			{
				"type": "occ",
				"energy": -0.25468,
				"method": "rhf"
			},
			{
				"type": "occ",
				"energy": -0.219,
				"method": "rhf"
			},
			{
				"type": "unocc",
				"energy": -0.03029,
				"method": "rhf"
			},
			{
				"type": "unocc",
				"energy": -0.00433,
				"method": "rhf"
			},
			{
				"type": "unocc",
				"energy": 0.02539,
				"method": "rhf"
			},
			{
				"type": "unocc",
				"energy": 0.0428,
				"method": "rhf"
			},
			{
				"type": "unocc",
				"energy": 0.05877,
				"method": "rhf"
			}
		],
		"cosmo_sigma_profile": { 
			"-0.025": 0.0,
			"-0.024": 0.0,
			"-0.023": 0.0,
			"-0.022": 0.0,
			"-0.021": 0.0,
			"-0.02": 0.0,
			"-0.019": 0.0,
			"-0.018": 0.0,
			"-0.017": 0.0,
			"-0.016": 0.0,
			"-0.015": 0.0,
			"-0.014": 0.0,
			"-0.013": 0.0,
			"-0.012": 0.148680925239,
			"-0.011": 2.63771635156,
			"-0.01": 2.43230898726,
			"-0.009": 1.51188511606,
			"-0.008": 1.8433496873,
			"-0.007": 3.83735084408,
			"-0.006": 8.61929291788,
			"-0.005": 13.5259771181,
			"-0.004": 17.3671027143,
			"-0.003": 20.2793518524,
			"-0.002": 16.8202896957,
			"-0.001": 12.8661053265,
			"0.0": 12.8695681322,
			"0.001": 11.4888988272,
			"0.002": 10.8191301667,
			"0.003": 9.31872042465,
			"0.004": 5.30192278856,
			"0.005": 6.13438815438,
			"0.006": 3.94238124124,
			"0.007": 4.12608052863,
			"0.008": 3.8528354018,
			"0.009": 3.31454256888,
			"0.01": 2.2391677927,
			"0.011": 3.2861268979,
			"0.012": 3.74388501815,
			"0.013": 2.58492897326,
			"0.014": 2.34094521056,
			"0.015": 0.496532104722,
			"0.016": 0.0,
			"0.017": 0.0,
			"0.018": 0.0,
			"0.019": 0.0,
			"0.02": 0.0,
			"0.021": 0.0,
			"0.022": 0.0,
			"0.023": 0.0,
			"0.024": 0.0,
			"0.025": 0.0
		}
	}
}
