{
	 "smiles": "ClC1=CC=C(OCCOC(=O)C2=CC=CC=C2)C(Cl)=C1", 
	 "Tm": 339.15, 
	 "num_atms": 32, 
	 "gaussian": { 
		 "optdone": 1, 
		 "sigma_profile": "yes", 
		 "theory": "DFT", 
		 "functional": "B3LYP", 
		 "basiset": "6-31G**", 
		 "properties": { 
			 "R2extent": 8841.0823, 
			 "electric_dipole_moment_norm": 2.41904447871, 
			 "electric_quadrupole_moment_norm": 15.0181924375, 
			 "total_energy": -1724.88534381, 
			 "HOMO_LUMO_gap": 0.17695, 
			 "cosmo_polarized_energy": -11.96, 
			 "cosmo_cavitation_energy": 40.59, 
			 "cosmo_dispersion_energy": -28.38, 
			 "cosmo_repulsion_energy": 2.2, 
			 "cosmo_total_nonelectrostatic_energy": 14.4, 
			 "SMD_solvation_energy": 7.39 
		},
		"coords": [
			{
				"x": -2.4455231045,
				"y": -4.0915454159,
				"z": -2.4161797995,
				"element": "Cl" 
			},
			{
				"x": -1.6804705694,
				"y": -2.5103363623,
				"z": -2.4521196142,
				"element": "C" 
			},
			{
				"x": -0.6486067478,
				"y": -2.2173405069,
				"z": -1.5661638179,
				"element": "C" 
			},
			{
				"x": -0.0483442076,
				"y": -0.9577000889,
				"z": -1.5976486472,
				"element": "C" 
			},
			{
				"x": -0.4614943915,
				"y": 0.0150725445,
				"z": -2.5169114494,
				"element": "C" 
			},
			{
				"x": 0.0631795455,
				"y": 1.2628734056,
				"z": -2.6297576256,
				"element": "O" 
			},
			{
				"x": 1.326192722,
				"y": 1.5900243825,
				"z": -2.0489262902,
				"element": "C" 
			},
			{
				"x": 1.1922022601,
				"y": 2.3938528283,
				"z": -0.7711204134,
				"element": "C" 
			},
			{
				"x": 0.66197055,
				"y": 1.5541292548,
				"z": 0.2684346527,
				"element": "O" 
			},
			{
				"x": 0.7896572924,
				"y": 2.0364396995,
				"z": 1.5348658474,
				"element": "C" 
			},
			{
				"x": 1.370406072,
				"y": 3.0737452751,
				"z": 1.7852631361,
				"element": "O" 
			},
			{
				"x": 0.1526134581,
				"y": 1.1558539508,
				"z": 2.551508642,
				"element": "C" 
			},
			{
				"x": -0.6288488585,
				"y": 0.0443401238,
				"z": 2.2046098183,
				"element": "C" 
			},
			{
				"x": -1.2068493216,
				"y": -0.7355743163,
				"z": 3.2051830755,
				"element": "C" 
			},
			{
				"x": -1.0073892947,
				"y": -0.4131343831,
				"z": 4.5497487297,
				"element": "C" 
			},
			{
				"x": -0.2315126974,
				"y": 0.6963344907,
				"z": 4.897270343,
				"element": "C" 
			},
			{
				"x": 0.3443833453,
				"y": 1.4812603177,
				"z": 3.9019969034,
				"element": "C" 
			},
			{
				"x": -1.5106750879,
				"y": -0.3085186438,
				"z": -3.4002147704,
				"element": "C" 
			},
			{
				"x": -2.0583590309,
				"y": 0.8774181222,
				"z": -4.5632712189,
				"element": "Cl" 
			},
			{
				"x": -2.1220046965,
				"y": -1.5582674004,
				"z": -3.3701832602,
				"element": "C" 
			},
			{
				"x": -0.3167812404,
				"y": -2.9597362245,
				"z": -0.8491680229,
				"element": "H" 
			},
			{
				"x": 0.7246341772,
				"y": -0.7245720524,
				"z": -0.8768141829,
				"element": "H" 
			},
			{
				"x": 1.9366307432,
				"y": 0.6946461744,
				"z": -1.8935002418,
				"element": "H" 
			},
			{
				"x": 1.8327418506,
				"y": 2.219948198,
				"z": -2.7881495364,
				"element": "H" 
			},
			{
				"x": 2.1695778665,
				"y": 2.7823361077,
				"z": -0.4688389623,
				"element": "H" 
			},
			{
				"x": 0.5201723948,
				"y": 3.2446288864,
				"z": -0.924367641,
				"element": "H" 
			},
			{
				"x": -0.7891401716,
				"y": -0.1973181407,
				"z": 1.1602290387,
				"element": "H" 
			},
			{
				"x": -1.8159968973,
				"y": -1.5932890882,
				"z": 2.9358019053,
				"element": "H" 
			},
			{
				"x": -1.4589474363,
				"y": -1.0240496778,
				"z": 5.326260517,
				"element": "H" 
			},
			{
				"x": -0.0788426297,
				"y": 0.9486130351,
				"z": 5.9423747009,
				"element": "H" 
			},
			{
				"x": 0.9459230252,
				"y": 2.3502726969,
				"z": 4.1460693308,
				"element": "H" 
			},
			{
				"x": -2.9254989194,
				"y": -1.7828071928,
				"z": -4.0608811464,
				"element": "H" 
			}
		],
		 "valence_orbital": [ 
			{
				"type": "occ",
				"energy": -0.28368,
				"method": "rhf"
			},
			{
				"type": "occ",
				"energy": -0.26553,
				"method": "rhf"
			},
			{
				"type": "occ",
				"energy": -0.26376,
				"method": "rhf"
			},
			{
				"type": "occ",
				"energy": -0.26204,
				"method": "rhf"
			},
			{
				"type": "occ",
				"energy": -0.22967,
				"method": "rhf"
			},
			{
				"type": "unocc",
				"energy": -0.05272,
				"method": "rhf"
			},
			{
				"type": "unocc",
				"energy": -0.02628,
				"method": "rhf"
			},
			{
				"type": "unocc",
				"energy": -0.01376,
				"method": "rhf"
			},
			{
				"type": "unocc",
				"energy": -0.0117,
				"method": "rhf"
			},
			{
				"type": "unocc",
				"energy": 0.00877,
				"method": "rhf"
			}
		],
		"cosmo_sigma_profile": { 
			"-0.025": 0.0,
			"-0.024": 0.0,
			"-0.023": 0.0,
			"-0.022": 0.0,
			"-0.021": 0.0,
			"-0.02": 0.0,
			"-0.019": 0.0,
			"-0.018": 0.0,
			"-0.017": 0.0,
			"-0.016": 0.0,
			"-0.015": 0.0,
			"-0.014": 0.0,
			"-0.013": 0.0,
			"-0.012": 0.0,
			"-0.011": 0.0,
			"-0.01": 0.0,
			"-0.009": 0.243507006068,
			"-0.008": 4.46098889894,
			"-0.007": 16.0207514251,
			"-0.006": 22.0383087705,
			"-0.005": 20.3148927892,
			"-0.004": 19.8713453294,
			"-0.003": 19.4623840918,
			"-0.002": 19.6986669945,
			"-0.001": 19.2932382971,
			"0.0": 24.1097928994,
			"0.001": 34.321915746,
			"0.002": 34.2197183461,
			"0.003": 29.8615904077,
			"0.004": 30.3634352885,
			"0.005": 14.3661114229,
			"0.006": 3.00534048298,
			"0.007": 2.97005511131,
			"0.008": 3.19919519582,
			"0.009": 3.35979684878,
			"0.01": 2.61337484921,
			"0.011": 3.58836447618,
			"0.012": 2.8379440016,
			"0.013": 0.0,
			"0.014": 0.0,
			"0.015": 0.0,
			"0.016": 0.0,
			"0.017": 0.0,
			"0.018": 0.0,
			"0.019": 0.0,
			"0.02": 0.0,
			"0.021": 0.0,
			"0.022": 0.0,
			"0.023": 0.0,
			"0.024": 0.0,
			"0.025": 0.0
		}
	}
}
