{
	 "smiles": "CCC(NC(=O)OC(C)(C)C)C(O)=O", 
	 "Tm": 362.15, 
	 "num_atms": 31, 
	 "gaussian": { 
		 "optdone": 1, 
		 "sigma_profile": "yes", 
		 "theory": "DFT", 
		 "functional": "B3LYP", 
		 "basiset": "6-31G**", 
		 "properties": { 
			 "R2extent": 3026.2079, 
			 "electric_dipole_moment_norm": 1.25386133205, 
			 "electric_quadrupole_moment_norm": 13.7940777727, 
			 "total_energy": -708.906469916, 
			 "HOMO_LUMO_gap": 0.25001, 
			 "cosmo_polarized_energy": -14.87, 
			 "cosmo_cavitation_energy": 33.24, 
			 "cosmo_dispersion_energy": -22.03, 
			 "cosmo_repulsion_energy": 1.76, 
			 "cosmo_total_nonelectrostatic_energy": 12.96, 
			 "SMD_solvation_energy": 7.46 
		},
		"coords": [
			{
				"x": 2.9769299103,
				"y": -1.5213905094,
				"z": -1.550539767,
				"element": "C" 
			},
			{
				"x": 1.5774211703,
				"y": -0.9125479127,
				"z": -1.4133058749,
				"element": "C" 
			},
			{
				"x": 1.5492625482,
				"y": 0.4128988576,
				"z": -0.6296296159,
				"element": "C" 
			},
			{
				"x": 0.3456965137,
				"y": 1.2050687466,
				"z": -0.8668894528,
				"element": "N" 
			},
			{
				"x": -0.8900107676,
				"y": 0.9922579075,
				"z": -0.307321714,
				"element": "C" 
			},
			{
				"x": -1.8177652887,
				"y": 1.7741531514,
				"z": -0.4256285014,
				"element": "O" 
			},
			{
				"x": -0.9049305056,
				"y": -0.1861350147,
				"z": 0.3574514679,
				"element": "O" 
			},
			{
				"x": -2.0875443913,
				"y": -0.6156339034,
				"z": 1.1246630077,
				"element": "C" 
			},
			{
				"x": -2.3803928314,
				"y": 0.4023285999,
				"z": 2.2316928831,
				"element": "C" 
			},
			{
				"x": -1.6314698131,
				"y": -1.9516927209,
				"z": 1.7161960651,
				"element": "C" 
			},
			{
				"x": -3.2794382255,
				"y": -0.8099539619,
				"z": 0.1824705806,
				"element": "C" 
			},
			{
				"x": 1.8123821714,
				"y": 0.2105669083,
				"z": 0.8710027209,
				"element": "C" 
			},
			{
				"x": 1.64682713,
				"y": 1.3603051547,
				"z": 1.5651946905,
				"element": "O" 
			},
			{
				"x": 2.1721424667,
				"y": -0.8199311982,
				"z": 1.3941155052,
				"element": "O" 
			},
			{
				"x": 3.3898141953,
				"y": -1.7847531963,
				"z": -0.5746670652,
				"element": "H" 
			},
			{
				"x": 3.6680179832,
				"y": -0.825794797,
				"z": -2.0425579721,
				"element": "H" 
			},
			{
				"x": 2.9392458653,
				"y": -2.4301506483,
				"z": -2.1593747825,
				"element": "H" 
			},
			{
				"x": 0.8991191427,
				"y": -1.6204977189,
				"z": -0.9301954849,
				"element": "H" 
			},
			{
				"x": 1.1666794615,
				"y": -0.6972029303,
				"z": -2.4057720014,
				"element": "H" 
			},
			{
				"x": 2.3804519281,
				"y": 1.0381553374,
				"z": -0.9827006939,
				"element": "H" 
			},
			{
				"x": 0.4421797624,
				"y": 2.1260536544,
				"z": -1.2651665018,
				"element": "H" 
			},
			{
				"x": -3.1867907914,
				"y": 0.0287849883,
				"z": 2.8708869199,
				"element": "H" 
			},
			{
				"x": -2.6799270195,
				"y": 1.3623774617,
				"z": 1.810317762,
				"element": "H" 
			},
			{
				"x": -1.4924322363,
				"y": 0.5499608445,
				"z": 2.854584749,
				"element": "H" 
			},
			{
				"x": -1.4114768228,
				"y": -2.6712190943,
				"z": 0.9221351926,
				"element": "H" 
			},
			{
				"x": -2.4187505931,
				"y": -2.3683448482,
				"z": 2.3515477206,
				"element": "H" 
			},
			{
				"x": -0.7272031453,
				"y": -1.819987166,
				"z": 2.3167663489,
				"element": "H" 
			},
			{
				"x": -3.5904920736,
				"y": 0.1390222249,
				"z": -0.2545818621,
				"element": "H" 
			},
			{
				"x": -4.1195261165,
				"y": -1.2384585705,
				"z": 0.7388722286,
				"element": "H" 
			},
			{
				"x": -3.0171781729,
				"y": -1.5032710923,
				"z": -0.6228596142,
				"element": "H" 
			},
			{
				"x": 1.8525585455,
				"y": 1.145431446,
				"z": 2.4903930615,
				"element": "H" 
			}
		],
		 "valence_orbital": [ 
			{
				"type": "occ",
				"energy": -0.32186,
				"method": "rhf"
			},
			{
				"type": "occ",
				"energy": -0.29061,
				"method": "rhf"
			},
			{
				"type": "occ",
				"energy": -0.28792,
				"method": "rhf"
			},
			{
				"type": "occ",
				"energy": -0.26372,
				"method": "rhf"
			},
			{
				"type": "occ",
				"energy": -0.25031,
				"method": "rhf"
			},
			{
				"type": "unocc",
				"energy": -0.0003,
				"method": "rhf"
			},
			{
				"type": "unocc",
				"energy": 0.05266,
				"method": "rhf"
			},
			{
				"type": "unocc",
				"energy": 0.06554,
				"method": "rhf"
			},
			{
				"type": "unocc",
				"energy": 0.07952,
				"method": "rhf"
			},
			{
				"type": "unocc",
				"energy": 0.08989,
				"method": "rhf"
			}
		],
		"cosmo_sigma_profile": { 
			"-0.025": 0.0,
			"-0.024": 0.0,
			"-0.023": 0.0,
			"-0.022": 0.0,
			"-0.021": 0.0,
			"-0.02": 0.0,
			"-0.019": 0.0751575608534,
			"-0.018": 0.727757681478,
			"-0.017": 0.952870526418,
			"-0.016": 0.767228515741,
			"-0.015": 0.811991901653,
			"-0.014": 1.87207476454,
			"-0.013": 1.92504885572,
			"-0.012": 2.18598869377,
			"-0.011": 1.88652965814,
			"-0.01": 1.50151649054,
			"-0.009": 2.12198947919,
			"-0.008": 3.88934067782,
			"-0.007": 3.43092333133,
			"-0.006": 3.68894609369,
			"-0.005": 3.86424218384,
			"-0.004": 15.1099491654,
			"-0.003": 21.8583813604,
			"-0.002": 24.9626536515,
			"-0.001": 27.4395970464,
			"0.0": 35.9737822426,
			"0.001": 30.0141848276,
			"0.002": 12.6540918267,
			"0.003": 9.51832915342,
			"0.004": 8.92573168324,
			"0.005": 6.24875341113,
			"0.006": 5.76763573279,
			"0.007": 3.52074186096,
			"0.008": 4.9088150882,
			"0.009": 4.04055806748,
			"0.01": 3.51187706926,
			"0.011": 4.36129023636,
			"0.012": 4.27057554588,
			"0.013": 3.55322552542,
			"0.014": 1.53435270356,
			"0.015": 0.0,
			"0.016": 0.0,
			"0.017": 0.0,
			"0.018": 0.0,
			"0.019": 0.0,
			"0.02": 0.0,
			"0.021": 0.0,
			"0.022": 0.0,
			"0.023": 0.0,
			"0.024": 0.0,
			"0.025": 0.0
		}
	}
}
