{
	 "smiles": "CC1=CC(=CC=C1)C1=NON=C1N", 
	 "Tm": 351.15, 
	 "num_atms": 22, 
	 "gaussian": { 
		 "optdone": 1, 
		 "sigma_profile": "yes", 
		 "theory": "DFT", 
		 "functional": "B3LYP", 
		 "basiset": "6-31G**", 
		 "properties": { 
			 "R2extent": 3467.4126, 
			 "electric_dipole_moment_norm": 5.14554915048, 
			 "electric_quadrupole_moment_norm": 19.2465277759, 
			 "total_energy": -587.787655255, 
			 "HOMO_LUMO_gap": 0.18943, 
			 "cosmo_polarized_energy": -12.91, 
			 "cosmo_cavitation_energy": 26.46, 
			 "cosmo_dispersion_energy": -19.49, 
			 "cosmo_repulsion_energy": 1.54, 
			 "cosmo_total_nonelectrostatic_energy": 8.51, 
			 "SMD_solvation_energy": 4.2 
		},
		"coords": [
			{
				"x": -1.9828071657,
				"y": -0.604232706,
				"z": -1.1313448449,
				"element": "C" 
			},
			{
				"x": -0.8510544446,
				"y": 0.1829206792,
				"z": -0.5123639893,
				"element": "C" 
			},
			{
				"x": 0.3755209272,
				"y": -0.4266847718,
				"z": -0.2267658807,
				"element": "C" 
			},
			{
				"x": 1.4370240453,
				"y": 0.2988591574,
				"z": 0.3399461844,
				"element": "C" 
			},
			{
				"x": 1.2598532306,
				"y": 1.6601605145,
				"z": 0.6313898613,
				"element": "C" 
			},
			{
				"x": 0.040967515,
				"y": 2.2730750839,
				"z": 0.3532954394,
				"element": "C" 
			},
			{
				"x": -1.0038975516,
				"y": 1.5441304639,
				"z": -0.2162486053,
				"element": "C" 
			},
			{
				"x": 2.7176664587,
				"y": -0.3567954475,
				"z": 0.6454510834,
				"element": "C" 
			},
			{
				"x": 3.5120071138,
				"y": 0.0543470485,
				"z": 1.6055011547,
				"element": "N" 
			},
			{
				"x": 4.6028204123,
				"y": -0.7638776564,
				"z": 1.5884892735,
				"element": "O" 
			},
			{
				"x": 4.5089072481,
				"y": -1.7104281473,
				"z": 0.5811385355,
				"element": "N" 
			},
			{
				"x": 3.3577295054,
				"y": -1.4787798241,
				"z": 0.0007734117,
				"element": "C" 
			},
			{
				"x": 2.869965653,
				"y": -2.2527025168,
				"z": -1.0368614513,
				"element": "N" 
			},
			{
				"x": -2.1284181127,
				"y": -0.330049887,
				"z": -2.1833869074,
				"element": "H" 
			},
			{
				"x": -2.9297342956,
				"y": -0.4132079305,
				"z": -0.6158855719,
				"element": "H" 
			},
			{
				"x": -1.7903103099,
				"y": -1.6799435758,
				"z": -1.0935996944,
				"element": "H" 
			},
			{
				"x": 0.4955150153,
				"y": -1.4896128651,
				"z": -0.4160924709,
				"element": "H" 
			},
			{
				"x": 2.0773947402,
				"y": 2.2206699758,
				"z": 1.0718202049,
				"element": "H" 
			},
			{
				"x": -0.0957673565,
				"y": 3.3264791464,
				"z": 0.5800645448,
				"element": "H" 
			},
			{
				"x": -1.9501419544,
				"y": 2.035194662,
				"z": -0.429861476,
				"element": "H" 
			},
			{
				"x": 2.3636245354,
				"y": -1.7288765766,
				"z": -1.7393516658,
				"element": "H" 
			},
			{
				"x": 3.5737347907,
				"y": -2.8578448268,
				"z": -1.4420071355,
				"element": "H" 
			}
		],
		 "valence_orbital": [ 
			{
				"type": "occ",
				"energy": -0.31186,
				"method": "rhf"
			},
			{
				"type": "occ",
				"energy": -0.30356,
				"method": "rhf"
			},
			{
				"type": "occ",
				"energy": -0.26087,
				"method": "rhf"
			},
			{
				"type": "occ",
				"energy": -0.25383,
				"method": "rhf"
			},
			{
				"type": "occ",
				"energy": -0.2375,
				"method": "rhf"
			},
			{
				"type": "unocc",
				"energy": -0.04807,
				"method": "rhf"
			},
			{
				"type": "unocc",
				"energy": -0.01202,
				"method": "rhf"
			},
			{
				"type": "unocc",
				"energy": -0.00377,
				"method": "rhf"
			},
			{
				"type": "unocc",
				"energy": 0.06028,
				"method": "rhf"
			},
			{
				"type": "unocc",
				"energy": 0.07703,
				"method": "rhf"
			}
		],
		"cosmo_sigma_profile": { 
			"-0.025": 0.0,
			"-0.024": 0.0,
			"-0.023": 0.0,
			"-0.022": 0.0,
			"-0.021": 0.0,
			"-0.02": 0.0,
			"-0.019": 0.0,
			"-0.018": 0.0,
			"-0.017": 0.0,
			"-0.016": 0.0,
			"-0.015": 0.0561910401559,
			"-0.014": 1.30869711393,
			"-0.013": 2.50623399968,
			"-0.012": 3.03408540363,
			"-0.011": 2.93748893516,
			"-0.01": 2.27461787692,
			"-0.009": 1.9787333261,
			"-0.008": 1.99451546051,
			"-0.007": 2.92902231456,
			"-0.006": 5.95968447792,
			"-0.005": 11.0696904589,
			"-0.004": 15.9948875355,
			"-0.003": 14.2562867196,
			"-0.002": 19.0260596297,
			"-0.001": 17.037612476,
			"0.0": 16.4337383625,
			"0.001": 11.6670602248,
			"0.002": 11.512703819,
			"0.003": 12.6988470106,
			"0.004": 13.839678502,
			"0.005": 8.8009954021,
			"0.006": 9.57926788291,
			"0.007": 8.77524277979,
			"0.008": 3.85755926053,
			"0.009": 3.46554560712,
			"0.01": 2.78602062063,
			"0.011": 2.66416928545,
			"0.012": 2.04461544478,
			"0.013": 0.90505491568,
			"0.014": 0.0,
			"0.015": 0.0,
			"0.016": 0.0,
			"0.017": 0.0,
			"0.018": 0.0,
			"0.019": 0.0,
			"0.02": 0.0,
			"0.021": 0.0,
			"0.022": 0.0,
			"0.023": 0.0,
			"0.024": 0.0,
			"0.025": 0.0
		}
	}
}
