{
	 "smiles": "OC(=O)CN1C=C(C=CC1=O)C(F)(F)F", 
	 "Tm": 492.15, 
	 "num_atms": 21, 
	 "gaussian": { 
		 "optdone": 1, 
		 "sigma_profile": "yes", 
		 "theory": "DFT", 
		 "functional": "B3LYP", 
		 "basiset": "6-31G**", 
		 "properties": { 
			 "R2extent": 4238.5681, 
			 "electric_dipole_moment_norm": 2.41797601725, 
			 "electric_quadrupole_moment_norm": 18.9014471187, 
			 "total_energy": -888.430420377, 
			 "HOMO_LUMO_gap": 0.17859, 
			 "cosmo_polarized_energy": -15.93, 
			 "cosmo_cavitation_energy": 27.95, 
			 "cosmo_dispersion_energy": -19.44, 
			 "cosmo_repulsion_energy": 1.48, 
			 "cosmo_total_nonelectrostatic_energy": 9.99, 
			 "SMD_solvation_energy": 8.01 
		},
		"coords": [
			{
				"x": -2.7590006208,
				"y": -2.1991989397,
				"z": -1.8419298147,
				"element": "O" 
			},
			{
				"x": -2.3650879011,
				"y": -1.4082047249,
				"z": -0.8230841341,
				"element": "C" 
			},
			{
				"x": -3.1108998135,
				"y": -0.9678937576,
				"z": 0.0190691202,
				"element": "O" 
			},
			{
				"x": -0.8596821487,
				"y": -1.1917477787,
				"z": -0.8860917617,
				"element": "C" 
			},
			{
				"x": -0.3930710561,
				"y": -0.2315197774,
				"z": 0.1020288935,
				"element": "N" 
			},
			{
				"x": -0.4727506087,
				"y": -0.5261129869,
				"z": 1.4297223744,
				"element": "C" 
			},
			{
				"x": -0.0554671024,
				"y": 0.3567287136,
				"z": 2.38249747,
				"element": "C" 
			},
			{
				"x": 0.4571427216,
				"y": 1.6225141366,
				"z": 1.965198863,
				"element": "C" 
			},
			{
				"x": 0.527242047,
				"y": 1.9366771993,
				"z": 0.6430376822,
				"element": "C" 
			},
			{
				"x": 0.0919284592,
				"y": 1.0206454858,
				"z": -0.3935455356,
				"element": "C" 
			},
			{
				"x": 0.1197837647,
				"y": 1.237661363,
				"z": -1.6008108931,
				"element": "O" 
			},
			{
				"x": -0.1318768214,
				"y": 0.0188215763,
				"z": 3.8364656576,
				"element": "C" 
			},
			{
				"x": -0.6294121466,
				"y": -1.2200309716,
				"z": 4.0459373115,
				"element": "F" 
			},
			{
				"x": -0.9132669775,
				"y": 0.8917573431,
				"z": 4.5125786639,
				"element": "F" 
			},
			{
				"x": 1.0886506086,
				"y": 0.0701040957,
				"z": 4.4218038257,
				"element": "F" 
			},
			{
				"x": -3.7195308144,
				"y": -2.3180133819,
				"z": -1.7498770363,
				"element": "H" 
			},
			{
				"x": -0.3612919778,
				"y": -2.1585416895,
				"z": -0.7552906498,
				"element": "H" 
			},
			{
				"x": -0.5874524337,
				"y": -0.797092521,
				"z": -1.8674119592,
				"element": "H" 
			},
			{
				"x": -0.8837042052,
				"y": -1.4938327059,
				"z": 1.6865355637,
				"element": "H" 
			},
			{
				"x": 0.790097228,
				"y": 2.3327273474,
				"z": 2.7164565695,
				"element": "H" 
			},
			{
				"x": 0.9084497989,
				"y": 2.8897519743,
				"z": 0.2966097892,
				"element": "H" 
			}
		],
		 "valence_orbital": [ 
			{
				"type": "occ",
				"energy": -0.34264,
				"method": "rhf"
			},
			{
				"type": "occ",
				"energy": -0.3169,
				"method": "rhf"
			},
			{
				"type": "occ",
				"energy": -0.30139,
				"method": "rhf"
			},
			{
				"type": "occ",
				"energy": -0.2687,
				"method": "rhf"
			},
			{
				"type": "occ",
				"energy": -0.23577,
				"method": "rhf"
			},
			{
				"type": "unocc",
				"energy": -0.05718,
				"method": "rhf"
			},
			{
				"type": "unocc",
				"energy": -0.01452,
				"method": "rhf"
			},
			{
				"type": "unocc",
				"energy": -0.00928,
				"method": "rhf"
			},
			{
				"type": "unocc",
				"energy": 0.05823,
				"method": "rhf"
			},
			{
				"type": "unocc",
				"energy": 0.08243,
				"method": "rhf"
			}
		],
		"cosmo_sigma_profile": { 
			"-0.025": 0.0,
			"-0.024": 0.0,
			"-0.023": 0.0,
			"-0.022": 0.0,
			"-0.021": 0.0,
			"-0.02": 0.0,
			"-0.019": 0.875678335434,
			"-0.018": 0.642541255048,
			"-0.017": 0.992395264738,
			"-0.016": 0.910764437905,
			"-0.015": 1.05924822221,
			"-0.014": 0.60096783467,
			"-0.013": 0.183722469859,
			"-0.012": 2.03476475518,
			"-0.011": 2.07824554932,
			"-0.01": 3.59145835948,
			"-0.009": 4.62336018224,
			"-0.008": 6.12753701732,
			"-0.007": 6.97414801822,
			"-0.006": 10.1050804439,
			"-0.005": 9.02183658635,
			"-0.004": 9.95960091822,
			"-0.003": 12.1303143182,
			"-0.002": 12.3388948506,
			"-0.001": 11.7358733075,
			"0.0": 15.98462323,
			"0.001": 17.0238221823,
			"0.002": 23.4712501943,
			"0.003": 28.4255173261,
			"0.004": 4.95779617551,
			"0.005": 3.52309620678,
			"0.006": 3.18963183021,
			"0.007": 3.92059587793,
			"0.008": 4.95201879711,
			"0.009": 3.69807011582,
			"0.01": 4.81067623534,
			"0.011": 4.87004762264,
			"0.012": 2.64907199135,
			"0.013": 4.38822108617,
			"0.014": 1.86936584396,
			"0.015": 0.0658980271605,
			"0.016": 0.0,
			"0.017": 0.0,
			"0.018": 0.0,
			"0.019": 0.0,
			"0.02": 0.0,
			"0.021": 0.0,
			"0.022": 0.0,
			"0.023": 0.0,
			"0.024": 0.0,
			"0.0": 0.0
		}
	}
}
