{
	 "smiles": "N#CC1=COC=C1", 
	 "Tm": 303.15, 
	 "num_atms": 10, 
	 "gaussian": { 
		 "optdone": 1, 
		 "sigma_profile": "yes", 
		 "theory": "DFT", 
		 "functional": "B3LYP", 
		 "basiset": "6-31G**", 
		 "properties": { 
			 "R2extent": 818.1022, 
			 "electric_dipole_moment_norm": 3.9184288701, 
			 "electric_quadrupole_moment_norm": 13.1692997259, 
			 "total_energy": -322.26222248, 
			 "HOMO_LUMO_gap": 0.22309, 
			 "cosmo_polarized_energy": -8.63, 
			 "cosmo_cavitation_energy": 15.76, 
			 "cosmo_dispersion_energy": -11.22, 
			 "cosmo_repulsion_energy": 0.95, 
			 "cosmo_total_nonelectrostatic_energy": 5.49, 
			 "SMD_solvation_energy": 5.9 
		},
		"coords": [
			{
				"x": 2.5053129563,
				"y": -1.0025906634,
				"z": -2.4107793829,
				"element": "N" 
			},
			{
				"x": 1.7428112811,
				"y": -0.8460235308,
				"z": -1.5461562318,
				"element": "C" 
			},
			{
				"x": 0.8136559704,
				"y": -0.6435178252,
				"z": -0.4899228756,
				"element": "C" 
			},
			{
				"x": 0.0635252005,
				"y": -1.6105286291,
				"z": 0.1282340212,
				"element": "C" 
			},
			{
				"x": -0.7098193365,
				"y": -1.0571740206,
				"z": 1.0872126687,
				"element": "O" 
			},
			{
				"x": -0.4580918041,
				"y": 0.2874019577,
				"z": 1.0913083361,
				"element": "C" 
			},
			{
				"x": 0.4654007066,
				"y": 0.6029753831,
				"z": 0.1486943823,
				"element": "C" 
			},
			{
				"x": -0.0143071578,
				"y": -2.677592088,
				"z": -0.0081666657,
				"element": "H" 
			},
			{
				"x": -1.0105568797,
				"y": 0.8660304305,
				"z": 1.8143833933,
				"element": "H" 
			},
			{
				"x": 0.8626690631,
				"y": 1.5796189859,
				"z": -0.0824076457,
				"element": "H" 
			}
		],
		 "valence_orbital": [ 
			{
				"type": "occ",
				"energy": -0.37262,
				"method": "rhf"
			},
			{
				"type": "occ",
				"energy": -0.36214,
				"method": "rhf"
			},
			{
				"type": "occ",
				"energy": -0.33234,
				"method": "rhf"
			},
			{
				"type": "occ",
				"energy": -0.29445,
				"method": "rhf"
			},
			{
				"type": "occ",
				"energy": -0.2572,
				"method": "rhf"
			},
			{
				"type": "unocc",
				"energy": -0.03411,
				"method": "rhf"
			},
			{
				"type": "unocc",
				"energy": 0.00904,
				"method": "rhf"
			},
			{
				"type": "unocc",
				"energy": 0.02614,
				"method": "rhf"
			},
			{
				"type": "unocc",
				"energy": 0.1,
				"method": "rhf"
			},
			{
				"type": "unocc",
				"energy": 0.11714,
				"method": "rhf"
			}
		],
		"cosmo_sigma_profile": { 
			"-0.025": 0.0,
			"-0.024": 0.0,
			"-0.023": 0.0,
			"-0.022": 0.0,
			"-0.021": 0.0,
			"-0.02": 0.0,
			"-0.019": 0.0,
			"-0.018": 0.0,
			"-0.017": 0.0,
			"-0.016": 0.0,
			"-0.015": 0.0,
			"-0.014": 0.0,
			"-0.013": 0.0,
			"-0.012": 0.167538934333,
			"-0.011": 1.8375180428,
			"-0.01": 3.89006513599,
			"-0.009": 4.85263292371,
			"-0.008": 4.71868307496,
			"-0.007": 5.18876884586,
			"-0.006": 5.30825862959,
			"-0.005": 4.29824419623,
			"-0.004": 6.16093305013,
			"-0.003": 6.00185773377,
			"-0.002": 6.41194602605,
			"-0.001": 11.0757250272,
			"0.0": 12.5781959348,
			"0.001": 10.582182306,
			"0.002": 7.56255556082,
			"0.003": 6.37950367796,
			"0.004": 3.87410833854,
			"0.005": 3.50141565969,
			"0.006": 3.95535191742,
			"0.007": 4.04037959925,
			"0.008": 3.27212132481,
			"0.009": 3.50095970362,
			"0.01": 3.08774189207,
			"0.011": 2.8847604935,
			"0.012": 2.32314462931,
			"0.013": 1.45462638894,
			"0.014": 0.0509756166398,
			"0.015": 0.0,
			"0.016": 0.0,
			"0.017": 0.0,
			"0.018": 0.0,
			"0.019": 0.0,
			"0.02": 0.0,
			"0.021": 0.0,
			"0.022": 0.0,
			"0.023": 0.0,
			"0.024": 0.0,
			"0.025": 0.0
		}
	}
}
