{
	 "smiles": "BrC(=C(Br)C1=CC=CC=C1)C1=CC=CC=C1", 
	 "Tm": 501.15, 
	 "num_atms": 26, 
	 "gaussian": { 
		 "optdone": 1, 
		 "sigma_profile": "yes", 
		 "theory": "DFT", 
		 "functional": "B3LYP", 
		 "basiset": "6-31G**", 
		 "properties": { 
			 "R2extent": 6982.5461, 
			 "electric_dipole_moment_norm": 3.11451789046, 
			 "electric_quadrupole_moment_norm": 7.25602146083, 
			 "total_energy": -5682.30521528, 
			 "HOMO_LUMO_gap": 0.16504, 
			 "cosmo_polarized_energy": -6.49, 
			 "cosmo_cavitation_energy": 34.44, 
			 "cosmo_dispersion_energy": -24.4, 
			 "cosmo_repulsion_energy": 1.93, 
			 "cosmo_total_nonelectrostatic_energy": 11.97, 
			 "SMD_solvation_energy": 3.69 
		},
		"coords": [
			{
				"x": 3.3946779948,
				"y": -1.7222910499,
				"z": 0.5711772714,
				"element": "Br" 
			},
			{
				"x": 1.5263823058,
				"y": -1.2934882139,
				"z": 0.4506516296,
				"element": "C" 
			},
			{
				"x": 0.6779637495,
				"y": -2.0553964022,
				"z": -0.2684365746,
				"element": "C" 
			},
			{
				"x": 1.2591392383,
				"y": -3.6894267634,
				"z": -1.0936770241,
				"element": "Br" 
			},
			{
				"x": -0.7444508101,
				"y": -1.7247040502,
				"z": -0.5344828171,
				"element": "C" 
			},
			{
				"x": -1.7617169362,
				"y": -2.6634846017,
				"z": -0.2954527562,
				"element": "C" 
			},
			{
				"x": -3.0934225505,
				"y": -2.3424580115,
				"z": -0.5486199182,
				"element": "C" 
			},
			{
				"x": -3.4299236844,
				"y": -1.0867567761,
				"z": -1.0600349703,
				"element": "C" 
			},
			{
				"x": -2.4242061139,
				"y": -0.1536803708,
				"z": -1.3171717581,
				"element": "C" 
			},
			{
				"x": -1.0911848588,
				"y": -0.4686619224,
				"z": -1.0583871125,
				"element": "C" 
			},
			{
				"x": 1.1357495034,
				"y": -0.0974640144,
				"z": 1.2382354748,
				"element": "C" 
			},
			{
				"x": 1.8245354798,
				"y": 1.1184882154,
				"z": 1.0956704328,
				"element": "C" 
			},
			{
				"x": 1.4493863375,
				"y": 2.23476861,
				"z": 1.8398269679,
				"element": "C" 
			},
			{
				"x": 0.3928385883,
				"y": 2.151523885,
				"z": 2.7499515514,
				"element": "C" 
			},
			{
				"x": -0.2861750144,
				"y": 0.9427299394,
				"z": 2.9111079959,
				"element": "C" 
			},
			{
				"x": 0.0816965057,
				"y": -0.1745383609,
				"z": 2.1631162597,
				"element": "C" 
			},
			{
				"x": -1.5014123102,
				"y": -3.6457821345,
				"z": 0.085558206,
				"element": "H" 
			},
			{
				"x": -3.8692859022,
				"y": -3.0764827406,
				"z": -0.3512652206,
				"element": "H" 
			},
			{
				"x": -4.4680111453,
				"y": -0.8408613447,
				"z": -1.2637773406,
				"element": "H" 
			},
			{
				"x": -2.675031765,
				"y": 0.8204388861,
				"z": -1.7267906238,
				"element": "H" 
			},
			{
				"x": -0.311207954,
				"y": 0.256830917,
				"z": -1.2630475878,
				"element": "H" 
			},
			{
				"x": 2.6567350213,
				"y": 1.1812418699,
				"z": 0.4018943828,
				"element": "H" 
			},
			{
				"x": 1.9869099496,
				"y": 3.1699575899,
				"z": 1.7125734211,
				"element": "H" 
			},
			{
				"x": 0.1065316286,
				"y": 3.0208569731,
				"z": 3.3346638276,
				"element": "H" 
			},
			{
				"x": -1.1005257453,
				"y": 0.8650402344,
				"z": 3.62553552,
				"element": "H" 
			},
			{
				"x": -0.4449915124,
				"y": -1.1138003632,
				"z": 2.2933807629,
				"element": "H" 
			}
		],
		 "valence_orbital": [ 
			{
				"type": "occ",
				"energy": -0.26613,
				"method": "rhf"
			},
			{
				"type": "occ",
				"energy": -0.25818,
				"method": "rhf"
			},
			{
				"type": "occ",
				"energy": -0.25667,
				"method": "rhf"
			},
			{
				"type": "occ",
				"energy": -0.25458,
				"method": "rhf"
			},
			{
				"type": "occ",
				"energy": -0.22253,
				"method": "rhf"
			},
			{
				"type": "unocc",
				"energy": -0.05749,
				"method": "rhf"
			},
			{
				"type": "unocc",
				"energy": -0.01644,
				"method": "rhf"
			},
			{
				"type": "unocc",
				"energy": -0.01275,
				"method": "rhf"
			},
			{
				"type": "unocc",
				"energy": -0.00713,
				"method": "rhf"
			},
			{
				"type": "unocc",
				"energy": -0.00411,
				"method": "rhf"
			}
		],
		"cosmo_sigma_profile": { 
			"-0.025": 0.0,
			"-0.024": 0.0,
			"-0.023": 0.0,
			"-0.022": 0.0,
			"-0.021": 0.0,
			"-0.02": 0.0,
			"-0.019": 0.0,
			"-0.018": 0.0,
			"-0.017": 0.0,
			"-0.016": 0.0,
			"-0.015": 0.0,
			"-0.014": 0.0,
			"-0.013": 0.0,
			"-0.012": 0.0,
			"-0.011": 0.0,
			"-0.01": 0.0,
			"-0.009": 0.0,
			"-0.008": 0.0,
			"-0.007": 0.938721260702,
			"-0.006": 14.9622163959,
			"-0.005": 21.3436768265,
			"-0.004": 26.6137317393,
			"-0.003": 21.1351216694,
			"-0.002": 20.9500079247,
			"-0.001": 18.0710903441,
			"0.0": 20.04181925,
			"0.001": 22.3163932416,
			"0.002": 25.1353937483,
			"0.003": 28.6723926474,
			"0.004": 38.7724354248,
			"0.005": 22.0012228763,
			"0.006": 1.73948551997,
			"0.007": 0.0,
			"0.008": 0.0,
			"0.009": 0.0,
			"0.01": 0.0,
			"0.011": 0.0,
			"0.012": 0.0,
			"0.013": 0.0,
			"0.014": 0.0,
			"0.015": 0.0,
			"0.016": 0.0,
			"0.017": 0.0,
			"0.018": 0.0,
			"0.019": 0.0,
			"0.02": 0.0,
			"0.021": 0.0,
			"0.022": 0.0,
			"0.023": 0.0,
			"0.024": 0.0,
			"0.025": 0.0
		}
	}
}
