{
	 "smiles": "OCCN(CCO)CC1=CC=C(COC2=CC=CC=C2)C=C1", 
	 "Tm": 361.15, 
	 "num_atms": 45, 
	 "gaussian": { 
		 "optdone": 1, 
		 "sigma_profile": "yes", 
		 "theory": "DFT", 
		 "functional": "B3LYP", 
		 "basiset": "6-31G**", 
		 "properties": { 
			 "R2extent": 13237.8996, 
			 "electric_dipole_moment_norm": 3.82187733189, 
			 "electric_quadrupole_moment_norm": 24.6146177931, 
			 "total_energy": -980.154515954, 
			 "HOMO_LUMO_gap": 0.19253, 
			 "cosmo_polarized_energy": -17.6, 
			 "cosmo_cavitation_energy": 47.38, 
			 "cosmo_dispersion_energy": -32.94, 
			 "cosmo_repulsion_energy": 2.54, 
			 "cosmo_total_nonelectrostatic_energy": 16.99, 
			 "SMD_solvation_energy": 7.08 
		},
		"coords": [
			{
				"x": 4.593956103,
				"y": -4.7455894882,
				"z": 0.6766162556,
				"element": "O" 
			},
			{
				"x": 3.783333486,
				"y": -4.4390932091,
				"z": 1.8084650288,
				"element": "C" 
			},
			{
				"x": 3.4697682424,
				"y": -2.9364031601,
				"z": 1.8053809827,
				"element": "C" 
			},
			{
				"x": 2.4656657764,
				"y": -2.4186568107,
				"z": 0.8898167493,
				"element": "N" 
			},
			{
				"x": 2.8087495168,
				"y": -2.3043699116,
				"z": -0.5273688904,
				"element": "C" 
			},
			{
				"x": 2.5080171576,
				"y": -3.5136141583,
				"z": -1.4322814002,
				"element": "C" 
			},
			{
				"x": 2.8991915367,
				"y": -3.2488920772,
				"z": -2.7769986334,
				"element": "O" 
			},
			{
				"x": 1.0833748006,
				"y": -2.761511655,
				"z": 1.1988818481,
				"element": "C" 
			},
			{
				"x": 0.0826170775,
				"y": -1.7315885968,
				"z": 0.6987071473,
				"element": "C" 
			},
			{
				"x": -1.1083334386,
				"y": -2.1272907379,
				"z": 0.0844303542,
				"element": "C" 
			},
			{
				"x": -2.0476224645,
				"y": -1.1811838444,
				"z": -0.3315118905,
				"element": "C" 
			},
			{
				"x": -1.8174616977,
				"y": 0.1828823041,
				"z": -0.1374099936,
				"element": "C" 
			},
			{
				"x": -2.8640179707,
				"y": 1.1949032561,
				"z": -0.5364105027,
				"element": "C" 
			},
			{
				"x": -2.2185976544,
				"y": 2.3483813042,
				"z": -1.0693189981,
				"element": "O" 
			},
			{
				"x": -2.987986714,
				"y": 3.4196386401,
				"z": -1.4281386811,
				"element": "C" 
			},
			{
				"x": -4.3858301828,
				"y": 3.4565518321,
				"z": -1.356560686,
				"element": "C" 
			},
			{
				"x": -5.0641461375,
				"y": 4.613537233,
				"z": -1.7553871879,
				"element": "C" 
			},
			{
				"x": -4.3699432467,
				"y": 5.726287528,
				"z": -2.2235775749,
				"element": "C" 
			},
			{
				"x": -2.9728532553,
				"y": 5.678875788,
				"z": -2.2943209369,
				"element": "C" 
			},
			{
				"x": -2.2837019579,
				"y": 4.5376322861,
				"z": -1.9009026638,
				"element": "C" 
			},
			{
				"x": -0.6209142918,
				"y": 0.5837505001,
				"z": 0.4726886421,
				"element": "C" 
			},
			{
				"x": 0.3158585622,
				"y": -0.3612260127,
				"z": 0.8809952482,
				"element": "C" 
			},
			{
				"x": 4.7231957428,
				"y": -5.7015217657,
				"z": 0.6456184708,
				"element": "H" 
			},
			{
				"x": 4.3174225832,
				"y": -4.6781053309,
				"z": 2.7428522163,
				"element": "H" 
			},
			{
				"x": 2.8489015915,
				"y": -5.0218376926,
				"z": 1.8044660361,
				"element": "H" 
			},
			{
				"x": 4.4143285779,
				"y": -2.4102405271,
				"z": 1.6177289141,
				"element": "H" 
			},
			{
				"x": 3.1554751279,
				"y": -2.6710764411,
				"z": 2.8242945064,
				"element": "H" 
			},
			{
				"x": 2.2844306971,
				"y": -1.4399306771,
				"z": -0.9534566914,
				"element": "H" 
			},
			{
				"x": 3.8822911696,
				"y": -2.0870436659,
				"z": -0.5856845876,
				"element": "H" 
			},
			{
				"x": 1.4295399941,
				"y": -3.6975565934,
				"z": -1.4747091006,
				"element": "H" 
			},
			{
				"x": 2.998317595,
				"y": -4.4113164706,
				"z": -1.0364542033,
				"element": "H" 
			},
			{
				"x": 3.8624589674,
				"y": -3.175286296,
				"z": -2.7850571541,
				"element": "H" 
			},
			{
				"x": 1.0065906019,
				"y": -2.815631769,
				"z": 2.2940265413,
				"element": "H" 
			},
			{
				"x": 0.7748030235,
				"y": -3.7563071713,
				"z": 0.8300860756,
				"element": "H" 
			},
			{
				"x": -1.3021266021,
				"y": -3.1846814681,
				"z": -0.0806948136,
				"element": "H" 
			},
			{
				"x": -2.9615448126,
				"y": -1.5106587266,
				"z": -0.8202940165,
				"element": "H" 
			},
			{
				"x": -3.4678239686,
				"y": 1.4866605244,
				"z": 0.3373027304,
				"element": "H" 
			},
			{
				"x": -3.5491624508,
				"y": 0.7618760464,
				"z": -1.2786913187,
				"element": "H" 
			},
			{
				"x": -4.9505227889,
				"y": 2.6031422368,
				"z": -1.0006963464,
				"element": "H" 
			},
			{
				"x": -6.1489378441,
				"y": 4.6340069392,
				"z": -1.6965564592,
				"element": "H" 
			},
			{
				"x": -4.9057226833,
				"y": 6.6189031541,
				"z": -2.5311973461,
				"element": "H" 
			},
			{
				"x": -2.4164096201,
				"y": 6.5379818635,
				"z": -2.6586133889,
				"element": "H" 
			},
			{
				"x": -1.2009608959,
				"y": 4.4828689576,
				"z": -1.9494733318,
				"element": "H" 
			},
			{
				"x": -0.4248260745,
				"y": 1.6423170244,
				"z": 0.6102690113,
				"element": "H" 
			},
			{
				"x": 1.2500588217,
				"y": -0.0468831608,
				"z": 1.3374400391,
				"element": "H" 
			}
		],
		 "valence_orbital": [ 
			{
				"type": "occ",
				"energy": -0.24625,
				"method": "rhf"
			},
			{
				"type": "occ",
				"energy": -0.24593,
				"method": "rhf"
			},
			{
				"type": "occ",
				"energy": -0.23663,
				"method": "rhf"
			},
			{
				"type": "occ",
				"energy": -0.21482,
				"method": "rhf"
			},
			{
				"type": "occ",
				"energy": -0.19737,
				"method": "rhf"
			},
			{
				"type": "unocc",
				"energy": -0.00484,
				"method": "rhf"
			},
			{
				"type": "unocc",
				"energy": 0.00063,
				"method": "rhf"
			},
			{
				"type": "unocc",
				"energy": 0.00479,
				"method": "rhf"
			},
			{
				"type": "unocc",
				"energy": 0.01797,
				"method": "rhf"
			},
			{
				"type": "unocc",
				"energy": 0.06236,
				"method": "rhf"
			}
		],
		"cosmo_sigma_profile": { 
			"-0.025": 0.0,
			"-0.024": 0.0,
			"-0.023": 0.0,
			"-0.022": 0.0,
			"-0.021": 0.0,
			"-0.02": 0.0,
			"-0.019": 0.0,
			"-0.018": 0.0,
			"-0.017": 0.0,
			"-0.016": 0.260912908088,
			"-0.015": 1.77424786711,
			"-0.014": 2.12132031741,
			"-0.013": 1.16119483868,
			"-0.012": 1.75615646873,
			"-0.011": 1.80383573568,
			"-0.01": 1.86566582822,
			"-0.009": 1.80308461676,
			"-0.008": 1.63988405827,
			"-0.007": 2.28835101197,
			"-0.006": 12.9784352877,
			"-0.005": 24.9599297216,
			"-0.004": 31.2929513128,
			"-0.003": 44.1019988021,
			"-0.002": 32.4272601902,
			"-0.001": 29.1093823991,
			"0.0": 24.9625951865,
			"0.001": 23.1068399414,
			"0.002": 19.4001129386,
			"0.003": 19.6986835063,
			"0.004": 22.36118922,
			"0.005": 22.288426906,
			"0.006": 20.1328260281,
			"0.007": 5.94536378027,
			"0.008": 3.835710789,
			"0.009": 4.44432590386,
			"0.01": 2.86524520881,
			"0.011": 2.488329082,
			"0.012": 1.89723857557,
			"0.013": 2.58527697833,
			"0.014": 2.87024782634,
			"0.015": 1.84479486921,
			"0.016": 0.00272344327106,
			"0.017": 0.0,
			"0.018": 0.0,
			"0.019": 0.0,
			"0.02": 0.0,
			"0.021": 0.0,
			"0.022": 0.0,
			"0.023": 0.0,
			"0.024": 0.0,
			"0.025": 0.0
		}
	}
}
