{
	 "smiles": "O=C1NC2(CCNCC2)NC11CCCCC1", 
	 "Tm": 550.15, 
	 "num_atms": 37, 
	 "gaussian": { 
		 "optdone": 1, 
		 "sigma_profile": "yes", 
		 "theory": "DFT", 
		 "functional": "B3LYP", 
		 "basiset": "6-31G**", 
		 "properties": { 
			 "R2extent": 4528.0832, 
			 "electric_dipole_moment_norm": 3.2932902423, 
			 "electric_quadrupole_moment_norm": 14.3040292016, 
			 "total_energy": -709.429046102, 
			 "HOMO_LUMO_gap": 0.25318, 
			 "cosmo_polarized_energy": -15.35, 
			 "cosmo_cavitation_energy": 34.73, 
			 "cosmo_dispersion_energy": -25.31, 
			 "cosmo_repulsion_energy": 1.96, 
			 "cosmo_total_nonelectrostatic_energy": 11.38, 
			 "SMD_solvation_energy": 1.18 
		},
		"coords": [
			{
				"x": 1.6769447484,
				"y": 2.3594688251,
				"z": 0.6129035592,
				"element": "O" 
			},
			{
				"x": 1.3792224934,
				"y": 1.2143100388,
				"z": 0.3017323155,
				"element": "C" 
			},
			{
				"x": 0.9512032082,
				"y": 0.8107646207,
				"z": -0.9274918055,
				"element": "N" 
			},
			{
				"x": 0.6402189814,
				"y": -0.6078188207,
				"z": -1.056818402,
				"element": "C" 
			},
			{
				"x": -0.8908428638,
				"y": -0.8144576894,
				"z": -1.275377496,
				"element": "C" 
			},
			{
				"x": -1.1751584057,
				"y": -2.1097245221,
				"z": -2.0478409606,
				"element": "C" 
			},
			{
				"x": -0.5744883661,
				"y": -2.1249364508,
				"z": -3.3926944809,
				"element": "N" 
			},
			{
				"x": 0.6178062081,
				"y": -1.2735364569,
				"z": -3.5341774977,
				"element": "C" 
			},
			{
				"x": 1.4106337794,
				"y": -1.2774434356,
				"z": -2.2270897797,
				"element": "C" 
			},
			{
				"x": 1.1597273157,
				"y": -1.1212161458,
				"z": 0.2269208135,
				"element": "N" 
			},
			{
				"x": 1.3889249652,
				"y": -0.0331673594,
				"z": 1.2002344618,
				"element": "C" 
			},
			{
				"x": 0.2699613969,
				"y": 0.0688941522,
				"z": 2.2711581872,
				"element": "C" 
			},
			{
				"x": 0.5690840978,
				"y": 1.0962560015,
				"z": 3.3746818913,
				"element": "C" 
			},
			{
				"x": 1.9229738986,
				"y": 0.8191654405,
				"z": 4.0430276627,
				"element": "C" 
			},
			{
				"x": 3.0511611541,
				"y": 0.7838543102,
				"z": 3.0022864604,
				"element": "C" 
			},
			{
				"x": 2.7582932242,
				"y": -0.2355902401,
				"z": 1.8909652019,
				"element": "C" 
			},
			{
				"x": 0.8473395983,
				"y": 1.4724168579,
				"z": -1.6831596433,
				"element": "H" 
			},
			{
				"x": -1.4054246533,
				"y": -0.8029592903,
				"z": -0.3080796264,
				"element": "H" 
			},
			{
				"x": -1.2844158045,
				"y": 0.0339752433,
				"z": -1.8496122065,
				"element": "H" 
			},
			{
				"x": -2.2540372236,
				"y": -2.2678564912,
				"z": -2.1444723109,
				"element": "H" 
			},
			{
				"x": -0.7973504467,
				"y": -2.9669294388,
				"z": -1.470367005,
				"element": "H" 
			},
			{
				"x": -1.2685049413,
				"y": -1.8597701569,
				"z": -4.082831151,
				"element": "H" 
			},
			{
				"x": 1.2387725071,
				"y": -1.6619298235,
				"z": -4.3505320049,
				"element": "H" 
			},
			{
				"x": 0.3716590235,
				"y": -0.2292482305,
				"z": -3.8052356687,
				"element": "H" 
			},
			{
				"x": 1.6175588171,
				"y": -2.3139845256,
				"z": -1.9406659544,
				"element": "H" 
			},
			{
				"x": 2.3785734936,
				"y": -0.781582787,
				"z": -2.344269839,
				"element": "H" 
			},
			{
				"x": 0.5630931494,
				"y": -1.8514394279,
				"z": 0.6019173844,
				"element": "H" 
			},
			{
				"x": 0.1673110019,
				"y": -0.9285821211,
				"z": 2.7257354325,
				"element": "H" 
			},
			{
				"x": -0.6876889711,
				"y": 0.29533843,
				"z": 1.7860226463,
				"element": "H" 
			},
			{
				"x": -0.2383965256,
				"y": 1.0767065508,
				"z": 4.1168432707,
				"element": "H" 
			},
			{
				"x": 0.5812766789,
				"y": 2.0992751927,
				"z": 2.934648413,
				"element": "H" 
			},
			{
				"x": 1.8790072901,
				"y": -0.1449032369,
				"z": 4.5717102737,
				"element": "H" 
			},
			{
				"x": 2.1309520766,
				"y": 1.5823669973,
				"z": 4.8022666704,
				"element": "H" 
			},
			{
				"x": 3.1618319546,
				"y": 1.7771852756,
				"z": 2.5557102678,
				"element": "H" 
			},
			{
				"x": 4.0051998194,
				"y": 0.5332771151,
				"z": 3.4820371845,
				"element": "H" 
			},
			{
				"x": 3.5434133889,
				"y": -0.2243120022,
				"z": 1.1270673927,
				"element": "H" 
			},
			{
				"x": 2.7523639309,
				"y": -1.2512663991,
				"z": 2.3112463427,
				"element": "H" 
			}
		],
		 "valence_orbital": [ 
			{
				"type": "occ",
				"energy": -0.2991,
				"method": "rhf"
			},
			{
				"type": "occ",
				"energy": -0.25165,
				"method": "rhf"
			},
			{
				"type": "occ",
				"energy": -0.23888,
				"method": "rhf"
			},
			{
				"type": "occ",
				"energy": -0.22144,
				"method": "rhf"
			},
			{
				"type": "occ",
				"energy": -0.21844,
				"method": "rhf"
			},
			{
				"type": "unocc",
				"energy": 0.03474,
				"method": "rhf"
			},
			{
				"type": "unocc",
				"energy": 0.05836,
				"method": "rhf"
			},
			{
				"type": "unocc",
				"energy": 0.08256,
				"method": "rhf"
			},
			{
				"type": "unocc",
				"energy": 0.09195,
				"method": "rhf"
			},
			{
				"type": "unocc",
				"energy": 0.09305,
				"method": "rhf"
			}
		],
		"cosmo_sigma_profile": { 
			"-0.025": 0.0,
			"-0.024": 0.0,
			"-0.023": 0.0,
			"-0.022": 0.0,
			"-0.021": 0.0,
			"-0.02": 0.0,
			"-0.019": 0.0,
			"-0.018": 0.0,
			"-0.017": 0.0,
			"-0.016": 0.0,
			"-0.015": 0.0,
			"-0.014": 0.454482343595,
			"-0.013": 1.2326013186,
			"-0.012": 0.554270383561,
			"-0.011": 1.41179671536,
			"-0.01": 2.40560739321,
			"-0.009": 4.18337320971,
			"-0.008": 4.11374289559,
			"-0.007": 5.10321850849,
			"-0.006": 4.86057631346,
			"-0.005": 7.02943213418,
			"-0.004": 13.0041391744,
			"-0.003": 25.5397440569,
			"-0.002": 36.3397397291,
			"-0.001": 35.4935660572,
			"0.0": 36.2978845217,
			"0.001": 28.6306911704,
			"0.002": 13.3634254807,
			"0.003": 4.21570777184,
			"0.004": 4.94908543768,
			"0.005": 3.76177954087,
			"0.006": 3.34585752136,
			"0.007": 2.58741963955,
			"0.008": 3.49886194862,
			"0.009": 3.40244052071,
			"0.01": 2.05857592538,
			"0.011": 2.9993248097,
			"0.012": 3.04455900244,
			"0.013": 3.06693428473,
			"0.014": 5.36118316568,
			"0.015": 2.21262963887,
			"0.016": 0.870322388479,
			"0.017": 0.469004487358,
			"0.018": 0.485846099684,
			"0.019": 0.26486478287,
			"0.02": 0.0,
			"0.021": 0.0,
			"0.022": 0.0,
			"0.023": 0.0,
			"0.024": 0.0,
			"0.025": 0.0
		}
	}
}
