{
	 "smiles": "CN(C)C1=NC(C=CN1)=NN", 
	 "Tm": 418.15, 
	 "num_atms": 22, 
	 "gaussian": { 
		 "optdone": 1, 
		 "sigma_profile": "yes", 
		 "theory": "DFT", 
		 "functional": "B3LYP", 
		 "basiset": "6-31G**", 
		 "properties": { 
			 "R2extent": 2475.2157, 
			 "electric_dipole_moment_norm": 5.2739286258, 
			 "electric_quadrupole_moment_norm": 10.5010812777, 
			 "total_energy": -508.967071572, 
			 "HOMO_LUMO_gap": 0.16022, 
			 "cosmo_polarized_energy": -22.69, 
			 "cosmo_cavitation_energy": 25.13, 
			 "cosmo_dispersion_energy": -18.85, 
			 "cosmo_repulsion_energy": 1.53, 
			 "cosmo_total_nonelectrostatic_energy": 7.8, 
			 "SMD_solvation_energy": 2.38 
		},
		"coords": [
			{
				"x": 1.7257473805,
				"y": 0.9627780614,
				"z": -0.8529402963,
				"element": "C" 
			},
			{
				"x": 0.2843901289,
				"y": 1.202872755,
				"z": -0.789855162,
				"element": "N" 
			},
			{
				"x": -0.0526927516,
				"y": 2.561978515,
				"z": -0.3752947485,
				"element": "C" 
			},
			{
				"x": -0.5537325585,
				"y": 0.1997009216,
				"z": -0.3105969967,
				"element": "C" 
			},
			{
				"x": -1.506067443,
				"y": 0.4632156271,
				"z": 0.515923138,
				"element": "N" 
			},
			{
				"x": -2.4208541604,
				"y": -0.5389431409,
				"z": 0.8762841694,
				"element": "C" 
			},
			{
				"x": -2.1502242311,
				"y": -1.9056733403,
				"z": 0.4147776197,
				"element": "C" 
			},
			{
				"x": -1.1224395313,
				"y": -2.1224324771,
				"z": -0.425723601,
				"element": "C" 
			},
			{
				"x": -0.2984457133,
				"y": -1.0765082509,
				"z": -0.8207844988,
				"element": "N" 
			},
			{
				"x": -3.4237856735,
				"y": -0.1673319846,
				"z": 1.6044796026,
				"element": "N" 
			},
			{
				"x": -4.325506292,
				"y": -1.1943500637,
				"z": 1.9603710826,
				"element": "N" 
			},
			{
				"x": 2.1721351707,
				"y": 1.6232805345,
				"z": -1.6026471672,
				"element": "H" 
			},
			{
				"x": 2.2157454467,
				"y": 1.1590960733,
				"z": 0.113912777,
				"element": "H" 
			},
			{
				"x": 1.9482508013,
				"y": -0.0675619788,
				"z": -1.1321763958,
				"element": "H" 
			},
			{
				"x": 0.229798502,
				"y": 2.7615866564,
				"z": 0.6681885416,
				"element": "H" 
			},
			{
				"x": 0.4771003951,
				"y": 3.2624307902,
				"z": -1.0282466472,
				"element": "H" 
			},
			{
				"x": -1.1271258463,
				"y": 2.7150504752,
				"z": -0.4640230128,
				"element": "H" 
			},
			{
				"x": -2.7378817457,
				"y": -2.7352752554,
				"z": 0.7859215946,
				"element": "H" 
			},
			{
				"x": -0.853793539,
				"y": -3.1004379626,
				"z": -0.8108342899,
				"element": "H" 
			},
			{
				"x": 0.2211838868,
				"y": -1.1580488557,
				"z": -1.6815084395,
				"element": "H" 
			},
			{
				"x": -4.6718280783,
				"y": -1.6932996345,
				"z": 1.1380395482,
				"element": "H" 
			},
			{
				"x": -5.1247741479,
				"y": -0.7292274653,
				"z": 2.378233182,
				"element": "H" 
			}
		],
		 "valence_orbital": [ 
			{
				"type": "occ",
				"energy": -0.28488,
				"method": "rhf"
			},
			{
				"type": "occ",
				"energy": -0.25307,
				"method": "rhf"
			},
			{
				"type": "occ",
				"energy": -0.23056,
				"method": "rhf"
			},
			{
				"type": "occ",
				"energy": -0.22646,
				"method": "rhf"
			},
			{
				"type": "occ",
				"energy": -0.16705,
				"method": "rhf"
			},
			{
				"type": "unocc",
				"energy": -0.00683,
				"method": "rhf"
			},
			{
				"type": "unocc",
				"energy": 0.01817,
				"method": "rhf"
			},
			{
				"type": "unocc",
				"energy": 0.06155,
				"method": "rhf"
			},
			{
				"type": "unocc",
				"energy": 0.10167,
				"method": "rhf"
			},
			{
				"type": "unocc",
				"energy": 0.10756,
				"method": "rhf"
			}
		],
		"cosmo_sigma_profile": { 
			"-0.025": 0.0,
			"-0.024": 0.0,
			"-0.023": 0.0,
			"-0.022": 0.0,
			"-0.021": 0.0,
			"-0.02": 0.0,
			"-0.019": 0.0,
			"-0.018": 0.0,
			"-0.017": 0.0499741226539,
			"-0.016": 1.34101113714,
			"-0.015": 0.668069275073,
			"-0.014": 1.5080399966,
			"-0.013": 1.49188948367,
			"-0.012": 1.17113041474,
			"-0.011": 1.59120483485,
			"-0.01": 4.37481868058,
			"-0.009": 4.94057204955,
			"-0.008": 7.42252256381,
			"-0.007": 4.54344589261,
			"-0.006": 6.35582341571,
			"-0.005": 11.6463585776,
			"-0.004": 14.1031679062,
			"-0.003": 17.9922227431,
			"-0.002": 20.1632085252,
			"-0.001": 15.8215881674,
			"0.0": 8.91130342982,
			"0.001": 8.69745804551,
			"0.002": 7.33402493586,
			"0.003": 9.45046521426,
			"0.004": 6.74341419055,
			"0.005": 4.57035119925,
			"0.006": 3.10811567795,
			"0.007": 3.12210340937,
			"0.008": 3.2624915391,
			"0.009": 3.63061262277,
			"0.01": 2.02689812445,
			"0.011": 2.45920822587,
			"0.012": 2.75662326212,
			"0.013": 2.92581406206,
			"0.014": 2.6522961862,
			"0.015": 2.30877034521,
			"0.016": 2.15169535409,
			"0.017": 2.59543051127,
			"0.018": 1.97421813133,
			"0.019": 1.87965634047,
			"0.02": 0.216624064068,
			"0.021": 0.0,
			"0.022": 0.0,
			"0.023": 0.0,
			"0.024": 0.0,
			"0.025": 0.0
		}
	}
}
