{
	 "smiles": "CC(=O)C(CC(=O)C1=CC=CC=C1)C(=O)C1=CC=CC=C1", 
	 "Tm": 363.15, 
	 "num_atms": 37, 
	 "gaussian": { 
		 "optdone": 1, 
		 "sigma_profile": "yes", 
		 "theory": "DFT", 
		 "functional": "B3LYP", 
		 "basiset": "6-31G**", 
		 "properties": { 
			 "R2extent": 7846.5453, 
			 "electric_dipole_moment_norm": 2.36988912188, 
			 "electric_quadrupole_moment_norm": 15.2483154784, 
			 "total_energy": -921.231709226, 
			 "HOMO_LUMO_gap": 0.1735, 
			 "cosmo_polarized_energy": -14.47, 
			 "cosmo_cavitation_energy": 41.16, 
			 "cosmo_dispersion_energy": -28.18, 
			 "cosmo_repulsion_energy": 2.16, 
			 "cosmo_total_nonelectrostatic_energy": 15.14, 
			 "SMD_solvation_energy": 8.33 
		},
		"coords": [
			{
				"x": 3.3964404237,
				"y": -1.5615710542,
				"z": 1.3158315033,
				"element": "C" 
			},
			{
				"x": 2.2881707321,
				"y": -1.3939799655,
				"z": 2.3360047925,
				"element": "C" 
			},
			{
				"x": 2.5128112622,
				"y": -1.342598818,
				"z": 3.5297730443,
				"element": "O" 
			},
			{
				"x": 0.8434151732,
				"y": -1.2710180846,
				"z": 1.8043226152,
				"element": "C" 
			},
			{
				"x": 0.5075858326,
				"y": -2.3417057188,
				"z": 0.7505789879,
				"element": "C" 
			},
			{
				"x": -1.0079858465,
				"y": -2.4854638716,
				"z": 0.5632319717,
				"element": "C" 
			},
			{
				"x": -1.7201684946,
				"y": -2.6035955686,
				"z": 1.5505300113,
				"element": "O" 
			},
			{
				"x": -1.5892310643,
				"y": -2.5480346855,
				"z": -0.8126863909,
				"element": "C" 
			},
			{
				"x": -2.8470358027,
				"y": -3.1565875364,
				"z": -0.9637206666,
				"element": "C" 
			},
			{
				"x": -3.4417649232,
				"y": -3.2427081984,
				"z": -2.2181240045,
				"element": "C" 
			},
			{
				"x": -2.796961914,
				"y": -2.7009608885,
				"z": -3.3349553219,
				"element": "C" 
			},
			{
				"x": -1.5593535107,
				"y": -2.0717575629,
				"z": -3.1901909197,
				"element": "C" 
			},
			{
				"x": -0.9510787158,
				"y": -2.0001660814,
				"z": -1.9366516062,
				"element": "C" 
			},
			{
				"x": 0.645651955,
				"y": 0.1417601657,
				"z": 1.2116219668,
				"element": "C" 
			},
			{
				"x": 0.7479617641,
				"y": 0.3080314647,
				"z": 0.0016161818,
				"element": "O" 
			},
			{
				"x": 0.34590743,
				"y": 1.2834058138,
				"z": 2.1230477679,
				"element": "C" 
			},
			{
				"x": 0.375339909,
				"y": 1.1727583697,
				"z": 3.5235571207,
				"element": "C" 
			},
			{
				"x": 0.0896107945,
				"y": 2.2841438185,
				"z": 4.3162422102,
				"element": "C" 
			},
			{
				"x": -0.2367872927,
				"y": 3.5052064722,
				"z": 3.7237899964,
				"element": "C" 
			},
			{
				"x": -0.2668410844,
				"y": 3.6226467588,
				"z": 2.3300997557,
				"element": "C" 
			},
			{
				"x": 0.0276212797,
				"y": 2.5208154894,
				"z": 1.5352950019,
				"element": "C" 
			},
			{
				"x": 3.3720050203,
				"y": -2.5748529018,
				"z": 0.8982911782,
				"element": "H" 
			},
			{
				"x": 3.2651326184,
				"y": -0.8677651098,
				"z": 0.4793607763,
				"element": "H" 
			},
			{
				"x": 4.3611737184,
				"y": -1.4029044484,
				"z": 1.7992727703,
				"element": "H" 
			},
			{
				"x": 0.1827029254,
				"y": -1.4079882637,
				"z": 2.6618434714,
				"element": "H" 
			},
			{
				"x": 0.8450559926,
				"y": -3.3215022184,
				"z": 1.1126353145,
				"element": "H" 
			},
			{
				"x": 1.0248176291,
				"y": -2.1382141522,
				"z": -0.1850083573,
				"element": "H" 
			},
			{
				"x": -3.3347226761,
				"y": -3.5567092584,
				"z": -0.0810088236,
				"element": "H" 
			},
			{
				"x": -4.4076796385,
				"y": -3.7268915574,
				"z": -2.3289862469,
				"element": "H" 
			},
			{
				"x": -3.2625867468,
				"y": -2.7640027776,
				"z": -4.3145137491,
				"element": "H" 
			},
			{
				"x": -1.0677551741,
				"y": -1.6324718357,
				"z": -4.0532216949,
				"element": "H" 
			},
			{
				"x": -0.0098350588,
				"y": -1.4729558443,
				"z": -1.826243358,
				"element": "H" 
			},
			{
				"x": 0.6506634756,
				"y": 0.2369628043,
				"z": 3.9967377024,
				"element": "H" 
			},
			{
				"x": 0.1218563258,
				"y": 2.1948082817,
				"z": 5.3978712441,
				"element": "H" 
			},
			{
				"x": -0.4661886743,
				"y": 4.365792479,
				"z": 4.3459217218,
				"element": "H" 
			},
			{
				"x": -0.51952777,
				"y": 4.5729027247,
				"z": 1.8689482318,
				"element": "H" 
			},
			{
				"x": 0.0151801258,
				"y": 2.5880717595,
				"z": 0.4527858013,
				"element": "H" 
			}
		],
		 "valence_orbital": [ 
			{
				"type": "occ",
				"energy": -0.26126,
				"method": "rhf"
			},
			{
				"type": "occ",
				"energy": -0.26007,
				"method": "rhf"
			},
			{
				"type": "occ",
				"energy": -0.25867,
				"method": "rhf"
			},
			{
				"type": "occ",
				"energy": -0.25543,
				"method": "rhf"
			},
			{
				"type": "occ",
				"energy": -0.24433,
				"method": "rhf"
			},
			{
				"type": "unocc",
				"energy": -0.07083,
				"method": "rhf"
			},
			{
				"type": "unocc",
				"energy": -0.05688,
				"method": "rhf"
			},
			{
				"type": "unocc",
				"energy": -0.0198,
				"method": "rhf"
			},
			{
				"type": "unocc",
				"energy": -0.00986,
				"method": "rhf"
			},
			{
				"type": "unocc",
				"energy": -0.00837,
				"method": "rhf"
			}
		],
		"cosmo_sigma_profile": { 
			"-0.025": 0.0,
			"-0.024": 0.0,
			"-0.023": 0.0,
			"-0.022": 0.0,
			"-0.021": 0.0,
			"-0.02": 0.0,
			"-0.019": 0.0,
			"-0.018": 0.0,
			"-0.017": 0.0,
			"-0.016": 0.0,
			"-0.015": 0.0,
			"-0.014": 0.0,
			"-0.013": 0.0,
			"-0.012": 0.0,
			"-0.011": 0.0,
			"-0.01": 0.0,
			"-0.009": 0.184310460723,
			"-0.008": 2.01093907975,
			"-0.007": 8.38975871185,
			"-0.006": 22.2789053916,
			"-0.005": 31.2501240463,
			"-0.004": 32.1595559686,
			"-0.003": 24.2889142307,
			"-0.002": 26.1418507894,
			"-0.001": 19.590294434,
			"0.0": 21.1718119673,
			"0.001": 19.7132661347,
			"0.002": 22.6207082978,
			"0.003": 27.9213098732,
			"0.004": 27.1267254233,
			"0.005": 5.47587079333,
			"0.006": 5.12205327698,
			"0.007": 4.83684909656,
			"0.008": 4.69294391061,
			"0.009": 4.29730293904,
			"0.01": 6.1952077392,
			"0.011": 8.1961543898,
			"0.012": 5.00818999602,
			"0.013": 0.284979008207,
			"0.014": 0.0,
			"0.015": 0.0,
			"0.016": 0.0,
			"0.017": 0.0,
			"0.018": 0.0,
			"0.019": 0.0,
			"0.02": 0.0,
			"0.021": 0.0,
			"0.022": 0.0,
			"0.023": 0.0,
			"0.024": 0.0,
			"0.025": 0.0
		}
	}
}
