{
	 "smiles": "CC(=O)NC(N)=O", 
	 "Tm": 491.15, 
	 "num_atms": 13, 
	 "gaussian": { 
		 "optdone": 1, 
		 "sigma_profile": "yes", 
		 "theory": "DFT", 
		 "functional": "B3LYP", 
		 "basiset": "6-31G**", 
		 "properties": { 
			 "R2extent": 1439.3995, 
			 "electric_dipole_moment_norm": 6.19250860395, 
			 "electric_quadrupole_moment_norm": 16.2899498151, 
			 "total_energy": -377.915470624, 
			 "HOMO_LUMO_gap": 0.24133, 
			 "cosmo_polarized_energy": -24.33, 
			 "cosmo_cavitation_energy": 17.8, 
			 "cosmo_dispersion_energy": -13.07, 
			 "cosmo_repulsion_energy": 1.15, 
			 "cosmo_total_nonelectrostatic_energy": 5.87, 
			 "SMD_solvation_energy": 5.22 
		},
		"coords": [
			{
				"x": -1.2067078288,
				"y": -0.5915691984,
				"z": -1.4749341434,
				"element": "C" 
			},
			{
				"x": -0.6867112763,
				"y": 0.8362052287,
				"z": -1.3683798913,
				"element": "C" 
			},
			{
				"x": -0.2612578117,
				"y": 1.4614194434,
				"z": -2.3128557838,
				"element": "O" 
			},
			{
				"x": -0.76453058,
				"y": 1.3449322285,
				"z": -0.0635272658,
				"element": "N" 
			},
			{
				"x": -0.1963090667,
				"y": 2.5519524221,
				"z": 0.4016712272,
				"element": "C" 
			},
			{
				"x": -0.6317182116,
				"y": 2.8527769728,
				"z": 1.6878161553,
				"element": "N" 
			},
			{
				"x": 0.6138118045,
				"y": 3.2165102973,
				"z": -0.2041421603,
				"element": "O" 
			},
			{
				"x": -2.205030445,
				"y": -0.6929714758,
				"z": -1.0350873086,
				"element": "H" 
			},
			{
				"x": -1.246633992,
				"y": -0.8668785214,
				"z": -2.5282760836,
				"element": "H" 
			},
			{
				"x": -0.5365855564,
				"y": -1.282047312,
				"z": -0.9503793348,
				"element": "H" 
			},
			{
				"x": -1.1565501946,
				"y": 0.7340386339,
				"z": 0.6398170949,
				"element": "H" 
			},
			{
				"x": -1.5869583691,
				"y": 2.6305126342,
				"z": 1.9334410738,
				"element": "H" 
			},
			{
				"x": -0.3261184723,
				"y": 3.7665186468,
				"z": 1.9933364204,
				"element": "H" 
			}
		],
		 "valence_orbital": [ 
			{
				"type": "occ",
				"energy": -0.36713,
				"method": "rhf"
			},
			{
				"type": "occ",
				"energy": -0.29196,
				"method": "rhf"
			},
			{
				"type": "occ",
				"energy": -0.28297,
				"method": "rhf"
			},
			{
				"type": "occ",
				"energy": -0.27191,
				"method": "rhf"
			},
			{
				"type": "occ",
				"energy": -0.2472,
				"method": "rhf"
			},
			{
				"type": "unocc",
				"energy": -0.00587,
				"method": "rhf"
			},
			{
				"type": "unocc",
				"energy": 0.04876,
				"method": "rhf"
			},
			{
				"type": "unocc",
				"energy": 0.05924,
				"method": "rhf"
			},
			{
				"type": "unocc",
				"energy": 0.09431,
				"method": "rhf"
			},
			{
				"type": "unocc",
				"energy": 0.12018,
				"method": "rhf"
			}
		],
		"cosmo_sigma_profile": { 
			"-0.025": 0.0,
			"-0.024": 0.0,
			"-0.023": 0.0,
			"-0.022": 0.0,
			"-0.021": 0.0,
			"-0.02": 0.0,
			"-0.019": 0.0,
			"-0.018": 0.0,
			"-0.017": 0.0,
			"-0.016": 1.52534978248,
			"-0.015": 2.60605365732,
			"-0.014": 3.30298039343,
			"-0.013": 3.67830649624,
			"-0.012": 3.07823968452,
			"-0.011": 3.24555502137,
			"-0.01": 3.3963073496,
			"-0.009": 3.4210543098,
			"-0.008": 2.78311952879,
			"-0.007": 4.6415693618,
			"-0.006": 7.10726100051,
			"-0.005": 7.12294434119,
			"-0.004": 7.08268601161,
			"-0.003": 6.78268152994,
			"-0.002": 11.0719880666,
			"-0.001": 7.87492885935,
			"0.0": 6.23934764925,
			"0.001": 3.49767631535,
			"0.002": 2.33738493041,
			"0.003": 3.10856589572,
			"0.004": 2.96721932938,
			"0.005": 1.99488302034,
			"0.006": 3.09709091326,
			"0.007": 2.74030683859,
			"0.008": 2.82503783797,
			"0.009": 2.55068161495,
			"0.01": 2.82026037225,
			"0.011": 4.42959337588,
			"0.012": 6.52378229547,
			"0.013": 8.55237706364,
			"0.014": 3.36834444128,
			"0.015": 1.70006562353,
			"0.016": 1.31156743217,
			"0.017": 1.10354237885,
			"0.018": 0.231546713171,
			"0.019": 0.0,
			"0.02": 0.0,
			"0.021": 0.0,
			"0.022": 0.0,
			"0.023": 0.0,
			"0.024": 0.0,
			"0.025": 0.0
		}
	}
}
