{
	 "smiles": "NC1=NC(=CS1)C1=CC2=CC=CC=C2C=C1", 
	 "Tm": 428.15, 
	 "num_atms": 26, 
	 "gaussian": { 
		 "optdone": 1, 
		 "sigma_profile": "yes", 
		 "theory": "DFT", 
		 "functional": "B3LYP", 
		 "basiset": "6-31G**", 
		 "properties": { 
			 "R2extent": 5602.4912, 
			 "electric_dipole_moment_norm": 1.91322826134, 
			 "electric_quadrupole_moment_norm": 18.7995587557, 
			 "total_energy": -1009.11501477, 
			 "HOMO_LUMO_gap": 0.1576, 
			 "cosmo_polarized_energy": -12.65, 
			 "cosmo_cavitation_energy": 31.75, 
			 "cosmo_dispersion_energy": -24.29, 
			 "cosmo_repulsion_energy": 1.81, 
			 "cosmo_total_nonelectrostatic_energy": 9.28, 
			 "SMD_solvation_energy": 3.65 
		},
		"coords": [
			{
				"x": 3.2606001144,
				"y": 3.1299084109,
				"z": -0.196592725,
				"element": "N" 
			},
			{
				"x": 1.9940528135,
				"y": 2.7808549527,
				"z": 0.2155443208,
				"element": "C" 
			},
			{
				"x": 1.2922582981,
				"y": 1.827927289,
				"z": -0.3167886491,
				"element": "N" 
			},
			{
				"x": 0.0239661877,
				"y": 1.7528007268,
				"z": 0.2471658743,
				"element": "C" 
			},
			{
				"x": -0.2239301949,
				"y": 2.6692166227,
				"z": 1.2339875675,
				"element": "C" 
			},
			{
				"x": 1.1619503858,
				"y": 3.7003743611,
				"z": 1.4796877626,
				"element": "S" 
			},
			{
				"x": -0.9096778124,
				"y": 0.7220903625,
				"z": -0.2409839974,
				"element": "C" 
			},
			{
				"x": -0.5234593997,
				"y": -0.1401026776,
				"z": -1.2535759064,
				"element": "C" 
			},
			{
				"x": -1.3948996909,
				"y": -1.1433305731,
				"z": -1.7487056495,
				"element": "C" 
			},
			{
				"x": -1.0075670727,
				"y": -2.0327862934,
				"z": -2.7882074897,
				"element": "C" 
			},
			{
				"x": -1.8738983625,
				"y": -2.9984566743,
				"z": -3.2502355129,
				"element": "C" 
			},
			{
				"x": -3.1709839402,
				"y": -3.1211123081,
				"z": -2.6941185773,
				"element": "C" 
			},
			{
				"x": -3.5766669972,
				"y": -2.2743203648,
				"z": -1.6855892489,
				"element": "C" 
			},
			{
				"x": -2.7070765738,
				"y": -1.2692270887,
				"z": -1.1881372232,
				"element": "C" 
			},
			{
				"x": -3.084501861,
				"y": -0.3741245161,
				"z": -0.1492858077,
				"element": "C" 
			},
			{
				"x": -2.2189943307,
				"y": 0.587306253,
				"z": 0.3091534375,
				"element": "C" 
			},
			{
				"x": 3.8780616554,
				"y": 3.5150951682,
				"z": 0.503756292,
				"element": "H" 
			},
			{
				"x": 3.6919723135,
				"y": 2.423471901,
				"z": -0.7784902179,
				"element": "H" 
			},
			{
				"x": -1.1113027798,
				"y": 2.8089460492,
				"z": 1.8317877534,
				"element": "H" 
			},
			{
				"x": 0.4711321513,
				"y": -0.040902072,
				"z": -1.6752136966,
				"element": "H" 
			},
			{
				"x": -0.0117949242,
				"y": -1.9361125942,
				"z": -3.2132529457,
				"element": "H" 
			},
			{
				"x": -1.5652347725,
				"y": -3.6714843182,
				"z": -4.0451033616,
				"element": "H" 
			},
			{
				"x": -3.8452297712,
				"y": -3.8867561072,
				"z": -3.0671036438,
				"element": "H" 
			},
			{
				"x": -4.5715699501,
				"y": -2.3655218603,
				"z": -1.256655492,
				"element": "H" 
			},
			{
				"x": -4.0786201955,
				"y": -0.4620195624,
				"z": 0.2818679332,
				"element": "H" 
			},
			{
				"x": -2.5403852903,
				"y": 1.2540649133,
				"z": 1.1030892032,
				"element": "H" 
			}
		],
		 "valence_orbital": [ 
			{
				"type": "occ",
				"energy": -0.27308,
				"method": "rhf"
			},
			{
				"type": "occ",
				"energy": -0.2717,
				"method": "rhf"
			},
			{
				"type": "occ",
				"energy": -0.24291,
				"method": "rhf"
			},
			{
				"type": "occ",
				"energy": -0.21601,
				"method": "rhf"
			},
			{
				"type": "occ",
				"energy": -0.19594,
				"method": "rhf"
			},
			{
				"type": "unocc",
				"energy": -0.03834,
				"method": "rhf"
			},
			{
				"type": "unocc",
				"energy": -0.0215,
				"method": "rhf"
			},
			{
				"type": "unocc",
				"energy": 0.00831,
				"method": "rhf"
			},
			{
				"type": "unocc",
				"energy": 0.01444,
				"method": "rhf"
			},
			{
				"type": "unocc",
				"energy": 0.03586,
				"method": "rhf"
			}
		],
		"cosmo_sigma_profile": { 
			"-0.025": 0.0,
			"-0.024": 0.0,
			"-0.023": 0.0,
			"-0.022": 0.0,
			"-0.021": 0.0,
			"-0.02": 0.0,
			"-0.019": 0.0,
			"-0.018": 0.0,
			"-0.017": 0.0,
			"-0.016": 0.0,
			"-0.015": 0.384953935482,
			"-0.014": 2.03010097452,
			"-0.013": 2.62795198562,
			"-0.012": 2.41622880852,
			"-0.011": 3.07009213769,
			"-0.01": 2.62000883771,
			"-0.009": 3.29148771336,
			"-0.008": 4.35634118732,
			"-0.007": 3.45672209457,
			"-0.006": 10.8440531341,
			"-0.005": 17.90959873,
			"-0.004": 14.7311035335,
			"-0.003": 15.4618414175,
			"-0.002": 12.3386777894,
			"-0.001": 10.7212158674,
			"0.0": 12.8003363959,
			"0.001": 15.8267400584,
			"0.002": 19.1893674616,
			"0.003": 23.5380590986,
			"0.004": 39.1644262735,
			"0.005": 22.8059124159,
			"0.006": 6.15780337626,
			"0.007": 2.52926500267,
			"0.008": 2.22871244441,
			"0.009": 2.14718788015,
			"0.01": 2.06269349359,
			"0.011": 2.22689943653,
			"0.012": 0.435052978678,
			"0.013": 0.0,
			"0.014": 0.0,
			"0.015": 0.0,
			"0.016": 0.0,
			"0.017": 0.0,
			"0.018": 0.0,
			"0.019": 0.0,
			"0.02": 0.0,
			"0.021": 0.0,
			"0.022": 0.0,
			"0.023": 0.0,
			"0.024": 0.0,
			"0.025": 0.0
		}
	}
}
