{
	 "smiles": "COC1=CC(C=O)=CC(=C1O)[N+]([O-])=O", 
	 "Tm": 449.15, 
	 "num_atms": 21, 
	 "gaussian": { 
		 "optdone": 1, 
		 "sigma_profile": "yes", 
		 "theory": "DFT", 
		 "functional": "B3LYP", 
		 "basiset": "6-31G**", 
		 "properties": { 
			 "R2extent": 3458.7968, 
			 "electric_dipole_moment_norm": 2.00753144185, 
			 "electric_quadrupole_moment_norm": 19.6614786644, 
			 "total_energy": -739.815951557, 
			 "HOMO_LUMO_gap": 0.14257, 
			 "cosmo_polarized_energy": -11.96, 
			 "cosmo_cavitation_energy": 26.63, 
			 "cosmo_dispersion_energy": -19.52, 
			 "cosmo_repulsion_energy": 1.52, 
			 "cosmo_total_nonelectrostatic_energy": 8.63, 
			 "SMD_solvation_energy": 8.95 
		},
		"coords": [
			{
				"x": 0.862465215,
				"y": -2.1207409801,
				"z": 3.8470712651,
				"element": "C" 
			},
			{
				"x": 1.3508299667,
				"y": -1.7898761937,
				"z": 2.537974251,
				"element": "O" 
			},
			{
				"x": 0.5594267597,
				"y": -0.9910307639,
				"z": 1.7670315159,
				"element": "C" 
			},
			{
				"x": 1.0192841816,
				"y": 0.252999873,
				"z": 1.3796804011,
				"element": "C" 
			},
			{
				"x": 0.2669381076,
				"y": 1.0800938809,
				"z": 0.5172051596,
				"element": "C" 
			},
			{
				"x": 0.7855115291,
				"y": 2.4073803483,
				"z": 0.1207493239,
				"element": "C" 
			},
			{
				"x": 1.8503220951,
				"y": 2.8633255329,
				"z": 0.4897964996,
				"element": "O" 
			},
			{
				"x": -0.9660701963,
				"y": 0.6490118222,
				"z": 0.0517950812,
				"element": "C" 
			},
			{
				"x": -1.4438138244,
				"y": -0.6096778179,
				"z": 0.434503159,
				"element": "C" 
			},
			{
				"x": -0.6970143408,
				"y": -1.46318135,
				"z": 1.2860751074,
				"element": "C" 
			},
			{
				"x": -1.095545726,
				"y": -2.6782689535,
				"z": 1.6531249061,
				"element": "O" 
			},
			{
				"x": -2.7295183762,
				"y": -1.0363549479,
				"z": -0.0791726006,
				"element": "N" 
			},
			{
				"x": -3.1516065062,
				"y": -2.1713417131,
				"z": 0.2488507654,
				"element": "O" 
			},
			{
				"x": -3.3603163122,
				"y": -0.2836951214,
				"z": -0.8087914536,
				"element": "O" 
			},
			{
				"x": -0.0508603307,
				"y": -2.7182903812,
				"z": 3.7963565992,
				"element": "H" 
			},
			{
				"x": 0.6818358264,
				"y": -1.2109935274,
				"z": 4.4323706127,
				"element": "H" 
			},
			{
				"x": 1.6555896534,
				"y": -2.701942553,
				"z": 4.3193426557,
				"element": "H" 
			},
			{
				"x": 1.982789782,
				"y": 0.5995788941,
				"z": 1.7384111121,
				"element": "H" 
			},
			{
				"x": 0.1167769657,
				"y": 2.9806476787,
				"z": -0.5578910058,
				"element": "H" 
			},
			{
				"x": -1.573127436,
				"y": 1.2609344224,
				"z": -0.60569328,
				"element": "H" 
			},
			{
				"x": -1.9766970335,
				"y": -2.8195781496,
				"z": 1.2198099249,
				"element": "H" 
			}
		],
		 "valence_orbital": [ 
			{
				"type": "occ",
				"energy": -0.32093,
				"method": "rhf"
			},
			{
				"type": "occ",
				"energy": -0.30659,
				"method": "rhf"
			},
			{
				"type": "occ",
				"energy": -0.28508,
				"method": "rhf"
			},
			{
				"type": "occ",
				"energy": -0.26891,
				"method": "rhf"
			},
			{
				"type": "occ",
				"energy": -0.2557,
				"method": "rhf"
			},
			{
				"type": "unocc",
				"energy": -0.11313,
				"method": "rhf"
			},
			{
				"type": "unocc",
				"energy": -0.07474,
				"method": "rhf"
			},
			{
				"type": "unocc",
				"energy": -0.01935,
				"method": "rhf"
			},
			{
				"type": "unocc",
				"energy": 0.03012,
				"method": "rhf"
			},
			{
				"type": "unocc",
				"energy": 0.06671,
				"method": "rhf"
			}
		],
		"cosmo_sigma_profile": { 
			"-0.025": 0.0,
			"-0.024": 0.0,
			"-0.023": 0.0,
			"-0.022": 0.0,
			"-0.021": 0.0,
			"-0.02": 0.0,
			"-0.019": 0.0,
			"-0.018": 0.0,
			"-0.017": 0.0,
			"-0.016": 0.0,
			"-0.015": 0.0,
			"-0.014": 0.0,
			"-0.013": 0.0,
			"-0.012": 0.0,
			"-0.011": 0.283285226906,
			"-0.01": 1.37622850235,
			"-0.009": 4.06241026132,
			"-0.008": 5.33985176643,
			"-0.007": 9.26269715067,
			"-0.006": 9.80013630775,
			"-0.005": 14.2481663757,
			"-0.004": 17.2078618381,
			"-0.003": 23.0638861289,
			"-0.002": 18.0338582944,
			"-0.001": 15.6674183007,
			"0.0": 13.6037876649,
			"0.001": 8.17422691071,
			"0.002": 7.92683253,
			"0.003": 7.14982555175,
			"0.004": 5.96523602282,
			"0.005": 7.38912125207,
			"0.006": 9.49579718672,
			"0.007": 9.14651030231,
			"0.008": 8.15762350026,
			"0.009": 6.9004660821,
			"0.01": 4.72106591564,
			"0.011": 4.65427553787,
			"0.012": 1.82609369123,
			"0.013": 0.300642645422,
			"0.014": 0.0,
			"0.015": 0.0,
			"0.016": 0.0,
			"0.017": 0.0,
			"0.018": 0.0,
			"0.019": 0.0,
			"0.02": 0.0,
			"0.021": 0.0,
			"0.022": 0.0,
			"0.023": 0.0,
			"0.024": 0.0,
			"0.025": 0.0
		}
	}
}
