{
	 "smiles": "CC(=O)N(CC(O)CO)C1=C(I)C(C(=O)NCC(O)CO)=C(I)C(C(=O)NCC(O)CO)=C1I", 
	 "Tm": 450.15, 
	 "num_atms": 60, 
	 "gaussian": { 
		 "optdone": 1, 
		 "sigma_profile": "no", 
		 "theory": "DFT", 
		 "functional": "B3LYP", 
		 "basiset": "6-31G**", 
		 "properties": { 
			 "R2extent": 20206.7454, 
			 "electric_dipole_moment_norm": 7.66600845877, 
			 "electric_quadrupole_moment_norm": 18.8231569055, 
			 "total_energy": -1615.06154604, 
			 "HOMO_LUMO_gap": 0.16298, 
			 "cosmo_polarized_energy": -152665.41, 
			 "cosmo_cavitation_energy": 70.98, 
			 "cosmo_dispersion_energy": -45.58, 
			 "cosmo_repulsion_energy": 3.45, 
			 "cosmo_total_nonelectrostatic_energy": 28.85, 
			 "SMD_solvation_energy": 11.05 
		},
		"coords": [
			{
				"x": -0.3618835105,
				"y": 3.489107525,
				"z": -2.6217473744,
				"element": "C" 
			},
			{
				"x": -1.7327748065,
				"y": 3.0656210111,
				"z": -2.1278987901,
				"element": "C" 
			},
			{
				"x": -2.7285501042,
				"y": 3.7485650087,
				"z": -2.302579574,
				"element": "O" 
			},
			{
				"x": -1.8089615786,
				"y": 1.8305362457,
				"z": -1.474425478,
				"element": "N" 
			},
			{
				"x": -3.1127959866,
				"y": 1.3621285791,
				"z": -0.9511619306,
				"element": "C" 
			},
			{
				"x": -4.3514194663,
				"y": 1.3708249703,
				"z": -1.8775711993,
				"element": "C" 
			},
			{
				"x": -5.4154393102,
				"y": 0.8118221394,
				"z": -1.0957017272,
				"element": "O" 
			},
			{
				"x": -4.2744119068,
				"y": 0.5049809459,
				"z": -3.1320278156,
				"element": "C" 
			},
			{
				"x": -3.5323550105,
				"y": 1.2009777929,
				"z": -4.1220123681,
				"element": "O" 
			},
			{
				"x": -0.6525145597,
				"y": 1.2634693635,
				"z": -0.8550282784,
				"element": "C" 
			},
			{
				"x": 0.0353875833,
				"y": 0.1755604744,
				"z": -1.4310887244,
				"element": "C" 
			},
			{
				"x": -0.5830754057,
				"y": -0.5551504168,
				"z": -3.3183488599,
				"element": "I" 
			},
			{
				"x": 1.1408135935,
				"y": -0.4248885552,
				"z": -0.8083327606,
				"element": "C" 
			},
			{
				"x": 1.9044934459,
				"y": -1.5499185368,
				"z": -1.4970037765,
				"element": "C" 
			},
			{
				"x": 2.8341557997,
				"y": -1.3058370745,
				"z": -2.2522497059,
				"element": "O" 
			},
			{
				"x": 1.4546743475,
				"y": -2.793883325,
				"z": -1.1933108925,
				"element": "N" 
			},
			{
				"x": 2.0672388252,
				"y": -4.0066214061,
				"z": -1.707263137,
				"element": "C" 
			},
			{
				"x": 2.5417037378,
				"y": -4.9054299666,
				"z": -0.5698579593,
				"element": "C" 
			},
			{
				"x": 1.3857875112,
				"y": -5.2002909108,
				"z": 0.2172875647,
				"element": "O" 
			},
			{
				"x": 3.1834344252,
				"y": -6.1976661046,
				"z": -1.0918208834,
				"element": "C" 
			},
			{
				"x": 4.3021408185,
				"y": -5.9591778772,
				"z": -1.928554891,
				"element": "O" 
			},
			{
				"x": 1.5761793911,
				"y": 0.0896209923,
				"z": 0.4191792982,
				"element": "C" 
			},
			{
				"x": 3.2624940655,
				"y": -0.7874897846,
				"z": 1.3790563709,
				"element": "I" 
			},
			{
				"x": 0.9330491347,
				"y": 1.173010946,
				"z": 1.0336965012,
				"element": "C" 
			},
			{
				"x": 1.4923980398,
				"y": 1.7958521682,
				"z": 2.3074011442,
				"element": "C" 
			},
			{
				"x": 2.3562200683,
				"y": 2.656484372,
				"z": 2.2345100981,
				"element": "O" 
			},
			{
				"x": 0.9949964153,
				"y": 1.3337321286,
				"z": 3.4869593074,
				"element": "N" 
			},
			{
				"x": -0.1107600449,
				"y": 0.4158108397,
				"z": 3.70374364,
				"element": "C" 
			},
			{
				"x": 0.019865861,
				"y": -0.2537666741,
				"z": 5.0787125514,
				"element": "C" 
			},
			{
				"x": 0.2271853814,
				"y": 0.7358703293,
				"z": 6.0986673071,
				"element": "O" 
			},
			{
				"x": 1.2035129912,
				"y": -1.2128740182,
				"z": 5.2042874126,
				"element": "C" 
			},
			{
				"x": 1.2464651608,
				"y": -1.791670161,
				"z": 6.4929816709,
				"element": "O" 
			},
			{
				"x": -0.1701058378,
				"y": 1.7433885085,
				"z": 0.3832183,
				"element": "C" 
			},
			{
				"x": -1.1120395034,
				"y": 3.4250306282,
				"z": 1.2873231855,
				"element": "I" 
			},
			{
				"x": 0.1372503629,
				"y": 2.6864332716,
				"z": -3.1712190895,
				"element": "H" 
			},
			{
				"x": 0.2848429704,
				"y": 3.7822231019,
				"z": -1.7884412634,
				"element": "H" 
			},
			{
				"x": -0.5010935972,
				"y": 4.350418926,
				"z": -3.2747923928,
				"element": "H" 
			},
			{
				"x": -2.9685495175,
				"y": 0.3293174079,
				"z": -0.6214918202,
				"element": "H" 
			},
			{
				"x": -3.3810892818,
				"y": 1.9544180047,
				"z": -0.0659560177,
				"element": "H" 
			},
			{
				"x": -4.5745437937,
				"y": 2.3934970005,
				"z": -2.1882374914,
				"element": "H" 
			},
			{
				"x": -5.7347738592,
				"y": 1.4994371014,
				"z": -0.4989646528,
				"element": "H" 
			},
			{
				"x": -5.3101689208,
				"y": 0.32568709,
				"z": -3.4542358888,
				"element": "H" 
			},
			{
				"x": -3.8239701457,
				"y": -0.4704407159,
				"z": -2.8887106798,
				"element": "H" 
			},
			{
				"x": -3.5100708857,
				"y": 0.653478326,
				"z": -4.9156987774,
				"element": "H" 
			},
			{
				"x": 0.716012137,
				"y": -2.9074520046,
				"z": -0.5138790491,
				"element": "H" 
			},
			{
				"x": 2.9071264022,
				"y": -3.7205181039,
				"z": -2.3403479367,
				"element": "H" 
			},
			{
				"x": 1.3428219357,
				"y": -4.5589593791,
				"z": -2.32021386,
				"element": "H" 
			},
			{
				"x": 3.2795258189,
				"y": -4.3445266337,
				"z": 0.0287549652,
				"element": "H" 
			},
			{
				"x": 1.6691401181,
				"y": -5.6367237474,
				"z": 1.0308681725,
				"element": "H" 
			},
			{
				"x": 3.439696908,
				"y": -6.8446375797,
				"z": -0.2355326112,
				"element": "H" 
			},
			{
				"x": 2.451127093,
				"y": -6.7398152913,
				"z": -1.6986435115,
				"element": "H" 
			},
			{
				"x": 4.9968346072,
				"y": -5.5447015251,
				"z": -1.3999464418,
				"element": "H" 
			},
			{
				"x": 1.3310232178,
				"y": 1.8207780385,
				"z": 4.3105692037,
				"element": "H" 
			},
			{
				"x": -0.1202375401,
				"y": -0.3494079915,
				"z": 2.9215332524,
				"element": "H" 
			},
			{
				"x": -1.0753480918,
				"y": 0.9439254658,
				"z": 3.6520728382,
				"element": "H" 
			},
			{
				"x": -0.9003414534,
				"y": -0.8193924285,
				"z": 5.2812841336,
				"element": "H" 
			},
			{
				"x": -0.6169292449,
				"y": 1.1563760824,
				"z": 6.306628845,
				"element": "H" 
			},
			{
				"x": 1.0925825626,
				"y": -2.0294198387,
				"z": 4.4835509002,
				"element": "H" 
			},
			{
				"x": 2.133404812,
				"y": -0.6768857795,
				"z": 4.9617931316,
				"element": "H" 
			},
			{
				"x": 1.2208178205,
				"y": -1.0482389556,
				"z": 7.112717816,
				"element": "H" 
			}
		],
		 "valence_orbital": [ 
			{
				"type": "occ",
				"energy": -0.25942,
				"method": "rhf"
			},
			{
				"type": "occ",
				"energy": -0.25501,
				"method": "rhf"
			},
			{
				"type": "occ",
				"energy": -0.25075,
				"method": "rhf"
			},
			{
				"type": "occ",
				"energy": -0.24704,
				"method": "rhf"
			},
			{
				"type": "occ",
				"energy": -0.24395,
				"method": "rhf"
			},
			{
				"type": "unocc",
				"energy": -0.08097,
				"method": "rhf"
			},
			{
				"type": "unocc",
				"energy": -0.05605,
				"method": "rhf"
			},
			{
				"type": "unocc",
				"energy": -0.05383,
				"method": "rhf"
			},
			{
				"type": "unocc",
				"energy": -0.04391,
				"method": "rhf"
			},
			{
				"type": "unocc",
				"energy": -0.03836,
				"method": "rhf"
			}
		],
		"cosmo_sigma_profile": { 
			"0.0": 0.0,
			"0.0": 0.0,
			"0.0": 0.0,
			"0.0": 0.0,
			"0.0": 0.0,
			"0.0": 0.0,
			"0.0": 0.0,
			"0.0": 0.0,
			"0.0": 0.0,
			"0.0": 0.0,
			"0.0": 0.0,
			"0.0": 0.0,
			"0.0": 0.0,
			"0.0": 0.0,
			"0.0": 0.0,
			"0.0": 0.0,
			"0.0": 0.0,
			"0.0": 0.0,
			"0.0": 0.0,
			"0.0": 0.0,
			"0.0": 0.0,
			"0.0": 0.0,
			"0.0": 0.0,
			"0.0": 0.0,
			"0.0": 0.0,
			"0.0": 0.0,
			"0.0": 0.0,
			"0.0": 0.0,
			"0.0": 0.0,
			"0.0": 0.0,
			"0.0": 0.0,
			"0.0": 0.0,
			"0.0": 0.0,
			"0.0": 0.0,
			"0.0": 0.0,
			"0.0": 0.0,
			"0.0": 0.0,
			"0.0": 0.0,
			"0.0": 0.0,
			"0.0": 0.0,
			"0.0": 0.0,
			"0.0": 0.0,
			"0.0": 0.0,
			"0.0": 0.0,
			"0.0": 0.0,
			"0.0": 0.0,
			"0.0": 0.0,
			"0.0": 0.0,
			"0.0": 0.0,
			"0.0": 0.0,
			"0.0": 0.0
		}
	}
}
