{
	 "smiles": "CC1CCCCC1NC(=O)CCl", 
	 "Tm": 374.15, 
	 "num_atms": 28, 
	 "gaussian": { 
		 "optdone": 1, 
		 "sigma_profile": "yes", 
		 "theory": "DFT", 
		 "functional": "B3LYP", 
		 "basiset": "6-31G**", 
		 "properties": { 
			 "R2extent": 3122.6044, 
			 "electric_dipole_moment_norm": 2.19961598694, 
			 "electric_quadrupole_moment_norm": 7.3138729453, 
			 "total_energy": -942.797553039, 
			 "HOMO_LUMO_gap": 0.26758, 
			 "cosmo_polarized_energy": -9.19, 
			 "cosmo_cavitation_energy": 30.11, 
			 "cosmo_dispersion_energy": -21.46, 
			 "cosmo_repulsion_energy": 1.74, 
			 "cosmo_total_nonelectrostatic_energy": 10.38, 
			 "SMD_solvation_energy": 4.84 
		},
		"coords": [
			{
				"x": 0.4796367962,
				"y": -1.6578301672,
				"z": -0.6639495531,
				"element": "C" 
			},
			{
				"x": -0.9683784377,
				"y": -1.1370042562,
				"z": -0.6400338156,
				"element": "C" 
			},
			{
				"x": -1.7394453321,
				"y": -1.5339353938,
				"z": -1.9137990839,
				"element": "C" 
			},
			{
				"x": -1.1473975866,
				"y": -0.9025174012,
				"z": -3.1953524253,
				"element": "C" 
			},
			{
				"x": -0.6064774364,
				"y": 0.5286658393,
				"z": -2.951052091,
				"element": "C" 
			},
			{
				"x": -1.3073249563,
				"y": 1.1879185564,
				"z": -1.7568131853,
				"element": "C" 
			},
			{
				"x": -1.114871095,
				"y": 0.409489089,
				"z": -0.4258320173,
				"element": "C" 
			},
			{
				"x": -0.0188875609,
				"y": 0.9697290875,
				"z": 0.3656330421,
				"element": "N" 
			},
			{
				"x": -0.1963659863,
				"y": 1.461206819,
				"z": 1.6128621574,
				"element": "C" 
			},
			{
				"x": -1.2594083077,
				"y": 1.4861137769,
				"z": 2.2237437745,
				"element": "O" 
			},
			{
				"x": 1.0212155457,
				"y": 2.0412202279,
				"z": 2.3399041454,
				"element": "C" 
			},
			{
				"x": 2.6100113048,
				"y": 2.0077649948,
				"z": 1.4526018893,
				"element": "Cl" 
			},
			{
				"x": 0.9934793959,
				"y": -1.4530074843,
				"z": 0.2791804989,
				"element": "H" 
			},
			{
				"x": 0.4790836908,
				"y": -2.7435265235,
				"z": -0.8087518741,
				"element": "H" 
			},
			{
				"x": 1.078763559,
				"y": -1.2248397,
				"z": -1.4718413376,
				"element": "H" 
			},
			{
				"x": -1.4553459327,
				"y": -1.6196616966,
				"z": 0.216591809,
				"element": "H" 
			},
			{
				"x": -1.7626827359,
				"y": -2.6256222577,
				"z": -2.0099289991,
				"element": "H" 
			},
			{
				"x": -2.784715436,
				"y": -1.2193904848,
				"z": -1.7996816802,
				"element": "H" 
			},
			{
				"x": -0.3456861513,
				"y": -1.5352115657,
				"z": -3.5919296965,
				"element": "H" 
			},
			{
				"x": -1.9244831132,
				"y": -0.8806647407,
				"z": -3.968008136,
				"element": "H" 
			},
			{
				"x": 0.4749477893,
				"y": 0.4986192844,
				"z": -2.7671052859,
				"element": "H" 
			},
			{
				"x": -0.7365992187,
				"y": 1.143671066,
				"z": -3.8482298741,
				"element": "H" 
			},
			{
				"x": -2.3817006359,
				"y": 1.2501483377,
				"z": -1.9693352724,
				"element": "H" 
			},
			{
				"x": -0.9651446525,
				"y": 2.2187758894,
				"z": -1.6178337586,
				"element": "H" 
			},
			{
				"x": -1.9983594354,
				"y": 0.5773495215,
				"z": 0.1943012008,
				"element": "H" 
			},
			{
				"x": 0.910883711,
				"y": 1.0071492181,
				"z": -0.0284177665,
				"element": "H" 
			},
			{
				"x": 0.8127280326,
				"y": 3.0837060133,
				"z": 2.5805064359,
				"element": "H" 
			},
			{
				"x": 1.1631241851,
				"y": 1.4868839509,
				"z": 3.2675708991,
				"element": "H" 
			}
		],
		 "valence_orbital": [ 
			{
				"type": "occ",
				"energy": -0.31145,
				"method": "rhf"
			},
			{
				"type": "occ",
				"energy": -0.30583,
				"method": "rhf"
			},
			{
				"type": "occ",
				"energy": -0.30078,
				"method": "rhf"
			},
			{
				"type": "occ",
				"energy": -0.2555,
				"method": "rhf"
			},
			{
				"type": "occ",
				"energy": -0.25219,
				"method": "rhf"
			},
			{
				"type": "unocc",
				"energy": 0.01539,
				"method": "rhf"
			},
			{
				"type": "unocc",
				"energy": 0.02269,
				"method": "rhf"
			},
			{
				"type": "unocc",
				"energy": 0.0631,
				"method": "rhf"
			},
			{
				"type": "unocc",
				"energy": 0.08547,
				"method": "rhf"
			},
			{
				"type": "unocc",
				"energy": 0.10304,
				"method": "rhf"
			}
		],
		"cosmo_sigma_profile": { 
			"-0.025": 0.0,
			"-0.024": 0.0,
			"-0.023": 0.0,
			"-0.022": 0.0,
			"-0.021": 0.0,
			"-0.02": 0.0,
			"-0.019": 0.0,
			"-0.018": 0.0,
			"-0.017": 0.0,
			"-0.016": 0.0,
			"-0.015": 0.0,
			"-0.014": 0.0,
			"-0.013": 0.0,
			"-0.012": 0.0,
			"-0.011": 0.0,
			"-0.01": 0.635692578242,
			"-0.009": 3.46846122461,
			"-0.008": 5.45544257509,
			"-0.007": 4.71108101386,
			"-0.006": 4.63660728263,
			"-0.005": 5.56589071958,
			"-0.004": 7.5492681687,
			"-0.003": 19.7644905026,
			"-0.002": 32.8750065494,
			"-0.001": 37.5385479422,
			"0.0": 34.2205257766,
			"0.001": 27.1502158485,
			"0.002": 10.4530714955,
			"0.003": 4.3000339045,
			"0.004": 6.17586763413,
			"0.005": 8.45359364801,
			"0.006": 5.51885864491,
			"0.007": 1.04370443497,
			"0.008": 1.35845221285,
			"0.009": 1.36956567056,
			"0.01": 1.35972921679,
			"0.011": 1.21215009701,
			"0.012": 2.30326565454,
			"0.013": 4.23855848532,
			"0.014": 4.18893394126,
			"0.015": 0.130224182712,
			"0.016": 0.0,
			"0.017": 0.0,
			"0.018": 0.0,
			"0.019": 0.0,
			"0.02": 0.0,
			"0.021": 0.0,
			"0.022": 0.0,
			"0.023": 0.0,
			"0.024": 0.0,
			"0.025": 0.0
		}
	}
}
