{
	 "smiles": "CS(=O)(=O)C1=CC=C(CNC(=O)CCl)C=C1", 
	 "Tm": 416.15, 
	 "num_atms": 28, 
	 "gaussian": { 
		 "optdone": 1, 
		 "sigma_profile": "yes", 
		 "theory": "DFT", 
		 "functional": "B3LYP", 
		 "basiset": "6-31G**", 
		 "properties": { 
			 "R2extent": 7250.8358, 
			 "electric_dipole_moment_norm": 5.4353550482, 
			 "electric_quadrupole_moment_norm": 21.1579596415, 
			 "total_energy": -1527.05583885, 
			 "HOMO_LUMO_gap": 0.22158, 
			 "cosmo_polarized_energy": -22.13, 
			 "cosmo_cavitation_energy": 35.52, 
			 "cosmo_dispersion_energy": -25.84, 
			 "cosmo_repulsion_energy": 2.01, 
			 "cosmo_total_nonelectrostatic_energy": 11.68, 
			 "SMD_solvation_energy": 5.43 
		},
		"coords": [
			{
				"x": -4.0493714149,
				"y": 0.0560276002,
				"z": -2.3260513531,
				"element": "C" 
			},
			{
				"x": -3.6395945443,
				"y": -1.3660124289,
				"z": -1.2846923661,
				"element": "S" 
			},
			{
				"x": -4.3319354988,
				"y": -1.1838067118,
				"z": 0.0002947627,
				"element": "O" 
			},
			{
				"x": -3.8397710881,
				"y": -2.5774348382,
				"z": -2.0954222038,
				"element": "O" 
			},
			{
				"x": -1.8720138921,
				"y": -1.1818415645,
				"z": -0.9941978124,
				"element": "C" 
			},
			{
				"x": -0.9720395235,
				"y": -1.8183816368,
				"z": -1.8477678888,
				"element": "C" 
			},
			{
				"x": 0.3963993922,
				"y": -1.6698795712,
				"z": -1.617407011,
				"element": "C" 
			},
			{
				"x": 0.8627974676,
				"y": -0.899079107,
				"z": -0.5466973568,
				"element": "C" 
			},
			{
				"x": 2.3517117575,
				"y": -0.7317263398,
				"z": -0.300086868,
				"element": "C" 
			},
			{
				"x": 2.8461907666,
				"y": 0.6086438348,
				"z": -0.6087648387,
				"element": "N" 
			},
			{
				"x": 2.9592628292,
				"y": 1.561278968,
				"z": 0.3453832107,
				"element": "C" 
			},
			{
				"x": 2.6826189843,
				"y": 1.399281854,
				"z": 1.5294543784,
				"element": "O" 
			},
			{
				"x": 3.4866749325,
				"y": 2.9375076775,
				"z": -0.0656437022,
				"element": "C" 
			},
			{
				"x": 3.8484173082,
				"y": 3.1819654552,
				"z": -1.8286439029,
				"element": "Cl" 
			},
			{
				"x": -0.0618429469,
				"y": -0.2792188348,
				"z": 0.3089533374,
				"element": "C" 
			},
			{
				"x": -1.4299150331,
				"y": -0.4193047862,
				"z": 0.0905799994,
				"element": "C" 
			},
			{
				"x": -3.823802337,
				"y": 0.9756913857,
				"z": -1.7845548882,
				"element": "H" 
			},
			{
				"x": -5.1203405236,
				"y": -0.0131710525,
				"z": -2.5278166798,
				"element": "H" 
			},
			{
				"x": -3.4827820658,
				"y": -0.0041181512,
				"z": -3.2562325396,
				"element": "H" 
			},
			{
				"x": -1.3428259847,
				"y": -2.4336357937,
				"z": -2.6607479555,
				"element": "H" 
			},
			{
				"x": 1.1064139116,
				"y": -2.1690752176,
				"z": -2.2720847186,
				"element": "H" 
			},
			{
				"x": 2.5800438076,
				"y": -0.90969324,
				"z": 0.7538397251,
				"element": "H" 
			},
			{
				"x": 2.9176378474,
				"y": -1.4517923716,
				"z": -0.8986346379,
				"element": "H" 
			},
			{
				"x": 3.0291871505,
				"y": 0.8624926696,
				"z": -1.569477787,
				"element": "H" 
			},
			{
				"x": 4.4096931367,
				"y": 3.1282273726,
				"z": 0.482528517,
				"element": "H" 
			},
			{
				"x": 2.7474959598,
				"y": 3.686516757,
				"z": 0.218243605,
				"element": "H" 
			},
			{
				"x": 0.3027095363,
				"y": 0.3029424534,
				"z": 1.1502119642,
				"element": "H" 
			},
			{
				"x": -2.1526199351,
				"y": 0.0304956176,
				"z": 0.7634350105,
				"element": "H" 
			}
		],
		 "valence_orbital": [ 
			{
				"type": "occ",
				"energy": -0.28991,
				"method": "rhf"
			},
			{
				"type": "occ",
				"energy": -0.28465,
				"method": "rhf"
			},
			{
				"type": "occ",
				"energy": -0.27634,
				"method": "rhf"
			},
			{
				"type": "occ",
				"energy": -0.27173,
				"method": "rhf"
			},
			{
				"type": "occ",
				"energy": -0.2685,
				"method": "rhf"
			},
			{
				"type": "unocc",
				"energy": -0.04692,
				"method": "rhf"
			},
			{
				"type": "unocc",
				"energy": -0.02729,
				"method": "rhf"
			},
			{
				"type": "unocc",
				"energy": 0.00193,
				"method": "rhf"
			},
			{
				"type": "unocc",
				"energy": 0.00632,
				"method": "rhf"
			},
			{
				"type": "unocc",
				"energy": 0.06365,
				"method": "rhf"
			}
		],
		"cosmo_sigma_profile": { 
			"-0.025": 0.0,
			"-0.024": 0.0,
			"-0.023": 0.0,
			"-0.022": 0.0,
			"-0.021": 0.0,
			"-0.02": 0.0,
			"-0.019": 0.0,
			"-0.018": 0.0,
			"-0.017": 0.0,
			"-0.016": 0.0,
			"-0.015": 0.0,
			"-0.014": 0.277181372745,
			"-0.013": 0.459280497322,
			"-0.012": 0.812705316324,
			"-0.011": 1.28058692594,
			"-0.01": 0.94112692414,
			"-0.009": 5.84382714809,
			"-0.008": 12.0259327848,
			"-0.007": 18.6933883015,
			"-0.006": 19.424398334,
			"-0.005": 20.5181001981,
			"-0.004": 19.5764206577,
			"-0.003": 17.3175685979,
			"-0.002": 14.0492780646,
			"-0.001": 15.537463999,
			"0.0": 15.4770832424,
			"0.001": 17.2079583836,
			"0.002": 17.8831255519,
			"0.003": 16.4389098341,
			"0.004": 8.84060304611,
			"0.005": 10.0476295427,
			"0.006": 6.40517982825,
			"0.007": 4.09983108377,
			"0.008": 4.13473434299,
			"0.009": 4.30388465797,
			"0.01": 4.54902806415,
			"0.011": 11.1184278506,
			"0.012": 11.1522538873,
			"0.013": 5.17963513211,
			"0.014": 1.23148803617,
			"0.015": 0.00559597068932,
			"0.016": 0.0,
			"0.017": 0.0,
			"0.018": 0.0,
			"0.019": 0.0,
			"0.02": 0.0,
			"0.021": 0.0,
			"0.022": 0.0,
			"0.023": 0.0,
			"0.024": 0.0,
			"0.025": 0.0
		}
	}
}
