{
	 "smiles": "NC1=C(C=C(F)C(F)=C1Br)[N+]([O-])=O", 
	 "Tm": 378.15, 
	 "num_atms": 16, 
	 "gaussian": { 
		 "optdone": 1, 
		 "sigma_profile": "yes", 
		 "theory": "DFT", 
		 "functional": "B3LYP", 
		 "basiset": "6-31G**", 
		 "properties": { 
			 "R2extent": 3926.9962, 
			 "electric_dipole_moment_norm": 2.84988649072, 
			 "electric_quadrupole_moment_norm": 17.4309968545, 
			 "total_energy": -3261.36234017, 
			 "HOMO_LUMO_gap": 0.13928, 
			 "cosmo_polarized_energy": -8.41, 
			 "cosmo_cavitation_energy": 24.2, 
			 "cosmo_dispersion_energy": -18.53, 
			 "cosmo_repulsion_energy": 1.41, 
			 "cosmo_total_nonelectrostatic_energy": 7.08, 
			 "SMD_solvation_energy": 6.04 
		},
		"coords": [
			{
				"x": 1.8845848308,
				"y": 2.0941300898,
				"z": 1.7277456762,
				"element": "N" 
			},
			{
				"x": 1.1147359717,
				"y": 1.2560298118,
				"z": 1.003862691,
				"element": "C" 
			},
			{
				"x": 1.6072924958,
				"y": 0.4396381215,
				"z": -0.0573825822,
				"element": "C" 
			},
			{
				"x": 0.7708438476,
				"y": -0.4208054764,
				"z": -0.787465965,
				"element": "C" 
			},
			{
				"x": -0.56518371,
				"y": -0.49574291,
				"z": -0.4889438881,
				"element": "C" 
			},
			{
				"x": -1.3940701962,
				"y": -1.30650211,
				"z": -1.1653293596,
				"element": "F" 
			},
			{
				"x": -1.0925562664,
				"y": 0.2897307576,
				"z": 0.5477367522,
				"element": "C" 
			},
			{
				"x": -2.3934758379,
				"y": 0.1978968772,
				"z": 0.8174260476,
				"element": "F" 
			},
			{
				"x": -0.2802225154,
				"y": 1.1406135173,
				"z": 1.2738347202,
				"element": "C" 
			},
			{
				"x": -1.0685479448,
				"y": 2.1712934746,
				"z": 2.6614981228,
				"element": "Br" 
			},
			{
				"x": 3.0043718456,
				"y": 0.4527735128,
				"z": -0.4431019198,
				"element": "N" 
			},
			{
				"x": 3.7918741977,
				"y": 1.1976178776,
				"z": 0.1699063715,
				"element": "O" 
			},
			{
				"x": 3.3604477806,
				"y": -0.2774415552,
				"z": -1.3674960651,
				"element": "O" 
			},
			{
				"x": 1.4649623854,
				"y": 2.6404388353,
				"z": 2.4624419993,
				"element": "H" 
			},
			{
				"x": 2.8679440641,
				"y": 2.1452703542,
				"z": 1.5022830605,
				"element": "H" 
			},
			{
				"x": 1.1960990515,
				"y": -1.0181411781,
				"z": -1.5826156616,
				"element": "H" 
			}
		],
		 "valence_orbital": [ 
			{
				"type": "occ",
				"energy": -0.31903,
				"method": "rhf"
			},
			{
				"type": "occ",
				"energy": -0.31563,
				"method": "rhf"
			},
			{
				"type": "occ",
				"energy": -0.29896,
				"method": "rhf"
			},
			{
				"type": "occ",
				"energy": -0.27742,
				"method": "rhf"
			},
			{
				"type": "occ",
				"energy": -0.23657,
				"method": "rhf"
			},
			{
				"type": "unocc",
				"energy": -0.09729,
				"method": "rhf"
			},
			{
				"type": "unocc",
				"energy": -0.02926,
				"method": "rhf"
			},
			{
				"type": "unocc",
				"energy": -0.02855,
				"method": "rhf"
			},
			{
				"type": "unocc",
				"energy": -0.00278,
				"method": "rhf"
			},
			{
				"type": "unocc",
				"energy": 0.07533,
				"method": "rhf"
			}
		],
		"cosmo_sigma_profile": { 
			"-0.025": 0.0,
			"-0.024": 0.0,
			"-0.023": 0.0,
			"-0.022": 0.0,
			"-0.021": 0.0,
			"-0.02": 0.0,
			"-0.019": 0.0,
			"-0.018": 0.0,
			"-0.017": 0.0,
			"-0.016": 0.0,
			"-0.015": 0.0,
			"-0.014": 0.372799856879,
			"-0.013": 0.682077010753,
			"-0.012": 1.30171424022,
			"-0.011": 1.65801438849,
			"-0.01": 1.37293230395,
			"-0.009": 2.38794845236,
			"-0.008": 2.89059152106,
			"-0.007": 2.99135433516,
			"-0.006": 4.87253608915,
			"-0.005": 7.24278674876,
			"-0.004": 9.82668176413,
			"-0.003": 17.5625752519,
			"-0.002": 22.4146676615,
			"-0.001": 20.9984221275,
			"0.0": 13.0588325803,
			"0.001": 13.0093575614,
			"0.002": 20.0226292916,
			"0.003": 25.2743968347,
			"0.004": 5.73771651053,
			"0.005": 2.76801342706,
			"0.006": 3.0134672151,
			"0.007": 4.71409513496,
			"0.008": 5.95345358687,
			"0.009": 4.17623960349,
			"0.01": 3.89442581629,
			"0.011": 0.682935075027,
			"0.012": 0.0,
			"0.013": 0.0,
			"0.014": 0.0,
			"0.015": 0.0,
			"0.016": 0.0,
			"0.017": 0.0,
			"0.018": 0.0,
			"0.019": 0.0,
			"0.02": 0.0,
			"0.021": 0.0,
			"0.022": 0.0,
			"0.023": 0.0,
			"0.024": 0.0,
			"0.025": 0.0
		}
	}
}
