{
	 "smiles": "NNC(=S)NCC1=CN=CC=C1", 
	 "Tm": 445.15, 
	 "num_atms": 22, 
	 "gaussian": { 
		 "optdone": 1, 
		 "sigma_profile": "yes", 
		 "theory": "DFT", 
		 "functional": "B3LYP", 
		 "basiset": "6-31G**", 
		 "properties": { 
			 "R2extent": 3243.3431, 
			 "electric_dipole_moment_norm": 3.73141496486, 
			 "electric_quadrupole_moment_norm": 25.1512078706, 
			 "total_energy": -889.928986869, 
			 "HOMO_LUMO_gap": 0.1669, 
			 "cosmo_polarized_energy": -20.84, 
			 "cosmo_cavitation_energy": 27.38, 
			 "cosmo_dispersion_energy": -20.12, 
			 "cosmo_repulsion_energy": 1.57, 
			 "cosmo_total_nonelectrostatic_energy": 8.82, 
			 "SMD_solvation_energy": 2.36 
		},
		"coords": [
			{
				"x": -1.56008444,
				"y": -0.9420545878,
				"z": 1.103565817,
				"element": "N" 
			},
			{
				"x": -0.8595766985,
				"y": -1.8846681212,
				"z": 0.3154749171,
				"element": "N" 
			},
			{
				"x": 0.506710973,
				"y": -1.9808309422,
				"z": 0.2503547778,
				"element": "C" 
			},
			{
				"x": 1.2633612204,
				"y": -3.4662668423,
				"z": 0.059760325,
				"element": "S" 
			},
			{
				"x": 1.2259173488,
				"y": -0.813503278,
				"z": 0.3517636298,
				"element": "N" 
			},
			{
				"x": 0.8129775634,
				"y": 0.474396726,
				"z": -0.2179694915,
				"element": "C" 
			},
			{
				"x": 0.4777471978,
				"y": 1.5558264018,
				"z": 0.7966729812,
				"element": "C" 
			},
			{
				"x": -0.3122252754,
				"y": 2.6498645083,
				"z": 0.4187945543,
				"element": "C" 
			},
			{
				"x": -0.6252278779,
				"y": 3.6692471693,
				"z": 1.2249113877,
				"element": "N" 
			},
			{
				"x": -0.1460201467,
				"y": 3.6334812076,
				"z": 2.474645074,
				"element": "C" 
			},
			{
				"x": 0.6477006101,
				"y": 2.5934844929,
				"z": 2.9609171051,
				"element": "C" 
			},
			{
				"x": 0.964829014,
				"y": 1.5386027541,
				"z": 2.1065328887,
				"element": "C" 
			},
			{
				"x": -1.0137698449,
				"y": -0.6995536438,
				"z": 1.9274616932,
				"element": "H" 
			},
			{
				"x": -1.7260450538,
				"y": -0.091310084,
				"z": 0.5754310576,
				"element": "H" 
			},
			{
				"x": -1.3112810738,
				"y": -2.7901453931,
				"z": 0.2965633483,
				"element": "H" 
			},
			{
				"x": 2.2158234455,
				"y": -1.0100108964,
				"z": 0.2917603182,
				"element": "H" 
			},
			{
				"x": -0.0285510302,
				"y": 0.3177063358,
				"z": -0.9003950592,
				"element": "H" 
			},
			{
				"x": 1.6410222235,
				"y": 0.8264482328,
				"z": -0.8460520152,
				"element": "H" 
			},
			{
				"x": -0.7168604013,
				"y": 2.7029645406,
				"z": -0.5930530542,
				"element": "H" 
			},
			{
				"x": -0.4122980152,
				"y": 4.4716710331,
				"z": 3.1156084408,
				"element": "H" 
			},
			{
				"x": 1.0074502036,
				"y": 2.6105553373,
				"z": 3.9849800551,
				"element": "H" 
			},
			{
				"x": 1.5731000573,
				"y": 0.7056950494,
				"z": 2.4472712493,
				"element": "H" 
			}
		],
		 "valence_orbital": [ 
			{
				"type": "occ",
				"energy": -0.27861,
				"method": "rhf"
			},
			{
				"type": "occ",
				"energy": -0.27044,
				"method": "rhf"
			},
			{
				"type": "occ",
				"energy": -0.26585,
				"method": "rhf"
			},
			{
				"type": "occ",
				"energy": -0.2252,
				"method": "rhf"
			},
			{
				"type": "occ",
				"energy": -0.2095,
				"method": "rhf"
			},
			{
				"type": "unocc",
				"energy": -0.0426,
				"method": "rhf"
			},
			{
				"type": "unocc",
				"energy": -0.03082,
				"method": "rhf"
			},
			{
				"type": "unocc",
				"energy": -0.02126,
				"method": "rhf"
			},
			{
				"type": "unocc",
				"energy": 0.05207,
				"method": "rhf"
			},
			{
				"type": "unocc",
				"energy": 0.06522,
				"method": "rhf"
			}
		],
		"cosmo_sigma_profile": { 
			"-0.025": 0.0,
			"-0.024": 0.0,
			"-0.023": 0.0,
			"-0.022": 0.0,
			"-0.021": 0.0,
			"-0.02": 0.0,
			"-0.019": 0.0,
			"-0.018": 0.0,
			"-0.017": 0.0,
			"-0.016": 0.0,
			"-0.015": 0.126512395714,
			"-0.014": 0.909804705443,
			"-0.013": 2.1022045305,
			"-0.012": 2.26789980876,
			"-0.011": 2.77524070963,
			"-0.01": 5.12499490508,
			"-0.009": 4.48849414852,
			"-0.008": 6.58853496999,
			"-0.007": 11.9815600632,
			"-0.006": 16.9911733451,
			"-0.005": 17.3860798444,
			"-0.004": 13.8032831287,
			"-0.003": 10.7754270067,
			"-0.002": 9.50314601059,
			"-0.001": 8.0268811336,
			"0.0": 9.97376685417,
			"0.001": 10.3005258314,
			"0.002": 12.3966165962,
			"0.003": 9.69469725296,
			"0.004": 6.74973271078,
			"0.005": 7.42586522113,
			"0.006": 5.80366777558,
			"0.007": 4.31422275632,
			"0.008": 5.99135876065,
			"0.009": 6.0112273845,
			"0.01": 8.56538557152,
			"0.011": 8.34989992015,
			"0.012": 5.84267477038,
			"0.013": 1.65994449448,
			"0.014": 1.07590972,
			"0.015": 1.83355531069,
			"0.016": 0.851974147632,
			"0.017": 0.338722363681,
			"0.018": 0.0,
			"0.019": 0.0,
			"0.02": 0.0,
			"0.021": 0.0,
			"0.022": 0.0,
			"0.023": 0.0,
			"0.024": 0.0,
			"0.025": 0.0
		}
	}
}
