{
	 "smiles": "CCCC(C)C(=O)NC1=CC(Cl)=C(C)C=C1", 
	 "Tm": 358.65, 
	 "num_atms": 34, 
	 "gaussian": { 
		 "optdone": 1, 
		 "sigma_profile": "yes", 
		 "theory": "DFT", 
		 "functional": "B3LYP", 
		 "basiset": "6-31G**", 
		 "properties": { 
			 "R2extent": 5319.0808, 
			 "electric_dipole_moment_norm": 3.69416734191, 
			 "electric_quadrupole_moment_norm": 16.2348512694, 
			 "total_energy": -1096.43153249, 
			 "HOMO_LUMO_gap": 0.21345, 
			 "cosmo_polarized_energy": -10.58, 
			 "cosmo_cavitation_energy": 37.22, 
			 "cosmo_dispersion_energy": -25.36, 
			 "cosmo_repulsion_energy": 2.01, 
			 "cosmo_total_nonelectrostatic_energy": 13.86, 
			 "SMD_solvation_energy": 6.43 
		},
		"coords": [
			{
				"x": -1.2749966916,
				"y": 2.3711305339,
				"z": -2.854581322,
				"element": "C" 
			},
			{
				"x": -0.8415055431,
				"y": 1.0113212367,
				"z": -2.2936594914,
				"element": "C" 
			},
			{
				"x": -1.7147448252,
				"y": 0.4892141285,
				"z": -1.1402720317,
				"element": "C" 
			},
			{
				"x": -1.7892450907,
				"y": 1.391509625,
				"z": 0.1159841444,
				"element": "C" 
			},
			{
				"x": -2.6569544954,
				"y": 0.7542939155,
				"z": 1.2152841379,
				"element": "C" 
			},
			{
				"x": -0.4200186866,
				"y": 1.8967413051,
				"z": 0.5929431453,
				"element": "C" 
			},
			{
				"x": -0.0631500554,
				"y": 3.0429792228,
				"z": 0.3419424207,
				"element": "O" 
			},
			{
				"x": 0.4309016996,
				"y": 1.0940316273,
				"z": 1.3351897781,
				"element": "N" 
			},
			{
				"x": 0.36258409,
				"y": -0.2767707892,
				"z": 1.7252477016,
				"element": "C" 
			},
			{
				"x": 0.6040454735,
				"y": -1.2960477355,
				"z": 0.7979721335,
				"element": "C" 
			},
			{
				"x": 0.5761709484,
				"y": -2.6267191643,
				"z": 1.2108877594,
				"element": "C" 
			},
			{
				"x": 0.871391557,
				"y": -3.8716838317,
				"z": -0.0005483354,
				"element": "Cl" 
			},
			{
				"x": 0.342565555,
				"y": -2.9968523252,
				"z": 2.5440845148,
				"element": "C" 
			},
			{
				"x": 0.3210586621,
				"y": -4.4358088574,
				"z": 2.9889365335,
				"element": "C" 
			},
			{
				"x": 0.1334110036,
				"y": -1.9517594033,
				"z": 3.4553753742,
				"element": "C" 
			},
			{
				"x": 0.1388200392,
				"y": -0.6151219397,
				"z": 3.0640120318,
				"element": "C" 
			},
			{
				"x": -0.6815347176,
				"y": 2.634424202,
				"z": -3.7362808308,
				"element": "H" 
			},
			{
				"x": -1.138850597,
				"y": 3.1638441595,
				"z": -2.1141045162,
				"element": "H" 
			},
			{
				"x": -2.3290798137,
				"y": 2.3568177773,
				"z": -3.157459625,
				"element": "H" 
			},
			{
				"x": -0.8598658233,
				"y": 0.2615462322,
				"z": -3.0949883519,
				"element": "H" 
			},
			{
				"x": 0.2044394826,
				"y": 1.0777304122,
				"z": -1.9654782693,
				"element": "H" 
			},
			{
				"x": -2.7448285013,
				"y": 0.3633266738,
				"z": -1.5013624931,
				"element": "H" 
			},
			{
				"x": -1.3761192614,
				"y": -0.5117504645,
				"z": -0.8502684833,
				"element": "H" 
			},
			{
				"x": -2.2721192849,
				"y": 2.3268102902,
				"z": -0.182046352,
				"element": "H" 
			},
			{
				"x": -3.6798917168,
				"y": 0.6314887653,
				"z": 0.8437948258,
				"element": "H" 
			},
			{
				"x": -2.2947334909,
				"y": -0.2314141726,
				"z": 1.516256791,
				"element": "H" 
			},
			{
				"x": -2.7024682809,
				"y": 1.3876170488,
				"z": 2.1072093184,
				"element": "H" 
			},
			{
				"x": 1.2538293677,
				"y": 1.6109930254,
				"z": 1.6242949229,
				"element": "H" 
			},
			{
				"x": 0.8274329374,
				"y": -1.0505295123,
				"z": -0.2332099783,
				"element": "H" 
			},
			{
				"x": -0.4484941859,
				"y": -5.005430106,
				"z": 2.4571671272,
				"element": "H" 
			},
			{
				"x": 0.1210033619,
				"y": -4.5060972005,
				"z": 4.0607583817,
				"element": "H" 
			},
			{
				"x": 1.2768835055,
				"y": -4.9298855943,
				"z": 2.7844151807,
				"element": "H" 
			},
			{
				"x": -0.0452636763,
				"y": -2.2006493749,
				"z": 4.4977674911,
				"element": "H" 
			},
			{
				"x": -0.0385729453,
				"y": 0.1730002899,
				"z": 3.7888363664,
				"element": "H" 
			}
		],
		 "valence_orbital": [ 
			{
				"type": "occ",
				"energy": -0.31107,
				"method": "rhf"
			},
			{
				"type": "occ",
				"energy": -0.27437,
				"method": "rhf"
			},
			{
				"type": "occ",
				"energy": -0.25864,
				"method": "rhf"
			},
			{
				"type": "occ",
				"energy": -0.24802,
				"method": "rhf"
			},
			{
				"type": "occ",
				"energy": -0.24069,
				"method": "rhf"
			},
			{
				"type": "unocc",
				"energy": -0.02724,
				"method": "rhf"
			},
			{
				"type": "unocc",
				"energy": -0.02422,
				"method": "rhf"
			},
			{
				"type": "unocc",
				"energy": 0.01928,
				"method": "rhf"
			},
			{
				"type": "unocc",
				"energy": 0.03002,
				"method": "rhf"
			},
			{
				"type": "unocc",
				"energy": 0.08745,
				"method": "rhf"
			}
		],
		"cosmo_sigma_profile": { 
			"-0.025": 0.0,
			"-0.024": 0.0,
			"-0.023": 0.0,
			"-0.022": 0.0,
			"-0.021": 0.0,
			"-0.02": 0.0,
			"-0.019": 0.0,
			"-0.018": 0.0,
			"-0.017": 0.0,
			"-0.016": 0.0,
			"-0.015": 0.0,
			"-0.014": 0.271689787673,
			"-0.013": 1.13306723057,
			"-0.012": 0.788471467702,
			"-0.011": 0.797721250832,
			"-0.01": 1.04931382673,
			"-0.009": 0.85635517345,
			"-0.008": 0.665171624806,
			"-0.007": 2.93364237461,
			"-0.006": 7.11144728868,
			"-0.005": 10.9328134607,
			"-0.004": 15.5949465193,
			"-0.003": 23.1215378397,
			"-0.002": 35.0734215698,
			"-0.001": 41.4796412729,
			"0.0": 41.0521215645,
			"0.001": 34.1833504328,
			"0.002": 23.2850022346,
			"0.003": 16.4424962984,
			"0.004": 10.4839977345,
			"0.005": 6.89328442006,
			"0.006": 1.63665636447,
			"0.007": 2.42392985382,
			"0.008": 1.46338998832,
			"0.009": 1.06499786498,
			"0.01": 1.16148485574,
			"0.011": 1.77988397693,
			"0.012": 1.79076494955,
			"0.013": 3.19550815423,
			"0.014": 4.44242799399,
			"0.015": 0.59994342764,
			"0.016": 0.0,
			"0.017": 0.0,
			"0.018": 0.0,
			"0.019": 0.0,
			"0.02": 0.0,
			"0.021": 0.0,
			"0.022": 0.0,
			"0.023": 0.0,
			"0.024": 0.0,
			"0.025": 0.0
		}
	}
}
