{
	 "smiles": "CC1=CC(C(=O)C2=CC(=CC=C2)S(C)(=O)=O)=C(C)C=C1", 
	 "Tm": 363.15, 
	 "num_atms": 36, 
	 "gaussian": { 
		 "optdone": 1, 
		 "sigma_profile": "yes", 
		 "theory": "DFT", 
		 "functional": "B3LYP", 
		 "basiset": "6-31G**", 
		 "properties": { 
			 "R2extent": 7761.9313, 
			 "electric_dipole_moment_norm": 2.37391934572, 
			 "electric_quadrupole_moment_norm": 25.2949253347, 
			 "total_energy": -1243.15633097, 
			 "HOMO_LUMO_gap": 0.1662, 
			 "cosmo_polarized_energy": -17.68, 
			 "cosmo_cavitation_energy": 41.13, 
			 "cosmo_dispersion_energy": -28.58, 
			 "cosmo_repulsion_energy": 2.16, 
			 "cosmo_total_nonelectrostatic_energy": 14.72, 
			 "SMD_solvation_energy": 7.08 
		},
		"coords": [
			{
				"x": -4.0461362888,
				"y": -0.9019609053,
				"z": -0.3909083006,
				"element": "C" 
			},
			{
				"x": -2.6872827047,
				"y": -0.7594053619,
				"z": -1.034615478,
				"element": "C" 
			},
			{
				"x": -1.5234973643,
				"y": -0.7437476439,
				"z": -0.2594448031,
				"element": "C" 
			},
			{
				"x": -0.2438696468,
				"y": -0.6445314666,
				"z": -0.8295783549,
				"element": "C" 
			},
			{
				"x": 0.96063828,
				"y": -0.7078038155,
				"z": 0.0560572891,
				"element": "C" 
			},
			{
				"x": 1.9877981671,
				"y": -1.2746686105,
				"z": -0.3007987581,
				"element": "O" 
			},
			{
				"x": 0.9303559014,
				"y": -0.0648370925,
				"z": 1.421363058,
				"element": "C" 
			},
			{
				"x": 0.1048933991,
				"y": 1.0222036083,
				"z": 1.7372717567,
				"element": "C" 
			},
			{
				"x": 0.1898067282,
				"y": 1.5987407181,
				"z": 3.0050584845,
				"element": "C" 
			},
			{
				"x": 1.060416231,
				"y": 1.1065489859,
				"z": 3.9780426029,
				"element": "C" 
			},
			{
				"x": 1.8881243684,
				"y": 0.0279526549,
				"z": 3.6567991714,
				"element": "C" 
			},
			{
				"x": 1.8331055183,
				"y": -0.5403919258,
				"z": 2.3867795544,
				"element": "C" 
			},
			{
				"x": -0.8754658654,
				"y": 2.9969213751,
				"z": 3.4027038986,
				"element": "S" 
			},
			{
				"x": 0.0860746975,
				"y": 4.433954809,
				"z": 2.8712053666,
				"element": "C" 
			},
			{
				"x": -2.0639594653,
				"y": 2.9166564928,
				"z": 2.538993684,
				"element": "O" 
			},
			{
				"x": -0.9997673618,
				"y": 3.0638200108,
				"z": 4.8670793038,
				"element": "O" 
			},
			{
				"x": -0.1020208945,
				"y": -0.5599693431,
				"z": -2.2375637914,
				"element": "C" 
			},
			{
				"x": 1.2359845434,
				"y": -0.4718462196,
				"z": -2.9335418336,
				"element": "C" 
			},
			{
				"x": -1.2733026834,
				"y": -0.5467632666,
				"z": -3.0007436623,
				"element": "C" 
			},
			{
				"x": -2.5379496256,
				"y": -0.6472833932,
				"z": -2.4198764303,
				"element": "C" 
			},
			{
				"x": -4.2494713742,
				"y": -1.9451891169,
				"z": -0.1193013418,
				"element": "H" 
			},
			{
				"x": -4.1183402613,
				"y": -0.3076468838,
				"z": 0.5252987271,
				"element": "H" 
			},
			{
				"x": -4.8423561364,
				"y": -0.578329765,
				"z": -1.0671763605,
				"element": "H" 
			},
			{
				"x": -1.6152479774,
				"y": -0.8311159185,
				"z": 0.819164556,
				"element": "H" 
			},
			{
				"x": -0.6011713201,
				"y": 1.4172389678,
				"z": 1.0158258379,
				"element": "H" 
			},
			{
				"x": 1.0704522005,
				"y": 1.5537604983,
				"z": 4.9664990775,
				"element": "H" 
			},
			{
				"x": 2.5723725874,
				"y": -0.3680409468,
				"z": 4.4009364271,
				"element": "H" 
			},
			{
				"x": 2.4827811911,
				"y": -1.3655378998,
				"z": 2.1148374208,
				"element": "H" 
			},
			{
				"x": -0.5265701804,
				"y": 5.3098378251,
				"z": 3.0947283181,
				"element": "H" 
			},
			{
				"x": 1.0197451853,
				"y": 4.4694591184,
				"z": 3.4341321393,
				"element": "H" 
			},
			{
				"x": 0.2733805133,
				"y": 4.3650982436,
				"z": 1.7988005627,
				"element": "H" 
			},
			{
				"x": 1.9025024555,
				"y": 0.2535493731,
				"z": -2.458431129,
				"element": "H" 
			},
			{
				"x": 1.0991672074,
				"y": -0.18252836,
				"z": -3.9793375545,
				"element": "H" 
			},
			{
				"x": 1.7598352766,
				"y": -1.4310920969,
				"z": -2.9019071722,
				"element": "H" 
			},
			{
				"x": -1.192200801,
				"y": -0.4574577722,
				"z": -4.0810287812,
				"element": "H" 
			},
			{
				"x": -3.4201245001,
				"y": -0.6363948768,
				"z": -3.0554234849,
				"element": "H" 
			}
		],
		 "valence_orbital": [ 
			{
				"type": "occ",
				"energy": -0.28063,
				"method": "rhf"
			},
			{
				"type": "occ",
				"energy": -0.27825,
				"method": "rhf"
			},
			{
				"type": "occ",
				"energy": -0.26161,
				"method": "rhf"
			},
			{
				"type": "occ",
				"energy": -0.25301,
				"method": "rhf"
			},
			{
				"type": "occ",
				"energy": -0.24059,
				"method": "rhf"
			},
			{
				"type": "unocc",
				"energy": -0.07439,
				"method": "rhf"
			},
			{
				"type": "unocc",
				"energy": -0.04272,
				"method": "rhf"
			},
			{
				"type": "unocc",
				"energy": -0.02532,
				"method": "rhf"
			},
			{
				"type": "unocc",
				"energy": -0.00575,
				"method": "rhf"
			},
			{
				"type": "unocc",
				"energy": 0.03772,
				"method": "rhf"
			}
		],
		"cosmo_sigma_profile": { 
			"-0.025": 0.0,
			"-0.024": 0.0,
			"-0.023": 0.0,
			"-0.022": 0.0,
			"-0.021": 0.0,
			"-0.02": 0.0,
			"-0.019": 0.0,
			"-0.018": 0.0,
			"-0.017": 0.0,
			"-0.016": 0.0,
			"-0.015": 0.0,
			"-0.014": 0.0,
			"-0.013": 0.0,
			"-0.012": 0.0,
			"-0.011": 0.0,
			"-0.01": 0.00608918961663,
			"-0.009": 2.93532484359,
			"-0.008": 8.30782538833,
			"-0.007": 9.76394425681,
			"-0.006": 17.4340452333,
			"-0.005": 21.6407005714,
			"-0.004": 32.5173722046,
			"-0.003": 26.607108219,
			"-0.002": 26.6784715051,
			"-0.001": 24.8305095919,
			"0.0": 31.297393189,
			"0.001": 25.6531494388,
			"0.002": 18.616725934,
			"0.003": 12.0954560216,
			"0.004": 12.7728330491,
			"0.005": 8.00498555062,
			"0.006": 4.68957632306,
			"0.007": 5.17029194784,
			"0.008": 4.20244890474,
			"0.009": 5.1213844103,
			"0.01": 6.82037663958,
			"0.011": 11.6994880879,
			"0.012": 10.028720052,
			"0.013": 0.696623429776,
			"0.014": 0.0,
			"0.015": 0.0,
			"0.016": 0.0,
			"0.017": 0.0,
			"0.018": 0.0,
			"0.019": 0.0,
			"0.02": 0.0,
			"0.021": 0.0,
			"0.022": 0.0,
			"0.023": 0.0,
			"0.024": 0.0,
			"0.025": 0.0
		}
	}
}
