{
	 "smiles": "CC(C)(CN)C(N)=O", 
	 "Tm": 346.15, 
	 "num_atms": 20, 
	 "gaussian": { 
		 "optdone": 1, 
		 "sigma_profile": "yes", 
		 "theory": "DFT", 
		 "functional": "B3LYP", 
		 "basiset": "6-31G**", 
		 "properties": { 
			 "R2extent": 1163.2641, 
			 "electric_dipole_moment_norm": 2.24019823453, 
			 "electric_quadrupole_moment_norm": 13.1530464235, 
			 "total_energy": -382.509940583, 
			 "HOMO_LUMO_gap": 0.26435, 
			 "cosmo_polarized_energy": -13.89, 
			 "cosmo_cavitation_energy": 21.79, 
			 "cosmo_dispersion_energy": -15.84, 
			 "cosmo_repulsion_energy": 1.34, 
			 "cosmo_total_nonelectrostatic_energy": 7.28, 
			 "SMD_solvation_energy": 3.84 
		},
		"coords": [
			{
				"x": 1.5125970522,
				"y": -1.4281093929,
				"z": -0.3180661689,
				"element": "C" 
			},
			{
				"x": 0.1952487626,
				"y": -0.6502913131,
				"z": -0.5320709062,
				"element": "C" 
			},
			{
				"x": 0.3724748829,
				"y": 0.3737472611,
				"z": -1.6647239232,
				"element": "C" 
			},
			{
				"x": -0.9492799178,
				"y": -1.6399921075,
				"z": -0.894854704,
				"element": "C" 
			},
			{
				"x": -0.6466720015,
				"y": -2.4028075335,
				"z": -2.1130121498,
				"element": "N" 
			},
			{
				"x": -0.1832060335,
				"y": -0.0350207356,
				"z": 0.8331069419,
				"element": "C" 
			},
			{
				"x": -0.1920686104,
				"y": 1.327266386,
				"z": 0.9299090514,
				"element": "N" 
			},
			{
				"x": -0.4564140551,
				"y": -0.743332581,
				"z": 1.7962701647,
				"element": "O" 
			},
			{
				"x": 2.3272312153,
				"y": -0.7504535218,
				"z": -0.0404374342,
				"element": "H" 
			},
			{
				"x": 1.3976285486,
				"y": -2.1632298234,
				"z": 0.4830737949,
				"element": "H" 
			},
			{
				"x": 1.8040874751,
				"y": -1.9381370027,
				"z": -1.2413405777,
				"element": "H" 
			},
			{
				"x": 0.5321527935,
				"y": -0.1636584331,
				"z": -2.6023714407,
				"element": "H" 
			},
			{
				"x": -0.5209907192,
				"y": 0.9962974875,
				"z": -1.7941974642,
				"element": "H" 
			},
			{
				"x": 1.2367253384,
				"y": 1.0273623409,
				"z": -1.4966341148,
				"element": "H" 
			},
			{
				"x": -1.144350241,
				"y": -2.2621430168,
				"z": -0.011662367,
				"element": "H" 
			},
			{
				"x": -1.8596251833,
				"y": -1.0572607063,
				"z": -1.0823722528,
				"element": "H" 
			},
			{
				"x": -0.0839706849,
				"y": -3.2175768,
				"z": -1.8847375402,
				"element": "H" 
			},
			{
				"x": -1.5073932234,
				"y": -2.7595192215,
				"z": -2.5171860636,
				"element": "H" 
			},
			{
				"x": 0.0527496079,
				"y": 1.9338814494,
				"z": 0.166634354,
				"element": "H" 
			},
			{
				"x": -0.4070250064,
				"y": 1.7275772643,
				"z": 1.8304728006,
				"element": "H" 
			}
		],
		 "valence_orbital": [ 
			{
				"type": "occ",
				"energy": -0.33118,
				"method": "rhf"
			},
			{
				"type": "occ",
				"energy": -0.32178,
				"method": "rhf"
			},
			{
				"type": "occ",
				"energy": -0.25954,
				"method": "rhf"
			},
			{
				"type": "occ",
				"energy": -0.24235,
				"method": "rhf"
			},
			{
				"type": "occ",
				"energy": -0.229,
				"method": "rhf"
			},
			{
				"type": "unocc",
				"energy": 0.03535,
				"method": "rhf"
			},
			{
				"type": "unocc",
				"energy": 0.07065,
				"method": "rhf"
			},
			{
				"type": "unocc",
				"energy": 0.09292,
				"method": "rhf"
			},
			{
				"type": "unocc",
				"energy": 0.12431,
				"method": "rhf"
			},
			{
				"type": "unocc",
				"energy": 0.12899,
				"method": "rhf"
			}
		],
		"cosmo_sigma_profile": { 
			"-0.025": 0.0,
			"-0.024": 0.0,
			"-0.023": 0.0,
			"-0.022": 0.0,
			"-0.021": 0.0,
			"-0.02": 0.0,
			"-0.019": 0.0,
			"-0.018": 0.0,
			"-0.017": 0.0,
			"-0.016": 0.0,
			"-0.015": 0.0,
			"-0.014": 0.303476371297,
			"-0.013": 1.81105723047,
			"-0.012": 2.1304996048,
			"-0.011": 1.62327251544,
			"-0.01": 3.78734167507,
			"-0.009": 4.73079163476,
			"-0.008": 4.84785508147,
			"-0.007": 4.68686409049,
			"-0.006": 5.17068993118,
			"-0.005": 5.60458852043,
			"-0.004": 9.40494252111,
			"-0.003": 15.399903792,
			"-0.002": 13.0014949332,
			"-0.001": 15.6909451531,
			"0.0": 13.6602400266,
			"0.001": 15.953311245,
			"0.002": 7.4415146063,
			"0.003": 4.87847950754,
			"0.004": 4.45956957474,
			"0.005": 2.9779020234,
			"0.006": 3.96778766829,
			"0.007": 2.71557663928,
			"0.008": 1.84304652341,
			"0.009": 2.5453431144,
			"0.01": 2.17454587389,
			"0.011": 1.85527271813,
			"0.012": 2.76875799776,
			"0.013": 2.34539130037,
			"0.014": 5.20996896318,
			"0.015": 3.93807333911,
			"0.016": 0.710149277786,
			"0.017": 0.0,
			"0.018": 0.0,
			"0.019": 0.0,
			"0.02": 0.0,
			"0.021": 0.0,
			"0.022": 0.0,
			"0.023": 0.0,
			"0.024": 0.0,
			"0.025": 0.0
		}
	}
}
