{
	 "smiles": "COC1=CC=C(C=C(C(O)=O)C2=CC=CS2)C=C1", 
	 "Tm": 479.15, 
	 "num_atms": 30, 
	 "gaussian": { 
		 "optdone": 1, 
		 "sigma_profile": "yes", 
		 "theory": "DFT", 
		 "functional": "B3LYP", 
		 "basiset": "6-31G**", 
		 "properties": { 
			 "R2extent": 7301.7246, 
			 "electric_dipole_moment_norm": 1.95255871615, 
			 "electric_quadrupole_moment_norm": 21.4683948753, 
			 "total_energy": -1164.55211255, 
			 "HOMO_LUMO_gap": 0.13997, 
			 "cosmo_polarized_energy": -13.81, 
			 "cosmo_cavitation_energy": 36.29, 
			 "cosmo_dispersion_energy": -26.51, 
			 "cosmo_repulsion_energy": 2.0, 
			 "cosmo_total_nonelectrostatic_energy": 11.78, 
			 "SMD_solvation_energy": 7.81 
		},
		"coords": [
			{
				"x": -1.9320811595,
				"y": -5.3402331597,
				"z": 3.896171721,
				"element": "C" 
			},
			{
				"x": -2.6349156937,
				"y": -4.5684766102,
				"z": 2.9340404577,
				"element": "O" 
			},
			{
				"x": -2.0001541084,
				"y": -3.5043143347,
				"z": 2.3684571102,
				"element": "C" 
			},
			{
				"x": -2.7478339284,
				"y": -2.7738975603,
				"z": 1.4313566153,
				"element": "C" 
			},
			{
				"x": -2.1894714469,
				"y": -1.6708535745,
				"z": 0.8063249583,
				"element": "C" 
			},
			{
				"x": -0.8635817084,
				"y": -1.2637904441,
				"z": 1.0683343795,
				"element": "C" 
			},
			{
				"x": -0.3399706404,
				"y": -0.0833111941,
				"z": 0.3801428879,
				"element": "C" 
			},
			{
				"x": 0.9400112722,
				"y": 0.2437688111,
				"z": 0.0704448889,
				"element": "C" 
			},
			{
				"x": 2.087181148,
				"y": -0.6952963856,
				"z": 0.3197271506,
				"element": "C" 
			},
			{
				"x": 1.928719997,
				"y": -1.8731109201,
				"z": -0.323513498,
				"element": "O" 
			},
			{
				"x": 3.0760322307,
				"y": -0.4448770815,
				"z": 0.9793712053,
				"element": "O" 
			},
			{
				"x": 1.3188081741,
				"y": 1.5162337138,
				"z": -0.5473368533,
				"element": "C" 
			},
			{
				"x": 2.5760628957,
				"y": 2.072249974,
				"z": -0.6620662865,
				"element": "C" 
			},
			{
				"x": 2.5850620081,
				"y": 3.3291775013,
				"z": -1.3320550596,
				"element": "C" 
			},
			{
				"x": 1.3406234962,
				"y": 3.7288326043,
				"z": -1.7320812844,
				"element": "C" 
			},
			{
				"x": 0.1263214144,
				"y": 2.5688565414,
				"z": -1.2977315481,
				"element": "S" 
			},
			{
				"x": -0.1428146683,
				"y": -1.9926990027,
				"z": 2.0290909249,
				"element": "C" 
			},
			{
				"x": -0.6932753045,
				"y": -3.0998545352,
				"z": 2.6722459992,
				"element": "C" 
			},
			{
				"x": -1.65654977,
				"y": -4.7405866788,
				"z": 4.7730765944,
				"element": "H" 
			},
			{
				"x": -1.0263457277,
				"y": -5.7904350148,
				"z": 3.4702786728,
				"element": "H" 
			},
			{
				"x": -2.615942722,
				"y": -6.1324631583,
				"z": 4.2041528567,
				"element": "H" 
			},
			{
				"x": -3.7634636792,
				"y": -3.0904166111,
				"z": 1.2180401257,
				"element": "H" 
			},
			{
				"x": -2.781687996,
				"y": -1.11323317,
				"z": 0.0854127541,
				"element": "H" 
			},
			{
				"x": -1.1042104486,
				"y": 0.642895934,
				"z": 0.105008343,
				"element": "H" 
			},
			{
				"x": 2.7105344969,
				"y": -2.4070047293,
				"z": -0.0994878073,
				"element": "H" 
			},
			{
				"x": 3.456787703,
				"y": 1.5988226294,
				"z": -0.2484059239,
				"element": "H" 
			},
			{
				"x": 3.4829950041,
				"y": 3.9117340827,
				"z": -1.5039955272,
				"element": "H" 
			},
			{
				"x": 1.0576606939,
				"y": 4.6303689343,
				"z": -2.257574873,
				"element": "H" 
			},
			{
				"x": 0.8535202801,
				"y": -1.67163865,
				"z": 2.3152217469,
				"element": "H" 
			},
			{
				"x": -0.1057218124,
				"y": -3.6249479111,
				"z": 3.4159492691,
				"element": "H" 
			}
		],
		 "valence_orbital": [ 
			{
				"type": "occ",
				"energy": -0.27461,
				"method": "rhf"
			},
			{
				"type": "occ",
				"energy": -0.25627,
				"method": "rhf"
			},
			{
				"type": "occ",
				"energy": -0.24915,
				"method": "rhf"
			},
			{
				"type": "occ",
				"energy": -0.23856,
				"method": "rhf"
			},
			{
				"type": "occ",
				"energy": -0.19692,
				"method": "rhf"
			},
			{
				"type": "unocc",
				"energy": -0.05695,
				"method": "rhf"
			},
			{
				"type": "unocc",
				"energy": -0.00717,
				"method": "rhf"
			},
			{
				"type": "unocc",
				"energy": 0.00024,
				"method": "rhf"
			},
			{
				"type": "unocc",
				"energy": 0.01058,
				"method": "rhf"
			},
			{
				"type": "unocc",
				"energy": 0.03351,
				"method": "rhf"
			}
		],
		"cosmo_sigma_profile": { 
			"-0.025": 0.0,
			"-0.024": 0.0,
			"-0.023": 0.0,
			"-0.022": 0.0,
			"-0.021": 0.0,
			"-0.02": 0.0,
			"-0.019": 0.0182435426662,
			"-0.018": 0.946858962749,
			"-0.017": 0.774487688961,
			"-0.016": 1.03222281456,
			"-0.015": 0.554803049338,
			"-0.014": 1.14464509239,
			"-0.013": 0.554698201078,
			"-0.012": 0.0626112725599,
			"-0.011": 1.08512422815,
			"-0.01": 0.856289744313,
			"-0.009": 1.37245791854,
			"-0.008": 2.36659131409,
			"-0.007": 7.31126625379,
			"-0.006": 18.1537558833,
			"-0.005": 23.0778445623,
			"-0.004": 23.2238229588,
			"-0.003": 20.6465274122,
			"-0.002": 17.7341832983,
			"-0.001": 14.2915985341,
			"0.0": 15.7426484015,
			"0.001": 16.3630107464,
			"0.002": 21.1504720289,
			"0.003": 25.3489018549,
			"0.004": 28.775215304,
			"0.005": 18.9589143655,
			"0.006": 6.26906390914,
			"0.007": 5.35563750786,
			"0.008": 4.58379773246,
			"0.009": 4.98942435235,
			"0.01": 3.82334528807,
			"0.011": 4.44439134361,
			"0.012": 1.57519193712,
			"0.013": 0.00701371189659,
			"0.014": 0.0,
			"0.015": 0.0,
			"0.016": 0.0,
			"0.017": 0.0,
			"0.018": 0.0,
			"0.019": 0.0,
			"0.02": 0.0,
			"0.021": 0.0,
			"0.022": 0.0,
			"0.023": 0.0,
			"0.024": 0.0,
			"0.025": 0.0
		}
	}
}
