{
	 "smiles": "CC1=CC=C(CBr)C=C1", 
	 "Tm": 308.15, 
	 "num_atms": 18, 
	 "gaussian": { 
		 "optdone": 1, 
		 "sigma_profile": "yes", 
		 "theory": "DFT", 
		 "functional": "B3LYP", 
		 "basiset": "6-31G**", 
		 "properties": { 
			 "R2extent": 4249.5309, 
			 "electric_dipole_moment_norm": 2.76841104788, 
			 "electric_quadrupole_moment_norm": 12.2565628551, 
			 "total_energy": -2881.69381845, 
			 "HOMO_LUMO_gap": 0.20506, 
			 "cosmo_polarized_energy": -6.11, 
			 "cosmo_cavitation_energy": 23.76, 
			 "cosmo_dispersion_energy": -17.65, 
			 "cosmo_repulsion_energy": 1.46, 
			 "cosmo_total_nonelectrostatic_energy": 7.57, 
			 "SMD_solvation_energy": 2.87 
		},
		"coords": [
			{
				"x": 2.4039303476,
				"y": 0.7689789298,
				"z": -2.088867439,
				"element": "C" 
			},
			{
				"x": 1.1064973802,
				"y": 0.9770975382,
				"z": -1.3447272078,
				"element": "C" 
			},
			{
				"x": -0.0332990544,
				"y": 0.2228937816,
				"z": -1.6563617064,
				"element": "C" 
			},
			{
				"x": -1.2223162194,
				"y": 0.3922070632,
				"z": -0.9512381471,
				"element": "C" 
			},
			{
				"x": -1.3095445044,
				"y": 1.3244430229,
				"z": 0.0913290425,
				"element": "C" 
			},
			{
				"x": -2.5776871335,
				"y": 1.4965648584,
				"z": 0.8577598915,
				"element": "C" 
			},
			{
				"x": -3.7856674767,
				"y": 2.8904031209,
				"z": 0.0499774431,
				"element": "Br" 
			},
			{
				"x": -0.1741564467,
				"y": 2.0843338883,
				"z": 0.4029204419,
				"element": "C" 
			},
			{
				"x": 1.0130609688,
				"y": 1.9121630517,
				"z": -0.3045395639,
				"element": "C" 
			},
			{
				"x": 2.2273782324,
				"y": 0.4416946235,
				"z": -3.1178140348,
				"element": "H" 
			},
			{
				"x": 2.998434964,
				"y": 1.6868603993,
				"z": -2.1216324875,
				"element": "H" 
			},
			{
				"x": 3.0190933985,
				"y": 0.0002478176,
				"z": -1.6041289386,
				"element": "H" 
			},
			{
				"x": 0.0119974289,
				"y": -0.5056922684,
				"z": -2.4620241657,
				"element": "H" 
			},
			{
				"x": -2.0952444109,
				"y": -0.1993734632,
				"z": -1.2155458048,
				"element": "H" 
			},
			{
				"x": -2.4137360681,
				"y": 1.8515295743,
				"z": 1.8735030753,
				"element": "H" 
			},
			{
				"x": -3.1903199756,
				"y": 0.5970487382,
				"z": 0.8701692243,
				"element": "H" 
			},
			{
				"x": -0.2245402589,
				"y": 2.8205378041,
				"z": 1.201224316,
				"element": "H" 
			},
			{
				"x": 1.8817188281,
				"y": 2.5128615194,
				"z": -0.046503939,
				"element": "H" 
			}
		],
		 "valence_orbital": [ 
			{
				"type": "occ",
				"energy": -0.34197,
				"method": "rhf"
			},
			{
				"type": "occ",
				"energy": -0.26843,
				"method": "rhf"
			},
			{
				"type": "occ",
				"energy": -0.26636,
				"method": "rhf"
			},
			{
				"type": "occ",
				"energy": -0.2544,
				"method": "rhf"
			},
			{
				"type": "occ",
				"energy": -0.23954,
				"method": "rhf"
			},
			{
				"type": "unocc",
				"energy": -0.03448,
				"method": "rhf"
			},
			{
				"type": "unocc",
				"energy": -0.00688,
				"method": "rhf"
			},
			{
				"type": "unocc",
				"energy": 0.03137,
				"method": "rhf"
			},
			{
				"type": "unocc",
				"energy": 0.08954,
				"method": "rhf"
			},
			{
				"type": "unocc",
				"energy": 0.10836,
				"method": "rhf"
			}
		],
		"cosmo_sigma_profile": { 
			"-0.025": 0.0,
			"-0.024": 0.0,
			"-0.023": 0.0,
			"-0.022": 0.0,
			"-0.021": 0.0,
			"-0.02": 0.0,
			"-0.019": 0.0,
			"-0.018": 0.0,
			"-0.017": 0.0,
			"-0.016": 0.0,
			"-0.015": 0.0,
			"-0.014": 0.0,
			"-0.013": 0.0,
			"-0.012": 0.0,
			"-0.011": 0.0,
			"-0.01": 0.0,
			"-0.009": 0.0,
			"-0.008": 0.867982266642,
			"-0.007": 5.95986905955,
			"-0.006": 8.99422749778,
			"-0.005": 13.3683285073,
			"-0.004": 18.9558401005,
			"-0.003": 15.8931543272,
			"-0.002": 14.0727056817,
			"-0.001": 15.2591386421,
			"0.0": 16.0422822667,
			"0.001": 11.4909258004,
			"0.002": 9.60636120183,
			"0.003": 10.3362478071,
			"0.004": 12.6623074138,
			"0.005": 16.2662196301,
			"0.006": 13.449819774,
			"0.007": 8.56114903428,
			"0.008": 0.0,
			"0.009": 0.0,
			"0.01": 0.0,
			"0.011": 0.0,
			"0.012": 0.0,
			"0.013": 0.0,
			"0.014": 0.0,
			"0.015": 0.0,
			"0.016": 0.0,
			"0.017": 0.0,
			"0.018": 0.0,
			"0.019": 0.0,
			"0.02": 0.0,
			"0.021": 0.0,
			"0.022": 0.0,
			"0.023": 0.0,
			"0.024": 0.0,
			"0.025": 0.0
		}
	}
}
