{
	 "smiles": "O=C(OC1=CC=C(C=CC(=O)C2=CC=CC=C2)C=C1)C=CC1=CC=CC=C1", 
	 "Tm": 431.15, 
	 "num_atms": 45, 
	 "gaussian": { 
		 "optdone": 1, 
		 "sigma_profile": "yes", 
		 "theory": "DFT", 
		 "functional": "B3LYP", 
		 "basiset": "6-31G**", 
		 "properties": { 
			 "R2extent": 16506.3563, 
			 "electric_dipole_moment_norm": 4.45410035361, 
			 "electric_quadrupole_moment_norm": 16.7098633941, 
			 "total_energy": -1151.04435534, 
			 "HOMO_LUMO_gap": 0.14694, 
			 "cosmo_polarized_energy": -14.8, 
			 "cosmo_cavitation_energy": 50.87, 
			 "cosmo_dispersion_energy": -35.12, 
			 "cosmo_repulsion_energy": 2.65, 
			 "cosmo_total_nonelectrostatic_energy": 18.41, 
			 "SMD_solvation_energy": 9.89 
		},
		"coords": [
			{
				"x": -0.6657239658,
				"y": 1.6012910085,
				"z": 1.0466689174,
				"element": "O" 
			},
			{
				"x": 0.5188196458,
				"y": 1.8642975041,
				"z": 0.995468159,
				"element": "C" 
			},
			{
				"x": 1.2683547746,
				"y": 1.715245884,
				"z": -0.1534436959,
				"element": "O" 
			},
			{
				"x": 0.7102903614,
				"y": 1.2584352334,
				"z": -1.3400781766,
				"element": "C" 
			},
			{
				"x": 1.5233631168,
				"y": 0.4162013807,
				"z": -2.101087899,
				"element": "C" 
			},
			{
				"x": 1.0870081254,
				"y": -0.0349196053,
				"z": -3.3414256378,
				"element": "C" 
			},
			{
				"x": -0.173818113,
				"y": 0.3387710981,
				"z": -3.8415847661,
				"element": "C" 
			},
			{
				"x": -0.6869959769,
				"y": -0.1059270627,
				"z": -5.1456430567,
				"element": "C" 
			},
			{
				"x": -0.4073571909,
				"y": -1.2243613423,
				"z": -5.841560115,
				"element": "C" 
			},
			{
				"x": 0.5043530022,
				"y": -2.36381466,
				"z": -5.4961166167,
				"element": "C" 
			},
			{
				"x": 1.4047847256,
				"y": -2.6474718916,
				"z": -6.2795504621,
				"element": "O" 
			},
			{
				"x": 0.2673098794,
				"y": -3.1919227301,
				"z": -4.2704101932,
				"element": "C" 
			},
			{
				"x": -0.8862890179,
				"y": -3.0671304057,
				"z": -3.482491567,
				"element": "C" 
			},
			{
				"x": -1.0717611681,
				"y": -3.8928700638,
				"z": -2.3740586307,
				"element": "C" 
			},
			{
				"x": -0.1075720005,
				"y": -4.8469465064,
				"z": -2.0432555325,
				"element": "C" 
			},
			{
				"x": 1.0427907682,
				"y": -4.9811280589,
				"z": -2.8278093762,
				"element": "C" 
			},
			{
				"x": 1.2262510594,
				"y": -4.162600693,
				"z": -3.9376128864,
				"element": "C" 
			},
			{
				"x": -0.9543822992,
				"y": 1.2167998095,
				"z": -3.0678763551,
				"element": "C" 
			},
			{
				"x": -0.5329482871,
				"y": 1.6742121452,
				"z": -1.8226910196,
				"element": "C" 
			},
			{
				"x": 1.4120532753,
				"y": 2.3666331625,
				"z": 2.0490322086,
				"element": "C" 
			},
			{
				"x": 1.1684063821,
				"y": 2.672415995,
				"z": 3.3480594859,
				"element": "C" 
			},
			{
				"x": 0.0104676219,
				"y": 2.6483118622,
				"z": 4.2437263025,
				"element": "C" 
			},
			{
				"x": 0.2412268631,
				"y": 3.090048922,
				"z": 5.5656323855,
				"element": "C" 
			},
			{
				"x": -0.7786763685,
				"y": 3.1144710098,
				"z": 6.5108991716,
				"element": "C" 
			},
			{
				"x": -2.0622514985,
				"y": 2.6939722635,
				"z": 6.1560645504,
				"element": "C" 
			},
			{
				"x": -2.3094473913,
				"y": 2.2525077895,
				"z": 4.8537513501,
				"element": "C" 
			},
			{
				"x": -1.2920668968,
				"y": 2.22664806,
				"z": 3.9030968188,
				"element": "C" 
			},
			{
				"x": 2.4980139098,
				"y": 0.1373235645,
				"z": -1.71487948,
				"element": "H" 
			},
			{
				"x": 1.743488407,
				"y": -0.6592242376,
				"z": -3.9371995465,
				"element": "H" 
			},
			{
				"x": -1.378778314,
				"y": 0.59347357,
				"z": -5.6153920684,
				"element": "H" 
			},
			{
				"x": -0.8110143359,
				"y": -1.3070576667,
				"z": -6.8489654041,
				"element": "H" 
			},
			{
				"x": -1.6374931778,
				"y": -2.3296409051,
				"z": -3.7424658788,
				"element": "H" 
			},
			{
				"x": -1.9679553562,
				"y": -3.7918156683,
				"z": -1.7690435749,
				"element": "H" 
			},
			{
				"x": -0.2524603977,
				"y": -5.4873215652,
				"z": -1.1776393376,
				"element": "H" 
			},
			{
				"x": 1.7911713511,
				"y": -5.7259311101,
				"z": -2.572601729,
				"element": "H" 
			},
			{
				"x": 2.1041462828,
				"y": -4.254152072,
				"z": -4.5685803093,
				"element": "H" 
			},
			{
				"x": -1.9199600877,
				"y": 1.54109098,
				"z": -3.4473328286,
				"element": "H" 
			},
			{
				"x": -1.1564667861,
				"y": 2.3353782586,
				"z": -1.236811256,
				"element": "H" 
			},
			{
				"x": 2.4303647285,
				"y": 2.5100683391,
				"z": 1.702775386,
				"element": "H" 
			},
			{
				"x": 2.060706133,
				"y": 3.0287388493,
				"z": 3.8631694767,
				"element": "H" 
			},
			{
				"x": 1.2389159575,
				"y": 3.4178041839,
				"z": 5.8469193744,
				"element": "H" 
			},
			{
				"x": -0.5739592718,
				"y": 3.459342047,
				"z": 7.520149404,
				"element": "H" 
			},
			{
				"x": -2.8636952069,
				"y": 2.7098280025,
				"z": 6.8892436747,
				"element": "H" 
			},
			{
				"x": -3.306262983,
				"y": 1.9238280359,
				"z": 4.5739151132,
				"element": "H" 
			},
			{
				"x": -1.4907502792,
				"y": 1.8840972857,
				"z": 2.8968356213,
				"element": "H" 
			}
		],
		 "valence_orbital": [ 
			{
				"type": "occ",
				"energy": -0.25473,
				"method": "rhf"
			},
			{
				"type": "occ",
				"energy": -0.25407,
				"method": "rhf"
			},
			{
				"type": "occ",
				"energy": -0.24736,
				"method": "rhf"
			},
			{
				"type": "occ",
				"energy": -0.24091,
				"method": "rhf"
			},
			{
				"type": "occ",
				"energy": -0.22309,
				"method": "rhf"
			},
			{
				"type": "unocc",
				"energy": -0.07615,
				"method": "rhf"
			},
			{
				"type": "unocc",
				"energy": -0.06198,
				"method": "rhf"
			},
			{
				"type": "unocc",
				"energy": -0.03103,
				"method": "rhf"
			},
			{
				"type": "unocc",
				"energy": -0.00905,
				"method": "rhf"
			},
			{
				"type": "unocc",
				"energy": -0.00663,
				"method": "rhf"
			}
		],
		"cosmo_sigma_profile": { 
			"-0.025": 0.0,
			"-0.024": 0.0,
			"-0.023": 0.0,
			"-0.022": 0.0,
			"-0.021": 0.0,
			"-0.02": 0.0,
			"-0.019": 0.0,
			"-0.018": 0.0,
			"-0.017": 0.0,
			"-0.016": 0.0,
			"-0.015": 0.0,
			"-0.014": 0.0,
			"-0.013": 0.0,
			"-0.012": 0.0,
			"-0.011": 0.0,
			"-0.01": 0.0,
			"-0.009": 0.0,
			"-0.008": 1.38338402139,
			"-0.007": 11.3070900407,
			"-0.006": 29.4607603546,
			"-0.005": 33.920775982,
			"-0.004": 32.1806042953,
			"-0.003": 27.6335868804,
			"-0.002": 26.1367943647,
			"-0.001": 26.2951759249,
			"0.0": 29.0670703323,
			"0.001": 30.365430886,
			"0.002": 39.824233037,
			"0.003": 39.6730679593,
			"0.004": 37.8383751036,
			"0.005": 14.7456951022,
			"0.006": 5.22107114154,
			"0.007": 3.69507561825,
			"0.008": 3.0172677167,
			"0.009": 4.25796490561,
			"0.01": 3.36709499009,
			"0.011": 4.21778875308,
			"0.012": 4.12099711835,
			"0.013": 1.64228851831,
			"0.014": 0.119452797535,
			"0.015": 0.0,
			"0.016": 0.0,
			"0.017": 0.0,
			"0.018": 0.0,
			"0.019": 0.0,
			"0.02": 0.0,
			"0.021": 0.0,
			"0.022": 0.0,
			"0.023": 0.0,
			"0.024": 0.0,
			"0.025": 0.0
		}
	}
}
