{
	 "smiles": "OC(=O)C1=CC=C(NC(=O)C2=CC=CO2)C=C1", 
	 "Tm": 406.15, 
	 "num_atms": 26, 
	 "gaussian": { 
		 "optdone": 1, 
		 "sigma_profile": "yes", 
		 "theory": "DFT", 
		 "functional": "B3LYP", 
		 "basiset": "6-31G**", 
		 "properties": { 
			 "R2extent": 5226.621, 
			 "electric_dipole_moment_norm": 2.55167451294, 
			 "electric_quadrupole_moment_norm": 38.9111097363, 
			 "total_energy": -818.337956214, 
			 "HOMO_LUMO_gap": 0.17721, 
			 "cosmo_polarized_energy": -22.15, 
			 "cosmo_cavitation_energy": 32.02, 
			 "cosmo_dispersion_energy": -22.8, 
			 "cosmo_repulsion_energy": 1.76, 
			 "cosmo_total_nonelectrostatic_energy": 10.99, 
			 "SMD_solvation_energy": 8.16 
		},
		"coords": [
			{
				"x": -2.9373244609,
				"y": 3.6992564138,
				"z": -0.8748735545,
				"element": "O" 
			},
			{
				"x": -1.7025598317,
				"y": 3.2518479845,
				"z": -0.5145489618,
				"element": "C" 
			},
			{
				"x": -0.9475862056,
				"y": 3.9859387818,
				"z": 0.0799243754,
				"element": "O" 
			},
			{
				"x": -1.3570791371,
				"y": 1.8459697176,
				"z": -0.8890608534,
				"element": "C" 
			},
			{
				"x": -2.3129336765,
				"y": 0.8694555589,
				"z": -1.2030257463,
				"element": "C" 
			},
			{
				"x": -1.9244745146,
				"y": -0.4283177133,
				"z": -1.5170072019,
				"element": "C" 
			},
			{
				"x": -0.5655998884,
				"y": -0.7780450011,
				"z": -1.5375510422,
				"element": "C" 
			},
			{
				"x": -0.2237636458,
				"y": -2.0893948017,
				"z": -1.9214016395,
				"element": "N" 
			},
			{
				"x": 0.9009344229,
				"y": -2.8674392118,
				"z": -1.6690639597,
				"element": "C" 
			},
			{
				"x": 1.2062932979,
				"y": -3.7693737024,
				"z": -2.4414407379,
				"element": "O" 
			},
			{
				"x": 1.6720760502,
				"y": -2.6592938995,
				"z": -0.4341678869,
				"element": "C" 
			},
			{
				"x": 2.9060815798,
				"y": -3.1517625313,
				"z": -0.099020847,
				"element": "C" 
			},
			{
				"x": 3.1660301848,
				"y": -2.717427987,
				"z": 1.2335394498,
				"element": "C" 
			},
			{
				"x": 2.0678484443,
				"y": -2.0019959313,
				"z": 1.6181660491,
				"element": "C" 
			},
			{
				"x": 1.1499483067,
				"y": -1.9564176925,
				"z": 0.6202654541,
				"element": "O" 
			},
			{
				"x": 0.3966285475,
				"y": 0.2006430034,
				"z": -1.2368064088,
				"element": "C" 
			},
			{
				"x": -0.0015454016,
				"y": 1.4855499558,
				"z": -0.8963649634,
				"element": "C" 
			},
			{
				"x": -3.3535014395,
				"y": 3.075652137,
				"z": -1.4853958054,
				"element": "H" 
			},
			{
				"x": -3.376298489,
				"y": 1.0926307495,
				"z": -1.1577941398,
				"element": "H" 
			},
			{
				"x": -2.6729985643,
				"y": -1.1864512721,
				"z": -1.7279558872,
				"element": "H" 
			},
			{
				"x": -0.7674319314,
				"y": -2.4878970488,
				"z": -2.677841329,
				"element": "H" 
			},
			{
				"x": 3.5322804909,
				"y": -3.7532957672,
				"z": -0.7405384669,
				"element": "H" 
			},
			{
				"x": 4.0458369462,
				"y": -2.9130919004,
				"z": 1.8289025668,
				"element": "H" 
			},
			{
				"x": 1.797197445,
				"y": -1.4892394096,
				"z": 2.5284970673,
				"element": "H" 
			},
			{
				"x": 1.4511608557,
				"y": -0.045085713,
				"z": -1.2824210258,
				"element": "H" 
			},
			{
				"x": 0.7331806146,
				"y": 2.2445852806,
				"z": -0.6504145052,
				"element": "H" 
			}
		],
		 "valence_orbital": [ 
			{
				"type": "occ",
				"energy": -0.27744,
				"method": "rhf"
			},
			{
				"type": "occ",
				"energy": -0.27403,
				"method": "rhf"
			},
			{
				"type": "occ",
				"energy": -0.27237,
				"method": "rhf"
			},
			{
				"type": "occ",
				"energy": -0.24784,
				"method": "rhf"
			},
			{
				"type": "occ",
				"energy": -0.23978,
				"method": "rhf"
			},
			{
				"type": "unocc",
				"energy": -0.06257,
				"method": "rhf"
			},
			{
				"type": "unocc",
				"energy": -0.03744,
				"method": "rhf"
			},
			{
				"type": "unocc",
				"energy": -0.02686,
				"method": "rhf"
			},
			{
				"type": "unocc",
				"energy": 0.03064,
				"method": "rhf"
			},
			{
				"type": "unocc",
				"energy": 0.04843,
				"method": "rhf"
			}
		],
		"cosmo_sigma_profile": { 
			"-0.025": 0.0,
			"-0.024": 0.0,
			"-0.023": 0.0,
			"-0.022": 0.0,
			"-0.021": 0.0,
			"-0.02": 0.0,
			"-0.019": 0.0518235138213,
			"-0.018": 0.781010365093,
			"-0.017": 1.06654484972,
			"-0.016": 1.52335467136,
			"-0.015": 1.46616659456,
			"-0.014": 1.87661706836,
			"-0.013": 1.61130287649,
			"-0.012": 2.39717006079,
			"-0.011": 2.77512295042,
			"-0.01": 3.74317040783,
			"-0.009": 4.2440490548,
			"-0.008": 7.34779060986,
			"-0.007": 10.3313888542,
			"-0.006": 13.2035442526,
			"-0.005": 13.9053069626,
			"-0.004": 12.5682796554,
			"-0.003": 12.6410514868,
			"-0.002": 13.2375313068,
			"-0.001": 14.7369405242,
			"0.0": 15.172468136,
			"0.001": 18.6197344636,
			"0.002": 20.2316866501,
			"0.003": 21.1486177723,
			"0.004": 8.89582601494,
			"0.005": 5.90382376503,
			"0.006": 6.00643234654,
			"0.007": 3.71048780863,
			"0.008": 3.99040805114,
			"0.009": 4.56483062061,
			"0.01": 6.51343649027,
			"0.011": 6.75967240029,
			"0.012": 9.6338019584,
			"0.013": 6.49451962035,
			"0.014": 0.412126173936,
			"0.015": 0.0,
			"0.016": 0.0,
			"0.017": 0.0,
			"0.018": 0.0,
			"0.019": 0.0,
			"0.02": 0.0,
			"0.021": 0.0,
			"0.022": 0.0,
			"0.023": 0.0,
			"0.024": 0.0,
			"0.025": 0.0
		}
	}
}
