{
	 "smiles": "CC(C)(C#N)C(C)(C)C#N", 
	 "Tm": 443.15, 
	 "num_atms": 22, 
	 "gaussian": { 
		 "optdone": 1, 
		 "sigma_profile": "yes", 
		 "theory": "DFT", 
		 "functional": "B3LYP", 
		 "basiset": "6-31G**", 
		 "properties": { 
			 "R2extent": 2061.993, 
			 "electric_dipole_moment_norm": 0.000173205080757, 
			 "electric_quadrupole_moment_norm": 20.0535411407, 
			 "total_energy": -421.562922221, 
			 "HOMO_LUMO_gap": 0.32462, 
			 "cosmo_polarized_energy": -11.61, 
			 "cosmo_cavitation_energy": 24.79, 
			 "cosmo_dispersion_energy": -16.5, 
			 "cosmo_repulsion_energy": 1.33, 
			 "cosmo_total_nonelectrostatic_energy": 9.62, 
			 "SMD_solvation_energy": 6.85 
		},
		"coords": [
			{
				"x": -0.6509508599,
				"y": 3.2528240026,
				"z": 1.1497119197,
				"element": "C" 
			},
			{
				"x": 0.294253699,
				"y": 2.0271416738,
				"z": 1.0942987371,
				"element": "C" 
			},
			{
				"x": 0.8154262395,
				"y": 1.7316284942,
				"z": 2.5225675261,
				"element": "C" 
			},
			{
				"x": 1.4487330804,
				"y": 2.3686462893,
				"z": 0.2395440053,
				"element": "C" 
			},
			{
				"x": 2.3590580786,
				"y": 2.64502302,
				"z": -0.4265336167,
				"element": "N" 
			},
			{
				"x": -0.4239507469,
				"y": 0.7553460208,
				"z": 0.4520587733,
				"element": "C" 
			},
			{
				"x": -0.9451714442,
				"y": 1.0508753781,
				"z": -0.9761886954,
				"element": "C" 
			},
			{
				"x": 0.5212717471,
				"y": -0.4703208408,
				"z": 0.3965955297,
				"element": "C" 
			},
			{
				"x": -1.5784022634,
				"y": 0.4138126503,
				"z": 1.3068393455,
				"element": "C" 
			},
			{
				"x": -2.4886721406,
				"y": 0.1373786464,
				"z": 1.9729686185,
				"element": "N" 
			},
			{
				"x": -0.1398737802,
				"y": 4.0917432188,
				"z": 1.6285366184,
				"element": "H" 
			},
			{
				"x": -0.9655482359,
				"y": 3.5769273005,
				"z": 0.1562376685,
				"element": "H" 
			},
			{
				"x": -1.5386888198,
				"y": 3.008174493,
				"z": 1.7395762512,
				"element": "H" 
			},
			{
				"x": 1.2657587042,
				"y": 2.6332726586,
				"z": 2.9450660573,
				"element": "H" 
			},
			{
				"x": -0.0168897765,
				"y": 1.429151964,
				"z": 3.1641485114,
				"element": "H" 
			},
			{
				"x": 1.5720253318,
				"y": 0.9451844075,
				"z": 2.5316850895,
				"element": "H" 
			},
			{
				"x": -1.7017755171,
				"y": 1.8373150993,
				"z": -0.9852704279,
				"element": "H" 
			},
			{
				"x": -1.3955119788,
				"y": 0.1492342314,
				"z": -1.3986851874,
				"element": "H" 
			},
			{
				"x": -0.1128774611,
				"y": 1.3533663128,
				"z": -1.617790885,
				"element": "H" 
			},
			{
				"x": 1.4089934224,
				"y": -0.2256452538,
				"z": -0.1932830643,
				"element": "H" 
			},
			{
				"x": 0.0101966802,
				"y": -1.3092362797,
				"z": -0.082237653,
				"element": "H" 
			},
			{
				"x": 0.8358960414,
				"y": -0.7944434871,
				"z": 1.3900548783,
				"element": "H" 
			}
		],
		 "valence_orbital": [ 
			{
				"type": "occ",
				"energy": -0.35804,
				"method": "rhf"
			},
			{
				"type": "occ",
				"energy": -0.35011,
				"method": "rhf"
			},
			{
				"type": "occ",
				"energy": -0.33666,
				"method": "rhf"
			},
			{
				"type": "occ",
				"energy": -0.32484,
				"method": "rhf"
			},
			{
				"type": "occ",
				"energy": -0.32065,
				"method": "rhf"
			},
			{
				"type": "unocc",
				"energy": 0.00397,
				"method": "rhf"
			},
			{
				"type": "unocc",
				"energy": 0.02234,
				"method": "rhf"
			},
			{
				"type": "unocc",
				"energy": 0.03357,
				"method": "rhf"
			},
			{
				"type": "unocc",
				"energy": 0.04382,
				"method": "rhf"
			},
			{
				"type": "unocc",
				"energy": 0.06161,
				"method": "rhf"
			}
		],
		"cosmo_sigma_profile": { 
			"-0.025": 0.0,
			"-0.024": 0.0,
			"-0.023": 0.0,
			"-0.022": 0.0,
			"-0.021": 0.0,
			"-0.02": 0.0,
			"-0.019": 0.0,
			"-0.018": 0.0,
			"-0.017": 0.0,
			"-0.016": 0.0,
			"-0.015": 0.0,
			"-0.014": 0.0,
			"-0.013": 0.0,
			"-0.012": 0.0,
			"-0.011": 0.0,
			"-0.01": 0.0,
			"-0.009": 0.0,
			"-0.008": 0.0,
			"-0.007": 1.40507791516,
			"-0.006": 11.6201635801,
			"-0.005": 22.2048008339,
			"-0.004": 23.884773413,
			"-0.003": 24.6400399034,
			"-0.002": 27.1050452239,
			"-0.001": 21.4593094554,
			"0.0": 5.75208456268,
			"0.001": 2.33942060296,
			"0.002": 4.26930501671,
			"0.003": 3.58483765234,
			"0.004": 2.50516621011,
			"0.005": 4.51666444972,
			"0.006": 3.98458398314,
			"0.007": 4.77447409582,
			"0.008": 5.49172167662,
			"0.009": 6.38271608644,
			"0.01": 5.84345171468,
			"0.011": 5.59873120497,
			"0.012": 4.77648377368,
			"0.013": 3.04692058823,
			"0.014": 0.137476820048,
			"0.015": 0.0,
			"0.016": 0.0,
			"0.017": 0.0,
			"0.018": 0.0,
			"0.019": 0.0,
			"0.02": 0.0,
			"0.021": 0.0,
			"0.022": 0.0,
			"0.023": 0.0,
			"0.024": 0.0,
			"0.025": 0.0
		}
	}
}
