{
	 "smiles": "CN1CCN(CC1)C(=O)OC1N(C(=O)C2=NC=CN=C12)C1=NC=C(Cl)C=C1", 
	 "Tm": 451.15, 
	 "num_atms": 44, 
	 "gaussian": { 
		 "optdone": 1, 
		 "sigma_profile": "yes", 
		 "theory": "DFT", 
		 "functional": "B3LYP", 
		 "basiset": "6-31G**", 
		 "properties": { 
			 "R2extent": 11993.1613, 
			 "electric_dipole_moment_norm": 2.84020317231, 
			 "electric_quadrupole_moment_norm": 19.7601014276, 
			 "total_energy": -1672.43429249, 
			 "HOMO_LUMO_gap": 0.13688, 
			 "cosmo_polarized_energy": -19.19, 
			 "cosmo_cavitation_energy": 49.73, 
			 "cosmo_dispersion_energy": -33.84, 
			 "cosmo_repulsion_energy": 2.56, 
			 "cosmo_total_nonelectrostatic_energy": 18.45, 
			 "SMD_solvation_energy": 2.36 
		},
		"coords": [
			{
				"x": 0.599071396,
				"y": -2.987996717,
				"z": -4.7385700805,
				"element": "C" 
			},
			{
				"x": 0.3728367258,
				"y": -2.9836176898,
				"z": -3.3004766417,
				"element": "N" 
			},
			{
				"x": 1.6153663744,
				"y": -2.7882905297,
				"z": -2.55371573,
				"element": "C" 
			},
			{
				"x": 1.3623333002,
				"y": -2.9066994539,
				"z": -1.050325059,
				"element": "C" 
			},
			{
				"x": 0.3074239222,
				"y": -1.980853502,
				"z": -0.6444880317,
				"element": "N" 
			},
			{
				"x": -0.9307494499,
				"y": -2.0901374409,
				"z": -1.4131109191,
				"element": "C" 
			},
			{
				"x": -0.6249585008,
				"y": -1.9895366738,
				"z": -2.9097424246,
				"element": "C" 
			},
			{
				"x": 0.530361112,
				"y": -1.1242771354,
				"z": 0.3874670876,
				"element": "C" 
			},
			{
				"x": 1.5700839972,
				"y": -1.0210139322,
				"z": 1.0124421298,
				"element": "O" 
			},
			{
				"x": -0.6003401702,
				"y": -0.3795873959,
				"z": 0.6646129064,
				"element": "O" 
			},
			{
				"x": -0.4324686969,
				"y": 0.659484219,
				"z": 1.6200683905,
				"element": "C" 
			},
			{
				"x": -0.999507573,
				"y": 1.9148236294,
				"z": 1.1030679297,
				"element": "N" 
			},
			{
				"x": -2.0984365646,
				"y": 2.3816940458,
				"z": 1.8445257725,
				"element": "C" 
			},
			{
				"x": -2.7514787535,
				"y": 3.3848808085,
				"z": 1.6332090291,
				"element": "O" 
			},
			{
				"x": -2.2627096187,
				"y": 1.3925641694,
				"z": 2.9531159991,
				"element": "C" 
			},
			{
				"x": -3.175381179,
				"y": 1.4207274534,
				"z": 3.9234368982,
				"element": "N" 
			},
			{
				"x": -3.0753393146,
				"y": 0.3942472129,
				"z": 4.7782229782,
				"element": "C" 
			},
			{
				"x": -2.1027262965,
				"y": -0.6120935378,
				"z": 4.6507517905,
				"element": "C" 
			},
			{
				"x": -1.1917826415,
				"y": -0.6269700667,
				"z": 3.665870362,
				"element": "N" 
			},
			{
				"x": -1.2962793607,
				"y": 0.4026561688,
				"z": 2.8310170424,
				"element": "C" 
			},
			{
				"x": -0.3922892947,
				"y": 2.5725925567,
				"z": 0.0146670719,
				"element": "C" 
			},
			{
				"x": 0.746267171,
				"y": 2.0134923017,
				"z": -0.4075832534,
				"element": "N" 
			},
			{
				"x": 1.395856779,
				"y": 2.5685516058,
				"z": -1.4315955074,
				"element": "C" 
			},
			{
				"x": 0.929651226,
				"y": 3.7109707543,
				"z": -2.0784877771,
				"element": "C" 
			},
			{
				"x": 1.8274633036,
				"y": 4.390672916,
				"z": -3.4199230861,
				"element": "Cl" 
			},
			{
				"x": -0.2585685073,
				"y": 4.2968585413,
				"z": -1.6416308656,
				"element": "C" 
			},
			{
				"x": -0.9427806757,
				"y": 3.7245553712,
				"z": -0.5762446562,
				"element": "C" 
			},
			{
				"x": 1.0009910833,
				"y": -2.0305111296,
				"z": -5.1218068758,
				"element": "H" 
			},
			{
				"x": 1.3089522788,
				"y": -3.7800663433,
				"z": -4.9979043515,
				"element": "H" 
			},
			{
				"x": -0.3416309192,
				"y": -3.1922669488,
				"z": -5.2601429542,
				"element": "H" 
			},
			{
				"x": 2.072752664,
				"y": -1.8018235463,
				"z": -2.7685603963,
				"element": "H" 
			},
			{
				"x": 2.3334833472,
				"y": -3.5580550709,
				"z": -2.8585346807,
				"element": "H" 
			},
			{
				"x": 2.2594169797,
				"y": -2.6706750905,
				"z": -0.4784931049,
				"element": "H" 
			},
			{
				"x": 1.0501299807,
				"y": -3.9336559969,
				"z": -0.8156329521,
				"element": "H" 
			},
			{
				"x": -1.616942945,
				"y": -1.3026739867,
				"z": -1.1084480226,
				"element": "H" 
			},
			{
				"x": -1.3979130954,
				"y": -3.0628645683,
				"z": -1.2055293311,
				"element": "H" 
			},
			{
				"x": -0.2912259842,
				"y": -0.9579292724,
				"z": -3.1405474592,
				"element": "H" 
			},
			{
				"x": -1.5455139227,
				"y": -2.1732885213,
				"z": -3.4756182566,
				"element": "H" 
			},
			{
				"x": 0.6309444774,
				"y": 0.7553633554,
				"z": 1.8487833885,
				"element": "H" 
			},
			{
				"x": -3.7921170408,
				"y": 0.361248529,
				"z": 5.5952727636,
				"element": "H" 
			},
			{
				"x": -2.0635728412,
				"y": -1.4287065471,
				"z": 5.3677988209,
				"element": "H" 
			},
			{
				"x": 2.3194473514,
				"y": 2.0896506122,
				"z": -1.7463379939,
				"element": "H" 
			},
			{
				"x": -0.643457447,
				"y": 5.1869423854,
				"z": -2.127598309,
				"element": "H" 
			},
			{
				"x": -1.8633626767,
				"y": 4.1466144612,
				"z": -0.1998816408,
				"element": "H" 
			}
		],
		 "valence_orbital": [ 
			{
				"type": "occ",
				"energy": -0.2753,
				"method": "rhf"
			},
			{
				"type": "occ",
				"energy": -0.25865,
				"method": "rhf"
			},
			{
				"type": "occ",
				"energy": -0.24623,
				"method": "rhf"
			},
			{
				"type": "occ",
				"energy": -0.23875,
				"method": "rhf"
			},
			{
				"type": "occ",
				"energy": -0.2226,
				"method": "rhf"
			},
			{
				"type": "unocc",
				"energy": -0.08572,
				"method": "rhf"
			},
			{
				"type": "unocc",
				"energy": -0.05906,
				"method": "rhf"
			},
			{
				"type": "unocc",
				"energy": -0.03868,
				"method": "rhf"
			},
			{
				"type": "unocc",
				"energy": -0.02079,
				"method": "rhf"
			},
			{
				"type": "unocc",
				"energy": 0.02412,
				"method": "rhf"
			}
		],
		"cosmo_sigma_profile": { 
			"-0.025": 0.0,
			"-0.024": 0.0,
			"-0.023": 0.0,
			"-0.022": 0.0,
			"-0.021": 0.0,
			"-0.02": 0.0,
			"-0.019": 0.0,
			"-0.018": 0.0,
			"-0.017": 0.0,
			"-0.016": 0.0,
			"-0.015": 0.0,
			"-0.014": 0.0,
			"-0.013": 0.0,
			"-0.012": 0.0,
			"-0.011": 0.0,
			"-0.01": 0.0,
			"-0.009": 5.4139484489,
			"-0.008": 10.9233697542,
			"-0.007": 9.93606668149,
			"-0.006": 11.2324906696,
			"-0.005": 18.677740845,
			"-0.004": 35.3254344558,
			"-0.003": 36.1089790228,
			"-0.002": 46.2983754787,
			"-0.001": 43.1937851224,
			"0.0": 38.9792566728,
			"0.001": 26.2717030932,
			"0.002": 17.2330374505,
			"0.003": 18.0088411077,
			"0.004": 19.1682235982,
			"0.005": 9.32567730262,
			"0.006": 5.3865017639,
			"0.007": 5.72256717425,
			"0.008": 6.39965106786,
			"0.009": 5.33957656627,
			"0.01": 8.17824085708,
			"0.011": 7.80910021511,
			"0.012": 9.24532591107,
			"0.013": 3.79087862366,
			"0.014": 0.627232183047,
			"0.015": 0.347498876,
			"0.016": 0.161766689785,
			"0.017": 0.0,
			"0.018": 0.0,
			"0.019": 0.0,
			"0.02": 0.0,
			"0.021": 0.0,
			"0.022": 0.0,
			"0.023": 0.0,
			"0.024": 0.0,
			"0.025": 0.0
		}
	}
}
