{
	 "smiles": "OC1=C(C(=O)C2=CC=CC=C12)C1=CC=C(Br)C=C1", 
	 "Tm": 411.15, 
	 "num_atms": 27, 
	 "gaussian": { 
		 "optdone": 1, 
		 "sigma_profile": "yes", 
		 "theory": "DFT", 
		 "functional": "B3LYP", 
		 "basiset": "6-31G**", 
		 "properties": { 
			 "R2extent": 9141.4587, 
			 "electric_dipole_moment_norm": 3.69734656747, 
			 "electric_quadrupole_moment_norm": 5.69278674464, 
			 "total_energy": -3298.86627272, 
			 "HOMO_LUMO_gap": 0.12636, 
			 "cosmo_polarized_energy": -12.3, 
			 "cosmo_cavitation_energy": 34.26, 
			 "cosmo_dispersion_energy": -25.48, 
			 "cosmo_repulsion_energy": 1.93, 
			 "cosmo_total_nonelectrostatic_energy": 10.7, 
			 "SMD_solvation_energy": 5.05 
		},
		"coords": [
			{
				"x": 1.376913565,
				"y": -1.6439340643,
				"z": 1.345718396,
				"element": "O" 
			},
			{
				"x": 0.6911211843,
				"y": -0.5017647844,
				"z": 1.1898526534,
				"element": "C" 
			},
			{
				"x": 0.2212345708,
				"y": 0.0833679349,
				"z": 0.0425510868,
				"element": "C" 
			},
			{
				"x": -0.3822486419,
				"y": 1.3906296985,
				"z": 0.441395559,
				"element": "C" 
			},
			{
				"x": -0.8692016763,
				"y": 2.2414643482,
				"z": -0.2856094856,
				"element": "O" 
			},
			{
				"x": -0.260451427,
				"y": 1.4744207497,
				"z": 1.9412038742,
				"element": "C" 
			},
			{
				"x": -0.6651369606,
				"y": 2.4545782584,
				"z": 2.8255595946,
				"element": "C" 
			},
			{
				"x": -0.3985219593,
				"y": 2.2575302806,
				"z": 4.1940483352,
				"element": "C" 
			},
			{
				"x": 0.2590416717,
				"y": 1.1084485956,
				"z": 4.6328151599,
				"element": "C" 
			},
			{
				"x": 0.673510402,
				"y": 0.1149170359,
				"z": 3.7259024404,
				"element": "C" 
			},
			{
				"x": 0.4000330183,
				"y": 0.3174969113,
				"z": 2.3828875419,
				"element": "C" 
			},
			{
				"x": 0.305971877,
				"y": -0.4316553907,
				"z": -1.3257778542,
				"element": "C" 
			},
			{
				"x": 0.2647947253,
				"y": -1.8159851393,
				"z": -1.5914157533,
				"element": "C" 
			},
			{
				"x": 0.3870279896,
				"y": -2.3128251057,
				"z": -2.8886312791,
				"element": "C" 
			},
			{
				"x": 0.5349112617,
				"y": -1.4191474131,
				"z": -3.9462825134,
				"element": "C" 
			},
			{
				"x": 0.7057704897,
				"y": -2.0875009072,
				"z": -5.7279853837,
				"element": "Br" 
			},
			{
				"x": 0.5459606548,
				"y": -0.0421704721,
				"z": -3.7210845372,
				"element": "C" 
			},
			{
				"x": 0.4327424174,
				"y": 0.4444450971,
				"z": -2.422006136,
				"element": "C" 
			},
			{
				"x": 1.5920678378,
				"y": -2.0077132373,
				"z": 0.4719147248,
				"element": "H" 
			},
			{
				"x": -1.1703524166,
				"y": 3.346460514,
				"z": 2.4677410326,
				"element": "H" 
			},
			{
				"x": -0.7056568217,
				"y": 3.0083863358,
				"z": 4.9158712284,
				"element": "H" 
			},
			{
				"x": 0.4560595001,
				"y": 0.9765332088,
				"z": 5.6926687044,
				"element": "H" 
			},
			{
				"x": 1.1872845817,
				"y": -0.7769521598,
				"z": 4.0696862022,
				"element": "H" 
			},
			{
				"x": 0.0708764924,
				"y": -2.5200004045,
				"z": -0.7855419679,
				"element": "H" 
			},
			{
				"x": 0.3485243583,
				"y": -3.3801028642,
				"z": -3.0752147876,
				"element": "H" 
			},
			{
				"x": 0.64553908,
				"y": 0.6435887634,
				"z": -4.5549602696,
				"element": "H" 
			},
			{
				"x": 0.4286842252,
				"y": 1.5134842104,
				"z": -2.2468065664,
				"element": "H" 
			}
		],
		 "valence_orbital": [ 
			{
				"type": "occ",
				"energy": -0.26865,
				"method": "rhf"
			},
			{
				"type": "occ",
				"energy": -0.26827,
				"method": "rhf"
			},
			{
				"type": "occ",
				"energy": -0.26251,
				"method": "rhf"
			},
			{
				"type": "occ",
				"energy": -0.25253,
				"method": "rhf"
			},
			{
				"type": "occ",
				"energy": -0.2132,
				"method": "rhf"
			},
			{
				"type": "unocc",
				"energy": -0.08684,
				"method": "rhf"
			},
			{
				"type": "unocc",
				"energy": -0.03987,
				"method": "rhf"
			},
			{
				"type": "unocc",
				"energy": -0.02208,
				"method": "rhf"
			},
			{
				"type": "unocc",
				"energy": -0.00501,
				"method": "rhf"
			},
			{
				"type": "unocc",
				"energy": 0.00597,
				"method": "rhf"
			}
		],
		"cosmo_sigma_profile": { 
			"-0.025": 0.0,
			"-0.024": 0.0,
			"-0.023": 0.0,
			"-0.022": 0.0,
			"-0.021": 0.0,
			"-0.02": 0.0,
			"-0.019": 0.0,
			"-0.018": 0.0,
			"-0.017": 0.164515397694,
			"-0.016": 1.00874381036,
			"-0.015": 1.06750854959,
			"-0.014": 0.900944405875,
			"-0.013": 0.897018762829,
			"-0.012": 1.15283166008,
			"-0.011": 1.03526957734,
			"-0.01": 1.01333445315,
			"-0.009": 1.54896536239,
			"-0.008": 1.89251253354,
			"-0.007": 9.6131056762,
			"-0.006": 13.8825116832,
			"-0.005": 16.3958784675,
			"-0.004": 15.0724169456,
			"-0.003": 12.6978615152,
			"-0.002": 17.3385718896,
			"-0.001": 21.2290858659,
			"0.0": 22.6375069568,
			"0.001": 25.3678737261,
			"0.002": 28.4326169995,
			"0.003": 33.027232165,
			"0.004": 22.6889456498,
			"0.005": 10.1727386832,
			"0.006": 3.23507439618,
			"0.007": 3.61689346495,
			"0.008": 2.7754722706,
			"0.009": 1.91319062218,
			"0.01": 2.68922147952,
			"0.011": 3.58043366141,
			"0.012": 2.6192124205,
			"0.013": 0.237018478159,
			"0.014": 0.0,
			"0.015": 0.0,
			"0.016": 0.0,
			"0.017": 0.0,
			"0.018": 0.0,
			"0.019": 0.0,
			"0.02": 0.0,
			"0.021": 0.0,
			"0.022": 0.0,
			"0.023": 0.0,
			"0.024": 0.0,
			"0.025": 0.0
		}
	}
}
