{
	 "smiles": "CNC1=NC=CC=N1", 
	 "Tm": 334.15, 
	 "num_atms": 15, 
	 "gaussian": { 
		 "optdone": 1, 
		 "sigma_profile": "yes", 
		 "theory": "DFT", 
		 "functional": "B3LYP", 
		 "basiset": "6-31G**", 
		 "properties": { 
			 "R2extent": 1232.6303, 
			 "electric_dipole_moment_norm": 0.349400572409, 
			 "electric_quadrupole_moment_norm": 7.97172267832, 
			 "total_energy": -359.008580918, 
			 "HOMO_LUMO_gap": 0.18884, 
			 "cosmo_polarized_energy": -7.64, 
			 "cosmo_cavitation_energy": 18.8, 
			 "cosmo_dispersion_energy": -14.36, 
			 "cosmo_repulsion_energy": 1.2, 
			 "cosmo_total_nonelectrostatic_energy": 5.64, 
			 "SMD_solvation_energy": 0.52 
		},
		"coords": [
			{
				"x": 1.8463918437,
				"y": -2.1539556764,
				"z": 2.7693413554,
				"element": "C" 
			},
			{
				"x": 2.0619241704,
				"y": -1.4680126934,
				"z": 1.5117743465,
				"element": "N" 
			},
			{
				"x": 1.1215570786,
				"y": -0.6999210852,
				"z": 0.8997308154,
				"element": "C" 
			},
			{
				"x": -0.0363976683,
				"y": -0.486449141,
				"z": 1.5584251544,
				"element": "N" 
			},
			{
				"x": -0.9222678395,
				"y": 0.29116621,
				"z": 0.9316394652,
				"element": "C" 
			},
			{
				"x": -0.6937658606,
				"y": 0.8526778378,
				"z": -0.3223513044,
				"element": "C" 
			},
			{
				"x": 0.5393103451,
				"y": 0.5506822204,
				"z": -0.9065431979,
				"element": "C" 
			},
			{
				"x": 1.454832711,
				"y": -0.2162834067,
				"z": -0.3209637716,
				"element": "N" 
			},
			{
				"x": 1.100377241,
				"y": -2.9548870311,
				"z": 2.6854674177,
				"element": "H" 
			},
			{
				"x": 2.7938551552,
				"y": -2.5884107632,
				"z": 3.0957916619,
				"element": "H" 
			},
			{
				"x": 1.49626082,
				"y": -1.4536769676,
				"z": 3.532255314,
				"element": "H" 
			},
			{
				"x": 2.8752321303,
				"y": -1.6738893756,
				"z": 0.9535750781,
				"element": "H" 
			},
			{
				"x": -1.8584416636,
				"y": 0.4680472302,
				"z": 1.4605585416,
				"element": "H" 
			},
			{
				"x": -1.4267775944,
				"y": 1.4792816788,
				"z": -0.8160603203,
				"element": "H" 
			},
			{
				"x": 0.8016091311,
				"y": 0.9420309631,
				"z": -1.8892405561,
				"element": "H" 
			}
		],
		 "valence_orbital": [ 
			{
				"type": "occ",
				"energy": -0.30828,
				"method": "rhf"
			},
			{
				"type": "occ",
				"energy": -0.30409,
				"method": "rhf"
			},
			{
				"type": "occ",
				"energy": -0.30221,
				"method": "rhf"
			},
			{
				"type": "occ",
				"energy": -0.23939,
				"method": "rhf"
			},
			{
				"type": "occ",
				"energy": -0.21388,
				"method": "rhf"
			},
			{
				"type": "unocc",
				"energy": -0.02504,
				"method": "rhf"
			},
			{
				"type": "unocc",
				"energy": 0.00867,
				"method": "rhf"
			},
			{
				"type": "unocc",
				"energy": 0.09441,
				"method": "rhf"
			},
			{
				"type": "unocc",
				"energy": 0.11521,
				"method": "rhf"
			},
			{
				"type": "unocc",
				"energy": 0.13008,
				"method": "rhf"
			}
		],
		"cosmo_sigma_profile": { 
			"-0.025": 0.0,
			"-0.024": 0.0,
			"-0.023": 0.0,
			"-0.022": 0.0,
			"-0.021": 0.0,
			"-0.02": 0.0,
			"-0.019": 0.0,
			"-0.018": 0.0,
			"-0.017": 0.0,
			"-0.016": 0.0,
			"-0.015": 0.0,
			"-0.014": 0.133067606766,
			"-0.013": 1.23455223233,
			"-0.012": 0.675906598969,
			"-0.011": 0.625404672719,
			"-0.01": 1.07150798504,
			"-0.009": 1.0850351128,
			"-0.008": 1.16746884838,
			"-0.007": 4.71057375796,
			"-0.006": 8.75443199763,
			"-0.005": 10.1611096228,
			"-0.004": 10.9480324855,
			"-0.003": 10.9501352398,
			"-0.002": 11.8436174811,
			"-0.001": 10.9782040728,
			"0.0": 10.1788925597,
			"0.001": 11.3502557377,
			"0.002": 13.1649626551,
			"0.003": 9.60919870185,
			"0.004": 6.38489568677,
			"0.005": 4.48215011237,
			"0.006": 2.93819918171,
			"0.007": 2.80946022386,
			"0.008": 2.64784952837,
			"0.009": 2.24757504717,
			"0.01": 1.64513016575,
			"0.011": 2.26425080721,
			"0.012": 1.43150049303,
			"0.013": 1.9573874088,
			"0.014": 1.45164906269,
			"0.015": 0.743174476441,
			"0.016": 0.0945565079928,
			"0.017": 0.0,
			"0.018": 0.0,
			"0.019": 0.0,
			"0.02": 0.0,
			"0.021": 0.0,
			"0.022": 0.0,
			"0.023": 0.0,
			"0.024": 0.0,
			"0.025": 0.0
		}
	}
}
