{
	 "smiles": "ClC1=CC2=C(C=C1)N=C(Cl)N=C2Cl", 
	 "Tm": 363.15, 
	 "num_atms": 16, 
	 "gaussian": { 
		 "optdone": 1, 
		 "sigma_profile": "yes", 
		 "theory": "DFT", 
		 "functional": "B3LYP", 
		 "basiset": "6-31G**", 
		 "properties": { 
			 "R2extent": 4595.6656, 
			 "electric_dipole_moment_norm": 2.88400631067, 
			 "electric_quadrupole_moment_norm": 12.8816395335, 
			 "total_energy": -1796.74201765, 
			 "HOMO_LUMO_gap": 0.16418, 
			 "cosmo_polarized_energy": -7.09, 
			 "cosmo_cavitation_energy": 26.61, 
			 "cosmo_dispersion_energy": -20.4, 
			 "cosmo_repulsion_energy": 1.61, 
			 "cosmo_total_nonelectrostatic_energy": 7.82, 
			 "SMD_solvation_energy": 0.66 
		},
		"coords": [
			{
				"x": 1.7580228329,
				"y": 0.6887193048,
				"z": -3.2722985389,
				"element": "Cl" 
			},
			{
				"x": 1.4725133293,
				"y": 1.0222928639,
				"z": -1.5773178725,
				"element": "C" 
			},
			{
				"x": 0.9764287163,
				"y": 0.0320863296,
				"z": -0.7594044665,
				"element": "C" 
			},
			{
				"x": 0.7534044896,
				"y": 0.3234244669,
				"z": 0.6065568284,
				"element": "C" 
			},
			{
				"x": 1.0402338794,
				"y": 1.624783373,
				"z": 1.121551392,
				"element": "C" 
			},
			{
				"x": 1.5497898458,
				"y": 2.6129180935,
				"z": 0.2420327482,
				"element": "C" 
			},
			{
				"x": 1.7628347524,
				"y": 2.318408025,
				"z": -1.0847760336,
				"element": "C" 
			},
			{
				"x": 0.838320889,
				"y": 1.9433271985,
				"z": 2.4328503257,
				"element": "N" 
			},
			{
				"x": 0.3685508618,
				"y": 0.9892410214,
				"z": 3.1863604988,
				"element": "C" 
			},
			{
				"x": 0.0960585656,
				"y": 1.3610208884,
				"z": 4.8717622319,
				"element": "Cl" 
			},
			{
				"x": 0.0550701738,
				"y": -0.2790793175,
				"z": 2.8307751851,
				"element": "N" 
			},
			{
				"x": 0.2461150329,
				"y": -0.5882706711,
				"z": 1.5794861226,
				"element": "C" 
			},
			{
				"x": -0.1549678028,
				"y": -2.2263645334,
				"z": 1.1055321967,
				"element": "Cl" 
			},
			{
				"x": 0.7587469038,
				"y": -0.9544938276,
				"z": -1.1488074678,
				"element": "H" 
			},
			{
				"x": 1.7623797353,
				"y": 3.5955527712,
				"z": 0.648165615,
				"element": "H" 
			},
			{
				"x": 2.1522977947,
				"y": 3.0680340135,
				"z": -1.7646687652,
				"element": "H" 
			}
		],
		 "valence_orbital": [ 
			{
				"type": "occ",
				"energy": -0.32714,
				"method": "rhf"
			},
			{
				"type": "occ",
				"energy": -0.32036,
				"method": "rhf"
			},
			{
				"type": "occ",
				"energy": -0.29599,
				"method": "rhf"
			},
			{
				"type": "occ",
				"energy": -0.28582,
				"method": "rhf"
			},
			{
				"type": "occ",
				"energy": -0.26024,
				"method": "rhf"
			},
			{
				"type": "unocc",
				"energy": -0.09606,
				"method": "rhf"
			},
			{
				"type": "unocc",
				"energy": -0.06052,
				"method": "rhf"
			},
			{
				"type": "unocc",
				"energy": -0.01702,
				"method": "rhf"
			},
			{
				"type": "unocc",
				"energy": 0.00526,
				"method": "rhf"
			},
			{
				"type": "unocc",
				"energy": 0.00859,
				"method": "rhf"
			}
		],
		"cosmo_sigma_profile": { 
			"-0.025": 0.0,
			"-0.024": 0.0,
			"-0.023": 0.0,
			"-0.022": 0.0,
			"-0.021": 0.0,
			"-0.02": 0.0,
			"-0.019": 0.0,
			"-0.018": 0.0,
			"-0.017": 0.0,
			"-0.016": 0.0,
			"-0.015": 0.0,
			"-0.014": 0.0,
			"-0.013": 0.0,
			"-0.012": 0.0,
			"-0.011": 0.0,
			"-0.01": 0.0,
			"-0.009": 1.33903538729,
			"-0.008": 4.81849412971,
			"-0.007": 6.27335506323,
			"-0.006": 6.6333080109,
			"-0.005": 8.5419363782,
			"-0.004": 13.0094068703,
			"-0.003": 16.9476511796,
			"-0.002": 20.0895514734,
			"-0.001": 24.4085134699,
			"0.0": 24.0392394691,
			"0.001": 18.7282463463,
			"0.002": 18.3959395954,
			"0.003": 23.8282021624,
			"0.004": 15.5257645325,
			"0.005": 5.26644981899,
			"0.006": 3.67336659286,
			"0.007": 2.47420855392,
			"0.008": 2.8061442458,
			"0.009": 1.85353442707,
			"0.01": 1.68643317641,
			"0.011": 1.82205302704,
			"0.012": 0.803637150193,
			"0.013": 0.0786541785458,
			"0.014": 0.0,
			"0.015": 0.0,
			"0.016": 0.0,
			"0.017": 0.0,
			"0.018": 0.0,
			"0.019": 0.0,
			"0.02": 0.0,
			"0.021": 0.0,
			"0.022": 0.0,
			"0.023": 0.0,
			"0.024": 0.0,
			"0.025": 0.0
		}
	}
}
