{
	 "smiles": "CCOC(=O)C1SCCCS1", 
	 "Tm": 293.15, 
	 "num_atms": 23, 
	 "gaussian": { 
		 "optdone": 1, 
		 "sigma_profile": "yes", 
		 "theory": "DFT", 
		 "functional": "B3LYP", 
		 "basiset": "6-31G**", 
		 "properties": { 
			 "R2extent": 3102.7624, 
			 "electric_dipole_moment_norm": 3.34439072777, 
			 "electric_quadrupole_moment_norm": 11.3121473443, 
			 "total_energy": -1220.80517896, 
			 "HOMO_LUMO_gap": 0.2075, 
			 "cosmo_polarized_energy": -9.56, 
			 "cosmo_cavitation_energy": 28.05, 
			 "cosmo_dispersion_energy": -20.98, 
			 "cosmo_repulsion_energy": 1.63, 
			 "cosmo_total_nonelectrostatic_energy": 8.71, 
			 "SMD_solvation_energy": 4.6 
		},
		"coords": [
			{
				"x": 1.9172999514,
				"y": -1.5182187186,
				"z": 2.4028948665,
				"element": "C" 
			},
			{
				"x": 2.2678514444,
				"y": -1.4809081722,
				"z": 0.9282056864,
				"element": "C" 
			},
			{
				"x": 1.5514840725,
				"y": -0.3690831497,
				"z": 0.3382523612,
				"element": "O" 
			},
			{
				"x": 1.7257559662,
				"y": -0.1985021572,
				"z": -0.9839919346,
				"element": "C" 
			},
			{
				"x": 2.4138975651,
				"y": -0.9131295752,
				"z": -1.6796699661,
				"element": "O" 
			},
			{
				"x": 0.981679775,
				"y": 1.0198278686,
				"z": -1.5277451431,
				"element": "C" 
			},
			{
				"x": 1.7236726808,
				"y": 2.5916385524,
				"z": -0.8954771239,
				"element": "S" 
			},
			{
				"x": 0.6674293815,
				"y": 2.8455316418,
				"z": 0.5853148905,
				"element": "C" 
			},
			{
				"x": -0.7673041308,
				"y": 3.2728733488,
				"z": 0.2262217809,
				"element": "C" 
			},
			{
				"x": -1.3014583909,
				"y": 2.6258851769,
				"z": -1.0615871986,
				"element": "C" 
			},
			{
				"x": -0.8456146444,
				"y": 0.855609261,
				"z": -1.2308372927,
				"element": "S" 
			},
			{
				"x": 2.2195700823,
				"y": -0.592731431,
				"z": 2.9015661297,
				"element": "H" 
			},
			{
				"x": 2.4360824434,
				"y": -2.3526918576,
				"z": 2.8848923771,
				"element": "H" 
			},
			{
				"x": 0.8413497619,
				"y": -1.6530275473,
				"z": 2.5451406997,
				"element": "H" 
			},
			{
				"x": 3.3396753432,
				"y": -1.3346629781,
				"z": 0.7613780869,
				"element": "H" 
			},
			{
				"x": 1.9745948495,
				"y": -2.3994168459,
				"z": 0.4110066806,
				"element": "H" 
			},
			{
				"x": 1.1743570538,
				"y": 1.0276427952,
				"z": -2.6014242793,
				"element": "H" 
			},
			{
				"x": 0.6792137141,
				"y": 1.9148614384,
				"z": 1.1549771346,
				"element": "H" 
			},
			{
				"x": 1.1721269245,
				"y": 3.6107988401,
				"z": 1.1805883422,
				"element": "H" 
			},
			{
				"x": -0.8121583253,
				"y": 4.3616101869,
				"z": 0.0999213181,
				"element": "H" 
			},
			{
				"x": -1.4206253694,
				"y": 3.015863281,
				"z": 1.0685697002,
				"element": "H" 
			},
			{
				"x": -0.9485823812,
				"y": 3.1591087468,
				"z": -1.9470075595,
				"element": "H" 
			},
			{
				"x": -2.3945977677,
				"y": 2.6374212949,
				"z": -1.0835895567,
				"element": "H" 
			}
		],
		 "valence_orbital": [ 
			{
				"type": "occ",
				"energy": -0.30444,
				"method": "rhf"
			},
			{
				"type": "occ",
				"energy": -0.29768,
				"method": "rhf"
			},
			{
				"type": "occ",
				"energy": -0.27913,
				"method": "rhf"
			},
			{
				"type": "occ",
				"energy": -0.24047,
				"method": "rhf"
			},
			{
				"type": "occ",
				"energy": -0.22395,
				"method": "rhf"
			},
			{
				"type": "unocc",
				"energy": -0.01645,
				"method": "rhf"
			},
			{
				"type": "unocc",
				"energy": 0.00209,
				"method": "rhf"
			},
			{
				"type": "unocc",
				"energy": 0.04873,
				"method": "rhf"
			},
			{
				"type": "unocc",
				"energy": 0.08199,
				"method": "rhf"
			},
			{
				"type": "unocc",
				"energy": 0.08629,
				"method": "rhf"
			}
		],
		"cosmo_sigma_profile": { 
			"-0.025": 0.0,
			"-0.024": 0.0,
			"-0.023": 0.0,
			"-0.022": 0.0,
			"-0.021": 0.0,
			"-0.02": 0.0,
			"-0.019": 0.0,
			"-0.018": 0.0,
			"-0.017": 0.0,
			"-0.016": 0.0,
			"-0.015": 0.0,
			"-0.014": 0.0,
			"-0.013": 0.0,
			"-0.012": 0.0,
			"-0.011": 0.0,
			"-0.01": 0.0,
			"-0.009": 0.0,
			"-0.008": 1.03395021032,
			"-0.007": 3.56387273515,
			"-0.006": 7.51816711635,
			"-0.005": 15.2907702649,
			"-0.004": 28.7306393802,
			"-0.003": 29.9347101631,
			"-0.002": 24.8657870663,
			"-0.001": 18.3684624227,
			"0.0": 14.7491117927,
			"0.001": 9.17646679733,
			"0.002": 9.16526690313,
			"0.003": 8.23114262328,
			"0.004": 10.8391786634,
			"0.005": 7.80483046863,
			"0.006": 6.04914372249,
			"0.007": 6.90147188856,
			"0.008": 5.65029738047,
			"0.009": 4.24624701028,
			"0.01": 3.74766765609,
			"0.011": 4.78394728239,
			"0.012": 2.80657979536,
			"0.013": 0.0812080188949,
			"0.014": 0.0,
			"0.015": 0.0,
			"0.016": 0.0,
			"0.017": 0.0,
			"0.018": 0.0,
			"0.019": 0.0,
			"0.02": 0.0,
			"0.021": 0.0,
			"0.022": 0.0,
			"0.023": 0.0,
			"0.024": 0.0,
			"0.025": 0.0
		}
	}
}
