{
	 "smiles": "O=S1(=O)CCN1CCC#N", 
	 "Tm": 326.15, 
	 "num_atms": 18, 
	 "gaussian": { 
		 "optdone": 1, 
		 "sigma_profile": "yes", 
		 "theory": "DFT", 
		 "functional": "B3LYP", 
		 "basiset": "6-31G**", 
		 "properties": { 
			 "R2extent": 2181.6973, 
			 "electric_dipole_moment_norm": 6.09596023773, 
			 "electric_quadrupole_moment_norm": 11.2518890165, 
			 "total_energy": -853.377265299, 
			 "HOMO_LUMO_gap": 0.28673, 
			 "cosmo_polarized_energy": -20.68, 
			 "cosmo_cavitation_energy": 23.57, 
			 "cosmo_dispersion_energy": -17.44, 
			 "cosmo_repulsion_energy": 1.38, 
			 "cosmo_total_nonelectrostatic_energy": 7.52, 
			 "SMD_solvation_energy": 3.12 
		},
		"coords": [
			{
				"x": -0.6994709575,
				"y": -2.4792914671,
				"z": -0.0232144657,
				"element": "O" 
			},
			{
				"x": 0.4074893613,
				"y": -1.9923741044,
				"z": 0.8143691188,
				"element": "S" 
			},
			{
				"x": 0.6935466172,
				"y": -2.6701135566,
				"z": 2.0753558264,
				"element": "O" 
			},
			{
				"x": 1.8583579304,
				"y": -1.5188594703,
				"z": -0.1988219467,
				"element": "C" 
			},
			{
				"x": 1.3418676262,
				"y": -0.0623815397,
				"z": -0.1479620027,
				"element": "C" 
			},
			{
				"x": 0.398713027,
				"y": -0.2830421564,
				"z": 0.9738130891,
				"element": "N" 
			},
			{
				"x": -0.7965476692,
				"y": 0.5084031864,
				"z": 1.2176278609,
				"element": "C" 
			},
			{
				"x": -1.8434433058,
				"y": 0.5038926252,
				"z": 0.069841609,
				"element": "C" 
			},
			{
				"x": -2.971857766,
				"y": 1.3792578993,
				"z": 0.3852852764,
				"element": "C" 
			},
			{
				"x": -3.8516827706,
				"y": 2.0843498508,
				"z": 0.6611866795,
				"element": "N" 
			},
			{
				"x": 2.7836100102,
				"y": -1.6945765735,
				"z": 0.3500921995,
				"element": "H" 
			},
			{
				"x": 1.8649082251,
				"y": -2.0063106898,
				"z": -1.1727921283,
				"element": "H" 
			},
			{
				"x": 0.8551624823,
				"y": 0.2246969191,
				"z": -1.0878264809,
				"element": "H" 
			},
			{
				"x": 2.1057180482,
				"y": 0.6767616021,
				"z": 0.1079651373,
				"element": "H" 
			},
			{
				"x": -0.4750437756,
				"y": 1.535003386,
				"z": 1.4224851278,
				"element": "H" 
			},
			{
				"x": -1.2577518357,
				"y": 0.1355078414,
				"z": 2.1368587417,
				"element": "H" 
			},
			{
				"x": -2.2017413968,
				"y": -0.5152366203,
				"z": -0.1033085608,
				"element": "H" 
			},
			{
				"x": -1.3907338508,
				"y": 0.8508128678,
				"z": -0.8660550812,
				"element": "H" 
			}
		],
		 "valence_orbital": [ 
			{
				"type": "occ",
				"energy": -0.33546,
				"method": "rhf"
			},
			{
				"type": "occ",
				"energy": -0.32815,
				"method": "rhf"
			},
			{
				"type": "occ",
				"energy": -0.32509,
				"method": "rhf"
			},
			{
				"type": "occ",
				"energy": -0.32021,
				"method": "rhf"
			},
			{
				"type": "occ",
				"energy": -0.26937,
				"method": "rhf"
			},
			{
				"type": "unocc",
				"energy": 0.01736,
				"method": "rhf"
			},
			{
				"type": "unocc",
				"energy": 0.02289,
				"method": "rhf"
			},
			{
				"type": "unocc",
				"energy": 0.02767,
				"method": "rhf"
			},
			{
				"type": "unocc",
				"energy": 0.03145,
				"method": "rhf"
			},
			{
				"type": "unocc",
				"energy": 0.05902,
				"method": "rhf"
			}
		],
		"cosmo_sigma_profile": { 
			"-0.025": 0.0,
			"-0.024": 0.0,
			"-0.023": 0.0,
			"-0.022": 0.0,
			"-0.021": 0.0,
			"-0.02": 0.0,
			"-0.019": 0.0,
			"-0.018": 0.0,
			"-0.017": 0.0,
			"-0.016": 0.0,
			"-0.015": 0.0,
			"-0.014": 0.0,
			"-0.013": 0.0,
			"-0.012": 0.0,
			"-0.011": 0.0,
			"-0.01": 0.380041156644,
			"-0.009": 8.47021704135,
			"-0.008": 14.2784935332,
			"-0.007": 21.4197711575,
			"-0.006": 17.9768258282,
			"-0.005": 15.2363522324,
			"-0.004": 13.4040103382,
			"-0.003": 5.51506176976,
			"-0.002": 4.35470677663,
			"-0.001": 4.64052352925,
			"0.0": 4.03446300377,
			"0.001": 3.12085572231,
			"0.002": 4.495831593,
			"0.003": 4.37579705758,
			"0.004": 3.73419348978,
			"0.005": 3.90111104162,
			"0.006": 6.15676814157,
			"0.007": 5.66926276683,
			"0.008": 6.92648123078,
			"0.009": 8.05914599276,
			"0.01": 12.9936665459,
			"0.011": 12.7110263017,
			"0.012": 3.89695105428,
			"0.013": 1.89627122548,
			"0.014": 0.274800368465,
			"0.015": 0.0,
			"0.016": 0.0,
			"0.017": 0.0,
			"0.018": 0.0,
			"0.019": 0.0,
			"0.02": 0.0,
			"0.021": 0.0,
			"0.022": 0.0,
			"0.023": 0.0,
			"0.024": 0.0,
			"0.025": 0.0
		}
	}
}
