{
	 "smiles": "COCC(N)=O", 
	 "Tm": 360.15, 
	 "num_atms": 13, 
	 "gaussian": { 
		 "optdone": 1, 
		 "sigma_profile": "yes", 
		 "theory": "DFT", 
		 "functional": "B3LYP", 
		 "basiset": "6-31G**", 
		 "properties": { 
			 "R2extent": 688.7305, 
			 "electric_dipole_moment_norm": 3.66427760275, 
			 "electric_quadrupole_moment_norm": 6.53141408196, 
			 "total_energy": -323.728178705, 
			 "HOMO_LUMO_gap": 0.2618, 
			 "cosmo_polarized_energy": -14.48, 
			 "cosmo_cavitation_energy": 16.58, 
			 "cosmo_dispersion_energy": -12.47, 
			 "cosmo_repulsion_energy": 1.11, 
			 "cosmo_total_nonelectrostatic_energy": 5.23, 
			 "SMD_solvation_energy": 4.56 
		},
		"coords": [
			{
				"x": -1.2882027958,
				"y": 1.7217758112,
				"z": -1.6027750898,
				"element": "C" 
			},
			{
				"x": -1.2920279615,
				"y": 1.6382196851,
				"z": -0.1836014726,
				"element": "O" 
			},
			{
				"x": -1.2345464174,
				"y": 0.3337238697,
				"z": 0.3127994652,
				"element": "C" 
			},
			{
				"x": 0.1574256615,
				"y": -0.3162884031,
				"z": 0.1966681428,
				"element": "C" 
			},
			{
				"x": 0.2521317493,
				"y": -1.5363361764,
				"z": 0.814090073,
				"element": "N" 
			},
			{
				"x": 1.0827507818,
				"y": 0.18361559,
				"z": -0.4208996898,
				"element": "O" 
			},
			{
				"x": -2.1317612847,
				"y": 1.1589696555,
				"z": -2.0341341289,
				"element": "H" 
			},
			{
				"x": -0.3489198403,
				"y": 1.3526288306,
				"z": -2.0249185218,
				"element": "H" 
			},
			{
				"x": -1.4086126239,
				"y": 2.7786475182,
				"z": -1.8514527787,
				"element": "H" 
			},
			{
				"x": -1.9658048817,
				"y": -0.3293083139,
				"z": -0.1846317272,
				"element": "H" 
			},
			{
				"x": -1.5138249712,
				"y": 0.3845885242,
				"z": 1.3730514501,
				"element": "H" 
			},
			{
				"x": -0.4484099585,
				"y": -1.8636644021,
				"z": 1.4607769033,
				"element": "H" 
			},
			{
				"x": 1.1612025424,
				"y": -1.9740721892,
				"z": 0.8386273744,
				"element": "H" 
			}
		],
		 "valence_orbital": [ 
			{
				"type": "occ",
				"energy": -0.36759,
				"method": "rhf"
			},
			{
				"type": "occ",
				"energy": -0.3152,
				"method": "rhf"
			},
			{
				"type": "occ",
				"energy": -0.27682,
				"method": "rhf"
			},
			{
				"type": "occ",
				"energy": -0.27143,
				"method": "rhf"
			},
			{
				"type": "occ",
				"energy": -0.23722,
				"method": "rhf"
			},
			{
				"type": "unocc",
				"energy": 0.02458,
				"method": "rhf"
			},
			{
				"type": "unocc",
				"energy": 0.06855,
				"method": "rhf"
			},
			{
				"type": "unocc",
				"energy": 0.0963,
				"method": "rhf"
			},
			{
				"type": "unocc",
				"energy": 0.12769,
				"method": "rhf"
			},
			{
				"type": "unocc",
				"energy": 0.14856,
				"method": "rhf"
			}
		],
		"cosmo_sigma_profile": { 
			"-0.025": 0.0,
			"-0.024": 0.0,
			"-0.023": 0.0,
			"-0.022": 0.0,
			"-0.021": 0.0,
			"-0.02": 0.0,
			"-0.019": 0.0,
			"-0.018": 0.0,
			"-0.017": 0.0,
			"-0.016": 0.0,
			"-0.015": 0.3558400986,
			"-0.014": 1.89634681316,
			"-0.013": 2.7258032614,
			"-0.012": 2.5696309702,
			"-0.011": 2.45271198891,
			"-0.01": 2.42692483728,
			"-0.009": 2.82028432285,
			"-0.008": 3.13505624556,
			"-0.007": 2.92788379698,
			"-0.006": 5.25239344309,
			"-0.005": 8.53177497405,
			"-0.004": 9.1811611994,
			"-0.003": 10.5393535015,
			"-0.002": 11.3686966563,
			"-0.001": 7.91838532324,
			"0.0": 5.17225514497,
			"0.001": 4.60249345836,
			"0.002": 3.60361658467,
			"0.003": 3.43535188514,
			"0.004": 3.9830753614,
			"0.005": 2.93737283232,
			"0.006": 2.71254377736,
			"0.007": 3.44578912157,
			"0.008": 3.03878065863,
			"0.009": 1.91870872989,
			"0.01": 1.94256595945,
			"0.011": 3.85033705314,
			"0.012": 3.4226279261,
			"0.013": 6.60632930056,
			"0.014": 4.47263675583,
			"0.015": 0.366222766084,
			"0.016": 0.0,
			"0.017": 0.0,
			"0.018": 0.0,
			"0.019": 0.0,
			"0.02": 0.0,
			"0.021": 0.0,
			"0.022": 0.0,
			"0.023": 0.0,
			"0.024": 0.0,
			"0.025": 0.0
		}
	}
}
