{
	 "smiles": "CN(C)S(=O)(=O)C1=CC2=C(CCCN2)C=C1", 
	 "Tm": 404.15, 
	 "num_atms": 32, 
	 "gaussian": { 
		 "optdone": 1, 
		 "sigma_profile": "yes", 
		 "theory": "DFT", 
		 "functional": "B3LYP", 
		 "basiset": "6-31G**", 
		 "properties": { 
			 "R2extent": 5979.0093, 
			 "electric_dipole_moment_norm": 7.24874332626, 
			 "electric_quadrupole_moment_norm": 31.6296275448, 
			 "total_energy": -1086.89045728, 
			 "HOMO_LUMO_gap": 0.17809, 
			 "cosmo_polarized_energy": -16.77, 
			 "cosmo_cavitation_energy": 34.43, 
			 "cosmo_dispersion_energy": -25.38, 
			 "cosmo_repulsion_energy": 1.93, 
			 "cosmo_total_nonelectrostatic_energy": 10.98, 
			 "SMD_solvation_energy": 2.77 
		},
		"coords": [
			{
				"x": -2.6571864716,
				"y": -2.4891282493,
				"z": 1.3858871278,
				"element": "C" 
			},
			{
				"x": -2.6529793872,
				"y": -1.861587011,
				"z": 2.7079333844,
				"element": "N" 
			},
			{
				"x": -3.6107808126,
				"y": -0.7667753874,
				"z": 2.8730137754,
				"element": "C" 
			},
			{
				"x": -1.1298179176,
				"y": -1.6322912991,
				"z": 3.4161979406,
				"element": "S" 
			},
			{
				"x": -0.3991528998,
				"y": -2.8862418404,
				"z": 3.2128507736,
				"element": "O" 
			},
			{
				"x": -1.383836276,
				"y": -1.0897469923,
				"z": 4.7525312336,
				"element": "O" 
			},
			{
				"x": -0.3038281601,
				"y": -0.3569787085,
				"z": 2.4566501859,
				"element": "C" 
			},
			{
				"x": 0.5016234901,
				"y": -0.7383921959,
				"z": 1.3871208983,
				"element": "C" 
			},
			{
				"x": 1.1214709613,
				"y": 0.2408216139,
				"z": 0.5901146983,
				"element": "C" 
			},
			{
				"x": 0.9053804239,
				"y": 1.6098893655,
				"z": 0.8824362286,
				"element": "C" 
			},
			{
				"x": 1.5451274974,
				"y": 2.6776063328,
				"z": 0.0152606837,
				"element": "C" 
			},
			{
				"x": 2.7628849487,
				"y": 2.1425366747,
				"z": -0.7513733929,
				"element": "C" 
			},
			{
				"x": 2.4123187195,
				"y": 0.8206979704,
				"z": -1.4378567968,
				"element": "C" 
			},
			{
				"x": 1.9741862217,
				"y": -0.1393968895,
				"z": -0.4356600712,
				"element": "N" 
			},
			{
				"x": 0.102667752,
				"y": 1.949847577,
				"z": 1.9733848097,
				"element": "C" 
			},
			{
				"x": -0.5152008877,
				"y": 0.9879816442,
				"z": 2.7718459173,
				"element": "C" 
			},
			{
				"x": -1.9711001167,
				"y": -3.3357336628,
				"z": 1.3868331795,
				"element": "H" 
			},
			{
				"x": -2.3803110971,
				"y": -1.7908036956,
				"z": 0.5803762872,
				"element": "H" 
			},
			{
				"x": -3.6675899062,
				"y": -2.8606490476,
				"z": 1.1904862539,
				"element": "H" 
			},
			{
				"x": -3.4191574425,
				"y": 0.0751391582,
				"z": 2.1896486349,
				"element": "H" 
			},
			{
				"x": -4.6116059155,
				"y": -1.1592163955,
				"z": 2.6692452601,
				"element": "H" 
			},
			{
				"x": -3.5802356857,
				"y": -0.4140265873,
				"z": 3.9035440731,
				"element": "H" 
			},
			{
				"x": 0.680127663,
				"y": -1.7925617207,
				"z": 1.1993434782,
				"element": "H" 
			},
			{
				"x": 0.8038514508,
				"y": 3.054442101,
				"z": -0.7043281305,
				"element": "H" 
			},
			{
				"x": 1.8303761826,
				"y": 3.5364904148,
				"z": 0.6332126732,
				"element": "H" 
			},
			{
				"x": 3.5955437999,
				"y": 1.9709370933,
				"z": -0.0598446599,
				"element": "H" 
			},
			{
				"x": 3.0971504994,
				"y": 2.8709252625,
				"z": -1.4971273123,
				"element": "H" 
			},
			{
				"x": 1.6387623419,
				"y": 0.9994303934,
				"z": -2.2049233149,
				"element": "H" 
			},
			{
				"x": 3.2878500674,
				"y": 0.4077909728,
				"z": -1.9495588527,
				"element": "H" 
			},
			{
				"x": 1.89736431,
				"y": -1.1000724878,
				"z": -0.735514276,
				"element": "H" 
			},
			{
				"x": -0.0380647281,
				"y": 3.0030243804,
				"z": 2.2058204486,
				"element": "H" 
			},
			{
				"x": -1.1107386253,
				"y": 1.2642412156,
				"z": 3.6334488613,
				"element": "H" 
			}
		],
		 "valence_orbital": [ 
			{
				"type": "occ",
				"energy": -0.29066,
				"method": "rhf"
			},
			{
				"type": "occ",
				"energy": -0.28969,
				"method": "rhf"
			},
			{
				"type": "occ",
				"energy": -0.2623,
				"method": "rhf"
			},
			{
				"type": "occ",
				"energy": -0.24397,
				"method": "rhf"
			},
			{
				"type": "occ",
				"energy": -0.20404,
				"method": "rhf"
			},
			{
				"type": "unocc",
				"energy": -0.02595,
				"method": "rhf"
			},
			{
				"type": "unocc",
				"energy": 0.00028,
				"method": "rhf"
			},
			{
				"type": "unocc",
				"energy": 0.06755,
				"method": "rhf"
			},
			{
				"type": "unocc",
				"energy": 0.07831,
				"method": "rhf"
			},
			{
				"type": "unocc",
				"energy": 0.0852,
				"method": "rhf"
			}
		],
		"cosmo_sigma_profile": { 
			"-0.025": 0.0,
			"-0.024": 0.0,
			"-0.023": 0.0,
			"-0.022": 0.0,
			"-0.021": 0.0,
			"-0.02": 0.0,
			"-0.019": 0.0,
			"-0.018": 0.0,
			"-0.017": 0.0,
			"-0.016": 0.0,
			"-0.015": 0.0,
			"-0.014": 0.00865706895228,
			"-0.013": 1.02599395297,
			"-0.012": 1.33604999608,
			"-0.011": 1.94246515438,
			"-0.01": 1.08523926579,
			"-0.009": 1.46963592364,
			"-0.008": 1.51320679879,
			"-0.007": 1.72410474631,
			"-0.006": 8.58667563706,
			"-0.005": 12.8847610353,
			"-0.004": 26.8713087807,
			"-0.003": 37.0429591152,
			"-0.002": 41.5105480784,
			"-0.001": 25.3141392123,
			"0.0": 14.7372198629,
			"0.001": 9.03700952236,
			"0.002": 9.83342360886,
			"0.003": 11.033767846,
			"0.004": 12.7428099449,
			"0.005": 9.4070596411,
			"0.006": 5.72031706764,
			"0.007": 4.71109610292,
			"0.008": 5.78957214885,
			"0.009": 4.82241702806,
			"0.01": 6.05560099163,
			"0.011": 7.8519244254,
			"0.012": 6.31127239407,
			"0.013": 0.160202668338,
			"0.014": 0.0,
			"0.015": 0.0,
			"0.016": 0.0,
			"0.017": 0.0,
			"0.018": 0.0,
			"0.019": 0.0,
			"0.02": 0.0,
			"0.021": 0.0,
			"0.022": 0.0,
			"0.023": 0.0,
			"0.024": 0.0,
			"0.025": 0.0
		}
	}
}
