{
	 "smiles": "NC(=O)OC(C#C)C1=CC=CC=C1", 
	 "Tm": 359.65, 
	 "num_atms": 22, 
	 "gaussian": { 
		 "optdone": 1, 
		 "sigma_profile": "yes", 
		 "theory": "DFT", 
		 "functional": "B3LYP", 
		 "basiset": "6-31G**", 
		 "properties": { 
			 "R2extent": 3047.8134, 
			 "electric_dipole_moment_norm": 2.37550287097, 
			 "electric_quadrupole_moment_norm": 6.96107194188, 
			 "total_energy": -591.630283927, 
			 "HOMO_LUMO_gap": 0.23189, 
			 "cosmo_polarized_energy": -12.79, 
			 "cosmo_cavitation_energy": 27.72, 
			 "cosmo_dispersion_energy": -19.3, 
			 "cosmo_repulsion_energy": 1.56, 
			 "cosmo_total_nonelectrostatic_energy": 9.98, 
			 "SMD_solvation_energy": 7.3 
		},
		"coords": [
			{
				"x": 3.4975633396,
				"y": -1.7595130046,
				"z": 0.2719298966,
				"element": "N" 
			},
			{
				"x": 2.4170926926,
				"y": -0.9342424946,
				"z": 0.1792831315,
				"element": "C" 
			},
			{
				"x": 2.3170915269,
				"y": 0.1508436584,
				"z": 0.7240011792,
				"element": "O" 
			},
			{
				"x": 1.4790652634,
				"y": -1.4959731495,
				"z": -0.6340524575,
				"element": "O" 
			},
			{
				"x": 0.2736422402,
				"y": -0.698673285,
				"z": -0.849588604,
				"element": "C" 
			},
			{
				"x": -0.0428322732,
				"y": -0.7706443169,
				"z": -2.2759153025,
				"element": "C" 
			},
			{
				"x": -0.3128428353,
				"y": -0.8035062231,
				"z": -3.4517809377,
				"element": "C" 
			},
			{
				"x": -0.8343196858,
				"y": -1.1913770588,
				"z": 0.0695873635,
				"element": "C" 
			},
			{
				"x": -0.909120825,
				"y": -0.6759210012,
				"z": 1.3705234731,
				"element": "C" 
			},
			{
				"x": -1.8874749092,
				"y": -1.1347151956,
				"z": 2.2525895628,
				"element": "C" 
			},
			{
				"x": -2.7983603548,
				"y": -2.110891905,
				"z": 1.8429024939,
				"element": "C" 
			},
			{
				"x": -2.7263134565,
				"y": -2.6272516372,
				"z": 0.5476355667,
				"element": "C" 
			},
			{
				"x": -1.7484420142,
				"y": -2.1693453556,
				"z": -0.3360388813,
				"element": "C" 
			},
			{
				"x": 4.1869175852,
				"y": -1.5347638357,
				"z": 0.9697825555,
				"element": "H" 
			},
			{
				"x": 3.4358289369,
				"y": -2.7025490457,
				"z": -0.0761249323,
				"element": "H" 
			},
			{
				"x": 0.5271021566,
				"y": 0.3316700971,
				"z": -0.5814759527,
				"element": "H" 
			},
			{
				"x": -0.5444990254,
				"y": -0.8268653451,
				"z": -4.4915615734,
				"element": "H" 
			},
			{
				"x": -0.1899482674,
				"y": 0.074034526,
				"z": 1.6865505844,
				"element": "H" 
			},
			{
				"x": -1.940836825,
				"y": -0.7269147616,
				"z": 3.2580288377,
				"element": "H" 
			},
			{
				"x": -3.5628729978,
				"y": -2.4649906059,
				"z": 2.5287249289,
				"element": "H" 
			},
			{
				"x": -3.4342704196,
				"y": -3.3846409262,
				"z": 0.2230943429,
				"element": "H" 
			},
			{
				"x": -1.6985698522,
				"y": -2.5599691341,
				"z": -1.3477952752,
				"element": "H" 
			}
		],
		 "valence_orbital": [ 
			{
				"type": "occ",
				"energy": -0.27913,
				"method": "rhf"
			},
			{
				"type": "occ",
				"energy": -0.27761,
				"method": "rhf"
			},
			{
				"type": "occ",
				"energy": -0.26584,
				"method": "rhf"
			},
			{
				"type": "occ",
				"energy": -0.25001,
				"method": "rhf"
			},
			{
				"type": "occ",
				"energy": -0.24665,
				"method": "rhf"
			},
			{
				"type": "unocc",
				"energy": -0.01476,
				"method": "rhf"
			},
			{
				"type": "unocc",
				"energy": -0.00164,
				"method": "rhf"
			},
			{
				"type": "unocc",
				"energy": 0.0375,
				"method": "rhf"
			},
			{
				"type": "unocc",
				"energy": 0.04591,
				"method": "rhf"
			},
			{
				"type": "unocc",
				"energy": 0.05755,
				"method": "rhf"
			}
		],
		"cosmo_sigma_profile": { 
			"-0.025": 0.0,
			"-0.024": 0.0,
			"-0.023": 0.0,
			"-0.022": 0.0,
			"-0.021": 0.0,
			"-0.02": 0.0,
			"-0.019": 0.0,
			"-0.018": 0.0,
			"-0.017": 0.0,
			"-0.016": 0.0,
			"-0.015": 1.11214493456,
			"-0.014": 2.10343976682,
			"-0.013": 2.57539510588,
			"-0.012": 3.01072860429,
			"-0.011": 2.98285451096,
			"-0.01": 3.18241288733,
			"-0.009": 2.68180705431,
			"-0.008": 3.13407514448,
			"-0.007": 2.74808001868,
			"-0.006": 8.46981330781,
			"-0.005": 13.6235266619,
			"-0.004": 14.9483153925,
			"-0.003": 13.2534280912,
			"-0.002": 11.0833524913,
			"-0.001": 12.5980076564,
			"0.0": 13.7775709062,
			"0.001": 14.7766624023,
			"0.002": 15.3700028486,
			"0.003": 16.5883249746,
			"0.004": 17.4541140667,
			"0.005": 19.3493303167,
			"0.006": 9.21802078056,
			"0.007": 5.07151314722,
			"0.008": 2.47486808044,
			"0.009": 1.10039183929,
			"0.01": 1.84068778152,
			"0.011": 1.5063774368,
			"0.012": 2.80860421561,
			"0.013": 3.39604576825,
			"0.014": 0.350531234681,
			"0.015": 0.0,
			"0.016": 0.0,
			"0.017": 0.0,
			"0.018": 0.0,
			"0.019": 0.0,
			"0.02": 0.0,
			"0.021": 0.0,
			"0.022": 0.0,
			"0.023": 0.0,
			"0.024": 0.0,
			"0.025": 0.0
		}
	}
}
