{
	 "smiles": "FN(S(=O)(=O)C1=CC=CC=C1)S(=O)(=O)C1=CC=CC=C1", 
	 "Tm": 385.15, 
	 "num_atms": 30, 
	 "gaussian": { 
		 "optdone": 1, 
		 "sigma_profile": "yes", 
		 "theory": "DFT", 
		 "functional": "B3LYP", 
		 "basiset": "6-31G**", 
		 "properties": { 
			 "R2extent": 6497.4557, 
			 "electric_dipole_moment_norm": 7.17121732274, 
			 "electric_quadrupole_moment_norm": 22.9416062219, 
			 "total_energy": -1714.92355947, 
			 "HOMO_LUMO_gap": 0.21177, 
			 "cosmo_polarized_energy": -17.14, 
			 "cosmo_cavitation_energy": 38.15, 
			 "cosmo_dispersion_energy": -27.06, 
			 "cosmo_repulsion_energy": 1.97, 
			 "cosmo_total_nonelectrostatic_energy": 13.07, 
			 "SMD_solvation_energy": 5.18 
		},
		"coords": [
			{
				"x": 1.9514645067,
				"y": 0.7513398086,
				"z": -0.2630366428,
				"element": "F" 
			},
			{
				"x": 0.7070004448,
				"y": 0.2162975619,
				"z": -0.6667823578,
				"element": "N" 
			},
			{
				"x": 0.2258886719,
				"y": -0.8529735924,
				"z": 0.6884063219,
				"element": "S" 
			},
			{
				"x": -0.9722256556,
				"y": -1.5052608452,
				"z": 0.158827296,
				"element": "O" 
			},
			{
				"x": 1.3683339691,
				"y": -1.5937570861,
				"z": 1.2083514645,
				"element": "O" 
			},
			{
				"x": -0.2346946845,
				"y": 0.4027320987,
				"z": 1.8706490993,
				"element": "C" 
			},
			{
				"x": 0.699598786,
				"y": 0.801779513,
				"z": 2.8282149455,
				"element": "C" 
			},
			{
				"x": 0.3283339276,
				"y": 1.7762029558,
				"z": 3.7543703716,
				"element": "C" 
			},
			{
				"x": -0.9533363685,
				"y": 2.3303570222,
				"z": 3.7132968664,
				"element": "C" 
			},
			{
				"x": -1.8763077628,
				"y": 1.9147935895,
				"z": 2.7493118483,
				"element": "C" 
			},
			{
				"x": -1.5211691619,
				"y": 0.9436599342,
				"z": 1.8147536578,
				"element": "C" 
			},
			{
				"x": 1.057704453,
				"y": -0.6200302489,
				"z": -2.2651809618,
				"element": "S" 
			},
			{
				"x": 1.3628013352,
				"y": -2.0325253354,
				"z": -2.0602330599,
				"element": "O" 
			},
			{
				"x": 1.9958226081,
				"y": 0.2957749797,
				"z": -2.9020950334,
				"element": "O" 
			},
			{
				"x": -0.5524434722,
				"y": -0.4542753695,
				"z": -3.0173284094,
				"element": "C" 
			},
			{
				"x": -1.4340214055,
				"y": -1.5357877943,
				"z": -2.9776487896,
				"element": "C" 
			},
			{
				"x": -2.6703573283,
				"y": -1.4062824518,
				"z": -3.6099114612,
				"element": "C" 
			},
			{
				"x": -3.0040200712,
				"y": -0.217825013,
				"z": -4.2637889539,
				"element": "C" 
			},
			{
				"x": -2.1055354892,
				"y": 0.8525958464,
				"z": -4.2948483937,
				"element": "C" 
			},
			{
				"x": -0.8648607634,
				"y": 0.7409925365,
				"z": -3.6698768091,
				"element": "C" 
			},
			{
				"x": 1.6840054807,
				"y": 0.3483290357,
				"z": 2.8467383462,
				"element": "H" 
			},
			{
				"x": 1.0388840768,
				"y": 2.0993955116,
				"z": 4.5085930916,
				"element": "H" 
			},
			{
				"x": -1.2362553811,
				"y": 3.0877007861,
				"z": 4.4383719567,
				"element": "H" 
			},
			{
				"x": -2.8728616196,
				"y": 2.3445927041,
				"z": 2.7270457852,
				"element": "H" 
			},
			{
				"x": -2.2228681146,
				"y": 0.5990820757,
				"z": 1.0633787665,
				"element": "H" 
			},
			{
				"x": -1.155144603,
				"y": -2.4443011772,
				"z": -2.4578635754,
				"element": "H" 
			},
			{
				"x": -3.371021924,
				"y": -2.235038443,
				"z": -3.5919613827,
				"element": "H" 
			},
			{
				"x": -3.9682249173,
				"y": -0.1256326457,
				"z": -4.7550656811,
				"element": "H" 
			},
			{
				"x": -2.3677860702,
				"y": 1.7713006671,
				"z": -4.8101460652,
				"element": "H" 
			},
			{
				"x": -0.145503467,
				"y": 1.5518633755,
				"z": -3.6935422403,
				"element": "H" 
			}
		],
		 "valence_orbital": [ 
			{
				"type": "occ",
				"energy": -0.29828,
				"method": "rhf"
			},
			{
				"type": "occ",
				"energy": -0.28617,
				"method": "rhf"
			},
			{
				"type": "occ",
				"energy": -0.28143,
				"method": "rhf"
			},
			{
				"type": "occ",
				"energy": -0.27781,
				"method": "rhf"
			},
			{
				"type": "occ",
				"energy": -0.27667,
				"method": "rhf"
			},
			{
				"type": "unocc",
				"energy": -0.0649,
				"method": "rhf"
			},
			{
				"type": "unocc",
				"energy": -0.056,
				"method": "rhf"
			},
			{
				"type": "unocc",
				"energy": -0.03102,
				"method": "rhf"
			},
			{
				"type": "unocc",
				"energy": -0.0276,
				"method": "rhf"
			},
			{
				"type": "unocc",
				"energy": -0.00033,
				"method": "rhf"
			}
		],
		"cosmo_sigma_profile": { 
			"-0.025": 0.0,
			"-0.024": 0.0,
			"-0.023": 0.0,
			"-0.022": 0.0,
			"-0.021": 0.0,
			"-0.02": 0.0,
			"-0.019": 0.0,
			"-0.018": 0.0,
			"-0.017": 0.0,
			"-0.016": 0.0,
			"-0.015": 0.0,
			"-0.014": 0.0,
			"-0.013": 0.0,
			"-0.012": 0.0,
			"-0.011": 0.0,
			"-0.01": 0.0,
			"-0.009": 0.208273641368,
			"-0.008": 6.89107719462,
			"-0.007": 22.2022238515,
			"-0.006": 23.6238604817,
			"-0.005": 18.4651231604,
			"-0.004": 15.147922361,
			"-0.003": 14.855508453,
			"-0.002": 14.91922227,
			"-0.001": 19.4130385795,
			"0.0": 22.0836462022,
			"0.001": 33.9008806247,
			"0.002": 35.6409166817,
			"0.003": 13.5732988795,
			"0.004": 9.88131681342,
			"0.005": 8.53131327184,
			"0.006": 7.42617025025,
			"0.007": 9.2658640016,
			"0.008": 15.667023787,
			"0.009": 14.3861769889,
			"0.01": 1.45956853787,
			"0.011": 0.0,
			"0.012": 0.0,
			"0.013": 0.0,
			"0.014": 0.0,
			"0.015": 0.0,
			"0.016": 0.0,
			"0.017": 0.0,
			"0.018": 0.0,
			"0.019": 0.0,
			"0.02": 0.0,
			"0.021": 0.0,
			"0.022": 0.0,
			"0.023": 0.0,
			"0.024": 0.0,
			"0.025": 0.0
		}
	}
}
