{
	 "smiles": "OC(=O)C(=CC1=CC=CC2=CC=CC=C12)C1=CC=CC=C1", 
	 "Tm": 433.15, 
	 "num_atms": 35, 
	 "gaussian": { 
		 "optdone": 1, 
		 "sigma_profile": "yes", 
		 "theory": "DFT", 
		 "functional": "B3LYP", 
		 "basiset": "6-31G**", 
		 "properties": { 
			 "R2extent": 6568.6036, 
			 "electric_dipole_moment_norm": 5.43164204546, 
			 "electric_quadrupole_moment_norm": 25.5597974262, 
			 "total_energy": -882.916551525, 
			 "HOMO_LUMO_gap": 0.14498, 
			 "cosmo_polarized_energy": -14.29, 
			 "cosmo_cavitation_energy": 39.06, 
			 "cosmo_dispersion_energy": -27.1, 
			 "cosmo_repulsion_energy": 2.06, 
			 "cosmo_total_nonelectrostatic_energy": 14.02, 
			 "SMD_solvation_energy": 7.31 
		},
		"coords": [
			{
				"x": 3.8008219523,
				"y": -1.7337957516,
				"z": 0.1482494942,
				"element": "O" 
			},
			{
				"x": 3.114194674,
				"y": -0.67680574,
				"z": -0.3503749775,
				"element": "C" 
			},
			{
				"x": 3.7149491866,
				"y": 0.2878547749,
				"z": -0.7694297593,
				"element": "O" 
			},
			{
				"x": 1.6063345727,
				"y": -0.7814506908,
				"z": -0.3244984031,
				"element": "C" 
			},
			{
				"x": 0.9413493452,
				"y": 0.3405372317,
				"z": -0.6838700951,
				"element": "C" 
			},
			{
				"x": -0.5032287538,
				"y": 0.5628653858,
				"z": -0.8264456899,
				"element": "C" 
			},
			{
				"x": -1.3325243818,
				"y": -0.4160880808,
				"z": -1.3582938813,
				"element": "C" 
			},
			{
				"x": -2.7054554935,
				"y": -0.1812225264,
				"z": -1.579533333,
				"element": "C" 
			},
			{
				"x": -3.2597986516,
				"y": 1.0391014903,
				"z": -1.2674450282,
				"element": "C" 
			},
			{
				"x": -2.4617919948,
				"y": 2.0770171649,
				"z": -0.7180688318,
				"element": "C" 
			},
			{
				"x": -3.0223974392,
				"y": 3.3400847941,
				"z": -0.3863080157,
				"element": "C" 
			},
			{
				"x": -2.2470723291,
				"y": 4.3396392402,
				"z": 0.1545498327,
				"element": "C" 
			},
			{
				"x": -0.8717089082,
				"y": 4.111994466,
				"z": 0.3937155078,
				"element": "C" 
			},
			{
				"x": -0.2978389601,
				"y": 2.8975378286,
				"z": 0.0854779653,
				"element": "C" 
			},
			{
				"x": -1.0640707054,
				"y": 1.8466620336,
				"z": -0.4894050883,
				"element": "C" 
			},
			{
				"x": 0.9758803227,
				"y": -2.0485361451,
				"z": 0.1474885285,
				"element": "C" 
			},
			{
				"x": 1.2156179694,
				"y": -3.2667387815,
				"z": -0.5167041957,
				"element": "C" 
			},
			{
				"x": 0.6405372917,
				"y": -4.4547627145,
				"z": -0.0591413444,
				"element": "C" 
			},
			{
				"x": -0.1779935793,
				"y": -4.4471522601,
				"z": 1.0705570588,
				"element": "C" 
			},
			{
				"x": -0.4189694167,
				"y": -3.2454089202,
				"z": 1.7421022543,
				"element": "C" 
			},
			{
				"x": 0.1534787341,
				"y": -2.0589406253,
				"z": 1.2880623261,
				"element": "C" 
			},
			{
				"x": 3.1804350282,
				"y": -2.4089421499,
				"z": 0.4665489283,
				"element": "H" 
			},
			{
				"x": 1.5879143372,
				"y": 1.1824140984,
				"z": -0.9223088299,
				"element": "H" 
			},
			{
				"x": -0.9093597785,
				"y": -1.3744021182,
				"z": -1.6374949965,
				"element": "H" 
			},
			{
				"x": -3.3182973216,
				"y": -0.9687060578,
				"z": -2.0079461535,
				"element": "H" 
			},
			{
				"x": -4.3163492484,
				"y": 1.2271840779,
				"z": -1.439934154,
				"element": "H" 
			},
			{
				"x": -4.0821741779,
				"y": 3.5006592412,
				"z": -0.567168421,
				"element": "H" 
			},
			{
				"x": -2.6872740344,
				"y": 5.3008073935,
				"z": 0.4031606808,
				"element": "H" 
			},
			{
				"x": -0.2638306154,
				"y": 4.8998128774,
				"z": 0.8289535729,
				"element": "H" 
			},
			{
				"x": 0.7539681945,
				"y": 2.7393248372,
				"z": 0.2975950287,
				"element": "H" 
			},
			{
				"x": 1.8407980197,
				"y": -3.2773686724,
				"z": -1.4058246392,
				"element": "H" 
			},
			{
				"x": 0.8314066789,
				"y": -5.383173674,
				"z": -0.5894946718,
				"element": "H" 
			},
			{
				"x": -0.6233949259,
				"y": -5.3708360613,
				"z": 1.4279651203,
				"element": "H" 
			},
			{
				"x": -1.0506433314,
				"y": -3.2334741009,
				"z": 2.6256246914,
				"element": "H" 
			},
			{
				"x": -0.0320122599,
				"y": -1.1273918653,
				"z": 1.8134395193,
				"element": "H" 
			}
		],
		 "valence_orbital": [ 
			{
				"type": "occ",
				"energy": -0.26915,
				"method": "rhf"
			},
			{
				"type": "occ",
				"energy": -0.26329,
				"method": "rhf"
			},
			{
				"type": "occ",
				"energy": -0.25257,
				"method": "rhf"
			},
			{
				"type": "occ",
				"energy": -0.24828,
				"method": "rhf"
			},
			{
				"type": "occ",
				"energy": -0.2149,
				"method": "rhf"
			},
			{
				"type": "unocc",
				"energy": -0.06992,
				"method": "rhf"
			},
			{
				"type": "unocc",
				"energy": -0.03074,
				"method": "rhf"
			},
			{
				"type": "unocc",
				"energy": -0.0227,
				"method": "rhf"
			},
			{
				"type": "unocc",
				"energy": -0.01752,
				"method": "rhf"
			},
			{
				"type": "unocc",
				"energy": -0.01199,
				"method": "rhf"
			}
		],
		"cosmo_sigma_profile": { 
			"-0.025": 0.0,
			"-0.024": 0.0,
			"-0.023": 0.0,
			"-0.022": 0.0,
			"-0.021": 0.0,
			"-0.02": 0.0,
			"-0.019": 0.0,
			"-0.018": 0.0,
			"-0.017": 0.0,
			"-0.016": 0.0,
			"-0.015": 0.0,
			"-0.014": 0.285839181589,
			"-0.013": 0.66711219924,
			"-0.012": 0.70546969278,
			"-0.011": 0.343438388599,
			"-0.01": 1.35095944782,
			"-0.009": 0.728388440188,
			"-0.008": 0.837261686047,
			"-0.007": 5.1523124094,
			"-0.006": 23.4994737952,
			"-0.005": 26.7945403204,
			"-0.004": 29.1400170232,
			"-0.003": 22.7956857814,
			"-0.002": 21.727978239,
			"-0.001": 20.2684982861,
			"0.0": 19.532566248,
			"0.001": 20.313286148,
			"0.002": 20.903240205,
			"0.003": 28.8695480714,
			"0.004": 29.9998957478,
			"0.005": 12.3822131049,
			"0.006": 2.02303624507,
			"0.007": 2.05311992708,
			"0.008": 3.03388941418,
			"0.009": 3.31130820746,
			"0.01": 3.79857770595,
			"0.011": 5.23125460053,
			"0.012": 5.31977929358,
			"0.013": 2.47811888765,
			"0.014": 0.344188623421,
			"0.015": 0.0,
			"0.016": 0.0,
			"0.017": 0.0,
			"0.018": 0.0,
			"0.019": 0.0,
			"0.02": 0.0,
			"0.021": 0.0,
			"0.022": 0.0,
			"0.023": 0.0,
			"0.024": 0.0,
			"0.025": 0.0
		}
	}
}
