{
	 "smiles": "CC1=NC(I)=C(O)C=C1", 
	 "Tm": 471.15, 
	 "num_atms": 15, 
	 "gaussian": { 
		 "optdone": 1, 
		 "sigma_profile": "no", 
		 "theory": "DFT", 
		 "functional": "B3LYP", 
		 "basiset": "6-31G**", 
		 "properties": { 
			 "R2extent": 1786.101, 
			 "electric_dipole_moment_norm": 1.99678459529, 
			 "electric_quadrupole_moment_norm": 5.76918505943, 
			 "total_energy": -373.61611947, 
			 "HOMO_LUMO_gap": 0.18871, 
			 "cosmo_polarized_energy": -94615.16, 
			 "cosmo_cavitation_energy": 22.08, 
			 "cosmo_dispersion_energy": -18.09, 
			 "cosmo_repulsion_energy": 1.46, 
			 "cosmo_total_nonelectrostatic_energy": 5.44, 
			 "SMD_solvation_energy": 2.08 
		},
		"coords": [
			{
				"x": -1.0471758091,
				"y": -0.4757971272,
				"z": -1.7747848841,
				"element": "C" 
			},
			{
				"x": 0.1067752199,
				"y": -0.1840339326,
				"z": -0.8492682902,
				"element": "C" 
			},
			{
				"x": 1.3482267678,
				"y": -0.300845781,
				"z": -1.3470603666,
				"element": "N" 
			},
			{
				"x": 2.3830055001,
				"y": -0.0565565085,
				"z": -0.5774292692,
				"element": "C" 
			},
			{
				"x": 4.3446011,
				"y": -0.2662667557,
				"z": -1.4508984887,
				"element": "I" 
			},
			{
				"x": 2.3064933351,
				"y": 0.3303166444,
				"z": 0.7696424429,
				"element": "C" 
			},
			{
				"x": 3.362573323,
				"y": 0.5844497757,
				"z": 1.5719238669,
				"element": "O" 
			},
			{
				"x": 1.0141132674,
				"y": 0.4543539558,
				"z": 1.2963020799,
				"element": "C" 
			},
			{
				"x": -0.0842517596,
				"y": 0.1974158523,
				"z": 0.4875559619,
				"element": "C" 
			},
			{
				"x": -1.7006406404,
				"y": 0.3973178548,
				"z": -1.8833509807,
				"element": "H" 
			},
			{
				"x": -1.6640415695,
				"y": -1.2980302637,
				"z": -1.3945902541,
				"element": "H" 
			},
			{
				"x": -0.6682906917,
				"y": -0.751636817,
				"z": -2.7599299076,
				"element": "H" 
			},
			{
				"x": 4.1835717259,
				"y": 0.4562951824,
				"z": 1.0663864903,
				"element": "H" 
			},
			{
				"x": 0.9050111066,
				"y": 0.7514415733,
				"z": 2.3345228705,
				"element": "H" 
			},
			{
				"x": -1.0893708753,
				"y": 0.2911763469,
				"z": 0.8877787288,
				"element": "H" 
			}
		],
		 "valence_orbital": [ 
			{
				"type": "occ",
				"energy": -0.30528,
				"method": "rhf"
			},
			{
				"type": "occ",
				"energy": -0.28286,
				"method": "rhf"
			},
			{
				"type": "occ",
				"energy": -0.27226,
				"method": "rhf"
			},
			{
				"type": "occ",
				"energy": -0.265,
				"method": "rhf"
			},
			{
				"type": "occ",
				"energy": -0.23356,
				"method": "rhf"
			},
			{
				"type": "unocc",
				"energy": -0.04485,
				"method": "rhf"
			},
			{
				"type": "unocc",
				"energy": -0.03382,
				"method": "rhf"
			},
			{
				"type": "unocc",
				"energy": -0.01198,
				"method": "rhf"
			},
			{
				"type": "unocc",
				"energy": 0.04207,
				"method": "rhf"
			},
			{
				"type": "unocc",
				"energy": 0.04986,
				"method": "rhf"
			}
		],
		"cosmo_sigma_profile": { 
			"0.0": 0.0,
			"0.0": 0.0,
			"0.0": 0.0,
			"0.0": 0.0,
			"0.0": 0.0,
			"0.0": 0.0,
			"0.0": 0.0,
			"0.0": 0.0,
			"0.0": 0.0,
			"0.0": 0.0,
			"0.0": 0.0,
			"0.0": 0.0,
			"0.0": 0.0,
			"0.0": 0.0,
			"0.0": 0.0,
			"0.0": 0.0,
			"0.0": 0.0,
			"0.0": 0.0,
			"0.0": 0.0,
			"0.0": 0.0,
			"0.0": 0.0,
			"0.0": 0.0,
			"0.0": 0.0,
			"0.0": 0.0,
			"0.0": 0.0,
			"0.0": 0.0,
			"0.0": 0.0,
			"0.0": 0.0,
			"0.0": 0.0,
			"0.0": 0.0,
			"0.0": 0.0,
			"0.0": 0.0,
			"0.0": 0.0,
			"0.0": 0.0,
			"0.0": 0.0,
			"0.0": 0.0,
			"0.0": 0.0,
			"0.0": 0.0,
			"0.0": 0.0,
			"0.0": 0.0,
			"0.0": 0.0,
			"0.0": 0.0,
			"0.0": 0.0,
			"0.0": 0.0,
			"0.0": 0.0,
			"0.0": 0.0,
			"0.0": 0.0,
			"0.0": 0.0,
			"0.0": 0.0,
			"0.0": 0.0,
			"0.0": 0.0
		}
	}
}
