{
	 "smiles": "NC1=C(NC23CC4CC(CC(C4)C2)C3)C=CC=C1", 
	 "Tm": 366.15, 
	 "num_atms": 40, 
	 "gaussian": { 
		 "optdone": 1, 
		 "sigma_profile": "yes", 
		 "theory": "DFT", 
		 "functional": "B3LYP", 
		 "basiset": "6-31G**", 
		 "properties": { 
			 "R2extent": 4656.6907, 
			 "electric_dipole_moment_norm": 1.06875781167, 
			 "electric_quadrupole_moment_norm": 4.73776055537, 
			 "total_energy": -732.496672708, 
			 "HOMO_LUMO_gap": 0.19767, 
			 "cosmo_polarized_energy": -7.58, 
			 "cosmo_cavitation_energy": 36.46, 
			 "cosmo_dispersion_energy": -26.78, 
			 "cosmo_repulsion_energy": 2.03, 
			 "cosmo_total_nonelectrostatic_energy": 11.71, 
			 "SMD_solvation_energy": 4.26 
		},
		"coords": [
			{
				"x": -1.8825076015,
				"y": 2.7107886008,
				"z": -0.763871734,
				"element": "N" 
			},
			{
				"x": -1.9373887549,
				"y": 2.3830604659,
				"z": 0.5891238189,
				"element": "C" 
			},
			{
				"x": -0.8209899993,
				"y": 1.7592989682,
				"z": 1.2003776758,
				"element": "C" 
			},
			{
				"x": 0.353269361,
				"y": 1.5545813627,
				"z": 0.3944218157,
				"element": "N" 
			},
			{
				"x": 0.6264321462,
				"y": 0.2039693038,
				"z": -0.1726038256,
				"element": "C" 
			},
			{
				"x": 1.855393315,
				"y": 0.3450669663,
				"z": -1.0979449734,
				"element": "C" 
			},
			{
				"x": 2.2049343423,
				"y": -1.0073556607,
				"z": -1.7518845561,
				"element": "C" 
			},
			{
				"x": 2.5235074695,
				"y": -2.044363716,
				"z": -0.6550385397,
				"element": "C" 
			},
			{
				"x": 1.2968656217,
				"y": -2.2134343404,
				"z": 0.2644158324,
				"element": "C" 
			},
			{
				"x": 0.0920232857,
				"y": -2.6980014079,
				"z": -0.5673663688,
				"element": "C" 
			},
			{
				"x": -0.2256734137,
				"y": -1.6586394096,
				"z": -1.6612875019,
				"element": "C" 
			},
			{
				"x": 1.0000918961,
				"y": -1.4940817446,
				"z": -2.5832820082,
				"element": "C" 
			},
			{
				"x": -0.5678620994,
				"y": -0.3014585185,
				"z": -1.0096858933,
				"element": "C" 
			},
			{
				"x": 0.9502766591,
				"y": -0.8559162572,
				"z": 0.9125636918,
				"element": "C" 
			},
			{
				"x": -0.8719913036,
				"y": 1.4662260469,
				"z": 2.5673266001,
				"element": "C" 
			},
			{
				"x": -2.0065300609,
				"y": 1.7425324895,
				"z": 3.3332657618,
				"element": "C" 
			},
			{
				"x": -3.1159633271,
				"y": 2.3228622289,
				"z": 2.7166944624,
				"element": "C" 
			},
			{
				"x": -3.0814353859,
				"y": 2.6425428726,
				"z": 1.3613920012,
				"element": "C" 
			},
			{
				"x": -2.4554622545,
				"y": 3.4992331805,
				"z": -1.0325945118,
				"element": "H" 
			},
			{
				"x": -0.9236988488,
				"y": 2.7779593717,
				"z": -1.0890083909,
				"element": "H" 
			},
			{
				"x": 1.1746789958,
				"y": 1.8330047694,
				"z": 0.9270461566,
				"element": "H" 
			},
			{
				"x": 1.6408691189,
				"y": 1.1015980037,
				"z": -1.8626730928,
				"element": "H" 
			},
			{
				"x": 2.7125053893,
				"y": 0.7143554529,
				"z": -0.5159122777,
				"element": "H" 
			},
			{
				"x": 3.0779469332,
				"y": -0.8790062822,
				"z": -2.4044140346,
				"element": "H" 
			},
			{
				"x": 3.3931963204,
				"y": -1.7192103576,
				"z": -0.0685384906,
				"element": "H" 
			},
			{
				"x": 2.7892527114,
				"y": -3.0066537575,
				"z": -1.1118750489,
				"element": "H" 
			},
			{
				"x": 1.5224462136,
				"y": -2.9449787604,
				"z": 1.0509822673,
				"element": "H" 
			},
			{
				"x": -0.7812621568,
				"y": -2.8413712357,
				"z": 0.0821658552,
				"element": "H" 
			},
			{
				"x": 0.3147096329,
				"y": -3.6716259617,
				"z": -1.0234469375,
				"element": "H" 
			},
			{
				"x": -1.086901306,
				"y": -1.9966512737,
				"z": -2.2511927071,
				"element": "H" 
			},
			{
				"x": 0.7774313335,
				"y": -0.7745864608,
				"z": -3.3820781932,
				"element": "H" 
			},
			{
				"x": 1.238725032,
				"y": -2.4487224026,
				"z": -3.0703032812,
				"element": "H" 
			},
			{
				"x": -0.8196037229,
				"y": 0.4367275212,
				"z": -1.7780186232,
				"element": "H" 
			},
			{
				"x": -1.4519945462,
				"y": -0.4031568244,
				"z": -0.3695728001,
				"element": "H" 
			},
			{
				"x": 1.7954673086,
				"y": -0.5047629464,
				"z": 1.5225405928,
				"element": "H" 
			},
			{
				"x": 0.091995374,
				"y": -0.968393785,
				"z": 1.5850235629,
				"element": "H" 
			},
			{
				"x": 0.0027155968,
				"y": 1.0239439468,
				"z": 3.0371691724,
				"element": "H" 
			},
			{
				"x": -2.0216647027,
				"y": 1.5069005872,
				"z": 4.3928825807,
				"element": "H" 
			},
			{
				"x": -4.0101424969,
				"y": 2.5414682197,
				"z": 3.2940642307,
				"element": "H" 
			},
			{
				"x": -3.9401620757,
				"y": 3.1148507442,
				"z": 0.8899377122,
				"element": "H" 
			}
		],
		 "valence_orbital": [ 
			{
				"type": "occ",
				"energy": -0.27943,
				"method": "rhf"
			},
			{
				"type": "occ",
				"energy": -0.27501,
				"method": "rhf"
			},
			{
				"type": "occ",
				"energy": -0.24363,
				"method": "rhf"
			},
			{
				"type": "occ",
				"energy": -0.22094,
				"method": "rhf"
			},
			{
				"type": "occ",
				"energy": -0.18935,
				"method": "rhf"
			},
			{
				"type": "unocc",
				"energy": 0.00832,
				"method": "rhf"
			},
			{
				"type": "unocc",
				"energy": 0.0255,
				"method": "rhf"
			},
			{
				"type": "unocc",
				"energy": 0.07036,
				"method": "rhf"
			},
			{
				"type": "unocc",
				"energy": 0.09792,
				"method": "rhf"
			},
			{
				"type": "unocc",
				"energy": 0.10099,
				"method": "rhf"
			}
		],
		"cosmo_sigma_profile": { 
			"-0.025": 0.0,
			"-0.024": 0.0,
			"-0.023": 0.0,
			"-0.022": 0.0,
			"-0.021": 0.0,
			"-0.02": 0.0,
			"-0.019": 0.0,
			"-0.018": 0.0,
			"-0.017": 0.0,
			"-0.016": 0.0,
			"-0.015": 0.0,
			"-0.014": 0.0,
			"-0.013": 0.0,
			"-0.012": 0.667621488026,
			"-0.011": 1.43973989852,
			"-0.01": 1.38630808898,
			"-0.009": 2.53010167763,
			"-0.008": 3.19069905999,
			"-0.007": 3.71056051933,
			"-0.006": 4.62834197479,
			"-0.005": 8.06801621234,
			"-0.004": 11.5380001183,
			"-0.003": 12.0788347667,
			"-0.002": 31.4400534236,
			"-0.001": 50.1570483291,
			"0.0": 44.8205667293,
			"0.001": 37.0583356201,
			"0.002": 16.3208799765,
			"0.003": 8.29884836358,
			"0.004": 8.86993297452,
			"0.005": 8.18157153803,
			"0.006": 8.96875128911,
			"0.007": 8.30343118475,
			"0.008": 4.83411166702,
			"0.009": 1.6134981253,
			"0.01": 0.94900104391,
			"0.011": 0.825783213461,
			"0.012": 0.798287413186,
			"0.013": 0.473466663373,
			"0.014": 0.430060122521,
			"0.015": 0.0,
			"0.016": 0.0,
			"0.017": 0.0,
			"0.018": 0.0,
			"0.019": 0.0,
			"0.02": 0.0,
			"0.021": 0.0,
			"0.022": 0.0,
			"0.023": 0.0,
			"0.024": 0.0,
			"0.025": 0.0
		}
	}
}
