{
	 "smiles": "COC1=CC=C2C(=O)CCC2=C1", 
	 "Tm": 382.15, 
	 "num_atms": 22, 
	 "gaussian": { 
		 "optdone": 1, 
		 "sigma_profile": "yes", 
		 "theory": "DFT", 
		 "functional": "B3LYP", 
		 "basiset": "6-31G**", 
		 "properties": { 
			 "R2extent": 2651.9086, 
			 "electric_dipole_moment_norm": 3.83793086702, 
			 "electric_quadrupole_moment_norm": 15.7222686114, 
			 "total_energy": -537.536901235, 
			 "HOMO_LUMO_gap": 0.18646, 
			 "cosmo_polarized_energy": -10.52, 
			 "cosmo_cavitation_energy": 25.45, 
			 "cosmo_dispersion_energy": -19.03, 
			 "cosmo_repulsion_energy": 1.52, 
			 "cosmo_total_nonelectrostatic_energy": 7.93, 
			 "SMD_solvation_energy": 5.33 
		},
		"coords": [
			{
				"x": -1.6907618596,
				"y": -1.828089634,
				"z": 2.4827604145,
				"element": "C" 
			},
			{
				"x": -0.8021797732,
				"y": -0.723922353,
				"z": 2.5868831572,
				"element": "O" 
			},
			{
				"x": -0.1566409297,
				"y": -0.2924989523,
				"z": 1.4704483272,
				"element": "C" 
			},
			{
				"x": -0.3128453777,
				"y": -0.8763736105,
				"z": 0.1960009177,
				"element": "C" 
			},
			{
				"x": 0.3925494158,
				"y": -0.3627741487,
				"z": -0.8877783701,
				"element": "C" 
			},
			{
				"x": 1.2453680233,
				"y": 0.7249944125,
				"z": -0.6940421855,
				"element": "C" 
			},
			{
				"x": 2.0810813445,
				"y": 1.4225731704,
				"z": -1.6902606526,
				"element": "C" 
			},
			{
				"x": 2.1771053614,
				"y": 1.1703372277,
				"z": -2.8784565785,
				"element": "O" 
			},
			{
				"x": 2.8249375039,
				"y": 2.5500175207,
				"z": -0.9489783746,
				"element": "C" 
			},
			{
				"x": 2.3761216038,
				"y": 2.468033106,
				"z": 0.5304231389,
				"element": "C" 
			},
			{
				"x": 1.4004860781,
				"y": 1.3053524119,
				"z": 0.5730001951,
				"element": "C" 
			},
			{
				"x": 0.7031318119,
				"y": 0.8030534145,
				"z": 1.6619097614,
				"element": "C" 
			},
			{
				"x": -1.1714847405,
				"y": -2.7342488318,
				"z": 2.1471001077,
				"element": "H" 
			},
			{
				"x": -2.0839060195,
				"y": -1.9906265128,
				"z": 3.4871906926,
				"element": "H" 
			},
			{
				"x": -2.5221623311,
				"y": -1.6146013861,
				"z": 1.7996461338,
				"element": "H" 
			},
			{
				"x": -0.9768174867,
				"y": -1.7204654751,
				"z": 0.0546309283,
				"element": "H" 
			},
			{
				"x": 0.2886222615,
				"y": -0.7956548309,
				"z": -1.8784951343,
				"element": "H" 
			},
			{
				"x": 2.5776372517,
				"y": 3.5079530049,
				"z": -1.4177103794,
				"element": "H" 
			},
			{
				"x": 3.9030536683,
				"y": 2.4089529465,
				"z": -1.0765036704,
				"element": "H" 
			},
			{
				"x": 1.8952277501,
				"y": 3.3937441766,
				"z": 0.8666379415,
				"element": "H" 
			},
			{
				"x": 3.2201768349,
				"y": 2.294473847,
				"z": 1.2076921622,
				"element": "H" 
			},
			{
				"x": 0.7944996087,
				"y": 1.2227704963,
				"z": 2.6591014672,
				"element": "H" 
			}
		],
		 "valence_orbital": [ 
			{
				"type": "occ",
				"energy": -0.33162,
				"method": "rhf"
			},
			{
				"type": "occ",
				"energy": -0.3131,
				"method": "rhf"
			},
			{
				"type": "occ",
				"energy": -0.25481,
				"method": "rhf"
			},
			{
				"type": "occ",
				"energy": -0.23234,
				"method": "rhf"
			},
			{
				"type": "occ",
				"energy": -0.22893,
				"method": "rhf"
			},
			{
				"type": "unocc",
				"energy": -0.04247,
				"method": "rhf"
			},
			{
				"type": "unocc",
				"energy": -0.0087,
				"method": "rhf"
			},
			{
				"type": "unocc",
				"energy": 0.05804,
				"method": "rhf"
			},
			{
				"type": "unocc",
				"energy": 0.0906,
				"method": "rhf"
			},
			{
				"type": "unocc",
				"energy": 0.10148,
				"method": "rhf"
			}
		],
		"cosmo_sigma_profile": { 
			"-0.025": 0.0,
			"-0.024": 0.0,
			"-0.023": 0.0,
			"-0.022": 0.0,
			"-0.021": 0.0,
			"-0.02": 0.0,
			"-0.019": 0.0,
			"-0.018": 0.0,
			"-0.017": 0.0,
			"-0.016": 0.0,
			"-0.015": 0.0,
			"-0.014": 0.0,
			"-0.013": 0.0,
			"-0.012": 0.0,
			"-0.011": 0.0,
			"-0.01": 0.0,
			"-0.009": 0.0,
			"-0.008": 0.0,
			"-0.007": 2.42827279061,
			"-0.006": 13.0094156762,
			"-0.005": 20.0867787397,
			"-0.004": 25.5921347774,
			"-0.003": 23.2836402647,
			"-0.002": 15.6931931374,
			"-0.001": 13.897584639,
			"0.0": 9.9789936135,
			"0.001": 9.19499234624,
			"0.002": 11.2318904979,
			"0.003": 15.1882336084,
			"0.004": 12.260352155,
			"0.005": 3.97416048836,
			"0.006": 2.59804714272,
			"0.007": 2.58882914796,
			"0.008": 2.70766098159,
			"0.009": 3.64847610607,
			"0.01": 2.41119398249,
			"0.011": 2.1893811488,
			"0.012": 4.1731279885,
			"0.013": 4.41870792819,
			"0.014": 1.56396272133,
			"0.015": 0.0446864649503,
			"0.016": 0.0,
			"0.017": 0.0,
			"0.018": 0.0,
			"0.019": 0.0,
			"0.02": 0.0,
			"0.021": 0.0,
			"0.022": 0.0,
			"0.023": 0.0,
			"0.024": 0.0,
			"0.025": 0.0
		}
	}
}
