{
	 "smiles": "CC(=O)C1=C(N)C2=C(C=CC=C2)N=C1C", 
	 "Tm": 426.15, 
	 "num_atms": 27, 
	 "gaussian": { 
		 "optdone": 1, 
		 "sigma_profile": "yes", 
		 "theory": "DFT", 
		 "functional": "B3LYP", 
		 "basiset": "6-31G**", 
		 "properties": { 
			 "R2extent": 3431.0915, 
			 "electric_dipole_moment_norm": 5.05082547808, 
			 "electric_quadrupole_moment_norm": 6.68210820924, 
			 "total_energy": -649.251568591, 
			 "HOMO_LUMO_gap": 0.16093, 
			 "cosmo_polarized_energy": -16.91, 
			 "cosmo_cavitation_energy": 29.72, 
			 "cosmo_dispersion_energy": -22.07, 
			 "cosmo_repulsion_energy": 1.7, 
			 "cosmo_total_nonelectrostatic_energy": 9.35, 
			 "SMD_solvation_energy": 3.96 
		},
		"coords": [
			{
				"x": 1.4369625712,
				"y": -1.4438215999,
				"z": 2.6882770217,
				"element": "C" 
			},
			{
				"x": 1.389703917,
				"y": -0.0022667744,
				"z": 2.1678032518,
				"element": "C" 
			},
			{
				"x": 1.7193145328,
				"y": 0.8949336187,
				"z": 2.9292389683,
				"element": "O" 
			},
			{
				"x": 1.0376166496,
				"y": 0.2627220894,
				"z": 0.7387984193,
				"element": "C" 
			},
			{
				"x": -0.0131128163,
				"y": -0.4023498424,
				"z": 0.0900107481,
				"element": "C" 
			},
			{
				"x": -0.8711933701,
				"y": -1.2572921021,
				"z": 0.7417786308,
				"element": "N" 
			},
			{
				"x": -0.2590775998,
				"y": -0.1189510861,
				"z": -1.3002755202,
				"element": "C" 
			},
			{
				"x": 0.6117441,
				"y": 0.8077093058,
				"z": -1.940362005,
				"element": "C" 
			},
			{
				"x": 0.427160525,
				"y": 1.0848733835,
				"z": -3.3193138807,
				"element": "C" 
			},
			{
				"x": -0.586429245,
				"y": 0.4824108506,
				"z": -4.032237686,
				"element": "C" 
			},
			{
				"x": -1.4687188895,
				"y": -0.4155398447,
				"z": -3.390972627,
				"element": "C" 
			},
			{
				"x": -1.3100597714,
				"y": -0.7046315222,
				"z": -2.0513015885,
				"element": "C" 
			},
			{
				"x": 1.6156480657,
				"y": 1.4655786838,
				"z": -1.28918848,
				"element": "N" 
			},
			{
				"x": 1.8039543587,
				"y": 1.2309026703,
				"z": -0.0057558761,
				"element": "C" 
			},
			{
				"x": 2.924308651,
				"y": 2.0193375463,
				"z": 0.6306470656,
				"element": "C" 
			},
			{
				"x": 0.6336573899,
				"y": -1.6138044679,
				"z": 3.4166199531,
				"element": "H" 
			},
			{
				"x": 1.3907274386,
				"y": -2.2037898788,
				"z": 1.9051982652,
				"element": "H" 
			},
			{
				"x": 2.3737137168,
				"y": -1.5534628164,
				"z": 3.2410934689,
				"element": "H" 
			},
			{
				"x": -0.6721420639,
				"y": -1.5296642423,
				"z": 1.6886746239,
				"element": "H" 
			},
			{
				"x": -1.3528617346,
				"y": -1.9534234748,
				"z": 0.1965149175,
				"element": "H" 
			},
			{
				"x": 1.1109338096,
				"y": 1.7911688039,
				"z": -3.7784147725,
				"element": "H" 
			},
			{
				"x": -0.717908827,
				"y": 0.7049711838,
				"z": -5.0872440127,
				"element": "H" 
			},
			{
				"x": -2.2797683275,
				"y": -0.8713180316,
				"z": -3.9508848316,
				"element": "H" 
			},
			{
				"x": -2.0244547784,
				"y": -1.3706178994,
				"z": -1.576171143,
				"element": "H" 
			},
			{
				"x": 3.4410138029,
				"y": 2.5690960345,
				"z": -0.1568466499,
				"element": "H" 
			},
			{
				"x": 2.5373446612,
				"y": 2.7164835265,
				"z": 1.3776797539,
				"element": "H" 
			},
			{
				"x": 3.6365232336,
				"y": 1.374045886,
				"z": 1.1544339852,
				"element": "H" 
			}
		],
		 "valence_orbital": [ 
			{
				"type": "occ",
				"energy": -0.26333,
				"method": "rhf"
			},
			{
				"type": "occ",
				"energy": -0.25355,
				"method": "rhf"
			},
			{
				"type": "occ",
				"energy": -0.24536,
				"method": "rhf"
			},
			{
				"type": "occ",
				"energy": -0.2396,
				"method": "rhf"
			},
			{
				"type": "occ",
				"energy": -0.21607,
				"method": "rhf"
			},
			{
				"type": "unocc",
				"energy": -0.05514,
				"method": "rhf"
			},
			{
				"type": "unocc",
				"energy": -0.03048,
				"method": "rhf"
			},
			{
				"type": "unocc",
				"energy": 0.00704,
				"method": "rhf"
			},
			{
				"type": "unocc",
				"energy": 0.03231,
				"method": "rhf"
			},
			{
				"type": "unocc",
				"energy": 0.05718,
				"method": "rhf"
			}
		],
		"cosmo_sigma_profile": { 
			"-0.025": 0.0,
			"-0.024": 0.0,
			"-0.023": 0.0,
			"-0.022": 0.0,
			"-0.021": 0.0,
			"-0.02": 0.0,
			"-0.019": 0.0,
			"-0.018": 0.0,
			"-0.017": 0.0,
			"-0.016": 0.0,
			"-0.015": 0.425195691704,
			"-0.014": 1.30731524648,
			"-0.013": 2.7104774081,
			"-0.012": 3.13080684492,
			"-0.011": 2.84681008791,
			"-0.01": 2.33082860458,
			"-0.009": 3.31593870057,
			"-0.008": 2.41095680873,
			"-0.007": 4.28014935654,
			"-0.006": 8.6181031334,
			"-0.005": 13.7449921033,
			"-0.004": 16.4968900408,
			"-0.003": 18.1962083571,
			"-0.002": 17.5201479705,
			"-0.001": 16.5752443007,
			"0.0": 14.1628720467,
			"0.001": 17.6700717589,
			"0.002": 18.0160895223,
			"0.003": 15.4670728809,
			"0.004": 16.2278539075,
			"0.005": 8.76991464605,
			"0.006": 5.47924441792,
			"0.007": 3.02417164704,
			"0.008": 4.28026013284,
			"0.009": 3.4406683057,
			"0.01": 3.34615024879,
			"0.011": 3.43890689305,
			"0.012": 4.63393669883,
			"0.013": 2.49995557394,
			"0.014": 1.04693409384,
			"0.015": 0.708422587449,
			"0.016": 0.559025904751,
			"0.017": 0.0110353070761,
			"0.018": 0.0,
			"0.019": 0.0,
			"0.02": 0.0,
			"0.021": 0.0,
			"0.022": 0.0,
			"0.023": 0.0,
			"0.024": 0.0,
			"0.025": 0.0
		}
	}
}
