{
	 "smiles": "CCCCC(NC(=O)C(CC(C)C)NC(=O)OCC1=CC=CC=C1)C=O", 
	 "Tm": 340.65, 
	 "num_atms": 56, 
	 "gaussian": { 
		 "optdone": 1, 
		 "sigma_profile": "yes", 
		 "theory": "DFT", 
		 "functional": "B3LYP", 
		 "basiset": "6-31G**", 
		 "properties": { 
			 "R2extent": 11727.3595, 
			 "electric_dipole_moment_norm": 1.9225145149, 
			 "electric_quadrupole_moment_norm": 15.1071650008, 
			 "total_energy": -1190.65891057, 
			 "HOMO_LUMO_gap": 0.20839, 
			 "cosmo_polarized_energy": -19.35, 
			 "cosmo_cavitation_energy": 57.01, 
			 "cosmo_dispersion_energy": -36.28, 
			 "cosmo_repulsion_energy": 2.83, 
			 "cosmo_total_nonelectrostatic_energy": 23.56, 
			 "SMD_solvation_energy": 10.44 
		},
		"coords": [
			{
				"x": -2.0114856385,
				"y": 4.9858781032,
				"z": -1.2663523704,
				"element": "C" 
			},
			{
				"x": -1.0377542652,
				"y": 4.875536483,
				"z": -0.0879521925,
				"element": "C" 
			},
			{
				"x": -1.5495607275,
				"y": 4.0136899358,
				"z": 1.0795612849,
				"element": "C" 
			},
			{
				"x": -1.7269242071,
				"y": 2.5068036501,
				"z": 0.8117855622,
				"element": "C" 
			},
			{
				"x": -0.4165142727,
				"y": 1.7515527628,
				"z": 0.5560342447,
				"element": "C" 
			},
			{
				"x": -0.5097469929,
				"y": 0.3400449732,
				"z": 0.9472359441,
				"element": "N" 
			},
			{
				"x": 0.583422454,
				"y": -0.3642167548,
				"z": 1.3631479867,
				"element": "C" 
			},
			{
				"x": 1.6636657101,
				"y": 0.1575424245,
				"z": 1.6197535046,
				"element": "O" 
			},
			{
				"x": 0.3741197804,
				"y": -1.8773245316,
				"z": 1.553806969,
				"element": "C" 
			},
			{
				"x": 0.159012458,
				"y": -2.2343464725,
				"z": 3.0418624063,
				"element": "C" 
			},
			{
				"x": 1.2716883001,
				"y": -1.8265788823,
				"z": 4.0280685512,
				"element": "C" 
			},
			{
				"x": 2.6346261231,
				"y": -2.4308909777,
				"z": 3.6602930437,
				"element": "C" 
			},
			{
				"x": 0.856313624,
				"y": -2.2268051284,
				"z": 5.452235594,
				"element": "C" 
			},
			{
				"x": -0.7659937735,
				"y": -2.3947270833,
				"z": 0.7899521664,
				"element": "N" 
			},
			{
				"x": -0.7462321697,
				"y": -2.676018061,
				"z": -0.5611732905,
				"element": "C" 
			},
			{
				"x": -1.5818309074,
				"y": -3.3577870652,
				"z": -1.1240941769,
				"element": "O" 
			},
			{
				"x": 0.2919725943,
				"y": -2.0570154453,
				"z": -1.170867161,
				"element": "O" 
			},
			{
				"x": 0.3445692788,
				"y": -2.2397696972,
				"z": -2.6155471221,
				"element": "C" 
			},
			{
				"x": 1.5766920103,
				"y": -1.5518067305,
				"z": -3.1351576718,
				"element": "C" 
			},
			{
				"x": 1.5280800442,
				"y": -0.2106491029,
				"z": -3.539197336,
				"element": "C" 
			},
			{
				"x": 2.6773579401,
				"y": 0.4249036699,
				"z": -4.0124237677,
				"element": "C" 
			},
			{
				"x": 3.8842540422,
				"y": -0.2732580868,
				"z": -4.0882979523,
				"element": "C" 
			},
			{
				"x": 3.9402279698,
				"y": -1.6100894607,
				"z": -3.6886140926,
				"element": "C" 
			},
			{
				"x": 2.7913371511,
				"y": -2.2441487833,
				"z": -3.2156472643,
				"element": "C" 
			},
			{
				"x": 0.0239002543,
				"y": 1.6911808598,
				"z": -0.9102322463,
				"element": "C" 
			},
			{
				"x": -0.6801617077,
				"y": 1.9652579042,
				"z": -1.8605768119,
				"element": "O" 
			},
			{
				"x": -1.6284250117,
				"y": 5.6768286546,
				"z": -2.0246184137,
				"element": "H" 
			},
			{
				"x": -2.163662793,
				"y": 4.0178805261,
				"z": -1.7505205575,
				"element": "H" 
			},
			{
				"x": -2.9861013519,
				"y": 5.3645450336,
				"z": -0.9355718372,
				"element": "H" 
			},
			{
				"x": -0.0724849525,
				"y": 4.493179948,
				"z": -0.4455312279,
				"element": "H" 
			},
			{
				"x": -0.8302075384,
				"y": 5.8796082434,
				"z": 0.30380194,
				"element": "H" 
			},
			{
				"x": -0.870873083,
				"y": 4.1323244804,
				"z": 1.9352424555,
				"element": "H" 
			},
			{
				"x": -2.518771127,
				"y": 4.4135439633,
				"z": 1.4060996186,
				"element": "H" 
			},
			{
				"x": -2.1961864288,
				"y": 2.0580454986,
				"z": 1.6944926509,
				"element": "H" 
			},
			{
				"x": -2.4058204035,
				"y": 2.3414981309,
				"z": -0.0324396844,
				"element": "H" 
			},
			{
				"x": 0.4090540884,
				"y": 2.1656572955,
				"z": 1.1457791521,
				"element": "H" 
			},
			{
				"x": -1.3028378007,
				"y": -0.1985865243,
				"z": 0.6224996284,
				"element": "H" 
			},
			{
				"x": 1.3004013428,
				"y": -2.3349906009,
				"z": 1.1946498988,
				"element": "H" 
			},
			{
				"x": 0.0255672032,
				"y": -3.3246707118,
				"z": 3.0953488829,
				"element": "H" 
			},
			{
				"x": -0.7898194082,
				"y": -1.784178667,
				"z": 3.3652517401,
				"element": "H" 
			},
			{
				"x": 1.3737825496,
				"y": -0.7359246547,
				"z": 3.9934782007,
				"element": "H" 
			},
			{
				"x": 3.004875904,
				"y": -2.0266882996,
				"z": 2.7149336604,
				"element": "H" 
			},
			{
				"x": 3.3772010511,
				"y": -2.1963906701,
				"z": 4.4302606885,
				"element": "H" 
			},
			{
				"x": 2.5774327597,
				"y": -3.5240979858,
				"z": 3.5790277861,
				"element": "H" 
			},
			{
				"x": 1.6042701729,
				"y": -1.9004780988,
				"z": 6.1820203489,
				"element": "H" 
			},
			{
				"x": -0.1033602137,
				"y": -1.7793376354,
				"z": 5.7346680114,
				"element": "H" 
			},
			{
				"x": 0.7567605086,
				"y": -3.3155167047,
				"z": 5.5448039745,
				"element": "H" 
			},
			{
				"x": -1.43654228,
				"y": -2.9658912828,
				"z": 1.2861212609,
				"element": "H" 
			},
			{
				"x": 0.3553641111,
				"y": -3.3122069358,
				"z": -2.8263004816,
				"element": "H" 
			},
			{
				"x": -0.5684027557,
				"y": -1.8210066602,
				"z": -3.0473517624,
				"element": "H" 
			},
			{
				"x": 0.5937813433,
				"y": 0.3420699128,
				"z": -3.476554542,
				"element": "H" 
			},
			{
				"x": 2.6279081877,
				"y": 1.4638522874,
				"z": -4.3254262665,
				"element": "H" 
			},
			{
				"x": 4.7770730512,
				"y": 0.2211626659,
				"z": -4.4604059949,
				"element": "H" 
			},
			{
				"x": 4.8759032116,
				"y": -2.1584970704,
				"z": -3.7486895202,
				"element": "H" 
			},
			{
				"x": 2.8347216631,
				"y": -3.2859489789,
				"z": -2.9076516859,
				"element": "H" 
			},
			{
				"x": 1.0385629273,
				"y": 1.2696563374,
				"z": -1.0536217261,
				"element": "H" 
			}
		],
		 "valence_orbital": [ 
			{
				"type": "occ",
				"energy": -0.28001,
				"method": "rhf"
			},
			{
				"type": "occ",
				"energy": -0.25384,
				"method": "rhf"
			},
			{
				"type": "occ",
				"energy": -0.25224,
				"method": "rhf"
			},
			{
				"type": "occ",
				"energy": -0.24947,
				"method": "rhf"
			},
			{
				"type": "occ",
				"energy": -0.24335,
				"method": "rhf"
			},
			{
				"type": "unocc",
				"energy": -0.03496,
				"method": "rhf"
			},
			{
				"type": "unocc",
				"energy": -0.01388,
				"method": "rhf"
			},
			{
				"type": "unocc",
				"energy": -0.00453,
				"method": "rhf"
			},
			{
				"type": "unocc",
				"energy": 0.0193,
				"method": "rhf"
			},
			{
				"type": "unocc",
				"energy": 0.04012,
				"method": "rhf"
			}
		],
		"cosmo_sigma_profile": { 
			"-0.025": 0.0,
			"-0.024": 0.0,
			"-0.023": 0.0,
			"-0.022": 0.0,
			"-0.021": 0.0,
			"-0.02": 0.0,
			"-0.019": 0.0,
			"-0.018": 0.0,
			"-0.017": 0.0,
			"-0.016": 0.0,
			"-0.015": 0.0,
			"-0.014": 0.465302645322,
			"-0.013": 1.12366524859,
			"-0.012": 1.76826588887,
			"-0.011": 2.03365687991,
			"-0.01": 1.91066106494,
			"-0.009": 2.10383631046,
			"-0.008": 2.50791518775,
			"-0.007": 3.20186946858,
			"-0.006": 15.8554232304,
			"-0.005": 24.3299596737,
			"-0.004": 28.4132158313,
			"-0.003": 40.6441735184,
			"-0.002": 51.8789405577,
			"-0.001": 50.7137152537,
			"0.0": 50.2218168898,
			"0.001": 44.196078652,
			"0.002": 28.9382661743,
			"0.003": 15.6658000086,
			"0.004": 14.9424326128,
			"0.005": 15.8519396033,
			"0.006": 9.2933410128,
			"0.007": 4.64459927185,
			"0.008": 4.92736460721,
			"0.009": 4.65902593657,
			"0.01": 5.0525582776,
			"0.011": 4.38051144182,
			"0.012": 4.49307658474,
			"0.013": 9.23407267618,
			"0.014": 1.56596249986,
			"0.015": 0.0,
			"0.016": 0.0,
			"0.017": 0.0,
			"0.018": 0.0,
			"0.019": 0.0,
			"0.02": 0.0,
			"0.021": 0.0,
			"0.022": 0.0,
			"0.023": 0.0,
			"0.024": 0.0,
			"0.025": 0.0
		}
	}
}
