{
	 "smiles": "OC(=O)C1=CC=C(OCC2CC2)C=C1", 
	 "Tm": 528.15, 
	 "num_atms": 26, 
	 "gaussian": { 
		 "optdone": 1, 
		 "sigma_profile": "yes", 
		 "theory": "DFT", 
		 "functional": "B3LYP", 
		 "basiset": "6-31G**", 
		 "properties": { 
			 "R2extent": 5116.5462, 
			 "electric_dipole_moment_norm": 6.59871149089, 
			 "electric_quadrupole_moment_norm": 22.6730285379, 
			 "total_energy": -652.042303034, 
			 "HOMO_LUMO_gap": 0.1954, 
			 "cosmo_polarized_energy": -16.58, 
			 "cosmo_cavitation_energy": 29.8, 
			 "cosmo_dispersion_energy": -21.68, 
			 "cosmo_repulsion_energy": 1.72, 
			 "cosmo_total_nonelectrostatic_energy": 9.83, 
			 "SMD_solvation_energy": 6.07 
		},
		"coords": [
			{
				"x": 2.8020980008,
				"y": -4.101062938,
				"z": -0.4430489348,
				"element": "O" 
			},
			{
				"x": 3.1273713355,
				"y": -3.2786387189,
				"z": 0.5952925158,
				"element": "C" 
			},
			{
				"x": 4.2672366083,
				"y": -3.2490497515,
				"z": 0.9994334811,
				"element": "O" 
			},
			{
				"x": 2.0250720342,
				"y": -2.4550730201,
				"z": 1.1737026209,
				"element": "C" 
			},
			{
				"x": 0.829319052,
				"y": -2.1765923461,
				"z": 0.501132697,
				"element": "C" 
			},
			{
				"x": -0.161709875,
				"y": -1.3834861834,
				"z": 1.078449137,
				"element": "C" 
			},
			{
				"x": 0.0344029215,
				"y": -0.854016214,
				"z": 2.3614643225,
				"element": "C" 
			},
			{
				"x": -0.859150235,
				"y": -0.1007585097,
				"z": 3.0524154249,
				"element": "O" 
			},
			{
				"x": -2.1006402097,
				"y": 0.3286760238,
				"z": 2.4730987731,
				"element": "C" 
			},
			{
				"x": -1.9760123193,
				"y": 1.6435780693,
				"z": 1.7414871664,
				"element": "C" 
			},
			{
				"x": -1.7914945453,
				"y": 1.7337891396,
				"z": 0.2454489691,
				"element": "C" 
			},
			{
				"x": -3.1139959759,
				"y": 2.1101041445,
				"z": 0.8634245866,
				"element": "C" 
			},
			{
				"x": 1.2393705411,
				"y": -1.1178402263,
				"z": 3.0392287344,
				"element": "C" 
			},
			{
				"x": 2.2195175212,
				"y": -1.8962384616,
				"z": 2.4488644494,
				"element": "C" 
			},
			{
				"x": 1.841024169,
				"y": -4.1543518553,
				"z": -0.5335358603,
				"element": "H" 
			},
			{
				"x": 0.6638241643,
				"y": -2.53902462,
				"z": -0.5110916938,
				"element": "H" 
			},
			{
				"x": -1.0649515004,
				"y": -1.1778325404,
				"z": 0.5193912732,
				"element": "H" 
			},
			{
				"x": -2.5305830739,
				"y": -0.4512904739,
				"z": 1.8326093502,
				"element": "H" 
			},
			{
				"x": -2.7632237212,
				"y": 0.4449880402,
				"z": 3.3364235083,
				"element": "H" 
			},
			{
				"x": -1.4818606388,
				"y": 2.4107905242,
				"z": 2.333280564,
				"element": "H" 
			},
			{
				"x": -1.1539409944,
				"y": 2.5234212618,
				"z": -0.1397337207,
				"element": "H" 
			},
			{
				"x": -1.74784543,
				"y": 0.8142920644,
				"z": -0.3299195781,
				"element": "H" 
			},
			{
				"x": -3.3958636137,
				"y": 3.1574090239,
				"z": 0.9041932558,
				"element": "H" 
			},
			{
				"x": -3.9516226838,
				"y": 1.4337156353,
				"z": 0.7133204582,
				"element": "H" 
			},
			{
				"x": 1.3746844954,
				"y": -0.6939857406,
				"z": 4.028672194,
				"element": "H" 
			},
			{
				"x": 3.155773973,
				"y": -2.0932223273,
				"z": 2.9598963059,
				"element": "H" 
			}
		],
		 "valence_orbital": [ 
			{
				"type": "occ",
				"energy": -0.30418,
				"method": "rhf"
			},
			{
				"type": "occ",
				"energy": -0.30296,
				"method": "rhf"
			},
			{
				"type": "occ",
				"energy": -0.26861,
				"method": "rhf"
			},
			{
				"type": "occ",
				"energy": -0.26417,
				"method": "rhf"
			},
			{
				"type": "occ",
				"energy": -0.23291,
				"method": "rhf"
			},
			{
				"type": "unocc",
				"energy": -0.03751,
				"method": "rhf"
			},
			{
				"type": "unocc",
				"energy": -0.01773,
				"method": "rhf"
			},
			{
				"type": "unocc",
				"energy": 0.0544,
				"method": "rhf"
			},
			{
				"type": "unocc",
				"energy": 0.06645,
				"method": "rhf"
			},
			{
				"type": "unocc",
				"energy": 0.07507,
				"method": "rhf"
			}
		],
		"cosmo_sigma_profile": { 
			"-0.025": 0.0,
			"-0.024": 0.0,
			"-0.023": 0.0,
			"-0.022": 0.0,
			"-0.021": 0.0,
			"-0.02": 0.0,
			"-0.019": 0.0659748610581,
			"-0.018": 0.574051475816,
			"-0.017": 1.15586035323,
			"-0.016": 0.771787241149,
			"-0.015": 1.25045180274,
			"-0.014": 0.93230804543,
			"-0.013": 0.759262119853,
			"-0.012": 1.19410449925,
			"-0.011": 1.00054257577,
			"-0.01": 1.31805597272,
			"-0.009": 2.05159364653,
			"-0.008": 3.94331867018,
			"-0.007": 5.9347688015,
			"-0.006": 9.44457042064,
			"-0.005": 15.2438595887,
			"-0.004": 19.5546987021,
			"-0.003": 18.6347985816,
			"-0.002": 15.5902259552,
			"-0.001": 15.6633725485,
			"0.0": 14.7229929757,
			"0.001": 13.596508908,
			"0.002": 17.2534024389,
			"0.003": 23.9569603526,
			"0.004": 12.81965609,
			"0.005": 5.09609375387,
			"0.006": 3.74895997538,
			"0.007": 3.8331098543,
			"0.008": 4.46641123395,
			"0.009": 3.41572962967,
			"0.01": 4.29291588623,
			"0.011": 5.4785803343,
			"0.012": 5.79268060633,
			"0.013": 2.77446765036,
			"0.014": 0.400760894373,
			"0.015": 0.0,
			"0.016": 0.0,
			"0.017": 0.0,
			"0.018": 0.0,
			"0.019": 0.0,
			"0.02": 0.0,
			"0.021": 0.0,
			"0.022": 0.0,
			"0.023": 0.0,
			"0.024": 0.0,
			"0.025": 0.0
		}
	}
}
