{
	 "smiles": "C(C1CCCNC1)N1CCN(CC1)C1=NC=CC=C1", 
	 "Tm": 347.15, 
	 "num_atms": 43, 
	 "gaussian": { 
		 "optdone": 1, 
		 "sigma_profile": "yes", 
		 "theory": "DFT", 
		 "functional": "B3LYP", 
		 "basiset": "6-31G**", 
		 "properties": { 
			 "R2extent": 8757.3134, 
			 "electric_dipole_moment_norm": 1.61176924527, 
			 "electric_quadrupole_moment_norm": 11.3660147259, 
			 "total_energy": -805.041570084, 
			 "HOMO_LUMO_gap": 0.18478, 
			 "cosmo_polarized_energy": -10.31, 
			 "cosmo_cavitation_energy": 41.48, 
			 "cosmo_dispersion_energy": -30.08, 
			 "cosmo_repulsion_energy": 2.31, 
			 "cosmo_total_nonelectrostatic_energy": 13.71, 
			 "SMD_solvation_energy": 0.48 
		},
		"coords": [
			{
				"x": -1.296978219,
				"y": 0.1000529559,
				"z": -0.9301219798,
				"element": "C" 
			},
			{
				"x": -2.3487688437,
				"y": 0.8114317629,
				"z": -0.065874045,
				"element": "C" 
			},
			{
				"x": -3.7807621965,
				"y": 0.3608094046,
				"z": -0.451768295,
				"element": "C" 
			},
			{
				"x": -4.8313674311,
				"y": 1.4571327288,
				"z": -0.1541540628,
				"element": "C" 
			},
			{
				"x": -4.4137700255,
				"y": 2.3134869945,
				"z": 1.0428076533,
				"element": "C" 
			},
			{
				"x": -3.1830471734,
				"y": 3.0550812908,
				"z": 0.7215409465,
				"element": "N" 
			},
			{
				"x": -2.2489417226,
				"y": 2.3429071015,
				"z": -0.1662632044,
				"element": "C" 
			},
			{
				"x": 0.076953241,
				"y": 0.3808558998,
				"z": -0.5154226593,
				"element": "N" 
			},
			{
				"x": 1.0949342013,
				"y": 0.1679135534,
				"z": -1.5476548806,
				"element": "C" 
			},
			{
				"x": 1.7314423793,
				"y": -1.2287758509,
				"z": -1.5353153783,
				"element": "C" 
			},
			{
				"x": 2.3079676789,
				"y": -1.4832143229,
				"z": -0.2190920333,
				"element": "N" 
			},
			{
				"x": 1.9165558132,
				"y": -0.5786907784,
				"z": 0.8618607203,
				"element": "C" 
			},
			{
				"x": 0.4258834714,
				"y": -0.2539948804,
				"z": 0.7675477653,
				"element": "C" 
			},
			{
				"x": 3.0823828824,
				"y": -2.5976660316,
				"z": 0.0198184513,
				"element": "C" 
			},
			{
				"x": 3.5829159327,
				"y": -2.7414132179,
				"z": 1.2633586514,
				"element": "N" 
			},
			{
				"x": 4.3446772204,
				"y": -3.8072088933,
				"z": 1.5242395015,
				"element": "C" 
			},
			{
				"x": 4.66898974,
				"y": -4.7887892849,
				"z": 0.5919699651,
				"element": "C" 
			},
			{
				"x": 4.1446733753,
				"y": -4.6413289079,
				"z": -0.6959793989,
				"element": "C" 
			},
			{
				"x": 3.3437155628,
				"y": -3.55019893,
				"z": -0.9984488247,
				"element": "C" 
			},
			{
				"x": -1.4174414584,
				"y": 0.4472109403,
				"z": -1.9642898181,
				"element": "H" 
			},
			{
				"x": -1.5168177883,
				"y": -0.9873710321,
				"z": -0.9317663135,
				"element": "H" 
			},
			{
				"x": -2.1759788666,
				"y": 0.5385149485,
				"z": 0.984387536,
				"element": "H" 
			},
			{
				"x": -4.0310252195,
				"y": -0.5598914198,
				"z": 0.0890136323,
				"element": "H" 
			},
			{
				"x": -3.815353128,
				"y": 0.1070845561,
				"z": -1.5197007425,
				"element": "H" 
			},
			{
				"x": -4.9470523262,
				"y": 2.1163698155,
				"z": -1.022690893,
				"element": "H" 
			},
			{
				"x": -5.8130294347,
				"y": 1.0083175066,
				"z": 0.0307372334,
				"element": "H" 
			},
			{
				"x": -5.2063588474,
				"y": 3.0306743914,
				"z": 1.2926223794,
				"element": "H" 
			},
			{
				"x": -4.3013965763,
				"y": 1.6524227135,
				"z": 1.9220230447,
				"element": "H" 
			},
			{
				"x": -2.7089807472,
				"y": 3.3113733659,
				"z": 1.5807592958,
				"element": "H" 
			},
			{
				"x": -2.4432033279,
				"y": 2.6341962166,
				"z": -1.2108622511,
				"element": "H" 
			},
			{
				"x": -1.2285467158,
				"y": 2.6682662244,
				"z": 0.0536828313,
				"element": "H" 
			},
			{
				"x": 1.8946455717,
				"y": 0.9108873386,
				"z": -1.4296451412,
				"element": "H" 
			},
			{
				"x": 0.6474462473,
				"y": 0.3488832323,
				"z": -2.528794691,
				"element": "H" 
			},
			{
				"x": 0.9794754664,
				"y": -1.9923922552,
				"z": -1.7937310577,
				"element": "H" 
			},
			{
				"x": 2.5119641449,
				"y": -1.2725190275,
				"z": -2.3080204019,
				"element": "H" 
			},
			{
				"x": 2.1371624673,
				"y": -1.0739589103,
				"z": 1.8067784589,
				"element": "H" 
			},
			{
				"x": 2.5102908714,
				"y": 0.3466060913,
				"z": 0.8368975733,
				"element": "H" 
			},
			{
				"x": 0.1507112003,
				"y": 0.401795397,
				"z": 1.6041287756,
				"element": "H" 
			},
			{
				"x": -0.1357372395,
				"y": -1.1964044097,
				"z": 0.9006781938,
				"element": "H" 
			},
			{
				"x": 4.7200070564,
				"y": -3.8748038427,
				"z": 2.545034268,
				"element": "H" 
			},
			{
				"x": 5.2988361974,
				"y": -5.629232593,
				"z": 0.8618199754,
				"element": "H" 
			},
			{
				"x": 4.3549505152,
				"y": -5.3802329144,
				"z": -1.4648585525,
				"element": "H" 
			},
			{
				"x": 2.9233760508,
				"y": -3.4418869272,
				"z": -1.9903522282,
				"element": "H" 
			}
		],
		 "valence_orbital": [ 
			{
				"type": "occ",
				"energy": -0.26889,
				"method": "rhf"
			},
			{
				"type": "occ",
				"energy": -0.24585,
				"method": "rhf"
			},
			{
				"type": "occ",
				"energy": -0.20866,
				"method": "rhf"
			},
			{
				"type": "occ",
				"energy": -0.20128,
				"method": "rhf"
			},
			{
				"type": "occ",
				"energy": -0.1935,
				"method": "rhf"
			},
			{
				"type": "unocc",
				"energy": -0.00872,
				"method": "rhf"
			},
			{
				"type": "unocc",
				"energy": 0.01833,
				"method": "rhf"
			},
			{
				"type": "unocc",
				"energy": 0.07324,
				"method": "rhf"
			},
			{
				"type": "unocc",
				"energy": 0.08138,
				"method": "rhf"
			},
			{
				"type": "unocc",
				"energy": 0.09775,
				"method": "rhf"
			}
		],
		"cosmo_sigma_profile": { 
			"-0.025": 0.0,
			"-0.024": 0.0,
			"-0.023": 0.0,
			"-0.022": 0.0,
			"-0.021": 0.0,
			"-0.02": 0.0,
			"-0.019": 0.0,
			"-0.018": 0.0,
			"-0.017": 0.0,
			"-0.016": 0.0,
			"-0.015": 0.0,
			"-0.014": 0.0,
			"-0.013": 0.0,
			"-0.012": 0.0,
			"-0.011": 0.0,
			"-0.01": 0.135753602654,
			"-0.009": 1.14191496707,
			"-0.008": 1.33077853151,
			"-0.007": 1.21437759756,
			"-0.006": 5.47266839361,
			"-0.005": 13.0181908953,
			"-0.004": 22.1501892831,
			"-0.003": 35.4506732277,
			"-0.002": 50.8524878675,
			"-0.001": 53.1043974939,
			"0.0": 33.9073797992,
			"0.001": 21.0926265559,
			"0.002": 14.6339757449,
			"0.003": 12.6580489384,
			"0.004": 13.6965448668,
			"0.005": 13.5794122415,
			"0.006": 6.2303936917,
			"0.007": 4.10367600261,
			"0.008": 3.42712585961,
			"0.009": 3.4436325827,
			"0.01": 2.49715600553,
			"0.011": 2.14330785137,
			"0.012": 1.50282118143,
			"0.013": 1.52976459278,
			"0.014": 1.06654028559,
			"0.015": 0.567533617443,
			"0.016": 0.242479887281,
			"0.017": 0.828429758849,
			"0.018": 0.308602887029,
			"0.019": 0.547929193443,
			"0.02": 0.0274924590561,
			"0.021": 0.0,
			"0.022": 0.0,
			"0.023": 0.0,
			"0.024": 0.0,
			"0.025": 0.0
		}
	}
}
