{
	 "smiles": "BrCCCCCCCCCCCCBr", 
	 "Tm": 313.65, 
	 "num_atms": 38, 
	 "gaussian": { 
		 "optdone": 1, 
		 "sigma_profile": "yes", 
		 "theory": "DFT", 
		 "functional": "B3LYP", 
		 "basiset": "6-31G**", 
		 "properties": { 
			 "R2extent": 9368.58, 
			 "electric_dipole_moment_norm": 4.03658520411, 
			 "electric_quadrupole_moment_norm": 16.443695982, 
			 "total_energy": -5614.58618909, 
			 "HOMO_LUMO_gap": 0.26535, 
			 "cosmo_polarized_energy": -7.27, 
			 "cosmo_cavitation_energy": 41.96, 
			 "cosmo_dispersion_energy": -28.2, 
			 "cosmo_repulsion_energy": 2.28, 
			 "cosmo_total_nonelectrostatic_energy": 16.03, 
			 "SMD_solvation_energy": 3.43 
		},
		"coords": [
			{
				"x": -2.7734788777,
				"y": 2.4126709031,
				"z": -0.3751945807,
				"element": "Br" 
			},
			{
				"x": -1.55252067,
				"y": 3.6233374337,
				"z": -1.3795421307,
				"element": "C" 
			},
			{
				"x": -1.2113401258,
				"y": 3.1648584192,
				"z": -2.7912291446,
				"element": "C" 
			},
			{
				"x": -0.2738916433,
				"y": 1.9479414011,
				"z": -2.9279402353,
				"element": "C" 
			},
			{
				"x": -0.9631365348,
				"y": 0.5738581335,
				"z": -2.9440575681,
				"element": "C" 
			},
			{
				"x": -0.0105194006,
				"y": -0.5924231617,
				"z": -3.2651680803,
				"element": "C" 
			},
			{
				"x": 1.1126406796,
				"y": -0.9131610827,
				"z": -2.2561872593,
				"element": "C" 
			},
			{
				"x": 0.6879628085,
				"y": -1.6334660791,
				"z": -0.9576393025,
				"element": "C" 
			},
			{
				"x": 0.1335185874,
				"y": -0.7727398838,
				"z": 0.1927373676,
				"element": "C" 
			},
			{
				"x": 1.1564044977,
				"y": 0.1821697842,
				"z": 0.8259856137,
				"element": "C" 
			},
			{
				"x": 0.5747349858,
				"y": 0.9592656818,
				"z": 2.0155274371,
				"element": "C" 
			},
			{
				"x": 1.5198627558,
				"y": 2.0031179329,
				"z": 2.6278327461,
				"element": "C" 
			},
			{
				"x": 2.8212996233,
				"y": 1.4693326101,
				"z": 3.2112859902,
				"element": "C" 
			},
			{
				"x": 2.5257252718,
				"y": 0.2393800342,
				"z": 4.7468400033,
				"element": "Br" 
			},
			{
				"x": -0.6660452358,
				"y": 3.7057966411,
				"z": -0.7496344883,
				"element": "H" 
			},
			{
				"x": -2.0804780303,
				"y": 4.576449444,
				"z": -1.3856792918,
				"element": "H" 
			},
			{
				"x": -2.1341733017,
				"y": 3.0049048076,
				"z": -3.3611539861,
				"element": "H" 
			},
			{
				"x": -0.7191882025,
				"y": 4.0351982697,
				"z": -3.2505807534,
				"element": "H" 
			},
			{
				"x": 0.4813252817,
				"y": 1.9893197915,
				"z": -2.1317926681,
				"element": "H" 
			},
			{
				"x": 0.281810436,
				"y": 2.0568253965,
				"z": -3.8691797217,
				"element": "H" 
			},
			{
				"x": -1.4860930756,
				"y": 0.400600759,
				"z": -2.0005793358,
				"element": "H" 
			},
			{
				"x": -1.7439689106,
				"y": 0.5937799189,
				"z": -3.717050635,
				"element": "H" 
			},
			{
				"x": -0.6093674742,
				"y": -1.5017000215,
				"z": -3.4116001888,
				"element": "H" 
			},
			{
				"x": 0.4579708834,
				"y": -0.3856085088,
				"z": -4.238168911,
				"element": "H" 
			},
			{
				"x": 1.8239411125,
				"y": -1.5688711678,
				"z": -2.7744955386,
				"element": "H" 
			},
			{
				"x": 1.6820203774,
				"y": -0.0054983747,
				"z": -2.018784322,
				"element": "H" 
			},
			{
				"x": -0.0542993871,
				"y": -2.4014888872,
				"z": -1.215102176,
				"element": "H" 
			},
			{
				"x": 1.5581025793,
				"y": -2.1821655882,
				"z": -0.5712127733,
				"element": "H" 
			},
			{
				"x": -0.7393049804,
				"y": -0.1971415222,
				"z": -0.1351841138,
				"element": "H" 
			},
			{
				"x": -0.233537067,
				"y": -1.4501449096,
				"z": 0.9758258165,
				"element": "H" 
			},
			{
				"x": 1.5227228631,
				"y": 0.8953506907,
				"z": 0.0736729903,
				"element": "H" 
			},
			{
				"x": 2.0311164817,
				"y": -0.4004591235,
				"z": 1.1468378046,
				"element": "H" 
			},
			{
				"x": -0.3383339817,
				"y": 1.4746608285,
				"z": 1.691539795,
				"element": "H" 
			},
			{
				"x": 0.2694074604,
				"y": 0.2538862484,
				"z": 2.7979205281,
				"element": "H" 
			},
			{
				"x": 1.8102516845,
				"y": 2.7314289405,
				"z": 1.8541864316,
				"element": "H" 
			},
			{
				"x": 0.9905436769,
				"y": 2.5693146416,
				"z": 3.4023247887,
				"element": "H" 
			},
			{
				"x": 3.4429195447,
				"y": 2.2674950555,
				"z": 3.6156942548,
				"element": "H" 
			},
			{
				"x": 3.4013953076,
				"y": 0.8872245435,
				"z": 2.4961456372,
				"element": "H" 
			}
		],
		 "valence_orbital": [ 
			{
				"type": "occ",
				"energy": -0.30023,
				"method": "rhf"
			},
			{
				"type": "occ",
				"energy": -0.27323,
				"method": "rhf"
			},
			{
				"type": "occ",
				"energy": -0.26979,
				"method": "rhf"
			},
			{
				"type": "occ",
				"energy": -0.26672,
				"method": "rhf"
			},
			{
				"type": "occ",
				"energy": -0.26511,
				"method": "rhf"
			},
			{
				"type": "unocc",
				"energy": 0.00024,
				"method": "rhf"
			},
			{
				"type": "unocc",
				"energy": 0.00842,
				"method": "rhf"
			},
			{
				"type": "unocc",
				"energy": 0.05948,
				"method": "rhf"
			},
			{
				"type": "unocc",
				"energy": 0.08518,
				"method": "rhf"
			},
			{
				"type": "unocc",
				"energy": 0.0901,
				"method": "rhf"
			}
		],
		"cosmo_sigma_profile": { 
			"-0.025": 0.0,
			"-0.024": 0.0,
			"-0.023": 0.0,
			"-0.022": 0.0,
			"-0.021": 0.0,
			"-0.02": 0.0,
			"-0.019": 0.0,
			"-0.018": 0.0,
			"-0.017": 0.0,
			"-0.016": 0.0,
			"-0.015": 0.0,
			"-0.014": 0.0,
			"-0.013": 0.0,
			"-0.012": 0.0,
			"-0.011": 0.0,
			"-0.01": 0.0,
			"-0.009": 0.0,
			"-0.008": 0.0,
			"-0.007": 1.96962383289,
			"-0.006": 8.09921457524,
			"-0.005": 10.6366364841,
			"-0.004": 19.4926840901,
			"-0.003": 24.9521057159,
			"-0.002": 37.9293232704,
			"-0.001": 49.2176332939,
			"0.0": 48.6616204809,
			"0.001": 42.2213429656,
			"0.002": 26.7771839124,
			"0.003": 14.1070038135,
			"0.004": 10.2626831614,
			"0.005": 11.0469721531,
			"0.006": 15.011831271,
			"0.007": 9.82765000724,
			"0.008": 0.0431441441746,
			"0.009": 0.0,
			"0.01": 0.0,
			"0.011": 0.0,
			"0.012": 0.0,
			"0.013": 0.0,
			"0.014": 0.0,
			"0.015": 0.0,
			"0.016": 0.0,
			"0.017": 0.0,
			"0.018": 0.0,
			"0.019": 0.0,
			"0.02": 0.0,
			"0.021": 0.0,
			"0.022": 0.0,
			"0.023": 0.0,
			"0.024": 0.0,
			"0.025": 0.0
		}
	}
}
