{
	 "smiles": "CC1=CC=C(C=C1)S(=O)(=O)OCC(O)C=C", 
	 "Tm": 333.15, 
	 "num_atms": 30, 
	 "gaussian": { 
		 "optdone": 1, 
		 "sigma_profile": "yes", 
		 "theory": "DFT", 
		 "functional": "B3LYP", 
		 "basiset": "6-31G**", 
		 "properties": { 
			 "R2extent": 5738.6996, 
			 "electric_dipole_moment_norm": 6.35989036541, 
			 "electric_quadrupole_moment_norm": 15.9491987937, 
			 "total_energy": -1126.59345272, 
			 "HOMO_LUMO_gap": 0.21079, 
			 "cosmo_polarized_energy": -15.43, 
			 "cosmo_cavitation_energy": 35.69, 
			 "cosmo_dispersion_energy": -25.36, 
			 "cosmo_repulsion_energy": 1.97, 
			 "cosmo_total_nonelectrostatic_energy": 12.29, 
			 "SMD_solvation_energy": 5.79 
		},
		"coords": [
			{
				"x": -3.174591876,
				"y": 3.3473187307,
				"z": 2.1367816194,
				"element": "C" 
			},
			{
				"x": -1.835665659,
				"y": 2.7047726646,
				"z": 1.8675937331,
				"element": "C" 
			},
			{
				"x": -0.9706961134,
				"y": 3.2380692997,
				"z": 0.8978838064,
				"element": "C" 
			},
			{
				"x": 0.2779878349,
				"y": 2.674064903,
				"z": 0.6572372841,
				"element": "C" 
			},
			{
				"x": 0.6680203825,
				"y": 1.5535404063,
				"z": 1.3964884429,
				"element": "C" 
			},
			{
				"x": -0.1672126777,
				"y": 1.0027880133,
				"z": 2.3689324973,
				"element": "C" 
			},
			{
				"x": -1.4149474775,
				"y": 1.5837302184,
				"z": 2.5951179026,
				"element": "C" 
			},
			{
				"x": 2.2618440045,
				"y": 0.815645843,
				"z": 1.0826720668,
				"element": "S" 
			},
			{
				"x": 2.5741474063,
				"y": -0.1074419572,
				"z": 2.1714086699,
				"element": "O" 
			},
			{
				"x": 3.1924711609,
				"y": 1.8464566921,
				"z": 0.6474526034,
				"element": "O" 
			},
			{
				"x": 1.9836785031,
				"y": -0.0605167856,
				"z": -0.2854537348,
				"element": "O" 
			},
			{
				"x": 1.336048644,
				"y": -1.3542872704,
				"z": -0.1555777321,
				"element": "C" 
			},
			{
				"x": 1.5072367355,
				"y": -2.0399654251,
				"z": -1.5147255308,
				"element": "C" 
			},
			{
				"x": 2.8774893273,
				"y": -2.2114337698,
				"z": -1.8093827345,
				"element": "O" 
			},
			{
				"x": 0.8089182871,
				"y": -3.3747621554,
				"z": -1.5061968587,
				"element": "C" 
			},
			{
				"x": 1.4280807981,
				"y": -4.5452855137,
				"z": -1.6435093973,
				"element": "C" 
			},
			{
				"x": -3.6541747278,
				"y": 3.6745519924,
				"z": 1.2091630448,
				"element": "H" 
			},
			{
				"x": -3.8537070575,
				"y": 2.6605517613,
				"z": 2.6489404298,
				"element": "H" 
			},
			{
				"x": -3.0608602149,
				"y": 4.233872968,
				"z": 2.7725289895,
				"element": "H" 
			},
			{
				"x": -1.2797787894,
				"y": 4.1099694799,
				"z": 0.3275540615,
				"element": "H" 
			},
			{
				"x": 0.9499859728,
				"y": 3.0974517619,
				"z": -0.0813440245,
				"element": "H" 
			},
			{
				"x": 0.1656072092,
				"y": 0.1464332898,
				"z": 2.9450273267,
				"element": "H" 
			},
			{
				"x": -2.0690115465,
				"y": 1.1612324102,
				"z": 3.3529532106,
				"element": "H" 
			},
			{
				"x": 1.830245139,
				"y": -1.9338919165,
				"z": 0.6273182048,
				"element": "H" 
			},
			{
				"x": 0.277805889,
				"y": -1.2097563683,
				"z": 0.0921054221,
				"element": "H" 
			},
			{
				"x": 1.0236105843,
				"y": -1.394749586,
				"z": -2.2707859319,
				"element": "H" 
			},
			{
				"x": 3.3047836899,
				"y": -1.3551192808,
				"z": -1.667622115,
				"element": "H" 
			},
			{
				"x": -0.2722280807,
				"y": -3.3299501307,
				"z": -1.3797380197,
				"element": "H" 
			},
			{
				"x": 0.8754382511,
				"y": -5.4796881806,
				"z": -1.6331264618,
				"element": "H" 
			},
			{
				"x": 2.5026744007,
				"y": -4.5945020945,
				"z": -1.7807967747,
				"element": "H" 
			}
		],
		 "valence_orbital": [ 
			{
				"type": "occ",
				"energy": -0.31023,
				"method": "rhf"
			},
			{
				"type": "occ",
				"energy": -0.28211,
				"method": "rhf"
			},
			{
				"type": "occ",
				"energy": -0.27766,
				"method": "rhf"
			},
			{
				"type": "occ",
				"energy": -0.27036,
				"method": "rhf"
			},
			{
				"type": "occ",
				"energy": -0.25776,
				"method": "rhf"
			},
			{
				"type": "unocc",
				"energy": -0.04697,
				"method": "rhf"
			},
			{
				"type": "unocc",
				"energy": -0.02858,
				"method": "rhf"
			},
			{
				"type": "unocc",
				"energy": 0.01114,
				"method": "rhf"
			},
			{
				"type": "unocc",
				"energy": 0.04332,
				"method": "rhf"
			},
			{
				"type": "unocc",
				"energy": 0.07067,
				"method": "rhf"
			}
		],
		"cosmo_sigma_profile": { 
			"-0.025": 0.0,
			"-0.024": 0.0,
			"-0.023": 0.0,
			"-0.022": 0.0,
			"-0.021": 0.0,
			"-0.02": 0.0,
			"-0.019": 0.0,
			"-0.018": 0.0,
			"-0.017": 0.0,
			"-0.016": 0.0,
			"-0.015": 0.0,
			"-0.014": 0.41880728754,
			"-0.013": 0.391013033271,
			"-0.012": 0.810681820034,
			"-0.011": 0.674522086642,
			"-0.01": 0.934551214678,
			"-0.009": 0.575214667835,
			"-0.008": 1.50486471462,
			"-0.007": 8.48180592333,
			"-0.006": 16.8225053575,
			"-0.005": 25.214717654,
			"-0.004": 24.7838654795,
			"-0.003": 21.7809415574,
			"-0.002": 23.8116517485,
			"-0.001": 23.3428975772,
			"0.0": 19.5433548107,
			"0.001": 17.6249906094,
			"0.002": 17.3278508615,
			"0.003": 16.8002627866,
			"0.004": 8.09320482193,
			"0.005": 7.8395288652,
			"0.006": 7.62654854537,
			"0.007": 6.25134936816,
			"0.008": 5.68894437359,
			"0.009": 8.0977078185,
			"0.01": 11.7969735587,
			"0.011": 5.157418991,
			"0.012": 0.822876440219,
			"0.013": 0.647713751529,
			"0.014": 0.0927238803795,
			"0.015": 0.0,
			"0.016": 0.0,
			"0.017": 0.0,
			"0.018": 0.0,
			"0.019": 0.0,
			"0.02": 0.0,
			"0.021": 0.0,
			"0.022": 0.0,
			"0.023": 0.0,
			"0.024": 0.0,
			"0.025": 0.0
		}
	}
}
