{
	 "smiles": "[O-][N+]1=C(C(=O)C2=CC=C(C=C12)C#N)C1=CC(=CC=C1)C1=[N+]([O-])C2=C(C=CC(=C2)C#N)C1=O", 
	 "Tm": 568.15, 
	 "num_atms": 42, 
	 "gaussian": { 
		 "optdone": 1, 
		 "sigma_profile": "yes", 
		 "theory": "DFT", 
		 "functional": "B3LYP", 
		 "basiset": "6-31G**", 
		 "properties": { 
			 "R2extent": 22606.0396, 
			 "electric_dipole_moment_norm": 2.39170218464, 
			 "electric_quadrupole_moment_norm": 68.3500642849, 
			 "total_energy": -1440.31081934, 
			 "HOMO_LUMO_gap": 0.10067, 
			 "cosmo_polarized_energy": -24.56, 
			 "cosmo_cavitation_energy": 51.98, 
			 "cosmo_dispersion_energy": -35.96, 
			 "cosmo_repulsion_energy": 2.54, 
			 "cosmo_total_nonelectrostatic_energy": 18.56, 
			 "SMD_solvation_energy": 13.61 
		},
		"coords": [
			{
				"x": -1.5073167024,
				"y": -5.2161461858,
				"z": -1.9790367161,
				"element": "O" 
			},
			{
				"x": -0.4495893702,
				"y": -4.8192005941,
				"z": -1.4206251248,
				"element": "N" 
			},
			{
				"x": -0.0322169764,
				"y": -3.5689816288,
				"z": -1.1436549271,
				"element": "C" 
			},
			{
				"x": 1.3048510008,
				"y": -3.682975101,
				"z": -0.479544936,
				"element": "C" 
			},
			{
				"x": 2.0293646639,
				"y": -2.787188035,
				"z": -0.0859143893,
				"element": "O" 
			},
			{
				"x": 1.5988103887,
				"y": -5.1491148953,
				"z": -0.3956647537,
				"element": "C" 
			},
			{
				"x": 2.6666075626,
				"y": -5.8699096703,
				"z": 0.1128724828,
				"element": "C" 
			},
			{
				"x": 2.6119463681,
				"y": -7.2679111935,
				"z": 0.0211683515,
				"element": "C" 
			},
			{
				"x": 1.5075266596,
				"y": -7.9092927457,
				"z": -0.5692880659,
				"element": "C" 
			},
			{
				"x": 0.4183137551,
				"y": -7.16938086,
				"z": -1.088874598,
				"element": "C" 
			},
			{
				"x": 0.5222995133,
				"y": -5.8043404532,
				"z": -0.9731552119,
				"element": "C" 
			},
			{
				"x": 1.4853623797,
				"y": -9.3414362897,
				"z": -0.6464815748,
				"element": "C" 
			},
			{
				"x": 1.4697689383,
				"y": -10.5026294924,
				"z": -0.7079213479,
				"element": "N" 
			},
			{
				"x": -0.7674340352,
				"y": -2.3517082869,
				"z": -1.462510389,
				"element": "C" 
			},
			{
				"x": -0.2797178829,
				"y": -1.1153060868,
				"z": -0.9965758281,
				"element": "C" 
			},
			{
				"x": -0.9555712963,
				"y": 0.0851718683,
				"z": -1.2894015695,
				"element": "C" 
			},
			{
				"x": -2.1353859623,
				"y": 0.0371473451,
				"z": -2.0669678272,
				"element": "C" 
			},
			{
				"x": -2.6152912867,
				"y": -1.1874276726,
				"z": -2.5198579403,
				"element": "C" 
			},
			{
				"x": -1.955124843,
				"y": -2.3768056346,
				"z": -2.2290761003,
				"element": "C" 
			},
			{
				"x": -0.4212077481,
				"y": 1.341625276,
				"z": -0.7797602186,
				"element": "C" 
			},
			{
				"x": -0.8976398335,
				"y": 2.5642121186,
				"z": -1.0835048129,
				"element": "N" 
			},
			{
				"x": -1.851915056,
				"y": 2.8990683891,
				"z": -1.8354401609,
				"element": "O" 
			},
			{
				"x": -0.1402689612,
				"y": 3.6027053496,
				"z": -0.4028885833,
				"element": "C" 
			},
			{
				"x": 0.8503960905,
				"y": 3.011317344,
				"z": 0.3655684775,
				"element": "C" 
			},
			{
				"x": 1.7138327279,
				"y": 3.7917083444,
				"z": 1.116440992,
				"element": "C" 
			},
			{
				"x": 1.5462996338,
				"y": 5.1828001478,
				"z": 1.0654746406,
				"element": "C" 
			},
			{
				"x": 0.5331347118,
				"y": 5.7587949535,
				"z": 0.2771396684,
				"element": "C" 
			},
			{
				"x": -0.3481718587,
				"y": 4.958072515,
				"z": -0.4883472372,
				"element": "C" 
			},
			{
				"x": 0.3904570361,
				"y": 7.1857988422,
				"z": 0.2491012769,
				"element": "C" 
			},
			{
				"x": 0.2767891672,
				"y": 8.342961547,
				"z": 0.2280863924,
				"element": "N" 
			},
			{
				"x": 0.719806294,
				"y": 1.5321284404,
				"z": 0.1708233062,
				"element": "C" 
			},
			{
				"x": 1.4111494144,
				"y": 0.6800800857,
				"z": 0.6984234443,
				"element": "O" 
			},
			{
				"x": 3.5136103952,
				"y": -5.365899921,
				"z": 0.5659862509,
				"element": "H" 
			},
			{
				"x": 3.4253762105,
				"y": -7.8726708711,
				"z": 0.4066146889,
				"element": "H" 
			},
			{
				"x": -0.4416025785,
				"y": -7.6407694828,
				"z": -1.5481709362,
				"element": "H" 
			},
			{
				"x": 0.6252613017,
				"y": -1.0873503878,
				"z": -0.4064154215,
				"element": "H" 
			},
			{
				"x": -2.6563447687,
				"y": 0.9539553139,
				"z": -2.3026826231,
				"element": "H" 
			},
			{
				"x": -3.5244621811,
				"y": -1.2154923824,
				"z": -3.1128559004,
				"element": "H" 
			},
			{
				"x": -2.3405597559,
				"y": -3.3216150794,
				"z": -2.5844210125,
				"element": "H" 
			},
			{
				"x": 2.4916445547,
				"y": 3.3378879255,
				"z": 1.7212623664,
				"element": "H" 
			},
			{
				"x": 2.1998102522,
				"y": 5.8328236212,
				"z": 1.636757472,
				"element": "H" 
			},
			{
				"x": -1.1353979227,
				"y": 5.3785935227,
				"z": -1.1015816043,
				"element": "H" 
			}
		],
		 "valence_orbital": [ 
			{
				"type": "occ",
				"energy": -0.28989,
				"method": "rhf"
			},
			{
				"type": "occ",
				"energy": -0.28353,
				"method": "rhf"
			},
			{
				"type": "occ",
				"energy": -0.2791,
				"method": "rhf"
			},
			{
				"type": "occ",
				"energy": -0.24108,
				"method": "rhf"
			},
			{
				"type": "occ",
				"energy": -0.23269,
				"method": "rhf"
			},
			{
				"type": "unocc",
				"energy": -0.13202,
				"method": "rhf"
			},
			{
				"type": "unocc",
				"energy": -0.13149,
				"method": "rhf"
			},
			{
				"type": "unocc",
				"energy": -0.08363,
				"method": "rhf"
			},
			{
				"type": "unocc",
				"energy": -0.07869,
				"method": "rhf"
			},
			{
				"type": "unocc",
				"energy": -0.03914,
				"method": "rhf"
			}
		],
		"cosmo_sigma_profile": { 
			"-0.025": 0.0,
			"-0.024": 0.0,
			"-0.023": 0.0,
			"-0.022": 0.0,
			"-0.021": 0.0,
			"-0.02": 0.0,
			"-0.019": 0.0,
			"-0.018": 0.0,
			"-0.017": 0.0,
			"-0.016": 0.0,
			"-0.015": 0.0,
			"-0.014": 0.0,
			"-0.013": 0.0,
			"-0.012": 0.0,
			"-0.011": 0.0215918454066,
			"-0.01": 2.63073501253,
			"-0.009": 12.4445496161,
			"-0.008": 16.0681279841,
			"-0.007": 16.4257506308,
			"-0.006": 17.9121215821,
			"-0.005": 20.8734719386,
			"-0.004": 28.0454465878,
			"-0.003": 38.3094599456,
			"-0.002": 45.7671902663,
			"-0.001": 34.2842139701,
			"0.0": 23.2092414532,
			"0.001": 19.5462771673,
			"0.002": 25.7529738055,
			"0.003": 18.0012632422,
			"0.004": 10.4262248143,
			"0.005": 9.53250187111,
			"0.006": 13.1632089907,
			"0.007": 12.8708360981,
			"0.008": 16.8342075054,
			"0.009": 21.0419263986,
			"0.01": 12.6699687499,
			"0.011": 5.55310044001,
			"0.012": 3.86378815775,
			"0.013": 0.362190790543,
			"0.014": 0.0,
			"0.015": 0.0,
			"0.016": 0.0,
			"0.017": 0.0,
			"0.018": 0.0,
			"0.019": 0.0,
			"0.02": 0.0,
			"0.021": 0.0,
			"0.022": 0.0,
			"0.023": 0.0,
			"0.024": 0.0,
			"0.025": 0.0
		}
	}
}
