{
	 "smiles": "OC(=O)C1=C(C=C(Br)C=C1)N1C=NC=N1", 
	 "Tm": 567.15, 
	 "num_atms": 21, 
	 "gaussian": { 
		 "optdone": 1, 
		 "sigma_profile": "yes", 
		 "theory": "DFT", 
		 "functional": "B3LYP", 
		 "basiset": "6-31G**", 
		 "properties": { 
			 "R2extent": 6609.7148, 
			 "electric_dipole_moment_norm": 3.95825237952, 
			 "electric_quadrupole_moment_norm": 15.418190746, 
			 "total_energy": -3232.66770305, 
			 "HOMO_LUMO_gap": 0.19315, 
			 "cosmo_polarized_energy": -15.7, 
			 "cosmo_cavitation_energy": 28.57, 
			 "cosmo_dispersion_energy": -21.36, 
			 "cosmo_repulsion_energy": 1.64, 
			 "cosmo_total_nonelectrostatic_energy": 8.85, 
			 "SMD_solvation_energy": 3.49 
		},
		"coords": [
			{
				"x": 2.2373285265,
				"y": 1.5638762096,
				"z": -1.2667282713,
				"element": "O" 
			},
			{
				"x": 1.1825673705,
				"y": 2.1382126162,
				"z": -1.8407522463,
				"element": "C" 
			},
			{
				"x": 1.2728274908,
				"y": 2.664747676,
				"z": -2.9299862184,
				"element": "O" 
			},
			{
				"x": -0.1499426841,
				"y": 2.1903141698,
				"z": -1.1000953572,
				"element": "C" 
			},
			{
				"x": -0.6850962052,
				"y": 1.2885035421,
				"z": -0.1547511357,
				"element": "C" 
			},
			{
				"x": -1.9634296344,
				"y": 1.4838666589,
				"z": 0.3829577616,
				"element": "C" 
			},
			{
				"x": -2.7299773595,
				"y": 2.5699043631,
				"z": -0.0239711071,
				"element": "C" 
			},
			{
				"x": -4.462585784,
				"y": 2.8180291603,
				"z": 0.7225640013,
				"element": "Br" 
			},
			{
				"x": -2.2353285187,
				"y": 3.4754798121,
				"z": -0.9592635002,
				"element": "C" 
			},
			{
				"x": -0.9638918419,
				"y": 3.2692852314,
				"z": -1.4809699621,
				"element": "C" 
			},
			{
				"x": -0.0082951244,
				"y": 0.1108713975,
				"z": 0.2896843159,
				"element": "N" 
			},
			{
				"x": -0.5108668609,
				"y": -1.1398133826,
				"z": 0.4588017582,
				"element": "C" 
			},
			{
				"x": 0.392700744,
				"y": -1.938150105,
				"z": 0.9966585801,
				"element": "N" 
			},
			{
				"x": 1.4669273194,
				"y": -1.1211449493,
				"z": 1.1497618802,
				"element": "C" 
			},
			{
				"x": 1.2771758136,
				"y": 0.1277946748,
				"z": 0.7483066006,
				"element": "N" 
			},
			{
				"x": 2.0336546189,
				"y": 1.1707577998,
				"z": -0.38164083,
				"element": "H" 
			},
			{
				"x": -2.3429270786,
				"y": 0.7983824527,
				"z": 1.1307062335,
				"element": "H" 
			},
			{
				"x": -2.8324716733,
				"y": 4.3226773593,
				"z": -1.2753067014,
				"element": "H" 
			},
			{
				"x": -0.5664264916,
				"y": 3.943003124,
				"z": -2.231165951,
				"element": "H" 
			},
			{
				"x": -1.5137038957,
				"y": -1.4107234761,
				"z": 0.1611753553,
				"element": "H" 
			},
			{
				"x": 2.4119612686,
				"y": -1.4445743345,
				"z": 1.563214794,
				"element": "H" 
			}
		],
		 "valence_orbital": [ 
			{
				"type": "occ",
				"energy": -0.30947,
				"method": "rhf"
			},
			{
				"type": "occ",
				"energy": -0.30501,
				"method": "rhf"
			},
			{
				"type": "occ",
				"energy": -0.28711,
				"method": "rhf"
			},
			{
				"type": "occ",
				"energy": -0.2755,
				"method": "rhf"
			},
			{
				"type": "occ",
				"energy": -0.26552,
				"method": "rhf"
			},
			{
				"type": "unocc",
				"energy": -0.07237,
				"method": "rhf"
			},
			{
				"type": "unocc",
				"energy": -0.05451,
				"method": "rhf"
			},
			{
				"type": "unocc",
				"energy": -0.02507,
				"method": "rhf"
			},
			{
				"type": "unocc",
				"energy": -0.01241,
				"method": "rhf"
			},
			{
				"type": "unocc",
				"energy": 0.01824,
				"method": "rhf"
			}
		],
		"cosmo_sigma_profile": { 
			"-0.025": 0.0,
			"-0.024": 0.0,
			"-0.023": 0.0,
			"-0.022": 0.0,
			"-0.021": 0.0,
			"-0.02": 0.0,
			"-0.019": 0.0,
			"-0.018": 0.0,
			"-0.017": 0.0,
			"-0.016": 0.0,
			"-0.015": 0.0,
			"-0.014": 0.0,
			"-0.013": 0.0,
			"-0.012": 0.824287809751,
			"-0.011": 2.95397069653,
			"-0.01": 4.90841167202,
			"-0.009": 5.67543212871,
			"-0.008": 7.30042359144,
			"-0.007": 8.30486843341,
			"-0.006": 10.8168988579,
			"-0.005": 11.994098146,
			"-0.004": 13.8732499196,
			"-0.003": 13.7435108066,
			"-0.002": 16.0416291567,
			"-0.001": 21.1066276253,
			"0.0": 21.8498651356,
			"0.001": 15.0258524121,
			"0.002": 13.3884579542,
			"0.003": 14.4173850018,
			"0.004": 9.22687242702,
			"0.005": 4.67325653085,
			"0.006": 4.37912007489,
			"0.007": 4.05203716601,
			"0.008": 3.65615245582,
			"0.009": 4.23391352601,
			"0.01": 4.6539262858,
			"0.011": 6.1526498288,
			"0.012": 6.69489329402,
			"0.013": 2.9432223454,
			"0.014": 1.23206604274,
			"0.015": 0.844099521622,
			"0.016": 0.00760595155363,
			"0.017": 0.0,
			"0.018": 0.0,
			"0.019": 0.0,
			"0.02": 0.0,
			"0.021": 0.0,
			"0.022": 0.0,
			"0.023": 0.0,
			"0.024": 0.0,
			"0.025": 0.0
		}
	}
}
