{
	 "smiles": "ClC1=C(Cl)N=CC(=C1)C(=O)N1CCCCC1", 
	 "Tm": 352.15, 
	 "num_atms": 28, 
	 "gaussian": { 
		 "optdone": 1, 
		 "sigma_profile": "yes", 
		 "theory": "DFT", 
		 "functional": "B3LYP", 
		 "basiset": "6-31G**", 
		 "properties": { 
			 "R2extent": 10277.3402, 
			 "electric_dipole_moment_norm": 4.99301781491, 
			 "electric_quadrupole_moment_norm": 14.9434954867, 
			 "total_energy": -1531.52070828, 
			 "HOMO_LUMO_gap": 0.18916, 
			 "cosmo_polarized_energy": -11.47, 
			 "cosmo_cavitation_energy": 34.03, 
			 "cosmo_dispersion_energy": -25.17, 
			 "cosmo_repulsion_energy": 1.97, 
			 "cosmo_total_nonelectrostatic_energy": 10.83, 
			 "SMD_solvation_energy": 2.96 
		},
		"coords": [
			{
				"x": 6.3540003326,
				"y": 0.3834300648,
				"z": 1.4125033378,
				"element": "Cl" 
			},
			{
				"x": 4.8374642436,
				"y": -0.2940040994,
				"z": 1.9368998127,
				"element": "C" 
			},
			{
				"x": 4.584003613,
				"y": -0.6251461797,
				"z": 3.2819119841,
				"element": "C" 
			},
			{
				"x": 5.7963625536,
				"y": -0.3480446514,
				"z": 4.5115322753,
				"element": "Cl" 
			},
			{
				"x": 3.4459458085,
				"y": -1.1591866353,
				"z": 3.6849674633,
				"element": "N" 
			},
			{
				"x": 2.4775568433,
				"y": -1.3715282417,
				"z": 2.7869575035,
				"element": "C" 
			},
			{
				"x": 2.6076371768,
				"y": -1.0597688657,
				"z": 1.4307852788,
				"element": "C" 
			},
			{
				"x": 3.8335640924,
				"y": -0.5339704958,
				"z": 1.0069979203,
				"element": "C" 
			},
			{
				"x": 1.5864799267,
				"y": -1.3892741206,
				"z": 0.3713652314,
				"element": "C" 
			},
			{
				"x": 1.9766363696,
				"y": -1.8148859312,
				"z": -0.7162095342,
				"element": "O" 
			},
			{
				"x": 0.2551121107,
				"y": -1.2451654308,
				"z": 0.6538134219,
				"element": "N" 
			},
			{
				"x": -0.3015958095,
				"y": -0.4063992855,
				"z": 1.729229383,
				"element": "C" 
			},
			{
				"x": -1.4343618335,
				"y": 0.4723118236,
				"z": 1.1849723272,
				"element": "C" 
			},
			{
				"x": -2.5984288028,
				"y": -0.3775328224,
				"z": 0.6236429214,
				"element": "C" 
			},
			{
				"x": -2.1029906791,
				"y": -1.761961492,
				"z": 0.1510974723,
				"element": "C" 
			},
			{
				"x": -0.6772924914,
				"y": -1.7019361258,
				"z": -0.3959368292,
				"element": "C" 
			},
			{
				"x": 1.5723377315,
				"y": -1.8322150124,
				"z": 3.1724298023,
				"element": "H" 
			},
			{
				"x": 3.9940589515,
				"y": -0.3319302658,
				"z": -0.0458807976,
				"element": "H" 
			},
			{
				"x": -0.6794892875,
				"y": -1.0313266551,
				"z": 2.5511061621,
				"element": "H" 
			},
			{
				"x": 0.4935331579,
				"y": 0.2183162838,
				"z": 2.1381462927,
				"element": "H" 
			},
			{
				"x": -1.0196064218,
				"y": 1.1144483336,
				"z": 0.3994315361,
				"element": "H" 
			},
			{
				"x": -1.7840996848,
				"y": 1.1377848666,
				"z": 1.9812453632,
				"element": "H" 
			},
			{
				"x": -3.3748780879,
				"y": -0.5099213469,
				"z": 1.384998838,
				"element": "H" 
			},
			{
				"x": -3.0690774342,
				"y": 0.1583300284,
				"z": -0.2078091865,
				"element": "H" 
			},
			{
				"x": -2.1292302962,
				"y": -2.4761546325,
				"z": 0.9829819583,
				"element": "H" 
			},
			{
				"x": -2.7641994527,
				"y": -2.1660948493,
				"z": -0.6220486023,
				"element": "H" 
			},
			{
				"x": -0.6200449,
				"y": -1.0303898095,
				"z": -1.2641312193,
				"element": "H" 
			},
			{
				"x": -0.3371977303,
				"y": -2.6803844518,
				"z": -0.7425001168,
				"element": "H" 
			}
		],
		 "valence_orbital": [ 
			{
				"type": "occ",
				"energy": -0.29894,
				"method": "rhf"
			},
			{
				"type": "occ",
				"energy": -0.28923,
				"method": "rhf"
			},
			{
				"type": "occ",
				"energy": -0.26513,
				"method": "rhf"
			},
			{
				"type": "occ",
				"energy": -0.2563,
				"method": "rhf"
			},
			{
				"type": "occ",
				"energy": -0.24637,
				"method": "rhf"
			},
			{
				"type": "unocc",
				"energy": -0.05721,
				"method": "rhf"
			},
			{
				"type": "unocc",
				"energy": -0.0465,
				"method": "rhf"
			},
			{
				"type": "unocc",
				"energy": 0.00387,
				"method": "rhf"
			},
			{
				"type": "unocc",
				"energy": 0.0326,
				"method": "rhf"
			},
			{
				"type": "unocc",
				"energy": 0.05221,
				"method": "rhf"
			}
		],
		"cosmo_sigma_profile": { 
			"-0.025": 0.0,
			"-0.024": 0.0,
			"-0.023": 0.0,
			"-0.022": 0.0,
			"-0.021": 0.0,
			"-0.02": 0.0,
			"-0.019": 0.0,
			"-0.018": 0.0,
			"-0.017": 0.0,
			"-0.016": 0.0,
			"-0.015": 0.0,
			"-0.014": 0.0,
			"-0.013": 0.0,
			"-0.012": 0.0,
			"-0.011": 0.0,
			"-0.01": 0.0,
			"-0.009": 0.308822277939,
			"-0.008": 2.82908144848,
			"-0.007": 3.69014367788,
			"-0.006": 5.26226196901,
			"-0.005": 8.80926148076,
			"-0.004": 21.8427246624,
			"-0.003": 40.1466818625,
			"-0.002": 44.0424636036,
			"-0.001": 30.8624996235,
			"0.0": 22.4840632162,
			"0.001": 15.506417324,
			"0.002": 13.362600188,
			"0.003": 17.8257952352,
			"0.004": 15.0191257187,
			"0.005": 5.2698698457,
			"0.006": 2.7051015984,
			"0.007": 3.08546157169,
			"0.008": 2.61678636899,
			"0.009": 3.20771688046,
			"0.01": 1.50639746652,
			"0.011": 2.78848091255,
			"0.012": 2.97738480487,
			"0.013": 4.71767409772,
			"0.014": 2.95682262058,
			"0.015": 0.00482986538093,
			"0.016": 0.0,
			"0.017": 0.0,
			"0.018": 0.0,
			"0.019": 0.0,
			"0.02": 0.0,
			"0.021": 0.0,
			"0.022": 0.0,
			"0.023": 0.0,
			"0.024": 0.0,
			"0.025": 0.0
		}
	}
}
