{
	 "smiles": "OC(=O)CCCCCCCCC=CC(O)=O", 
	 "Tm": 439.15, 
	 "num_atms": 36, 
	 "gaussian": { 
		 "optdone": 1, 
		 "sigma_profile": "yes", 
		 "theory": "DFT", 
		 "functional": "B3LYP", 
		 "basiset": "6-31G**", 
		 "properties": { 
			 "R2extent": 7370.3853, 
			 "electric_dipole_moment_norm": 6.08938374222, 
			 "electric_quadrupole_moment_norm": 28.0706758488, 
			 "total_energy": -770.248953841, 
			 "HOMO_LUMO_gap": 0.21898, 
			 "cosmo_polarized_energy": -21.23, 
			 "cosmo_cavitation_energy": 39.72, 
			 "cosmo_dispersion_energy": -26.48, 
			 "cosmo_repulsion_energy": 2.18, 
			 "cosmo_total_nonelectrostatic_energy": 15.42, 
			 "SMD_solvation_energy": 8.11 
		},
		"coords": [
			{
				"x": 2.6931803814,
				"y": -3.3228155889,
				"z": -4.0580882477,
				"element": "O" 
			},
			{
				"x": 2.0794265362,
				"y": -3.694094778,
				"z": -2.9046145679,
				"element": "C" 
			},
			{
				"x": 0.945717563,
				"y": -4.1222897648,
				"z": -2.885372222,
				"element": "O" 
			},
			{
				"x": 2.96549883,
				"y": -3.4631770502,
				"z": -1.7014010224,
				"element": "C" 
			},
			{
				"x": 3.0060366824,
				"y": -1.9743268138,
				"z": -1.2898460924,
				"element": "C" 
			},
			{
				"x": 1.6575494553,
				"y": -1.4318394254,
				"z": -0.798358471,
				"element": "C" 
			},
			{
				"x": 1.72024672,
				"y": 0.053746214,
				"z": -0.4163882257,
				"element": "C" 
			},
			{
				"x": 0.4163041828,
				"y": 0.6169407325,
				"z": 0.1741389828,
				"element": "C" 
			},
			{
				"x": -0.7605240473,
				"y": 0.6486912766,
				"z": -0.8142201139,
				"element": "C" 
			},
			{
				"x": -2.0309356402,
				"y": 1.3569085176,
				"z": -0.3103751381,
				"element": "C" 
			},
			{
				"x": -2.8860648974,
				"y": 0.5799760822,
				"z": 0.7159975384,
				"element": "C" 
			},
			{
				"x": -2.306337,
				"y": 0.4751294109,
				"z": 2.0973895705,
				"element": "C" 
			},
			{
				"x": -2.2385158789,
				"y": -0.6458458177,
				"z": 2.8292485207,
				"element": "C" 
			},
			{
				"x": -1.7576027459,
				"y": -0.7308756135,
				"z": 4.2352086258,
				"element": "C" 
			},
			{
				"x": -0.925937771,
				"y": 0.2569619362,
				"z": 4.6740015036,
				"element": "O" 
			},
			{
				"x": -2.0834457781,
				"y": -1.6237285086,
				"z": 4.9819675665,
				"element": "O" 
			},
			{
				"x": 2.0451686461,
				"y": -3.4742428038,
				"z": -4.7666911414,
				"element": "H" 
			},
			{
				"x": 3.9779067533,
				"y": -3.8037164596,
				"z": -1.940581673,
				"element": "H" 
			},
			{
				"x": 2.5730537952,
				"y": -4.0741359099,
				"z": -0.884333678,
				"element": "H" 
			},
			{
				"x": 3.362426872,
				"y": -1.3801376403,
				"z": -2.1404076352,
				"element": "H" 
			},
			{
				"x": 3.7558985075,
				"y": -1.8618754328,
				"z": -0.4970118487,
				"element": "H" 
			},
			{
				"x": 1.3294508138,
				"y": -2.0182521812,
				"z": 0.071528663,
				"element": "H" 
			},
			{
				"x": 0.8965471744,
				"y": -1.5908381575,
				"z": -1.5714891308,
				"element": "H" 
			},
			{
				"x": 2.5273762544,
				"y": 0.1978096048,
				"z": 0.3147234519,
				"element": "H" 
			},
			{
				"x": 2.0030343396,
				"y": 0.6447012111,
				"z": -1.2994816188,
				"element": "H" 
			},
			{
				"x": 0.6055181664,
				"y": 1.6413216879,
				"z": 0.5251923583,
				"element": "H" 
			},
			{
				"x": 0.1446046785,
				"y": 0.0320100366,
				"z": 1.0613544503,
				"element": "H" 
			},
			{
				"x": -0.4267503779,
				"y": 1.1615033788,
				"z": -1.7268952715,
				"element": "H" 
			},
			{
				"x": -1.0229094766,
				"y": -0.3717341857,
				"z": -1.1220289195,
				"element": "H" 
			},
			{
				"x": -2.6750358488,
				"y": 1.5625020959,
				"z": -1.1736023153,
				"element": "H" 
			},
			{
				"x": -1.7660609593,
				"y": 2.3391510779,
				"z": 0.1065375781,
				"element": "H" 
			},
			{
				"x": -3.1141681431,
				"y": -0.4219487913,
				"z": 0.3329948855,
				"element": "H" 
			},
			{
				"x": -3.8496390316,
				"y": 1.1037461409,
				"z": 0.8050022646,
				"element": "H" 
			},
			{
				"x": -1.9718677,
				"y": 1.4212581281,
				"z": 2.5303321953,
				"element": "H" 
			},
			{
				"x": -2.6244933135,
				"y": -1.5854782214,
				"z": 2.4432008727,
				"element": "H" 
			},
			{
				"x": -0.6316577429,
				"y": 0.7942956121,
				"z": 3.9256683055,
				"element": "H" 
			}
		],
		 "valence_orbital": [ 
			{
				"type": "occ",
				"energy": -0.31656,
				"method": "rhf"
			},
			{
				"type": "occ",
				"energy": -0.31219,
				"method": "rhf"
			},
			{
				"type": "occ",
				"energy": -0.27768,
				"method": "rhf"
			},
			{
				"type": "occ",
				"energy": -0.27286,
				"method": "rhf"
			},
			{
				"type": "occ",
				"energy": -0.26434,
				"method": "rhf"
			},
			{
				"type": "unocc",
				"energy": -0.04536,
				"method": "rhf"
			},
			{
				"type": "unocc",
				"energy": 0.00513,
				"method": "rhf"
			},
			{
				"type": "unocc",
				"energy": 0.05431,
				"method": "rhf"
			},
			{
				"type": "unocc",
				"energy": 0.07116,
				"method": "rhf"
			},
			{
				"type": "unocc",
				"energy": 0.07195,
				"method": "rhf"
			}
		],
		"cosmo_sigma_profile": { 
			"-0.025": 0.0,
			"-0.024": 0.0,
			"-0.023": 0.0,
			"-0.022": 0.0,
			"-0.021": 0.0,
			"-0.02": 0.0,
			"-0.019": 0.0,
			"-0.018": 0.318891055421,
			"-0.017": 1.56310988648,
			"-0.016": 1.89876020479,
			"-0.015": 1.5781310719,
			"-0.014": 1.77051635244,
			"-0.013": 1.63040660995,
			"-0.012": 1.24637714852,
			"-0.011": 2.32011266449,
			"-0.01": 2.47892982851,
			"-0.009": 1.48274315885,
			"-0.008": 1.88440757901,
			"-0.007": 3.002113034,
			"-0.006": 6.02770635249,
			"-0.005": 11.7176646885,
			"-0.004": 15.9053059121,
			"-0.003": 27.3871754135,
			"-0.002": 48.18204211,
			"-0.001": 46.5653261812,
			"0.0": 33.4811681079,
			"0.001": 21.4641482908,
			"0.002": 8.06036830685,
			"0.003": 6.11574432737,
			"0.004": 5.3046516466,
			"0.005": 4.33035837607,
			"0.006": 3.94304232059,
			"0.007": 5.87125619014,
			"0.008": 5.1405209113,
			"0.009": 5.24863314787,
			"0.01": 6.52339182319,
			"0.011": 7.89153804779,
			"0.012": 11.4567046312,
			"0.013": 5.86519996958,
			"0.014": 0.698739216722,
			"0.015": 0.0,
			"0.016": 0.0,
			"0.017": 0.0,
			"0.018": 0.0,
			"0.019": 0.0,
			"0.02": 0.0,
			"0.021": 0.0,
			"0.022": 0.0,
			"0.023": 0.0,
			"0.024": 0.0,
			"0.025": 0.0
		}
	}
}
