{
	 "smiles": "CCC=CCCO", 
	 "Tm": 211.65, 
	 "num_atms": 19, 
	 "gaussian": { 
		 "optdone": 1, 
		 "sigma_profile": "yes", 
		 "theory": "DFT", 
		 "functional": "B3LYP", 
		 "basiset": "6-31G**", 
		 "properties": { 
			 "R2extent": 2057.908, 
			 "electric_dipole_moment_norm": 1.8267882718, 
			 "electric_quadrupole_moment_norm": 9.95783027823, 
			 "total_energy": -311.072457269, 
			 "HOMO_LUMO_gap": 0.26545, 
			 "cosmo_polarized_energy": -6.41, 
			 "cosmo_cavitation_energy": 21.7, 
			 "cosmo_dispersion_energy": -15.81, 
			 "cosmo_repulsion_energy": 1.39, 
			 "cosmo_total_nonelectrostatic_energy": 7.29, 
			 "SMD_solvation_energy": 3.77 
		},
		"coords": [
			{
				"x": 2.036500657,
				"y": -0.1590050558,
				"z": -0.1131940671,
				"element": "C" 
			},
			{
				"x": 1.2849673233,
				"y": -1.3921070767,
				"z": -0.6192380321,
				"element": "C" 
			},
			{
				"x": 0.1246445314,
				"y": -1.852735623,
				"z": 0.2261543793,
				"element": "C" 
			},
			{
				"x": -0.3046196797,
				"y": -1.3070286725,
				"z": 1.3677731367,
				"element": "C" 
			},
			{
				"x": -1.4796971537,
				"y": -1.7997844533,
				"z": 2.1678090958,
				"element": "C" 
			},
			{
				"x": -2.627791031,
				"y": -0.7783780973,
				"z": 2.2249278091,
				"element": "C" 
			},
			{
				"x": -3.6845137102,
				"y": -1.1831641076,
				"z": 3.0840232373,
				"element": "O" 
			},
			{
				"x": 2.8562921414,
				"y": 0.0981704228,
				"z": -0.7907978123,
				"element": "H" 
			},
			{
				"x": 1.3750041482,
				"y": 0.7109476551,
				"z": -0.0438789753,
				"element": "H" 
			},
			{
				"x": 2.4655862229,
				"y": -0.3323598044,
				"z": 0.8792510318,
				"element": "H" 
			},
			{
				"x": 1.9893991261,
				"y": -2.2303860233,
				"z": -0.727779921,
				"element": "H" 
			},
			{
				"x": 0.9169992867,
				"y": -1.2029860266,
				"z": -1.6388063482,
				"element": "H" 
			},
			{
				"x": -0.4002267025,
				"y": -2.7318325843,
				"z": -0.1537184724,
				"element": "H" 
			},
			{
				"x": 0.2034789458,
				"y": -0.429005492,
				"z": 1.766691961,
				"element": "H" 
			},
			{
				"x": -1.8539390762,
				"y": -2.741011314,
				"z": 1.7417794255,
				"element": "H" 
			},
			{
				"x": -1.1785968187,
				"y": -2.0146098856,
				"z": 3.2021904978,
				"element": "H" 
			},
			{
				"x": -2.2617311682,
				"y": 0.1702323612,
				"z": 2.6328070398,
				"element": "H" 
			},
			{
				"x": -2.9890951164,
				"y": -0.5726065679,
				"z": 1.2047793617,
				"element": "H" 
			},
			{
				"x": -4.0649619261,
				"y": -1.9924496549,
				"z": 2.7189266525,
				"element": "H" 
			}
		],
		 "valence_orbital": [ 
			{
				"type": "occ",
				"energy": -0.34683,
				"method": "rhf"
			},
			{
				"type": "occ",
				"energy": -0.33263,
				"method": "rhf"
			},
			{
				"type": "occ",
				"energy": -0.31565,
				"method": "rhf"
			},
			{
				"type": "occ",
				"energy": -0.26806,
				"method": "rhf"
			},
			{
				"type": "occ",
				"energy": -0.23815,
				"method": "rhf"
			},
			{
				"type": "unocc",
				"energy": 0.0273,
				"method": "rhf"
			},
			{
				"type": "unocc",
				"energy": 0.08042,
				"method": "rhf"
			},
			{
				"type": "unocc",
				"energy": 0.10197,
				"method": "rhf"
			},
			{
				"type": "unocc",
				"energy": 0.11245,
				"method": "rhf"
			},
			{
				"type": "unocc",
				"energy": 0.12758,
				"method": "rhf"
			}
		],
		"cosmo_sigma_profile": { 
			"-0.025": 0.0,
			"-0.024": 0.0,
			"-0.023": 0.0,
			"-0.022": 0.0,
			"-0.021": 0.0,
			"-0.02": 0.0,
			"-0.019": 0.0,
			"-0.018": 0.0,
			"-0.017": 0.0,
			"-0.016": 0.0,
			"-0.015": 0.744690524935,
			"-0.014": 0.866252729974,
			"-0.013": 1.25239823096,
			"-0.012": 1.03705073543,
			"-0.011": 0.401205202774,
			"-0.01": 0.943043952051,
			"-0.009": 1.15455515987,
			"-0.008": 1.20281123438,
			"-0.007": 0.633998258376,
			"-0.006": 1.50621862378,
			"-0.005": 1.12375015699,
			"-0.004": 6.03955738392,
			"-0.003": 21.2791784125,
			"-0.002": 24.5693474691,
			"-0.001": 25.2418737829,
			"0.0": 22.5474763531,
			"0.001": 17.0492957135,
			"0.002": 8.30733300014,
			"0.003": 5.46310637488,
			"0.004": 4.30207338113,
			"0.005": 5.01223918779,
			"0.006": 3.23474838253,
			"0.007": 2.49040431354,
			"0.008": 1.01357111975,
			"0.009": 1.53784723987,
			"0.01": 1.08098569548,
			"0.011": 0.696603762276,
			"0.012": 2.08626677389,
			"0.013": 1.44982204262,
			"0.014": 2.41603247303,
			"0.015": 1.27065587147,
			"0.016": 0.0,
			"0.017": 0.0,
			"0.018": 0.0,
			"0.019": 0.0,
			"0.02": 0.0,
			"0.021": 0.0,
			"0.022": 0.0,
			"0.023": 0.0,
			"0.024": 0.0,
			"0.025": 0.0
		}
	}
}
