{
	 "smiles": "COC1=C(OC)C=C(NS(=O)(=O)C2=CC=C(N)C=C2)C=C1", 
	 "Tm": 445.15, 
	 "num_atms": 37, 
	 "gaussian": { 
		 "optdone": 1, 
		 "sigma_profile": "yes", 
		 "theory": "DFT", 
		 "functional": "B3LYP", 
		 "basiset": "6-31G**", 
		 "properties": { 
			 "R2extent": 8319.3105, 
			 "electric_dipole_moment_norm": 5.61915429313, 
			 "electric_quadrupole_moment_norm": 42.7066911903, 
			 "total_energy": -1351.62381679, 
			 "HOMO_LUMO_gap": 0.18358, 
			 "cosmo_polarized_energy": -23.89, 
			 "cosmo_cavitation_energy": 42.45, 
			 "cosmo_dispersion_energy": -29.4, 
			 "cosmo_repulsion_energy": 2.24, 
			 "cosmo_total_nonelectrostatic_energy": 15.28, 
			 "SMD_solvation_energy": 7.86 
		},
		"coords": [
			{
				"x": -3.2179382087,
				"y": 1.0426403178,
				"z": 3.5297880932,
				"element": "C" 
			},
			{
				"x": -2.7929341694,
				"y": 0.0441491141,
				"z": 2.5988601474,
				"element": "O" 
			},
			{
				"x": -1.448093291,
				"y": 0.0167571999,
				"z": 2.3208268449,
				"element": "C" 
			},
			{
				"x": -0.8159855506,
				"y": 1.0521019485,
				"z": 1.591644239,
				"element": "C" 
			},
			{
				"x": -1.6093019185,
				"y": 2.0993775396,
				"z": 1.2258319384,
				"element": "O" 
			},
			{
				"x": -1.0222924207,
				"y": 3.1530129506,
				"z": 0.4728525516,
				"element": "C" 
			},
			{
				"x": 0.5452489165,
				"y": 0.9648019666,
				"z": 1.297759378,
				"element": "C" 
			},
			{
				"x": 1.2761600893,
				"y": -0.1720039948,
				"z": 1.6786071828,
				"element": "C" 
			},
			{
				"x": 2.6701875438,
				"y": -0.2368133221,
				"z": 1.3951455112,
				"element": "N" 
			},
			{
				"x": 3.2848474259,
				"y": -0.17233911,
				"z": -0.1969526175,
				"element": "S" 
			},
			{
				"x": 2.7666997172,
				"y": 1.0603263777,
				"z": -0.7940582205,
				"element": "O" 
			},
			{
				"x": 4.7179747581,
				"y": -0.4166153179,
				"z": -0.0202340942,
				"element": "O" 
			},
			{
				"x": 2.591284107,
				"y": -1.5475677067,
				"z": -1.0922048895,
				"element": "C" 
			},
			{
				"x": 1.33314464,
				"y": -1.4316694158,
				"z": -1.6943347207,
				"element": "C" 
			},
			{
				"x": 0.7826959784,
				"y": -2.5196062288,
				"z": -2.3572421303,
				"element": "C" 
			},
			{
				"x": 1.4793179403,
				"y": -3.7425116432,
				"z": -2.4346471105,
				"element": "C" 
			},
			{
				"x": 0.9518458319,
				"y": -4.8096351007,
				"z": -3.1395601999,
				"element": "N" 
			},
			{
				"x": 2.7489941944,
				"y": -3.8388538863,
				"z": -1.8296672064,
				"element": "C" 
			},
			{
				"x": 3.2986983491,
				"y": -2.7527067156,
				"z": -1.162812093,
				"element": "C" 
			},
			{
				"x": 0.6497391813,
				"y": -1.2068675365,
				"z": 2.3755376656,
				"element": "C" 
			},
			{
				"x": -0.7017516838,
				"y": -1.0910398517,
				"z": 2.7082367059,
				"element": "C" 
			},
			{
				"x": -3.0360576857,
				"y": 2.0515233016,
				"z": 3.1484278936,
				"element": "H" 
			},
			{
				"x": -2.7102315099,
				"y": 0.9189908583,
				"z": 4.4954922408,
				"element": "H" 
			},
			{
				"x": -4.290932671,
				"y": 0.8924539036,
				"z": 3.6671495426,
				"element": "H" 
			},
			{
				"x": -0.2359449557,
				"y": 3.6661610495,
				"z": 1.040214949,
				"element": "H" 
			},
			{
				"x": -1.8304941753,
				"y": 3.8542327976,
				"z": 0.260276308,
				"element": "H" 
			},
			{
				"x": -0.5996890985,
				"y": 2.7862552701,
				"z": -0.4702870676,
				"element": "H" 
			},
			{
				"x": 1.060190417,
				"y": 1.7542719249,
				"z": 0.7686178301,
				"element": "H" 
			},
			{
				"x": 3.1688065389,
				"y": -0.9584859316,
				"z": 1.9066365502,
				"element": "H" 
			},
			{
				"x": 0.7987463201,
				"y": -0.4895563975,
				"z": -1.6513587344,
				"element": "H" 
			},
			{
				"x": -0.1909185861,
				"y": -2.4271793972,
				"z": -2.830995433,
				"element": "H" 
			},
			{
				"x": 1.3251530555,
				"y": -5.7241484028,
				"z": -2.9329683901,
				"element": "H" 
			},
			{
				"x": -0.0448965081,
				"y": -4.8053772867,
				"z": -3.297553965,
				"element": "H" 
			},
			{
				"x": 3.3054715472,
				"y": -4.7699018877,
				"z": -1.8980113389,
				"element": "H" 
			},
			{
				"x": 4.2829394442,
				"y": -2.8234806464,
				"z": -0.7122043108,
				"element": "H" 
			},
			{
				"x": 1.2100609463,
				"y": -2.0922146318,
				"z": 2.6622806923,
				"element": "H" 
			},
			{
				"x": -1.2100445094,
				"y": -1.8776821087,
				"z": 3.2565062578,
				"element": "H" 
			}
		],
		 "valence_orbital": [ 
			{
				"type": "occ",
				"energy": -0.2703,
				"method": "rhf"
			},
			{
				"type": "occ",
				"energy": -0.26638,
				"method": "rhf"
			},
			{
				"type": "occ",
				"energy": -0.23683,
				"method": "rhf"
			},
			{
				"type": "occ",
				"energy": -0.22226,
				"method": "rhf"
			},
			{
				"type": "occ",
				"energy": -0.20734,
				"method": "rhf"
			},
			{
				"type": "unocc",
				"energy": -0.02376,
				"method": "rhf"
			},
			{
				"type": "unocc",
				"energy": -0.01559,
				"method": "rhf"
			},
			{
				"type": "unocc",
				"energy": 0.00036,
				"method": "rhf"
			},
			{
				"type": "unocc",
				"energy": 0.00814,
				"method": "rhf"
			},
			{
				"type": "unocc",
				"energy": 0.06161,
				"method": "rhf"
			}
		],
		"cosmo_sigma_profile": { 
			"-0.025": 0.0,
			"-0.024": 0.0,
			"-0.023": 0.0,
			"-0.022": 0.0,
			"-0.021": 0.0,
			"-0.02": 0.0,
			"-0.019": 0.0,
			"-0.018": 0.0,
			"-0.017": 0.0,
			"-0.016": 0.0,
			"-0.015": 0.655823699855,
			"-0.014": 1.57637187861,
			"-0.013": 4.01588413547,
			"-0.012": 3.74777389217,
			"-0.011": 4.61907458635,
			"-0.01": 3.86644196262,
			"-0.009": 5.98885429942,
			"-0.008": 3.77346429618,
			"-0.007": 7.32433384466,
			"-0.006": 16.9347640534,
			"-0.005": 21.3896323288,
			"-0.004": 25.684700545,
			"-0.003": 25.8220499844,
			"-0.002": 20.8182943897,
			"-0.001": 18.2357706622,
			"0.0": 16.5998790907,
			"0.001": 17.8203815004,
			"0.002": 18.7253765264,
			"0.003": 24.0865270912,
			"0.004": 29.1482266124,
			"0.005": 12.054400189,
			"0.006": 7.52548812669,
			"0.007": 7.08739529981,
			"0.008": 6.72242622578,
			"0.009": 7.4697644688,
			"0.01": 8.49030298334,
			"0.011": 11.4381219002,
			"0.012": 5.8488156111,
			"0.013": 0.000959896300561,
			"0.014": 0.0,
			"0.015": 0.0,
			"0.016": 0.0,
			"0.017": 0.0,
			"0.018": 0.0,
			"0.019": 0.0,
			"0.02": 0.0,
			"0.021": 0.0,
			"0.022": 0.0,
			"0.023": 0.0,
			"0.024": 0.0,
			"0.025": 0.0
		}
	}
}
