{
	 "smiles": "CCOC(=O)C1=CNOC1=N", 
	 "Tm": 290.15, 
	 "num_atms": 19, 
	 "gaussian": { 
		 "optdone": 1, 
		 "sigma_profile": "yes", 
		 "theory": "DFT", 
		 "functional": "B3LYP", 
		 "basiset": "6-31G**", 
		 "properties": { 
			 "R2extent": 2414.919, 
			 "electric_dipole_moment_norm": 5.44298770713, 
			 "electric_quadrupole_moment_norm": 10.6254980024, 
			 "total_energy": -568.562814812, 
			 "HOMO_LUMO_gap": 0.17675, 
			 "cosmo_polarized_energy": -21.21, 
			 "cosmo_cavitation_energy": 24.13, 
			 "cosmo_dispersion_energy": -17.65, 
			 "cosmo_repulsion_energy": 1.46, 
			 "cosmo_total_nonelectrostatic_energy": 7.94, 
			 "SMD_solvation_energy": 5.54 
		},
		"coords": [
			{
				"x": -2.1969056474,
				"y": 1.9665430648,
				"z": 2.6765889241,
				"element": "C" 
			},
			{
				"x": -2.125001447,
				"y": 1.4806252636,
				"z": 1.2365459446,
				"element": "C" 
			},
			{
				"x": -1.1927033745,
				"y": 0.3833857313,
				"z": 1.0947092306,
				"element": "O" 
			},
			{
				"x": 0.1140203086,
				"y": 0.7283923092,
				"z": 0.9135368703,
				"element": "C" 
			},
			{
				"x": 0.5138645121,
				"y": 1.8703749368,
				"z": 0.8616760738,
				"element": "O" 
			},
			{
				"x": 0.944895731,
				"y": -0.4785842404,
				"z": 0.7785287126,
				"element": "C" 
			},
			{
				"x": 0.5034347792,
				"y": -1.7599827353,
				"z": 0.7654516698,
				"element": "C" 
			},
			{
				"x": 1.5495759405,
				"y": -2.6499260797,
				"z": 0.7269642126,
				"element": "N" 
			},
			{
				"x": 2.7352483563,
				"y": -1.8937575267,
				"z": 0.5194953117,
				"element": "O" 
			},
			{
				"x": 2.4009682622,
				"y": -0.5235902913,
				"z": 0.6192028365,
				"element": "C" 
			},
			{
				"x": 3.2636562625,
				"y": 0.4000052812,
				"z": 0.5826207781,
				"element": "N" 
			},
			{
				"x": -2.4570562005,
				"y": 1.146809641,
				"z": 3.3529796565,
				"element": "H" 
			},
			{
				"x": -1.2386766551,
				"y": 2.3908119621,
				"z": 2.985601714,
				"element": "H" 
			},
			{
				"x": -2.9625320905,
				"y": 2.744253763,
				"z": 2.7685184596,
				"element": "H" 
			},
			{
				"x": -3.0815063373,
				"y": 1.0693530971,
				"z": 0.9039785819,
				"element": "H" 
			},
			{
				"x": -1.8239219724,
				"y": 2.2877948031,
				"z": 0.5645650054,
				"element": "H" 
			},
			{
				"x": -0.5108736286,
				"y": -2.129254138,
				"z": 0.8336157297,
				"element": "H" 
			},
			{
				"x": 1.5273027266,
				"y": -3.4049050314,
				"z": 0.0450202409,
				"element": "H" 
			},
			{
				"x": 4.2043104743,
				"y": 0.0215501896,
				"z": 0.4593000472,
				"element": "H" 
			}
		],
		 "valence_orbital": [ 
			{
				"type": "occ",
				"energy": -0.31236,
				"method": "rhf"
			},
			{
				"type": "occ",
				"energy": -0.29552,
				"method": "rhf"
			},
			{
				"type": "occ",
				"energy": -0.27916,
				"method": "rhf"
			},
			{
				"type": "occ",
				"energy": -0.26296,
				"method": "rhf"
			},
			{
				"type": "occ",
				"energy": -0.22664,
				"method": "rhf"
			},
			{
				"type": "unocc",
				"energy": -0.04989,
				"method": "rhf"
			},
			{
				"type": "unocc",
				"energy": 0.01926,
				"method": "rhf"
			},
			{
				"type": "unocc",
				"energy": 0.05437,
				"method": "rhf"
			},
			{
				"type": "unocc",
				"energy": 0.06961,
				"method": "rhf"
			},
			{
				"type": "unocc",
				"energy": 0.1101,
				"method": "rhf"
			}
		],
		"cosmo_sigma_profile": { 
			"-0.025": 0.0,
			"-0.024": 0.0,
			"-0.023": 0.0,
			"-0.022": 0.0,
			"-0.021": 0.0,
			"-0.02": 0.0,
			"-0.019": 0.0,
			"-0.018": 0.726048914268,
			"-0.017": 2.10958057226,
			"-0.016": 1.74947868426,
			"-0.015": 1.44254044554,
			"-0.014": 1.2002040951,
			"-0.013": 1.04849721586,
			"-0.012": 2.59951473335,
			"-0.011": 2.95390140995,
			"-0.01": 3.61198829523,
			"-0.009": 2.79675020374,
			"-0.008": 2.64267148481,
			"-0.007": 2.04112488816,
			"-0.006": 3.91739485981,
			"-0.005": 8.31595300614,
			"-0.004": 12.5124132167,
			"-0.003": 14.141328902,
			"-0.002": 17.8499386805,
			"-0.001": 19.3332257991,
			"0.0": 15.9607399357,
			"0.001": 10.4867858289,
			"0.002": 7.07004642353,
			"0.003": 6.69010234451,
			"0.004": 5.57827955353,
			"0.005": 7.26765262259,
			"0.006": 5.41819849627,
			"0.007": 5.08702922419,
			"0.008": 3.36416662762,
			"0.009": 1.7966975136,
			"0.01": 3.16829881973,
			"0.011": 2.83522533532,
			"0.012": 4.33915613404,
			"0.013": 3.05662252264,
			"0.014": 1.54888733249,
			"0.015": 1.52951652609,
			"0.016": 1.90461310449,
			"0.017": 1.55976169581,
			"0.018": 1.48837264087,
			"0.019": 0.27311308719,
			"0.02": 0.0,
			"0.021": 0.0,
			"0.022": 0.0,
			"0.023": 0.0,
			"0.024": 0.0,
			"0.025": 0.0
		}
	}
}
