{
	 "smiles": "CC1=CC(Cl)=C2C=CC=CC2=N1", 
	 "Tm": 313.15, 
	 "num_atms": 20, 
	 "gaussian": { 
		 "optdone": 1, 
		 "sigma_profile": "yes", 
		 "theory": "DFT", 
		 "functional": "B3LYP", 
		 "basiset": "6-31G**", 
		 "properties": { 
			 "R2extent": 3422.6276, 
			 "electric_dipole_moment_norm": 0.0542875676375, 
			 "electric_quadrupole_moment_norm": 8.83464025697, 
			 "total_energy": -900.846504601, 
			 "HOMO_LUMO_gap": 0.17716, 
			 "cosmo_polarized_energy": -5.75, 
			 "cosmo_cavitation_energy": 25.42, 
			 "cosmo_dispersion_energy": -19.18, 
			 "cosmo_repulsion_energy": 1.51, 
			 "cosmo_total_nonelectrostatic_energy": 7.76, 
			 "SMD_solvation_energy": 2.58 
		},
		"coords": [
			{
				"x": 3.3104263682,
				"y": 0.6729958843,
				"z": -2.1926674438,
				"element": "C" 
			},
			{
				"x": 2.5083133482,
				"y": 0.7342590593,
				"z": -0.9167547171,
				"element": "C" 
			},
			{
				"x": 2.6485325925,
				"y": -0.3025435146,
				"z": 0.051206429,
				"element": "C" 
			},
			{
				"x": 1.9146956517,
				"y": -0.2364653128,
				"z": 1.2069317888,
				"element": "C" 
			},
			{
				"x": 2.085145979,
				"y": -1.5127328786,
				"z": 2.4020004267,
				"element": "Cl" 
			},
			{
				"x": 1.0246652061,
				"y": 0.8488570272,
				"z": 1.4419158734,
				"element": "C" 
			},
			{
				"x": 0.2233224166,
				"y": 1.0104382238,
				"z": 2.6002607186,
				"element": "C" 
			},
			{
				"x": -0.6063273963,
				"y": 2.1030341017,
				"z": 2.7253718912,
				"element": "C" 
			},
			{
				"x": -0.6704680369,
				"y": 3.0780346141,
				"z": 1.7012190987,
				"element": "C" 
			},
			{
				"x": 0.0967133956,
				"y": 2.9459727725,
				"z": 0.5659524227,
				"element": "C" 
			},
			{
				"x": 0.9637963154,
				"y": 1.8338042401,
				"z": 0.400732911,
				"element": "C" 
			},
			{
				"x": 1.6978425794,
				"y": 1.7611955338,
				"z": -0.7477389571,
				"element": "N" 
			},
			{
				"x": 4.3861836484,
				"y": 0.6623102064,
				"z": -1.9821838281,
				"element": "H" 
			},
			{
				"x": 3.0833143108,
				"y": -0.2383151954,
				"z": -2.7580003445,
				"element": "H" 
			},
			{
				"x": 3.0791992371,
				"y": 1.5407033376,
				"z": -2.8116598962,
				"element": "H" 
			},
			{
				"x": 3.326470752,
				"y": -1.1297690062,
				"z": -0.1271553007,
				"element": "H" 
			},
			{
				"x": 0.2732570507,
				"y": 0.2629162296,
				"z": 3.3840746965,
				"element": "H" 
			},
			{
				"x": -1.2163875654,
				"y": 2.2182515698,
				"z": 3.6162508496,
				"element": "H" 
			},
			{
				"x": -1.3298729819,
				"y": 3.933440514,
				"z": 1.815763287,
				"element": "H" 
			},
			{
				"x": 0.0688771288,
				"y": 3.6767125933,
				"z": -0.2355199056,
				"element": "H" 
			}
		],
		 "valence_orbital": [ 
			{
				"type": "occ",
				"energy": -0.3206,
				"method": "rhf"
			},
			{
				"type": "occ",
				"energy": -0.28877,
				"method": "rhf"
			},
			{
				"type": "occ",
				"energy": -0.25885,
				"method": "rhf"
			},
			{
				"type": "occ",
				"energy": -0.25304,
				"method": "rhf"
			},
			{
				"type": "occ",
				"energy": -0.23411,
				"method": "rhf"
			},
			{
				"type": "unocc",
				"energy": -0.05695,
				"method": "rhf"
			},
			{
				"type": "unocc",
				"energy": -0.02277,
				"method": "rhf"
			},
			{
				"type": "unocc",
				"energy": 0.01838,
				"method": "rhf"
			},
			{
				"type": "unocc",
				"energy": 0.02545,
				"method": "rhf"
			},
			{
				"type": "unocc",
				"energy": 0.07773,
				"method": "rhf"
			}
		],
		"cosmo_sigma_profile": { 
			"-0.025": 0.0,
			"-0.024": 0.0,
			"-0.023": 0.0,
			"-0.022": 0.0,
			"-0.021": 0.0,
			"-0.02": 0.0,
			"-0.019": 0.0,
			"-0.018": 0.0,
			"-0.017": 0.0,
			"-0.016": 0.0,
			"-0.015": 0.0,
			"-0.014": 0.0,
			"-0.013": 0.0,
			"-0.012": 0.0,
			"-0.011": 0.0,
			"-0.01": 0.0,
			"-0.009": 0.0,
			"-0.008": 0.759364542107,
			"-0.007": 2.98439291561,
			"-0.006": 8.59283146654,
			"-0.005": 14.5388347635,
			"-0.004": 16.4484687887,
			"-0.003": 13.8813110492,
			"-0.002": 13.9815249034,
			"-0.001": 17.1854744553,
			"0.0": 25.4804180833,
			"0.001": 23.2520590078,
			"0.002": 18.9435259944,
			"0.003": 19.4645503786,
			"0.004": 17.6778779503,
			"0.005": 2.75374381431,
			"0.006": 1.43497897288,
			"0.007": 1.49393313633,
			"0.008": 1.59644671482,
			"0.009": 1.38677044631,
			"0.01": 0.657609324872,
			"0.011": 0.654953572187,
			"0.012": 1.0761697457,
			"0.013": 0.81198008775,
			"0.014": 0.678403581874,
			"0.015": 0.500166628254,
			"0.016": 0.0460941320341,
			"0.017": 0.0,
			"0.018": 0.0,
			"0.019": 0.0,
			"0.02": 0.0,
			"0.021": 0.0,
			"0.022": 0.0,
			"0.023": 0.0,
			"0.024": 0.0,
			"0.025": 0.0
		}
	}
}
