{
	 "smiles": "O=C1N(CCC2=NNN=N2)C(=O)C2=C1C=CC=C2", 
	 "Tm": 530.15, 
	 "num_atms": 27, 
	 "gaussian": { 
		 "optdone": 1, 
		 "sigma_profile": "yes", 
		 "theory": "DFT", 
		 "functional": "B3LYP", 
		 "basiset": "6-31G**", 
		 "properties": { 
			 "R2extent": 4937.8432, 
			 "electric_dipole_moment_norm": 4.50003432098, 
			 "electric_quadrupole_moment_norm": 17.6189474217, 
			 "total_energy": -848.783501454, 
			 "HOMO_LUMO_gap": 0.18419, 
			 "cosmo_polarized_energy": -19.47, 
			 "cosmo_cavitation_energy": 33.01, 
			 "cosmo_dispersion_energy": -22.85, 
			 "cosmo_repulsion_energy": 1.75, 
			 "cosmo_total_nonelectrostatic_energy": 11.92, 
			 "SMD_solvation_energy": 4.12 
		},
		"coords": [
			{
				"x": 0.1862955734,
				"y": 1.0503337807,
				"z": -2.5290562407,
				"element": "O" 
			},
			{
				"x": 0.133871146,
				"y": 0.489473339,
				"z": -1.4512992068,
				"element": "C" 
			},
			{
				"x": -0.2036035385,
				"y": 1.1078536554,
				"z": -0.237307522,
				"element": "N" 
			},
			{
				"x": -0.5581817585,
				"y": 2.5134857784,
				"z": -0.1245698015,
				"element": "C" 
			},
			{
				"x": -1.969110076,
				"y": 2.825162107,
				"z": -0.6687782939,
				"element": "C" 
			},
			{
				"x": -3.0637580227,
				"y": 2.1799578814,
				"z": 0.1161861178,
				"element": "C" 
			},
			{
				"x": -3.4482964921,
				"y": 0.9115602183,
				"z": -0.0278132465,
				"element": "N" 
			},
			{
				"x": -4.3977454752,
				"y": 0.8289418199,
				"z": 0.8993988427,
				"element": "N" 
			},
			{
				"x": -4.6128772981,
				"y": 1.9480325947,
				"z": 1.5808926533,
				"element": "N" 
			},
			{
				"x": -3.7673331147,
				"y": 2.8193323033,
				"z": 1.0924694395,
				"element": "N" 
			},
			{
				"x": -0.1867555197,
				"y": 0.20655077,
				"z": 0.8427650774,
				"element": "C" 
			},
			{
				"x": -0.4397196557,
				"y": 0.4871570755,
				"z": 1.9968824526,
				"element": "O" 
			},
			{
				"x": 0.2114621782,
				"y": -1.1087840636,
				"z": 0.2581226146,
				"element": "C" 
			},
			{
				"x": 0.4037541263,
				"y": -0.9397574207,
				"z": -1.1148463631,
				"element": "C" 
			},
			{
				"x": 0.7841892336,
				"y": -1.9958036434,
				"z": -1.9298908229,
				"element": "C" 
			},
			{
				"x": 0.9693464449,
				"y": -3.2448344412,
				"z": -1.321964631,
				"element": "C" 
			},
			{
				"x": 0.7775030812,
				"y": -3.414266379,
				"z": 0.0553460238,
				"element": "C" 
			},
			{
				"x": 0.3937763774,
				"y": -2.3403124249,
				"z": 0.8698819777,
				"element": "C" 
			},
			{
				"x": 0.1758024364,
				"y": 3.0959764225,
				"z": -0.6885055246,
				"element": "H" 
			},
			{
				"x": -0.4850777868,
				"y": 2.7737808783,
				"z": 0.933750799,
				"element": "H" 
			},
			{
				"x": -2.1184792578,
				"y": 3.9081581035,
				"z": -0.6328508387,
				"element": "H" 
			},
			{
				"x": -2.0204213163,
				"y": 2.5097393055,
				"z": -1.7142198348,
				"element": "H" 
			},
			{
				"x": -4.922163238,
				"y": -0.0177052137,
				"z": 1.0731170448,
				"element": "H" 
			},
			{
				"x": 0.9309373703,
				"y": -1.8525167532,
				"z": -2.9955364074,
				"element": "H" 
			},
			{
				"x": 1.2669234455,
				"y": -4.0965120717,
				"z": -1.9263920523,
				"element": "H" 
			},
			{
				"x": 0.929942756,
				"y": -4.3945606842,
				"z": 0.497003674,
				"element": "H" 
			},
			{
				"x": 0.2439183809,
				"y": -2.459342938,
				"z": 1.938114069,
				"element": "H" 
			}
		],
		 "valence_orbital": [ 
			{
				"type": "occ",
				"energy": -0.29069,
				"method": "rhf"
			},
			{
				"type": "occ",
				"energy": -0.28356,
				"method": "rhf"
			},
			{
				"type": "occ",
				"energy": -0.27901,
				"method": "rhf"
			},
			{
				"type": "occ",
				"energy": -0.269,
				"method": "rhf"
			},
			{
				"type": "occ",
				"energy": -0.26672,
				"method": "rhf"
			},
			{
				"type": "unocc",
				"energy": -0.08253,
				"method": "rhf"
			},
			{
				"type": "unocc",
				"energy": -0.042,
				"method": "rhf"
			},
			{
				"type": "unocc",
				"energy": -0.0282,
				"method": "rhf"
			},
			{
				"type": "unocc",
				"energy": 0.02653,
				"method": "rhf"
			},
			{
				"type": "unocc",
				"energy": 0.0272,
				"method": "rhf"
			}
		],
		"cosmo_sigma_profile": { 
			"-0.025": 0.0,
			"-0.024": 0.0,
			"-0.023": 0.0,
			"-0.022": 0.0,
			"-0.021": 0.0,
			"-0.02": 0.386058160788,
			"-0.019": 1.88702233515,
			"-0.018": 1.51929122246,
			"-0.017": 0.785392093711,
			"-0.016": 1.08535822219,
			"-0.015": 1.18156557637,
			"-0.014": 1.07508328618,
			"-0.013": 0.198395022357,
			"-0.012": 0.791925521362,
			"-0.011": 1.2742306721,
			"-0.01": 0.602412074751,
			"-0.009": 0.495438952397,
			"-0.008": 2.30391073791,
			"-0.007": 11.1406843599,
			"-0.006": 16.4033027195,
			"-0.005": 19.3373168866,
			"-0.004": 16.8819141896,
			"-0.003": 19.7634212261,
			"-0.002": 17.1868626217,
			"-0.001": 17.836097731,
			"0.0": 19.5444067815,
			"0.001": 18.9577960141,
			"0.002": 19.295273335,
			"0.003": 10.4970510978,
			"0.004": 6.35622252878,
			"0.005": 4.70508525867,
			"0.006": 5.76946880772,
			"0.007": 6.53686641631,
			"0.008": 6.73633540503,
			"0.009": 7.23117280167,
			"0.01": 8.4062645942,
			"0.011": 11.9990592593,
			"0.012": 4.73788645067,
			"0.013": 0.958543704794,
			"0.014": 1.08121674125,
			"0.015": 0.220487273039,
			"0.016": 0.0,
			"0.017": 0.0,
			"0.018": 0.0,
			"0.019": 0.0,
			"0.02": 0.0,
			"0.021": 0.0,
			"0.022": 0.0,
			"0.023": 0.0,
			"0.024": 0.0,
			"0.025": 0.0
		}
	}
}
