{
	 "smiles": "CCC(CC)(CBr)CBr", 
	 "Tm": 313.15, 
	 "num_atms": 23, 
	 "gaussian": { 
		 "optdone": 1, 
		 "sigma_profile": "yes", 
		 "theory": "DFT", 
		 "functional": "B3LYP", 
		 "basiset": "6-31G**", 
		 "properties": { 
			 "R2extent": 4716.2014, 
			 "electric_dipole_moment_norm": 2.0551280763, 
			 "electric_quadrupole_moment_norm": 6.89454295222, 
			 "total_energy": -5418.00236167, 
			 "HOMO_LUMO_gap": 0.26366, 
			 "cosmo_polarized_energy": -5.65, 
			 "cosmo_cavitation_energy": 26.89, 
			 "cosmo_dispersion_energy": -20.15, 
			 "cosmo_repulsion_energy": 1.62, 
			 "cosmo_total_nonelectrostatic_energy": 8.36, 
			 "SMD_solvation_energy": 2.32 
		},
		"coords": [
			{
				"x": -0.4135289355,
				"y": -2.6449272815,
				"z": 0.0352493962,
				"element": "C" 
			},
			{
				"x": -0.7339940202,
				"y": -2.110596744,
				"z": -1.3672407958,
				"element": "C" 
			},
			{
				"x": -0.4879283949,
				"y": -0.5928682384,
				"z": -1.6751274416,
				"element": "C" 
			},
			{
				"x": -0.8578451226,
				"y": 0.3520631095,
				"z": -0.4972393217,
				"element": "C" 
			},
			{
				"x": 0.1710450054,
				"y": 0.594186649,
				"z": 0.6152880086,
				"element": "C" 
			},
			{
				"x": 0.912154749,
				"y": -0.324511137,
				"z": -2.2654869512,
				"element": "C" 
			},
			{
				"x": 2.4758648217,
				"y": -1.1194634482,
				"z": -1.3289325195,
				"element": "Br" 
			},
			{
				"x": -1.4892973405,
				"y": -0.3211800721,
				"z": -2.8291922983,
				"element": "C" 
			},
			{
				"x": -1.3410437275,
				"y": 1.4553717486,
				"z": -3.71720582,
				"element": "Br" 
			},
			{
				"x": 0.6416747329,
				"y": -2.535213974,
				"z": 0.2872063944,
				"element": "H" 
			},
			{
				"x": -1.0096448066,
				"y": -2.1467918534,
				"z": 0.8052487236,
				"element": "H" 
			},
			{
				"x": -0.6594180786,
				"y": -3.7115470706,
				"z": 0.0745302535,
				"element": "H" 
			},
			{
				"x": -1.7971552311,
				"y": -2.3165283569,
				"z": -1.5527792011,
				"element": "H" 
			},
			{
				"x": -0.1827100957,
				"y": -2.6991459563,
				"z": -2.110969064,
				"element": "H" 
			},
			{
				"x": -1.1079014155,
				"y": 1.3270658943,
				"z": -0.9310648137,
				"element": "H" 
			},
			{
				"x": -1.7897742716,
				"y": -0.0247632628,
				"z": -0.0550976417,
				"element": "H" 
			},
			{
				"x": 0.4636295531,
				"y": -0.3184696336,
				"z": 1.1367212991,
				"element": "H" 
			},
			{
				"x": -0.2572338485,
				"y": 1.2795461594,
				"z": 1.3546740147,
				"element": "H" 
			},
			{
				"x": 1.0836981003,
				"y": 1.0572703665,
				"z": 0.2309733215,
				"element": "H" 
			},
			{
				"x": 0.9918292987,
				"y": -0.740935708,
				"z": -3.2694442033,
				"element": "H" 
			},
			{
				"x": 1.1302271431,
				"y": 0.7402782983,
				"z": -2.3094636918,
				"element": "H" 
			},
			{
				"x": -1.3703144133,
				"y": -1.0386950089,
				"z": -3.6412205102,
				"element": "H" 
			},
			{
				"x": -2.5148337021,
				"y": -0.3528444799,
				"z": -2.4619271376,
				"element": "H" 
			}
		],
		 "valence_orbital": [ 
			{
				"type": "occ",
				"energy": -0.31856,
				"method": "rhf"
			},
			{
				"type": "occ",
				"energy": -0.28346,
				"method": "rhf"
			},
			{
				"type": "occ",
				"energy": -0.27746,
				"method": "rhf"
			},
			{
				"type": "occ",
				"energy": -0.26915,
				"method": "rhf"
			},
			{
				"type": "occ",
				"energy": -0.26765,
				"method": "rhf"
			},
			{
				"type": "unocc",
				"energy": -0.00399,
				"method": "rhf"
			},
			{
				"type": "unocc",
				"energy": -0.00051,
				"method": "rhf"
			},
			{
				"type": "unocc",
				"energy": 0.07116,
				"method": "rhf"
			},
			{
				"type": "unocc",
				"energy": 0.09826,
				"method": "rhf"
			},
			{
				"type": "unocc",
				"energy": 0.10822,
				"method": "rhf"
			}
		],
		"cosmo_sigma_profile": { 
			"-0.025": 0.0,
			"-0.024": 0.0,
			"-0.023": 0.0,
			"-0.022": 0.0,
			"-0.021": 0.0,
			"-0.02": 0.0,
			"-0.019": 0.0,
			"-0.018": 0.0,
			"-0.017": 0.0,
			"-0.016": 0.0,
			"-0.015": 0.0,
			"-0.014": 0.0,
			"-0.013": 0.0,
			"-0.012": 0.0,
			"-0.011": 0.0,
			"-0.01": 0.0,
			"-0.009": 0.00172022470791,
			"-0.008": 1.38553028451,
			"-0.007": 5.98253799711,
			"-0.006": 8.05437663307,
			"-0.005": 8.06057174154,
			"-0.004": 10.6561999101,
			"-0.003": 16.4926199526,
			"-0.002": 21.5451951326,
			"-0.001": 27.4074586165,
			"0.0": 25.3562639368,
			"0.001": 21.4526709437,
			"0.002": 16.6257896093,
			"0.003": 9.30371470358,
			"0.004": 11.8647493497,
			"0.005": 12.4712904676,
			"0.006": 14.554533529,
			"0.007": 3.35833807143,
			"0.008": 0.0,
			"0.009": 0.0,
			"0.01": 0.0,
			"0.011": 0.0,
			"0.012": 0.0,
			"0.013": 0.0,
			"0.014": 0.0,
			"0.015": 0.0,
			"0.016": 0.0,
			"0.017": 0.0,
			"0.018": 0.0,
			"0.019": 0.0,
			"0.02": 0.0,
			"0.021": 0.0,
			"0.022": 0.0,
			"0.023": 0.0,
			"0.024": 0.0,
			"0.025": 0.0
		}
	}
}
