{
	 "smiles": "OC1=CC=C(CCC#N)C=C1", 
	 "Tm": 329.15, 
	 "num_atms": 20, 
	 "gaussian": { 
		 "optdone": 1, 
		 "sigma_profile": "yes", 
		 "theory": "DFT", 
		 "functional": "B3LYP", 
		 "basiset": "6-31G**", 
		 "properties": { 
			 "R2extent": 3300.5038, 
			 "electric_dipole_moment_norm": 4.59492962841, 
			 "electric_quadrupole_moment_norm": 12.2081296119, 
			 "total_energy": -478.341852908, 
			 "HOMO_LUMO_gap": 0.21383, 
			 "cosmo_polarized_energy": -14.32, 
			 "cosmo_cavitation_energy": 25.24, 
			 "cosmo_dispersion_energy": -17.68, 
			 "cosmo_repulsion_energy": 1.44, 
			 "cosmo_total_nonelectrostatic_energy": 9.0, 
			 "SMD_solvation_energy": 5.96 
		},
		"coords": [
			{
				"x": -3.7640054318,
				"y": 1.9677212941,
				"z": -2.4293189047,
				"element": "O" 
			},
			{
				"x": -2.8145876032,
				"y": 1.0852956525,
				"z": -2.0000455694,
				"element": "C" 
			},
			{
				"x": -3.0205413974,
				"y": -0.2706531006,
				"z": -2.2792958181,
				"element": "C" 
			},
			{
				"x": -2.0814782511,
				"y": -1.2103636521,
				"z": -1.8658081235,
				"element": "C" 
			},
			{
				"x": -0.9228097554,
				"y": -0.8330553446,
				"z": -1.1703837253,
				"element": "C" 
			},
			{
				"x": 0.0718414042,
				"y": -1.8679431101,
				"z": -0.6932610513,
				"element": "C" 
			},
			{
				"x": -0.2938964089,
				"y": -2.4142776562,
				"z": 0.7122879335,
				"element": "C" 
			},
			{
				"x": 0.6582921962,
				"y": -3.4181342634,
				"z": 1.1949761396,
				"element": "C" 
			},
			{
				"x": 1.4254115773,
				"y": -4.2104866842,
				"z": 1.5574949679,
				"element": "N" 
			},
			{
				"x": -0.7339471388,
				"y": 0.5277150451,
				"z": -0.9026737035,
				"element": "C" 
			},
			{
				"x": -1.6649532957,
				"y": 1.483107036,
				"z": -1.3098572748,
				"element": "C" 
			},
			{
				"x": -3.5004479933,
				"y": 2.863902731,
				"z": -2.1832374822,
				"element": "H" 
			},
			{
				"x": -3.9124831346,
				"y": -0.5646857275,
				"z": -2.8225095226,
				"element": "H" 
			},
			{
				"x": -2.2495400871,
				"y": -2.2601004298,
				"z": -2.0956874932,
				"element": "H" 
			},
			{
				"x": 1.0782429079,
				"y": -1.4388785873,
				"z": -0.6511867986,
				"element": "H" 
			},
			{
				"x": 0.1150187919,
				"y": -2.7077095915,
				"z": -1.3946061591,
				"element": "H" 
			},
			{
				"x": -1.2943716679,
				"y": -2.8612052166,
				"z": 0.6917693667,
				"element": "H" 
			},
			{
				"x": -0.3321153465,
				"y": -1.5914653181,
				"z": 1.4352230675,
				"element": "H" 
			},
			{
				"x": 0.1585083401,
				"y": 0.8527129129,
				"z": -0.3728853022,
				"element": "H" 
			},
			{
				"x": -1.4946377058,
				"y": 2.5364040106,
				"z": -1.0963945465,
				"element": "H" 
			}
		],
		 "valence_orbital": [ 
			{
				"type": "occ",
				"energy": -0.33932,
				"method": "rhf"
			},
			{
				"type": "occ",
				"energy": -0.31991,
				"method": "rhf"
			},
			{
				"type": "occ",
				"energy": -0.31905,
				"method": "rhf"
			},
			{
				"type": "occ",
				"energy": -0.26223,
				"method": "rhf"
			},
			{
				"type": "occ",
				"energy": -0.22784,
				"method": "rhf"
			},
			{
				"type": "unocc",
				"energy": -0.01401,
				"method": "rhf"
			},
			{
				"type": "unocc",
				"energy": -0.00156,
				"method": "rhf"
			},
			{
				"type": "unocc",
				"energy": 0.03883,
				"method": "rhf"
			},
			{
				"type": "unocc",
				"energy": 0.04257,
				"method": "rhf"
			},
			{
				"type": "unocc",
				"energy": 0.06313,
				"method": "rhf"
			}
		],
		"cosmo_sigma_profile": { 
			"-0.025": 0.0,
			"-0.024": 0.0,
			"-0.023": 0.0,
			"-0.022": 0.0,
			"-0.021": 0.0,
			"-0.02": 0.0,
			"-0.019": 0.0,
			"-0.018": 0.333962695666,
			"-0.017": 0.891187732852,
			"-0.016": 0.721134703092,
			"-0.015": 1.06848067611,
			"-0.014": 0.435985411262,
			"-0.013": 1.65960831525,
			"-0.012": 0.448868417498,
			"-0.011": 0.98434343357,
			"-0.01": 1.40904589227,
			"-0.009": 1.78817485052,
			"-0.008": 2.50944650421,
			"-0.007": 6.4725369191,
			"-0.006": 12.1859985706,
			"-0.005": 23.3877838575,
			"-0.004": 17.3746265946,
			"-0.003": 12.3445783805,
			"-0.002": 10.2392852598,
			"-0.001": 9.34268735675,
			"0.0": 7.78759563609,
			"0.001": 8.59319312609,
			"0.002": 8.17546268582,
			"0.003": 9.129095891,
			"0.004": 12.3561584199,
			"0.005": 12.7418671736,
			"0.006": 9.13512204144,
			"0.007": 3.92677185285,
			"0.008": 4.2589509755,
			"0.009": 5.2853163455,
			"0.01": 5.11110697109,
			"0.011": 4.94234644825,
			"0.012": 3.48373162285,
			"0.013": 2.02972942526,
			"0.014": 0.653576304651,
			"0.015": 0.0,
			"0.016": 0.0,
			"0.017": 0.0,
			"0.018": 0.0,
			"0.019": 0.0,
			"0.02": 0.0,
			"0.021": 0.0,
			"0.022": 0.0,
			"0.023": 0.0,
			"0.024": 0.0,
			"0.025": 0.0
		}
	}
}
