{
	 "smiles": "ClC1CS(=O)(=O)CC1Cl", 
	 "Tm": 405.15, 
	 "num_atms": 15, 
	 "gaussian": { 
		 "optdone": 1, 
		 "sigma_profile": "yes", 
		 "theory": "DFT", 
		 "functional": "B3LYP", 
		 "basiset": "6-31G**", 
		 "properties": { 
			 "R2extent": 2405.4412, 
			 "electric_dipole_moment_norm": 3.2691794888, 
			 "electric_quadrupole_moment_norm": 11.3367503651, 
			 "total_energy": -1624.99327815, 
			 "HOMO_LUMO_gap": 0.26751, 
			 "cosmo_polarized_energy": -16.79, 
			 "cosmo_cavitation_energy": 22.5, 
			 "cosmo_dispersion_energy": -17.53, 
			 "cosmo_repulsion_energy": 1.38, 
			 "cosmo_total_nonelectrostatic_energy": 6.35, 
			 "SMD_solvation_energy": 2.12 
		},
		"coords": [
			{
				"x": -0.0454719928,
				"y": 0.6979368092,
				"z": -3.1273502407,
				"element": "Cl" 
			},
			{
				"x": -0.2035753317,
				"y": 0.4145579548,
				"z": -1.357246545,
				"element": "C" 
			},
			{
				"x": -1.0468927788,
				"y": -0.8118531385,
				"z": -1.0297735523,
				"element": "C" 
			},
			{
				"x": -1.2583290004,
				"y": -0.692395592,
				"z": 0.7927794508,
				"element": "S" 
			},
			{
				"x": -0.1232483223,
				"y": -1.3729981223,
				"z": 1.4333294515,
				"element": "O" 
			},
			{
				"x": -2.6413659084,
				"y": -0.9939421285,
				"z": 1.1738663389,
				"element": "O" 
			},
			{
				"x": -0.9356110892,
				"y": 1.1293390932,
				"z": 0.8720090429,
				"element": "C" 
			},
			{
				"x": -0.7871058008,
				"y": 1.6109147205,
				"z": -0.5768848434,
				"element": "C" 
			},
			{
				"x": -2.39236233,
				"y": 2.1384504477,
				"z": -1.240221692,
				"element": "Cl" 
			},
			{
				"x": 0.8173858312,
				"y": 0.2666648195,
				"z": -0.99271156,
				"element": "H" 
			},
			{
				"x": -0.551426453,
				"y": -1.7576483719,
				"z": -1.2483769967,
				"element": "H" 
			},
			{
				"x": -2.0328248924,
				"y": -0.7669698285,
				"z": -1.4945253198,
				"element": "H" 
			},
			{
				"x": -0.0002929948,
				"y": 1.2419536698,
				"z": 1.4257854985,
				"element": "H" 
			},
			{
				"x": -1.7537696451,
				"y": 1.609448721,
				"z": 1.407945364,
				"element": "H" 
			},
			{
				"x": -0.1359092916,
				"y": 2.4821409459,
				"z": -0.6502243966,
				"element": "H" 
			}
		],
		 "valence_orbital": [ 
			{
				"type": "occ",
				"energy": -0.32798,
				"method": "rhf"
			},
			{
				"type": "occ",
				"energy": -0.32332,
				"method": "rhf"
			},
			{
				"type": "occ",
				"energy": -0.31846,
				"method": "rhf"
			},
			{
				"type": "occ",
				"energy": -0.3125,
				"method": "rhf"
			},
			{
				"type": "occ",
				"energy": -0.2967,
				"method": "rhf"
			},
			{
				"type": "unocc",
				"energy": -0.02919,
				"method": "rhf"
			},
			{
				"type": "unocc",
				"energy": 0.005,
				"method": "rhf"
			},
			{
				"type": "unocc",
				"energy": 0.02956,
				"method": "rhf"
			},
			{
				"type": "unocc",
				"energy": 0.047,
				"method": "rhf"
			},
			{
				"type": "unocc",
				"energy": 0.05185,
				"method": "rhf"
			}
		],
		"cosmo_sigma_profile": { 
			"-0.025": 0.0,
			"-0.024": 0.0,
			"-0.023": 0.0,
			"-0.022": 0.0,
			"-0.021": 0.0,
			"-0.02": 0.0,
			"-0.019": 0.0,
			"-0.018": 0.0,
			"-0.017": 0.0,
			"-0.016": 0.0,
			"-0.015": 0.0,
			"-0.014": 0.0,
			"-0.013": 0.30309100819,
			"-0.012": 1.34878186473,
			"-0.011": 3.18782369859,
			"-0.01": 8.83569788955,
			"-0.009": 10.9965038996,
			"-0.008": 8.99040837629,
			"-0.007": 10.3089845369,
			"-0.006": 8.82518657691,
			"-0.005": 5.33473751784,
			"-0.004": 5.38131581725,
			"-0.003": 5.48953385182,
			"-0.002": 7.21591646828,
			"-0.001": 6.62520819157,
			"0.0": 7.61434291195,
			"0.001": 8.96964696777,
			"0.002": 7.94074955234,
			"0.003": 11.6119809175,
			"0.004": 14.464907248,
			"0.005": 12.2427069997,
			"0.006": 5.41994813013,
			"0.007": 3.40571173989,
			"0.008": 1.82756686693,
			"0.009": 3.18287313775,
			"0.01": 8.14474052277,
			"0.011": 11.7750357187,
			"0.012": 2.92953932316,
			"0.013": 0.0,
			"0.014": 0.0,
			"0.015": 0.0,
			"0.016": 0.0,
			"0.017": 0.0,
			"0.018": 0.0,
			"0.019": 0.0,
			"0.02": 0.0,
			"0.021": 0.0,
			"0.022": 0.0,
			"0.023": 0.0,
			"0.024": 0.0,
			"0.025": 0.0
		}
	}
}
