{
	 "smiles": "ClC1=CC(Br)=C2NC(=O)C(=O)C2=C1", 
	 "Tm": 519.15, 
	 "num_atms": 16, 
	 "gaussian": { 
		 "optdone": 1, 
		 "sigma_profile": "yes", 
		 "theory": "DFT", 
		 "functional": "B3LYP", 
		 "basiset": "6-31G**", 
		 "properties": { 
			 "R2extent": 3996.748, 
			 "electric_dipole_moment_norm": 3.99895305549, 
			 "electric_quadrupole_moment_norm": 16.439072542, 
			 "total_energy": -3543.45091832, 
			 "HOMO_LUMO_gap": 0.13388, 
			 "cosmo_polarized_energy": -12.74, 
			 "cosmo_cavitation_energy": 26.1, 
			 "cosmo_dispersion_energy": -19.66, 
			 "cosmo_repulsion_energy": 1.55, 
			 "cosmo_total_nonelectrostatic_energy": 7.99, 
			 "SMD_solvation_energy": 4.38 
		},
		"coords": [
			{
				"x": 2.2166472518,
				"y": -0.2284610234,
				"z": -3.1823502849,
				"element": "Cl" 
			},
			{
				"x": 1.4362724689,
				"y": 0.0728782011,
				"z": -1.6420968906,
				"element": "C" 
			},
			{
				"x": 0.0480246398,
				"y": 0.2427934642,
				"z": -1.6091413263,
				"element": "C" 
			},
			{
				"x": -0.6049140744,
				"y": 0.4846023249,
				"z": -0.396692895,
				"element": "C" 
			},
			{
				"x": -2.4928615014,
				"y": 0.7171512321,
				"z": -0.3404281816,
				"element": "Br" 
			},
			{
				"x": 0.1426433376,
				"y": 0.5536444624,
				"z": 0.7724310768,
				"element": "C" 
			},
			{
				"x": -0.2832423306,
				"y": 0.7812976511,
				"z": 2.0801830473,
				"element": "N" 
			},
			{
				"x": 0.7760566165,
				"y": 0.7767535067,
				"z": 2.9794712035,
				"element": "C" 
			},
			{
				"x": 0.722524288,
				"y": 0.9446243652,
				"z": 4.1742765351,
				"element": "O" 
			},
			{
				"x": 2.0493163232,
				"y": 0.5058053368,
				"z": 2.1003484204,
				"element": "C" 
			},
			{
				"x": 3.1786346674,
				"y": 0.4287041257,
				"z": 2.5246911139,
				"element": "O" 
			},
			{
				"x": 1.5393705318,
				"y": 0.3798505278,
				"z": 0.7185897606,
				"element": "C" 
			},
			{
				"x": 2.2037709879,
				"y": 0.1388855951,
				"z": -0.4775668746,
				"element": "C" 
			},
			{
				"x": -0.5255559253,
				"y": 0.1870753298,
				"z": -2.5264931525,
				"element": "H" 
			},
			{
				"x": -1.2470750746,
				"y": 0.9318120509,
				"z": 2.3433559242,
				"element": "H" 
			},
			{
				"x": 3.2798877936,
				"y": 0.0079828496,
				"z": -0.4967774761,
				"element": "H" 
			}
		],
		 "valence_orbital": [ 
			{
				"type": "occ",
				"energy": -0.32243,
				"method": "rhf"
			},
			{
				"type": "occ",
				"energy": -0.32238,
				"method": "rhf"
			},
			{
				"type": "occ",
				"energy": -0.2855,
				"method": "rhf"
			},
			{
				"type": "occ",
				"energy": -0.26315,
				"method": "rhf"
			},
			{
				"type": "occ",
				"energy": -0.24948,
				"method": "rhf"
			},
			{
				"type": "unocc",
				"energy": -0.1156,
				"method": "rhf"
			},
			{
				"type": "unocc",
				"energy": -0.04573,
				"method": "rhf"
			},
			{
				"type": "unocc",
				"energy": -0.03032,
				"method": "rhf"
			},
			{
				"type": "unocc",
				"energy": -0.0157,
				"method": "rhf"
			},
			{
				"type": "unocc",
				"energy": 0.02028,
				"method": "rhf"
			}
		],
		"cosmo_sigma_profile": { 
			"-0.025": 0.0,
			"-0.024": 0.0,
			"-0.023": 0.0,
			"-0.022": 0.0,
			"-0.021": 0.0,
			"-0.02": 0.0,
			"-0.019": 0.0,
			"-0.018": 0.0,
			"-0.017": 0.0197809395088,
			"-0.016": 0.815625640681,
			"-0.015": 0.694305111188,
			"-0.014": 1.01851346968,
			"-0.013": 0.765520161712,
			"-0.012": 1.01022814076,
			"-0.011": 0.863445298754,
			"-0.01": 1.14893259656,
			"-0.009": 4.99444583469,
			"-0.008": 5.57980034828,
			"-0.007": 6.31995957707,
			"-0.006": 7.32001047761,
			"-0.005": 8.86365274212,
			"-0.004": 9.81798324579,
			"-0.003": 14.3904498264,
			"-0.002": 20.8894212334,
			"-0.001": 21.6532435139,
			"0.0": 20.5562703036,
			"0.001": 12.7415918271,
			"0.002": 14.3152517748,
			"0.003": 16.5643858842,
			"0.004": 10.957765763,
			"0.005": 3.22871023975,
			"0.006": 3.32932545942,
			"0.007": 2.90148807226,
			"0.008": 4.03098204658,
			"0.009": 7.4635663475,
			"0.01": 8.65018325983,
			"0.011": 5.29559080817,
			"0.012": 0.802644063682,
			"0.013": 0.0,
			"0.014": 0.0,
			"0.015": 0.0,
			"0.016": 0.0,
			"0.017": 0.0,
			"0.018": 0.0,
			"0.019": 0.0,
			"0.02": 0.0,
			"0.021": 0.0,
			"0.022": 0.0,
			"0.023": 0.0,
			"0.024": 0.0,
			"0.025": 0.0
		}
	}
}
