{
	 "smiles": "C=CCOC(=O)OCCOCCOC(=O)OCC=C", 
	 "Tm": 269.15, 
	 "num_atms": 37, 
	 "gaussian": { 
		 "optdone": 1, 
		 "sigma_profile": "yes", 
		 "theory": "DFT", 
		 "functional": "B3LYP", 
		 "basiset": "6-31G**", 
		 "properties": { 
			 "R2extent": 10865.2058, 
			 "electric_dipole_moment_norm": 0.721637194163, 
			 "electric_quadrupole_moment_norm": 14.3178011936, 
			 "total_energy": -994.64352226, 
			 "HOMO_LUMO_gap": 0.26236, 
			 "cosmo_polarized_energy": -17.53, 
			 "cosmo_cavitation_energy": 43.59, 
			 "cosmo_dispersion_energy": -29.48, 
			 "cosmo_repulsion_energy": 2.36, 
			 "cosmo_total_nonelectrostatic_energy": 16.46, 
			 "SMD_solvation_energy": 11.88 
		},
		"coords": [
			{
				"x": 3.5361822216,
				"y": -0.2231556166,
				"z": -3.746797052,
				"element": "C" 
			},
			{
				"x": 4.7508985476,
				"y": 0.284162348,
				"z": -3.548984198,
				"element": "C" 
			},
			{
				"x": 5.0921879767,
				"y": 1.3900520197,
				"z": -2.5913722684,
				"element": "C" 
			},
			{
				"x": 3.9364538424,
				"y": 1.8560830722,
				"z": -1.8742592865,
				"element": "O" 
			},
			{
				"x": 3.8271683199,
				"y": 1.4634625784,
				"z": -0.5934549561,
				"element": "C" 
			},
			{
				"x": 4.6423443041,
				"y": 0.8234195891,
				"z": 0.0374448567,
				"element": "O" 
			},
			{
				"x": 2.6553745456,
				"y": 1.9222715548,
				"z": -0.1328383728,
				"element": "O" 
			},
			{
				"x": 2.368299583,
				"y": 1.6171422622,
				"z": 1.2470775643,
				"element": "C" 
			},
			{
				"x": 1.828511484,
				"y": 0.2108839306,
				"z": 1.4318570181,
				"element": "C" 
			},
			{
				"x": 0.5617736127,
				"y": 0.1290938518,
				"z": 0.8067838629,
				"element": "O" 
			},
			{
				"x": 0.0573518564,
				"y": -1.1803651413,
				"z": 0.6398658251,
				"element": "C" 
			},
			{
				"x": -0.3386285029,
				"y": -1.8797050341,
				"z": 1.9384175334,
				"element": "C" 
			},
			{
				"x": -1.2694971914,
				"y": -1.1009014412,
				"z": 2.7145375091,
				"element": "O" 
			},
			{
				"x": -2.5492468988,
				"y": -1.1614832613,
				"z": 2.3130375622,
				"element": "C" 
			},
			{
				"x": -2.9789976646,
				"y": -1.8235552522,
				"z": 1.3908305507,
				"element": "O" 
			},
			{
				"x": -3.2702921812,
				"y": -0.3690541215,
				"z": 3.1166801864,
				"element": "O" 
			},
			{
				"x": -4.6870116613,
				"y": -0.321482054,
				"z": 2.8139512942,
				"element": "C" 
			},
			{
				"x": -5.3660523344,
				"y": 0.4103230374,
				"z": 3.9281796934,
				"element": "C" 
			},
			{
				"x": -6.1755903102,
				"y": 1.4519384938,
				"z": 3.7440994319,
				"element": "C" 
			},
			{
				"x": 3.3721185116,
				"y": -1.0260742788,
				"z": -4.4582227181,
				"element": "H" 
			},
			{
				"x": 2.6708349728,
				"y": 0.1511357824,
				"z": -3.209161479,
				"element": "H" 
			},
			{
				"x": 5.605213657,
				"y": -0.0981851963,
				"z": -4.1073315836,
				"element": "H" 
			},
			{
				"x": 5.47713116,
				"y": 2.2625344307,
				"z": -3.1324713793,
				"element": "H" 
			},
			{
				"x": 5.8539661603,
				"y": 1.0652504117,
				"z": -1.8758591728,
				"element": "H" 
			},
			{
				"x": 3.2723185112,
				"y": 1.748369285,
				"z": 1.8470523426,
				"element": "H" 
			},
			{
				"x": 1.6128008424,
				"y": 2.3488770494,
				"z": 1.538735675,
				"element": "H" 
			},
			{
				"x": 2.53323439,
				"y": -0.5178962141,
				"z": 1.0046727788,
				"element": "H" 
			},
			{
				"x": 1.7612346046,
				"y": 0.0183257056,
				"z": 2.5150416447,
				"element": "H" 
			},
			{
				"x": 0.7880638059,
				"y": -1.8249629358,
				"z": 0.1211757048,
				"element": "H" 
			},
			{
				"x": -0.8242021088,
				"y": -1.0843329034,
				"z": 0.0016212827,
				"element": "H" 
			},
			{
				"x": -0.7733014448,
				"y": -2.8557031189,
				"z": 1.7033998465,
				"element": "H" 
			},
			{
				"x": 0.5161290691,
				"y": -2.0182241011,
				"z": 2.6039946251,
				"element": "H" 
			},
			{
				"x": -4.8360348559,
				"y": 0.1757708597,
				"z": 1.8502100434,
				"element": "H" 
			},
			{
				"x": -5.0538062467,
				"y": -1.3500154258,
				"z": 2.720790279,
				"element": "H" 
			},
			{
				"x": -5.1858050936,
				"y": 0.0207239524,
				"z": 4.9287348455,
				"element": "H" 
			},
			{
				"x": -6.3634664248,
				"y": 1.8611498095,
				"z": 2.7543215239,
				"element": "H" 
			},
			{
				"x": -6.6856590595,
				"y": 1.9307260721,
				"z": 4.5742389861,
				"element": "H" 
			}
		],
		 "valence_orbital": [ 
			{
				"type": "occ",
				"energy": -0.28874,
				"method": "rhf"
			},
			{
				"type": "occ",
				"energy": -0.28748,
				"method": "rhf"
			},
			{
				"type": "occ",
				"energy": -0.27131,
				"method": "rhf"
			},
			{
				"type": "occ",
				"energy": -0.26158,
				"method": "rhf"
			},
			{
				"type": "occ",
				"energy": -0.26094,
				"method": "rhf"
			},
			{
				"type": "unocc",
				"energy": 0.00142,
				"method": "rhf"
			},
			{
				"type": "unocc",
				"energy": 0.01658,
				"method": "rhf"
			},
			{
				"type": "unocc",
				"energy": 0.03905,
				"method": "rhf"
			},
			{
				"type": "unocc",
				"energy": 0.03988,
				"method": "rhf"
			},
			{
				"type": "unocc",
				"energy": 0.08113,
				"method": "rhf"
			}
		],
		"cosmo_sigma_profile": { 
			"-0.025": 0.0,
			"-0.024": 0.0,
			"-0.023": 0.0,
			"-0.022": 0.0,
			"-0.021": 0.0,
			"-0.02": 0.0,
			"-0.019": 0.0,
			"-0.018": 0.0,
			"-0.017": 0.0,
			"-0.016": 0.0,
			"-0.015": 0.0,
			"-0.014": 0.0,
			"-0.013": 0.0,
			"-0.012": 0.0,
			"-0.011": 0.0,
			"-0.01": 0.0,
			"-0.009": 0.0,
			"-0.008": 0.0,
			"-0.007": 7.92829406757,
			"-0.006": 35.2603852923,
			"-0.005": 37.0503021214,
			"-0.004": 35.0467859527,
			"-0.003": 34.9339120545,
			"-0.002": 22.0872035661,
			"-0.001": 19.68700478,
			"0.0": 16.3739698325,
			"0.001": 15.5336177858,
			"0.002": 15.3937694663,
			"0.003": 13.9289793677,
			"0.004": 15.0721505334,
			"0.005": 13.2493000792,
			"0.006": 11.1561282293,
			"0.007": 7.46060500044,
			"0.008": 9.92875303715,
			"0.009": 11.9758627128,
			"0.01": 8.2938932333,
			"0.011": 8.04055693902,
			"0.012": 5.50249408326,
			"0.013": 0.0148088802465,
			"0.014": 0.0,
			"0.015": 0.0,
			"0.016": 0.0,
			"0.017": 0.0,
			"0.018": 0.0,
			"0.019": 0.0,
			"0.02": 0.0,
			"0.021": 0.0,
			"0.022": 0.0,
			"0.023": 0.0,
			"0.024": 0.0,
			"0.025": 0.0
		}
	}
}
