{
	 "smiles": "[O-][N+](=O)C1=CC(C=O)=CC=C1", 
	 "Tm": 331.65, 
	 "num_atms": 16, 
	 "gaussian": { 
		 "optdone": 1, 
		 "sigma_profile": "yes", 
		 "theory": "DFT", 
		 "functional": "B3LYP", 
		 "basiset": "6-31G**", 
		 "properties": { 
			 "R2extent": 3614.3637, 
			 "electric_dipole_moment_norm": 2.17575473342, 
			 "electric_quadrupole_moment_norm": 20.4998353801, 
			 "total_energy": -550.06913089, 
			 "HOMO_LUMO_gap": 0.17152, 
			 "cosmo_polarized_energy": -10.69, 
			 "cosmo_cavitation_energy": 21.92, 
			 "cosmo_dispersion_energy": -15.94, 
			 "cosmo_repulsion_energy": 1.27, 
			 "cosmo_total_nonelectrostatic_energy": 7.25, 
			 "SMD_solvation_energy": 7.21 
		},
		"coords": [
			{
				"x": -4.2529595338,
				"y": 0.0909566038,
				"z": -3.2438977865,
				"element": "O" 
			},
			{
				"x": -3.1656706848,
				"y": -0.3725074676,
				"z": -3.5836594121,
				"element": "N" 
			},
			{
				"x": -2.8901642898,
				"y": -0.7696433887,
				"z": -4.7141994539,
				"element": "O" 
			},
			{
				"x": -2.1125137179,
				"y": -0.4577602053,
				"z": -2.555744423,
				"element": "C" 
			},
			{
				"x": -2.3933726084,
				"y": -0.016153072,
				"z": -1.266431987,
				"element": "C" 
			},
			{
				"x": -1.390352718,
				"y": -0.1000944819,
				"z": -0.2976250094,
				"element": "C" 
			},
			{
				"x": -1.6623516765,
				"y": 0.3640935499,
				"z": 1.0873125612,
				"element": "C" 
			},
			{
				"x": -0.8487218481,
				"y": 0.326826475,
				"z": 1.988153194,
				"element": "O" 
			},
			{
				"x": -0.129956289,
				"y": -0.6213450872,
				"z": -0.6320802078,
				"element": "C" 
			},
			{
				"x": 0.1276048309,
				"y": -1.057073895,
				"z": -1.9291813904,
				"element": "C" 
			},
			{
				"x": -0.8677240471,
				"y": -0.9778891791,
				"z": -2.9059690384,
				"element": "C" 
			},
			{
				"x": -3.3758406241,
				"y": 0.3817289391,
				"z": -1.0370447032,
				"element": "H" 
			},
			{
				"x": -2.6879958423,
				"y": 0.759489571,
				"z": 1.2520369089,
				"element": "H" 
			},
			{
				"x": 0.6269836023,
				"y": -0.6725999868,
				"z": 0.1441168502,
				"element": "H" 
			},
			{
				"x": 1.101554129,
				"y": -1.4598958301,
				"z": -2.1877578251,
				"element": "H" 
			},
			{
				"x": -0.6999186823,
				"y": -1.3080325451,
				"z": -3.9237282776,
				"element": "H" 
			}
		],
		 "valence_orbital": [ 
			{
				"type": "occ",
				"energy": -0.31974,
				"method": "rhf"
			},
			{
				"type": "occ",
				"energy": -0.30373,
				"method": "rhf"
			},
			{
				"type": "occ",
				"energy": -0.29821,
				"method": "rhf"
			},
			{
				"type": "occ",
				"energy": -0.29413,
				"method": "rhf"
			},
			{
				"type": "occ",
				"energy": -0.27563,
				"method": "rhf"
			},
			{
				"type": "unocc",
				"energy": -0.10411,
				"method": "rhf"
			},
			{
				"type": "unocc",
				"energy": -0.08266,
				"method": "rhf"
			},
			{
				"type": "unocc",
				"energy": -0.02409,
				"method": "rhf"
			},
			{
				"type": "unocc",
				"energy": 0.02389,
				"method": "rhf"
			},
			{
				"type": "unocc",
				"energy": 0.0746,
				"method": "rhf"
			}
		],
		"cosmo_sigma_profile": { 
			"-0.025": 0.0,
			"-0.024": 0.0,
			"-0.023": 0.0,
			"-0.022": 0.0,
			"-0.021": 0.0,
			"-0.02": 0.0,
			"-0.019": 0.0,
			"-0.018": 0.0,
			"-0.017": 0.0,
			"-0.016": 0.0,
			"-0.015": 0.0,
			"-0.014": 0.0,
			"-0.013": 0.0,
			"-0.012": 0.0,
			"-0.011": 0.0,
			"-0.01": 0.593113957536,
			"-0.009": 2.73163291166,
			"-0.008": 7.13089401801,
			"-0.007": 11.1968706724,
			"-0.006": 10.5901016617,
			"-0.005": 10.3522929419,
			"-0.004": 10.1388765673,
			"-0.003": 12.0911991882,
			"-0.002": 13.5054084612,
			"-0.001": 17.8783514924,
			"0.0": 14.3782103314,
			"0.001": 8.65152249893,
			"0.002": 4.09552047408,
			"0.003": 4.26589092652,
			"0.004": 4.36466376715,
			"0.005": 4.32511933077,
			"0.006": 5.58549016581,
			"0.007": 11.3554970524,
			"0.008": 7.25477579466,
			"0.009": 6.53969169081,
			"0.01": 4.76071248586,
			"0.011": 3.69644801667,
			"0.012": 1.2360695105,
			"0.013": 0.0743496180934,
			"0.014": 0.0,
			"0.015": 0.0,
			"0.016": 0.0,
			"0.017": 0.0,
			"0.018": 0.0,
			"0.019": 0.0,
			"0.02": 0.0,
			"0.021": 0.0,
			"0.022": 0.0,
			"0.023": 0.0,
			"0.024": 0.0,
			"0.025": 0.0
		}
	}
}
