{
	 "smiles": "CC1=NC2=C(C=C(N)C=C2)C(N)=C1", 
	 "Tm": 486.15, 
	 "num_atms": 24, 
	 "gaussian": { 
		 "optdone": 1, 
		 "sigma_profile": "yes", 
		 "theory": "DFT", 
		 "functional": "B3LYP", 
		 "basiset": "6-31G**", 
		 "properties": { 
			 "R2extent": 2797.2111, 
			 "electric_dipole_moment_norm": 4.26264058536, 
			 "electric_quadrupole_moment_norm": 17.9778082221, 
			 "total_energy": -551.9731895, 
			 "HOMO_LUMO_gap": 0.15957, 
			 "cosmo_polarized_energy": -17.53, 
			 "cosmo_cavitation_energy": 27.25, 
			 "cosmo_dispersion_energy": -20.51, 
			 "cosmo_repulsion_energy": 1.62, 
			 "cosmo_total_nonelectrostatic_energy": 8.35, 
			 "SMD_solvation_energy": 2.94 
		},
		"coords": [
			{
				"x": -2.500677073,
				"y": -1.4309151369,
				"z": -2.5069912974,
				"element": "C" 
			},
			{
				"x": -1.8858818401,
				"y": -0.6244026153,
				"z": -1.3881323412,
				"element": "C" 
			},
			{
				"x": -0.5666894804,
				"y": -0.5601876835,
				"z": -1.3398702402,
				"element": "N" 
			},
			{
				"x": -0.0045146999,
				"y": 0.1788007696,
				"z": -0.3377659003,
				"element": "C" 
			},
			{
				"x": -0.7525156189,
				"y": 0.8826746068,
				"z": 0.6535656289,
				"element": "C" 
			},
			{
				"x": -0.0765458136,
				"y": 1.6511891189,
				"z": 1.632371951,
				"element": "C" 
			},
			{
				"x": 1.309487965,
				"y": 1.7188759233,
				"z": 1.6606911861,
				"element": "C" 
			},
			{
				"x": 1.9875866932,
				"y": 2.5278064713,
				"z": 2.5772042235,
				"element": "N" 
			},
			{
				"x": 2.0513901762,
				"y": 0.997520266,
				"z": 0.6841853733,
				"element": "C" 
			},
			{
				"x": 1.4122568776,
				"y": 0.2576758721,
				"z": -0.2805707646,
				"element": "C" 
			},
			{
				"x": -2.1821458668,
				"y": 0.7578170159,
				"z": 0.5926268676,
				"element": "C" 
			},
			{
				"x": -2.9827814216,
				"y": 1.4152231794,
				"z": 1.5194711662,
				"element": "N" 
			},
			{
				"x": -2.7247356904,
				"y": 0.0112383687,
				"z": -0.4380190747,
				"element": "C" 
			},
			{
				"x": -3.1316332437,
				"y": -0.8034000927,
				"z": -3.1479923766,
				"element": "H" 
			},
			{
				"x": -1.7098208112,
				"y": -1.8712638726,
				"z": -3.1161494368,
				"element": "H" 
			},
			{
				"x": -3.1366942891,
				"y": -2.2347755521,
				"z": -2.1172965553,
				"element": "H" 
			},
			{
				"x": -0.6423534354,
				"y": 2.2374834701,
				"z": 2.3519708896,
				"element": "H" 
			},
			{
				"x": 2.9317765329,
				"y": 2.2342914946,
				"z": 2.787326523,
				"element": "H" 
			},
			{
				"x": 1.4708960806,
				"y": 2.7514863702,
				"z": 3.4166319221,
				"element": "H" 
			},
			{
				"x": 3.1374848343,
				"y": 1.0519975041,
				"z": 0.7009998016,
				"element": "H" 
			},
			{
				"x": 1.9714644061,
				"y": -0.2871039563,
				"z": -1.0343945604,
				"element": "H" 
			},
			{
				"x": -3.9459288805,
				"y": 1.1088452142,
				"z": 1.5374895003,
				"element": "H" 
			},
			{
				"x": -2.596153381,
				"y": 1.4964840066,
				"z": 2.4493995003,
				"element": "H" 
			},
			{
				"x": -3.8037720202,
				"y": -0.1013607421,
				"z": -0.5159519858,
				"element": "H" 
			}
		],
		 "valence_orbital": [ 
			{
				"type": "occ",
				"energy": -0.27909,
				"method": "rhf"
			},
			{
				"type": "occ",
				"energy": -0.2499,
				"method": "rhf"
			},
			{
				"type": "occ",
				"energy": -0.23405,
				"method": "rhf"
			},
			{
				"type": "occ",
				"energy": -0.21769,
				"method": "rhf"
			},
			{
				"type": "occ",
				"energy": -0.18585,
				"method": "rhf"
			},
			{
				"type": "unocc",
				"energy": -0.02628,
				"method": "rhf"
			},
			{
				"type": "unocc",
				"energy": 0.0062,
				"method": "rhf"
			},
			{
				"type": "unocc",
				"energy": 0.04635,
				"method": "rhf"
			},
			{
				"type": "unocc",
				"energy": 0.0712,
				"method": "rhf"
			},
			{
				"type": "unocc",
				"energy": 0.08109,
				"method": "rhf"
			}
		],
		"cosmo_sigma_profile": { 
			"-0.025": 0.0,
			"-0.024": 0.0,
			"-0.023": 0.0,
			"-0.022": 0.0,
			"-0.021": 0.0,
			"-0.02": 0.0,
			"-0.019": 0.0,
			"-0.018": 0.0,
			"-0.017": 0.0,
			"-0.016": 0.0,
			"-0.015": 0.0,
			"-0.014": 0.00173802102082,
			"-0.013": 1.4966723568,
			"-0.012": 5.55978391829,
			"-0.011": 5.23278924646,
			"-0.01": 6.03750400179,
			"-0.009": 6.30742542486,
			"-0.008": 6.55044624353,
			"-0.007": 6.09098055168,
			"-0.006": 7.58833418228,
			"-0.005": 5.92627729469,
			"-0.004": 11.5364876257,
			"-0.003": 13.677204502,
			"-0.002": 12.8470438132,
			"-0.001": 11.5741065385,
			"0.0": 12.4315733548,
			"0.001": 11.2867451262,
			"0.002": 8.57119024431,
			"0.003": 10.7155122861,
			"0.004": 18.062042091,
			"0.005": 20.8440113875,
			"0.006": 8.88080266013,
			"0.007": 3.61863291787,
			"0.008": 3.30693602488,
			"0.009": 3.81276603539,
			"0.01": 2.48705186774,
			"0.011": 2.14997589483,
			"0.012": 2.96596118082,
			"0.013": 2.55776361233,
			"0.014": 1.33974951972,
			"0.015": 0.78514463928,
			"0.016": 0.763256448746,
			"0.017": 0.657656045634,
			"0.018": 0.159763816883,
			"0.019": 0.0,
			"0.02": 0.0,
			"0.021": 0.0,
			"0.022": 0.0,
			"0.023": 0.0,
			"0.024": 0.0,
			"0.025": 0.0
		}
	}
}
