{
	 "smiles": "OC(=O)CCC(=O)C1=C(Cl)SC(Cl)=C1", 
	 "Tm": 391.15, 
	 "num_atms": 20, 
	 "gaussian": { 
		 "optdone": 1, 
		 "sigma_profile": "yes", 
		 "theory": "DFT", 
		 "functional": "B3LYP", 
		 "basiset": "6-31G**", 
		 "properties": { 
			 "R2extent": 5253.0392, 
			 "electric_dipole_moment_norm": 2.63735777436, 
			 "electric_quadrupole_moment_norm": 10.7554785668, 
			 "total_energy": -1852.69237487, 
			 "HOMO_LUMO_gap": 0.17442, 
			 "cosmo_polarized_energy": -12.56, 
			 "cosmo_cavitation_energy": 30.58, 
			 "cosmo_dispersion_energy": -22.11, 
			 "cosmo_repulsion_energy": 1.72, 
			 "cosmo_total_nonelectrostatic_energy": 10.19, 
			 "SMD_solvation_energy": 5.96 
		},
		"coords": [
			{
				"x": -2.1064327196,
				"y": 1.422998869,
				"z": -0.7805234003,
				"element": "O" 
			},
			{
				"x": -2.1074726669,
				"y": 0.2215466633,
				"z": -1.4039754468,
				"element": "C" 
			},
			{
				"x": -2.5743143516,
				"y": 0.0502618003,
				"z": -2.5071476634,
				"element": "O" 
			},
			{
				"x": -1.4353237264,
				"y": -0.8506709844,
				"z": -0.5684283097,
				"element": "C" 
			},
			{
				"x": 0.0079217907,
				"y": -1.1190791334,
				"z": -1.0676616065,
				"element": "C" 
			},
			{
				"x": 0.9205733156,
				"y": 0.0807647258,
				"z": -0.8634754875,
				"element": "C" 
			},
			{
				"x": 1.1064146899,
				"y": 0.8645788548,
				"z": -1.7825378421,
				"element": "O" 
			},
			{
				"x": 1.587672152,
				"y": 0.3560004117,
				"z": 0.4499372226,
				"element": "C" 
			},
			{
				"x": 1.5933677872,
				"y": -0.3531306301,
				"z": 1.6340300319,
				"element": "C" 
			},
			{
				"x": 0.8092669438,
				"y": -1.8405737792,
				"z": 2.0535282466,
				"element": "Cl" 
			},
			{
				"x": 2.5523905065,
				"y": 0.4027601884,
				"z": 2.8766879124,
				"element": "S" 
			},
			{
				"x": 2.9574309566,
				"y": 1.7051716374,
				"z": 1.7819302131,
				"element": "C" 
			},
			{
				"x": 3.9787227417,
				"y": 2.9946730747,
				"z": 2.3112879522,
				"element": "Cl" 
			},
			{
				"x": 2.3876095829,
				"y": 1.5493749171,
				"z": 0.5603541221,
				"element": "C" 
			},
			{
				"x": -2.4999942438,
				"y": 2.0553455443,
				"z": -1.4059447998,
				"element": "H" 
			},
			{
				"x": -2.0174661292,
				"y": -1.7682244768,
				"z": -0.6858785074,
				"element": "H" 
			},
			{
				"x": -1.438751569,
				"y": -0.5654307625,
				"z": 0.4859251497,
				"element": "H" 
			},
			{
				"x": 0.3980063581,
				"y": -2.0049542055,
				"z": -0.5625365183,
				"element": "H" 
			},
			{
				"x": -0.0192282088,
				"y": -1.3095926291,
				"z": -2.1432728445,
				"element": "H" 
			},
			{
				"x": 2.5024067904,
				"y": 2.2322799142,
				"z": -0.2704984244,
				"element": "H" 
			}
		],
		 "valence_orbital": [ 
			{
				"type": "occ",
				"energy": -0.32018,
				"method": "rhf"
			},
			{
				"type": "occ",
				"energy": -0.28462,
				"method": "rhf"
			},
			{
				"type": "occ",
				"energy": -0.27761,
				"method": "rhf"
			},
			{
				"type": "occ",
				"energy": -0.26634,
				"method": "rhf"
			},
			{
				"type": "occ",
				"energy": -0.25037,
				"method": "rhf"
			},
			{
				"type": "unocc",
				"energy": -0.07595,
				"method": "rhf"
			},
			{
				"type": "unocc",
				"energy": -0.02539,
				"method": "rhf"
			},
			{
				"type": "unocc",
				"energy": -0.01791,
				"method": "rhf"
			},
			{
				"type": "unocc",
				"energy": -0.0142,
				"method": "rhf"
			},
			{
				"type": "unocc",
				"energy": 0.00349,
				"method": "rhf"
			}
		],
		"cosmo_sigma_profile": { 
			"-0.025": 0.0,
			"-0.024": 0.0,
			"-0.023": 0.0,
			"-0.022": 0.0,
			"-0.021": 0.0,
			"-0.02": 0.0,
			"-0.019": 0.0,
			"-0.018": 0.986384528387,
			"-0.017": 0.83837641442,
			"-0.016": 0.664483040622,
			"-0.015": 0.900638509257,
			"-0.014": 0.859611087787,
			"-0.013": 0.54636934261,
			"-0.012": 0.750870273431,
			"-0.011": 0.969288243318,
			"-0.01": 0.661400444183,
			"-0.009": 0.420212930653,
			"-0.008": 1.25578359845,
			"-0.007": 3.54819499448,
			"-0.006": 7.71783110577,
			"-0.005": 13.9029805249,
			"-0.004": 18.5670362767,
			"-0.003": 24.4517805913,
			"-0.002": 20.5307795598,
			"-0.001": 26.631889921,
			"0.0": 25.3767731356,
			"0.001": 24.0753096951,
			"0.002": 19.5319939433,
			"0.003": 12.9665448175,
			"0.004": 6.02947133858,
			"0.005": 5.62633329471,
			"0.006": 3.91383705063,
			"0.007": 2.56364672765,
			"0.008": 4.99823644523,
			"0.009": 3.76324340655,
			"0.01": 5.01581223955,
			"0.011": 6.95190735931,
			"0.012": 5.41326692543,
			"0.013": 0.616853113814,
			"0.014": 0.0,
			"0.015": 0.0,
			"0.016": 0.0,
			"0.017": 0.0,
			"0.018": 0.0,
			"0.019": 0.0,
			"0.02": 0.0,
			"0.021": 0.0,
			"0.022": 0.0,
			"0.023": 0.0,
			"0.024": 0.0,
			"0.025": 0.0
		}
	}
}
