{
	 "smiles": "N#CC1=CC=C(C=C1)C1=NNC=C1", 
	 "Tm": 414.15, 
	 "num_atms": 20, 
	 "gaussian": { 
		 "optdone": 1, 
		 "sigma_profile": "yes", 
		 "theory": "DFT", 
		 "functional": "B3LYP", 
		 "basiset": "6-31G**", 
		 "properties": { 
			 "R2extent": 3469.3685, 
			 "electric_dipole_moment_norm": 7.6312819408, 
			 "electric_quadrupole_moment_norm": 17.7883909761, 
			 "total_energy": -549.505245961, 
			 "HOMO_LUMO_gap": 0.17737, 
			 "cosmo_polarized_energy": -15.19, 
			 "cosmo_cavitation_energy": 25.94, 
			 "cosmo_dispersion_energy": -18.78, 
			 "cosmo_repulsion_energy": 1.47, 
			 "cosmo_total_nonelectrostatic_energy": 8.63, 
			 "SMD_solvation_energy": 5.34 
		},
		"coords": [
			{
				"x": -2.5688869338,
				"y": 2.9743983997,
				"z": -4.6905795878,
				"element": "N" 
			},
			{
				"x": -1.9702180292,
				"y": 2.4832100576,
				"z": -3.8217095457,
				"element": "C" 
			},
			{
				"x": -1.2334826997,
				"y": 1.8780730832,
				"z": -2.752203046,
				"element": "C" 
			},
			{
				"x": -1.4330437127,
				"y": 0.5246444126,
				"z": -2.4329430629,
				"element": "C" 
			},
			{
				"x": -0.7160564677,
				"y": -0.0575986252,
				"z": -1.3946994682,
				"element": "C" 
			},
			{
				"x": 0.2138188803,
				"y": 0.6871234947,
				"z": -0.6501322445,
				"element": "C" 
			},
			{
				"x": 0.4063458401,
				"y": 2.0416771031,
				"z": -0.9777740882,
				"element": "C" 
			},
			{
				"x": -0.304584425,
				"y": 2.6325501587,
				"z": -2.0127021207,
				"element": "C" 
			},
			{
				"x": 0.974000159,
				"y": 0.0740425743,
				"z": 0.4490941318,
				"element": "C" 
			},
			{
				"x": 1.8567813667,
				"y": 0.8009674306,
				"z": 1.1487856685,
				"element": "N" 
			},
			{
				"x": 2.359340883,
				"y": -0.0525616492,
				"z": 2.0554217495,
				"element": "N" 
			},
			{
				"x": 1.8335867543,
				"y": -1.3034340068,
				"z": 1.9665267303,
				"element": "C" 
			},
			{
				"x": 0.925533256,
				"y": -1.2637298129,
				"z": 0.9310602526,
				"element": "C" 
			},
			{
				"x": -2.1485224017,
				"y": -0.060420714,
				"z": -3.0009717152,
				"element": "H" 
			},
			{
				"x": -0.8834259942,
				"y": -1.104244176,
				"z": -1.1624160449,
				"element": "H" 
			},
			{
				"x": 1.122797635,
				"y": 2.620529641,
				"z": -0.4061396709,
				"element": "H" 
			},
			{
				"x": -0.1487801768,
				"y": 3.6779749924,
				"z": -2.2574722449,
				"element": "H" 
			},
			{
				"x": 3.0558333169,
				"y": 0.280182641,
				"z": 2.7040607562,
				"element": "H" 
			},
			{
				"x": 2.1382173495,
				"y": -2.1007975833,
				"z": 2.6282251619,
				"element": "H" 
			},
			{
				"x": 0.3184454,
				"y": -2.0826874215,
				"z": 0.5777683891,
				"element": "H" 
			}
		],
		 "valence_orbital": [ 
			{
				"type": "occ",
				"energy": -0.30396,
				"method": "rhf"
			},
			{
				"type": "occ",
				"energy": -0.29517,
				"method": "rhf"
			},
			{
				"type": "occ",
				"energy": -0.27023,
				"method": "rhf"
			},
			{
				"type": "occ",
				"energy": -0.26309,
				"method": "rhf"
			},
			{
				"type": "occ",
				"energy": -0.23347,
				"method": "rhf"
			},
			{
				"type": "unocc",
				"energy": -0.0561,
				"method": "rhf"
			},
			{
				"type": "unocc",
				"energy": -0.0178,
				"method": "rhf"
			},
			{
				"type": "unocc",
				"energy": 0.01084,
				"method": "rhf"
			},
			{
				"type": "unocc",
				"energy": 0.04369,
				"method": "rhf"
			},
			{
				"type": "unocc",
				"energy": 0.04936,
				"method": "rhf"
			}
		],
		"cosmo_sigma_profile": { 
			"-0.025": 0.0,
			"-0.024": 0.0,
			"-0.023": 0.0,
			"-0.022": 0.0,
			"-0.021": 0.0,
			"-0.02": 0.0,
			"-0.019": 0.0,
			"-0.018": 0.0206789170344,
			"-0.017": 1.19528319562,
			"-0.016": 1.72161644947,
			"-0.015": 0.791279900038,
			"-0.014": 1.43239208559,
			"-0.013": 0.78822403963,
			"-0.012": 1.5119842294,
			"-0.011": 1.29093025776,
			"-0.01": 1.0955028216,
			"-0.009": 3.06641214919,
			"-0.008": 6.79553551058,
			"-0.007": 10.5136794231,
			"-0.006": 11.1333963783,
			"-0.005": 10.4458710772,
			"-0.004": 9.66179609031,
			"-0.003": 9.11296340689,
			"-0.002": 8.97957718828,
			"-0.001": 12.3632285681,
			"0.0": 12.8681522655,
			"0.001": 12.9132745481,
			"0.002": 22.1166457538,
			"0.003": 19.7822159521,
			"0.004": 10.6699412641,
			"0.005": 6.8129324569,
			"0.006": 4.23095207401,
			"0.007": 4.18256731431,
			"0.008": 5.23378732851,
			"0.009": 4.98980182145,
			"0.01": 4.28810171233,
			"0.011": 4.06355666135,
			"0.012": 3.47638610935,
			"0.013": 2.58056645445,
			"0.014": 0.279360132586,
			"0.015": 0.0,
			"0.016": 0.0,
			"0.017": 0.0,
			"0.018": 0.0,
			"0.019": 0.0,
			"0.02": 0.0,
			"0.021": 0.0,
			"0.022": 0.0,
			"0.023": 0.0,
			"0.024": 0.0,
			"0.025": 0.0
		}
	}
}
