{
	 "smiles": "CN1CCC(CC1)N1N=CC=C1N", 
	 "Tm": 372.15, 
	 "num_atms": 29, 
	 "gaussian": { 
		 "optdone": 1, 
		 "sigma_profile": "yes", 
		 "theory": "DFT", 
		 "functional": "B3LYP", 
		 "basiset": "6-31G**", 
		 "properties": { 
			 "R2extent": 3749.9748, 
			 "electric_dipole_moment_norm": 2.87000867595, 
			 "electric_quadrupole_moment_norm": 14.8559470984, 
			 "total_energy": -571.57915311, 
			 "HOMO_LUMO_gap": 0.24123, 
			 "cosmo_polarized_energy": -12.6, 
			 "cosmo_cavitation_energy": 29.28, 
			 "cosmo_dispersion_energy": -21.5, 
			 "cosmo_repulsion_energy": 1.7, 
			 "cosmo_total_nonelectrostatic_energy": 9.48, 
			 "SMD_solvation_energy": 1.74 
		},
		"coords": [
			{
				"x": -1.7665124774,
				"y": 0.8420184059,
				"z": -0.8598553958,
				"element": "C" 
			},
			{
				"x": -1.0148736484,
				"y": 0.0832476784,
				"z": 0.1280112525,
				"element": "N" 
			},
			{
				"x": -0.8915930636,
				"y": 0.8275924278,
				"z": 1.3864659095,
				"element": "C" 
			},
			{
				"x": -0.1895053203,
				"y": -0.0105663734,
				"z": 2.4623498546,
				"element": "C" 
			},
			{
				"x": 1.1501052709,
				"y": -0.6119594341,
				"z": 2.0043797098,
				"element": "C" 
			},
			{
				"x": 0.9982719352,
				"y": -1.245832099,
				"z": 0.605757402,
				"element": "C" 
			},
			{
				"x": 0.304154523,
				"y": -0.301425274,
				"z": -0.3768332861,
				"element": "C" 
			},
			{
				"x": 2.2478640614,
				"y": 0.3668291531,
				"z": 2.0431704906,
				"element": "N" 
			},
			{
				"x": 2.0208158976,
				"y": 1.7121453739,
				"z": 2.130419349,
				"element": "N" 
			},
			{
				"x": 3.23105074,
				"y": 2.2592993794,
				"z": 2.1188562525,
				"element": "C" 
			},
			{
				"x": 4.25795399,
				"y": 1.2952025647,
				"z": 2.0420620675,
				"element": "C" 
			},
			{
				"x": 3.5832550462,
				"y": 0.0839845696,
				"z": 1.9977542967,
				"element": "C" 
			},
			{
				"x": 4.0580242622,
				"y": -1.2251631712,
				"z": 1.8527880008,
				"element": "N" 
			},
			{
				"x": -1.2875101929,
				"y": 1.8017351219,
				"z": -1.1356370642,
				"element": "H" 
			},
			{
				"x": -1.8837852054,
				"y": 0.2491200192,
				"z": -1.7734060902,
				"element": "H" 
			},
			{
				"x": -2.7659820585,
				"y": 1.0663784408,
				"z": -0.4719173273,
				"element": "H" 
			},
			{
				"x": -1.901642782,
				"y": 1.0741768598,
				"z": 1.7361209965,
				"element": "H" 
			},
			{
				"x": -0.3449357554,
				"y": 1.7746341983,
				"z": 1.2487736791,
				"element": "H" 
			},
			{
				"x": -0.0409407945,
				"y": 0.5929463413,
				"z": 3.3616252875,
				"element": "H" 
			},
			{
				"x": -0.8375717891,
				"y": -0.8552283077,
				"z": 2.7234242618,
				"element": "H" 
			},
			{
				"x": 1.4210517054,
				"y": -1.4021695404,
				"z": 2.7187587212,
				"element": "H" 
			},
			{
				"x": 1.9782547445,
				"y": -1.5476567888,
				"z": 0.2240254292,
				"element": "H" 
			},
			{
				"x": 0.3863794755,
				"y": -2.1497367597,
				"z": 0.7115068641,
				"element": "H" 
			},
			{
				"x": 0.9455028887,
				"y": 0.5815307949,
				"z": -0.5672951096,
				"element": "H" 
			},
			{
				"x": 0.1713257472,
				"y": -0.813034589,
				"z": -1.3373363833,
				"element": "H" 
			},
			{
				"x": 3.3281173408,
				"y": 3.3358560988,
				"z": 2.1762290592,
				"element": "H" 
			},
			{
				"x": 5.327266968,
				"y": 1.4468721073,
				"z": 2.0301393097,
				"element": "H" 
			},
			{
				"x": 5.0602390722,
				"y": -1.2731692967,
				"z": 1.987529755,
				"element": "H" 
			},
			{
				"x": 3.6014194186,
				"y": -1.8954279012,
				"z": 2.4628327077,
				"element": "H" 
			}
		],
		 "valence_orbital": [ 
			{
				"type": "occ",
				"energy": -0.30909,
				"method": "rhf"
			},
			{
				"type": "occ",
				"energy": -0.27067,
				"method": "rhf"
			},
			{
				"type": "occ",
				"energy": -0.23309,
				"method": "rhf"
			},
			{
				"type": "occ",
				"energy": -0.20284,
				"method": "rhf"
			},
			{
				"type": "occ",
				"energy": -0.19949,
				"method": "rhf"
			},
			{
				"type": "unocc",
				"energy": 0.04174,
				"method": "rhf"
			},
			{
				"type": "unocc",
				"energy": 0.05824,
				"method": "rhf"
			},
			{
				"type": "unocc",
				"energy": 0.08692,
				"method": "rhf"
			},
			{
				"type": "unocc",
				"energy": 0.09954,
				"method": "rhf"
			},
			{
				"type": "unocc",
				"energy": 0.10734,
				"method": "rhf"
			}
		],
		"cosmo_sigma_profile": { 
			"-0.025": 0.0,
			"-0.024": 0.0,
			"-0.023": 0.0,
			"-0.022": 0.0,
			"-0.021": 0.0,
			"-0.02": 0.0,
			"-0.019": 0.0,
			"-0.018": 0.0,
			"-0.017": 0.0,
			"-0.016": 0.0,
			"-0.015": 0.0,
			"-0.014": 0.0,
			"-0.013": 1.31571269924,
			"-0.012": 3.45359022052,
			"-0.011": 2.94296368849,
			"-0.01": 3.00549844373,
			"-0.009": 3.78723082649,
			"-0.008": 2.36139265252,
			"-0.007": 2.45882731854,
			"-0.006": 6.2598694736,
			"-0.005": 5.28827306792,
			"-0.004": 10.7534638006,
			"-0.003": 23.0170447088,
			"-0.002": 22.8445522314,
			"-0.001": 28.1928842737,
			"0.0": 30.1058375409,
			"0.001": 15.7467847092,
			"0.002": 6.7225493404,
			"0.003": 6.99209895984,
			"0.004": 7.86003971302,
			"0.005": 7.23446970511,
			"0.006": 8.08837965793,
			"0.007": 9.38823404677,
			"0.008": 4.80411144462,
			"0.009": 2.55694810556,
			"0.01": 3.77881719843,
			"0.011": 3.57568247328,
			"0.012": 1.48578174619,
			"0.013": 1.37297086685,
			"0.014": 1.36859738872,
			"0.015": 0.307802062538,
			"0.016": 0.443638263668,
			"0.017": 0.189364174461,
			"0.018": 0.0,
			"0.019": 0.0,
			"0.02": 0.0,
			"0.021": 0.0,
			"0.022": 0.0,
			"0.023": 0.0,
			"0.024": 0.0,
			"0.025": 0.0
		}
	}
}
