{
	 "smiles": "CC1=NC(NS(=O)(=O)C2=CC=C(N)C=C2)=CC=C1", 
	 "Tm": 497.15, 
	 "num_atms": 31, 
	 "gaussian": { 
		 "optdone": 1, 
		 "sigma_profile": "yes", 
		 "theory": "DFT", 
		 "functional": "B3LYP", 
		 "basiset": "6-31G**", 
		 "properties": { 
			 "R2extent": 5498.4719, 
			 "electric_dipole_moment_norm": 7.79339773013, 
			 "electric_quadrupole_moment_norm": 12.4384732214, 
			 "total_energy": -1177.94975184, 
			 "HOMO_LUMO_gap": 0.19172, 
			 "cosmo_polarized_energy": -20.62, 
			 "cosmo_cavitation_energy": 36.62, 
			 "cosmo_dispersion_energy": -26.29, 
			 "cosmo_repulsion_energy": 2.02, 
			 "cosmo_total_nonelectrostatic_energy": 12.35, 
			 "SMD_solvation_energy": 4.13 
		},
		"coords": [
			{
				"x": -5.0944129454,
				"y": 1.1183787253,
				"z": 1.0547580258,
				"element": "C" 
			},
			{
				"x": -4.0101490643,
				"y": 0.8370486652,
				"z": 0.04521267,
				"element": "C" 
			},
			{
				"x": -2.8147418996,
				"y": 1.4018403264,
				"z": 0.2882924581,
				"element": "N" 
			},
			{
				"x": -1.8237323806,
				"y": 1.2083681751,
				"z": -0.5864879427,
				"element": "C" 
			},
			{
				"x": -0.6367317399,
				"y": 1.9015843079,
				"z": -0.2642383597,
				"element": "N" 
			},
			{
				"x": 0.9412735823,
				"y": 1.281309579,
				"z": -0.4186473215,
				"element": "S" 
			},
			{
				"x": 1.0838989758,
				"y": 0.8227672561,
				"z": -1.80137196,
				"element": "O" 
			},
			{
				"x": 1.776235775,
				"y": 2.3401410466,
				"z": 0.148077211,
				"element": "O" 
			},
			{
				"x": 1.0472188544,
				"y": -0.1440330479,
				"z": 0.6439921944,
				"element": "C" 
			},
			{
				"x": 1.3875169284,
				"y": 0.0238207453,
				"z": 1.9912163865,
				"element": "C" 
			},
			{
				"x": 1.4444486475,
				"y": -1.0783148259,
				"z": 2.8316927375,
				"element": "C" 
			},
			{
				"x": 1.1610183199,
				"y": -2.3702591115,
				"z": 2.3425868338,
				"element": "C" 
			},
			{
				"x": 1.2647171348,
				"y": -3.4736609664,
				"z": 3.1696197095,
				"element": "N" 
			},
			{
				"x": 0.8282866993,
				"y": -2.5216648159,
				"z": 0.9815366216,
				"element": "C" 
			},
			{
				"x": 0.7729359026,
				"y": -1.4196036292,
				"z": 0.1391134289,
				"element": "C" 
			},
			{
				"x": -1.9541846346,
				"y": 0.4404167979,
				"z": -1.7541677295,
				"element": "C" 
			},
			{
				"x": -3.1857347214,
				"y": -0.1621281568,
				"z": -1.9789888182,
				"element": "C" 
			},
			{
				"x": -4.2327049056,
				"y": 0.0320630344,
				"z": -1.0755123325,
				"element": "C" 
			},
			{
				"x": -6.0151268463,
				"y": 0.578507714,
				"z": 0.8198147307,
				"element": "H" 
			},
			{
				"x": -5.3179637707,
				"y": 2.1902287154,
				"z": 1.0848658156,
				"element": "H" 
			},
			{
				"x": -4.7651131401,
				"y": 0.8327728923,
				"z": 2.058913715,
				"element": "H" 
			},
			{
				"x": -0.7371710579,
				"y": 2.4348903829,
				"z": 0.5954856266,
				"element": "H" 
			},
			{
				"x": 1.6246865517,
				"y": 1.0132983595,
				"z": 2.367445432,
				"element": "H" 
			},
			{
				"x": 1.7215340595,
				"y": -0.9494905413,
				"z": 3.8745772273,
				"element": "H" 
			},
			{
				"x": 1.2193517623,
				"y": -3.3080221865,
				"z": 4.1639714994,
				"element": "H" 
			},
			{
				"x": 0.7899927997,
				"y": -4.3141163232,
				"z": 2.8755180499,
				"element": "H" 
			},
			{
				"x": 0.6258655731,
				"y": -3.5138630998,
				"z": 0.5871393561,
				"element": "H" 
			},
			{
				"x": 0.5361014169,
				"y": -1.5433796619,
				"z": -0.9113700483,
				"element": "H" 
			},
			{
				"x": -1.127314063,
				"y": 0.3484903106,
				"z": -2.4462264214,
				"element": "H" 
			},
			{
				"x": -3.3352051912,
				"y": -0.7690184797,
				"z": -2.867665101,
				"element": "H" 
			},
			{
				"x": -5.2043966228,
				"y": -0.4220721878,
				"z": -1.239353695,
				"element": "H" 
			}
		],
		 "valence_orbital": [ 
			{
				"type": "occ",
				"energy": -0.27913,
				"method": "rhf"
			},
			{
				"type": "occ",
				"energy": -0.26857,
				"method": "rhf"
			},
			{
				"type": "occ",
				"energy": -0.26406,
				"method": "rhf"
			},
			{
				"type": "occ",
				"energy": -0.23562,
				"method": "rhf"
			},
			{
				"type": "occ",
				"energy": -0.22013,
				"method": "rhf"
			},
			{
				"type": "unocc",
				"energy": -0.02841,
				"method": "rhf"
			},
			{
				"type": "unocc",
				"energy": -0.02305,
				"method": "rhf"
			},
			{
				"type": "unocc",
				"energy": -0.01506,
				"method": "rhf"
			},
			{
				"type": "unocc",
				"energy": -0.00212,
				"method": "rhf"
			},
			{
				"type": "unocc",
				"energy": 0.05967,
				"method": "rhf"
			}
		],
		"cosmo_sigma_profile": { 
			"-0.025": 0.0,
			"-0.024": 0.0,
			"-0.023": 0.0,
			"-0.022": 0.0,
			"-0.021": 0.0,
			"-0.02": 0.0,
			"-0.019": 0.0,
			"-0.018": 0.0,
			"-0.017": 0.0,
			"-0.016": 0.0,
			"-0.015": 0.0701178823661,
			"-0.014": 0.970304949806,
			"-0.013": 3.80234021653,
			"-0.012": 3.22043597955,
			"-0.011": 4.02000831456,
			"-0.01": 3.91861885313,
			"-0.009": 4.13273057634,
			"-0.008": 4.49398961783,
			"-0.007": 8.28564098269,
			"-0.006": 14.3586915957,
			"-0.005": 17.7096609915,
			"-0.004": 17.1643897673,
			"-0.003": 17.2521709288,
			"-0.002": 16.142355164,
			"-0.001": 18.7039556944,
			"0.0": 18.9476401312,
			"0.001": 19.3012457891,
			"0.002": 23.6751556879,
			"0.003": 24.3639045638,
			"0.004": 19.4911012279,
			"0.005": 7.98781177679,
			"0.006": 4.65289998437,
			"0.007": 6.77431585378,
			"0.008": 5.89942672134,
			"0.009": 5.62219516861,
			"0.01": 7.1305876023,
			"0.011": 10.1994861762,
			"0.012": 3.05313146133,
			"0.013": 0.619933659698,
			"0.014": 0.0654757422062,
			"0.015": 0.0,
			"0.016": 0.0,
			"0.017": 0.0,
			"0.018": 0.0,
			"0.019": 0.0,
			"0.02": 0.0,
			"0.021": 0.0,
			"0.022": 0.0,
			"0.023": 0.0,
			"0.024": 0.0,
			"0.025": 0.0
		}
	}
}
