{
	 "smiles": "CC(C)(C)C1CCC2=C(C1)SC(N)=C2C#N", 
	 "Tm": 454.15, 
	 "num_atms": 34, 
	 "gaussian": { 
		 "optdone": 1, 
		 "sigma_profile": "yes", 
		 "theory": "DFT", 
		 "functional": "B3LYP", 
		 "basiset": "6-31G**", 
		 "properties": { 
			 "R2extent": 5105.8, 
			 "electric_dipole_moment_norm": 3.92505373212, 
			 "electric_quadrupole_moment_norm": 27.0676987975, 
			 "total_energy": -1013.91883693, 
			 "HOMO_LUMO_gap": 0.18246, 
			 "cosmo_polarized_energy": -12.63, 
			 "cosmo_cavitation_energy": 35.67, 
			 "cosmo_dispersion_energy": -25.09, 
			 "cosmo_repulsion_energy": 1.89, 
			 "cosmo_total_nonelectrostatic_energy": 12.47, 
			 "SMD_solvation_energy": 6.2 
		},
		"coords": [
			{
				"x": -0.1570885953,
				"y": -0.9833857044,
				"z": -1.2746387887,
				"element": "C" 
			},
			{
				"x": 0.7604600964,
				"y": -1.3991376416,
				"z": -0.1052855389,
				"element": "C" 
			},
			{
				"x": 2.1743481363,
				"y": -1.6605186196,
				"z": -0.6748289822,
				"element": "C" 
			},
			{
				"x": 0.2442985102,
				"y": -2.7303067425,
				"z": 0.4799458161,
				"element": "C" 
			},
			{
				"x": 0.8819753268,
				"y": -0.3206496518,
				"z": 1.034658085,
				"element": "C" 
			},
			{
				"x": -0.2755861987,
				"y": -0.2370351642,
				"z": 2.0619547619,
				"element": "C" 
			},
			{
				"x": -1.5810754087,
				"y": 0.3851399997,
				"z": 1.5372368481,
				"element": "C" 
			},
			{
				"x": -1.2988831171,
				"y": 1.6190215457,
				"z": 0.724367677,
				"element": "C" 
			},
			{
				"x": -0.0479644403,
				"y": 1.9127127084,
				"z": 0.2807553111,
				"element": "C" 
			},
			{
				"x": 1.2018737313,
				"y": 1.1133064757,
				"z": 0.524713739,
				"element": "C" 
			},
			{
				"x": -0.0307386266,
				"y": 3.4181690729,
				"z": -0.6453925263,
				"element": "S" 
			},
			{
				"x": -1.7545855619,
				"y": 3.6242629561,
				"z": -0.4443046276,
				"element": "C" 
			},
			{
				"x": -2.4035520103,
				"y": 4.7379284465,
				"z": -0.9228376734,
				"element": "N" 
			},
			{
				"x": -2.2896839289,
				"y": 2.5906474558,
				"z": 0.3089602912,
				"element": "C" 
			},
			{
				"x": -3.6769668261,
				"y": 2.5263426512,
				"z": 0.5977467917,
				"element": "C" 
			},
			{
				"x": -4.8246423263,
				"y": 2.5076196937,
				"z": 0.8076092965,
				"element": "N" 
			},
			{
				"x": 0.1845522561,
				"y": -0.0635923371,
				"z": -1.7583220561,
				"element": "H" 
			},
			{
				"x": -1.1918369208,
				"y": -0.8289717778,
				"z": -0.9595901526,
				"element": "H" 
			},
			{
				"x": -0.1616302227,
				"y": -1.7712853605,
				"z": -2.0366813015,
				"element": "H" 
			},
			{
				"x": 2.1353451269,
				"y": -2.4179564366,
				"z": -1.4652490187,
				"element": "H" 
			},
			{
				"x": 2.8544588615,
				"y": -2.0259096049,
				"z": 0.103148297,
				"element": "H" 
			},
			{
				"x": 2.6195603722,
				"y": -0.7603827264,
				"z": -1.1113399415,
				"element": "H" 
			},
			{
				"x": 0.3060596581,
				"y": -3.5235389535,
				"z": -0.2730566155,
				"element": "H" 
			},
			{
				"x": -0.8009650236,
				"y": -2.6644057534,
				"z": 0.7971308518,
				"element": "H" 
			},
			{
				"x": 0.8404469765,
				"y": -3.0481462318,
				"z": 1.3434803144,
				"element": "H" 
			},
			{
				"x": 1.757327465,
				"y": -0.6396429171,
				"z": 1.6165641045,
				"element": "H" 
			},
			{
				"x": -0.4805562248,
				"y": -1.22111806,
				"z": 2.4915940098,
				"element": "H" 
			},
			{
				"x": 0.0830940369,
				"y": 0.3857966094,
				"z": 2.8917990553,
				"element": "H" 
			},
			{
				"x": -2.2359398129,
				"y": 0.6356413062,
				"z": 2.381135732,
				"element": "H" 
			},
			{
				"x": -2.1468488776,
				"y": -0.3366647397,
				"z": 0.9328765969,
				"element": "H" 
			},
			{
				"x": 1.8229190101,
				"y": 1.6249966153,
				"z": 1.2737697909,
				"element": "H" 
			},
			{
				"x": 1.8121130944,
				"y": 1.0728913738,
				"z": -0.3844713071,
				"element": "H" 
			},
			{
				"x": -3.4141958085,
				"y": 4.6859305188,
				"z": -0.8888381298,
				"element": "H" 
			},
			{
				"x": -2.0491927274,
				"y": 5.146240994,
				"z": -1.7761107102,
				"element": "H" 
			}
		],
		 "valence_orbital": [ 
			{
				"type": "occ",
				"energy": -0.31139,
				"method": "rhf"
			},
			{
				"type": "occ",
				"energy": -0.30457,
				"method": "rhf"
			},
			{
				"type": "occ",
				"energy": -0.3015,
				"method": "rhf"
			},
			{
				"type": "occ",
				"energy": -0.24882,
				"method": "rhf"
			},
			{
				"type": "occ",
				"energy": -0.20228,
				"method": "rhf"
			},
			{
				"type": "unocc",
				"energy": -0.01982,
				"method": "rhf"
			},
			{
				"type": "unocc",
				"energy": -0.00187,
				"method": "rhf"
			},
			{
				"type": "unocc",
				"energy": 0.02183,
				"method": "rhf"
			},
			{
				"type": "unocc",
				"energy": 0.04764,
				"method": "rhf"
			},
			{
				"type": "unocc",
				"energy": 0.0637,
				"method": "rhf"
			}
		],
		"cosmo_sigma_profile": { 
			"-0.025": 0.0,
			"-0.024": 0.0,
			"-0.023": 0.0,
			"-0.022": 0.0,
			"-0.021": 0.0,
			"-0.02": 0.0,
			"-0.019": 0.0,
			"-0.018": 0.0,
			"-0.017": 0.0,
			"-0.016": 0.0,
			"-0.015": 0.755095138443,
			"-0.014": 1.78814224285,
			"-0.013": 2.83169621913,
			"-0.012": 2.24627333245,
			"-0.011": 2.37683743262,
			"-0.01": 2.48756090372,
			"-0.009": 2.1442778534,
			"-0.008": 2.07004240698,
			"-0.007": 1.78059630008,
			"-0.006": 2.34711959633,
			"-0.005": 2.55081897982,
			"-0.004": 10.8657078582,
			"-0.003": 22.4575317812,
			"-0.002": 44.7035779434,
			"-0.001": 36.7503740874,
			"0.0": 28.0767877756,
			"0.001": 30.6638567806,
			"0.002": 27.3736148635,
			"0.003": 15.1399380475,
			"0.004": 9.8066944402,
			"0.005": 5.02404917495,
			"0.006": 2.54006888921,
			"0.007": 2.50023773868,
			"0.008": 3.41530513774,
			"0.009": 3.73341631648,
			"0.01": 3.7042116509,
			"0.011": 3.8496953283,
			"0.012": 2.78907578269,
			"0.013": 2.78962361762,
			"0.014": 1.388955927,
			"0.015": 0.0,
			"0.016": 0.0,
			"0.017": 0.0,
			"0.018": 0.0,
			"0.019": 0.0,
			"0.02": 0.0,
			"0.021": 0.0,
			"0.022": 0.0,
			"0.023": 0.0,
			"0.024": 0.0,
			"0.025": 0.0
		}
	}
}
