{
	 "smiles": "CC1=NC2=C(C3=C(CCC3)S2)C(NN)=N1", 
	 "Tm": 456.15, 
	 "num_atms": 27, 
	 "gaussian": { 
		 "optdone": 1, 
		 "sigma_profile": "yes", 
		 "theory": "DFT", 
		 "functional": "B3LYP", 
		 "basiset": "6-31G**", 
		 "properties": { 
			 "R2extent": 4042.5783, 
			 "electric_dipole_moment_norm": 4.69538016778, 
			 "electric_quadrupole_moment_norm": 9.40552980432, 
			 "total_energy": -1005.47196377, 
			 "HOMO_LUMO_gap": 0.18048, 
			 "cosmo_polarized_energy": -12.35, 
			 "cosmo_cavitation_energy": 30.92, 
			 "cosmo_dispersion_energy": -23.79, 
			 "cosmo_repulsion_energy": 1.85, 
			 "cosmo_total_nonelectrostatic_energy": 8.98, 
			 "SMD_solvation_energy": 1.82 
		},
		"coords": [
			{
				"x": 0.8745277784,
				"y": 1.6245285605,
				"z": -4.7182608263,
				"element": "C" 
			},
			{
				"x": 0.7311744853,
				"y": 0.9798214481,
				"z": -3.3656716378,
				"element": "C" 
			},
			{
				"x": 1.5279844052,
				"y": -0.0537410023,
				"z": -3.0816582825,
				"element": "N" 
			},
			{
				"x": 1.3247825673,
				"y": -0.5940626252,
				"z": -1.8793758129,
				"element": "C" 
			},
			{
				"x": 0.3737693258,
				"y": -0.1759420593,
				"z": -0.9133427478,
				"element": "C" 
			},
			{
				"x": 0.3811947166,
				"y": -1.0489336086,
				"z": 0.2367332142,
				"element": "C" 
			},
			{
				"x": 1.3123336609,
				"y": -2.038343524,
				"z": 0.1347587233,
				"element": "C" 
			},
			{
				"x": 1.3762597772,
				"y": -2.9472864041,
				"z": 1.3279864665,
				"element": "C" 
			},
			{
				"x": 0.0485186565,
				"y": -2.5818755387,
				"z": 2.0542566482,
				"element": "C" 
			},
			{
				"x": -0.3619298159,
				"y": -1.1674996487,
				"z": 1.5480954966,
				"element": "C" 
			},
			{
				"x": 2.2433323614,
				"y": -2.0013503966,
				"z": -1.3413073387,
				"element": "S" 
			},
			{
				"x": -0.3675476419,
				"y": 0.9626363603,
				"z": -1.3292035812,
				"element": "C" 
			},
			{
				"x": -1.3607243556,
				"y": 1.5841688314,
				"z": -0.5908390826,
				"element": "N" 
			},
			{
				"x": -1.2504632637,
				"y": 1.6377740947,
				"z": 0.8103084501,
				"element": "N" 
			},
			{
				"x": -0.1850938702,
				"y": 1.509403883,
				"z": -2.5372698116,
				"element": "N" 
			},
			{
				"x": 1.0952546594,
				"y": 2.691725043,
				"z": -4.6125859275,
				"element": "H" 
			},
			{
				"x": 1.6727280074,
				"y": 1.1411748938,
				"z": -5.2826159439,
				"element": "H" 
			},
			{
				"x": -0.0636794655,
				"y": 1.5461552526,
				"z": -5.2782192634,
				"element": "H" 
			},
			{
				"x": 1.4322002509,
				"y": -4.0105252308,
				"z": 1.0694787316,
				"element": "H" 
			},
			{
				"x": 2.2569811204,
				"y": -2.7242787846,
				"z": 1.9468713989,
				"element": "H" 
			},
			{
				"x": -0.7216021101,
				"y": -3.3051298506,
				"z": 1.7667280404,
				"element": "H" 
			},
			{
				"x": 0.1450578786,
				"y": -2.6248980789,
				"z": 3.1429371175,
				"element": "H" 
			},
			{
				"x": -0.05373866,
				"y": -0.3756192617,
				"z": 2.2401870544,
				"element": "H" 
			},
			{
				"x": -1.4459605657,
				"y": -1.0711834518,
				"z": 1.4376187374,
				"element": "H" 
			},
			{
				"x": -1.6765476287,
				"y": 2.4237003658,
				"z": -1.0709410577,
				"element": "H" 
			},
			{
				"x": -0.8278897559,
				"y": 2.5161974261,
				"z": 1.1087985518,
				"element": "H" 
			},
			{
				"x": -2.1783225182,
				"y": 1.5694833065,
				"z": 1.216132683,
				"element": "H" 
			}
		],
		 "valence_orbital": [ 
			{
				"type": "occ",
				"energy": -0.27693,
				"method": "rhf"
			},
			{
				"type": "occ",
				"energy": -0.25404,
				"method": "rhf"
			},
			{
				"type": "occ",
				"energy": -0.24585,
				"method": "rhf"
			},
			{
				"type": "occ",
				"energy": -0.24191,
				"method": "rhf"
			},
			{
				"type": "occ",
				"energy": -0.19862,
				"method": "rhf"
			},
			{
				"type": "unocc",
				"energy": -0.01814,
				"method": "rhf"
			},
			{
				"type": "unocc",
				"energy": -0.00957,
				"method": "rhf"
			},
			{
				"type": "unocc",
				"energy": 0.03292,
				"method": "rhf"
			},
			{
				"type": "unocc",
				"energy": 0.04923,
				"method": "rhf"
			},
			{
				"type": "unocc",
				"energy": 0.06408,
				"method": "rhf"
			}
		],
		"cosmo_sigma_profile": { 
			"-0.025": 0.0,
			"-0.024": 0.0,
			"-0.023": 0.0,
			"-0.022": 0.0,
			"-0.021": 0.0,
			"-0.02": 0.0,
			"-0.019": 0.0,
			"-0.018": 0.0,
			"-0.017": 0.0,
			"-0.016": 0.0,
			"-0.015": 0.0,
			"-0.014": 0.0,
			"-0.013": 0.149237017017,
			"-0.012": 2.14238807896,
			"-0.011": 5.32423451986,
			"-0.01": 5.18872712506,
			"-0.009": 4.23069133832,
			"-0.008": 3.54032847307,
			"-0.007": 2.92744976209,
			"-0.006": 1.58716743603,
			"-0.005": 3.87667341809,
			"-0.004": 11.9894297489,
			"-0.003": 19.6426344683,
			"-0.002": 24.1809214561,
			"-0.001": 27.8561619759,
			"0.0": 25.5800520739,
			"0.001": 21.3383528435,
			"0.002": 19.9450588224,
			"0.003": 19.2327048053,
			"0.004": 13.5756383721,
			"0.005": 9.58209345909,
			"0.006": 5.26296824394,
			"0.007": 3.83229135618,
			"0.008": 3.6935806272,
			"0.009": 3.0064842456,
			"0.01": 1.9149481049,
			"0.011": 1.9512476872,
			"0.012": 1.5207454198,
			"0.013": 1.81188361365,
			"0.014": 1.02671951491,
			"0.015": 0.352889656459,
			"0.016": 0.0,
			"0.017": 0.0,
			"0.018": 0.0,
			"0.019": 0.0,
			"0.02": 0.0,
			"0.021": 0.0,
			"0.022": 0.0,
			"0.023": 0.0,
			"0.024": 0.0,
			"0.025": 0.0
		}
	}
}
