{
	 "smiles": "CC1=NN(CCO)C(C(F)F)=C1C(O)=O", 
	 "Tm": 422.15, 
	 "num_atms": 25, 
	 "gaussian": { 
		 "optdone": 1, 
		 "sigma_profile": "yes", 
		 "theory": "DFT", 
		 "functional": "B3LYP", 
		 "basiset": "6-31G**", 
		 "properties": { 
			 "R2extent": 3154.9556, 
			 "electric_dipole_moment_norm": 3.67312369244, 
			 "electric_quadrupole_moment_norm": 15.5216734694, 
			 "total_energy": -845.716765562, 
			 "HOMO_LUMO_gap": 0.22037, 
			 "cosmo_polarized_energy": -17.17, 
			 "cosmo_cavitation_energy": 28.89, 
			 "cosmo_dispersion_energy": -20.89, 
			 "cosmo_repulsion_energy": 1.61, 
			 "cosmo_total_nonelectrostatic_energy": 9.61, 
			 "SMD_solvation_energy": 5.61 
		},
		"coords": [
			{
				"x": 0.9226728095,
				"y": 2.6747131612,
				"z": -1.1971542345,
				"element": "C" 
			},
			{
				"x": 0.2999298206,
				"y": 1.4155259495,
				"z": -0.6697151582,
				"element": "C" 
			},
			{
				"x": -0.304769704,
				"y": 0.5888082291,
				"z": -1.5186857492,
				"element": "N" 
			},
			{
				"x": -0.7795986729,
				"y": -0.4301606606,
				"z": -0.7697524823,
				"element": "N" 
			},
			{
				"x": -1.3944297453,
				"y": -1.5722887152,
				"z": -1.4395485326,
				"element": "C" 
			},
			{
				"x": -0.3513666038,
				"y": -2.4611267463,
				"z": -2.1335160269,
				"element": "C" 
			},
			{
				"x": 0.712174515,
				"y": -2.8447185672,
				"z": -1.2919812482,
				"element": "O" 
			},
			{
				"x": -0.4841344128,
				"y": -0.2845315963,
				"z": 0.5418124181,
				"element": "C" 
			},
			{
				"x": -0.9183405551,
				"y": -1.2481680472,
				"z": 1.6002867312,
				"element": "C" 
			},
			{
				"x": -0.3654539981,
				"y": -2.5002503241,
				"z": 1.384350878,
				"element": "F" 
			},
			{
				"x": -2.2781795866,
				"y": -1.4253737056,
				"z": 1.5448101541,
				"element": "F" 
			},
			{
				"x": 0.2201964302,
				"y": 0.9162803316,
				"z": 0.6646213508,
				"element": "C" 
			},
			{
				"x": 0.7074274745,
				"y": 1.4742767257,
				"z": 1.9435976876,
				"element": "C" 
			},
			{
				"x": 1.4483701421,
				"y": 2.6090604959,
				"z": 1.8832945725,
				"element": "O" 
			},
			{
				"x": 0.477476793,
				"y": 0.9770039887,
				"z": 3.0272814315,
				"element": "O" 
			},
			{
				"x": 2.0129050063,
				"y": 2.6823503429,
				"z": -1.0646541649,
				"element": "H" 
			},
			{
				"x": 0.5066586733,
				"y": 3.5710971291,
				"z": -0.7214093868,
				"element": "H" 
			},
			{
				"x": 0.7288851502,
				"y": 2.7472173466,
				"z": -2.2689217111,
				"element": "H" 
			},
			{
				"x": -2.1043471878,
				"y": -1.1849664051,
				"z": -2.175499864,
				"element": "H" 
			},
			{
				"x": -1.954002984,
				"y": -2.1281561695,
				"z": -0.6860642427,
				"element": "H" 
			},
			{
				"x": 0.0979483603,
				"y": -1.9064055558,
				"z": -2.9623026658,
				"element": "H" 
			},
			{
				"x": -0.8879166221,
				"y": -3.3253841924,
				"z": -2.5598145872,
				"element": "H" 
			},
			{
				"x": 0.3511551698,
				"y": -3.1682048388,
				"z": -0.4554456053,
				"element": "H" 
			},
			{
				"x": -0.6301957436,
				"y": -0.9048094198,
				"z": 2.5927131309,
				"element": "H" 
			},
			{
				"x": 1.6036354712,
				"y": 2.8803112434,
				"z": 0.9687973053,
				"element": "H" 
			}
		],
		 "valence_orbital": [ 
			{
				"type": "occ",
				"energy": -0.31629,
				"method": "rhf"
			},
			{
				"type": "occ",
				"energy": -0.28393,
				"method": "rhf"
			},
			{
				"type": "occ",
				"energy": -0.27934,
				"method": "rhf"
			},
			{
				"type": "occ",
				"energy": -0.27596,
				"method": "rhf"
			},
			{
				"type": "occ",
				"energy": -0.26724,
				"method": "rhf"
			},
			{
				"type": "unocc",
				"energy": -0.04687,
				"method": "rhf"
			},
			{
				"type": "unocc",
				"energy": -0.00585,
				"method": "rhf"
			},
			{
				"type": "unocc",
				"energy": 0.05715,
				"method": "rhf"
			},
			{
				"type": "unocc",
				"energy": 0.0762,
				"method": "rhf"
			},
			{
				"type": "unocc",
				"energy": 0.08609,
				"method": "rhf"
			}
		],
		"cosmo_sigma_profile": { 
			"-0.025": 0.0,
			"-0.024": 0.0,
			"-0.023": 0.0,
			"-0.022": 0.0,
			"-0.021": 0.0,
			"-0.02": 0.0,
			"-0.019": 0.0,
			"-0.018": 0.0,
			"-0.017": 0.0,
			"-0.016": 0.0,
			"-0.015": 0.747659966874,
			"-0.014": 1.60551942398,
			"-0.013": 0.675505436909,
			"-0.012": 1.81842932221,
			"-0.011": 3.34262417578,
			"-0.01": 2.75603576937,
			"-0.009": 3.3696857386,
			"-0.008": 5.07064066694,
			"-0.007": 9.01292378967,
			"-0.006": 11.3242817967,
			"-0.005": 16.4551723049,
			"-0.004": 15.8528234842,
			"-0.003": 15.9694724358,
			"-0.002": 16.9949867264,
			"-0.001": 15.0561346201,
			"0.0": 13.1672280268,
			"0.001": 10.7278220848,
			"0.002": 10.3294428158,
			"0.003": 14.6496975963,
			"0.004": 12.6762054571,
			"0.005": 5.08625508563,
			"0.006": 4.74269017163,
			"0.007": 4.55137396965,
			"0.008": 4.74384629986,
			"0.009": 4.75846030297,
			"0.01": 7.14877558695,
			"0.011": 6.01545520881,
			"0.012": 4.47999984143,
			"0.013": 4.19338043448,
			"0.014": 2.06339632047,
			"0.015": 0.055943981989,
			"0.016": 0.0,
			"0.017": 0.0,
			"0.018": 0.0,
			"0.019": 0.0,
			"0.02": 0.0,
			"0.021": 0.0,
			"0.022": 0.0,
			"0.023": 0.0,
			"0.024": 0.0,
			"0.025": 0.0
		}
	}
}
