{
	 "smiles": "ClC1=C(Cl)C(Cl)=C(Cl)C(Cl)=C1Cl", 
	 "Tm": 503.15, 
	 "num_atms": 12, 
	 "gaussian": { 
		 "optdone": 1, 
		 "sigma_profile": "yes", 
		 "theory": "DFT", 
		 "functional": "B3LYP", 
		 "basiset": "6-31G**", 
		 "properties": { 
			 "R2extent": 4781.3315, 
			 "electric_dipole_moment_norm": 0.0, 
			 "electric_quadrupole_moment_norm": 0.562335202526, 
			 "total_energy": -2989.7584814, 
			 "HOMO_LUMO_gap": 0.20456, 
			 "cosmo_polarized_energy": -2.53, 
			 "cosmo_cavitation_energy": 26.85, 
			 "cosmo_dispersion_energy": -20.88, 
			 "cosmo_repulsion_energy": 1.65, 
			 "cosmo_total_nonelectrostatic_energy": 7.62, 
			 "SMD_solvation_energy": 3.2 
		},
		"coords": [
			{
				"x": 0.649605611,
				"y": -2.4114840508,
				"z": -1.0172968694,
				"element": "Cl" 
			},
			{
				"x": 0.1177768322,
				"y": -1.2517417843,
				"z": 0.1566814613,
				"element": "C" 
			},
			{
				"x": -0.3825260784,
				"y": -0.0078010642,
				"z": -0.2616660055,
				"element": "C" 
			},
			{
				"x": -0.4682928277,
				"y": 0.3680348094,
				"z": -1.9520634518,
				"element": "Cl" 
			},
			{
				"x": -0.8133665203,
				"y": 0.9316903052,
				"z": 0.6893614247,
				"element": "C" 
			},
			{
				"x": -1.4310210664,
				"y": 2.4672076845,
				"z": 0.1729336623,
				"element": "Cl" 
			},
			{
				"x": -0.7438714794,
				"y": 0.6272229706,
				"z": 2.0587338715,
				"element": "C" 
			},
			{
				"x": -1.2757050945,
				"y": 1.786956064,
				"z": 3.2327253036,
				"element": "Cl" 
			},
			{
				"x": -0.2435700589,
				"y": -0.6167145522,
				"z": 2.477086554,
				"element": "C" 
			},
			{
				"x": -0.1578172212,
				"y": -0.9925377005,
				"z": 4.16748564,
				"element": "Cl" 
			},
			{
				"x": 0.1872694414,
				"y": -1.5562011158,
				"z": 1.526054354,
				"element": "C" 
			},
			{
				"x": 0.8049184622,
				"y": -3.0917315658,
				"z": 2.0424640552,
				"element": "Cl" 
			}
		],
		 "valence_orbital": [ 
			{
				"type": "occ",
				"energy": -0.33395,
				"method": "rhf"
			},
			{
				"type": "occ",
				"energy": -0.32299,
				"method": "rhf"
			},
			{
				"type": "occ",
				"energy": -0.30769,
				"method": "rhf"
			},
			{
				"type": "occ",
				"energy": -0.26807,
				"method": "rhf"
			},
			{
				"type": "occ",
				"energy": -0.26806,
				"method": "rhf"
			},
			{
				"type": "unocc",
				"energy": -0.0635,
				"method": "rhf"
			},
			{
				"type": "unocc",
				"energy": -0.06034,
				"method": "rhf"
			},
			{
				"type": "unocc",
				"energy": -0.06033,
				"method": "rhf"
			},
			{
				"type": "unocc",
				"energy": 0.00386,
				"method": "rhf"
			},
			{
				"type": "unocc",
				"energy": 0.00386,
				"method": "rhf"
			}
		],
		"cosmo_sigma_profile": { 
			"-0.025": 0.0,
			"-0.024": 0.0,
			"-0.023": 0.0,
			"-0.022": 0.0,
			"-0.021": 0.0,
			"-0.02": 0.0,
			"-0.019": 0.0,
			"-0.018": 0.0,
			"-0.017": 0.0,
			"-0.016": 0.0,
			"-0.015": 0.0,
			"-0.014": 0.0,
			"-0.013": 0.0,
			"-0.012": 0.0,
			"-0.011": 0.0,
			"-0.01": 0.0,
			"-0.009": 0.0,
			"-0.008": 0.0,
			"-0.007": 0.0,
			"-0.006": 0.000167482979449,
			"-0.005": 4.37121104967,
			"-0.004": 13.7245532342,
			"-0.003": 36.4259856943,
			"-0.002": 21.302832228,
			"-0.001": 18.6188268452,
			"0.0": 22.3002450792,
			"0.001": 24.8593083288,
			"0.002": 42.8741386244,
			"0.003": 41.6856125458,
			"0.004": 4.08294337138,
			"0.005": 0.0,
			"0.006": 0.0,
			"0.007": 0.0,
			"0.008": 0.0,
			"0.009": 0.0,
			"0.01": 0.0,
			"0.011": 0.0,
			"0.012": 0.0,
			"0.013": 0.0,
			"0.014": 0.0,
			"0.015": 0.0,
			"0.016": 0.0,
			"0.017": 0.0,
			"0.018": 0.0,
			"0.019": 0.0,
			"0.02": 0.0,
			"0.021": 0.0,
			"0.022": 0.0,
			"0.023": 0.0,
			"0.024": 0.0,
			"0.025": 0.0
		}
	}
}
