{
	 "smiles": "ClC(=O)C1=CC2=C(S1)C=CC(Br)=C2", 
	 "Tm": 373.15, 
	 "num_atms": 17, 
	 "gaussian": { 
		 "optdone": 1, 
		 "sigma_profile": "yes", 
		 "theory": "DFT", 
		 "functional": "B3LYP", 
		 "basiset": "6-31G**", 
		 "properties": { 
			 "R2extent": 6979.3753, 
			 "electric_dipole_moment_norm": 3.13394924337, 
			 "electric_quadrupole_moment_norm": 15.6738818651, 
			 "total_energy": -3850.38146859, 
			 "HOMO_LUMO_gap": 0.14906, 
			 "cosmo_polarized_energy": -7.15, 
			 "cosmo_cavitation_energy": 28.04, 
			 "cosmo_dispersion_energy": -21.69, 
			 "cosmo_repulsion_energy": 1.66, 
			 "cosmo_total_nonelectrostatic_energy": 8.0, 
			 "SMD_solvation_energy": 3.7 
		},
		"coords": [
			{
				"x": -4.0895779475,
				"y": 2.3273286734,
				"z": -2.7905567124,
				"element": "Cl" 
			},
			{
				"x": -3.7442373577,
				"y": 0.5430867178,
				"z": -2.6459467323,
				"element": "C" 
			},
			{
				"x": -4.5425503411,
				"y": -0.2573085798,
				"z": -3.0359183844,
				"element": "O" 
			},
			{
				"x": -2.4511519171,
				"y": 0.2360883779,
				"z": -2.0337000974,
				"element": "C" 
			},
			{
				"x": -2.0109991458,
				"y": -1.0480692706,
				"z": -1.8388323222,
				"element": "C" 
			},
			{
				"x": -0.7221072061,
				"y": -1.1082267061,
				"z": -1.2259040573,
				"element": "C" 
			},
			{
				"x": -0.2026841919,
				"y": 0.1868620204,
				"z": -0.9638193861,
				"element": "C" 
			},
			{
				"x": -1.303779456,
				"y": 1.4478323136,
				"z": -1.4735805769,
				"element": "S" 
			},
			{
				"x": 1.0519876421,
				"y": 0.3549160467,
				"z": -0.364683294,
				"element": "C" 
			},
			{
				"x": 1.7862383931,
				"y": -0.773600516,
				"z": -0.0281654388,
				"element": "C" 
			},
			{
				"x": 1.2719003851,
				"y": -2.0595482154,
				"z": -0.2877365415,
				"element": "C" 
			},
			{
				"x": 2.3234597821,
				"y": -3.578364048,
				"z": 0.195287479,
				"element": "Br" 
			},
			{
				"x": 0.0358920838,
				"y": -2.2459739802,
				"z": -0.8781521912,
				"element": "C" 
			},
			{
				"x": -2.5987101397,
				"y": -1.9110702258,
				"z": -2.1284926911,
				"element": "H" 
			},
			{
				"x": 1.4502413986,
				"y": 1.3442833266,
				"z": -0.1637616405,
				"element": "H" 
			},
			{
				"x": 2.7600936831,
				"y": -0.6724283729,
				"z": 0.4365034631,
				"element": "H" 
			},
			{
				"x": -0.3449156651,
				"y": -3.2425075617,
				"z": -1.0708408759,
				"element": "H" 
			}
		],
		 "valence_orbital": [ 
			{
				"type": "occ",
				"energy": -0.3061,
				"method": "rhf"
			},
			{
				"type": "occ",
				"energy": -0.30347,
				"method": "rhf"
			},
			{
				"type": "occ",
				"energy": -0.30064,
				"method": "rhf"
			},
			{
				"type": "occ",
				"energy": -0.25981,
				"method": "rhf"
			},
			{
				"type": "occ",
				"energy": -0.24633,
				"method": "rhf"
			},
			{
				"type": "unocc",
				"energy": -0.09727,
				"method": "rhf"
			},
			{
				"type": "unocc",
				"energy": -0.03456,
				"method": "rhf"
			},
			{
				"type": "unocc",
				"energy": -0.01784,
				"method": "rhf"
			},
			{
				"type": "unocc",
				"energy": -0.01382,
				"method": "rhf"
			},
			{
				"type": "unocc",
				"energy": 0.00041,
				"method": "rhf"
			}
		],
		"cosmo_sigma_profile": { 
			"-0.025": 0.0,
			"-0.024": 0.0,
			"-0.023": 0.0,
			"-0.022": 0.0,
			"-0.021": 0.0,
			"-0.02": 0.0,
			"-0.019": 0.0,
			"-0.018": 0.0,
			"-0.017": 0.0,
			"-0.016": 0.0,
			"-0.015": 0.0,
			"-0.014": 0.0,
			"-0.013": 0.0,
			"-0.012": 0.0,
			"-0.011": 0.0,
			"-0.01": 0.316174838227,
			"-0.009": 3.67441139316,
			"-0.008": 8.45637172068,
			"-0.007": 6.88744798166,
			"-0.006": 7.09433361984,
			"-0.005": 7.26271914163,
			"-0.004": 10.1971810767,
			"-0.003": 12.7081181537,
			"-0.002": 12.6042707847,
			"-0.001": 20.4623420934,
			"0.0": 26.8465773776,
			"0.001": 32.6782965278,
			"0.002": 26.7513969313,
			"0.003": 20.0845113874,
			"0.004": 20.3971027721,
			"0.005": 5.99659047631,
			"0.006": 1.51172043109,
			"0.007": 3.18254171105,
			"0.008": 4.23998421033,
			"0.009": 2.98764923826,
			"0.01": 0.213373590996,
			"0.011": 0.0,
			"0.012": 0.0,
			"0.013": 0.0,
			"0.014": 0.0,
			"0.015": 0.0,
			"0.016": 0.0,
			"0.017": 0.0,
			"0.018": 0.0,
			"0.019": 0.0,
			"0.02": 0.0,
			"0.021": 0.0,
			"0.022": 0.0,
			"0.023": 0.0,
			"0.024": 0.0,
			"0.025": 0.0
		}
	}
}
