{
	 "smiles": "OCC1CCC(CO)CC1", 
	 "Tm": 336.65, 
	 "num_atms": 26, 
	 "gaussian": { 
		 "optdone": 1, 
		 "sigma_profile": "yes", 
		 "theory": "DFT", 
		 "functional": "B3LYP", 
		 "basiset": "6-31G**", 
		 "properties": { 
			 "R2extent": 2329.6782, 
			 "electric_dipole_moment_norm": 2.27941552377, 
			 "electric_quadrupole_moment_norm": 15.4895939711, 
			 "total_energy": -464.92963315, 
			 "HOMO_LUMO_gap": 0.32794, 
			 "cosmo_polarized_energy": -11.01, 
			 "cosmo_cavitation_energy": 26.1, 
			 "cosmo_dispersion_energy": -19.1, 
			 "cosmo_repulsion_energy": 1.55, 
			 "cosmo_total_nonelectrostatic_energy": 8.55, 
			 "SMD_solvation_energy": 3.55 
		},
		"coords": [
			{
				"x": 1.8550581525,
				"y": -3.3314905735,
				"z": 1.539592553,
				"element": "O" 
			},
			{
				"x": 0.8811488686,
				"y": -2.6720793885,
				"z": 0.740459736,
				"element": "C" 
			},
			{
				"x": 0.4722006438,
				"y": -1.2971773116,
				"z": 1.2851248842,
				"element": "C" 
			},
			{
				"x": 1.7082825052,
				"y": -0.4040274732,
				"z": 1.5499188674,
				"element": "C" 
			},
			{
				"x": 1.3341910221,
				"y": 1.0831733275,
				"z": 1.5281158357,
				"element": "C" 
			},
			{
				"x": 0.8793051712,
				"y": 1.5312100092,
				"z": 0.1168542286,
				"element": "C" 
			},
			{
				"x": -0.0045541183,
				"y": 2.7839896877,
				"z": 0.1824866895,
				"element": "C" 
			},
			{
				"x": 0.625357746,
				"y": 3.8894056629,
				"z": 0.8168420292,
				"element": "O" 
			},
			{
				"x": 0.1584564836,
				"y": 0.3761144231,
				"z": -0.6299017088,
				"element": "C" 
			},
			{
				"x": -0.536843522,
				"y": -0.5968454918,
				"z": 0.3345732261,
				"element": "C" 
			},
			{
				"x": 1.4664302002,
				"y": -3.4770101897,
				"z": 2.4122120017,
				"element": "H" 
			},
			{
				"x": -0.0159704705,
				"y": -3.29930852,
				"z": 0.6072133837,
				"element": "H" 
			},
			{
				"x": 1.3433051027,
				"y": -2.5584477186,
				"z": -0.2476787219,
				"element": "H" 
			},
			{
				"x": -0.0372348778,
				"y": -1.466790956,
				"z": 2.2468717349,
				"element": "H" 
			},
			{
				"x": 2.469968739,
				"y": -0.5938861436,
				"z": 0.7817778974,
				"element": "H" 
			},
			{
				"x": 2.1729529449,
				"y": -0.6796629583,
				"z": 2.5011716507,
				"element": "H" 
			},
			{
				"x": 2.1798439489,
				"y": 1.696418008,
				"z": 1.858475758,
				"element": "H" 
			},
			{
				"x": 0.5230496751,
				"y": 1.2537669542,
				"z": 2.2542893678,
				"element": "H" 
			},
			{
				"x": 1.776369425,
				"y": 1.805928523,
				"z": -0.453064166,
				"element": "H" 
			},
			{
				"x": -0.2428509433,
				"y": 3.1226554105,
				"z": -0.8316802405,
				"element": "H" 
			},
			{
				"x": -0.9621498786,
				"y": 2.5364799364,
				"z": 0.6739152709,
				"element": "H" 
			},
			{
				"x": 0.7542091948,
				"y": 3.6613853661,
				"z": 1.7459145923,
				"element": "H" 
			},
			{
				"x": -0.5711388841,
				"y": 0.7850685276,
				"z": -1.3404040373,
				"element": "H" 
			},
			{
				"x": 0.8851933896,
				"y": -0.1776141305,
				"z": -1.2360022512,
				"element": "H" 
			},
			{
				"x": -1.2781779968,
				"y": -0.0467835569,
				"z": 0.9263134954,
				"element": "H" 
			},
			{
				"x": -1.1048025216,
				"y": -1.3472714241,
				"z": -0.2300920769,
				"element": "H" 
			}
		],
		 "valence_orbital": [ 
			{
				"type": "occ",
				"energy": -0.30726,
				"method": "rhf"
			},
			{
				"type": "occ",
				"energy": -0.30163,
				"method": "rhf"
			},
			{
				"type": "occ",
				"energy": -0.29699,
				"method": "rhf"
			},
			{
				"type": "occ",
				"energy": -0.26295,
				"method": "rhf"
			},
			{
				"type": "occ",
				"energy": -0.25789,
				"method": "rhf"
			},
			{
				"type": "unocc",
				"energy": 0.07005,
				"method": "rhf"
			},
			{
				"type": "unocc",
				"energy": 0.07318,
				"method": "rhf"
			},
			{
				"type": "unocc",
				"energy": 0.08159,
				"method": "rhf"
			},
			{
				"type": "unocc",
				"energy": 0.09708,
				"method": "rhf"
			},
			{
				"type": "unocc",
				"energy": 0.1277,
				"method": "rhf"
			}
		],
		"cosmo_sigma_profile": { 
			"-0.025": 0.0,
			"-0.024": 0.0,
			"-0.023": 0.0,
			"-0.022": 0.0,
			"-0.021": 0.0,
			"-0.02": 0.0,
			"-0.019": 0.0,
			"-0.018": 0.0,
			"-0.017": 0.0,
			"-0.016": 0.0,
			"-0.015": 0.622980659954,
			"-0.014": 1.32246933421,
			"-0.013": 1.88682982001,
			"-0.012": 1.25845310071,
			"-0.011": 1.90297881114,
			"-0.01": 2.12687992451,
			"-0.009": 1.73941464872,
			"-0.008": 1.33713462481,
			"-0.007": 2.77767340398,
			"-0.006": 2.47770178811,
			"-0.005": 2.62161399213,
			"-0.004": 3.95816638888,
			"-0.003": 21.6754141125,
			"-0.002": 35.8604292332,
			"-0.001": 34.9798482102,
			"0.0": 23.4622037118,
			"0.001": 16.603917094,
			"0.002": 5.24743780096,
			"0.003": 3.47370267032,
			"0.004": 3.00201995879,
			"0.005": 2.93975465759,
			"0.006": 2.27625212757,
			"0.007": 1.68102724975,
			"0.008": 2.93475086903,
			"0.009": 2.5925618315,
			"0.01": 1.95401763358,
			"0.011": 2.8779864028,
			"0.012": 2.68549842754,
			"0.013": 2.98476115564,
			"0.014": 3.84545207764,
			"0.015": 3.82779273429,
			"0.016": 0.0435118780151,
			"0.017": 0.0,
			"0.018": 0.0,
			"0.019": 0.0,
			"0.02": 0.0,
			"0.021": 0.0,
			"0.022": 0.0,
			"0.023": 0.0,
			"0.024": 0.0,
			"0.025": 0.0
		}
	}
}
