{
	 "smiles": "CCOC1=CC=C(NC(=O)OC(C)C)C=C1OCC", 
	 "Tm": 373.15, 
	 "num_atms": 40, 
	 "gaussian": { 
		 "optdone": 1, 
		 "sigma_profile": "yes", 
		 "theory": "DFT", 
		 "functional": "B3LYP", 
		 "basiset": "6-31G**", 
		 "properties": { 
			 "R2extent": 7919.2469, 
			 "electric_dipole_moment_norm": 3.58615673249, 
			 "electric_quadrupole_moment_norm": 10.7893216779, 
			 "total_energy": -901.812669285, 
			 "HOMO_LUMO_gap": 0.197, 
			 "cosmo_polarized_energy": -13.46, 
			 "cosmo_cavitation_energy": 42.88, 
			 "cosmo_dispersion_energy": -29.82, 
			 "cosmo_repulsion_energy": 2.38, 
			 "cosmo_total_nonelectrostatic_energy": 15.45, 
			 "SMD_solvation_energy": 9.17 
		},
		"coords": [
			{
				"x": 3.6452245705,
				"y": -2.4038969738,
				"z": 2.0246023103,
				"element": "C" 
			},
			{
				"x": 2.8291949649,
				"y": -3.0151463144,
				"z": 0.8899642373,
				"element": "C" 
			},
			{
				"x": 2.6006127531,
				"y": -2.0972031045,
				"z": -0.1812062996,
				"element": "O" 
			},
			{
				"x": 1.6388564336,
				"y": -1.1305929008,
				"z": -0.0518301498,
				"element": "C" 
			},
			{
				"x": 0.7381336332,
				"y": -1.0139130558,
				"z": 1.0080886343,
				"element": "C" 
			},
			{
				"x": -0.2111118825,
				"y": 0.0123812326,
				"z": 1.0571834172,
				"element": "C" 
			},
			{
				"x": -0.2828386747,
				"y": 0.9483652624,
				"z": 0.0223618805,
				"element": "C" 
			},
			{
				"x": -1.1796925537,
				"y": 2.040455863,
				"z": -0.0230964832,
				"element": "N" 
			},
			{
				"x": -2.323082376,
				"y": 2.3575554566,
				"z": 0.6719905426,
				"element": "C" 
			},
			{
				"x": -2.9706726689,
				"y": 3.3614759677,
				"z": 0.4231313055,
				"element": "O" 
			},
			{
				"x": -2.6310994456,
				"y": 1.4588906318,
				"z": 1.6327503821,
				"element": "O" 
			},
			{
				"x": -3.8486694449,
				"y": 1.7240085165,
				"z": 2.3917029087,
				"element": "C" 
			},
			{
				"x": -5.0562550467,
				"y": 1.2185638314,
				"z": 1.6098933477,
				"element": "C" 
			},
			{
				"x": -3.6601380047,
				"y": 1.0341519486,
				"z": 3.7354049336,
				"element": "C" 
			},
			{
				"x": 0.613646849,
				"y": 0.8269752534,
				"z": -1.0526074669,
				"element": "C" 
			},
			{
				"x": 1.5649882496,
				"y": -0.1845776749,
				"z": -1.0989174352,
				"element": "C" 
			},
			{
				"x": 2.4503016876,
				"y": -0.198374079,
				"z": -2.1476378784,
				"element": "O" 
			},
			{
				"x": 2.3206297927,
				"y": -1.2907515669,
				"z": -3.0749514246,
				"element": "C" 
			},
			{
				"x": 3.3797444905,
				"y": -1.1063484802,
				"z": -4.1466212653,
				"element": "C" 
			},
			{
				"x": 4.5993958473,
				"y": -2.0291661573,
				"z": 1.6436881695,
				"element": "H" 
			},
			{
				"x": 3.8508200024,
				"y": -3.1617029636,
				"z": 2.788221399,
				"element": "H" 
			},
			{
				"x": 3.1183885309,
				"y": -1.5727391075,
				"z": 2.5004776403,
				"element": "H" 
			},
			{
				"x": 3.3823029163,
				"y": -3.8373571995,
				"z": 0.4270802867,
				"element": "H" 
			},
			{
				"x": 1.8777229753,
				"y": -3.4259750853,
				"z": 1.2521797289,
				"element": "H" 
			},
			{
				"x": 0.770397001,
				"y": -1.7170341474,
				"z": 1.8320516691,
				"element": "H" 
			},
			{
				"x": -0.8821832735,
				"y": 0.0786138252,
				"z": 1.9003793492,
				"element": "H" 
			},
			{
				"x": -1.0070953346,
				"y": 2.7201242076,
				"z": -0.7499404903,
				"element": "H" 
			},
			{
				"x": -3.921085734,
				"y": 2.807321758,
				"z": 2.5195315878,
				"element": "H" 
			},
			{
				"x": -5.1400981548,
				"y": 1.7468409737,
				"z": 0.6576292585,
				"element": "H" 
			},
			{
				"x": -5.9740149773,
				"y": 1.3935610642,
				"z": 2.1809222904,
				"element": "H" 
			},
			{
				"x": -4.9691749178,
				"y": 0.1441861991,
				"z": 1.4174407053,
				"element": "H" 
			},
			{
				"x": -3.5550674462,
				"y": -0.0482201836,
				"z": 3.6074319724,
				"element": "H" 
			},
			{
				"x": -2.7696951972,
				"y": 1.4116721859,
				"z": 4.2459462232,
				"element": "H" 
			},
			{
				"x": -4.5284976052,
				"y": 1.2195337584,
				"z": 4.375089133,
				"element": "H" 
			},
			{
				"x": 0.5930458661,
				"y": 1.5319472024,
				"z": -1.8790481281,
				"element": "H" 
			},
			{
				"x": 2.4522689672,
				"y": -2.2424791791,
				"z": -2.5498638838,
				"element": "H" 
			},
			{
				"x": 1.311585846,
				"y": -1.2742572493,
				"z": -3.5117561824,
				"element": "H" 
			},
			{
				"x": 3.3127152337,
				"y": -1.9105451613,
				"z": -4.8863430983,
				"element": "H" 
			},
			{
				"x": 4.3796512278,
				"y": -1.1245903247,
				"z": -3.7036592152,
				"element": "H" 
			},
			{
				"x": 3.2492448994,
				"y": -0.1495542298,
				"z": -4.660663912,
				"element": "H" 
			}
		],
		 "valence_orbital": [ 
			{
				"type": "occ",
				"energy": -0.27547,
				"method": "rhf"
			},
			{
				"type": "occ",
				"energy": -0.27278,
				"method": "rhf"
			},
			{
				"type": "occ",
				"energy": -0.26726,
				"method": "rhf"
			},
			{
				"type": "occ",
				"energy": -0.2363,
				"method": "rhf"
			},
			{
				"type": "occ",
				"energy": -0.19477,
				"method": "rhf"
			},
			{
				"type": "unocc",
				"energy": 0.00223,
				"method": "rhf"
			},
			{
				"type": "unocc",
				"energy": 0.00925,
				"method": "rhf"
			},
			{
				"type": "unocc",
				"energy": 0.07088,
				"method": "rhf"
			},
			{
				"type": "unocc",
				"energy": 0.08032,
				"method": "rhf"
			},
			{
				"type": "unocc",
				"energy": 0.08979,
				"method": "rhf"
			}
		],
		"cosmo_sigma_profile": { 
			"-0.025": 0.0,
			"-0.024": 0.0,
			"-0.023": 0.0,
			"-0.022": 0.0,
			"-0.021": 0.0,
			"-0.02": 0.0,
			"-0.019": 0.0,
			"-0.018": 0.0,
			"-0.017": 0.0,
			"-0.016": 0.0,
			"-0.015": 0.291727835182,
			"-0.014": 1.11153983593,
			"-0.013": 1.03738164788,
			"-0.012": 1.33058814891,
			"-0.011": 1.22976450551,
			"-0.01": 0.599056478408,
			"-0.009": 1.32392645842,
			"-0.008": 1.60807618383,
			"-0.007": 2.47633257117,
			"-0.006": 4.96598078728,
			"-0.005": 9.44020638311,
			"-0.004": 30.0350810859,
			"-0.003": 40.8917555561,
			"-0.002": 41.0155522817,
			"-0.001": 36.4329394087,
			"0.0": 42.5572454349,
			"0.001": 27.2834124162,
			"0.002": 15.2458149104,
			"0.003": 15.7472291084,
			"0.004": 16.5147963361,
			"0.005": 12.5809570715,
			"0.006": 5.97392052234,
			"0.007": 3.32286748067,
			"0.008": 3.75503580566,
			"0.009": 2.79484254129,
			"0.01": 2.85392399699,
			"0.011": 4.69773829607,
			"0.012": 3.6211817411,
			"0.013": 5.21394776344,
			"0.014": 0.730735385919,
			"0.015": 0.0,
			"0.016": 0.0,
			"0.017": 0.0,
			"0.018": 0.0,
			"0.019": 0.0,
			"0.02": 0.0,
			"0.021": 0.0,
			"0.022": 0.0,
			"0.023": 0.0,
			"0.024": 0.0,
			"0.025": 0.0
		}
	}
}
