{
	 "smiles": "OC(=O)CCC1=NC2=C(C=CC=C2)C=C1", 
	 "Tm": 381.15, 
	 "num_atms": 26, 
	 "gaussian": { 
		 "optdone": 1, 
		 "sigma_profile": "yes", 
		 "theory": "DFT", 
		 "functional": "B3LYP", 
		 "basiset": "6-31G**", 
		 "properties": { 
			 "R2extent": 4335.0208, 
			 "electric_dipole_moment_norm": 8.05441166629, 
			 "electric_quadrupole_moment_norm": 36.2299991608, 
			 "total_energy": -669.141398587, 
			 "HOMO_LUMO_gap": 0.16229, 
			 "cosmo_polarized_energy": -15.8, 
			 "cosmo_cavitation_energy": 29.7, 
			 "cosmo_dispersion_energy": -21.7, 
			 "cosmo_repulsion_energy": 1.67, 
			 "cosmo_total_nonelectrostatic_energy": 9.67, 
			 "SMD_solvation_energy": 5.27 
		},
		"coords": [
			{
				"x": -1.074540009,
				"y": 0.9280939262,
				"z": -3.6911876389,
				"element": "O" 
			},
			{
				"x": -1.7209090473,
				"y": -0.0065712419,
				"z": -4.3987302424,
				"element": "C" 
			},
			{
				"x": -2.1146895106,
				"y": 0.202860598,
				"z": -5.5255026135,
				"element": "O" 
			},
			{
				"x": -1.9216466497,
				"y": -1.3664836649,
				"z": -3.7154077383,
				"element": "C" 
			},
			{
				"x": -2.5908846867,
				"y": -1.3430758268,
				"z": -2.3192989603,
				"element": "C" 
			},
			{
				"x": -1.6625374913,
				"y": -1.1207851773,
				"z": -1.1415664367,
				"element": "C" 
			},
			{
				"x": -0.6806443564,
				"y": -0.2451902523,
				"z": -1.2846328391,
				"element": "N" 
			},
			{
				"x": 0.1745299068,
				"y": 0.0040606207,
				"z": -0.2482601094,
				"element": "C" 
			},
			{
				"x": 0.0382840021,
				"y": -0.6597736377,
				"z": 1.0097452103,
				"element": "C" 
			},
			{
				"x": 0.9542819105,
				"y": -0.3628610274,
				"z": 2.0521227283,
				"element": "C" 
			},
			{
				"x": 1.9611437152,
				"y": 0.5550537554,
				"z": 1.8524392823,
				"element": "C" 
			},
			{
				"x": 2.0930712881,
				"y": 1.2118857849,
				"z": 0.6037144376,
				"element": "C" 
			},
			{
				"x": 1.2205016292,
				"y": 0.9448320734,
				"z": -0.4282503656,
				"element": "C" 
			},
			{
				"x": -1.0225505101,
				"y": -1.5919868945,
				"z": 1.1394629229,
				"element": "C" 
			},
			{
				"x": -1.8634263974,
				"y": -1.8241107918,
				"z": 0.0783249729,
				"element": "C" 
			},
			{
				"x": -0.8167559633,
				"y": 0.5673198296,
				"z": -2.7963842716,
				"element": "H" 
			},
			{
				"x": -2.5382394617,
				"y": -1.9505114194,
				"z": -4.4005775081,
				"element": "H" 
			},
			{
				"x": -0.9474696491,
				"y": -1.866752281,
				"z": -3.6440564293,
				"element": "H" 
			},
			{
				"x": -3.3731415922,
				"y": -0.5714151495,
				"z": -2.2990581381,
				"element": "H" 
			},
			{
				"x": -3.1106645407,
				"y": -2.2942759658,
				"z": -2.1664479481,
				"element": "H" 
			},
			{
				"x": 0.8471415939,
				"y": -0.8704972685,
				"z": 3.007096832,
				"element": "H" 
			},
			{
				"x": 2.6596179489,
				"y": 0.7800482963,
				"z": 2.6526313023,
				"element": "H" 
			},
			{
				"x": 2.892070243,
				"y": 1.9334366663,
				"z": 0.4619295058,
				"element": "H" 
			},
			{
				"x": 1.3093843419,
				"y": 1.4401396171,
				"z": -1.3899363462,
				"element": "H" 
			},
			{
				"x": -1.1569488609,
				"y": -2.1192260869,
				"z": 2.0806343055,
				"element": "H" 
			},
			{
				"x": -2.6772778533,
				"y": -2.5377144819,
				"z": 0.1557960859,
				"element": "H" 
			}
		],
		 "valence_orbital": [ 
			{
				"type": "occ",
				"energy": -0.28492,
				"method": "rhf"
			},
			{
				"type": "occ",
				"energy": -0.27876,
				"method": "rhf"
			},
			{
				"type": "occ",
				"energy": -0.26665,
				"method": "rhf"
			},
			{
				"type": "occ",
				"energy": -0.25146,
				"method": "rhf"
			},
			{
				"type": "occ",
				"energy": -0.23685,
				"method": "rhf"
			},
			{
				"type": "unocc",
				"energy": -0.07456,
				"method": "rhf"
			},
			{
				"type": "unocc",
				"energy": -0.03467,
				"method": "rhf"
			},
			{
				"type": "unocc",
				"energy": -0.00018,
				"method": "rhf"
			},
			{
				"type": "unocc",
				"energy": 0.03748,
				"method": "rhf"
			},
			{
				"type": "unocc",
				"energy": 0.06619,
				"method": "rhf"
			}
		],
		"cosmo_sigma_profile": { 
			"-0.025": 0.0,
			"-0.024": 0.0,
			"-0.023": 0.0,
			"-0.022": 0.0,
			"-0.021": 0.0,
			"-0.02": 0.0,
			"-0.019": 0.0,
			"-0.018": 0.0,
			"-0.017": 0.0,
			"-0.016": 0.0,
			"-0.015": 0.0,
			"-0.014": 0.0,
			"-0.013": 0.0,
			"-0.012": 0.0,
			"-0.011": 0.0,
			"-0.01": 0.0,
			"-0.009": 0.0,
			"-0.008": 1.35506568966,
			"-0.007": 9.37258969668,
			"-0.006": 20.4063393331,
			"-0.005": 23.0926038247,
			"-0.004": 22.7907908334,
			"-0.003": 19.6645528526,
			"-0.002": 16.0791405177,
			"-0.001": 11.2728080306,
			"0.0": 16.4030132102,
			"0.001": 18.7185326558,
			"0.002": 19.8419689211,
			"0.003": 13.5215028438,
			"0.004": 10.5188496059,
			"0.005": 2.24640228449,
			"0.006": 2.06828537068,
			"0.007": 2.11122167035,
			"0.008": 2.39394178617,
			"0.009": 1.82834363918,
			"0.01": 3.11285288979,
			"0.011": 3.72962965385,
			"0.012": 5.84310469847,
			"0.013": 7.34074809883,
			"0.014": 3.17419865486,
			"0.015": 0.423333093098,
			"0.016": 0.0,
			"0.017": 0.0,
			"0.018": 0.0,
			"0.019": 0.0,
			"0.02": 0.0,
			"0.021": 0.0,
			"0.022": 0.0,
			"0.023": 0.0,
			"0.024": 0.0,
			"0.025": 0.0
		}
	}
}
