{
	 "smiles": "NS(=O)(=O)C1=C(Cl)SC(Cl)=C1", 
	 "Tm": 405.15, 
	 "num_atms": 14, 
	 "gaussian": { 
		 "optdone": 1, 
		 "sigma_profile": "yes", 
		 "theory": "DFT", 
		 "functional": "B3LYP", 
		 "basiset": "6-31G**", 
		 "properties": { 
			 "R2extent": 5113.623, 
			 "electric_dipole_moment_norm": 4.66637713221, 
			 "electric_quadrupole_moment_norm": 19.5083294636, 
			 "total_energy": -2076.08319258, 
			 "HOMO_LUMO_gap": 0.19074, 
			 "cosmo_polarized_energy": -15.41, 
			 "cosmo_cavitation_energy": 25.36, 
			 "cosmo_dispersion_energy": -19.96, 
			 "cosmo_repulsion_energy": 1.52, 
			 "cosmo_total_nonelectrostatic_energy": 6.92, 
			 "SMD_solvation_energy": 3.19 
		},
		"coords": [
			{
				"x": 1.0111032164,
				"y": -0.1863530058,
				"z": -3.4287235357,
				"element": "N" 
			},
			{
				"x": 1.9184142507,
				"y": 0.2313418304,
				"z": -2.0907658615,
				"element": "S" 
			},
			{
				"x": 1.9309963127,
				"y": -0.9402832288,
				"z": -1.2195231528,
				"element": "O" 
			},
			{
				"x": 3.1323720938,
				"y": 0.8579030893,
				"z": -2.5980875256,
				"element": "O" 
			},
			{
				"x": 0.9783615135,
				"y": 1.476392717,
				"z": -1.194103937,
				"element": "C" 
			},
			{
				"x": 0.6049109958,
				"y": 2.7081791869,
				"z": -1.6670143653,
				"element": "C" 
			},
			{
				"x": 0.8721074362,
				"y": 3.3717577859,
				"z": -3.2373460871,
				"element": "Cl" 
			},
			{
				"x": -0.2581336003,
				"y": 3.6331587368,
				"z": -0.4688480221,
				"element": "S" 
			},
			{
				"x": -0.0932932387,
				"y": 2.3224888533,
				"z": 0.6766052315,
				"element": "C" 
			},
			{
				"x": -0.7474323525,
				"y": 2.477474765,
				"z": 2.2666224857,
				"element": "Cl" 
			},
			{
				"x": 0.5769307569,
				"y": 1.2532356,
				"z": 0.1616486724,
				"element": "C" 
			},
			{
				"x": 0.9299263017,
				"y": 0.5593358237,
				"z": -4.1124960809,
				"element": "H" 
			},
			{
				"x": 0.1319303091,
				"y": -0.6371900474,
				"z": -3.1978409585,
				"element": "H" 
			},
			{
				"x": 0.7930060047,
				"y": 0.3387578938,
				"z": 0.6974731366,
				"element": "H" 
			}
		],
		 "valence_orbital": [ 
			{
				"type": "occ",
				"energy": -0.32745,
				"method": "rhf"
			},
			{
				"type": "occ",
				"energy": -0.31807,
				"method": "rhf"
			},
			{
				"type": "occ",
				"energy": -0.31569,
				"method": "rhf"
			},
			{
				"type": "occ",
				"energy": -0.29114,
				"method": "rhf"
			},
			{
				"type": "occ",
				"energy": -0.25603,
				"method": "rhf"
			},
			{
				"type": "unocc",
				"energy": -0.06529,
				"method": "rhf"
			},
			{
				"type": "unocc",
				"energy": -0.02818,
				"method": "rhf"
			},
			{
				"type": "unocc",
				"energy": -0.02339,
				"method": "rhf"
			},
			{
				"type": "unocc",
				"energy": 0.00363,
				"method": "rhf"
			},
			{
				"type": "unocc",
				"energy": 0.02486,
				"method": "rhf"
			}
		],
		"cosmo_sigma_profile": { 
			"-0.025": 0.0,
			"-0.024": 0.0,
			"-0.023": 0.0,
			"-0.022": 0.0,
			"-0.021": 0.0,
			"-0.02": 0.0,
			"-0.019": 0.0,
			"-0.018": 0.0,
			"-0.017": 0.0,
			"-0.016": 1.06141911362,
			"-0.015": 1.43270507604,
			"-0.014": 2.37976856389,
			"-0.013": 2.24962156381,
			"-0.012": 2.85943394958,
			"-0.011": 1.8714000416,
			"-0.01": 2.5605161113,
			"-0.009": 2.34311095663,
			"-0.008": 3.09751412997,
			"-0.007": 4.00626190266,
			"-0.006": 2.77911283427,
			"-0.005": 5.46753672366,
			"-0.004": 12.8716779712,
			"-0.003": 14.6897946474,
			"-0.002": 18.9559756508,
			"-0.001": 23.085755212,
			"0.0": 20.1397745975,
			"0.001": 17.9153686782,
			"0.002": 16.0680205262,
			"0.003": 9.30528254467,
			"0.004": 3.99988769687,
			"0.005": 3.93274662267,
			"0.006": 4.28591314345,
			"0.007": 4.73901979436,
			"0.008": 4.34788377068,
			"0.009": 5.38479797108,
			"0.01": 11.1473176446,
			"0.011": 7.5361805926,
			"0.012": 0.233410491555,
			"0.013": 0.0,
			"0.014": 0.0,
			"0.015": 0.0,
			"0.016": 0.0,
			"0.017": 0.0,
			"0.018": 0.0,
			"0.019": 0.0,
			"0.02": 0.0,
			"0.021": 0.0,
			"0.022": 0.0,
			"0.023": 0.0,
			"0.024": 0.0,
			"0.025": 0.0
		}
	}
}
