{
	 "smiles": "CC1=CC=C(C=C1)C1=CSC(=N1)C(=N/NC1=C(Cl)C=CC(Cl)=C1)C#N", 
	 "Tm": 460.15, 
	 "num_atms": 37, 
	 "gaussian": { 
		 "optdone": 1, 
		 "sigma_profile": "yes", 
		 "theory": "DFT", 
		 "functional": "B3LYP", 
		 "basiset": "6-31G**", 
		 "properties": { 
			 "R2extent": 14211.3123, 
			 "electric_dipole_moment_norm": 6.64834106451, 
			 "electric_quadrupole_moment_norm": 18.6190697168, 
			 "total_energy": -2230.68676675, 
			 "HOMO_LUMO_gap": 0.12747, 
			 "cosmo_polarized_energy": -11.9, 
			 "cosmo_cavitation_energy": 48.64, 
			 "cosmo_dispersion_energy": -34.02, 
			 "cosmo_repulsion_energy": 2.5, 
			 "cosmo_total_nonelectrostatic_energy": 17.11, 
			 "SMD_solvation_energy": 7.44 
		},
		"coords": [
			{
				"x": -5.2612845615,
				"y": -3.3983018861,
				"z": -0.8852337394,
				"element": "C" 
			},
			{
				"x": -4.3516853591,
				"y": -2.252986532,
				"z": -0.5105729369,
				"element": "C" 
			},
			{
				"x": -4.8366032557,
				"y": -1.1472093038,
				"z": 0.201444307,
				"element": "C" 
			},
			{
				"x": -4.006657758,
				"y": -0.0777601395,
				"z": 0.5264369006,
				"element": "C" 
			},
			{
				"x": -2.655813039,
				"y": -0.0767701158,
				"z": 0.1453093178,
				"element": "C" 
			},
			{
				"x": -2.1634671212,
				"y": -1.1845469417,
				"z": -0.5613830798,
				"element": "C" 
			},
			{
				"x": -2.999800942,
				"y": -2.2512566947,
				"z": -0.8804048105,
				"element": "C" 
			},
			{
				"x": -1.774771702,
				"y": 1.0622077884,
				"z": 0.4637031091,
				"element": "C" 
			},
			{
				"x": -2.1784218986,
				"y": 2.3675300045,
				"z": 0.6299687283,
				"element": "C" 
			},
			{
				"x": -0.8419725475,
				"y": 3.4040135183,
				"z": 0.9683160001,
				"element": "S" 
			},
			{
				"x": 0.2152881475,
				"y": 2.0026896483,
				"z": 0.8622843181,
				"element": "C" 
			},
			{
				"x": -0.4131203209,
				"y": 0.8782487023,
				"z": 0.5976469492,
				"element": "N" 
			},
			{
				"x": 1.6544795971,
				"y": 2.099330497,
				"z": 1.0768970062,
				"element": "C" 
			},
			{
				"x": 2.5124796085,
				"y": 1.1073853554,
				"z": 1.1058383134,
				"element": "N" 
			},
			{
				"x": 2.1035752696,
				"y": -0.1350330404,
				"z": 0.9330994713,
				"element": "N" 
			},
			{
				"x": 3.0328482939,
				"y": -1.1776679994,
				"z": 0.9880531335,
				"element": "C" 
			},
			{
				"x": 2.6078619551,
				"y": -2.5134340294,
				"z": 0.8746064823,
				"element": "C" 
			},
			{
				"x": 0.9020176488,
				"y": -2.8797668979,
				"z": 0.6766007378,
				"element": "Cl" 
			},
			{
				"x": 3.5244339542,
				"y": -3.5602635009,
				"z": 0.9248113751,
				"element": "C" 
			},
			{
				"x": 4.8827326926,
				"y": -3.3017484194,
				"z": 1.0896061241,
				"element": "C" 
			},
			{
				"x": 5.3008126244,
				"y": -1.9744155543,
				"z": 1.2038203393,
				"element": "C" 
			},
			{
				"x": 7.0079924498,
				"y": -1.6289358163,
				"z": 1.4124317653,
				"element": "Cl" 
			},
			{
				"x": 4.4021912754,
				"y": -0.9169821706,
				"z": 1.1554965787,
				"element": "C" 
			},
			{
				"x": 2.2150534122,
				"y": 3.4036201958,
				"z": 1.2905327081,
				"element": "C" 
			},
			{
				"x": 2.6215856038,
				"y": 4.480535419,
				"z": 1.4605355321,
				"element": "N" 
			},
			{
				"x": -5.7286833347,
				"y": -3.2278158857,
				"z": -1.8633695652,
				"element": "H" 
			},
			{
				"x": -4.7116878562,
				"y": -4.3421558292,
				"z": -0.9487937848,
				"element": "H" 
			},
			{
				"x": -6.0686566986,
				"y": -3.5233877963,
				"z": -0.1575466452,
				"element": "H" 
			},
			{
				"x": -5.8767552399,
				"y": -1.1290352388,
				"z": 0.5171047906,
				"element": "H" 
			},
			{
				"x": -4.4051135163,
				"y": 0.7499586985,
				"z": 1.106207334,
				"element": "H" 
			},
			{
				"x": -1.1229929574,
				"y": -1.2012545871,
				"z": -0.8658817441,
				"element": "H" 
			},
			{
				"x": -2.5954580076,
				"y": -3.0975259487,
				"z": -1.4303387753,
				"element": "H" 
			},
			{
				"x": -3.1761416061,
				"y": 2.7698918631,
				"z": 0.5348577387,
				"element": "H" 
			},
			{
				"x": 1.1043036379,
				"y": -0.3156303875,
				"z": 0.7750611656,
				"element": "H" 
			},
			{
				"x": 3.1671954519,
				"y": -4.5800837861,
				"z": 0.8358660243,
				"element": "H" 
			},
			{
				"x": 5.6006249657,
				"y": -4.1121105907,
				"z": 1.1293129794,
				"element": "H" 
			},
			{
				"x": 4.7345111338,
				"y": 0.108667402,
				"z": 1.2448758513,
				"element": "H" 
			}
		],
		 "valence_orbital": [ 
			{
				"type": "occ",
				"energy": -0.2845,
				"method": "rhf"
			},
			{
				"type": "occ",
				"energy": -0.26087,
				"method": "rhf"
			},
			{
				"type": "occ",
				"energy": -0.25831,
				"method": "rhf"
			},
			{
				"type": "occ",
				"energy": -0.24082,
				"method": "rhf"
			},
			{
				"type": "occ",
				"energy": -0.21898,
				"method": "rhf"
			},
			{
				"type": "unocc",
				"energy": -0.09151,
				"method": "rhf"
			},
			{
				"type": "unocc",
				"energy": -0.04292,
				"method": "rhf"
			},
			{
				"type": "unocc",
				"energy": -0.03045,
				"method": "rhf"
			},
			{
				"type": "unocc",
				"energy": -0.01661,
				"method": "rhf"
			},
			{
				"type": "unocc",
				"energy": -0.01203,
				"method": "rhf"
			}
		],
		"cosmo_sigma_profile": { 
			"-0.025": 0.0,
			"-0.024": 0.0,
			"-0.023": 0.0,
			"-0.022": 0.0,
			"-0.021": 0.0,
			"-0.02": 0.0,
			"-0.019": 0.0,
			"-0.018": 0.0,
			"-0.017": 0.0,
			"-0.016": 0.0,
			"-0.015": 0.0,
			"-0.014": 0.0,
			"-0.013": 0.0,
			"-0.012": 0.0,
			"-0.011": 0.0130658323267,
			"-0.01": 1.36646850427,
			"-0.009": 2.71395267044,
			"-0.008": 5.56755405726,
			"-0.007": 7.74081423099,
			"-0.006": 8.80668815142,
			"-0.005": 15.4676632502,
			"-0.004": 27.1661239056,
			"-0.003": 28.871814354,
			"-0.002": 34.1221640552,
			"-0.001": 41.0328101008,
			"0.0": 49.9169654749,
			"0.001": 51.2705095608,
			"0.002": 35.9589892034,
			"0.003": 27.4228230819,
			"0.004": 27.4973111755,
			"0.005": 13.5774856776,
			"0.006": 4.99813814204,
			"0.007": 2.70855428542,
			"0.008": 3.04684848207,
			"0.009": 3.12991719952,
			"0.01": 2.68077888571,
			"0.011": 2.53139257611,
			"0.012": 2.01779944669,
			"0.013": 0.261247226816,
			"0.014": 0.0,
			"0.015": 0.0,
			"0.016": 0.0,
			"0.017": 0.0,
			"0.018": 0.0,
			"0.019": 0.0,
			"0.02": 0.0,
			"0.021": 0.0,
			"0.022": 0.0,
			"0.023": 0.0,
			"0.024": 0.0,
			"0.025": 0.0
		}
	}
}
