{
	 "smiles": "CC(C)(C)OC(=O)N1CCN(CC1)C(=O)C1CCCN1", 
	 "Tm": 493.15, 
	 "num_atms": 45, 
	 "gaussian": { 
		 "optdone": 1, 
		 "sigma_profile": "yes", 
		 "theory": "DFT", 
		 "functional": "B3LYP", 
		 "basiset": "6-31G**", 
		 "properties": { 
			 "R2extent": 9451.1046, 
			 "electric_dipole_moment_norm": 1.63653939152, 
			 "electric_quadrupole_moment_norm": 18.6793673118, 
			 "total_energy": -938.5230228, 
			 "HOMO_LUMO_gap": 0.22896, 
			 "cosmo_polarized_energy": -15.47, 
			 "cosmo_cavitation_energy": 43.89, 
			 "cosmo_dispersion_energy": -31.09, 
			 "cosmo_repulsion_energy": 2.41, 
			 "cosmo_total_nonelectrostatic_energy": 15.2, 
			 "SMD_solvation_energy": 4.18 
		},
		"coords": [
			{
				"x": 2.9792558229,
				"y": 5.0921837604,
				"z": -0.9655148618,
				"element": "C" 
			},
			{
				"x": 2.3027937246,
				"y": 4.5551371087,
				"z": 0.3001975042,
				"element": "C" 
			},
			{
				"x": 1.028496314,
				"y": 5.3298831812,
				"z": 0.6522206554,
				"element": "C" 
			},
			{
				"x": 3.2796886101,
				"y": 4.5520562363,
				"z": 1.4789558825,
				"element": "C" 
			},
			{
				"x": 1.993958675,
				"y": 3.1245958044,
				"z": 0.1390008974,
				"element": "O" 
			},
			{
				"x": 1.1491981488,
				"y": 2.6998048418,
				"z": -0.8306623341,
				"element": "C" 
			},
			{
				"x": 0.5614943329,
				"y": 3.4109158131,
				"z": -1.6350008639,
				"element": "O" 
			},
			{
				"x": 1.0389615351,
				"y": 1.3333711316,
				"z": -0.7924341854,
				"element": "N" 
			},
			{
				"x": 0.1205176444,
				"y": 0.6734193346,
				"z": -1.7122409238,
				"element": "C" 
			},
			{
				"x": -0.7531376343,
				"y": -0.3394730284,
				"z": -0.9715819668,
				"element": "C" 
			},
			{
				"x": 0.0897547551,
				"y": -1.2986203891,
				"z": -0.2400325932,
				"element": "N" 
			},
			{
				"x": 1.5129336991,
				"y": -0.9715300801,
				"z": -0.1070412342,
				"element": "C" 
			},
			{
				"x": 1.7146465093,
				"y": 0.5071150253,
				"z": 0.2162628845,
				"element": "C" 
			},
			{
				"x": -0.3862204391,
				"y": -2.4187310914,
				"z": 0.3899859355,
				"element": "C" 
			},
			{
				"x": 0.3509676917,
				"y": -3.1649520738,
				"z": 1.0355884521,
				"element": "O" 
			},
			{
				"x": -1.8821702376,
				"y": -2.7390627621,
				"z": 0.253624848,
				"element": "C" 
			},
			{
				"x": -2.2013982688,
				"y": -3.5121821645,
				"z": -1.056616051,
				"element": "C" 
			},
			{
				"x": -3.3817464374,
				"y": -4.396551308,
				"z": -0.6325728394,
				"element": "C" 
			},
			{
				"x": -2.9914189053,
				"y": -4.8036010358,
				"z": 0.7947587263,
				"element": "C" 
			},
			{
				"x": -2.3171297715,
				"y": -3.6141839683,
				"z": 1.3520971746,
				"element": "N" 
			},
			{
				"x": 3.308191444,
				"y": 6.122681149,
				"z": -0.7964131428,
				"element": "H" 
			},
			{
				"x": 2.2930922788,
				"y": 5.0748095448,
				"z": -1.8123983806,
				"element": "H" 
			},
			{
				"x": 3.8609275759,
				"y": 4.4907601292,
				"z": -1.209215637,
				"element": "H" 
			},
			{
				"x": 0.3210613068,
				"y": 5.3145497587,
				"z": -0.1769938195,
				"element": "H" 
			},
			{
				"x": 0.5511997205,
				"y": 4.8941550077,
				"z": 1.5358109891,
				"element": "H" 
			},
			{
				"x": 1.2829894443,
				"y": 6.3695612149,
				"z": 0.8825287807,
				"element": "H" 
			},
			{
				"x": 2.8099200335,
				"y": 4.1241320105,
				"z": 2.3693490484,
				"element": "H" 
			},
			{
				"x": 4.170475213,
				"y": 3.9629785541,
				"z": 1.2417950083,
				"element": "H" 
			},
			{
				"x": 3.5924725885,
				"y": 5.5746332,
				"z": 1.7098816293,
				"element": "H" 
			},
			{
				"x": -0.5025608615,
				"y": 1.4441075644,
				"z": -2.1668145681,
				"element": "H" 
			},
			{
				"x": 0.6697396511,
				"y": 0.1727730856,
				"z": -2.5216372879,
				"element": "H" 
			},
			{
				"x": -1.3816476844,
				"y": -0.8585681943,
				"z": -1.7018888715,
				"element": "H" 
			},
			{
				"x": -1.4158390092,
				"y": 0.1976064585,
				"z": -0.2799634153,
				"element": "H" 
			},
			{
				"x": 1.9122631877,
				"y": -1.5927203862,
				"z": 0.694661896,
				"element": "H" 
			},
			{
				"x": 2.0519935985,
				"y": -1.2340804698,
				"z": -1.0272065476,
				"element": "H" 
			},
			{
				"x": 1.3208956995,
				"y": 0.7273732409,
				"z": 1.2166021313,
				"element": "H" 
			},
			{
				"x": 2.7849674253,
				"y": 0.7347710473,
				"z": 0.2312306428,
				"element": "H" 
			},
			{
				"x": -2.4596406824,
				"y": -1.8039854676,
				"z": 0.2730949589,
				"element": "H" 
			},
			{
				"x": -2.4301727796,
				"y": -2.8584685093,
				"z": -1.9036557423,
				"element": "H" 
			},
			{
				"x": -1.3449061284,
				"y": -4.1382782519,
				"z": -1.3332373731,
				"element": "H" 
			},
			{
				"x": -3.5365950793,
				"y": -5.2550439512,
				"z": -1.2926973955,
				"element": "H" 
			},
			{
				"x": -4.3076698615,
				"y": -3.8096079951,
				"z": -0.6207500245,
				"element": "H" 
			},
			{
				"x": -2.3259742256,
				"y": -5.6805156704,
				"z": 0.764394222,
				"element": "H" 
			},
			{
				"x": -3.8647540777,
				"y": -5.0769576945,
				"z": 1.3989779191,
				"element": "H" 
			},
			{
				"x": -1.4895745469,
				"y": -3.8839597113,
				"z": 1.877349873,
				"element": "H" 
			}
		],
		 "valence_orbital": [ 
			{
				"type": "occ",
				"energy": -0.26538,
				"method": "rhf"
			},
			{
				"type": "occ",
				"energy": -0.25292,
				"method": "rhf"
			},
			{
				"type": "occ",
				"energy": -0.2453,
				"method": "rhf"
			},
			{
				"type": "occ",
				"energy": -0.24041,
				"method": "rhf"
			},
			{
				"type": "occ",
				"energy": -0.20984,
				"method": "rhf"
			},
			{
				"type": "unocc",
				"energy": 0.01912,
				"method": "rhf"
			},
			{
				"type": "unocc",
				"energy": 0.05027,
				"method": "rhf"
			},
			{
				"type": "unocc",
				"energy": 0.06887,
				"method": "rhf"
			},
			{
				"type": "unocc",
				"energy": 0.08366,
				"method": "rhf"
			},
			{
				"type": "unocc",
				"energy": 0.09104,
				"method": "rhf"
			}
		],
		"cosmo_sigma_profile": { 
			"-0.025": 0.0,
			"-0.024": 0.0,
			"-0.023": 0.0,
			"-0.022": 0.0,
			"-0.021": 0.0,
			"-0.02": 0.0,
			"-0.019": 0.0,
			"-0.018": 0.0,
			"-0.017": 0.0,
			"-0.016": 0.0,
			"-0.015": 0.0,
			"-0.014": 0.0,
			"-0.013": 0.0,
			"-0.012": 0.0,
			"-0.011": 0.0,
			"-0.01": 0.0,
			"-0.009": 0.0,
			"-0.008": 0.0,
			"-0.007": 0.354444147592,
			"-0.006": 7.17340206462,
			"-0.005": 25.2430692414,
			"-0.004": 36.3411300269,
			"-0.003": 42.244281562,
			"-0.002": 41.8773067241,
			"-0.001": 39.7963329398,
			"0.0": 42.9978955898,
			"0.001": 30.7930278768,
			"0.002": 11.7645434888,
			"0.003": 7.43010109696,
			"0.004": 6.49982930132,
			"0.005": 6.85628859357,
			"0.006": 4.72608264788,
			"0.007": 4.46584729988,
			"0.008": 4.18025762179,
			"0.009": 2.04818586249,
			"0.01": 4.2575384003,
			"0.011": 3.72909428891,
			"0.012": 4.22878007325,
			"0.013": 6.85954849746,
			"0.014": 3.79085136419,
			"0.015": 0.673527483091,
			"0.016": 0.526973002075,
			"0.017": 0.613182047887,
			"0.018": 0.43291431095,
			"0.019": 0.477929739051,
			"0.02": 0.0,
			"0.021": 0.0,
			"0.022": 0.0,
			"0.023": 0.0,
			"0.024": 0.0,
			"0.025": 0.0
		}
	}
}
