{
	 "smiles": "OC(=O)CCS(=O)C1=CC2=C(OCCCO2)C=C1", 
	 "Tm": 388.15, 
	 "num_atms": 32, 
	 "gaussian": { 
		 "optdone": 1, 
		 "sigma_profile": "yes", 
		 "theory": "DFT", 
		 "functional": "B3LYP", 
		 "basiset": "6-31G**", 
		 "properties": { 
			 "R2extent": 8843.4847, 
			 "electric_dipole_moment_norm": 4.30255280735, 
			 "electric_quadrupole_moment_norm": 27.4403963767, 
			 "total_energy": -1239.9639612, 
			 "HOMO_LUMO_gap": 0.19916, 
			 "cosmo_polarized_energy": -19.75, 
			 "cosmo_cavitation_energy": 37.1, 
			 "cosmo_dispersion_energy": -27.41, 
			 "cosmo_repulsion_energy": 2.1, 
			 "cosmo_total_nonelectrostatic_energy": 11.8, 
			 "SMD_solvation_energy": 6.82 
		},
		"coords": [
			{
				"x": -1.0065416796,
				"y": 0.9459414082,
				"z": -6.3210924134,
				"element": "O" 
			},
			{
				"x": -0.5801870593,
				"y": 0.5034833751,
				"z": -5.1149008549,
				"element": "C" 
			},
			{
				"x": -0.6996897443,
				"y": -0.6480617446,
				"z": -4.7585981278,
				"element": "O" 
			},
			{
				"x": 0.0479294736,
				"y": 1.6215106048,
				"z": -4.3115964218,
				"element": "C" 
			},
			{
				"x": 0.4612950379,
				"y": 1.1629297731,
				"z": -2.9188624428,
				"element": "C" 
			},
			{
				"x": 1.3524080165,
				"y": 2.5442677395,
				"z": -2.0679056216,
				"element": "S" 
			},
			{
				"x": 2.5820574239,
				"y": 2.8284732431,
				"z": -2.9086187739,
				"element": "O" 
			},
			{
				"x": 1.8894023351,
				"y": 1.5797154019,
				"z": -0.6236013896,
				"element": "C" 
			},
			{
				"x": 1.0132441612,
				"y": 1.3582326947,
				"z": 0.4372539183,
				"element": "C" 
			},
			{
				"x": 1.4400115131,
				"y": 0.6434763762,
				"z": 1.5583432416,
				"element": "C" 
			},
			{
				"x": 2.7634539562,
				"y": 0.1474063382,
				"z": 1.6001823954,
				"element": "C" 
			},
			{
				"x": 3.2721289933,
				"y": -0.5753798431,
				"z": 2.6503429218,
				"element": "O" 
			},
			{
				"x": 2.3765568227,
				"y": -1.4987774222,
				"z": 3.2888239431,
				"element": "C" 
			},
			{
				"x": 1.5511663375,
				"y": -0.8238883483,
				"z": 4.3853025271,
				"element": "C" 
			},
			{
				"x": 1.0243485321,
				"y": 0.5302233973,
				"z": 3.9068654175,
				"element": "C" 
			},
			{
				"x": 0.5210545489,
				"y": 0.4594501255,
				"z": 2.5633017651,
				"element": "O" 
			},
			{
				"x": 3.6349172855,
				"y": 0.420166676,
				"z": 0.5409101828,
				"element": "C" 
			},
			{
				"x": 3.2109360428,
				"y": 1.1423403914,
				"z": -0.5715481243,
				"element": "C" 
			},
			{
				"x": -1.3832287688,
				"y": 0.1736983847,
				"z": -6.7756125052,
				"element": "H" 
			},
			{
				"x": -0.6601936909,
				"y": 2.4581418647,
				"z": -4.2749603495,
				"element": "H" 
			},
			{
				"x": 0.924747422,
				"y": 1.9903833567,
				"z": -4.8571172448,
				"element": "H" 
			},
			{
				"x": -0.3965838243,
				"y": 0.8873344217,
				"z": -2.2985613174,
				"element": "H" 
			},
			{
				"x": 1.1437221775,
				"y": 0.3114658469,
				"z": -2.9715997812,
				"element": "H" 
			},
			{
				"x": -0.0033731597,
				"y": 1.7412743017,
				"z": 0.4354510405,
				"element": "H" 
			},
			{
				"x": 3.0112365577,
				"y": -2.2872050697,
				"z": 3.7022081965,
				"element": "H" 
			},
			{
				"x": 1.7212604029,
				"y": -1.9489064064,
				"z": 2.5347439479,
				"element": "H" 
			},
			{
				"x": 0.7235886569,
				"y": -1.4890732093,
				"z": 4.6584493377,
				"element": "H" 
			},
			{
				"x": 2.1558469829,
				"y": -0.6660753795,
				"z": 5.2860309853,
				"element": "H" 
			},
			{
				"x": 1.8109638415,
				"y": 1.2912487708,
				"z": 3.9597815102,
				"element": "H" 
			},
			{
				"x": 0.1840884336,
				"y": 0.8661846585,
				"z": 4.5204939919,
				"element": "H" 
			},
			{
				"x": 4.6482087567,
				"y": 0.037875301,
				"z": 0.6124917604,
				"element": "H" 
			},
			{
				"x": 3.8766242148,
				"y": 1.3686429712,
				"z": -1.3984017148,
				"element": "H" 
			}
		],
		 "valence_orbital": [ 
			{
				"type": "occ",
				"energy": -0.2814,
				"method": "rhf"
			},
			{
				"type": "occ",
				"energy": -0.26294,
				"method": "rhf"
			},
			{
				"type": "occ",
				"energy": -0.25201,
				"method": "rhf"
			},
			{
				"type": "occ",
				"energy": -0.22994,
				"method": "rhf"
			},
			{
				"type": "occ",
				"energy": -0.21678,
				"method": "rhf"
			},
			{
				"type": "unocc",
				"energy": -0.01762,
				"method": "rhf"
			},
			{
				"type": "unocc",
				"energy": -0.0057,
				"method": "rhf"
			},
			{
				"type": "unocc",
				"energy": 0.00529,
				"method": "rhf"
			},
			{
				"type": "unocc",
				"energy": 0.04113,
				"method": "rhf"
			},
			{
				"type": "unocc",
				"energy": 0.05114,
				"method": "rhf"
			}
		],
		"cosmo_sigma_profile": { 
			"-0.025": 0.0,
			"-0.024": 0.0,
			"-0.023": 0.0,
			"-0.022": 0.0,
			"-0.021": 0.0,
			"-0.02": 0.0,
			"-0.019": 0.00801521119654,
			"-0.018": 0.639858798213,
			"-0.017": 1.19524045961,
			"-0.016": 0.940178131496,
			"-0.015": 0.500255916135,
			"-0.014": 0.735455545655,
			"-0.013": 0.779232402352,
			"-0.012": 0.845096533918,
			"-0.011": 0.730204802428,
			"-0.01": 0.850849758371,
			"-0.009": 1.30460083576,
			"-0.008": 3.25395807639,
			"-0.007": 10.2876601949,
			"-0.006": 17.5386465581,
			"-0.005": 25.9106330513,
			"-0.004": 31.1609384191,
			"-0.003": 24.3166519831,
			"-0.002": 20.140179365,
			"-0.001": 17.1376059668,
			"0.0": 14.4351859671,
			"0.001": 14.7344224755,
			"0.002": 18.8227496387,
			"0.003": 17.5968491251,
			"0.004": 11.5877790966,
			"0.005": 6.2326208558,
			"0.006": 6.45435886293,
			"0.007": 6.40541646231,
			"0.008": 6.09470494525,
			"0.009": 6.46278326355,
			"0.01": 5.326148139,
			"0.011": 7.12553245877,
			"0.012": 4.9545986107,
			"0.013": 2.46678120619,
			"0.014": 3.92363635155,
			"0.015": 2.46302816092,
			"0.016": 0.681784500312,
			"0.017": 0.0,
			"0.018": 0.0,
			"0.019": 0.0,
			"0.02": 0.0,
			"0.021": 0.0,
			"0.022": 0.0,
			"0.023": 0.0,
			"0.024": 0.0,
			"0.025": 0.0
		}
	}
}
