{
	 "smiles": "O=C1CCC2(CC1)OCCO2", 
	 "Tm": 348.15, 
	 "num_atms": 23, 
	 "gaussian": { 
		 "optdone": 1, 
		 "sigma_profile": "yes", 
		 "theory": "DFT", 
		 "functional": "B3LYP", 
		 "basiset": "6-31G**", 
		 "properties": { 
			 "R2extent": 1933.0026, 
			 "electric_dipole_moment_norm": 4.11672504426, 
			 "electric_quadrupole_moment_norm": 7.54101648719, 
			 "total_energy": -537.742850258, 
			 "HOMO_LUMO_gap": 0.22239, 
			 "cosmo_polarized_energy": -10.15, 
			 "cosmo_cavitation_energy": 24.43, 
			 "cosmo_dispersion_energy": -18.25, 
			 "cosmo_repulsion_energy": 1.47, 
			 "cosmo_total_nonelectrostatic_energy": 7.65, 
			 "SMD_solvation_energy": 4.27 
		},
		"coords": [
			{
				"x": 1.5529076097,
				"y": 2.5310218087,
				"z": -1.8704513994,
				"element": "O" 
			},
			{
				"x": 1.216455552,
				"y": 1.7937019945,
				"z": -0.9636933406,
				"element": "C" 
			},
			{
				"x": 0.9027794686,
				"y": 2.309120495,
				"z": 0.4364826985,
				"element": "C" 
			},
			{
				"x": -0.4041916968,
				"y": 1.7215331804,
				"z": 1.0021594036,
				"element": "C" 
			},
			{
				"x": -0.4280405443,
				"y": 0.1923789862,
				"z": 0.8933980227,
				"element": "C" 
			},
			{
				"x": -0.2135166691,
				"y": -0.2668738192,
				"z": -0.5529628639,
				"element": "C" 
			},
			{
				"x": 1.1021683235,
				"y": 0.2833587689,
				"z": -1.1357328616,
				"element": "C" 
			},
			{
				"x": 0.5984056196,
				"y": -0.3910614023,
				"z": 1.7086902166,
				"element": "O" 
			},
			{
				"x": -0.0278506564,
				"y": -0.9403038393,
				"z": 2.8649792737,
				"element": "C" 
			},
			{
				"x": -1.4049666122,
				"y": -1.3249985861,
				"z": 2.3336971313,
				"element": "C" 
			},
			{
				"x": -1.6751308787,
				"y": -0.2811723736,
				"z": 1.4018395834,
				"element": "O" 
			},
			{
				"x": 1.7313278082,
				"y": 2.0001564155,
				"z": 1.0882688615,
				"element": "H" 
			},
			{
				"x": 0.8818854708,
				"y": 3.4012904599,
				"z": 0.4108462162,
				"element": "H" 
			},
			{
				"x": -0.5309193289,
				"y": 2.0039272281,
				"z": 2.0521164207,
				"element": "H" 
			},
			{
				"x": -1.2697235516,
				"y": 2.1148472718,
				"z": 0.456784544,
				"element": "H" 
			},
			{
				"x": -1.0668938386,
				"y": 0.0822713307,
				"z": -1.1451136332,
				"element": "H" 
			},
			{
				"x": -0.2185249369,
				"y": -1.3608804909,
				"z": -0.5817248189,
				"element": "H" 
			},
			{
				"x": 1.2118673401,
				"y": 0.0424378827,
				"z": -2.1959173922,
				"element": "H" 
			},
			{
				"x": 1.9414269288,
				"y": -0.1740130794,
				"z": -0.5943648226,
				"element": "H" 
			},
			{
				"x": 0.5708892477,
				"y": -1.785248793,
				"z": 3.2152753477,
				"element": "H" 
			},
			{
				"x": -0.1040345826,
				"y": -0.1945655864,
				"z": 3.6697484698,
				"element": "H" 
			},
			{
				"x": -2.1928427526,
				"y": -1.3264806308,
				"z": 3.0917141975,
				"element": "H" 
			},
			{
				"x": -1.3813773203,
				"y": -2.3058472212,
				"z": 1.8369607452,
				"element": "H" 
			}
		],
		 "valence_orbital": [ 
			{
				"type": "occ",
				"energy": -0.34064,
				"method": "rhf"
			},
			{
				"type": "occ",
				"energy": -0.33167,
				"method": "rhf"
			},
			{
				"type": "occ",
				"energy": -0.27777,
				"method": "rhf"
			},
			{
				"type": "occ",
				"energy": -0.25677,
				"method": "rhf"
			},
			{
				"type": "occ",
				"energy": -0.2345,
				"method": "rhf"
			},
			{
				"type": "unocc",
				"energy": -0.01211,
				"method": "rhf"
			},
			{
				"type": "unocc",
				"energy": 0.07899,
				"method": "rhf"
			},
			{
				"type": "unocc",
				"energy": 0.0948,
				"method": "rhf"
			},
			{
				"type": "unocc",
				"energy": 0.11064,
				"method": "rhf"
			},
			{
				"type": "unocc",
				"energy": 0.11768,
				"method": "rhf"
			}
		],
		"cosmo_sigma_profile": { 
			"-0.025": 0.0,
			"-0.024": 0.0,
			"-0.023": 0.0,
			"-0.022": 0.0,
			"-0.021": 0.0,
			"-0.02": 0.0,
			"-0.019": 0.0,
			"-0.018": 0.0,
			"-0.017": 0.0,
			"-0.016": 0.0,
			"-0.015": 0.0,
			"-0.014": 0.0,
			"-0.013": 0.0,
			"-0.012": 0.0,
			"-0.011": 0.0,
			"-0.01": 0.0,
			"-0.009": 0.0,
			"-0.008": 0.0,
			"-0.007": 0.312398276264,
			"-0.006": 8.09905238252,
			"-0.005": 19.6928159743,
			"-0.004": 29.3129830592,
			"-0.003": 25.4143161829,
			"-0.002": 21.2122872626,
			"-0.001": 18.373096004,
			"0.0": 9.01242378567,
			"0.001": 6.37226180847,
			"0.002": 4.15003523883,
			"0.003": 4.47365047942,
			"0.004": 4.57615478461,
			"0.005": 3.94493087117,
			"0.006": 4.71554242397,
			"0.007": 4.80436516114,
			"0.008": 2.48686158968,
			"0.009": 4.34093694376,
			"0.01": 4.09289198753,
			"0.011": 4.82616980082,
			"0.012": 6.22040200096,
			"0.013": 3.32385163375,
			"0.014": 0.370454768395,
			"0.015": 0.0,
			"0.016": 0.0,
			"0.017": 0.0,
			"0.018": 0.0,
			"0.019": 0.0,
			"0.02": 0.0,
			"0.021": 0.0,
			"0.022": 0.0,
			"0.023": 0.0,
			"0.024": 0.0,
			"0.025": 0.0
		}
	}
}
