{
	 "smiles": "BrC1=CC=C(OC2=CC=CC=C2Br)C(Br)=C1", 
	 "Tm": 293.15, 
	 "num_atms": 23, 
	 "gaussian": { 
		 "optdone": 1, 
		 "sigma_profile": "yes", 
		 "theory": "DFT", 
		 "functional": "B3LYP", 
		 "basiset": "6-31G**", 
		 "properties": { 
			 "R2extent": 10042.957, 
			 "electric_dipole_moment_norm": 3.44953933301, 
			 "electric_quadrupole_moment_norm": 6.2626168556, 
			 "total_energy": -8250.91454022, 
			 "HOMO_LUMO_gap": 0.19762, 
			 "cosmo_polarized_energy": -7.7, 
			 "cosmo_cavitation_energy": 35.16, 
			 "cosmo_dispersion_energy": -25.7, 
			 "cosmo_repulsion_energy": 2.03, 
			 "cosmo_total_nonelectrostatic_energy": 11.49, 
			 "SMD_solvation_energy": 2.78 
		},
		"coords": [
			{
				"x": -3.4752459996,
				"y": 0.9620397057,
				"z": -3.9299073884,
				"element": "Br" 
			},
			{
				"x": -2.0905594411,
				"y": 0.9764729899,
				"z": -2.6160699233,
				"element": "C" 
			},
			{
				"x": -2.2587300399,
				"y": 0.2737273121,
				"z": -1.4252596891,
				"element": "C" 
			},
			{
				"x": -1.2427735587,
				"y": 0.288801633,
				"z": -0.4719379717,
				"element": "C" 
			},
			{
				"x": -0.0586137289,
				"y": 0.9948560874,
				"z": -0.7043302746,
				"element": "C" 
			},
			{
				"x": 0.9550513115,
				"y": 1.0838505208,
				"z": 0.214479695,
				"element": "O" 
			},
			{
				"x": 1.1274779471,
				"y": 0.0894967142,
				"z": 1.1542177713,
				"element": "C" 
			},
			{
				"x": 1.4103951658,
				"y": -1.2231565177,
				"z": 0.7655557546,
				"element": "C" 
			},
			{
				"x": 1.6660004946,
				"y": -2.1972351954,
				"z": 1.727957961,
				"element": "C" 
			},
			{
				"x": 1.6508474281,
				"y": -1.8617910892,
				"z": 3.0837030316,
				"element": "C" 
			},
			{
				"x": 1.376417325,
				"y": -0.5523396503,
				"z": 3.4758872469,
				"element": "C" 
			},
			{
				"x": 1.1095865612,
				"y": 0.4223187804,
				"z": 2.5132039214,
				"element": "C" 
			},
			{
				"x": 0.7244525156,
				"y": 2.2044606197,
				"z": 3.0559088089,
				"element": "Br" 
			},
			{
				"x": 0.0920184951,
				"y": 1.6971157416,
				"z": -1.9089567429,
				"element": "C" 
			},
			{
				"x": 1.6899042536,
				"y": 2.6678486357,
				"z": -2.2536049128,
				"element": "Br" 
			},
			{
				"x": -0.9216346721,
				"y": 1.6926824125,
				"z": -2.8647082192,
				"element": "C" 
			},
			{
				"x": -3.1743472865,
				"y": -0.2744356558,
				"z": -1.2370766009,
				"element": "H" 
			},
			{
				"x": -1.3687336827,
				"y": -0.2461751951,
				"z": 0.4626214952,
				"element": "H" 
			},
			{
				"x": 1.4337244888,
				"y": -1.4610820252,
				"z": -0.292962852,
				"element": "H" 
			},
			{
				"x": 1.8868079827,
				"y": -3.2135983993,
				"z": 1.4173170915,
				"element": "H" 
			},
			{
				"x": 1.8548686758,
				"y": -2.6150649308,
				"z": 3.8380726996,
				"element": "H" 
			},
			{
				"x": 1.3626106822,
				"y": -0.278442454,
				"z": 4.5246982609,
				"element": "H" 
			},
			{
				"x": -0.7919249177,
				"y": 2.2383499597,
				"z": -3.7905091632,
				"element": "H" 
			}
		],
		 "valence_orbital": [ 
			{
				"type": "occ",
				"energy": -0.28946,
				"method": "rhf"
			},
			{
				"type": "occ",
				"energy": -0.26828,
				"method": "rhf"
			},
			{
				"type": "occ",
				"energy": -0.25884,
				"method": "rhf"
			},
			{
				"type": "occ",
				"energy": -0.25087,
				"method": "rhf"
			},
			{
				"type": "occ",
				"energy": -0.23126,
				"method": "rhf"
			},
			{
				"type": "unocc",
				"energy": -0.03364,
				"method": "rhf"
			},
			{
				"type": "unocc",
				"energy": -0.02765,
				"method": "rhf"
			},
			{
				"type": "unocc",
				"energy": -0.02201,
				"method": "rhf"
			},
			{
				"type": "unocc",
				"energy": -0.01724,
				"method": "rhf"
			},
			{
				"type": "unocc",
				"energy": -0.01067,
				"method": "rhf"
			}
		],
		"cosmo_sigma_profile": { 
			"-0.025": 0.0,
			"-0.024": 0.0,
			"-0.023": 0.0,
			"-0.022": 0.0,
			"-0.021": 0.0,
			"-0.02": 0.0,
			"-0.019": 0.0,
			"-0.018": 0.0,
			"-0.017": 0.0,
			"-0.016": 0.0,
			"-0.015": 0.0,
			"-0.014": 0.0,
			"-0.013": 0.0,
			"-0.012": 0.0,
			"-0.011": 0.0,
			"-0.01": 0.0,
			"-0.009": 0.0347163982366,
			"-0.008": 4.18797023337,
			"-0.007": 11.6975566734,
			"-0.006": 13.2389550545,
			"-0.005": 16.9631670755,
			"-0.004": 15.4136259536,
			"-0.003": 15.9491275499,
			"-0.002": 17.7812016255,
			"-0.001": 16.9840565904,
			"0.0": 25.1382375347,
			"0.001": 38.0385645434,
			"0.002": 36.2001825239,
			"0.003": 29.9971691784,
			"0.004": 33.6926138322,
			"0.005": 10.4056333203,
			"0.006": 2.82741598694,
			"0.007": 2.72416610596,
			"0.008": 1.96772899414,
			"0.009": 0.212464432516,
			"0.01": 0.0,
			"0.011": 0.0,
			"0.012": 0.0,
			"0.013": 0.0,
			"0.014": 0.0,
			"0.015": 0.0,
			"0.016": 0.0,
			"0.017": 0.0,
			"0.018": 0.0,
			"0.019": 0.0,
			"0.02": 0.0,
			"0.021": 0.0,
			"0.022": 0.0,
			"0.023": 0.0,
			"0.024": 0.0,
			"0.025": 0.0
		}
	}
}
