{
	 "smiles": "FC1=CC=C(SCC#N)C=C1", 
	 "Tm": 307.15, 
	 "num_atms": 17, 
	 "gaussian": { 
		 "optdone": 1, 
		 "sigma_profile": "yes", 
		 "theory": "DFT", 
		 "functional": "B3LYP", 
		 "basiset": "6-31G**", 
		 "properties": { 
			 "R2extent": 2285.8267, 
			 "electric_dipole_moment_norm": 3.03864112721, 
			 "electric_quadrupole_moment_norm": 11.2695089196, 
			 "total_energy": -861.213411258, 
			 "HOMO_LUMO_gap": 0.21484, 
			 "cosmo_polarized_energy": -10.33, 
			 "cosmo_cavitation_energy": 24.73, 
			 "cosmo_dispersion_energy": -17.37, 
			 "cosmo_repulsion_energy": 1.34, 
			 "cosmo_total_nonelectrostatic_energy": 8.69, 
			 "SMD_solvation_energy": 5.74 
		},
		"coords": [
			{
				"x": -1.4412570453,
				"y": 2.2650419187,
				"z": -2.5998617093,
				"element": "F" 
			},
			{
				"x": -1.1213089415,
				"y": 1.2245865495,
				"z": -1.8080978756,
				"element": "C" 
			},
			{
				"x": 0.1887082453,
				"y": 0.7564102507,
				"z": -1.8087721428,
				"element": "C" 
			},
			{
				"x": 0.5139032363,
				"y": -0.3259211647,
				"z": -0.9930110918,
				"element": "C" 
			},
			{
				"x": -0.4634002876,
				"y": -0.9167589991,
				"z": -0.1780589231,
				"element": "C" 
			},
			{
				"x": -0.0602637789,
				"y": -2.3352486992,
				"z": 0.8420320972,
				"element": "S" 
			},
			{
				"x": 0.6464647988,
				"y": -1.5118502689,
				"z": 2.3433624926,
				"element": "C" 
			},
			{
				"x": 1.9159332555,
				"y": -0.8355864789,
				"z": 2.0955587471,
				"element": "C" 
			},
			{
				"x": 2.9186886832,
				"y": -0.2935722224,
				"z": 1.8739492285,
				"element": "N" 
			},
			{
				"x": -1.7766356955,
				"y": -0.4251770006,
				"z": -0.2002824616,
				"element": "C" 
			},
			{
				"x": -2.1137453428,
				"y": 0.6509571355,
				"z": -1.0197014465,
				"element": "C" 
			},
			{
				"x": 0.9288899198,
				"y": 1.2327052777,
				"z": -2.44219167,
				"element": "H" 
			},
			{
				"x": 1.5278973426,
				"y": -0.710215156,
				"z": -0.9830746564,
				"element": "H" 
			},
			{
				"x": 0.7918375067,
				"y": -2.3135195534,
				"z": 3.0738826521,
				"element": "H" 
			},
			{
				"x": -0.0781118959,
				"y": -0.8032072236,
				"z": 2.7536491047,
				"element": "H" 
			},
			{
				"x": -2.534566867,
				"y": -0.890219929,
				"z": 0.4217554944,
				"element": "H" 
			},
			{
				"x": -3.1230331339,
				"y": 1.0461755636,
				"z": -1.0554378393,
				"element": "H" 
			}
		],
		 "valence_orbital": [ 
			{
				"type": "occ",
				"energy": -0.3336,
				"method": "rhf"
			},
			{
				"type": "occ",
				"energy": -0.32661,
				"method": "rhf"
			},
			{
				"type": "occ",
				"energy": -0.27608,
				"method": "rhf"
			},
			{
				"type": "occ",
				"energy": -0.26225,
				"method": "rhf"
			},
			{
				"type": "occ",
				"energy": -0.25259,
				"method": "rhf"
			},
			{
				"type": "unocc",
				"energy": -0.03775,
				"method": "rhf"
			},
			{
				"type": "unocc",
				"energy": -0.02665,
				"method": "rhf"
			},
			{
				"type": "unocc",
				"energy": 0.00443,
				"method": "rhf"
			},
			{
				"type": "unocc",
				"energy": 0.02784,
				"method": "rhf"
			},
			{
				"type": "unocc",
				"energy": 0.03766,
				"method": "rhf"
			}
		],
		"cosmo_sigma_profile": { 
			"-0.025": 0.0,
			"-0.024": 0.0,
			"-0.023": 0.0,
			"-0.022": 0.0,
			"-0.021": 0.0,
			"-0.02": 0.0,
			"-0.019": 0.0,
			"-0.018": 0.0,
			"-0.017": 0.0,
			"-0.016": 0.0,
			"-0.015": 0.0,
			"-0.014": 0.0,
			"-0.013": 0.0,
			"-0.012": 0.0,
			"-0.011": 0.898025507401,
			"-0.01": 3.72957892299,
			"-0.009": 4.69639023807,
			"-0.008": 5.84538666117,
			"-0.007": 10.5127303947,
			"-0.006": 12.2464981964,
			"-0.005": 9.25152711842,
			"-0.004": 8.76087710205,
			"-0.003": 8.23845709996,
			"-0.002": 8.81511905782,
			"-0.001": 12.1514776994,
			"0.0": 16.6343178078,
			"0.001": 17.0823657977,
			"0.002": 19.0182087145,
			"0.003": 17.9039835917,
			"0.004": 14.7175840585,
			"0.005": 6.0454645537,
			"0.006": 4.1765479022,
			"0.007": 4.68188181876,
			"0.008": 3.97879225887,
			"0.009": 3.27719748159,
			"0.01": 2.64330537921,
			"0.011": 2.65801416614,
			"0.012": 2.37532454614,
			"0.013": 1.169528863,
			"0.014": 0.00316924873196,
			"0.015": 0.0,
			"0.016": 0.0,
			"0.017": 0.0,
			"0.018": 0.0,
			"0.019": 0.0,
			"0.02": 0.0,
			"0.021": 0.0,
			"0.022": 0.0,
			"0.023": 0.0,
			"0.024": 0.0,
			"0.025": 0.0
		}
	}
}
