{
	 "smiles": "CN1C=NC(=C1CCl)[N+]([O-])=O", 
	 "Tm": 401.15, 
	 "num_atms": 17, 
	 "gaussian": { 
		 "optdone": 1, 
		 "sigma_profile": "yes", 
		 "theory": "DFT", 
		 "functional": "B3LYP", 
		 "basiset": "6-31G**", 
		 "properties": { 
			 "R2extent": 2259.9952, 
			 "electric_dipole_moment_norm": 7.29751496949, 
			 "electric_quadrupole_moment_norm": 14.2830753131, 
			 "total_energy": -968.93474745, 
			 "HOMO_LUMO_gap": 0.18216, 
			 "cosmo_polarized_energy": -18.37, 
			 "cosmo_cavitation_energy": 23.57, 
			 "cosmo_dispersion_energy": -17.2, 
			 "cosmo_repulsion_energy": 1.38, 
			 "cosmo_total_nonelectrostatic_energy": 7.75, 
			 "SMD_solvation_energy": 5.06 
		},
		"coords": [
			{
				"x": 2.0249085791,
				"y": 0.6209272528,
				"z": -0.6102926061,
				"element": "C" 
			},
			{
				"x": 0.583350087,
				"y": 0.7926852243,
				"z": -0.469395843,
				"element": "N" 
			},
			{
				"x": -0.0546142763,
				"y": 1.9054473024,
				"z": 0.0133219587,
				"element": "C" 
			},
			{
				"x": -1.360248354,
				"y": 1.7736681373,
				"z": 0.0260602034,
				"element": "N" 
			},
			{
				"x": -1.5747383267,
				"y": 0.524582665,
				"z": -0.462248524,
				"element": "C" 
			},
			{
				"x": -0.3921166817,
				"y": -0.1279942034,
				"z": -0.7886065044,
				"element": "C" 
			},
			{
				"x": -0.096575571,
				"y": -1.4708127538,
				"z": -1.3379488778,
				"element": "C" 
			},
			{
				"x": 0.6151602323,
				"y": -2.5989709302,
				"z": -0.0715549156,
				"element": "Cl" 
			},
			{
				"x": -2.9211264535,
				"y": 0.013257425,
				"z": -0.6097988187,
				"element": "N" 
			},
			{
				"x": -3.8475845619,
				"y": 0.7192254759,
				"z": -0.2356115454,
				"element": "O" 
			},
			{
				"x": -3.0424192928,
				"y": -1.1140049142,
				"z": -1.110087604,
				"element": "O" 
			},
			{
				"x": 2.2996004464,
				"y": 0.511550644,
				"z": -1.6634575049,
				"element": "H" 
			},
			{
				"x": 2.5186421545,
				"y": 1.5071677861,
				"z": -0.2096877983,
				"element": "H" 
			},
			{
				"x": 2.3564216241,
				"y": -0.2600562714,
				"z": -0.0570915703,
				"element": "H" 
			},
			{
				"x": 0.4938803667,
				"y": 2.7792326713,
				"z": 0.3384027119,
				"element": "H" 
			},
			{
				"x": 0.6421052025,
				"y": -1.4365132985,
				"z": -2.1402699449,
				"element": "H" 
			},
			{
				"x": -1.0161451748,
				"y": -1.9338922126,
				"z": -1.6813328166,
				"element": "H" 
			}
		],
		 "valence_orbital": [ 
			{
				"type": "occ",
				"energy": -0.30832,
				"method": "rhf"
			},
			{
				"type": "occ",
				"energy": -0.30392,
				"method": "rhf"
			},
			{
				"type": "occ",
				"energy": -0.30217,
				"method": "rhf"
			},
			{
				"type": "occ",
				"energy": -0.286,
				"method": "rhf"
			},
			{
				"type": "occ",
				"energy": -0.26728,
				"method": "rhf"
			},
			{
				"type": "unocc",
				"energy": -0.08512,
				"method": "rhf"
			},
			{
				"type": "unocc",
				"energy": -0.02485,
				"method": "rhf"
			},
			{
				"type": "unocc",
				"energy": 0.01834,
				"method": "rhf"
			},
			{
				"type": "unocc",
				"energy": 0.05696,
				"method": "rhf"
			},
			{
				"type": "unocc",
				"energy": 0.07415,
				"method": "rhf"
			}
		],
		"cosmo_sigma_profile": { 
			"-0.025": 0.0,
			"-0.024": 0.0,
			"-0.023": 0.0,
			"-0.022": 0.0,
			"-0.021": 0.0,
			"-0.02": 0.0,
			"-0.019": 0.0,
			"-0.018": 0.0,
			"-0.017": 0.0,
			"-0.016": 0.0,
			"-0.015": 0.0,
			"-0.014": 0.0,
			"-0.013": 0.0,
			"-0.012": 0.224431308506,
			"-0.011": 2.77688311077,
			"-0.01": 4.52171914547,
			"-0.009": 5.72938779507,
			"-0.008": 7.98232034781,
			"-0.007": 7.36204595198,
			"-0.006": 11.5662893804,
			"-0.005": 15.1304211986,
			"-0.004": 16.1500643413,
			"-0.003": 8.46739790625,
			"-0.002": 9.31263409445,
			"-0.001": 9.94844228751,
			"0.0": 7.36157538086,
			"0.001": 7.75118735594,
			"0.002": 6.84607514777,
			"0.003": 8.13259068156,
			"0.004": 8.15493256296,
			"0.005": 10.4818568985,
			"0.006": 8.33134051504,
			"0.007": 6.63193652442,
			"0.008": 8.37936866794,
			"0.009": 6.94729800989,
			"0.01": 5.00807848977,
			"0.011": 1.86713785998,
			"0.012": 1.07757785907,
			"0.013": 1.59333043702,
			"0.014": 1.42341653892,
			"0.015": 1.23486586631,
			"0.016": 0.508876724013,
			"0.017": 0.0,
			"0.018": 0.0,
			"0.019": 0.0,
			"0.02": 0.0,
			"0.021": 0.0,
			"0.022": 0.0,
			"0.023": 0.0,
			"0.024": 0.0,
			"0.025": 0.0
		}
	}
}
