{
	 "smiles": "COC1=C(CO)C2=CC=CC=C2C=C1", 
	 "Tm": 375.15, 
	 "num_atms": 26, 
	 "gaussian": { 
		 "optdone": 1, 
		 "sigma_profile": "yes", 
		 "theory": "DFT", 
		 "functional": "B3LYP", 
		 "basiset": "6-31G**", 
		 "properties": { 
			 "R2extent": 3555.3484, 
			 "electric_dipole_moment_norm": 3.1367578708, 
			 "electric_quadrupole_moment_norm": 14.3895386299, 
			 "total_energy": -614.942629174, 
			 "HOMO_LUMO_gap": 0.16382, 
			 "cosmo_polarized_energy": -9.79, 
			 "cosmo_cavitation_energy": 28.69, 
			 "cosmo_dispersion_energy": -21.26, 
			 "cosmo_repulsion_energy": 1.66, 
			 "cosmo_total_nonelectrostatic_energy": 9.09, 
			 "SMD_solvation_energy": 5.43 
		},
		"coords": [
			{
				"x": -0.1134894028,
				"y": 3.7748453093,
				"z": -3.6885466034,
				"element": "C" 
			},
			{
				"x": -0.3572242322,
				"y": 3.5061337871,
				"z": -2.3178878479,
				"element": "O" 
			},
			{
				"x": -0.140640669,
				"y": 2.2416727071,
				"z": -1.8339263967,
				"element": "C" 
			},
			{
				"x": -0.4166234987,
				"y": 2.027776084,
				"z": -0.4849033693,
				"element": "C" 
			},
			{
				"x": -0.9556815232,
				"y": 3.1530997234,
				"z": 0.3742242851,
				"element": "C" 
			},
			{
				"x": -0.1034795097,
				"y": 3.500743072,
				"z": 1.4710942681,
				"element": "O" 
			},
			{
				"x": -0.1948552721,
				"y": 0.7281846577,
				"z": 0.0707256786,
				"element": "C" 
			},
			{
				"x": -0.428846001,
				"y": 0.4395564447,
				"z": 1.4474011556,
				"element": "C" 
			},
			{
				"x": -0.2328090818,
				"y": -0.8282636085,
				"z": 1.9480147659,
				"element": "C" 
			},
			{
				"x": 0.2154309272,
				"y": -1.8799239042,
				"z": 1.1121396742,
				"element": "C" 
			},
			{
				"x": 0.466519464,
				"y": -1.6332825667,
				"z": -0.2172512562,
				"element": "C" 
			},
			{
				"x": 0.2718688539,
				"y": -0.3378920684,
				"z": -0.7681025523,
				"element": "C" 
			},
			{
				"x": 0.527710076,
				"y": -0.06559025,
				"z": -2.1345088703,
				"element": "C" 
			},
			{
				"x": 0.3334923361,
				"y": 1.1895447822,
				"z": -2.6605135044,
				"element": "C" 
			},
			{
				"x": -0.7495008029,
				"y": 3.1662125584,
				"z": -4.3439293495,
				"element": "H" 
			},
			{
				"x": 0.9382673758,
				"y": 3.6125441451,
				"z": -3.9573598481,
				"element": "H" 
			},
			{
				"x": -0.3586321572,
				"y": 4.8283387438,
				"z": -3.8335038739,
				"element": "H" 
			},
			{
				"x": -1.8996776068,
				"y": 2.846746706,
				"z": 0.8383840698,
				"element": "H" 
			},
			{
				"x": -1.163869996,
				"y": 4.0263981822,
				"z": -0.2509729244,
				"element": "H" 
			},
			{
				"x": 0.7778390799,
				"y": 3.6586101461,
				"z": 1.1081263008,
				"element": "H" 
			},
			{
				"x": -0.7278051711,
				"y": 1.2432923012,
				"z": 2.1092294146,
				"element": "H" 
			},
			{
				"x": -0.4161941307,
				"y": -1.0231797524,
				"z": 3.0010701705,
				"element": "H" 
			},
			{
				"x": 0.3657432869,
				"y": -2.8733551641,
				"z": 1.5245609778,
				"element": "H" 
			},
			{
				"x": 0.8186968934,
				"y": -2.4279477245,
				"z": -0.8705696505,
				"element": "H" 
			},
			{
				"x": 0.8841954335,
				"y": -0.8693263985,
				"z": -2.7737430639,
				"element": "H" 
			},
			{
				"x": 0.5404653283,
				"y": 1.3675620869,
				"z": -3.70865165,
				"element": "H" 
			}
		],
		 "valence_orbital": [ 
			{
				"type": "occ",
				"energy": -0.30109,
				"method": "rhf"
			},
			{
				"type": "occ",
				"energy": -0.27576,
				"method": "rhf"
			},
			{
				"type": "occ",
				"energy": -0.25294,
				"method": "rhf"
			},
			{
				"type": "occ",
				"energy": -0.23064,
				"method": "rhf"
			},
			{
				"type": "occ",
				"energy": -0.20145,
				"method": "rhf"
			},
			{
				"type": "unocc",
				"energy": -0.03763,
				"method": "rhf"
			},
			{
				"type": "unocc",
				"energy": 0.00121,
				"method": "rhf"
			},
			{
				"type": "unocc",
				"energy": 0.03216,
				"method": "rhf"
			},
			{
				"type": "unocc",
				"energy": 0.09144,
				"method": "rhf"
			},
			{
				"type": "unocc",
				"energy": 0.09379,
				"method": "rhf"
			}
		],
		"cosmo_sigma_profile": { 
			"-0.025": 0.0,
			"-0.024": 0.0,
			"-0.023": 0.0,
			"-0.022": 0.0,
			"-0.021": 0.0,
			"-0.02": 0.0,
			"-0.019": 0.0,
			"-0.018": 0.0,
			"-0.017": 0.0,
			"-0.016": 0.0,
			"-0.015": 0.56613847648,
			"-0.014": 1.24114419933,
			"-0.013": 0.280699387033,
			"-0.012": 0.849402239011,
			"-0.011": 1.03163988315,
			"-0.01": 0.624953359522,
			"-0.009": 0.400666331845,
			"-0.008": 1.09192411775,
			"-0.007": 1.61676005995,
			"-0.006": 12.4138111255,
			"-0.005": 19.8098966599,
			"-0.004": 20.6447184038,
			"-0.003": 22.854537262,
			"-0.002": 15.7221315688,
			"-0.001": 15.094258394,
			"0.0": 12.7224677232,
			"0.001": 9.97925340766,
			"0.002": 12.8797183427,
			"0.003": 14.4904475124,
			"0.004": 22.1937677205,
			"0.005": 18.7553227421,
			"0.006": 9.91480032287,
			"0.007": 2.92872796716,
			"0.008": 1.83916397901,
			"0.009": 1.13444659582,
			"0.01": 1.40548673206,
			"0.011": 1.35467441817,
			"0.012": 0.867941179943,
			"0.013": 1.28612352869,
			"0.014": 1.65302635894,
			"0.015": 0.359451368602,
			"0.016": 0.0,
			"0.017": 0.0,
			"0.018": 0.0,
			"0.019": 0.0,
			"0.02": 0.0,
			"0.021": 0.0,
			"0.022": 0.0,
			"0.023": 0.0,
			"0.024": 0.0,
			"0.025": 0.0
		}
	}
}
