{
	 "smiles": "CC1=CC=C(SC2=C(C=CC=N2)C(Cl)=O)C=C1", 
	 "Tm": 376.15, 
	 "num_atms": 27, 
	 "gaussian": { 
		 "optdone": 1, 
		 "sigma_profile": "yes", 
		 "theory": "DFT", 
		 "functional": "B3LYP", 
		 "basiset": "6-31G**", 
		 "properties": { 
			 "R2extent": 4827.653, 
			 "electric_dipole_moment_norm": 2.43631891591, 
			 "electric_quadrupole_moment_norm": 22.5648683264, 
			 "total_energy": -1489.75705747, 
			 "HOMO_LUMO_gap": 0.15388, 
			 "cosmo_polarized_energy": -10.79, 
			 "cosmo_cavitation_energy": 34.86, 
			 "cosmo_dispersion_energy": -24.37, 
			 "cosmo_repulsion_energy": 1.86, 
			 "cosmo_total_nonelectrostatic_energy": 12.35, 
			 "SMD_solvation_energy": 4.46 
		},
		"coords": [
			{
				"x": -2.8221067331,
				"y": 4.1723925344,
				"z": -0.8235638626,
				"element": "C" 
			},
			{
				"x": -1.6349513974,
				"y": 3.3042951037,
				"z": -0.4829029264,
				"element": "C" 
			},
			{
				"x": -1.1683131192,
				"y": 2.3381716731,
				"z": -1.3871403177,
				"element": "C" 
			},
			{
				"x": -0.0864928625,
				"y": 1.5197384994,
				"z": -1.0756404461,
				"element": "C" 
			},
			{
				"x": 0.5375863947,
				"y": 1.6289502408,
				"z": 0.1755382363,
				"element": "C" 
			},
			{
				"x": 2.0053057528,
				"y": 0.675459584,
				"z": 0.5708199193,
				"element": "S" 
			},
			{
				"x": 1.5126797413,
				"y": -1.0257035404,
				"z": 0.3248486107,
				"element": "C" 
			},
			{
				"x": 0.2316180643,
				"y": -1.5664415079,
				"z": 0.5839498807,
				"element": "C" 
			},
			{
				"x": -0.0200615097,
				"y": -2.8799418454,
				"z": 0.1628446961,
				"element": "C" 
			},
			{
				"x": 1.0109266267,
				"y": -3.6431998263,
				"z": -0.3727671892,
				"element": "C" 
			},
			{
				"x": 2.2714144064,
				"y": -3.0530387959,
				"z": -0.4676253369,
				"element": "C" 
			},
			{
				"x": 2.5054733946,
				"y": -1.7744851905,
				"z": -0.16421603,
				"element": "N" 
			},
			{
				"x": -0.8966035005,
				"y": -0.9048257316,
				"z": 1.2942349937,
				"element": "C" 
			},
			{
				"x": -0.4654843782,
				"y": -0.3265784073,
				"z": 2.9676473004,
				"element": "Cl" 
			},
			{
				"x": -2.0299802434,
				"y": -0.866076744,
				"z": 0.9261212171,
				"element": "O" 
			},
			{
				"x": 0.0855250297,
				"y": 2.5900032805,
				"z": 1.0862151979,
				"element": "C" 
			},
			{
				"x": -0.9820672783,
				"y": 3.4224438256,
				"z": 0.7497208398,
				"element": "C" 
			},
			{
				"x": -2.8365228536,
				"y": 4.4320993117,
				"z": -1.8866606687,
				"element": "H" 
			},
			{
				"x": -2.8182889044,
				"y": 5.1013172372,
				"z": -0.2463126025,
				"element": "H" 
			},
			{
				"x": -3.7634678106,
				"y": 3.6536004726,
				"z": -0.6036473695,
				"element": "H" 
			},
			{
				"x": -1.6496678645,
				"y": 2.23631984,
				"z": -2.356603144,
				"element": "H" 
			},
			{
				"x": 0.2763524584,
				"y": 0.7989032442,
				"z": -1.8017099858,
				"element": "H" 
			},
			{
				"x": -1.0135502645,
				"y": -3.2952267631,
				"z": 0.3001759914,
				"element": "H" 
			},
			{
				"x": 0.8487873007,
				"y": -4.6678376537,
				"z": -0.6887434064,
				"element": "H" 
			},
			{
				"x": 3.1281154274,
				"y": -3.6218439772,
				"z": -0.8234454135,
				"element": "H" 
			},
			{
				"x": 0.5631745029,
				"y": 2.68021672,
				"z": 2.0561297234,
				"element": "H" 
			},
			{
				"x": -1.3210003801,
				"y": 4.1663884164,
				"z": 1.4660320925,
				"element": "H" 
			}
		],
		 "valence_orbital": [ 
			{
				"type": "occ",
				"energy": -0.28778,
				"method": "rhf"
			},
			{
				"type": "occ",
				"energy": -0.2757,
				"method": "rhf"
			},
			{
				"type": "occ",
				"energy": -0.26184,
				"method": "rhf"
			},
			{
				"type": "occ",
				"energy": -0.25641,
				"method": "rhf"
			},
			{
				"type": "occ",
				"energy": -0.22395,
				"method": "rhf"
			},
			{
				"type": "unocc",
				"energy": -0.07007,
				"method": "rhf"
			},
			{
				"type": "unocc",
				"energy": -0.04542,
				"method": "rhf"
			},
			{
				"type": "unocc",
				"energy": -0.03145,
				"method": "rhf"
			},
			{
				"type": "unocc",
				"energy": -0.01076,
				"method": "rhf"
			},
			{
				"type": "unocc",
				"energy": -0.00507,
				"method": "rhf"
			}
		],
		"cosmo_sigma_profile": { 
			"-0.025": 0.0,
			"-0.024": 0.0,
			"-0.023": 0.0,
			"-0.022": 0.0,
			"-0.021": 0.0,
			"-0.02": 0.0,
			"-0.019": 0.0,
			"-0.018": 0.0,
			"-0.017": 0.0,
			"-0.016": 0.0,
			"-0.015": 0.0,
			"-0.014": 0.0,
			"-0.013": 0.0,
			"-0.012": 0.0,
			"-0.011": 0.0,
			"-0.01": 0.0,
			"-0.009": 1.60209946251,
			"-0.008": 6.05600552208,
			"-0.007": 9.07473292384,
			"-0.006": 13.5668613877,
			"-0.005": 16.367313197,
			"-0.004": 20.7635686064,
			"-0.003": 16.7552094825,
			"-0.002": 20.9168040984,
			"-0.001": 26.0593866548,
			"0.0": 28.6347907064,
			"0.001": 20.5652644186,
			"0.002": 18.4321262781,
			"0.003": 22.9313947041,
			"0.004": 24.204394727,
			"0.005": 11.2725896633,
			"0.006": 5.94560714943,
			"0.007": 6.53682559853,
			"0.008": 6.40817745571,
			"0.009": 2.7460045306,
			"0.01": 1.22809919999,
			"0.011": 0.84783083871,
			"0.012": 0.793194627737,
			"0.013": 0.969429746625,
			"0.014": 0.681139968372,
			"0.015": 0.00899130253563,
			"0.016": 0.0,
			"0.017": 0.0,
			"0.018": 0.0,
			"0.019": 0.0,
			"0.02": 0.0,
			"0.021": 0.0,
			"0.022": 0.0,
			"0.023": 0.0,
			"0.024": 0.0,
			"0.025": 0.0
		}
	}
}
