{
	 "smiles": "CN1N=C(C)C(=C1Cl)S(O)(=O)=O", 
	 "Tm": 582.15, 
	 "num_atms": 19, 
	 "gaussian": { 
		 "optdone": 1, 
		 "sigma_profile": "yes", 
		 "theory": "DFT", 
		 "functional": "B3LYP", 
		 "basiset": "6-31G**", 
		 "properties": { 
			 "R2extent": 3665.937, 
			 "electric_dipole_moment_norm": 4.60454661503, 
			 "electric_quadrupole_moment_norm": 13.8334639057, 
			 "total_energy": -1388.21087263, 
			 "HOMO_LUMO_gap": 0.23967, 
			 "cosmo_polarized_energy": -14.7, 
			 "cosmo_cavitation_energy": 26.53, 
			 "cosmo_dispersion_energy": -19.87, 
			 "cosmo_repulsion_energy": 1.54, 
			 "cosmo_total_nonelectrostatic_energy": 8.2, 
			 "SMD_solvation_energy": 2.78 
		},
		"coords": [
			{
				"x": 1.030457143,
				"y": 1.4248671566,
				"z": -0.1250509028,
				"element": "C" 
			},
			{
				"x": 0.2315379201,
				"y": 0.2152658234,
				"z": -0.2451334896,
				"element": "N" 
			},
			{
				"x": -0.0864091736,
				"y": -0.2704873116,
				"z": -1.4765630252,
				"element": "N" 
			},
			{
				"x": -0.8122275215,
				"y": -1.3670807945,
				"z": -1.2722331579,
				"element": "C" 
			},
			{
				"x": -1.3292204976,
				"y": -2.1543727698,
				"z": -2.4342844504,
				"element": "C" 
			},
			{
				"x": -0.9644124476,
				"y": -1.5982049973,
				"z": 0.1252474244,
				"element": "C" 
			},
			{
				"x": -0.2758011611,
				"y": -0.5557811277,
				"z": 0.737151677,
				"element": "C" 
			},
			{
				"x": -0.0490318248,
				"y": -0.1842821019,
				"z": 2.3983124,
				"element": "Cl" 
			},
			{
				"x": -1.7910131726,
				"y": -2.92118902,
				"z": 0.9202305045,
				"element": "S" 
			},
			{
				"x": -3.0264276169,
				"y": -2.1147951298,
				"z": 1.6487339925,
				"element": "O" 
			},
			{
				"x": -2.3513528002,
				"y": -3.7779877602,
				"z": -0.1148248111,
				"element": "O" 
			},
			{
				"x": -0.9762945217,
				"y": -3.4740833166,
				"z": 2.0012604332,
				"element": "O" 
			},
			{
				"x": 1.9646075947,
				"y": 1.2186546052,
				"z": 0.4036516416,
				"element": "H" 
			},
			{
				"x": 1.244929505,
				"y": 1.7559802226,
				"z": -1.1396911125,
				"element": "H" 
			},
			{
				"x": 0.4764474649,
				"y": 2.2006783619,
				"z": 0.4096126155,
				"element": "H" 
			},
			{
				"x": -0.9520838141,
				"y": -3.1801996245,
				"z": -2.4156859634,
				"element": "H" 
			},
			{
				"x": -2.4203182567,
				"y": -2.2186861322,
				"z": -2.4135592165,
				"element": "H" 
			},
			{
				"x": -1.012074153,
				"y": -1.668291109,
				"z": -3.35902017,
				"element": "H" 
			},
			{
				"x": -3.0283126663,
				"y": -2.4053049747,
				"z": 2.5766456106,
				"element": "H" 
			}
		],
		 "valence_orbital": [ 
			{
				"type": "occ",
				"energy": -0.32543,
				"method": "rhf"
			},
			{
				"type": "occ",
				"energy": -0.30808,
				"method": "rhf"
			},
			{
				"type": "occ",
				"energy": -0.30578,
				"method": "rhf"
			},
			{
				"type": "occ",
				"energy": -0.27448,
				"method": "rhf"
			},
			{
				"type": "occ",
				"energy": -0.26507,
				"method": "rhf"
			},
			{
				"type": "unocc",
				"energy": -0.0254,
				"method": "rhf"
			},
			{
				"type": "unocc",
				"energy": 0.00736,
				"method": "rhf"
			},
			{
				"type": "unocc",
				"energy": 0.01222,
				"method": "rhf"
			},
			{
				"type": "unocc",
				"energy": 0.0528,
				"method": "rhf"
			},
			{
				"type": "unocc",
				"energy": 0.0773,
				"method": "rhf"
			}
		],
		"cosmo_sigma_profile": { 
			"-0.025": 0.0,
			"-0.024": 0.0,
			"-0.023": 0.0,
			"-0.022": 0.0,
			"-0.021": 0.0507681916708,
			"-0.02": 0.606529966816,
			"-0.019": 0.8377129027,
			"-0.018": 0.918513740163,
			"-0.017": 0.538963918609,
			"-0.016": 0.570179590493,
			"-0.015": 0.592791251072,
			"-0.014": 0.943595333401,
			"-0.013": 0.444632426245,
			"-0.012": 0.731329355793,
			"-0.011": 0.840563624916,
			"-0.01": 0.880198540527,
			"-0.009": 0.795880753143,
			"-0.008": 2.0363773962,
			"-0.007": 8.2089772789,
			"-0.006": 8.62298310844,
			"-0.005": 13.5745653264,
			"-0.004": 19.0826418795,
			"-0.003": 15.7172870265,
			"-0.002": 15.2971352352,
			"-0.001": 17.8393548444,
			"0.0": 18.3046991464,
			"0.001": 12.5607656878,
			"0.002": 10.5382790715,
			"0.003": 5.7883433606,
			"0.004": 6.14409304781,
			"0.005": 7.26845926824,
			"0.006": 5.40893107569,
			"0.007": 6.54218677108,
			"0.008": 6.54118050394,
			"0.009": 9.37245819895,
			"0.01": 10.830703949,
			"0.011": 3.01667755191,
			"0.012": 1.24756637803,
			"0.013": 0.693278290686,
			"0.014": 0.0619463172611,
			"0.015": 0.0,
			"0.016": 0.0,
			"0.017": 0.0,
			"0.018": 0.0,
			"0.019": 0.0,
			"0.02": 0.0,
			"0.021": 0.0,
			"0.022": 0.0,
			"0.023": 0.0,
			"0.024": 0.0,
			"0.025": 0.0
		}
	}
}
