{
	 "smiles": "OC1=CC=C(O)C2=C1C1CCC2C1", 
	 "Tm": 448.15, 
	 "num_atms": 25, 
	 "gaussian": { 
		 "optdone": 1, 
		 "sigma_profile": "yes", 
		 "theory": "DFT", 
		 "functional": "B3LYP", 
		 "basiset": "6-31G**", 
		 "properties": { 
			 "R2extent": 2173.5143, 
			 "electric_dipole_moment_norm": 3.33277158833, 
			 "electric_quadrupole_moment_norm": 3.56143328451, 
			 "total_energy": -576.835405119, 
			 "HOMO_LUMO_gap": 0.19737, 
			 "cosmo_polarized_energy": -12.11, 
			 "cosmo_cavitation_energy": 26.38, 
			 "cosmo_dispersion_energy": -19.78, 
			 "cosmo_repulsion_energy": 1.56, 
			 "cosmo_total_nonelectrostatic_energy": 8.16, 
			 "SMD_solvation_energy": 4.04 
		},
		"coords": [
			{
				"x": -1.3465922462,
				"y": -2.8597315366,
				"z": -0.1902311354,
				"element": "O" 
			},
			{
				"x": -1.2416030838,
				"y": -1.5564124005,
				"z": -0.6125263149,
				"element": "C" 
			},
			{
				"x": -2.1473379478,
				"y": -1.1085839427,
				"z": -1.5873170711,
				"element": "C" 
			},
			{
				"x": -2.1088453102,
				"y": 0.2033443825,
				"z": -2.0506860538,
				"element": "C" 
			},
			{
				"x": -1.1631701114,
				"y": 1.1157315285,
				"z": -1.5563603585,
				"element": "C" 
			},
			{
				"x": -1.1922358712,
				"y": 2.3986520606,
				"z": -2.0475482817,
				"element": "O" 
			},
			{
				"x": -0.2476360321,
				"y": 0.6651976131,
				"z": -0.6122338237,
				"element": "C" 
			},
			{
				"x": -0.2866018252,
				"y": -0.6616566899,
				"z": -0.1435384085,
				"element": "C" 
			},
			{
				"x": 0.7893344846,
				"y": -0.7722519674,
				"z": 0.9258131155,
				"element": "C" 
			},
			{
				"x": 0.2963763234,
				"y": 0.0523716681,
				"z": 2.1599584504,
				"element": "C" 
			},
			{
				"x": 0.3398557925,
				"y": 1.5262264438,
				"z": 1.6392417285,
				"element": "C" 
			},
			{
				"x": 0.8522576078,
				"y": 1.3661036744,
				"z": 0.1702245353,
				"element": "C" 
			},
			{
				"x": 1.8530286813,
				"y": 0.1937217772,
				"z": 0.3419229161,
				"element": "C" 
			},
			{
				"x": -0.6534696884,
				"y": -3.0323451651,
				"z": 0.4589643679,
				"element": "H" 
			},
			{
				"x": -2.8795592513,
				"y": -1.8090685042,
				"z": -1.9758690079,
				"element": "H" 
			},
			{
				"x": -2.8105793828,
				"y": 0.5418419094,
				"z": -2.8061894408,
				"element": "H" 
			},
			{
				"x": -0.4793829166,
				"y": 2.9040842925,
				"z": -1.6376101364,
				"element": "H" 
			},
			{
				"x": 1.1364017856,
				"y": -1.7806929192,
				"z": 1.1716511447,
				"element": "H" 
			},
			{
				"x": -0.7029475937,
				"y": -0.2529005881,
				"z": 2.4803897735,
				"element": "H" 
			},
			{
				"x": 0.9758340989,
				"y": -0.0868678363,
				"z": 3.0075382579,
				"element": "H" 
			},
			{
				"x": 1.0413361743,
				"y": 2.1307687324,
				"z": 2.2239591945,
				"element": "H" 
			},
			{
				"x": -0.6359623561,
				"y": 2.0168861022,
				"z": 1.6786466487,
				"element": "H" 
			},
			{
				"x": 1.2560455204,
				"y": 2.2854683324,
				"z": -0.2651722633,
				"element": "H" 
			},
			{
				"x": 2.2731619363,
				"y": -0.1535282189,
				"z": -0.6058115817,
				"element": "H" 
			},
			{
				"x": 2.6633912118,
				"y": 0.418241252,
				"z": 1.0446837448,
				"element": "H" 
			}
		],
		 "valence_orbital": [ 
			{
				"type": "occ",
				"energy": -0.33197,
				"method": "rhf"
			},
			{
				"type": "occ",
				"energy": -0.30956,
				"method": "rhf"
			},
			{
				"type": "occ",
				"energy": -0.29099,
				"method": "rhf"
			},
			{
				"type": "occ",
				"energy": -0.23073,
				"method": "rhf"
			},
			{
				"type": "occ",
				"energy": -0.19293,
				"method": "rhf"
			},
			{
				"type": "unocc",
				"energy": 0.00444,
				"method": "rhf"
			},
			{
				"type": "unocc",
				"energy": 0.03296,
				"method": "rhf"
			},
			{
				"type": "unocc",
				"energy": 0.05878,
				"method": "rhf"
			},
			{
				"type": "unocc",
				"energy": 0.06791,
				"method": "rhf"
			},
			{
				"type": "unocc",
				"energy": 0.09445,
				"method": "rhf"
			}
		],
		"cosmo_sigma_profile": { 
			"-0.025": 0.0,
			"-0.024": 0.0,
			"-0.023": 0.0,
			"-0.022": 0.0,
			"-0.021": 0.0,
			"-0.02": 0.0,
			"-0.019": 0.0,
			"-0.018": 0.0,
			"-0.017": 0.0,
			"-0.016": 0.554035867783,
			"-0.015": 2.20784884393,
			"-0.014": 1.937552769,
			"-0.013": 2.16824332431,
			"-0.012": 1.60583329568,
			"-0.011": 2.33341575664,
			"-0.01": 2.35470231981,
			"-0.009": 2.13280530206,
			"-0.008": 2.4031727046,
			"-0.007": 2.37770300069,
			"-0.006": 2.90730632675,
			"-0.005": 5.97364276367,
			"-0.004": 8.54970645034,
			"-0.003": 19.0660815202,
			"-0.002": 22.7797924339,
			"-0.001": 22.2900685059,
			"0.0": 21.2114760718,
			"0.001": 16.8416633934,
			"0.002": 6.79426927994,
			"0.003": 6.39310833686,
			"0.004": 8.28175301545,
			"0.005": 12.8488328805,
			"0.006": 10.7630359243,
			"0.007": 5.32401624862,
			"0.008": 2.64456377038,
			"0.009": 3.24664296468,
			"0.01": 2.57834921156,
			"0.011": 3.75532630849,
			"0.012": 4.06805303274,
			"0.013": 0.584776431993,
			"0.014": 0.0,
			"0.015": 0.0,
			"0.016": 0.0,
			"0.017": 0.0,
			"0.018": 0.0,
			"0.019": 0.0,
			"0.02": 0.0,
			"0.021": 0.0,
			"0.022": 0.0,
			"0.023": 0.0,
			"0.024": 0.0,
			"0.025": 0.0
		}
	}
}
