{
	 "smiles": "ClCC(=O)NC(CC1=CC=CC=C1)C1=CC=CC=C1", 
	 "Tm": 493.15, 
	 "num_atms": 35, 
	 "gaussian": { 
		 "optdone": 1, 
		 "sigma_profile": "yes", 
		 "theory": "DFT", 
		 "functional": "B3LYP", 
		 "basiset": "6-31G**", 
		 "properties": { 
			 "R2extent": 7288.1537, 
			 "electric_dipole_moment_norm": 5.72854977198, 
			 "electric_quadrupole_moment_norm": 28.5457942203, 
			 "total_energy": -1209.52969643, 
			 "HOMO_LUMO_gap": 0.22106, 
			 "cosmo_polarized_energy": -17.3, 
			 "cosmo_cavitation_energy": 40.35, 
			 "cosmo_dispersion_energy": -27.26, 
			 "cosmo_repulsion_energy": 2.15, 
			 "cosmo_total_nonelectrostatic_energy": 15.24, 
			 "SMD_solvation_energy": 6.65 
		},
		"coords": [
			{
				"x": -0.4673534488,
				"y": -3.659112531,
				"z": -3.5592989333,
				"element": "Cl" 
			},
			{
				"x": -0.0599967397,
				"y": -2.2417373343,
				"z": -2.5446093065,
				"element": "C" 
			},
			{
				"x": -0.4622952635,
				"y": -2.4364645972,
				"z": -1.0767652705,
				"element": "C" 
			},
			{
				"x": -1.0865533233,
				"y": -3.3998642375,
				"z": -0.6714760214,
				"element": "O" 
			},
			{
				"x": -0.0893832651,
				"y": -1.4147939418,
				"z": -0.2307814236,
				"element": "N" 
			},
			{
				"x": 0.8347150386,
				"y": -0.3097332164,
				"z": -0.4845547397,
				"element": "C" 
			},
			{
				"x": 1.192559202,
				"y": 0.3582924948,
				"z": 0.8733015204,
				"element": "C" 
			},
			{
				"x": 1.8235693915,
				"y": -0.5781842006,
				"z": 1.8815343902,
				"element": "C" 
			},
			{
				"x": 3.1458819418,
				"y": -1.0183489031,
				"z": 1.7199884166,
				"element": "C" 
			},
			{
				"x": 3.7219579414,
				"y": -1.9004399967,
				"z": 2.6326278406,
				"element": "C" 
			},
			{
				"x": 2.984395907,
				"y": -2.3588870301,
				"z": 3.7275721921,
				"element": "C" 
			},
			{
				"x": 1.671128219,
				"y": -1.9249215671,
				"z": 3.9041925714,
				"element": "C" 
			},
			{
				"x": 1.0977091537,
				"y": -1.0396298916,
				"z": 2.9878441555,
				"element": "C" 
			},
			{
				"x": 0.2788477555,
				"y": 0.7393360155,
				"z": -1.4430537181,
				"element": "C" 
			},
			{
				"x": -1.0709021375,
				"y": 1.1131313952,
				"z": -1.4092587418,
				"element": "C" 
			},
			{
				"x": -1.5485234476,
				"y": 2.1179638306,
				"z": -2.2514762853,
				"element": "C" 
			},
			{
				"x": -0.6828446525,
				"y": 2.7649970715,
				"z": -3.1362157493,
				"element": "C" 
			},
			{
				"x": 0.6634944439,
				"y": 2.3989244058,
				"z": -3.1762926723,
				"element": "C" 
			},
			{
				"x": 1.1385156056,
				"y": 1.3911215056,
				"z": -2.3355026758,
				"element": "C" 
			},
			{
				"x": 1.0159627427,
				"y": -2.0736929022,
				"z": -2.6318785722,
				"element": "H" 
			},
			{
				"x": -0.5705712656,
				"y": -1.3720717447,
				"z": -2.9613976539,
				"element": "H" 
			},
			{
				"x": -0.2589266353,
				"y": -1.656579163,
				"z": 0.7382850796,
				"element": "H" 
			},
			{
				"x": 1.7720427676,
				"y": -0.6977929209,
				"z": -0.9101617726,
				"element": "H" 
			},
			{
				"x": 0.278215892,
				"y": 0.7995716771,
				"z": 1.2863734447,
				"element": "H" 
			},
			{
				"x": 1.8679248968,
				"y": 1.1908850416,
				"z": 0.6507795697,
				"element": "H" 
			},
			{
				"x": 3.7305259485,
				"y": -0.6617659443,
				"z": 0.8748840049,
				"element": "H" 
			},
			{
				"x": 4.7480136876,
				"y": -2.2284269615,
				"z": 2.4924232347,
				"element": "H" 
			},
			{
				"x": 3.4332920874,
				"y": -3.0460508162,
				"z": 4.4386191813,
				"element": "H" 
			},
			{
				"x": 1.0914343172,
				"y": -2.270624211,
				"z": 4.7551346918,
				"element": "H" 
			},
			{
				"x": 0.0782309345,
				"y": -0.6925062768,
				"z": 3.1423398297,
				"element": "H" 
			},
			{
				"x": -1.7474905532,
				"y": 0.600961912,
				"z": -0.7313498738,
				"element": "H" 
			},
			{
				"x": -2.5987292532,
				"y": 2.3936032469,
				"z": -2.2186550216,
				"element": "H" 
			},
			{
				"x": -1.0565406845,
				"y": 3.5441761997,
				"z": -3.7939864848,
				"element": "H" 
			},
			{
				"x": 1.3425151198,
				"y": 2.8908634251,
				"z": -3.8667983179,
				"element": "H" 
			},
			{
				"x": 2.1874776758,
				"y": 1.1049001666,
				"z": -2.376386889,
				"element": "H" 
			}
		],
		 "valence_orbital": [ 
			{
				"type": "occ",
				"energy": -0.26268,
				"method": "rhf"
			},
			{
				"type": "occ",
				"energy": -0.26219,
				"method": "rhf"
			},
			{
				"type": "occ",
				"energy": -0.25775,
				"method": "rhf"
			},
			{
				"type": "occ",
				"energy": -0.25572,
				"method": "rhf"
			},
			{
				"type": "occ",
				"energy": -0.24531,
				"method": "rhf"
			},
			{
				"type": "unocc",
				"energy": -0.02425,
				"method": "rhf"
			},
			{
				"type": "unocc",
				"energy": -0.01526,
				"method": "rhf"
			},
			{
				"type": "unocc",
				"energy": -0.01391,
				"method": "rhf"
			},
			{
				"type": "unocc",
				"energy": -0.00777,
				"method": "rhf"
			},
			{
				"type": "unocc",
				"energy": 0.0209,
				"method": "rhf"
			}
		],
		"cosmo_sigma_profile": { 
			"-0.025": 0.0,
			"-0.024": 0.0,
			"-0.023": 0.0,
			"-0.022": 0.0,
			"-0.021": 0.0,
			"-0.02": 0.0,
			"-0.019": 0.0,
			"-0.018": 0.0,
			"-0.017": 0.0,
			"-0.016": 0.0,
			"-0.015": 0.0,
			"-0.014": 0.0,
			"-0.013": 0.0,
			"-0.012": 0.0,
			"-0.011": 0.0,
			"-0.01": 0.966588038837,
			"-0.009": 3.78270473884,
			"-0.008": 3.38449883517,
			"-0.007": 6.23616807002,
			"-0.006": 19.268300269,
			"-0.005": 30.185359111,
			"-0.004": 30.8234010613,
			"-0.003": 29.5239117901,
			"-0.002": 20.5670201164,
			"-0.001": 23.2107288779,
			"0.0": 18.3440460299,
			"0.001": 18.1836912334,
			"0.002": 17.0281077147,
			"0.003": 19.6448845917,
			"0.004": 19.8246964517,
			"0.005": 22.2173750189,
			"0.006": 16.5661855866,
			"0.007": 3.39827215851,
			"0.008": 2.02803135356,
			"0.009": 1.28969688107,
			"0.01": 1.94877447623,
			"0.011": 2.28437380378,
			"0.012": 2.84450228351,
			"0.013": 6.00167303683,
			"0.014": 2.83929915235,
			"0.015": 0.481347420725,
			"0.016": 0.0,
			"0.017": 0.0,
			"0.018": 0.0,
			"0.019": 0.0,
			"0.02": 0.0,
			"0.021": 0.0,
			"0.022": 0.0,
			"0.023": 0.0,
			"0.024": 0.0,
			"0.025": 0.0
		}
	}
}
