{
	 "smiles": "CCS(=O)(=O)C1=CC2=C(OC(S)=N2)C=C1", 
	 "Tm": 462.15, 
	 "num_atms": 24, 
	 "gaussian": { 
		 "optdone": 1, 
		 "sigma_profile": "yes", 
		 "theory": "DFT", 
		 "functional": "B3LYP", 
		 "basiset": "6-31G**", 
		 "properties": { 
			 "R2extent": 5602.8168, 
			 "electric_dipole_moment_norm": 5.04714291159, 
			 "electric_quadrupole_moment_norm": 23.792283088, 
			 "total_energy": -1425.11044077, 
			 "HOMO_LUMO_gap": 0.19929, 
			 "cosmo_polarized_energy": -16.69, 
			 "cosmo_cavitation_energy": 31.58, 
			 "cosmo_dispersion_energy": -23.97, 
			 "cosmo_repulsion_energy": 1.78, 
			 "cosmo_total_nonelectrostatic_energy": 9.39, 
			 "SMD_solvation_energy": 2.68 
		},
		"coords": [
			{
				"x": 2.9850801433,
				"y": -1.2077041295,
				"z": 0.4545828909,
				"element": "C" 
			},
			{
				"x": 1.9509307517,
				"y": -1.9262077147,
				"z": 1.3129041559,
				"element": "C" 
			},
			{
				"x": 0.58423348,
				"y": -2.6668799969,
				"z": 0.3589894993,
				"element": "S" 
			},
			{
				"x": 1.1702089867,
				"y": -3.3764559963,
				"z": -0.7911226903,
				"element": "O" 
			},
			{
				"x": -0.2783524196,
				"y": -3.3625128452,
				"z": 1.3287173812,
				"element": "O" 
			},
			{
				"x": -0.3404897817,
				"y": -1.2577767525,
				"z": -0.2823291948,
				"element": "C" 
			},
			{
				"x": -0.0584875075,
				"y": -0.8069502589,
				"z": -1.5738553402,
				"element": "C" 
			},
			{
				"x": -0.801126424,
				"y": 0.284483766,
				"z": -2.0242318624,
				"element": "C" 
			},
			{
				"x": -1.771658853,
				"y": 0.8606902005,
				"z": -1.1909556292,
				"element": "C" 
			},
			{
				"x": -2.3443509342,
				"y": 1.8998602206,
				"z": -1.885463106,
				"element": "O" 
			},
			{
				"x": -1.684464578,
				"y": 1.8834761989,
				"z": -3.0912889123,
				"element": "C" 
			},
			{
				"x": -2.2043605191,
				"y": 3.1214750625,
				"z": -4.2195443066,
				"element": "S" 
			},
			{
				"x": -0.7773911829,
				"y": 0.9739264323,
				"z": -3.2399204523,
				"element": "N" 
			},
			{
				"x": -2.0699050126,
				"y": 0.4151327142,
				"z": 0.0872488866,
				"element": "C" 
			},
			{
				"x": -1.3246311749,
				"y": -0.6766723258,
				"z": 0.5369902919,
				"element": "C" 
			},
			{
				"x": 3.4016883249,
				"y": -1.8855066652,
				"z": -0.2939383447,
				"element": "H" 
			},
			{
				"x": 2.5522532795,
				"y": -0.3448996001,
				"z": -0.0597516113,
				"element": "H" 
			},
			{
				"x": 3.8007454803,
				"y": -0.846562549,
				"z": 1.0882237342,
				"element": "H" 
			},
			{
				"x": 2.3773756233,
				"y": -2.7881022619,
				"z": 1.8362004017,
				"element": "H" 
			},
			{
				"x": 1.4831707353,
				"y": -1.275218268,
				"z": 2.0568456697,
				"element": "H" 
			},
			{
				"x": 0.6817963661,
				"y": -1.2998815077,
				"z": -2.1927116712,
				"element": "H" 
			},
			{
				"x": -1.3429746219,
				"y": 2.719449144,
				"z": -5.1728523347,
				"element": "H" 
			},
			{
				"x": -2.8404950774,
				"y": 0.8761568908,
				"z": 0.6941379504,
				"element": "H" 
			},
			{
				"x": -1.5182950845,
				"y": -1.1063197583,
				"z": 1.5136245944,
				"element": "H" 
			}
		],
		 "valence_orbital": [ 
			{
				"type": "occ",
				"energy": -0.30855,
				"method": "rhf"
			},
			{
				"type": "occ",
				"energy": -0.2951,
				"method": "rhf"
			},
			{
				"type": "occ",
				"energy": -0.28417,
				"method": "rhf"
			},
			{
				"type": "occ",
				"energy": -0.27306,
				"method": "rhf"
			},
			{
				"type": "occ",
				"energy": -0.24717,
				"method": "rhf"
			},
			{
				"type": "unocc",
				"energy": -0.04788,
				"method": "rhf"
			},
			{
				"type": "unocc",
				"energy": -0.03542,
				"method": "rhf"
			},
			{
				"type": "unocc",
				"energy": -0.01034,
				"method": "rhf"
			},
			{
				"type": "unocc",
				"energy": 0.01336,
				"method": "rhf"
			},
			{
				"type": "unocc",
				"energy": 0.04526,
				"method": "rhf"
			}
		],
		"cosmo_sigma_profile": { 
			"-0.025": 0.0,
			"-0.024": 0.0,
			"-0.023": 0.0,
			"-0.022": 0.0,
			"-0.021": 0.0,
			"-0.02": 0.0,
			"-0.019": 0.0,
			"-0.018": 0.0,
			"-0.017": 0.0,
			"-0.016": 0.0,
			"-0.015": 0.0,
			"-0.014": 0.119506442875,
			"-0.013": 1.45271801974,
			"-0.012": 1.70022082827,
			"-0.011": 1.17342564888,
			"-0.01": 1.19292444972,
			"-0.009": 2.12978359876,
			"-0.008": 7.63757537241,
			"-0.007": 11.046592103,
			"-0.006": 10.835809096,
			"-0.005": 13.764136971,
			"-0.004": 17.8695105001,
			"-0.003": 20.7538005562,
			"-0.002": 19.2435273913,
			"-0.001": 25.5763457364,
			"0.0": 23.4460234728,
			"0.001": 18.3255193859,
			"0.002": 13.3681826874,
			"0.003": 9.4458236054,
			"0.004": 7.65167012883,
			"0.005": 7.27676797636,
			"0.006": 3.6183662205,
			"0.007": 3.72385349496,
			"0.008": 3.75929343871,
			"0.009": 4.71786512633,
			"0.01": 5.63820062334,
			"0.011": 8.10788142205,
			"0.012": 9.42334830357,
			"0.013": 1.95944497632,
			"0.014": 0.472995240312,
			"0.015": 0.0433788495109,
			"0.016": 0.0,
			"0.017": 0.0,
			"0.018": 0.0,
			"0.019": 0.0,
			"0.02": 0.0,
			"0.021": 0.0,
			"0.022": 0.0,
			"0.023": 0.0,
			"0.024": 0.0,
			"0.025": 0.0
		}
	}
}
