{
	 "smiles": "CCOC(=O)C1=C(C)NC(C)=C(C1C1=CC(=CC=C1)[N+]([O-])=O)C(O)=O", 
	 "Tm": 473.15, 
	 "num_atms": 43, 
	 "gaussian": { 
		 "optdone": 1, 
		 "sigma_profile": "yes", 
		 "theory": "DFT", 
		 "functional": "B3LYP", 
		 "basiset": "6-31G**", 
		 "properties": { 
			 "R2extent": 9426.1191, 
			 "electric_dipole_moment_norm": 6.82815081043, 
			 "electric_quadrupole_moment_norm": 28.2497519152, 
			 "total_energy": -1219.42281379, 
			 "HOMO_LUMO_gap": 0.13558, 
			 "cosmo_polarized_energy": -28.39, 
			 "cosmo_cavitation_energy": 47.26, 
			 "cosmo_dispersion_energy": -31.2, 
			 "cosmo_repulsion_energy": 2.42, 
			 "cosmo_total_nonelectrostatic_energy": 18.48, 
			 "SMD_solvation_energy": 12.27 
		},
		"coords": [
			{
				"x": 3.359323727,
				"y": 3.4554215703,
				"z": 2.5266855263,
				"element": "C" 
			},
			{
				"x": 2.6023808591,
				"y": 2.1990239778,
				"z": 2.9144676699,
				"element": "C" 
			},
			{
				"x": 1.6535287122,
				"y": 1.9180184097,
				"z": 1.8609054792,
				"element": "O" 
			},
			{
				"x": 0.8900441408,
				"y": 0.809223068,
				"z": 2.0460946377,
				"element": "C" 
			},
			{
				"x": 0.9980282305,
				"y": 0.1110188463,
				"z": 3.0430360736,
				"element": "O" 
			},
			{
				"x": -0.0807994846,
				"y": 0.5322983469,
				"z": 0.9753757988,
				"element": "C" 
			},
			{
				"x": -0.2645177096,
				"y": 1.2914270567,
				"z": -0.1411609914,
				"element": "C" 
			},
			{
				"x": 0.5419360399,
				"y": 2.486023898,
				"z": -0.5871176284,
				"element": "C" 
			},
			{
				"x": -1.32593865,
				"y": 0.9947991272,
				"z": -0.9843913321,
				"element": "N" 
			},
			{
				"x": -2.3719248218,
				"y": 0.139050341,
				"z": -0.6416836006,
				"element": "C" 
			},
			{
				"x": -3.5949647244,
				"y": 0.3223863652,
				"z": -1.5058194113,
				"element": "C" 
			},
			{
				"x": -2.2200499066,
				"y": -0.6872848202,
				"z": 0.4216921842,
				"element": "C" 
			},
			{
				"x": -0.9175197208,
				"y": -0.7236582796,
				"z": 1.2097133593,
				"element": "C" 
			},
			{
				"x": -0.1170373292,
				"y": -1.9960056545,
				"z": 0.8962326483,
				"element": "C" 
			},
			{
				"x": 0.1164390457,
				"y": -2.3823265644,
				"z": -0.4263706452,
				"element": "C" 
			},
			{
				"x": 0.8499234987,
				"y": -3.5374571236,
				"z": -0.6852718952,
				"element": "C" 
			},
			{
				"x": 1.3676868969,
				"y": -4.335859544,
				"z": 0.3335037782,
				"element": "C" 
			},
			{
				"x": 1.134258485,
				"y": -3.9466627727,
				"z": 1.650103082,
				"element": "C" 
			},
			{
				"x": 0.4018477736,
				"y": -2.7897411229,
				"z": 1.928982313,
				"element": "C" 
			},
			{
				"x": 1.0788599181,
				"y": -3.92899551,
				"z": -2.0842791014,
				"element": "N" 
			},
			{
				"x": 1.7535082851,
				"y": -4.9362678364,
				"z": -2.2958854993,
				"element": "O" 
			},
			{
				"x": 0.5809310055,
				"y": -3.2266088859,
				"z": -2.9667597858,
				"element": "O" 
			},
			{
				"x": -3.3008539387,
				"y": -1.5520728715,
				"z": 0.9773113814,
				"element": "C" 
			},
			{
				"x": -4.0928425147,
				"y": -2.2241823862,
				"z": 0.087858631,
				"element": "O" 
			},
			{
				"x": -3.4855492419,
				"y": -1.6955039134,
				"z": 2.1634350585,
				"element": "O" 
			},
			{
				"x": 2.6791271182,
				"y": 4.304469131,
				"z": 2.4108848588,
				"element": "H" 
			},
			{
				"x": 3.9004313596,
				"y": 3.3151436168,
				"z": 1.5861521377,
				"element": "H" 
			},
			{
				"x": 4.0870177538,
				"y": 3.7040356738,
				"z": 3.3054092251,
				"element": "H" 
			},
			{
				"x": 2.0590756712,
				"y": 2.321698318,
				"z": 3.8565051605,
				"element": "H" 
			},
			{
				"x": 3.267962625,
				"y": 1.3382291425,
				"z": 3.032014145,
				"element": "H" 
			},
			{
				"x": 0.3306110329,
				"y": 3.3576850749,
				"z": 0.0390774617,
				"element": "H" 
			},
			{
				"x": 1.6107010741,
				"y": 2.2921687976,
				"z": -0.5106323062,
				"element": "H" 
			},
			{
				"x": 0.3051127614,
				"y": 2.7409124512,
				"z": -1.6252601285,
				"element": "H" 
			},
			{
				"x": -1.4779992048,
				"y": 1.6168823177,
				"z": -1.763533837,
				"element": "H" 
			},
			{
				"x": -3.8703839513,
				"y": 1.3827736595,
				"z": -1.5437715693,
				"element": "H" 
			},
			{
				"x": -3.3981898928,
				"y": 0.0004903326,
				"z": -2.5366414852,
				"element": "H" 
			},
			{
				"x": -4.4534923391,
				"y": -0.2298875423,
				"z": -1.1282125242,
				"element": "H" 
			},
			{
				"x": -1.1779899323,
				"y": -0.7687170623,
				"z": 2.2702185827,
				"element": "H" 
			},
			{
				"x": -0.2596036179,
				"y": -1.8041783958,
				"z": -1.2611552927,
				"element": "H" 
			},
			{
				"x": 1.9290114084,
				"y": -5.227272597,
				"z": 0.0841633504,
				"element": "H" 
			},
			{
				"x": 1.5236228897,
				"y": -4.548646688,
				"z": 2.4652306291,
				"element": "H" 
			},
			{
				"x": 0.2391047075,
				"y": -2.483359761,
				"z": 2.9565951763,
				"element": "H" 
			},
			{
				"x": -3.6756180396,
				"y": -2.204390191,
				"z": -0.7848013154,
				"element": "H" 
			}
		],
		 "valence_orbital": [ 
			{
				"type": "occ",
				"energy": -0.27604,
				"method": "rhf"
			},
			{
				"type": "occ",
				"energy": -0.27189,
				"method": "rhf"
			},
			{
				"type": "occ",
				"energy": -0.26658,
				"method": "rhf"
			},
			{
				"type": "occ",
				"energy": -0.25689,
				"method": "rhf"
			},
			{
				"type": "occ",
				"energy": -0.2184,
				"method": "rhf"
			},
			{
				"type": "unocc",
				"energy": -0.08282,
				"method": "rhf"
			},
			{
				"type": "unocc",
				"energy": -0.05487,
				"method": "rhf"
			},
			{
				"type": "unocc",
				"energy": -0.01673,
				"method": "rhf"
			},
			{
				"type": "unocc",
				"energy": -0.00909,
				"method": "rhf"
			},
			{
				"type": "unocc",
				"energy": 0.01284,
				"method": "rhf"
			}
		],
		"cosmo_sigma_profile": { 
			"-0.025": 0.0,
			"-0.024": 0.0,
			"-0.023": 0.0,
			"-0.022": 0.0,
			"-0.021": 0.0,
			"-0.02": 0.0,
			"-0.019": 0.0,
			"-0.018": 0.256125667602,
			"-0.017": 0.74072170156,
			"-0.016": 1.05172140412,
			"-0.015": 1.59395689607,
			"-0.014": 2.09365940723,
			"-0.013": 2.40834426687,
			"-0.012": 2.32375685123,
			"-0.011": 2.76236736766,
			"-0.01": 2.86294186674,
			"-0.009": 2.51184778537,
			"-0.008": 3.27579912197,
			"-0.007": 8.12189690571,
			"-0.006": 14.2111530153,
			"-0.005": 20.4397087037,
			"-0.004": 30.8911362191,
			"-0.003": 31.5481709002,
			"-0.002": 34.5102729538,
			"-0.001": 33.695867062,
			"0.0": 30.2755454901,
			"0.001": 24.6487753137,
			"0.002": 24.6063544823,
			"0.003": 13.7337626719,
			"0.004": 9.8966034608,
			"0.005": 7.63092573516,
			"0.006": 7.02225811283,
			"0.007": 12.0652567604,
			"0.008": 11.8712450508,
			"0.009": 9.58012461143,
			"0.01": 8.27753896024,
			"0.011": 7.1566497677,
			"0.012": 7.89729674488,
			"0.013": 4.23566069605,
			"0.014": 0.439711731492,
			"0.015": 0.0,
			"0.016": 0.0,
			"0.017": 0.0,
			"0.018": 0.0,
			"0.019": 0.0,
			"0.02": 0.0,
			"0.021": 0.0,
			"0.022": 0.0,
			"0.023": 0.0,
			"0.024": 0.0,
			"0.025": 0.0
		}
	}
}
