{
	 "smiles": "OCC1OC(CC1O)N1C=C(C(=O)NC1=O)C(F)(F)F", 
	 "Tm": 461.15, 
	 "num_atms": 31, 
	 "gaussian": { 
		 "optdone": 1, 
		 "sigma_profile": "yes", 
		 "theory": "DFT", 
		 "functional": "B3LYP", 
		 "basiset": "6-31G**", 
		 "properties": { 
			 "R2extent": 7886.9586, 
			 "electric_dipole_moment_norm": 6.91374969608, 
			 "electric_quadrupole_moment_norm": 22.9901976744, 
			 "total_energy": -1172.84248768, 
			 "HOMO_LUMO_gap": 0.20444, 
			 "cosmo_polarized_energy": -24.0, 
			 "cosmo_cavitation_energy": 36.04, 
			 "cosmo_dispersion_energy": -25.27, 
			 "cosmo_repulsion_energy": 1.91, 
			 "cosmo_total_nonelectrostatic_energy": 12.67, 
			 "SMD_solvation_energy": 8.52 
		},
		"coords": [
			{
				"x": -1.5173213901,
				"y": -2.4630748277,
				"z": 0.5317843227,
				"element": "O" 
			},
			{
				"x": -0.146700723,
				"y": -2.8073892119,
				"z": 0.6662147218,
				"element": "C" 
			},
			{
				"x": 0.7091124516,
				"y": -1.7550492827,
				"z": -0.0289831041,
				"element": "C" 
			},
			{
				"x": 0.445665791,
				"y": -0.4477227105,
				"z": 0.5155357714,
				"element": "O" 
			},
			{
				"x": -0.3993717905,
				"y": 0.2975700694,
				"z": -0.3332170329,
				"element": "C" 
			},
			{
				"x": -0.670481703,
				"y": -0.5562290412,
				"z": -1.5825758937,
				"element": "C" 
			},
			{
				"x": 0.4616664639,
				"y": -1.5946753715,
				"z": -1.5417356211,
				"element": "C" 
			},
			{
				"x": 0.1628970984,
				"y": -2.8517611763,
				"z": -2.1165991593,
				"element": "O" 
			},
			{
				"x": 0.2918646816,
				"y": 1.5898193776,
				"z": -0.6549272489,
				"element": "N" 
			},
			{
				"x": 1.605922832,
				"y": 1.8126377398,
				"z": -0.3611301372,
				"element": "C" 
			},
			{
				"x": 2.2397795992,
				"y": 2.9816157926,
				"z": -0.6335110149,
				"element": "C" 
			},
			{
				"x": 1.5092443191,
				"y": 4.0837860913,
				"z": -1.255027696,
				"element": "C" 
			},
			{
				"x": 1.9496273551,
				"y": 5.1793313714,
				"z": -1.5549672114,
				"element": "O" 
			},
			{
				"x": 0.1570385515,
				"y": 3.7633153594,
				"z": -1.4955831762,
				"element": "N" 
			},
			{
				"x": -0.5103096719,
				"y": 2.5815365125,
				"z": -1.2347298639,
				"element": "C" 
			},
			{
				"x": -1.6901004279,
				"y": 2.4007801086,
				"z": -1.4880389238,
				"element": "O" 
			},
			{
				"x": 3.6863807738,
				"y": 3.1707762129,
				"z": -0.2941735763,
				"element": "C" 
			},
			{
				"x": 3.8766870362,
				"y": 4.1830119071,
				"z": 0.5732142187,
				"element": "F" 
			},
			{
				"x": 4.1997389756,
				"y": 2.0502040615,
				"z": 0.2780205102,
				"element": "F" 
			},
			{
				"x": 4.4306469068,
				"y": 3.4341191943,
				"z": -1.3864419781,
				"element": "F" 
			},
			{
				"x": -2.0495894743,
				"y": -3.1950759204,
				"z": 0.8640986075,
				"element": "H" 
			},
			{
				"x": 0.1513435358,
				"y": -2.8384675425,
				"z": 1.7253678602,
				"element": "H" 
			},
			{
				"x": 0.0819368355,
				"y": -3.7807201105,
				"z": 0.2110689967,
				"element": "H" 
			},
			{
				"x": 1.7587182089,
				"y": -1.9877656927,
				"z": 0.1828938422,
				"element": "H" 
			},
			{
				"x": -1.3182789498,
				"y": 0.5720716035,
				"z": 0.1875154237,
				"element": "H" 
			},
			{
				"x": -1.6217242721,
				"y": -1.0761574802,
				"z": -1.4627593556,
				"element": "H" 
			},
			{
				"x": -0.697152819,
				"y": 0.0445399475,
				"z": -2.4931173624,
				"element": "H" 
			},
			{
				"x": 1.3734182892,
				"y": -1.1732388076,
				"z": -1.9937747504,
				"element": "H" 
			},
			{
				"x": 0.0527961362,
				"y": -2.7322202525,
				"z": -3.0679694744,
				"element": "H" 
			},
			{
				"x": 2.108214421,
				"y": 0.987298644,
				"z": 0.1242042433,
				"element": "H" 
			},
			{
				"x": -0.4035690409,
				"y": 4.4939334349,
				"z": -1.918355938,
				"element": "H" 
			}
		],
		 "valence_orbital": [ 
			{
				"type": "occ",
				"energy": -0.29353,
				"method": "rhf"
			},
			{
				"type": "occ",
				"energy": -0.289,
				"method": "rhf"
			},
			{
				"type": "occ",
				"energy": -0.2837,
				"method": "rhf"
			},
			{
				"type": "occ",
				"energy": -0.26814,
				"method": "rhf"
			},
			{
				"type": "occ",
				"energy": -0.25288,
				"method": "rhf"
			},
			{
				"type": "unocc",
				"energy": -0.04844,
				"method": "rhf"
			},
			{
				"type": "unocc",
				"energy": -0.00242,
				"method": "rhf"
			},
			{
				"type": "unocc",
				"energy": 0.0465,
				"method": "rhf"
			},
			{
				"type": "unocc",
				"energy": 0.05344,
				"method": "rhf"
			},
			{
				"type": "unocc",
				"energy": 0.08344,
				"method": "rhf"
			}
		],
		"cosmo_sigma_profile": { 
			"-0.025": 0.0,
			"-0.024": 0.0,
			"-0.023": 0.0,
			"-0.022": 0.0,
			"-0.021": 0.0,
			"-0.02": 0.0,
			"-0.019": 0.0,
			"-0.018": 0.0,
			"-0.017": 0.324290502279,
			"-0.016": 2.86979002732,
			"-0.015": 2.91567443077,
			"-0.014": 3.07253039724,
			"-0.013": 2.70576709263,
			"-0.012": 1.92891081657,
			"-0.011": 3.02956113772,
			"-0.01": 2.3387028375,
			"-0.009": 2.85584897889,
			"-0.008": 2.76400950215,
			"-0.007": 8.2079978174,
			"-0.006": 19.1783149866,
			"-0.005": 21.1335948631,
			"-0.004": 19.6686895194,
			"-0.003": 19.6413179943,
			"-0.002": 16.383920195,
			"-0.001": 11.9447284061,
			"0.0": 10.1936306569,
			"0.001": 10.4261987578,
			"0.002": 20.882611391,
			"0.003": 28.0358407545,
			"0.004": 7.93056899106,
			"0.005": 7.72517603378,
			"0.006": 6.40333373169,
			"0.007": 6.326959699,
			"0.008": 7.0206794779,
			"0.009": 7.00147152863,
			"0.01": 8.26547661092,
			"0.011": 10.0798728919,
			"0.012": 11.1042368944,
			"0.013": 1.98420554535,
			"0.014": 0.134657307341,
			"0.015": 0.0,
			"0.016": 0.0,
			"0.017": 0.0,
			"0.018": 0.0,
			"0.019": 0.0,
			"0.02": 0.0,
			"0.021": 0.0,
			"0.022": 0.0,
			"0.023": 0.0,
			"0.024": 0.0,
			"0.025": 0.0
		}
	}
}
