{
	 "smiles": "NC1=NC=C(CC2=CC(F)=C(F)C=C2)S1", 
	 "Tm": 371.15, 
	 "num_atms": 23, 
	 "gaussian": { 
		 "optdone": 1, 
		 "sigma_profile": "yes", 
		 "theory": "DFT", 
		 "functional": "B3LYP", 
		 "basiset": "6-31G**", 
		 "properties": { 
			 "R2extent": 4906.2963, 
			 "electric_dipole_moment_norm": 1.81970290707, 
			 "electric_quadrupole_moment_norm": 19.8255256278, 
			 "total_energy": -1093.2347358, 
			 "HOMO_LUMO_gap": 0.19421, 
			 "cosmo_polarized_energy": -12.02, 
			 "cosmo_cavitation_energy": 30.63, 
			 "cosmo_dispersion_energy": -22.0, 
			 "cosmo_repulsion_energy": 1.66, 
			 "cosmo_total_nonelectrostatic_energy": 10.28, 
			 "SMD_solvation_energy": 4.01 
		},
		"coords": [
			{
				"x": 0.753955944,
				"y": 4.4422050515,
				"z": 2.5591911652,
				"element": "N" 
			},
			{
				"x": 0.7950572532,
				"y": 3.7005687275,
				"z": 1.3996292267,
				"element": "C" 
			},
			{
				"x": 1.444657151,
				"y": 4.0580024051,
				"z": 0.3298095748,
				"element": "N" 
			},
			{
				"x": 1.2299774341,
				"y": 3.1496347701,
				"z": -0.6858059434,
				"element": "C" 
			},
			{
				"x": 0.427964955,
				"y": 2.0799322013,
				"z": -0.423443518,
				"element": "C" 
			},
			{
				"x": 0.0389825399,
				"y": 0.9484410597,
				"z": -1.3296014149,
				"element": "C" 
			},
			{
				"x": 0.5267661192,
				"y": -0.4283989662,
				"z": -0.8978206806,
				"element": "C" 
			},
			{
				"x": 1.8697686088,
				"y": -0.6260601164,
				"z": -0.5450501079,
				"element": "C" 
			},
			{
				"x": 2.3134358114,
				"y": -1.8881380254,
				"z": -0.1848943643,
				"element": "C" 
			},
			{
				"x": 3.5993340656,
				"y": -2.0876056622,
				"z": 0.1544979945,
				"element": "F" 
			},
			{
				"x": 1.4352612782,
				"y": -2.9730042902,
				"z": -0.1661157686,
				"element": "C" 
			},
			{
				"x": 1.8978674903,
				"y": -4.1838482474,
				"z": 0.1919017859,
				"element": "F" 
			},
			{
				"x": 0.104084254,
				"y": -2.7942125631,
				"z": -0.5088284193,
				"element": "C" 
			},
			{
				"x": -0.3451501386,
				"y": -1.521359665,
				"z": -0.8729092517,
				"element": "C" 
			},
			{
				"x": -0.1401265218,
				"y": 2.2047280009,
				"z": 1.2435605657,
				"element": "S" 
			},
			{
				"x": 1.467335509,
				"y": 5.1594960491,
				"z": 2.5878335444,
				"element": "H" 
			},
			{
				"x": 0.6539706569,
				"y": 3.9309682601,
				"z": 3.4246154765,
				"element": "H" 
			},
			{
				"x": 1.7078596577,
				"y": 3.3188050993,
				"z": -1.645518653,
				"element": "H" 
			},
			{
				"x": 0.4465511708,
				"y": 1.1831365889,
				"z": -2.3220145097,
				"element": "H" 
			},
			{
				"x": -1.0505195086,
				"y": 0.9118137249,
				"z": -1.4526839437,
				"element": "H" 
			},
			{
				"x": 2.5741942389,
				"y": 0.1995974283,
				"z": -0.5377530377,
				"element": "H" 
			},
			{
				"x": -0.5640585399,
				"y": -3.6484209206,
				"z": -0.4833760389,
				"element": "H" 
			},
			{
				"x": -1.3888694291,
				"y": -1.3833809103,
				"z": -1.1403236818,
				"element": "H" 
			}
		],
		 "valence_orbital": [ 
			{
				"type": "occ",
				"energy": -0.2753,
				"method": "rhf"
			},
			{
				"type": "occ",
				"energy": -0.27266,
				"method": "rhf"
			},
			{
				"type": "occ",
				"energy": -0.25869,
				"method": "rhf"
			},
			{
				"type": "occ",
				"energy": -0.24173,
				"method": "rhf"
			},
			{
				"type": "occ",
				"energy": -0.21021,
				"method": "rhf"
			},
			{
				"type": "unocc",
				"energy": -0.016,
				"method": "rhf"
			},
			{
				"type": "unocc",
				"energy": -0.0101,
				"method": "rhf"
			},
			{
				"type": "unocc",
				"energy": -0.00058,
				"method": "rhf"
			},
			{
				"type": "unocc",
				"energy": 0.01157,
				"method": "rhf"
			},
			{
				"type": "unocc",
				"energy": 0.06326,
				"method": "rhf"
			}
		],
		"cosmo_sigma_profile": { 
			"-0.025": 0.0,
			"-0.024": 0.0,
			"-0.023": 0.0,
			"-0.022": 0.0,
			"-0.021": 0.0,
			"-0.02": 0.0,
			"-0.019": 0.0,
			"-0.018": 0.0,
			"-0.017": 0.0,
			"-0.016": 0.0,
			"-0.015": 0.314216646147,
			"-0.014": 1.60923398463,
			"-0.013": 2.58730887056,
			"-0.012": 3.12876352756,
			"-0.011": 2.21815273835,
			"-0.01": 2.08862550812,
			"-0.009": 1.97446973006,
			"-0.008": 2.84825523963,
			"-0.007": 5.93814863863,
			"-0.006": 13.741735189,
			"-0.005": 12.9785689033,
			"-0.004": 12.0168385378,
			"-0.003": 12.0688847178,
			"-0.002": 12.4056672909,
			"-0.001": 15.1406190905,
			"0.0": 17.7127108697,
			"0.001": 19.8275130246,
			"0.002": 23.1288099275,
			"0.003": 26.8067991942,
			"0.004": 32.6705026257,
			"0.005": 8.18693429601,
			"0.006": 2.71043363379,
			"0.007": 2.71321403953,
			"0.008": 2.40115508167,
			"0.009": 1.74845384278,
			"0.01": 1.53088686184,
			"0.011": 1.89223680515,
			"0.012": 1.30203013736,
			"0.013": 1.43127179639,
			"0.014": 0.85492245691,
			"0.015": 0.789715467666,
			"0.016": 0.643660946452,
			"0.017": 0.02009633181,
			"0.018": 0.0,
			"0.019": 0.0,
			"0.02": 0.0,
			"0.021": 0.0,
			"0.022": 0.0,
			"0.023": 0.0,
			"0.024": 0.0,
			"0.025": 0.0
		}
	}
}
