{
	 "smiles": "OC(=O)C1=C(I)C=CC(=C1)S(=O)(=O)N1CCOCC1", 
	 "Tm": 457.15, 
	 "num_atms": 31, 
	 "gaussian": { 
		 "optdone": 1, 
		 "sigma_profile": "yes", 
		 "theory": "DFT", 
		 "functional": "B3LYP", 
		 "basiset": "6-31G**", 
		 "properties": { 
			 "R2extent": 5118.3577, 
			 "electric_dipole_moment_norm": 5.6665017524, 
			 "electric_quadrupole_moment_norm": 31.3093020235, 
			 "total_energy": -1266.74828376, 
			 "HOMO_LUMO_gap": 0.18641, 
			 "cosmo_polarized_energy": -22.95, 
			 "cosmo_cavitation_energy": 36.71, 
			 "cosmo_dispersion_energy": -28.01, 
			 "cosmo_repulsion_energy": 2.04, 
			 "cosmo_total_nonelectrostatic_energy": 10.75, 
			 "SMD_solvation_energy": 4.81 
		},
		"coords": [
			{
				"x": -2.5453311278,
				"y": -1.0902792017,
				"z": -1.8100898194,
				"element": "O" 
			},
			{
				"x": -2.4612956718,
				"y": 0.1042269901,
				"z": -2.4406622607,
				"element": "C" 
			},
			{
				"x": -3.0521942523,
				"y": 0.3084764604,
				"z": -3.4716764752,
				"element": "O" 
			},
			{
				"x": -1.5559760533,
				"y": 1.1096560777,
				"z": -1.7711657883,
				"element": "C" 
			},
			{
				"x": -1.8428692827,
				"y": 2.480714398,
				"z": -1.6333300332,
				"element": "C" 
			},
			{
				"x": -3.6201282968,
				"y": 3.3579565004,
				"z": -2.3696613646,
				"element": "I" 
			},
			{
				"x": -0.9622258398,
				"y": 3.3175316717,
				"z": -0.9377916197,
				"element": "C" 
			},
			{
				"x": 0.1975022621,
				"y": 2.8055325148,
				"z": -0.3531760159,
				"element": "C" 
			},
			{
				"x": 0.4923776146,
				"y": 1.4529813459,
				"z": -0.5113560114,
				"element": "C" 
			},
			{
				"x": -0.3575170465,
				"y": 0.6277100373,
				"z": -1.2368402999,
				"element": "C" 
			},
			{
				"x": 1.8928828293,
				"y": 0.7069656814,
				"z": 0.340190291,
				"element": "S" 
			},
			{
				"x": 2.3798004169,
				"y": 1.7231235534,
				"z": 1.2736041,
				"element": "O" 
			},
			{
				"x": 2.7760750012,
				"y": 0.0619662363,
				"z": -0.6340098872,
				"element": "O" 
			},
			{
				"x": 1.207629979,
				"y": -0.5378051422,
				"z": 1.2333178098,
				"element": "N" 
			},
			{
				"x": 1.3456044123,
				"y": -1.9400531605,
				"z": 0.8514608841,
				"element": "C" 
			},
			{
				"x": 0.0103617273,
				"y": -2.5060280834,
				"z": 0.2973261794,
				"element": "C" 
			},
			{
				"x": -1.100722682,
				"y": -1.6781732857,
				"z": 0.6621154771,
				"element": "O" 
			},
			{
				"x": -1.0082435802,
				"y": -1.2512059453,
				"z": 2.0190661758,
				"element": "C" 
			},
			{
				"x": 0.1440237536,
				"y": -0.2321156567,
				"z": 2.1944673083,
				"element": "C" 
			},
			{
				"x": -2.1392100372,
				"y": -1.0847146358,
				"z": -0.9202008728,
				"element": "H" 
			},
			{
				"x": -1.1971642638,
				"y": 4.3697886116,
				"z": -0.825756262,
				"element": "H" 
			},
			{
				"x": 0.8574470951,
				"y": 3.4395112317,
				"z": 0.2285654016,
				"element": "H" 
			},
			{
				"x": -0.101287481,
				"y": -0.4129714981,
				"z": -1.3799672784,
				"element": "H" 
			},
			{
				"x": 2.145607985,
				"y": -2.0249301269,
				"z": 0.1156876491,
				"element": "H" 
			},
			{
				"x": 1.6589541264,
				"y": -2.5011040772,
				"z": 1.740835608,
				"element": "H" 
			},
			{
				"x": -0.1521678375,
				"y": -3.528685257,
				"z": 0.6672279675,
				"element": "H" 
			},
			{
				"x": 0.0056978546,
				"y": -2.54118489,
				"z": -0.7954103364,
				"element": "H" 
			},
			{
				"x": -0.8599357881,
				"y": -2.126116545,
				"z": 2.6680601071,
				"element": "H" 
			},
			{
				"x": -1.9679926098,
				"y": -0.7999935181,
				"z": 2.2801588392,
				"element": "H" 
			},
			{
				"x": -0.2208199195,
				"y": 0.7817095473,
				"z": 2.0120316856,
				"element": "H" 
			},
			{
				"x": 0.5237167125,
				"y": -0.2621898345,
				"z": 3.2245788416,
				"element": "H" 
			}
		],
		 "valence_orbital": [ 
			{
				"type": "occ",
				"energy": -0.29535,
				"method": "rhf"
			},
			{
				"type": "occ",
				"energy": -0.28171,
				"method": "rhf"
			},
			{
				"type": "occ",
				"energy": -0.26864,
				"method": "rhf"
			},
			{
				"type": "occ",
				"energy": -0.26406,
				"method": "rhf"
			},
			{
				"type": "occ",
				"energy": -0.25415,
				"method": "rhf"
			},
			{
				"type": "unocc",
				"energy": -0.06774,
				"method": "rhf"
			},
			{
				"type": "unocc",
				"energy": -0.05885,
				"method": "rhf"
			},
			{
				"type": "unocc",
				"energy": -0.04786,
				"method": "rhf"
			},
			{
				"type": "unocc",
				"energy": 0.01736,
				"method": "rhf"
			},
			{
				"type": "unocc",
				"energy": 0.02522,
				"method": "rhf"
			}
		],
		"cosmo_sigma_profile": { 
			"-0.025": 0.0,
			"-0.024": 0.0,
			"-0.023": 0.0,
			"-0.022": 0.0,
			"-0.021": 0.0,
			"-0.02": 0.0,
			"-0.019": 0.0,
			"-0.018": 0.0,
			"-0.017": 0.0,
			"-0.016": 0.0,
			"-0.015": 0.0,
			"-0.014": 0.0,
			"-0.013": 0.000586661566793,
			"-0.012": 0.0287434208578,
			"-0.011": 0.200637880445,
			"-0.01": 1.76390751187,
			"-0.009": 3.05684515953,
			"-0.008": 7.10571524884,
			"-0.007": 13.9743065755,
			"-0.006": 27.6288074145,
			"-0.005": 29.8773874665,
			"-0.004": 22.2959028054,
			"-0.003": 19.0763556398,
			"-0.002": 16.1576859925,
			"-0.001": 16.9749042903,
			"0.0": 21.4772833817,
			"0.001": 15.0817295942,
			"0.002": 10.9576521343,
			"0.003": 14.8148764345,
			"0.004": 10.5391443706,
			"0.005": 5.76474569069,
			"0.006": 6.67934566694,
			"0.007": 7.4693827507,
			"0.008": 6.30975070425,
			"0.009": 7.57957005867,
			"0.01": 13.0564397663,
			"0.011": 12.850343148,
			"0.012": 5.97854423354,
			"0.013": 0.619784765093,
			"0.014": 0.0,
			"0.015": 0.0,
			"0.016": 0.0,
			"0.017": 0.0,
			"0.018": 0.0,
			"0.019": 0.0,
			"0.02": 0.0,
			"0.021": 0.0,
			"0.022": 0.0,
			"0.023": 0.0,
			"0.024": 0.0,
			"0.025": 0.0
		}
	}
}
