{
	 "smiles": "CC1=CC=C(NC2=NN=C(S)S2)C=C1", 
	 "Tm": 493.15, 
	 "num_atms": 23, 
	 "gaussian": { 
		 "optdone": 1, 
		 "sigma_profile": "yes", 
		 "theory": "DFT", 
		 "functional": "B3LYP", 
		 "basiset": "6-31G**", 
		 "properties": { 
			 "R2extent": 5812.5982, 
			 "electric_dipole_moment_norm": 4.88455539328, 
			 "electric_quadrupole_moment_norm": 22.8651018983, 
			 "total_energy": -1308.97671123, 
			 "HOMO_LUMO_gap": 0.16911, 
			 "cosmo_polarized_energy": -14.17, 
			 "cosmo_cavitation_energy": 30.86, 
			 "cosmo_dispersion_energy": -23.83, 
			 "cosmo_repulsion_energy": 1.78, 
			 "cosmo_total_nonelectrostatic_energy": 8.81, 
			 "SMD_solvation_energy": 2.67 
		},
		"coords": [
			{
				"x": 3.398678399,
				"y": -1.0979924594,
				"z": 2.716820192,
				"element": "C" 
			},
			{
				"x": 2.7022723175,
				"y": -0.9139246676,
				"z": 1.3896347716,
				"element": "C" 
			},
			{
				"x": 3.0163976887,
				"y": -1.7229319978,
				"z": 0.2876275389,
				"element": "C" 
			},
			{
				"x": 2.3529533225,
				"y": -1.5851683671,
				"z": -0.9259659433,
				"element": "C" 
			},
			{
				"x": 1.3518600157,
				"y": -0.613177219,
				"z": -1.0836290398,
				"element": "C" 
			},
			{
				"x": 0.7321000821,
				"y": -0.5076538871,
				"z": -2.3420252394,
				"element": "N" 
			},
			{
				"x": -0.4781333567,
				"y": 0.0068883866,
				"z": -2.7037591495,
				"element": "C" 
			},
			{
				"x": -0.7905730351,
				"y": 0.1269724373,
				"z": -3.9784707831,
				"element": "N" 
			},
			{
				"x": -2.071360564,
				"y": 0.5412106968,
				"z": -4.1743771863,
				"element": "N" 
			},
			{
				"x": -2.731284337,
				"y": 0.7574331906,
				"z": -3.0784336284,
				"element": "C" 
			},
			{
				"x": -4.3614877616,
				"y": 1.4441788241,
				"z": -3.0477862926,
				"element": "S" 
			},
			{
				"x": -1.77908346,
				"y": 0.4582303799,
				"z": -1.6083527743,
				"element": "S" 
			},
			{
				"x": 1.0448748497,
				"y": 0.2208822933,
				"z": -0.0010145042,
				"element": "C" 
			},
			{
				"x": 1.7099181225,
				"y": 0.0560650263,
				"z": 1.2144289189,
				"element": "C" 
			},
			{
				"x": 3.319067599,
				"y": -0.2006955964,
				"z": 3.3372614265,
				"element": "H" 
			},
			{
				"x": 2.9615798646,
				"y": -1.9284647406,
				"z": 3.2854776372,
				"element": "H" 
			},
			{
				"x": 4.4618529376,
				"y": -1.3226337961,
				"z": 2.5840750806,
				"element": "H" 
			},
			{
				"x": 3.7897454706,
				"y": -2.4811294245,
				"z": 0.3820551432,
				"element": "H" 
			},
			{
				"x": 2.6042394606,
				"y": -2.2357178993,
				"z": -1.7599444975,
				"element": "H" 
			},
			{
				"x": 1.2356488106,
				"y": -0.8849942761,
				"z": -3.1349591192,
				"element": "H" 
			},
			{
				"x": -4.9529077899,
				"y": 0.431904076,
				"z": -2.3770682878,
				"element": "H" 
			},
			{
				"x": 0.3198203791,
				"y": 1.0196421044,
				"z": -0.1046468231,
				"element": "H" 
			},
			{
				"x": 1.4561209845,
				"y": 0.7153769157,
				"z": 2.0405525598,
				"element": "H" 
			}
		],
		 "valence_orbital": [ 
			{
				"type": "occ",
				"energy": -0.28218,
				"method": "rhf"
			},
			{
				"type": "occ",
				"energy": -0.26599,
				"method": "rhf"
			},
			{
				"type": "occ",
				"energy": -0.26183,
				"method": "rhf"
			},
			{
				"type": "occ",
				"energy": -0.25634,
				"method": "rhf"
			},
			{
				"type": "occ",
				"energy": -0.21134,
				"method": "rhf"
			},
			{
				"type": "unocc",
				"energy": -0.04223,
				"method": "rhf"
			},
			{
				"type": "unocc",
				"energy": -0.02012,
				"method": "rhf"
			},
			{
				"type": "unocc",
				"energy": -0.00561,
				"method": "rhf"
			},
			{
				"type": "unocc",
				"energy": 0.00454,
				"method": "rhf"
			},
			{
				"type": "unocc",
				"energy": 0.02038,
				"method": "rhf"
			}
		],
		"cosmo_sigma_profile": { 
			"-0.025": 0.0,
			"-0.024": 0.0,
			"-0.023": 0.0,
			"-0.022": 0.0,
			"-0.021": 0.0,
			"-0.02": 0.0,
			"-0.019": 0.0,
			"-0.018": 0.0,
			"-0.017": 0.0,
			"-0.016": 0.214747798774,
			"-0.015": 0.868327775934,
			"-0.014": 1.13551313675,
			"-0.013": 1.35357591733,
			"-0.012": 1.64435346462,
			"-0.011": 4.15592873638,
			"-0.01": 3.27616537429,
			"-0.009": 2.33968519215,
			"-0.008": 3.51816257579,
			"-0.007": 2.86079286368,
			"-0.006": 6.84788368518,
			"-0.005": 12.5731681176,
			"-0.004": 18.1968219894,
			"-0.003": 15.7247181925,
			"-0.002": 20.9335507986,
			"-0.001": 23.1444550192,
			"0.0": 26.210518573,
			"0.001": 21.533830112,
			"0.002": 15.7234718795,
			"0.003": 12.0834205643,
			"0.004": 12.4856018956,
			"0.005": 14.0749028486,
			"0.006": 5.90377716175,
			"0.007": 4.10652358639,
			"0.008": 3.41953890323,
			"0.009": 3.118102008,
			"0.01": 2.42050958584,
			"0.011": 3.15022947964,
			"0.012": 3.27912837174,
			"0.013": 2.60352713908,
			"0.014": 2.29100208203,
			"0.015": 0.476793505,
			"0.016": 0.0,
			"0.017": 0.0,
			"0.018": 0.0,
			"0.019": 0.0,
			"0.02": 0.0,
			"0.021": 0.0,
			"0.022": 0.0,
			"0.023": 0.0,
			"0.024": 0.0,
			"0.025": 0.0
		}
	}
}
