{
	 "smiles": "NC1=C(Cl)C(Cl)=CC(Cl)=C1O", 
	 "Tm": 393.15, 
	 "num_atms": 15, 
	 "gaussian": { 
		 "optdone": 1, 
		 "sigma_profile": "yes", 
		 "theory": "DFT", 
		 "functional": "B3LYP", 
		 "basiset": "6-31G**", 
		 "properties": { 
			 "R2extent": 3167.1216, 
			 "electric_dipole_moment_norm": 2.77131203223, 
			 "electric_quadrupole_moment_norm": 8.22170534804, 
			 "total_energy": -1741.59836346, 
			 "HOMO_LUMO_gap": 0.19622, 
			 "cosmo_polarized_energy": -8.05, 
			 "cosmo_cavitation_energy": 24.22, 
			 "cosmo_dispersion_energy": -18.93, 
			 "cosmo_repulsion_energy": 1.52, 
			 "cosmo_total_nonelectrostatic_energy": 6.81, 
			 "SMD_solvation_energy": 3.57 
		},
		"coords": [
			{
				"x": 1.1531879968,
				"y": -2.599791507,
				"z": -0.2106140648,
				"element": "N" 
			},
			{
				"x": 0.7391465662,
				"y": -1.3605631364,
				"z": -0.6480393389,
				"element": "C" 
			},
			{
				"x": 0.8539718788,
				"y": -0.1936221664,
				"z": 0.1280515923,
				"element": "C" 
			},
			{
				"x": 1.483099998,
				"y": -0.3507277635,
				"z": 1.7528422609,
				"element": "Cl" 
			},
			{
				"x": 0.4698802877,
				"y": 1.0538841752,
				"z": -0.3865514631,
				"element": "C" 
			},
			{
				"x": 0.6134571001,
				"y": 2.506670129,
				"z": 0.5742732322,
				"element": "Cl" 
			},
			{
				"x": -0.0366515064,
				"y": 1.1613421832,
				"z": -1.6771208429,
				"element": "C" 
			},
			{
				"x": -0.1577915198,
				"y": 0.0020842036,
				"z": -2.4427091923,
				"element": "C" 
			},
			{
				"x": -0.8076662449,
				"y": 0.0946038402,
				"z": -4.0766623674,
				"element": "Cl" 
			},
			{
				"x": 0.2156602029,
				"y": -1.246569422,
				"z": -1.9573605312,
				"element": "C" 
			},
			{
				"x": 0.1082676615,
				"y": -2.409690899,
				"z": -2.6591224594,
				"element": "O" 
			},
			{
				"x": 0.7840304261,
				"y": -3.3844612366,
				"z": -0.7269379366,
				"element": "H" 
			},
			{
				"x": 1.2241160829,
				"y": -2.7267329072,
				"z": 0.7877618104,
				"element": "H" 
			},
			{
				"x": -0.3310895206,
				"y": 2.1225183231,
				"z": -2.0768205472,
				"element": "H" 
			},
			{
				"x": -0.2711194094,
				"y": -2.2169438162,
				"z": -3.5298901519,
				"element": "H" 
			}
		],
		 "valence_orbital": [ 
			{
				"type": "occ",
				"energy": -0.33245,
				"method": "rhf"
			},
			{
				"type": "occ",
				"energy": -0.31223,
				"method": "rhf"
			},
			{
				"type": "occ",
				"energy": -0.30123,
				"method": "rhf"
			},
			{
				"type": "occ",
				"energy": -0.23951,
				"method": "rhf"
			},
			{
				"type": "occ",
				"energy": -0.21501,
				"method": "rhf"
			},
			{
				"type": "unocc",
				"energy": -0.01879,
				"method": "rhf"
			},
			{
				"type": "unocc",
				"energy": -0.01168,
				"method": "rhf"
			},
			{
				"type": "unocc",
				"energy": -0.0082,
				"method": "rhf"
			},
			{
				"type": "unocc",
				"energy": 0.02391,
				"method": "rhf"
			},
			{
				"type": "unocc",
				"energy": 0.05992,
				"method": "rhf"
			}
		],
		"cosmo_sigma_profile": { 
			"-0.025": 0.0,
			"-0.024": 0.0,
			"-0.023": 0.0,
			"-0.022": 0.0,
			"-0.021": 0.0,
			"-0.02": 0.0,
			"-0.019": 0.0,
			"-0.018": 0.0,
			"-0.017": 0.0,
			"-0.016": 0.310777945758,
			"-0.015": 0.881454516329,
			"-0.014": 0.395953429421,
			"-0.013": 0.944102061249,
			"-0.012": 2.66370245986,
			"-0.011": 2.6913696556,
			"-0.01": 3.22442930117,
			"-0.009": 2.92351394615,
			"-0.008": 3.87389297161,
			"-0.007": 3.96031115725,
			"-0.006": 3.75576936614,
			"-0.005": 5.11719254211,
			"-0.004": 5.07254890902,
			"-0.003": 8.11389357934,
			"-0.002": 10.971375095,
			"-0.001": 12.2592214178,
			"0.0": 20.2854546092,
			"0.001": 28.2158153452,
			"0.002": 24.4178770968,
			"0.003": 21.9084808024,
			"0.004": 21.5932536127,
			"0.005": 8.81296152966,
			"0.006": 2.97341414902,
			"0.007": 2.12120101696,
			"0.008": 1.39299078723,
			"0.009": 0.526463774539,
			"0.01": 0.598261675454,
			"0.011": 0.661129179286,
			"0.012": 0.201430303938,
			"0.013": 0.0,
			"0.014": 0.0,
			"0.015": 0.0,
			"0.016": 0.0,
			"0.017": 0.0,
			"0.018": 0.0,
			"0.019": 0.0,
			"0.02": 0.0,
			"0.021": 0.0,
			"0.022": 0.0,
			"0.023": 0.0,
			"0.024": 0.0,
			"0.025": 0.0
		}
	}
}
