{
	 "smiles": "O=C1C=CC(=O)C=C1", 
	 "Tm": 388.15, 
	 "num_atms": 12, 
	 "gaussian": { 
		 "optdone": 1, 
		 "sigma_profile": "yes", 
		 "theory": "DFT", 
		 "functional": "B3LYP", 
		 "basiset": "6-31G**", 
		 "properties": { 
			 "R2extent": 1629.0859, 
			 "electric_dipole_moment_norm": 0.0, 
			 "electric_quadrupole_moment_norm": 14.0336845244, 
			 "total_energy": -381.450324687, 
			 "HOMO_LUMO_gap": 0.14019, 
			 "cosmo_polarized_energy": -8.85, 
			 "cosmo_cavitation_energy": 17.15, 
			 "cosmo_dispersion_energy": -12.61, 
			 "cosmo_repulsion_energy": 1.05, 
			 "cosmo_total_nonelectrostatic_energy": 5.58, 
			 "SMD_solvation_energy": 4.53 
		},
		"coords": [
			{
				"x": 1.5711141182,
				"y": -0.8228862676,
				"z": 2.0178159662,
				"element": "O" 
			},
			{
				"x": 1.7144273766,
				"y": -0.2898052628,
				"z": 0.9241333893,
				"element": "C" 
			},
			{
				"x": 2.2078298157,
				"y": 1.1072700924,
				"z": 0.8028652244,
				"element": "C" 
			},
			{
				"x": 2.3647509608,
				"y": 1.6917562584,
				"z": -0.3961247592,
				"element": "C" 
			},
			{
				"x": 2.0520781015,
				"y": 0.9683030544,
				"z": -1.6566168354,
				"element": "C" 
			},
			{
				"x": 2.19538454,
				"y": 1.5013867857,
				"z": -2.7502991923,
				"element": "O" 
			},
			{
				"x": 1.5586706065,
				"y": -0.4287700839,
				"z": -1.5353482201,
				"element": "C" 
			},
			{
				"x": 1.401749347,
				"y": -1.0132565222,
				"z": -0.3363584248,
				"element": "C" 
			},
			{
				"x": 2.4291607858,
				"y": 1.6144607607,
				"z": 1.7374215678,
				"element": "H" 
			},
			{
				"x": 2.7234372559,
				"y": 2.7104783764,
				"z": -0.5109142538,
				"element": "H" 
			},
			{
				"x": 1.3373369067,
				"y": -0.9359595428,
				"z": -2.4699047415,
				"element": "H" 
			},
			{
				"x": 1.0430601853,
				"y": -2.0319776486,
				"z": -0.2215697206,
				"element": "H" 
			}
		],
		 "valence_orbital": [ 
			{
				"type": "occ",
				"energy": -0.40121,
				"method": "rhf"
			},
			{
				"type": "occ",
				"energy": -0.30536,
				"method": "rhf"
			},
			{
				"type": "occ",
				"energy": -0.30428,
				"method": "rhf"
			},
			{
				"type": "occ",
				"energy": -0.2785,
				"method": "rhf"
			},
			{
				"type": "occ",
				"energy": -0.27015,
				"method": "rhf"
			},
			{
				"type": "unocc",
				"energy": -0.12996,
				"method": "rhf"
			},
			{
				"type": "unocc",
				"energy": -0.0271,
				"method": "rhf"
			},
			{
				"type": "unocc",
				"energy": 0.01161,
				"method": "rhf"
			},
			{
				"type": "unocc",
				"energy": 0.08921,
				"method": "rhf"
			},
			{
				"type": "unocc",
				"energy": 0.11571,
				"method": "rhf"
			}
		],
		"cosmo_sigma_profile": { 
			"-0.025": 0.0,
			"-0.024": 0.0,
			"-0.023": 0.0,
			"-0.022": 0.0,
			"-0.021": 0.0,
			"-0.02": 0.0,
			"-0.019": 0.0,
			"-0.018": 0.0,
			"-0.017": 0.0,
			"-0.016": 0.0,
			"-0.015": 0.0,
			"-0.014": 0.0,
			"-0.013": 0.0,
			"-0.012": 0.0,
			"-0.011": 0.0,
			"-0.01": 0.0,
			"-0.009": 1.21166541225,
			"-0.008": 7.28137380076,
			"-0.007": 7.13604209917,
			"-0.006": 8.71066883375,
			"-0.005": 9.48982770745,
			"-0.004": 10.9908073068,
			"-0.003": 12.6113911714,
			"-0.002": 14.6389517714,
			"-0.001": 9.45745410008,
			"0.0": 9.45285472435,
			"0.001": 5.75229523232,
			"0.002": 1.48684191739,
			"0.003": 3.61461084083,
			"0.004": 3.42716130598,
			"0.005": 2.18365438305,
			"0.006": 2.63245666723,
			"0.007": 2.46376775828,
			"0.008": 3.48251697732,
			"0.009": 4.83843466488,
			"0.01": 6.68697360757,
			"0.011": 8.24374808172,
			"0.012": 2.70675116715,
			"0.013": 0.0,
			"0.014": 0.0,
			"0.015": 0.0,
			"0.016": 0.0,
			"0.017": 0.0,
			"0.018": 0.0,
			"0.019": 0.0,
			"0.02": 0.0,
			"0.021": 0.0,
			"0.022": 0.0,
			"0.023": 0.0,
			"0.024": 0.0,
			"0.025": 0.0
		}
	}
}
