{
	 "smiles": "NC(CC1=C(Cl)C=C(F)C=C1)=NO", 
	 "Tm": 419.15, 
	 "num_atms": 21, 
	 "gaussian": { 
		 "optdone": 1, 
		 "sigma_profile": "yes", 
		 "theory": "DFT", 
		 "functional": "B3LYP", 
		 "basiset": "6-31G**", 
		 "properties": { 
			 "R2extent": 3753.073, 
			 "electric_dipole_moment_norm": 1.80453333857, 
			 "electric_quadrupole_moment_norm": 6.58506446286, 
			 "total_energy": -1054.37702014, 
			 "HOMO_LUMO_gap": 0.18019, 
			 "cosmo_polarized_energy": -12.75, 
			 "cosmo_cavitation_energy": 27.67, 
			 "cosmo_dispersion_energy": -19.82, 
			 "cosmo_repulsion_energy": 1.57, 
			 "cosmo_total_nonelectrostatic_energy": 9.42, 
			 "SMD_solvation_energy": 4.7 
		},
		"coords": [
			{
				"x": 2.3371811188,
				"y": -2.6969832505,
				"z": 0.0053382667,
				"element": "N" 
			},
			{
				"x": 0.9881672601,
				"y": -2.8811090468,
				"z": 0.2173370898,
				"element": "C" 
			},
			{
				"x": 0.0364635911,
				"y": -1.8193337081,
				"z": -0.2946154777,
				"element": "C" 
			},
			{
				"x": 0.3944266873,
				"y": -0.4063588125,
				"z": 0.123848599,
				"element": "C" 
			},
			{
				"x": 0.0947833698,
				"y": 0.119019219,
				"z": 1.3928796389,
				"element": "C" 
			},
			{
				"x": -0.7497809525,
				"y": -0.8587843516,
				"z": 2.5812503096,
				"element": "Cl" 
			},
			{
				"x": 0.438850044,
				"y": 1.4204232217,
				"z": 1.7572725668,
				"element": "C" 
			},
			{
				"x": 1.1042676647,
				"y": 2.2132150266,
				"z": 0.8302133925,
				"element": "C" 
			},
			{
				"x": 1.4397163445,
				"y": 3.4699124569,
				"z": 1.1785005167,
				"element": "F" 
			},
			{
				"x": 1.4264334764,
				"y": 1.7475722554,
				"z": -0.437670892,
				"element": "C" 
			},
			{
				"x": 1.0629652725,
				"y": 0.443517001,
				"z": -0.7713730015,
				"element": "C" 
			},
			{
				"x": 0.4591743284,
				"y": -3.9385502714,
				"z": 0.7301774499,
				"element": "N" 
			},
			{
				"x": 1.4940437234,
				"y": -4.8525712704,
				"z": 1.0990830278,
				"element": "O" 
			},
			{
				"x": 2.9219285154,
				"y": -3.3473708341,
				"z": 0.5132018803,
				"element": "H" 
			},
			{
				"x": 2.6589779093,
				"y": -1.7396205894,
				"z": 0.0128289647,
				"element": "H" 
			},
			{
				"x": -0.9637781274,
				"y": -2.093408678,
				"z": 0.0462866636,
				"element": "H" 
			},
			{
				"x": 0.036364232,
				"y": -1.8617203229,
				"z": -1.3904752176,
				"element": "H" 
			},
			{
				"x": 0.1961915235,
				"y": 1.8131972644,
				"z": 2.7370612811,
				"element": "H" 
			},
			{
				"x": 1.9395480603,
				"y": 2.3956659806,
				"z": -1.1390641292,
				"element": "H" 
			},
			{
				"x": 1.2953404737,
				"y": 0.0688725322,
				"z": -1.7646094807,
				"element": "H" 
			},
			{
				"x": 0.9921354847,
				"y": -5.5497838221,
				"z": 1.5375285513,
				"element": "H" 
			}
		],
		 "valence_orbital": [ 
			{
				"type": "occ",
				"energy": -0.30851,
				"method": "rhf"
			},
			{
				"type": "occ",
				"energy": -0.26974,
				"method": "rhf"
			},
			{
				"type": "occ",
				"energy": -0.26712,
				"method": "rhf"
			},
			{
				"type": "occ",
				"energy": -0.25241,
				"method": "rhf"
			},
			{
				"type": "occ",
				"energy": -0.21112,
				"method": "rhf"
			},
			{
				"type": "unocc",
				"energy": -0.03093,
				"method": "rhf"
			},
			{
				"type": "unocc",
				"energy": -0.01881,
				"method": "rhf"
			},
			{
				"type": "unocc",
				"energy": 0.01969,
				"method": "rhf"
			},
			{
				"type": "unocc",
				"energy": 0.04357,
				"method": "rhf"
			},
			{
				"type": "unocc",
				"energy": 0.07736,
				"method": "rhf"
			}
		],
		"cosmo_sigma_profile": { 
			"-0.025": 0.0,
			"-0.024": 0.0,
			"-0.023": 0.0,
			"-0.022": 0.0,
			"-0.021": 0.0,
			"-0.02": 0.0,
			"-0.019": 0.0,
			"-0.018": 0.0,
			"-0.017": 0.0864364371597,
			"-0.016": 1.29105447291,
			"-0.015": 0.550760091154,
			"-0.014": 0.697396703406,
			"-0.013": 0.977837513164,
			"-0.012": 1.36619117122,
			"-0.011": 2.14001339988,
			"-0.01": 2.73485471091,
			"-0.009": 3.02427592512,
			"-0.008": 5.83831771388,
			"-0.007": 9.98028732671,
			"-0.006": 9.87539885291,
			"-0.005": 11.8003556851,
			"-0.004": 9.10453672061,
			"-0.003": 9.16860142183,
			"-0.002": 12.5811932492,
			"-0.001": 13.5442228381,
			"0.0": 18.9540727496,
			"0.001": 20.4177574598,
			"0.002": 16.4973061128,
			"0.003": 15.8098065626,
			"0.004": 19.2380737665,
			"0.005": 5.87974827621,
			"0.006": 4.79174905344,
			"0.007": 5.32589474764,
			"0.008": 5.1266660982,
			"0.009": 5.17288909808,
			"0.01": 3.53874496533,
			"0.011": 2.59633068183,
			"0.012": 1.73550573194,
			"0.013": 0.81799517096,
			"0.014": 0.960110410313,
			"0.015": 0.695161060892,
			"0.016": 0.0562580235499,
			"0.017": 0.0,
			"0.018": 0.0,
			"0.019": 0.0,
			"0.02": 0.0,
			"0.021": 0.0,
			"0.022": 0.0,
			"0.023": 0.0,
			"0.024": 0.0,
			"0.025": 0.0
		}
	}
}
