{
	 "smiles": "OC(=O)C1CN(C2CCCC2)C(=O)C1", 
	 "Tm": 410.15, 
	 "num_atms": 29, 
	 "gaussian": { 
		 "optdone": 1, 
		 "sigma_profile": "yes", 
		 "theory": "DFT", 
		 "functional": "B3LYP", 
		 "basiset": "6-31G**", 
		 "properties": { 
			 "R2extent": 3700.7855, 
			 "electric_dipole_moment_norm": 4.6514589335, 
			 "electric_quadrupole_moment_norm": 20.6413399039, 
			 "total_energy": -670.556768159, 
			 "HOMO_LUMO_gap": 0.25257, 
			 "cosmo_polarized_energy": -17.28, 
			 "cosmo_cavitation_energy": 29.89, 
			 "cosmo_dispersion_energy": -21.51, 
			 "cosmo_repulsion_energy": 1.7, 
			 "cosmo_total_nonelectrostatic_energy": 10.08, 
			 "SMD_solvation_energy": 5.96 
		},
		"coords": [
			{
				"x": 2.2517450263,
				"y": -2.2038774437,
				"z": -2.5329185817,
				"element": "O" 
			},
			{
				"x": 1.1679859817,
				"y": -2.9997152736,
				"z": -2.7107648545,
				"element": "C" 
			},
			{
				"x": 1.2482508776,
				"y": -4.0194636582,
				"z": -3.3493159364,
				"element": "O" 
			},
			{
				"x": -0.1269135491,
				"y": -2.529142694,
				"z": -2.0423600409,
				"element": "C" 
			},
			{
				"x": -0.3890457492,
				"y": -1.0201094309,
				"z": -2.2604917011,
				"element": "C" 
			},
			{
				"x": 0.3263426367,
				"y": -0.3904009285,
				"z": -1.1427797804,
				"element": "N" 
			},
			{
				"x": 0.4019012211,
				"y": 1.0758536397,
				"z": -1.0255338539,
				"element": "C" 
			},
			{
				"x": 1.775490778,
				"y": 1.5732518114,
				"z": -0.5005573183,
				"element": "C" 
			},
			{
				"x": 1.4422137686,
				"y": 2.8464049388,
				"z": 0.2930309718,
				"element": "C" 
			},
			{
				"x": 0.1214723368,
				"y": 2.4827885933,
				"z": 0.9933987546,
				"element": "C" 
			},
			{
				"x": -0.6731215877,
				"y": 1.7203279539,
				"z": -0.0865151893,
				"element": "C" 
			},
			{
				"x": 0.3624839713,
				"y": -1.2281974879,
				"z": -0.0359474924,
				"element": "C" 
			},
			{
				"x": 0.6617306953,
				"y": -0.8976555847,
				"z": 1.098453174,
				"element": "O" 
			},
			{
				"x": -0.0452118461,
				"y": -2.6275887644,
				"z": -0.4996574367,
				"element": "C" 
			},
			{
				"x": 2.0103997662,
				"y": -1.423942178,
				"z": -2.000931543,
				"element": "H" 
			},
			{
				"x": -0.9243996263,
				"y": -3.1454407197,
				"z": -2.4575310237,
				"element": "H" 
			},
			{
				"x": -1.4661817795,
				"y": -0.8024420942,
				"z": -2.2208280557,
				"element": "H" 
			},
			{
				"x": -0.0081414534,
				"y": -0.652923354,
				"z": -3.2185239776,
				"element": "H" 
			},
			{
				"x": 0.2548390699,
				"y": 1.4455335313,
				"z": -2.0449049274,
				"element": "H" 
			},
			{
				"x": 2.1920885019,
				"y": 0.8234691446,
				"z": 0.1762409013,
				"element": "H" 
			},
			{
				"x": 2.4895135708,
				"y": 1.7361464347,
				"z": -1.3142165149,
				"element": "H" 
			},
			{
				"x": 2.2374891641,
				"y": 3.1268022327,
				"z": 0.9902412407,
				"element": "H" 
			},
			{
				"x": 1.2901963319,
				"y": 3.6944225478,
				"z": -0.3881029078,
				"element": "H" 
			},
			{
				"x": -0.4172804209,
				"y": 3.3538662087,
				"z": 1.3788951658,
				"element": "H" 
			},
			{
				"x": 0.3279501225,
				"y": 1.8112972369,
				"z": 1.8326050848,
				"element": "H" 
			},
			{
				"x": -1.3401156014,
				"y": 0.9676053954,
				"z": 0.3414431007,
				"element": "H" 
			},
			{
				"x": -1.2934680103,
				"y": 2.4114374936,
				"z": -0.6677481361,
				"element": "H" 
			},
			{
				"x": -1.0264812419,
				"y": -2.8540502582,
				"z": -0.0670745153,
				"element": "H" 
			},
			{
				"x": 0.6532670451,
				"y": -3.3803572929,
				"z": -0.1267046067,
				"element": "H" 
			}
		],
		 "valence_orbital": [ 
			{
				"type": "occ",
				"energy": -0.32775,
				"method": "rhf"
			},
			{
				"type": "occ",
				"energy": -0.31464,
				"method": "rhf"
			},
			{
				"type": "occ",
				"energy": -0.27162,
				"method": "rhf"
			},
			{
				"type": "occ",
				"energy": -0.26849,
				"method": "rhf"
			},
			{
				"type": "occ",
				"energy": -0.2567,
				"method": "rhf"
			},
			{
				"type": "unocc",
				"energy": -0.00413,
				"method": "rhf"
			},
			{
				"type": "unocc",
				"energy": 0.0099,
				"method": "rhf"
			},
			{
				"type": "unocc",
				"energy": 0.05496,
				"method": "rhf"
			},
			{
				"type": "unocc",
				"energy": 0.07245,
				"method": "rhf"
			},
			{
				"type": "unocc",
				"energy": 0.08715,
				"method": "rhf"
			}
		],
		"cosmo_sigma_profile": { 
			"-0.025": 0.0,
			"-0.024": 0.0,
			"-0.023": 0.0,
			"-0.022": 0.0,
			"-0.021": 0.0,
			"-0.02": 0.0,
			"-0.019": 0.0,
			"-0.018": 0.0,
			"-0.017": 0.0,
			"-0.016": 0.0,
			"-0.015": 0.0,
			"-0.014": 0.0,
			"-0.013": 0.0,
			"-0.012": 0.0,
			"-0.011": 0.0,
			"-0.01": 0.805145157196,
			"-0.009": 2.66189423016,
			"-0.008": 3.37719827906,
			"-0.007": 14.7718597693,
			"-0.006": 18.8713471455,
			"-0.005": 15.4516340803,
			"-0.004": 15.7019532726,
			"-0.003": 22.3075077089,
			"-0.002": 17.5098402096,
			"-0.001": 20.6706671766,
			"0.0": 19.5821646626,
			"0.001": 18.793155651,
			"0.002": 6.3573401912,
			"0.003": 2.89851252936,
			"0.004": 3.78317153867,
			"0.005": 3.25182345959,
			"0.006": 3.99715328779,
			"0.007": 4.74886818697,
			"0.008": 3.80754738665,
			"0.009": 5.69428480046,
			"0.01": 5.6678168715,
			"0.011": 7.38191918574,
			"0.012": 7.93884855751,
			"0.013": 5.08449072704,
			"0.014": 1.71484192835,
			"0.015": 0.0681402853816,
			"0.016": 0.0,
			"0.017": 0.0,
			"0.018": 0.0,
			"0.019": 0.0,
			"0.02": 0.0,
			"0.021": 0.0,
			"0.022": 0.0,
			"0.023": 0.0,
			"0.024": 0.0,
			"0.025": 0.0
		}
	}
}
