{
	 "smiles": "CC(C)(CC(O)=O)CC(O)=O", 
	 "Tm": 375.15, 
	 "num_atms": 23, 
	 "gaussian": { 
		 "optdone": 1, 
		 "sigma_profile": "yes", 
		 "theory": "DFT", 
		 "functional": "B3LYP", 
		 "basiset": "6-31G**", 
		 "properties": { 
			 "R2extent": 2566.1826, 
			 "electric_dipole_moment_norm": 3.06449527002, 
			 "electric_quadrupole_moment_norm": 14.2874081645, 
			 "total_energy": -574.90985182, 
			 "HOMO_LUMO_gap": 0.27166, 
			 "cosmo_polarized_energy": -16.53, 
			 "cosmo_cavitation_energy": 25.55, 
			 "cosmo_dispersion_energy": -18.19, 
			 "cosmo_repulsion_energy": 1.48, 
			 "cosmo_total_nonelectrostatic_energy": 8.84, 
			 "SMD_solvation_energy": 6.68 
		},
		"coords": [
			{
				"x": -0.3929780165,
				"y": -0.6960021737,
				"z": -1.0229212266,
				"element": "C" 
			},
			{
				"x": -0.3220172089,
				"y": 0.3393351743,
				"z": 0.1184560234,
				"element": "C" 
			},
			{
				"x": 0.922361831,
				"y": 1.2272798045,
				"z": -0.0874409167,
				"element": "C" 
			},
			{
				"x": -0.1731723704,
				"y": -0.3816860019,
				"z": 1.4807730595,
				"element": "C" 
			},
			{
				"x": -1.278123868,
				"y": -1.3387425969,
				"z": 1.8685614555,
				"element": "C" 
			},
			{
				"x": -0.8791802385,
				"y": -2.163332158,
				"z": 2.8654049131,
				"element": "O" 
			},
			{
				"x": -2.4022040175,
				"y": -1.3944371109,
				"z": 1.4077997779,
				"element": "O" 
			},
			{
				"x": -1.6077646941,
				"y": 1.2012500973,
				"z": 0.0583698809,
				"element": "C" 
			},
			{
				"x": -1.7680067246,
				"y": 2.2857796843,
				"z": 1.1154833921,
				"element": "C" 
			},
			{
				"x": -2.8922827537,
				"y": 3.0400720154,
				"z": 0.979252772,
				"element": "O" 
			},
			{
				"x": -1.0134632758,
				"y": 2.5155888812,
				"z": 2.0313525511,
				"element": "O" 
			},
			{
				"x": -0.4504976427,
				"y": -0.1974532856,
				"z": -1.9970701909,
				"element": "H" 
			},
			{
				"x": -1.2658658498,
				"y": -1.3463985249,
				"z": -0.9214875625,
				"element": "H" 
			},
			{
				"x": 0.5050718368,
				"y": -1.3237614158,
				"z": -1.0271673279,
				"element": "H" 
			},
			{
				"x": 1.0125710253,
				"y": 1.974568272,
				"z": 0.7036807436,
				"element": "H" 
			},
			{
				"x": 1.8333964977,
				"y": 0.6187337476,
				"z": -0.0945680663,
				"element": "H" 
			},
			{
				"x": 0.8667680893,
				"y": 1.7481657116,
				"z": -1.0502414631,
				"element": "H" 
			},
			{
				"x": 0.7699665256,
				"y": -0.9386427867,
				"z": 1.504195798,
				"element": "H" 
			},
			{
				"x": -0.1080769114,
				"y": 0.3646936905,
				"z": 2.2807812097,
				"element": "H" 
			},
			{
				"x": -1.6505251691,
				"y": -2.7124877723,
				"z": 3.0864415752,
				"element": "H" 
			},
			{
				"x": -2.481009397,
				"y": 0.5428826607,
				"z": 0.1323795141,
				"element": "H" 
			},
			{
				"x": -1.6581262757,
				"y": 1.690487453,
				"z": -0.9249755671,
				"element": "H" 
			},
			{
				"x": -3.4128413921,
				"y": 2.7289066344,
				"z": 0.224839655,
				"element": "H" 
			}
		],
		 "valence_orbital": [ 
			{
				"type": "occ",
				"energy": -0.33471,
				"method": "rhf"
			},
			{
				"type": "occ",
				"energy": -0.32224,
				"method": "rhf"
			},
			{
				"type": "occ",
				"energy": -0.31562,
				"method": "rhf"
			},
			{
				"type": "occ",
				"energy": -0.28013,
				"method": "rhf"
			},
			{
				"type": "occ",
				"energy": -0.26754,
				"method": "rhf"
			},
			{
				"type": "unocc",
				"energy": 0.00412,
				"method": "rhf"
			},
			{
				"type": "unocc",
				"energy": 0.0102,
				"method": "rhf"
			},
			{
				"type": "unocc",
				"energy": 0.05751,
				"method": "rhf"
			},
			{
				"type": "unocc",
				"energy": 0.07632,
				"method": "rhf"
			},
			{
				"type": "unocc",
				"energy": 0.08315,
				"method": "rhf"
			}
		],
		"cosmo_sigma_profile": { 
			"-0.025": 0.0,
			"-0.024": 0.0,
			"-0.023": 0.0,
			"-0.022": 0.0,
			"-0.021": 0.0,
			"-0.02": 0.0,
			"-0.019": 0.368169395954,
			"-0.018": 1.71333548451,
			"-0.017": 1.66633186717,
			"-0.016": 1.88628341195,
			"-0.015": 1.82079721103,
			"-0.014": 2.26895826641,
			"-0.013": 1.67961751747,
			"-0.012": 1.44934872567,
			"-0.011": 2.07700435948,
			"-0.01": 1.63972005726,
			"-0.009": 1.44564651456,
			"-0.008": 2.02788272674,
			"-0.007": 2.95850420965,
			"-0.006": 3.97031791717,
			"-0.005": 6.40959527006,
			"-0.004": 11.5944560923,
			"-0.003": 18.2528190211,
			"-0.002": 17.7193896697,
			"-0.001": 17.5688406673,
			"0.0": 17.7197621258,
			"0.001": 17.4217672192,
			"0.002": 7.6927036052,
			"0.003": 5.66714128574,
			"0.004": 4.84511073466,
			"0.005": 4.27070651654,
			"0.006": 5.23235557671,
			"0.007": 4.71398710715,
			"0.008": 4.61130352654,
			"0.009": 6.3227970026,
			"0.01": 6.45505974047,
			"0.011": 7.56182444351,
			"0.012": 5.7653774076,
			"0.013": 1.82002644674,
			"0.014": 0.105481342017,
			"0.015": 0.0,
			"0.016": 0.0,
			"0.017": 0.0,
			"0.018": 0.0,
			"0.019": 0.0,
			"0.02": 0.0,
			"0.021": 0.0,
			"0.022": 0.0,
			"0.023": 0.0,
			"0.024": 0.0,
			"0.025": 0.0
		}
	}
}
