{
	 "smiles": "COC1=CC=C(C=CC(=O)C=CC2=CC=C(OC)C=C2)C=C1", 
	 "Tm": 402.15, 
	 "num_atms": 40, 
	 "gaussian": { 
		 "optdone": 1, 
		 "sigma_profile": "yes", 
		 "theory": "DFT", 
		 "functional": "B3LYP", 
		 "basiset": "6-31G**", 
		 "properties": { 
			 "R2extent": 16050.4939, 
			 "electric_dipole_moment_norm": 2.34915647414, 
			 "electric_quadrupole_moment_norm": 29.9902713951, 
			 "total_energy": -960.493531643, 
			 "HOMO_LUMO_gap": 0.12931, 
			 "cosmo_polarized_energy": -15.31, 
			 "cosmo_cavitation_energy": 45.09, 
			 "cosmo_dispersion_energy": -32.76, 
			 "cosmo_repulsion_energy": 2.45, 
			 "cosmo_total_nonelectrostatic_energy": 14.79, 
			 "SMD_solvation_energy": 9.62 
		},
		"coords": [
			{
				"x": -1.6631446758,
				"y": -6.1156590683,
				"z": 5.3874725931,
				"element": "C" 
			},
			{
				"x": -0.7031523506,
				"y": -6.11518381,
				"z": 4.3408614608,
				"element": "O" 
			},
			{
				"x": -0.5584969322,
				"y": -4.9881350486,
				"z": 3.5923002761,
				"element": "C" 
			},
			{
				"x": 0.4049788539,
				"y": -5.0495561916,
				"z": 2.573728846,
				"element": "C" 
			},
			{
				"x": 0.6228773568,
				"y": -3.9496447691,
				"z": 1.7597285066,
				"element": "C" 
			},
			{
				"x": -0.1033703283,
				"y": -2.7505263816,
				"z": 1.9231893268,
				"element": "C" 
			},
			{
				"x": 0.173794618,
				"y": -1.6295844565,
				"z": 1.0333840119,
				"element": "C" 
			},
			{
				"x": -0.4008980614,
				"y": -0.4086917429,
				"z": 1.01759493,
				"element": "C" 
			},
			{
				"x": 0.0191017164,
				"y": 0.6132765504,
				"z": 0.0243133102,
				"element": "C" 
			},
			{
				"x": 0.9035468176,
				"y": 0.3587349801,
				"z": -0.8029767853,
				"element": "O" 
			},
			{
				"x": -0.6982235086,
				"y": 1.8975887851,
				"z": 0.1288905239,
				"element": "C" 
			},
			{
				"x": -0.6090136532,
				"y": 3.0584176896,
				"z": -0.5783589257,
				"element": "C" 
			},
			{
				"x": 0.1838527174,
				"y": 3.5493222042,
				"z": -1.6984419182,
				"element": "C" 
			},
			{
				"x": -0.0690964686,
				"y": 4.8775690848,
				"z": -2.1217186627,
				"element": "C" 
			},
			{
				"x": 0.6192381891,
				"y": 5.4545796658,
				"z": -3.1732850625,
				"element": "C" 
			},
			{
				"x": 1.6017882227,
				"y": 4.7150015955,
				"z": -3.8525171615,
				"element": "C" 
			},
			{
				"x": 2.2272971566,
				"y": 5.3618521884,
				"z": -4.8723458403,
				"element": "O" 
			},
			{
				"x": 3.2321306453,
				"y": 4.668150068,
				"z": -5.5988659697,
				"element": "C" 
			},
			{
				"x": 1.8726318834,
				"y": 3.3981143824,
				"z": -3.4547993259,
				"element": "C" 
			},
			{
				"x": 1.1737394367,
				"y": 2.826767543,
				"z": -2.3947447915,
				"element": "C" 
			},
			{
				"x": -1.0634878672,
				"y": -2.7125095411,
				"z": 2.9503632071,
				"element": "C" 
			},
			{
				"x": -1.2951824395,
				"y": -3.807592034,
				"z": 3.7770261739,
				"element": "C" 
			},
			{
				"x": -2.6783702089,
				"y": -5.9513915765,
				"z": 5.0048002615,
				"element": "H" 
			},
			{
				"x": -1.6077478616,
				"y": -7.1043147565,
				"z": 5.8451461354,
				"element": "H" 
			},
			{
				"x": -1.4362584644,
				"y": -5.354265762,
				"z": 6.1443803723,
				"element": "H" 
			},
			{
				"x": 0.9652807688,
				"y": -5.9696398731,
				"z": 2.4448816537,
				"element": "H" 
			},
			{
				"x": 1.371493628,
				"y": -4.0083081724,
				"z": 0.9741122526,
				"element": "H" 
			},
			{
				"x": 0.9447673701,
				"y": -1.7940770507,
				"z": 0.2810670932,
				"element": "H" 
			},
			{
				"x": -1.1812095771,
				"y": -0.1378614566,
				"z": 1.7238127714,
				"element": "H" 
			},
			{
				"x": -1.4389919414,
				"y": 1.9135377719,
				"z": 0.9257139716,
				"element": "H" 
			},
			{
				"x": -1.3042288642,
				"y": 3.8207995832,
				"z": -0.2234043436,
				"element": "H" 
			},
			{
				"x": -0.826744503,
				"y": 5.4619224829,
				"z": -1.6053045232,
				"element": "H" 
			},
			{
				"x": 0.4205356633,
				"y": 6.4723619585,
				"z": -3.4922886828,
				"element": "H" 
			},
			{
				"x": 2.8291613396,
				"y": 3.7752702907,
				"z": -6.0927503765,
				"element": "H" 
			},
			{
				"x": 3.5913808043,
				"y": 5.3669044491,
				"z": -6.3557378178,
				"element": "H" 
			},
			{
				"x": 4.0678176106,
				"y": 4.374423203,
				"z": -4.9516498992,
				"element": "H" 
			},
			{
				"x": 2.626012529,
				"y": 2.8083540183,
				"z": -3.9637493793,
				"element": "H" 
			},
			{
				"x": 1.3834011268,
				"y": 1.8095673468,
				"z": -2.0879875187,
				"element": "H" 
			},
			{
				"x": -1.644870736,
				"y": -1.8098816765,
				"z": 3.1114738432,
				"element": "H" 
			},
			{
				"x": -2.0443400124,
				"y": -3.7355924735,
				"z": 4.5564854632,
				"element": "H" 
			}
		],
		 "valence_orbital": [ 
			{
				"type": "occ",
				"energy": -0.25825,
				"method": "rhf"
			},
			{
				"type": "occ",
				"energy": -0.24865,
				"method": "rhf"
			},
			{
				"type": "occ",
				"energy": -0.23095,
				"method": "rhf"
			},
			{
				"type": "occ",
				"energy": -0.21307,
				"method": "rhf"
			},
			{
				"type": "occ",
				"energy": -0.203,
				"method": "rhf"
			},
			{
				"type": "unocc",
				"energy": -0.07369,
				"method": "rhf"
			},
			{
				"type": "unocc",
				"energy": -0.02405,
				"method": "rhf"
			},
			{
				"type": "unocc",
				"energy": -0.00553,
				"method": "rhf"
			},
			{
				"type": "unocc",
				"energy": 0.00401,
				"method": "rhf"
			},
			{
				"type": "unocc",
				"energy": 0.0315,
				"method": "rhf"
			}
		],
		"cosmo_sigma_profile": { 
			"-0.025": 0.0,
			"-0.024": 0.0,
			"-0.023": 0.0,
			"-0.022": 0.0,
			"-0.021": 0.0,
			"-0.02": 0.0,
			"-0.019": 0.0,
			"-0.018": 0.0,
			"-0.017": 0.0,
			"-0.016": 0.0,
			"-0.015": 0.0,
			"-0.014": 0.0,
			"-0.013": 0.0,
			"-0.012": 0.0,
			"-0.011": 0.0,
			"-0.01": 0.0,
			"-0.009": 0.0,
			"-0.008": 0.686363637582,
			"-0.007": 8.82064290819,
			"-0.006": 32.6496026,
			"-0.005": 34.7232520844,
			"-0.004": 32.2355381387,
			"-0.003": 27.4398607467,
			"-0.002": 18.4851375932,
			"-0.001": 16.601160705,
			"0.0": 15.9974131357,
			"0.001": 22.3082075512,
			"0.002": 25.0148229209,
			"0.003": 34.253214091,
			"0.004": 45.2263209938,
			"0.005": 16.3434842952,
			"0.006": 5.79987929928,
			"0.007": 4.76981649241,
			"0.008": 4.83570944258,
			"0.009": 4.49136799485,
			"0.01": 3.61125203224,
			"0.011": 2.28293843482,
			"0.012": 1.84150504351,
			"0.013": 1.90065170505,
			"0.014": 0.259487625589,
			"0.015": 0.0,
			"0.016": 0.0,
			"0.017": 0.0,
			"0.018": 0.0,
			"0.019": 0.0,
			"0.02": 0.0,
			"0.021": 0.0,
			"0.022": 0.0,
			"0.023": 0.0,
			"0.024": 0.0,
			"0.025": 0.0
		}
	}
}
