{
	 "smiles": "Cl[C@@]12C=C(C3=CC=CC=C3)[C@]1(Cl)C(=O)N(C2=O)C1=CC=CC=C1", 
	 "Tm": 425.0, 
	 "num_atms": 34, 
	 "gaussian": { 
		 "optdone": 1, 
		 "sigma_profile": "yes", 
		 "theory": "DFT", 
		 "functional": "B3LYP", 
		 "basiset": "6-31G**", 
		 "properties": { 
			 "R2extent": 8493.0643, 
			 "electric_dipole_moment_norm": 3.81344808015, 
			 "electric_quadrupole_moment_norm": 20.5834247034, 
			 "total_energy": -1818.09891798, 
			 "HOMO_LUMO_gap": 0.16532, 
			 "cosmo_polarized_energy": -13.75, 
			 "cosmo_cavitation_energy": 42.29, 
			 "cosmo_dispersion_energy": -29.27, 
			 "cosmo_repulsion_energy": 2.22, 
			 "cosmo_total_nonelectrostatic_energy": 15.24, 
			 "SMD_solvation_energy": 7.41 
		},
		"coords": [
			{
				"x": -3.51369325,
				"y": -0.157686588,
				"z": -0.844731243,
				"element": "Cl" 
			},
			{
				"x": -1.811268083,
				"y": -0.5189842635,
				"z": -0.4223580633,
				"element": "C" 
			},
			{
				"x": -1.3763656073,
				"y": -1.9620420973,
				"z": -0.484434262,
				"element": "C" 
			},
			{
				"x": -0.3939073544,
				"y": -1.7507500272,
				"z": -1.3900702412,
				"element": "C" 
			},
			{
				"x": 0.6300820405,
				"y": -2.5560523262,
				"z": -2.0382113423,
				"element": "C" 
			},
			{
				"x": 1.6824119958,
				"y": -1.9436634535,
				"z": -2.7421448864,
				"element": "C" 
			},
			{
				"x": 2.6615657514,
				"y": -2.725363104,
				"z": -3.3530907408,
				"element": "C" 
			},
			{
				"x": 2.6006857101,
				"y": -4.1177760077,
				"z": -3.2762236317,
				"element": "C" 
			},
			{
				"x": 1.5546891648,
				"y": -4.7342588614,
				"z": -2.5813704149,
				"element": "C" 
			},
			{
				"x": 0.5759582253,
				"y": -3.9610466981,
				"z": -1.9668177044,
				"element": "C" 
			},
			{
				"x": -0.6768831993,
				"y": -0.2483317391,
				"z": -1.4646873909,
				"element": "C" 
			},
			{
				"x": -1.0984928065,
				"y": 0.4236014554,
				"z": -3.0659740322,
				"element": "Cl" 
			},
			{
				"x": 0.3275818435,
				"y": 0.6547833127,
				"z": -0.7379021923,
				"element": "C" 
			},
			{
				"x": 1.3639190536,
				"y": 1.0899108715,
				"z": -1.1840692922,
				"element": "O" 
			},
			{
				"x": -0.1557802034,
				"y": 0.8698436608,
				"z": 0.5635808168,
				"element": "N" 
			},
			{
				"x": -1.3894471484,
				"y": 0.2421090643,
				"z": 0.8410155461,
				"element": "C" 
			},
			{
				"x": -1.9694676806,
				"y": 0.2770929667,
				"z": 1.8982344713,
				"element": "O" 
			},
			{
				"x": 0.5737865021,
				"y": 1.6217487925,
				"z": 1.5466118945,
				"element": "C" 
			},
			{
				"x": 1.0892242622,
				"y": 2.8761856407,
				"z": 1.2091391013,
				"element": "C" 
			},
			{
				"x": 1.8013886112,
				"y": 3.6019347896,
				"z": 2.1630048124,
				"element": "C" 
			},
			{
				"x": 1.9889493045,
				"y": 3.0864576549,
				"z": 3.446591641,
				"element": "C" 
			},
			{
				"x": 1.4647942223,
				"y": 1.8352264513,
				"z": 3.7755619508,
				"element": "C" 
			},
			{
				"x": 0.7600546868,
				"y": 1.0947345232,
				"z": 2.8274986167,
				"element": "C" 
			},
			{
				"x": -1.7125824923,
				"y": -2.815055543,
				"z": 0.0926273786,
				"element": "H" 
			},
			{
				"x": 1.7395157077,
				"y": -0.8611712191,
				"z": -2.7916157104,
				"element": "H" 
			},
			{
				"x": 3.4732822403,
				"y": -2.2444497032,
				"z": -3.8904199222,
				"element": "H" 
			},
			{
				"x": 3.3632970739,
				"y": -4.7232495713,
				"z": -3.757248236,
				"element": "H" 
			},
			{
				"x": 1.5025512379,
				"y": -5.8173955616,
				"z": -2.5238327584,
				"element": "H" 
			},
			{
				"x": -0.2422713296,
				"y": -4.4413308148,
				"z": -1.4378610065,
				"element": "H" 
			},
			{
				"x": 0.9424025667,
				"y": 3.2719076919,
				"z": 0.2115371827,
				"element": "H" 
			},
			{
				"x": 2.2060818935,
				"y": 4.5744981798,
				"z": 1.9001248829,
				"element": "H" 
			},
			{
				"x": 2.5401589165,
				"y": 3.6576563375,
				"z": 4.1875488068,
				"element": "H" 
			},
			{
				"x": 1.6049900621,
				"y": 1.4291308309,
				"z": 4.772683394,
				"element": "H" 
			},
			{
				"x": 0.3477880819,
				"y": 0.1257853551,
				"z": 3.0813025753,
				"element": "H" 
			}
		],
		 "valence_orbital": [ 
			{
				"type": "occ",
				"energy": -0.27736,
				"method": "rhf"
			},
			{
				"type": "occ",
				"energy": -0.26684,
				"method": "rhf"
			},
			{
				"type": "occ",
				"energy": -0.26095,
				"method": "rhf"
			},
			{
				"type": "occ",
				"energy": -0.25341,
				"method": "rhf"
			},
			{
				"type": "occ",
				"energy": -0.2451,
				"method": "rhf"
			},
			{
				"type": "unocc",
				"energy": -0.07978,
				"method": "rhf"
			},
			{
				"type": "unocc",
				"energy": -0.04103,
				"method": "rhf"
			},
			{
				"type": "unocc",
				"energy": -0.03074,
				"method": "rhf"
			},
			{
				"type": "unocc",
				"energy": -0.01624,
				"method": "rhf"
			},
			{
				"type": "unocc",
				"energy": -0.01107,
				"method": "rhf"
			}
		],
		"cosmo_sigma_profile": { 
			"-0.025": 0.0,
			"-0.024": 0.0,
			"-0.023": 0.0,
			"-0.022": 0.0,
			"-0.021": 0.0,
			"-0.02": 0.0,
			"-0.019": 0.0,
			"-0.018": 0.0,
			"-0.017": 0.0,
			"-0.016": 0.0,
			"-0.015": 0.0,
			"-0.014": 0.0,
			"-0.013": 0.0,
			"-0.012": 0.00402651882868,
			"-0.011": 0.283854311597,
			"-0.01": 0.998738940819,
			"-0.009": 3.41874310519,
			"-0.008": 5.00513304265,
			"-0.007": 11.5648235743,
			"-0.006": 23.8371796784,
			"-0.005": 26.7725724108,
			"-0.004": 22.5691696481,
			"-0.003": 19.2924123558,
			"-0.002": 19.5159003615,
			"-0.001": 19.4335514693,
			"0.0": 24.6463436081,
			"0.001": 24.3327768957,
			"0.002": 27.5275551551,
			"0.003": 34.2057059352,
			"0.004": 39.0344620902,
			"0.005": 12.7485002576,
			"0.006": 5.84894903127,
			"0.007": 4.60375127316,
			"0.008": 4.48033623621,
			"0.009": 6.34811623944,
			"0.01": 7.46423789287,
			"0.011": 1.32338147586,
			"0.012": 0.0,
			"0.013": 0.0,
			"0.014": 0.0,
			"0.015": 0.0,
			"0.016": 0.0,
			"0.017": 0.0,
			"0.018": 0.0,
			"0.019": 0.0,
			"0.02": 0.0,
			"0.021": 0.0,
			"0.022": 0.0,
			"0.023": 0.0,
			"0.024": 0.0,
			"0.025": 0.0
		}
	}
}
