{
	 "smiles": "CCOC(=O)C1=C(NC(=O)C(C)Cl)SC(CC)=C1", 
	 "Tm": 331.15, 
	 "num_atms": 34, 
	 "gaussian": { 
		 "optdone": 1, 
		 "sigma_profile": "yes", 
		 "theory": "DFT", 
		 "functional": "B3LYP", 
		 "basiset": "6-31G**", 
		 "properties": { 
			 "R2extent": 6817.0572, 
			 "electric_dipole_moment_norm": 6.75586648255, 
			 "electric_quadrupole_moment_norm": 21.7073037692, 
			 "total_energy": -1605.74707123, 
			 "HOMO_LUMO_gap": 0.18067, 
			 "cosmo_polarized_energy": -17.79, 
			 "cosmo_cavitation_energy": 41.12, 
			 "cosmo_dispersion_energy": -27.88, 
			 "cosmo_repulsion_energy": 2.2, 
			 "cosmo_total_nonelectrostatic_energy": 15.44, 
			 "SMD_solvation_energy": 7.85 
		},
		"coords": [
			{
				"x": -1.0676650599,
				"y": -4.0767466891,
				"z": 0.0144588389,
				"element": "C" 
			},
			{
				"x": -1.4773262903,
				"y": -3.0456867165,
				"z": -1.026259957,
				"element": "C" 
			},
			{
				"x": -0.625179407,
				"y": -1.8733714964,
				"z": -0.9739405163,
				"element": "O" 
			},
			{
				"x": -0.955375078,
				"y": -0.9340030558,
				"z": -0.0581503588,
				"element": "C" 
			},
			{
				"x": -1.9145439615,
				"y": -1.0203895273,
				"z": 0.68526037,
				"element": "O" 
			},
			{
				"x": -0.0037273668,
				"y": 0.2018568746,
				"z": -0.0887358543,
				"element": "C" 
			},
			{
				"x": -0.2141847442,
				"y": 1.3835492797,
				"z": 0.5983500455,
				"element": "C" 
			},
			{
				"x": -1.275008318,
				"y": 1.7787957603,
				"z": 1.4194862369,
				"element": "N" 
			},
			{
				"x": -1.7113433852,
				"y": 1.2483382408,
				"z": 2.6316453399,
				"element": "C" 
			},
			{
				"x": -2.7477256184,
				"y": 1.6396872482,
				"z": 3.1264914338,
				"element": "O" 
			},
			{
				"x": -0.733035281,
				"y": 0.30706351,
				"z": 3.3444449571,
				"element": "C" 
			},
			{
				"x": 0.1274945533,
				"y": 1.1106687543,
				"z": 4.3213232036,
				"element": "C" 
			},
			{
				"x": -1.6468235801,
				"y": -0.9760101455,
				"z": 4.2360563301,
				"element": "Cl" 
			},
			{
				"x": 1.0879076882,
				"y": 2.5168855583,
				"z": 0.2891401501,
				"element": "S" 
			},
			{
				"x": 1.9021844393,
				"y": 1.3959403053,
				"z": -0.7829922763,
				"element": "C" 
			},
			{
				"x": 3.1890447949,
				"y": 1.7607877228,
				"z": -1.469792341,
				"element": "C" 
			},
			{
				"x": 4.3819084049,
				"y": 1.9474719099,
				"z": -0.5158174562,
				"element": "C" 
			},
			{
				"x": 1.2042765945,
				"y": 0.2245636428,
				"z": -0.8607919895,
				"element": "C" 
			},
			{
				"x": -0.0162299045,
				"y": -4.3551169211,
				"z": -0.1042080038,
				"element": "H" 
			},
			{
				"x": -1.6766440685,
				"y": -4.9794357931,
				"z": -0.1014570394,
				"element": "H" 
			},
			{
				"x": -1.222462104,
				"y": -3.687740665,
				"z": 1.0235544226,
				"element": "H" 
			},
			{
				"x": -2.5137856024,
				"y": -2.7318182908,
				"z": -0.8838846386,
				"element": "H" 
			},
			{
				"x": -1.3474427691,
				"y": -3.4248205052,
				"z": -2.0425548538,
				"element": "H" 
			},
			{
				"x": -1.9116372033,
				"y": 2.4854737877,
				"z": 1.0669886257,
				"element": "H" 
			},
			{
				"x": -0.1120989779,
				"y": -0.2229209713,
				"z": 2.6257641008,
				"element": "H" 
			},
			{
				"x": 0.7142985468,
				"y": 1.8566689897,
				"z": 3.7736114907,
				"element": "H" 
			},
			{
				"x": 0.8151448897,
				"y": 0.4506094347,
				"z": 4.8547703686,
				"element": "H" 
			},
			{
				"x": -0.5074067014,
				"y": 1.6251865893,
				"z": 5.0463907225,
				"element": "H" 
			},
			{
				"x": 3.0485609757,
				"y": 2.6759994418,
				"z": -2.0592113145,
				"element": "H" 
			},
			{
				"x": 3.4126975342,
				"y": 0.9639027086,
				"z": -2.1880800146,
				"element": "H" 
			},
			{
				"x": 5.2891192449,
				"y": 2.1883972635,
				"z": -1.0785635512,
				"element": "H" 
			},
			{
				"x": 4.2013261384,
				"y": 2.7617681462,
				"z": 0.1932325731,
				"element": "H" 
			},
			{
				"x": 4.5676326493,
				"y": 1.0363559712,
				"z": 0.0608025477,
				"element": "H" 
			},
			{
				"x": 1.5206489672,
				"y": -0.6143103629,
				"z": -1.4681315921,
				"element": "H" 
			}
		],
		 "valence_orbital": [ 
			{
				"type": "occ",
				"energy": -0.28417,
				"method": "rhf"
			},
			{
				"type": "occ",
				"energy": -0.27551,
				"method": "rhf"
			},
			{
				"type": "occ",
				"energy": -0.27118,
				"method": "rhf"
			},
			{
				"type": "occ",
				"energy": -0.25929,
				"method": "rhf"
			},
			{
				"type": "occ",
				"energy": -0.23765,
				"method": "rhf"
			},
			{
				"type": "unocc",
				"energy": -0.05698,
				"method": "rhf"
			},
			{
				"type": "unocc",
				"energy": -0.0031,
				"method": "rhf"
			},
			{
				"type": "unocc",
				"energy": 0.00025,
				"method": "rhf"
			},
			{
				"type": "unocc",
				"energy": 0.00653,
				"method": "rhf"
			},
			{
				"type": "unocc",
				"energy": 0.04825,
				"method": "rhf"
			}
		],
		"cosmo_sigma_profile": { 
			"-0.025": 0.0,
			"-0.024": 0.0,
			"-0.023": 0.0,
			"-0.022": 0.0,
			"-0.021": 0.0,
			"-0.02": 0.0,
			"-0.019": 0.0,
			"-0.018": 0.0,
			"-0.017": 0.0,
			"-0.016": 0.123806816456,
			"-0.015": 1.18309695475,
			"-0.014": 0.928836362101,
			"-0.013": 1.21405386785,
			"-0.012": 0.524133042527,
			"-0.011": 1.33453458394,
			"-0.01": 1.07695200786,
			"-0.009": 0.60074728029,
			"-0.008": 1.11499462658,
			"-0.007": 2.49050968638,
			"-0.006": 6.11832557561,
			"-0.005": 19.5294568109,
			"-0.004": 33.1474112387,
			"-0.003": 33.8908270396,
			"-0.002": 36.5764686327,
			"-0.001": 37.2134719938,
			"0.0": 30.1003181021,
			"0.001": 24.5341797909,
			"0.002": 18.5316106275,
			"0.003": 14.4903782143,
			"0.004": 10.0079776834,
			"0.005": 9.4407462922,
			"0.006": 9.53243678213,
			"0.007": 5.42529447834,
			"0.008": 5.26824459485,
			"0.009": 5.3052390763,
			"0.01": 4.25321991718,
			"0.011": 4.70236921044,
			"0.012": 6.45536120022,
			"0.013": 2.78570929124,
			"0.014": 0.43954735187,
			"0.015": 0.0,
			"0.016": 0.0,
			"0.017": 0.0,
			"0.018": 0.0,
			"0.019": 0.0,
			"0.02": 0.0,
			"0.021": 0.0,
			"0.022": 0.0,
			"0.023": 0.0,
			"0.024": 0.0,
			"0.025": 0.0
		}
	}
}
