{
	 "smiles": "CC[C@H]1OC(=O)[C@H](C)[C@@H](O[C@H]2C[C@@](C)(OC)[C@@H](O)[C@H](C)O2)[C@H](C)[C@@H](O[C@@H]2O[C@H](C)C[C@@H]([C@H]2O)N(C)C)[C@](C)(O)C[C@@H](C)C(=O)[C@H](C)[C@@H](O)[C@]1(C)O", 
	 "Tm": 408.15, 
	 "num_atms": 118, 
	 "gaussian": { 
		 "optdone": 1, 
		 "sigma_profile": "yes", 
		 "theory": "DFT", 
		 "functional": "B3LYP", 
		 "basiset": "6-31G**", 
		 "properties": { 
			 "R2extent": 38030.0066, 
			 "electric_dipole_moment_norm": 9.51458132342, 
			 "electric_quadrupole_moment_norm": 54.9148143367, 
			 "total_energy": -2482.9411709, 
			 "HOMO_LUMO_gap": 0.17697, 
			 "cosmo_polarized_energy": -33.56, 
			 "cosmo_cavitation_energy": 98.66, 
			 "cosmo_dispersion_energy": -57.65, 
			 "cosmo_repulsion_energy": 4.17, 
			 "cosmo_total_nonelectrostatic_energy": 45.18, 
			 "SMD_solvation_energy": 16.38 
		},
		"coords": [
			{
				"x": -0.0611569808,
				"y": -0.0524915189,
				"z": -4.49525834,
				"element": "C" 
			},
			{
				"x": -1.1144272607,
				"y": 1.011678657,
				"z": -4.1722700925,
				"element": "C" 
			},
			{
				"x": -0.9968079536,
				"y": 1.7755896644,
				"z": -2.8415343183,
				"element": "C" 
			},
			{
				"x": -0.9339659053,
				"y": 0.8238613054,
				"z": -1.7400966591,
				"element": "O" 
			},
			{
				"x": -2.1455673035,
				"y": 0.5098886771,
				"z": -1.1698607068,
				"element": "C" 
			},
			{
				"x": -3.1911699423,
				"y": 0.9773868818,
				"z": -1.5651147253,
				"element": "O" 
			},
			{
				"x": -2.0196538387,
				"y": -0.493153884,
				"z": -0.0288087093,
				"element": "C" 
			},
			{
				"x": -3.3883219848,
				"y": -1.1285305155,
				"z": 0.2541587555,
				"element": "C" 
			},
			{
				"x": -1.3923628118,
				"y": 0.1957830847,
				"z": 1.224518674,
				"element": "C" 
			},
			{
				"x": -2.3839223512,
				"y": 1.1160592432,
				"z": 1.6954476289,
				"element": "O" 
			},
			{
				"x": -1.9959160445,
				"y": 2.4374190288,
				"z": 2.0552880567,
				"element": "C" 
			},
			{
				"x": -2.6135430938,
				"y": 3.4026101143,
				"z": 1.0414590885,
				"element": "C" 
			},
			{
				"x": -2.6562847408,
				"y": 4.8846021485,
				"z": 1.4764737914,
				"element": "C" 
			},
			{
				"x": -1.3769024033,
				"y": 5.6460215021,
				"z": 1.1153328301,
				"element": "C" 
			},
			{
				"x": -3.8157801799,
				"y": 5.5110992724,
				"z": 0.8803925002,
				"element": "O" 
			},
			{
				"x": -3.8976248441,
				"y": 5.5581890796,
				"z": -0.5329187961,
				"element": "C" 
			},
			{
				"x": -2.9326173965,
				"y": 4.9954422134,
				"z": 3.0181956216,
				"element": "C" 
			},
			{
				"x": -3.7755420278,
				"y": 6.0846230624,
				"z": 3.3308615764,
				"element": "O" 
			},
			{
				"x": -3.4552808593,
				"y": 3.6583374279,
				"z": 3.569938656,
				"element": "C" 
			},
			{
				"x": -3.7434617318,
				"y": 3.7083677803,
				"z": 5.060190554,
				"element": "C" 
			},
			{
				"x": -2.412884014,
				"y": 2.6874788631,
				"z": 3.3788654319,
				"element": "O" 
			},
			{
				"x": -0.9855270825,
				"y": -0.7895377823,
				"z": 2.359210921,
				"element": "C" 
			},
			{
				"x": -0.6802252939,
				"y": -0.0511290513,
				"z": 3.6773581198,
				"element": "C" 
			},
			{
				"x": 0.1403638491,
				"y": -1.8197689074,
				"z": 2.0432688866,
				"element": "C" 
			},
			{
				"x": -0.4003093361,
				"y": -2.8454614224,
				"z": 1.1781466927,
				"element": "O" 
			},
			{
				"x": -0.4408306175,
				"y": -4.1587606032,
				"z": 1.6242696446,
				"element": "C" 
			},
			{
				"x": 0.5945690735,
				"y": -4.8754850206,
				"z": 0.9505757466,
				"element": "O" 
			},
			{
				"x": 0.6776838032,
				"y": -6.2638414359,
				"z": 1.2957146623,
				"element": "C" 
			},
			{
				"x": 1.8940971446,
				"y": -6.8251937189,
				"z": 0.5727263869,
				"element": "C" 
			},
			{
				"x": -0.6314641214,
				"y": -6.9796038411,
				"z": 0.9303025829,
				"element": "C" 
			},
			{
				"x": -1.805717507,
				"y": -6.2731305652,
				"z": 1.6275595564,
				"element": "C" 
			},
			{
				"x": -1.803052873,
				"y": -4.77194981,
				"z": 1.2886228254,
				"element": "C" 
			},
			{
				"x": -2.7990129357,
				"y": -4.1131277005,
				"z": 2.0442890697,
				"element": "O" 
			},
			{
				"x": -3.1630009458,
				"y": -6.8123614199,
				"z": 1.4258190115,
				"element": "N" 
			},
			{
				"x": -3.4492972434,
				"y": -7.9869473246,
				"z": 2.2441513671,
				"element": "C" 
			},
			{
				"x": -3.5435785069,
				"y": -7.0342156371,
				"z": 0.0313955637,
				"element": "C" 
			},
			{
				"x": 1.5260170971,
				"y": -1.3405684928,
				"z": 1.4632321035,
				"element": "C" 
			},
			{
				"x": 2.6114030627,
				"y": -2.3279232716,
				"z": 1.9192448322,
				"element": "C" 
			},
			{
				"x": 1.8953999035,
				"y": -0.0852268007,
				"z": 2.0305615755,
				"element": "O" 
			},
			{
				"x": 1.4788754886,
				"y": -1.2850173159,
				"z": -0.0853489603,
				"element": "C" 
			},
			{
				"x": 2.6592985678,
				"y": -0.5282550331,
				"z": -0.7668011684,
				"element": "C" 
			},
			{
				"x": 3.2193837924,
				"y": -1.3625537113,
				"z": -1.9293264332,
				"element": "C" 
			},
			{
				"x": 2.1985494105,
				"y": 0.8996761961,
				"z": -1.1007784537,
				"element": "C" 
			},
			{
				"x": 1.6924597591,
				"y": 1.5777164913,
				"z": -0.2029709452,
				"element": "O" 
			},
			{
				"x": 2.4368172048,
				"y": 1.4717893151,
				"z": -2.4796161666,
				"element": "C" 
			},
			{
				"x": 3.9293440812,
				"y": 1.9125938734,
				"z": -2.5313400642,
				"element": "C" 
			},
			{
				"x": 1.5893287489,
				"y": 2.6800133383,
				"z": -2.9772984778,
				"element": "C" 
			},
			{
				"x": 1.8273347181,
				"y": 2.642171512,
				"z": -4.390727842,
				"element": "O" 
			},
			{
				"x": 0.0686797877,
				"y": 2.9008713435,
				"z": -2.6503123581,
				"element": "C" 
			},
			{
				"x": -0.3969693388,
				"y": 4.097263166,
				"z": -3.5077616866,
				"element": "C" 
			},
			{
				"x": -0.0287260253,
				"y": 3.3854973715,
				"z": -1.313760121,
				"element": "O" 
			},
			{
				"x": -0.3933926345,
				"y": -0.6598119494,
				"z": -5.3437030131,
				"element": "H" 
			},
			{
				"x": 0.8931524198,
				"y": 0.4016231904,
				"z": -4.76791112,
				"element": "H" 
			},
			{
				"x": 0.0883624918,
				"y": -0.7286352489,
				"z": -3.6474351539,
				"element": "H" 
			},
			{
				"x": -1.1604392158,
				"y": 1.7429702465,
				"z": -4.9871738463,
				"element": "H" 
			},
			{
				"x": -2.1014987212,
				"y": 0.5359060693,
				"z": -4.1427904455,
				"element": "H" 
			},
			{
				"x": -1.9447220676,
				"y": 2.3013730131,
				"z": -2.7130521179,
				"element": "H" 
			},
			{
				"x": -1.3339307186,
				"y": -1.2770564947,
				"z": -0.3578842566,
				"element": "H" 
			},
			{
				"x": -3.2888429989,
				"y": -1.9663531332,
				"z": 0.9467901669,
				"element": "H" 
			},
			{
				"x": -3.8249370974,
				"y": -1.5053774216,
				"z": -0.6753711593,
				"element": "H" 
			},
			{
				"x": -4.0729961598,
				"y": -0.3882346698,
				"z": 0.6698158061,
				"element": "H" 
			},
			{
				"x": -0.5098055856,
				"y": 0.7621439584,
				"z": 0.9059415523,
				"element": "H" 
			},
			{
				"x": -0.8983864175,
				"y": 2.4953493096,
				"z": 2.0515182862,
				"element": "H" 
			},
			{
				"x": -2.0737597261,
				"y": 3.2914933935,
				"z": 0.0980038191,
				"element": "H" 
			},
			{
				"x": -3.6397911873,
				"y": 3.0626688846,
				"z": 0.8737429325,
				"element": "H" 
			},
			{
				"x": -1.4651686202,
				"y": 6.6922246343,
				"z": 1.4250139987,
				"element": "H" 
			},
			{
				"x": -1.1517894991,
				"y": 5.5955174061,
				"z": 0.047063059,
				"element": "H" 
			},
			{
				"x": -0.523136113,
				"y": 5.2058721188,
				"z": 1.6409785332,
				"element": "H" 
			},
			{
				"x": -4.8561516024,
				"y": 6.0273345789,
				"z": -0.7689583694,
				"element": "H" 
			},
			{
				"x": -3.8788403029,
				"y": 4.5574432552,
				"z": -0.9826937658,
				"element": "H" 
			},
			{
				"x": -3.0951871658,
				"y": 6.1620763222,
				"z": -0.9763151488,
				"element": "H" 
			},
			{
				"x": -1.9726944065,
				"y": 5.1668224404,
				"z": 3.523869495,
				"element": "H" 
			},
			{
				"x": -4.2953822841,
				"y": 6.2424430349,
				"z": 2.5256182557,
				"element": "H" 
			},
			{
				"x": -4.367100099,
				"y": 3.3603467426,
				"z": 3.0313329716,
				"element": "H" 
			},
			{
				"x": -4.4946113381,
				"y": 4.4749185051,
				"z": 5.2629797375,
				"element": "H" 
			},
			{
				"x": -2.8321469317,
				"y": 3.9564547303,
				"z": 5.6143765244,
				"element": "H" 
			},
			{
				"x": -4.1077623116,
				"y": 2.7393959324,
				"z": 5.4128415059,
				"element": "H" 
			},
			{
				"x": -1.8597540989,
				"y": -1.4223404717,
				"z": 2.5508963606,
				"element": "H" 
			},
			{
				"x": -0.4800820608,
				"y": -0.7808520544,
				"z": 4.4704237003,
				"element": "H" 
			},
			{
				"x": -1.5318919818,
				"y": 0.5561142977,
				"z": 3.9835671305,
				"element": "H" 
			},
			{
				"x": 0.2026419887,
				"y": 0.5850554541,
				"z": 3.5929671081,
				"element": "H" 
			},
			{
				"x": 0.3627618037,
				"y": -2.2867631896,
				"z": 3.0114120012,
				"element": "H" 
			},
			{
				"x": -0.2819540283,
				"y": -4.2081016617,
				"z": 2.7164149996,
				"element": "H" 
			},
			{
				"x": 0.8311272709,
				"y": -6.3502562533,
				"z": 2.3865413022,
				"element": "H" 
			},
			{
				"x": 2.7983065277,
				"y": -6.286257124,
				"z": 0.8685166388,
				"element": "H" 
			},
			{
				"x": 2.0282725468,
				"y": -7.8850745677,
				"z": 0.8101295704,
				"element": "H" 
			},
			{
				"x": 1.7723821871,
				"y": -6.7233261815,
				"z": -0.5101982973,
				"element": "H" 
			},
			{
				"x": -0.5743069243,
				"y": -8.0323323456,
				"z": 1.2321460599,
				"element": "H" 
			},
			{
				"x": -0.7505384369,
				"y": -6.9530193788,
				"z": -0.1593954573,
				"element": "H" 
			},
			{
				"x": -1.6339578302,
				"y": -6.3315283484,
				"z": 2.7118836055,
				"element": "H" 
			},
			{
				"x": -1.9541090765,
				"y": -4.6224989753,
				"z": 0.2071611193,
				"element": "H" 
			},
			{
				"x": -3.5372445388,
				"y": -4.7474439367,
				"z": 2.0711208939,
				"element": "H" 
			},
			{
				"x": -4.5127171218,
				"y": -8.235003613,
				"z": 2.1638908791,
				"element": "H" 
			},
			{
				"x": -2.8750862228,
				"y": -8.8834614602,
				"z": 1.9488986377,
				"element": "H" 
			},
			{
				"x": -3.2311714639,
				"y": -7.7715409092,
				"z": 3.2944164386,
				"element": "H" 
			},
			{
				"x": -3.0219637439,
				"y": -7.8863786184,
				"z": -0.4371610378,
				"element": "H" 
			},
			{
				"x": -4.6186828794,
				"y": -7.2341860964,
				"z": -0.0177121145,
				"element": "H" 
			},
			{
				"x": -3.3448246593,
				"y": -6.1417647106,
				"z": -0.5670847912,
				"element": "H" 
			},
			{
				"x": 3.5756021862,
				"y": -2.0804081936,
				"z": 1.4631392252,
				"element": "H" 
			},
			{
				"x": 2.7359468762,
				"y": -2.2545309918,
				"z": 3.0041247826,
				"element": "H" 
			},
			{
				"x": 2.347094884,
				"y": -3.3541417474,
				"z": 1.6528841189,
				"element": "H" 
			},
			{
				"x": 1.6776865305,
				"y": 0.62464151,
				"z": 1.4015802587,
				"element": "H" 
			},
			{
				"x": 1.456444384,
				"y": -2.3136165919,
				"z": -0.450742471,
				"element": "H" 
			},
			{
				"x": 0.5481704797,
				"y": -0.8315655059,
				"z": -0.4202031956,
				"element": "H" 
			},
			{
				"x": 3.4524887086,
				"y": -0.3807454059,
				"z": -0.0202783983,
				"element": "H" 
			},
			{
				"x": 2.4461170229,
				"y": -1.5835848325,
				"z": -2.6726064368,
				"element": "H" 
			},
			{
				"x": 3.5731909942,
				"y": -2.3205996531,
				"z": -1.5376514275,
				"element": "H" 
			},
			{
				"x": 4.0596976977,
				"y": -0.8904710544,
				"z": -2.4434742448,
				"element": "H" 
			},
			{
				"x": 2.3025592825,
				"y": 0.6669829327,
				"z": -3.2048224527,
				"element": "H" 
			},
			{
				"x": 4.1119777429,
				"y": 2.7088606029,
				"z": -1.8026312306,
				"element": "H" 
			},
			{
				"x": 4.6194787033,
				"y": 1.0943000684,
				"z": -2.3176841066,
				"element": "H" 
			},
			{
				"x": 4.1423070946,
				"y": 2.2931783022,
				"z": -3.5319287994,
				"element": "H" 
			},
			{
				"x": 2.0442843291,
				"y": 3.5844756353,
				"z": -2.5468844452,
				"element": "H" 
			},
			{
				"x": 1.6468350828,
				"y": 3.5177312849,
				"z": -4.7525058458,
				"element": "H" 
			},
			{
				"x": -1.3599476006,
				"y": 4.4473265636,
				"z": -3.1288991108,
				"element": "H" 
			},
			{
				"x": 0.3100064684,
				"y": 4.9283904967,
				"z": -3.4107607719,
				"element": "H" 
			},
			{
				"x": -0.5159596927,
				"y": 3.8436536552,
				"z": -4.5637294289,
				"element": "H" 
			},
			{
				"x": 0.503669864,
				"y": 2.7979783912,
				"z": -0.745326704,
				"element": "H" 
			}
		],
		 "valence_orbital": [ 
			{
				"type": "occ",
				"energy": -0.25605,
				"method": "rhf"
			},
			{
				"type": "occ",
				"energy": -0.23533,
				"method": "rhf"
			},
			{
				"type": "occ",
				"energy": -0.22951,
				"method": "rhf"
			},
			{
				"type": "occ",
				"energy": -0.22911,
				"method": "rhf"
			},
			{
				"type": "occ",
				"energy": -0.22409,
				"method": "rhf"
			},
			{
				"type": "unocc",
				"energy": -0.04712,
				"method": "rhf"
			},
			{
				"type": "unocc",
				"energy": 0.01835,
				"method": "rhf"
			},
			{
				"type": "unocc",
				"energy": 0.05166,
				"method": "rhf"
			},
			{
				"type": "unocc",
				"energy": 0.06756,
				"method": "rhf"
			},
			{
				"type": "unocc",
				"energy": 0.06969,
				"method": "rhf"
			}
		],
		"cosmo_sigma_profile": { 
			"-0.025": 0.0,
			"-0.024": 0.0,
			"-0.023": 0.0,
			"-0.022": 0.0,
			"-0.021": 0.0,
			"-0.02": 0.0,
			"-0.019": 0.0,
			"-0.018": 0.0,
			"-0.017": 0.0,
			"-0.016": 0.0091543632511,
			"-0.015": 0.505507945769,
			"-0.014": 0.96193891737,
			"-0.013": 0.796982101609,
			"-0.012": 0.45814385981,
			"-0.011": 1.43027515171,
			"-0.01": 1.17268140958,
			"-0.009": 2.46414053162,
			"-0.008": 1.46620715601,
			"-0.007": 2.6337009132,
			"-0.006": 9.51983180802,
			"-0.005": 31.2802561456,
			"-0.004": 66.6462672121,
			"-0.003": 100.813911797,
			"-0.002": 97.6953123106,
			"-0.001": 94.1713174268,
			"0.0": 87.7909458098,
			"0.001": 60.9050695615,
			"0.002": 41.0538579918,
			"0.003": 26.9136645537,
			"0.004": 21.3862878133,
			"0.005": 18.9737719923,
			"0.006": 18.5297414824,
			"0.007": 14.7399464404,
			"0.008": 13.2278372809,
			"0.009": 12.0256628902,
			"0.01": 9.88954171288,
			"0.011": 7.05860013313,
			"0.012": 7.33349174791,
			"0.013": 3.23168988608,
			"0.014": 2.48831931208,
			"0.015": 1.33269676879,
			"0.016": 0.0,
			"0.017": 0.0,
			"0.018": 0.0,
			"0.019": 0.0,
			"0.02": 0.0,
			"0.021": 0.0,
			"0.022": 0.0,
			"0.023": 0.0,
			"0.024": 0.0,
			"0.025": 0.0
		}
	}
}
