{
	 "smiles": "CN(C)C1=CC=C(C=C1)N=NC1=CC=CC=C1", 
	 "Tm": 390.15, 
	 "num_atms": 32, 
	 "gaussian": { 
		 "optdone": 1, 
		 "sigma_profile": "yes", 
		 "theory": "DFT", 
		 "functional": "B3LYP", 
		 "basiset": "6-31G**", 
		 "properties": { 
			 "R2extent": 7246.2568, 
			 "electric_dipole_moment_norm": 4.13486865571, 
			 "electric_quadrupole_moment_norm": 20.6344048695, 
			 "total_energy": -706.739490631, 
			 "HOMO_LUMO_gap": 0.12347, 
			 "cosmo_polarized_energy": -10.7, 
			 "cosmo_cavitation_energy": 35.8, 
			 "cosmo_dispersion_energy": -26.27, 
			 "cosmo_repulsion_energy": 2.01, 
			 "cosmo_total_nonelectrostatic_energy": 11.55, 
			 "SMD_solvation_energy": 4.66 
		},
		"coords": [
			{
				"x": 4.6687740601,
				"y": 0.1202762941,
				"z": -1.7516188667,
				"element": "C" 
			},
			{
				"x": 3.6652391748,
				"y": 1.137099994,
				"z": -1.4841072065,
				"element": "N" 
			},
			{
				"x": 3.9702627633,
				"y": 2.5322409137,
				"z": -1.7523503067,
				"element": "C" 
			},
			{
				"x": 2.401244072,
				"y": 0.7743420835,
				"z": -1.0674565449,
				"element": "C" 
			},
			{
				"x": 1.3917955763,
				"y": 1.7436641778,
				"z": -0.8469119557,
				"element": "C" 
			},
			{
				"x": 0.1285653044,
				"y": 1.3628524653,
				"z": -0.420782345,
				"element": "C" 
			},
			{
				"x": -0.1942475364,
				"y": 0.0161380083,
				"z": -0.1968297476,
				"element": "C" 
			},
			{
				"x": 0.8017742349,
				"y": -0.9544754057,
				"z": -0.4173840616,
				"element": "C" 
			},
			{
				"x": 2.0655609195,
				"y": -0.5890108447,
				"z": -0.8421534441,
				"element": "C" 
			},
			{
				"x": -1.5049384729,
				"y": -0.2470232604,
				"z": 0.2326634532,
				"element": "N" 
			},
			{
				"x": -1.775707172,
				"y": -1.4674766844,
				"z": 0.4291102361,
				"element": "N" 
			},
			{
				"x": -3.1022415166,
				"y": -1.7148031587,
				"z": 0.86223066,
				"element": "C" 
			},
			{
				"x": -4.0775238911,
				"y": -0.7236264466,
				"z": 1.0731987545,
				"element": "C" 
			},
			{
				"x": -5.3496861302,
				"y": -1.0871943338,
				"z": 1.5001592058,
				"element": "C" 
			},
			{
				"x": -5.6678784244,
				"y": -2.4332855309,
				"z": 1.7219366748,
				"element": "C" 
			},
			{
				"x": -4.7015591807,
				"y": -3.4191634666,
				"z": 1.5133069808,
				"element": "C" 
			},
			{
				"x": -3.4242010318,
				"y": -3.0610686875,
				"z": 1.0852893965,
				"element": "C" 
			},
			{
				"x": 5.59649711,
				"y": 0.604316458,
				"z": -2.0584403773,
				"element": "H" 
			},
			{
				"x": 4.3617875175,
				"y": -0.5639849129,
				"z": -2.5549374793,
				"element": "H" 
			},
			{
				"x": 4.8842860364,
				"y": -0.481522003,
				"z": -0.8592379035,
				"element": "H" 
			},
			{
				"x": 3.3450698317,
				"y": 2.9453425412,
				"z": -2.5564324593,
				"element": "H" 
			},
			{
				"x": 3.8280802685,
				"y": 3.1561418497,
				"z": -0.8603076065,
				"element": "H" 
			},
			{
				"x": 5.0133739946,
				"y": 2.6199548891,
				"z": -2.0577627266,
				"element": "H" 
			},
			{
				"x": 1.5956629692,
				"y": 2.7945200741,
				"z": -1.0094732958,
				"element": "H" 
			},
			{
				"x": -0.6435239181,
				"y": 2.1073737671,
				"z": -0.2516952596,
				"element": "H" 
			},
			{
				"x": 0.5558435727,
				"y": -1.9968382069,
				"z": -0.2479076177,
				"element": "H" 
			},
			{
				"x": 2.8053014114,
				"y": -1.3636641118,
				"z": -1.0035830839,
				"element": "H" 
			},
			{
				"x": -3.8124142477,
				"y": 0.3123980723,
				"z": 0.8962538836,
				"element": "H" 
			},
			{
				"x": -6.1025603808,
				"y": -0.3205726306,
				"z": 1.6629307196,
				"element": "H" 
			},
			{
				"x": -6.6644841565,
				"y": -2.7082968258,
				"z": 2.0555247864,
				"element": "H" 
			},
			{
				"x": -4.9427702512,
				"y": -4.4645129688,
				"z": 1.6837589359,
				"element": "H" 
			},
			{
				"x": -2.652882507,
				"y": -3.805742109,
				"z": 0.9149086009,
				"element": "H" 
			}
		],
		 "valence_orbital": [ 
			{
				"type": "occ",
				"energy": -0.24938,
				"method": "rhf"
			},
			{
				"type": "occ",
				"energy": -0.24369,
				"method": "rhf"
			},
			{
				"type": "occ",
				"energy": -0.2384,
				"method": "rhf"
			},
			{
				"type": "occ",
				"energy": -0.20932,
				"method": "rhf"
			},
			{
				"type": "occ",
				"energy": -0.18688,
				"method": "rhf"
			},
			{
				"type": "unocc",
				"energy": -0.06341,
				"method": "rhf"
			},
			{
				"type": "unocc",
				"energy": 0.00364,
				"method": "rhf"
			},
			{
				"type": "unocc",
				"energy": 0.00786,
				"method": "rhf"
			},
			{
				"type": "unocc",
				"energy": 0.02579,
				"method": "rhf"
			},
			{
				"type": "unocc",
				"energy": 0.06268,
				"method": "rhf"
			}
		],
		"cosmo_sigma_profile": { 
			"-0.025": 0.0,
			"-0.024": 0.0,
			"-0.023": 0.0,
			"-0.022": 0.0,
			"-0.021": 0.0,
			"-0.02": 0.0,
			"-0.019": 0.0,
			"-0.018": 0.0,
			"-0.017": 0.0,
			"-0.016": 0.0,
			"-0.015": 0.0,
			"-0.014": 0.0,
			"-0.013": 0.0,
			"-0.012": 0.0,
			"-0.011": 0.0,
			"-0.01": 0.0,
			"-0.009": 0.0,
			"-0.008": 0.332514074248,
			"-0.007": 2.5931912147,
			"-0.006": 11.23142641,
			"-0.005": 23.8722010958,
			"-0.004": 31.8821880253,
			"-0.003": 28.3805990547,
			"-0.002": 25.9893889314,
			"-0.001": 17.7557225662,
			"0.0": 14.0679546114,
			"0.001": 14.6204978604,
			"0.002": 14.3941317901,
			"0.003": 30.4887369312,
			"0.004": 28.2386791653,
			"0.005": 25.7851848905,
			"0.006": 6.80808010939,
			"0.007": 3.00799619852,
			"0.008": 2.98853213916,
			"0.009": 2.74255237753,
			"0.01": 0.496754766009,
			"0.011": 0.0,
			"0.012": 0.0,
			"0.013": 0.0,
			"0.014": 0.0,
			"0.015": 0.0,
			"0.016": 0.0,
			"0.017": 0.0,
			"0.018": 0.0,
			"0.019": 0.0,
			"0.02": 0.0,
			"0.021": 0.0,
			"0.022": 0.0,
			"0.023": 0.0,
			"0.024": 0.0,
			"0.025": 0.0
		}
	}
}
