{
	 "smiles": "CCCCCCCCCCCC(O)=O", 
	 "Tm": 317.25, 
	 "num_atms": 38, 
	 "gaussian": { 
		 "optdone": 1, 
		 "sigma_profile": "yes", 
		 "theory": "DFT", 
		 "functional": "B3LYP", 
		 "basiset": "6-31G**", 
		 "properties": { 
			 "R2extent": 5661.4917, 
			 "electric_dipole_moment_norm": 1.27454449118, 
			 "electric_quadrupole_moment_norm": 7.50189943881, 
			 "total_energy": -622.238478866, 
			 "HOMO_LUMO_gap": 0.28462, 
			 "cosmo_polarized_energy": -7.99, 
			 "cosmo_cavitation_energy": 38.86, 
			 "cosmo_dispersion_energy": -26.13, 
			 "cosmo_repulsion_energy": 2.18, 
			 "cosmo_total_nonelectrostatic_energy": 14.92, 
			 "SMD_solvation_energy": 6.58 
		},
		"coords": [
			{
				"x": -4.2824884579,
				"y": -0.7281946532,
				"z": 0.5456069282,
				"element": "C" 
			},
			{
				"x": -2.8997186914,
				"y": -0.8380109805,
				"z": -0.1055382967,
				"element": "C" 
			},
			{
				"x": -2.7223655381,
				"y": 0.1146303857,
				"z": -1.2966334168,
				"element": "C" 
			},
			{
				"x": -1.3752892528,
				"y": -0.0072988042,
				"z": -2.0285625888,
				"element": "C" 
			},
			{
				"x": -0.1579137105,
				"y": 0.4423732424,
				"z": -1.2055109169,
				"element": "C" 
			},
			{
				"x": 1.1727572435,
				"y": 0.3906404927,
				"z": -1.9812465296,
				"element": "C" 
			},
			{
				"x": 1.7342845553,
				"y": -1.0209771269,
				"z": -2.2731751717,
				"element": "C" 
			},
			{
				"x": 2.7480926224,
				"y": -1.5563305268,
				"z": -1.2458416858,
				"element": "C" 
			},
			{
				"x": 2.2073541258,
				"y": -1.7882403332,
				"z": 0.1714074799,
				"element": "C" 
			},
			{
				"x": 3.2518261422,
				"y": -2.4176240889,
				"z": 1.1038136033,
				"element": "C" 
			},
			{
				"x": 2.7397339604,
				"y": -2.6718735073,
				"z": 2.5246659645,
				"element": "C" 
			},
			{
				"x": 2.5285045205,
				"y": -1.4059395937,
				"z": 3.3288552793,
				"element": "C" 
			},
			{
				"x": 1.8711348975,
				"y": -1.6576629444,
				"z": 4.4883835259,
				"element": "O" 
			},
			{
				"x": 2.9016118639,
				"y": -0.2930587103,
				"z": 3.0259828655,
				"element": "O" 
			},
			{
				"x": -4.4634558882,
				"y": 0.285367691,
				"z": 0.9217292582,
				"element": "H" 
			},
			{
				"x": -5.0781612943,
				"y": -0.9590134594,
				"z": -0.1721853747,
				"element": "H" 
			},
			{
				"x": -4.3855170958,
				"y": -1.4184361405,
				"z": 1.3895086702,
				"element": "H" 
			},
			{
				"x": -2.7353822532,
				"y": -1.8705946456,
				"z": -0.4441893791,
				"element": "H" 
			},
			{
				"x": -2.1293361741,
				"y": -0.6398833446,
				"z": 0.6500483449,
				"element": "H" 
			},
			{
				"x": -2.8564500503,
				"y": 1.1508397252,
				"z": -0.9532963999,
				"element": "H" 
			},
			{
				"x": -3.5323905907,
				"y": -0.071288152,
				"z": -2.0154216974,
				"element": "H" 
			},
			{
				"x": -1.4164875902,
				"y": 0.5967998669,
				"z": -2.9455212996,
				"element": "H" 
			},
			{
				"x": -1.2430344395,
				"y": -1.046772924,
				"z": -2.3593240057,
				"element": "H" 
			},
			{
				"x": -0.3288514135,
				"y": 1.4754687056,
				"z": -0.8720806647,
				"element": "H" 
			},
			{
				"x": -0.0795379158,
				"y": -0.1595649196,
				"z": -0.2933020048,
				"element": "H" 
			},
			{
				"x": 1.0279525389,
				"y": 0.9220805091,
				"z": -2.9314265371,
				"element": "H" 
			},
			{
				"x": 1.9311877607,
				"y": 0.9658853409,
				"z": -1.4335560382,
				"element": "H" 
			},
			{
				"x": 0.9096585998,
				"y": -1.7390999188,
				"z": -2.3766958985,
				"element": "H" 
			},
			{
				"x": 2.2345871619,
				"y": -1.0067810682,
				"z": -3.2494218662,
				"element": "H" 
			},
			{
				"x": 3.598619708,
				"y": -0.8618236142,
				"z": -1.1917225547,
				"element": "H" 
			},
			{
				"x": 3.1567006823,
				"y": -2.5036887021,
				"z": -1.6255068399,
				"element": "H" 
			},
			{
				"x": 1.8766569325,
				"y": -0.8386973074,
				"z": 0.6054493671,
				"element": "H" 
			},
			{
				"x": 1.3234331368,
				"y": -2.4413457548,
				"z": 0.1230593055,
				"element": "H" 
			},
			{
				"x": 3.5893892799,
				"y": -3.3725557871,
				"z": 0.6815519789,
				"element": "H" 
			},
			{
				"x": 4.131568294,
				"y": -1.7660940559,
				"z": 1.1576700572,
				"element": "H" 
			},
			{
				"x": 3.4506601187,
				"y": -3.2862386895,
				"z": 3.0930756283,
				"element": "H" 
			},
			{
				"x": 1.7998124695,
				"y": -3.2366785105,
				"z": 2.5227419148,
				"element": "H" 
			},
			{
				"x": 1.8025537417,
				"y": -0.8040176959,
				"z": 4.9483089953,
				"element": "H" 
			}
		],
		 "valence_orbital": [ 
			{
				"type": "occ",
				"energy": -0.31132,
				"method": "rhf"
			},
			{
				"type": "occ",
				"energy": -0.30165,
				"method": "rhf"
			},
			{
				"type": "occ",
				"energy": -0.30012,
				"method": "rhf"
			},
			{
				"type": "occ",
				"energy": -0.29623,
				"method": "rhf"
			},
			{
				"type": "occ",
				"energy": -0.27387,
				"method": "rhf"
			},
			{
				"type": "unocc",
				"energy": 0.01075,
				"method": "rhf"
			},
			{
				"type": "unocc",
				"energy": 0.07995,
				"method": "rhf"
			},
			{
				"type": "unocc",
				"energy": 0.08776,
				"method": "rhf"
			},
			{
				"type": "unocc",
				"energy": 0.09854,
				"method": "rhf"
			},
			{
				"type": "unocc",
				"energy": 0.10174,
				"method": "rhf"
			}
		],
		"cosmo_sigma_profile": { 
			"-0.025": 0.0,
			"-0.024": 0.0,
			"-0.023": 0.0,
			"-0.022": 0.0,
			"-0.021": 0.0,
			"-0.02": 0.0,
			"-0.019": 0.0,
			"-0.018": 0.249417410571,
			"-0.017": 1.33611750968,
			"-0.016": 0.564515361459,
			"-0.015": 0.874480123231,
			"-0.014": 0.5519951477,
			"-0.013": 0.936288247791,
			"-0.012": 0.750289755153,
			"-0.011": 0.544458052892,
			"-0.01": 0.796856675442,
			"-0.009": 0.577295415234,
			"-0.008": 0.44340472939,
			"-0.007": 0.83961846723,
			"-0.006": 3.83010834869,
			"-0.005": 4.60786891275,
			"-0.004": 5.22347233945,
			"-0.003": 11.0394482901,
			"-0.002": 39.7707251375,
			"-0.001": 60.8922897152,
			"0.0": 60.0380518698,
			"0.001": 49.326738873,
			"0.002": 23.9192499746,
			"0.003": 2.66358544282,
			"0.004": 2.46925255049,
			"0.005": 3.35452260953,
			"0.006": 2.80021858563,
			"0.007": 2.61190746605,
			"0.008": 2.8789594669,
			"0.009": 3.29769663861,
			"0.01": 2.82350359529,
			"0.011": 2.63913616878,
			"0.012": 4.77410473643,
			"0.013": 0.95180200663,
			"0.014": 0.0,
			"0.015": 0.0,
			"0.016": 0.0,
			"0.017": 0.0,
			"0.018": 0.0,
			"0.019": 0.0,
			"0.02": 0.0,
			"0.021": 0.0,
			"0.022": 0.0,
			"0.023": 0.0,
			"0.024": 0.0,
			"0.025": 0.0
		}
	}
}
