{
	 "smiles": "OC(=O)C1=CN(N=N1)C1=NC=C(C=C1)C(F)(F)F", 
	 "Tm": 408.15, 
	 "num_atms": 23, 
	 "gaussian": { 
		 "optdone": 1, 
		 "sigma_profile": "yes", 
		 "theory": "DFT", 
		 "functional": "B3LYP", 
		 "basiset": "6-31G**", 
		 "properties": { 
			 "R2extent": 7911.7659, 
			 "electric_dipole_moment_norm": 7.47043469552, 
			 "electric_quadrupole_moment_norm": 41.288461422, 
			 "total_energy": -1014.89376351, 
			 "HOMO_LUMO_gap": 0.1948, 
			 "cosmo_polarized_energy": -29.93, 
			 "cosmo_cavitation_energy": 31.64, 
			 "cosmo_dispersion_energy": -22.44, 
			 "cosmo_repulsion_energy": 1.65, 
			 "cosmo_total_nonelectrostatic_energy": 10.85, 
			 "SMD_solvation_energy": 5.35 
		},
		"coords": [
			{
				"x": 1.6574748623,
				"y": 4.0691262686,
				"z": 3.9066464134,
				"element": "O" 
			},
			{
				"x": 0.6198757828,
				"y": 4.4061232975,
				"z": 3.0863325462,
				"element": "C" 
			},
			{
				"x": 0.0125132029,
				"y": 5.4311106651,
				"z": 3.2465138811,
				"element": "O" 
			},
			{
				"x": 0.3496937043,
				"y": 3.4390968639,
				"z": 1.9883455163,
				"element": "C" 
			},
			{
				"x": 1.2058112299,
				"y": 2.5619429315,
				"z": 1.3553341491,
				"element": "C" 
			},
			{
				"x": 0.4396706535,
				"y": 1.9664549858,
				"z": 0.4037816228,
				"element": "N" 
			},
			{
				"x": -0.8409556589,
				"y": 2.4611484798,
				"z": 0.4491730356,
				"element": "N" 
			},
			{
				"x": -0.8813031579,
				"y": 3.3446995392,
				"z": 1.387448693,
				"element": "N" 
			},
			{
				"x": 0.8215069472,
				"y": 0.9991308622,
				"z": -0.5688539676,
				"element": "C" 
			},
			{
				"x": -0.0918974838,
				"y": 0.0814070327,
				"z": -0.8677896856,
				"element": "N" 
			},
			{
				"x": 0.2372037315,
				"y": -0.8385615129,
				"z": -1.7771882087,
				"element": "C" 
			},
			{
				"x": 1.4888485739,
				"y": -0.8904676055,
				"z": -2.3964507669,
				"element": "C" 
			},
			{
				"x": 2.4333803257,
				"y": 0.0848361539,
				"z": -2.071280597,
				"element": "C" 
			},
			{
				"x": 2.095114973,
				"y": 1.0646192451,
				"z": -1.1453212113,
				"element": "C" 
			},
			{
				"x": 1.8273658015,
				"y": -1.9963188126,
				"z": -3.3599895848,
				"element": "C" 
			},
			{
				"x": 2.4277340519,
				"y": -3.0290661968,
				"z": -2.7291001976,
				"element": "F" 
			},
			{
				"x": 0.7261273925,
				"y": -2.4814237747,
				"z": -3.9662234044,
				"element": "F" 
			},
			{
				"x": 2.6768904279,
				"y": -1.5687108779,
				"z": -4.3182354954,
				"element": "F" 
			},
			{
				"x": 1.8902078718,
				"y": 3.1377238793,
				"z": 3.7872467222,
				"element": "H" 
			},
			{
				"x": 2.2490857635,
				"y": 2.3243833389,
				"z": 1.4939761188,
				"element": "H" 
			},
			{
				"x": -0.5287818323,
				"y": -1.5690796324,
				"z": -2.0216302867,
				"element": "H" 
			},
			{
				"x": 3.4049245098,
				"y": 0.0912344667,
				"z": -2.5534886603,
				"element": "H" 
			},
			{
				"x": 2.782308327,
				"y": 1.8666904026,
				"z": -0.9012466321,
				"element": "H" 
			}
		],
		 "valence_orbital": [ 
			{
				"type": "occ",
				"energy": -0.31327,
				"method": "rhf"
			},
			{
				"type": "occ",
				"energy": -0.30349,
				"method": "rhf"
			},
			{
				"type": "occ",
				"energy": -0.29502,
				"method": "rhf"
			},
			{
				"type": "occ",
				"energy": -0.28597,
				"method": "rhf"
			},
			{
				"type": "occ",
				"energy": -0.27938,
				"method": "rhf"
			},
			{
				"type": "unocc",
				"energy": -0.08458,
				"method": "rhf"
			},
			{
				"type": "unocc",
				"energy": -0.06863,
				"method": "rhf"
			},
			{
				"type": "unocc",
				"energy": -0.03942,
				"method": "rhf"
			},
			{
				"type": "unocc",
				"energy": -0.02249,
				"method": "rhf"
			},
			{
				"type": "unocc",
				"energy": 0.04396,
				"method": "rhf"
			}
		],
		"cosmo_sigma_profile": { 
			"-0.025": 0.0,
			"-0.024": 0.0,
			"-0.023": 0.0,
			"-0.022": 0.0,
			"-0.021": 0.0,
			"-0.02": 0.387118108175,
			"-0.019": 1.39140536731,
			"-0.018": 0.959351471158,
			"-0.017": 1.51340608662,
			"-0.016": 0.915153285889,
			"-0.015": 1.04359305236,
			"-0.014": 1.73016752999,
			"-0.013": 3.19979198441,
			"-0.012": 3.15988349826,
			"-0.011": 3.12939574768,
			"-0.01": 4.0337473802,
			"-0.009": 6.94944024575,
			"-0.008": 6.95950962546,
			"-0.007": 7.77876895797,
			"-0.006": 8.72611434611,
			"-0.005": 8.91908775113,
			"-0.004": 11.7271387741,
			"-0.003": 17.2941122643,
			"-0.002": 18.1740231738,
			"-0.001": 15.4688057995,
			"0.0": 9.55472812278,
			"0.001": 14.7549715728,
			"0.002": 27.7158413494,
			"0.003": 15.7172631196,
			"0.004": 4.08560800008,
			"0.005": 4.54907025612,
			"0.006": 4.88767840058,
			"0.007": 5.65177816327,
			"0.008": 6.56887763998,
			"0.009": 8.47529486127,
			"0.01": 9.20631152137,
			"0.011": 9.11679853293,
			"0.012": 7.30322824059,
			"0.013": 3.2777323846,
			"0.014": 1.71928020045,
			"0.015": 0.0694654800341,
			"0.016": 0.0,
			"0.017": 0.0,
			"0.018": 0.0,
			"0.019": 0.0,
			"0.02": 0.0,
			"0.021": 0.0,
			"0.022": 0.0,
			"0.023": 0.0,
			"0.024": 0.0,
			"0.025": 0.0
		}
	}
}
