{
	 "smiles": "CCCCCCCCCCOC1=C(OCCCCCCCCCC)C=CC=C1", 
	 "Tm": 313.65, 
	 "num_atms": 74, 
	 "gaussian": { 
		 "optdone": 1, 
		 "sigma_profile": "yes", 
		 "theory": "DFT", 
		 "functional": "B3LYP", 
		 "basiset": "6-31G**", 
		 "properties": { 
			 "R2extent": 17865.8505, 
			 "electric_dipole_moment_norm": 0.818619924018, 
			 "electric_quadrupole_moment_norm": 5.63409030723, 
			 "total_energy": -1168.9639588, 
			 "HOMO_LUMO_gap": 0.22322, 
			 "cosmo_polarized_energy": -7.02, 
			 "cosmo_cavitation_energy": 71.47, 
			 "cosmo_dispersion_energy": -43.27, 
			 "cosmo_repulsion_energy": 3.39, 
			 "cosmo_total_nonelectrostatic_energy": 31.59, 
			 "SMD_solvation_energy": 9.92 
		},
		"coords": [
			{
				"x": 1.0288215405,
				"y": -3.0875394227,
				"z": -3.4879217078,
				"element": "C" 
			},
			{
				"x": 1.9952728034,
				"y": -1.907074504,
				"z": -3.6441310523,
				"element": "C" 
			},
			{
				"x": 2.7876936595,
				"y": -1.5564312771,
				"z": -2.3732216799,
				"element": "C" 
			},
			{
				"x": 3.8013501403,
				"y": -2.6299519799,
				"z": -1.9425757741,
				"element": "C" 
			},
			{
				"x": 4.7057462722,
				"y": -2.2427464871,
				"z": -0.7516448066,
				"element": "C" 
			},
			{
				"x": 4.2047397763,
				"y": -2.5603688732,
				"z": 0.6717326923,
				"element": "C" 
			},
			{
				"x": 2.9340588513,
				"y": -1.8279430415,
				"z": 1.1615821752,
				"element": "C" 
			},
			{
				"x": 1.6306657604,
				"y": -2.6214278491,
				"z": 0.962649969,
				"element": "C" 
			},
			{
				"x": 0.3453460605,
				"y": -1.8477958654,
				"z": 1.3000541732,
				"element": "C" 
			},
			{
				"x": 0.2344139289,
				"y": -1.4515194115,
				"z": 2.7720425894,
				"element": "C" 
			},
			{
				"x": -1.000319253,
				"y": -0.7732506852,
				"z": 3.0625755466,
				"element": "O" 
			},
			{
				"x": -2.1173373472,
				"y": -1.5677159255,
				"z": 3.2069341221,
				"element": "C" 
			},
			{
				"x": -3.1337853281,
				"y": -1.5177567753,
				"z": 2.2335075307,
				"element": "C" 
			},
			{
				"x": -2.9993829862,
				"y": -0.7803256992,
				"z": 1.0828409315,
				"element": "O" 
			},
			{
				"x": -3.0009353923,
				"y": 0.6500158819,
				"z": 1.2408471719,
				"element": "C" 
			},
			{
				"x": -2.8643631109,
				"y": 1.2685604004,
				"z": -0.1427029897,
				"element": "C" 
			},
			{
				"x": -2.8586863649,
				"y": 2.8019835893,
				"z": -0.105527597,
				"element": "C" 
			},
			{
				"x": -2.7374417899,
				"y": 3.4343833841,
				"z": -1.4996517629,
				"element": "C" 
			},
			{
				"x": -2.7262010984,
				"y": 4.9750773502,
				"z": -1.4918382865,
				"element": "C" 
			},
			{
				"x": -1.448414797,
				"y": 5.6471202321,
				"z": -0.9369343438,
				"element": "C" 
			},
			{
				"x": -0.386486023,
				"y": 6.0202479367,
				"z": -1.9903366493,
				"element": "C" 
			},
			{
				"x": 0.2839020598,
				"y": 4.8655235964,
				"z": -2.7544351499,
				"element": "C" 
			},
			{
				"x": 1.1355223163,
				"y": 3.9281223635,
				"z": -1.8873443396,
				"element": "C" 
			},
			{
				"x": 1.8385891067,
				"y": 2.8363380349,
				"z": -2.7012416564,
				"element": "C" 
			},
			{
				"x": -4.2856683719,
				"y": -2.2906631866,
				"z": 2.4043005679,
				"element": "C" 
			},
			{
				"x": -4.4316713962,
				"y": -3.114331836,
				"z": 3.5209173618,
				"element": "C" 
			},
			{
				"x": -3.4279980867,
				"y": -3.1556467796,
				"z": 4.4901869456,
				"element": "C" 
			},
			{
				"x": -2.2784668395,
				"y": -2.3802204039,
				"z": 4.3329346354,
				"element": "C" 
			},
			{
				"x": 0.3036057671,
				"y": -2.9003161812,
				"z": -2.687287629,
				"element": "H" 
			},
			{
				"x": 0.4643923085,
				"y": -3.2593986979,
				"z": -4.410478413,
				"element": "H" 
			},
			{
				"x": 1.554105814,
				"y": -4.0179694531,
				"z": -3.2486646699,
				"element": "H" 
			},
			{
				"x": 2.7000276064,
				"y": -2.1173725261,
				"z": -4.4607443223,
				"element": "H" 
			},
			{
				"x": 1.4262730094,
				"y": -1.021992561,
				"z": -3.9565875995,
				"element": "H" 
			},
			{
				"x": 3.3348306702,
				"y": -0.6198960176,
				"z": -2.5486849012,
				"element": "H" 
			},
			{
				"x": 2.0813161088,
				"y": -1.344236027,
				"z": -1.5609734863,
				"element": "H" 
			},
			{
				"x": 3.2902472978,
				"y": -3.5753160186,
				"z": -1.7185537208,
				"element": "H" 
			},
			{
				"x": 4.4436394056,
				"y": -2.8397152821,
				"z": -2.8091265906,
				"element": "H" 
			},
			{
				"x": 4.942664934,
				"y": -1.1709462941,
				"z": -0.8162657858,
				"element": "H" 
			},
			{
				"x": 5.6651421399,
				"y": -2.762844916,
				"z": -0.8694880895,
				"element": "H" 
			},
			{
				"x": 5.0294980031,
				"y": -2.3235412786,
				"z": 1.3556706714,
				"element": "H" 
			},
			{
				"x": 4.0507447224,
				"y": -3.6450798867,
				"z": 0.7633870723,
				"element": "H" 
			},
			{
				"x": 3.0495614476,
				"y": -1.6060607357,
				"z": 2.2297956038,
				"element": "H" 
			},
			{
				"x": 2.8538161504,
				"y": -0.8515985011,
				"z": 0.6642274769,
				"element": "H" 
			},
			{
				"x": 1.6778180317,
				"y": -3.5357962398,
				"z": 1.5716043832,
				"element": "H" 
			},
			{
				"x": 1.5622258664,
				"y": -2.9622997555,
				"z": -0.0762526371,
				"element": "H" 
			},
			{
				"x": 0.2792857226,
				"y": -0.9402372405,
				"z": 0.6871002339,
				"element": "H" 
			},
			{
				"x": -0.5259768256,
				"y": -2.4595113479,
				"z": 1.0398789502,
				"element": "H" 
			},
			{
				"x": 0.3344149094,
				"y": -2.3363743405,
				"z": 3.4165604592,
				"element": "H" 
			},
			{
				"x": 1.0158895397,
				"y": -0.7409482622,
				"z": 3.0547084672,
				"element": "H" 
			},
			{
				"x": -2.1739612371,
				"y": 0.9524974524,
				"z": 1.8923906695,
				"element": "H" 
			},
			{
				"x": -3.9443428928,
				"y": 0.959686703,
				"z": 1.7147010703,
				"element": "H" 
			},
			{
				"x": -3.6864680341,
				"y": 0.9084549982,
				"z": -0.774033633,
				"element": "H" 
			},
			{
				"x": -1.9363779094,
				"y": 0.9006779775,
				"z": -0.5986993461,
				"element": "H" 
			},
			{
				"x": -3.7818359724,
				"y": 3.1623696163,
				"z": 0.3707380898,
				"element": "H" 
			},
			{
				"x": -2.0346446924,
				"y": 3.1442267022,
				"z": 0.5349023069,
				"element": "H" 
			},
			{
				"x": -1.8358600217,
				"y": 3.0500552747,
				"z": -1.9926439049,
				"element": "H" 
			},
			{
				"x": -3.5835257696,
				"y": 3.091986147,
				"z": -2.1108169603,
				"element": "H" 
			},
			{
				"x": -2.9023008511,
				"y": 5.3402851373,
				"z": -2.512642469,
				"element": "H" 
			},
			{
				"x": -3.591634487,
				"y": 5.3121747826,
				"z": -0.9056556986,
				"element": "H" 
			},
			{
				"x": -0.9998210392,
				"y": 5.0184160748,
				"z": -0.157587641,
				"element": "H" 
			},
			{
				"x": -1.734797078,
				"y": 6.5760393566,
				"z": -0.4283404371,
				"element": "H" 
			},
			{
				"x": -0.8528365736,
				"y": 6.6961403942,
				"z": -2.7204142658,
				"element": "H" 
			},
			{
				"x": 0.3981305715,
				"y": 6.609602536,
				"z": -1.4952685345,
				"element": "H" 
			},
			{
				"x": 0.9270807039,
				"y": 5.2983725761,
				"z": -3.5332900074,
				"element": "H" 
			},
			{
				"x": -0.4739450822,
				"y": 4.2794426217,
				"z": -3.2914737201,
				"element": "H" 
			},
			{
				"x": 0.5107507037,
				"y": 3.4578496745,
				"z": -1.1174968272,
				"element": "H" 
			},
			{
				"x": 1.8849657689,
				"y": 4.5222944983,
				"z": -1.3462414235,
				"element": "H" 
			},
			{
				"x": 2.4413119818,
				"y": 2.1829571453,
				"z": -2.0615987425,
				"element": "H" 
			},
			{
				"x": 1.1129230892,
				"y": 2.2061760453,
				"z": -3.2286895999,
				"element": "H" 
			},
			{
				"x": 2.5047472415,
				"y": 3.2709231593,
				"z": -3.4554488521,
				"element": "H" 
			},
			{
				"x": -5.0497589384,
				"y": -2.2406230006,
				"z": 1.6347849077,
				"element": "H" 
			},
			{
				"x": -5.3298625043,
				"y": -3.7137587211,
				"z": 3.6360813117,
				"element": "H" 
			},
			{
				"x": -3.5389984642,
				"y": -3.7839409538,
				"z": 5.3689475462,
				"element": "H" 
			},
			{
				"x": -1.4947252333,
				"y": -2.3886174012,
				"z": 5.0848720709,
				"element": "H" 
			}
		],
		 "valence_orbital": [ 
			{
				"type": "occ",
				"energy": -0.29737,
				"method": "rhf"
			},
			{
				"type": "occ",
				"energy": -0.27781,
				"method": "rhf"
			},
			{
				"type": "occ",
				"energy": -0.26324,
				"method": "rhf"
			},
			{
				"type": "occ",
				"energy": -0.23765,
				"method": "rhf"
			},
			{
				"type": "occ",
				"energy": -0.2196,
				"method": "rhf"
			},
			{
				"type": "unocc",
				"energy": 0.00362,
				"method": "rhf"
			},
			{
				"type": "unocc",
				"energy": 0.00981,
				"method": "rhf"
			},
			{
				"type": "unocc",
				"energy": 0.06527,
				"method": "rhf"
			},
			{
				"type": "unocc",
				"energy": 0.07638,
				"method": "rhf"
			},
			{
				"type": "unocc",
				"energy": 0.0875,
				"method": "rhf"
			}
		],
		"cosmo_sigma_profile": { 
			"-0.025": 0.0,
			"-0.024": 0.0,
			"-0.023": 0.0,
			"-0.022": 0.0,
			"-0.021": 0.0,
			"-0.02": 0.0,
			"-0.019": 0.0,
			"-0.018": 0.0,
			"-0.017": 0.0,
			"-0.016": 0.0,
			"-0.015": 0.0,
			"-0.014": 0.0,
			"-0.013": 0.0,
			"-0.012": 0.0,
			"-0.011": 0.0,
			"-0.01": 0.0,
			"-0.009": 0.0,
			"-0.008": 0.0,
			"-0.007": 0.00920917895259,
			"-0.006": 3.93669984224,
			"-0.005": 9.37872641394,
			"-0.004": 14.3742178866,
			"-0.003": 26.1659387698,
			"-0.002": 77.7988141494,
			"-0.001": 121.502028209,
			"0.0": 107.089907269,
			"0.001": 89.2432706196,
			"0.002": 43.8956003106,
			"0.003": 12.3853545718,
			"0.004": 11.8939333448,
			"0.005": 12.7745691175,
			"0.006": 7.79706175192,
			"0.007": 3.38267588193,
			"0.008": 2.4364778769,
			"0.009": 2.09392462798,
			"0.01": 1.7721739952,
			"0.011": 1.80811117165,
			"0.012": 0.837539910221,
			"0.013": 0.0322393084071,
			"0.014": 0.0,
			"0.015": 0.0,
			"0.016": 0.0,
			"0.017": 0.0,
			"0.018": 0.0,
			"0.019": 0.0,
			"0.02": 0.0,
			"0.021": 0.0,
			"0.022": 0.0,
			"0.023": 0.0,
			"0.024": 0.0,
			"0.025": 0.0
		}
	}
}
