{
	 "smiles": "OC(=O)CS(=O)(=O)CC(=O)NC1=CC(Br)=CC=C1", 
	 "Tm": 439.15, 
	 "num_atms": 28, 
	 "gaussian": { 
		 "optdone": 1, 
		 "sigma_profile": "yes", 
		 "theory": "DFT", 
		 "functional": "B3LYP", 
		 "basiset": "6-31G**", 
		 "properties": { 
			 "R2extent": 11212.5884, 
			 "electric_dipole_moment_norm": 6.45435998841, 
			 "electric_quadrupole_moment_norm": 15.7470103289, 
			 "total_energy": -3787.51729489, 
			 "HOMO_LUMO_gap": 0.18208, 
			 "cosmo_polarized_energy": -23.28, 
			 "cosmo_cavitation_energy": 37.14, 
			 "cosmo_dispersion_energy": -27.25, 
			 "cosmo_repulsion_energy": 2.07, 
			 "cosmo_total_nonelectrostatic_energy": 11.97, 
			 "SMD_solvation_energy": 6.09 
		},
		"coords": [
			{
				"x": -3.5305182377,
				"y": -3.2937226807,
				"z": 1.794835931,
				"element": "O" 
			},
			{
				"x": -2.9634722738,
				"y": -2.5718405005,
				"z": 0.816190615,
				"element": "C" 
			},
			{
				"x": -3.5097783112,
				"y": -1.6484525658,
				"z": 0.2523976079,
				"element": "O" 
			},
			{
				"x": -1.5673753422,
				"y": -3.0659623129,
				"z": 0.4976959287,
				"element": "C" 
			},
			{
				"x": -0.3041453313,
				"y": -1.7442124705,
				"z": 0.6283703965,
				"element": "S" 
			},
			{
				"x": 0.9941595245,
				"y": -2.3878298232,
				"z": 0.406222072,
				"element": "O" 
			},
			{
				"x": -0.5746398327,
				"y": -1.0163299614,
				"z": 1.8882089231,
				"element": "O" 
			},
			{
				"x": -0.6852187915,
				"y": -0.6253941749,
				"z": -0.755653263,
				"element": "C" 
			},
			{
				"x": 0.0965040653,
				"y": 0.7045748555,
				"z": -0.7898236294,
				"element": "C" 
			},
			{
				"x": 0.4520401434,
				"y": 1.1389115295,
				"z": -1.8735888791,
				"element": "O" 
			},
			{
				"x": 0.2602201667,
				"y": 1.3181066694,
				"z": 0.4183665706,
				"element": "N" 
			},
			{
				"x": 0.8868543599,
				"y": 2.5536662675,
				"z": 0.6886078839,
				"element": "C" 
			},
			{
				"x": 1.3936343605,
				"y": 3.3915259221,
				"z": -0.3162664509,
				"element": "C" 
			},
			{
				"x": 1.986995628,
				"y": 4.5937513402,
				"z": 0.0611514647,
				"element": "C" 
			},
			{
				"x": 2.6782321947,
				"y": 5.7394111454,
				"z": -1.3065003763,
				"element": "Br" 
			},
			{
				"x": 2.0945068588,
				"y": 4.991384317,
				"z": 1.3914819249,
				"element": "C" 
			},
			{
				"x": 1.5848950002,
				"y": 4.1435766152,
				"z": 2.3765919072,
				"element": "C" 
			},
			{
				"x": 0.9859580078,
				"y": 2.9353793306,
				"z": 2.0360702161,
				"element": "C" 
			},
			{
				"x": -4.4173773626,
				"y": -2.9222423182,
				"z": 1.9460376398,
				"element": "H" 
			},
			{
				"x": -1.2304918379,
				"y": -3.8356476147,
				"z": 1.1941770331,
				"element": "H" 
			},
			{
				"x": -1.5244495361,
				"y": -3.4539976747,
				"z": -0.5234452821,
				"element": "H" 
			},
			{
				"x": -0.4511874726,
				"y": -1.16042037,
				"z": -1.6767684176,
				"element": "H" 
			},
			{
				"x": -1.7626407211,
				"y": -0.4384728493,
				"z": -0.6977355874,
				"element": "H" 
			},
			{
				"x": -0.0699864851,
				"y": 0.8024049752,
				"z": 1.2311315352,
				"element": "H" 
			},
			{
				"x": 1.3222935725,
				"y": 3.1006391874,
				"z": -1.3532696396,
				"element": "H" 
			},
			{
				"x": 2.5625515626,
				"y": 5.9337148787,
				"z": 1.6495204628,
				"element": "H" 
			},
			{
				"x": 1.6579793227,
				"y": 4.430085893,
				"z": 3.4213425008,
				"element": "H" 
			},
			{
				"x": 0.5961567682,
				"y": 2.2812923899,
				"z": 2.8112509118,
				"element": "H" 
			}
		],
		 "valence_orbital": [ 
			{
				"type": "occ",
				"energy": -0.29718,
				"method": "rhf"
			},
			{
				"type": "occ",
				"energy": -0.28106,
				"method": "rhf"
			},
			{
				"type": "occ",
				"energy": -0.27418,
				"method": "rhf"
			},
			{
				"type": "occ",
				"energy": -0.24663,
				"method": "rhf"
			},
			{
				"type": "occ",
				"energy": -0.2301,
				"method": "rhf"
			},
			{
				"type": "unocc",
				"energy": -0.04802,
				"method": "rhf"
			},
			{
				"type": "unocc",
				"energy": -0.02944,
				"method": "rhf"
			},
			{
				"type": "unocc",
				"energy": -0.01284,
				"method": "rhf"
			},
			{
				"type": "unocc",
				"energy": 0.01148,
				"method": "rhf"
			},
			{
				"type": "unocc",
				"energy": 0.01912,
				"method": "rhf"
			}
		],
		"cosmo_sigma_profile": { 
			"-0.025": 0.0,
			"-0.024": 0.0,
			"-0.023": 0.0,
			"-0.022": 0.0,
			"-0.021": 0.0,
			"-0.02": 0.309031673808,
			"-0.019": 1.14459584804,
			"-0.018": 0.855458879536,
			"-0.017": 1.10414681361,
			"-0.016": 0.465805771271,
			"-0.015": 0.59647409238,
			"-0.014": 1.23420595993,
			"-0.013": 1.94171197011,
			"-0.012": 3.16765061324,
			"-0.011": 5.06694267744,
			"-0.01": 5.96300308987,
			"-0.009": 6.9035527799,
			"-0.008": 9.76827038046,
			"-0.007": 11.4566273908,
			"-0.006": 13.0430608932,
			"-0.005": 12.1496731315,
			"-0.004": 12.3712144054,
			"-0.003": 12.8508444563,
			"-0.002": 15.5638759739,
			"-0.001": 14.1757649209,
			"0.0": 15.753599411,
			"0.001": 19.1203938024,
			"0.002": 24.8169010782,
			"0.003": 25.3243678674,
			"0.004": 20.5047617611,
			"0.005": 12.707431248,
			"0.006": 5.79660710961,
			"0.007": 7.49002062,
			"0.008": 7.09013013299,
			"0.009": 7.59364609935,
			"0.01": 13.5496838803,
			"0.011": 7.79369325907,
			"0.012": 2.52261034075,
			"0.013": 0.33709410947,
			"0.014": 0.0,
			"0.015": 0.0,
			"0.016": 0.0,
			"0.017": 0.0,
			"0.018": 0.0,
			"0.019": 0.0,
			"0.02": 0.0,
			"0.021": 0.0,
			"0.022": 0.0,
			"0.023": 0.0,
			"0.024": 0.0,
			"0.025": 0.0
		}
	}
}
