{
	 "smiles": "CC(=O)N1CCCC(C1)C(O)=O", 
	 "Tm": 403.15, 
	 "num_atms": 25, 
	 "gaussian": { 
		 "optdone": 1, 
		 "sigma_profile": "yes", 
		 "theory": "DFT", 
		 "functional": "B3LYP", 
		 "basiset": "6-31G**", 
		 "properties": { 
			 "R2extent": 2176.5615, 
			 "electric_dipole_moment_norm": 3.08352441534, 
			 "electric_quadrupole_moment_norm": 10.949485398, 
			 "total_energy": -593.148185499, 
			 "HOMO_LUMO_gap": 0.2402, 
			 "cosmo_polarized_energy": -15.24, 
			 "cosmo_cavitation_energy": 26.66, 
			 "cosmo_dispersion_energy": -19.08, 
			 "cosmo_repulsion_energy": 1.52, 
			 "cosmo_total_nonelectrostatic_energy": 9.1, 
			 "SMD_solvation_energy": 5.3 
		},
		"coords": [
			{
				"x": -2.183795723,
				"y": 2.1741086554,
				"z": -0.3433529479,
				"element": "C" 
			},
			{
				"x": -1.9961613292,
				"y": 0.7064401607,
				"z": 0.0153876099,
				"element": "C" 
			},
			{
				"x": -2.9357824054,
				"y": -0.0810792637,
				"z": -0.0419276244,
				"element": "O" 
			},
			{
				"x": -0.7410461786,
				"y": 0.3063864782,
				"z": 0.4258616614,
				"element": "N" 
			},
			{
				"x": 0.4835020637,
				"y": 1.0984921207,
				"z": 0.3179360394,
				"element": "C" 
			},
			{
				"x": 1.3882948067,
				"y": 0.5551525172,
				"z": -0.7989293045,
				"element": "C" 
			},
			{
				"x": 1.6503665119,
				"y": -0.95041166,
				"z": -0.6231892412,
				"element": "C" 
			},
			{
				"x": 0.3579384692,
				"y": -1.7619408605,
				"z": -0.4053090165,
				"element": "C" 
			},
			{
				"x": -0.510133459,
				"y": -1.1069048733,
				"z": 0.7011412778,
				"element": "C" 
			},
			{
				"x": -0.4621286821,
				"y": -1.9142064871,
				"z": -1.6755861886,
				"element": "C" 
			},
			{
				"x": -1.3377139282,
				"y": -2.9398244781,
				"z": -1.5718540897,
				"element": "O" 
			},
			{
				"x": -0.3834029505,
				"y": -1.222126008,
				"z": -2.6690926626,
				"element": "O" 
			},
			{
				"x": -3.2443983848,
				"y": 2.3232640843,
				"z": -0.5430431512,
				"element": "H" 
			},
			{
				"x": -1.6157132256,
				"y": 2.4437882968,
				"z": -1.2398660471,
				"element": "H" 
			},
			{
				"x": -1.8732552577,
				"y": 2.841036569,
				"z": 0.4671644744,
				"element": "H" 
			},
			{
				"x": 0.2360307235,
				"y": 2.1452052269,
				"z": 0.1422104272,
				"element": "H" 
			},
			{
				"x": 1.0093997434,
				"y": 1.0499643761,
				"z": 1.28347795,
				"element": "H" 
			},
			{
				"x": 2.3386598115,
				"y": 1.102197258,
				"z": -0.7960920807,
				"element": "H" 
			},
			{
				"x": 0.9072041894,
				"y": 0.7247389498,
				"z": -1.766189517,
				"element": "H" 
			},
			{
				"x": 2.1972004884,
				"y": -1.3383619914,
				"z": -1.4883430637,
				"element": "H" 
			},
			{
				"x": 2.2912787264,
				"y": -1.1068724706,
				"z": 0.255073113,
				"element": "H" 
			},
			{
				"x": 0.6045832598,
				"y": -2.7751775612,
				"z": -0.0667710157,
				"element": "H" 
			},
			{
				"x": 0.0234974825,
				"y": -1.1976175075,
				"z": 1.6568716122,
				"element": "H" 
			},
			{
				"x": -1.4790763878,
				"y": -1.597010978,
				"z": 0.7863492764,
				"element": "H" 
			},
			{
				"x": -1.8795483643,
				"y": -2.9215405537,
				"z": -2.3785274908,
				"element": "H" 
			}
		],
		 "valence_orbital": [ 
			{
				"type": "occ",
				"energy": -0.33304,
				"method": "rhf"
			},
			{
				"type": "occ",
				"energy": -0.31531,
				"method": "rhf"
			},
			{
				"type": "occ",
				"energy": -0.27206,
				"method": "rhf"
			},
			{
				"type": "occ",
				"energy": -0.24322,
				"method": "rhf"
			},
			{
				"type": "occ",
				"energy": -0.23292,
				"method": "rhf"
			},
			{
				"type": "unocc",
				"energy": 0.00728,
				"method": "rhf"
			},
			{
				"type": "unocc",
				"energy": 0.02992,
				"method": "rhf"
			},
			{
				"type": "unocc",
				"energy": 0.07835,
				"method": "rhf"
			},
			{
				"type": "unocc",
				"energy": 0.08627,
				"method": "rhf"
			},
			{
				"type": "unocc",
				"energy": 0.10089,
				"method": "rhf"
			}
		],
		"cosmo_sigma_profile": { 
			"-0.025": 0.0,
			"-0.024": 0.0,
			"-0.023": 0.0,
			"-0.022": 0.0,
			"-0.021": 0.0,
			"-0.02": 0.0,
			"-0.019": 0.0,
			"-0.018": 0.560886938746,
			"-0.017": 1.21796846871,
			"-0.016": 0.658153540324,
			"-0.015": 0.632843627579,
			"-0.014": 0.928648511787,
			"-0.013": 0.865898247744,
			"-0.012": 0.255077297884,
			"-0.011": 0.357493306533,
			"-0.01": 1.0019484342,
			"-0.009": 0.845674322468,
			"-0.008": 0.530637108816,
			"-0.007": 0.72383815443,
			"-0.006": 8.1579025528,
			"-0.005": 19.3662785772,
			"-0.004": 22.0076495582,
			"-0.003": 25.9424481202,
			"-0.002": 22.1451660627,
			"-0.001": 17.9369264088,
			"0.0": 13.2982824627,
			"0.001": 7.0313876282,
			"0.002": 6.30173355927,
			"0.003": 6.62559048046,
			"0.004": 5.34419371048,
			"0.005": 4.62277498377,
			"0.006": 5.56356123026,
			"0.007": 4.20903713194,
			"0.008": 5.06288294429,
			"0.009": 3.21890702404,
			"0.01": 4.44336360092,
			"0.011": 4.65260680071,
			"0.012": 4.73820931552,
			"0.013": 2.51537140394,
			"0.014": 4.03574764732,
			"0.015": 1.57312368242,
			"0.016": 0.129084065631,
			"0.017": 0.0,
			"0.018": 0.0,
			"0.019": 0.0,
			"0.02": 0.0,
			"0.021": 0.0,
			"0.022": 0.0,
			"0.023": 0.0,
			"0.024": 0.0,
			"0.025": 0.0
		}
	}
}
