{
	 "smiles": "CC(C)(C)C(O)CO", 
	 "Tm": 311.15, 
	 "num_atms": 22, 
	 "gaussian": { 
		 "optdone": 1, 
		 "sigma_profile": "yes", 
		 "theory": "DFT", 
		 "functional": "B3LYP", 
		 "basiset": "6-31G**", 
		 "properties": { 
			 "R2extent": 1168.4819, 
			 "electric_dipole_moment_norm": 2.04977164338, 
			 "electric_quadrupole_moment_norm": 5.98947012598, 
			 "total_energy": -387.52124243, 
			 "HOMO_LUMO_gap": 0.31692, 
			 "cosmo_polarized_energy": -8.73, 
			 "cosmo_cavitation_energy": 22.63, 
			 "cosmo_dispersion_energy": -16.48, 
			 "cosmo_repulsion_energy": 1.36, 
			 "cosmo_total_nonelectrostatic_energy": 7.51, 
			 "SMD_solvation_energy": 4.14 
		},
		"coords": [
			{
				"x": 0.5086550732,
				"y": 1.1880905215,
				"z": 1.4092451925,
				"element": "C" 
			},
			{
				"x": -0.4466205195,
				"y": 0.2222486597,
				"z": 0.6812702648,
				"element": "C" 
			},
			{
				"x": -1.577165394,
				"y": 1.0351044326,
				"z": 0.0174073169,
				"element": "C" 
			},
			{
				"x": -1.0654412876,
				"y": -0.7676665635,
				"z": 1.687301697,
				"element": "C" 
			},
			{
				"x": 0.2967814469,
				"y": -0.5560914991,
				"z": -0.4358299853,
				"element": "C" 
			},
			{
				"x": 0.8102089396,
				"y": 0.3714120348,
				"z": -1.3810234398,
				"element": "O" 
			},
			{
				"x": 1.4481277762,
				"y": -1.4604503836,
				"z": 0.024968539,
				"element": "C" 
			},
			{
				"x": 2.1426206577,
				"y": -1.9763588865,
				"z": -1.1180195559,
				"element": "O" 
			},
			{
				"x": 1.0164645118,
				"y": 1.837497333,
				"z": 0.6918378857,
				"element": "H" 
			},
			{
				"x": -0.0497706312,
				"y": 1.8172771268,
				"z": 2.1108009893,
				"element": "H" 
			},
			{
				"x": 1.2709251691,
				"y": 0.6548571905,
				"z": 1.9879081666,
				"element": "H" 
			},
			{
				"x": -2.2893889359,
				"y": 0.3757828669,
				"z": -0.492785331,
				"element": "H" 
			},
			{
				"x": -2.1306580761,
				"y": 1.6072437457,
				"z": 0.7702273561,
				"element": "H" 
			},
			{
				"x": -1.1741587043,
				"y": 1.7311843342,
				"z": -0.7217647089,
				"element": "H" 
			},
			{
				"x": -0.3047242612,
				"y": -1.3153716664,
				"z": 2.2537326126,
				"element": "H" 
			},
			{
				"x": -1.6855295062,
				"y": -0.2301948132,
				"z": 2.4126917297,
				"element": "H" 
			},
			{
				"x": -1.7080227539,
				"y": -1.5011270431,
				"z": 1.1854557572,
				"element": "H" 
			},
			{
				"x": -0.4528666363,
				"y": -1.210695206,
				"z": -0.9262675868,
				"element": "H" 
			},
			{
				"x": 1.4974561511,
				"y": -0.1136793835,
				"z": -1.8649859433,
				"element": "H" 
			},
			{
				"x": 2.1938341377,
				"y": -0.8809616934,
				"z": 0.5751015295,
				"element": "H" 
			},
			{
				"x": 1.0931586028,
				"y": -2.2729273656,
				"z": 0.6712262322,
				"element": "H" 
			},
			{
				"x": 1.5644142401,
				"y": -2.6219737417,
				"z": -1.547198718,
				"element": "H" 
			}
		],
		 "valence_orbital": [ 
			{
				"type": "occ",
				"energy": -0.32327,
				"method": "rhf"
			},
			{
				"type": "occ",
				"energy": -0.32071,
				"method": "rhf"
			},
			{
				"type": "occ",
				"energy": -0.31683,
				"method": "rhf"
			},
			{
				"type": "occ",
				"energy": -0.28286,
				"method": "rhf"
			},
			{
				"type": "occ",
				"energy": -0.25538,
				"method": "rhf"
			},
			{
				"type": "unocc",
				"energy": 0.06154,
				"method": "rhf"
			},
			{
				"type": "unocc",
				"energy": 0.0811,
				"method": "rhf"
			},
			{
				"type": "unocc",
				"energy": 0.11971,
				"method": "rhf"
			},
			{
				"type": "unocc",
				"energy": 0.12498,
				"method": "rhf"
			},
			{
				"type": "unocc",
				"energy": 0.13333,
				"method": "rhf"
			}
		],
		"cosmo_sigma_profile": { 
			"-0.025": 0.0,
			"-0.024": 0.0,
			"-0.023": 0.0,
			"-0.022": 0.0,
			"-0.021": 0.0,
			"-0.02": 0.0,
			"-0.019": 0.0,
			"-0.018": 0.0,
			"-0.017": 0.0,
			"-0.016": 0.364400587615,
			"-0.015": 1.20077049203,
			"-0.014": 1.23499122727,
			"-0.013": 0.640327893401,
			"-0.012": 1.39728483918,
			"-0.011": 0.766558167187,
			"-0.01": 1.61390064108,
			"-0.009": 1.25736302986,
			"-0.008": 1.34102743581,
			"-0.007": 2.59211089407,
			"-0.006": 2.19400090813,
			"-0.005": 3.21295112796,
			"-0.004": 9.11629454545,
			"-0.003": 15.2439213077,
			"-0.002": 24.5185959408,
			"-0.001": 18.8039796811,
			"0.0": 17.3860366431,
			"0.001": 21.3670393622,
			"0.002": 17.4764948449,
			"0.003": 3.78991188541,
			"0.004": 2.56961106518,
			"0.005": 3.00445483301,
			"0.006": 2.48394829301,
			"0.007": 2.34770467698,
			"0.008": 2.82238499228,
			"0.009": 2.67829503638,
			"0.01": 2.43593253184,
			"0.011": 2.24489385625,
			"0.012": 2.34807584385,
			"0.013": 3.29903076635,
			"0.014": 1.35867516798,
			"0.015": 0.00885004164122,
			"0.016": 0.0,
			"0.017": 0.0,
			"0.018": 0.0,
			"0.019": 0.0,
			"0.02": 0.0,
			"0.021": 0.0,
			"0.022": 0.0,
			"0.023": 0.0,
			"0.024": 0.0,
			"0.025": 0.0
		}
	}
}
