{
	 "smiles": "CC(O)CC(C)O", 
	 "Tm": 324.15, 
	 "num_atms": 19, 
	 "gaussian": { 
		 "optdone": 1, 
		 "sigma_profile": "yes", 
		 "theory": "DFT", 
		 "functional": "B3LYP", 
		 "basiset": "6-31G**", 
		 "properties": { 
			 "R2extent": 1142.5773, 
			 "electric_dipole_moment_norm": 3.17045388076, 
			 "electric_quadrupole_moment_norm": 5.65567349747, 
			 "total_energy": -348.206520349, 
			 "HOMO_LUMO_gap": 0.31985, 
			 "cosmo_polarized_energy": -10.67, 
			 "cosmo_cavitation_energy": 20.85, 
			 "cosmo_dispersion_energy": -15.34, 
			 "cosmo_repulsion_energy": 1.32, 
			 "cosmo_total_nonelectrostatic_energy": 6.83, 
			 "SMD_solvation_energy": 3.75 
		},
		"coords": [
			{
				"x": -0.3648381643,
				"y": 1.1082534165,
				"z": 1.8500617703,
				"element": "C" 
			},
			{
				"x": 0.095655616,
				"y": -0.0173149121,
				"z": 0.9196855883,
				"element": "C" 
			},
			{
				"x": -1.0290095696,
				"y": -0.6370757987,
				"z": 0.2903248199,
				"element": "O" 
			},
			{
				"x": 1.0255231417,
				"y": 0.4962435183,
				"z": -0.1830038686,
				"element": "C" 
			},
			{
				"x": 1.7613318467,
				"y": -0.5772810935,
				"z": -1.0073207084,
				"element": "C" 
			},
			{
				"x": 0.880871449,
				"y": -1.3117219913,
				"z": -2.010388766,
				"element": "C" 
			},
			{
				"x": 2.8090010741,
				"y": 0.0244701729,
				"z": -1.7739145764,
				"element": "O" 
			},
			{
				"x": -0.8950024944,
				"y": 1.8789044162,
				"z": 1.281356209,
				"element": "H" 
			},
			{
				"x": 0.4823586876,
				"y": 1.573859993,
				"z": 2.3646679776,
				"element": "H" 
			},
			{
				"x": -1.0468725427,
				"y": 0.7236908519,
				"z": 2.6180057061,
				"element": "H" 
			},
			{
				"x": 0.6465695882,
				"y": -0.7653804339,
				"z": 1.517386413,
				"element": "H" 
			},
			{
				"x": -1.602172493,
				"y": -0.9858215693,
				"z": 0.9850686461,
				"element": "H" 
			},
			{
				"x": 0.4584095506,
				"y": 1.1510179584,
				"z": -0.8561896166,
				"element": "H" 
			},
			{
				"x": 1.7867707268,
				"y": 1.1230230617,
				"z": 0.3029228556,
				"element": "H" 
			},
			{
				"x": 2.1908025648,
				"y": -1.3141466032,
				"z": -0.304435634,
				"element": "H" 
			},
			{
				"x": 0.0559764918,
				"y": -1.8142057526,
				"z": -1.5039804835,
				"element": "H" 
			},
			{
				"x": 1.4787434421,
				"y": -2.0423415249,
				"z": -2.562965814,
				"element": "H" 
			},
			{
				"x": 0.4633522933,
				"y": -0.5986901011,
				"z": -2.7289643075,
				"element": "H" 
			},
			{
				"x": 3.4129287913,
				"y": 0.4634163915,
				"z": -1.1609162111,
				"element": "H" 
			}
		],
		 "valence_orbital": [ 
			{
				"type": "occ",
				"energy": -0.3408,
				"method": "rhf"
			},
			{
				"type": "occ",
				"energy": -0.32631,
				"method": "rhf"
			},
			{
				"type": "occ",
				"energy": -0.30721,
				"method": "rhf"
			},
			{
				"type": "occ",
				"energy": -0.26813,
				"method": "rhf"
			},
			{
				"type": "occ",
				"energy": -0.25561,
				"method": "rhf"
			},
			{
				"type": "unocc",
				"energy": 0.06424,
				"method": "rhf"
			},
			{
				"type": "unocc",
				"energy": 0.08805,
				"method": "rhf"
			},
			{
				"type": "unocc",
				"energy": 0.11927,
				"method": "rhf"
			},
			{
				"type": "unocc",
				"energy": 0.12607,
				"method": "rhf"
			},
			{
				"type": "unocc",
				"energy": 0.1315,
				"method": "rhf"
			}
		],
		"cosmo_sigma_profile": { 
			"-0.025": 0.0,
			"-0.024": 0.0,
			"-0.023": 0.0,
			"-0.022": 0.0,
			"-0.021": 0.0,
			"-0.02": 0.0,
			"-0.019": 0.0,
			"-0.018": 0.0,
			"-0.017": 0.0,
			"-0.016": 0.0,
			"-0.015": 0.93896504889,
			"-0.014": 2.31199016925,
			"-0.013": 1.90775782053,
			"-0.012": 1.82274709704,
			"-0.011": 1.78549768551,
			"-0.01": 1.83768774265,
			"-0.009": 1.86384948734,
			"-0.008": 1.73816726099,
			"-0.007": 2.14572100126,
			"-0.006": 2.41839867976,
			"-0.005": 3.53525143115,
			"-0.004": 5.09100320489,
			"-0.003": 18.2307134385,
			"-0.002": 19.3132695607,
			"-0.001": 15.6337900459,
			"0.0": 17.1000338226,
			"0.001": 16.2137267663,
			"0.002": 9.87112401351,
			"0.003": 4.3625451053,
			"0.004": 2.82377108272,
			"0.005": 2.78339082426,
			"0.006": 3.23364043075,
			"0.007": 3.51069541364,
			"0.008": 3.12167696889,
			"0.009": 1.95142090284,
			"0.01": 2.23552491721,
			"0.011": 2.75732199965,
			"0.012": 2.2075146825,
			"0.013": 2.80832744371,
			"0.014": 2.25013226019,
			"0.015": 1.98272635855,
			"0.016": 0.0,
			"0.017": 0.0,
			"0.018": 0.0,
			"0.019": 0.0,
			"0.02": 0.0,
			"0.021": 0.0,
			"0.022": 0.0,
			"0.023": 0.0,
			"0.024": 0.0,
			"0.025": 0.0
		}
	}
}
