{
	 "smiles": "CC1CCC(C)S1", 
	 "Tm": 184.15, 
	 "num_atms": 19, 
	 "gaussian": { 
		 "optdone": 1, 
		 "sigma_profile": "yes", 
		 "theory": "DFT", 
		 "functional": "B3LYP", 
		 "basiset": "6-31G**", 
		 "properties": { 
			 "R2extent": 1562.3273, 
			 "electric_dipole_moment_norm": 2.03485491866, 
			 "electric_quadrupole_moment_norm": 7.32845607956, 
			 "total_energy": -634.076634922, 
			 "HOMO_LUMO_gap": 0.24567, 
			 "cosmo_polarized_energy": -4.27, 
			 "cosmo_cavitation_energy": 21.33, 
			 "cosmo_dispersion_energy": -16.36, 
			 "cosmo_repulsion_energy": 1.33, 
			 "cosmo_total_nonelectrostatic_energy": 6.31, 
			 "SMD_solvation_energy": 2.79 
		},
		"coords": [
			{
				"x": 1.0027830107,
				"y": -0.8936908663,
				"z": -3.1753458987,
				"element": "C" 
			},
			{
				"x": 0.8503462998,
				"y": 0.1811669805,
				"z": -2.0959176808,
				"element": "C" 
			},
			{
				"x": -0.3094342259,
				"y": -0.0856602566,
				"z": -1.1137523305,
				"element": "C" 
			},
			{
				"x": 0.2297922014,
				"y": -0.958162949,
				"z": 0.0243835292,
				"element": "C" 
			},
			{
				"x": 1.5279761602,
				"y": -0.3078281319,
				"z": 0.5181524692,
				"element": "C" 
			},
			{
				"x": 2.4335524825,
				"y": -1.2327979095,
				"z": 1.327975851,
				"element": "C" 
			},
			{
				"x": 2.3716587146,
				"y": 0.3032124963,
				"z": -1.0260360915,
				"element": "S" 
			},
			{
				"x": 0.1281270833,
				"y": -0.8919036559,
				"z": -3.8381324795,
				"element": "H" 
			},
			{
				"x": 1.8907620317,
				"y": -0.7146987774,
				"z": -3.7884496606,
				"element": "H" 
			},
			{
				"x": 1.1006246636,
				"y": -1.8908048465,
				"z": -2.7352677176,
				"element": "H" 
			},
			{
				"x": 0.7207297735,
				"y": 1.1551252312,
				"z": -2.5772925531,
				"element": "H" 
			},
			{
				"x": -0.6673957188,
				"y": 0.8657340683,
				"z": -0.7029972603,
				"element": "H" 
			},
			{
				"x": -1.1534974337,
				"y": -0.556261743,
				"z": -1.6313861934,
				"element": "H" 
			},
			{
				"x": -0.4925016119,
				"y": -1.0550679664,
				"z": 0.8439014829,
				"element": "H" 
			},
			{
				"x": 0.4465403891,
				"y": -1.9695671455,
				"z": -0.3412506678,
				"element": "H" 
			},
			{
				"x": 1.2827676753,
				"y": 0.5748484544,
				"z": 1.1202691241,
				"element": "H" 
			},
			{
				"x": 1.9192208707,
				"y": -1.5607572372,
				"z": 2.2393457146,
				"element": "H" 
			},
			{
				"x": 3.3557609235,
				"y": -0.7280983599,
				"z": 1.6314576493,
				"element": "H" 
			},
			{
				"x": 2.7078867104,
				"y": -2.1179873856,
				"z": 0.7459427135,
				"element": "H" 
			}
		],
		 "valence_orbital": [ 
			{
				"type": "occ",
				"energy": -0.33317,
				"method": "rhf"
			},
			{
				"type": "occ",
				"energy": -0.33051,
				"method": "rhf"
			},
			{
				"type": "occ",
				"energy": -0.31928,
				"method": "rhf"
			},
			{
				"type": "occ",
				"energy": -0.29061,
				"method": "rhf"
			},
			{
				"type": "occ",
				"energy": -0.21086,
				"method": "rhf"
			},
			{
				"type": "unocc",
				"energy": 0.03481,
				"method": "rhf"
			},
			{
				"type": "unocc",
				"energy": 0.07607,
				"method": "rhf"
			},
			{
				"type": "unocc",
				"energy": 0.08737,
				"method": "rhf"
			},
			{
				"type": "unocc",
				"energy": 0.10613,
				"method": "rhf"
			},
			{
				"type": "unocc",
				"energy": 0.11752,
				"method": "rhf"
			}
		],
		"cosmo_sigma_profile": { 
			"-0.025": 0.0,
			"-0.024": 0.0,
			"-0.023": 0.0,
			"-0.022": 0.0,
			"-0.021": 0.0,
			"-0.02": 0.0,
			"-0.019": 0.0,
			"-0.018": 0.0,
			"-0.017": 0.0,
			"-0.016": 0.0,
			"-0.015": 0.0,
			"-0.014": 0.0,
			"-0.013": 0.0,
			"-0.012": 0.0,
			"-0.011": 0.0,
			"-0.01": 0.0,
			"-0.009": 0.0,
			"-0.008": 0.0,
			"-0.007": 0.0,
			"-0.006": 0.0,
			"-0.005": 0.214431695512,
			"-0.004": 8.25757391275,
			"-0.003": 29.0600826993,
			"-0.002": 32.34367614,
			"-0.001": 27.1774056368,
			"0.0": 23.1249699976,
			"0.001": 15.3929463941,
			"0.002": 3.93876575508,
			"0.003": 3.22192256663,
			"0.004": 3.77178287028,
			"0.005": 2.31269613372,
			"0.006": 2.48457660101,
			"0.007": 4.46275446207,
			"0.008": 3.33705998462,
			"0.009": 2.31007148882,
			"0.01": 1.71889802792,
			"0.011": 2.34242521848,
			"0.012": 1.32499088433,
			"0.013": 0.0,
			"0.014": 0.0,
			"0.015": 0.0,
			"0.016": 0.0,
			"0.017": 0.0,
			"0.018": 0.0,
			"0.019": 0.0,
			"0.02": 0.0,
			"0.021": 0.0,
			"0.022": 0.0,
			"0.023": 0.0,
			"0.024": 0.0,
			"0.025": 0.0
		}
	}
}
