{
	 "smiles": "COC(=O)C1CCN(CC1)C1=C2C=CSC2=CC=N1", 
	 "Tm": 357.15, 
	 "num_atms": 35, 
	 "gaussian": { 
		 "optdone": 1, 
		 "sigma_profile": "yes", 
		 "theory": "DFT", 
		 "functional": "B3LYP", 
		 "basiset": "6-31G**", 
		 "properties": { 
			 "R2extent": 7722.1394, 
			 "electric_dipole_moment_norm": 2.8800191857, 
			 "electric_quadrupole_moment_norm": 8.50001438705, 
			 "total_energy": -1201.28061054, 
			 "HOMO_LUMO_gap": 0.16793, 
			 "cosmo_polarized_energy": -11.28, 
			 "cosmo_cavitation_energy": 37.92, 
			 "cosmo_dispersion_energy": -27.87, 
			 "cosmo_repulsion_energy": 2.08, 
			 "cosmo_total_nonelectrostatic_energy": 12.14, 
			 "SMD_solvation_energy": 5.17 
		},
		"coords": [
			{
				"x": 2.7384508474,
				"y": -0.9957014034,
				"z": 3.9752496111,
				"element": "C" 
			},
			{
				"x": 2.6378363123,
				"y": -0.9389662916,
				"z": 2.5431049209,
				"element": "O" 
			},
			{
				"x": 1.8866411185,
				"y": 0.075995638,
				"z": 2.0526865163,
				"element": "C" 
			},
			{
				"x": 1.33268069,
				"y": 0.8865224654,
				"z": 2.7659998328,
				"element": "O" 
			},
			{
				"x": 1.8672731131,
				"y": 0.0559030877,
				"z": 0.5269514963,
				"element": "C" 
			},
			{
				"x": 1.2981829867,
				"y": -1.2746891643,
				"z": -0.0208615794,
				"element": "C" 
			},
			{
				"x": -0.2291345595,
				"y": -1.3630098611,
				"z": 0.1470151905,
				"element": "C" 
			},
			{
				"x": -0.9165103847,
				"y": -0.2114577646,
				"z": -0.452795847,
				"element": "N" 
			},
			{
				"x": -0.4317973661,
				"y": 1.0646163067,
				"z": 0.0936590494,
				"element": "C" 
			},
			{
				"x": 1.086637594,
				"y": 1.2498393349,
				"z": -0.0502045903,
				"element": "C" 
			},
			{
				"x": -1.2969344486,
				"y": -0.2549886879,
				"z": -1.7946284917,
				"element": "C" 
			},
			{
				"x": -2.0907692147,
				"y": -1.3315405527,
				"z": -2.3036570377,
				"element": "C" 
			},
			{
				"x": -2.7173020948,
				"y": -2.4450806536,
				"z": -1.634367306,
				"element": "C" 
			},
			{
				"x": -3.4148711346,
				"y": -3.2482704185,
				"z": -2.479080834,
				"element": "C" 
			},
			{
				"x": -3.3717718912,
				"y": -2.6923980712,
				"z": -4.1379316633,
				"element": "S" 
			},
			{
				"x": -2.3917918512,
				"y": -1.3139583947,
				"z": -3.6827710817,
				"element": "C" 
			},
			{
				"x": -1.9908588872,
				"y": -0.2512721131,
				"z": -4.5038849035,
				"element": "C" 
			},
			{
				"x": -1.3075412961,
				"y": 0.7752362471,
				"z": -3.8735027519,
				"element": "C" 
			},
			{
				"x": -0.9548647538,
				"y": 0.7749285913,
				"z": -2.5740409947,
				"element": "N" 
			},
			{
				"x": 1.7509949881,
				"y": -1.117367709,
				"z": 4.4277446089,
				"element": "H" 
			},
			{
				"x": 3.1919896018,
				"y": -0.0813745637,
				"z": 4.3661012139,
				"element": "H" 
			},
			{
				"x": 3.368217919,
				"y": -1.8583286306,
				"z": 4.1930528266,
				"element": "H" 
			},
			{
				"x": 2.9206945224,
				"y": 0.1192576474,
				"z": 0.2235673036,
				"element": "H" 
			},
			{
				"x": 1.7776901258,
				"y": -2.1256251641,
				"z": 0.4728033073,
				"element": "H" 
			},
			{
				"x": 1.5362211244,
				"y": -1.3373114165,
				"z": -1.0892195928,
				"element": "H" 
			},
			{
				"x": -0.4903383369,
				"y": -1.4013054102,
				"z": 1.2137638682,
				"element": "H" 
			},
			{
				"x": -0.5857749074,
				"y": -2.2870155863,
				"z": -0.3071459143,
				"element": "H" 
			},
			{
				"x": -0.7003137336,
				"y": 1.0844290354,
				"z": 1.1558365116,
				"element": "H" 
			},
			{
				"x": -0.957171437,
				"y": 1.8739994221,
				"z": -0.4125546384,
				"element": "H" 
			},
			{
				"x": 1.3874492596,
				"y": 2.1740303265,
				"z": 0.4529685239,
				"element": "H" 
			},
			{
				"x": 1.3250377394,
				"y": 1.3490934631,
				"z": -1.113669862,
				"element": "H" 
			},
			{
				"x": -2.6770649721,
				"y": -2.6148858657,
				"z": -0.5663285411,
				"element": "H" 
			},
			{
				"x": -3.9769037499,
				"y": -4.1387332502,
				"z": -2.232973507,
				"element": "H" 
			},
			{
				"x": -2.2246407963,
				"y": -0.2114060281,
				"z": -5.5616255927,
				"element": "H" 
			},
			{
				"x": -1.0025421268,
				"y": 1.6528354357,
				"z": -4.440560052,
				"element": "H" 
			}
		],
		 "valence_orbital": [ 
			{
				"type": "occ",
				"energy": -0.27017,
				"method": "rhf"
			},
			{
				"type": "occ",
				"energy": -0.25355,
				"method": "rhf"
			},
			{
				"type": "occ",
				"energy": -0.25093,
				"method": "rhf"
			},
			{
				"type": "occ",
				"energy": -0.24148,
				"method": "rhf"
			},
			{
				"type": "occ",
				"energy": -0.19374,
				"method": "rhf"
			},
			{
				"type": "unocc",
				"energy": -0.02581,
				"method": "rhf"
			},
			{
				"type": "unocc",
				"energy": -0.00569,
				"method": "rhf"
			},
			{
				"type": "unocc",
				"energy": 0.00756,
				"method": "rhf"
			},
			{
				"type": "unocc",
				"energy": 0.02132,
				"method": "rhf"
			},
			{
				"type": "unocc",
				"energy": 0.04298,
				"method": "rhf"
			}
		],
		"cosmo_sigma_profile": { 
			"-0.025": 0.0,
			"-0.024": 0.0,
			"-0.023": 0.0,
			"-0.022": 0.0,
			"-0.021": 0.0,
			"-0.02": 0.0,
			"-0.019": 0.0,
			"-0.018": 0.0,
			"-0.017": 0.0,
			"-0.016": 0.0,
			"-0.015": 0.0,
			"-0.014": 0.0,
			"-0.013": 0.0,
			"-0.012": 0.0,
			"-0.011": 0.0,
			"-0.01": 0.0,
			"-0.009": 0.902409808086,
			"-0.008": 2.42805799631,
			"-0.007": 5.14077943837,
			"-0.006": 12.8094192878,
			"-0.005": 20.0547293524,
			"-0.004": 26.4794843995,
			"-0.003": 35.3704380861,
			"-0.002": 29.5656296794,
			"-0.001": 23.3811759942,
			"0.0": 19.4484147446,
			"0.001": 16.1151447568,
			"0.002": 22.4212744993,
			"0.003": 27.9576129809,
			"0.004": 20.6447165784,
			"0.005": 10.7353119347,
			"0.006": 4.78777700991,
			"0.007": 4.90152147603,
			"0.008": 4.98018681487,
			"0.009": 3.30130498594,
			"0.01": 3.19252325264,
			"0.011": 2.92992585864,
			"0.012": 4.31010304659,
			"0.013": 0.559306724383,
			"0.014": 0.0,
			"0.015": 0.0,
			"0.016": 0.0,
			"0.017": 0.0,
			"0.018": 0.0,
			"0.019": 0.0,
			"0.02": 0.0,
			"0.021": 0.0,
			"0.022": 0.0,
			"0.023": 0.0,
			"0.024": 0.0,
			"0.025": 0.0
		}
	}
}
