{
	 "smiles": "OC(=O)C1=CC(Cl)=CC=C1Cl", 
	 "Tm": 427.15, 
	 "num_atms": 15, 
	 "gaussian": { 
		 "optdone": 1, 
		 "sigma_profile": "yes", 
		 "theory": "DFT", 
		 "functional": "B3LYP", 
		 "basiset": "6-31G**", 
		 "properties": { 
			 "R2extent": 3821.5172, 
			 "electric_dipole_moment_norm": 4.6277296345, 
			 "electric_quadrupole_moment_norm": 14.5670774474, 
			 "total_energy": -1339.99165773, 
			 "HOMO_LUMO_gap": 0.19525, 
			 "cosmo_polarized_energy": -10.48, 
			 "cosmo_cavitation_energy": 23.23, 
			 "cosmo_dispersion_energy": -17.76, 
			 "cosmo_repulsion_energy": 1.41, 
			 "cosmo_total_nonelectrostatic_energy": 6.88, 
			 "SMD_solvation_energy": 4.66 
		},
		"coords": [
			{
				"x": -1.5892627137,
				"y": 4.2026790167,
				"z": -2.108610141,
				"element": "O" 
			},
			{
				"x": -1.0965954533,
				"y": 2.965364105,
				"z": -2.2722860246,
				"element": "C" 
			},
			{
				"x": -1.1192510351,
				"y": 2.4455189641,
				"z": -3.3646305793,
				"element": "O" 
			},
			{
				"x": -0.5139457995,
				"y": 2.2226682409,
				"z": -1.0777615728,
				"element": "C" 
			},
			{
				"x": -0.0565325382,
				"y": 0.9301227404,
				"z": -1.3882785447,
				"element": "C" 
			},
			{
				"x": 0.5047933152,
				"y": 0.1105733023,
				"z": -0.4192428135,
				"element": "C" 
			},
			{
				"x": 1.0592533592,
				"y": -1.4920959552,
				"z": -0.8548847577,
				"element": "Cl" 
			},
			{
				"x": 0.6331047038,
				"y": 0.5483076779,
				"z": 0.8991865781,
				"element": "C" 
			},
			{
				"x": 0.1883618139,
				"y": 1.8237242983,
				"z": 1.2300034489,
				"element": "C" 
			},
			{
				"x": -0.3766377138,
				"y": 2.6474139755,
				"z": 0.2554546637,
				"element": "C" 
			},
			{
				"x": -0.8960007478,
				"y": 4.2436795874,
				"z": 0.8219486954,
				"element": "Cl" 
			},
			{
				"x": -1.5125219196,
				"y": 4.5074123415,
				"z": -1.189418427,
				"element": "H" 
			},
			{
				"x": -0.1596296242,
				"y": 0.6000860065,
				"z": -2.414744221,
				"element": "H" 
			},
			{
				"x": 1.0722145049,
				"y": -0.0941987247,
				"z": 1.6539384241,
				"element": "H" 
			},
			{
				"x": 0.2783498482,
				"y": 2.1855444235,
				"z": 2.2479252713,
				"element": "H" 
			}
		],
		 "valence_orbital": [ 
			{
				"type": "occ",
				"energy": -0.33095,
				"method": "rhf"
			},
			{
				"type": "occ",
				"energy": -0.32273,
				"method": "rhf"
			},
			{
				"type": "occ",
				"energy": -0.29213,
				"method": "rhf"
			},
			{
				"type": "occ",
				"energy": -0.28636,
				"method": "rhf"
			},
			{
				"type": "occ",
				"energy": -0.26879,
				"method": "rhf"
			},
			{
				"type": "unocc",
				"energy": -0.07354,
				"method": "rhf"
			},
			{
				"type": "unocc",
				"energy": -0.04407,
				"method": "rhf"
			},
			{
				"type": "unocc",
				"energy": -0.0126,
				"method": "rhf"
			},
			{
				"type": "unocc",
				"energy": 0.01611,
				"method": "rhf"
			},
			{
				"type": "unocc",
				"energy": 0.03435,
				"method": "rhf"
			}
		],
		"cosmo_sigma_profile": { 
			"-0.025": 0.0,
			"-0.024": 0.0,
			"-0.023": 0.0,
			"-0.022": 0.0,
			"-0.021": 0.0,
			"-0.02": 0.0,
			"-0.019": 0.0,
			"-0.018": 0.0,
			"-0.017": 0.0,
			"-0.016": 0.0,
			"-0.015": 0.0,
			"-0.014": 0.0,
			"-0.013": 0.0,
			"-0.012": 0.357153443465,
			"-0.011": 0.890228252185,
			"-0.01": 1.61635041659,
			"-0.009": 4.40732543496,
			"-0.008": 6.891476245,
			"-0.007": 6.1924179664,
			"-0.006": 7.38221926037,
			"-0.005": 7.30575574164,
			"-0.004": 8.86164772326,
			"-0.003": 10.5916165585,
			"-0.002": 13.3445071171,
			"-0.001": 21.6759422191,
			"0.0": 25.9330483143,
			"0.001": 15.019531739,
			"0.002": 12.9193401781,
			"0.003": 11.5684989656,
			"0.004": 10.0504281126,
			"0.005": 2.60580465616,
			"0.006": 2.00082199511,
			"0.007": 3.22395780099,
			"0.008": 2.48138811296,
			"0.009": 2.9181324126,
			"0.01": 5.68927659272,
			"0.011": 4.74369936735,
			"0.012": 2.732205531,
			"0.013": 0.736321517868,
			"0.014": 0.0,
			"0.015": 0.0,
			"0.016": 0.0,
			"0.017": 0.0,
			"0.018": 0.0,
			"0.019": 0.0,
			"0.02": 0.0,
			"0.021": 0.0,
			"0.022": 0.0,
			"0.023": 0.0,
			"0.024": 0.0,
			"0.025": 0.0
		}
	}
}
