{
	 "smiles": "ClC1=C(Cl)C=C(C=C1)C1=C2C=CC=CC2=C(Cl)N=N1", 
	 "Tm": 493.15, 
	 "num_atms": 26, 
	 "gaussian": { 
		 "optdone": 1, 
		 "sigma_profile": "yes", 
		 "theory": "DFT", 
		 "functional": "B3LYP", 
		 "basiset": "6-31G**", 
		 "properties": { 
			 "R2extent": 9194.0916, 
			 "electric_dipole_moment_norm": 6.39654548252, 
			 "electric_quadrupole_moment_norm": 14.6030716392, 
			 "total_energy": -2027.75781036, 
			 "HOMO_LUMO_gap": 0.16301, 
			 "cosmo_polarized_energy": -13.24, 
			 "cosmo_cavitation_energy": 36.14, 
			 "cosmo_dispersion_energy": -26.88, 
			 "cosmo_repulsion_energy": 2.05, 
			 "cosmo_total_nonelectrostatic_energy": 11.31, 
			 "SMD_solvation_energy": 3.29 
		},
		"coords": [
			{
				"x": -2.8673638571,
				"y": 3.6836179087,
				"z": 2.9599446732,
				"element": "Cl" 
			},
			{
				"x": -1.6168361036,
				"y": 2.8149766747,
				"z": 2.1092268011,
				"element": "C" 
			},
			{
				"x": -0.8870331241,
				"y": 3.4078614851,
				"z": 1.0680631929,
				"element": "C" 
			},
			{
				"x": -1.1905934767,
				"y": 5.052083998,
				"z": 0.5674030201,
				"element": "Cl" 
			},
			{
				"x": 0.1033712963,
				"y": 2.6802761466,
				"z": 0.4111557993,
				"element": "C" 
			},
			{
				"x": 0.3725698186,
				"y": 1.3518891159,
				"z": 0.7649359552,
				"element": "C" 
			},
			{
				"x": -0.3521487735,
				"y": 0.7731758357,
				"z": 1.8178300208,
				"element": "C" 
			},
			{
				"x": -1.3355896764,
				"y": 1.4993681934,
				"z": 2.4827062278,
				"element": "C" 
			},
			{
				"x": 1.468407781,
				"y": 0.6290776423,
				"z": 0.0625218104,
				"element": "C" 
			},
			{
				"x": 1.3486701767,
				"y": -0.7320931956,
				"z": -0.3920188446,
				"element": "C" 
			},
			{
				"x": 0.1556148664,
				"y": -1.4963644861,
				"z": -0.3470649423,
				"element": "C" 
			},
			{
				"x": 0.1430479518,
				"y": -2.7971694581,
				"z": -0.8072715792,
				"element": "C" 
			},
			{
				"x": 1.3139381786,
				"y": -3.3852059162,
				"z": -1.3330583858,
				"element": "C" 
			},
			{
				"x": 2.4818575761,
				"y": -2.6570011298,
				"z": -1.4211355238,
				"element": "C" 
			},
			{
				"x": 2.5136486786,
				"y": -1.318522784,
				"z": -0.965947825,
				"element": "C" 
			},
			{
				"x": 3.6414308394,
				"y": -0.4470951801,
				"z": -1.0704430986,
				"element": "C" 
			},
			{
				"x": 5.1391068819,
				"y": -1.0524700309,
				"z": -1.7628254027,
				"element": "Cl" 
			},
			{
				"x": 3.659142533,
				"y": 0.8042170797,
				"z": -0.7112639924,
				"element": "N" 
			},
			{
				"x": 2.5639098973,
				"y": 1.3465970502,
				"z": -0.1201202356,
				"element": "N" 
			},
			{
				"x": 0.6779745168,
				"y": 3.1494030398,
				"z": -0.3781753112,
				"element": "H" 
			},
			{
				"x": -0.1291904437,
				"y": -0.2365643954,
				"z": 2.1452462748,
				"element": "H" 
			},
			{
				"x": -1.8878441623,
				"y": 1.0559802263,
				"z": 3.3036848613,
				"element": "H" 
			},
			{
				"x": -0.7528707839,
				"y": -1.0465882318,
				"z": 0.0342041931,
				"element": "H" 
			},
			{
				"x": -0.7774085079,
				"y": -3.3720360482,
				"z": -0.7721565648,
				"element": "H" 
			},
			{
				"x": 1.2890832353,
				"y": -4.4117649326,
				"z": -1.6855291572,
				"element": "H" 
			},
			{
				"x": 3.3778046813,
				"y": -3.0925486075,
				"z": -1.8469119665,
				"element": "H" 
			}
		],
		 "valence_orbital": [ 
			{
				"type": "occ",
				"energy": -0.29513,
				"method": "rhf"
			},
			{
				"type": "occ",
				"energy": -0.27403,
				"method": "rhf"
			},
			{
				"type": "occ",
				"energy": -0.26643,
				"method": "rhf"
			},
			{
				"type": "occ",
				"energy": -0.25064,
				"method": "rhf"
			},
			{
				"type": "occ",
				"energy": -0.2475,
				"method": "rhf"
			},
			{
				"type": "unocc",
				"energy": -0.08449,
				"method": "rhf"
			},
			{
				"type": "unocc",
				"energy": -0.06247,
				"method": "rhf"
			},
			{
				"type": "unocc",
				"energy": -0.03827,
				"method": "rhf"
			},
			{
				"type": "unocc",
				"energy": -0.03178,
				"method": "rhf"
			},
			{
				"type": "unocc",
				"energy": -0.00235,
				"method": "rhf"
			}
		],
		"cosmo_sigma_profile": { 
			"-0.025": 0.0,
			"-0.024": 0.0,
			"-0.023": 0.0,
			"-0.022": 0.0,
			"-0.021": 0.0,
			"-0.02": 0.0,
			"-0.019": 0.0,
			"-0.018": 0.0,
			"-0.017": 0.0,
			"-0.016": 0.0,
			"-0.015": 0.0,
			"-0.014": 0.0,
			"-0.013": 0.0,
			"-0.012": 0.0,
			"-0.011": 0.0,
			"-0.01": 0.0,
			"-0.009": 0.151677547876,
			"-0.008": 4.54454625839,
			"-0.007": 14.3302402125,
			"-0.006": 16.1271060541,
			"-0.005": 12.6580525573,
			"-0.004": 12.4931211086,
			"-0.003": 21.2886293452,
			"-0.002": 24.0462247716,
			"-0.001": 26.7885860878,
			"0.0": 33.9689161025,
			"0.001": 34.9392842518,
			"0.002": 26.4393600633,
			"0.003": 22.2229017184,
			"0.004": 21.8519273055,
			"0.005": 7.32247362295,
			"0.006": 2.3778910606,
			"0.007": 1.85022882463,
			"0.008": 2.61277060052,
			"0.009": 1.96983153641,
			"0.01": 2.2735825968,
			"0.011": 1.70720316238,
			"0.012": 2.77951029805,
			"0.013": 2.15447702406,
			"0.014": 2.34692446806,
			"0.015": 0.355081281603,
			"0.016": 0.0,
			"0.017": 0.0,
			"0.018": 0.0,
			"0.019": 0.0,
			"0.02": 0.0,
			"0.021": 0.0,
			"0.022": 0.0,
			"0.023": 0.0,
			"0.024": 0.0,
			"0.025": 0.0
		}
	}
}
