{
	 "smiles": "C1=CC=C(C=C1)P(P(C1=CC=CC=C1)C1=CC=CC=C1)C1=CC=CC=C1", 
	 "Tm": 394.15, 
	 "num_atms": 46, 
	 "gaussian": { 
		 "optdone": 1, 
		 "sigma_profile": "yes", 
		 "theory": "DFT", 
		 "functional": "B3LYP", 
		 "basiset": "6-31G**", 
		 "properties": { 
			 "R2extent": 9567.8433, 
			 "electric_dipole_moment_norm": 2.26858509649, 
			 "electric_quadrupole_moment_norm": 11.3668494857, 
			 "total_energy": -1609.3107925, 
			 "HOMO_LUMO_gap": 0.16478, 
			 "cosmo_polarized_energy": -10.28, 
			 "cosmo_cavitation_energy": 51.12, 
			 "cosmo_dispersion_energy": -34.05, 
			 "cosmo_repulsion_energy": 2.74, 
			 "cosmo_total_nonelectrostatic_energy": 19.82, 
			 "SMD_solvation_energy": 8.34 
		},
		"coords": [
			{
				"x": -0.9687986788,
				"y": 5.0961811191,
				"z": -0.8989543191,
				"element": "C" 
			},
			{
				"x": -1.4987397058,
				"y": 3.834061071,
				"z": -1.1755021112,
				"element": "C" 
			},
			{
				"x": -0.8595766675,
				"y": 2.6845952712,
				"z": -0.7080379496,
				"element": "C" 
			},
			{
				"x": 0.3220009376,
				"y": 2.7788692569,
				"z": 0.0481087726,
				"element": "C" 
			},
			{
				"x": 0.838626641,
				"y": 4.0560427118,
				"z": 0.3235968353,
				"element": "C" 
			},
			{
				"x": 0.2026324989,
				"y": 5.2054630972,
				"z": -0.1489773093,
				"element": "C" 
			},
			{
				"x": 1.2652501479,
				"y": 1.3509928226,
				"z": 0.7504767759,
				"element": "P" 
			},
			{
				"x": -0.4009912662,
				"y": 0.0779382921,
				"z": 1.6059942532,
				"element": "P" 
			},
			{
				"x": -1.2611244989,
				"y": -0.8065726534,
				"z": 0.2238010212,
				"element": "C" 
			},
			{
				"x": -2.640901813,
				"y": -0.5644643788,
				"z": 0.0997553726,
				"element": "C" 
			},
			{
				"x": -3.387252153,
				"y": -1.163505396,
				"z": -0.9172203551,
				"element": "C" 
			},
			{
				"x": -2.7643873913,
				"y": -2.0192169177,
				"z": -1.8264376409,
				"element": "C" 
			},
			{
				"x": -1.3949512213,
				"y": -2.2724869906,
				"z": -1.7138074094,
				"element": "C" 
			},
			{
				"x": -0.6475619958,
				"y": -1.6717686639,
				"z": -0.7004056172,
				"element": "C" 
			},
			{
				"x": 0.6128325444,
				"y": -1.2445466476,
				"z": 2.4207946848,
				"element": "C" 
			},
			{
				"x": 0.2918776799,
				"y": -2.6080991088,
				"z": 2.320705682,
				"element": "C" 
			},
			{
				"x": 0.9936210136,
				"y": -3.5643775974,
				"z": 3.0585462218,
				"element": "C" 
			},
			{
				"x": 2.0279263807,
				"y": -3.1804102366,
				"z": 3.9113933788,
				"element": "C" 
			},
			{
				"x": 2.3484855673,
				"y": -1.826028342,
				"z": 4.0311740493,
				"element": "C" 
			},
			{
				"x": 1.6446279109,
				"y": -0.868453895,
				"z": 3.3022597448,
				"element": "C" 
			},
			{
				"x": 1.9527637044,
				"y": 0.4730580962,
				"z": -0.7246307612,
				"element": "C" 
			},
			{
				"x": 2.9036229822,
				"y": -0.5339160326,
				"z": -0.4684641057,
				"element": "C" 
			},
			{
				"x": 3.499316218,
				"y": -1.2365144045,
				"z": -1.5150878811,
				"element": "C" 
			},
			{
				"x": 3.1767318952,
				"y": -0.9298640649,
				"z": -2.8397551351,
				"element": "C" 
			},
			{
				"x": 2.2530797088,
				"y": 0.0813159002,
				"z": -3.1064065385,
				"element": "C" 
			},
			{
				"x": 1.6416849239,
				"y": 0.7746354047,
				"z": -2.0594883249,
				"element": "C" 
			},
			{
				"x": -1.4685002939,
				"y": 5.9891153623,
				"z": -1.2639509687,
				"element": "H" 
			},
			{
				"x": -2.4126706941,
				"y": 3.7425179253,
				"z": -1.7560044826,
				"element": "H" 
			},
			{
				"x": -1.2843650438,
				"y": 1.712416832,
				"z": -0.9342502908,
				"element": "H" 
			},
			{
				"x": 1.7441805732,
				"y": 4.1469421731,
				"z": 0.9172280755,
				"element": "H" 
			},
			{
				"x": 0.6193243692,
				"y": 6.1836948003,
				"z": 0.0737597441,
				"element": "H" 
			},
			{
				"x": -3.1298649753,
				"y": 0.0970617083,
				"z": 0.8099984494,
				"element": "H" 
			},
			{
				"x": -4.4528193341,
				"y": -0.9659234258,
				"z": -0.9938903644,
				"element": "H" 
			},
			{
				"x": -3.3421696122,
				"y": -2.4889958548,
				"z": -2.6175356767,
				"element": "H" 
			},
			{
				"x": -0.9046436335,
				"y": -2.9371329383,
				"z": -2.419672841,
				"element": "H" 
			},
			{
				"x": 0.4140230165,
				"y": -1.878599552,
				"z": -0.6267102332,
				"element": "H" 
			},
			{
				"x": -0.5093576953,
				"y": -2.9303332588,
				"z": 1.6647177083,
				"element": "H" 
			},
			{
				"x": 0.7282274713,
				"y": -4.6137013206,
				"z": 2.9614762149,
				"element": "H" 
			},
			{
				"x": 2.5747280482,
				"y": -3.925839157,
				"z": 4.4816433736,
				"element": "H" 
			},
			{
				"x": 3.1467524815,
				"y": -1.5112914863,
				"z": 4.6978423729,
				"element": "H" 
			},
			{
				"x": 1.9025186245,
				"y": 0.1804414064,
				"z": 3.4148268222,
				"element": "H" 
			},
			{
				"x": 3.1752034873,
				"y": -0.76846027,
				"z": 0.5570911106,
				"element": "H" 
			},
			{
				"x": 4.2255202756,
				"y": -2.0145604877,
				"z": -1.2963266882,
				"element": "H" 
			},
			{
				"x": 3.6489575207,
				"y": -1.468923167,
				"z": -3.6561669732,
				"element": "H" 
			},
			{
				"x": 2.0020861223,
				"y": 0.3323029933,
				"z": -4.1334896349,
				"element": "H" 
			},
			{
				"x": 0.9251739292,
				"y": 1.5566400041,
				"z": -2.2857170522,
				"element": "H" 
			}
		],
		 "valence_orbital": [ 
			{
				"type": "occ",
				"energy": -0.25047,
				"method": "rhf"
			},
			{
				"type": "occ",
				"energy": -0.24756,
				"method": "rhf"
			},
			{
				"type": "occ",
				"energy": -0.24599,
				"method": "rhf"
			},
			{
				"type": "occ",
				"energy": -0.22307,
				"method": "rhf"
			},
			{
				"type": "occ",
				"energy": -0.20377,
				"method": "rhf"
			},
			{
				"type": "unocc",
				"energy": -0.03899,
				"method": "rhf"
			},
			{
				"type": "unocc",
				"energy": -0.01678,
				"method": "rhf"
			},
			{
				"type": "unocc",
				"energy": -0.01237,
				"method": "rhf"
			},
			{
				"type": "unocc",
				"energy": -0.0067,
				"method": "rhf"
			},
			{
				"type": "unocc",
				"energy": -0.00545,
				"method": "rhf"
			}
		],
		"cosmo_sigma_profile": { 
			"-0.025": 0.0,
			"-0.024": 0.0,
			"-0.023": 0.0,
			"-0.022": 0.0,
			"-0.021": 0.0,
			"-0.02": 0.0,
			"-0.019": 0.0,
			"-0.018": 0.0,
			"-0.017": 0.0,
			"-0.016": 0.0,
			"-0.015": 0.0,
			"-0.014": 0.0,
			"-0.013": 0.0,
			"-0.012": 0.0,
			"-0.011": 0.0,
			"-0.01": 0.0,
			"-0.009": 0.0,
			"-0.008": 0.0,
			"-0.007": 0.324244593912,
			"-0.006": 17.9189057724,
			"-0.005": 31.0844065549,
			"-0.004": 40.4382251606,
			"-0.003": 36.2124486914,
			"-0.002": 31.2399388821,
			"-0.001": 34.2811450905,
			"0.0": 31.4534557783,
			"0.001": 32.3621966331,
			"0.002": 34.4177034451,
			"0.003": 32.9553452789,
			"0.004": 36.8705669059,
			"0.005": 33.5946272849,
			"0.006": 7.98622689452,
			"0.007": 1.65136825293,
			"0.008": 1.64808410072,
			"0.009": 1.25723776476,
			"0.01": 1.29947130946,
			"0.011": 1.04183482656,
			"0.012": 0.800749422547,
			"0.013": 0.162424239413,
			"0.014": 0.0,
			"0.015": 0.0,
			"0.016": 0.0,
			"0.017": 0.0,
			"0.018": 0.0,
			"0.019": 0.0,
			"0.02": 0.0,
			"0.021": 0.0,
			"0.022": 0.0,
			"0.023": 0.0,
			"0.024": 0.0,
			"0.025": 0.0
		}
	}
}
