{
	 "smiles": "CC1(C)[C@@H](C=C(Cl)Cl)[C@H]1C(=O)O[C@@H](C#N)C1=CC=C(F)C(OC2=CC=CC=C2)=C1", 
	 "Tm": 366.65, 
	 "num_atms": 47, 
	 "gaussian": { 
		 "optdone": 1, 
		 "sigma_profile": "yes", 
		 "theory": "DFT", 
		 "functional": "B3LYP", 
		 "basiset": "6-31G**", 
		 "properties": { 
			 "R2extent": 21722.7336, 
			 "electric_dipole_moment_norm": 5.32378388273, 
			 "electric_quadrupole_moment_norm": 25.4870333405, 
			 "total_energy": -2149.75663268, 
			 "HOMO_LUMO_gap": 0.19221, 
			 "cosmo_polarized_energy": -16.22, 
			 "cosmo_cavitation_energy": 56.93, 
			 "cosmo_dispersion_energy": -37.34, 
			 "cosmo_repulsion_energy": 2.9, 
			 "cosmo_total_nonelectrostatic_energy": 22.49, 
			 "SMD_solvation_energy": 11.41 
		},
		"coords": [
			{
				"x": -3.3298156309,
				"y": -2.6561729495,
				"z": 0.128421625,
				"element": "C" 
			},
			{
				"x": -2.7001524702,
				"y": -3.4274583765,
				"z": 1.2759264943,
				"element": "C" 
			},
			{
				"x": -3.4819100298,
				"y": -3.3237184493,
				"z": 2.5766887163,
				"element": "C" 
			},
			{
				"x": -1.9869805656,
				"y": -4.7396406366,
				"z": 1.022126628,
				"element": "C" 
			},
			{
				"x": -1.8564044247,
				"y": -5.3369978579,
				"z": -0.3220494476,
				"element": "C" 
			},
			{
				"x": -2.0920992634,
				"y": -6.6200994718,
				"z": -0.6120514692,
				"element": "C" 
			},
			{
				"x": -2.6028043467,
				"y": -7.813249415,
				"z": 0.5600142072,
				"element": "Cl" 
			},
			{
				"x": -1.9117679525,
				"y": -7.2517411426,
				"z": -2.2282576861,
				"element": "Cl" 
			},
			{
				"x": -1.1771920976,
				"y": -3.4920904454,
				"z": 1.4350992432,
				"element": "C" 
			},
			{
				"x": -0.2545396017,
				"y": -2.8211010302,
				"z": 0.4894613504,
				"element": "C" 
			},
			{
				"x": -0.3595862546,
				"y": -2.7373504909,
				"z": -0.7179636662,
				"element": "O" 
			},
			{
				"x": 0.7934930377,
				"y": -2.278635676,
				"z": 1.1777513051,
				"element": "O" 
			},
			{
				"x": 1.7789130956,
				"y": -1.5243196559,
				"z": 0.4247853992,
				"element": "C" 
			},
			{
				"x": 2.4263280315,
				"y": -2.3471745194,
				"z": -0.6132113518,
				"element": "C" 
			},
			{
				"x": 3.0126659262,
				"y": -2.9704077966,
				"z": -1.3962922845,
				"element": "N" 
			},
			{
				"x": 1.2524561594,
				"y": -0.1923480536,
				"z": -0.083371734,
				"element": "C" 
			},
			{
				"x": 0.8955832841,
				"y": 0.0181536562,
				"z": -1.4185814358,
				"element": "C" 
			},
			{
				"x": 0.4089751482,
				"y": 1.2612750912,
				"z": -1.8233478529,
				"element": "C" 
			},
			{
				"x": 0.2685818811,
				"y": 2.2794553944,
				"z": -0.8909202637,
				"element": "C" 
			},
			{
				"x": -0.2149049725,
				"y": 3.4734254653,
				"z": -1.271380071,
				"element": "F" 
			},
			{
				"x": 0.628220821,
				"y": 2.0920700083,
				"z": 0.4505661369,
				"element": "C" 
			},
			{
				"x": 0.4195906997,
				"y": 3.0605712599,
				"z": 1.4005426439,
				"element": "O" 
			},
			{
				"x": 1.0395024358,
				"y": 4.2977657706,
				"z": 1.2900852449,
				"element": "C" 
			},
			{
				"x": 0.4771271413,
				"y": 5.325446616,
				"z": 2.0494277222,
				"element": "C" 
			},
			{
				"x": 1.0684028627,
				"y": 6.5869711851,
				"z": 2.0364140891,
				"element": "C" 
			},
			{
				"x": 2.2121955655,
				"y": 6.8258440175,
				"z": 1.2698440353,
				"element": "C" 
			},
			{
				"x": 2.7636875229,
				"y": 5.7875705993,
				"z": 0.5187604552,
				"element": "C" 
			},
			{
				"x": 2.185933709,
				"y": 4.5161317423,
				"z": 0.5254493526,
				"element": "C" 
			},
			{
				"x": 1.1231635379,
				"y": 0.8510361702,
				"z": 0.8423268011,
				"element": "C" 
			},
			{
				"x": -3.4875411959,
				"y": -1.6120787899,
				"z": 0.4207148866,
				"element": "H" 
			},
			{
				"x": -2.7183210109,
				"y": -2.6616389027,
				"z": -0.7730709444,
				"element": "H" 
			},
			{
				"x": -4.3085330366,
				"y": -3.086548066,
				"z": -0.1102140551,
				"element": "H" 
			},
			{
				"x": -4.5006864461,
				"y": -3.702991666,
				"z": 2.4395711731,
				"element": "H" 
			},
			{
				"x": -3.5534792128,
				"y": -2.2803803372,
				"z": 2.9040821047,
				"element": "H" 
			},
			{
				"x": -3.0146873201,
				"y": -3.8997640927,
				"z": 3.3814803448,
				"element": "H" 
			},
			{
				"x": -2.0746529494,
				"y": -5.4671626049,
				"z": 1.8234683344,
				"element": "H" 
			},
			{
				"x": -1.5333446259,
				"y": -4.699221538,
				"z": -1.1372140973,
				"element": "H" 
			},
			{
				"x": -0.8062747765,
				"y": -3.4969903221,
				"z": 2.4544435049,
				"element": "H" 
			},
			{
				"x": 2.5424672191,
				"y": -1.3314292894,
				"z": 1.1846001794,
				"element": "H" 
			},
			{
				"x": 0.9869480528,
				"y": -0.7874299898,
				"z": -2.1374513553,
				"element": "H" 
			},
			{
				"x": 0.1202759192,
				"y": 1.4492063657,
				"z": -2.8517135281,
				"element": "H" 
			},
			{
				"x": -0.4129524349,
				"y": 5.1194613905,
				"z": 2.6345139835,
				"element": "H" 
			},
			{
				"x": 0.6297609552,
				"y": 7.3869685544,
				"z": 2.6257054043,
				"element": "H" 
			},
			{
				"x": 2.6682685746,
				"y": 7.81080326,
				"z": 1.2591195529,
				"element": "H" 
			},
			{
				"x": 3.6550814755,
				"y": 5.9602657987,
				"z": -0.0774039846,
				"element": "H" 
			},
			{
				"x": 2.6250429131,
				"y": 3.7087775735,
				"z": -0.0504718168,
				"element": "H" 
			},
			{
				"x": 1.3936646502,
				"y": 0.716441647,
				"z": 1.8852761257,
				"element": "H" 
			}
		],
		 "valence_orbital": [ 
			{
				"type": "occ",
				"energy": -0.27423,
				"method": "rhf"
			},
			{
				"type": "occ",
				"energy": -0.26078,
				"method": "rhf"
			},
			{
				"type": "occ",
				"energy": -0.25814,
				"method": "rhf"
			},
			{
				"type": "occ",
				"energy": -0.242,
				"method": "rhf"
			},
			{
				"type": "occ",
				"energy": -0.23146,
				"method": "rhf"
			},
			{
				"type": "unocc",
				"energy": -0.03925,
				"method": "rhf"
			},
			{
				"type": "unocc",
				"energy": -0.02803,
				"method": "rhf"
			},
			{
				"type": "unocc",
				"energy": -0.02615,
				"method": "rhf"
			},
			{
				"type": "unocc",
				"energy": -0.00887,
				"method": "rhf"
			},
			{
				"type": "unocc",
				"energy": -0.00444,
				"method": "rhf"
			}
		],
		"cosmo_sigma_profile": { 
			"-0.025": 0.0,
			"-0.024": 0.0,
			"-0.023": 0.0,
			"-0.022": 0.0,
			"-0.021": 0.0,
			"-0.02": 0.0,
			"-0.019": 0.0,
			"-0.018": 0.0,
			"-0.017": 0.0,
			"-0.016": 0.0,
			"-0.015": 0.0,
			"-0.014": 0.0,
			"-0.013": 0.0,
			"-0.012": 0.459710688588,
			"-0.011": 3.73153992233,
			"-0.01": 2.12698796205,
			"-0.009": 2.83201403222,
			"-0.008": 4.38076559932,
			"-0.007": 9.09014914126,
			"-0.006": 16.7769880448,
			"-0.005": 20.7825918547,
			"-0.004": 30.5814201675,
			"-0.003": 36.7894818784,
			"-0.002": 37.1596069553,
			"-0.001": 41.1690152335,
			"0.0": 49.0251208755,
			"0.001": 42.2057761747,
			"0.002": 34.5498512599,
			"0.003": 41.5457353523,
			"0.004": 34.4439788386,
			"0.005": 18.0813028592,
			"0.006": 8.66545641411,
			"0.007": 7.31745413598,
			"0.008": 6.33145869557,
			"0.009": 4.50707858012,
			"0.01": 3.23043801099,
			"0.011": 2.18773204,
			"0.012": 1.9266963044,
			"0.013": 0.195065646911,
			"0.014": 0.0,
			"0.015": 0.0,
			"0.016": 0.0,
			"0.017": 0.0,
			"0.018": 0.0,
			"0.019": 0.0,
			"0.02": 0.0,
			"0.021": 0.0,
			"0.022": 0.0,
			"0.023": 0.0,
			"0.024": 0.0,
			"0.025": 0.0
		}
	}
}
