{
	 "smiles": "CN1C=CN=C1SC1=C(N)C=C(F)C=C1", 
	 "Tm": 410.15, 
	 "num_atms": 25, 
	 "gaussian": { 
		 "optdone": 1, 
		 "sigma_profile": "yes", 
		 "theory": "DFT", 
		 "functional": "B3LYP", 
		 "basiset": "6-31G**", 
		 "properties": { 
			 "R2extent": 4199.803, 
			 "electric_dipole_moment_norm": 4.24768942603, 
			 "electric_quadrupole_moment_norm": 15.8260276902, 
			 "total_energy": -1049.36376539, 
			 "HOMO_LUMO_gap": 0.19518, 
			 "cosmo_polarized_energy": -11.95, 
			 "cosmo_cavitation_energy": 30.77, 
			 "cosmo_dispersion_energy": -22.45, 
			 "cosmo_repulsion_energy": 1.68, 
			 "cosmo_total_nonelectrostatic_energy": 10.01, 
			 "SMD_solvation_energy": 5.03 
		},
		"coords": [
			{
				"x": 0.8437717239,
				"y": -1.3729502575,
				"z": 3.9442408936,
				"element": "C" 
			},
			{
				"x": -0.2861651192,
				"y": -0.4977088967,
				"z": 3.6685576516,
				"element": "N" 
			},
			{
				"x": -1.5054984103,
				"y": -0.5429950701,
				"z": 4.3085627224,
				"element": "C" 
			},
			{
				"x": -2.2699776145,
				"y": 0.4473102893,
				"z": 3.7426705525,
				"element": "C" 
			},
			{
				"x": -1.5494827763,
				"y": 1.1116564913,
				"z": 2.784288923,
				"element": "N" 
			},
			{
				"x": -0.3618650389,
				"y": 0.5241891167,
				"z": 2.7498691641,
				"element": "C" 
			},
			{
				"x": 0.970312246,
				"y": 1.0198453075,
				"z": 1.6889328092,
				"element": "S" 
			},
			{
				"x": 0.4745019576,
				"y": 0.4040417734,
				"z": 0.0734369347,
				"element": "C" 
			},
			{
				"x": -0.6119724525,
				"y": 0.9838088748,
				"z": -0.6393486191,
				"element": "C" 
			},
			{
				"x": -1.3976503832,
				"y": 1.9722842028,
				"z": -0.0943559201,
				"element": "N" 
			},
			{
				"x": -0.8405011201,
				"y": 0.5391377221,
				"z": -1.9583399457,
				"element": "C" 
			},
			{
				"x": -0.016572712,
				"y": -0.4194977003,
				"z": -2.5222539912,
				"element": "C" 
			},
			{
				"x": -0.2696704965,
				"y": -0.8142933743,
				"z": -3.7882884907,
				"element": "F" 
			},
			{
				"x": 1.0479899133,
				"y": -0.9994824949,
				"z": -1.8391495498,
				"element": "C" 
			},
			{
				"x": 1.2728177555,
				"y": -0.5719205217,
				"z": -0.5327100281,
				"element": "C" 
			},
			{
				"x": 0.5447952189,
				"y": -2.4189606857,
				"z": 3.8338338215,
				"element": "H" 
			},
			{
				"x": 1.2168832835,
				"y": -1.2107380625,
				"z": 4.9598609272,
				"element": "H" 
			},
			{
				"x": 1.6378406011,
				"y": -1.1488134475,
				"z": 3.2326536899,
				"element": "H" 
			},
			{
				"x": -1.7074442864,
				"y": -1.2556421094,
				"z": 5.0940970447,
				"element": "H" 
			},
			{
				"x": -3.2893939798,
				"y": 0.7203164989,
				"z": 3.9766494803,
				"element": "H" 
			},
			{
				"x": -1.5304231078,
				"y": 1.9621274422,
				"z": 0.9163499702,
				"element": "H" 
			},
			{
				"x": -2.2370008075,
				"y": 2.1910745737,
				"z": -0.6108390322,
				"element": "H" 
			},
			{
				"x": -1.6599359556,
				"y": 0.9443660416,
				"z": -2.543544318,
				"element": "H" 
			},
			{
				"x": 1.6659419777,
				"y": -1.7493893243,
				"z": -2.3180738603,
				"element": "H" 
			},
			{
				"x": 2.0967995828,
				"y": -0.9939663894,
				"z": 0.0340991703,
				"element": "H" 
			}
		],
		 "valence_orbital": [ 
			{
				"type": "occ",
				"energy": -0.2814,
				"method": "rhf"
			},
			{
				"type": "occ",
				"energy": -0.2605,
				"method": "rhf"
			},
			{
				"type": "occ",
				"energy": -0.238,
				"method": "rhf"
			},
			{
				"type": "occ",
				"energy": -0.22884,
				"method": "rhf"
			},
			{
				"type": "occ",
				"energy": -0.20084,
				"method": "rhf"
			},
			{
				"type": "unocc",
				"energy": -0.00566,
				"method": "rhf"
			},
			{
				"type": "unocc",
				"energy": -0.00267,
				"method": "rhf"
			},
			{
				"type": "unocc",
				"energy": 0.01112,
				"method": "rhf"
			},
			{
				"type": "unocc",
				"energy": 0.0438,
				"method": "rhf"
			},
			{
				"type": "unocc",
				"energy": 0.07464,
				"method": "rhf"
			}
		],
		"cosmo_sigma_profile": { 
			"-0.025": 0.0,
			"-0.024": 0.0,
			"-0.023": 0.0,
			"-0.022": 0.0,
			"-0.021": 0.0,
			"-0.02": 0.0,
			"-0.019": 0.0,
			"-0.018": 0.0,
			"-0.017": 0.0,
			"-0.016": 0.0,
			"-0.015": 0.0,
			"-0.014": 0.0,
			"-0.013": 0.604582064327,
			"-0.012": 1.68669079006,
			"-0.011": 1.22365318418,
			"-0.01": 1.87698526138,
			"-0.009": 3.0557571594,
			"-0.008": 3.92006594816,
			"-0.007": 7.59614954007,
			"-0.006": 16.124238989,
			"-0.005": 15.142359921,
			"-0.004": 16.1626313069,
			"-0.003": 18.7888780344,
			"-0.002": 13.0347622109,
			"-0.001": 11.0196535815,
			"0.0": 12.663179352,
			"0.001": 16.1601683855,
			"0.002": 18.7897375093,
			"0.003": 22.3770233226,
			"0.004": 30.7291616074,
			"0.005": 15.6225050563,
			"0.006": 5.86783015621,
			"0.007": 4.18460293184,
			"0.008": 3.67279230792,
			"0.009": 3.16588953253,
			"0.01": 1.64560638009,
			"0.011": 1.5775913882,
			"0.012": 1.23459601221,
			"0.013": 0.624306022024,
			"0.014": 0.0106707246829,
			"0.015": 0.0,
			"0.016": 0.0,
			"0.017": 0.0,
			"0.018": 0.0,
			"0.019": 0.0,
			"0.02": 0.0,
			"0.021": 0.0,
			"0.022": 0.0,
			"0.023": 0.0,
			"0.024": 0.0,
			"0.025": 0.0
		}
	}
}
