{
	 "smiles": "OCCSC1=CC=C(C=C1)[N+]([O-])=O", 
	 "Tm": 333.65, 
	 "num_atms": 22, 
	 "gaussian": { 
		 "optdone": 1, 
		 "sigma_profile": "yes", 
		 "theory": "DFT", 
		 "functional": "B3LYP", 
		 "basiset": "6-31G**", 
		 "properties": { 
			 "R2extent": 4036.8281, 
			 "electric_dipole_moment_norm": 7.08027857856, 
			 "electric_quadrupole_moment_norm": 13.0236220012, 
			 "total_energy": -988.773896946, 
			 "HOMO_LUMO_gap": 0.14882, 
			 "cosmo_polarized_energy": -13.3, 
			 "cosmo_cavitation_energy": 27.95, 
			 "cosmo_dispersion_energy": -21.09, 
			 "cosmo_repulsion_energy": 1.64, 
			 "cosmo_total_nonelectrostatic_energy": 8.5, 
			 "SMD_solvation_energy": 6.87 
		},
		"coords": [
			{
				"x": 2.2817364765,
				"y": -1.4574513746,
				"z": -0.6281674081,
				"element": "O" 
			},
			{
				"x": 2.5426957386,
				"y": -1.2052636181,
				"z": -1.9995927033,
				"element": "C" 
			},
			{
				"x": 1.8723070211,
				"y": 0.1007015931,
				"z": -2.4046789654,
				"element": "C" 
			},
			{
				"x": 0.0371595526,
				"y": 0.0395517208,
				"z": -2.5447859706,
				"element": "S" 
			},
			{
				"x": -0.5792919468,
				"y": 0.7431906664,
				"z": -1.0299413165,
				"element": "C" 
			},
			{
				"x": 0.0849188229,
				"y": 0.6620360843,
				"z": 0.2052411095,
				"element": "C" 
			},
			{
				"x": -0.4861358253,
				"y": 1.2300999441,
				"z": 1.3399255179,
				"element": "C" 
			},
			{
				"x": -1.7288431103,
				"y": 1.8537181191,
				"z": 1.2417680822,
				"element": "C" 
			},
			{
				"x": -2.4157819664,
				"y": 1.9265526186,
				"z": 0.0296929116,
				"element": "C" 
			},
			{
				"x": -1.8331894278,
				"y": 1.3780650324,
				"z": -1.1052881142,
				"element": "C" 
			},
			{
				"x": -2.3302581747,
				"y": 2.444362656,
				"z": 2.4400556248,
				"element": "N" 
			},
			{
				"x": -1.6983800642,
				"y": 2.3703852286,
				"z": 3.495348206,
				"element": "O" 
			},
			{
				"x": -3.4334338273,
				"y": 2.9808555508,
				"z": 2.3229586263,
				"element": "O" 
			},
			{
				"x": 2.4961309147,
				"y": -2.3767101573,
				"z": -0.4310179453,
				"element": "H" 
			},
			{
				"x": 2.1744498756,
				"y": -2.0203387393,
				"z": -2.6383409448,
				"element": "H" 
			},
			{
				"x": 3.6255447097,
				"y": -1.100400306,
				"z": -2.1813188156,
				"element": "H" 
			},
			{
				"x": 2.1462068303,
				"y": 0.9069364741,
				"z": -1.7192219949,
				"element": "H" 
			},
			{
				"x": 2.2176804343,
				"y": 0.3830639572,
				"z": -3.4038346859,
				"element": "H" 
			},
			{
				"x": 1.0251535248,
				"y": 0.1293279613,
				"z": 0.281560435,
				"element": "H" 
			},
			{
				"x": 0.0080758898,
				"y": 1.1817202336,
				"z": 2.3023954103,
				"element": "H" 
			},
			{
				"x": -3.3775622672,
				"y": 2.4224288533,
				"z": -0.0092990078,
				"element": "H" 
			},
			{
				"x": -2.3429831809,
				"y": 1.4526675017,
				"z": -2.0606580513,
				"element": "H" 
			}
		],
		 "valence_orbital": [ 
			{
				"type": "occ",
				"energy": -0.29841,
				"method": "rhf"
			},
			{
				"type": "occ",
				"energy": -0.29305,
				"method": "rhf"
			},
			{
				"type": "occ",
				"energy": -0.28124,
				"method": "rhf"
			},
			{
				"type": "occ",
				"energy": -0.2722,
				"method": "rhf"
			},
			{
				"type": "occ",
				"energy": -0.23006,
				"method": "rhf"
			},
			{
				"type": "unocc",
				"energy": -0.08124,
				"method": "rhf"
			},
			{
				"type": "unocc",
				"energy": -0.02237,
				"method": "rhf"
			},
			{
				"type": "unocc",
				"energy": 0.00182,
				"method": "rhf"
			},
			{
				"type": "unocc",
				"energy": 0.02945,
				"method": "rhf"
			},
			{
				"type": "unocc",
				"energy": 0.05318,
				"method": "rhf"
			}
		],
		"cosmo_sigma_profile": { 
			"-0.025": 0.0,
			"-0.024": 0.0,
			"-0.023": 0.0,
			"-0.022": 0.0,
			"-0.021": 0.0,
			"-0.02": 0.0,
			"-0.019": 0.0,
			"-0.018": 0.0,
			"-0.017": 0.154088138867,
			"-0.016": 1.02682084843,
			"-0.015": 1.05742945696,
			"-0.014": 0.956054660291,
			"-0.013": 0.974109183686,
			"-0.012": 0.833417036658,
			"-0.011": 1.02108259175,
			"-0.01": 0.774535469097,
			"-0.009": 0.72452912413,
			"-0.008": 2.13601677172,
			"-0.007": 8.71600846375,
			"-0.006": 11.9669565915,
			"-0.005": 17.7316507248,
			"-0.004": 18.1568504505,
			"-0.003": 15.7379843282,
			"-0.002": 13.1268051774,
			"-0.001": 13.5338512538,
			"0.0": 12.8673166634,
			"0.001": 15.4891732448,
			"0.002": 18.6684208764,
			"0.003": 9.38432667827,
			"0.004": 8.13048037216,
			"0.005": 7.65499814541,
			"0.006": 8.43839072403,
			"0.007": 9.91594875297,
			"0.008": 12.6648625977,
			"0.009": 6.65647219488,
			"0.01": 4.17133811195,
			"0.011": 1.21913095157,
			"0.012": 0.426006955738,
			"0.013": 0.039361124226,
			"0.014": 0.0,
			"0.015": 0.0,
			"0.016": 0.0,
			"0.017": 0.0,
			"0.018": 0.0,
			"0.019": 0.0,
			"0.02": 0.0,
			"0.021": 0.0,
			"0.022": 0.0,
			"0.023": 0.0,
			"0.024": 0.0,
			"0.025": 0.0
		}
	}
}
