{
	 "smiles": "CC1=NC2=NC(S)=NN2C(C)=C1CC(O)=O", 
	 "Tm": 500.15, 
	 "num_atms": 26, 
	 "gaussian": { 
		 "optdone": 1, 
		 "sigma_profile": "yes", 
		 "theory": "DFT", 
		 "functional": "B3LYP", 
		 "basiset": "6-31G**", 
		 "properties": { 
			 "R2extent": 5276.3274, 
			 "electric_dipole_moment_norm": 2.65396695345, 
			 "electric_quadrupole_moment_norm": 31.8395625911, 
			 "total_energy": -1116.62564013, 
			 "HOMO_LUMO_gap": 0.17209, 
			 "cosmo_polarized_energy": -24.3, 
			 "cosmo_cavitation_energy": 33.52, 
			 "cosmo_dispersion_energy": -23.55, 
			 "cosmo_repulsion_energy": 1.79, 
			 "cosmo_total_nonelectrostatic_energy": 11.76, 
			 "SMD_solvation_energy": 1.81 
		},
		"coords": [
			{
				"x": -0.4332613283,
				"y": -2.2294157272,
				"z": 1.436500636,
				"element": "C" 
			},
			{
				"x": 0.4144808375,
				"y": -1.1736154204,
				"z": 0.769297317,
				"element": "C" 
			},
			{
				"x": 1.7181612317,
				"y": -1.4143212475,
				"z": 0.7397087336,
				"element": "N" 
			},
			{
				"x": 2.5010601177,
				"y": -0.5002493449,
				"z": 0.1535938859,
				"element": "C" 
			},
			{
				"x": 3.8227292588,
				"y": -0.4912037408,
				"z": -0.0101931682,
				"element": "N" 
			},
			{
				"x": 4.0341897921,
				"y": 0.6672512399,
				"z": -0.6719699039,
				"element": "C" 
			},
			{
				"x": 5.665611594,
				"y": 1.1450346877,
				"z": -1.1281547815,
				"element": "S" 
			},
			{
				"x": 2.9589836704,
				"y": 1.4177452772,
				"z": -0.9565761321,
				"element": "N" 
			},
			{
				"x": 1.9655043143,
				"y": 0.6585963704,
				"z": -0.4187030415,
				"element": "N" 
			},
			{
				"x": 0.6343808699,
				"y": 0.9423348357,
				"z": -0.4155390363,
				"element": "C" 
			},
			{
				"x": 0.229782986,
				"y": 2.2207319082,
				"z": -1.08060171,
				"element": "C" 
			},
			{
				"x": -0.1882600361,
				"y": 0.0072565557,
				"z": 0.2059320036,
				"element": "C" 
			},
			{
				"x": -1.6806416794,
				"y": 0.2355420692,
				"z": 0.3063720107,
				"element": "C" 
			},
			{
				"x": -2.5536131733,
				"y": -0.2884580376,
				"z": -0.8497506032,
				"element": "C" 
			},
			{
				"x": -1.9636442671,
				"y": -1.1300737083,
				"z": -1.7300971061,
				"element": "O" 
			},
			{
				"x": -3.7153328106,
				"y": 0.0091549884,
				"z": -0.9567379959,
				"element": "O" 
			},
			{
				"x": 0.2025396613,
				"y": -3.0736389985,
				"z": 1.7028076803,
				"element": "H" 
			},
			{
				"x": -1.2375297166,
				"y": -2.5803891142,
				"z": 0.7807862227,
				"element": "H" 
			},
			{
				"x": -0.9025285622,
				"y": -1.8462922006,
				"z": 2.3505477122,
				"element": "H" 
			},
			{
				"x": 5.2812396554,
				"y": 2.2945156363,
				"z": -1.7166876785,
				"element": "H" 
			},
			{
				"x": -0.8518914187,
				"y": 2.3283720337,
				"z": -1.1399718085,
				"element": "H" 
			},
			{
				"x": 0.6505893897,
				"y": 2.2611578629,
				"z": -2.0897753436,
				"element": "H" 
			},
			{
				"x": 0.6478173207,
				"y": 3.0754012453,
				"z": -0.5375240881,
				"element": "H" 
			},
			{
				"x": -2.0756467929,
				"y": -0.2387964447,
				"z": 1.2094803873,
				"element": "H" 
			},
			{
				"x": -1.9221961836,
				"y": 1.2950498466,
				"z": 0.4118179155,
				"element": "H" 
			},
			{
				"x": -1.0188247307,
				"y": -1.2104905725,
				"z": -1.5243621073,
				"element": "H" 
			}
		],
		 "valence_orbital": [ 
			{
				"type": "occ",
				"energy": -0.29794,
				"method": "rhf"
			},
			{
				"type": "occ",
				"energy": -0.29111,
				"method": "rhf"
			},
			{
				"type": "occ",
				"energy": -0.28257,
				"method": "rhf"
			},
			{
				"type": "occ",
				"energy": -0.2637,
				"method": "rhf"
			},
			{
				"type": "occ",
				"energy": -0.24502,
				"method": "rhf"
			},
			{
				"type": "unocc",
				"energy": -0.07293,
				"method": "rhf"
			},
			{
				"type": "unocc",
				"energy": -0.04044,
				"method": "rhf"
			},
			{
				"type": "unocc",
				"energy": -0.00435,
				"method": "rhf"
			},
			{
				"type": "unocc",
				"energy": 0.012,
				"method": "rhf"
			},
			{
				"type": "unocc",
				"energy": 0.03308,
				"method": "rhf"
			}
		],
		"cosmo_sigma_profile": { 
			"-0.025": 0.0,
			"-0.024": 0.0,
			"-0.023": 0.0,
			"-0.022": 0.0,
			"-0.021": 0.0,
			"-0.02": 0.0,
			"-0.019": 0.0,
			"-0.018": 0.0,
			"-0.017": 0.0,
			"-0.016": 0.0,
			"-0.015": 0.254465820487,
			"-0.014": 1.00776242545,
			"-0.013": 1.07672875313,
			"-0.012": 1.61387159639,
			"-0.011": 2.90621954149,
			"-0.01": 3.14175418089,
			"-0.009": 4.48175112335,
			"-0.008": 8.3037826451,
			"-0.007": 11.043301444,
			"-0.006": 17.0526830844,
			"-0.005": 17.4494661156,
			"-0.004": 27.0627521502,
			"-0.003": 24.7299508206,
			"-0.002": 16.4199944401,
			"-0.001": 13.7687114173,
			"0.0": 9.33286954008,
			"0.001": 10.3958963591,
			"0.002": 10.9535921639,
			"0.003": 11.3382139171,
			"0.004": 10.4682535109,
			"0.005": 8.579678726,
			"0.006": 7.95288005078,
			"0.007": 7.15332323972,
			"0.008": 5.79037398136,
			"0.009": 7.46852805372,
			"0.01": 7.72353402518,
			"0.011": 7.69744824787,
			"0.012": 7.94193356138,
			"0.013": 3.48237559362,
			"0.014": 1.84443339545,
			"0.015": 1.00437071742,
			"0.016": 0.0595520397779,
			"0.017": 0.0,
			"0.018": 0.0,
			"0.019": 0.0,
			"0.02": 0.0,
			"0.021": 0.0,
			"0.022": 0.0,
			"0.023": 0.0,
			"0.024": 0.0,
			"0.025": 0.0
		}
	}
}
