{
	 "smiles": "FCC(=O)C1=CC=CC=C1", 
	 "Tm": 302.15, 
	 "num_atms": 17, 
	 "gaussian": { 
		 "optdone": 1, 
		 "sigma_profile": "yes", 
		 "theory": "DFT", 
		 "functional": "B3LYP", 
		 "basiset": "6-31G**", 
		 "properties": { 
			 "R2extent": 2347.7596, 
			 "electric_dipole_moment_norm": 2.02555381069, 
			 "electric_quadrupole_moment_norm": 8.60191746938, 
			 "total_energy": -484.11826937, 
			 "HOMO_LUMO_gap": 0.19222, 
			 "cosmo_polarized_energy": -7.09, 
			 "cosmo_cavitation_energy": 21.41, 
			 "cosmo_dispersion_energy": -15.82, 
			 "cosmo_repulsion_energy": 1.26, 
			 "cosmo_total_nonelectrostatic_energy": 6.86, 
			 "SMD_solvation_energy": 4.81 
		},
		"coords": [
			{
				"x": 0.3574072063,
				"y": 3.5999464724,
				"z": 1.5316481052,
				"element": "F" 
			},
			{
				"x": -0.9397190758,
				"y": 3.2075490411,
				"z": 1.2214052949,
				"element": "C" 
			},
			{
				"x": -1.2893229822,
				"y": 1.772190835,
				"z": 1.6269236978,
				"element": "C" 
			},
			{
				"x": -2.4639363897,
				"y": 1.559649345,
				"z": 1.8930468354,
				"element": "O" 
			},
			{
				"x": -0.2760151055,
				"y": 0.6778488717,
				"z": 1.6178117036,
				"element": "C" 
			},
			{
				"x": 1.0498679422,
				"y": 0.845560243,
				"z": 1.1831771956,
				"element": "C" 
			},
			{
				"x": 1.9219679445,
				"y": -0.2427921039,
				"z": 1.1692557085,
				"element": "C" 
			},
			{
				"x": 1.4877799864,
				"y": -1.4985412536,
				"z": 1.5969069454,
				"element": "C" 
			},
			{
				"x": 0.1711110656,
				"y": -1.671635373,
				"z": 2.0364806132,
				"element": "C" 
			},
			{
				"x": -0.7046562058,
				"y": -0.5921283577,
				"z": 2.0435184155,
				"element": "C" 
			},
			{
				"x": -1.0830210924,
				"y": 3.3057850893,
				"z": 0.1364101147,
				"element": "H" 
			},
			{
				"x": -1.6444201057,
				"y": 3.8712352472,
				"z": 1.7298951779,
				"element": "H" 
			},
			{
				"x": 1.3972177834,
				"y": 1.8191721661,
				"z": 0.8637754045,
				"element": "H" 
			},
			{
				"x": 2.94411015,
				"y": -0.1078201334,
				"z": 0.8280633599,
				"element": "H" 
			},
			{
				"x": 2.1728854701,
				"y": -2.3416775931,
				"z": 1.588625549,
				"element": "H" 
			},
			{
				"x": -0.1680479802,
				"y": -2.6482093881,
				"z": 2.369350068,
				"element": "H" 
			},
			{
				"x": -1.733108611,
				"y": -0.702633108,
				"z": 2.3704058109,
				"element": "H" 
			}
		],
		 "valence_orbital": [ 
			{
				"type": "occ",
				"energy": -0.34932,
				"method": "rhf"
			},
			{
				"type": "occ",
				"energy": -0.33876,
				"method": "rhf"
			},
			{
				"type": "occ",
				"energy": -0.26382,
				"method": "rhf"
			},
			{
				"type": "occ",
				"energy": -0.26127,
				"method": "rhf"
			},
			{
				"type": "occ",
				"energy": -0.2573,
				"method": "rhf"
			},
			{
				"type": "unocc",
				"energy": -0.06508,
				"method": "rhf"
			},
			{
				"type": "unocc",
				"energy": -0.01057,
				"method": "rhf"
			},
			{
				"type": "unocc",
				"energy": 0.03034,
				"method": "rhf"
			},
			{
				"type": "unocc",
				"energy": 0.08862,
				"method": "rhf"
			},
			{
				"type": "unocc",
				"energy": 0.10791,
				"method": "rhf"
			}
		],
		"cosmo_sigma_profile": { 
			"-0.025": 0.0,
			"-0.024": 0.0,
			"-0.023": 0.0,
			"-0.022": 0.0,
			"-0.021": 0.0,
			"-0.02": 0.0,
			"-0.019": 0.0,
			"-0.018": 0.0,
			"-0.017": 0.0,
			"-0.016": 0.0,
			"-0.015": 0.0,
			"-0.014": 0.0,
			"-0.013": 0.0,
			"-0.012": 0.0,
			"-0.011": 0.0,
			"-0.01": 0.0,
			"-0.009": 0.991670280671,
			"-0.008": 3.35922847975,
			"-0.007": 5.83017371089,
			"-0.006": 11.448615959,
			"-0.005": 16.1405112312,
			"-0.004": 14.2038140593,
			"-0.003": 10.4696477385,
			"-0.002": 9.89584497555,
			"-0.001": 9.14994985916,
			"0.0": 9.78732772973,
			"0.001": 11.7956709446,
			"0.002": 12.5244646071,
			"0.003": 15.1594893147,
			"0.004": 15.5327392753,
			"0.005": 7.9380766732,
			"0.006": 3.52009036079,
			"0.007": 1.78756972447,
			"0.008": 1.8406189476,
			"0.009": 1.35996789871,
			"0.01": 2.880702534,
			"0.011": 3.55211968561,
			"0.012": 2.44003893316,
			"0.013": 0.0976006719614,
			"0.014": 0.0,
			"0.015": 0.0,
			"0.016": 0.0,
			"0.017": 0.0,
			"0.018": 0.0,
			"0.019": 0.0,
			"0.02": 0.0,
			"0.021": 0.0,
			"0.022": 0.0,
			"0.023": 0.0,
			"0.024": 0.0,
			"0.025": 0.0
		}
	}
}
