{
	 "smiles": "COCCOC1=NC(C(O)=O)=C(Cl)C=C1", 
	 "Tm": 363.15, 
	 "num_atms": 25, 
	 "gaussian": { 
		 "optdone": 1, 
		 "sigma_profile": "yes", 
		 "theory": "DFT", 
		 "functional": "B3LYP", 
		 "basiset": "6-31G**", 
		 "properties": { 
			 "R2extent": 4883.2779, 
			 "electric_dipole_moment_norm": 5.90474756615, 
			 "electric_quadrupole_moment_norm": 26.8666069333, 
			 "total_energy": -1164.80704734, 
			 "HOMO_LUMO_gap": 0.17424, 
			 "cosmo_polarized_energy": -16.16, 
			 "cosmo_cavitation_energy": 30.94, 
			 "cosmo_dispersion_energy": -22.03, 
			 "cosmo_repulsion_energy": 1.74, 
			 "cosmo_total_nonelectrostatic_energy": 10.64, 
			 "SMD_solvation_energy": 6.93 
		},
		"coords": [
			{
				"x": 1.910338958,
				"y": 1.9741375008,
				"z": 1.563516931,
				"element": "C" 
			},
			{
				"x": 2.1255280169,
				"y": 1.0925264873,
				"z": 0.4747680082,
				"element": "O" 
			},
			{
				"x": 1.7976501644,
				"y": 1.6213681245,
				"z": -0.7914831872,
				"element": "C" 
			},
			{
				"x": 0.3061525713,
				"y": 1.5796000069,
				"z": -1.1198347219,
				"element": "C" 
			},
			{
				"x": -0.1481833135,
				"y": 0.2173133897,
				"z": -1.1829603669,
				"element": "O" 
			},
			{
				"x": -0.7313917294,
				"y": -0.3518256641,
				"z": -0.1106324139,
				"element": "C" 
			},
			{
				"x": -1.1580560277,
				"y": 0.3733904832,
				"z": 0.9103677545,
				"element": "N" 
			},
			{
				"x": -1.7588798772,
				"y": -0.218696413,
				"z": 1.9690529697,
				"element": "C" 
			},
			{
				"x": -2.1623976849,
				"y": 0.7564897209,
				"z": 3.0583532023,
				"element": "C" 
			},
			{
				"x": -1.9196036128,
				"y": 2.0390678193,
				"z": 2.7230965289,
				"element": "O" 
			},
			{
				"x": -2.6447302859,
				"y": 0.4448189571,
				"z": 4.1196317047,
				"element": "O" 
			},
			{
				"x": -1.9594071103,
				"y": -1.5982724985,
				"z": 2.0084362923,
				"element": "C" 
			},
			{
				"x": -2.7269775629,
				"y": -2.4387429502,
				"z": 3.3262764964,
				"element": "Cl" 
			},
			{
				"x": -1.5198810274,
				"y": -2.364047368,
				"z": 0.9122156572,
				"element": "C" 
			},
			{
				"x": -0.9007898498,
				"y": -1.7507375088,
				"z": -0.1561128225,
				"element": "C" 
			},
			{
				"x": 2.4069534898,
				"y": 2.942673909,
				"z": 1.4007793599,
				"element": "H" 
			},
			{
				"x": 2.3463192839,
				"y": 1.4984055418,
				"z": 2.4448113033,
				"element": "H" 
			},
			{
				"x": 0.8447873733,
				"y": 2.1505556654,
				"z": 1.7620648279,
				"element": "H" 
			},
			{
				"x": 2.1478398646,
				"y": 2.6626055147,
				"z": -0.8959290392,
				"element": "H" 
			},
			{
				"x": 2.3331947426,
				"y": 1.009071357,
				"z": -1.5245875862,
				"element": "H" 
			},
			{
				"x": 0.1409505952,
				"y": 1.9914479004,
				"z": -2.1199607789,
				"element": "H" 
			},
			{
				"x": -0.2917818707,
				"y": 2.1463268292,
				"z": -0.4046451674,
				"element": "H" 
			},
			{
				"x": -1.5436888485,
				"y": 2.012024694,
				"z": 1.8194727238,
				"element": "H" 
			},
			{
				"x": -1.6696830703,
				"y": -3.4381727893,
				"z": 0.9237950439,
				"element": "H" 
			},
			{
				"x": -0.5417631887,
				"y": -2.3080287091,
				"z": -1.01319272,
				"element": "H" 
			}
		],
		 "valence_orbital": [ 
			{
				"type": "occ",
				"energy": -0.31157,
				"method": "rhf"
			},
			{
				"type": "occ",
				"energy": -0.30747,
				"method": "rhf"
			},
			{
				"type": "occ",
				"energy": -0.27385,
				"method": "rhf"
			},
			{
				"type": "occ",
				"energy": -0.26196,
				"method": "rhf"
			},
			{
				"type": "occ",
				"energy": -0.24639,
				"method": "rhf"
			},
			{
				"type": "unocc",
				"energy": -0.07215,
				"method": "rhf"
			},
			{
				"type": "unocc",
				"energy": -0.03414,
				"method": "rhf"
			},
			{
				"type": "unocc",
				"energy": 0.02301,
				"method": "rhf"
			},
			{
				"type": "unocc",
				"energy": 0.04864,
				"method": "rhf"
			},
			{
				"type": "unocc",
				"energy": 0.06469,
				"method": "rhf"
			}
		],
		"cosmo_sigma_profile": { 
			"-0.025": 0.0,
			"-0.024": 0.0,
			"-0.023": 0.0,
			"-0.022": 0.0,
			"-0.021": 0.0,
			"-0.02": 0.0,
			"-0.019": 0.0,
			"-0.018": 0.0,
			"-0.017": 0.0,
			"-0.016": 0.0,
			"-0.015": 0.0,
			"-0.014": 0.0,
			"-0.013": 0.0,
			"-0.012": 0.0168084359196,
			"-0.011": 0.905509036355,
			"-0.01": 1.90280534879,
			"-0.009": 4.00517656305,
			"-0.008": 5.93514258943,
			"-0.007": 6.53328318463,
			"-0.006": 11.403295255,
			"-0.005": 19.2368283257,
			"-0.004": 20.5346900358,
			"-0.003": 20.660946843,
			"-0.002": 25.4732597007,
			"-0.001": 23.3248843343,
			"0.0": 16.8747362581,
			"0.001": 10.8551845554,
			"0.002": 10.1088879609,
			"0.003": 11.6022993432,
			"0.004": 9.5988733907,
			"0.005": 5.99964883107,
			"0.006": 6.12752197708,
			"0.007": 5.13095564037,
			"0.008": 5.1465697097,
			"0.009": 6.26530533684,
			"0.01": 6.96940552297,
			"0.011": 6.6892197688,
			"0.012": 5.33751048075,
			"0.013": 2.009908869,
			"0.014": 0.0584132294704,
			"0.015": 0.0,
			"0.016": 0.0,
			"0.017": 0.0,
			"0.018": 0.0,
			"0.019": 0.0,
			"0.02": 0.0,
			"0.021": 0.0,
			"0.022": 0.0,
			"0.023": 0.0,
			"0.024": 0.0,
			"0.025": 0.0
		}
	}
}
