{
	 "smiles": "O=C1OC2=CC=CC=C2C(NC2CCCCC2)=C1", 
	 "Tm": 467.15, 
	 "num_atms": 35, 
	 "gaussian": { 
		 "optdone": 1, 
		 "sigma_profile": "yes", 
		 "theory": "DFT", 
		 "functional": "B3LYP", 
		 "basiset": "6-31G**", 
		 "properties": { 
			 "R2extent": 5753.3981, 
			 "electric_dipole_moment_norm": 6.81735743085, 
			 "electric_quadrupole_moment_norm": 23.2972461491, 
			 "total_energy": -787.063673555, 
			 "HOMO_LUMO_gap": 0.16832, 
			 "cosmo_polarized_energy": -16.67, 
			 "cosmo_cavitation_energy": 36.21, 
			 "cosmo_dispersion_energy": -26.54, 
			 "cosmo_repulsion_energy": 2.03, 
			 "cosmo_total_nonelectrostatic_energy": 11.71, 
			 "SMD_solvation_energy": 5.63 
		},
		"coords": [
			{
				"x": -3.9492111122,
				"y": -0.1110637581,
				"z": -0.2824372405,
				"element": "O" 
			},
			{
				"x": -2.903389394,
				"y": 0.0027375251,
				"z": 0.3174132229,
				"element": "C" 
			},
			{
				"x": -2.9796782665,
				"y": 0.0471883709,
				"z": 1.7224065246,
				"element": "O" 
			},
			{
				"x": -1.8741419892,
				"y": 0.1976608276,
				"z": 2.4956402203,
				"element": "C" 
			},
			{
				"x": -2.0865620263,
				"y": 0.2532935631,
				"z": 3.8782153292,
				"element": "C" 
			},
			{
				"x": -1.0085616058,
				"y": 0.4273745495,
				"z": 4.7353432018,
				"element": "C" 
			},
			{
				"x": 0.2881249817,
				"y": 0.5558990261,
				"z": 4.2198809642,
				"element": "C" 
			},
			{
				"x": 0.4937094523,
				"y": 0.4965498085,
				"z": 2.8479498411,
				"element": "C" 
			},
			{
				"x": -0.5773768231,
				"y": 0.301896863,
				"z": 1.9552503375,
				"element": "C" 
			},
			{
				"x": -0.4415715874,
				"y": 0.210032294,
				"z": 0.4972729024,
				"element": "C" 
			},
			{
				"x": 0.8105577747,
				"y": 0.2967788231,
				"z": -0.0427192126,
				"element": "N" 
			},
			{
				"x": 1.1247180016,
				"y": 0.1326057123,
				"z": -1.4593218091,
				"element": "C" 
			},
			{
				"x": 1.1140448231,
				"y": -1.3327077504,
				"z": -1.9331037963,
				"element": "C" 
			},
			{
				"x": 1.2551760869,
				"y": -1.4121317163,
				"z": -3.4724477991,
				"element": "C" 
			},
			{
				"x": 2.1012247015,
				"y": -0.2498191202,
				"z": -4.047468065,
				"element": "C" 
			},
			{
				"x": 3.1550367616,
				"y": 0.2190658989,
				"z": -3.0349548945,
				"element": "C" 
			},
			{
				"x": 2.4951053949,
				"y": 0.7853981151,
				"z": -1.7546241511,
				"element": "C" 
			},
			{
				"x": -1.584467654,
				"y": 0.0746057388,
				"z": -0.2537905769,
				"element": "C" 
			},
			{
				"x": -3.1030362553,
				"y": 0.1630367395,
				"z": 4.2454316629,
				"element": "H" 
			},
			{
				"x": -1.1757180168,
				"y": 0.4719938632,
				"z": 5.8073092907,
				"element": "H" 
			},
			{
				"x": 1.1301513757,
				"y": 0.7079318828,
				"z": 4.887436283,
				"element": "H" 
			},
			{
				"x": 1.5034361986,
				"y": 0.6278890199,
				"z": 2.4705036332,
				"element": "H" 
			},
			{
				"x": 1.5836844206,
				"y": 0.1442806724,
				"z": 0.5867863038,
				"element": "H" 
			},
			{
				"x": 0.3550736692,
				"y": 0.6805375789,
				"z": -2.015249298,
				"element": "H" 
			},
			{
				"x": 0.1971278601,
				"y": -1.8305616531,
				"z": -1.6039254998,
				"element": "H" 
			},
			{
				"x": 1.9460303431,
				"y": -1.8572466322,
				"z": -1.444622298,
				"element": "H" 
			},
			{
				"x": 0.2626932873,
				"y": -1.4057764685,
				"z": -3.9373341963,
				"element": "H" 
			},
			{
				"x": 1.7109690206,
				"y": -2.3726052502,
				"z": -3.7379041289,
				"element": "H" 
			},
			{
				"x": 2.5790545319,
				"y": -0.5580811894,
				"z": -4.9835042873,
				"element": "H" 
			},
			{
				"x": 1.4513708935,
				"y": 0.5971022808,
				"z": -4.3035497162,
				"element": "H" 
			},
			{
				"x": 3.8117027493,
				"y": 0.9749866325,
				"z": -3.4783476881,
				"element": "H" 
			},
			{
				"x": 3.7993188469,
				"y": -0.6306736895,
				"z": -2.7758736767,
				"element": "H" 
			},
			{
				"x": 2.3628671899,
				"y": 1.8699783189,
				"z": -1.8325385357,
				"element": "H" 
			},
			{
				"x": 3.1647560157,
				"y": 0.618612647,
				"z": -0.8994748909,
				"element": "H" 
			},
			{
				"x": -1.5584196501,
				"y": -0.004869524,
				"z": -1.3315479568,
				"element": "H" 
			}
		],
		 "valence_orbital": [ 
			{
				"type": "occ",
				"energy": -0.31256,
				"method": "rhf"
			},
			{
				"type": "occ",
				"energy": -0.26161,
				"method": "rhf"
			},
			{
				"type": "occ",
				"energy": -0.25394,
				"method": "rhf"
			},
			{
				"type": "occ",
				"energy": -0.23793,
				"method": "rhf"
			},
			{
				"type": "occ",
				"energy": -0.21493,
				"method": "rhf"
			},
			{
				"type": "unocc",
				"energy": -0.04661,
				"method": "rhf"
			},
			{
				"type": "unocc",
				"energy": -0.00658,
				"method": "rhf"
			},
			{
				"type": "unocc",
				"energy": 0.0191,
				"method": "rhf"
			},
			{
				"type": "unocc",
				"energy": 0.05713,
				"method": "rhf"
			},
			{
				"type": "unocc",
				"energy": 0.06512,
				"method": "rhf"
			}
		],
		"cosmo_sigma_profile": { 
			"-0.025": 0.0,
			"-0.024": 0.0,
			"-0.023": 0.0,
			"-0.022": 0.0,
			"-0.021": 0.0,
			"-0.02": 0.0,
			"-0.019": 0.0,
			"-0.018": 0.0,
			"-0.017": 0.0,
			"-0.016": 0.0,
			"-0.015": 0.0058609174652,
			"-0.014": 0.953577544934,
			"-0.013": 0.84247680507,
			"-0.012": 1.57055717395,
			"-0.011": 1.2257364243,
			"-0.01": 1.90492577744,
			"-0.009": 1.41687410886,
			"-0.008": 1.95564148263,
			"-0.007": 4.75904298416,
			"-0.006": 10.7172820162,
			"-0.005": 12.2576637478,
			"-0.004": 13.0678400326,
			"-0.003": 21.6028054627,
			"-0.002": 36.2941640378,
			"-0.001": 35.2438478028,
			"0.0": 34.4300046594,
			"0.001": 31.3311383138,
			"0.002": 15.9911678759,
			"0.003": 15.6054051786,
			"0.004": 12.3980234742,
			"0.005": 3.35976222236,
			"0.006": 2.84856080345,
			"0.007": 1.84249688656,
			"0.008": 1.82854308178,
			"0.009": 2.29333702644,
			"0.01": 2.45502007196,
			"0.011": 2.46877836152,
			"0.012": 3.04351593347,
			"0.013": 6.53306268176,
			"0.014": 4.39970028415,
			"0.015": 0.679968519878,
			"0.016": 0.0,
			"0.017": 0.0,
			"0.018": 0.0,
			"0.019": 0.0,
			"0.02": 0.0,
			"0.021": 0.0,
			"0.022": 0.0,
			"0.023": 0.0,
			"0.024": 0.0,
			"0.025": 0.0
		}
	}
}
