{
	 "smiles": "CC(Br)C(C)(Br)Br", 
	 "Tm": 275.05, 
	 "num_atms": 14, 
	 "gaussian": { 
		 "optdone": 1, 
		 "sigma_profile": "yes", 
		 "theory": "DFT", 
		 "functional": "B3LYP", 
		 "basiset": "6-31G**", 
		 "properties": { 
			 "R2extent": 2707.3527, 
			 "electric_dipole_moment_norm": 3.30672092714, 
			 "electric_quadrupole_moment_norm": 2.85662601507, 
			 "total_energy": -7870.86189608, 
			 "HOMO_LUMO_gap": 0.21858, 
			 "cosmo_polarized_energy": -7.47, 
			 "cosmo_cavitation_energy": 22.61, 
			 "cosmo_dispersion_energy": -17.44, 
			 "cosmo_repulsion_energy": 1.42, 
			 "cosmo_total_nonelectrostatic_energy": 6.59, 
			 "SMD_solvation_energy": 0.84 
		},
		"coords": [
			{
				"x": -1.9966346493,
				"y": 0.8349820643,
				"z": -1.2671617603,
				"element": "C" 
			},
			{
				"x": -0.8439988761,
				"y": 0.0227370732,
				"z": -0.6815935745,
				"element": "C" 
			},
			{
				"x": -0.196271424,
				"y": -1.2363907491,
				"z": -2.0709638452,
				"element": "Br" 
			},
			{
				"x": 0.2869827375,
				"y": 0.8661417163,
				"z": -0.0630548742,
				"element": "C" 
			},
			{
				"x": -0.2222880531,
				"y": 1.7969667453,
				"z": 1.0368223719,
				"element": "C" 
			},
			{
				"x": 1.1949901295,
				"y": 1.9746609054,
				"z": -1.4352452421,
				"element": "Br" 
			},
			{
				"x": 1.6299841875,
				"y": -0.3405526534,
				"z": 0.7718211009,
				"element": "Br" 
			},
			{
				"x": -2.4737598185,
				"y": 1.4431570885,
				"z": -0.492270658,
				"element": "H" 
			},
			{
				"x": -1.6472000983,
				"y": 1.4908624157,
				"z": -2.0670597122,
				"element": "H" 
			},
			{
				"x": -2.7487294229,
				"y": 0.1576647143,
				"z": -1.6754663347,
				"element": "H" 
			},
			{
				"x": -1.2020748832,
				"y": -0.6382368607,
				"z": 0.1105695807,
				"element": "H" 
			},
			{
				"x": -0.7583104156,
				"y": 1.2179241624,
				"z": 1.7958708433,
				"element": "H" 
			},
			{
				"x": -0.8910075684,
				"y": 2.5537836719,
				"z": 0.6207355597,
				"element": "H" 
			},
			{
				"x": 0.6158181549,
				"y": 2.3034997058,
				"z": 1.5156965447,
				"element": "H" 
			}
		],
		 "valence_orbital": [ 
			{
				"type": "occ",
				"energy": -0.29553,
				"method": "rhf"
			},
			{
				"type": "occ",
				"energy": -0.29295,
				"method": "rhf"
			},
			{
				"type": "occ",
				"energy": -0.27405,
				"method": "rhf"
			},
			{
				"type": "occ",
				"energy": -0.27234,
				"method": "rhf"
			},
			{
				"type": "occ",
				"energy": -0.26821,
				"method": "rhf"
			},
			{
				"type": "unocc",
				"energy": -0.04963,
				"method": "rhf"
			},
			{
				"type": "unocc",
				"energy": -0.00775,
				"method": "rhf"
			},
			{
				"type": "unocc",
				"energy": 0.00268,
				"method": "rhf"
			},
			{
				"type": "unocc",
				"energy": 0.07915,
				"method": "rhf"
			},
			{
				"type": "unocc",
				"energy": 0.11866,
				"method": "rhf"
			}
		],
		"cosmo_sigma_profile": { 
			"-0.025": 0.0,
			"-0.024": 0.0,
			"-0.023": 0.0,
			"-0.022": 0.0,
			"-0.021": 0.0,
			"-0.02": 0.0,
			"-0.019": 0.0,
			"-0.018": 0.0,
			"-0.017": 0.0,
			"-0.016": 0.0,
			"-0.015": 0.0,
			"-0.014": 0.0,
			"-0.013": 0.0,
			"-0.012": 0.0,
			"-0.011": 0.0,
			"-0.01": 0.116296849019,
			"-0.009": 2.06491403914,
			"-0.008": 2.66382919053,
			"-0.007": 5.13822082165,
			"-0.006": 9.02285541281,
			"-0.005": 10.0227193767,
			"-0.004": 13.9141807588,
			"-0.003": 15.0279473682,
			"-0.002": 17.4060106495,
			"-0.001": 14.920552132,
			"0.0": 10.4375455347,
			"0.001": 9.35311374926,
			"0.002": 11.7481962148,
			"0.003": 12.8550878381,
			"0.004": 18.0228241436,
			"0.005": 19.3908238805,
			"0.006": 10.6578628974,
			"0.007": 4.00606533033,
			"0.008": 0.0384593268869,
			"0.009": 0.0,
			"0.01": 0.0,
			"0.011": 0.0,
			"0.012": 0.0,
			"0.013": 0.0,
			"0.014": 0.0,
			"0.015": 0.0,
			"0.016": 0.0,
			"0.017": 0.0,
			"0.018": 0.0,
			"0.019": 0.0,
			"0.02": 0.0,
			"0.021": 0.0,
			"0.022": 0.0,
			"0.023": 0.0,
			"0.024": 0.0,
			"0.025": 0.0
		}
	}
}
