{
	 "smiles": "OC(=O)C1=CC(C=O)=C(F)C=C1", 
	 "Tm": 425.15, 
	 "num_atms": 17, 
	 "gaussian": { 
		 "optdone": 1, 
		 "sigma_profile": "yes", 
		 "theory": "DFT", 
		 "functional": "B3LYP", 
		 "basiset": "6-31G**", 
		 "properties": { 
			 "R2extent": 2522.4607, 
			 "electric_dipole_moment_norm": 1.24642436594, 
			 "electric_quadrupole_moment_norm": 25.5615687042, 
			 "total_energy": -633.361438915, 
			 "HOMO_LUMO_gap": 0.18372, 
			 "cosmo_polarized_energy": -18.72, 
			 "cosmo_cavitation_energy": 23.19, 
			 "cosmo_dispersion_energy": -16.78, 
			 "cosmo_repulsion_energy": 1.3, 
			 "cosmo_total_nonelectrostatic_energy": 7.71, 
			 "SMD_solvation_energy": 6.74 
		},
		"coords": [
			{
				"x": -0.8144621577,
				"y": -2.3018236232,
				"z": -2.7393378656,
				"element": "O" 
			},
			{
				"x": 0.2426038376,
				"y": -1.8738387685,
				"z": -1.9997283606,
				"element": "C" 
			},
			{
				"x": 1.2567278316,
				"y": -2.5283258352,
				"z": -1.9559663685,
				"element": "O" 
			},
			{
				"x": 0.076552308,
				"y": -0.5799448341,
				"z": -1.259969893,
				"element": "C" 
			},
			{
				"x": -1.1650061912,
				"y": -0.0265497265,
				"z": -0.939490332,
				"element": "C" 
			},
			{
				"x": -1.2746839205,
				"y": 1.1743260752,
				"z": -0.2246335019,
				"element": "C" 
			},
			{
				"x": -2.6281610738,
				"y": 1.6960756743,
				"z": 0.0890659065,
				"element": "C" 
			},
			{
				"x": -2.8783040938,
				"y": 2.7234152871,
				"z": 0.6815022754,
				"element": "O" 
			},
			{
				"x": -0.0853026184,
				"y": 1.8130591403,
				"z": 0.1633968764,
				"element": "C" 
			},
			{
				"x": -0.1349776812,
				"y": 2.9617223029,
				"z": 0.8386343327,
				"element": "F" 
			},
			{
				"x": 1.1649566428,
				"y": 1.2740235435,
				"z": -0.128968138,
				"element": "C" 
			},
			{
				"x": 1.2414105519,
				"y": 0.0762968343,
				"z": -0.829421694,
				"element": "C" 
			},
			{
				"x": -1.4739809599,
				"y": -1.6006620521,
				"z": -2.8306512021,
				"element": "H" 
			},
			{
				"x": -2.0900883823,
				"y": -0.5353207495,
				"z": -1.2054895796,
				"element": "H" 
			},
			{
				"x": -3.4440631658,
				"y": 1.0350486616,
				"z": -0.2838034181,
				"element": "H" 
			},
			{
				"x": 2.0540040832,
				"y": 1.7997934293,
				"z": 0.2012532692,
				"element": "H" 
			},
			{
				"x": 2.2007749897,
				"y": -0.3751953593,
				"z": -1.0575923068,
				"element": "H" 
			}
		],
		 "valence_orbital": [ 
			{
				"type": "occ",
				"energy": -0.33092,
				"method": "rhf"
			},
			{
				"type": "occ",
				"energy": -0.29879,
				"method": "rhf"
			},
			{
				"type": "occ",
				"energy": -0.29254,
				"method": "rhf"
			},
			{
				"type": "occ",
				"energy": -0.27862,
				"method": "rhf"
			},
			{
				"type": "occ",
				"energy": -0.27117,
				"method": "rhf"
			},
			{
				"type": "unocc",
				"energy": -0.08745,
				"method": "rhf"
			},
			{
				"type": "unocc",
				"energy": -0.06472,
				"method": "rhf"
			},
			{
				"type": "unocc",
				"energy": -0.00427,
				"method": "rhf"
			},
			{
				"type": "unocc",
				"energy": 0.03877,
				"method": "rhf"
			},
			{
				"type": "unocc",
				"energy": 0.0543,
				"method": "rhf"
			}
		],
		"cosmo_sigma_profile": { 
			"-0.025": 0.0,
			"-0.024": 0.0,
			"-0.023": 0.0,
			"-0.022": 0.0,
			"-0.021": 0.0,
			"-0.02": 0.119947786361,
			"-0.019": 0.946409374086,
			"-0.018": 0.970780616102,
			"-0.017": 1.13359210744,
			"-0.016": 0.974824726311,
			"-0.015": 0.710253020013,
			"-0.014": 0.904624709926,
			"-0.013": 1.7618896419,
			"-0.012": 1.36555807707,
			"-0.011": 1.8025063052,
			"-0.01": 2.69784145631,
			"-0.009": 2.97811919483,
			"-0.008": 6.23887882283,
			"-0.007": 8.12879879833,
			"-0.006": 8.4620642616,
			"-0.005": 6.71300737771,
			"-0.004": 8.81239411548,
			"-0.003": 11.4067682706,
			"-0.002": 15.6267412426,
			"-0.001": 14.1946302374,
			"0.0": 13.5967197884,
			"0.001": 8.06925271782,
			"0.002": 6.03431092647,
			"0.003": 9.34142658291,
			"0.004": 4.64271108615,
			"0.005": 4.21033255513,
			"0.006": 4.45335293627,
			"0.007": 4.96302182273,
			"0.008": 4.28965536061,
			"0.009": 6.6570709945,
			"0.01": 9.36138145728,
			"0.011": 9.72175715953,
			"0.012": 4.85840991823,
			"0.013": 0.838975868856,
			"0.014": 0.0,
			"0.015": 0.0,
			"0.016": 0.0,
			"0.017": 0.0,
			"0.018": 0.0,
			"0.019": 0.0,
			"0.02": 0.0,
			"0.021": 0.0,
			"0.022": 0.0,
			"0.023": 0.0,
			"0.024": 0.0,
			"0.025": 0.0
		}
	}
}
