{
	 "smiles": "OC(=O)CN1C(=O)NC2(CCCC2)C1=O", 
	 "Tm": 439.15, 
	 "num_atms": 27, 
	 "gaussian": { 
		 "optdone": 1, 
		 "sigma_profile": "yes", 
		 "theory": "DFT", 
		 "functional": "B3LYP", 
		 "basiset": "6-31G**", 
		 "properties": { 
			 "R2extent": 3832.5823, 
			 "electric_dipole_moment_norm": 1.44283640445, 
			 "electric_quadrupole_moment_norm": 18.0302297609, 
			 "total_energy": -760.651143466, 
			 "HOMO_LUMO_gap": 0.2514, 
			 "cosmo_polarized_energy": -18.67, 
			 "cosmo_cavitation_energy": 30.51, 
			 "cosmo_dispersion_energy": -21.45, 
			 "cosmo_repulsion_energy": 1.7, 
			 "cosmo_total_nonelectrostatic_energy": 10.76, 
			 "SMD_solvation_energy": 6.54 
		},
		"coords": [
			{
				"x": -4.3290052955,
				"y": -1.758623282,
				"z": -2.5023159602,
				"element": "O" 
			},
			{
				"x": -3.1575210172,
				"y": -1.2297252483,
				"z": -2.0927243821,
				"element": "C" 
			},
			{
				"x": -2.9334946649,
				"y": -0.0437812737,
				"z": -2.03853248,
				"element": "O" 
			},
			{
				"x": -2.1764125168,
				"y": -2.33568656,
				"z": -1.716122454,
				"element": "C" 
			},
			{
				"x": -0.9279516616,
				"y": -1.7880371063,
				"z": -1.2606793775,
				"element": "N" 
			},
			{
				"x": 0.1394739229,
				"y": -1.4905366862,
				"z": -2.1405005883,
				"element": "C" 
			},
			{
				"x": 0.1716933747,
				"y": -1.7748974325,
				"z": -3.3210755992,
				"element": "O" 
			},
			{
				"x": 1.0914335057,
				"y": -0.8685526435,
				"z": -1.3747668382,
				"element": "N" 
			},
			{
				"x": 0.6166653044,
				"y": -0.5124330038,
				"z": -0.0396525175,
				"element": "C" 
			},
			{
				"x": 1.5430305621,
				"y": -0.9425432841,
				"z": 1.1443634008,
				"element": "C" 
			},
			{
				"x": 1.8373551696,
				"y": 0.3428846612,
				"z": 1.9478045266,
				"element": "C" 
			},
			{
				"x": 0.627621508,
				"y": 1.246820398,
				"z": 1.6565529654,
				"element": "C" 
			},
			{
				"x": 0.3840670962,
				"y": 1.0178985399,
				"z": 0.1603950265,
				"element": "C" 
			},
			{
				"x": -0.7322274303,
				"y": -1.2463664687,
				"z": -0.0060504866,
				"element": "C" 
			},
			{
				"x": -1.4947865747,
				"y": -1.3327322591,
				"z": 0.936793001,
				"element": "O" 
			},
			{
				"x": -4.9084687063,
				"y": -1.0116155953,
				"z": -2.7280707013,
				"element": "H" 
			},
			{
				"x": -1.9891379962,
				"y": -2.960653834,
				"z": -2.5930104384,
				"element": "H" 
			},
			{
				"x": -2.6194154053,
				"y": -2.9508693592,
				"z": -0.9283771067,
				"element": "H" 
			},
			{
				"x": 1.8361284807,
				"y": -0.3727713379,
				"z": -1.8418944977,
				"element": "H" 
			},
			{
				"x": 2.4420661395,
				"y": -1.4354775339,
				"z": 0.7656365652,
				"element": "H" 
			},
			{
				"x": 1.0079959311,
				"y": -1.6626679426,
				"z": 1.770493632,
				"element": "H" 
			},
			{
				"x": 1.9817846022,
				"y": 0.1446318692,
				"z": 3.0137352303,
				"element": "H" 
			},
			{
				"x": 2.7536172786,
				"y": 0.8212131059,
				"z": 1.5791149177,
				"element": "H" 
			},
			{
				"x": 0.8023056893,
				"y": 2.2990873915,
				"z": 1.9009339151,
				"element": "H" 
			},
			{
				"x": -0.2434172721,
				"y": 0.9057458286,
				"z": 2.2265391054,
				"element": "H" 
			},
			{
				"x": 1.1379286358,
				"y": 1.5549408704,
				"z": -0.4300966501,
				"element": "H" 
			},
			{
				"x": -0.6001286598,
				"y": 1.3346481866,
				"z": -0.1952922082,
				"element": "H" 
			}
		],
		 "valence_orbital": [ 
			{
				"type": "occ",
				"energy": -0.29414,
				"method": "rhf"
			},
			{
				"type": "occ",
				"energy": -0.28887,
				"method": "rhf"
			},
			{
				"type": "occ",
				"energy": -0.27643,
				"method": "rhf"
			},
			{
				"type": "occ",
				"energy": -0.26426,
				"method": "rhf"
			},
			{
				"type": "occ",
				"energy": -0.25948,
				"method": "rhf"
			},
			{
				"type": "unocc",
				"energy": -0.00808,
				"method": "rhf"
			},
			{
				"type": "unocc",
				"energy": 0.0012,
				"method": "rhf"
			},
			{
				"type": "unocc",
				"energy": 0.05262,
				"method": "rhf"
			},
			{
				"type": "unocc",
				"energy": 0.07156,
				"method": "rhf"
			},
			{
				"type": "unocc",
				"energy": 0.07536,
				"method": "rhf"
			}
		],
		"cosmo_sigma_profile": { 
			"-0.025": 0.0,
			"-0.024": 0.0,
			"-0.023": 0.0,
			"-0.022": 0.0,
			"-0.021": 0.0,
			"-0.02": 0.0,
			"-0.019": 0.430360134139,
			"-0.018": 0.906154394442,
			"-0.017": 1.25192299932,
			"-0.016": 0.396823762236,
			"-0.015": 1.95805963568,
			"-0.014": 1.95701736624,
			"-0.013": 2.18425164094,
			"-0.012": 1.81395854987,
			"-0.011": 2.06099398055,
			"-0.01": 1.48263927893,
			"-0.009": 2.8176784615,
			"-0.008": 4.6847608405,
			"-0.007": 5.57134770769,
			"-0.006": 6.96059337197,
			"-0.005": 7.71025936436,
			"-0.004": 13.6279688242,
			"-0.003": 23.0442992991,
			"-0.002": 26.3059327783,
			"-0.001": 23.6705385596,
			"0.0": 20.3858939227,
			"0.001": 12.2365742667,
			"0.002": 7.2283992746,
			"0.003": 7.43117794426,
			"0.004": 8.19427176021,
			"0.005": 6.72607254782,
			"0.006": 5.18458711021,
			"0.007": 5.76482405651,
			"0.008": 5.50964611403,
			"0.009": 5.90849134818,
			"0.01": 5.56153632095,
			"0.011": 7.84000755733,
			"0.012": 9.02249870677,
			"0.013": 3.18407229802,
			"0.014": 0.265176939177,
			"0.015": 0.0,
			"0.016": 0.0,
			"0.017": 0.0,
			"0.018": 0.0,
			"0.019": 0.0,
			"0.02": 0.0,
			"0.021": 0.0,
			"0.022": 0.0,
			"0.023": 0.0,
			"0.024": 0.0,
			"0.025": 0.0
		}
	}
}
