{
	 "smiles": "O=C1NC(=CS1)C1=CC=NC=C1", 
	 "Tm": 577.15, 
	 "num_atms": 18, 
	 "gaussian": { 
		 "optdone": 1, 
		 "sigma_profile": "yes", 
		 "theory": "DFT", 
		 "functional": "B3LYP", 
		 "basiset": "6-31G**", 
		 "properties": { 
			 "R2extent": 2996.2326, 
			 "electric_dipole_moment_norm": 2.18214204166, 
			 "electric_quadrupole_moment_norm": 23.1721602914, 
			 "total_energy": -891.381014509, 
			 "HOMO_LUMO_gap": 0.16104, 
			 "cosmo_polarized_energy": -14.6, 
			 "cosmo_cavitation_energy": 24.59, 
			 "cosmo_dispersion_energy": -18.86, 
			 "cosmo_repulsion_energy": 1.43, 
			 "cosmo_total_nonelectrostatic_energy": 7.16, 
			 "SMD_solvation_energy": 3.57 
		},
		"coords": [
			{
				"x": 0.5972375374,
				"y": 0.9232375697,
				"z": 3.4210971697,
				"element": "O" 
			},
			{
				"x": 0.1698078569,
				"y": 0.1417427664,
				"z": 2.6033121119,
				"element": "C" 
			},
			{
				"x": 0.5724950481,
				"y": 0.0071930751,
				"z": 1.2876339386,
				"element": "N" 
			},
			{
				"x": -0.0255208628,
				"y": -1.0006756917,
				"z": 0.5260178991,
				"element": "C" 
			},
			{
				"x": -0.9609758588,
				"y": -1.6863739126,
				"z": 1.227473925,
				"element": "C" 
			},
			{
				"x": -1.1291186333,
				"y": -1.1067574748,
				"z": 2.8712352926,
				"element": "S" 
			},
			{
				"x": 0.3481697713,
				"y": -1.1876333626,
				"z": -0.8808586499,
				"element": "C" 
			},
			{
				"x": 0.2049057298,
				"y": -2.4341476272,
				"z": -1.5109458598,
				"element": "C" 
			},
			{
				"x": 0.5571901971,
				"y": -2.5605582969,
				"z": -2.8515322679,
				"element": "C" 
			},
			{
				"x": 1.0457997272,
				"y": -1.5593199104,
				"z": -3.5972684047,
				"element": "N" 
			},
			{
				"x": 1.1863268901,
				"y": -0.3745449545,
				"z": -2.9920012513,
				"element": "C" 
			},
			{
				"x": 0.857183897,
				"y": -0.135417099,
				"z": -1.6581771193,
				"element": "C" 
			},
			{
				"x": 1.3704156353,
				"y": 0.5429877755,
				"z": 0.9761667978,
				"element": "H" 
			},
			{
				"x": -1.6016262722,
				"y": -2.4668992712,
				"z": 0.8452563654,
				"element": "H" 
			},
			{
				"x": -0.1515984447,
				"y": -3.2969788734,
				"z": -0.9580442418,
				"element": "H" 
			},
			{
				"x": 0.4520819247,
				"y": -3.5219683627,
				"z": -3.3508702677,
				"element": "H" 
			},
			{
				"x": 1.5791521157,
				"y": 0.4345460082,
				"z": -3.605215009,
				"element": "H" 
			},
			{
				"x": 0.9680737409,
				"y": 0.8650676422,
				"z": -1.2512804286,
				"element": "H" 
			}
		],
		 "valence_orbital": [ 
			{
				"type": "occ",
				"energy": -0.30166,
				"method": "rhf"
			},
			{
				"type": "occ",
				"energy": -0.28029,
				"method": "rhf"
			},
			{
				"type": "occ",
				"energy": -0.27786,
				"method": "rhf"
			},
			{
				"type": "occ",
				"energy": -0.26821,
				"method": "rhf"
			},
			{
				"type": "occ",
				"energy": -0.22318,
				"method": "rhf"
			},
			{
				"type": "unocc",
				"energy": -0.06214,
				"method": "rhf"
			},
			{
				"type": "unocc",
				"energy": -0.02878,
				"method": "rhf"
			},
			{
				"type": "unocc",
				"energy": 0.00308,
				"method": "rhf"
			},
			{
				"type": "unocc",
				"energy": 0.00728,
				"method": "rhf"
			},
			{
				"type": "unocc",
				"energy": 0.03841,
				"method": "rhf"
			}
		],
		"cosmo_sigma_profile": { 
			"-0.025": 0.0,
			"-0.024": 0.0,
			"-0.023": 0.0,
			"-0.022": 0.0,
			"-0.021": 0.0,
			"-0.02": 0.0,
			"-0.019": 0.0,
			"-0.018": 0.0,
			"-0.017": 0.357318841001,
			"-0.016": 0.944535474374,
			"-0.015": 1.46149780284,
			"-0.014": 0.759872054789,
			"-0.013": 1.07670667396,
			"-0.012": 1.65750074464,
			"-0.011": 1.1357753123,
			"-0.01": 1.83076448826,
			"-0.009": 4.57136503447,
			"-0.008": 5.11489350036,
			"-0.007": 7.10428298971,
			"-0.006": 11.6468869969,
			"-0.005": 9.68661218883,
			"-0.004": 7.83162048512,
			"-0.003": 7.41451775487,
			"-0.002": 11.7940859815,
			"-0.001": 14.3489086531,
			"0.0": 16.480249127,
			"0.001": 22.6396041683,
			"0.002": 22.7829506733,
			"0.003": 8.8807777479,
			"0.004": 7.20695459583,
			"0.005": 4.27407498871,
			"0.006": 2.68651999272,
			"0.007": 2.2167877235,
			"0.008": 3.27741297606,
			"0.009": 2.36063631243,
			"0.01": 2.6215518994,
			"0.011": 4.09177409597,
			"0.012": 7.34235474285,
			"0.013": 2.24856997718,
			"0.014": 0.796423494896,
			"0.015": 0.997250662482,
			"0.016": 0.704448341605,
			"0.017": 0.296410913937,
			"0.018": 0.0,
			"0.019": 0.0,
			"0.02": 0.0,
			"0.021": 0.0,
			"0.022": 0.0,
			"0.023": 0.0,
			"0.024": 0.0,
			"0.025": 0.0
		}
	}
}
