{
	 "smiles": "CC1=C(CC2=CC=C(F)C=C2)SC(N)=N1", 
	 "Tm": 368.15, 
	 "num_atms": 26, 
	 "gaussian": { 
		 "optdone": 1, 
		 "sigma_profile": "yes", 
		 "theory": "DFT", 
		 "functional": "B3LYP", 
		 "basiset": "6-31G**", 
		 "properties": { 
			 "R2extent": 4625.0553, 
			 "electric_dipole_moment_norm": 1.59892216821, 
			 "electric_quadrupole_moment_norm": 20.1395121354, 
			 "total_energy": -1033.33018571, 
			 "HOMO_LUMO_gap": 0.19072, 
			 "cosmo_polarized_energy": -11.64, 
			 "cosmo_cavitation_energy": 32.18, 
			 "cosmo_dispersion_energy": -23.06, 
			 "cosmo_repulsion_energy": 1.77, 
			 "cosmo_total_nonelectrostatic_energy": 10.89, 
			 "SMD_solvation_energy": 3.87 
		},
		"coords": [
			{
				"x": 1.7696382103,
				"y": 0.7192559565,
				"z": -1.311434438,
				"element": "C" 
			},
			{
				"x": 1.5865178747,
				"y": 0.4520411671,
				"z": 0.1541333292,
				"element": "C" 
			},
			{
				"x": 0.669710168,
				"y": -0.4015951999,
				"z": 0.7020693463,
				"element": "C" 
			},
			{
				"x": -0.3654144365,
				"y": -1.2665648218,
				"z": 0.0290713539,
				"element": "C" 
			},
			{
				"x": -1.5866254705,
				"y": -0.5355055122,
				"z": -0.5207897705,
				"element": "C" 
			},
			{
				"x": -2.1690715777,
				"y": -0.9533192777,
				"z": -1.7241768647,
				"element": "C" 
			},
			{
				"x": -3.3109750459,
				"y": -0.3326484728,
				"z": -2.233348994,
				"element": "C" 
			},
			{
				"x": -3.8683204147,
				"y": 0.7205937282,
				"z": -1.519793839,
				"element": "C" 
			},
			{
				"x": -4.9713795135,
				"y": 1.3324186282,
				"z": -2.0035209381,
				"element": "F" 
			},
			{
				"x": -3.3172565281,
				"y": 1.1663467324,
				"z": -0.3236231603,
				"element": "C" 
			},
			{
				"x": -2.1759356764,
				"y": 0.5334369354,
				"z": 0.1676137157,
				"element": "C" 
			},
			{
				"x": 0.8406524768,
				"y": -0.3781648015,
				"z": 2.460333989,
				"element": "S" 
			},
			{
				"x": 2.135786427,
				"y": 0.8071164464,
				"z": 2.2736819706,
				"element": "C" 
			},
			{
				"x": 2.8407169489,
				"y": 1.2705040773,
				"z": 3.3649142676,
				"element": "N" 
			},
			{
				"x": 2.4050870176,
				"y": 1.1311621779,
				"z": 1.0442931542,
				"element": "N" 
			},
			{
				"x": 2.7867621027,
				"y": 0.4590170142,
				"z": -1.6250623714,
				"element": "H" 
			},
			{
				"x": 1.0601368871,
				"y": 0.1554778969,
				"z": -1.9203169137,
				"element": "H" 
			},
			{
				"x": 1.6297380613,
				"y": 1.7845009078,
				"z": -1.5250815804,
				"element": "H" 
			},
			{
				"x": -0.7005641433,
				"y": -2.0376049634,
				"z": 0.735026846,
				"element": "H" 
			},
			{
				"x": 0.109599233,
				"y": -1.8180283879,
				"z": -0.7909926633,
				"element": "H" 
			},
			{
				"x": -1.724899252,
				"y": -1.7777479188,
				"z": -2.2767482456,
				"element": "H" 
			},
			{
				"x": -3.7634788809,
				"y": -0.648651546,
				"z": -3.1671798328,
				"element": "H" 
			},
			{
				"x": -3.7787780939,
				"y": 1.9953943979,
				"z": 0.2022546829,
				"element": "H" 
			},
			{
				"x": -1.7326880849,
				"y": 0.8821286602,
				"z": 1.0954327832,
				"element": "H" 
			},
			{
				"x": 3.4178656095,
				"y": 2.0707590635,
				"z": 3.1390452071,
				"element": "H" 
			},
			{
				"x": 2.3238761013,
				"y": 1.3748771121,
				"z": 4.2266989661,
				"element": "H" 
			}
		],
		 "valence_orbital": [ 
			{
				"type": "occ",
				"energy": -0.26717,
				"method": "rhf"
			},
			{
				"type": "occ",
				"energy": -0.26656,
				"method": "rhf"
			},
			{
				"type": "occ",
				"energy": -0.25753,
				"method": "rhf"
			},
			{
				"type": "occ",
				"energy": -0.23677,
				"method": "rhf"
			},
			{
				"type": "occ",
				"energy": -0.20086,
				"method": "rhf"
			},
			{
				"type": "unocc",
				"energy": -0.01014,
				"method": "rhf"
			},
			{
				"type": "unocc",
				"energy": -0.00412,
				"method": "rhf"
			},
			{
				"type": "unocc",
				"energy": 0.00546,
				"method": "rhf"
			},
			{
				"type": "unocc",
				"energy": 0.01364,
				"method": "rhf"
			},
			{
				"type": "unocc",
				"energy": 0.05658,
				"method": "rhf"
			}
		],
		"cosmo_sigma_profile": { 
			"-0.025": 0.0,
			"-0.024": 0.0,
			"-0.023": 0.0,
			"-0.022": 0.0,
			"-0.021": 0.0,
			"-0.02": 0.0,
			"-0.019": 0.0,
			"-0.018": 0.0,
			"-0.017": 0.0,
			"-0.016": 0.0,
			"-0.015": 0.139190844402,
			"-0.014": 1.44107397713,
			"-0.013": 2.577599195,
			"-0.012": 2.56504723031,
			"-0.011": 2.43278841415,
			"-0.01": 2.28539312368,
			"-0.009": 2.50500195339,
			"-0.008": 1.94444365539,
			"-0.007": 3.67129166704,
			"-0.006": 9.50579055579,
			"-0.005": 14.0791086715,
			"-0.004": 17.41614291,
			"-0.003": 17.2881838709,
			"-0.002": 18.5512428482,
			"-0.001": 17.305242399,
			"0.0": 18.9386196878,
			"0.001": 19.3292286238,
			"0.002": 21.3148961812,
			"0.003": 21.2590452291,
			"0.004": 27.5880591089,
			"0.005": 17.884426436,
			"0.006": 3.3484369174,
			"0.007": 2.78045820058,
			"0.008": 1.85378420618,
			"0.009": 2.41317615447,
			"0.01": 1.93165030943,
			"0.011": 1.28721229238,
			"0.012": 1.41255388034,
			"0.013": 0.847200345393,
			"0.014": 1.04133749058,
			"0.015": 1.00137090838,
			"0.016": 0.395115748138,
			"0.017": 0.0,
			"0.018": 0.0,
			"0.019": 0.0,
			"0.02": 0.0,
			"0.021": 0.0,
			"0.022": 0.0,
			"0.023": 0.0,
			"0.024": 0.0,
			"0.025": 0.0
		}
	}
}
