{
	 "smiles": "CC1=NC2=C(C(=CS2)C2=CC=CC=C2)C(=O)N1N", 
	 "Tm": 408.15, 
	 "num_atms": 29, 
	 "gaussian": { 
		 "optdone": 1, 
		 "sigma_profile": "yes", 
		 "theory": "DFT", 
		 "functional": "B3LYP", 
		 "basiset": "6-31G**", 
		 "properties": { 
			 "R2extent": 6153.373, 
			 "electric_dipole_moment_norm": 1.25262365857, 
			 "electric_quadrupole_moment_norm": 15.1182209443, 
			 "total_energy": -1139.67257712, 
			 "HOMO_LUMO_gap": 0.16909, 
			 "cosmo_polarized_energy": -13.13, 
			 "cosmo_cavitation_energy": 34.41, 
			 "cosmo_dispersion_energy": -25.71, 
			 "cosmo_repulsion_energy": 1.92, 
			 "cosmo_total_nonelectrostatic_energy": 10.62, 
			 "SMD_solvation_energy": 4.83 
		},
		"coords": [
			{
				"x": -4.8293914088,
				"y": 2.7701133803,
				"z": -0.4619892516,
				"element": "C" 
			},
			{
				"x": -3.3748338202,
				"y": 2.438028827,
				"z": -0.3104947863,
				"element": "C" 
			},
			{
				"x": -2.5790201063,
				"y": 3.2764209036,
				"z": 0.300009291,
				"element": "N" 
			},
			{
				"x": -1.2767378719,
				"y": 2.9069075214,
				"z": 0.3921875969,
				"element": "C" 
			},
			{
				"x": -0.6855023294,
				"y": 1.7440758361,
				"z": -0.1065162084,
				"element": "C" 
			},
			{
				"x": 0.7300861091,
				"y": 1.6542023871,
				"z": 0.1907654787,
				"element": "C" 
			},
			{
				"x": 1.1430810642,
				"y": 2.7562778334,
				"z": 0.8954021098,
				"element": "C" 
			},
			{
				"x": -0.1160553876,
				"y": 3.9126033474,
				"z": 1.2204730384,
				"element": "S" 
			},
			{
				"x": 1.6743386653,
				"y": 0.5687678322,
				"z": -0.1714452948,
				"element": "C" 
			},
			{
				"x": 2.6154741015,
				"y": 0.1277775861,
				"z": 0.7746646473,
				"element": "C" 
			},
			{
				"x": 3.562558473,
				"y": -0.8410923355,
				"z": 0.445073303,
				"element": "C" 
			},
			{
				"x": 3.5842715159,
				"y": -1.3896798026,
				"z": -0.837808499,
				"element": "C" 
			},
			{
				"x": 2.6496753131,
				"y": -0.9639572758,
				"z": -1.7842344135,
				"element": "C" 
			},
			{
				"x": 1.7025420479,
				"y": 0.0043919364,
				"z": -1.4570365212,
				"element": "C" 
			},
			{
				"x": -1.5571873698,
				"y": 0.8009843029,
				"z": -0.7739789076,
				"element": "C" 
			},
			{
				"x": -1.2808627448,
				"y": -0.2746231979,
				"z": -1.2969932475,
				"element": "O" 
			},
			{
				"x": -2.9180487263,
				"y": 1.2415919382,
				"z": -0.81381742,
				"element": "N" 
			},
			{
				"x": -3.8445073989,
				"y": 0.3864519794,
				"z": -1.4581001192,
				"element": "N" 
			},
			{
				"x": -5.4588876339,
				"y": 2.0517575212,
				"z": 0.0725163323,
				"element": "H" 
			},
			{
				"x": -4.9916602266,
				"y": 3.7680483879,
				"z": -0.0553930589,
				"element": "H" 
			},
			{
				"x": -5.131948733,
				"y": 2.7323777284,
				"z": -1.5116317194,
				"element": "H" 
			},
			{
				"x": 2.1527680009,
				"y": 2.9673810732,
				"z": 1.2190336761,
				"element": "H" 
			},
			{
				"x": 2.5873514309,
				"y": 0.5353041452,
				"z": 1.7810952885,
				"element": "H" 
			},
			{
				"x": 4.2766923031,
				"y": -1.1724518485,
				"z": 1.1937388871,
				"element": "H" 
			},
			{
				"x": 4.3185738346,
				"y": -2.1472142806,
				"z": -1.0965891479,
				"element": "H" 
			},
			{
				"x": 2.6572332474,
				"y": -1.3874899989,
				"z": -2.7845565913,
				"element": "H" 
			},
			{
				"x": 0.9762766915,
				"y": 0.3192311821,
				"z": -2.1959776629,
				"element": "H" 
			},
			{
				"x": -3.327211821,
				"y": -0.015197053,
				"z": -2.2417920711,
				"element": "H" 
			},
			{
				"x": -3.9991672197,
				"y": -0.4054898568,
				"z": -0.8312047286,
				"element": "H" 
			}
		],
		 "valence_orbital": [ 
			{
				"type": "occ",
				"energy": -0.27249,
				"method": "rhf"
			},
			{
				"type": "occ",
				"energy": -0.26704,
				"method": "rhf"
			},
			{
				"type": "occ",
				"energy": -0.24404,
				"method": "rhf"
			},
			{
				"type": "occ",
				"energy": -0.23981,
				"method": "rhf"
			},
			{
				"type": "occ",
				"energy": -0.21296,
				"method": "rhf"
			},
			{
				"type": "unocc",
				"energy": -0.04387,
				"method": "rhf"
			},
			{
				"type": "unocc",
				"energy": -0.02261,
				"method": "rhf"
			},
			{
				"type": "unocc",
				"energy": -0.0013,
				"method": "rhf"
			},
			{
				"type": "unocc",
				"energy": 0.00498,
				"method": "rhf"
			},
			{
				"type": "unocc",
				"energy": 0.0225,
				"method": "rhf"
			}
		],
		"cosmo_sigma_profile": { 
			"-0.025": 0.0,
			"-0.024": 0.0,
			"-0.023": 0.0,
			"-0.022": 0.0,
			"-0.021": 0.0,
			"-0.02": 0.0,
			"-0.019": 0.0,
			"-0.018": 0.0,
			"-0.017": 0.0,
			"-0.016": 0.0,
			"-0.015": 0.0,
			"-0.014": 0.0,
			"-0.013": 0.908132906172,
			"-0.012": 1.91299816746,
			"-0.011": 2.43727474981,
			"-0.01": 2.37971007611,
			"-0.009": 3.23767033301,
			"-0.008": 4.1784301767,
			"-0.007": 4.00156409709,
			"-0.006": 10.6414758745,
			"-0.005": 19.0560886915,
			"-0.004": 21.4434959618,
			"-0.003": 22.9376438536,
			"-0.002": 20.7486357929,
			"-0.001": 20.0464581114,
			"0.0": 16.9306078654,
			"0.001": 22.4642513849,
			"0.002": 23.0398810059,
			"0.003": 21.5163493819,
			"0.004": 13.7443133955,
			"0.005": 11.5222990363,
			"0.006": 9.32604397122,
			"0.007": 4.52304414715,
			"0.008": 3.26461587732,
			"0.009": 3.62357912861,
			"0.01": 2.87496182398,
			"0.011": 3.40074985089,
			"0.012": 4.66170667805,
			"0.013": 2.92394409001,
			"0.014": 0.0470935517347,
			"0.015": 0.0,
			"0.016": 0.0,
			"0.017": 0.0,
			"0.018": 0.0,
			"0.019": 0.0,
			"0.02": 0.0,
			"0.021": 0.0,
			"0.022": 0.0,
			"0.023": 0.0,
			"0.024": 0.0,
			"0.025": 0.0
		}
	}
}
