{
	 "smiles": "CCC1=NC(SC)=NC(N)=N1", 
	 "Tm": 417.15, 
	 "num_atms": 21, 
	 "gaussian": { 
		 "optdone": 1, 
		 "sigma_profile": "yes", 
		 "theory": "DFT", 
		 "functional": "B3LYP", 
		 "basiset": "6-31G**", 
		 "properties": { 
			 "R2extent": 2401.4573, 
			 "electric_dipole_moment_norm": 1.42756768316, 
			 "electric_quadrupole_moment_norm": 12.6454019422, 
			 "total_energy": -851.896184072, 
			 "HOMO_LUMO_gap": 0.20547, 
			 "cosmo_polarized_energy": -10.9, 
			 "cosmo_cavitation_energy": 26.61, 
			 "cosmo_dispersion_energy": -19.9, 
			 "cosmo_repulsion_energy": 1.61, 
			 "cosmo_total_nonelectrostatic_energy": 8.32, 
			 "SMD_solvation_energy": 0.9 
		},
		"coords": [
			{
				"x": -3.5529486484,
				"y": 0.3151092524,
				"z": 0.7669321582,
				"element": "C" 
			},
			{
				"x": -2.7068837063,
				"y": 1.2977517725,
				"z": -0.0618467771,
				"element": "C" 
			},
			{
				"x": -1.2470734102,
				"y": 1.2272221098,
				"z": 0.3073597784,
				"element": "C" 
			},
			{
				"x": -0.5669208071,
				"y": 0.1418339919,
				"z": -0.1119316839,
				"element": "N" 
			},
			{
				"x": 0.7159067848,
				"y": 0.1169520164,
				"z": 0.2641783277,
				"element": "C" 
			},
			{
				"x": 1.7375675456,
				"y": -1.2461029598,
				"z": -0.217853991,
				"element": "S" 
			},
			{
				"x": 0.5610909967,
				"y": -2.2669117809,
				"z": -1.1682015102,
				"element": "C" 
			},
			{
				"x": 1.348237558,
				"y": 1.0414827759,
				"z": 0.9901526895,
				"element": "N" 
			},
			{
				"x": 0.567563843,
				"y": 2.0733230483,
				"z": 1.351752077,
				"element": "C" 
			},
			{
				"x": 1.1317544957,
				"y": 3.0503196329,
				"z": 2.0957457098,
				"element": "N" 
			},
			{
				"x": -0.7407200221,
				"y": 2.219818895,
				"z": 1.0374283107,
				"element": "N" 
			},
			{
				"x": -3.1998203271,
				"y": -0.7101370364,
				"z": 0.6250762578,
				"element": "H" 
			},
			{
				"x": -3.4957365261,
				"y": 0.5526438419,
				"z": 1.8339612657,
				"element": "H" 
			},
			{
				"x": -4.6034825725,
				"y": 0.3630807762,
				"z": 0.464591976,
				"element": "H" 
			},
			{
				"x": -2.8038543123,
				"y": 1.0516562805,
				"z": -1.1249021775,
				"element": "H" 
			},
			{
				"x": -3.0526039481,
				"y": 2.3232577116,
				"z": 0.0911930886,
				"element": "H" 
			},
			{
				"x": -0.2673784991,
				"y": -2.5911957487,
				"z": -0.5383520873,
				"element": "H" 
			},
			{
				"x": 0.1726346667,
				"y": -1.714177841,
				"z": -2.0236123296,
				"element": "H" 
			},
			{
				"x": 1.131740073,
				"y": -3.1332248407,
				"z": -1.5102428647,
				"element": "H" 
			},
			{
				"x": 0.5803436543,
				"y": 3.8511045665,
				"z": 2.353946085,
				"element": "H" 
			},
			{
				"x": 2.1099831616,
				"y": 2.9945935357,
				"z": 2.3245256967,
				"element": "H" 
			}
		],
		 "valence_orbital": [ 
			{
				"type": "occ",
				"energy": -0.31193,
				"method": "rhf"
			},
			{
				"type": "occ",
				"energy": -0.26119,
				"method": "rhf"
			},
			{
				"type": "occ",
				"energy": -0.25782,
				"method": "rhf"
			},
			{
				"type": "occ",
				"energy": -0.2499,
				"method": "rhf"
			},
			{
				"type": "occ",
				"energy": -0.23228,
				"method": "rhf"
			},
			{
				"type": "unocc",
				"energy": -0.02681,
				"method": "rhf"
			},
			{
				"type": "unocc",
				"energy": -0.00701,
				"method": "rhf"
			},
			{
				"type": "unocc",
				"energy": 0.04165,
				"method": "rhf"
			},
			{
				"type": "unocc",
				"energy": 0.08512,
				"method": "rhf"
			},
			{
				"type": "unocc",
				"energy": 0.09383,
				"method": "rhf"
			}
		],
		"cosmo_sigma_profile": { 
			"-0.025": 0.0,
			"-0.024": 0.0,
			"-0.023": 0.0,
			"-0.022": 0.0,
			"-0.021": 0.0,
			"-0.02": 0.0,
			"-0.019": 0.0,
			"-0.018": 0.0,
			"-0.017": 0.0,
			"-0.016": 0.0,
			"-0.015": 0.668146584319,
			"-0.014": 2.44088875942,
			"-0.013": 1.66113811398,
			"-0.012": 1.91242024484,
			"-0.011": 2.46231566866,
			"-0.01": 1.74975674016,
			"-0.009": 1.63693214323,
			"-0.008": 1.72318453965,
			"-0.007": 2.96361770961,
			"-0.006": 4.21168908026,
			"-0.005": 6.10902642674,
			"-0.004": 12.6432909186,
			"-0.003": 17.2563744567,
			"-0.002": 22.1441292564,
			"-0.001": 24.8572094161,
			"0.0": 19.4249873997,
			"0.001": 15.7392395161,
			"0.002": 11.8634908653,
			"0.003": 10.2068320356,
			"0.004": 10.0831076736,
			"0.005": 9.64414489619,
			"0.006": 8.31879788302,
			"0.007": 7.56012416179,
			"0.008": 3.8378977554,
			"0.009": 3.00112229301,
			"0.01": 2.61302182693,
			"0.011": 1.99917598977,
			"0.012": 1.45153313773,
			"0.013": 1.64126535836,
			"0.014": 0.41792317772,
			"0.015": 0.0,
			"0.016": 0.0,
			"0.017": 0.0,
			"0.018": 0.0,
			"0.019": 0.0,
			"0.02": 0.0,
			"0.021": 0.0,
			"0.022": 0.0,
			"0.023": 0.0,
			"0.024": 0.0,
			"0.025": 0.0
		}
	}
}
