{
	 "smiles": "NC(=S)CSC1=CC=CC=C1", 
	 "Tm": 362.65, 
	 "num_atms": 20, 
	 "gaussian": { 
		 "optdone": 1, 
		 "sigma_profile": "yes", 
		 "theory": "DFT", 
		 "functional": "B3LYP", 
		 "basiset": "6-31G**", 
		 "properties": { 
			 "R2extent": 3414.6412, 
			 "electric_dipole_moment_norm": 3.76306973627, 
			 "electric_quadrupole_moment_norm": 21.862689376, 
			 "total_energy": -1161.40716931, 
			 "HOMO_LUMO_gap": 0.17343, 
			 "cosmo_polarized_energy": -14.88, 
			 "cosmo_cavitation_energy": 27.49, 
			 "cosmo_dispersion_energy": -20.21, 
			 "cosmo_repulsion_energy": 1.56, 
			 "cosmo_total_nonelectrostatic_energy": 8.84, 
			 "SMD_solvation_energy": 3.27 
		},
		"coords": [
			{
				"x": -0.9996047526,
				"y": 0.2067726398,
				"z": -3.2262607865,
				"element": "N" 
			},
			{
				"x": -2.2170227977,
				"y": 0.2117220069,
				"z": -2.6698949196,
				"element": "C" 
			},
			{
				"x": -3.5118504957,
				"y": -0.6561412786,
				"z": -3.2509484677,
				"element": "S" 
			},
			{
				"x": -2.396141715,
				"y": 1.1414089285,
				"z": -1.4731898642,
				"element": "C" 
			},
			{
				"x": -0.8832383459,
				"y": 1.6426865978,
				"z": -0.5392613736,
				"element": "S" 
			},
			{
				"x": -0.5565412335,
				"y": 0.1739672922,
				"z": 0.4467826268,
				"element": "C" 
			},
			{
				"x": -1.4181372906,
				"y": -0.1825996143,
				"z": 1.493183882,
				"element": "C" 
			},
			{
				"x": -1.1399116556,
				"y": -1.3033407094,
				"z": 2.2748219394,
				"element": "C" 
			},
			{
				"x": 0.0094585373,
				"y": -2.0602228118,
				"z": 2.034413473,
				"element": "C" 
			},
			{
				"x": 0.8785613076,
				"y": -1.6957117464,
				"z": 1.0055995219,
				"element": "C" 
			},
			{
				"x": 0.5953164209,
				"y": -0.5849748211,
				"z": 0.2082296391,
				"element": "C" 
			},
			{
				"x": -0.2415057625,
				"y": 0.7221049738,
				"z": -2.7943700524,
				"element": "H" 
			},
			{
				"x": -0.8301978851,
				"y": -0.3720890716,
				"z": -4.0353277205,
				"element": "H" 
			},
			{
				"x": -3.1216549224,
				"y": 0.6999448355,
				"z": -0.7907142841,
				"element": "H" 
			},
			{
				"x": -2.8227577453,
				"y": 2.0823090756,
				"z": -1.8374491604,
				"element": "H" 
			},
			{
				"x": -2.2986121727,
				"y": 0.4194099998,
				"z": 1.6963465447,
				"element": "H" 
			},
			{
				"x": -1.8155120565,
				"y": -1.5784844817,
				"z": 3.0794520136,
				"element": "H" 
			},
			{
				"x": 0.22744067,
				"y": -2.9283435327,
				"z": 2.6493407938,
				"element": "H" 
			},
			{
				"x": 1.7745751535,
				"y": -2.2793920715,
				"z": 0.8154913105,
				"element": "H" 
			},
			{
				"x": 1.2672367418,
				"y": -0.3058262109,
				"z": -0.5972451157,
				"element": "H" 
			}
		],
		 "valence_orbital": [ 
			{
				"type": "occ",
				"energy": -0.27265,
				"method": "rhf"
			},
			{
				"type": "occ",
				"energy": -0.26501,
				"method": "rhf"
			},
			{
				"type": "occ",
				"energy": -0.24707,
				"method": "rhf"
			},
			{
				"type": "occ",
				"energy": -0.23123,
				"method": "rhf"
			},
			{
				"type": "occ",
				"energy": -0.20705,
				"method": "rhf"
			},
			{
				"type": "unocc",
				"energy": -0.03362,
				"method": "rhf"
			},
			{
				"type": "unocc",
				"energy": -0.02776,
				"method": "rhf"
			},
			{
				"type": "unocc",
				"energy": -0.01622,
				"method": "rhf"
			},
			{
				"type": "unocc",
				"energy": 0.03415,
				"method": "rhf"
			},
			{
				"type": "unocc",
				"energy": 0.05801,
				"method": "rhf"
			}
		],
		"cosmo_sigma_profile": { 
			"-0.025": 0.0,
			"-0.024": 0.0,
			"-0.023": 0.0,
			"-0.022": 0.0,
			"-0.021": 0.0,
			"-0.02": 0.0,
			"-0.019": 0.0,
			"-0.018": 0.0,
			"-0.017": 0.0,
			"-0.016": 0.123417953412,
			"-0.015": 1.30895099077,
			"-0.014": 0.846984716257,
			"-0.013": 1.97716558817,
			"-0.012": 2.00595995797,
			"-0.011": 1.95582882231,
			"-0.01": 1.81262247299,
			"-0.009": 2.83684090348,
			"-0.008": 3.29826330626,
			"-0.007": 6.53836478836,
			"-0.006": 16.8513561593,
			"-0.005": 15.0779024394,
			"-0.004": 16.0344967438,
			"-0.003": 11.526610095,
			"-0.002": 11.5192051062,
			"-0.001": 11.3156042666,
			"0.0": 11.4502255931,
			"0.001": 13.5348091745,
			"0.002": 13.6116210132,
			"0.003": 14.4228227728,
			"0.004": 16.8588198414,
			"0.005": 12.7302427814,
			"0.006": 5.93451594384,
			"0.007": 5.38920008577,
			"0.008": 5.91367515898,
			"0.009": 7.00702740905,
			"0.01": 5.28383587297,
			"0.011": 3.91526282882,
			"0.012": 2.45933992256,
			"0.013": 0.262281876249,
			"0.014": 0.0,
			"0.015": 0.0,
			"0.016": 0.0,
			"0.017": 0.0,
			"0.018": 0.0,
			"0.019": 0.0,
			"0.02": 0.0,
			"0.021": 0.0,
			"0.022": 0.0,
			"0.023": 0.0,
			"0.024": 0.0,
			"0.025": 0.0
		}
	}
}
