{
	 "smiles": "CCOC1=C(O)C(C=O)=CC=C1", 
	 "Tm": 340.15, 
	 "num_atms": 22, 
	 "gaussian": { 
		 "optdone": 1, 
		 "sigma_profile": "yes", 
		 "theory": "DFT", 
		 "functional": "B3LYP", 
		 "basiset": "6-31G**", 
		 "properties": { 
			 "R2extent": 2556.2168, 
			 "electric_dipole_moment_norm": 5.89975240667, 
			 "electric_quadrupole_moment_norm": 11.0004335928, 
			 "total_energy": -574.636459633, 
			 "HOMO_LUMO_gap": 0.16847, 
			 "cosmo_polarized_energy": -13.87, 
			 "cosmo_cavitation_energy": 26.11, 
			 "cosmo_dispersion_energy": -19.19, 
			 "cosmo_repulsion_energy": 1.54, 
			 "cosmo_total_nonelectrostatic_energy": 8.46, 
			 "SMD_solvation_energy": 6.27 
		},
		"coords": [
			{
				"x": 2.4032410345,
				"y": 0.0480007376,
				"z": 3.3254754471,
				"element": "C" 
			},
			{
				"x": 2.5187776071,
				"y": 0.2797323691,
				"z": 1.8297808374,
				"element": "C" 
			},
			{
				"x": 1.2081705293,
				"y": 0.1734447436,
				"z": 1.2691643534,
				"element": "O" 
			},
			{
				"x": 1.0480902274,
				"y": 0.3451377025,
				"z": -0.0832146985,
				"element": "C" 
			},
			{
				"x": -0.2975623916,
				"y": 0.2134225938,
				"z": -0.5036235035,
				"element": "C" 
			},
			{
				"x": -1.2473148668,
				"y": -0.0544317468,
				"z": 0.4153059422,
				"element": "O" 
			},
			{
				"x": -0.6115142728,
				"y": 0.3645094974,
				"z": -1.8656564834,
				"element": "C" 
			},
			{
				"x": -1.9842329114,
				"y": 0.2455944111,
				"z": -2.4015976346,
				"element": "C" 
			},
			{
				"x": -2.9976000289,
				"y": 0.0107158012,
				"z": -1.7741756292,
				"element": "O" 
			},
			{
				"x": 0.4271665444,
				"y": 0.6439738426,
				"z": -2.7772962097,
				"element": "C" 
			},
			{
				"x": 1.7406380589,
				"y": 0.7712932389,
				"z": -2.3583234839,
				"element": "C" 
			},
			{
				"x": 2.056434409,
				"y": 0.6207942778,
				"z": -0.9984587365,
				"element": "C" 
			},
			{
				"x": 1.9965971232,
				"y": -0.9457240219,
				"z": 3.5331583065,
				"element": "H" 
			},
			{
				"x": 3.3901388782,
				"y": 0.1216751651,
				"z": 3.7919565233,
				"element": "H" 
			},
			{
				"x": 1.7483321401,
				"y": 0.7944689664,
				"z": 3.7835791053,
				"element": "H" 
			},
			{
				"x": 3.1772784061,
				"y": -0.4662123194,
				"z": 1.3640049348,
				"element": "H" 
			},
			{
				"x": 2.9287419795,
				"y": 1.2760813969,
				"z": 1.6147786737,
				"element": "H" 
			},
			{
				"x": -0.7965767311,
				"y": -0.1136214512,
				"z": 1.273561862,
				"element": "H" 
			},
			{
				"x": -2.0250445069,
				"y": 0.3986313857,
				"z": -3.5061044634,
				"element": "H" 
			},
			{
				"x": 0.17301821,
				"y": 0.7588027006,
				"z": -3.8278966207,
				"element": "H" 
			},
			{
				"x": 2.530517803,
				"y": 0.9865301145,
				"z": -3.0704311102,
				"element": "H" 
			},
			{
				"x": 3.0843027588,
				"y": 0.7201805946,
				"z": -0.6688874121,
				"element": "H" 
			}
		],
		 "valence_orbital": [ 
			{
				"type": "occ",
				"energy": -0.34815,
				"method": "rhf"
			},
			{
				"type": "occ",
				"energy": -0.32643,
				"method": "rhf"
			},
			{
				"type": "occ",
				"energy": -0.2505,
				"method": "rhf"
			},
			{
				"type": "occ",
				"energy": -0.23635,
				"method": "rhf"
			},
			{
				"type": "occ",
				"energy": -0.21716,
				"method": "rhf"
			},
			{
				"type": "unocc",
				"energy": -0.04869,
				"method": "rhf"
			},
			{
				"type": "unocc",
				"energy": 0.00572,
				"method": "rhf"
			},
			{
				"type": "unocc",
				"energy": 0.05183,
				"method": "rhf"
			},
			{
				"type": "unocc",
				"energy": 0.07226,
				"method": "rhf"
			},
			{
				"type": "unocc",
				"energy": 0.08323,
				"method": "rhf"
			}
		],
		"cosmo_sigma_profile": { 
			"-0.025": 0.0,
			"-0.024": 0.0,
			"-0.023": 0.0,
			"-0.022": 0.0,
			"-0.021": 0.0,
			"-0.02": 0.0,
			"-0.019": 0.0,
			"-0.018": 0.0,
			"-0.017": 0.0,
			"-0.016": 0.0,
			"-0.015": 0.0545143269229,
			"-0.014": 0.660794607803,
			"-0.013": 0.42793407745,
			"-0.012": 0.174833018824,
			"-0.011": 0.675422082349,
			"-0.01": 1.19706627882,
			"-0.009": 0.55587315322,
			"-0.008": 0.461460430972,
			"-0.007": 5.65378418265,
			"-0.006": 11.8574243509,
			"-0.005": 17.039755068,
			"-0.004": 21.6969652456,
			"-0.003": 17.4778147438,
			"-0.002": 16.3130696912,
			"-0.001": 15.4487736764,
			"0.0": 17.0371288153,
			"0.001": 14.2185382569,
			"0.002": 13.4504647799,
			"0.003": 10.9434985929,
			"0.004": 9.70629271324,
			"0.005": 5.01543151204,
			"0.006": 1.86676019901,
			"0.007": 2.09959928527,
			"0.008": 2.3465746203,
			"0.009": 2.51579093461,
			"0.01": 2.97960536135,
			"0.011": 3.57664760135,
			"0.012": 4.65240006274,
			"0.013": 3.34449273122,
			"0.014": 1.94323869536,
			"0.015": 1.12103782119,
			"0.016": 0.775482429408,
			"0.017": 0.0240551270727,
			"0.018": 0.0,
			"0.019": 0.0,
			"0.02": 0.0,
			"0.021": 0.0,
			"0.022": 0.0,
			"0.023": 0.0,
			"0.024": 0.0,
			"0.025": 0.0
		}
	}
}
