{
	 "smiles": "OC(=O)C(CC#C)NC(=O)OCC1C2=C(C=CC=C2)C2=C1C=CC=C2", 
	 "Tm": 448.15, 
	 "num_atms": 42, 
	 "gaussian": { 
		 "optdone": 1, 
		 "sigma_profile": "yes", 
		 "theory": "DFT", 
		 "functional": "B3LYP", 
		 "basiset": "6-31G**", 
		 "properties": { 
			 "R2extent": 9808.6703, 
			 "electric_dipole_moment_norm": 1.196929104, 
			 "electric_quadrupole_moment_norm": 6.89945338125, 
			 "total_energy": -1127.99336628, 
			 "HOMO_LUMO_gap": 0.18414, 
			 "cosmo_polarized_energy": -21.4, 
			 "cosmo_cavitation_energy": 47.54, 
			 "cosmo_dispersion_energy": -30.93, 
			 "cosmo_repulsion_energy": 2.36, 
			 "cosmo_total_nonelectrostatic_energy": 18.98, 
			 "SMD_solvation_energy": 9.95 
		},
		"coords": [
			{
				"x": -3.4097064085,
				"y": 4.5674626807,
				"z": 1.1057665156,
				"element": "O" 
			},
			{
				"x": -2.9514335546,
				"y": 3.3888494304,
				"z": 1.5665709209,
				"element": "C" 
			},
			{
				"x": -3.6526006206,
				"y": 2.5701025633,
				"z": 2.1157247359,
				"element": "O" 
			},
			{
				"x": -1.4325926676,
				"y": 3.2205259305,
				"z": 1.37617515,
				"element": "C" 
			},
			{
				"x": -0.8258966257,
				"y": 4.0522503409,
				"z": 0.2121584977,
				"element": "C" 
			},
			{
				"x": -0.6213310069,
				"y": 5.4599530374,
				"z": 0.5466331402,
				"element": "C" 
			},
			{
				"x": -0.4169330914,
				"y": 6.6150503583,
				"z": 0.8330260716,
				"element": "C" 
			},
			{
				"x": -1.0978096066,
				"y": 1.8109565489,
				"z": 1.2687558814,
				"element": "N" 
			},
			{
				"x": -1.653610746,
				"y": 1.0571352481,
				"z": 0.2700124747,
				"element": "C" 
			},
			{
				"x": -2.23613243,
				"y": 1.5156398708,
				"z": -0.6983913282,
				"element": "O" 
			},
			{
				"x": -1.4360016103,
				"y": -0.25951264,
				"z": 0.5118114555,
				"element": "O" 
			},
			{
				"x": -1.870705982,
				"y": -1.1845591938,
				"z": -0.498795944,
				"element": "C" 
			},
			{
				"x": -0.6717056054,
				"y": -1.8695587389,
				"z": -1.1669169523,
				"element": "C" 
			},
			{
				"x": 0.3368458672,
				"y": -0.9194395375,
				"z": -1.7984043093,
				"element": "C" 
			},
			{
				"x": 1.6309961476,
				"y": -1.1886478049,
				"z": -1.3077112076,
				"element": "C" 
			},
			{
				"x": 2.7271365136,
				"y": -0.4513010714,
				"z": -1.7602793562,
				"element": "C" 
			},
			{
				"x": 2.5168147173,
				"y": 0.559904324,
				"z": -2.700614384,
				"element": "C" 
			},
			{
				"x": 1.2309231515,
				"y": 0.8321445477,
				"z": -3.1798432714,
				"element": "C" 
			},
			{
				"x": 0.130893118,
				"y": 0.0914602556,
				"z": -2.7307313527,
				"element": "C" 
			},
			{
				"x": 1.5468513666,
				"y": -2.2865343038,
				"z": -0.334738577,
				"element": "C" 
			},
			{
				"x": 0.201405766,
				"y": -2.6929019933,
				"z": -0.2306112867,
				"element": "C" 
			},
			{
				"x": -0.1589678062,
				"y": -3.7260726861,
				"z": 0.6265407668,
				"element": "C" 
			},
			{
				"x": 0.8333262264,
				"y": -4.3545407944,
				"z": 1.3884098299,
				"element": "C" 
			},
			{
				"x": 2.1691440912,
				"y": -3.9520084447,
				"z": 1.2853670876,
				"element": "C" 
			},
			{
				"x": 2.5365621435,
				"y": -2.9167024447,
				"z": 0.4225456971,
				"element": "C" 
			},
			{
				"x": -4.3628826668,
				"y": 4.5833215648,
				"z": 1.2970654515,
				"element": "H" 
			},
			{
				"x": -0.9771434748,
				"y": 3.5750601297,
				"z": 2.3075451448,
				"element": "H" 
			},
			{
				"x": -1.4562521145,
				"y": 3.9462804904,
				"z": -0.674353556,
				"element": "H" 
			},
			{
				"x": 0.1396657783,
				"y": 3.5945408186,
				"z": -0.0311826866,
				"element": "H" 
			},
			{
				"x": -0.2518963711,
				"y": 7.6385708237,
				"z": 1.0771257998,
				"element": "H" 
			},
			{
				"x": -0.8624755869,
				"y": 1.3122732696,
				"z": 2.114301552,
				"element": "H" 
			},
			{
				"x": -2.4761689604,
				"y": -0.6484072206,
				"z": -1.232084656,
				"element": "H" 
			},
			{
				"x": -2.496933424,
				"y": -1.9245338292,
				"z": 0.0085929972,
				"element": "H" 
			},
			{
				"x": -1.0997822922,
				"y": -2.5259037387,
				"z": -1.941232394,
				"element": "H" 
			},
			{
				"x": 3.7276232671,
				"y": -0.6555930204,
				"z": -1.388857079,
				"element": "H" 
			},
			{
				"x": 3.3595311115,
				"y": 1.1429337268,
				"z": -3.0613840453,
				"element": "H" 
			},
			{
				"x": 1.0834228105,
				"y": 1.6263587852,
				"z": -3.9058795564,
				"element": "H" 
			},
			{
				"x": -0.8661812843,
				"y": 0.3213934582,
				"z": -3.0944661735,
				"element": "H" 
			},
			{
				"x": -1.194155071,
				"y": -4.0479705296,
				"z": 0.7107287522,
				"element": "H" 
			},
			{
				"x": 0.564083958,
				"y": -5.1617341321,
				"z": 2.0634857834,
				"element": "H" 
			},
			{
				"x": 2.928122041,
				"y": -4.4506061278,
				"z": 1.8816006199,
				"element": "H" 
			},
			{
				"x": 3.5761509323,
				"y": -2.6100399518,
				"z": 0.3460337907,
				"element": "H" 
			}
		],
		 "valence_orbital": [ 
			{
				"type": "occ",
				"energy": -0.25849,
				"method": "rhf"
			},
			{
				"type": "occ",
				"energy": -0.25662,
				"method": "rhf"
			},
			{
				"type": "occ",
				"energy": -0.24893,
				"method": "rhf"
			},
			{
				"type": "occ",
				"energy": -0.24295,
				"method": "rhf"
			},
			{
				"type": "occ",
				"energy": -0.21424,
				"method": "rhf"
			},
			{
				"type": "unocc",
				"energy": -0.0301,
				"method": "rhf"
			},
			{
				"type": "unocc",
				"energy": -0.0121,
				"method": "rhf"
			},
			{
				"type": "unocc",
				"energy": 0.00286,
				"method": "rhf"
			},
			{
				"type": "unocc",
				"energy": 0.00916,
				"method": "rhf"
			},
			{
				"type": "unocc",
				"energy": 0.04177,
				"method": "rhf"
			}
		],
		"cosmo_sigma_profile": { 
			"-0.025": 0.0,
			"-0.024": 0.0,
			"-0.023": 0.0,
			"-0.022": 0.0,
			"-0.021": 0.0,
			"-0.02": 0.0,
			"-0.019": 0.26981975891,
			"-0.018": 0.930549557741,
			"-0.017": 1.11456474345,
			"-0.016": 0.51404654762,
			"-0.015": 1.91202737472,
			"-0.014": 2.16094617059,
			"-0.013": 1.79187914166,
			"-0.012": 2.15381666463,
			"-0.011": 3.06480618111,
			"-0.01": 4.09605198572,
			"-0.009": 3.87223073486,
			"-0.008": 4.09163221625,
			"-0.007": 5.86993677517,
			"-0.006": 21.1369678052,
			"-0.005": 31.1753163699,
			"-0.004": 29.040965452,
			"-0.003": 27.2552068338,
			"-0.002": 18.6003627258,
			"-0.001": 20.1582144103,
			"0.0": 18.1860553301,
			"0.001": 16.8687746235,
			"0.002": 21.1758973939,
			"0.003": 26.7192905437,
			"0.004": 27.5034864938,
			"0.005": 27.5169775346,
			"0.006": 22.9077350115,
			"0.007": 12.0968448831,
			"0.008": 6.3800124051,
			"0.009": 5.11575942645,
			"0.01": 4.75653984988,
			"0.011": 6.35284830242,
			"0.012": 4.3266125788,
			"0.013": 0.206595860784,
			"0.014": 0.0,
			"0.015": 0.0,
			"0.016": 0.0,
			"0.017": 0.0,
			"0.018": 0.0,
			"0.019": 0.0,
			"0.02": 0.0,
			"0.021": 0.0,
			"0.022": 0.0,
			"0.023": 0.0,
			"0.024": 0.0,
			"0.025": 0.0
		}
	}
}
