{
	 "smiles": "COC1=C(N)C=C(C=C1)S(=O)(=O)N(C)C", 
	 "Tm": 466.15, 
	 "num_atms": 29, 
	 "gaussian": { 
		 "optdone": 1, 
		 "sigma_profile": "yes", 
		 "theory": "DFT", 
		 "functional": "B3LYP", 
		 "basiset": "6-31G**", 
		 "properties": { 
			 "R2extent": 4349.3354, 
			 "electric_dipole_moment_norm": 5.40278034164, 
			 "electric_quadrupole_moment_norm": 26.0264500117, 
			 "total_energy": -1084.67465206, 
			 "HOMO_LUMO_gap": 0.18814, 
			 "cosmo_polarized_energy": -17.85, 
			 "cosmo_cavitation_energy": 33.14, 
			 "cosmo_dispersion_energy": -24.18, 
			 "cosmo_repulsion_energy": 1.86, 
			 "cosmo_total_nonelectrostatic_energy": 10.82, 
			 "SMD_solvation_energy": 5.19 
		},
		"coords": [
			{
				"x": -3.9774002416,
				"y": -3.0172832039,
				"z": -0.4255299168,
				"element": "C" 
			},
			{
				"x": -3.2317323894,
				"y": -2.2860357117,
				"z": 0.5369946621,
				"element": "O" 
			},
			{
				"x": -2.3292298298,
				"y": -1.3598121987,
				"z": 0.0933315502,
				"element": "C" 
			},
			{
				"x": -1.6563960779,
				"y": -0.6629164105,
				"z": 1.1340638659,
				"element": "C" 
			},
			{
				"x": -1.9102835328,
				"y": -1.013550081,
				"z": 2.45433609,
				"element": "N" 
			},
			{
				"x": -0.7295885308,
				"y": 0.3169809109,
				"z": 0.782454049,
				"element": "C" 
			},
			{
				"x": -0.4724922878,
				"y": 0.5861540183,
				"z": -0.5669044703,
				"element": "C" 
			},
			{
				"x": -1.1284027019,
				"y": -0.0935829843,
				"z": -1.5860652404,
				"element": "C" 
			},
			{
				"x": -2.0658428919,
				"y": -1.0759005059,
				"z": -1.2437805296,
				"element": "C" 
			},
			{
				"x": 0.6781987284,
				"y": 1.8896216486,
				"z": -0.9832446215,
				"element": "S" 
			},
			{
				"x": 0.6751624871,
				"y": 2.0411596693,
				"z": -2.4472146621,
				"element": "O" 
			},
			{
				"x": 0.4254136187,
				"y": 3.051766802,
				"z": -0.1229352782,
				"element": "O" 
			},
			{
				"x": 2.1554721795,
				"y": 1.2243699001,
				"z": -0.4385520205,
				"element": "N" 
			},
			{
				"x": 3.1743920004,
				"y": 2.2330604156,
				"z": -0.1143443778,
				"element": "C" 
			},
			{
				"x": 2.6569657812,
				"y": 0.1398460481,
				"z": -1.2896860487,
				"element": "C" 
			},
			{
				"x": -4.6304876451,
				"y": -3.6831172734,
				"z": 0.1402163274,
				"element": "H" 
			},
			{
				"x": -3.3209899702,
				"y": -3.6152744367,
				"z": -1.0695316226,
				"element": "H" 
			},
			{
				"x": -4.5879102217,
				"y": -2.3528897492,
				"z": -1.0496357318,
				"element": "H" 
			},
			{
				"x": -1.7281769561,
				"y": -0.2921792362,
				"z": 3.1372574433,
				"element": "H" 
			},
			{
				"x": -2.7886686595,
				"y": -1.4917710727,
				"z": 2.5969953294,
				"element": "H" 
			},
			{
				"x": -0.2076877088,
				"y": 0.8717353525,
				"z": 1.5553396401,
				"element": "H" 
			},
			{
				"x": -0.9217957436,
				"y": 0.1492872593,
				"z": -2.6213850851,
				"element": "H" 
			},
			{
				"x": -2.5891798296,
				"y": -1.6065592342,
				"z": -2.0301168008,
				"element": "H" 
			},
			{
				"x": 3.6192037092,
				"y": 2.692559466,
				"z": -1.009217358,
				"element": "H" 
			},
			{
				"x": 2.7287328057,
				"y": 3.0114840195,
				"z": 0.5039075872,
				"element": "H" 
			},
			{
				"x": 3.9657206125,
				"y": 1.7348311198,
				"z": 0.4536527734,
				"element": "H" 
			},
			{
				"x": 3.4799999866,
				"y": -0.3500115816,
				"z": -0.7613637333,
				"element": "H" 
			},
			{
				"x": 3.0149627811,
				"y": 0.4962047738,
				"z": -2.2651581661,
				"element": "H" 
			},
			{
				"x": 1.869840528,
				"y": -0.6001777238,
				"z": -1.4505836544,
				"element": "H" 
			}
		],
		 "valence_orbital": [ 
			{
				"type": "occ",
				"energy": -0.295,
				"method": "rhf"
			},
			{
				"type": "occ",
				"energy": -0.28595,
				"method": "rhf"
			},
			{
				"type": "occ",
				"energy": -0.25298,
				"method": "rhf"
			},
			{
				"type": "occ",
				"energy": -0.2365,
				"method": "rhf"
			},
			{
				"type": "occ",
				"energy": -0.20652,
				"method": "rhf"
			},
			{
				"type": "unocc",
				"energy": -0.01838,
				"method": "rhf"
			},
			{
				"type": "unocc",
				"energy": 0.00111,
				"method": "rhf"
			},
			{
				"type": "unocc",
				"energy": 0.07128,
				"method": "rhf"
			},
			{
				"type": "unocc",
				"energy": 0.07863,
				"method": "rhf"
			},
			{
				"type": "unocc",
				"energy": 0.08689,
				"method": "rhf"
			}
		],
		"cosmo_sigma_profile": { 
			"-0.025": 0.0,
			"-0.024": 0.0,
			"-0.023": 0.0,
			"-0.022": 0.0,
			"-0.021": 0.0,
			"-0.02": 0.0,
			"-0.019": 0.0,
			"-0.018": 0.0,
			"-0.017": 0.0,
			"-0.016": 0.0,
			"-0.015": 0.0,
			"-0.014": 0.0417870598906,
			"-0.013": 1.11053903882,
			"-0.012": 1.65636020335,
			"-0.011": 2.0589029518,
			"-0.01": 2.7025417604,
			"-0.009": 2.58248455095,
			"-0.008": 2.69370237484,
			"-0.007": 5.00722838309,
			"-0.006": 16.1798050778,
			"-0.005": 20.4070973119,
			"-0.004": 24.2507922919,
			"-0.003": 26.2658968979,
			"-0.002": 24.9491135656,
			"-0.001": 12.362766967,
			"0.0": 11.0232987413,
			"0.001": 12.9035824168,
			"0.002": 12.7161779175,
			"0.003": 16.3889644874,
			"0.004": 14.3258464576,
			"0.005": 7.52085887948,
			"0.006": 5.65670538157,
			"0.007": 5.93971982794,
			"0.008": 4.77519645445,
			"0.009": 4.52490598443,
			"0.01": 5.78194623861,
			"0.011": 9.09831612666,
			"0.012": 7.22428186465,
			"0.013": 1.14996115545,
			"0.014": 0.300239104907,
			"0.015": 0.0,
			"0.016": 0.0,
			"0.017": 0.0,
			"0.018": 0.0,
			"0.019": 0.0,
			"0.02": 0.0,
			"0.021": 0.0,
			"0.022": 0.0,
			"0.023": 0.0,
			"0.024": 0.0,
			"0.025": 0.0
		}
	}
}
