{
	 "smiles": "OC(=O)C1=CC=CN1CC1=CC=CS1", 
	 "Tm": 408.15, 
	 "num_atms": 23, 
	 "gaussian": { 
		 "optdone": 1, 
		 "sigma_profile": "yes", 
		 "theory": "DFT", 
		 "functional": "B3LYP", 
		 "basiset": "6-31G**", 
		 "properties": { 
			 "R2extent": 3762.7447, 
			 "electric_dipole_moment_norm": 4.12382408209, 
			 "electric_quadrupole_moment_norm": 7.99277986248, 
			 "total_energy": -989.856765951, 
			 "HOMO_LUMO_gap": 0.1978, 
			 "cosmo_polarized_energy": -15.89, 
			 "cosmo_cavitation_energy": 28.66, 
			 "cosmo_dispersion_energy": -21.09, 
			 "cosmo_repulsion_energy": 1.6, 
			 "cosmo_total_nonelectrostatic_energy": 9.17, 
			 "SMD_solvation_energy": 6.01 
		},
		"coords": [
			{
				"x": 3.0506582664,
				"y": -0.4264541023,
				"z": 0.6177175059,
				"element": "O" 
			},
			{
				"x": 1.7375265229,
				"y": -0.7724075541,
				"z": 0.6802434978,
				"element": "C" 
			},
			{
				"x": 1.1439951589,
				"y": -1.0265373234,
				"z": -0.3515248957,
				"element": "O" 
			},
			{
				"x": 1.1525928172,
				"y": -0.8142190264,
				"z": 2.0256421448,
				"element": "C" 
			},
			{
				"x": 1.772691198,
				"y": -0.6988340285,
				"z": 3.2702950149,
				"element": "C" 
			},
			{
				"x": 0.7822692183,
				"y": -0.8307070365,
				"z": 4.2633827941,
				"element": "C" 
			},
			{
				"x": -0.4188286798,
				"y": -1.0260950166,
				"z": 3.6032171469,
				"element": "C" 
			},
			{
				"x": -0.1999654417,
				"y": -1.0278427513,
				"z": 2.2572344404,
				"element": "N" 
			},
			{
				"x": -1.277597746,
				"y": -1.1688854066,
				"z": 1.2578258511,
				"element": "C" 
			},
			{
				"x": -1.9537179945,
				"y": 0.1248901835,
				"z": 0.8995221533,
				"element": "C" 
			},
			{
				"x": -3.1488868875,
				"y": 0.596211911,
				"z": 1.3810734838,
				"element": "C" 
			},
			{
				"x": -3.5143863825,
				"y": 1.8687927041,
				"z": 0.8491140348,
				"element": "C" 
			},
			{
				"x": -2.5865364878,
				"y": 2.3502409811,
				"z": -0.0329426412,
				"element": "C" 
			},
			{
				"x": -1.2593752204,
				"y": 1.2552436994,
				"z": -0.2372490305,
				"element": "S" 
			},
			{
				"x": 3.3666331876,
				"y": -0.1449918055,
				"z": 1.4871086912,
				"element": "H" 
			},
			{
				"x": 2.8324876883,
				"y": -0.5696521877,
				"z": 3.451557524,
				"element": "H" 
			},
			{
				"x": 0.9223713128,
				"y": -0.7997214966,
				"z": 5.3341546562,
				"element": "H" 
			},
			{
				"x": -1.4167357615,
				"y": -1.1633660392,
				"z": 3.9943275203,
				"element": "H" 
			},
			{
				"x": -2.0215233008,
				"y": -1.84136468,
				"z": 1.693852176,
				"element": "H" 
			},
			{
				"x": -0.8429100505,
				"y": -1.6464605992,
				"z": 0.3816996673,
				"element": "H" 
			},
			{
				"x": -3.7531511589,
				"y": 0.044179332,
				"z": 2.0940051195,
				"element": "H" 
			},
			{
				"x": -4.42459818,
				"y": 2.3963375228,
				"z": 1.1104810145,
				"element": "H" 
			},
			{
				"x": -2.6071120783,
				"y": 3.2806427201,
				"z": -0.5838378695,
				"element": "H" 
			}
		],
		 "valence_orbital": [ 
			{
				"type": "occ",
				"energy": -0.27314,
				"method": "rhf"
			},
			{
				"type": "occ",
				"energy": -0.25792,
				"method": "rhf"
			},
			{
				"type": "occ",
				"energy": -0.25082,
				"method": "rhf"
			},
			{
				"type": "occ",
				"energy": -0.233,
				"method": "rhf"
			},
			{
				"type": "occ",
				"energy": -0.23222,
				"method": "rhf"
			},
			{
				"type": "unocc",
				"energy": -0.03442,
				"method": "rhf"
			},
			{
				"type": "unocc",
				"energy": -0.01394,
				"method": "rhf"
			},
			{
				"type": "unocc",
				"energy": 0.03743,
				"method": "rhf"
			},
			{
				"type": "unocc",
				"energy": 0.04633,
				"method": "rhf"
			},
			{
				"type": "unocc",
				"energy": 0.05975,
				"method": "rhf"
			}
		],
		"cosmo_sigma_profile": { 
			"-0.025": 0.0,
			"-0.024": 0.0,
			"-0.023": 0.0,
			"-0.022": 0.0,
			"-0.021": 0.0,
			"-0.02": 0.0,
			"-0.019": 0.0509453217821,
			"-0.018": 0.68248119528,
			"-0.017": 1.02013592903,
			"-0.016": 1.07653949103,
			"-0.015": 0.781552742166,
			"-0.014": 1.57778645402,
			"-0.013": 0.502895108248,
			"-0.012": 0.410291237271,
			"-0.011": 1.79689668326,
			"-0.01": 1.03659684199,
			"-0.009": 1.91840599361,
			"-0.008": 7.81469633078,
			"-0.007": 10.8491903437,
			"-0.006": 12.7564447267,
			"-0.005": 11.3956598477,
			"-0.004": 14.0528784306,
			"-0.003": 13.8318667072,
			"-0.002": 12.0210211757,
			"-0.001": 12.1586045035,
			"0.0": 13.7088344919,
			"0.001": 11.7374476697,
			"0.002": 14.429961803,
			"0.003": 16.1368887829,
			"0.004": 21.4218733675,
			"0.005": 17.0458777594,
			"0.006": 8.73224904853,
			"0.007": 3.38944114617,
			"0.008": 2.22929512772,
			"0.009": 3.43286570186,
			"0.01": 3.79587071503,
			"0.011": 4.06553169677,
			"0.012": 3.03546303274,
			"0.013": 2.47054727367,
			"0.014": 0.508341355451,
			"0.015": 0.0,
			"0.016": 0.0,
			"0.017": 0.0,
			"0.018": 0.0,
			"0.019": 0.0,
			"0.02": 0.0,
			"0.021": 0.0,
			"0.022": 0.0,
			"0.023": 0.0,
			"0.024": 0.0,
			"0.025": 0.0
		}
	}
}
