{
	 "smiles": "CC(C)C(=O)OC(=O)C(C)C", 
	 "Tm": 218.35, 
	 "num_atms": 25, 
	 "gaussian": { 
		 "optdone": 1, 
		 "sigma_profile": "yes", 
		 "theory": "DFT", 
		 "functional": "B3LYP", 
		 "basiset": "6-31G**", 
		 "properties": { 
			 "R2extent": 2571.4667, 
			 "electric_dipole_moment_norm": 3.93429591414, 
			 "electric_quadrupole_moment_norm": 17.0571163788, 
			 "total_energy": -538.992695178, 
			 "HOMO_LUMO_gap": 0.24076, 
			 "cosmo_polarized_energy": -9.77, 
			 "cosmo_cavitation_energy": 28.58, 
			 "cosmo_dispersion_energy": -18.86, 
			 "cosmo_repulsion_energy": 1.57, 
			 "cosmo_total_nonelectrostatic_energy": 11.28, 
			 "SMD_solvation_energy": 7.01 
		},
		"coords": [
			{
				"x": -0.6194009031,
				"y": -3.0619484299,
				"z": 1.2099311162,
				"element": "C" 
			},
			{
				"x": -1.1497294059,
				"y": -2.2480148716,
				"z": 0.0156676169,
				"element": "C" 
			},
			{
				"x": -0.0672274061,
				"y": -2.0441757208,
				"z": -1.0601159794,
				"element": "C" 
			},
			{
				"x": -1.7207665387,
				"y": -0.921114813,
				"z": 0.4830027128,
				"element": "C" 
			},
			{
				"x": -2.8579954064,
				"y": -0.5557078111,
				"z": 0.3697047007,
				"element": "O" 
			},
			{
				"x": -0.7198513533,
				"y": -0.1152916224,
				"z": 1.0326872368,
				"element": "O" 
			},
			{
				"x": -1.0237234151,
				"y": 0.8416093247,
				"z": 2.0050021269,
				"element": "C" 
			},
			{
				"x": -1.9297854512,
				"y": 0.7123826377,
				"z": 2.7808814923,
				"element": "O" 
			},
			{
				"x": -0.0288582615,
				"y": 1.9877923654,
				"z": 1.9639852721,
				"element": "C" 
			},
			{
				"x": 1.4058801366,
				"y": 1.4936989459,
				"z": 2.2249184688,
				"element": "C" 
			},
			{
				"x": -0.1345173102,
				"y": 2.7513231374,
				"z": 0.6313680678,
				"element": "C" 
			},
			{
				"x": 0.2272973237,
				"y": -2.5555765734,
				"z": 1.6823088421,
				"element": "H" 
			},
			{
				"x": -0.2823243762,
				"y": -4.0456443258,
				"z": 0.8684879451,
				"element": "H" 
			},
			{
				"x": -1.394255688,
				"y": -3.2135179713,
				"z": 1.9675165017,
				"element": "H" 
			},
			{
				"x": -2.0014940455,
				"y": -2.7728421247,
				"z": -0.4284380787,
				"element": "H" 
			},
			{
				"x": 0.2773735716,
				"y": -3.0158864573,
				"z": -1.4273564078,
				"element": "H" 
			},
			{
				"x": -0.4516425101,
				"y": -1.478057007,
				"z": -1.9142577716,
				"element": "H" 
			},
			{
				"x": 0.7944424511,
				"y": -1.5082623136,
				"z": -0.6524034718,
				"element": "H" 
			},
			{
				"x": -0.334881644,
				"y": 2.6470536559,
				"z": 2.7824597372,
				"element": "H" 
			},
			{
				"x": 2.090975393,
				"y": 2.3465870862,
				"z": 2.2576180845,
				"element": "H" 
			},
			{
				"x": 1.4807289056,
				"y": 0.9644032121,
				"z": 3.1799393006,
				"element": "H" 
			},
			{
				"x": 1.7384547757,
				"y": 0.8190180823,
				"z": 1.4311304921,
				"element": "H" 
			},
			{
				"x": 0.1549134405,
				"y": 2.112878487,
				"z": -0.2083087623,
				"element": "H" 
			},
			{
				"x": -1.1530940715,
				"y": 3.1097318424,
				"z": 0.4543189457,
				"element": "H" 
			},
			{
				"x": 0.532181789,
				"y": 3.6191612652,
				"z": 0.6467518116,
				"element": "H" 
			}
		],
		 "valence_orbital": [ 
			{
				"type": "occ",
				"energy": -0.34926,
				"method": "rhf"
			},
			{
				"type": "occ",
				"energy": -0.34774,
				"method": "rhf"
			},
			{
				"type": "occ",
				"energy": -0.31824,
				"method": "rhf"
			},
			{
				"type": "occ",
				"energy": -0.28763,
				"method": "rhf"
			},
			{
				"type": "occ",
				"energy": -0.2651,
				"method": "rhf"
			},
			{
				"type": "unocc",
				"energy": -0.02434,
				"method": "rhf"
			},
			{
				"type": "unocc",
				"energy": 0.01539,
				"method": "rhf"
			},
			{
				"type": "unocc",
				"energy": 0.06912,
				"method": "rhf"
			},
			{
				"type": "unocc",
				"energy": 0.09738,
				"method": "rhf"
			},
			{
				"type": "unocc",
				"energy": 0.1149,
				"method": "rhf"
			}
		],
		"cosmo_sigma_profile": { 
			"-0.025": 0.0,
			"-0.024": 0.0,
			"-0.023": 0.0,
			"-0.022": 0.0,
			"-0.021": 0.0,
			"-0.02": 0.0,
			"-0.019": 0.0,
			"-0.018": 0.0,
			"-0.017": 0.0,
			"-0.016": 0.0,
			"-0.015": 0.0,
			"-0.014": 0.0,
			"-0.013": 0.0,
			"-0.012": 0.0,
			"-0.011": 0.0,
			"-0.01": 0.0,
			"-0.009": 0.0,
			"-0.008": 0.0,
			"-0.007": 0.0,
			"-0.006": 0.0509796309536,
			"-0.005": 9.20103576467,
			"-0.004": 28.7412765194,
			"-0.003": 33.3243295896,
			"-0.002": 32.3456404785,
			"-0.001": 29.640354735,
			"0.0": 32.5802508612,
			"0.001": 12.2297790124,
			"0.002": 5.40455847464,
			"0.003": 2.51132963207,
			"0.004": 2.83234864813,
			"0.005": 1.8028688432,
			"0.006": 2.18687773336,
			"0.007": 2.62517626729,
			"0.008": 2.94166516888,
			"0.009": 4.85664843528,
			"0.01": 8.32983824163,
			"0.011": 8.79119156099,
			"0.012": 2.25677722898,
			"0.013": 0.00260840675746,
			"0.014": 0.0,
			"0.015": 0.0,
			"0.016": 0.0,
			"0.017": 0.0,
			"0.018": 0.0,
			"0.019": 0.0,
			"0.02": 0.0,
			"0.021": 0.0,
			"0.022": 0.0,
			"0.023": 0.0,
			"0.024": 0.0,
			"0.025": 0.0
		}
	}
}
