{
	 "smiles": "BrC1=CC2=C(NC=C2)C=C1", 
	 "Tm": 364.15, 
	 "num_atms": 16, 
	 "gaussian": { 
		 "optdone": 1, 
		 "sigma_profile": "yes", 
		 "theory": "DFT", 
		 "functional": "B3LYP", 
		 "basiset": "6-31G**", 
		 "properties": { 
			 "R2extent": 3994.5629, 
			 "electric_dipole_moment_norm": 4.28788502295, 
			 "electric_quadrupole_moment_norm": 8.58321567421, 
			 "total_energy": -2934.62472263, 
			 "HOMO_LUMO_gap": 0.19306, 
			 "cosmo_polarized_energy": -9.28, 
			 "cosmo_cavitation_energy": 22.24, 
			 "cosmo_dispersion_energy": -17.31, 
			 "cosmo_repulsion_energy": 1.39, 
			 "cosmo_total_nonelectrostatic_energy": 6.32, 
			 "SMD_solvation_energy": 2.62 
		},
		"coords": [
			{
				"x": -2.2013065673,
				"y": -3.0665288608,
				"z": -2.9030807199,
				"element": "Br" 
			},
			{
				"x": -1.1680668623,
				"y": -2.1788796532,
				"z": -1.5521896109,
				"element": "C" 
			},
			{
				"x": -0.7358983553,
				"y": -0.8817566809,
				"z": -1.7774419557,
				"element": "C" 
			},
			{
				"x": 0.0198818521,
				"y": -0.25180082,
				"z": -0.7728506918,
				"element": "C" 
			},
			{
				"x": 0.3090521628,
				"y": -0.9643626172,
				"z": 0.4254642355,
				"element": "C" 
			},
			{
				"x": 1.0537715992,
				"y": -0.1250390926,
				"z": 1.2285405162,
				"element": "N" 
			},
			{
				"x": 1.2396684438,
				"y": 1.0809803283,
				"z": 0.5784487927,
				"element": "C" 
			},
			{
				"x": 0.6247933814,
				"y": 1.044741401,
				"z": -0.6452467925,
				"element": "C" 
			},
			{
				"x": -0.1341036392,
				"y": -2.2733897715,
				"z": 0.6385508659,
				"element": "C" 
			},
			{
				"x": -0.8795448589,
				"y": -2.8793246143,
				"z": -0.3654447431,
				"element": "C" 
			},
			{
				"x": -0.9760252115,
				"y": -0.3712108426,
				"z": -2.7032570633,
				"element": "H" 
			},
			{
				"x": 1.4065507172,
				"y": -0.3535381421,
				"z": 2.1432905374,
				"element": "H" 
			},
			{
				"x": 1.802265009,
				"y": 1.8747470211,
				"z": 1.0488125442,
				"element": "H" 
			},
			{
				"x": 0.604615321,
				"y": 1.8456094787,
				"z": -1.3700901721,
				"element": "H" 
			},
			{
				"x": 0.0916649633,
				"y": -2.8087260149,
				"z": 1.556252678,
				"element": "H" 
			},
			{
				"x": -1.2424179552,
				"y": -3.8927211189,
				"z": -0.2408584205,
				"element": "H" 
			}
		],
		 "valence_orbital": [ 
			{
				"type": "occ",
				"energy": -0.28989,
				"method": "rhf"
			},
			{
				"type": "occ",
				"energy": -0.28178,
				"method": "rhf"
			},
			{
				"type": "occ",
				"energy": -0.27538,
				"method": "rhf"
			},
			{
				"type": "occ",
				"energy": -0.2189,
				"method": "rhf"
			},
			{
				"type": "occ",
				"energy": -0.21092,
				"method": "rhf"
			},
			{
				"type": "unocc",
				"energy": -0.01786,
				"method": "rhf"
			},
			{
				"type": "unocc",
				"energy": 0.01777,
				"method": "rhf"
			},
			{
				"type": "unocc",
				"energy": 0.01797,
				"method": "rhf"
			},
			{
				"type": "unocc",
				"energy": 0.06359,
				"method": "rhf"
			},
			{
				"type": "unocc",
				"energy": 0.07359,
				"method": "rhf"
			}
		],
		"cosmo_sigma_profile": { 
			"-0.025": 0.0,
			"-0.024": 0.0,
			"-0.023": 0.0,
			"-0.022": 0.0,
			"-0.021": 0.0,
			"-0.02": 0.0,
			"-0.019": 0.0,
			"-0.018": 0.0,
			"-0.017": 0.0,
			"-0.016": 0.620487506952,
			"-0.015": 1.73418285209,
			"-0.014": 1.70691367582,
			"-0.013": 1.11355418054,
			"-0.012": 1.22711397135,
			"-0.011": 1.30451322573,
			"-0.01": 1.24188748937,
			"-0.009": 1.4711579707,
			"-0.008": 4.30534785185,
			"-0.007": 4.609713887,
			"-0.006": 8.45470031029,
			"-0.005": 8.89077424851,
			"-0.004": 9.21305054654,
			"-0.003": 8.72378343803,
			"-0.002": 9.46301798335,
			"-0.001": 9.02157741432,
			"0.0": 9.36731554375,
			"0.001": 9.09918329059,
			"0.002": 11.4729221395,
			"0.003": 17.102624071,
			"0.004": 24.2925997705,
			"0.005": 27.8775773168,
			"0.006": 8.77080287888,
			"0.007": 1.06846838955,
			"0.008": 0.0,
			"0.009": 0.0,
			"0.01": 0.0,
			"0.011": 0.0,
			"0.012": 0.0,
			"0.013": 0.0,
			"0.014": 0.0,
			"0.015": 0.0,
			"0.016": 0.0,
			"0.017": 0.0,
			"0.018": 0.0,
			"0.019": 0.0,
			"0.02": 0.0,
			"0.021": 0.0,
			"0.022": 0.0,
			"0.023": 0.0,
			"0.024": 0.0,
			"0.025": 0.0
		}
	}
}
