{
	 "smiles": "COC1=C(OC)C=C2C(CO)NCCC2=C1", 
	 "Tm": 410.15, 
	 "num_atms": 33, 
	 "gaussian": { 
		 "optdone": 1, 
		 "sigma_profile": "yes", 
		 "theory": "DFT", 
		 "functional": "B3LYP", 
		 "basiset": "6-31G**", 
		 "properties": { 
			 "R2extent": 4274.9629, 
			 "electric_dipole_moment_norm": 1.03685914665, 
			 "electric_quadrupole_moment_norm": 9.82176893334, 
			 "total_energy": -747.898570342, 
			 "HOMO_LUMO_gap": 0.21783, 
			 "cosmo_polarized_energy": -12.45, 
			 "cosmo_cavitation_energy": 34.1, 
			 "cosmo_dispersion_energy": -24.55, 
			 "cosmo_repulsion_energy": 1.94, 
			 "cosmo_total_nonelectrostatic_energy": 11.5, 
			 "SMD_solvation_energy": 4.76 
		},
		"coords": [
			{
				"x": -2.9060630533,
				"y": 3.7173212795,
				"z": 0.9887741657,
				"element": "C" 
			},
			{
				"x": -1.5424741504,
				"y": 3.3852829496,
				"z": 1.2708962333,
				"element": "O" 
			},
			{
				"x": -1.1192126773,
				"y": 2.1855918033,
				"z": 0.7375247677,
				"element": "C" 
			},
			{
				"x": -1.5947929969,
				"y": 0.9519110038,
				"z": 1.2201436413,
				"element": "C" 
			},
			{
				"x": -2.5568887588,
				"y": 0.8912152239,
				"z": 2.2089353624,
				"element": "O" 
			},
			{
				"x": -2.0946384848,
				"y": 1.2705219154,
				"z": 3.5085631034,
				"element": "C" 
			},
			{
				"x": -1.1184144745,
				"y": -0.2308841255,
				"z": 0.6632781433,
				"element": "C" 
			},
			{
				"x": -0.1632896861,
				"y": -0.225430179,
				"z": -0.3647669494,
				"element": "C" 
			},
			{
				"x": 0.3364068464,
				"y": -1.5482394275,
				"z": -0.9499028508,
				"element": "C" 
			},
			{
				"x": 1.1589474082,
				"y": -2.3796028614,
				"z": 0.0556794515,
				"element": "C" 
			},
			{
				"x": 0.285965079,
				"y": -2.8522118471,
				"z": 1.075728746,
				"element": "O" 
			},
			{
				"x": 1.1196212861,
				"y": -1.4090151201,
				"z": -2.1877698288,
				"element": "N" 
			},
			{
				"x": 2.0489755036,
				"y": -0.2759142437,
				"z": -2.1568905055,
				"element": "C" 
			},
			{
				"x": 1.3389800059,
				"y": 1.0682134814,
				"z": -1.9617522911,
				"element": "C" 
			},
			{
				"x": 0.3253378693,
				"y": 1.0066696202,
				"z": -0.8345182067,
				"element": "C" 
			},
			{
				"x": -0.1652988753,
				"y": 2.1941651954,
				"z": -0.2753127138,
				"element": "C" 
			},
			{
				"x": -3.0643545909,
				"y": 3.8240120652,
				"z": -0.0922100493,
				"element": "H" 
			},
			{
				"x": -3.0953065467,
				"y": 4.6766154995,
				"z": 1.475579154,
				"element": "H" 
			},
			{
				"x": -3.5912016605,
				"y": 2.9604564841,
				"z": 1.3830075196,
				"element": "H" 
			},
			{
				"x": -2.9516038166,
				"y": 1.1780657872,
				"z": 4.1796094327,
				"element": "H" 
			},
			{
				"x": -1.7291035504,
				"y": 2.3026595673,
				"z": 3.5173127193,
				"element": "H" 
			},
			{
				"x": -1.2958776745,
				"y": 0.598954443,
				"z": 3.8489246043,
				"element": "H" 
			},
			{
				"x": -1.4927606459,
				"y": -1.1700978448,
				"z": 1.0539719188,
				"element": "H" 
			},
			{
				"x": -0.5332555119,
				"y": -2.1719891706,
				"z": -1.1915931143,
				"element": "H" 
			},
			{
				"x": 1.6131395547,
				"y": -3.2098800894,
				"z": -0.5030713702,
				"element": "H" 
			},
			{
				"x": 1.9692360265,
				"y": -1.7677376958,
				"z": 0.4798782413,
				"element": "H" 
			},
			{
				"x": 0.822856863,
				"y": -3.2171095234,
				"z": 1.788763462,
				"element": "H" 
			},
			{
				"x": 0.4792665443,
				"y": -1.2811791725,
				"z": -2.9676254969,
				"element": "H" 
			},
			{
				"x": 2.763267377,
				"y": -0.4410879211,
				"z": -1.3413303434,
				"element": "H" 
			},
			{
				"x": 2.6298978934,
				"y": -0.2763395019,
				"z": -3.0857144054,
				"element": "H" 
			},
			{
				"x": 2.0674346659,
				"y": 1.866782189,
				"z": -1.7718820946,
				"element": "H" 
			},
			{
				"x": 0.8280552775,
				"y": 1.3419203787,
				"z": -2.8975968251,
				"element": "H" 
			},
			{
				"x": 0.193648954,
				"y": 3.1578598371,
				"z": -0.6274336214,
				"element": "H" 
			}
		],
		 "valence_orbital": [ 
			{
				"type": "occ",
				"energy": -0.26598,
				"method": "rhf"
			},
			{
				"type": "occ",
				"energy": -0.25393,
				"method": "rhf"
			},
			{
				"type": "occ",
				"energy": -0.22989,
				"method": "rhf"
			},
			{
				"type": "occ",
				"energy": -0.22295,
				"method": "rhf"
			},
			{
				"type": "occ",
				"energy": -0.21154,
				"method": "rhf"
			},
			{
				"type": "unocc",
				"energy": 0.00629,
				"method": "rhf"
			},
			{
				"type": "unocc",
				"energy": 0.01156,
				"method": "rhf"
			},
			{
				"type": "unocc",
				"energy": 0.07431,
				"method": "rhf"
			},
			{
				"type": "unocc",
				"energy": 0.08796,
				"method": "rhf"
			},
			{
				"type": "unocc",
				"energy": 0.09683,
				"method": "rhf"
			}
		],
		"cosmo_sigma_profile": { 
			"-0.025": 0.0,
			"-0.024": 0.0,
			"-0.023": 0.0,
			"-0.022": 0.0,
			"-0.021": 0.0,
			"-0.02": 0.0,
			"-0.019": 0.0,
			"-0.018": 0.0,
			"-0.017": 0.0,
			"-0.016": 0.386400430036,
			"-0.015": 1.20984671915,
			"-0.014": 1.1600979486,
			"-0.013": 0.612935896045,
			"-0.012": 0.625880374241,
			"-0.011": 1.15593078222,
			"-0.01": 1.62226502037,
			"-0.009": 2.26721969408,
			"-0.008": 2.44191569845,
			"-0.007": 2.89139671008,
			"-0.006": 3.5652209341,
			"-0.005": 10.9064272441,
			"-0.004": 25.842993387,
			"-0.003": 32.5117757679,
			"-0.002": 33.9760164117,
			"-0.001": 26.5798678809,
			"0.0": 19.7710634716,
			"0.001": 14.2890810353,
			"0.002": 10.8385768482,
			"0.003": 12.2392858858,
			"0.004": 12.0744292353,
			"0.005": 12.0824197147,
			"0.006": 8.12042847923,
			"0.007": 5.05803332622,
			"0.008": 5.84253261402,
			"0.009": 4.49540848811,
			"0.01": 3.40870121255,
			"0.011": 3.42449311049,
			"0.012": 3.08751673664,
			"0.013": 1.38990932811,
			"0.014": 0.850465018803,
			"0.015": 0.93202015526,
			"0.016": 0.325751553274,
			"0.017": 0.373820733524,
			"0.018": 0.0,
			"0.019": 0.0,
			"0.02": 0.0,
			"0.021": 0.0,
			"0.022": 0.0,
			"0.023": 0.0,
			"0.024": 0.0,
			"0.025": 0.0
		}
	}
}
