{
	 "smiles": "O=C1NN=NC2=C1C1=C(CCCC1)S2", 
	 "Tm": 459.15, 
	 "num_atms": 23, 
	 "gaussian": { 
		 "optdone": 1, 
		 "sigma_profile": "yes", 
		 "theory": "DFT", 
		 "functional": "B3LYP", 
		 "basiset": "6-31G**", 
		 "properties": { 
			 "R2extent": 3863.794, 
			 "electric_dipole_moment_norm": 3.15497943892, 
			 "electric_quadrupole_moment_norm": 12.392863615, 
			 "total_energy": -986.017016943, 
			 "HOMO_LUMO_gap": 0.15851, 
			 "cosmo_polarized_energy": -11.41, 
			 "cosmo_cavitation_energy": 27.38, 
			 "cosmo_dispersion_energy": -21.32, 
			 "cosmo_repulsion_energy": 1.62, 
			 "cosmo_total_nonelectrostatic_energy": 7.68, 
			 "SMD_solvation_energy": 2.65 
		},
		"coords": [
			{
				"x": 1.3668396901,
				"y": -2.7706065392,
				"z": 0.5846777534,
				"element": "O" 
			},
			{
				"x": 0.631707555,
				"y": -2.3348739668,
				"z": 1.4598930503,
				"element": "C" 
			},
			{
				"x": 0.7143400131,
				"y": -2.8183477492,
				"z": 2.7830355432,
				"element": "N" 
			},
			{
				"x": -0.0023170187,
				"y": -2.4772999887,
				"z": 3.8830103643,
				"element": "N" 
			},
			{
				"x": -0.9104045556,
				"y": -1.5834242715,
				"z": 3.7639226685,
				"element": "N" 
			},
			{
				"x": -1.0992085067,
				"y": -1.0269698002,
				"z": 2.5300677492,
				"element": "C" 
			},
			{
				"x": -0.4019538687,
				"y": -1.3232900525,
				"z": 1.3633213979,
				"element": "C" 
			},
			{
				"x": -0.839723995,
				"y": -0.5688347326,
				"z": 0.2302234,
				"element": "C" 
			},
			{
				"x": -1.8604749695,
				"y": 0.2895792644,
				"z": 0.562027414,
				"element": "C" 
			},
			{
				"x": -2.5538702624,
				"y": 1.2148996711,
				"z": -0.3997663459,
				"element": "C" 
			},
			{
				"x": -1.7248758642,
				"y": 1.363688013,
				"z": -1.6900808832,
				"element": "C" 
			},
			{
				"x": -1.218196775,
				"y": 0.0025464046,
				"z": -2.1900932096,
				"element": "C" 
			},
			{
				"x": -0.2786188789,
				"y": -0.6594571072,
				"z": -1.1688075721,
				"element": "C" 
			},
			{
				"x": -2.3121813072,
				"y": 0.1950947789,
				"z": 2.2544615572,
				"element": "S" 
			},
			{
				"x": 1.409568598,
				"y": -3.5340238956,
				"z": 2.9621566065,
				"element": "H" 
			},
			{
				"x": -2.7243572656,
				"y": 2.1950594432,
				"z": 0.061119322,
				"element": "H" 
			},
			{
				"x": -3.5486391381,
				"y": 0.8129083733,
				"z": -0.639841824,
				"element": "H" 
			},
			{
				"x": -2.3332050232,
				"y": 1.8552080849,
				"z": -2.4567836886,
				"element": "H" 
			},
			{
				"x": -0.867766993,
				"y": 2.0208382215,
				"z": -1.4946431377,
				"element": "H" 
			},
			{
				"x": -0.6989308607,
				"y": 0.1191263548,
				"z": -3.1471731543,
				"element": "H" 
			},
			{
				"x": -2.077678568,
				"y": -0.6552080792,
				"z": -2.3762045648,
				"element": "H" 
			},
			{
				"x": -0.0874600532,
				"y": -1.7061855278,
				"z": -1.4224763451,
				"element": "H" 
			},
			{
				"x": 0.7051080475,
				"y": -0.1705268992,
				"z": -1.1897461014,
				"element": "H" 
			}
		],
		 "valence_orbital": [ 
			{
				"type": "occ",
				"energy": -0.29935,
				"method": "rhf"
			},
			{
				"type": "occ",
				"energy": -0.289,
				"method": "rhf"
			},
			{
				"type": "occ",
				"energy": -0.2683,
				"method": "rhf"
			},
			{
				"type": "occ",
				"energy": -0.25811,
				"method": "rhf"
			},
			{
				"type": "occ",
				"energy": -0.23397,
				"method": "rhf"
			},
			{
				"type": "unocc",
				"energy": -0.07546,
				"method": "rhf"
			},
			{
				"type": "unocc",
				"energy": -0.01994,
				"method": "rhf"
			},
			{
				"type": "unocc",
				"energy": 0.00686,
				"method": "rhf"
			},
			{
				"type": "unocc",
				"energy": 0.01084,
				"method": "rhf"
			},
			{
				"type": "unocc",
				"energy": 0.07786,
				"method": "rhf"
			}
		],
		"cosmo_sigma_profile": { 
			"-0.025": 0.0,
			"-0.024": 0.0,
			"-0.023": 0.0,
			"-0.022": 0.0,
			"-0.021": 0.0,
			"-0.02": 0.0,
			"-0.019": 0.0,
			"-0.018": 0.0,
			"-0.017": 0.625717744318,
			"-0.016": 1.49689289645,
			"-0.015": 1.01818393746,
			"-0.014": 0.82745437478,
			"-0.013": 0.384337221999,
			"-0.012": 0.800755246572,
			"-0.011": 1.30741086822,
			"-0.01": 0.759870375023,
			"-0.009": 0.662377834228,
			"-0.008": 0.926056373494,
			"-0.007": 0.938719158362,
			"-0.006": 2.93740857319,
			"-0.005": 8.25197875967,
			"-0.004": 14.653531782,
			"-0.003": 27.2107428682,
			"-0.002": 29.9301706084,
			"-0.001": 29.2935135797,
			"0.0": 26.1234710655,
			"0.001": 16.2424951192,
			"0.002": 9.17395337816,
			"0.003": 5.91432789874,
			"0.004": 3.9474654233,
			"0.005": 3.33612649338,
			"0.006": 3.10942639574,
			"0.007": 3.52083684894,
			"0.008": 3.5319115787,
			"0.009": 5.2398694082,
			"0.01": 3.69091966544,
			"0.011": 4.37629888581,
			"0.012": 5.53045022748,
			"0.013": 3.72583291084,
			"0.014": 0.073303791612,
			"0.015": 0.0,
			"0.016": 0.0,
			"0.017": 0.0,
			"0.018": 0.0,
			"0.019": 0.0,
			"0.02": 0.0,
			"0.021": 0.0,
			"0.022": 0.0,
			"0.023": 0.0,
			"0.024": 0.0,
			"0.025": 0.0
		}
	}
}
