{
	 "smiles": "OC1=C(CC2=C(O)OC3=CC=CC=C3C2=O)C(=O)C2=CC=CC=C2O1", 
	 "Tm": 563.15, 
	 "num_atms": 37, 
	 "gaussian": { 
		 "optdone": 1, 
		 "sigma_profile": "yes", 
		 "theory": "DFT", 
		 "functional": "B3LYP", 
		 "basiset": "6-31G**", 
		 "properties": { 
			 "R2extent": 9763.4631, 
			 "electric_dipole_moment_norm": 5.75826354729, 
			 "electric_quadrupole_moment_norm": 20.5996869602, 
			 "total_energy": -1182.61257349, 
			 "HOMO_LUMO_gap": 0.14649, 
			 "cosmo_polarized_energy": -20.46, 
			 "cosmo_cavitation_energy": 41.44, 
			 "cosmo_dispersion_energy": -30.6, 
			 "cosmo_repulsion_energy": 2.23, 
			 "cosmo_total_nonelectrostatic_energy": 13.06, 
			 "SMD_solvation_energy": 9.18 
		},
		"coords": [
			{
				"x": 2.1883810227,
				"y": 0.8323742767,
				"z": 2.54730776,
				"element": "O" 
			},
			{
				"x": 0.8718070172,
				"y": 0.8830696212,
				"z": 2.5498364947,
				"element": "C" 
			},
			{
				"x": 0.0142388359,
				"y": -0.0710439138,
				"z": 2.0616049168,
				"element": "C" 
			},
			{
				"x": 0.5177387157,
				"y": -1.4092630429,
				"z": 1.5572217216,
				"element": "C" 
			},
			{
				"x": 0.846981236,
				"y": -1.4680916478,
				"z": 0.078183313,
				"element": "C" 
			},
			{
				"x": 0.0399017719,
				"y": -2.1165661974,
				"z": -0.8151756003,
				"element": "C" 
			},
			{
				"x": -1.0600243683,
				"y": -2.7722019591,
				"z": -0.4583680946,
				"element": "O" 
			},
			{
				"x": 0.2607619457,
				"y": -2.1957600591,
				"z": -2.1462298494,
				"element": "O" 
			},
			{
				"x": 1.3936992697,
				"y": -1.6216342317,
				"z": -2.6816901183,
				"element": "C" 
			},
			{
				"x": 1.5732461413,
				"y": -1.7332575282,
				"z": -4.0607005264,
				"element": "C" 
			},
			{
				"x": 2.7133003625,
				"y": -1.172804194,
				"z": -4.6248215851,
				"element": "C" 
			},
			{
				"x": 3.6580959674,
				"y": -0.5103792465,
				"z": -3.8235857001,
				"element": "C" 
			},
			{
				"x": 3.4591475921,
				"y": -0.4078362649,
				"z": -2.4546660769,
				"element": "C" 
			},
			{
				"x": 2.3153914508,
				"y": -0.9671163141,
				"z": -1.8595064866,
				"element": "C" 
			},
			{
				"x": 2.058824066,
				"y": -0.860886836,
				"z": -0.4121366762,
				"element": "C" 
			},
			{
				"x": 2.8797462706,
				"y": -0.2711049942,
				"z": 0.32645066,
				"element": "O" 
			},
			{
				"x": -1.4208727324,
				"y": 0.1583789918,
				"z": 2.0793220363,
				"element": "C" 
			},
			{
				"x": -2.2432549295,
				"y": -0.6434086736,
				"z": 1.6201903181,
				"element": "O" 
			},
			{
				"x": -1.8424454244,
				"y": 1.4266888343,
				"z": 2.72250165,
				"element": "C" 
			},
			{
				"x": -3.1975858917,
				"y": 1.7689614774,
				"z": 2.8503246957,
				"element": "C" 
			},
			{
				"x": -3.5706431423,
				"y": 2.9502834351,
				"z": 3.4760251543,
				"element": "C" 
			},
			{
				"x": -2.5866732801,
				"y": 3.8117085452,
				"z": 3.988345113,
				"element": "C" 
			},
			{
				"x": -1.2384201954,
				"y": 3.4937365095,
				"z": 3.8748681617,
				"element": "C" 
			},
			{
				"x": -0.8818447557,
				"y": 2.3009424693,
				"z": 3.2396346486,
				"element": "C" 
			},
			{
				"x": 0.4607513776,
				"y": 2.0341544605,
				"z": 3.1338880637,
				"element": "O" 
			},
			{
				"x": 2.5060449129,
				"y": 0.2957849218,
				"z": 1.7537362245,
				"element": "H" 
			},
			{
				"x": 1.4177918198,
				"y": -1.6953399524,
				"z": 2.1134216647,
				"element": "H" 
			},
			{
				"x": -0.2619729196,
				"y": -2.1421054605,
				"z": 1.7732490213,
				"element": "H" 
			},
			{
				"x": -1.5236004749,
				"y": -3.081243636,
				"z": -1.2509334815,
				"element": "H" 
			},
			{
				"x": 0.8304601063,
				"y": -2.2500522488,
				"z": -4.658545016,
				"element": "H" 
			},
			{
				"x": 2.8704821157,
				"y": -1.2505811816,
				"z": -5.6962549142,
				"element": "H" 
			},
			{
				"x": 4.5428451389,
				"y": -0.0770758105,
				"z": -4.2789712645,
				"element": "H" 
			},
			{
				"x": 4.1655930842,
				"y": 0.1009694587,
				"z": -1.8078617653,
				"element": "H" 
			},
			{
				"x": -3.926742896,
				"y": 1.0744899288,
				"z": 2.4456808005,
				"element": "H" 
			},
			{
				"x": -4.6204567249,
				"y": 3.2101992913,
				"z": 3.5722853139,
				"element": "H" 
			},
			{
				"x": -2.8769253554,
				"y": 4.7363461042,
				"z": 4.4786737994,
				"element": "H" 
			},
			{
				"x": -0.45956713,
				"y": 4.1425650671,
				"z": 4.2609956236,
				"element": "H" 
			}
		],
		 "valence_orbital": [ 
			{
				"type": "occ",
				"energy": -0.25007,
				"method": "rhf"
			},
			{
				"type": "occ",
				"energy": -0.24894,
				"method": "rhf"
			},
			{
				"type": "occ",
				"energy": -0.23836,
				"method": "rhf"
			},
			{
				"type": "occ",
				"energy": -0.22396,
				"method": "rhf"
			},
			{
				"type": "occ",
				"energy": -0.21311,
				"method": "rhf"
			},
			{
				"type": "unocc",
				"energy": -0.06662,
				"method": "rhf"
			},
			{
				"type": "unocc",
				"energy": -0.03157,
				"method": "rhf"
			},
			{
				"type": "unocc",
				"energy": -0.02766,
				"method": "rhf"
			},
			{
				"type": "unocc",
				"energy": -0.00871,
				"method": "rhf"
			},
			{
				"type": "unocc",
				"energy": 0.00026,
				"method": "rhf"
			}
		],
		"cosmo_sigma_profile": { 
			"-0.025": 0.0,
			"-0.024": 0.0,
			"-0.023": 0.0,
			"-0.022": 0.0,
			"-0.021": 0.00398464838923,
			"-0.02": 0.62631539163,
			"-0.019": 1.35782268909,
			"-0.018": 0.741951524421,
			"-0.017": 0.80686543,
			"-0.016": 0.710652398995,
			"-0.015": 0.78159391438,
			"-0.014": 0.866143584476,
			"-0.013": 0.863826105041,
			"-0.012": 0.767082835807,
			"-0.011": 0.585647316169,
			"-0.01": 0.509026846023,
			"-0.009": 1.35860489172,
			"-0.008": 2.51952344637,
			"-0.007": 10.0952175248,
			"-0.006": 16.0977159121,
			"-0.005": 20.5347245889,
			"-0.004": 23.1278590594,
			"-0.003": 20.9303373197,
			"-0.002": 23.2396966009,
			"-0.001": 29.5158453434,
			"0.0": 29.0310940812,
			"0.001": 30.1044138167,
			"0.002": 28.9360243703,
			"0.003": 26.3163190074,
			"0.004": 12.6896690381,
			"0.005": 7.02613806153,
			"0.006": 6.77424429892,
			"0.007": 5.97416311631,
			"0.008": 6.6831847621,
			"0.009": 4.55536651554,
			"0.01": 5.75059515535,
			"0.011": 3.37931907432,
			"0.012": 2.68865899284,
			"0.013": 3.13384543466,
			"0.014": 4.6487927507,
			"0.015": 0.342643642289,
			"0.016": 0.0,
			"0.017": 0.0,
			"0.018": 0.0,
			"0.019": 0.0,
			"0.02": 0.0,
			"0.021": 0.0,
			"0.022": 0.0,
			"0.023": 0.0,
			"0.024": 0.0,
			"0.025": 0.0
		}
	}
}
