{
	 "smiles": "CC1=NN(C(C)=C1C(=O)C(O)=O)C1=CC(=CC=C1)C(F)(F)F", 
	 "Tm": 465.15, 
	 "num_atms": 33, 
	 "gaussian": { 
		 "optdone": 1, 
		 "sigma_profile": "yes", 
		 "theory": "DFT", 
		 "functional": "B3LYP", 
		 "basiset": "6-31G**", 
		 "properties": { 
			 "R2extent": 9704.8629, 
			 "electric_dipole_moment_norm": 2.51910961056, 
			 "electric_quadrupole_moment_norm": 23.674310639, 
			 "total_energy": -1174.81769523, 
			 "HOMO_LUMO_gap": 0.1778, 
			 "cosmo_polarized_energy": -16.19, 
			 "cosmo_cavitation_energy": 39.78, 
			 "cosmo_dispersion_energy": -27.49, 
			 "cosmo_repulsion_energy": 2.04, 
			 "cosmo_total_nonelectrostatic_energy": 14.33, 
			 "SMD_solvation_energy": 8.85 
		},
		"coords": [
			{
				"x": -0.3920585436,
				"y": -4.4001538554,
				"z": 0.3065593259,
				"element": "C" 
			},
			{
				"x": -0.3089879962,
				"y": -2.9439311942,
				"z": 0.648906742,
				"element": "C" 
			},
			{
				"x": -0.0566421125,
				"y": -2.0766500372,
				"z": -0.3158850886,
				"element": "N" 
			},
			{
				"x": -0.0668317117,
				"y": -0.838162244,
				"z": 0.2809434367,
				"element": "N" 
			},
			{
				"x": -0.3174714038,
				"y": -0.9045528202,
				"z": 1.6157148339,
				"element": "C" 
			},
			{
				"x": -0.3157477161,
				"y": 0.2689819034,
				"z": 2.5405824959,
				"element": "C" 
			},
			{
				"x": -0.488300928,
				"y": -2.2674205663,
				"z": 1.9031605396,
				"element": "C" 
			},
			{
				"x": -0.8183773201,
				"y": -2.7738301256,
				"z": 3.2275522445,
				"element": "C" 
			},
			{
				"x": -1.113492681,
				"y": -2.0656882445,
				"z": 4.1844142091,
				"element": "O" 
			},
			{
				"x": -0.6992324192,
				"y": -4.2825169505,
				"z": 3.4987152696,
				"element": "C" 
			},
			{
				"x": -1.7916170951,
				"y": -4.7709783029,
				"z": 4.1083079351,
				"element": "O" 
			},
			{
				"x": 0.2973678076,
				"y": -4.9314399054,
				"z": 3.2671946617,
				"element": "O" 
			},
			{
				"x": 0.2104024793,
				"y": 0.2941499764,
				"z": -0.535101085,
				"element": "C" 
			},
			{
				"x": 1.2049871556,
				"y": 0.1844876034,
				"z": -1.5117409616,
				"element": "C" 
			},
			{
				"x": 1.4773272508,
				"y": 1.2752861794,
				"z": -2.3339057184,
				"element": "C" 
			},
			{
				"x": 0.7715826338,
				"y": 2.4741203725,
				"z": -2.1881376409,
				"element": "C" 
			},
			{
				"x": -0.2243637655,
				"y": 2.5685151832,
				"z": -1.2194167399,
				"element": "C" 
			},
			{
				"x": -0.5174067902,
				"y": 1.4797991387,
				"z": -0.3969764066,
				"element": "C" 
			},
			{
				"x": 2.5871715454,
				"y": 1.1872449999,
				"z": -3.3499331592,
				"element": "C" 
			},
			{
				"x": 2.8288634202,
				"y": -0.0849416398,
				"z": -3.7268798229,
				"element": "F" 
			},
			{
				"x": 3.7454607955,
				"y": 1.6837422438,
				"z": -2.8575196588,
				"element": "F" 
			},
			{
				"x": 2.298560623,
				"y": 1.8976636528,
				"z": -4.462614877,
				"element": "F" 
			},
			{
				"x": -0.294096994,
				"y": -4.515498953,
				"z": -0.7744975743,
				"element": "H" 
			},
			{
				"x": 0.3964192202,
				"y": -4.9678382262,
				"z": 0.8060582002,
				"element": "H" 
			},
			{
				"x": -1.3506303961,
				"y": -4.8306400554,
				"z": 0.6159998277,
				"element": "H" 
			},
			{
				"x": 0.3241412985,
				"y": 1.0713033572,
				"z": 2.1661346014,
				"element": "H" 
			},
			{
				"x": 0.0234053374,
				"y": -0.0495493242,
				"z": 3.5262447257,
				"element": "H" 
			},
			{
				"x": -1.32675222,
				"y": 0.6699820086,
				"z": 2.6786401808,
				"element": "H" 
			},
			{
				"x": -1.5970850086,
				"y": -5.7001705456,
				"z": 4.3225392866,
				"element": "H" 
			},
			{
				"x": 1.7364745679,
				"y": -0.7512182217,
				"z": -1.6282451658,
				"element": "H" 
			},
			{
				"x": 0.9905926224,
				"y": 3.3135457788,
				"z": -2.8387183242,
				"element": "H" 
			},
			{
				"x": -0.7927259768,
				"y": 3.4870105513,
				"z": -1.1134461115,
				"element": "H" 
			},
			{
				"x": -1.3224356791,
				"y": 1.5440482625,
				"z": 0.3255498184,
				"element": "H" 
			}
		],
		 "valence_orbital": [ 
			{
				"type": "occ",
				"energy": -0.29968,
				"method": "rhf"
			},
			{
				"type": "occ",
				"energy": -0.28328,
				"method": "rhf"
			},
			{
				"type": "occ",
				"energy": -0.26086,
				"method": "rhf"
			},
			{
				"type": "occ",
				"energy": -0.25288,
				"method": "rhf"
			},
			{
				"type": "occ",
				"energy": -0.24846,
				"method": "rhf"
			},
			{
				"type": "unocc",
				"energy": -0.07066,
				"method": "rhf"
			},
			{
				"type": "unocc",
				"energy": -0.0425,
				"method": "rhf"
			},
			{
				"type": "unocc",
				"energy": -0.03562,
				"method": "rhf"
			},
			{
				"type": "unocc",
				"energy": 0.00548,
				"method": "rhf"
			},
			{
				"type": "unocc",
				"energy": 0.01773,
				"method": "rhf"
			}
		],
		"cosmo_sigma_profile": { 
			"-0.025": 0.0,
			"-0.024": 0.0,
			"-0.023": 0.0,
			"-0.022": 0.0,
			"-0.021": 0.0,
			"-0.02": 0.202979646266,
			"-0.019": 0.730601861654,
			"-0.018": 1.04635115403,
			"-0.017": 0.977525937005,
			"-0.016": 0.998338171583,
			"-0.015": 0.377872218761,
			"-0.014": 0.385311018204,
			"-0.013": 0.534443606161,
			"-0.012": 1.30052403678,
			"-0.011": 0.526930716815,
			"-0.01": 0.5130489791,
			"-0.009": 1.30935315516,
			"-0.008": 5.50305205234,
			"-0.007": 9.59389847589,
			"-0.006": 13.6475222644,
			"-0.005": 15.2470914695,
			"-0.004": 19.2435205414,
			"-0.003": 21.7548694268,
			"-0.002": 25.1667435696,
			"-0.001": 25.8182219615,
			"0.0": 24.6469576263,
			"0.001": 27.773142861,
			"0.002": 35.7821581219,
			"0.003": 32.2674489806,
			"0.004": 7.42655063418,
			"0.005": 5.54515798687,
			"0.006": 5.38424381861,
			"0.007": 6.03247532216,
			"0.008": 5.15173295359,
			"0.009": 6.05931316996,
			"0.01": 8.54525698264,
			"0.011": 6.08919972212,
			"0.012": 1.97380689212,
			"0.013": 0.802374628555,
			"0.014": 0.123420092463,
			"0.015": 0.0,
			"0.016": 0.0,
			"0.017": 0.0,
			"0.018": 0.0,
			"0.019": 0.0,
			"0.02": 0.0,
			"0.021": 0.0,
			"0.022": 0.0,
			"0.023": 0.0,
			"0.024": 0.0,
			"0.025": 0.0
		}
	}
}
