{
	 "smiles": "CN1N(C(=O)C(N)=C1C)C1=CC=CC=C1", 
	 "Tm": 381.15, 
	 "num_atms": 28, 
	 "gaussian": { 
		 "optdone": 1, 
		 "sigma_profile": "yes", 
		 "theory": "DFT", 
		 "functional": "B3LYP", 
		 "basiset": "6-31G**", 
		 "properties": { 
			 "R2extent": 3691.0986, 
			 "electric_dipole_moment_norm": 3.96937113029, 
			 "electric_quadrupole_moment_norm": 13.7277482979, 
			 "total_energy": -666.460762235, 
			 "HOMO_LUMO_gap": 0.17429, 
			 "cosmo_polarized_energy": -14.36, 
			 "cosmo_cavitation_energy": 30.95, 
			 "cosmo_dispersion_energy": -22.29, 
			 "cosmo_repulsion_energy": 1.74, 
			 "cosmo_total_nonelectrostatic_energy": 10.4, 
			 "SMD_solvation_energy": 5.6 
		},
		"coords": [
			{
				"x": 1.0716282872,
				"y": -0.7563520594,
				"z": -1.6857163475,
				"element": "C" 
			},
			{
				"x": 0.7194895705,
				"y": 0.5854254364,
				"z": -1.1838214107,
				"element": "N" 
			},
			{
				"x": 0.8890761468,
				"y": 0.6746230136,
				"z": 0.2225437393,
				"element": "N" 
			},
			{
				"x": 1.6313566314,
				"y": 1.8146975153,
				"z": 0.5532614438,
				"element": "C" 
			},
			{
				"x": 1.8548231305,
				"y": 2.2501360102,
				"z": 1.6799393171,
				"element": "O" 
			},
			{
				"x": 2.0199605404,
				"y": 2.4042785857,
				"z": -0.7280069658,
				"element": "C" 
			},
			{
				"x": 2.8090780267,
				"y": 3.5512371846,
				"z": -0.7399644873,
				"element": "N" 
			},
			{
				"x": 1.4872206347,
				"y": 1.6535301019,
				"z": -1.7233281617,
				"element": "C" 
			},
			{
				"x": 1.5942482405,
				"y": 1.8172570511,
				"z": -3.2045638887,
				"element": "C" 
			},
			{
				"x": -0.0436017605,
				"y": 0.0333854208,
				"z": 1.0748562355,
				"element": "C" 
			},
			{
				"x": 0.2927929221,
				"y": -0.1828765056,
				"z": 2.4196779775,
				"element": "C" 
			},
			{
				"x": -0.6203231026,
				"y": -0.8162381871,
				"z": 3.2603236576,
				"element": "C" 
			},
			{
				"x": -1.8554345914,
				"y": -1.254586697,
				"z": 2.7771622857,
				"element": "C" 
			},
			{
				"x": -2.1817050681,
				"y": -1.0379461032,
				"z": 1.4379377127,
				"element": "C" 
			},
			{
				"x": -1.2880419366,
				"y": -0.3890334157,
				"z": 0.5861416215,
				"element": "C" 
			},
			{
				"x": 0.4318610161,
				"y": -1.4963815655,
				"z": -1.2028502502,
				"element": "H" 
			},
			{
				"x": 0.8781354449,
				"y": -0.7844683565,
				"z": -2.7596527821,
				"element": "H" 
			},
			{
				"x": 2.1245164737,
				"y": -1.0034410392,
				"z": -1.4931360652,
				"element": "H" 
			},
			{
				"x": 2.8189121609,
				"y": 3.9750398361,
				"z": 0.1830620918,
				"element": "H" 
			},
			{
				"x": 2.5718795527,
				"y": 4.2280010136,
				"z": -1.454006171,
				"element": "H" 
			},
			{
				"x": 2.0496406554,
				"y": 2.7813866141,
				"z": -3.4441555745,
				"element": "H" 
			},
			{
				"x": 2.2207044999,
				"y": 1.043558831,
				"z": -3.6659639454,
				"element": "H" 
			},
			{
				"x": 0.60983263,
				"y": 1.7770283217,
				"z": -3.6842400468,
				"element": "H" 
			},
			{
				"x": 1.2474693838,
				"y": 0.1646544807,
				"z": 2.7918313335,
				"element": "H" 
			},
			{
				"x": -0.3568363547,
				"y": -0.974589679,
				"z": 4.3021805606,
				"element": "H" 
			},
			{
				"x": -2.5561687637,
				"y": -1.7559642917,
				"z": 3.4379304908,
				"element": "H" 
			},
			{
				"x": -3.143223253,
				"y": -1.3632071424,
				"z": 1.0506353985,
				"element": "H" 
			},
			{
				"x": -1.5510911175,
				"y": -0.1873543744,
				"z": -0.4458777691,
				"element": "H" 
			}
		],
		 "valence_orbital": [ 
			{
				"type": "occ",
				"energy": -0.27096,
				"method": "rhf"
			},
			{
				"type": "occ",
				"energy": -0.25305,
				"method": "rhf"
			},
			{
				"type": "occ",
				"energy": -0.24399,
				"method": "rhf"
			},
			{
				"type": "occ",
				"energy": -0.21295,
				"method": "rhf"
			},
			{
				"type": "occ",
				"energy": -0.19235,
				"method": "rhf"
			},
			{
				"type": "unocc",
				"energy": -0.01806,
				"method": "rhf"
			},
			{
				"type": "unocc",
				"energy": 0.00187,
				"method": "rhf"
			},
			{
				"type": "unocc",
				"energy": 0.01811,
				"method": "rhf"
			},
			{
				"type": "unocc",
				"energy": 0.06861,
				"method": "rhf"
			},
			{
				"type": "unocc",
				"energy": 0.09903,
				"method": "rhf"
			}
		],
		"cosmo_sigma_profile": { 
			"-0.025": 0.0,
			"-0.024": 0.0,
			"-0.023": 0.0,
			"-0.022": 0.0,
			"-0.021": 0.0,
			"-0.02": 0.0,
			"-0.019": 0.0,
			"-0.018": 0.0,
			"-0.017": 0.0,
			"-0.016": 0.0,
			"-0.015": 0.0,
			"-0.014": 0.0,
			"-0.013": 0.12003218662,
			"-0.012": 0.998761329659,
			"-0.011": 1.75858482491,
			"-0.01": 2.00394939022,
			"-0.009": 2.4654069648,
			"-0.008": 3.27486064713,
			"-0.007": 3.59281620129,
			"-0.006": 8.11966849127,
			"-0.005": 19.9786866441,
			"-0.004": 24.9589182312,
			"-0.003": 24.5630064364,
			"-0.002": 22.5444230308,
			"-0.001": 17.4821324479,
			"0.0": 15.0213870607,
			"0.001": 14.389746936,
			"0.002": 14.7686272472,
			"0.003": 12.1794122292,
			"0.004": 11.8298956709,
			"0.005": 13.4241437198,
			"0.006": 7.68149923377,
			"0.007": 3.18016229253,
			"0.008": 2.7650161249,
			"0.009": 1.89965223499,
			"0.01": 2.40855713973,
			"0.011": 2.11918233894,
			"0.012": 2.37605419919,
			"0.013": 4.69798044204,
			"0.014": 4.01978628149,
			"0.015": 0.479663779589,
			"0.016": 0.385266129883,
			"0.017": 0.0,
			"0.018": 0.0,
			"0.019": 0.0,
			"0.02": 0.0,
			"0.021": 0.0,
			"0.022": 0.0,
			"0.023": 0.0,
			"0.024": 0.0,
			"0.025": 0.0
		}
	}
}
