{
	 "smiles": "OC(=O)CCC1=C2C=CC=CC2=NC=C1", 
	 "Tm": 471.15, 
	 "num_atms": 26, 
	 "gaussian": { 
		 "optdone": 1, 
		 "sigma_profile": "yes", 
		 "theory": "DFT", 
		 "functional": "B3LYP", 
		 "basiset": "6-31G**", 
		 "properties": { 
			 "R2extent": 3898.0555, 
			 "electric_dipole_moment_norm": 2.64704031703, 
			 "electric_quadrupole_moment_norm": 23.4691775631, 
			 "total_energy": -669.124985071, 
			 "HOMO_LUMO_gap": 0.17792, 
			 "cosmo_polarized_energy": -18.89, 
			 "cosmo_cavitation_energy": 30.17, 
			 "cosmo_dispersion_energy": -21.76, 
			 "cosmo_repulsion_energy": 1.69, 
			 "cosmo_total_nonelectrostatic_energy": 10.11, 
			 "SMD_solvation_energy": 4.48 
		},
		"coords": [
			{
				"x": 3.2646964778,
				"y": 2.2644036023,
				"z": 1.3592718172,
				"element": "O" 
			},
			{
				"x": 2.046815949,
				"y": 1.7380961505,
				"z": 1.6613066118,
				"element": "C" 
			},
			{
				"x": 1.7370111768,
				"y": 1.5514059167,
				"z": 2.8107886522,
				"element": "O" 
			},
			{
				"x": 1.1612482527,
				"y": 1.4171208763,
				"z": 0.4633758962,
				"element": "C" 
			},
			{
				"x": -0.2213655636,
				"y": 0.8883714769,
				"z": 0.8813366368,
				"element": "C" 
			},
			{
				"x": -1.0831163715,
				"y": 0.5258436329,
				"z": -0.3069095451,
				"element": "C" 
			},
			{
				"x": -0.914017422,
				"y": -0.7041698575,
				"z": -1.0210705669,
				"element": "C" 
			},
			{
				"x": 0.0261258063,
				"y": -1.707478504,
				"z": -0.6574742958,
				"element": "C" 
			},
			{
				"x": 0.1406082452,
				"y": -2.8691584042,
				"z": -1.389683533,
				"element": "C" 
			},
			{
				"x": -0.6790585684,
				"y": -3.0880099869,
				"z": -2.5226420711,
				"element": "C" 
			},
			{
				"x": -1.6041972284,
				"y": -2.1414498841,
				"z": -2.8993181571,
				"element": "C" 
			},
			{
				"x": -1.7481606912,
				"y": -0.9340829083,
				"z": -2.1651414021,
				"element": "C" 
			},
			{
				"x": -2.6901987181,
				"y": -0.0416023317,
				"z": -2.5928932892,
				"element": "N" 
			},
			{
				"x": -2.8235164932,
				"y": 1.0714098468,
				"z": -1.9028899622,
				"element": "C" 
			},
			{
				"x": -2.0503340658,
				"y": 1.3978006691,
				"z": -0.7630819595,
				"element": "C" 
			},
			{
				"x": 3.3645685816,
				"y": 2.3547797504,
				"z": 0.4007560715,
				"element": "H" 
			},
			{
				"x": 1.0519904537,
				"y": 2.321208216,
				"z": -0.1506194405,
				"element": "H" 
			},
			{
				"x": 1.6819238692,
				"y": 0.6848535437,
				"z": -0.1679117946,
				"element": "H" 
			},
			{
				"x": -0.7226020509,
				"y": 1.6558853478,
				"z": 1.4776069315,
				"element": "H" 
			},
			{
				"x": -0.0847217651,
				"y": 0.032543786,
				"z": 1.5486392592,
				"element": "H" 
			},
			{
				"x": 0.6557937326,
				"y": -1.5636232743,
				"z": 0.2147129758,
				"element": "H" 
			},
			{
				"x": 0.8617687571,
				"y": -3.6254318999,
				"z": -1.0936375903,
				"element": "H" 
			},
			{
				"x": -0.5776021665,
				"y": -4.0087065306,
				"z": -3.0897682966,
				"element": "H" 
			},
			{
				"x": -2.2519837284,
				"y": -2.2807228043,
				"z": -3.7586136487,
				"element": "H" 
			},
			{
				"x": -3.5829428697,
				"y": 1.7711369884,
				"z": -2.2513188202,
				"element": "H" 
			},
			{
				"x": -2.2265335993,
				"y": 2.3404765822,
				"z": -0.2519204793,
				"element": "H" 
			}
		],
		 "valence_orbital": [ 
			{
				"type": "occ",
				"energy": -0.30165,
				"method": "rhf"
			},
			{
				"type": "occ",
				"energy": -0.27849,
				"method": "rhf"
			},
			{
				"type": "occ",
				"energy": -0.25608,
				"method": "rhf"
			},
			{
				"type": "occ",
				"energy": -0.25483,
				"method": "rhf"
			},
			{
				"type": "occ",
				"energy": -0.23472,
				"method": "rhf"
			},
			{
				"type": "unocc",
				"energy": -0.0568,
				"method": "rhf"
			},
			{
				"type": "unocc",
				"energy": -0.02015,
				"method": "rhf"
			},
			{
				"type": "unocc",
				"energy": 0.00398,
				"method": "rhf"
			},
			{
				"type": "unocc",
				"energy": 0.01532,
				"method": "rhf"
			},
			{
				"type": "unocc",
				"energy": 0.04944,
				"method": "rhf"
			}
		],
		"cosmo_sigma_profile": { 
			"-0.025": 0.0,
			"-0.024": 0.0,
			"-0.023": 0.0,
			"-0.022": 0.0,
			"-0.021": 0.0,
			"-0.02": 0.0,
			"-0.019": 0.890948384102,
			"-0.018": 0.768893914202,
			"-0.017": 1.28082956637,
			"-0.016": 1.06868617297,
			"-0.015": 1.43588974755,
			"-0.014": 0.849740962773,
			"-0.013": 1.00424743366,
			"-0.012": 0.835876503065,
			"-0.011": 1.39260438042,
			"-0.01": 1.45953335399,
			"-0.009": 1.80017920189,
			"-0.008": 2.65602561789,
			"-0.007": 6.94925496447,
			"-0.006": 16.8733819135,
			"-0.005": 20.2871958616,
			"-0.004": 18.9462666885,
			"-0.003": 13.9230711477,
			"-0.002": 12.7028028613,
			"-0.001": 12.5232909694,
			"0.0": 10.8977384431,
			"0.001": 13.9238005674,
			"0.002": 18.4052391957,
			"0.003": 17.5078578858,
			"0.004": 14.3775756064,
			"0.005": 7.95597320007,
			"0.006": 4.19436466921,
			"0.007": 2.98807919201,
			"0.008": 4.22808835233,
			"0.009": 5.44429391529,
			"0.01": 5.04331528106,
			"0.011": 6.62539138641,
			"0.012": 6.05854060352,
			"0.013": 2.5363799176,
			"0.014": 1.08279237454,
			"0.015": 0.552582207498,
			"0.016": 0.819967393348,
			"0.017": 0.173750578334,
			"0.018": 0.0,
			"0.019": 0.0,
			"0.02": 0.0,
			"0.021": 0.0,
			"0.022": 0.0,
			"0.023": 0.0,
			"0.024": 0.0,
			"0.025": 0.0
		}
	}
}
