{
	 "smiles": "CC(C)CC(N)P(O)(O)=O", 
	 "Tm": 550.15, 
	 "num_atms": 24, 
	 "gaussian": { 
		 "optdone": 1, 
		 "sigma_profile": "yes", 
		 "theory": "DFT", 
		 "functional": "B3LYP", 
		 "basiset": "6-31G**", 
		 "properties": { 
			 "R2extent": 1800.1065, 
			 "electric_dipole_moment_norm": 2.3085572919, 
			 "electric_quadrupole_moment_norm": 9.3724848018, 
			 "total_energy": -820.816424076, 
			 "HOMO_LUMO_gap": 0.28436, 
			 "cosmo_polarized_energy": -17.72, 
			 "cosmo_cavitation_energy": 27.06, 
			 "cosmo_dispersion_energy": -19.3, 
			 "cosmo_repulsion_energy": 1.54, 
			 "cosmo_total_nonelectrostatic_energy": 9.31, 
			 "SMD_solvation_energy": 5.94 
		},
		"coords": [
			{
				"x": -0.4807448499,
				"y": -2.6569612561,
				"z": -0.0904190413,
				"element": "C" 
			},
			{
				"x": 0.5607953474,
				"y": -1.8775114423,
				"z": 0.7263839696,
				"element": "C" 
			},
			{
				"x": 1.8747805884,
				"y": -1.7263743658,
				"z": -0.0594403929,
				"element": "C" 
			},
			{
				"x": 0.0405455432,
				"y": -0.546015539,
				"z": 1.3301082549,
				"element": "C" 
			},
			{
				"x": -0.7397021275,
				"y": 0.5038434049,
				"z": 0.5034125368,
				"element": "C" 
			},
			{
				"x": -2.0521706697,
				"y": 0.0185603322,
				"z": 0.0698555739,
				"element": "N" 
			},
			{
				"x": 0.1007927766,
				"y": 1.1979467371,
				"z": -0.9730828283,
				"element": "P" 
			},
			{
				"x": -0.956028932,
				"y": 2.3912897555,
				"z": -1.3360364626,
				"element": "O" 
			},
			{
				"x": 1.3652573953,
				"y": 1.946168111,
				"z": -0.2704055906,
				"element": "O" 
			},
			{
				"x": 0.470296125,
				"y": 0.3934045559,
				"z": -2.16972976,
				"element": "O" 
			},
			{
				"x": -0.756589534,
				"y": -2.1161738362,
				"z": -0.9983735026,
				"element": "H" 
			},
			{
				"x": -1.3977156423,
				"y": -2.8327362756,
				"z": 0.4827516719,
				"element": "H" 
			},
			{
				"x": -0.0755756218,
				"y": -3.6338941726,
				"z": -0.3777347204,
				"element": "H" 
			},
			{
				"x": 0.7997895553,
				"y": -2.4849300838,
				"z": 1.61239678,
				"element": "H" 
			},
			{
				"x": 1.7182209664,
				"y": -1.2173432789,
				"z": -1.0135149165,
				"element": "H" 
			},
			{
				"x": 2.2960629181,
				"y": -2.7143534943,
				"z": -0.276473721,
				"element": "H" 
			},
			{
				"x": 2.6224431972,
				"y": -1.1688636331,
				"z": 0.5174204212,
				"element": "H" 
			},
			{
				"x": 0.8883188607,
				"y": -0.0256654833,
				"z": 1.7903705488,
				"element": "H" 
			},
			{
				"x": -0.6364493736,
				"y": -0.7965278537,
				"z": 2.1604699625,
				"element": "H" 
			},
			{
				"x": -0.806521594,
				"y": 1.3896593764,
				"z": 1.1635623404,
				"element": "H" 
			},
			{
				"x": -2.5280795281,
				"y": -0.4235337713,
				"z": 0.8515978602,
				"element": "H" 
			},
			{
				"x": -2.6259350204,
				"y": 0.7988282839,
				"z": -0.2377057669,
				"element": "H" 
			},
			{
				"x": -1.0167393359,
				"y": 2.4753002616,
				"z": -2.2988207893,
				"element": "H" 
			},
			{
				"x": 2.1218489557,
				"y": 1.9469836673,
				"z": -0.8742924276,
				"element": "H" 
			}
		],
		 "valence_orbital": [ 
			{
				"type": "occ",
				"energy": -0.31761,
				"method": "rhf"
			},
			{
				"type": "occ",
				"energy": -0.30695,
				"method": "rhf"
			},
			{
				"type": "occ",
				"energy": -0.28821,
				"method": "rhf"
			},
			{
				"type": "occ",
				"energy": -0.28556,
				"method": "rhf"
			},
			{
				"type": "occ",
				"energy": -0.23927,
				"method": "rhf"
			},
			{
				"type": "unocc",
				"energy": 0.04509,
				"method": "rhf"
			},
			{
				"type": "unocc",
				"energy": 0.06126,
				"method": "rhf"
			},
			{
				"type": "unocc",
				"energy": 0.06918,
				"method": "rhf"
			},
			{
				"type": "unocc",
				"energy": 0.09999,
				"method": "rhf"
			},
			{
				"type": "unocc",
				"energy": 0.1103,
				"method": "rhf"
			}
		],
		"cosmo_sigma_profile": { 
			"-0.025": 0.0,
			"-0.024": 0.0,
			"-0.023": 0.0,
			"-0.022": 0.0,
			"-0.021": 0.0,
			"-0.02": 0.0,
			"-0.019": 0.630720225049,
			"-0.018": 1.44157414716,
			"-0.017": 1.53610594274,
			"-0.016": 2.31563033383,
			"-0.015": 1.10804302393,
			"-0.014": 1.40955095689,
			"-0.013": 1.17776486876,
			"-0.012": 1.31693101715,
			"-0.011": 1.43740625549,
			"-0.01": 2.94193214609,
			"-0.009": 3.99452548946,
			"-0.008": 3.8249046684,
			"-0.007": 4.66437491687,
			"-0.006": 5.06362980479,
			"-0.005": 6.88402671808,
			"-0.004": 9.16369962798,
			"-0.003": 10.9599209239,
			"-0.002": 20.7182653399,
			"-0.001": 19.0536338703,
			"0.0": 19.2809090195,
			"0.001": 13.7702374818,
			"0.002": 15.8565703422,
			"0.003": 7.19062379772,
			"0.004": 4.15185723955,
			"0.005": 4.88842101376,
			"0.006": 5.01636158736,
			"0.007": 5.37502652017,
			"0.008": 3.67755158797,
			"0.009": 4.85481498282,
			"0.01": 5.30628577399,
			"0.011": 4.03265999983,
			"0.012": 1.96049247811,
			"0.013": 2.62243001481,
			"0.014": 4.44181961523,
			"0.015": 2.67055924966,
			"0.016": 0.174502193826,
			"0.017": 0.0,
			"0.018": 0.0,
			"0.019": 0.0,
			"0.02": 0.0,
			"0.021": 0.0,
			"0.022": 0.0,
			"0.023": 0.0,
			"0.024": 0.0,
			"0.025": 0.0
		}
	}
}
