{
	 "smiles": "OC(=O)C1=CC(OCCOC2=NC=CC(=C2)C(O)=O)=NC=C1", 
	 "Tm": 543.15, 
	 "num_atms": 34, 
	 "gaussian": { 
		 "optdone": 1, 
		 "sigma_profile": "yes", 
		 "theory": "DFT", 
		 "functional": "B3LYP", 
		 "basiset": "6-31G**", 
		 "properties": { 
			 "R2extent": 7032.4139, 
			 "electric_dipole_moment_norm": 3.27721461458, 
			 "electric_quadrupole_moment_norm": 14.1061771994, 
			 "total_energy": -1101.5814566, 
			 "HOMO_LUMO_gap": 0.16742, 
			 "cosmo_polarized_energy": -21.51, 
			 "cosmo_cavitation_energy": 40.46, 
			 "cosmo_dispersion_energy": -27.23, 
			 "cosmo_repulsion_energy": 2.09, 
			 "cosmo_total_nonelectrostatic_energy": 15.32, 
			 "SMD_solvation_energy": 7.72 
		},
		"coords": [
			{
				"x": -3.3409394922,
				"y": -3.6545748569,
				"z": -2.2144117544,
				"element": "O" 
			},
			{
				"x": -2.9826508962,
				"y": -3.0562337905,
				"z": -1.0543758143,
				"element": "C" 
			},
			{
				"x": -2.9912061229,
				"y": -3.6375196869,
				"z": 0.0105142686,
				"element": "O" 
			},
			{
				"x": -2.5879818302,
				"y": -1.6275745774,
				"z": -1.2397340549,
				"element": "C" 
			},
			{
				"x": -2.2152260898,
				"y": -0.9041472196,
				"z": -0.1150155401,
				"element": "C" 
			},
			{
				"x": -1.8400645531,
				"y": 0.4372670355,
				"z": -0.2973088357,
				"element": "C" 
			},
			{
				"x": -1.479629325,
				"y": 1.1201960028,
				"z": 0.8164029088,
				"element": "O" 
			},
			{
				"x": -1.1422783619,
				"y": 2.508050593,
				"z": 0.68293539,
				"element": "C" 
			},
			{
				"x": 0.2983543521,
				"y": 2.7468862117,
				"z": 0.2482293874,
				"element": "C" 
			},
			{
				"x": 1.2334493749,
				"y": 2.4060860126,
				"z": 1.2722512331,
				"element": "O" 
			},
			{
				"x": 1.8258782778,
				"y": 1.1859830477,
				"z": 1.3208966512,
				"element": "C" 
			},
			{
				"x": 2.6622290328,
				"y": 1.0686779606,
				"z": 2.3546578016,
				"element": "N" 
			},
			{
				"x": 3.3215606565,
				"y": -0.0828615936,
				"z": 2.5052660567,
				"element": "C" 
			},
			{
				"x": 3.1942071014,
				"y": -1.1740701086,
				"z": 1.6481314217,
				"element": "C" 
			},
			{
				"x": 2.3141743407,
				"y": -1.0378366526,
				"z": 0.5696937244,
				"element": "C" 
			},
			{
				"x": 1.613731419,
				"y": 0.1551434926,
				"z": 0.3926584895,
				"element": "C" 
			},
			{
				"x": 2.0706950709,
				"y": -2.1336632158,
				"z": -0.4144980557,
				"element": "C" 
			},
			{
				"x": 2.8065100987,
				"y": -3.2407645348,
				"z": -0.1609670295,
				"element": "O" 
			},
			{
				"x": 1.2995611705,
				"y": -2.0642171948,
				"z": -1.350212106,
				"element": "O" 
			},
			{
				"x": -1.8171308589,
				"y": 1.0431115532,
				"z": -1.4804165153,
				"element": "N" 
			},
			{
				"x": -2.1870035193,
				"y": 0.3259679255,
				"z": -2.5560390267,
				"element": "C" 
			},
			{
				"x": -2.5804869155,
				"y": -1.0028852,
				"z": -2.4985218735,
				"element": "C" 
			},
			{
				"x": -3.5744599486,
				"y": -4.5687189084,
				"z": -1.9830135493,
				"element": "H" 
			},
			{
				"x": -2.211866454,
				"y": -1.3578556626,
				"z": 0.8681740257,
				"element": "H" 
			},
			{
				"x": -1.8158619431,
				"y": 2.9937616775,
				"z": -0.0289481044,
				"element": "H" 
			},
			{
				"x": -1.2924196224,
				"y": 2.9258559672,
				"z": 1.6811353775,
				"element": "H" 
			},
			{
				"x": 0.5169861729,
				"y": 2.2438178569,
				"z": -0.6965220253,
				"element": "H" 
			},
			{
				"x": 0.4276894608,
				"y": 3.8231436656,
				"z": 0.0920869379,
				"element": "H" 
			},
			{
				"x": 3.9904679257,
				"y": -0.1353399478,
				"z": 3.3624165162,
				"element": "H" 
			},
			{
				"x": 3.7483013837,
				"y": -2.0893566717,
				"z": 1.8123599187,
				"element": "H" 
			},
			{
				"x": 0.9306475316,
				"y": 0.2341160653,
				"z": -0.4412361549,
				"element": "H" 
			},
			{
				"x": 2.5681215249,
				"y": -3.8839546846,
				"z": -0.8487710494,
				"element": "H" 
			},
			{
				"x": -2.157215529,
				"y": 0.8521405428,
				"z": -3.5075259286,
				"element": "H" 
			},
			{
				"x": -2.8632434328,
				"y": -1.5433311039,
				"z": -3.3925926909,
				"element": "H" 
			}
		],
		 "valence_orbital": [ 
			{
				"type": "occ",
				"energy": -0.28699,
				"method": "rhf"
			},
			{
				"type": "occ",
				"energy": -0.2781,
				"method": "rhf"
			},
			{
				"type": "occ",
				"energy": -0.26367,
				"method": "rhf"
			},
			{
				"type": "occ",
				"energy": -0.24586,
				"method": "rhf"
			},
			{
				"type": "occ",
				"energy": -0.23341,
				"method": "rhf"
			},
			{
				"type": "unocc",
				"energy": -0.06599,
				"method": "rhf"
			},
			{
				"type": "unocc",
				"energy": -0.0616,
				"method": "rhf"
			},
			{
				"type": "unocc",
				"energy": -0.01193,
				"method": "rhf"
			},
			{
				"type": "unocc",
				"energy": -0.0039,
				"method": "rhf"
			},
			{
				"type": "unocc",
				"energy": 0.04784,
				"method": "rhf"
			}
		],
		"cosmo_sigma_profile": { 
			"-0.025": 0.0,
			"-0.024": 0.0,
			"-0.023": 0.0,
			"-0.022": 0.0,
			"-0.021": 0.0,
			"-0.02": 0.0,
			"-0.019": 0.752309999998,
			"-0.018": 1.69913333965,
			"-0.017": 2.08589030304,
			"-0.016": 1.81407850125,
			"-0.015": 1.44350429558,
			"-0.014": 0.798179863431,
			"-0.013": 1.72344992191,
			"-0.012": 1.85846153745,
			"-0.011": 1.40238470145,
			"-0.01": 0.822831879512,
			"-0.009": 1.1741243044,
			"-0.008": 2.82458698208,
			"-0.007": 15.8820541442,
			"-0.006": 18.8930014734,
			"-0.005": 15.7935727973,
			"-0.004": 18.7949011394,
			"-0.003": 17.7049643576,
			"-0.002": 17.6104948306,
			"-0.001": 24.2114756566,
			"0.0": 31.1039905027,
			"0.001": 27.7486231782,
			"0.002": 20.263794235,
			"0.003": 15.8693673317,
			"0.004": 13.0365358084,
			"0.005": 11.2742223729,
			"0.006": 11.5053933774,
			"0.007": 8.76305393979,
			"0.008": 7.20362154872,
			"0.009": 6.3717043281,
			"0.01": 6.97555577425,
			"0.011": 8.83457549862,
			"0.012": 2.86666672624,
			"0.013": 1.7559981613,
			"0.014": 1.4905397563,
			"0.015": 1.01253718089,
			"0.016": 0.656294091666,
			"0.017": 0.0,
			"0.018": 0.0,
			"0.019": 0.0,
			"0.02": 0.0,
			"0.021": 0.0,
			"0.022": 0.0,
			"0.023": 0.0,
			"0.024": 0.0,
			"0.025": 0.0
		}
	}
}
