{
	 "smiles": "CC1=C(F)C=C(C=C1)C(O)=O", 
	 "Tm": 445.15, 
	 "num_atms": 18, 
	 "gaussian": { 
		 "optdone": 1, 
		 "sigma_profile": "yes", 
		 "theory": "DFT", 
		 "functional": "B3LYP", 
		 "basiset": "6-31G**", 
		 "properties": { 
			 "R2extent": 2305.9667, 
			 "electric_dipole_moment_norm": 4.26341210534, 
			 "electric_quadrupole_moment_norm": 19.6990588265, 
			 "total_energy": -559.367814627, 
			 "HOMO_LUMO_gap": 0.20207, 
			 "cosmo_polarized_energy": -13.02, 
			 "cosmo_cavitation_energy": 22.95, 
			 "cosmo_dispersion_energy": -16.78, 
			 "cosmo_repulsion_energy": 1.32, 
			 "cosmo_total_nonelectrostatic_energy": 7.49, 
			 "SMD_solvation_energy": 5.67 
		},
		"coords": [
			{
				"x": 1.0265143729,
				"y": 1.0516657579,
				"z": -2.5740520398,
				"element": "C" 
			},
			{
				"x": 0.1063937879,
				"y": 0.9644738405,
				"z": -1.3856172816,
				"element": "C" 
			},
			{
				"x": 0.5360077937,
				"y": 0.3535432325,
				"z": -0.2042714078,
				"element": "C" 
			},
			{
				"x": 1.785894775,
				"y": -0.1607200745,
				"z": -0.1691122375,
				"element": "F" 
			},
			{
				"x": -0.2574856257,
				"y": 0.2419774827,
				"z": 0.9270135089,
				"element": "C" 
			},
			{
				"x": -1.5598297839,
				"y": 0.7624767323,
				"z": 0.8972897996,
				"element": "C" 
			},
			{
				"x": -2.0290620178,
				"y": 1.363126985,
				"z": -0.2766592064,
				"element": "C" 
			},
			{
				"x": -1.2013118405,
				"y": 1.4666660027,
				"z": -1.3923323065,
				"element": "C" 
			},
			{
				"x": -2.4957663577,
				"y": 0.676580681,
				"z": 2.0653249653,
				"element": "C" 
			},
			{
				"x": -1.9331042558,
				"y": 0.4824401226,
				"z": 3.2885497495,
				"element": "O" 
			},
			{
				"x": -3.6956710924,
				"y": 0.7720925664,
				"z": 1.9606634556,
				"element": "O" 
			},
			{
				"x": 1.9359145175,
				"y": 1.6113801416,
				"z": -2.3303429132,
				"element": "H" 
			},
			{
				"x": 1.3461017326,
				"y": 0.056088321,
				"z": -2.8998528527,
				"element": "H" 
			},
			{
				"x": 0.5333605955,
				"y": 1.5463870307,
				"z": -3.4137606101,
				"element": "H" 
			},
			{
				"x": 0.1464314513,
				"y": -0.286567134,
				"z": 1.7853410544,
				"element": "H" 
			},
			{
				"x": -3.0442793943,
				"y": 1.7430655092,
				"z": -0.293200329,
				"element": "H" 
			},
			{
				"x": -1.5729441337,
				"y": 1.9442714564,
				"z": -2.2946836134,
				"element": "H" 
			},
			{
				"x": -0.9741645247,
				"y": 0.5972513459,
				"z": 3.2389022646,
				"element": "H" 
			}
		],
		 "valence_orbital": [ 
			{
				"type": "occ",
				"energy": -0.36376,
				"method": "rhf"
			},
			{
				"type": "occ",
				"energy": -0.31787,
				"method": "rhf"
			},
			{
				"type": "occ",
				"energy": -0.27835,
				"method": "rhf"
			},
			{
				"type": "occ",
				"energy": -0.27357,
				"method": "rhf"
			},
			{
				"type": "occ",
				"energy": -0.25688,
				"method": "rhf"
			},
			{
				"type": "unocc",
				"energy": -0.05481,
				"method": "rhf"
			},
			{
				"type": "unocc",
				"energy": -0.02065,
				"method": "rhf"
			},
			{
				"type": "unocc",
				"energy": 0.04517,
				"method": "rhf"
			},
			{
				"type": "unocc",
				"energy": 0.05818,
				"method": "rhf"
			},
			{
				"type": "unocc",
				"energy": 0.09703,
				"method": "rhf"
			}
		],
		"cosmo_sigma_profile": { 
			"-0.025": 0.0,
			"-0.024": 0.0,
			"-0.023": 0.0,
			"-0.022": 0.0,
			"-0.021": 0.0,
			"-0.02": 0.0,
			"-0.019": 0.371306269134,
			"-0.018": 0.853861292795,
			"-0.017": 0.980309630675,
			"-0.016": 1.33762234154,
			"-0.015": 0.835408153942,
			"-0.014": 0.62518417199,
			"-0.013": 1.27539172302,
			"-0.012": 1.11356649249,
			"-0.011": 1.09777450828,
			"-0.01": 1.9417210088,
			"-0.009": 1.14920675967,
			"-0.008": 1.31583567766,
			"-0.007": 3.06723495557,
			"-0.006": 6.86084450851,
			"-0.005": 11.0995270199,
			"-0.004": 11.6278181274,
			"-0.003": 11.6421097143,
			"-0.002": 12.7644282421,
			"-0.001": 16.7618609947,
			"0.0": 16.4290757243,
			"0.001": 12.9451493162,
			"0.002": 13.6888219609,
			"0.003": 11.5511326415,
			"0.004": 11.8382970356,
			"0.005": 3.12831823957,
			"0.006": 2.10688279726,
			"0.007": 2.51578406974,
			"0.008": 2.86551248307,
			"0.009": 3.4110164668,
			"0.01": 4.80506661646,
			"0.011": 5.13752136132,
			"0.012": 4.80247103254,
			"0.013": 1.40512035166,
			"0.014": 0.0292477967205,
			"0.015": 0.0,
			"0.016": 0.0,
			"0.017": 0.0,
			"0.018": 0.0,
			"0.019": 0.0,
			"0.02": 0.0,
			"0.021": 0.0,
			"0.022": 0.0,
			"0.023": 0.0,
			"0.024": 0.0,
			"0.025": 0.0
		}
	}
}
