{
	 "smiles": "CC(=O)OC1=CC=C(O)C=C1", 
	 "Tm": 335.15, 
	 "num_atms": 19, 
	 "gaussian": { 
		 "optdone": 1, 
		 "sigma_profile": "yes", 
		 "theory": "DFT", 
		 "functional": "B3LYP", 
		 "basiset": "6-31G**", 
		 "properties": { 
			 "R2extent": 2501.8259, 
			 "electric_dipole_moment_norm": 1.08883859685, 
			 "electric_quadrupole_moment_norm": 15.2278489453, 
			 "total_energy": -535.347106964, 
			 "HOMO_LUMO_gap": 0.20974, 
			 "cosmo_polarized_energy": -11.77, 
			 "cosmo_cavitation_energy": 23.82, 
			 "cosmo_dispersion_energy": -17.59, 
			 "cosmo_repulsion_energy": 1.43, 
			 "cosmo_total_nonelectrostatic_energy": 7.66, 
			 "SMD_solvation_energy": 5.84 
		},
		"coords": [
			{
				"x": 3.1891985219,
				"y": -2.6071330474,
				"z": 1.3084926811,
				"element": "C" 
			},
			{
				"x": 2.2413849719,
				"y": -2.1181436549,
				"z": 0.2400688865,
				"element": "C" 
			},
			{
				"x": 1.8615463324,
				"y": -2.7560249754,
				"z": -0.7117923178,
				"element": "O" 
			},
			{
				"x": 1.8702463351,
				"y": -0.8308601811,
				"z": 0.5147248127,
				"element": "O" 
			},
			{
				"x": 1.0228587068,
				"y": -0.113843827,
				"z": -0.3367169371,
				"element": "C" 
			},
			{
				"x": 1.3405945384,
				"y": 1.233637375,
				"z": -0.5106610689,
				"element": "C" 
			},
			{
				"x": 0.5199560202,
				"y": 2.0518580383,
				"z": -1.2800271504,
				"element": "C" 
			},
			{
				"x": -0.6250521664,
				"y": 1.5184579318,
				"z": -1.8822676319,
				"element": "C" 
			},
			{
				"x": -1.3949738226,
				"y": 2.3638981068,
				"z": -2.6316716098,
				"element": "O" 
			},
			{
				"x": -0.9386748206,
				"y": 0.1679200994,
				"z": -1.7002136925,
				"element": "C" 
			},
			{
				"x": -0.1192542126,
				"y": -0.6540831022,
				"z": -0.9252757357,
				"element": "C" 
			},
			{
				"x": 4.0835709998,
				"y": -1.9775254497,
				"z": 1.3331401134,
				"element": "H" 
			},
			{
				"x": 3.4666822541,
				"y": -3.6396787728,
				"z": 1.0996023579,
				"element": "H" 
			},
			{
				"x": 2.714964511,
				"y": -2.5372867195,
				"z": 2.291800177,
				"element": "H" 
			},
			{
				"x": 2.2310134886,
				"y": 1.630507893,
				"z": -0.0342821971,
				"element": "H" 
			},
			{
				"x": 0.7518407276,
				"y": 3.1014629707,
				"z": -1.4250380247,
				"element": "H" 
			},
			{
				"x": -2.1448602082,
				"y": 1.8733563663,
				"z": -2.9919299179,
				"element": "H" 
			},
			{
				"x": -1.8282658182,
				"y": -0.2512949901,
				"z": -2.165489563,
				"element": "H" 
			},
			{
				"x": -0.3621763593,
				"y": -1.6999240612,
				"z": -0.7961631819,
				"element": "H" 
			}
		],
		 "valence_orbital": [ 
			{
				"type": "occ",
				"energy": -0.3377,
				"method": "rhf"
			},
			{
				"type": "occ",
				"energy": -0.30959,
				"method": "rhf"
			},
			{
				"type": "occ",
				"energy": -0.27614,
				"method": "rhf"
			},
			{
				"type": "occ",
				"energy": -0.25503,
				"method": "rhf"
			},
			{
				"type": "occ",
				"energy": -0.2162,
				"method": "rhf"
			},
			{
				"type": "unocc",
				"energy": -0.00646,
				"method": "rhf"
			},
			{
				"type": "unocc",
				"energy": -0.00412,
				"method": "rhf"
			},
			{
				"type": "unocc",
				"energy": 0.02772,
				"method": "rhf"
			},
			{
				"type": "unocc",
				"energy": 0.06849,
				"method": "rhf"
			},
			{
				"type": "unocc",
				"energy": 0.09282,
				"method": "rhf"
			}
		],
		"cosmo_sigma_profile": { 
			"-0.025": 0.0,
			"-0.024": 0.0,
			"-0.023": 0.0,
			"-0.022": 0.0,
			"-0.021": 0.0,
			"-0.02": 0.0,
			"-0.019": 0.0,
			"-0.018": 0.441424017049,
			"-0.017": 1.20722410467,
			"-0.016": 0.870839893812,
			"-0.015": 1.22201328899,
			"-0.014": 0.622169512835,
			"-0.013": 1.22086688158,
			"-0.012": 1.24187589955,
			"-0.011": 1.14353649369,
			"-0.01": 0.671655721429,
			"-0.009": 1.30211627438,
			"-0.008": 1.07615300852,
			"-0.007": 4.72103955571,
			"-0.006": 11.9723817993,
			"-0.005": 13.4199443289,
			"-0.004": 14.3693560813,
			"-0.003": 13.7851256897,
			"-0.002": 14.3125908244,
			"-0.001": 10.2193419506,
			"0.0": 8.91781937307,
			"0.001": 8.19476972736,
			"0.002": 10.1063550379,
			"0.003": 13.2732609022,
			"0.004": 15.8002428769,
			"0.005": 10.2788478157,
			"0.006": 4.66399573672,
			"0.007": 4.29027130951,
			"0.008": 3.96878432997,
			"0.009": 2.95085805098,
			"0.01": 4.22056181186,
			"0.011": 6.32426081619,
			"0.012": 2.81253042446,
			"0.013": 0.224039068984,
			"0.014": 0.0,
			"0.015": 0.0,
			"0.016": 0.0,
			"0.017": 0.0,
			"0.018": 0.0,
			"0.019": 0.0,
			"0.02": 0.0,
			"0.021": 0.0,
			"0.022": 0.0,
			"0.023": 0.0,
			"0.024": 0.0,
			"0.025": 0.0
		}
	}
}
