{
	 "smiles": "FC(F)S(=O)(=O)C1=CC=C(CBr)C=C1", 
	 "Tm": 332.15, 
	 "num_atms": 21, 
	 "gaussian": { 
		 "optdone": 1, 
		 "sigma_profile": "yes", 
		 "theory": "DFT", 
		 "functional": "B3LYP", 
		 "basiset": "6-31G**", 
		 "properties": { 
			 "R2extent": 6268.4626, 
			 "electric_dipole_moment_norm": 5.60663528776, 
			 "electric_quadrupole_moment_norm": 11.1167212441, 
			 "total_energy": -3628.70154612, 
			 "HOMO_LUMO_gap": 0.20338, 
			 "cosmo_polarized_energy": -16.07, 
			 "cosmo_cavitation_energy": 30.4, 
			 "cosmo_dispersion_energy": -22.11, 
			 "cosmo_repulsion_energy": 1.67, 
			 "cosmo_total_nonelectrostatic_energy": 9.96, 
			 "SMD_solvation_energy": 4.13 
		},
		"coords": [
			{
				"x": -3.5812290065,
				"y": 1.3845552619,
				"z": 2.074527216,
				"element": "F" 
			},
			{
				"x": -2.3545807616,
				"y": 0.8683014376,
				"z": 1.8905581178,
				"element": "C" 
			},
			{
				"x": -1.4214782187,
				"y": 1.8013269035,
				"z": 2.1809051242,
				"element": "F" 
			},
			{
				"x": -2.2104105649,
				"y": 0.4256910314,
				"z": 0.0794609312,
				"element": "S" 
			},
			{
				"x": -3.0442343611,
				"y": -0.7712265906,
				"z": -0.0962668916,
				"element": "O" 
			},
			{
				"x": -2.4251705598,
				"y": 1.6571726603,
				"z": -0.6864158553,
				"element": "O" 
			},
			{
				"x": -0.4886372586,
				"y": -0.0525759537,
				"z": -0.0603380623,
				"element": "C" 
			},
			{
				"x": -0.1523781196,
				"y": -1.4055639948,
				"z": 0.019896536,
				"element": "C" 
			},
			{
				"x": 1.1871433061,
				"y": -1.7727262001,
				"z": -0.0855698357,
				"element": "C" 
			},
			{
				"x": 2.1824489159,
				"y": -0.8018740611,
				"z": -0.2662011714,
				"element": "C" 
			},
			{
				"x": 3.6211394619,
				"y": -1.2030412447,
				"z": -0.3622603596,
				"element": "C" 
			},
			{
				"x": 4.1660513568,
				"y": -1.5496005646,
				"z": -2.2525299127,
				"element": "Br" 
			},
			{
				"x": 1.8168098175,
				"y": 0.5502086932,
				"z": -0.3524997817,
				"element": "C" 
			},
			{
				"x": 0.4830694305,
				"y": 0.9336138376,
				"z": -0.251048736,
				"element": "C" 
			},
			{
				"x": -2.2119684097,
				"y": -0.0268772955,
				"z": 2.5059077031,
				"element": "H" 
			},
			{
				"x": -0.9322249101,
				"y": -2.1492702831,
				"z": 0.1431903556,
				"element": "H" 
			},
			{
				"x": 1.4629345662,
				"y": -2.82220582,
				"z": -0.0356776635,
				"element": "H" 
			},
			{
				"x": 3.8312446817,
				"y": -2.133999509,
				"z": 0.1610532539,
				"element": "H" 
			},
			{
				"x": 4.2967134144,
				"y": -0.4215983804,
				"z": -0.0192388902,
				"element": "H" 
			},
			{
				"x": 2.5828455709,
				"y": 1.3044162481,
				"z": -0.5081341439,
				"element": "H" 
			},
			{
				"x": 0.1918116486,
				"y": 1.9749738238,
				"z": -0.3304179339,
				"element": "H" 
			}
		],
		 "valence_orbital": [ 
			{
				"type": "occ",
				"energy": -0.29926,
				"method": "rhf"
			},
			{
				"type": "occ",
				"energy": -0.29484,
				"method": "rhf"
			},
			{
				"type": "occ",
				"energy": -0.29149,
				"method": "rhf"
			},
			{
				"type": "occ",
				"energy": -0.28337,
				"method": "rhf"
			},
			{
				"type": "occ",
				"energy": -0.27889,
				"method": "rhf"
			},
			{
				"type": "unocc",
				"energy": -0.07551,
				"method": "rhf"
			},
			{
				"type": "unocc",
				"energy": -0.03934,
				"method": "rhf"
			},
			{
				"type": "unocc",
				"energy": -0.00521,
				"method": "rhf"
			},
			{
				"type": "unocc",
				"energy": 0.03921,
				"method": "rhf"
			},
			{
				"type": "unocc",
				"energy": 0.04973,
				"method": "rhf"
			}
		],
		"cosmo_sigma_profile": { 
			"-0.025": 0.0,
			"-0.024": 0.0,
			"-0.023": 0.0,
			"-0.022": 0.0,
			"-0.021": 0.0,
			"-0.02": 0.0,
			"-0.019": 0.0,
			"-0.018": 0.0,
			"-0.017": 0.0,
			"-0.016": 0.0,
			"-0.015": 0.0,
			"-0.014": 0.0,
			"-0.013": 0.112769563498,
			"-0.012": 3.57470375615,
			"-0.011": 2.79989706006,
			"-0.01": 1.48287874728,
			"-0.009": 3.6898369645,
			"-0.008": 12.2776700966,
			"-0.007": 12.876281599,
			"-0.006": 12.4964057398,
			"-0.005": 10.9964307024,
			"-0.004": 9.51865981857,
			"-0.003": 10.1688467777,
			"-0.002": 10.278489904,
			"-0.001": 13.4300456018,
			"0.0": 14.4216128207,
			"0.001": 25.0694303692,
			"0.002": 31.7664895627,
			"0.003": 13.6241474743,
			"0.004": 8.37252832905,
			"0.005": 10.0308208347,
			"0.006": 13.6412938979,
			"0.007": 2.86513822584,
			"0.008": 3.34441814977,
			"0.009": 6.06286949287,
			"0.01": 9.06904549946,
			"0.011": 4.83199003651,
			"0.012": 0.0543390436981,
			"0.013": 0.0,
			"0.014": 0.0,
			"0.015": 0.0,
			"0.016": 0.0,
			"0.017": 0.0,
			"0.018": 0.0,
			"0.019": 0.0,
			"0.02": 0.0,
			"0.021": 0.0,
			"0.022": 0.0,
			"0.023": 0.0,
			"0.024": 0.0,
			"0.025": 0.0
		}
	}
}
