{
	 "smiles": "NC1=C(SC2=CC=CC=C2)C=C2OCCOC2=C1", 
	 "Tm": 348.15, 
	 "num_atms": 31, 
	 "gaussian": { 
		 "optdone": 1, 
		 "sigma_profile": "yes", 
		 "theory": "DFT", 
		 "functional": "B3LYP", 
		 "basiset": "6-31G**", 
		 "properties": { 
			 "R2extent": 6594.1674, 
			 "electric_dipole_moment_norm": 2.54638648677, 
			 "electric_quadrupole_moment_norm": 19.2144518407, 
			 "total_energy": -1144.69257246, 
			 "HOMO_LUMO_gap": 0.18027, 
			 "cosmo_polarized_energy": -12.47, 
			 "cosmo_cavitation_energy": 35.73, 
			 "cosmo_dispersion_energy": -26.56, 
			 "cosmo_repulsion_energy": 2.02, 
			 "cosmo_total_nonelectrostatic_energy": 11.19, 
			 "SMD_solvation_energy": 5.78 
		},
		"coords": [
			{
				"x": 0.7058177376,
				"y": 0.4014933852,
				"z": 2.1118953095,
				"element": "N" 
			},
			{
				"x": 0.0640843128,
				"y": 1.2686022558,
				"z": 1.238468658,
				"element": "C" 
			},
			{
				"x": -0.6362721828,
				"y": 0.7877764034,
				"z": 0.1019423578,
				"element": "C" 
			},
			{
				"x": -0.8915774478,
				"y": -0.9608172903,
				"z": -0.1449792794,
				"element": "S" 
			},
			{
				"x": 0.6346622194,
				"y": -1.550260411,
				"z": -0.8964350002,
				"element": "C" 
			},
			{
				"x": 1.6719272981,
				"y": -0.7081926487,
				"z": -1.3081269186,
				"element": "C" 
			},
			{
				"x": 2.8147834151,
				"y": -1.2534520978,
				"z": -1.896473445,
				"element": "C" 
			},
			{
				"x": 2.9317840328,
				"y": -2.6312074334,
				"z": -2.0837642588,
				"element": "C" 
			},
			{
				"x": 1.8919761664,
				"y": -3.4689618986,
				"z": -1.6738072601,
				"element": "C" 
			},
			{
				"x": 0.7491845675,
				"y": -2.9356343834,
				"z": -1.079899262,
				"element": "C" 
			},
			{
				"x": -1.233493539,
				"y": 1.6935542751,
				"z": -0.7849619559,
				"element": "C" 
			},
			{
				"x": -1.1446923227,
				"y": 3.0649679002,
				"z": -0.585159164,
				"element": "C" 
			},
			{
				"x": -1.7528710593,
				"y": 3.9160317081,
				"z": -1.4859354189,
				"element": "O" 
			},
			{
				"x": -1.9488664053,
				"y": 5.2277549594,
				"z": -0.9661525191,
				"element": "C" 
			},
			{
				"x": -0.6680078647,
				"y": 5.7276283611,
				"z": -0.3169562045,
				"element": "C" 
			},
			{
				"x": -0.3054766076,
				"y": 4.8862927414,
				"z": 0.7810298415,
				"element": "O" 
			},
			{
				"x": -0.4346016939,
				"y": 3.545455644,
				"z": 0.5299404313,
				"element": "C" 
			},
			{
				"x": 0.1545914184,
				"y": 2.6569260199,
				"z": 1.4248885778,
				"element": "C" 
			},
			{
				"x": 0.8429153221,
				"y": 0.7516618798,
				"z": 3.0491575604,
				"element": "H" 
			},
			{
				"x": 0.3639185621,
				"y": -0.5511925104,
				"z": 2.0828826166,
				"element": "H" 
			},
			{
				"x": 1.5875152939,
				"y": 0.3639907552,
				"z": -1.1688808,
				"element": "H" 
			},
			{
				"x": 3.6169779597,
				"y": -0.5913569411,
				"z": -2.2109671785,
				"element": "H" 
			},
			{
				"x": 3.8227282465,
				"y": -3.0485633059,
				"z": -2.5433413244,
				"element": "H" 
			},
			{
				"x": 1.9695028441,
				"y": -4.5437961881,
				"z": -1.812788006,
				"element": "H" 
			},
			{
				"x": -0.0541200245,
				"y": -3.5938407493,
				"z": -0.7593328619,
				"element": "H" 
			},
			{
				"x": -1.7861702329,
				"y": 1.3276792775,
				"z": -1.6433714745,
				"element": "H" 
			},
			{
				"x": -2.2350210472,
				"y": 5.8599141254,
				"z": -1.8107271826,
				"element": "H" 
			},
			{
				"x": -2.7641382647,
				"y": 5.2259376037,
				"z": -0.2284098165,
				"element": "H" 
			},
			{
				"x": -0.7935131009,
				"y": 6.7325555326,
				"z": 0.0942748769,
				"element": "H" 
			},
			{
				"x": 0.1437114597,
				"y": 5.7419700749,
				"z": -1.0566608301,
				"element": "H" 
			},
			{
				"x": 0.698740937,
				"y": 3.0670829551,
				"z": 2.2702499313,
				"element": "H" 
			}
		],
		 "valence_orbital": [ 
			{
				"type": "occ",
				"energy": -0.27285,
				"method": "rhf"
			},
			{
				"type": "occ",
				"energy": -0.24478,
				"method": "rhf"
			},
			{
				"type": "occ",
				"energy": -0.22935,
				"method": "rhf"
			},
			{
				"type": "occ",
				"energy": -0.20732,
				"method": "rhf"
			},
			{
				"type": "occ",
				"energy": -0.18981,
				"method": "rhf"
			},
			{
				"type": "unocc",
				"energy": -0.00954,
				"method": "rhf"
			},
			{
				"type": "unocc",
				"energy": 0.004,
				"method": "rhf"
			},
			{
				"type": "unocc",
				"energy": 0.00691,
				"method": "rhf"
			},
			{
				"type": "unocc",
				"energy": 0.0187,
				"method": "rhf"
			},
			{
				"type": "unocc",
				"energy": 0.05577,
				"method": "rhf"
			}
		],
		"cosmo_sigma_profile": { 
			"-0.025": 0.0,
			"-0.024": 0.0,
			"-0.023": 0.0,
			"-0.022": 0.0,
			"-0.021": 0.0,
			"-0.02": 0.0,
			"-0.019": 0.0,
			"-0.018": 0.0,
			"-0.017": 0.0,
			"-0.016": 0.0,
			"-0.015": 0.0,
			"-0.014": 0.0,
			"-0.013": 0.759151575665,
			"-0.012": 1.26638511734,
			"-0.011": 1.48319010368,
			"-0.01": 2.02783768594,
			"-0.009": 2.73086513009,
			"-0.008": 2.55753228149,
			"-0.007": 8.26662569322,
			"-0.006": 20.1275608885,
			"-0.005": 23.333369976,
			"-0.004": 21.7297413474,
			"-0.003": 19.2297433548,
			"-0.002": 14.7243563355,
			"-0.001": 14.2272338083,
			"0.0": 15.1539747661,
			"0.001": 18.7473497896,
			"0.002": 18.4580162295,
			"0.003": 22.2752097605,
			"0.004": 24.7135414261,
			"0.005": 19.5375163787,
			"0.006": 15.4312493989,
			"0.007": 5.86147056932,
			"0.008": 3.35629399107,
			"0.009": 3.80294847795,
			"0.01": 4.16473085054,
			"0.011": 1.45163547108,
			"0.012": 0.819426425116,
			"0.013": 0.398724634752,
			"0.014": 0.0,
			"0.015": 0.0,
			"0.016": 0.0,
			"0.017": 0.0,
			"0.018": 0.0,
			"0.019": 0.0,
			"0.02": 0.0,
			"0.021": 0.0,
			"0.022": 0.0,
			"0.023": 0.0,
			"0.024": 0.0,
			"0.025": 0.0
		}
	}
}
