{
	 "smiles": "CCNC(=O)NCC1=CC=C(N)C=C1", 
	 "Tm": 394.15, 
	 "num_atms": 29, 
	 "gaussian": { 
		 "optdone": 1, 
		 "sigma_profile": "yes", 
		 "theory": "DFT", 
		 "functional": "B3LYP", 
		 "basiset": "6-31G**", 
		 "properties": { 
			 "R2extent": 4315.7646, 
			 "electric_dipole_moment_norm": 3.23868887206, 
			 "electric_quadrupole_moment_norm": 19.9135208713, 
			 "total_energy": -629.614111317, 
			 "HOMO_LUMO_gap": 0.20142, 
			 "cosmo_polarized_energy": -18.59, 
			 "cosmo_cavitation_energy": 32.33, 
			 "cosmo_dispersion_energy": -22.87, 
			 "cosmo_repulsion_energy": 1.84, 
			 "cosmo_total_nonelectrostatic_energy": 11.3, 
			 "SMD_solvation_energy": 4.97 
		},
		"coords": [
			{
				"x": -2.8672883463,
				"y": -1.5032745515,
				"z": -0.2419066603,
				"element": "C" 
			},
			{
				"x": -1.9459355973,
				"y": -2.5253937368,
				"z": 0.4244997135,
				"element": "C" 
			},
			{
				"x": -0.6626080244,
				"y": -1.9434401023,
				"z": 0.8294017939,
				"element": "N" 
			},
			{
				"x": 0.3405419035,
				"y": -1.8290748706,
				"z": -0.1173207098,
				"element": "C" 
			},
			{
				"x": 0.1439640093,
				"y": -2.04545539,
				"z": -1.309775011,
				"element": "O" 
			},
			{
				"x": 1.5989436506,
				"y": -1.4785213735,
				"z": 0.3542564526,
				"element": "N" 
			},
			{
				"x": 1.8940917939,
				"y": -0.6966108423,
				"z": 1.5598258376,
				"element": "C" 
			},
			{
				"x": 1.8799584242,
				"y": 0.8076932732,
				"z": 1.3635554805,
				"element": "C" 
			},
			{
				"x": 0.6860914411,
				"y": 1.4964826944,
				"z": 1.100611733,
				"element": "C" 
			},
			{
				"x": 0.6763672923,
				"y": 2.871597486,
				"z": 0.9008178147,
				"element": "C" 
			},
			{
				"x": 1.8706657579,
				"y": 3.6144224459,
				"z": 0.9575944371,
				"element": "C" 
			},
			{
				"x": 1.8534146026,
				"y": 5.0025152709,
				"z": 0.8130935824,
				"element": "N" 
			},
			{
				"x": 3.0678580015,
				"y": 2.9303712995,
				"z": 1.2220892797,
				"element": "C" 
			},
			{
				"x": 3.0634080685,
				"y": 1.5510427023,
				"z": 1.4200577187,
				"element": "C" 
			},
			{
				"x": -3.8147468878,
				"y": -1.9729242656,
				"z": -0.5280345202,
				"element": "H" 
			},
			{
				"x": -2.3916530162,
				"y": -1.1098073607,
				"z": -1.1430342149,
				"element": "H" 
			},
			{
				"x": -3.0850802997,
				"y": -0.6705762189,
				"z": 0.4348710104,
				"element": "H" 
			},
			{
				"x": -1.7673084018,
				"y": -3.3604522542,
				"z": -0.2620537196,
				"element": "H" 
			},
			{
				"x": -2.4157550151,
				"y": -2.9267289432,
				"z": 1.3284692168,
				"element": "H" 
			},
			{
				"x": -0.3767602625,
				"y": -2.112699782,
				"z": 1.7818207471,
				"element": "H" 
			},
			{
				"x": 2.2098140832,
				"y": -1.2894239914,
				"z": -0.4306503366,
				"element": "H" 
			},
			{
				"x": 1.1845139983,
				"y": -0.9835098702,
				"z": 2.3417805563,
				"element": "H" 
			},
			{
				"x": 2.880639175,
				"y": -1.0046587972,
				"z": 1.9247281103,
				"element": "H" 
			},
			{
				"x": -0.2486124834,
				"y": 0.9443522874,
				"z": 1.0467703132,
				"element": "H" 
			},
			{
				"x": -0.2622598077,
				"y": 3.3841760366,
				"z": 0.7037284744,
				"element": "H" 
			},
			{
				"x": 1.071558153,
				"y": 5.3701490135,
				"z": 0.288574318,
				"element": "H" 
			},
			{
				"x": 2.7288126484,
				"y": 5.4156099726,
				"z": 0.5222868986,
				"element": "H" 
			},
			{
				"x": 4.0022591941,
				"y": 3.4839961494,
				"z": 1.2751113601,
				"element": "H" 
			},
			{
				"x": 4.005005945,
				"y": 1.0445437185,
				"z": 1.6220303236,
				"element": "H" 
			}
		],
		 "valence_orbital": [ 
			{
				"type": "occ",
				"energy": -0.25249,
				"method": "rhf"
			},
			{
				"type": "occ",
				"energy": -0.24818,
				"method": "rhf"
			},
			{
				"type": "occ",
				"energy": -0.24166,
				"method": "rhf"
			},
			{
				"type": "occ",
				"energy": -0.23528,
				"method": "rhf"
			},
			{
				"type": "occ",
				"energy": -0.20141,
				"method": "rhf"
			},
			{
				"type": "unocc",
				"energy": 1e-05,
				"method": "rhf"
			},
			{
				"type": "unocc",
				"energy": 0.01061,
				"method": "rhf"
			},
			{
				"type": "unocc",
				"energy": 0.06319,
				"method": "rhf"
			},
			{
				"type": "unocc",
				"energy": 0.07431,
				"method": "rhf"
			},
			{
				"type": "unocc",
				"energy": 0.08176,
				"method": "rhf"
			}
		],
		"cosmo_sigma_profile": { 
			"-0.025": 0.0,
			"-0.024": 0.0,
			"-0.023": 0.0,
			"-0.022": 0.0,
			"-0.021": 0.0,
			"-0.02": 0.0,
			"-0.019": 0.0,
			"-0.018": 0.0,
			"-0.017": 0.0,
			"-0.016": 0.0,
			"-0.015": 0.0,
			"-0.014": 0.590019202439,
			"-0.013": 1.41138736904,
			"-0.012": 4.24985128522,
			"-0.011": 4.74336000629,
			"-0.01": 5.61089638801,
			"-0.009": 5.11289486693,
			"-0.008": 4.63424325904,
			"-0.007": 5.14394556591,
			"-0.006": 8.31228309082,
			"-0.005": 14.2466927337,
			"-0.004": 14.2456463169,
			"-0.003": 19.165643836,
			"-0.002": 19.4794845603,
			"-0.001": 21.0026051545,
			"0.0": 17.9124240415,
			"0.001": 17.4713322619,
			"0.002": 14.1235937236,
			"0.003": 10.8185204381,
			"0.004": 9.6884157768,
			"0.005": 9.328229585,
			"0.006": 11.7505866916,
			"0.007": 10.1325042543,
			"0.008": 3.76520940916,
			"0.009": 2.50294942995,
			"0.01": 2.09687106631,
			"0.011": 2.13256109772,
			"0.012": 2.20409074187,
			"0.013": 2.68718454415,
			"0.014": 4.28246958116,
			"0.015": 4.62832276207,
			"0.016": 0.285644772793,
			"0.017": 0.0,
			"0.018": 0.0,
			"0.019": 0.0,
			"0.02": 0.0,
			"0.021": 0.0,
			"0.022": 0.0,
			"0.023": 0.0,
			"0.024": 0.0,
			"0.025": 0.0
		}
	}
}
