{
	 "smiles": "OCC1=CC=CC=C1OC1OC(COC(=O)C2=CC=CC=C2)C(O)C(O)C1O", 
	 "Tm": 453.15, 
	 "num_atms": 50, 
	 "gaussian": { 
		 "optdone": 1, 
		 "sigma_profile": "yes", 
		 "theory": "DFT", 
		 "functional": "B3LYP", 
		 "basiset": "6-31G**", 
		 "properties": { 
			 "R2extent": 12270.7505, 
			 "electric_dipole_moment_norm": 5.75662288673, 
			 "electric_quadrupole_moment_norm": 23.6360262026, 
			 "total_energy": -1377.14498367, 
			 "HOMO_LUMO_gap": 0.19966, 
			 "cosmo_polarized_energy": -24.16, 
			 "cosmo_cavitation_energy": 51.37, 
			 "cosmo_dispersion_energy": -34.26, 
			 "cosmo_repulsion_energy": 2.55, 
			 "cosmo_total_nonelectrostatic_energy": 19.65, 
			 "SMD_solvation_energy": 8.8 
		},
		"coords": [
			{
				"x": 1.5582750736,
				"y": 2.4882787224,
				"z": 2.2248128273,
				"element": "O" 
			},
			{
				"x": 1.7500288619,
				"y": 2.864255896,
				"z": 0.8519967908,
				"element": "C" 
			},
			{
				"x": 0.509803537,
				"y": 2.5217702743,
				"z": 0.0693681728,
				"element": "C" 
			},
			{
				"x": -0.3466369916,
				"y": 3.5181071851,
				"z": -0.4107326705,
				"element": "C" 
			},
			{
				"x": -1.500023087,
				"y": 3.1957387804,
				"z": -1.1275648687,
				"element": "C" 
			},
			{
				"x": -1.8144602276,
				"y": 1.8579465229,
				"z": -1.3683465309,
				"element": "C" 
			},
			{
				"x": -0.9755167213,
				"y": 0.8444211505,
				"z": -0.9011290043,
				"element": "C" 
			},
			{
				"x": 0.1759786931,
				"y": 1.1834379516,
				"z": -0.1928287632,
				"element": "C" 
			},
			{
				"x": 1.0425042335,
				"y": 0.1888341327,
				"z": 0.2495606114,
				"element": "O" 
			},
			{
				"x": 0.6522852379,
				"y": -0.5102357851,
				"z": 1.4520215144,
				"element": "C" 
			},
			{
				"x": -0.1471520899,
				"y": -1.6233814082,
				"z": 1.1980351261,
				"element": "O" 
			},
			{
				"x": 0.4577484206,
				"y": -2.8055506684,
				"z": 0.6178274555,
				"element": "C" 
			},
			{
				"x": 0.5392967242,
				"y": -2.7388894735,
				"z": -0.9044787595,
				"element": "C" 
			},
			{
				"x": -0.80791891,
				"y": -2.5998432315,
				"z": -1.4026394506,
				"element": "O" 
			},
			{
				"x": -0.966479578,
				"y": -2.7672659401,
				"z": -2.7381641638,
				"element": "C" 
			},
			{
				"x": -0.0455490014,
				"y": -3.0156047966,
				"z": -3.4911832098,
				"element": "O" 
			},
			{
				"x": -2.3864302379,
				"y": -2.6053574899,
				"z": -3.163711262,
				"element": "C" 
			},
			{
				"x": -3.4225423413,
				"y": -2.3693061711,
				"z": -2.2484509868,
				"element": "C" 
			},
			{
				"x": -4.7320239165,
				"y": -2.225306247,
				"z": -2.705297795,
				"element": "C" 
			},
			{
				"x": -5.0125537027,
				"y": -2.3167981841,
				"z": -4.0709239849,
				"element": "C" 
			},
			{
				"x": -3.9814060231,
				"y": -2.5547618048,
				"z": -4.9840354419,
				"element": "C" 
			},
			{
				"x": -2.6719729301,
				"y": -2.6997236405,
				"z": -4.5327035918,
				"element": "C" 
			},
			{
				"x": 1.7963210742,
				"y": -3.1861239658,
				"z": 1.2887516625,
				"element": "C" 
			},
			{
				"x": 1.5733094036,
				"y": -3.8580831188,
				"z": 2.5167590803,
				"element": "O" 
			},
			{
				"x": 2.7214795991,
				"y": -1.9626825955,
				"z": 1.4853000698,
				"element": "C" 
			},
			{
				"x": 3.275082387,
				"y": -1.5112282818,
				"z": 0.2573847943,
				"element": "O" 
			},
			{
				"x": 1.9576744404,
				"y": -0.8374970632,
				"z": 2.1973193091,
				"element": "C" 
			},
			{
				"x": 1.6662411037,
				"y": -1.2928980434,
				"z": 3.5202641271,
				"element": "O" 
			},
			{
				"x": 2.3660154619,
				"y": 2.7212692767,
				"z": 2.7017686009,
				"element": "H" 
			},
			{
				"x": 2.6147297177,
				"y": 2.3338093066,
				"z": 0.4291733453,
				"element": "H" 
			},
			{
				"x": 1.9412740256,
				"y": 3.9431564309,
				"z": 0.7700510195,
				"element": "H" 
			},
			{
				"x": -0.1032567876,
				"y": 4.5594279181,
				"z": -0.2157429584,
				"element": "H" 
			},
			{
				"x": -2.1494781245,
				"y": 3.9852635603,
				"z": -1.4933383477,
				"element": "H" 
			},
			{
				"x": -2.7105152372,
				"y": 1.5961576787,
				"z": -1.9233168161,
				"element": "H" 
			},
			{
				"x": -1.1993240584,
				"y": -0.2011572019,
				"z": -1.0763859193,
				"element": "H" 
			},
			{
				"x": 0.0331632091,
				"y": 0.1670846089,
				"z": 2.0495268346,
				"element": "H" 
			},
			{
				"x": -0.2504701318,
				"y": -3.5991149317,
				"z": 0.8724571315,
				"element": "H" 
			},
			{
				"x": 1.1465182067,
				"y": -1.9109700587,
				"z": -1.2691908299,
				"element": "H" 
			},
			{
				"x": 0.9691154853,
				"y": -3.6667532626,
				"z": -1.2932026084,
				"element": "H" 
			},
			{
				"x": -3.1969101739,
				"y": -2.305784454,
				"z": -1.1899652718,
				"element": "H" 
			},
			{
				"x": -5.534272225,
				"y": -2.0446394068,
				"z": -1.9958513799,
				"element": "H" 
			},
			{
				"x": -6.034124635,
				"y": -2.2047027111,
				"z": -4.4232102046,
				"element": "H" 
			},
			{
				"x": -4.1998542689,
				"y": -2.6273567713,
				"z": -6.0453649963,
				"element": "H" 
			},
			{
				"x": -1.8541807019,
				"y": -2.8863091026,
				"z": -5.2205460129,
				"element": "H" 
			},
			{
				"x": 2.3188133571,
				"y": -3.8948286822,
				"z": 0.6372362784,
				"element": "H" 
			},
			{
				"x": 1.350650381,
				"y": -3.1749017334,
				"z": 3.1702686488,
				"element": "H" 
			},
			{
				"x": 3.5494420609,
				"y": -2.2831505991,
				"z": 2.1266923274,
				"element": "H" 
			},
			{
				"x": 2.7134212503,
				"y": -0.80191458,
				"z": -0.0904825665,
				"element": "H" 
			},
			{
				"x": 2.5651288983,
				"y": 0.0735247512,
				"z": 2.2247899429,
				"element": "H" 
			},
			{
				"x": 1.1083512589,
				"y": -0.6357627427,
				"z": 3.957722725,
				"element": "H" 
			}
		],
		 "valence_orbital": [ 
			{
				"type": "occ",
				"energy": -0.26025,
				"method": "rhf"
			},
			{
				"type": "occ",
				"energy": -0.25914,
				"method": "rhf"
			},
			{
				"type": "occ",
				"energy": -0.25872,
				"method": "rhf"
			},
			{
				"type": "occ",
				"energy": -0.24915,
				"method": "rhf"
			},
			{
				"type": "occ",
				"energy": -0.24523,
				"method": "rhf"
			},
			{
				"type": "unocc",
				"energy": -0.04557,
				"method": "rhf"
			},
			{
				"type": "unocc",
				"energy": -0.01815,
				"method": "rhf"
			},
			{
				"type": "unocc",
				"energy": -0.00919,
				"method": "rhf"
			},
			{
				"type": "unocc",
				"energy": -0.00839,
				"method": "rhf"
			},
			{
				"type": "unocc",
				"energy": 0.04423,
				"method": "rhf"
			}
		],
		"cosmo_sigma_profile": { 
			"-0.025": 0.0,
			"-0.024": 0.0,
			"-0.023": 0.0,
			"-0.022": 0.0,
			"-0.021": 0.0,
			"-0.02": 0.0,
			"-0.019": 0.0,
			"-0.018": 0.0,
			"-0.017": 0.558457668293,
			"-0.016": 1.48451257206,
			"-0.015": 2.08419429666,
			"-0.014": 2.09261673138,
			"-0.013": 1.86208401663,
			"-0.012": 2.02499886096,
			"-0.011": 1.47820071041,
			"-0.01": 1.45494279626,
			"-0.009": 2.04380051611,
			"-0.008": 3.82135874133,
			"-0.007": 8.46349442107,
			"-0.006": 22.1278810401,
			"-0.005": 30.6749444271,
			"-0.004": 34.3506173407,
			"-0.003": 31.6976498472,
			"-0.002": 32.7647971067,
			"-0.001": 27.5368475931,
			"0.0": 24.096030546,
			"0.001": 24.0615665879,
			"0.002": 24.4304224336,
			"0.003": 26.45561349,
			"0.004": 27.3334143331,
			"0.005": 16.0076384431,
			"0.006": 8.06022246021,
			"0.007": 6.42510890435,
			"0.008": 6.70768631798,
			"0.009": 5.32684960631,
			"0.01": 6.37183161762,
			"0.011": 8.6370760311,
			"0.012": 7.29448536727,
			"0.013": 3.4479732033,
			"0.014": 4.11455676269,
			"0.015": 0.332808536384,
			"0.016": 0.0,
			"0.017": 0.0,
			"0.018": 0.0,
			"0.019": 0.0,
			"0.02": 0.0,
			"0.021": 0.0,
			"0.022": 0.0,
			"0.023": 0.0,
			"0.024": 0.0,
			"0.025": 0.0
		}
	}
}
