{
	 "smiles": "CC1=CC(CCC(O)=O)=CC=C1", 
	 "Tm": 315.65, 
	 "num_atms": 24, 
	 "gaussian": { 
		 "optdone": 1, 
		 "sigma_profile": "yes", 
		 "theory": "DFT", 
		 "functional": "B3LYP", 
		 "basiset": "6-31G**", 
		 "properties": { 
			 "R2extent": 3808.6136, 
			 "electric_dipole_moment_norm": 1.52053576084, 
			 "electric_quadrupole_moment_norm": 13.8687671835, 
			 "total_energy": -538.775340705, 
			 "HOMO_LUMO_gap": 0.2357, 
			 "cosmo_polarized_energy": -9.97, 
			 "cosmo_cavitation_energy": 28.13, 
			 "cosmo_dispersion_energy": -20.05, 
			 "cosmo_repulsion_energy": 1.63, 
			 "cosmo_total_nonelectrostatic_energy": 9.71, 
			 "SMD_solvation_energy": 5.84 
		},
		"coords": [
			{
				"x": -2.8022061324,
				"y": -1.1239492568,
				"z": 2.5326749447,
				"element": "C" 
			},
			{
				"x": -1.5863403584,
				"y": -0.3632430989,
				"z": 2.0562625673,
				"element": "C" 
			},
			{
				"x": -1.7071224844,
				"y": 0.670056925,
				"z": 1.1194168739,
				"element": "C" 
			},
			{
				"x": -0.6005500489,
				"y": 1.4124025053,
				"z": 0.6868945369,
				"element": "C" 
			},
			{
				"x": -0.7597852411,
				"y": 2.4984296585,
				"z": -0.3560019612,
				"element": "C" 
			},
			{
				"x": -0.5963427483,
				"y": 1.9593953565,
				"z": -1.7855284542,
				"element": "C" 
			},
			{
				"x": -0.7533395376,
				"y": 3.0322416686,
				"z": -2.8404848942,
				"element": "C" 
			},
			{
				"x": -0.6013242251,
				"y": 2.5266401697,
				"z": -4.0900462324,
				"element": "O" 
			},
			{
				"x": -0.9855221338,
				"y": 4.2039781704,
				"z": -2.6374753742,
				"element": "O" 
			},
			{
				"x": 0.6590662741,
				"y": 1.1028203518,
				"z": 1.214707843,
				"element": "C" 
			},
			{
				"x": 0.8004789613,
				"y": 0.0738922867,
				"z": 2.1463862596,
				"element": "C" 
			},
			{
				"x": -0.3127566781,
				"y": -0.6554579425,
				"z": 2.5627431044,
				"element": "C" 
			},
			{
				"x": -3.613770539,
				"y": -1.0829396419,
				"z": 1.8001943348,
				"element": "H" 
			},
			{
				"x": -3.1884443329,
				"y": -0.7067857645,
				"z": 3.4712318153,
				"element": "H" 
			},
			{
				"x": -2.5678383795,
				"y": -2.1766217881,
				"z": 2.7199984472,
				"element": "H" 
			},
			{
				"x": -2.6913543871,
				"y": 0.9073849301,
				"z": 0.7188489623,
				"element": "H" 
			},
			{
				"x": -0.0246788812,
				"y": 3.2930291816,
				"z": -0.1922515685,
				"element": "H" 
			},
			{
				"x": -1.7435698326,
				"y": 2.9704181447,
				"z": -0.2671310659,
				"element": "H" 
			},
			{
				"x": -1.3263836625,
				"y": 1.1680390657,
				"z": -1.995073994,
				"element": "H" 
			},
			{
				"x": 0.3860262289,
				"y": 1.4908289124,
				"z": -1.92125413,
				"element": "H" 
			},
			{
				"x": -0.7167565675,
				"y": 3.2758952509,
				"z": -4.6984609307,
				"element": "H" 
			},
			{
				"x": 1.5301104437,
				"y": 1.6711718631,
				"z": 0.8969754659,
				"element": "H" 
			},
			{
				"x": 1.7819252072,
				"y": -0.1594512948,
				"z": 2.5502330951,
				"element": "H" 
			},
			{
				"x": -0.194920945,
				"y": -1.4558756535,
				"z": 3.2892403551,
				"element": "H" 
			}
		],
		 "valence_orbital": [ 
			{
				"type": "occ",
				"energy": -0.33053,
				"method": "rhf"
			},
			{
				"type": "occ",
				"energy": -0.31829,
				"method": "rhf"
			},
			{
				"type": "occ",
				"energy": -0.27618,
				"method": "rhf"
			},
			{
				"type": "occ",
				"energy": -0.24245,
				"method": "rhf"
			},
			{
				"type": "occ",
				"energy": -0.23512,
				"method": "rhf"
			},
			{
				"type": "unocc",
				"energy": 0.00058,
				"method": "rhf"
			},
			{
				"type": "unocc",
				"energy": 0.00096,
				"method": "rhf"
			},
			{
				"type": "unocc",
				"energy": 0.01268,
				"method": "rhf"
			},
			{
				"type": "unocc",
				"energy": 0.08037,
				"method": "rhf"
			},
			{
				"type": "unocc",
				"energy": 0.09286,
				"method": "rhf"
			}
		],
		"cosmo_sigma_profile": { 
			"-0.025": 0.0,
			"-0.024": 0.0,
			"-0.023": 0.0,
			"-0.022": 0.0,
			"-0.021": 0.0,
			"-0.02": 0.0,
			"-0.019": 0.0,
			"-0.018": 0.590525983816,
			"-0.017": 0.861873799562,
			"-0.016": 1.23755439389,
			"-0.015": 0.38002906847,
			"-0.014": 0.903194194653,
			"-0.013": 0.444110329607,
			"-0.012": 0.269517918385,
			"-0.011": 1.08096848751,
			"-0.01": 1.09071107415,
			"-0.009": 0.264801314518,
			"-0.008": 0.679639315354,
			"-0.007": 0.904382497654,
			"-0.006": 4.13513417655,
			"-0.005": 12.7874799098,
			"-0.004": 26.3079869791,
			"-0.003": 24.8332287316,
			"-0.002": 21.7294726461,
			"-0.001": 16.9689489935,
			"0.0": 18.5799354729,
			"0.001": 14.5395207946,
			"0.002": 9.94388638742,
			"0.003": 9.03162191581,
			"0.004": 10.4861999884,
			"0.005": 9.41880030271,
			"0.006": 9.31083847069,
			"0.007": 6.9406663884,
			"0.008": 3.08427248295,
			"0.009": 3.09099110594,
			"0.01": 2.82885071898,
			"0.011": 3.63250169947,
			"0.012": 4.59927400657,
			"0.013": 0.538061149888,
			"0.014": 0.0,
			"0.015": 0.0,
			"0.016": 0.0,
			"0.017": 0.0,
			"0.018": 0.0,
			"0.019": 0.0,
			"0.02": 0.0,
			"0.021": 0.0,
			"0.022": 0.0,
			"0.023": 0.0,
			"0.024": 0.0,
			"0.025": 0.0
		}
	}
}
