{
	 "smiles": "CCN(O)CC", 
	 "Tm": 283.15, 
	 "num_atms": 17, 
	 "gaussian": { 
		 "optdone": 1, 
		 "sigma_profile": "yes", 
		 "theory": "DFT", 
		 "functional": "B3LYP", 
		 "basiset": "6-31G**", 
		 "properties": { 
			 "R2extent": 1583.8366, 
			 "electric_dipole_moment_norm": 0.632900031601, 
			 "electric_quadrupole_moment_norm": 4.89695999882, 
			 "total_energy": -288.976683454, 
			 "HOMO_LUMO_gap": 0.29351, 
			 "cosmo_polarized_energy": -5.31, 
			 "cosmo_cavitation_energy": 18.96, 
			 "cosmo_dispersion_energy": -14.0, 
			 "cosmo_repulsion_energy": 1.22, 
			 "cosmo_total_nonelectrostatic_energy": 6.18, 
			 "SMD_solvation_energy": 2.42 
		},
		"coords": [
			{
				"x": 0.8902467216,
				"y": 0.7058442185,
				"z": 1.381071377,
				"element": "C" 
			},
			{
				"x": 1.5460756052,
				"y": -0.0743505687,
				"z": 0.2347375035,
				"element": "C" 
			},
			{
				"x": 1.8249165947,
				"y": -1.4984294868,
				"z": 0.469228451,
				"element": "N" 
			},
			{
				"x": 2.6871206906,
				"y": -1.5677573261,
				"z": 1.636967437,
				"element": "O" 
			},
			{
				"x": 0.6371203058,
				"y": -2.2978781187,
				"z": 0.7866448318,
				"element": "C" 
			},
			{
				"x": 0.9654638408,
				"y": -3.7878559873,
				"z": 0.8153957706,
				"element": "C" 
			},
			{
				"x": 1.4846812098,
				"y": 0.6110008236,
				"z": 2.293199331,
				"element": "H" 
			},
			{
				"x": 0.8258873646,
				"y": 1.7676353684,
				"z": 1.1210939051,
				"element": "H" 
			},
			{
				"x": -0.1246499059,
				"y": 0.3553218014,
				"z": 1.5926668026,
				"element": "H" 
			},
			{
				"x": 2.5051467244,
				"y": 0.3886667148,
				"z": -0.0219684241,
				"element": "H" 
			},
			{
				"x": 0.9224391049,
				"y": -0.031853561,
				"z": -0.6670825657,
				"element": "H" 
			},
			{
				"x": 3.4980930003,
				"y": -1.943294395,
				"z": 1.269134233,
				"element": "H" 
			},
			{
				"x": 0.1884860092,
				"y": -1.9950695454,
				"z": 1.7455589493,
				"element": "H" 
			},
			{
				"x": -0.0957538525,
				"y": -2.0879390265,
				"z": -0.0021578691,
				"element": "H" 
			},
			{
				"x": 1.3768225725,
				"y": -4.1124091357,
				"z": -0.145612462,
				"element": "H" 
			},
			{
				"x": 1.7019362912,
				"y": -3.9968130213,
				"z": 1.5958368557,
				"element": "H" 
			},
			{
				"x": 0.0676677228,
				"y": -4.3774187543,
				"z": 1.0269858733,
				"element": "H" 
			}
		],
		 "valence_orbital": [ 
			{
				"type": "occ",
				"energy": -0.34957,
				"method": "rhf"
			},
			{
				"type": "occ",
				"energy": -0.34308,
				"method": "rhf"
			},
			{
				"type": "occ",
				"energy": -0.33354,
				"method": "rhf"
			},
			{
				"type": "occ",
				"energy": -0.27883,
				"method": "rhf"
			},
			{
				"type": "occ",
				"energy": -0.21853,
				"method": "rhf"
			},
			{
				"type": "unocc",
				"energy": 0.07498,
				"method": "rhf"
			},
			{
				"type": "unocc",
				"energy": 0.10624,
				"method": "rhf"
			},
			{
				"type": "unocc",
				"energy": 0.12621,
				"method": "rhf"
			},
			{
				"type": "unocc",
				"energy": 0.12834,
				"method": "rhf"
			},
			{
				"type": "unocc",
				"energy": 0.13913,
				"method": "rhf"
			}
		],
		"cosmo_sigma_profile": { 
			"-0.025": 0.0,
			"-0.024": 0.0,
			"-0.023": 0.0,
			"-0.022": 0.0,
			"-0.021": 0.0,
			"-0.02": 0.0,
			"-0.019": 0.0,
			"-0.018": 0.0,
			"-0.017": 0.0,
			"-0.016": 0.0585299372294,
			"-0.015": 0.84503338955,
			"-0.014": 0.920216936984,
			"-0.013": 0.633676346232,
			"-0.012": 0.7593139911,
			"-0.011": 0.723048449904,
			"-0.01": 0.783689326862,
			"-0.009": 0.444604741605,
			"-0.008": 0.854507587767,
			"-0.007": 0.438919933098,
			"-0.006": 0.595417589963,
			"-0.005": 1.16285104297,
			"-0.004": 7.33582144455,
			"-0.003": 13.6581685353,
			"-0.002": 20.8016881727,
			"-0.001": 24.3629989264,
			"0.0": 19.4809069705,
			"0.001": 18.5818686105,
			"0.002": 8.93693199603,
			"0.003": 2.91232061069,
			"0.004": 3.36822014586,
			"0.005": 1.82390913384,
			"0.006": 2.17968307675,
			"0.007": 2.57260389706,
			"0.008": 2.67051933799,
			"0.009": 2.06235422242,
			"0.01": 1.66317070914,
			"0.011": 1.9340082988,
			"0.012": 1.31101511063,
			"0.013": 1.08808243267,
			"0.014": 0.626133734358,
			"0.015": 0.350374573549,
			"0.016": 0.0,
			"0.017": 0.0,
			"0.018": 0.0,
			"0.019": 0.0,
			"0.02": 0.0,
			"0.021": 0.0,
			"0.022": 0.0,
			"0.023": 0.0,
			"0.024": 0.0,
			"0.025": 0.0
		}
	}
}
