{
	 "smiles": "BrCCCCCCCCCCBr", 
	 "Tm": 301.15, 
	 "num_atms": 32, 
	 "gaussian": { 
		 "optdone": 1, 
		 "sigma_profile": "yes", 
		 "theory": "DFT", 
		 "functional": "B3LYP", 
		 "basiset": "6-31G**", 
		 "properties": { 
			 "R2extent": 11302.5243, 
			 "electric_dipole_moment_norm": 3.67092317817, 
			 "electric_quadrupole_moment_norm": 14.6667025759, 
			 "total_energy": -5535.95860413, 
			 "HOMO_LUMO_gap": 0.26775, 
			 "cosmo_polarized_energy": -7.46, 
			 "cosmo_cavitation_energy": 37.37, 
			 "cosmo_dispersion_energy": -26.18, 
			 "cosmo_repulsion_energy": 2.18, 
			 "cosmo_total_nonelectrostatic_energy": 13.38, 
			 "SMD_solvation_energy": 2.61 
		},
		"coords": [
			{
				"x": 3.1903785067,
				"y": 1.8313602485,
				"z": -1.0396693988,
				"element": "Br" 
			},
			{
				"x": 1.2910984765,
				"y": 1.3660050436,
				"z": -0.6932230251,
				"element": "C" 
			},
			{
				"x": 0.8272021718,
				"y": 0.228055233,
				"z": -1.5915834795,
				"element": "C" 
			},
			{
				"x": -0.6739189598,
				"y": -0.1111518895,
				"z": -1.4714281095,
				"element": "C" 
			},
			{
				"x": -1.1443787396,
				"y": -0.7242015486,
				"z": -0.1351266833,
				"element": "C" 
			},
			{
				"x": -1.5496625854,
				"y": 0.2863277994,
				"z": 0.9511165301,
				"element": "C" 
			},
			{
				"x": -2.1697457539,
				"y": -0.3531536819,
				"z": 2.2064675023,
				"element": "C" 
			},
			{
				"x": -1.2447175636,
				"y": -1.2793077919,
				"z": 3.0184142516,
				"element": "C" 
			},
			{
				"x": 0.022795329,
				"y": -0.6251681576,
				"z": 3.5979037502,
				"element": "C" 
			},
			{
				"x": -0.2605402405,
				"y": 0.4957201422,
				"z": 4.6133379976,
				"element": "C" 
			},
			{
				"x": 1.027041104,
				"y": 1.0283795111,
				"z": 5.2239073117,
				"element": "C" 
			},
			{
				"x": 0.677129847,
				"y": 2.4770175324,
				"z": 6.5330047437,
				"element": "Br" 
			},
			{
				"x": 0.7346080079,
				"y": 2.2879842159,
				"z": -0.8651957275,
				"element": "H" 
			},
			{
				"x": 1.2613465489,
				"y": 1.1168166525,
				"z": 0.3658592697,
				"element": "H" 
			},
			{
				"x": 1.4243887479,
				"y": -0.6659079297,
				"z": -1.3761664076,
				"element": "H" 
			},
			{
				"x": 1.0409857505,
				"y": 0.500576272,
				"z": -2.6308821683,
				"element": "H" 
			},
			{
				"x": -1.2732365751,
				"y": 0.7817638674,
				"z": -1.6982923432,
				"element": "H" 
			},
			{
				"x": -0.8913852963,
				"y": -0.8254580133,
				"z": -2.2746568362,
				"element": "H" 
			},
			{
				"x": -2.016986711,
				"y": -1.3598694503,
				"z": -0.3369911261,
				"element": "H" 
			},
			{
				"x": -0.3659880328,
				"y": -1.4010944678,
				"z": 0.2419301703,
				"element": "H" 
			},
			{
				"x": -2.2849149653,
				"y": 0.9800083123,
				"z": 0.5216503094,
				"element": "H" 
			},
			{
				"x": -0.6929360271,
				"y": 0.9076736105,
				"z": 1.2390811541,
				"element": "H" 
			},
			{
				"x": -3.052771548,
				"y": -0.9325946597,
				"z": 1.9046472134,
				"element": "H" 
			},
			{
				"x": -2.5482572698,
				"y": 0.4452438301,
				"z": 2.8567609919,
				"element": "H" 
			},
			{
				"x": -1.8261772938,
				"y": -1.7077541994,
				"z": 3.8455830595,
				"element": "H" 
			},
			{
				"x": -0.9415595736,
				"y": -2.1304994094,
				"z": 2.3963773171,
				"element": "H" 
			},
			{
				"x": 0.6493033297,
				"y": -0.2322459156,
				"z": 2.7856761053,
				"element": "H" 
			},
			{
				"x": 0.6215216722,
				"y": -1.4061384593,
				"z": 4.0851328511,
				"element": "H" 
			},
			{
				"x": -0.9108709246,
				"y": 0.1175766151,
				"z": 5.4110036817,
				"element": "H" 
			},
			{
				"x": -0.7974155733,
				"y": 1.3218254247,
				"z": 4.1355589819,
				"element": "H" 
			},
			{
				"x": 1.6900655077,
				"y": 1.4708262373,
				"z": 4.4796695401,
				"element": "H" 
			},
			{
				"x": 1.5703986336,
				"y": 0.264985026,
				"z": 5.7816325724,
				"element": "H" 
			}
		],
		 "valence_orbital": [ 
			{
				"type": "occ",
				"energy": -0.31461,
				"method": "rhf"
			},
			{
				"type": "occ",
				"energy": -0.27035,
				"method": "rhf"
			},
			{
				"type": "occ",
				"energy": -0.27009,
				"method": "rhf"
			},
			{
				"type": "occ",
				"energy": -0.26876,
				"method": "rhf"
			},
			{
				"type": "occ",
				"energy": -0.26848,
				"method": "rhf"
			},
			{
				"type": "unocc",
				"energy": -0.00073,
				"method": "rhf"
			},
			{
				"type": "unocc",
				"energy": 0.00383,
				"method": "rhf"
			},
			{
				"type": "unocc",
				"energy": 0.05598,
				"method": "rhf"
			},
			{
				"type": "unocc",
				"energy": 0.08581,
				"method": "rhf"
			},
			{
				"type": "unocc",
				"energy": 0.09384,
				"method": "rhf"
			}
		],
		"cosmo_sigma_profile": { 
			"-0.025": 0.0,
			"-0.024": 0.0,
			"-0.023": 0.0,
			"-0.022": 0.0,
			"-0.021": 0.0,
			"-0.02": 0.0,
			"-0.019": 0.0,
			"-0.018": 0.0,
			"-0.017": 0.0,
			"-0.016": 0.0,
			"-0.015": 0.0,
			"-0.014": 0.0,
			"-0.013": 0.0,
			"-0.012": 0.0,
			"-0.011": 0.0,
			"-0.01": 0.0,
			"-0.009": 0.0,
			"-0.008": 0.0,
			"-0.007": 0.916517912253,
			"-0.006": 7.33547064186,
			"-0.005": 10.7270903535,
			"-0.004": 14.4458538357,
			"-0.003": 31.4704830721,
			"-0.002": 47.5657381107,
			"-0.001": 44.0845863888,
			"0.0": 38.9994831716,
			"0.001": 25.1604866121,
			"0.002": 10.9446227035,
			"0.003": 7.5237525824,
			"0.004": 9.57855314562,
			"0.005": 11.8712732168,
			"0.006": 18.9586166969,
			"0.007": 15.8406096844,
			"0.008": 0.0921919357056,
			"0.009": 0.0,
			"0.01": 0.0,
			"0.011": 0.0,
			"0.012": 0.0,
			"0.013": 0.0,
			"0.014": 0.0,
			"0.015": 0.0,
			"0.016": 0.0,
			"0.017": 0.0,
			"0.018": 0.0,
			"0.019": 0.0,
			"0.02": 0.0,
			"0.021": 0.0,
			"0.022": 0.0,
			"0.023": 0.0,
			"0.024": 0.0,
			"0.025": 0.0
		}
	}
}
