{
	 "smiles": "CC(C)C1=C(C=C(C)C(=C1)N=NC1=CC=C(NC(C)=O)C=C1)N=NC1=CC=C(NC(C)=O)C=C1", 
	 "Tm": 557.15, 
	 "num_atms": 62, 
	 "gaussian": { 
		 "optdone": 1, 
		 "sigma_profile": "yes", 
		 "theory": "DFT", 
		 "functional": "B3LYP", 
		 "basiset": "6-31G**", 
		 "properties": { 
			 "R2extent": 28710.8216, 
			 "electric_dipole_moment_norm": 1.32911070269, 
			 "electric_quadrupole_moment_norm": 35.9773890819, 
			 "total_energy": -1486.54754163, 
			 "HOMO_LUMO_gap": 0.11071, 
			 "cosmo_polarized_energy": -27.06, 
			 "cosmo_cavitation_energy": 66.63, 
			 "cosmo_dispersion_energy": -44.61, 
			 "cosmo_repulsion_energy": 3.37, 
			 "cosmo_total_nonelectrostatic_energy": 25.39, 
			 "SMD_solvation_energy": 10.2 
		},
		"coords": [
			{
				"x": -1.2738336275,
				"y": -3.1747246249,
				"z": -4.5139976549,
				"element": "C" 
			},
			{
				"x": -2.0329594299,
				"y": -1.8445540881,
				"z": -4.323301161,
				"element": "C" 
			},
			{
				"x": -1.7002490336,
				"y": -0.8643386301,
				"z": -5.4582137425,
				"element": "C" 
			},
			{
				"x": -1.794911731,
				"y": -1.2655691401,
				"z": -2.9353191629,
				"element": "C" 
			},
			{
				"x": -2.5673575935,
				"y": -1.6985044676,
				"z": -1.8349450632,
				"element": "C" 
			},
			{
				"x": -2.3809243004,
				"y": -1.1319596877,
				"z": -0.5625236408,
				"element": "C" 
			},
			{
				"x": -1.4108029206,
				"y": -0.1678900256,
				"z": -0.2989574281,
				"element": "C" 
			},
			{
				"x": -1.3069799988,
				"y": 0.3872142331,
				"z": 1.0993020806,
				"element": "C" 
			},
			{
				"x": -0.5857318873,
				"y": 0.2275850264,
				"z": -1.3903926099,
				"element": "C" 
			},
			{
				"x": -0.8065903397,
				"y": -0.3239181054,
				"z": -2.6667630377,
				"element": "C" 
			},
			{
				"x": 0.4690275401,
				"y": 1.1602944342,
				"z": -1.3909319228,
				"element": "N" 
			},
			{
				"x": 0.7810874186,
				"y": 1.6863881034,
				"z": -0.2829173212,
				"element": "N" 
			},
			{
				"x": 1.8460165473,
				"y": 2.6127026097,
				"z": -0.3583328662,
				"element": "C" 
			},
			{
				"x": 2.5270821452,
				"y": 2.968942991,
				"z": -1.5374232194,
				"element": "C" 
			},
			{
				"x": 3.5643301656,
				"y": 3.8838173211,
				"z": -1.4904944007,
				"element": "C" 
			},
			{
				"x": 3.9547333613,
				"y": 4.4812502523,
				"z": -0.2729676273,
				"element": "C" 
			},
			{
				"x": 4.9955774652,
				"y": 5.424420577,
				"z": -0.3134210443,
				"element": "N" 
			},
			{
				"x": 5.9951427087,
				"y": 5.7767192518,
				"z": 0.5864722848,
				"element": "C" 
			},
			{
				"x": 6.0781447861,
				"y": 5.0593178866,
				"z": 1.9185736142,
				"element": "C" 
			},
			{
				"x": 6.7944116749,
				"y": 6.643665188,
				"z": 0.2668513917,
				"element": "O" 
			},
			{
				"x": 3.2554511778,
				"y": 4.1473465401,
				"z": 0.8977095329,
				"element": "C" 
			},
			{
				"x": 2.2247091073,
				"y": 3.2141338542,
				"z": 0.8487706442,
				"element": "C" 
			},
			{
				"x": -3.686387146,
				"y": -2.5411648181,
				"z": -2.0957195958,
				"element": "N" 
			},
			{
				"x": -4.0145575703,
				"y": -3.5408617626,
				"z": -1.4173832784,
				"element": "N" 
			},
			{
				"x": -3.1946725786,
				"y": -4.1476955011,
				"z": -0.4155769488,
				"element": "C" 
			},
			{
				"x": -1.8002287329,
				"y": -4.3120957309,
				"z": -0.4861168074,
				"element": "C" 
			},
			{
				"x": -1.1364253236,
				"y": -5.0454772231,
				"z": 0.4866284256,
				"element": "C" 
			},
			{
				"x": -1.8325252517,
				"y": -5.6267035387,
				"z": 1.5637095366,
				"element": "C" 
			},
			{
				"x": -1.0935792019,
				"y": -6.3668565825,
				"z": 2.5023479871,
				"element": "N" 
			},
			{
				"x": -1.235888588,
				"y": -6.5709986129,
				"z": 3.8705544898,
				"element": "C" 
			},
			{
				"x": -2.3880810825,
				"y": -5.9107248066,
				"z": 4.6005768007,
				"element": "C" 
			},
			{
				"x": -0.4130164267,
				"y": -7.2629398365,
				"z": 4.4501059387,
				"element": "O" 
			},
			{
				"x": -3.2308694469,
				"y": -5.4998201329,
				"z": 1.6073670796,
				"element": "C" 
			},
			{
				"x": -3.8956029155,
				"y": -4.7828135396,
				"z": 0.6191597969,
				"element": "C" 
			},
			{
				"x": -0.1912662259,
				"y": -3.0228838391,
				"z": -4.4339601963,
				"element": "H" 
			},
			{
				"x": -1.4830005652,
				"y": -3.5987768715,
				"z": -5.5020931451,
				"element": "H" 
			},
			{
				"x": -1.5691632222,
				"y": -3.9177820782,
				"z": -3.7666547748,
				"element": "H" 
			},
			{
				"x": -3.1044598246,
				"y": -2.0746965454,
				"z": -4.3750845467,
				"element": "H" 
			},
			{
				"x": -0.6242463023,
				"y": -0.6708293476,
				"z": -5.5315143784,
				"element": "H" 
			},
			{
				"x": -2.0181913199,
				"y": -1.2837116918,
				"z": -6.4181220179,
				"element": "H" 
			},
			{
				"x": -2.2083383584,
				"y": 0.09543855,
				"z": -5.3233377524,
				"element": "H" 
			},
			{
				"x": -3.0342514352,
				"y": -1.4489757012,
				"z": 0.2445800225,
				"element": "H" 
			},
			{
				"x": -2.0879036366,
				"y": -0.0447442663,
				"z": 1.7325193281,
				"element": "H" 
			},
			{
				"x": -0.3312714534,
				"y": 0.1751369258,
				"z": 1.5450399361,
				"element": "H" 
			},
			{
				"x": -1.4051857914,
				"y": 1.476243293,
				"z": 1.1074488541,
				"element": "H" 
			},
			{
				"x": -0.1610288326,
				"y": 0.039842724,
				"z": -3.4583530654,
				"element": "H" 
			},
			{
				"x": 2.2298977364,
				"y": 2.5074066331,
				"z": -2.4718655025,
				"element": "H" 
			},
			{
				"x": 4.1002112601,
				"y": 4.1429996027,
				"z": -2.400218084,
				"element": "H" 
			},
			{
				"x": 5.1392923517,
				"y": 5.8891903513,
				"z": -1.2023974366,
				"element": "H" 
			},
			{
				"x": 7.1037322122,
				"y": 5.1609061991,
				"z": 2.2745295268,
				"element": "H" 
			},
			{
				"x": 5.4188325683,
				"y": 5.5371658285,
				"z": 2.6510926883,
				"element": "H" 
			},
			{
				"x": 5.8055543245,
				"y": 4.0037078678,
				"z": 1.8512041447,
				"element": "H" 
			},
			{
				"x": 3.4917994943,
				"y": 4.6315979597,
				"z": 1.836235793,
				"element": "H" 
			},
			{
				"x": 1.6786150432,
				"y": 2.9491542049,
				"z": 1.7485480788,
				"element": "H" 
			},
			{
				"x": -1.2354831057,
				"y": -3.8739002948,
				"z": -1.3001649022,
				"element": "H" 
			},
			{
				"x": -0.0576827701,
				"y": -5.1635283614,
				"z": 0.4271202406,
				"element": "H" 
			},
			{
				"x": -0.2189845929,
				"y": -6.7588171184,
				"z": 2.1732436797,
				"element": "H" 
			},
			{
				"x": -3.2839883371,
				"y": -6.5383159796,
				"z": 4.5452189758,
				"element": "H" 
			},
			{
				"x": -2.1001372292,
				"y": -5.8307733893,
				"z": 5.6491808408,
				"element": "H" 
			},
			{
				"x": -2.6366561634,
				"y": -4.924496015,
				"z": 4.2022503501,
				"element": "H" 
			},
			{
				"x": -3.8034760154,
				"y": -5.9993025322,
				"z": 2.3782298455,
				"element": "H" 
			},
			{
				"x": -4.9788587803,
				"y": -4.7143435221,
				"z": 0.623492427,
				"element": "H" 
			}
		],
		 "valence_orbital": [ 
			{
				"type": "occ",
				"energy": -0.25058,
				"method": "rhf"
			},
			{
				"type": "occ",
				"energy": -0.24265,
				"method": "rhf"
			},
			{
				"type": "occ",
				"energy": -0.22712,
				"method": "rhf"
			},
			{
				"type": "occ",
				"energy": -0.22563,
				"method": "rhf"
			},
			{
				"type": "occ",
				"energy": -0.20567,
				"method": "rhf"
			},
			{
				"type": "unocc",
				"energy": -0.09496,
				"method": "rhf"
			},
			{
				"type": "unocc",
				"energy": -0.06789,
				"method": "rhf"
			},
			{
				"type": "unocc",
				"energy": -0.02664,
				"method": "rhf"
			},
			{
				"type": "unocc",
				"energy": -0.01811,
				"method": "rhf"
			},
			{
				"type": "unocc",
				"energy": -0.01313,
				"method": "rhf"
			}
		],
		"cosmo_sigma_profile": { 
			"-0.025": 0.0,
			"-0.024": 0.0,
			"-0.023": 0.0,
			"-0.022": 0.0,
			"-0.021": 0.0,
			"-0.02": 0.0,
			"-0.019": 0.0,
			"-0.018": 0.0,
			"-0.017": 0.0,
			"-0.016": 0.0,
			"-0.015": 0.348959813694,
			"-0.014": 1.84528900956,
			"-0.013": 2.29000287362,
			"-0.012": 2.25339542066,
			"-0.011": 2.33799271209,
			"-0.01": 2.5781095626,
			"-0.009": 3.15109685227,
			"-0.008": 7.5597430729,
			"-0.007": 13.6697033051,
			"-0.006": 20.4976779579,
			"-0.005": 29.054676776,
			"-0.004": 35.3842512212,
			"-0.003": 42.0480738337,
			"-0.002": 47.4137317373,
			"-0.001": 46.5584823456,
			"0.0": 48.0764188662,
			"0.001": 47.0098382295,
			"0.002": 45.2418884663,
			"0.003": 48.1323023722,
			"0.004": 17.326293616,
			"0.005": 8.06429293343,
			"0.006": 6.41794875537,
			"0.007": 6.00276822314,
			"0.008": 4.57352449136,
			"0.009": 4.04225531547,
			"0.01": 5.31893993699,
			"0.011": 5.67508363893,
			"0.012": 8.08833682793,
			"0.013": 12.6945024489,
			"0.014": 5.14435826192,
			"0.015": 0.254484442108,
			"0.016": 0.0,
			"0.017": 0.0,
			"0.018": 0.0,
			"0.019": 0.0,
			"0.02": 0.0,
			"0.021": 0.0,
			"0.022": 0.0,
			"0.023": 0.0,
			"0.024": 0.0,
			"0.025": 0.0
		}
	}
}
