{
	 "smiles": "CN(C)C1=NC2=C(S1)C=C(S2)C(O)=O", 
	 "Tm": 479.15, 
	 "num_atms": 22, 
	 "gaussian": { 
		 "optdone": 1, 
		 "sigma_profile": "yes", 
		 "theory": "DFT", 
		 "functional": "B3LYP", 
		 "basiset": "6-31G**", 
		 "properties": { 
			 "R2extent": 5274.5049, 
			 "electric_dipole_moment_norm": 8.01540528794, 
			 "electric_quadrupole_moment_norm": 21.8905089664, 
			 "total_energy": -1365.98814043, 
			 "HOMO_LUMO_gap": 0.15257, 
			 "cosmo_polarized_energy": -16.29, 
			 "cosmo_cavitation_energy": 29.48, 
			 "cosmo_dispersion_energy": -22.97, 
			 "cosmo_repulsion_energy": 1.7, 
			 "cosmo_total_nonelectrostatic_energy": 8.21, 
			 "SMD_solvation_energy": 3.96 
		},
		"coords": [
			{
				"x": -0.885829473,
				"y": 2.9303470771,
				"z": -1.0806766013,
				"element": "C" 
			},
			{
				"x": -0.1034734035,
				"y": 2.332835119,
				"z": -0.0104580168,
				"element": "N" 
			},
			{
				"x": -0.1423964578,
				"y": 2.9714937905,
				"z": 1.3027923728,
				"element": "C" 
			},
			{
				"x": 0.3070241891,
				"y": 1.0401666879,
				"z": -0.0905176376,
				"element": "C" 
			},
			{
				"x": 0.8573068562,
				"y": 0.3802900126,
				"z": 0.9059303382,
				"element": "N" 
			},
			{
				"x": 1.1993441983,
				"y": -0.8613244979,
				"z": 0.4771481817,
				"element": "C" 
			},
			{
				"x": 0.9217047786,
				"y": -1.2307138008,
				"z": -0.8344985343,
				"element": "C" 
			},
			{
				"x": 0.1467641538,
				"y": 0.1259534047,
				"z": -1.6332274322,
				"element": "S" 
			},
			{
				"x": 1.3064576438,
				"y": -2.5466570944,
				"z": -1.1634384995,
				"element": "C" 
			},
			{
				"x": 1.889867067,
				"y": -3.1914390598,
				"z": -0.092725566,
				"element": "C" 
			},
			{
				"x": 1.9467863809,
				"y": -2.1672189228,
				"z": 1.3517189719,
				"element": "S" 
			},
			{
				"x": 2.4003244516,
				"y": -4.572951645,
				"z": -0.1519998219,
				"element": "C" 
			},
			{
				"x": 3.1033888623,
				"y": -5.034197777,
				"z": 0.9207462017,
				"element": "O" 
			},
			{
				"x": 2.2149909524,
				"y": -5.295973831,
				"z": -1.1057874022,
				"element": "O" 
			},
			{
				"x": -1.9319234567,
				"y": 2.591915408,
				"z": -1.0781016743,
				"element": "H" 
			},
			{
				"x": -0.4440270242,
				"y": 2.6957657118,
				"z": -2.0538336487,
				"element": "H" 
			},
			{
				"x": -0.8709944094,
				"y": 4.0158586694,
				"z": -0.9622296552,
				"element": "H" 
			},
			{
				"x": -1.1063792783,
				"y": 2.8098607067,
				"z": 1.8045398458,
				"element": "H" 
			},
			{
				"x": 0.0169898506,
				"y": 4.0460370726,
				"z": 1.1794296501,
				"element": "H" 
			},
			{
				"x": 0.647499382,
				"y": 2.553816059,
				"z": 1.9251021313,
				"element": "H" 
			},
			{
				"x": 1.1883862849,
				"y": -3.0368607854,
				"z": -2.1213586499,
				"element": "H" 
			},
			{
				"x": 3.2926884514,
				"y": -4.3270023051,
				"z": 1.5539454463,
				"element": "H" 
			}
		],
		 "valence_orbital": [ 
			{
				"type": "occ",
				"energy": -0.29736,
				"method": "rhf"
			},
			{
				"type": "occ",
				"energy": -0.28663,
				"method": "rhf"
			},
			{
				"type": "occ",
				"energy": -0.26758,
				"method": "rhf"
			},
			{
				"type": "occ",
				"energy": -0.25071,
				"method": "rhf"
			},
			{
				"type": "occ",
				"energy": -0.20765,
				"method": "rhf"
			},
			{
				"type": "unocc",
				"energy": -0.05508,
				"method": "rhf"
			},
			{
				"type": "unocc",
				"energy": -0.01207,
				"method": "rhf"
			},
			{
				"type": "unocc",
				"energy": 0.0049,
				"method": "rhf"
			},
			{
				"type": "unocc",
				"energy": 0.00639,
				"method": "rhf"
			},
			{
				"type": "unocc",
				"energy": 0.05197,
				"method": "rhf"
			}
		],
		"cosmo_sigma_profile": { 
			"-0.025": 0.0,
			"-0.024": 0.0,
			"-0.023": 0.0,
			"-0.022": 0.0,
			"-0.021": 0.0,
			"-0.02": 0.0,
			"-0.019": 0.0,
			"-0.018": 0.311210784256,
			"-0.017": 0.671519022887,
			"-0.016": 0.628002242608,
			"-0.015": 1.2953767109,
			"-0.014": 0.691002013244,
			"-0.013": 1.38133783354,
			"-0.012": 0.836543642147,
			"-0.011": 0.838620806138,
			"-0.01": 0.982343856103,
			"-0.009": 1.29370076529,
			"-0.008": 2.5092460549,
			"-0.007": 6.83405508147,
			"-0.006": 9.90295554382,
			"-0.005": 16.3762703021,
			"-0.004": 20.0514799156,
			"-0.003": 20.9119602861,
			"-0.002": 16.9813461172,
			"-0.001": 13.9714156137,
			"0.0": 15.7126064108,
			"0.001": 22.8478144881,
			"0.002": 22.5470392747,
			"0.003": 15.0786204061,
			"0.004": 7.80442996914,
			"0.005": 4.37927682971,
			"0.006": 3.44327520083,
			"0.007": 3.35888455483,
			"0.008": 4.96004740787,
			"0.009": 3.88093899687,
			"0.01": 4.9725629304,
			"0.011": 5.79850507607,
			"0.012": 5.95515993617,
			"0.013": 2.6658895022,
			"0.014": 0.314345364203,
			"0.015": 0.0,
			"0.016": 0.0,
			"0.017": 0.0,
			"0.018": 0.0,
			"0.019": 0.0,
			"0.02": 0.0,
			"0.021": 0.0,
			"0.022": 0.0,
			"0.023": 0.0,
			"0.024": 0.0,
			"0.025": 0.0
		}
	}
}
