{
	 "smiles": "SC1=NN=NN1C1=CC2=C(OCCO2)C=C1", 
	 "Tm": 417.15, 
	 "num_atms": 24, 
	 "gaussian": { 
		 "optdone": 1, 
		 "sigma_profile": "yes", 
		 "theory": "DFT", 
		 "functional": "B3LYP", 
		 "basiset": "6-31G**", 
		 "properties": { 
			 "R2extent": 5412.7961, 
			 "electric_dipole_moment_norm": 7.19492822688, 
			 "electric_quadrupole_moment_norm": 8.77109986661, 
			 "total_energy": -1115.33321636, 
			 "HOMO_LUMO_gap": 0.19224, 
			 "cosmo_polarized_energy": -15.7, 
			 "cosmo_cavitation_energy": 30.25, 
			 "cosmo_dispersion_energy": -23.08, 
			 "cosmo_repulsion_energy": 1.74, 
			 "cosmo_total_nonelectrostatic_energy": 8.91, 
			 "SMD_solvation_energy": 3.35 
		},
		"coords": [
			{
				"x": 1.607349997,
				"y": 4.1322281758,
				"z": -1.0267685116,
				"element": "S" 
			},
			{
				"x": 2.3922156144,
				"y": 2.9091950632,
				"z": -0.0356392019,
				"element": "C" 
			},
			{
				"x": 3.4946735016,
				"y": 3.0791614628,
				"z": 0.6741234716,
				"element": "N" 
			},
			{
				"x": 3.7594769409,
				"y": 1.8692290192,
				"z": 1.2356879309,
				"element": "N" 
			},
			{
				"x": 2.8776742386,
				"y": 0.9901270285,
				"z": 0.9096674246,
				"element": "N" 
			},
			{
				"x": 1.9791701708,
				"y": 1.6232155523,
				"z": 0.0917590622,
				"element": "N" 
			},
			{
				"x": 0.8820347561,
				"y": 0.9193218025,
				"z": -0.485174216,
				"element": "C" 
			},
			{
				"x": -0.3897022234,
				"y": 1.4936541774,
				"z": -0.4863062283,
				"element": "C" 
			},
			{
				"x": -1.4536243519,
				"y": 0.8001405976,
				"z": -1.0617604437,
				"element": "C" 
			},
			{
				"x": -1.2425304686,
				"y": -0.4731555554,
				"z": -1.6220631305,
				"element": "C" 
			},
			{
				"x": -2.2575160267,
				"y": -1.1824442012,
				"z": -2.2055111218,
				"element": "O" 
			},
			{
				"x": -3.4224299659,
				"y": -0.404734227,
				"z": -2.4934196642,
				"element": "C" 
			},
			{
				"x": -3.7651488009,
				"y": 0.482710211,
				"z": -1.3085747999,
				"element": "C" 
			},
			{
				"x": -2.6901369199,
				"y": 1.3887321022,
				"z": -1.0467688697,
				"element": "O" 
			},
			{
				"x": 0.0308403936,
				"y": -1.0446049395,
				"z": -1.5808727559,
				"element": "C" 
			},
			{
				"x": 1.099076465,
				"y": -0.355330069,
				"z": -1.0174332981,
				"element": "C" 
			},
			{
				"x": 2.5780241033,
				"y": 5.0347830637,
				"z": -0.7855799669,
				"element": "H" 
			},
			{
				"x": -0.5837877175,
				"y": 2.4570529369,
				"z": -0.0286120787,
				"element": "H" 
			},
			{
				"x": -3.2461425421,
				"y": 0.210959414,
				"z": -3.3854513701,
				"element": "H" 
			},
			{
				"x": -4.2243151659,
				"y": -1.116441296,
				"z": -2.7033141742,
				"element": "H" 
			},
			{
				"x": -4.6440339841,
				"y": 1.098428004,
				"z": -1.5132239091,
				"element": "H" 
			},
			{
				"x": -3.9566492011,
				"y": -0.1329767659,
				"z": -0.4197322248,
				"element": "H" 
			},
			{
				"x": 0.1660164607,
				"y": -2.0303239967,
				"z": -2.0130147529,
				"element": "H" 
			},
			{
				"x": 2.091464726,
				"y": -0.7883275603,
				"z": -0.9887171708,
				"element": "H" 
			}
		],
		 "valence_orbital": [ 
			{
				"type": "occ",
				"energy": -0.29397,
				"method": "rhf"
			},
			{
				"type": "occ",
				"energy": -0.2853,
				"method": "rhf"
			},
			{
				"type": "occ",
				"energy": -0.25967,
				"method": "rhf"
			},
			{
				"type": "occ",
				"energy": -0.25427,
				"method": "rhf"
			},
			{
				"type": "occ",
				"energy": -0.22849,
				"method": "rhf"
			},
			{
				"type": "unocc",
				"energy": -0.03625,
				"method": "rhf"
			},
			{
				"type": "unocc",
				"energy": -0.02171,
				"method": "rhf"
			},
			{
				"type": "unocc",
				"energy": 0.00269,
				"method": "rhf"
			},
			{
				"type": "unocc",
				"energy": 0.00905,
				"method": "rhf"
			},
			{
				"type": "unocc",
				"energy": 0.02632,
				"method": "rhf"
			}
		],
		"cosmo_sigma_profile": { 
			"-0.025": 0.0,
			"-0.024": 0.0,
			"-0.023": 0.0,
			"-0.022": 0.0,
			"-0.021": 0.0,
			"-0.02": 0.0,
			"-0.019": 0.0,
			"-0.018": 0.0,
			"-0.017": 0.0,
			"-0.016": 0.0,
			"-0.015": 0.0,
			"-0.014": 0.00379321832954,
			"-0.013": 1.0822462203,
			"-0.012": 1.74184945823,
			"-0.011": 1.71366121228,
			"-0.01": 0.895251088825,
			"-0.009": 1.33652733312,
			"-0.008": 4.08297226554,
			"-0.007": 15.4018650513,
			"-0.006": 19.5212528548,
			"-0.005": 17.2061864216,
			"-0.004": 17.2401869406,
			"-0.003": 12.8858312664,
			"-0.002": 12.5336433687,
			"-0.001": 13.6317929262,
			"0.0": 15.3807354976,
			"0.001": 18.0002109378,
			"0.002": 18.3264550487,
			"0.003": 14.9497945016,
			"0.004": 8.67174270018,
			"0.005": 7.15713703968,
			"0.006": 5.81562784438,
			"0.007": 6.76074750027,
			"0.008": 7.63873178247,
			"0.009": 7.43275611217,
			"0.01": 6.51186547569,
			"0.011": 3.76388946479,
			"0.012": 2.31105200487,
			"0.013": 2.24256207922,
			"0.014": 0.896397469075,
			"0.015": 0.187707237183,
			"0.016": 0.0,
			"0.017": 0.0,
			"0.018": 0.0,
			"0.019": 0.0,
			"0.02": 0.0,
			"0.021": 0.0,
			"0.022": 0.0,
			"0.023": 0.0,
			"0.024": 0.0,
			"0.025": 0.0
		}
	}
}
