{
	 "smiles": "CC1=CC=C(C=C1)C(=O)C1=NOC2C1C(=O)N(C2=O)C1=CC=C(C=C1)C(O)=O", 
	 "Tm": 474.15, 
	 "num_atms": 42, 
	 "gaussian": { 
		 "optdone": 1, 
		 "sigma_profile": "yes", 
		 "theory": "DFT", 
		 "functional": "B3LYP", 
		 "basiset": "6-31G**", 
		 "properties": { 
			 "R2extent": 15400.35, 
			 "electric_dipole_moment_norm": 1.47552438814, 
			 "electric_quadrupole_moment_norm": 32.8953201114, 
			 "total_energy": -1331.38965787, 
			 "HOMO_LUMO_gap": 0.16842, 
			 "cosmo_polarized_energy": -23.82, 
			 "cosmo_cavitation_energy": 48.68, 
			 "cosmo_dispersion_energy": -34.28, 
			 "cosmo_repulsion_energy": 2.56, 
			 "cosmo_total_nonelectrostatic_energy": 16.96, 
			 "SMD_solvation_energy": 10.89 
		},
		"coords": [
			{
				"x": -3.7129676707,
				"y": -6.8695303797,
				"z": 0.7187532864,
				"element": "C" 
			},
			{
				"x": -2.8092194896,
				"y": -5.8960770731,
				"z": 0.0036840424,
				"element": "C" 
			},
			{
				"x": -3.1637736344,
				"y": -4.5489444197,
				"z": -0.1409027843,
				"element": "C" 
			},
			{
				"x": -2.3222505062,
				"y": -3.6433434429,
				"z": -0.7836923388,
				"element": "C" 
			},
			{
				"x": -1.0924387039,
				"y": -4.073291814,
				"z": -1.3061787633,
				"element": "C" 
			},
			{
				"x": -0.7286535652,
				"y": -5.4251084413,
				"z": -1.1602665779,
				"element": "C" 
			},
			{
				"x": -1.5752339433,
				"y": -6.3183718024,
				"z": -0.5208254522,
				"element": "C" 
			},
			{
				"x": -0.1173297517,
				"y": -3.1836041187,
				"z": -1.9856796369,
				"element": "C" 
			},
			{
				"x": 1.0003745284,
				"y": -3.5679772667,
				"z": -2.3149941095,
				"element": "O" 
			},
			{
				"x": -0.4384122061,
				"y": -1.7590321683,
				"z": -2.3317186441,
				"element": "C" 
			},
			{
				"x": -1.6183665856,
				"y": -1.3018774509,
				"z": -2.5564837406,
				"element": "N" 
			},
			{
				"x": -1.5603768362,
				"y": -0.0077912701,
				"z": -3.0398376298,
				"element": "O" 
			},
			{
				"x": -0.1643373222,
				"y": 0.4066412832,
				"z": -3.1715181062,
				"element": "C" 
			},
			{
				"x": 0.6557404089,
				"y": -0.7513656611,
				"z": -2.621696614,
				"element": "C" 
			},
			{
				"x": 1.300434403,
				"y": -0.2155164286,
				"z": -1.3325359155,
				"element": "C" 
			},
			{
				"x": 2.0059635723,
				"y": -0.8308934259,
				"z": -0.5719485497,
				"element": "O" 
			},
			{
				"x": 0.9140638596,
				"y": 1.1350692921,
				"z": -1.1843790948,
				"element": "N" 
			},
			{
				"x": 0.0975258729,
				"y": 1.5910857041,
				"z": -2.235544875,
				"element": "C" 
			},
			{
				"x": -0.3263328601,
				"y": 2.7132582034,
				"z": -2.3762838371,
				"element": "O" 
			},
			{
				"x": 1.3261148728,
				"y": 1.9559842783,
				"z": -0.0863138978,
				"element": "C" 
			},
			{
				"x": 1.7038266451,
				"y": 3.2844439472,
				"z": -0.3154957811,
				"element": "C" 
			},
			{
				"x": 2.0973398998,
				"y": 4.0808243981,
				"z": 0.7555756936,
				"element": "C" 
			},
			{
				"x": 2.123467241,
				"y": 3.5565707777,
				"z": 2.0541066356,
				"element": "C" 
			},
			{
				"x": 1.7473292877,
				"y": 2.2250867123,
				"z": 2.2708142908,
				"element": "C" 
			},
			{
				"x": 1.34576752,
				"y": 1.423392866,
				"z": 1.2091086531,
				"element": "C" 
			},
			{
				"x": 2.5386607943,
				"y": 4.3654996082,
				"z": 3.2309795622,
				"element": "C" 
			},
			{
				"x": 2.8821671509,
				"y": 5.6366282793,
				"z": 2.9062935435,
				"element": "O" 
			},
			{
				"x": 2.5758189123,
				"y": 3.9567803971,
				"z": 4.374531723,
				"element": "O" 
			},
			{
				"x": -3.8048329091,
				"y": -7.808708644,
				"z": 0.1633513961,
				"element": "H" 
			},
			{
				"x": -3.3128992964,
				"y": -7.1200001249,
				"z": 1.7089600926,
				"element": "H" 
			},
			{
				"x": -4.7154851035,
				"y": -6.4576861395,
				"z": 0.8611170036,
				"element": "H" 
			},
			{
				"x": -4.1138054818,
				"y": -4.201950889,
				"z": 0.2565475636,
				"element": "H" 
			},
			{
				"x": -2.6279093828,
				"y": -2.60983334,
				"z": -0.8871474651,
				"element": "H" 
			},
			{
				"x": 0.2259200303,
				"y": -5.7479424268,
				"z": -1.5614256319,
				"element": "H" 
			},
			{
				"x": -1.2813823171,
				"y": -7.3603881304,
				"z": -0.4223951084,
				"element": "H" 
			},
			{
				"x": 0.0038005711,
				"y": 0.6924266318,
				"z": -4.2118949865,
				"element": "H" 
			},
			{
				"x": 1.430132861,
				"y": -1.1736539312,
				"z": -3.2650439106,
				"element": "H" 
			},
			{
				"x": 1.6754234846,
				"y": 3.6927894069,
				"z": -1.3169907282,
				"element": "H" 
			},
			{
				"x": 2.3883085363,
				"y": 5.1106614152,
				"z": 0.5850385387,
				"element": "H" 
			},
			{
				"x": 1.7718028331,
				"y": 1.8345328454,
				"z": 3.2821340643,
				"element": "H" 
			},
			{
				"x": 1.0623356542,
				"y": 0.3929444919,
				"z": 1.378394067,
				"element": "H" 
			},
			{
				"x": 3.1315886265,
				"y": 6.0648682514,
				"z": 3.7416040229,
				"element": "H" 
			}
		],
		 "valence_orbital": [ 
			{
				"type": "occ",
				"energy": -0.2702,
				"method": "rhf"
			},
			{
				"type": "occ",
				"energy": -0.26825,
				"method": "rhf"
			},
			{
				"type": "occ",
				"energy": -0.26304,
				"method": "rhf"
			},
			{
				"type": "occ",
				"energy": -0.26022,
				"method": "rhf"
			},
			{
				"type": "occ",
				"energy": -0.25641,
				"method": "rhf"
			},
			{
				"type": "unocc",
				"energy": -0.08799,
				"method": "rhf"
			},
			{
				"type": "unocc",
				"energy": -0.06416,
				"method": "rhf"
			},
			{
				"type": "unocc",
				"energy": -0.05319,
				"method": "rhf"
			},
			{
				"type": "unocc",
				"energy": -0.02835,
				"method": "rhf"
			},
			{
				"type": "unocc",
				"energy": -0.01921,
				"method": "rhf"
			}
		],
		"cosmo_sigma_profile": { 
			"-0.025": 0.0,
			"-0.024": 0.0,
			"-0.023": 0.0,
			"-0.022": 0.0,
			"-0.021": 0.0,
			"-0.02": 0.0,
			"-0.019": 0.095934768595,
			"-0.018": 0.811055844362,
			"-0.017": 1.08076946207,
			"-0.016": 0.66369466842,
			"-0.015": 0.899178011927,
			"-0.014": 0.628627849176,
			"-0.013": 1.0601536694,
			"-0.012": 1.39152113356,
			"-0.011": 2.98379769467,
			"-0.01": 9.51084129154,
			"-0.009": 6.21265873992,
			"-0.008": 5.98248301052,
			"-0.007": 10.5028920544,
			"-0.006": 18.4844985953,
			"-0.005": 23.9007991441,
			"-0.004": 24.6979095005,
			"-0.003": 24.8057806658,
			"-0.002": 25.1956867186,
			"-0.001": 26.8825580617,
			"0.0": 27.3550505644,
			"0.001": 25.8156856763,
			"0.002": 30.7961034818,
			"0.003": 22.6491886463,
			"0.004": 18.1179420109,
			"0.005": 9.7198114812,
			"0.006": 10.6547089793,
			"0.007": 12.7152456704,
			"0.008": 10.5045369346,
			"0.009": 11.9174044549,
			"0.01": 12.8686040567,
			"0.011": 8.90644426448,
			"0.012": 3.18937840777,
			"0.013": 0.0205176784983,
			"0.014": 0.0,
			"0.015": 0.0,
			"0.016": 0.0,
			"0.017": 0.0,
			"0.018": 0.0,
			"0.019": 0.0,
			"0.02": 0.0,
			"0.021": 0.0,
			"0.022": 0.0,
			"0.023": 0.0,
			"0.024": 0.0,
			"0.025": 0.0
		}
	}
}
