{
	 "smiles": "CCN1C=C(C(O)=O)C(=O)C2=C1C=C(C=C2)C1=CC=NC=C1", 
	 "Tm": 563.15, 
	 "num_atms": 36, 
	 "gaussian": { 
		 "optdone": 1, 
		 "sigma_profile": "yes", 
		 "theory": "DFT", 
		 "functional": "B3LYP", 
		 "basiset": "6-31G**", 
		 "properties": { 
			 "R2extent": 9004.6197, 
			 "electric_dipole_moment_norm": 7.10122758542, 
			 "electric_quadrupole_moment_norm": 36.0971198405, 
			 "total_energy": -991.464699527, 
			 "HOMO_LUMO_gap": 0.15975, 
			 "cosmo_polarized_energy": -23.89, 
			 "cosmo_cavitation_energy": 39.9, 
			 "cosmo_dispersion_energy": -28.66, 
			 "cosmo_repulsion_energy": 2.12, 
			 "cosmo_total_nonelectrostatic_energy": 13.35, 
			 "SMD_solvation_energy": 6.67 
		},
		"coords": [
			{
				"x": -0.2140989052,
				"y": 3.0187828614,
				"z": -1.0027962407,
				"element": "C" 
			},
			{
				"x": -1.014230761,
				"y": 2.093139394,
				"z": -0.0843063652,
				"element": "C" 
			},
			{
				"x": -0.7511056336,
				"y": 0.6613756128,
				"z": -0.3288445174,
				"element": "N" 
			},
			{
				"x": -1.6076886992,
				"y": -0.0276272008,
				"z": -1.1230439163,
				"element": "C" 
			},
			{
				"x": -1.4598855572,
				"y": -1.3434407647,
				"z": -1.4698474696,
				"element": "C" 
			},
			{
				"x": -2.5119639838,
				"y": -1.9445461774,
				"z": -2.3551425047,
				"element": "C" 
			},
			{
				"x": -2.3268894583,
				"y": -3.2289954922,
				"z": -2.6663299529,
				"element": "O" 
			},
			{
				"x": -3.4619401818,
				"y": -1.299334644,
				"z": -2.757269817,
				"element": "O" 
			},
			{
				"x": -0.3264316489,
				"y": -2.0964928715,
				"z": -0.9804509404,
				"element": "C" 
			},
			{
				"x": -0.1336232908,
				"y": -3.3007503783,
				"z": -1.2587847276,
				"element": "O" 
			},
			{
				"x": 0.5998539693,
				"y": -1.345496111,
				"z": -0.11756668,
				"element": "C" 
			},
			{
				"x": 0.3830441914,
				"y": 0.0201603125,
				"z": 0.1887333866,
				"element": "C" 
			},
			{
				"x": 1.3011375491,
				"y": 0.6953199706,
				"z": 1.0151176124,
				"element": "C" 
			},
			{
				"x": 2.4123094366,
				"y": 0.0362687398,
				"z": 1.5423308726,
				"element": "C" 
			},
			{
				"x": 2.6161714995,
				"y": -1.3268770635,
				"z": 1.2346931488,
				"element": "C" 
			},
			{
				"x": 1.7247707319,
				"y": -1.995244404,
				"z": 0.4180727001,
				"element": "C" 
			},
			{
				"x": 3.365584623,
				"y": 0.7628404662,
				"z": 2.4183253004,
				"element": "C" 
			},
			{
				"x": 3.9507874197,
				"y": 0.1429419176,
				"z": 3.5323530578,
				"element": "C" 
			},
			{
				"x": 4.8365092354,
				"y": 0.8674892808,
				"z": 4.3287765014,
				"element": "C" 
			},
			{
				"x": 5.1783004017,
				"y": 2.1415765696,
				"z": 4.0991832779,
				"element": "N" 
			},
			{
				"x": 4.6216705375,
				"y": 2.7302400873,
				"z": 3.0333797736,
				"element": "C" 
			},
			{
				"x": 3.724451223,
				"y": 2.0969244769,
				"z": 2.1747390613,
				"element": "C" 
			},
			{
				"x": 0.8631148292,
				"y": 2.8800049619,
				"z": -0.8789867148,
				"element": "H" 
			},
			{
				"x": -0.462285961,
				"y": 2.8316478582,
				"z": -2.05141312,
				"element": "H" 
			},
			{
				"x": -0.4531916776,
				"y": 4.0621888584,
				"z": -0.7756820651,
				"element": "H" 
			},
			{
				"x": -0.8182326633,
				"y": 2.3060236073,
				"z": 0.9695148989,
				"element": "H" 
			},
			{
				"x": -2.0851863739,
				"y": 2.2433169368,
				"z": -0.2366559615,
				"element": "H" 
			},
			{
				"x": -2.4687051714,
				"y": 0.5134541671,
				"z": -1.5021089324,
				"element": "H" 
			},
			{
				"x": -1.4888752709,
				"y": -3.5395681989,
				"z": -2.2247124634,
				"element": "H" 
			},
			{
				"x": 1.1442819695,
				"y": 1.7338508465,
				"z": 1.2758153203,
				"element": "H" 
			},
			{
				"x": 3.4915008248,
				"y": -1.8389672188,
				"z": 1.620200163,
				"element": "H" 
			},
			{
				"x": 1.8640426494,
				"y": -3.0389355454,
				"z": 0.1574851782,
				"element": "H" 
			},
			{
				"x": 3.7019960648,
				"y": -0.8809131421,
				"z": 3.7924609341,
				"element": "H" 
			},
			{
				"x": 5.2907151123,
				"y": 0.3989345939,
				"z": 5.200037491,
				"element": "H" 
			},
			{
				"x": 4.9124501837,
				"y": 3.7631791577,
				"z": 2.8498060438,
				"element": "H" 
			},
			{
				"x": 3.3349427863,
				"y": 2.6285285356,
				"z": 1.3121176668,
				"element": "H" 
			}
		],
		 "valence_orbital": [ 
			{
				"type": "occ",
				"energy": -0.26867,
				"method": "rhf"
			},
			{
				"type": "occ",
				"energy": -0.26787,
				"method": "rhf"
			},
			{
				"type": "occ",
				"energy": -0.26628,
				"method": "rhf"
			},
			{
				"type": "occ",
				"energy": -0.25615,
				"method": "rhf"
			},
			{
				"type": "occ",
				"energy": -0.24048,
				"method": "rhf"
			},
			{
				"type": "unocc",
				"energy": -0.08073,
				"method": "rhf"
			},
			{
				"type": "unocc",
				"energy": -0.06032,
				"method": "rhf"
			},
			{
				"type": "unocc",
				"energy": -0.02841,
				"method": "rhf"
			},
			{
				"type": "unocc",
				"energy": -0.02539,
				"method": "rhf"
			},
			{
				"type": "unocc",
				"energy": -0.0132,
				"method": "rhf"
			}
		],
		"cosmo_sigma_profile": { 
			"-0.025": 0.0,
			"-0.024": 0.0,
			"-0.023": 0.0,
			"-0.022": 0.0,
			"-0.021": 0.0,
			"-0.02": 0.0,
			"-0.019": 0.0,
			"-0.018": 0.0,
			"-0.017": 0.0,
			"-0.016": 0.0,
			"-0.015": 0.0,
			"-0.014": 0.0,
			"-0.013": 0.0,
			"-0.012": 0.0,
			"-0.011": 0.844300531649,
			"-0.01": 1.80285261435,
			"-0.009": 3.37862785451,
			"-0.008": 4.67213782237,
			"-0.007": 14.4701953997,
			"-0.006": 19.6485818458,
			"-0.005": 25.3334241882,
			"-0.004": 24.8060161421,
			"-0.003": 26.2440120241,
			"-0.002": 25.040634588,
			"-0.001": 26.0771959561,
			"0.0": 24.6708141529,
			"0.001": 23.9441217217,
			"0.002": 26.4051389266,
			"0.003": 9.00812499244,
			"0.004": 6.96003367679,
			"0.005": 5.04894584867,
			"0.006": 4.74694570199,
			"0.007": 4.28192238371,
			"0.008": 5.92203090101,
			"0.009": 5.39964519254,
			"0.01": 5.40661533508,
			"0.011": 7.28925813223,
			"0.012": 8.96907582647,
			"0.013": 4.76998552087,
			"0.014": 2.8904665116,
			"0.015": 1.27217380306,
			"0.016": 0.591509152645,
			"0.017": 0.369291070822,
			"0.018": 0.0,
			"0.019": 0.0,
			"0.02": 0.0,
			"0.021": 0.0,
			"0.022": 0.0,
			"0.023": 0.0,
			"0.024": 0.0,
			"0.025": 0.0
		}
	}
}
