{
	 "smiles": "NC1=C(OC2=CC=CC=C2)C=CC(=C1)C(O)=O", 
	 "Tm": 420.15, 
	 "num_atms": 28, 
	 "gaussian": { 
		 "optdone": 1, 
		 "sigma_profile": "yes", 
		 "theory": "DFT", 
		 "functional": "B3LYP", 
		 "basiset": "6-31G**", 
		 "properties": { 
			 "R2extent": 5658.1079, 
			 "electric_dipole_moment_norm": 5.5034576268, 
			 "electric_quadrupole_moment_norm": 24.3526697048, 
			 "total_energy": -782.440435504, 
			 "HOMO_LUMO_gap": 0.17129, 
			 "cosmo_polarized_energy": -17.96, 
			 "cosmo_cavitation_energy": 32.98, 
			 "cosmo_dispersion_energy": -23.85, 
			 "cosmo_repulsion_energy": 1.86, 
			 "cosmo_total_nonelectrostatic_energy": 10.99, 
			 "SMD_solvation_energy": 6.83 
		},
		"coords": [
			{
				"x": -2.5890221898,
				"y": -2.0201521815,
				"z": -1.4974262943,
				"element": "N" 
			},
			{
				"x": -2.3200674677,
				"y": -1.2204214027,
				"z": -0.3978831277,
				"element": "C" 
			},
			{
				"x": -1.3353935041,
				"y": -0.2096385853,
				"z": -0.4921454808,
				"element": "C" 
			},
			{
				"x": -0.8088182341,
				"y": -0.0173342915,
				"z": -1.7551443361,
				"element": "O" 
			},
			{
				"x": 0.5194183968,
				"y": 0.3413901102,
				"z": -1.9251409015,
				"element": "C" 
			},
			{
				"x": 0.7952851991,
				"y": 1.2644390907,
				"z": -2.9345740402,
				"element": "C" 
			},
			{
				"x": 2.1203558553,
				"y": 1.6066805666,
				"z": -3.2056217281,
				"element": "C" 
			},
			{
				"x": 3.1616927232,
				"y": 1.0379316072,
				"z": -2.4694751759,
				"element": "C" 
			},
			{
				"x": 2.8705021313,
				"y": 0.1151420039,
				"z": -1.4620968582,
				"element": "C" 
			},
			{
				"x": 1.5507702896,
				"y": -0.2431801466,
				"z": -1.1852353853,
				"element": "C" 
			},
			{
				"x": -1.0117524119,
				"y": 0.5876267909,
				"z": 0.6011945457,
				"element": "C" 
			},
			{
				"x": -1.6403633495,
				"y": 0.3778934917,
				"z": 1.8287228273,
				"element": "C" 
			},
			{
				"x": -2.6107646664,
				"y": -0.6264507113,
				"z": 1.9495436374,
				"element": "C" 
			},
			{
				"x": -2.9520596136,
				"y": -1.4022894511,
				"z": 0.8361088737,
				"element": "C" 
			},
			{
				"x": -3.3439310971,
				"y": -0.9013727755,
				"z": 3.2250657561,
				"element": "C" 
			},
			{
				"x": -2.7570536296,
				"y": -0.4587451401,
				"z": 4.3715805749,
				"element": "O" 
			},
			{
				"x": -4.4018053525,
				"y": -1.485410994,
				"z": 3.2783777841,
				"element": "O" 
			},
			{
				"x": -2.3080859638,
				"y": -1.6324738635,
				"z": -2.3864732934,
				"element": "H" 
			},
			{
				"x": -3.4960801542,
				"y": -2.462875715,
				"z": -1.5095767923,
				"element": "H" 
			},
			{
				"x": -0.0288940019,
				"y": 1.6966590567,
				"z": -3.4924093431,
				"element": "H" 
			},
			{
				"x": 2.3362200889,
				"y": 2.324338021,
				"z": -3.9916988708,
				"element": "H" 
			},
			{
				"x": 4.1915166506,
				"y": 1.3092896542,
				"z": -2.6798889515,
				"element": "H" 
			},
			{
				"x": 3.6749792313,
				"y": -0.3384712797,
				"z": -0.8903987707,
				"element": "H" 
			},
			{
				"x": 1.320566491,
				"y": -0.967716475,
				"z": -0.4116508867,
				"element": "H" 
			},
			{
				"x": -0.2770716042,
				"y": 1.3766910194,
				"z": 0.4835196841,
				"element": "H" 
			},
			{
				"x": -1.407601007,
				"y": 1.0429119806,
				"z": 2.6557042609,
				"element": "H" 
			},
			{
				"x": -3.7176124642,
				"y": -2.1628217051,
				"z": 0.9528513273,
				"element": "H" 
			},
			{
				"x": -1.8535303456,
				"y": -0.168338675,
				"z": 4.1848709651,
				"element": "H" 
			}
		],
		 "valence_orbital": [ 
			{
				"type": "occ",
				"energy": -0.26982,
				"method": "rhf"
			},
			{
				"type": "occ",
				"energy": -0.26342,
				"method": "rhf"
			},
			{
				"type": "occ",
				"energy": -0.25899,
				"method": "rhf"
			},
			{
				"type": "occ",
				"energy": -0.23786,
				"method": "rhf"
			},
			{
				"type": "occ",
				"energy": -0.21118,
				"method": "rhf"
			},
			{
				"type": "unocc",
				"energy": -0.03989,
				"method": "rhf"
			},
			{
				"type": "unocc",
				"energy": -0.01728,
				"method": "rhf"
			},
			{
				"type": "unocc",
				"energy": -0.00541,
				"method": "rhf"
			},
			{
				"type": "unocc",
				"energy": -0.00265,
				"method": "rhf"
			},
			{
				"type": "unocc",
				"energy": 0.05956,
				"method": "rhf"
			}
		],
		"cosmo_sigma_profile": { 
			"-0.025": 0.0,
			"-0.024": 0.0,
			"-0.023": 0.0,
			"-0.022": 0.0,
			"-0.021": 0.0,
			"-0.02": 0.0,
			"-0.019": 0.0,
			"-0.018": 0.479889101272,
			"-0.017": 0.676093721606,
			"-0.016": 1.39669234687,
			"-0.015": 0.75156494724,
			"-0.014": 0.811157495964,
			"-0.013": 1.44064231928,
			"-0.012": 3.12967784253,
			"-0.011": 3.85805682575,
			"-0.01": 3.25865166763,
			"-0.009": 3.52665429991,
			"-0.008": 4.04960071531,
			"-0.007": 6.40837311717,
			"-0.006": 14.0625268505,
			"-0.005": 16.1056884137,
			"-0.004": 16.2172996317,
			"-0.003": 15.2688424776,
			"-0.002": 14.1157192008,
			"-0.001": 14.2080750783,
			"0.0": 15.3412360687,
			"0.001": 17.3090679758,
			"0.002": 19.5506554754,
			"0.003": 22.0801850379,
			"0.004": 20.1926634312,
			"0.005": 13.3749032944,
			"0.006": 5.30461674107,
			"0.007": 3.22298773958,
			"0.008": 3.27454943895,
			"0.009": 4.22234352719,
			"0.01": 5.13389065328,
			"0.011": 5.6190859803,
			"0.012": 6.28912963556,
			"0.013": 2.89600497382,
			"0.014": 0.325660285744,
			"0.015": 0.0,
			"0.016": 0.0,
			"0.017": 0.0,
			"0.018": 0.0,
			"0.019": 0.0,
			"0.02": 0.0,
			"0.021": 0.0,
			"0.022": 0.0,
			"0.023": 0.0,
			"0.024": 0.0,
			"0.025": 0.0
		}
	}
}
