{
	 "smiles": "NC1=C(N)N=CC(Cl)=C1", 
	 "Tm": 445.15, 
	 "num_atms": 15, 
	 "gaussian": { 
		 "optdone": 1, 
		 "sigma_profile": "yes", 
		 "theory": "DFT", 
		 "functional": "B3LYP", 
		 "basiset": "6-31G**", 
		 "properties": { 
			 "R2extent": 1660.8884, 
			 "electric_dipole_moment_norm": 3.5940682047, 
			 "electric_quadrupole_moment_norm": 5.16769303074, 
			 "total_energy": -818.602339508, 
			 "HOMO_LUMO_gap": 0.18778, 
			 "cosmo_polarized_energy": -11.8, 
			 "cosmo_cavitation_energy": 20.77, 
			 "cosmo_dispersion_energy": -15.98, 
			 "cosmo_repulsion_energy": 1.32, 
			 "cosmo_total_nonelectrostatic_energy": 6.12, 
			 "SMD_solvation_energy": 1.96 
		},
		"coords": [
			{
				"x": 0.759383774,
				"y": -1.9312591016,
				"z": 1.122549624,
				"element": "N" 
			},
			{
				"x": 0.7236364087,
				"y": -0.6647843185,
				"z": 0.5237409649,
				"element": "C" 
			},
			{
				"x": 1.8531203244,
				"y": -0.2384949576,
				"z": -0.227220545,
				"element": "C" 
			},
			{
				"x": 2.9695504843,
				"y": -1.0767027785,
				"z": -0.2827712781,
				"element": "N" 
			},
			{
				"x": 1.9164369942,
				"y": 0.9420574331,
				"z": -0.8335279412,
				"element": "N" 
			},
			{
				"x": 0.8639204338,
				"y": 1.7716228122,
				"z": -0.7589557861,
				"element": "C" 
			},
			{
				"x": -0.2953164961,
				"y": 1.4212822947,
				"z": -0.0814103935,
				"element": "C" 
			},
			{
				"x": -1.6620813731,
				"y": 2.5252708079,
				"z": -0.0334896569,
				"element": "Cl" 
			},
			{
				"x": -0.3712304169,
				"y": 0.1902036882,
				"z": 0.5786299362,
				"element": "C" 
			},
			{
				"x": 1.65466328,
				"y": -2.1281587623,
				"z": 1.5594016812,
				"element": "H" 
			},
			{
				"x": -0.0006203831,
				"y": -2.1011047576,
				"z": 1.7697839237,
				"element": "H" 
			},
			{
				"x": 3.6598786625,
				"y": -0.7251232791,
				"z": -0.9358736302,
				"element": "H" 
			},
			{
				"x": 2.7369647289,
				"y": -2.0481698643,
				"z": -0.4622652555,
				"element": "H" 
			},
			{
				"x": 0.9484583069,
				"y": 2.7290931137,
				"z": -1.2647190747,
				"element": "H" 
			},
			{
				"x": -1.2630647285,
				"y": -0.0825323304,
				"z": 1.1343274309,
				"element": "H" 
			}
		],
		 "valence_orbital": [ 
			{
				"type": "occ",
				"energy": -0.31287,
				"method": "rhf"
			},
			{
				"type": "occ",
				"energy": -0.29958,
				"method": "rhf"
			},
			{
				"type": "occ",
				"energy": -0.26234,
				"method": "rhf"
			},
			{
				"type": "occ",
				"energy": -0.25291,
				"method": "rhf"
			},
			{
				"type": "occ",
				"energy": -0.20346,
				"method": "rhf"
			},
			{
				"type": "unocc",
				"energy": -0.01568,
				"method": "rhf"
			},
			{
				"type": "unocc",
				"energy": 0.00591,
				"method": "rhf"
			},
			{
				"type": "unocc",
				"energy": 0.03577,
				"method": "rhf"
			},
			{
				"type": "unocc",
				"energy": 0.06623,
				"method": "rhf"
			},
			{
				"type": "unocc",
				"energy": 0.10301,
				"method": "rhf"
			}
		],
		"cosmo_sigma_profile": { 
			"-0.025": 0.0,
			"-0.024": 0.0,
			"-0.023": 0.0,
			"-0.022": 0.0,
			"-0.021": 0.0,
			"-0.02": 0.0,
			"-0.019": 0.0,
			"-0.018": 0.0,
			"-0.017": 0.0,
			"-0.016": 0.0,
			"-0.015": 0.0,
			"-0.014": 0.0189710549817,
			"-0.013": 1.19875796978,
			"-0.012": 3.8547769406,
			"-0.011": 4.56131130432,
			"-0.01": 4.90651063143,
			"-0.009": 5.88881283879,
			"-0.008": 6.32209797699,
			"-0.007": 4.98335456022,
			"-0.006": 5.21415425307,
			"-0.005": 5.50508888716,
			"-0.004": 5.90421577083,
			"-0.003": 5.08818194571,
			"-0.002": 6.1905075474,
			"-0.001": 6.65600630138,
			"0.0": 8.62976008767,
			"0.001": 11.3093671806,
			"0.002": 16.2014024844,
			"0.003": 18.2135332129,
			"0.004": 13.0122575267,
			"0.005": 12.7262560553,
			"0.006": 3.41540108997,
			"0.007": 2.71889678701,
			"0.008": 3.25772429369,
			"0.009": 2.43326208831,
			"0.01": 2.0697607839,
			"0.011": 1.44287978253,
			"0.012": 2.05077833427,
			"0.013": 1.82085174451,
			"0.014": 0.913661233816,
			"0.015": 0.799520574478,
			"0.016": 0.0847431532323,
			"0.017": 0.0,
			"0.018": 0.0,
			"0.019": 0.0,
			"0.02": 0.0,
			"0.021": 0.0,
			"0.022": 0.0,
			"0.023": 0.0,
			"0.024": 0.0,
			"0.025": 0.0
		}
	}
}
