{
	 "smiles": "NC1=C(Br)C=C(Cl)C=C1F", 
	 "Tm": 315.15, 
	 "num_atms": 14, 
	 "gaussian": { 
		 "optdone": 1, 
		 "sigma_profile": "yes", 
		 "theory": "DFT", 
		 "functional": "B3LYP", 
		 "basiset": "6-31G**", 
		 "properties": { 
			 "R2extent": 3050.668, 
			 "electric_dipole_moment_norm": 2.22616043672, 
			 "electric_quadrupole_moment_norm": 6.38609038066, 
			 "total_energy": -3417.23274765, 
			 "HOMO_LUMO_gap": 0.19485, 
			 "cosmo_polarized_energy": -6.08, 
			 "cosmo_cavitation_energy": 22.72, 
			 "cosmo_dispersion_energy": -17.54, 
			 "cosmo_repulsion_energy": 1.4, 
			 "cosmo_total_nonelectrostatic_energy": 6.58, 
			 "SMD_solvation_energy": 2.9 
		},
		"coords": [
			{
				"x": 3.3214802304,
				"y": -0.6754787314,
				"z": 0.7998213945,
				"element": "N" 
			},
			{
				"x": 1.990346571,
				"y": -0.8786488319,
				"z": 0.5009932731,
				"element": "C" 
			},
			{
				"x": 1.1507931261,
				"y": 0.0810423793,
				"z": -0.0884370554,
				"element": "C" 
			},
			{
				"x": 1.8516560879,
				"y": 1.8267966695,
				"z": -0.4289592246,
				"element": "Br" 
			},
			{
				"x": -0.1746083874,
				"y": -0.1893710223,
				"z": -0.4280433384,
				"element": "C" 
			},
			{
				"x": -0.6939661332,
				"y": -1.4546352737,
				"z": -0.1729016837,
				"element": "C" 
			},
			{
				"x": -2.3593828146,
				"y": -1.81197381,
				"z": -0.5958994479,
				"element": "Cl" 
			},
			{
				"x": 0.0925275326,
				"y": -2.4450187499,
				"z": 0.420094534,
				"element": "C" 
			},
			{
				"x": 1.3999341369,
				"y": -2.1331410751,
				"z": 0.738777054,
				"element": "C" 
			},
			{
				"x": 2.1849813057,
				"y": -3.068504914,
				"z": 1.3277082142,
				"element": "F" 
			},
			{
				"x": 3.6088005198,
				"y": 0.2860262785,
				"z": 0.9125773154,
				"element": "H" 
			},
			{
				"x": 3.7163999001,
				"y": -1.3229105029,
				"z": 1.4656287807,
				"element": "H" 
			},
			{
				"x": -0.7875109241,
				"y": 0.5786979946,
				"z": -0.881905567,
				"element": "H" 
			},
			{
				"x": -0.2941511511,
				"y": -3.4336804108,
				"z": 0.634145751,
				"element": "H" 
			}
		],
		 "valence_orbital": [ 
			{
				"type": "occ",
				"energy": -0.3193,
				"method": "rhf"
			},
			{
				"type": "occ",
				"energy": -0.30346,
				"method": "rhf"
			},
			{
				"type": "occ",
				"energy": -0.3027,
				"method": "rhf"
			},
			{
				"type": "occ",
				"energy": -0.25634,
				"method": "rhf"
			},
			{
				"type": "occ",
				"energy": -0.2172,
				"method": "rhf"
			},
			{
				"type": "unocc",
				"energy": -0.02235,
				"method": "rhf"
			},
			{
				"type": "unocc",
				"energy": -0.01517,
				"method": "rhf"
			},
			{
				"type": "unocc",
				"energy": -0.00846,
				"method": "rhf"
			},
			{
				"type": "unocc",
				"energy": 0.04038,
				"method": "rhf"
			},
			{
				"type": "unocc",
				"energy": 0.07744,
				"method": "rhf"
			}
		],
		"cosmo_sigma_profile": { 
			"-0.025": 0.0,
			"-0.024": 0.0,
			"-0.023": 0.0,
			"-0.022": 0.0,
			"-0.021": 0.0,
			"-0.02": 0.0,
			"-0.019": 0.0,
			"-0.018": 0.0,
			"-0.017": 0.0,
			"-0.016": 0.0,
			"-0.015": 0.0,
			"-0.014": 0.0259589596164,
			"-0.013": 0.733767295926,
			"-0.012": 2.05922299375,
			"-0.011": 1.61524753396,
			"-0.01": 2.28322256144,
			"-0.009": 3.00507442931,
			"-0.008": 4.43395000852,
			"-0.007": 4.04927874344,
			"-0.006": 5.43494995204,
			"-0.005": 6.01037357413,
			"-0.004": 6.3627543485,
			"-0.003": 6.86379497719,
			"-0.002": 9.16762699352,
			"-0.001": 12.6613339266,
			"0.0": 18.2110828419,
			"0.001": 23.1942429473,
			"0.002": 27.6510247192,
			"0.003": 21.4541204923,
			"0.004": 21.2679659968,
			"0.005": 7.68390242745,
			"0.006": 0.482518553476,
			"0.007": 0.509284235327,
			"0.008": 0.928223298861,
			"0.009": 0.898155715145,
			"0.01": 0.32041767101,
			"0.011": 0.47606948803,
			"0.012": 0.342548103884,
			"0.013": 0.0260083893893,
			"0.014": 0.0,
			"0.015": 0.0,
			"0.016": 0.0,
			"0.017": 0.0,
			"0.018": 0.0,
			"0.019": 0.0,
			"0.02": 0.0,
			"0.021": 0.0,
			"0.022": 0.0,
			"0.023": 0.0,
			"0.024": 0.0,
			"0.025": 0.0
		}
	}
}
