{
	 "smiles": "OC(=O)CC1=CSC(=N1)C1=CC(Br)=CC=C1", 
	 "Tm": 381.15, 
	 "num_atms": 24, 
	 "gaussian": { 
		 "optdone": 1, 
		 "sigma_profile": "yes", 
		 "theory": "DFT", 
		 "functional": "B3LYP", 
		 "basiset": "6-31G**", 
		 "properties": { 
			 "R2extent": 7675.4476, 
			 "electric_dipole_moment_norm": 4.87163385529, 
			 "electric_quadrupole_moment_norm": 31.4195108509, 
			 "total_energy": -3598.79825989, 
			 "HOMO_LUMO_gap": 0.16226, 
			 "cosmo_polarized_energy": -14.22, 
			 "cosmo_cavitation_energy": 33.05, 
			 "cosmo_dispersion_energy": -24.87, 
			 "cosmo_repulsion_energy": 1.89, 
			 "cosmo_total_nonelectrostatic_energy": 10.07, 
			 "SMD_solvation_energy": 4.95 
		},
		"coords": [
			{
				"x": 0.8000276338,
				"y": -3.4634603169,
				"z": 2.364924757,
				"element": "O" 
			},
			{
				"x": 0.8090893124,
				"y": -3.1882819647,
				"z": 3.679058622,
				"element": "C" 
			},
			{
				"x": 1.4911650656,
				"y": -3.8070663644,
				"z": 4.4595418057,
				"element": "O" 
			},
			{
				"x": -0.1622376098,
				"y": -2.0884389144,
				"z": 4.1504176707,
				"element": "C" 
			},
			{
				"x": -0.3380521552,
				"y": -0.9186125688,
				"z": 3.2216258324,
				"element": "C" 
			},
			{
				"x": -0.2876260747,
				"y": 0.4060222503,
				"z": 3.5553326042,
				"element": "C" 
			},
			{
				"x": -0.5798891724,
				"y": 1.3899675795,
				"z": 2.1609825118,
				"element": "S" 
			},
			{
				"x": -0.7333493073,
				"y": -0.0647646401,
				"z": 1.1877596738,
				"element": "C" 
			},
			{
				"x": -0.5904120857,
				"y": -1.1646671181,
				"z": 1.8883199907,
				"element": "N" 
			},
			{
				"x": -1.0109540985,
				"y": -0.0355734768,
				"z": -0.2541686172,
				"element": "C" 
			},
			{
				"x": -0.8888997534,
				"y": 1.1513482931,
				"z": -0.9949007874,
				"element": "C" 
			},
			{
				"x": -1.1635934121,
				"y": 1.1420413162,
				"z": -2.3583151605,
				"element": "C" 
			},
			{
				"x": -0.9920796553,
				"y": 2.7628913549,
				"z": -3.3528761193,
				"element": "Br" 
			},
			{
				"x": -1.553769009,
				"y": -0.0255468382,
				"z": -3.0130964737,
				"element": "C" 
			},
			{
				"x": -1.670000891,
				"y": -1.2041385678,
				"z": -2.2730518241,
				"element": "C" 
			},
			{
				"x": -1.4048200523,
				"y": -1.2162673014,
				"z": -0.9070563067,
				"element": "C" 
			},
			{
				"x": 0.2298281436,
				"y": -2.8138219701,
				"z": 1.8932189249,
				"element": "H" 
			},
			{
				"x": 0.1742721377,
				"y": -1.7621324267,
				"z": 5.1348458014,
				"element": "H" 
			},
			{
				"x": -1.1342377824,
				"y": -2.5833874454,
				"z": 4.2895815185,
				"element": "H" 
			},
			{
				"x": -0.1014861751,
				"y": 0.8487251669,
				"z": 4.5231664756,
				"element": "H" 
			},
			{
				"x": -0.5699062503,
				"y": 2.0732346998,
				"z": -0.5212942738,
				"element": "H" 
			},
			{
				"x": -1.7608045441,
				"y": -0.0121761911,
				"z": -4.0768283806,
				"element": "H" 
			},
			{
				"x": -1.9749175177,
				"y": -2.1192931193,
				"z": -2.7712108591,
				"element": "H" 
			},
			{
				"x": -1.5059467467,
				"y": -2.1295014364,
				"z": -0.3324773862,
				"element": "H" 
			}
		],
		 "valence_orbital": [ 
			{
				"type": "occ",
				"energy": -0.30056,
				"method": "rhf"
			},
			{
				"type": "occ",
				"energy": -0.29749,
				"method": "rhf"
			},
			{
				"type": "occ",
				"energy": -0.26731,
				"method": "rhf"
			},
			{
				"type": "occ",
				"energy": -0.25944,
				"method": "rhf"
			},
			{
				"type": "occ",
				"energy": -0.24293,
				"method": "rhf"
			},
			{
				"type": "unocc",
				"energy": -0.08067,
				"method": "rhf"
			},
			{
				"type": "unocc",
				"energy": -0.03343,
				"method": "rhf"
			},
			{
				"type": "unocc",
				"energy": -0.0112,
				"method": "rhf"
			},
			{
				"type": "unocc",
				"energy": -0.00566,
				"method": "rhf"
			},
			{
				"type": "unocc",
				"energy": 6e-05,
				"method": "rhf"
			}
		],
		"cosmo_sigma_profile": { 
			"-0.025": 0.0,
			"-0.024": 0.0,
			"-0.023": 0.0,
			"-0.022": 0.0,
			"-0.021": 0.0,
			"-0.02": 0.0,
			"-0.019": 0.0,
			"-0.018": 0.0,
			"-0.017": 0.0,
			"-0.016": 0.0,
			"-0.015": 0.0,
			"-0.014": 0.0,
			"-0.013": 0.0,
			"-0.012": 0.0,
			"-0.011": 0.0,
			"-0.01": 1.32335833933,
			"-0.009": 2.49179068645,
			"-0.008": 7.2267432467,
			"-0.007": 13.0563920333,
			"-0.006": 14.9022965237,
			"-0.005": 15.5065701118,
			"-0.004": 16.4499346327,
			"-0.003": 16.8084491587,
			"-0.002": 16.0399061848,
			"-0.001": 21.8047755727,
			"0.0": 24.4579622143,
			"0.001": 29.1197566975,
			"0.002": 28.697604149,
			"0.003": 14.7028235556,
			"0.004": 13.7964309062,
			"0.005": 5.78638509058,
			"0.006": 1.70537396057,
			"0.007": 2.46590079346,
			"0.008": 2.56485273333,
			"0.009": 2.81266051857,
			"0.01": 4.22161204718,
			"0.011": 5.14166598053,
			"0.012": 6.56812420505,
			"0.013": 3.40038631048,
			"0.014": 0.477050366513,
			"0.015": 0.0,
			"0.016": 0.0,
			"0.017": 0.0,
			"0.018": 0.0,
			"0.019": 0.0,
			"0.02": 0.0,
			"0.021": 0.0,
			"0.022": 0.0,
			"0.023": 0.0,
			"0.024": 0.0,
			"0.025": 0.0
		}
	}
}
