{
	 "smiles": "CS(=O)(=O)C1=CC=C(OCCCBr)C=C1", 
	 "Tm": 367.15, 
	 "num_atms": 28, 
	 "gaussian": { 
		 "optdone": 1, 
		 "sigma_profile": "yes", 
		 "theory": "DFT", 
		 "functional": "B3LYP", 
		 "basiset": "6-31G**", 
		 "properties": { 
			 "R2extent": 8576.6273, 
			 "electric_dipole_moment_norm": 7.16514093441, 
			 "electric_quadrupole_moment_norm": 28.4720308647, 
			 "total_energy": -3584.09534254, 
			 "HOMO_LUMO_gap": 0.21426, 
			 "cosmo_polarized_energy": -20.94, 
			 "cosmo_cavitation_energy": 35.43, 
			 "cosmo_dispersion_energy": -25.97, 
			 "cosmo_repulsion_energy": 2.01, 
			 "cosmo_total_nonelectrostatic_energy": 11.47, 
			 "SMD_solvation_energy": 4.65 
		},
		"coords": [
			{
				"x": 4.091705363,
				"y": -0.8103191892,
				"z": 2.1177385841,
				"element": "C" 
			},
			{
				"x": 4.0814273545,
				"y": -0.4134682613,
				"z": 0.3515960715,
				"element": "S" 
			},
			{
				"x": 4.7342356032,
				"y": -1.5314085742,
				"z": -0.34932344,
				"element": "O" 
			},
			{
				"x": 4.5765740382,
				"y": 0.9655714086,
				"z": 0.2138733232,
				"element": "O" 
			},
			{
				"x": 2.3432125631,
				"y": -0.4267728731,
				"z": -0.0832364761,
				"element": "C" 
			},
			{
				"x": 1.5816105281,
				"y": 0.7405035306,
				"z": 0.0600210535,
				"element": "C" 
			},
			{
				"x": 0.2356883593,
				"y": 0.7231291085,
				"z": -0.2717294064,
				"element": "C" 
			},
			{
				"x": -0.357355463,
				"y": -0.4573532459,
				"z": -0.7540916254,
				"element": "C" 
			},
			{
				"x": -1.6808688325,
				"y": -0.3670007659,
				"z": -1.0422205919,
				"element": "O" 
			},
			{
				"x": -2.3495800778,
				"y": -1.4969035167,
				"z": -1.5932475683,
				"element": "C" 
			},
			{
				"x": -3.8062446545,
				"y": -1.1334318039,
				"z": -1.8610251246,
				"element": "C" 
			},
			{
				"x": -4.0742611332,
				"y": -0.2451826574,
				"z": -3.0714143747,
				"element": "C" 
			},
			{
				"x": -3.6038690556,
				"y": 1.6607055948,
				"z": -2.8145462579,
				"element": "Br" 
			},
			{
				"x": 0.4134347884,
				"y": -1.6189326822,
				"z": -0.9105378492,
				"element": "C" 
			},
			{
				"x": 1.7672584095,
				"y": -1.5970473571,
				"z": -0.5732937583,
				"element": "C" 
			},
			{
				"x": 3.5344177543,
				"y": -0.0462557954,
				"z": 2.6614179693,
				"element": "H" 
			},
			{
				"x": 5.1392868806,
				"y": -0.807948413,
				"z": 2.4260044496,
				"element": "H" 
			},
			{
				"x": 3.6537216899,
				"y": -1.7981821013,
				"z": 2.266634203,
				"element": "H" 
			},
			{
				"x": 2.0545875298,
				"y": 1.6535702396,
				"z": 0.4061051495,
				"element": "H" 
			},
			{
				"x": -0.3817192345,
				"y": 1.6104274945,
				"z": -0.1836809744,
				"element": "H" 
			},
			{
				"x": -2.3057036808,
				"y": -2.3361591786,
				"z": -0.8848898113,
				"element": "H" 
			},
			{
				"x": -1.8536149328,
				"y": -1.8144456851,
				"z": -2.5221908799,
				"element": "H" 
			},
			{
				"x": -4.3397325089,
				"y": -2.0770474584,
				"z": -2.0444230178,
				"element": "H" 
			},
			{
				"x": -4.2438187237,
				"y": -0.6933494835,
				"z": -0.9594431515,
				"element": "H" 
			},
			{
				"x": -5.1359456083,
				"y": -0.2311424551,
				"z": -3.3148677053,
				"element": "H" 
			},
			{
				"x": -3.5112320324,
				"y": -0.5675039264,
				"z": -3.9485335787,
				"element": "H" 
			},
			{
				"x": -0.0221592956,
				"y": -2.5326019525,
				"z": -1.2959574141,
				"element": "H" 
			},
			{
				"x": 2.3820443713,
				"y": -2.4807500005,
				"z": -0.7086377979,
				"element": "H" 
			}
		],
		 "valence_orbital": [ 
			{
				"type": "occ",
				"energy": -0.2814,
				"method": "rhf"
			},
			{
				"type": "occ",
				"energy": -0.27519,
				"method": "rhf"
			},
			{
				"type": "occ",
				"energy": -0.27208,
				"method": "rhf"
			},
			{
				"type": "occ",
				"energy": -0.27132,
				"method": "rhf"
			},
			{
				"type": "occ",
				"energy": -0.24206,
				"method": "rhf"
			},
			{
				"type": "unocc",
				"energy": -0.0278,
				"method": "rhf"
			},
			{
				"type": "unocc",
				"energy": -0.02099,
				"method": "rhf"
			},
			{
				"type": "unocc",
				"energy": -0.00265,
				"method": "rhf"
			},
			{
				"type": "unocc",
				"energy": 0.06839,
				"method": "rhf"
			},
			{
				"type": "unocc",
				"energy": 0.06981,
				"method": "rhf"
			}
		],
		"cosmo_sigma_profile": { 
			"-0.025": 0.0,
			"-0.024": 0.0,
			"-0.023": 0.0,
			"-0.022": 0.0,
			"-0.021": 0.0,
			"-0.02": 0.0,
			"-0.019": 0.0,
			"-0.018": 0.0,
			"-0.017": 0.0,
			"-0.016": 0.0,
			"-0.015": 0.0,
			"-0.014": 0.0,
			"-0.013": 0.0,
			"-0.012": 0.0,
			"-0.011": 0.0,
			"-0.01": 0.0,
			"-0.009": 0.836852761331,
			"-0.008": 6.57037000537,
			"-0.007": 18.2914457485,
			"-0.006": 30.1844181458,
			"-0.005": 27.2631538832,
			"-0.004": 24.6318411611,
			"-0.003": 17.1147246154,
			"-0.002": 12.6805952673,
			"-0.001": 10.8624828341,
			"0.0": 10.8354590953,
			"0.001": 13.533922539,
			"0.002": 18.5505025178,
			"0.003": 18.8869141291,
			"0.004": 8.48380463353,
			"0.005": 9.3373799413,
			"0.006": 12.150315743,
			"0.007": 9.29036982004,
			"0.008": 5.01876452986,
			"0.009": 4.68441452464,
			"0.01": 4.43166487966,
			"0.011": 8.09438940341,
			"0.012": 9.70593297377,
			"0.013": 2.54440847531,
			"0.014": 0.0,
			"0.015": 0.0,
			"0.016": 0.0,
			"0.017": 0.0,
			"0.018": 0.0,
			"0.019": 0.0,
			"0.02": 0.0,
			"0.021": 0.0,
			"0.022": 0.0,
			"0.023": 0.0,
			"0.024": 0.0,
			"0.025": 0.0
		}
	}
}
