{
	 "smiles": "CNS(=O)(=O)C1=C(C=CC=C1)N1CCC(N)CC1", 
	 "Tm": 393.15, 
	 "num_atms": 37, 
	 "gaussian": { 
		 "optdone": 1, 
		 "sigma_profile": "yes", 
		 "theory": "DFT", 
		 "functional": "B3LYP", 
		 "basiset": "6-31G**", 
		 "properties": { 
			 "R2extent": 5559.1625, 
			 "electric_dipole_moment_norm": 5.36685324748, 
			 "electric_quadrupole_moment_norm": 19.1550378747, 
			 "total_energy": -1181.53391071, 
			 "HOMO_LUMO_gap": 0.1926, 
			 "cosmo_polarized_energy": -18.43, 
			 "cosmo_cavitation_energy": 37.64, 
			 "cosmo_dispersion_energy": -26.76, 
			 "cosmo_repulsion_energy": 2.01, 
			 "cosmo_total_nonelectrostatic_energy": 12.89, 
			 "SMD_solvation_energy": 3.64 
		},
		"coords": [
			{
				"x": 3.0362473665,
				"y": 1.3457089884,
				"z": -2.3449920913,
				"element": "C" 
			},
			{
				"x": 1.9550531567,
				"y": 0.3576657836,
				"z": -2.2515040591,
				"element": "N" 
			},
			{
				"x": 2.3397164703,
				"y": -1.1535636681,
				"z": -1.6318652229,
				"element": "S" 
			},
			{
				"x": 1.1467819516,
				"y": -1.988739564,
				"z": -1.7975539433,
				"element": "O" 
			},
			{
				"x": 3.6196998019,
				"y": -1.5505765238,
				"z": -2.2246717546,
				"element": "O" 
			},
			{
				"x": 2.6326646454,
				"y": -0.8919281044,
				"z": 0.1342519616,
				"element": "C" 
			},
			{
				"x": 1.6862567367,
				"y": -0.2439562089,
				"z": 0.9626326298,
				"element": "C" 
			},
			{
				"x": 2.0485563143,
				"y": -0.0236674621,
				"z": 2.2999150215,
				"element": "C" 
			},
			{
				"x": 3.2815704123,
				"y": -0.4461727681,
				"z": 2.7987182085,
				"element": "C" 
			},
			{
				"x": 4.191664545,
				"y": -1.1008718632,
				"z": 1.9712630729,
				"element": "C" 
			},
			{
				"x": 3.864693268,
				"y": -1.3172657793,
				"z": 0.6332145592,
				"element": "C" 
			},
			{
				"x": 0.4271720959,
				"y": 0.1733455998,
				"z": 0.4242268034,
				"element": "N" 
			},
			{
				"x": -0.6173173017,
				"y": -0.880387004,
				"z": 0.4165601907,
				"element": "C" 
			},
			{
				"x": -1.6793631535,
				"y": -0.5512145042,
				"z": -0.6516304288,
				"element": "C" 
			},
			{
				"x": -1.7900185851,
				"y": 0.9711632719,
				"z": -0.9190679164,
				"element": "C" 
			},
			{
				"x": -3.061463684,
				"y": 1.4133687839,
				"z": -1.5009498782,
				"element": "N" 
			},
			{
				"x": -1.5208255404,
				"y": 1.7293827127,
				"z": 0.3845860286,
				"element": "C" 
			},
			{
				"x": -0.1088087138,
				"y": 1.444486491,
				"z": 0.9495881423,
				"element": "C" 
			},
			{
				"x": 3.4174709939,
				"y": 1.6786935829,
				"z": -1.3694770749,
				"element": "H" 
			},
			{
				"x": 3.8566516183,
				"y": 0.9131957893,
				"z": -2.9181292995,
				"element": "H" 
			},
			{
				"x": 2.6499504889,
				"y": 2.2119462181,
				"z": -2.8879265014,
				"element": "H" 
			},
			{
				"x": 1.1375290608,
				"y": 0.6825336077,
				"z": -1.7340508874,
				"element": "H" 
			},
			{
				"x": 1.3537133921,
				"y": 0.473768523,
				"z": 2.966824511,
				"element": "H" 
			},
			{
				"x": 3.5247372387,
				"y": -0.2646984169,
				"z": 3.8418092123,
				"element": "H" 
			},
			{
				"x": 5.151691104,
				"y": -1.4299337789,
				"z": 2.356258921,
				"element": "H" 
			},
			{
				"x": 4.5610983075,
				"y": -1.7970211138,
				"z": -0.0454170495,
				"element": "H" 
			},
			{
				"x": -0.1435542461,
				"y": -1.8360699524,
				"z": 0.1978425601,
				"element": "H" 
			},
			{
				"x": -1.0733416009,
				"y": -0.9527563092,
				"z": 1.4190921773,
				"element": "H" 
			},
			{
				"x": -2.6549733029,
				"y": -0.9209118121,
				"z": -0.3093494801,
				"element": "H" 
			},
			{
				"x": -1.4381887206,
				"y": -1.0748928625,
				"z": -1.5817962959,
				"element": "H" 
			},
			{
				"x": -1.0158161998,
				"y": 1.254388245,
				"z": -1.6439745732,
				"element": "H" 
			},
			{
				"x": -3.2108084539,
				"y": 0.9419036033,
				"z": -2.3909471807,
				"element": "H" 
			},
			{
				"x": -3.8298630964,
				"y": 1.119343881,
				"z": -0.8990170354,
				"element": "H" 
			},
			{
				"x": -2.2808533017,
				"y": 1.4301393474,
				"z": 1.1192389565,
				"element": "H" 
			},
			{
				"x": -1.6509566849,
				"y": 2.80323352,
				"z": 0.2236225349,
				"element": "H" 
			},
			{
				"x": 0.5898557072,
				"y": 2.2400376652,
				"z": 0.666505535,
				"element": "H" 
			},
			{
				"x": -0.1707220903,
				"y": 1.4498220819,
				"z": 2.0489696459,
				"element": "H" 
			}
		],
		 "valence_orbital": [ 
			{
				"type": "occ",
				"energy": -0.28264,
				"method": "rhf"
			},
			{
				"type": "occ",
				"energy": -0.27045,
				"method": "rhf"
			},
			{
				"type": "occ",
				"energy": -0.26017,
				"method": "rhf"
			},
			{
				"type": "occ",
				"energy": -0.23654,
				"method": "rhf"
			},
			{
				"type": "occ",
				"energy": -0.22794,
				"method": "rhf"
			},
			{
				"type": "unocc",
				"energy": -0.03534,
				"method": "rhf"
			},
			{
				"type": "unocc",
				"energy": -0.01863,
				"method": "rhf"
			},
			{
				"type": "unocc",
				"energy": 0.06029,
				"method": "rhf"
			},
			{
				"type": "unocc",
				"energy": 0.06677,
				"method": "rhf"
			},
			{
				"type": "unocc",
				"energy": 0.07998,
				"method": "rhf"
			}
		],
		"cosmo_sigma_profile": { 
			"-0.025": 0.0,
			"-0.024": 0.0,
			"-0.023": 0.0,
			"-0.022": 0.0,
			"-0.021": 0.0,
			"-0.02": 0.0,
			"-0.019": 0.0,
			"-0.018": 0.0,
			"-0.017": 0.0,
			"-0.016": 0.0,
			"-0.015": 0.0,
			"-0.014": 0.0,
			"-0.013": 0.0,
			"-0.012": 0.0,
			"-0.011": 0.0,
			"-0.01": 0.191944216673,
			"-0.009": 2.7148476497,
			"-0.008": 4.18109641099,
			"-0.007": 8.41253735222,
			"-0.006": 15.6851401068,
			"-0.005": 19.639852972,
			"-0.004": 24.7310415848,
			"-0.003": 35.1462612082,
			"-0.002": 35.9346610294,
			"-0.001": 25.1089224934,
			"0.0": 18.1261432601,
			"0.001": 16.3862232923,
			"0.002": 14.0289129381,
			"0.003": 14.1489442046,
			"0.004": 10.2588194241,
			"0.005": 4.34722278707,
			"0.006": 4.63203644747,
			"0.007": 4.6415989386,
			"0.008": 5.05652376853,
			"0.009": 5.64928944246,
			"0.01": 6.51187877378,
			"0.011": 7.85809909134,
			"0.012": 6.43931663984,
			"0.013": 1.322004358,
			"0.014": 0.63877631267,
			"0.015": 0.383811806831,
			"0.016": 0.705312372379,
			"0.017": 0.541546347921,
			"0.018": 0.673405166641,
			"0.019": 0.588374956461,
			"0.02": 0.246101231595,
			"0.021": 0.0,
			"0.022": 0.0,
			"0.023": 0.0,
			"0.024": 0.0,
			"0.025": 0.0
		}
	}
}
