{
	 "smiles": "[O-][N+](=O)C1=CC=C(C=C1)N1N=CC(C(Cl)=O)=C1C(F)(F)F", 
	 "Tm": 351.15, 
	 "num_atms": 26, 
	 "gaussian": { 
		 "optdone": 1, 
		 "sigma_profile": "yes", 
		 "theory": "DFT", 
		 "functional": "B3LYP", 
		 "basiset": "6-31G**", 
		 "properties": { 
			 "R2extent": 9477.6198, 
			 "electric_dipole_moment_norm": 1.03684441456, 
			 "electric_quadrupole_moment_norm": 28.5447359205, 
			 "total_energy": -1571.69399164, 
			 "HOMO_LUMO_gap": 0.17202, 
			 "cosmo_polarized_energy": -12.26, 
			 "cosmo_cavitation_energy": 35.61, 
			 "cosmo_dispersion_energy": -25.02, 
			 "cosmo_repulsion_energy": 1.84, 
			 "cosmo_total_nonelectrostatic_energy": 12.43, 
			 "SMD_solvation_energy": 9.27 
		},
		"coords": [
			{
				"x": 1.4601432079,
				"y": -5.5714945734,
				"z": -0.1305173149,
				"element": "O" 
			},
			{
				"x": 1.9700484835,
				"y": -4.5031921245,
				"z": 0.2019910325,
				"element": "N" 
			},
			{
				"x": 3.121428204,
				"y": -4.3668442944,
				"z": 0.6111863491,
				"element": "O" 
			},
			{
				"x": 1.1368140615,
				"y": -3.2921127818,
				"z": 0.1019064271,
				"element": "C" 
			},
			{
				"x": -0.1741929782,
				"y": -3.4129556832,
				"z": -0.3523424993,
				"element": "C" 
			},
			{
				"x": -0.9634466512,
				"y": -2.2712574018,
				"z": -0.4409676024,
				"element": "C" 
			},
			{
				"x": -0.4183513319,
				"y": -1.0315501241,
				"z": -0.0917942655,
				"element": "C" 
			},
			{
				"x": 0.8967345883,
				"y": -0.9231893693,
				"z": 0.3722810769,
				"element": "C" 
			},
			{
				"x": 1.6836646288,
				"y": -2.0647890581,
				"z": 0.4710809526,
				"element": "C" 
			},
			{
				"x": -1.2166377022,
				"y": 0.1534034879,
				"z": -0.1369047347,
				"element": "N" 
			},
			{
				"x": -1.1234972019,
				"y": 1.0093698582,
				"z": 0.9170129306,
				"element": "N" 
			},
			{
				"x": -1.9824497729,
				"y": 1.9781257785,
				"z": 0.6589075681,
				"element": "C" 
			},
			{
				"x": -2.6743134396,
				"y": 1.7605376859,
				"z": -0.5596999057,
				"element": "C" 
			},
			{
				"x": -3.7260055896,
				"y": 2.683346714,
				"z": -1.0125281989,
				"element": "C" 
			},
			{
				"x": -5.0981479612,
				"y": 1.9213101172,
				"z": -1.913826677,
				"element": "Cl" 
			},
			{
				"x": -3.7639624728,
				"y": 3.8454258963,
				"z": -0.7343336422,
				"element": "O" 
			},
			{
				"x": -2.1339366129,
				"y": 0.5768646514,
				"z": -1.0605727534,
				"element": "C" 
			},
			{
				"x": -2.3173688562,
				"y": -0.0743601397,
				"z": -2.4074776049,
				"element": "C" 
			},
			{
				"x": -3.2621953883,
				"y": -1.0393479822,
				"z": -2.3761731423,
				"element": "F" 
			},
			{
				"x": -1.1711581357,
				"y": -0.6441739245,
				"z": -2.8325679839,
				"element": "F" 
			},
			{
				"x": -2.6775622636,
				"y": 0.8318195768,
				"z": -3.3250406284,
				"element": "F" 
			},
			{
				"x": -0.5610274704,
				"y": -4.3894693964,
				"z": -0.6141064917,
				"element": "H" 
			},
			{
				"x": -1.9919507239,
				"y": -2.3463307401,
				"z": -0.7719500358,
				"element": "H" 
			},
			{
				"x": 1.2840310342,
				"y": 0.0475947235,
				"z": 0.6558551856,
				"element": "H" 
			},
			{
				"x": 2.7068784197,
				"y": -2.0196224932,
				"z": 0.8215553823,
				"element": "H" 
			},
			{
				"x": -2.1200380756,
				"y": 2.7978915973,
				"z": 1.3497265762,
				"element": "H" 
			}
		],
		 "valence_orbital": [ 
			{
				"type": "occ",
				"energy": -0.31205,
				"method": "rhf"
			},
			{
				"type": "occ",
				"energy": -0.30559,
				"method": "rhf"
			},
			{
				"type": "occ",
				"energy": -0.30491,
				"method": "rhf"
			},
			{
				"type": "occ",
				"energy": -0.30077,
				"method": "rhf"
			},
			{
				"type": "occ",
				"energy": -0.28399,
				"method": "rhf"
			},
			{
				"type": "unocc",
				"energy": -0.11197,
				"method": "rhf"
			},
			{
				"type": "unocc",
				"energy": -0.08358,
				"method": "rhf"
			},
			{
				"type": "unocc",
				"energy": -0.05021,
				"method": "rhf"
			},
			{
				"type": "unocc",
				"energy": -0.04173,
				"method": "rhf"
			},
			{
				"type": "unocc",
				"energy": -0.01062,
				"method": "rhf"
			}
		],
		"cosmo_sigma_profile": { 
			"-0.025": 0.0,
			"-0.024": 0.0,
			"-0.023": 0.0,
			"-0.022": 0.0,
			"-0.021": 0.0,
			"-0.02": 0.0,
			"-0.019": 0.0,
			"-0.018": 0.0,
			"-0.017": 0.0,
			"-0.016": 0.0,
			"-0.015": 0.0,
			"-0.014": 0.0,
			"-0.013": 0.0,
			"-0.012": 0.0,
			"-0.011": 0.0395885731917,
			"-0.01": 1.47104052273,
			"-0.009": 3.35725112818,
			"-0.008": 9.61299767325,
			"-0.007": 9.6519798917,
			"-0.006": 13.0085169617,
			"-0.005": 14.5592937898,
			"-0.004": 14.8982104804,
			"-0.003": 18.5689935218,
			"-0.002": 21.9989610673,
			"-0.001": 26.8137929117,
			"0.0": 26.1881793181,
			"0.001": 29.1127126952,
			"0.002": 26.1230268183,
			"0.003": 15.2031076247,
			"0.004": 10.5751246862,
			"0.005": 7.19891905101,
			"0.006": 8.17764139515,
			"0.007": 13.3788755079,
			"0.008": 10.8924179255,
			"0.009": 6.75230024393,
			"0.01": 2.33846275186,
			"0.011": 0.586914535104,
			"0.012": 0.140962489191,
			"0.013": 0.0,
			"0.014": 0.0,
			"0.015": 0.0,
			"0.016": 0.0,
			"0.017": 0.0,
			"0.018": 0.0,
			"0.019": 0.0,
			"0.02": 0.0,
			"0.021": 0.0,
			"0.022": 0.0,
			"0.023": 0.0,
			"0.024": 0.0,
			"0.025": 0.0
		}
	}
}
