{
	 "smiles": "NC1=NC(=NN1)C1=C(F)C=CC=C1F", 
	 "Tm": 492.15, 
	 "num_atms": 20, 
	 "gaussian": { 
		 "optdone": 1, 
		 "sigma_profile": "yes", 
		 "theory": "DFT", 
		 "functional": "B3LYP", 
		 "basiset": "6-31G**", 
		 "properties": { 
			 "R2extent": 3165.1067, 
			 "electric_dipole_moment_norm": 2.75025449186, 
			 "electric_quadrupole_moment_norm": 19.946036754, 
			 "total_energy": -727.130123476, 
			 "HOMO_LUMO_gap": 0.19672, 
			 "cosmo_polarized_energy": -19.19, 
			 "cosmo_cavitation_energy": 26.08, 
			 "cosmo_dispersion_energy": -19.3, 
			 "cosmo_repulsion_energy": 1.5, 
			 "cosmo_total_nonelectrostatic_energy": 8.27, 
			 "SMD_solvation_energy": 2.96 
		},
		"coords": [
			{
				"x": 0.3410139142,
				"y": -2.4813093308,
				"z": -3.011941988,
				"element": "N" 
			},
			{
				"x": 0.1924847853,
				"y": -1.8393474,
				"z": -1.7962592791,
				"element": "C" 
			},
			{
				"x": 1.1261743756,
				"y": -1.1624001957,
				"z": -1.1546921607,
				"element": "N" 
			},
			{
				"x": 0.4533811972,
				"y": -0.6712147869,
				"z": -0.0612398573,
				"element": "C" 
			},
			{
				"x": -0.8264563456,
				"y": -1.0125523795,
				"z": 0.0118032905,
				"element": "N" 
			},
			{
				"x": -0.9805785098,
				"y": -1.7655473529,
				"z": -1.1183619897,
				"element": "N" 
			},
			{
				"x": 1.1054081559,
				"y": 0.1562846192,
				"z": 0.9675039278,
				"element": "C" 
			},
			{
				"x": 2.0862216175,
				"y": 1.107350265,
				"z": 0.6448099452,
				"element": "C" 
			},
			{
				"x": 2.4143851214,
				"y": 1.2928949969,
				"z": -0.644624087,
				"element": "F" 
			},
			{
				"x": 2.7270107525,
				"y": 1.890885872,
				"z": 1.5973906455,
				"element": "C" 
			},
			{
				"x": 2.3853755014,
				"y": 1.735098663,
				"z": 2.9399765922,
				"element": "C" 
			},
			{
				"x": 1.4159204822,
				"y": 0.8063940199,
				"z": 3.3160590055,
				"element": "C" 
			},
			{
				"x": 0.8003615602,
				"y": 0.0407105819,
				"z": 2.3329413791,
				"element": "C" 
			},
			{
				"x": -0.1158876721,
				"y": -0.8618735926,
				"z": 2.7227531043,
				"element": "F" 
			},
			{
				"x": -0.1079785652,
				"y": -3.3859972688,
				"z": -3.0802063533,
				"element": "H" 
			},
			{
				"x": 1.3154479477,
				"y": -2.5243133829,
				"z": -3.2822105131,
				"element": "H" 
			},
			{
				"x": -1.8928134917,
				"y": -2.1142070413,
				"z": -1.3683942048,
				"element": "H" 
			},
			{
				"x": 3.4707352895,
				"y": 2.6088313534,
				"z": 1.2713249212,
				"element": "H" 
			},
			{
				"x": 2.8752050166,
				"y": 2.340679913,
				"z": 3.6958441408,
				"element": "H" 
			},
			{
				"x": 1.131388867,
				"y": 0.657532447,
				"z": 4.3513234808,
				"element": "H" 
			}
		],
		 "valence_orbital": [ 
			{
				"type": "occ",
				"energy": -0.29875,
				"method": "rhf"
			},
			{
				"type": "occ",
				"energy": -0.26943,
				"method": "rhf"
			},
			{
				"type": "occ",
				"energy": -0.25345,
				"method": "rhf"
			},
			{
				"type": "occ",
				"energy": -0.23942,
				"method": "rhf"
			},
			{
				"type": "occ",
				"energy": -0.2196,
				"method": "rhf"
			},
			{
				"type": "unocc",
				"energy": -0.02288,
				"method": "rhf"
			},
			{
				"type": "unocc",
				"energy": 0.00661,
				"method": "rhf"
			},
			{
				"type": "unocc",
				"energy": 0.03342,
				"method": "rhf"
			},
			{
				"type": "unocc",
				"energy": 0.05858,
				"method": "rhf"
			},
			{
				"type": "unocc",
				"energy": 0.07639,
				"method": "rhf"
			}
		],
		"cosmo_sigma_profile": { 
			"-0.025": 0.0,
			"-0.024": 0.0,
			"-0.023": 0.0,
			"-0.022": 0.0,
			"-0.021": 0.0,
			"-0.02": 0.0,
			"-0.019": 0.0,
			"-0.018": 0.0188562588457,
			"-0.017": 1.58975875037,
			"-0.016": 1.7899118547,
			"-0.015": 2.94393989125,
			"-0.014": 3.56785786434,
			"-0.013": 3.22861157992,
			"-0.012": 2.81202673997,
			"-0.011": 3.60389762407,
			"-0.01": 3.3827311862,
			"-0.009": 1.48744001846,
			"-0.008": 3.5229821392,
			"-0.007": 7.85549810819,
			"-0.006": 8.35731783298,
			"-0.005": 7.86621559059,
			"-0.004": 5.88590202167,
			"-0.003": 6.7195233401,
			"-0.002": 6.19449328131,
			"-0.001": 6.47118461097,
			"0.0": 16.7471363122,
			"0.001": 21.2096833028,
			"0.002": 16.6698866839,
			"0.003": 17.4198107567,
			"0.004": 18.4938771954,
			"0.005": 8.35836292162,
			"0.006": 5.71405733169,
			"0.007": 3.65026660026,
			"0.008": 3.21888486449,
			"0.009": 4.50769291263,
			"0.01": 3.48322268429,
			"0.011": 3.43535830079,
			"0.012": 2.59370162351,
			"0.013": 2.64715448247,
			"0.014": 2.22873538207,
			"0.015": 1.48129769296,
			"0.016": 0.407848950991,
			"0.017": 0.0,
			"0.018": 0.0,
			"0.019": 0.0,
			"0.02": 0.0,
			"0.021": 0.0,
			"0.022": 0.0,
			"0.023": 0.0,
			"0.024": 0.0,
			"0.025": 0.0
		}
	}
}
