{
	 "smiles": "OC(=O)C1=C2C=CC=CC2=NC(=C1)C1=CC=C(Cl)S1", 
	 "Tm": 516.15, 
	 "num_atms": 27, 
	 "gaussian": { 
		 "optdone": 1, 
		 "sigma_profile": "yes", 
		 "theory": "DFT", 
		 "functional": "B3LYP", 
		 "basiset": "6-31G**", 
		 "properties": { 
			 "R2extent": 8197.1914, 
			 "electric_dipole_moment_norm": 3.15075475085, 
			 "electric_quadrupole_moment_norm": 8.00532224523, 
			 "total_energy": -1601.89975693, 
			 "HOMO_LUMO_gap": 0.13082, 
			 "cosmo_polarized_energy": -11.55, 
			 "cosmo_cavitation_energy": 35.64, 
			 "cosmo_dispersion_energy": -26.87, 
			 "cosmo_repulsion_energy": 1.99, 
			 "cosmo_total_nonelectrostatic_energy": 10.76, 
			 "SMD_solvation_energy": 5.32 
		},
		"coords": [
			{
				"x": 2.580720783,
				"y": 0.9253017591,
				"z": -2.7859729022,
				"element": "O" 
			},
			{
				"x": 1.4661359774,
				"y": 0.1717106635,
				"z": -2.6496997151,
				"element": "C" 
			},
			{
				"x": 1.0902204296,
				"y": -0.5600532101,
				"z": -3.5440549436,
				"element": "O" 
			},
			{
				"x": 0.7556782722,
				"y": 0.30282631,
				"z": -1.3325176514,
				"element": "C" 
			},
			{
				"x": 1.0905131681,
				"y": 1.191016787,
				"z": -0.2521051014,
				"element": "C" 
			},
			{
				"x": 2.1597084895,
				"y": 2.1271673962,
				"z": -0.2304882019,
				"element": "C" 
			},
			{
				"x": 2.3757945185,
				"y": 2.9289851517,
				"z": 0.8706662887,
				"element": "C" 
			},
			{
				"x": 1.5424401011,
				"y": 2.8448343641,
				"z": 2.0096717896,
				"element": "C" 
			},
			{
				"x": 0.4966681201,
				"y": 1.9532914956,
				"z": 2.0267352014,
				"element": "C" 
			},
			{
				"x": 0.2425430251,
				"y": 1.1120485329,
				"z": 0.9097100713,
				"element": "C" 
			},
			{
				"x": -0.8137607031,
				"y": 0.2638621221,
				"z": 1.0105346104,
				"element": "N" 
			},
			{
				"x": -1.0978620841,
				"y": -0.5390703283,
				"z": -0.0045269923,
				"element": "C" 
			},
			{
				"x": -0.3264059377,
				"y": -0.5408165763,
				"z": -1.1970800274,
				"element": "C" 
			},
			{
				"x": -2.2455796435,
				"y": -1.4288750591,
				"z": 0.1566769205,
				"element": "C" 
			},
			{
				"x": -2.7754814578,
				"y": -2.358106456,
				"z": -0.7109990297,
				"element": "C" 
			},
			{
				"x": -3.9106462774,
				"y": -3.040832811,
				"z": -0.1938882535,
				"element": "C" 
			},
			{
				"x": -4.2237370908,
				"y": -2.6125491345,
				"z": 1.0687150458,
				"element": "C" 
			},
			{
				"x": -5.5286445151,
				"y": -3.1830501113,
				"z": 2.0525965638,
				"element": "Cl" 
			},
			{
				"x": -3.1508575576,
				"y": -1.3745474035,
				"z": 1.6563499607,
				"element": "S" 
			},
			{
				"x": 2.9199885367,
				"y": 0.7280245194,
				"z": -3.67559957,
				"element": "H" 
			},
			{
				"x": 2.8101902151,
				"y": 2.2096378859,
				"z": -1.088443621,
				"element": "H" 
			},
			{
				"x": 3.200160986,
				"y": 3.6360301579,
				"z": 0.8603064552,
				"element": "H" 
			},
			{
				"x": 1.7304239565,
				"y": 3.4851029137,
				"z": 2.8664576607,
				"element": "H" 
			},
			{
				"x": -0.167355518,
				"y": 1.8580637032,
				"z": 2.8791609403,
				"element": "H" 
			},
			{
				"x": -0.5689442411,
				"y": -1.2009776988,
				"z": -2.0203400027,
				"element": "H" 
			},
			{
				"x": -2.3693226474,
				"y": -2.5541802181,
				"z": -1.696505112,
				"element": "H" 
			},
			{
				"x": -4.4651889054,
				"y": -3.8050447555,
				"z": -0.723760384,
				"element": "H" 
			}
		],
		 "valence_orbital": [ 
			{
				"type": "occ",
				"energy": -0.27353,
				"method": "rhf"
			},
			{
				"type": "occ",
				"energy": -0.2708,
				"method": "rhf"
			},
			{
				"type": "occ",
				"energy": -0.26338,
				"method": "rhf"
			},
			{
				"type": "occ",
				"energy": -0.24466,
				"method": "rhf"
			},
			{
				"type": "occ",
				"energy": -0.21865,
				"method": "rhf"
			},
			{
				"type": "unocc",
				"energy": -0.08783,
				"method": "rhf"
			},
			{
				"type": "unocc",
				"energy": -0.04958,
				"method": "rhf"
			},
			{
				"type": "unocc",
				"energy": -0.01311,
				"method": "rhf"
			},
			{
				"type": "unocc",
				"energy": -0.00223,
				"method": "rhf"
			},
			{
				"type": "unocc",
				"energy": 0.01864,
				"method": "rhf"
			}
		],
		"cosmo_sigma_profile": { 
			"-0.025": 0.0,
			"-0.024": 0.0,
			"-0.023": 0.0,
			"-0.022": 0.0,
			"-0.021": 0.0,
			"-0.02": 0.0,
			"-0.019": 0.417088414249,
			"-0.018": 0.793911287801,
			"-0.017": 1.10341902406,
			"-0.016": 0.673674792185,
			"-0.015": 0.983824535118,
			"-0.014": 0.441632445336,
			"-0.013": 0.537384495165,
			"-0.012": 0.558533385741,
			"-0.011": 1.15021124438,
			"-0.01": 1.16261011628,
			"-0.009": 2.45900402346,
			"-0.008": 5.21419758996,
			"-0.007": 5.78166666916,
			"-0.006": 10.9257510873,
			"-0.005": 11.7625811929,
			"-0.004": 14.4125926466,
			"-0.003": 14.7326875547,
			"-0.002": 16.8337002661,
			"-0.001": 23.5928230015,
			"0.0": 28.8420923756,
			"0.001": 31.2112729179,
			"0.002": 38.5274802451,
			"0.003": 37.5441944398,
			"0.004": 17.8371626988,
			"0.005": 4.03526352706,
			"0.006": 3.40960002176,
			"0.007": 3.10653014038,
			"0.008": 2.83814835668,
			"0.009": 3.48895176441,
			"0.01": 3.16406471467,
			"0.011": 4.54546553462,
			"0.012": 0.56493073726,
			"0.013": 0.0,
			"0.014": 0.0,
			"0.015": 0.0,
			"0.016": 0.0,
			"0.017": 0.0,
			"0.018": 0.0,
			"0.019": 0.0,
			"0.02": 0.0,
			"0.021": 0.0,
			"0.022": 0.0,
			"0.023": 0.0,
			"0.024": 0.0,
			"0.0": 0.0
		}
	}
}
