{
	 "smiles": "COC1=CC=C(C=C1)C(=O)C1=NOC2C1C(=O)N(C2=O)C1=CC=C(Br)C=C1", 
	 "Tm": 397.15, 
	 "num_atms": 40, 
	 "gaussian": { 
		 "optdone": 1, 
		 "sigma_profile": "yes", 
		 "theory": "DFT", 
		 "functional": "B3LYP", 
		 "basiset": "6-31G**", 
		 "properties": { 
			 "R2extent": 19119.8034, 
			 "electric_dipole_moment_norm": 3.01856076633, 
			 "electric_quadrupole_moment_norm": 25.6312472634, 
			 "total_energy": -3788.82353717, 
			 "HOMO_LUMO_gap": 0.15417, 
			 "cosmo_polarized_energy": -20.7, 
			 "cosmo_cavitation_energy": 48.52, 
			 "cosmo_dispersion_energy": -34.87, 
			 "cosmo_repulsion_energy": 2.61, 
			 "cosmo_total_nonelectrostatic_energy": 16.26, 
			 "SMD_solvation_energy": 9.2 
		},
		"coords": [
			{
				"x": 6.101026958,
				"y": 2.2637759492,
				"z": 3.1783670132,
				"element": "C" 
			},
			{
				"x": 5.8519100456,
				"y": 2.8533582592,
				"z": 1.9077046276,
				"element": "O" 
			},
			{
				"x": 4.6006874367,
				"y": 2.7840092198,
				"z": 1.3913352988,
				"element": "C" 
			},
			{
				"x": 4.4282551239,
				"y": 3.3910227555,
				"z": 0.132493044,
				"element": "C" 
			},
			{
				"x": 3.1899579631,
				"y": 3.3725353879,
				"z": -0.4783397577,
				"element": "C" 
			},
			{
				"x": 2.0821533113,
				"y": 2.756894496,
				"z": 0.1434293579,
				"element": "C" 
			},
			{
				"x": 2.2673742344,
				"y": 2.1507586843,
				"z": 1.3952217373,
				"element": "C" 
			},
			{
				"x": 3.5125591785,
				"y": 2.1617536244,
				"z": 2.0199186775,
				"element": "C" 
			},
			{
				"x": 0.8017076957,
				"y": 2.7706648202,
				"z": -0.5952330745,
				"element": "C" 
			},
			{
				"x": 0.7031588114,
				"y": 3.2191008166,
				"z": -1.7346795654,
				"element": "O" 
			},
			{
				"x": -0.4748375426,
				"y": 2.25270881,
				"z": 0.0036406743,
				"element": "C" 
			},
			{
				"x": -0.7476937457,
				"y": 2.2280043234,
				"z": 1.2590321769,
				"element": "N" 
			},
			{
				"x": -2.07159144,
				"y": 1.8799960592,
				"z": 1.4680589408,
				"element": "O" 
			},
			{
				"x": -2.7403282979,
				"y": 1.692794939,
				"z": 0.1809484881,
				"element": "C" 
			},
			{
				"x": -1.651725587,
				"y": 1.8658055726,
				"z": -0.8682685268,
				"element": "C" 
			},
			{
				"x": -1.4729577423,
				"y": 0.4744797995,
				"z": -1.4987430517,
				"element": "C" 
			},
			{
				"x": -0.6823849111,
				"y": 0.1700635222,
				"z": -2.3581713842,
				"element": "O" 
			},
			{
				"x": -2.4019707354,
				"y": -0.3977007058,
				"z": -0.8923336797,
				"element": "N" 
			},
			{
				"x": -3.2062971456,
				"y": 0.2384311405,
				"z": 0.0695110527,
				"element": "C" 
			},
			{
				"x": -4.0974804943,
				"y": -0.2729839269,
				"z": 0.7052884634,
				"element": "O" 
			},
			{
				"x": -2.519224755,
				"y": -1.7850994645,
				"z": -1.2262205339,
				"element": "C" 
			},
			{
				"x": -2.7301316657,
				"y": -2.7269579846,
				"z": -0.2135074287,
				"element": "C" 
			},
			{
				"x": -2.8499535483,
				"y": -4.0772060303,
				"z": -0.5351148519,
				"element": "C" 
			},
			{
				"x": -2.7492723028,
				"y": -4.4773474819,
				"z": -1.8662639037,
				"element": "C" 
			},
			{
				"x": -2.9072201358,
				"y": -6.3280597555,
				"z": -2.3061702372,
				"element": "Br" 
			},
			{
				"x": -2.5351498769,
				"y": -3.546306015,
				"z": -2.8807999107,
				"element": "C" 
			},
			{
				"x": -2.4243259411,
				"y": -2.1948185658,
				"z": -2.5603974814,
				"element": "C" 
			},
			{
				"x": 7.1561203567,
				"y": 2.4423464412,
				"z": 3.3884636211,
				"element": "H" 
			},
			{
				"x": 5.9119767335,
				"y": 1.1835891139,
				"z": 3.163609974,
				"element": "H" 
			},
			{
				"x": 5.4911236781,
				"y": 2.7280412871,
				"z": 3.9627023745,
				"element": "H" 
			},
			{
				"x": 5.2855101896,
				"y": 3.8639885457,
				"z": -0.334757697,
				"element": "H" 
			},
			{
				"x": 3.0438577912,
				"y": 3.8320354335,
				"z": -1.4497390342,
				"element": "H" 
			},
			{
				"x": 1.4343475269,
				"y": 1.673177624,
				"z": 1.895573866,
				"element": "H" 
			},
			{
				"x": 3.6245511236,
				"y": 1.6853368991,
				"z": 2.986165584,
				"element": "H" 
			},
			{
				"x": -3.5911752129,
				"y": 2.3759447023,
				"z": 0.1411268145,
				"element": "H" 
			},
			{
				"x": -1.8226741909,
				"y": 2.6010082326,
				"z": -1.6572074176,
				"element": "H" 
			},
			{
				"x": -2.8154055872,
				"y": -2.4095289076,
				"z": 0.8177615476,
				"element": "H" 
			},
			{
				"x": -3.0173944311,
				"y": -4.8101237482,
				"z": 0.2453557892,
				"element": "H" 
			},
			{
				"x": -2.4578347093,
				"y": -3.8693119776,
				"z": -3.9123198325,
				"element": "H" 
			},
			{
				"x": -2.2492481594,
				"y": -1.4688818954,
				"z": -3.3436417545,
				"element": "H" 
			}
		],
		 "valence_orbital": [ 
			{
				"type": "occ",
				"energy": -0.26933,
				"method": "rhf"
			},
			{
				"type": "occ",
				"energy": -0.26738,
				"method": "rhf"
			},
			{
				"type": "occ",
				"energy": -0.26415,
				"method": "rhf"
			},
			{
				"type": "occ",
				"energy": -0.24465,
				"method": "rhf"
			},
			{
				"type": "occ",
				"energy": -0.23712,
				"method": "rhf"
			},
			{
				"type": "unocc",
				"energy": -0.08295,
				"method": "rhf"
			},
			{
				"type": "unocc",
				"energy": -0.05142,
				"method": "rhf"
			},
			{
				"type": "unocc",
				"energy": -0.04147,
				"method": "rhf"
			},
			{
				"type": "unocc",
				"energy": -0.02282,
				"method": "rhf"
			},
			{
				"type": "unocc",
				"energy": -0.02063,
				"method": "rhf"
			}
		],
		"cosmo_sigma_profile": { 
			"-0.025": 0.0,
			"-0.024": 0.0,
			"-0.023": 0.0,
			"-0.022": 0.0,
			"-0.021": 0.0,
			"-0.02": 0.0,
			"-0.019": 0.0,
			"-0.018": 0.0,
			"-0.017": 0.0,
			"-0.016": 0.0,
			"-0.015": 0.0,
			"-0.014": 0.0,
			"-0.013": 0.0849332351188,
			"-0.012": 0.790497752158,
			"-0.011": 2.1660819074,
			"-0.01": 8.04836214164,
			"-0.009": 6.12960555218,
			"-0.008": 6.8379428657,
			"-0.007": 15.62535433,
			"-0.006": 26.5830737847,
			"-0.005": 25.4601358474,
			"-0.004": 25.9289860302,
			"-0.003": 23.1723846512,
			"-0.002": 19.5965714162,
			"-0.001": 17.9275015799,
			"0.0": 21.4387426647,
			"0.001": 29.0646291347,
			"0.002": 38.9179503971,
			"0.003": 33.3565038656,
			"0.004": 21.98580872,
			"0.005": 11.3000987287,
			"0.006": 9.03354379246,
			"0.007": 10.7727755087,
			"0.008": 11.0883102283,
			"0.009": 10.4490451442,
			"0.01": 11.5906999369,
			"0.011": 6.08896093384,
			"0.012": 0.374068177983,
			"0.013": 0.0,
			"0.014": 0.0,
			"0.015": 0.0,
			"0.016": 0.0,
			"0.017": 0.0,
			"0.018": 0.0,
			"0.019": 0.0,
			"0.02": 0.0,
			"0.021": 0.0,
			"0.022": 0.0,
			"0.023": 0.0,
			"0.024": 0.0,
			"0.025": 0.0
		}
	}
}
