{
	 "smiles": "CC1(NC(=O)NC1=O)C1=CC=C(C=C1)C(N)=O", 
	 "Tm": 437.15, 
	 "num_atms": 28, 
	 "gaussian": { 
		 "optdone": 1, 
		 "sigma_profile": "yes", 
		 "theory": "DFT", 
		 "functional": "B3LYP", 
		 "basiset": "6-31G**", 
		 "properties": { 
			 "R2extent": 5216.2512, 
			 "electric_dipole_moment_norm": 4.66058492574, 
			 "electric_quadrupole_moment_norm": 11.9138685648, 
			 "total_energy": -815.789169487, 
			 "HOMO_LUMO_gap": 0.20436, 
			 "cosmo_polarized_energy": -25.63, 
			 "cosmo_cavitation_energy": 32.65, 
			 "cosmo_dispersion_energy": -23.34, 
			 "cosmo_repulsion_energy": 1.82, 
			 "cosmo_total_nonelectrostatic_energy": 11.12, 
			 "SMD_solvation_energy": 8.04 
		},
		"coords": [
			{
				"x": -0.4773248006,
				"y": 3.2491588676,
				"z": 1.7671624199,
				"element": "C" 
			},
			{
				"x": 0.3910458801,
				"y": 1.9819842359,
				"z": 1.6164507066,
				"element": "C" 
			},
			{
				"x": 0.680007953,
				"y": 1.3733593691,
				"z": 2.9129774036,
				"element": "N" 
			},
			{
				"x": 1.9988834387,
				"y": 1.4631965724,
				"z": 3.2894486618,
				"element": "C" 
			},
			{
				"x": 2.5082326922,
				"y": 1.1442167496,
				"z": 4.3417727878,
				"element": "O" 
			},
			{
				"x": 2.6666088708,
				"y": 2.0202986947,
				"z": 2.1781566429,
				"element": "N" 
			},
			{
				"x": 1.8196737047,
				"y": 2.3968463642,
				"z": 1.1621512726,
				"element": "C" 
			},
			{
				"x": 2.1154569681,
				"y": 2.9613485396,
				"z": 0.1303104196,
				"element": "O" 
			},
			{
				"x": -0.2288965495,
				"y": 0.9996429812,
				"z": 0.6151713617,
				"element": "C" 
			},
			{
				"x": -0.4127082659,
				"y": 1.38910269,
				"z": -0.7200922382,
				"element": "C" 
			},
			{
				"x": -1.0052049779,
				"y": 0.5215729127,
				"z": -1.634147359,
				"element": "C" 
			},
			{
				"x": -1.434866792,
				"y": -0.752087867,
				"z": -1.2357646929,
				"element": "C" 
			},
			{
				"x": -1.2262599962,
				"y": -1.1485369161,
				"z": 0.0892131494,
				"element": "C" 
			},
			{
				"x": -0.6312437293,
				"y": -0.2835114247,
				"z": 1.0042944369,
				"element": "C" 
			},
			{
				"x": -2.0862566375,
				"y": -1.7416460208,
				"z": -2.1609521939,
				"element": "C" 
			},
			{
				"x": -2.5763398008,
				"y": -1.2405214386,
				"z": -3.3432605189,
				"element": "N" 
			},
			{
				"x": -2.1593719261,
				"y": -2.9330664703,
				"z": -1.886113033,
				"element": "O" 
			},
			{
				"x": -0.5717126201,
				"y": 3.7615262656,
				"z": 0.8078931068,
				"element": "H" 
			},
			{
				"x": -0.026877222,
				"y": 3.938351191,
				"z": 2.4877191349,
				"element": "H" 
			},
			{
				"x": -1.4787025879,
				"y": 2.9773619532,
				"z": 2.1146821459,
				"element": "H" 
			},
			{
				"x": -0.0199006912,
				"y": 1.2207145957,
				"z": 3.6233287199,
				"element": "H" 
			},
			{
				"x": 3.6632963501,
				"y": 2.1845861372,
				"z": 2.176036439,
				"element": "H" 
			},
			{
				"x": -0.0522160307,
				"y": 2.3561368413,
				"z": -1.0523847552,
				"element": "H" 
			},
			{
				"x": -1.0943000624,
				"y": 0.8344278169,
				"z": -2.6703996104,
				"element": "H" 
			},
			{
				"x": -1.5341303539,
				"y": -2.1469089886,
				"z": 0.3808994622,
				"element": "H" 
			},
			{
				"x": -0.4653777006,
				"y": -0.6140273197,
				"z": 2.0236759984,
				"element": "H" 
			},
			{
				"x": -2.808584761,
				"y": -0.2638729255,
				"z": -3.4311159998,
				"element": "H" 
			},
			{
				"x": -3.111830352,
				"y": -1.8911534064,
				"z": -3.8997138686,
				"element": "H" 
			}
		],
		 "valence_orbital": [ 
			{
				"type": "occ",
				"energy": -0.27543,
				"method": "rhf"
			},
			{
				"type": "occ",
				"energy": -0.27294,
				"method": "rhf"
			},
			{
				"type": "occ",
				"energy": -0.26429,
				"method": "rhf"
			},
			{
				"type": "occ",
				"energy": -0.25855,
				"method": "rhf"
			},
			{
				"type": "occ",
				"energy": -0.25119,
				"method": "rhf"
			},
			{
				"type": "unocc",
				"energy": -0.04683,
				"method": "rhf"
			},
			{
				"type": "unocc",
				"energy": -0.01753,
				"method": "rhf"
			},
			{
				"type": "unocc",
				"energy": -0.01306,
				"method": "rhf"
			},
			{
				"type": "unocc",
				"energy": 0.04661,
				"method": "rhf"
			},
			{
				"type": "unocc",
				"energy": 0.05688,
				"method": "rhf"
			}
		],
		"cosmo_sigma_profile": { 
			"-0.025": 0.0,
			"-0.024": 0.0,
			"-0.023": 0.0,
			"-0.022": 0.0,
			"-0.021": 0.0,
			"-0.02": 0.0,
			"-0.019": 0.0,
			"-0.018": 0.00751339326901,
			"-0.017": 0.857262917235,
			"-0.016": 1.22925340605,
			"-0.015": 2.23111700873,
			"-0.014": 3.65291123841,
			"-0.013": 3.74352434975,
			"-0.012": 4.46074639144,
			"-0.011": 4.87050502571,
			"-0.01": 5.58430532679,
			"-0.009": 4.41079438293,
			"-0.008": 4.69490679447,
			"-0.007": 5.0208008233,
			"-0.006": 10.7410775764,
			"-0.005": 15.8869352447,
			"-0.004": 15.6206621218,
			"-0.003": 15.3185533373,
			"-0.002": 15.989646876,
			"-0.001": 17.5330912364,
			"0.0": 13.2944480464,
			"0.001": 13.4596047708,
			"0.002": 11.815375722,
			"0.003": 15.0391517726,
			"0.004": 13.5244078396,
			"0.005": 5.02232583585,
			"0.006": 4.75954137748,
			"0.007": 4.67654258763,
			"0.008": 4.57970185145,
			"0.009": 4.48419893896,
			"0.01": 5.08057982665,
			"0.011": 7.65392846939,
			"0.012": 9.96223895457,
			"0.013": 9.67220466951,
			"0.014": 4.14791064646,
			"0.015": 0.261525329053,
			"0.016": 0.0,
			"0.017": 0.0,
			"0.018": 0.0,
			"0.019": 0.0,
			"0.02": 0.0,
			"0.021": 0.0,
			"0.022": 0.0,
			"0.023": 0.0,
			"0.024": 0.0,
			"0.025": 0.0
		}
	}
}
