{
	 "smiles": "COC(=O)CS(C)(=O)=O", 
	 "Tm": 335.65, 
	 "num_atms": 17, 
	 "gaussian": { 
		 "optdone": 1, 
		 "sigma_profile": "yes", 
		 "theory": "DFT", 
		 "functional": "B3LYP", 
		 "basiset": "6-31G**", 
		 "properties": { 
			 "R2extent": 1973.3765, 
			 "electric_dipole_moment_norm": 5.53731497208, 
			 "electric_quadrupole_moment_norm": 9.45981673237, 
			 "total_energy": -856.268426246, 
			 "HOMO_LUMO_gap": 0.26012, 
			 "cosmo_polarized_energy": -17.96, 
			 "cosmo_cavitation_energy": 22.49, 
			 "cosmo_dispersion_energy": -16.58, 
			 "cosmo_repulsion_energy": 1.33, 
			 "cosmo_total_nonelectrostatic_energy": 7.23, 
			 "SMD_solvation_energy": 5.33 
		},
		"coords": [
			{
				"x": -0.2851160371,
				"y": 1.7011168937,
				"z": -0.7687613705,
				"element": "C" 
			},
			{
				"x": -0.4274440184,
				"y": 0.3823467918,
				"z": -0.2025471,
				"element": "O" 
			},
			{
				"x": -0.4954136653,
				"y": 0.3425968395,
				"z": 1.1456707003,
				"element": "C" 
			},
			{
				"x": -0.4921973444,
				"y": 1.3184804088,
				"z": 1.8564268961,
				"element": "O" 
			},
			{
				"x": -0.6002732073,
				"y": -1.082280626,
				"z": 1.6494301472,
				"element": "C" 
			},
			{
				"x": 0.8686929209,
				"y": -2.12621352,
				"z": 1.2923093105,
				"element": "S" 
			},
			{
				"x": 0.6693284514,
				"y": -2.6132148163,
				"z": -0.4351381306,
				"element": "C" 
			},
			{
				"x": 0.7183097362,
				"y": -3.3287420088,
				"z": 2.1227313828,
				"element": "O" 
			},
			{
				"x": 2.0624160959,
				"y": -1.2769399961,
				"z": 1.3963741839,
				"element": "O" 
			},
			{
				"x": -0.2489469818,
				"y": 1.5542663312,
				"z": -1.8475953603,
				"element": "H" 
			},
			{
				"x": -1.136648631,
				"y": 2.3265057934,
				"z": -0.4922271028,
				"element": "H" 
			},
			{
				"x": 0.6347310548,
				"y": 2.1681503317,
				"z": -0.4106466248,
				"element": "H" 
			},
			{
				"x": -0.664654246,
				"y": -1.0730358231,
				"z": 2.7381650171,
				"element": "H" 
			},
			{
				"x": -1.4723231653,
				"y": -1.5947338688,
				"z": 1.2342211008,
				"element": "H" 
			},
			{
				"x": 1.5657624458,
				"y": -3.1837302978,
				"z": -0.6850283185,
				"element": "H" 
			},
			{
				"x": 0.5931932424,
				"y": -1.717211655,
				"z": -1.0497040526,
				"element": "H" 
			},
			{
				"x": -0.2174166509,
				"y": -3.2416607783,
				"z": -0.5291806786,
				"element": "H" 
			}
		],
		 "valence_orbital": [ 
			{
				"type": "occ",
				"energy": -0.32366,
				"method": "rhf"
			},
			{
				"type": "occ",
				"energy": -0.32096,
				"method": "rhf"
			},
			{
				"type": "occ",
				"energy": -0.30711,
				"method": "rhf"
			},
			{
				"type": "occ",
				"energy": -0.30042,
				"method": "rhf"
			},
			{
				"type": "occ",
				"energy": -0.28523,
				"method": "rhf"
			},
			{
				"type": "unocc",
				"energy": -0.02511,
				"method": "rhf"
			},
			{
				"type": "unocc",
				"energy": 0.057,
				"method": "rhf"
			},
			{
				"type": "unocc",
				"energy": 0.06743,
				"method": "rhf"
			},
			{
				"type": "unocc",
				"energy": 0.0799,
				"method": "rhf"
			},
			{
				"type": "unocc",
				"energy": 0.08075,
				"method": "rhf"
			}
		],
		"cosmo_sigma_profile": { 
			"-0.025": 0.0,
			"-0.024": 0.0,
			"-0.023": 0.0,
			"-0.022": 0.0,
			"-0.021": 0.0,
			"-0.02": 0.0,
			"-0.019": 0.0,
			"-0.018": 0.0,
			"-0.017": 0.0,
			"-0.016": 0.0,
			"-0.015": 0.0,
			"-0.014": 0.0,
			"-0.013": 0.140114329535,
			"-0.012": 0.830697404516,
			"-0.011": 2.3897415792,
			"-0.01": 4.09459155174,
			"-0.009": 6.574664462,
			"-0.008": 6.60099750277,
			"-0.007": 9.04461160482,
			"-0.006": 13.8816377206,
			"-0.005": 14.8595138429,
			"-0.004": 18.1837074588,
			"-0.003": 11.9004859996,
			"-0.002": 6.95825951488,
			"-0.001": 6.74967879151,
			"0.0": 5.78761368773,
			"0.001": 3.94090662062,
			"0.002": 4.05591700993,
			"0.003": 4.60505147875,
			"0.004": 3.91911377991,
			"0.005": 4.95893602215,
			"0.006": 3.33262849264,
			"0.007": 3.71031676583,
			"0.008": 4.35774547051,
			"0.009": 5.61788198623,
			"0.01": 8.66477169271,
			"0.011": 16.0471615598,
			"0.012": 6.56246392471,
			"0.013": 0.0377573205818,
			"0.014": 0.0,
			"0.015": 0.0,
			"0.016": 0.0,
			"0.017": 0.0,
			"0.018": 0.0,
			"0.019": 0.0,
			"0.02": 0.0,
			"0.021": 0.0,
			"0.022": 0.0,
			"0.023": 0.0,
			"0.024": 0.0,
			"0.025": 0.0
		}
	}
}
