{
	 "smiles": "CCOC(=O)C1=NN(CC2=CC=CC=C2)C(C)=C1", 
	 "Tm": 310.15, 
	 "num_atms": 34, 
	 "gaussian": { 
		 "optdone": 1, 
		 "sigma_profile": "yes", 
		 "theory": "DFT", 
		 "functional": "B3LYP", 
		 "basiset": "6-31G**", 
		 "properties": { 
			 "R2extent": 6713.1344, 
			 "electric_dipole_moment_norm": 4.14721375986, 
			 "electric_quadrupole_moment_norm": 9.05255765185, 
			 "total_energy": -803.089229029, 
			 "HOMO_LUMO_gap": 0.21984, 
			 "cosmo_polarized_energy": -14.99, 
			 "cosmo_cavitation_energy": 38.37, 
			 "cosmo_dispersion_energy": -26.62, 
			 "cosmo_repulsion_energy": 2.09, 
			 "cosmo_total_nonelectrostatic_energy": 13.84, 
			 "SMD_solvation_energy": 6.76 
		},
		"coords": [
			{
				"x": 4.8785514594,
				"y": 2.2980667911,
				"z": 3.5196456282,
				"element": "C" 
			},
			{
				"x": 4.1403403463,
				"y": 0.9777505951,
				"z": 3.6876372252,
				"element": "C" 
			},
			{
				"x": 2.791504516,
				"y": 1.0588679653,
				"z": 3.1766358087,
				"element": "O" 
			},
			{
				"x": 2.6406885514,
				"y": 0.8303993227,
				"z": 1.8451813401,
				"element": "C" 
			},
			{
				"x": 3.5554744059,
				"y": 0.5650301455,
				"z": 1.093917713,
				"element": "O" 
			},
			{
				"x": 1.2164035309,
				"y": 0.9458554331,
				"z": 1.4644773258,
				"element": "C" 
			},
			{
				"x": 0.8529694775,
				"y": 0.775079588,
				"z": 0.18759591,
				"element": "N" 
			},
			{
				"x": -0.479467065,
				"y": 0.9527320025,
				"z": 0.1875522906,
				"element": "N" 
			},
			{
				"x": -1.216393123,
				"y": 0.7633277547,
				"z": -1.0587244126,
				"element": "C" 
			},
			{
				"x": -1.8385987277,
				"y": -0.6159686455,
				"z": -1.1944153148,
				"element": "C" 
			},
			{
				"x": -1.0601439506,
				"y": -1.7654728613,
				"z": -1.000945116,
				"element": "C" 
			},
			{
				"x": -1.6256231213,
				"y": -3.0302526971,
				"z": -1.1543260365,
				"element": "C" 
			},
			{
				"x": -2.9721284595,
				"y": -3.162562445,
				"z": -1.5060241431,
				"element": "C" 
			},
			{
				"x": -3.7515504513,
				"y": -2.0226579345,
				"z": -1.7015679593,
				"element": "C" 
			},
			{
				"x": -3.1860235616,
				"y": -0.7549006952,
				"z": -1.5428128195,
				"element": "C" 
			},
			{
				"x": -0.9868329746,
				"y": 1.2233387715,
				"z": 1.4344981274,
				"element": "C" 
			},
			{
				"x": -2.4421357465,
				"y": 1.4517974201,
				"z": 1.6912779334,
				"element": "C" 
			},
			{
				"x": 0.1002913749,
				"y": 1.2311490671,
				"z": 2.2864320468,
				"element": "C" 
			},
			{
				"x": 4.3294491656,
				"y": 3.1151878426,
				"z": 3.9970793672,
				"element": "H" 
			},
			{
				"x": 5.8693798681,
				"y": 2.2328095194,
				"z": 3.9819319175,
				"element": "H" 
			},
			{
				"x": 5.0086890037,
				"y": 2.5302783921,
				"z": 2.4599723756,
				"element": "H" 
			},
			{
				"x": 4.0179841864,
				"y": 0.7194967046,
				"z": 4.7426622133,
				"element": "H" 
			},
			{
				"x": 4.6648931363,
				"y": 0.1682779179,
				"z": 3.1740704926,
				"element": "H" 
			},
			{
				"x": -0.4883079998,
				"y": 0.9427531354,
				"z": -1.8540270884,
				"element": "H" 
			},
			{
				"x": -1.987640467,
				"y": 1.5360613926,
				"z": -1.1301775241,
				"element": "H" 
			},
			{
				"x": -0.0139166154,
				"y": -1.6593637789,
				"z": -0.7282848906,
				"element": "H" 
			},
			{
				"x": -1.0141811688,
				"y": -3.9150261794,
				"z": -1.0018266341,
				"element": "H" 
			},
			{
				"x": -3.4097734027,
				"y": -4.1494473837,
				"z": -1.6257811045,
				"element": "H" 
			},
			{
				"x": -4.7992750864,
				"y": -2.1167776402,
				"z": -1.9725350494,
				"element": "H" 
			},
			{
				"x": -3.7970438581,
				"y": 0.1320056608,
				"z": -1.6952390592,
				"element": "H" 
			},
			{
				"x": -2.6055428576,
				"y": 1.6181470602,
				"z": 2.7580407687,
				"element": "H" 
			},
			{
				"x": -3.048664497,
				"y": 0.5927874015,
				"z": 1.3842187856,
				"element": "H" 
			},
			{
				"x": -2.8194324813,
				"y": 2.3317356876,
				"z": 1.156030925,
				"element": "H" 
			},
			{
				"x": 0.0986565926,
				"y": 1.4197946893,
				"z": 3.3486289574,
				"element": "H" 
			}
		],
		 "valence_orbital": [ 
			{
				"type": "occ",
				"energy": -0.25953,
				"method": "rhf"
			},
			{
				"type": "occ",
				"energy": -0.25717,
				"method": "rhf"
			},
			{
				"type": "occ",
				"energy": -0.25616,
				"method": "rhf"
			},
			{
				"type": "occ",
				"energy": -0.24648,
				"method": "rhf"
			},
			{
				"type": "occ",
				"energy": -0.24109,
				"method": "rhf"
			},
			{
				"type": "unocc",
				"energy": -0.02125,
				"method": "rhf"
			},
			{
				"type": "unocc",
				"energy": -0.00988,
				"method": "rhf"
			},
			{
				"type": "unocc",
				"energy": -0.00581,
				"method": "rhf"
			},
			{
				"type": "unocc",
				"energy": 0.03119,
				"method": "rhf"
			},
			{
				"type": "unocc",
				"energy": 0.08099,
				"method": "rhf"
			}
		],
		"cosmo_sigma_profile": { 
			"-0.025": 0.0,
			"-0.024": 0.0,
			"-0.023": 0.0,
			"-0.022": 0.0,
			"-0.021": 0.0,
			"-0.02": 0.0,
			"-0.019": 0.0,
			"-0.018": 0.0,
			"-0.017": 0.0,
			"-0.016": 0.0,
			"-0.015": 0.0,
			"-0.014": 0.0,
			"-0.013": 0.0,
			"-0.012": 0.0,
			"-0.011": 0.0,
			"-0.01": 0.0,
			"-0.009": 0.0,
			"-0.008": 0.622392607391,
			"-0.007": 6.52832335921,
			"-0.006": 14.746828177,
			"-0.005": 22.3178201179,
			"-0.004": 29.4363047827,
			"-0.003": 32.3720230813,
			"-0.002": 30.3305186255,
			"-0.001": 28.2784167842,
			"0.0": 23.5404013678,
			"0.001": 18.773415622,
			"0.002": 17.4594318369,
			"0.003": 18.6840784047,
			"0.004": 15.9560312226,
			"0.005": 12.7875721996,
			"0.006": 8.3165440049,
			"0.007": 3.6493815888,
			"0.008": 1.69995054443,
			"0.009": 2.22912885926,
			"0.01": 2.35931719301,
			"0.011": 2.27685569201,
			"0.012": 5.17381848711,
			"0.013": 2.94195131382,
			"0.014": 2.16735612834,
			"0.015": 1.71904456543,
			"0.016": 0.278142936109,
			"0.017": 0.0,
			"0.018": 0.0,
			"0.019": 0.0,
			"0.02": 0.0,
			"0.021": 0.0,
			"0.022": 0.0,
			"0.023": 0.0,
			"0.024": 0.0,
			"0.025": 0.0
		}
	}
}
