{
	 "smiles": "O=C(C1=CNC2=C1C=CC=C2)C1=CN=CC=C1", 
	 "Tm": 486.15, 
	 "num_atms": 27, 
	 "gaussian": { 
		 "optdone": 1, 
		 "sigma_profile": "yes", 
		 "theory": "DFT", 
		 "functional": "B3LYP", 
		 "basiset": "6-31G**", 
		 "properties": { 
			 "R2extent": 4517.4132, 
			 "electric_dipole_moment_norm": 2.88437366858, 
			 "electric_quadrupole_moment_norm": 19.981215196, 
			 "total_energy": -724.242107714, 
			 "HOMO_LUMO_gap": 0.158, 
			 "cosmo_polarized_energy": -16.06, 
			 "cosmo_cavitation_energy": 31.42, 
			 "cosmo_dispersion_energy": -22.88, 
			 "cosmo_repulsion_energy": 1.74, 
			 "cosmo_total_nonelectrostatic_energy": 10.28, 
			 "SMD_solvation_energy": 4.06 
		},
		"coords": [
			{
				"x": 2.2682106305,
				"y": 2.0794273507,
				"z": -1.7196679416,
				"element": "O" 
			},
			{
				"x": 1.8276150075,
				"y": 1.0619085828,
				"z": -1.1840274358,
				"element": "C" 
			},
			{
				"x": 0.8612062463,
				"y": 1.1607097268,
				"z": -0.0759724877,
				"element": "C" 
			},
			{
				"x": 0.7678859447,
				"y": 2.3266620026,
				"z": 0.6625578582,
				"element": "C" 
			},
			{
				"x": -0.2085114804,
				"y": 2.2057126524,
				"z": 1.6069357609,
				"element": "N" 
			},
			{
				"x": -0.8105107738,
				"y": 0.9607004809,
				"z": 1.4980940764,
				"element": "C" 
			},
			{
				"x": -0.161863133,
				"y": 0.2649043501,
				"z": 0.4408028831,
				"element": "C" 
			},
			{
				"x": -0.6423858192,
				"y": -1.013708597,
				"z": 0.1008684224,
				"element": "C" 
			},
			{
				"x": -1.6985751787,
				"y": -1.5567054986,
				"z": 0.8225225591,
				"element": "C" 
			},
			{
				"x": -2.3048758614,
				"y": -0.8526630233,
				"z": 1.8809428754,
				"element": "C" 
			},
			{
				"x": -1.870826877,
				"y": 0.4203180612,
				"z": 2.2300875848,
				"element": "C" 
			},
			{
				"x": 2.3238988384,
				"y": -0.2723460506,
				"z": -1.6589692072,
				"element": "C" 
			},
			{
				"x": 2.4767028139,
				"y": -1.3821698116,
				"z": -0.8160047561,
				"element": "C" 
			},
			{
				"x": 2.9962977978,
				"y": -2.5525637821,
				"z": -1.2078504674,
				"element": "N" 
			},
			{
				"x": 3.3821616759,
				"y": -2.654408862,
				"z": -2.4853304718,
				"element": "C" 
			},
			{
				"x": 3.2949160245,
				"y": -1.6075749002,
				"z": -3.4079390442,
				"element": "C" 
			},
			{
				"x": 2.7702021951,
				"y": -0.393393948,
				"z": -2.9819100172,
				"element": "C" 
			},
			{
				"x": 1.3587749909,
				"y": 3.224901534,
				"z": 0.5615986651,
				"element": "H" 
			},
			{
				"x": -0.4542459258,
				"y": 2.9127314407,
				"z": 2.2817578653,
				"element": "H" 
			},
			{
				"x": -0.1999547307,
				"y": -1.5733321958,
				"z": -0.7152636207,
				"element": "H" 
			},
			{
				"x": -2.0663634942,
				"y": -2.5449322734,
				"z": 0.5631845599,
				"element": "H" 
			},
			{
				"x": -3.1267250658,
				"y": -1.3066300187,
				"z": 2.4262275096,
				"element": "H" 
			},
			{
				"x": -2.3417915983,
				"y": 0.9769844185,
				"z": 3.0353213341,
				"element": "H" 
			},
			{
				"x": 2.1836589823,
				"y": -1.3175465424,
				"z": 0.2290158047,
				"element": "H" 
			},
			{
				"x": 3.7876318742,
				"y": -3.6191080021,
				"z": -2.7864335346,
				"element": "H" 
			},
			{
				"x": 3.6379093883,
				"y": -1.7465719184,
				"z": -4.4284656464,
				"element": "H" 
			},
			{
				"x": 2.6997575278,
				"y": 0.4664948236,
				"z": -3.6402831283,
				"element": "H" 
			}
		],
		 "valence_orbital": [ 
			{
				"type": "occ",
				"energy": -0.26563,
				"method": "rhf"
			},
			{
				"type": "occ",
				"energy": -0.25845,
				"method": "rhf"
			},
			{
				"type": "occ",
				"energy": -0.24161,
				"method": "rhf"
			},
			{
				"type": "occ",
				"energy": -0.23404,
				"method": "rhf"
			},
			{
				"type": "occ",
				"energy": -0.2159,
				"method": "rhf"
			},
			{
				"type": "unocc",
				"energy": -0.0579,
				"method": "rhf"
			},
			{
				"type": "unocc",
				"energy": -0.02236,
				"method": "rhf"
			},
			{
				"type": "unocc",
				"energy": -0.02036,
				"method": "rhf"
			},
			{
				"type": "unocc",
				"energy": 0.01132,
				"method": "rhf"
			},
			{
				"type": "unocc",
				"energy": 0.02002,
				"method": "rhf"
			}
		],
		"cosmo_sigma_profile": { 
			"-0.025": 0.0,
			"-0.024": 0.0,
			"-0.023": 0.0,
			"-0.022": 0.0,
			"-0.021": 0.0,
			"-0.02": 0.0,
			"-0.019": 0.0,
			"-0.018": 0.0,
			"-0.017": 0.457378433223,
			"-0.016": 2.06044938077,
			"-0.015": 1.47751329491,
			"-0.014": 1.36764177184,
			"-0.013": 1.06732959202,
			"-0.012": 1.34997359846,
			"-0.011": 1.21947177138,
			"-0.01": 1.76747993091,
			"-0.009": 2.46279571207,
			"-0.008": 2.94535139106,
			"-0.007": 8.31544541716,
			"-0.006": 12.840131939,
			"-0.005": 14.9273157668,
			"-0.004": 14.5129505981,
			"-0.003": 18.3529630997,
			"-0.002": 17.0346762462,
			"-0.001": 14.3885938904,
			"0.0": 18.1953029637,
			"0.001": 21.1435197635,
			"0.002": 22.2081488888,
			"0.003": 14.2828903961,
			"0.004": 13.1804733037,
			"0.005": 11.8666190174,
			"0.006": 9.33459733273,
			"0.007": 3.58304565339,
			"0.008": 3.09201805873,
			"0.009": 2.59440410291,
			"0.01": 2.56004328494,
			"0.011": 3.31560323441,
			"0.012": 4.99639850216,
			"0.013": 3.80200878182,
			"0.014": 0.784076717527,
			"0.015": 0.891106125359,
			"0.016": 0.787518379156,
			"0.017": 0.0667455977286,
			"0.018": 0.0,
			"0.019": 0.0,
			"0.02": 0.0,
			"0.021": 0.0,
			"0.022": 0.0,
			"0.023": 0.0,
			"0.024": 0.0,
			"0.025": 0.0
		}
	}
}
