{
	 "smiles": "OC(=O)C1=CC(COC2=CC(=CC=C2)C#N)=CC=C1", 
	 "Tm": 453.15, 
	 "num_atms": 30, 
	 "gaussian": { 
		 "optdone": 1, 
		 "sigma_profile": "yes", 
		 "theory": "DFT", 
		 "functional": "B3LYP", 
		 "basiset": "6-31G**", 
		 "properties": { 
			 "R2extent": 7644.3775, 
			 "electric_dipole_moment_norm": 7.5596615493, 
			 "electric_quadrupole_moment_norm": 24.6802732043, 
			 "total_energy": -858.63134389, 
			 "HOMO_LUMO_gap": 0.19358, 
			 "cosmo_polarized_energy": -22.5, 
			 "cosmo_cavitation_energy": 36.91, 
			 "cosmo_dispersion_energy": -25.82, 
			 "cosmo_repulsion_energy": 1.97, 
			 "cosmo_total_nonelectrostatic_energy": 13.06, 
			 "SMD_solvation_energy": 8.89 
		},
		"coords": [
			{
				"x": -1.3608420856,
				"y": 3.5888558718,
				"z": -2.3110453721,
				"element": "O" 
			},
			{
				"x": -2.2871619002,
				"y": 2.7964270916,
				"z": -2.9118279855,
				"element": "C" 
			},
			{
				"x": -3.1671277757,
				"y": 3.2902572498,
				"z": -3.5765031569,
				"element": "O" 
			},
			{
				"x": -2.1502222498,
				"y": 1.3159669667,
				"z": -2.7026116268,
				"element": "C" 
			},
			{
				"x": -1.4473071477,
				"y": 0.7655031037,
				"z": -1.6237174467,
				"element": "C" 
			},
			{
				"x": -1.3540532522,
				"y": -0.6205952866,
				"z": -1.4677559229,
				"element": "C" 
			},
			{
				"x": -0.6517255169,
				"y": -1.2239422416,
				"z": -0.2743488451,
				"element": "C" 
			},
			{
				"x": 0.4227519112,
				"y": -0.3704671148,
				"z": 0.1135662535,
				"element": "O" 
			},
			{
				"x": 1.1592720689,
				"y": -0.7042689042,
				"z": 1.2124545909,
				"element": "C" 
			},
			{
				"x": 2.1782853585,
				"y": 0.1958760092,
				"z": 1.5468131485,
				"element": "C" 
			},
			{
				"x": 2.9922800729,
				"y": -0.0566493426,
				"z": 2.6554688569,
				"element": "C" 
			},
			{
				"x": 2.7971759243,
				"y": -1.2084070757,
				"z": 3.4403502166,
				"element": "C" 
			},
			{
				"x": 1.7827266293,
				"y": -2.0922003803,
				"z": 3.09395485,
				"element": "C" 
			},
			{
				"x": 0.9610530781,
				"y": -1.8541572767,
				"z": 1.9872934505,
				"element": "C" 
			},
			{
				"x": 4.0353315241,
				"y": 0.8703696365,
				"z": 2.9923961733,
				"element": "C" 
			},
			{
				"x": 4.8816881642,
				"y": 1.6184609035,
				"z": 3.2692360783,
				"element": "N" 
			},
			{
				"x": -1.9711413391,
				"y": -1.4531528898,
				"z": -2.4068755838,
				"element": "C" 
			},
			{
				"x": -2.6923928559,
				"y": -0.9102251515,
				"z": -3.472526284,
				"element": "C" 
			},
			{
				"x": -2.7906730929,
				"y": 0.4701955934,
				"z": -3.6179584174,
				"element": "C" 
			},
			{
				"x": -0.6387082773,
				"y": 3.0519541348,
				"z": -1.9562678859,
				"element": "H" 
			},
			{
				"x": -0.9809362842,
				"y": 1.3980500282,
				"z": -0.8742510808,
				"element": "H" 
			},
			{
				"x": -1.3540905044,
				"y": -1.3337713901,
				"z": 0.5659789162,
				"element": "H" 
			},
			{
				"x": -0.2731981455,
				"y": -2.2247348052,
				"z": -0.5231974014,
				"element": "H" 
			},
			{
				"x": 2.3244716958,
				"y": 1.0804209889,
				"z": 0.9377714856,
				"element": "H" 
			},
			{
				"x": 3.4339988292,
				"y": -1.3934363147,
				"z": 4.2976613895,
				"element": "H" 
			},
			{
				"x": 1.6212294384,
				"y": -2.9856773795,
				"z": 3.6890476581,
				"element": "H" 
			},
			{
				"x": 0.1813958849,
				"y": -2.5649278909,
				"z": 1.7421975591,
				"element": "H" 
			},
			{
				"x": -1.8915443599,
				"y": -2.5326180954,
				"z": -2.3039313872,
				"element": "H" 
			},
			{
				"x": -3.1714769493,
				"y": -1.5679047745,
				"z": -4.1913227855,
				"element": "H" 
			},
			{
				"x": -3.349758843,
				"y": 0.9166987361,
				"z": -4.4328494448,
				"element": "H" 
			}
		],
		 "valence_orbital": [ 
			{
				"type": "occ",
				"energy": -0.28328,
				"method": "rhf"
			},
			{
				"type": "occ",
				"energy": -0.27793,
				"method": "rhf"
			},
			{
				"type": "occ",
				"energy": -0.27541,
				"method": "rhf"
			},
			{
				"type": "occ",
				"energy": -0.26948,
				"method": "rhf"
			},
			{
				"type": "occ",
				"energy": -0.25212,
				"method": "rhf"
			},
			{
				"type": "unocc",
				"energy": -0.05854,
				"method": "rhf"
			},
			{
				"type": "unocc",
				"energy": -0.05716,
				"method": "rhf"
			},
			{
				"type": "unocc",
				"energy": -0.03344,
				"method": "rhf"
			},
			{
				"type": "unocc",
				"energy": -0.02284,
				"method": "rhf"
			},
			{
				"type": "unocc",
				"energy": 0.03283,
				"method": "rhf"
			}
		],
		"cosmo_sigma_profile": { 
			"-0.025": 0.0,
			"-0.024": 0.0,
			"-0.023": 0.0,
			"-0.022": 0.0,
			"-0.021": 0.0,
			"-0.02": 0.0,
			"-0.019": 0.101426596836,
			"-0.018": 0.879789062418,
			"-0.017": 0.915105892373,
			"-0.016": 0.836267878841,
			"-0.015": 0.528232360402,
			"-0.014": 0.941342438986,
			"-0.013": 1.1828951047,
			"-0.012": 1.12092973206,
			"-0.011": 1.00168254876,
			"-0.01": 1.13931925268,
			"-0.009": 1.13082153649,
			"-0.008": 7.15821286743,
			"-0.007": 18.3430168074,
			"-0.006": 21.1737872784,
			"-0.005": 20.6102236723,
			"-0.004": 14.1542201779,
			"-0.003": 15.617144222,
			"-0.002": 16.468664607,
			"-0.001": 16.998036282,
			"0.0": 19.5878066802,
			"0.001": 21.2995654247,
			"0.002": 25.5187429779,
			"0.003": 25.6858169099,
			"0.004": 8.2104889906,
			"0.005": 5.38044656744,
			"0.006": 5.62473840789,
			"0.007": 5.9027381439,
			"0.008": 6.85564819743,
			"0.009": 6.97923970256,
			"0.01": 7.68387618322,
			"0.011": 7.95030670146,
			"0.012": 7.32525006836,
			"0.013": 3.05219744754,
			"0.014": 0.0940076239822,
			"0.015": 0.0,
			"0.016": 0.0,
			"0.017": 0.0,
			"0.018": 0.0,
			"0.019": 0.0,
			"0.02": 0.0,
			"0.021": 0.0,
			"0.022": 0.0,
			"0.023": 0.0,
			"0.024": 0.0,
			"0.025": 0.0
		}
	}
}
