{
	 "smiles": "CCCCCCCCCCCCCCCCCC[Si](Cl)(Cl)Cl", 
	 "Tm": 293.15, 
	 "num_atms": 59, 
	 "gaussian": { 
		 "optdone": 1, 
		 "sigma_profile": "yes", 
		 "theory": "DFT", 
		 "functional": "B3LYP", 
		 "basiset": "6-31G**", 
		 "properties": { 
			 "R2extent": 22099.8473, 
			 "electric_dipole_moment_norm": 2.99940110189, 
			 "electric_quadrupole_moment_norm": 15.8520215932, 
			 "total_energy": -2378.51133472, 
			 "HOMO_LUMO_gap": 0.28322, 
			 "cosmo_polarized_energy": -4.12, 
			 "cosmo_cavitation_energy": 64.87, 
			 "cosmo_dispersion_energy": -41.46, 
			 "cosmo_repulsion_energy": 3.49, 
			 "cosmo_total_nonelectrostatic_energy": 26.9, 
			 "SMD_solvation_energy": 7.26 
		},
		"coords": [
			{
				"x": 6.2469377224,
				"y": 3.9512925368,
				"z": -4.7535602861,
				"element": "C" 
			},
			{
				"x": 5.8771894166,
				"y": 3.3528664853,
				"z": -3.3925477335,
				"element": "C" 
			},
			{
				"x": 4.8217697178,
				"y": 2.2433993672,
				"z": -3.4847488545,
				"element": "C" 
			},
			{
				"x": 4.4455915235,
				"y": 1.6383446762,
				"z": -2.1264504654,
				"element": "C" 
			},
			{
				"x": 3.3890304282,
				"y": 0.5295522364,
				"z": -2.2189245686,
				"element": "C" 
			},
			{
				"x": 3.0189318327,
				"y": -0.0687808007,
				"z": -0.8540538099,
				"element": "C" 
			},
			{
				"x": 1.9032197117,
				"y": -1.1274923819,
				"z": -0.8892463439,
				"element": "C" 
			},
			{
				"x": 2.2728921984,
				"y": -2.420658424,
				"z": -1.6350593097,
				"element": "C" 
			},
			{
				"x": 1.1779280188,
				"y": -3.5116255588,
				"z": -1.6415311081,
				"element": "C" 
			},
			{
				"x": 1.2465101713,
				"y": -4.5466521686,
				"z": -0.5009173465,
				"element": "C" 
			},
			{
				"x": 1.0217678176,
				"y": -4.0410238984,
				"z": 0.934537393,
				"element": "C" 
			},
			{
				"x": -0.3795358067,
				"y": -3.4756792759,
				"z": 1.2050235844,
				"element": "C" 
			},
			{
				"x": -0.5822576519,
				"y": -3.0567552999,
				"z": 2.6685079272,
				"element": "C" 
			},
			{
				"x": -1.9966177079,
				"y": -2.5588222118,
				"z": 3.0087546448,
				"element": "C" 
			},
			{
				"x": -2.3972085044,
				"y": -1.2423115416,
				"z": 2.3266040809,
				"element": "C" 
			},
			{
				"x": -3.7853624053,
				"y": -0.7493186388,
				"z": 2.7577738535,
				"element": "C" 
			},
			{
				"x": -4.2712117727,
				"y": 0.5251606117,
				"z": 2.0447662293,
				"element": "C" 
			},
			{
				"x": -3.4316962411,
				"y": 1.7757829653,
				"z": 2.37761173,
				"element": "C" 
			},
			{
				"x": -4.0169715091,
				"y": 3.3658870267,
				"z": 1.5940313509,
				"element": "Si" 
			},
			{
				"x": -5.9457883053,
				"y": 3.8241720285,
				"z": 2.1842771359,
				"element": "Cl" 
			},
			{
				"x": -3.9905206983,
				"y": 3.2339242091,
				"z": -0.4701785326,
				"element": "Cl" 
			},
			{
				"x": -2.7819890234,
				"y": 4.9266949059,
				"z": 2.1568386142,
				"element": "Cl" 
			},
			{
				"x": 7.0009656362,
				"y": 4.7391064284,
				"z": -4.6542337489,
				"element": "H" 
			},
			{
				"x": 6.6521639333,
				"y": 3.186325506,
				"z": -5.4259483958,
				"element": "H" 
			},
			{
				"x": 5.3707590263,
				"y": 4.3900022591,
				"z": -5.2447465469,
				"element": "H" 
			},
			{
				"x": 6.780122506,
				"y": 2.9535033935,
				"z": -2.9106145751,
				"element": "H" 
			},
			{
				"x": 5.5082354837,
				"y": 4.1484396692,
				"z": -2.7308336009,
				"element": "H" 
			},
			{
				"x": 3.9182319539,
				"y": 2.6430747853,
				"z": -3.9674330221,
				"element": "H" 
			},
			{
				"x": 5.1908118384,
				"y": 1.4475487899,
				"z": -4.147820555,
				"element": "H" 
			},
			{
				"x": 5.3495872101,
				"y": 1.2383453353,
				"z": -1.6449174283,
				"element": "H" 
			},
			{
				"x": 4.0782760583,
				"y": 2.4349906122,
				"z": -1.4635731093,
				"element": "H" 
			},
			{
				"x": 3.758216316,
				"y": -0.2587241272,
				"z": -2.8880066492,
				"element": "H" 
			},
			{
				"x": 2.4822324838,
				"y": 0.9313821817,
				"z": -2.6941029122,
				"element": "H" 
			},
			{
				"x": 2.706870118,
				"y": 0.747308497,
				"z": -0.1879064588,
				"element": "H" 
			},
			{
				"x": 3.9173452341,
				"y": -0.5053470856,
				"z": -0.3939904867,
				"element": "H" 
			},
			{
				"x": 1.0079544794,
				"y": -0.6920013765,
				"z": -1.3566115929,
				"element": "H" 
			},
			{
				"x": 1.618264798,
				"y": -1.3649435166,
				"z": 0.1423181699,
				"element": "H" 
			},
			{
				"x": 2.5134966817,
				"y": -2.1643945753,
				"z": -2.6736224129,
				"element": "H" 
			},
			{
				"x": 3.1984645923,
				"y": -2.8352383932,
				"z": -1.2092332126,
				"element": "H" 
			},
			{
				"x": 0.1883479168,
				"y": -3.0356245875,
				"z": -1.6634962486,
				"element": "H" 
			},
			{
				"x": 1.2510573927,
				"y": -4.0726064051,
				"z": -2.581664333,
				"element": "H" 
			},
			{
				"x": 0.5083971769,
				"y": -5.3341467108,
				"z": -0.7086089466,
				"element": "H" 
			},
			{
				"x": 2.228077364,
				"y": -5.0382384735,
				"z": -0.5454937597,
				"element": "H" 
			},
			{
				"x": 1.7776280683,
				"y": -3.2866750091,
				"z": 1.1901191314,
				"element": "H" 
			},
			{
				"x": 1.1987677033,
				"y": -4.8792839843,
				"z": 1.6226846458,
				"element": "H" 
			},
			{
				"x": -1.1310099772,
				"y": -4.2337769015,
				"z": 0.9391437189,
				"element": "H" 
			},
			{
				"x": -0.5655492926,
				"y": -2.6195431394,
				"z": 0.5455326565,
				"element": "H" 
			},
			{
				"x": -0.3477311575,
				"y": -3.9130889862,
				"z": 3.315225044,
				"element": "H" 
			},
			{
				"x": 0.1480293282,
				"y": -2.2762452058,
				"z": 2.927335247,
				"element": "H" 
			},
			{
				"x": -2.0713712996,
				"y": -2.4265438979,
				"z": 4.0967809984,
				"element": "H" 
			},
			{
				"x": -2.7276924015,
				"y": -3.3376986223,
				"z": 2.7485538729,
				"element": "H" 
			},
			{
				"x": -2.3869729955,
				"y": -1.3658597193,
				"z": 1.2355981359,
				"element": "H" 
			},
			{
				"x": -1.6381156538,
				"y": -0.4817112563,
				"z": 2.5558887891,
				"element": "H" 
			},
			{
				"x": -3.7946116651,
				"y": -0.582191832,
				"z": 3.8442304728,
				"element": "H" 
			},
			{
				"x": -4.5178449051,
				"y": -1.5451763024,
				"z": 2.5681237914,
				"element": "H" 
			},
			{
				"x": -4.2651630825,
				"y": 0.3581864069,
				"z": 0.9603154906,
				"element": "H" 
			},
			{
				"x": -5.3154320454,
				"y": 0.7085513442,
				"z": 2.3235829897,
				"element": "H" 
			},
			{
				"x": -2.3872120643,
				"y": 1.6453424856,
				"z": 2.0683622914,
				"element": "H" 
			},
			{
				"x": -3.4131056923,
				"y": 1.9480955649,
				"z": 3.4624543642,
				"element": "H" 
			}
		],
		 "valence_orbital": [ 
			{
				"type": "occ",
				"energy": -0.31253,
				"method": "rhf"
			},
			{
				"type": "occ",
				"energy": -0.31029,
				"method": "rhf"
			},
			{
				"type": "occ",
				"energy": -0.30432,
				"method": "rhf"
			},
			{
				"type": "occ",
				"energy": -0.29734,
				"method": "rhf"
			},
			{
				"type": "occ",
				"energy": -0.29329,
				"method": "rhf"
			},
			{
				"type": "unocc",
				"energy": -0.01007,
				"method": "rhf"
			},
			{
				"type": "unocc",
				"energy": 0.02389,
				"method": "rhf"
			},
			{
				"type": "unocc",
				"energy": 0.02925,
				"method": "rhf"
			},
			{
				"type": "unocc",
				"energy": 0.06374,
				"method": "rhf"
			},
			{
				"type": "unocc",
				"energy": 0.07557,
				"method": "rhf"
			}
		],
		"cosmo_sigma_profile": { 
			"-0.025": 0.0,
			"-0.024": 0.0,
			"-0.023": 0.0,
			"-0.022": 0.0,
			"-0.021": 0.0,
			"-0.02": 0.0,
			"-0.019": 0.0,
			"-0.018": 0.0,
			"-0.017": 0.0,
			"-0.016": 0.0,
			"-0.015": 0.0,
			"-0.014": 0.0,
			"-0.013": 0.0,
			"-0.012": 0.0,
			"-0.011": 0.0,
			"-0.01": 0.0,
			"-0.009": 0.0,
			"-0.008": 0.00276577259177,
			"-0.007": 2.29280362533,
			"-0.006": 4.4005733585,
			"-0.005": 4.28258000353,
			"-0.004": 6.17889554729,
			"-0.003": 14.6505981741,
			"-0.002": 57.4306646714,
			"-0.001": 106.457935539,
			"0.0": 114.527032654,
			"0.001": 91.8451007468,
			"0.002": 53.7255997823,
			"0.003": 32.0205241006,
			"0.004": 14.5479061514,
			"0.005": 0.0,
			"0.006": 0.0,
			"0.007": 0.0,
			"0.008": 0.0,
			"0.009": 0.0,
			"0.01": 0.0,
			"0.011": 0.0,
			"0.012": 0.0,
			"0.013": 0.0,
			"0.014": 0.0,
			"0.015": 0.0,
			"0.016": 0.0,
			"0.017": 0.0,
			"0.018": 0.0,
			"0.019": 0.0,
			"0.02": 0.0,
			"0.021": 0.0,
			"0.022": 0.0,
			"0.023": 0.0,
			"0.024": 0.0,
			"0.025": 0.0
		}
	}
}
