{
	 "smiles": "O=C(C=NC1=CC=CC=C1)C1=CC=C(C=C1)C(=O)C=NC1=CC=CC=C1", 
	 "Tm": 428.15, 
	 "num_atms": 42, 
	 "gaussian": { 
		 "optdone": 1, 
		 "sigma_profile": "yes", 
		 "theory": "DFT", 
		 "functional": "B3LYP", 
		 "basiset": "6-31G**", 
		 "properties": { 
			 "R2extent": 13985.1033, 
			 "electric_dipole_moment_norm": 3.961791702, 
			 "electric_quadrupole_moment_norm": 14.1456851252, 
			 "total_energy": -1107.88320041, 
			 "HOMO_LUMO_gap": 0.11705, 
			 "cosmo_polarized_energy": -14.12, 
			 "cosmo_cavitation_energy": 48.57, 
			 "cosmo_dispersion_energy": -33.1, 
			 "cosmo_repulsion_energy": 2.5, 
			 "cosmo_total_nonelectrostatic_energy": 17.97, 
			 "SMD_solvation_energy": 7.31 
		},
		"coords": [
			{
				"x": -3.0626563015,
				"y": 0.8578228722,
				"z": -2.7692060276,
				"element": "O" 
			},
			{
				"x": -2.3009053135,
				"y": 1.7326576156,
				"z": -2.3799611277,
				"element": "C" 
			},
			{
				"x": -2.2910901975,
				"y": 3.0435268408,
				"z": -3.1564521052,
				"element": "C" 
			},
			{
				"x": -1.3413463557,
				"y": 3.5945998553,
				"z": -3.804881655,
				"element": "N" 
			},
			{
				"x": -0.0667619943,
				"y": 3.003551338,
				"z": -3.9303239401,
				"element": "C" 
			},
			{
				"x": 1.0568198862,
				"y": 3.8301766078,
				"z": -3.7653472998,
				"element": "C" 
			},
			{
				"x": 2.3381886939,
				"y": 3.3056797756,
				"z": -3.9085767827,
				"element": "C" 
			},
			{
				"x": 2.5170103071,
				"y": 1.9651465218,
				"z": -4.2644455591,
				"element": "C" 
			},
			{
				"x": 1.4019921803,
				"y": 1.1525315599,
				"z": -4.4735197618,
				"element": "C" 
			},
			{
				"x": 0.1138285827,
				"y": 1.6610755196,
				"z": -4.3048275651,
				"element": "C" 
			},
			{
				"x": -1.4745132032,
				"y": 1.578025235,
				"z": -1.1474318163,
				"element": "C" 
			},
			{
				"x": -1.4676764695,
				"y": 0.3315581198,
				"z": -0.5044050251,
				"element": "C" 
			},
			{
				"x": -0.7420114474,
				"y": 0.1413282736,
				"z": 0.6662000928,
				"element": "C" 
			},
			{
				"x": -0.0127218248,
				"y": 1.2082281419,
				"z": 1.2224006376,
				"element": "C" 
			},
			{
				"x": -0.0275959597,
				"y": 2.4586292001,
				"z": 0.5791483799,
				"element": "C" 
			},
			{
				"x": -0.7484662848,
				"y": 2.6442539766,
				"z": -0.5930284211,
				"element": "C" 
			},
			{
				"x": 0.8000352023,
				"y": 1.1180891229,
				"z": 2.4793140523,
				"element": "C" 
			},
			{
				"x": 1.4319018305,
				"y": 2.0908262639,
				"z": 2.8824134382,
				"element": "O" 
			},
			{
				"x": 0.9150550776,
				"y": -0.1136305923,
				"z": 3.3325756381,
				"element": "C" 
			},
			{
				"x": 0.3689272994,
				"y": -1.2419790127,
				"z": 3.0861878607,
				"element": "N" 
			},
			{
				"x": 0.5943380814,
				"y": -2.3444391554,
				"z": 3.9345233645,
				"element": "C" 
			},
			{
				"x": 1.8082801461,
				"y": -2.5723230175,
				"z": 4.6069286507,
				"element": "C" 
			},
			{
				"x": 1.9559479155,
				"y": -3.6979925518,
				"z": 5.4142384758,
				"element": "C" 
			},
			{
				"x": 0.9005705433,
				"y": -4.6007909,
				"z": 5.5679777433,
				"element": "C" 
			},
			{
				"x": -0.3026001519,
				"y": -4.384785227,
				"z": 4.8907305563,
				"element": "C" 
			},
			{
				"x": -0.4497108882,
				"y": -3.2747622348,
				"z": 4.0633290134,
				"element": "C" 
			},
			{
				"x": -3.273023304,
				"y": 3.5250590689,
				"z": -3.1986249703,
				"element": "H" 
			},
			{
				"x": 0.9033103931,
				"y": 4.8755958802,
				"z": -3.5165821163,
				"element": "H" 
			},
			{
				"x": 3.2009651704,
				"y": 3.9481667524,
				"z": -3.7578311229,
				"element": "H" 
			},
			{
				"x": 3.5175409555,
				"y": 1.5634217327,
				"z": -4.3931501578,
				"element": "H" 
			},
			{
				"x": 1.5315338007,
				"y": 0.1159528955,
				"z": -4.7713560943,
				"element": "H" 
			},
			{
				"x": -0.7519194457,
				"y": 1.0346287892,
				"z": -4.4937083321,
				"element": "H" 
			},
			{
				"x": -2.042389575,
				"y": -0.4779800856,
				"z": -0.9418437658,
				"element": "H" 
			},
			{
				"x": -0.7335540687,
				"y": -0.8219162787,
				"z": 1.1582959236,
				"element": "H" 
			},
			{
				"x": 0.537590783,
				"y": 3.2711731364,
				"z": 1.0214482774,
				"element": "H" 
			},
			{
				"x": -0.7498954125,
				"y": 3.6147613314,
				"z": -1.0779699977,
				"element": "H" 
			},
			{
				"x": 1.5343343066,
				"y": 0.0802210213,
				"z": 4.2182759571,
				"element": "H" 
			},
			{
				"x": 2.6412701451,
				"y": -1.8904872983,
				"z": 4.4665866317,
				"element": "H" 
			},
			{
				"x": 2.9009181859,
				"y": -3.8751518984,
				"z": 5.919492608,
				"element": "H" 
			},
			{
				"x": 1.0213376686,
				"y": -5.4762200655,
				"z": 6.1989480673,
				"element": "H" 
			},
			{
				"x": -1.1219489409,
				"y": -5.0894773806,
				"z": 4.9972947355,
				"element": "H" 
			},
			{
				"x": -1.3719100163,
				"y": -3.0976517499,
				"z": 3.5192635393,
				"element": "H" 
			}
		],
		 "valence_orbital": [ 
			{
				"type": "occ",
				"energy": -0.26472,
				"method": "rhf"
			},
			{
				"type": "occ",
				"energy": -0.26257,
				"method": "rhf"
			},
			{
				"type": "occ",
				"energy": -0.25446,
				"method": "rhf"
			},
			{
				"type": "occ",
				"energy": -0.24619,
				"method": "rhf"
			},
			{
				"type": "occ",
				"energy": -0.22293,
				"method": "rhf"
			},
			{
				"type": "unocc",
				"energy": -0.10588,
				"method": "rhf"
			},
			{
				"type": "unocc",
				"energy": -0.07293,
				"method": "rhf"
			},
			{
				"type": "unocc",
				"energy": -0.04204,
				"method": "rhf"
			},
			{
				"type": "unocc",
				"energy": -0.01645,
				"method": "rhf"
			},
			{
				"type": "unocc",
				"energy": -0.01492,
				"method": "rhf"
			}
		],
		"cosmo_sigma_profile": { 
			"-0.025": 0.0,
			"-0.024": 0.0,
			"-0.023": 0.0,
			"-0.022": 0.0,
			"-0.021": 0.0,
			"-0.02": 0.0,
			"-0.019": 0.0,
			"-0.018": 0.0,
			"-0.017": 0.0,
			"-0.016": 0.0,
			"-0.015": 0.0,
			"-0.014": 0.0,
			"-0.013": 0.0,
			"-0.012": 0.0,
			"-0.011": 0.0,
			"-0.01": 0.0,
			"-0.009": 0.668329825775,
			"-0.008": 3.66887452429,
			"-0.007": 8.68259974493,
			"-0.006": 25.7104580831,
			"-0.005": 32.0185241299,
			"-0.004": 34.4240435666,
			"-0.003": 29.048359175,
			"-0.002": 26.1665388881,
			"-0.001": 25.6813928548,
			"0.0": 27.1799280944,
			"0.001": 34.1069513565,
			"0.002": 34.123578354,
			"0.003": 29.1997612225,
			"0.004": 28.1618792887,
			"0.005": 17.6540772496,
			"0.006": 4.70951273464,
			"0.007": 2.95467647844,
			"0.008": 4.27048147234,
			"0.009": 5.3990145421,
			"0.01": 7.42510024401,
			"0.011": 7.2955022564,
			"0.012": 2.03030136975,
			"0.013": 0.583741271916,
			"0.014": 0.425822068177,
			"0.015": 0.0,
			"0.016": 0.0,
			"0.017": 0.0,
			"0.018": 0.0,
			"0.019": 0.0,
			"0.02": 0.0,
			"0.021": 0.0,
			"0.022": 0.0,
			"0.023": 0.0,
			"0.024": 0.0,
			"0.025": 0.0
		}
	}
}
