{
	 "smiles": "N#CC(=CC1=CC=CO1)C#N", 
	 "Tm": 345.15, 
	 "num_atms": 15, 
	 "gaussian": { 
		 "optdone": 1, 
		 "sigma_profile": "yes", 
		 "theory": "DFT", 
		 "functional": "B3LYP", 
		 "basiset": "6-31G**", 
		 "properties": { 
			 "R2extent": 3213.6427, 
			 "electric_dipole_moment_norm": 7.44401159053, 
			 "electric_quadrupole_moment_norm": 21.8379201272, 
			 "total_energy": -491.903139994, 
			 "HOMO_LUMO_gap": 0.14159, 
			 "cosmo_polarized_energy": -16.17, 
			 "cosmo_cavitation_energy": 22.91, 
			 "cosmo_dispersion_energy": -15.39, 
			 "cosmo_repulsion_energy": 1.25, 
			 "cosmo_total_nonelectrostatic_energy": 8.76, 
			 "SMD_solvation_energy": 7.81 
		},
		"coords": [
			{
				"x": 1.7754718996,
				"y": -3.3364314022,
				"z": 3.2709556159,
				"element": "N" 
			},
			{
				"x": 0.8964844948,
				"y": -2.6284439088,
				"z": 2.9870975246,
				"element": "C" 
			},
			{
				"x": -0.1810334755,
				"y": -1.7558530908,
				"z": 2.6271501275,
				"element": "C" 
			},
			{
				"x": -0.147107225,
				"y": -1.1138671139,
				"z": 1.4178237365,
				"element": "C" 
			},
			{
				"x": -1.0926747025,
				"y": -0.2130286605,
				"z": 0.8556226965,
				"element": "C" 
			},
			{
				"x": -1.0858188231,
				"y": 0.4484324329,
				"z": -0.3583420097,
				"element": "C" 
			},
			{
				"x": -2.2747715223,
				"y": 1.2210580527,
				"z": -0.4088666448,
				"element": "C" 
			},
			{
				"x": -2.9273450334,
				"y": 0.9827190484,
				"z": 0.7712945335,
				"element": "C" 
			},
			{
				"x": -2.2295282649,
				"y": 0.1213991127,
				"z": 1.5446432903,
				"element": "O" 
			},
			{
				"x": -1.233742699,
				"y": -1.6232408014,
				"z": 3.5881495174,
				"element": "C" 
			},
			{
				"x": -2.067085136,
				"y": -1.5441189726,
				"z": 4.3960875891,
				"element": "N" 
			},
			{
				"x": 0.7157593214,
				"y": -1.3091741934,
				"z": 0.7880810157,
				"element": "H" 
			},
			{
				"x": -0.3142092566,
				"y": 0.3783329354,
				"z": -1.1120170806,
				"element": "H" 
			},
			{
				"x": -2.6070808651,
				"y": 1.8673419664,
				"z": -1.2076625448,
				"element": "H" 
			},
			{
				"x": -3.8580187125,
				"y": 1.3379745952,
				"z": 1.1867826328,
				"element": "H" 
			}
		],
		 "valence_orbital": [ 
			{
				"type": "occ",
				"energy": -0.34804,
				"method": "rhf"
			},
			{
				"type": "occ",
				"energy": -0.33655,
				"method": "rhf"
			},
			{
				"type": "occ",
				"energy": -0.33002,
				"method": "rhf"
			},
			{
				"type": "occ",
				"energy": -0.31383,
				"method": "rhf"
			},
			{
				"type": "occ",
				"energy": -0.24724,
				"method": "rhf"
			},
			{
				"type": "unocc",
				"energy": -0.10565,
				"method": "rhf"
			},
			{
				"type": "unocc",
				"energy": -0.00302,
				"method": "rhf"
			},
			{
				"type": "unocc",
				"energy": 0.00363,
				"method": "rhf"
			},
			{
				"type": "unocc",
				"energy": 0.03735,
				"method": "rhf"
			},
			{
				"type": "unocc",
				"energy": 0.04845,
				"method": "rhf"
			}
		],
		"cosmo_sigma_profile": { 
			"-0.025": 0.0,
			"-0.024": 0.0,
			"-0.023": 0.0,
			"-0.022": 0.0,
			"-0.021": 0.0,
			"-0.02": 0.0,
			"-0.019": 0.0,
			"-0.018": 0.0,
			"-0.017": 0.0,
			"-0.016": 0.0,
			"-0.015": 0.0,
			"-0.014": 0.0,
			"-0.013": 0.0,
			"-0.012": 0.294727781519,
			"-0.011": 4.10614350496,
			"-0.01": 5.27556307011,
			"-0.009": 7.2931055568,
			"-0.008": 6.67687737803,
			"-0.007": 6.9004659706,
			"-0.006": 6.30516821916,
			"-0.005": 7.50598451882,
			"-0.004": 9.70668967849,
			"-0.003": 13.7654601167,
			"-0.002": 16.5512588316,
			"-0.001": 14.4329629115,
			"0.0": 12.0902604177,
			"0.001": 10.6082576433,
			"0.002": 8.40454109962,
			"0.003": 4.24313021276,
			"0.004": 5.07861909418,
			"0.005": 5.36307473898,
			"0.006": 5.55686729408,
			"0.007": 7.80470474428,
			"0.008": 7.01428643265,
			"0.009": 6.62383766935,
			"0.01": 5.87278319929,
			"0.011": 5.09887619427,
			"0.012": 4.36042514957,
			"0.013": 0.955596852642,
			"0.014": 0.0,
			"0.015": 0.0,
			"0.016": 0.0,
			"0.017": 0.0,
			"0.018": 0.0,
			"0.019": 0.0,
			"0.02": 0.0,
			"0.021": 0.0,
			"0.022": 0.0,
			"0.023": 0.0,
			"0.024": 0.0,
			"0.025": 0.0
		}
	}
}
