{
	 "smiles": "CC1=CC=C(C=C1)S(=O)(=O)OCC1=NC2=C(S1)C=CC=C2", 
	 "Tm": 382.15, 
	 "num_atms": 34, 
	 "gaussian": { 
		 "optdone": 1, 
		 "sigma_profile": "yes", 
		 "theory": "DFT", 
		 "functional": "B3LYP", 
		 "basiset": "6-31G**", 
		 "properties": { 
			 "R2extent": 7111.9153, 
			 "electric_dipole_moment_norm": 6.38871451937, 
			 "electric_quadrupole_moment_norm": 18.9711033356, 
			 "total_energy": -1656.16778706, 
			 "HOMO_LUMO_gap": 0.19192, 
			 "cosmo_polarized_energy": -14.83, 
			 "cosmo_cavitation_energy": 41.6, 
			 "cosmo_dispersion_energy": -28.52, 
			 "cosmo_repulsion_energy": 2.12, 
			 "cosmo_total_nonelectrostatic_energy": 15.21, 
			 "SMD_solvation_energy": 3.87 
		},
		"coords": [
			{
				"x": -2.3009745057,
				"y": 3.9913628903,
				"z": 1.1937559575,
				"element": "C" 
			},
			{
				"x": -2.4125559896,
				"y": 2.6938813682,
				"z": 0.4307661471,
				"element": "C" 
			},
			{
				"x": -2.6428587533,
				"y": 2.6936060655,
				"z": -0.9531616139,
				"element": "C" 
			},
			{
				"x": -2.7760286753,
				"y": 1.5024468822,
				"z": -1.6616842282,
				"element": "C" 
			},
			{
				"x": -2.6750002391,
				"y": 0.2924985795,
				"z": -0.9718816595,
				"element": "C" 
			},
			{
				"x": -2.4494632657,
				"y": 0.2584934544,
				"z": 0.4056445393,
				"element": "C" 
			},
			{
				"x": -2.3172201789,
				"y": 1.4621129806,
				"z": 1.0944355463,
				"element": "C" 
			},
			{
				"x": -2.8357457339,
				"y": -1.2357003858,
				"z": -1.876210413,
				"element": "S" 
			},
			{
				"x": -3.5749272164,
				"y": -0.982145389,
				"z": -3.1034951861,
				"element": "O" 
			},
			{
				"x": -3.208723876,
				"y": -2.2996762867,
				"z": -0.9452859167,
				"element": "O" 
			},
			{
				"x": -1.2935875622,
				"y": -1.5416586477,
				"z": -2.4098524683,
				"element": "O" 
			},
			{
				"x": -0.4148379422,
				"y": -2.3258903465,
				"z": -1.5741053991,
				"element": "C" 
			},
			{
				"x": 0.4849636888,
				"y": -1.472061782,
				"z": -0.7257686702,
				"element": "C" 
			},
			{
				"x": 0.6400758158,
				"y": -1.6578178102,
				"z": 0.5455587442,
				"element": "N" 
			},
			{
				"x": 1.5636972342,
				"y": -0.7668208686,
				"z": 1.0720747782,
				"element": "C" 
			},
			{
				"x": 2.1246104368,
				"y": 0.1416449507,
				"z": 0.1409344583,
				"element": "C" 
			},
			{
				"x": 1.4501048592,
				"y": -0.1655999569,
				"z": -1.446173761,
				"element": "S" 
			},
			{
				"x": 3.0601556637,
				"y": 1.1018212022,
				"z": 0.5364451819,
				"element": "C" 
			},
			{
				"x": 3.4338944751,
				"y": 1.1383449288,
				"z": 1.8771448575,
				"element": "C" 
			},
			{
				"x": 2.8854501972,
				"y": 0.2398832319,
				"z": 2.8101406036,
				"element": "C" 
			},
			{
				"x": 1.9525500678,
				"y": -0.7120740688,
				"z": 2.418840868,
				"element": "C" 
			},
			{
				"x": -3.284677738,
				"y": 4.3184039365,
				"z": 1.5529490548,
				"element": "H" 
			},
			{
				"x": -1.9012022456,
				"y": 4.7923204953,
				"z": 0.5653435981,
				"element": "H" 
			},
			{
				"x": -1.6531161258,
				"y": 3.8864709587,
				"z": 2.068670692,
				"element": "H" 
			},
			{
				"x": -2.7213752815,
				"y": 3.6392410162,
				"z": -1.4827087724,
				"element": "H" 
			},
			{
				"x": -2.9664531977,
				"y": 1.5026298162,
				"z": -2.7291369487,
				"element": "H" 
			},
			{
				"x": -2.3804389659,
				"y": -0.6911828776,
				"z": 0.9238165176,
				"element": "H" 
			},
			{
				"x": -2.1388366371,
				"y": 1.4437475378,
				"z": 2.1660480302,
				"element": "H" 
			},
			{
				"x": 0.1697869196,
				"y": -2.924470528,
				"z": -2.2793234945,
				"element": "H" 
			},
			{
				"x": -0.9853071544,
				"y": -2.9919045209,
				"z": -0.9235143018,
				"element": "H" 
			},
			{
				"x": 3.4879445693,
				"y": 1.7972787603,
				"z": -0.1783973173,
				"element": "H" 
			},
			{
				"x": 4.1631257647,
				"y": 1.8728419327,
				"z": 2.2057575049,
				"element": "H" 
			},
			{
				"x": 3.1976383171,
				"y": 0.2922191882,
				"z": 3.8487078477,
				"element": "H" 
			},
			{
				"x": 1.5199332752,
				"y": -1.4131467077,
				"z": 3.1249652235,
				"element": "H" 
			}
		],
		 "valence_orbital": [ 
			{
				"type": "occ",
				"energy": -0.28649,
				"method": "rhf"
			},
			{
				"type": "occ",
				"energy": -0.27123,
				"method": "rhf"
			},
			{
				"type": "occ",
				"energy": -0.26452,
				"method": "rhf"
			},
			{
				"type": "occ",
				"energy": -0.24845,
				"method": "rhf"
			},
			{
				"type": "occ",
				"energy": -0.2436,
				"method": "rhf"
			},
			{
				"type": "unocc",
				"energy": -0.05168,
				"method": "rhf"
			},
			{
				"type": "unocc",
				"energy": -0.03982,
				"method": "rhf"
			},
			{
				"type": "unocc",
				"energy": -0.02191,
				"method": "rhf"
			},
			{
				"type": "unocc",
				"energy": -0.01467,
				"method": "rhf"
			},
			{
				"type": "unocc",
				"energy": 0.00535,
				"method": "rhf"
			}
		],
		"cosmo_sigma_profile": { 
			"-0.025": 0.0,
			"-0.024": 0.0,
			"-0.023": 0.0,
			"-0.022": 0.0,
			"-0.021": 0.0,
			"-0.02": 0.0,
			"-0.019": 0.0,
			"-0.018": 0.0,
			"-0.017": 0.0,
			"-0.016": 0.0,
			"-0.015": 0.0,
			"-0.014": 0.0,
			"-0.013": 0.0,
			"-0.012": 0.0,
			"-0.011": 0.0,
			"-0.01": 0.0,
			"-0.009": 2.3724224992,
			"-0.008": 4.02679338776,
			"-0.007": 10.8315230724,
			"-0.006": 21.9920129077,
			"-0.005": 25.1065154189,
			"-0.004": 23.6204823904,
			"-0.003": 20.6239279241,
			"-0.002": 24.3039098548,
			"-0.001": 25.3407162495,
			"0.0": 24.9552858735,
			"0.001": 29.4727089396,
			"0.002": 33.1573370359,
			"0.003": 28.089705885,
			"0.004": 16.0254788035,
			"0.005": 7.14360792733,
			"0.006": 5.39823668321,
			"0.007": 4.84435828724,
			"0.008": 5.14690343425,
			"0.009": 9.58669985147,
			"0.01": 9.82161085136,
			"0.011": 2.64613435227,
			"0.012": 0.432533421271,
			"0.013": 0.523466114108,
			"0.014": 0.404942167284,
			"0.015": 0.0,
			"0.016": 0.0,
			"0.017": 0.0,
			"0.018": 0.0,
			"0.019": 0.0,
			"0.02": 0.0,
			"0.021": 0.0,
			"0.022": 0.0,
			"0.023": 0.0,
			"0.024": 0.0,
			"0.025": 0.0
		}
	}
}
