{
	 "smiles": "FC(F)(F)C1=C(N=CC=C1)C(F)(F)F", 
	 "Tm": 271.15, 
	 "num_atms": 17, 
	 "gaussian": { 
		 "optdone": 1, 
		 "sigma_profile": "yes", 
		 "theory": "DFT", 
		 "functional": "B3LYP", 
		 "basiset": "6-31G**", 
		 "properties": { 
			 "R2extent": 4264.8, 
			 "electric_dipole_moment_norm": 4.27672564119, 
			 "electric_quadrupole_moment_norm": 8.27633698927, 
			 "total_energy": -922.340929735, 
			 "HOMO_LUMO_gap": 0.22666, 
			 "cosmo_polarized_energy": -6.8, 
			 "cosmo_cavitation_energy": 23.86, 
			 "cosmo_dispersion_energy": -17.03, 
			 "cosmo_repulsion_energy": 1.22, 
			 "cosmo_total_nonelectrostatic_energy": 8.04, 
			 "SMD_solvation_energy": 5.17 
		},
		"coords": [
			{
				"x": -2.3495047011,
				"y": -2.6157964981,
				"z": -1.7584724503,
				"element": "F" 
			},
			{
				"x": -1.1597532232,
				"y": -2.1400539127,
				"z": -1.3442667241,
				"element": "C" 
			},
			{
				"x": -0.2479312128,
				"y": -2.4142301501,
				"z": -2.293944882,
				"element": "F" 
			},
			{
				"x": -0.8137334662,
				"y": -2.8497749754,
				"z": -0.2445609215,
				"element": "F" 
			},
			{
				"x": -1.2276387239,
				"y": -0.6591207306,
				"z": -1.0240821444,
				"element": "C" 
			},
			{
				"x": -1.269624409,
				"y": 0.3623833395,
				"z": -1.9933587791,
				"element": "C" 
			},
			{
				"x": -1.3385211399,
				"y": 1.6551293643,
				"z": -1.6775139142,
				"element": "N" 
			},
			{
				"x": -1.3882448486,
				"y": 2.0013677813,
				"z": -0.3879708148,
				"element": "C" 
			},
			{
				"x": -1.3678845323,
				"y": 1.0719287367,
				"z": 0.6485994561,
				"element": "C" 
			},
			{
				"x": -1.2843295259,
				"y": -0.2770521652,
				"z": 0.3182741688,
				"element": "C" 
			},
			{
				"x": -1.1841522019,
				"y": 0.0951649366,
				"z": -3.4965745886,
				"element": "C" 
			},
			{
				"x": 0.0883284592,
				"y": -0.1672273949,
				"z": -3.8602289442,
				"element": "F" 
			},
			{
				"x": -1.6041662952,
				"y": 1.1487263066,
				"z": -4.2046300705,
				"element": "F" 
			},
			{
				"x": -1.9405663895,
				"y": -0.9640788011,
				"z": -3.8530204932,
				"element": "F" 
			},
			{
				"x": -1.445696537,
				"y": 3.0678774407,
				"z": -0.1819060098,
				"element": "H" 
			},
			{
				"x": -1.411803689,
				"y": 1.3931093892,
				"z": 1.6838237983,
				"element": "H" 
			},
			{
				"x": -1.2555775639,
				"y": -1.036852667,
				"z": 1.0900333134,
				"element": "H" 
			}
		],
		 "valence_orbital": [ 
			{
				"type": "occ",
				"energy": -0.39849,
				"method": "rhf"
			},
			{
				"type": "occ",
				"energy": -0.37501,
				"method": "rhf"
			},
			{
				"type": "occ",
				"energy": -0.32164,
				"method": "rhf"
			},
			{
				"type": "occ",
				"energy": -0.29823,
				"method": "rhf"
			},
			{
				"type": "occ",
				"energy": -0.28764,
				"method": "rhf"
			},
			{
				"type": "unocc",
				"energy": -0.06098,
				"method": "rhf"
			},
			{
				"type": "unocc",
				"energy": -0.05827,
				"method": "rhf"
			},
			{
				"type": "unocc",
				"energy": 0.08254,
				"method": "rhf"
			},
			{
				"type": "unocc",
				"energy": 0.08919,
				"method": "rhf"
			},
			{
				"type": "unocc",
				"energy": 0.11064,
				"method": "rhf"
			}
		],
		"cosmo_sigma_profile": { 
			"-0.025": 0.0,
			"-0.024": 0.0,
			"-0.023": 0.0,
			"-0.022": 0.0,
			"-0.021": 0.0,
			"-0.02": 0.0,
			"-0.019": 0.0,
			"-0.018": 0.0,
			"-0.017": 0.0,
			"-0.016": 0.0,
			"-0.015": 0.0,
			"-0.014": 0.0,
			"-0.013": 0.0,
			"-0.012": 0.0,
			"-0.011": 0.0,
			"-0.01": 0.0,
			"-0.009": 1.74251725113,
			"-0.008": 7.40017334055,
			"-0.007": 6.79994938908,
			"-0.006": 5.99230933312,
			"-0.005": 6.02339012049,
			"-0.004": 6.69101115376,
			"-0.003": 10.8431920385,
			"-0.002": 12.867774536,
			"-0.001": 15.8203174949,
			"0.0": 16.2223299353,
			"0.001": 13.5293473022,
			"0.002": 46.2631461125,
			"0.003": 30.1802979092,
			"0.004": 2.29139668096,
			"0.005": 2.0233137121,
			"0.006": 1.12276976997,
			"0.007": 1.79881862018,
			"0.008": 1.09534308534,
			"0.009": 0.96175042478,
			"0.01": 0.532760551508,
			"0.011": 1.21518135778,
			"0.012": 0.723257829825,
			"0.013": 0.713429125446,
			"0.014": 0.0262547374241,
			"0.015": 0.0,
			"0.016": 0.0,
			"0.017": 0.0,
			"0.018": 0.0,
			"0.019": 0.0,
			"0.02": 0.0,
			"0.021": 0.0,
			"0.022": 0.0,
			"0.023": 0.0,
			"0.024": 0.0,
			"0.025": 0.0
		}
	}
}
