{
	 "smiles": "CC1=C(OC2=C1C=C(Cl)C=C2)C(O)=O", 
	 "Tm": 529.15, 
	 "num_atms": 21, 
	 "gaussian": { 
		 "optdone": 1, 
		 "sigma_profile": "yes", 
		 "theory": "DFT", 
		 "functional": "B3LYP", 
		 "basiset": "6-31G**", 
		 "properties": { 
			 "R2extent": 5102.3305, 
			 "electric_dipole_moment_norm": 0.874101630247, 
			 "electric_quadrupole_moment_norm": 6.9370477885, 
			 "total_energy": -1071.15956389, 
			 "HOMO_LUMO_gap": 0.17261, 
			 "cosmo_polarized_energy": -10.42, 
			 "cosmo_cavitation_energy": 28.02, 
			 "cosmo_dispersion_energy": -20.72, 
			 "cosmo_repulsion_energy": 1.62, 
			 "cosmo_total_nonelectrostatic_energy": 8.92, 
			 "SMD_solvation_energy": 6.04 
		},
		"coords": [
			{
				"x": 0.7938953839,
				"y": -0.1411015927,
				"z": -2.1508714058,
				"element": "C" 
			},
			{
				"x": 1.0518930228,
				"y": -0.271829604,
				"z": -0.6813551536,
				"element": "C" 
			},
			{
				"x": 0.4320495645,
				"y": -1.1126625877,
				"z": 0.208538813,
				"element": "C" 
			},
			{
				"x": 0.9170808123,
				"y": -0.9723551986,
				"z": 1.4936273188,
				"element": "O" 
			},
			{
				"x": 1.8769316657,
				"y": -0.0126922322,
				"z": 1.4261455825,
				"element": "C" 
			},
			{
				"x": 2.0100893616,
				"y": 0.4624764197,
				"z": 0.1074710855,
				"element": "C" 
			},
			{
				"x": 2.9552592872,
				"y": 1.4636271957,
				"z": -0.1734142132,
				"element": "C" 
			},
			{
				"x": 3.7179815795,
				"y": 1.9358561395,
				"z": 0.8848316702,
				"element": "C" 
			},
			{
				"x": 4.9158961421,
				"y": 3.1901618829,
				"z": 0.5852400223,
				"element": "Cl" 
			},
			{
				"x": 3.5733405613,
				"y": 1.4501691739,
				"z": 2.2004556004,
				"element": "C" 
			},
			{
				"x": 2.6408843455,
				"y": 0.4593864197,
				"z": 2.4894457124,
				"element": "C" 
			},
			{
				"x": -0.6284079698,
				"y": -2.0881336134,
				"z": -0.0409222807,
				"element": "C" 
			},
			{
				"x": -1.0138468816,
				"y": -2.7554780901,
				"z": 1.0686781564,
				"element": "O" 
			},
			{
				"x": -1.1164857336,
				"y": -2.2787806572,
				"z": -1.1408656032,
				"element": "O" 
			},
			{
				"x": 1.4462646094,
				"y": 0.6145752214,
				"z": -2.5950729845,
				"element": "H" 
			},
			{
				"x": -0.2459026135,
				"y": 0.1376612632,
				"z": -2.3444440195,
				"element": "H" 
			},
			{
				"x": 0.9597416727,
				"y": -1.0919046463,
				"z": -2.6654785571,
				"element": "H" 
			},
			{
				"x": 3.0907854114,
				"y": 1.8581585795,
				"z": -1.1739956748,
				"element": "H" 
			},
			{
				"x": 4.1982404418,
				"y": 1.8582421788,
				"z": 2.9864867386,
				"element": "H" 
			},
			{
				"x": 2.5135204504,
				"y": 0.0719696667,
				"z": 3.4939338307,
				"element": "H" 
			},
			{
				"x": -1.7129111137,
				"y": -3.3651459187,
				"z": 0.7790653617,
				"element": "H" 
			}
		],
		 "valence_orbital": [ 
			{
				"type": "occ",
				"energy": -0.31707,
				"method": "rhf"
			},
			{
				"type": "occ",
				"energy": -0.30348,
				"method": "rhf"
			},
			{
				"type": "occ",
				"energy": -0.28674,
				"method": "rhf"
			},
			{
				"type": "occ",
				"energy": -0.24492,
				"method": "rhf"
			},
			{
				"type": "occ",
				"energy": -0.23922,
				"method": "rhf"
			},
			{
				"type": "unocc",
				"energy": -0.06661,
				"method": "rhf"
			},
			{
				"type": "unocc",
				"energy": -0.01081,
				"method": "rhf"
			},
			{
				"type": "unocc",
				"energy": 0.00826,
				"method": "rhf"
			},
			{
				"type": "unocc",
				"energy": 0.02454,
				"method": "rhf"
			},
			{
				"type": "unocc",
				"energy": 0.07488,
				"method": "rhf"
			}
		],
		"cosmo_sigma_profile": { 
			"-0.025": 0.0,
			"-0.024": 0.0,
			"-0.023": 0.0,
			"-0.022": 0.0,
			"-0.021": 0.0,
			"-0.02": 0.0,
			"-0.019": 0.172739904372,
			"-0.018": 1.19846415416,
			"-0.017": 0.496738233383,
			"-0.016": 0.891148851806,
			"-0.015": 0.997272821544,
			"-0.014": 1.02652252958,
			"-0.013": 0.448322833189,
			"-0.012": 0.593762175842,
			"-0.011": 0.515148107025,
			"-0.01": 0.743403995317,
			"-0.009": 0.440610013147,
			"-0.008": 5.04514690608,
			"-0.007": 7.83193719349,
			"-0.006": 7.55359884249,
			"-0.005": 8.9357501324,
			"-0.004": 9.68347083837,
			"-0.003": 14.8733347769,
			"-0.002": 16.3122779563,
			"-0.001": 23.3705650241,
			"0.0": 22.3958209028,
			"0.001": 20.4130271159,
			"0.002": 22.6599722264,
			"0.003": 13.0851830391,
			"0.004": 12.0188491364,
			"0.005": 10.3791866437,
			"0.006": 2.96912861194,
			"0.007": 3.79574976,
			"0.008": 3.24315423073,
			"0.009": 4.18128400208,
			"0.01": 4.03572150518,
			"0.011": 3.89820035233,
			"0.012": 2.77889203993,
			"0.013": 0.0245116790191,
			"0.014": 0.0,
			"0.015": 0.0,
			"0.016": 0.0,
			"0.017": 0.0,
			"0.018": 0.0,
			"0.019": 0.0,
			"0.02": 0.0,
			"0.021": 0.0,
			"0.022": 0.0,
			"0.023": 0.0,
			"0.024": 0.0,
			"0.025": 0.0
		}
	}
}
