{
	 "smiles": "COC1=C(C=CC=C1)C(=O)NC(=O)CCl", 
	 "Tm": 392.15, 
	 "num_atms": 25, 
	 "gaussian": { 
		 "optdone": 1, 
		 "sigma_profile": "yes", 
		 "theory": "DFT", 
		 "functional": "B3LYP", 
		 "basiset": "6-31G**", 
		 "properties": { 
			 "R2extent": 4883.6119, 
			 "electric_dipole_moment_norm": 3.49817846886, 
			 "electric_quadrupole_moment_norm": 13.1657613711, 
			 "total_energy": -1127.7121446, 
			 "HOMO_LUMO_gap": 0.1767, 
			 "cosmo_polarized_energy": -14.47, 
			 "cosmo_cavitation_energy": 31.3, 
			 "cosmo_dispersion_energy": -22.1, 
			 "cosmo_repulsion_energy": 1.76, 
			 "cosmo_total_nonelectrostatic_energy": 10.96, 
			 "SMD_solvation_energy": 7.05 
		},
		"coords": [
			{
				"x": 1.7444052397,
				"y": -1.0511030762,
				"z": 2.1491614235,
				"element": "C" 
			},
			{
				"x": 0.7771923759,
				"y": -1.3076822991,
				"z": 1.1408138441,
				"element": "O" 
			},
			{
				"x": 0.6586004552,
				"y": -0.4258902841,
				"z": 0.1132280217,
				"element": "C" 
			},
			{
				"x": -0.4113094813,
				"y": -0.6394722534,
				"z": -0.783226677,
				"element": "C" 
			},
			{
				"x": -0.5167129758,
				"y": 0.1618731123,
				"z": -1.9257314162,
				"element": "C" 
			},
			{
				"x": 0.3704277388,
				"y": 1.2106472614,
				"z": -2.1553117777,
				"element": "C" 
			},
			{
				"x": 1.3991482408,
				"y": 1.4390847194,
				"z": -1.2426212321,
				"element": "C" 
			},
			{
				"x": 1.5538048239,
				"y": 0.6242755159,
				"z": -0.119688759,
				"element": "C" 
			},
			{
				"x": -1.3984935827,
				"y": -1.7473938716,
				"z": -0.6538038268,
				"element": "C" 
			},
			{
				"x": -1.7360685699,
				"y": -2.429542112,
				"z": -1.6070930073,
				"element": "O" 
			},
			{
				"x": -2.0048874622,
				"y": -2.0316901456,
				"z": 0.5904104622,
				"element": "N" 
			},
			{
				"x": -2.17164433,
				"y": -1.2316688527,
				"z": 1.6954010412,
				"element": "C" 
			},
			{
				"x": -1.7311072982,
				"y": -0.10844312,
				"z": 1.8489880655,
				"element": "O" 
			},
			{
				"x": -3.0017448846,
				"y": -1.8119650523,
				"z": 2.8492466518,
				"element": "C" 
			},
			{
				"x": -3.7295392856,
				"y": -3.4550579468,
				"z": 2.6149257619,
				"element": "Cl" 
			},
			{
				"x": 1.6204977826,
				"y": -1.8422513289,
				"z": 2.8900615551,
				"element": "H" 
			},
			{
				"x": 1.5759082387,
				"y": -0.0772826591,
				"z": 2.6235700367,
				"element": "H" 
			},
			{
				"x": 2.7653763712,
				"y": -1.0930298079,
				"z": 1.7500248515,
				"element": "H" 
			},
			{
				"x": -1.3205575815,
				"y": -0.0479474082,
				"z": -2.6235686893,
				"element": "H" 
			},
			{
				"x": 0.2611541356,
				"y": 1.8378439713,
				"z": -3.0338815721,
				"element": "H" 
			},
			{
				"x": 2.1014893567,
				"y": 2.2518766669,
				"z": -1.4047193529,
				"element": "H" 
			},
			{
				"x": 2.375251511,
				"y": 0.8063987067,
				"z": 0.5621170397,
				"element": "H" 
			},
			{
				"x": -2.5527156551,
				"y": -2.8852898065,
				"z": 0.5548831605,
				"element": "H" 
			},
			{
				"x": -3.8191244259,
				"y": -1.1207100123,
				"z": 3.054931337,
				"element": "H" 
			},
			{
				"x": -2.3586507375,
				"y": -1.8667799174,
				"z": 3.728283058,
				"element": "H" 
			}
		],
		 "valence_orbital": [ 
			{
				"type": "occ",
				"energy": -0.29169,
				"method": "rhf"
			},
			{
				"type": "occ",
				"energy": -0.28461,
				"method": "rhf"
			},
			{
				"type": "occ",
				"energy": -0.26442,
				"method": "rhf"
			},
			{
				"type": "occ",
				"energy": -0.25404,
				"method": "rhf"
			},
			{
				"type": "occ",
				"energy": -0.22776,
				"method": "rhf"
			},
			{
				"type": "unocc",
				"energy": -0.05106,
				"method": "rhf"
			},
			{
				"type": "unocc",
				"energy": -0.00545,
				"method": "rhf"
			},
			{
				"type": "unocc",
				"energy": 0.00562,
				"method": "rhf"
			},
			{
				"type": "unocc",
				"energy": 0.00906,
				"method": "rhf"
			},
			{
				"type": "unocc",
				"energy": 0.05242,
				"method": "rhf"
			}
		],
		"cosmo_sigma_profile": { 
			"-0.025": 0.0,
			"-0.024": 0.0,
			"-0.023": 0.0,
			"-0.022": 0.0,
			"-0.021": 0.0,
			"-0.02": 0.0,
			"-0.019": 0.0,
			"-0.018": 0.0,
			"-0.017": 0.0,
			"-0.016": 0.0,
			"-0.015": 0.0,
			"-0.014": 0.0,
			"-0.013": 0.0,
			"-0.012": 0.0,
			"-0.011": 0.170936565988,
			"-0.01": 2.19665523905,
			"-0.009": 5.52643083799,
			"-0.008": 5.30934930104,
			"-0.007": 8.84727135783,
			"-0.006": 18.1040218068,
			"-0.005": 21.3163744968,
			"-0.004": 21.8917066975,
			"-0.003": 17.6661325818,
			"-0.002": 12.1349106856,
			"-0.001": 12.9832776113,
			"0.0": 13.5655244938,
			"0.001": 12.7280185497,
			"0.002": 14.0661417248,
			"0.003": 15.8772760957,
			"0.004": 17.8748535048,
			"0.005": 16.08029206,
			"0.006": 5.75287040186,
			"0.007": 3.79386844949,
			"0.008": 4.46088166995,
			"0.009": 3.33874534674,
			"0.01": 4.10255789029,
			"0.011": 8.07718035181,
			"0.012": 5.60983368847,
			"0.013": 0.42608364978,
			"0.014": 0.0,
			"0.015": 0.0,
			"0.016": 0.0,
			"0.017": 0.0,
			"0.018": 0.0,
			"0.019": 0.0,
			"0.02": 0.0,
			"0.021": 0.0,
			"0.022": 0.0,
			"0.023": 0.0,
			"0.024": 0.0,
			"0.025": 0.0
		}
	}
}
