{
	 "smiles": "CCOC(=O)C1=CN=C(S)C=C1", 
	 "Tm": 409.15, 
	 "num_atms": 21, 
	 "gaussian": { 
		 "optdone": 1, 
		 "sigma_profile": "yes", 
		 "theory": "DFT", 
		 "functional": "B3LYP", 
		 "basiset": "6-31G**", 
		 "properties": { 
			 "R2extent": 3522.5936, 
			 "electric_dipole_moment_norm": 1.30978358899, 
			 "electric_quadrupole_moment_norm": 7.83842630762, 
			 "total_energy": -913.675738363, 
			 "HOMO_LUMO_gap": 0.18235, 
			 "cosmo_polarized_energy": -8.52, 
			 "cosmo_cavitation_energy": 27.4, 
			 "cosmo_dispersion_energy": -20.6, 
			 "cosmo_repulsion_energy": 1.61, 
			 "cosmo_total_nonelectrostatic_energy": 8.41, 
			 "SMD_solvation_energy": 4.09 
		},
		"coords": [
			{
				"x": -2.269654837,
				"y": 2.3831148289,
				"z": 2.264619525,
				"element": "C" 
			},
			{
				"x": -2.7101462285,
				"y": 1.1311572438,
				"z": 1.521230662,
				"element": "C" 
			},
			{
				"x": -1.7219678068,
				"y": 0.7241351546,
				"z": 0.5433350925,
				"element": "O" 
			},
			{
				"x": -0.7124459077,
				"y": -0.0535825162,
				"z": 0.9924546979,
				"element": "C" 
			},
			{
				"x": -0.599917531,
				"y": -0.4239571884,
				"z": 2.146207585,
				"element": "O" 
			},
			{
				"x": 0.245140393,
				"y": -0.4105969419,
				"z": -0.0868091053,
				"element": "C" 
			},
			{
				"x": 0.108017558,
				"y": 0.0221775505,
				"z": -1.4102491875,
				"element": "C" 
			},
			{
				"x": 0.9664540355,
				"y": -0.2954977258,
				"z": -2.3853341903,
				"element": "N" 
			},
			{
				"x": 2.0092643267,
				"y": -1.0696835981,
				"z": -2.0675672112,
				"element": "C" 
			},
			{
				"x": 3.151485626,
				"y": -1.4923996035,
				"z": -3.3667349327,
				"element": "S" 
			},
			{
				"x": 2.2450900882,
				"y": -1.5606662023,
				"z": -0.7712737435,
				"element": "C" 
			},
			{
				"x": 1.3463109744,
				"y": -1.2214061653,
				"z": 0.2260772526,
				"element": "C" 
			},
			{
				"x": -1.3762168176,
				"y": 2.1816054025,
				"z": 2.8604514305,
				"element": "H" 
			},
			{
				"x": -2.055024532,
				"y": 3.1969263969,
				"z": 1.5658210484,
				"element": "H" 
			},
			{
				"x": -3.0661054261,
				"y": 2.7115324424,
				"z": 2.9406685028,
				"element": "H" 
			},
			{
				"x": -3.6132931888,
				"y": 1.3098983659,
				"z": 0.9330966476,
				"element": "H" 
			},
			{
				"x": -2.882681518,
				"y": 0.3021280528,
				"z": 2.211294258,
				"element": "H" 
			},
			{
				"x": -0.7298320754,
				"y": 0.652023579,
				"z": -1.6943416787,
				"element": "H" 
			},
			{
				"x": 2.4864125963,
				"y": -0.8068662677,
				"z": -4.3158447642,
				"element": "H" 
			},
			{
				"x": 3.1069118797,
				"y": -2.1860794943,
				"z": -0.563630012,
				"element": "H" 
			},
			{
				"x": 1.4711983912,
				"y": -1.5676633137,
				"z": 1.2468281233,
				"element": "H" 
			}
		],
		 "valence_orbital": [ 
			{
				"type": "occ",
				"energy": -0.30452,
				"method": "rhf"
			},
			{
				"type": "occ",
				"energy": -0.29608,
				"method": "rhf"
			},
			{
				"type": "occ",
				"energy": -0.28613,
				"method": "rhf"
			},
			{
				"type": "occ",
				"energy": -0.26743,
				"method": "rhf"
			},
			{
				"type": "occ",
				"energy": -0.23838,
				"method": "rhf"
			},
			{
				"type": "unocc",
				"energy": -0.05603,
				"method": "rhf"
			},
			{
				"type": "unocc",
				"energy": -0.03335,
				"method": "rhf"
			},
			{
				"type": "unocc",
				"energy": 0.01169,
				"method": "rhf"
			},
			{
				"type": "unocc",
				"energy": 0.04337,
				"method": "rhf"
			},
			{
				"type": "unocc",
				"energy": 0.07434,
				"method": "rhf"
			}
		],
		"cosmo_sigma_profile": { 
			"-0.025": 0.0,
			"-0.024": 0.0,
			"-0.023": 0.0,
			"-0.022": 0.0,
			"-0.021": 0.0,
			"-0.02": 0.0,
			"-0.019": 0.0,
			"-0.018": 0.0,
			"-0.017": 0.0,
			"-0.016": 0.0,
			"-0.015": 0.0,
			"-0.014": 0.0,
			"-0.013": 0.0,
			"-0.012": 0.0106175426549,
			"-0.011": 0.927338258943,
			"-0.01": 1.26916407332,
			"-0.009": 1.97686168751,
			"-0.008": 3.42432540182,
			"-0.007": 5.43488864036,
			"-0.006": 8.13254963307,
			"-0.005": 10.7521472723,
			"-0.004": 15.597659339,
			"-0.003": 17.6865800204,
			"-0.002": 18.9891834103,
			"-0.001": 22.994806706,
			"0.0": 28.1927453495,
			"0.001": 18.983233945,
			"0.002": 13.3295970828,
			"0.003": 10.6339013091,
			"0.004": 8.39416531687,
			"0.005": 7.315849775,
			"0.006": 5.89678348941,
			"0.007": 5.03055542687,
			"0.008": 3.27843392047,
			"0.009": 1.84304510855,
			"0.01": 2.68999607008,
			"0.011": 3.63881995439,
			"0.012": 3.93742607794,
			"0.013": 0.635015091128,
			"0.014": 0.0837240742849,
			"0.015": 0.0,
			"0.016": 0.0,
			"0.017": 0.0,
			"0.018": 0.0,
			"0.019": 0.0,
			"0.02": 0.0,
			"0.021": 0.0,
			"0.022": 0.0,
			"0.023": 0.0,
			"0.024": 0.0,
			"0.025": 0.0
		}
	}
}
