{
	 "smiles": "CCCC1=NOC2=C1C(=CC(C)=N2)C(O)=O", 
	 "Tm": 443.15, 
	 "num_atms": 28, 
	 "gaussian": { 
		 "optdone": 1, 
		 "sigma_profile": "yes", 
		 "theory": "DFT", 
		 "functional": "B3LYP", 
		 "basiset": "6-31G**", 
		 "properties": { 
			 "R2extent": 4044.1983, 
			 "electric_dipole_moment_norm": 5.05174783417, 
			 "electric_quadrupole_moment_norm": 9.80626778188, 
			 "total_energy": -761.56687268, 
			 "HOMO_LUMO_gap": 0.17358, 
			 "cosmo_polarized_energy": -13.16, 
			 "cosmo_cavitation_energy": 31.99, 
			 "cosmo_dispersion_energy": -23.18, 
			 "cosmo_repulsion_energy": 1.81, 
			 "cosmo_total_nonelectrostatic_energy": 10.61, 
			 "SMD_solvation_energy": 4.78 
		},
		"coords": [
			{
				"x": -2.8674472132,
				"y": 2.6817659055,
				"z": -0.6934780199,
				"element": "C" 
			},
			{
				"x": -1.6535883365,
				"y": 1.7657312393,
				"z": -0.8698354507,
				"element": "C" 
			},
			{
				"x": -2.0174851637,
				"y": 0.2804345206,
				"z": -0.6760051462,
				"element": "C" 
			},
			{
				"x": -0.8413884724,
				"y": -0.6388233955,
				"z": -0.8420508509,
				"element": "C" 
			},
			{
				"x": -0.727531297,
				"y": -1.2791033962,
				"z": -1.982150769,
				"element": "N" 
			},
			{
				"x": 0.4503285895,
				"y": -2.0453237902,
				"z": -1.9489920504,
				"element": "O" 
			},
			{
				"x": 1.0390688607,
				"y": -1.8468614193,
				"z": -0.7533357921,
				"element": "C" 
			},
			{
				"x": 0.2740069833,
				"y": -0.9587373517,
				"z": 0.0239656304,
				"element": "C" 
			},
			{
				"x": 0.7849942185,
				"y": -0.6820193065,
				"z": 1.3134743394,
				"element": "C" 
			},
			{
				"x": 1.9829000519,
				"y": -1.3020154922,
				"z": 1.6660000831,
				"element": "C" 
			},
			{
				"x": 2.6518101847,
				"y": -2.1728952716,
				"z": 0.7750888259,
				"element": "C" 
			},
			{
				"x": 3.9465006117,
				"y": -2.8305699027,
				"z": 1.1776865116,
				"element": "C" 
			},
			{
				"x": 2.1769025592,
				"y": -2.4521618858,
				"z": -0.4439735213,
				"element": "N" 
			},
			{
				"x": 0.0887518787,
				"y": 0.209356671,
				"z": 2.2860348632,
				"element": "C" 
			},
			{
				"x": 0.7919379786,
				"y": 0.3850748288,
				"z": 3.4289376517,
				"element": "O" 
			},
			{
				"x": -0.9923989436,
				"y": 0.7346688217,
				"z": 2.1122329161,
				"element": "O" 
			},
			{
				"x": -2.5962717001,
				"y": 3.7310063172,
				"z": -0.8486214882,
				"element": "H" 
			},
			{
				"x": -3.284387488,
				"y": 2.589510198,
				"z": 0.3153167018,
				"element": "H" 
			},
			{
				"x": -3.6610066903,
				"y": 2.4339478483,
				"z": -1.4076456749,
				"element": "H" 
			},
			{
				"x": -0.8779060352,
				"y": 2.0433833387,
				"z": -0.1485414139,
				"element": "H" 
			},
			{
				"x": -1.2238665137,
				"y": 1.8980485031,
				"z": -1.8703851616,
				"element": "H" 
			},
			{
				"x": -2.7631739951,
				"y": -0.0119563551,
				"z": -1.4229051373,
				"element": "H" 
			},
			{
				"x": -2.4506834555,
				"y": 0.1402360518,
				"z": 0.3164774194,
				"element": "H" 
			},
			{
				"x": 2.4084484356,
				"y": -1.116905092,
				"z": 2.6444258475,
				"element": "H" 
			},
			{
				"x": 3.8168214023,
				"y": -3.4343694476,
				"z": 2.0828115566,
				"element": "H" 
			},
			{
				"x": 4.2995347546,
				"y": -3.4741673115,
				"z": 0.3711032693,
				"element": "H" 
			},
			{
				"x": 4.7163852834,
				"y": -2.0817580883,
				"z": 1.3956672116,
				"element": "H" 
			},
			{
				"x": 0.2499435117,
				"y": 0.9655032623,
				"z": 3.9884976485,
				"element": "H" 
			}
		],
		 "valence_orbital": [ 
			{
				"type": "occ",
				"energy": -0.31183,
				"method": "rhf"
			},
			{
				"type": "occ",
				"energy": -0.30125,
				"method": "rhf"
			},
			{
				"type": "occ",
				"energy": -0.28103,
				"method": "rhf"
			},
			{
				"type": "occ",
				"energy": -0.26929,
				"method": "rhf"
			},
			{
				"type": "occ",
				"energy": -0.26142,
				"method": "rhf"
			},
			{
				"type": "unocc",
				"energy": -0.08784,
				"method": "rhf"
			},
			{
				"type": "unocc",
				"energy": -0.02555,
				"method": "rhf"
			},
			{
				"type": "unocc",
				"energy": 0.02095,
				"method": "rhf"
			},
			{
				"type": "unocc",
				"energy": 0.04077,
				"method": "rhf"
			},
			{
				"type": "unocc",
				"energy": 0.06156,
				"method": "rhf"
			}
		],
		"cosmo_sigma_profile": { 
			"-0.025": 0.0,
			"-0.024": 0.0,
			"-0.023": 0.0,
			"-0.022": 0.0,
			"-0.021": 0.0,
			"-0.02": 0.0,
			"-0.019": 0.444572521843,
			"-0.018": 1.09847315796,
			"-0.017": 0.874424540912,
			"-0.016": 0.972044202723,
			"-0.015": 0.49141927144,
			"-0.014": 0.487010656779,
			"-0.013": 0.657848993352,
			"-0.012": 1.210979882,
			"-0.011": 0.635184988696,
			"-0.01": 0.29396025156,
			"-0.009": 0.48221432087,
			"-0.008": 1.5504189608,
			"-0.007": 2.0962375247,
			"-0.006": 4.65841100771,
			"-0.005": 9.5765003629,
			"-0.004": 13.3712353464,
			"-0.003": 26.3937451826,
			"-0.002": 35.2786354272,
			"-0.001": 39.0128972518,
			"0.0": 25.9036887232,
			"0.001": 19.3986085097,
			"0.002": 9.11422110966,
			"0.003": 6.74519816307,
			"0.004": 6.08479426313,
			"0.005": 8.05132958795,
			"0.006": 6.71404261069,
			"0.007": 9.00353678721,
			"0.008": 7.31848856253,
			"0.009": 4.04762226042,
			"0.01": 4.04009215764,
			"0.011": 2.82899022766,
			"0.012": 2.42055460969,
			"0.013": 1.90921324974,
			"0.014": 0.576523806563,
			"0.015": 0.0,
			"0.016": 0.0,
			"0.017": 0.0,
			"0.018": 0.0,
			"0.019": 0.0,
			"0.02": 0.0,
			"0.021": 0.0,
			"0.022": 0.0,
			"0.023": 0.0,
			"0.024": 0.0,
			"0.025": 0.0
		}
	}
}
