{
	 "smiles": "CC1=CC(N)=C(C)C=C1", 
	 "Tm": 286.95, 
	 "num_atms": 20, 
	 "gaussian": { 
		 "optdone": 1, 
		 "sigma_profile": "yes", 
		 "theory": "DFT", 
		 "functional": "B3LYP", 
		 "basiset": "6-31G**", 
		 "properties": { 
			 "R2extent": 1451.4248, 
			 "electric_dipole_moment_norm": 1.64201674169, 
			 "electric_quadrupole_moment_norm": 7.48045578758, 
			 "total_energy": -366.249803901, 
			 "HOMO_LUMO_gap": 0.20699, 
			 "cosmo_polarized_energy": -7.4, 
			 "cosmo_cavitation_energy": 22.55, 
			 "cosmo_dispersion_energy": -16.8, 
			 "cosmo_repulsion_energy": 1.38, 
			 "cosmo_total_nonelectrostatic_energy": 7.13, 
			 "SMD_solvation_energy": 3.86 
		},
		"coords": [
			{
				"x": 0.4516249461,
				"y": 2.2915183278,
				"z": -2.6252388945,
				"element": "C" 
			},
			{
				"x": 0.086547457,
				"y": 1.3253701428,
				"z": -1.5217189731,
				"element": "C" 
			},
			{
				"x": -0.9899173711,
				"y": 1.595967276,
				"z": -0.6715236803,
				"element": "C" 
			},
			{
				"x": -1.3366622982,
				"y": 0.7332665361,
				"z": 0.3779766131,
				"element": "C" 
			},
			{
				"x": -2.4603172731,
				"y": 1.002522586,
				"z": 1.1703259887,
				"element": "N" 
			},
			{
				"x": -0.584853722,
				"y": -0.4449970195,
				"z": 0.5914704474,
				"element": "C" 
			},
			{
				"x": -0.9548601502,
				"y": -1.3957101366,
				"z": 1.7026408936,
				"element": "C" 
			},
			{
				"x": 0.4889898809,
				"y": -0.7021547128,
				"z": -0.262243736,
				"element": "C" 
			},
			{
				"x": 0.8290261239,
				"y": 0.1595934054,
				"z": -1.3060522679,
				"element": "C" 
			},
			{
				"x": 1.0451779378,
				"y": 1.8017863079,
				"z": -3.4027653124,
				"element": "H" 
			},
			{
				"x": -0.4393046709,
				"y": 2.717168561,
				"z": -3.0985872074,
				"element": "H" 
			},
			{
				"x": 1.0453831573,
				"y": 3.130821612,
				"z": -2.2411042928,
				"element": "H" 
			},
			{
				"x": -1.5813557043,
				"y": 2.4970639817,
				"z": -0.8272838805,
				"element": "H" 
			},
			{
				"x": -2.411298078,
				"y": 0.6547137039,
				"z": 2.1182055216,
				"element": "H" 
			},
			{
				"x": -2.7650057707,
				"y": 1.9664420082,
				"z": 1.1476835168,
				"element": "H" 
			},
			{
				"x": -0.3111238976,
				"y": -2.2790614705,
				"z": 1.6934393935,
				"element": "H" 
			},
			{
				"x": -1.9945540271,
				"y": -1.7353495778,
				"z": 1.6136403559,
				"element": "H" 
			},
			{
				"x": -0.8535077652,
				"y": -0.9340670335,
				"z": 2.6959990591,
				"element": "H" 
			},
			{
				"x": 1.0708115927,
				"y": -1.6080766424,
				"z": -0.1068938655,
				"element": "H" 
			},
			{
				"x": 1.6691996326,
				"y": -0.0765178555,
				"z": -1.9533696792,
				"element": "H" 
			}
		],
		 "valence_orbital": [ 
			{
				"type": "occ",
				"energy": -0.3345,
				"method": "rhf"
			},
			{
				"type": "occ",
				"energy": -0.32478,
				"method": "rhf"
			},
			{
				"type": "occ",
				"energy": -0.29381,
				"method": "rhf"
			},
			{
				"type": "occ",
				"energy": -0.22507,
				"method": "rhf"
			},
			{
				"type": "occ",
				"energy": -0.1928,
				"method": "rhf"
			},
			{
				"type": "unocc",
				"energy": 0.01419,
				"method": "rhf"
			},
			{
				"type": "unocc",
				"energy": 0.02686,
				"method": "rhf"
			},
			{
				"type": "unocc",
				"energy": 0.08052,
				"method": "rhf"
			},
			{
				"type": "unocc",
				"energy": 0.10967,
				"method": "rhf"
			},
			{
				"type": "unocc",
				"energy": 0.11768,
				"method": "rhf"
			}
		],
		"cosmo_sigma_profile": { 
			"-0.025": 0.0,
			"-0.024": 0.0,
			"-0.023": 0.0,
			"-0.022": 0.0,
			"-0.021": 0.0,
			"-0.02": 0.0,
			"-0.019": 0.0,
			"-0.018": 0.0,
			"-0.017": 0.0,
			"-0.016": 0.0,
			"-0.015": 0.0,
			"-0.014": 0.0,
			"-0.013": 0.0,
			"-0.012": 0.738876854211,
			"-0.011": 2.43717513643,
			"-0.01": 2.22712234532,
			"-0.009": 3.23530247134,
			"-0.008": 3.4423993489,
			"-0.007": 2.04883481255,
			"-0.006": 3.09394956071,
			"-0.005": 4.26592718563,
			"-0.004": 13.2735197432,
			"-0.003": 18.7160336116,
			"-0.002": 17.1087267234,
			"-0.001": 16.2381055013,
			"0.0": 18.3760624697,
			"0.001": 15.8792482103,
			"0.002": 8.13398175216,
			"0.003": 6.97480346929,
			"0.004": 6.62566025125,
			"0.005": 7.00984534397,
			"0.006": 8.35787477949,
			"0.007": 7.73159100409,
			"0.008": 6.22571970205,
			"0.009": 1.2652298471,
			"0.01": 0.431141402761,
			"0.011": 0.671677665675,
			"0.012": 0.806986554101,
			"0.013": 0.563733064952,
			"0.014": 0.666276651435,
			"0.015": 0.412001409517,
			"0.016": 0.0729450215993,
			"0.017": 0.0,
			"0.018": 0.0,
			"0.019": 0.0,
			"0.02": 0.0,
			"0.021": 0.0,
			"0.022": 0.0,
			"0.023": 0.0,
			"0.024": 0.0,
			"0.025": 0.0
		}
	}
}
