{
	 "smiles": "CCNC1=CC2=C(C=C1C)C(C)=CC(=O)O2", 
	 "Tm": 442.15, 
	 "num_atms": 31, 
	 "gaussian": { 
		 "optdone": 1, 
		 "sigma_profile": "yes", 
		 "theory": "DFT", 
		 "functional": "B3LYP", 
		 "basiset": "6-31G**", 
		 "properties": { 
			 "R2extent": 5556.5501, 
			 "electric_dipole_moment_norm": 5.8754642174, 
			 "electric_quadrupole_moment_norm": 27.6597572961, 
			 "total_energy": -709.645010924, 
			 "HOMO_LUMO_gap": 0.15461, 
			 "cosmo_polarized_energy": -14.22, 
			 "cosmo_cavitation_energy": 33.68, 
			 "cosmo_dispersion_energy": -24.1, 
			 "cosmo_repulsion_energy": 1.87, 
			 "cosmo_total_nonelectrostatic_energy": 11.45, 
			 "SMD_solvation_energy": 5.97 
		},
		"coords": [
			{
				"x": 1.8174300274,
				"y": 0.7941442679,
				"z": -3.643899836,
				"element": "C" 
			},
			{
				"x": 0.8046524351,
				"y": -0.2854145684,
				"z": -4.0429232791,
				"element": "C" 
			},
			{
				"x": 0.9162902171,
				"y": -1.5431137714,
				"z": -3.2851831791,
				"element": "N" 
			},
			{
				"x": 0.6785776474,
				"y": -1.5725735113,
				"z": -1.8981086334,
				"element": "C" 
			},
			{
				"x": 1.7062873233,
				"y": -1.9841673223,
				"z": -1.0391374474,
				"element": "C" 
			},
			{
				"x": 1.4913305496,
				"y": -2.0982536599,
				"z": 0.3303781376,
				"element": "C" 
			},
			{
				"x": 0.243183971,
				"y": -1.784883373,
				"z": 0.8998418401,
				"element": "C" 
			},
			{
				"x": -0.7799298746,
				"y": -1.38512906,
				"z": 0.0191216974,
				"element": "C" 
			},
			{
				"x": -0.6067002803,
				"y": -1.2812951229,
				"z": -1.3565265905,
				"element": "C" 
			},
			{
				"x": -1.787772062,
				"y": -0.946874139,
				"z": -2.2361406172,
				"element": "C" 
			},
			{
				"x": 0.0969489166,
				"y": -1.9136479429,
				"z": 2.3373825015,
				"element": "C" 
			},
			{
				"x": -1.2185914762,
				"y": -1.5998102332,
				"z": 2.9977361117,
				"element": "C" 
			},
			{
				"x": 1.169773395,
				"y": -2.3200677586,
				"z": 3.0666372578,
				"element": "C" 
			},
			{
				"x": 2.4608205743,
				"y": -2.635903823,
				"z": 2.4770264778,
				"element": "C" 
			},
			{
				"x": 3.4511199791,
				"y": -2.9975164155,
				"z": 3.0705956606,
				"element": "O" 
			},
			{
				"x": 2.5496161472,
				"y": -2.5050862875,
				"z": 1.0885955115,
				"element": "O" 
			},
			{
				"x": 1.681618569,
				"y": 1.6939005707,
				"z": -4.2538373453,
				"element": "H" 
			},
			{
				"x": 2.8463716499,
				"y": 0.44507686,
				"z": -3.7867824954,
				"element": "H" 
			},
			{
				"x": 1.7006538956,
				"y": 1.074619186,
				"z": -2.5924916918,
				"element": "H" 
			},
			{
				"x": -0.2106300312,
				"y": 0.1018295569,
				"z": -3.9405177692,
				"element": "H" 
			},
			{
				"x": 0.9287078524,
				"y": -0.5453337437,
				"z": -5.1000966613,
				"element": "H" 
			},
			{
				"x": 1.801992052,
				"y": -1.9908754754,
				"z": -3.4964154776,
				"element": "H" 
			},
			{
				"x": 2.6950222962,
				"y": -2.2110231018,
				"z": -1.4260803554,
				"element": "H" 
			},
			{
				"x": -1.7639758446,
				"y": -1.1730327571,
				"z": 0.4267164283,
				"element": "H" 
			},
			{
				"x": -2.7248462884,
				"y": -1.1688234122,
				"z": -1.7178696357,
				"element": "H" 
			},
			{
				"x": -1.7609935784,
				"y": -1.5319042835,
				"z": -3.1607722301,
				"element": "H" 
			},
			{
				"x": -1.8210589476,
				"y": 0.1130063094,
				"z": -2.5183066504,
				"element": "H" 
			},
			{
				"x": -1.5193402995,
				"y": -0.5637981002,
				"z": 2.804338602,
				"element": "H" 
			},
			{
				"x": -2.0165922973,
				"y": -2.2437844574,
				"z": 2.6105724626,
				"element": "H" 
			},
			{
				"x": -1.1584534025,
				"y": -1.742793181,
				"z": 4.0785872976,
				"element": "H" 
			},
			{
				"x": 1.1183868842,
				"y": -2.4321712497,
				"z": 4.1436599086,
				"element": "H" 
			}
		],
		 "valence_orbital": [ 
			{
				"type": "occ",
				"energy": -0.31062,
				"method": "rhf"
			},
			{
				"type": "occ",
				"energy": -0.26478,
				"method": "rhf"
			},
			{
				"type": "occ",
				"energy": -0.26027,
				"method": "rhf"
			},
			{
				"type": "occ",
				"energy": -0.23683,
				"method": "rhf"
			},
			{
				"type": "occ",
				"energy": -0.20776,
				"method": "rhf"
			},
			{
				"type": "unocc",
				"energy": -0.05315,
				"method": "rhf"
			},
			{
				"type": "unocc",
				"energy": -0.00386,
				"method": "rhf"
			},
			{
				"type": "unocc",
				"energy": 0.0135,
				"method": "rhf"
			},
			{
				"type": "unocc",
				"energy": 0.07296,
				"method": "rhf"
			},
			{
				"type": "unocc",
				"energy": 0.09016,
				"method": "rhf"
			}
		],
		"cosmo_sigma_profile": { 
			"-0.025": 0.0,
			"-0.024": 0.0,
			"-0.023": 0.0,
			"-0.022": 0.0,
			"-0.021": 0.0,
			"-0.02": 0.0,
			"-0.019": 0.0,
			"-0.018": 0.0,
			"-0.017": 0.0,
			"-0.016": 0.0,
			"-0.015": 0.0,
			"-0.014": 0.0,
			"-0.013": 0.0,
			"-0.012": 0.877688027479,
			"-0.011": 1.49350526101,
			"-0.01": 1.54269536574,
			"-0.009": 1.53491054995,
			"-0.008": 1.76447277176,
			"-0.007": 3.60223886609,
			"-0.006": 7.95116089058,
			"-0.005": 17.6273405155,
			"-0.004": 19.7255578094,
			"-0.003": 24.9032923574,
			"-0.002": 29.6549385552,
			"-0.001": 30.5598935775,
			"0.0": 26.6199486371,
			"0.001": 23.7547930766,
			"0.002": 15.8224055784,
			"0.003": 14.229786446,
			"0.004": 10.1543077154,
			"0.005": 3.52637728321,
			"0.006": 2.59429574223,
			"0.007": 2.6322144562,
			"0.008": 2.69562106005,
			"0.009": 4.09987663079,
			"0.01": 2.79838775888,
			"0.011": 3.20176086787,
			"0.012": 5.77491252787,
			"0.013": 5.60926900078,
			"0.014": 1.33598463203,
			"0.015": 0.0,
			"0.016": 0.0,
			"0.017": 0.0,
			"0.018": 0.0,
			"0.019": 0.0,
			"0.02": 0.0,
			"0.021": 0.0,
			"0.022": 0.0,
			"0.023": 0.0,
			"0.024": 0.0,
			"0.025": 0.0
		}
	}
}
