{
	 "smiles": "CC1=CC(O)=CC(C)=C1C#N", 
	 "Tm": 449.15, 
	 "num_atms": 20, 
	 "gaussian": { 
		 "optdone": 1, 
		 "sigma_profile": "yes", 
		 "theory": "DFT", 
		 "functional": "B3LYP", 
		 "basiset": "6-31G**", 
		 "properties": { 
			 "R2extent": 1876.2572, 
			 "electric_dipole_moment_norm": 4.52689088559, 
			 "electric_quadrupole_moment_norm": 13.4578737856, 
			 "total_energy": -478.355346099, 
			 "HOMO_LUMO_gap": 0.19667, 
			 "cosmo_polarized_energy": -13.16, 
			 "cosmo_cavitation_energy": 24.59, 
			 "cosmo_dispersion_energy": -17.35, 
			 "cosmo_repulsion_energy": 1.39, 
			 "cosmo_total_nonelectrostatic_energy": 8.63, 
			 "SMD_solvation_energy": 5.74 
		},
		"coords": [
			{
				"x": -2.578192593,
				"y": -0.3214182076,
				"z": -0.1249956885,
				"element": "C" 
			},
			{
				"x": -1.2341461701,
				"y": 0.2883525548,
				"z": -0.436120591,
				"element": "C" 
			},
			{
				"x": -1.1210342838,
				"y": 1.3285668631,
				"z": -1.3528998111,
				"element": "C" 
			},
			{
				"x": 0.1276768213,
				"y": 1.8913343692,
				"z": -1.6386135657,
				"element": "C" 
			},
			{
				"x": 0.1590466112,
				"y": 2.904623049,
				"z": -2.5456145763,
				"element": "O" 
			},
			{
				"x": 1.2804768492,
				"y": 1.4146291717,
				"z": -1.0051830787,
				"element": "C" 
			},
			{
				"x": 1.2047921776,
				"y": 0.3737996282,
				"z": -0.0811993568,
				"element": "C" 
			},
			{
				"x": 2.4465236315,
				"y": -0.1414876573,
				"z": 0.6028345951,
				"element": "C" 
			},
			{
				"x": -0.0614705182,
				"y": -0.187619585,
				"z": 0.2002369778,
				"element": "C" 
			},
			{
				"x": -0.1590947905,
				"y": -1.2568729864,
				"z": 1.1461283983,
				"element": "C" 
			},
			{
				"x": -0.2366570038,
				"y": -2.1273995496,
				"z": 1.9163071305,
				"element": "N" 
			},
			{
				"x": -2.8186832685,
				"y": -0.2267587446,
				"z": 0.9394452776,
				"element": "H" 
			},
			{
				"x": -2.5895829976,
				"y": -1.3922707076,
				"z": -0.3551681668,
				"element": "H" 
			},
			{
				"x": -3.3708859138,
				"y": 0.1618963993,
				"z": -0.7004158231,
				"element": "H" 
			},
			{
				"x": -1.9968192507,
				"y": 1.7194612437,
				"z": -1.8600386216,
				"element": "H" 
			},
			{
				"x": 1.0696430176,
				"y": 3.2081824532,
				"z": -2.657721614,
				"element": "H" 
			},
			{
				"x": 2.247034504,
				"y": 1.858729314,
				"z": -1.2339817605,
				"element": "H" 
			},
			{
				"x": 2.5987592885,
				"y": -1.2063863252,
				"z": 0.3967561022,
				"element": "H" 
			},
			{
				"x": 2.3696675755,
				"y": -0.0406355638,
				"z": 1.6907580211,
				"element": "H" 
			},
			{
				"x": 3.3342463135,
				"y": 0.4018742809,
				"z": 0.2704861514,
				"element": "H" 
			}
		],
		 "valence_orbital": [ 
			{
				"type": "occ",
				"energy": -0.34834,
				"method": "rhf"
			},
			{
				"type": "occ",
				"energy": -0.31995,
				"method": "rhf"
			},
			{
				"type": "occ",
				"energy": -0.31798,
				"method": "rhf"
			},
			{
				"type": "occ",
				"energy": -0.25826,
				"method": "rhf"
			},
			{
				"type": "occ",
				"energy": -0.23297,
				"method": "rhf"
			},
			{
				"type": "unocc",
				"energy": -0.0363,
				"method": "rhf"
			},
			{
				"type": "unocc",
				"energy": -0.01347,
				"method": "rhf"
			},
			{
				"type": "unocc",
				"energy": 0.04228,
				"method": "rhf"
			},
			{
				"type": "unocc",
				"energy": 0.05801,
				"method": "rhf"
			},
			{
				"type": "unocc",
				"energy": 0.08631,
				"method": "rhf"
			}
		],
		"cosmo_sigma_profile": { 
			"-0.025": 0.0,
			"-0.024": 0.0,
			"-0.023": 0.0,
			"-0.022": 0.0,
			"-0.021": 0.0,
			"-0.02": 0.0,
			"-0.019": 0.188233520716,
			"-0.018": 1.06576997315,
			"-0.017": 1.02629845288,
			"-0.016": 1.12298690455,
			"-0.015": 1.25083385237,
			"-0.014": 0.657492280401,
			"-0.013": 0.965921101666,
			"-0.012": 1.15521995013,
			"-0.011": 0.750048445474,
			"-0.01": 0.973610039438,
			"-0.009": 1.2400187973,
			"-0.008": 1.34387969571,
			"-0.007": 2.88153823629,
			"-0.006": 6.15858899286,
			"-0.005": 12.2664011389,
			"-0.004": 13.4251850943,
			"-0.003": 16.037577128,
			"-0.002": 14.3379642807,
			"-0.001": 22.1447574113,
			"0.0": 17.1346267107,
			"0.001": 11.5630734059,
			"0.002": 11.7523342613,
			"0.003": 16.1281990468,
			"0.004": 5.12112095543,
			"0.005": 3.94329754156,
			"0.006": 3.84646880527,
			"0.007": 3.24756541053,
			"0.008": 3.51562373776,
			"0.009": 4.55459482546,
			"0.01": 5.59522426348,
			"0.011": 4.00018192715,
			"0.012": 2.99335582958,
			"0.013": 2.31776541456,
			"0.014": 1.01604553026,
			"0.015": 0.0,
			"0.016": 0.0,
			"0.017": 0.0,
			"0.018": 0.0,
			"0.019": 0.0,
			"0.02": 0.0,
			"0.021": 0.0,
			"0.022": 0.0,
			"0.023": 0.0,
			"0.024": 0.0,
			"0.025": 0.0
		}
	}
}
