{
	 "smiles": "OC(=O)C1=CC=C(COC2=CC=C(F)C=C2)O1", 
	 "Tm": 439.15, 
	 "num_atms": 26, 
	 "gaussian": { 
		 "optdone": 1, 
		 "sigma_profile": "yes", 
		 "theory": "DFT", 
		 "functional": "B3LYP", 
		 "basiset": "6-31G**", 
		 "properties": { 
			 "R2extent": 7391.0354, 
			 "electric_dipole_moment_norm": 1.79808917465, 
			 "electric_quadrupole_moment_norm": 8.45980770585, 
			 "total_energy": -863.405873914, 
			 "HOMO_LUMO_gap": 0.17935, 
			 "cosmo_polarized_energy": -13.79, 
			 "cosmo_cavitation_energy": 32.95, 
			 "cosmo_dispersion_energy": -23.81, 
			 "cosmo_repulsion_energy": 1.82, 
			 "cosmo_total_nonelectrostatic_energy": 10.96, 
			 "SMD_solvation_energy": 8.13 
		},
		"coords": [
			{
				"x": 0.6246759545,
				"y": 1.4860569132,
				"z": 5.8774276644,
				"element": "O" 
			},
			{
				"x": 1.1726810895,
				"y": 1.7566676429,
				"z": 4.6631807933,
				"element": "C" 
			},
			{
				"x": 2.1888825583,
				"y": 2.4044064296,
				"z": 4.5204820421,
				"element": "O" 
			},
			{
				"x": 0.3778514343,
				"y": 1.1676374555,
				"z": 3.5877145494,
				"element": "C" 
			},
			{
				"x": -0.7710113996,
				"y": 0.4215998046,
				"z": 3.5652942699,
				"element": "C" 
			},
			{
				"x": -1.0494071918,
				"y": 0.1464050014,
				"z": 2.1948371008,
				"element": "C" 
			},
			{
				"x": -0.0475449786,
				"y": 0.7463383878,
				"z": 1.4824696878,
				"element": "C" 
			},
			{
				"x": 0.2581089347,
				"y": 0.8438557806,
				"z": 0.0239119368,
				"element": "C" 
			},
			{
				"x": -0.7596826122,
				"y": 0.1418955214,
				"z": -0.6644523369,
				"element": "O" 
			},
			{
				"x": -0.6960699984,
				"y": 0.0894026109,
				"z": -2.0333695253,
				"element": "C" 
			},
			{
				"x": -1.7312442562,
				"y": -0.6206023296,
				"z": -2.6581163007,
				"element": "C" 
			},
			{
				"x": -1.7656831842,
				"y": -0.737292583,
				"z": -4.0428103699,
				"element": "C" 
			},
			{
				"x": -0.7587027086,
				"y": -0.1395838103,
				"z": -4.7970934407,
				"element": "C" 
			},
			{
				"x": -0.7909290905,
				"y": -0.2522146724,
				"z": -6.1433180705,
				"element": "F" 
			},
			{
				"x": 0.2732576275,
				"y": 0.5664774651,
				"z": -4.1985344985,
				"element": "C" 
			},
			{
				"x": 0.3079319905,
				"y": 0.6839323188,
				"z": -2.8049015477,
				"element": "C" 
			},
			{
				"x": 0.8263205497,
				"y": 1.3697899212,
				"z": 2.3080164241,
				"element": "O" 
			},
			{
				"x": 1.2089341764,
				"y": 1.9090786027,
				"z": 6.527572911,
				"element": "H" 
			},
			{
				"x": -1.3387114979,
				"y": 0.1137188522,
				"z": 4.4307594793,
				"element": "H" 
			},
			{
				"x": -1.8720838784,
				"y": -0.4154551166,
				"z": 1.7807827816,
				"element": "H" 
			},
			{
				"x": 0.2910346234,
				"y": 1.9001776361,
				"z": -0.285247694,
				"element": "H" 
			},
			{
				"x": 1.2491578195,
				"y": 0.4115968916,
				"z": -0.1845394148,
				"element": "H" 
			},
			{
				"x": -2.498871277,
				"y": -1.0732844834,
				"z": -2.039600909,
				"element": "H" 
			},
			{
				"x": -2.5587940877,
				"y": -1.2827245176,
				"z": -4.5425741773,
				"element": "H" 
			},
			{
				"x": 1.0416078162,
				"y": 1.019665014,
				"z": -4.8153684378,
				"element": "H" 
			},
			{
				"x": 1.1178915867,
				"y": 1.2373552632,
				"z": -2.3453229174,
				"element": "H" 
			}
		],
		 "valence_orbital": [ 
			{
				"type": "occ",
				"energy": -0.29636,
				"method": "rhf"
			},
			{
				"type": "occ",
				"energy": -0.27962,
				"method": "rhf"
			},
			{
				"type": "occ",
				"energy": -0.26737,
				"method": "rhf"
			},
			{
				"type": "occ",
				"energy": -0.24161,
				"method": "rhf"
			},
			{
				"type": "occ",
				"energy": -0.22608,
				"method": "rhf"
			},
			{
				"type": "unocc",
				"energy": -0.04673,
				"method": "rhf"
			},
			{
				"type": "unocc",
				"energy": -0.01787,
				"method": "rhf"
			},
			{
				"type": "unocc",
				"energy": 0.0081,
				"method": "rhf"
			},
			{
				"type": "unocc",
				"energy": 0.03681,
				"method": "rhf"
			},
			{
				"type": "unocc",
				"energy": 0.07474,
				"method": "rhf"
			}
		],
		"cosmo_sigma_profile": { 
			"-0.025": 0.0,
			"-0.024": 0.0,
			"-0.023": 0.0,
			"-0.022": 0.0,
			"-0.021": 0.0,
			"-0.02": 0.0,
			"-0.019": 0.0631087024713,
			"-0.018": 1.14190641664,
			"-0.017": 0.715103376388,
			"-0.016": 0.797293617529,
			"-0.015": 0.795197073404,
			"-0.014": 0.279868056977,
			"-0.013": 0.775224329351,
			"-0.012": 0.700500282886,
			"-0.011": 1.11133771804,
			"-0.01": 0.811615470493,
			"-0.009": 0.745647703563,
			"-0.008": 6.92824644039,
			"-0.007": 16.7106200879,
			"-0.006": 15.3815467715,
			"-0.005": 11.912866606,
			"-0.004": 12.5301571955,
			"-0.003": 12.7294498516,
			"-0.002": 12.6923604028,
			"-0.001": 15.2141946325,
			"0.0": 16.843502555,
			"0.001": 22.2821084415,
			"0.002": 24.3920877555,
			"0.003": 25.9743936997,
			"0.004": 21.66098022,
			"0.005": 12.4915715708,
			"0.006": 5.27005586497,
			"0.007": 4.30891576538,
			"0.008": 3.94645290346,
			"0.009": 1.80584241504,
			"0.01": 2.96647057414,
			"0.011": 4.47054525987,
			"0.012": 5.15630007204,
			"0.013": 0.875065335684,
			"0.014": 0.0,
			"0.015": 0.0,
			"0.016": 0.0,
			"0.017": 0.0,
			"0.018": 0.0,
			"0.019": 0.0,
			"0.02": 0.0,
			"0.021": 0.0,
			"0.022": 0.0,
			"0.023": 0.0,
			"0.024": 0.0,
			"0.025": 0.0
		}
	}
}
