{
	 "smiles": "OC(=O)C1=CSC(=N1)C1=CC2=C(OCO2)C=C1", 
	 "Tm": 496.15, 
	 "num_atms": 24, 
	 "gaussian": { 
		 "optdone": 1, 
		 "sigma_profile": "yes", 
		 "theory": "DFT", 
		 "functional": "B3LYP", 
		 "basiset": "6-31G**", 
		 "properties": { 
			 "R2extent": 5952.9411, 
			 "electric_dipole_moment_norm": 6.74775005317, 
			 "electric_quadrupole_moment_norm": 28.5751407146, 
			 "total_energy": -1177.20774722, 
			 "HOMO_LUMO_gap": 0.1495, 
			 "cosmo_polarized_energy": -14.42, 
			 "cosmo_cavitation_energy": 31.12, 
			 "cosmo_dispersion_energy": -23.99, 
			 "cosmo_repulsion_energy": 1.78, 
			 "cosmo_total_nonelectrostatic_energy": 8.91, 
			 "SMD_solvation_energy": 6.42 
		},
		"coords": [
			{
				"x": 0.0514293833,
				"y": -0.5417732461,
				"z": -4.4349369357,
				"element": "O" 
			},
			{
				"x": -1.2935428195,
				"y": -0.5384379417,
				"z": -4.3353009656,
				"element": "C" 
			},
			{
				"x": -2.0205168918,
				"y": -0.5906719092,
				"z": -5.3002984788,
				"element": "O" 
			},
			{
				"x": -1.7903538205,
				"y": -0.4645894453,
				"z": -2.930057394,
				"element": "C" 
			},
			{
				"x": -3.1083195607,
				"y": -0.4472433799,
				"z": -2.5701847642,
				"element": "C" 
			},
			{
				"x": -3.2402167781,
				"y": -0.3562513553,
				"z": -0.8528713827,
				"element": "S" 
			},
			{
				"x": -1.4712097812,
				"y": -0.3471070505,
				"z": -0.7290315046,
				"element": "C" 
			},
			{
				"x": -0.8833377014,
				"y": -0.4084653423,
				"z": -1.8972491443,
				"element": "N" 
			},
			{
				"x": -0.766136632,
				"y": -0.2778710811,
				"z": 0.553560903,
				"element": "C" 
			},
			{
				"x": 0.6525414877,
				"y": -0.2788614277,
				"z": 0.5393623664,
				"element": "C" 
			},
			{
				"x": 1.2914994486,
				"y": -0.2131314259,
				"z": 1.7548597613,
				"element": "C" 
			},
			{
				"x": 0.592629857,
				"y": -0.1475772139,
				"z": 2.9619956952,
				"element": "C" 
			},
			{
				"x": 1.4723557325,
				"y": -0.0901728028,
				"z": 4.005877047,
				"element": "O" 
			},
			{
				"x": 2.7861864533,
				"y": -0.1275700377,
				"z": 3.4262471967,
				"element": "C" 
			},
			{
				"x": 2.6402880301,
				"y": -0.1988100567,
				"z": 2.0034691736,
				"element": "O" 
			},
			{
				"x": -0.7885110061,
				"y": -0.145129915,
				"z": 3.0020928353,
				"element": "C" 
			},
			{
				"x": -1.4589745644,
				"y": -0.2117251814,
				"z": 1.7716498664,
				"element": "C" 
			},
			{
				"x": 0.4112505596,
				"y": -0.4931578789,
				"z": -3.5295743213,
				"element": "H" 
			},
			{
				"x": -3.9687117426,
				"y": -0.4830192094,
				"z": -3.2218893756,
				"element": "H" 
			},
			{
				"x": 1.1963567306,
				"y": -0.3294317575,
				"z": -0.3948025998,
				"element": "H" 
			},
			{
				"x": 3.3276388059,
				"y": 0.7867908859,
				"z": 3.6954413531,
				"element": "H" 
			},
			{
				"x": 3.316797387,
				"y": -1.016621964,
				"z": 3.7870485307,
				"element": "H" 
			},
			{
				"x": -1.3265381166,
				"y": -0.0939574101,
				"z": 3.9412945188,
				"element": "H" 
			},
			{
				"x": -2.5445044609,
				"y": -0.2111138536,
				"z": 1.777497619,
				"element": "H" 
			}
		],
		 "valence_orbital": [ 
			{
				"type": "occ",
				"energy": -0.30577,
				"method": "rhf"
			},
			{
				"type": "occ",
				"energy": -0.28066,
				"method": "rhf"
			},
			{
				"type": "occ",
				"energy": -0.26889,
				"method": "rhf"
			},
			{
				"type": "occ",
				"energy": -0.25603,
				"method": "rhf"
			},
			{
				"type": "occ",
				"energy": -0.21951,
				"method": "rhf"
			},
			{
				"type": "unocc",
				"energy": -0.07001,
				"method": "rhf"
			},
			{
				"type": "unocc",
				"energy": -0.03599,
				"method": "rhf"
			},
			{
				"type": "unocc",
				"energy": -0.01565,
				"method": "rhf"
			},
			{
				"type": "unocc",
				"energy": 0.00055,
				"method": "rhf"
			},
			{
				"type": "unocc",
				"energy": 0.03557,
				"method": "rhf"
			}
		],
		"cosmo_sigma_profile": { 
			"-0.025": 0.0,
			"-0.024": 0.0,
			"-0.023": 0.0,
			"-0.022": 0.0,
			"-0.021": 0.0,
			"-0.02": 0.0,
			"-0.019": 0.0,
			"-0.018": 0.0,
			"-0.017": 0.0,
			"-0.016": 0.0,
			"-0.015": 0.0,
			"-0.014": 0.183449260353,
			"-0.013": 0.62617079048,
			"-0.012": 0.452470125122,
			"-0.011": 0.859851999551,
			"-0.01": 2.34759430015,
			"-0.009": 2.9269667436,
			"-0.008": 8.78185293982,
			"-0.007": 13.8328536035,
			"-0.006": 15.1490840902,
			"-0.005": 11.2495303192,
			"-0.004": 11.5212208655,
			"-0.003": 13.3250525211,
			"-0.002": 15.4058826657,
			"-0.001": 19.8594259193,
			"0.0": 25.0023319932,
			"0.001": 22.4265994477,
			"0.002": 22.6820715049,
			"0.003": 16.4540894782,
			"0.004": 6.04135119229,
			"0.005": 5.64818104469,
			"0.006": 4.89733521179,
			"0.007": 5.29799554241,
			"0.008": 5.20744714221,
			"0.009": 6.6025480617,
			"0.01": 5.47030106669,
			"0.011": 4.7242079538,
			"0.012": 4.79233277947,
			"0.013": 1.65401209091,
			"0.014": 0.0526764744149,
			"0.015": 0.0,
			"0.016": 0.0,
			"0.017": 0.0,
			"0.018": 0.0,
			"0.019": 0.0,
			"0.02": 0.0,
			"0.021": 0.0,
			"0.022": 0.0,
			"0.023": 0.0,
			"0.024": 0.0,
			"0.025": 0.0
		}
	}
}
