{
	 "smiles": "CCCCCCCCSC#N", 
	 "Tm": 378.15, 
	 "num_atms": 28, 
	 "gaussian": { 
		 "optdone": 1, 
		 "sigma_profile": "yes", 
		 "theory": "DFT", 
		 "functional": "B3LYP", 
		 "basiset": "6-31G**", 
		 "properties": { 
			 "R2extent": 3472.3812, 
			 "electric_dipole_moment_norm": 4.63848122342, 
			 "electric_quadrupole_moment_norm": 19.4359446447, 
			 "total_energy": -806.131907623, 
			 "HOMO_LUMO_gap": 0.2377, 
			 "cosmo_polarized_energy": -7.97, 
			 "cosmo_cavitation_energy": 31.53, 
			 "cosmo_dispersion_energy": -21.83, 
			 "cosmo_repulsion_energy": 1.75, 
			 "cosmo_total_nonelectrostatic_energy": 11.45, 
			 "SMD_solvation_energy": 6.52 
		},
		"coords": [
			{
				"x": -2.3101451208,
				"y": 3.3428933662,
				"z": -1.0584234773,
				"element": "C" 
			},
			{
				"x": -1.2611088721,
				"y": 3.1771196335,
				"z": 0.0475523452,
				"element": "C" 
			},
			{
				"x": -0.9800355773,
				"y": 1.7169802741,
				"z": 0.4450740642,
				"element": "C" 
			},
			{
				"x": -0.4073068915,
				"y": 0.8134566522,
				"z": -0.6635259206,
				"element": "C" 
			},
			{
				"x": 0.9741798486,
				"y": 1.2293375713,
				"z": -1.2088975095,
				"element": "C" 
			},
			{
				"x": 2.1639068065,
				"y": 1.0905115423,
				"z": -0.2302550543,
				"element": "C" 
			},
			{
				"x": 2.9623658444,
				"y": -0.2216248161,
				"z": -0.3456550408,
				"element": "C" 
			},
			{
				"x": 2.2171403764,
				"y": -1.5231358902,
				"z": -0.0374187724,
				"element": "C" 
			},
			{
				"x": 1.7181130768,
				"y": -1.5611488691,
				"z": 1.7578533306,
				"element": "S" 
			},
			{
				"x": 1.0215667572,
				"y": -3.1095545227,
				"z": 1.8230653033,
				"element": "C" 
			},
			{
				"x": 0.5363022047,
				"y": -4.1678250115,
				"z": 1.8994950763,
				"element": "N" 
			},
			{
				"x": -1.9821421806,
				"y": 2.9015105813,
				"z": -2.0054492001,
				"element": "H" 
			},
			{
				"x": -2.5192251309,
				"y": 4.4010129836,
				"z": -1.2470637696,
				"element": "H" 
			},
			{
				"x": -3.2553946846,
				"y": 2.862037061,
				"z": -0.7806964649,
				"element": "H" 
			},
			{
				"x": -1.5998988223,
				"y": 3.7139416611,
				"z": 0.9427293382,
				"element": "H" 
			},
			{
				"x": -0.3288947587,
				"y": 3.6708517673,
				"z": -0.2566213304,
				"element": "H" 
			},
			{
				"x": -1.9155097183,
				"y": 1.2651546346,
				"z": 0.8014528442,
				"element": "H" 
			},
			{
				"x": -0.3030723522,
				"y": 1.7104815238,
				"z": 1.3091572213,
				"element": "H" 
			},
			{
				"x": -1.1129216491,
				"y": 0.7816830895,
				"z": -1.5029855256,
				"element": "H" 
			},
			{
				"x": -0.3642521518,
				"y": -0.21120836,
				"z": -0.2751601601,
				"element": "H" 
			},
			{
				"x": 0.9154845648,
				"y": 2.270787607,
				"z": -1.5460414599,
				"element": "H" 
			},
			{
				"x": 1.189045789,
				"y": 0.645830392,
				"z": -2.1148510147,
				"element": "H" 
			},
			{
				"x": 2.8755860165,
				"y": 1.9040840688,
				"z": -0.4130997401,
				"element": "H" 
			},
			{
				"x": 1.8224695227,
				"y": 1.2304999814,
				"z": 0.8029787106,
				"element": "H" 
			},
			{
				"x": 3.8524393342,
				"y": -0.1635931611,
				"z": 0.2931514762,
				"element": "H" 
			},
			{
				"x": 3.3335644095,
				"y": -0.3196380811,
				"z": -1.3747278202,
				"element": "H" 
			},
			{
				"x": 2.862280763,
				"y": -2.3871268126,
				"z": -0.2081660797,
				"element": "H" 
			},
			{
				"x": 1.3126625957,
				"y": -1.6317188666,
				"z": -0.63857137,
				"element": "H" 
			}
		],
		 "valence_orbital": [ 
			{
				"type": "occ",
				"energy": -0.31981,
				"method": "rhf"
			},
			{
				"type": "occ",
				"energy": -0.3193,
				"method": "rhf"
			},
			{
				"type": "occ",
				"energy": -0.31309,
				"method": "rhf"
			},
			{
				"type": "occ",
				"energy": -0.31185,
				"method": "rhf"
			},
			{
				"type": "occ",
				"energy": -0.26003,
				"method": "rhf"
			},
			{
				"type": "unocc",
				"energy": -0.02233,
				"method": "rhf"
			},
			{
				"type": "unocc",
				"energy": 0.03414,
				"method": "rhf"
			},
			{
				"type": "unocc",
				"energy": 0.0419,
				"method": "rhf"
			},
			{
				"type": "unocc",
				"energy": 0.06518,
				"method": "rhf"
			},
			{
				"type": "unocc",
				"energy": 0.07043,
				"method": "rhf"
			}
		],
		"cosmo_sigma_profile": { 
			"-0.025": 0.0,
			"-0.024": 0.0,
			"-0.023": 0.0,
			"-0.022": 0.0,
			"-0.021": 0.0,
			"-0.02": 0.0,
			"-0.019": 0.0,
			"-0.018": 0.0,
			"-0.017": 0.0,
			"-0.016": 0.0,
			"-0.015": 0.0,
			"-0.014": 0.0,
			"-0.013": 0.0,
			"-0.012": 0.0,
			"-0.011": 0.0,
			"-0.01": 0.0,
			"-0.009": 0.0,
			"-0.008": 0.17505014551,
			"-0.007": 2.97216840563,
			"-0.006": 5.4611017855,
			"-0.005": 6.81299909717,
			"-0.004": 17.4781432052,
			"-0.003": 21.4395480854,
			"-0.002": 32.0874180385,
			"-0.001": 36.6354349828,
			"0.0": 37.3806870973,
			"0.001": 35.250942535,
			"0.002": 16.7331608567,
			"0.003": 5.4722568538,
			"0.004": 4.31508616103,
			"0.005": 3.39977416252,
			"0.006": 2.63903927768,
			"0.007": 2.86449537086,
			"0.008": 3.44051545218,
			"0.009": 3.41389457887,
			"0.01": 3.26114813521,
			"0.011": 2.91634072815,
			"0.012": 2.44497224286,
			"0.013": 1.17152423616,
			"0.014": 0.0,
			"0.015": 0.0,
			"0.016": 0.0,
			"0.017": 0.0,
			"0.018": 0.0,
			"0.019": 0.0,
			"0.02": 0.0,
			"0.021": 0.0,
			"0.022": 0.0,
			"0.023": 0.0,
			"0.024": 0.0,
			"0.025": 0.0
		}
	}
}
