{
	 "smiles": "O=C(NS(=O)(=O)C1=CC=CS1)C1=CC=CC=C1", 
	 "Tm": 366.15, 
	 "num_atms": 26, 
	 "gaussian": { 
		 "optdone": 1, 
		 "sigma_profile": "yes", 
		 "theory": "DFT", 
		 "functional": "B3LYP", 
		 "basiset": "6-31G**", 
		 "properties": { 
			 "R2extent": 6058.5935, 
			 "electric_dipole_moment_norm": 5.0557767959, 
			 "electric_quadrupole_moment_norm": 30.3541805259, 
			 "total_energy": -1501.30989615, 
			 "HOMO_LUMO_gap": 0.19932, 
			 "cosmo_polarized_energy": -17.93, 
			 "cosmo_cavitation_energy": 34.09, 
			 "cosmo_dispersion_energy": -25.43, 
			 "cosmo_repulsion_energy": 1.87, 
			 "cosmo_total_nonelectrostatic_energy": 10.53, 
			 "SMD_solvation_energy": 5.51 
		},
		"coords": [
			{
				"x": 0.3831320328,
				"y": -1.507390723,
				"z": -0.683564112,
				"element": "O" 
			},
			{
				"x": 1.3175818157,
				"y": -0.9791092992,
				"z": -0.1022734628,
				"element": "C" 
			},
			{
				"x": 1.2901959695,
				"y": -0.7558278089,
				"z": 1.2722095265,
				"element": "N" 
			},
			{
				"x": 0.0689424312,
				"y": -1.3367266319,
				"z": 2.3278128442,
				"element": "S" 
			},
			{
				"x": -0.1755834665,
				"y": -2.7467167824,
				"z": 2.0638019466,
				"element": "O" 
			},
			{
				"x": 0.5366010306,
				"y": -0.8554611019,
				"z": 3.6287710826,
				"element": "O" 
			},
			{
				"x": -1.361451865,
				"y": -0.4193966611,
				"z": 1.8708714585,
				"element": "C" 
			},
			{
				"x": -2.2470664258,
				"y": -0.74360473,
				"z": 0.8736986174,
				"element": "C" 
			},
			{
				"x": -3.2924333835,
				"y": 0.214643695,
				"z": 0.7646983364,
				"element": "C" 
			},
			{
				"x": -3.1716417671,
				"y": 1.2347937554,
				"z": 1.6736499624,
				"element": "C" 
			},
			{
				"x": -1.7865459768,
				"y": 1.0563577333,
				"z": 2.6919467021,
				"element": "S" 
			},
			{
				"x": 2.5549464055,
				"y": -0.5163841195,
				"z": -0.8101314499,
				"element": "C" 
			},
			{
				"x": 2.7959535536,
				"y": -1.0562665233,
				"z": -2.0815075386,
				"element": "C" 
			},
			{
				"x": 3.9260653742,
				"y": -0.6785136771,
				"z": -2.8016113156,
				"element": "C" 
			},
			{
				"x": 4.8191627124,
				"y": 0.2527502187,
				"z": -2.2650660636,
				"element": "C" 
			},
			{
				"x": 4.5758578748,
				"y": 0.8085545434,
				"z": -1.0075739387,
				"element": "C" 
			},
			{
				"x": 3.4493050773,
				"y": 0.4254324482,
				"z": -0.2804703857,
				"element": "C" 
			},
			{
				"x": 2.1188437055,
				"y": -0.4687487106,
				"z": 1.7787762279,
				"element": "H" 
			},
			{
				"x": -2.1274855211,
				"y": -1.6187912371,
				"z": 0.2488602594,
				"element": "H" 
			},
			{
				"x": -4.0998544295,
				"y": 0.147465998,
				"z": 0.0452098876,
				"element": "H" 
			},
			{
				"x": -3.8310489303,
				"y": 2.0805458874,
				"z": 1.8163701167,
				"element": "H" 
			},
			{
				"x": 2.0844266262,
				"y": -1.7703740951,
				"z": -2.4815169304,
				"element": "H" 
			},
			{
				"x": 4.1109617174,
				"y": -1.1082473981,
				"z": -3.7815480948,
				"element": "H" 
			},
			{
				"x": 5.6993782199,
				"y": 0.5494788125,
				"z": -2.8278986038,
				"element": "H" 
			},
			{
				"x": 5.2588491042,
				"y": 1.5448209708,
				"z": -0.5948249616,
				"element": "H" 
			},
			{
				"x": 3.2594081144,
				"y": 0.8949154365,
				"z": 0.6806098889,
				"element": "H" 
			}
		],
		 "valence_orbital": [ 
			{
				"type": "occ",
				"energy": -0.28049,
				"method": "rhf"
			},
			{
				"type": "occ",
				"energy": -0.27188,
				"method": "rhf"
			},
			{
				"type": "occ",
				"energy": -0.27002,
				"method": "rhf"
			},
			{
				"type": "occ",
				"energy": -0.26609,
				"method": "rhf"
			},
			{
				"type": "occ",
				"energy": -0.2572,
				"method": "rhf"
			},
			{
				"type": "unocc",
				"energy": -0.05788,
				"method": "rhf"
			},
			{
				"type": "unocc",
				"energy": -0.04864,
				"method": "rhf"
			},
			{
				"type": "unocc",
				"energy": -0.02074,
				"method": "rhf"
			},
			{
				"type": "unocc",
				"energy": 0.01069,
				"method": "rhf"
			},
			{
				"type": "unocc",
				"energy": 0.03154,
				"method": "rhf"
			}
		],
		"cosmo_sigma_profile": { 
			"-0.025": 0.0,
			"-0.024": 0.0,
			"-0.023": 0.0,
			"-0.022": 0.0,
			"-0.021": 0.0,
			"-0.02": 0.0,
			"-0.019": 0.0,
			"-0.018": 0.0,
			"-0.017": 0.256551683173,
			"-0.016": 0.996872059252,
			"-0.015": 0.732064286427,
			"-0.014": 1.00340371767,
			"-0.013": 1.09220958463,
			"-0.012": 1.41507684456,
			"-0.011": 0.892792895741,
			"-0.01": 3.00392206855,
			"-0.009": 4.18394795311,
			"-0.008": 5.67287267645,
			"-0.007": 9.98346793641,
			"-0.006": 16.5064789803,
			"-0.005": 17.4298090878,
			"-0.004": 15.7381044018,
			"-0.003": 14.7255335452,
			"-0.002": 13.3144271503,
			"-0.001": 16.4588641849,
			"0.0": 20.0281229694,
			"0.001": 24.7622993133,
			"0.002": 25.4383193755,
			"0.003": 21.8822041551,
			"0.004": 13.0901204943,
			"0.005": 4.89737892103,
			"0.006": 4.78793212599,
			"0.007": 4.47739959233,
			"0.008": 5.58701666641,
			"0.009": 10.0550927713,
			"0.01": 12.3092818533,
			"0.011": 5.23267911319,
			"0.012": 0.922028587455,
			"0.013": 0.0,
			"0.014": 0.0,
			"0.015": 0.0,
			"0.016": 0.0,
			"0.017": 0.0,
			"0.018": 0.0,
			"0.019": 0.0,
			"0.02": 0.0,
			"0.021": 0.0,
			"0.022": 0.0,
			"0.023": 0.0,
			"0.024": 0.0,
			"0.025": 0.0
		}
	}
}
