{
	 "smiles": "CC1=CC(=O)N2N=C(N)SC2=N1", 
	 "Tm": 609.15, 
	 "num_atms": 18, 
	 "gaussian": { 
		 "optdone": 1, 
		 "sigma_profile": "yes", 
		 "theory": "DFT", 
		 "functional": "B3LYP", 
		 "basiset": "6-31G**", 
		 "properties": { 
			 "R2extent": 3624.8503, 
			 "electric_dipole_moment_norm": 4.38207524125, 
			 "electric_quadrupole_moment_norm": 27.1703948179, 
			 "total_energy": -924.654523708, 
			 "HOMO_LUMO_gap": 0.18016, 
			 "cosmo_polarized_energy": -19.44, 
			 "cosmo_cavitation_energy": 24.56, 
			 "cosmo_dispersion_energy": -19.06, 
			 "cosmo_repulsion_energy": 1.48, 
			 "cosmo_total_nonelectrostatic_energy": 6.97, 
			 "SMD_solvation_energy": 2.56 
		},
		"coords": [
			{
				"x": -0.0600451043,
				"y": -0.7783690477,
				"z": -2.105863081,
				"element": "C" 
			},
			{
				"x": -0.1031250515,
				"y": 0.1326115883,
				"z": -0.91072893,
				"element": "C" 
			},
			{
				"x": 0.8672061917,
				"y": 0.1199076927,
				"z": 0.0582949698,
				"element": "C" 
			},
			{
				"x": 0.8385651618,
				"y": 0.9879554094,
				"z": 1.2144755024,
				"element": "C" 
			},
			{
				"x": 1.6346420496,
				"y": 1.0582238941,
				"z": 2.1312402326,
				"element": "O" 
			},
			{
				"x": -0.3279945618,
				"y": 1.840997396,
				"z": 1.1785654855,
				"element": "N" 
			},
			{
				"x": -0.5735542795,
				"y": 2.7344114113,
				"z": 2.1964902195,
				"element": "N" 
			},
			{
				"x": -1.6640017502,
				"y": 3.386694147,
				"z": 1.9552391637,
				"element": "C" 
			},
			{
				"x": -2.1156238403,
				"y": 4.4104857935,
				"z": 2.7465293578,
				"element": "N" 
			},
			{
				"x": -2.5180585448,
				"y": 2.9603461084,
				"z": 0.4547865933,
				"element": "S" 
			},
			{
				"x": -1.2394861984,
				"y": 1.7700158568,
				"z": 0.1566784895,
				"element": "C" 
			},
			{
				"x": -1.1916209954,
				"y": 0.9783683813,
				"z": -0.867633117,
				"element": "N" 
			},
			{
				"x": -0.9607186031,
				"y": -1.4007799883,
				"z": -2.1364650236,
				"element": "H" 
			},
			{
				"x": 0.8189772405,
				"y": -1.4258098506,
				"z": -2.0893897102,
				"element": "H" 
			},
			{
				"x": -0.0502657664,
				"y": -0.187701564,
				"z": -3.0281121618,
				"element": "H" 
			},
			{
				"x": 1.7113550804,
				"y": -0.5563877831,
				"z": -0.0013362591,
				"element": "H" 
			},
			{
				"x": -3.1168947376,
				"y": 4.5147409241,
				"z": 2.8326053939,
				"element": "H" 
			},
			{
				"x": -1.6154562906,
				"y": 4.4878896307,
				"z": 3.6237228746,
				"element": "H" 
			}
		],
		 "valence_orbital": [ 
			{
				"type": "occ",
				"energy": -0.30238,
				"method": "rhf"
			},
			{
				"type": "occ",
				"energy": -0.28252,
				"method": "rhf"
			},
			{
				"type": "occ",
				"energy": -0.25878,
				"method": "rhf"
			},
			{
				"type": "occ",
				"energy": -0.25418,
				"method": "rhf"
			},
			{
				"type": "occ",
				"energy": -0.22314,
				"method": "rhf"
			},
			{
				"type": "unocc",
				"energy": -0.04298,
				"method": "rhf"
			},
			{
				"type": "unocc",
				"energy": -0.02635,
				"method": "rhf"
			},
			{
				"type": "unocc",
				"energy": -0.00145,
				"method": "rhf"
			},
			{
				"type": "unocc",
				"energy": 0.00606,
				"method": "rhf"
			},
			{
				"type": "unocc",
				"energy": 0.05059,
				"method": "rhf"
			}
		],
		"cosmo_sigma_profile": { 
			"-0.025": 0.0,
			"-0.024": 0.0,
			"-0.023": 0.0,
			"-0.022": 0.0,
			"-0.021": 0.0,
			"-0.02": 0.0,
			"-0.019": 0.0,
			"-0.018": 0.0,
			"-0.017": 0.0,
			"-0.016": 1.1345697874,
			"-0.015": 2.27984533548,
			"-0.014": 2.98644790403,
			"-0.013": 3.31202872585,
			"-0.012": 2.68558169762,
			"-0.011": 2.74366697882,
			"-0.01": 2.13327094907,
			"-0.009": 1.03955068017,
			"-0.008": 1.71428080383,
			"-0.007": 2.99589179356,
			"-0.006": 6.4559075966,
			"-0.005": 9.77268632073,
			"-0.004": 14.5672576487,
			"-0.003": 14.5042493961,
			"-0.002": 16.2857710673,
			"-0.001": 20.3113709436,
			"0.0": 17.3922507429,
			"0.001": 13.5956325848,
			"0.002": 11.1438743894,
			"0.003": 5.00488066265,
			"0.004": 4.99967373692,
			"0.005": 4.0963334302,
			"0.006": 2.88402524882,
			"0.007": 3.83345540001,
			"0.008": 3.99508058673,
			"0.009": 2.4212634283,
			"0.01": 2.89346854158,
			"0.011": 3.58842837159,
			"0.012": 4.00346443555,
			"0.013": 7.08216403781,
			"0.014": 3.87775359306,
			"0.015": 1.98284901395,
			"0.016": 1.06179732314,
			"0.017": 0.212166150786,
			"0.018": 0.0,
			"0.019": 0.0,
			"0.02": 0.0,
			"0.021": 0.0,
			"0.022": 0.0,
			"0.023": 0.0,
			"0.024": 0.0,
			"0.025": 0.0
		}
	}
}
