{
	 "smiles": "CC(NC(=O)C1=CC=C(Br)C=C1)C(O)=O", 
	 "Tm": 412.15, 
	 "num_atms": 25, 
	 "gaussian": { 
		 "optdone": 1, 
		 "sigma_profile": "yes", 
		 "theory": "DFT", 
		 "functional": "B3LYP", 
		 "basiset": "6-31G**", 
		 "properties": { 
			 "R2extent": 6647.4984, 
			 "electric_dipole_moment_norm": 2.31100180225, 
			 "electric_quadrupole_moment_norm": 21.8559419047, 
			 "total_energy": -3238.93903737, 
			 "HOMO_LUMO_gap": 0.20076, 
			 "cosmo_polarized_energy": -20.48, 
			 "cosmo_cavitation_energy": 32.14, 
			 "cosmo_dispersion_energy": -22.93, 
			 "cosmo_repulsion_energy": 1.81, 
			 "cosmo_total_nonelectrostatic_energy": 11.02, 
			 "SMD_solvation_energy": 6.48 
		},
		"coords": [
			{
				"x": 2.3298179053,
				"y": -1.6786455662,
				"z": 0.8065989568,
				"element": "C" 
			},
			{
				"x": 1.887176654,
				"y": -0.2716441885,
				"z": 1.2192049419,
				"element": "C" 
			},
			{
				"x": 0.8498641444,
				"y": -0.2777489442,
				"z": 2.2488950405,
				"element": "N" 
			},
			{
				"x": -0.4677962452,
				"y": 0.1572061628,
				"z": 2.2243422231,
				"element": "C" 
			},
			{
				"x": -1.1265777885,
				"y": 0.1474561852,
				"z": 3.2559889796,
				"element": "O" 
			},
			{
				"x": -1.0579369395,
				"y": 0.6673885152,
				"z": 0.9405872131,
				"element": "C" 
			},
			{
				"x": -1.8715249967,
				"y": 1.8067449942,
				"z": 1.0195345048,
				"element": "C" 
			},
			{
				"x": -2.5117511363,
				"y": 2.3058578422,
				"z": -0.110874444,
				"element": "C" 
			},
			{
				"x": -2.3625083098,
				"y": 1.637703696,
				"z": -1.3271989189,
				"element": "C" 
			},
			{
				"x": -3.2425937285,
				"y": 2.3082383593,
				"z": -2.880287355,
				"element": "Br" 
			},
			{
				"x": -1.5901110777,
				"y": 0.4816157939,
				"z": -1.4237034097,
				"element": "C" 
			},
			{
				"x": -0.9367220784,
				"y": 0.0030256439,
				"z": -0.2878197647,
				"element": "C" 
			},
			{
				"x": 3.1114903662,
				"y": 0.5744631932,
				"z": 1.6512796839,
				"element": "C" 
			},
			{
				"x": 2.879790827,
				"y": 1.4893020159,
				"z": 2.612380232,
				"element": "O" 
			},
			{
				"x": 4.1936895586,
				"y": 0.4540691641,
				"z": 1.1330111588,
				"element": "O" 
			},
			{
				"x": 2.6942715934,
				"y": -2.2395586387,
				"z": 1.6734995066,
				"element": "H" 
			},
			{
				"x": 3.1450133578,
				"y": -1.6114869347,
				"z": 0.0848605479,
				"element": "H" 
			},
			{
				"x": 1.4968721227,
				"y": -2.2339823348,
				"z": 0.3672103646,
				"element": "H" 
			},
			{
				"x": 1.4785673387,
				"y": 0.2537387783,
				"z": 0.3509229982,
				"element": "H" 
			},
			{
				"x": 1.0658477749,
				"y": -0.7606041507,
				"z": 3.1153897378,
				"element": "H" 
			},
			{
				"x": -2.0024086415,
				"y": 2.2932635074,
				"z": 1.980327505,
				"element": "H" 
			},
			{
				"x": -3.1273055548,
				"y": 3.1958677495,
				"z": -0.0495999003,
				"element": "H" 
			},
			{
				"x": -1.5047099883,
				"y": -0.0406089556,
				"z": -2.3695726789,
				"element": "H" 
			},
			{
				"x": -0.3610177294,
				"y": -0.9137810665,
				"z": -0.3638085993,
				"element": "H" 
			},
			{
				"x": 1.9560625715,
				"y": 1.3969191788,
				"z": 2.9034314762,
				"element": "H" 
			}
		],
		 "valence_orbital": [ 
			{
				"type": "occ",
				"energy": -0.30098,
				"method": "rhf"
			},
			{
				"type": "occ",
				"energy": -0.28514,
				"method": "rhf"
			},
			{
				"type": "occ",
				"energy": -0.2778,
				"method": "rhf"
			},
			{
				"type": "occ",
				"energy": -0.26636,
				"method": "rhf"
			},
			{
				"type": "occ",
				"energy": -0.25693,
				"method": "rhf"
			},
			{
				"type": "unocc",
				"energy": -0.05617,
				"method": "rhf"
			},
			{
				"type": "unocc",
				"energy": -0.03566,
				"method": "rhf"
			},
			{
				"type": "unocc",
				"energy": -0.00757,
				"method": "rhf"
			},
			{
				"type": "unocc",
				"energy": -0.00051,
				"method": "rhf"
			},
			{
				"type": "unocc",
				"energy": 0.02199,
				"method": "rhf"
			}
		],
		"cosmo_sigma_profile": { 
			"-0.025": 0.0,
			"-0.024": 0.0,
			"-0.023": 0.0,
			"-0.022": 0.0,
			"-0.021": 0.0,
			"-0.02": 0.0,
			"-0.019": 0.0,
			"-0.018": 0.0,
			"-0.017": 0.0,
			"-0.016": 0.0,
			"-0.015": 1.22145653623,
			"-0.014": 3.27353588436,
			"-0.013": 3.40199079365,
			"-0.012": 2.71008112937,
			"-0.011": 2.60561523531,
			"-0.01": 2.26295176486,
			"-0.009": 2.68449960983,
			"-0.008": 6.07997512929,
			"-0.007": 13.4503718528,
			"-0.006": 12.5203813444,
			"-0.005": 13.0551739224,
			"-0.004": 14.6466053882,
			"-0.003": 13.7487704766,
			"-0.002": 15.1247860969,
			"-0.001": 17.9542858497,
			"0.0": 15.6297491146,
			"0.001": 18.0313009993,
			"0.002": 21.1825123788,
			"0.003": 13.7052649405,
			"0.004": 15.5229714549,
			"0.005": 5.57301647996,
			"0.006": 4.40762281597,
			"0.007": 3.88487425185,
			"0.008": 3.52575243077,
			"0.009": 5.64732197371,
			"0.01": 5.95374074871,
			"0.011": 7.22113944718,
			"0.012": 7.56162419997,
			"0.013": 6.03620693373,
			"0.014": 0.793288447905,
			"0.015": 0.0,
			"0.016": 0.0,
			"0.017": 0.0,
			"0.018": 0.0,
			"0.019": 0.0,
			"0.02": 0.0,
			"0.021": 0.0,
			"0.022": 0.0,
			"0.023": 0.0,
			"0.024": 0.0,
			"0.025": 0.0
		}
	}
}
