{
	 "smiles": "COC1=C(C=C(C=C1)C(O)=O)S(=O)(=O)NC1=CC=C(Br)C=C1", 
	 "Tm": 531.15, 
	 "num_atms": 34, 
	 "gaussian": { 
		 "optdone": 1, 
		 "sigma_profile": "yes", 
		 "theory": "DFT", 
		 "functional": "B3LYP", 
		 "basiset": "6-31G**", 
		 "properties": { 
			 "R2extent": 12743.0494, 
			 "electric_dipole_moment_norm": 8.02843430626, 
			 "electric_quadrupole_moment_norm": 36.8255868461, 
			 "total_energy": -3941.10378364, 
			 "HOMO_LUMO_gap": 0.16715, 
			 "cosmo_polarized_energy": -29.73, 
			 "cosmo_cavitation_energy": 42.59, 
			 "cosmo_dispersion_energy": -30.04, 
			 "cosmo_repulsion_energy": 2.24, 
			 "cosmo_total_nonelectrostatic_energy": 14.78, 
			 "SMD_solvation_energy": 7.17 
		},
		"coords": [
			{
				"x": 0.6994212208,
				"y": 1.3907977442,
				"z": 0.6281783006,
				"element": "C" 
			},
			{
				"x": 0.4849347798,
				"y": 0.0766585109,
				"z": 0.1179029581,
				"element": "O" 
			},
			{
				"x": -0.0012264703,
				"y": -0.0841203304,
				"z": -1.1256259817,
				"element": "C" 
			},
			{
				"x": -0.2070644913,
				"y": -1.413976801,
				"z": -1.5619417398,
				"element": "C" 
			},
			{
				"x": -0.7229955958,
				"y": -1.6713649485,
				"z": -2.8243314197,
				"element": "C" 
			},
			{
				"x": -1.0722621801,
				"y": -0.6178231362,
				"z": -3.6821083094,
				"element": "C" 
			},
			{
				"x": -0.8478440512,
				"y": 0.6958679203,
				"z": -3.2555826696,
				"element": "C" 
			},
			{
				"x": -0.3198797601,
				"y": 0.9678919504,
				"z": -1.9952759584,
				"element": "C" 
			},
			{
				"x": -1.6195454124,
				"y": -0.9742672783,
				"z": -5.0294326911,
				"element": "C" 
			},
			{
				"x": -2.2821627277,
				"y": 0.006216253,
				"z": -5.7027845295,
				"element": "O" 
			},
			{
				"x": -1.4964403464,
				"y": -2.0687793678,
				"z": -5.5246755409,
				"element": "O" 
			},
			{
				"x": 0.2540131664,
				"y": -2.8325809042,
				"z": -0.5408302515,
				"element": "S" 
			},
			{
				"x": 1.6263334902,
				"y": -2.6549015335,
				"z": -0.0783397746,
				"element": "O" 
			},
			{
				"x": -0.170293568,
				"y": -4.0150650583,
				"z": -1.2873510417,
				"element": "O" 
			},
			{
				"x": -0.7560661081,
				"y": -2.8337462536,
				"z": 0.8120634327,
				"element": "N" 
			},
			{
				"x": -0.6572795949,
				"y": -2.0540551498,
				"z": 1.9899218933,
				"element": "C" 
			},
			{
				"x": 0.564090358,
				"y": -1.8766459631,
				"z": 2.6566458617,
				"element": "C" 
			},
			{
				"x": 0.6101107179,
				"y": -1.139564425,
				"z": 3.8377116786,
				"element": "C" 
			},
			{
				"x": -0.5626666414,
				"y": -0.6040398435,
				"z": 4.3716564245,
				"element": "C" 
			},
			{
				"x": -0.4920963873,
				"y": 0.393149044,
				"z": 6.0009793612,
				"element": "Br" 
			},
			{
				"x": -1.7854240869,
				"y": -0.7932330579,
				"z": 3.7326426967,
				"element": "C" 
			},
			{
				"x": -1.8262126233,
				"y": -1.5076126667,
				"z": 2.5361783817,
				"element": "C" 
			},
			{
				"x": -0.2323479986,
				"y": 1.9675072934,
				"z": 0.6427773904,
				"element": "H" 
			},
			{
				"x": 1.4565366229,
				"y": 1.9227589146,
				"z": 0.04141068,
				"element": "H" 
			},
			{
				"x": 1.055953199,
				"y": 1.2495734333,
				"z": 1.6477421303,
				"element": "H" 
			},
			{
				"x": -0.8556770733,
				"y": -2.6946854697,
				"z": -3.1562781221,
				"element": "H" 
			},
			{
				"x": -1.0487465771,
				"y": 1.5367875756,
				"z": -3.9149542917,
				"element": "H" 
			},
			{
				"x": -0.1481721149,
				"y": 1.9946201011,
				"z": -1.6972586352,
				"element": "H" 
			},
			{
				"x": -2.4622543171,
				"y": 0.7561474752,
				"z": -5.1200138444,
				"element": "H" 
			},
			{
				"x": -1.6795572605,
				"y": -3.1716874489,
				"z": 0.5667011797,
				"element": "H" 
			},
			{
				"x": 1.4660515271,
				"y": -2.3104336069,
				"z": 2.2444335864,
				"element": "H" 
			},
			{
				"x": 1.5541270867,
				"y": -1.0019133489,
				"z": 4.3529745907,
				"element": "H" 
			},
			{
				"x": -2.6947354971,
				"y": -0.3808781681,
				"z": 4.1547385935,
				"element": "H" 
			},
			{
				"x": -2.7764212851,
				"y": -1.6417014557,
				"z": 2.0257256612,
				"element": "H" 
			}
		],
		 "valence_orbital": [ 
			{
				"type": "occ",
				"energy": -0.28923,
				"method": "rhf"
			},
			{
				"type": "occ",
				"energy": -0.28198,
				"method": "rhf"
			},
			{
				"type": "occ",
				"energy": -0.27463,
				"method": "rhf"
			},
			{
				"type": "occ",
				"energy": -0.26094,
				"method": "rhf"
			},
			{
				"type": "occ",
				"energy": -0.23269,
				"method": "rhf"
			},
			{
				"type": "unocc",
				"energy": -0.06554,
				"method": "rhf"
			},
			{
				"type": "unocc",
				"energy": -0.04996,
				"method": "rhf"
			},
			{
				"type": "unocc",
				"energy": -0.02515,
				"method": "rhf"
			},
			{
				"type": "unocc",
				"energy": -0.02235,
				"method": "rhf"
			},
			{
				"type": "unocc",
				"energy": -0.00021,
				"method": "rhf"
			}
		],
		"cosmo_sigma_profile": { 
			"-0.025": 0.0,
			"-0.024": 0.0,
			"-0.023": 0.0,
			"-0.022": 0.0,
			"-0.021": 0.0,
			"-0.02": 0.00133328810868,
			"-0.019": 0.573013446231,
			"-0.018": 1.37303975709,
			"-0.017": 0.704893177057,
			"-0.016": 1.62777345125,
			"-0.015": 1.89632211084,
			"-0.014": 2.60406753401,
			"-0.013": 3.14206209908,
			"-0.012": 2.69689420254,
			"-0.011": 1.94359403263,
			"-0.01": 2.05903575217,
			"-0.009": 3.37680022535,
			"-0.008": 8.56763666044,
			"-0.007": 13.6236672132,
			"-0.006": 17.9799898938,
			"-0.005": 17.132148418,
			"-0.004": 18.2100158283,
			"-0.003": 17.679937924,
			"-0.002": 19.7391758759,
			"-0.001": 23.024977579,
			"0.0": 25.1345882914,
			"0.001": 24.0283683445,
			"0.002": 24.3060953932,
			"0.003": 25.1929304454,
			"0.004": 16.6319028914,
			"0.005": 13.2712589717,
			"0.006": 6.87738669502,
			"0.007": 5.3266849935,
			"0.008": 6.68274170568,
			"0.009": 8.2934944354,
			"0.01": 13.6373801637,
			"0.011": 11.6135533554,
			"0.012": 4.6297424548,
			"0.013": 1.25940980562,
			"0.014": 0.0081794604161,
			"0.015": 0.0,
			"0.016": 0.0,
			"0.017": 0.0,
			"0.018": 0.0,
			"0.019": 0.0,
			"0.02": 0.0,
			"0.021": 0.0,
			"0.022": 0.0,
			"0.023": 0.0,
			"0.024": 0.0,
			"0.025": 0.0
		}
	}
}
