{
	 "smiles": "[O-][N+](=O)C1=C(Cl)C=CC(=C1)S(=O)(=O)N1CCOCC1", 
	 "Tm": 427.15, 
	 "num_atms": 30, 
	 "gaussian": { 
		 "optdone": 1, 
		 "sigma_profile": "yes", 
		 "theory": "DFT", 
		 "functional": "B3LYP", 
		 "basiset": "6-31G**", 
		 "properties": { 
			 "R2extent": 7109.5386, 
			 "electric_dipole_moment_norm": 4.43683306537, 
			 "electric_quadrupole_moment_norm": 20.8704120331, 
			 "total_energy": -1731.47990287, 
			 "HOMO_LUMO_gap": 0.15742, 
			 "cosmo_polarized_energy": -19.11, 
			 "cosmo_cavitation_energy": 36.89, 
			 "cosmo_dispersion_energy": -26.42, 
			 "cosmo_repulsion_energy": 2.0, 
			 "cosmo_total_nonelectrostatic_energy": 12.47, 
			 "SMD_solvation_energy": 6.42 
		},
		"coords": [
			{
				"x": 4.6903716538,
				"y": -2.3108221784,
				"z": -0.8077266662,
				"element": "O" 
			},
			{
				"x": 3.4697906072,
				"y": -2.2142174246,
				"z": -0.8406719985,
				"element": "N" 
			},
			{
				"x": 2.7275732284,
				"y": -2.7857885053,
				"z": -1.6383408013,
				"element": "O" 
			},
			{
				"x": 2.8173274556,
				"y": -1.3133462541,
				"z": 0.1297145343,
				"element": "C" 
			},
			{
				"x": 3.3022771814,
				"y": -1.1021990609,
				"z": 1.4303895152,
				"element": "C" 
			},
			{
				"x": 4.6720560489,
				"y": -1.9403637795,
				"z": 2.0935266453,
				"element": "Cl" 
			},
			{
				"x": 2.6258353769,
				"y": -0.2033581703,
				"z": 2.2634129433,
				"element": "C" 
			},
			{
				"x": 1.494645857,
				"y": 0.4709786878,
				"z": 1.8150641765,
				"element": "C" 
			},
			{
				"x": 1.0150380716,
				"y": 0.2332271027,
				"z": 0.5238175069,
				"element": "C" 
			},
			{
				"x": 1.6729203211,
				"y": -0.6554100913,
				"z": -0.3205152773,
				"element": "C" 
			},
			{
				"x": -0.483722209,
				"y": 1.0607937571,
				"z": -0.0481296863,
				"element": "S" 
			},
			{
				"x": -0.3614179896,
				"y": 1.1768540435,
				"z": -1.5006815267,
				"element": "O" 
			},
			{
				"x": -0.6802394477,
				"y": 2.2105298062,
				"z": 0.8355634447,
				"element": "O" 
			},
			{
				"x": -1.7472097962,
				"y": 0.0156343062,
				"z": 0.2389420238,
				"element": "N" 
			},
			{
				"x": -2.3501958946,
				"y": -0.0728855743,
				"z": 1.5848712769,
				"element": "C" 
			},
			{
				"x": -2.4774073687,
				"y": -1.5365339286,
				"z": 1.9989697057,
				"element": "C" 
			},
			{
				"x": -3.2538779814,
				"y": -2.3040614159,
				"z": 1.0846544471,
				"element": "O" 
			},
			{
				"x": -3.2194541592,
				"y": -1.8484644043,
				"z": -0.2652949617,
				"element": "C" 
			},
			{
				"x": -1.9053470016,
				"y": -1.1645832524,
				"z": -0.6308964822,
				"element": "C" 
			},
			{
				"x": 3.0030442711,
				"y": -0.0379613114,
				"z": 3.2661767353,
				"element": "H" 
			},
			{
				"x": 0.9955397387,
				"y": 1.1939480654,
				"z": 2.4506878513,
				"element": "H" 
			},
			{
				"x": 1.3314617877,
				"y": -0.826601434,
				"z": -1.3337816476,
				"element": "H" 
			},
			{
				"x": -3.3363754693,
				"y": 0.405683455,
				"z": 1.5706264413,
				"element": "H" 
			},
			{
				"x": -1.7390184352,
				"y": 0.4751596401,
				"z": 2.3053504267,
				"element": "H" 
			},
			{
				"x": -2.9736981618,
				"y": -1.6036337988,
				"z": 2.9728017606,
				"element": "H" 
			},
			{
				"x": -1.4725820907,
				"y": -1.9749201758,
				"z": 2.1046614955,
				"element": "H" 
			},
			{
				"x": -3.3614991298,
				"y": -2.7278174643,
				"z": -0.9008920301,
				"element": "H" 
			},
			{
				"x": -4.0519750991,
				"y": -1.1549006934,
				"z": -0.4556661464,
				"element": "H" 
			},
			{
				"x": -1.0750014473,
				"y": -1.8761847428,
				"z": -0.5071187007,
				"element": "H" 
			},
			{
				"x": -1.9268599184,
				"y": -0.8380552036,
				"z": -1.6727150052,
				"element": "H" 
			}
		],
		 "valence_orbital": [ 
			{
				"type": "occ",
				"energy": -0.31273,
				"method": "rhf"
			},
			{
				"type": "occ",
				"energy": -0.29735,
				"method": "rhf"
			},
			{
				"type": "occ",
				"energy": -0.29468,
				"method": "rhf"
			},
			{
				"type": "occ",
				"energy": -0.27323,
				"method": "rhf"
			},
			{
				"type": "occ",
				"energy": -0.26306,
				"method": "rhf"
			},
			{
				"type": "unocc",
				"energy": -0.10564,
				"method": "rhf"
			},
			{
				"type": "unocc",
				"energy": -0.06847,
				"method": "rhf"
			},
			{
				"type": "unocc",
				"energy": -0.03835,
				"method": "rhf"
			},
			{
				"type": "unocc",
				"energy": -0.00364,
				"method": "rhf"
			},
			{
				"type": "unocc",
				"energy": 0.04223,
				"method": "rhf"
			}
		],
		"cosmo_sigma_profile": { 
			"-0.025": 0.0,
			"-0.024": 0.0,
			"-0.023": 0.0,
			"-0.022": 0.0,
			"-0.021": 0.0,
			"-0.02": 0.0,
			"-0.019": 0.0,
			"-0.018": 0.0,
			"-0.017": 0.0,
			"-0.016": 0.0,
			"-0.015": 0.0,
			"-0.014": 0.0,
			"-0.013": 0.0,
			"-0.012": 0.0,
			"-0.011": 0.0,
			"-0.01": 0.399771762592,
			"-0.009": 4.15043123238,
			"-0.008": 7.10929850944,
			"-0.007": 9.83573301473,
			"-0.006": 22.2625490379,
			"-0.005": 29.6010358085,
			"-0.004": 26.1499024404,
			"-0.003": 24.3338415719,
			"-0.002": 23.4915850524,
			"-0.001": 17.3496452328,
			"0.0": 12.9753392274,
			"0.001": 11.1256766462,
			"0.002": 13.2562918877,
			"0.003": 11.61214555,
			"0.004": 9.58917535886,
			"0.005": 8.31556120271,
			"0.006": 11.1993018265,
			"0.007": 15.8614670825,
			"0.008": 9.29106400994,
			"0.009": 7.86720838713,
			"0.01": 8.91395732641,
			"0.011": 7.5008096856,
			"0.012": 2.01292498015,
			"0.013": 1.50190744701,
			"0.014": 0.0966297038205,
			"0.015": 0.0,
			"0.016": 0.0,
			"0.017": 0.0,
			"0.018": 0.0,
			"0.019": 0.0,
			"0.02": 0.0,
			"0.021": 0.0,
			"0.022": 0.0,
			"0.023": 0.0,
			"0.024": 0.0,
			"0.025": 0.0
		}
	}
}
