{
	 "smiles": "ClC(=O)C1=CC=C(C=C1)N1C=CC=N1", 
	 "Tm": 401.15, 
	 "num_atms": 21, 
	 "gaussian": { 
		 "optdone": 1, 
		 "sigma_profile": "yes", 
		 "theory": "DFT", 
		 "functional": "B3LYP", 
		 "basiset": "6-31G**", 
		 "properties": { 
			 "R2extent": 4563.3291, 
			 "electric_dipole_moment_norm": 5.21887776826, 
			 "electric_quadrupole_moment_norm": 11.2087427774, 
			 "total_energy": -1030.18654886, 
			 "HOMO_LUMO_gap": 0.16482, 
			 "cosmo_polarized_energy": -9.97, 
			 "cosmo_cavitation_energy": 27.91, 
			 "cosmo_dispersion_energy": -20.84, 
			 "cosmo_repulsion_energy": 1.6, 
			 "cosmo_total_nonelectrostatic_energy": 8.66, 
			 "SMD_solvation_energy": 5.28 
		},
		"coords": [
			{
				"x": 3.5127770487,
				"y": -2.3819354586,
				"z": 1.9158263888,
				"element": "Cl" 
			},
			{
				"x": 2.014250781,
				"y": -1.3555748483,
				"z": 2.1956077704,
				"element": "C" 
			},
			{
				"x": 1.5853170044,
				"y": -1.2639333445,
				"z": 3.3068438124,
				"element": "O" 
			},
			{
				"x": 1.4575133865,
				"y": -0.716931752,
				"z": 0.9867104139,
				"element": "C" 
			},
			{
				"x": 0.3084906835,
				"y": 0.0768493019,
				"z": 1.1643686615,
				"element": "C" 
			},
			{
				"x": -0.2868117512,
				"y": 0.7168355014,
				"z": 0.089849578,
				"element": "C" 
			},
			{
				"x": 0.2609797401,
				"y": 0.5738376049,
				"z": -1.1954867297,
				"element": "C" 
			},
			{
				"x": 1.4058617117,
				"y": -0.2150120241,
				"z": -1.3828003249,
				"element": "C" 
			},
			{
				"x": 1.9965170921,
				"y": -0.8533195613,
				"z": -0.2998003202,
				"element": "C" 
			},
			{
				"x": -0.3525499303,
				"y": 1.2295517979,
				"z": -2.2833245285,
				"element": "N" 
			},
			{
				"x": 0.0134791911,
				"y": 1.2254730556,
				"z": -3.606763906,
				"element": "C" 
			},
			{
				"x": -0.8934977487,
				"y": 2.0103546167,
				"z": -4.2764390254,
				"element": "C" 
			},
			{
				"x": -1.7876847618,
				"y": 2.457441912,
				"z": -3.2710896266,
				"element": "C" 
			},
			{
				"x": -1.4644098157,
				"y": 1.9899012985,
				"z": -2.0748392945,
				"element": "N" 
			},
			{
				"x": -0.1066461946,
				"y": 0.1808745116,
				"z": 2.1606412892,
				"element": "H" 
			},
			{
				"x": -1.1699887317,
				"y": 1.3288057837,
				"z": 0.2168966119,
				"element": "H" 
			},
			{
				"x": 1.8431758261,
				"y": -0.3375736078,
				"z": -2.3662822574,
				"element": "H" 
			},
			{
				"x": 2.8800808565,
				"y": -1.460355184,
				"z": -0.4534272898,
				"element": "H" 
			},
			{
				"x": 0.8701093924,
				"y": 0.6788053027,
				"z": -3.9662273187,
				"element": "H" 
			},
			{
				"x": -0.9108789774,
				"y": 2.2301921697,
				"z": -5.3331509664,
				"element": "H" 
			},
			{
				"x": -2.6513848027,
				"y": 3.1004129241,
				"z": -3.3762129379,
				"element": "H" 
			}
		],
		 "valence_orbital": [ 
			{
				"type": "occ",
				"energy": -0.30652,
				"method": "rhf"
			},
			{
				"type": "occ",
				"energy": -0.2917,
				"method": "rhf"
			},
			{
				"type": "occ",
				"energy": -0.28223,
				"method": "rhf"
			},
			{
				"type": "occ",
				"energy": -0.26844,
				"method": "rhf"
			},
			{
				"type": "occ",
				"energy": -0.24627,
				"method": "rhf"
			},
			{
				"type": "unocc",
				"energy": -0.08145,
				"method": "rhf"
			},
			{
				"type": "unocc",
				"energy": -0.02879,
				"method": "rhf"
			},
			{
				"type": "unocc",
				"energy": -0.01292,
				"method": "rhf"
			},
			{
				"type": "unocc",
				"energy": 0.01982,
				"method": "rhf"
			},
			{
				"type": "unocc",
				"energy": 0.04783,
				"method": "rhf"
			}
		],
		"cosmo_sigma_profile": { 
			"-0.025": 0.0,
			"-0.024": 0.0,
			"-0.023": 0.0,
			"-0.022": 0.0,
			"-0.021": 0.0,
			"-0.02": 0.0,
			"-0.019": 0.0,
			"-0.018": 0.0,
			"-0.017": 0.0,
			"-0.016": 0.0,
			"-0.015": 0.0,
			"-0.014": 0.0,
			"-0.013": 0.0,
			"-0.012": 0.68534190706,
			"-0.011": 1.66394800075,
			"-0.01": 2.14877114187,
			"-0.009": 1.91999133467,
			"-0.008": 4.95666512884,
			"-0.007": 9.21565975945,
			"-0.006": 10.2126567805,
			"-0.005": 9.83078644502,
			"-0.004": 11.9923942827,
			"-0.003": 13.1652418815,
			"-0.002": 14.6822622586,
			"-0.001": 17.1486064933,
			"0.0": 20.9161888857,
			"0.001": 25.2839091642,
			"0.002": 21.2404713527,
			"0.003": 14.9650622772,
			"0.004": 14.5129942406,
			"0.005": 9.52861882802,
			"0.006": 5.81350619437,
			"0.007": 4.67646734546,
			"0.008": 4.44127662308,
			"0.009": 5.07216647597,
			"0.01": 2.32782269092,
			"0.011": 1.7148133796,
			"0.012": 0.186082610943,
			"0.013": 0.0,
			"0.014": 0.0,
			"0.015": 0.0,
			"0.016": 0.0,
			"0.017": 0.0,
			"0.018": 0.0,
			"0.019": 0.0,
			"0.02": 0.0,
			"0.021": 0.0,
			"0.022": 0.0,
			"0.023": 0.0,
			"0.024": 0.0,
			"0.025": 0.0
		}
	}
}
