{
	 "smiles": "CC1=CC(C=O)=C(C)N1C1=CC=C(C)C=C1", 
	 "Tm": 376.15, 
	 "num_atms": 31, 
	 "gaussian": { 
		 "optdone": 1, 
		 "sigma_profile": "yes", 
		 "theory": "DFT", 
		 "functional": "B3LYP", 
		 "basiset": "6-31G**", 
		 "properties": { 
			 "R2extent": 4771.7731, 
			 "electric_dipole_moment_norm": 6.09936425048, 
			 "electric_quadrupole_moment_norm": 27.1212257179, 
			 "total_energy": -672.51332381, 
			 "HOMO_LUMO_gap": 0.17933, 
			 "cosmo_polarized_energy": -10.37, 
			 "cosmo_cavitation_energy": 34.79, 
			 "cosmo_dispersion_energy": -23.67, 
			 "cosmo_repulsion_energy": 1.86, 
			 "cosmo_total_nonelectrostatic_energy": 12.99, 
			 "SMD_solvation_energy": 7.2 
		},
		"coords": [
			{
				"x": 0.4054707028,
				"y": -1.7127313327,
				"z": -1.0579024726,
				"element": "C" 
			},
			{
				"x": 0.3838044954,
				"y": -1.4184746718,
				"z": 0.4072544295,
				"element": "C" 
			},
			{
				"x": 0.8997765012,
				"y": -2.1130356161,
				"z": 1.4686333277,
				"element": "C" 
			},
			{
				"x": 0.5858575404,
				"y": -1.3950815687,
				"z": 2.6700117691,
				"element": "C" 
			},
			{
				"x": 0.9640864851,
				"y": -1.8032083208,
				"z": 4.0135279835,
				"element": "C" 
			},
			{
				"x": 0.7123424777,
				"y": -1.2122358005,
				"z": 5.0567399874,
				"element": "O" 
			},
			{
				"x": -0.1312223023,
				"y": -0.2562011097,
				"z": 2.3001700805,
				"element": "C" 
			},
			{
				"x": -0.6932192995,
				"y": 0.8413536682,
				"z": 3.1431593201,
				"element": "C" 
			},
			{
				"x": -0.2479713722,
				"y": -0.2795930058,
				"z": 0.9286485537,
				"element": "N" 
			},
			{
				"x": -0.9165771291,
				"y": 0.715462331,
				"z": 0.1432077013,
				"element": "C" 
			},
			{
				"x": -0.1846950851,
				"y": 1.7430829121,
				"z": -0.4575404724,
				"element": "C" 
			},
			{
				"x": -0.8401463114,
				"y": 2.7080271279,
				"z": -1.2211212539,
				"element": "C" 
			},
			{
				"x": -2.229849648,
				"y": 2.6710401565,
				"z": -1.4001069635,
				"element": "C" 
			},
			{
				"x": -2.9306170274,
				"y": 3.703162735,
				"z": -2.2515499661,
				"element": "C" 
			},
			{
				"x": -2.9480960628,
				"y": 1.6360760688,
				"z": -0.785574042,
				"element": "C" 
			},
			{
				"x": -2.3029274354,
				"y": 0.6632738641,
				"z": -0.0232086879,
				"element": "C" 
			},
			{
				"x": -0.6037574826,
				"y": -1.8053565128,
				"z": -1.4768100306,
				"element": "H" 
			},
			{
				"x": 0.9212768281,
				"y": -0.9350223668,
				"z": -1.6336098549,
				"element": "H" 
			},
			{
				"x": 0.9275560315,
				"y": -2.6571303232,
				"z": -1.2285970765,
				"element": "H" 
			},
			{
				"x": 1.4469604488,
				"y": -3.0444797678,
				"z": 1.4059093621,
				"element": "H" 
			},
			{
				"x": 1.5402005575,
				"y": -2.7565204552,
				"z": 4.0428283832,
				"element": "H" 
			},
			{
				"x": -1.7841135169,
				"y": 0.9061769135,
				"z": 3.0533476118,
				"element": "H" 
			},
			{
				"x": -0.4369674511,
				"y": 0.641345525,
				"z": 4.1833946475,
				"element": "H" 
			},
			{
				"x": -0.288862055,
				"y": 1.8189623285,
				"z": 2.8547191331,
				"element": "H" 
			},
			{
				"x": 0.8909904349,
				"y": 1.7843662769,
				"z": -0.3162756763,
				"element": "H" 
			},
			{
				"x": -0.2627218724,
				"y": 3.505907219,
				"z": -1.6809051895,
				"element": "H" 
			},
			{
				"x": -2.4030846311,
				"y": 4.6613106612,
				"z": -2.2343647306,
				"element": "H" 
			},
			{
				"x": -3.9561004729,
				"y": 3.8737083652,
				"z": -1.9110792116,
				"element": "H" 
			},
			{
				"x": -2.984540515,
				"y": 3.3797022222,
				"z": -3.2985516368,
				"element": "H" 
			},
			{
				"x": -4.0274592429,
				"y": 1.5898340792,
				"z": -0.9049680806,
				"element": "H" 
			},
			{
				"x": -2.8664935904,
				"y": -0.1367216024,
				"z": 0.4470130551,
				"element": "H" 
			}
		],
		 "valence_orbital": [ 
			{
				"type": "occ",
				"energy": -0.26771,
				"method": "rhf"
			},
			{
				"type": "occ",
				"energy": -0.2586,
				"method": "rhf"
			},
			{
				"type": "occ",
				"energy": -0.24171,
				"method": "rhf"
			},
			{
				"type": "occ",
				"energy": -0.22848,
				"method": "rhf"
			},
			{
				"type": "occ",
				"energy": -0.20343,
				"method": "rhf"
			},
			{
				"type": "unocc",
				"energy": -0.0241,
				"method": "rhf"
			},
			{
				"type": "unocc",
				"energy": -0.02034,
				"method": "rhf"
			},
			{
				"type": "unocc",
				"energy": -0.01827,
				"method": "rhf"
			},
			{
				"type": "unocc",
				"energy": 0.04227,
				"method": "rhf"
			},
			{
				"type": "unocc",
				"energy": 0.08098,
				"method": "rhf"
			}
		],
		"cosmo_sigma_profile": { 
			"-0.025": 0.0,
			"-0.024": 0.0,
			"-0.023": 0.0,
			"-0.022": 0.0,
			"-0.021": 0.0,
			"-0.02": 0.0,
			"-0.019": 0.0,
			"-0.018": 0.0,
			"-0.017": 0.0,
			"-0.016": 0.0,
			"-0.015": 0.0,
			"-0.014": 0.0,
			"-0.013": 0.0,
			"-0.012": 0.0,
			"-0.011": 0.0,
			"-0.01": 0.0,
			"-0.009": 0.0,
			"-0.008": 0.0,
			"-0.007": 1.24541180176,
			"-0.006": 7.37786543421,
			"-0.005": 17.3032656198,
			"-0.004": 30.7017960353,
			"-0.003": 28.2286629542,
			"-0.002": 29.4336893118,
			"-0.001": 34.6968050839,
			"0.0": 29.3983594975,
			"0.001": 18.3905590438,
			"0.002": 14.0568381807,
			"0.003": 14.3953564249,
			"0.004": 15.6666747268,
			"0.005": 10.0694611945,
			"0.006": 6.08184207311,
			"0.007": 3.47199883708,
			"0.008": 1.35753272302,
			"0.009": 2.05164353516,
			"0.01": 1.65701865529,
			"0.011": 2.2742369149,
			"0.012": 3.47556860464,
			"0.013": 3.04851336533,
			"0.014": 1.55699098937,
			"0.015": 0.185560858796,
			"0.016": 0.0,
			"0.017": 0.0,
			"0.018": 0.0,
			"0.019": 0.0,
			"0.02": 0.0,
			"0.021": 0.0,
			"0.022": 0.0,
			"0.023": 0.0,
			"0.024": 0.0,
			"0.025": 0.0
		}
	}
}
