{
	 "smiles": "OC(C1CCOCC1)C(O)=O", 
	 "Tm": 353.15, 
	 "num_atms": 23, 
	 "gaussian": { 
		 "optdone": 1, 
		 "sigma_profile": "yes", 
		 "theory": "DFT", 
		 "functional": "B3LYP", 
		 "basiset": "6-31G**", 
		 "properties": { 
			 "R2extent": 2048.5513, 
			 "electric_dipole_moment_norm": 3.24370332491, 
			 "electric_quadrupole_moment_norm": 6.24248641969, 
			 "total_energy": -574.860450389, 
			 "HOMO_LUMO_gap": 0.23026, 
			 "cosmo_polarized_energy": -13.03, 
			 "cosmo_cavitation_energy": 24.75, 
			 "cosmo_dispersion_energy": -18.62, 
			 "cosmo_repulsion_energy": 1.51, 
			 "cosmo_total_nonelectrostatic_energy": 7.64, 
			 "SMD_solvation_energy": 5.01 
		},
		"coords": [
			{
				"x": -2.4663096634,
				"y": 0.2228165779,
				"z": 0.4785531311,
				"element": "O" 
			},
			{
				"x": -1.401975416,
				"y": 0.2618150265,
				"z": -0.4623295748,
				"element": "C" 
			},
			{
				"x": -0.0840327093,
				"y": -0.0311411515,
				"z": 0.2635408179,
				"element": "C" 
			},
			{
				"x": -0.1909405799,
				"y": -1.3056603655,
				"z": 1.1174705809,
				"element": "C" 
			},
			{
				"x": 1.0970688191,
				"y": -1.4863116904,
				"z": 1.944694832,
				"element": "C" 
			},
			{
				"x": 2.2435575844,
				"y": -0.9090096739,
				"z": 1.3221960836,
				"element": "O" 
			},
			{
				"x": 2.2126100416,
				"y": -1.0577553628,
				"z": -0.0897215794,
				"element": "C" 
			},
			{
				"x": 1.1100263715,
				"y": -0.1768479906,
				"z": -0.7141938236,
				"element": "C" 
			},
			{
				"x": -1.4021281541,
				"y": 1.6157638104,
				"z": -1.1823560808,
				"element": "C" 
			},
			{
				"x": -2.6713641216,
				"y": 1.949020452,
				"z": -1.5436119825,
				"element": "O" 
			},
			{
				"x": -0.4539229981,
				"y": 2.3219817203,
				"z": -1.4329895411,
				"element": "O" 
			},
			{
				"x": -3.2659707368,
				"y": 0.5269884292,
				"z": 0.028556793,
				"element": "H" 
			},
			{
				"x": -1.552664188,
				"y": -0.5026770886,
				"z": -1.2474937748,
				"element": "H" 
			},
			{
				"x": 0.1142094217,
				"y": 0.8139417378,
				"z": 0.933536036,
				"element": "H" 
			},
			{
				"x": -1.0578447046,
				"y": -1.258939962,
				"z": 1.7801269141,
				"element": "H" 
			},
			{
				"x": -0.3471313016,
				"y": -2.1674906094,
				"z": 0.4544099754,
				"element": "H" 
			},
			{
				"x": 1.2734931173,
				"y": -2.5564500901,
				"z": 2.1432491898,
				"element": "H" 
			},
			{
				"x": 1.0056768647,
				"y": -0.9792500266,
				"z": 2.9111745876,
				"element": "H" 
			},
			{
				"x": 2.0681488441,
				"y": -2.1174440617,
				"z": -0.3585937486,
				"element": "H" 
			},
			{
				"x": 3.2013645573,
				"y": -0.763535885,
				"z": -0.452826603,
				"element": "H" 
			},
			{
				"x": 1.4968850876,
				"y": 0.812495556,
				"z": -0.9632659708,
				"element": "H" 
			},
			{
				"x": 0.7790554161,
				"y": -0.6345483853,
				"z": -1.6571598,
				"element": "H" 
			},
			{
				"x": -2.618711552,
				"y": 2.8148390334,
				"z": -1.981766462,
				"element": "H" 
			}
		],
		 "valence_orbital": [ 
			{
				"type": "occ",
				"energy": -0.32009,
				"method": "rhf"
			},
			{
				"type": "occ",
				"energy": -0.30614,
				"method": "rhf"
			},
			{
				"type": "occ",
				"energy": -0.28936,
				"method": "rhf"
			},
			{
				"type": "occ",
				"energy": -0.26725,
				"method": "rhf"
			},
			{
				"type": "occ",
				"energy": -0.23846,
				"method": "rhf"
			},
			{
				"type": "unocc",
				"energy": -0.0082,
				"method": "rhf"
			},
			{
				"type": "unocc",
				"energy": 0.05783,
				"method": "rhf"
			},
			{
				"type": "unocc",
				"energy": 0.0855,
				"method": "rhf"
			},
			{
				"type": "unocc",
				"energy": 0.10975,
				"method": "rhf"
			},
			{
				"type": "unocc",
				"energy": 0.11059,
				"method": "rhf"
			}
		],
		"cosmo_sigma_profile": { 
			"-0.025": 0.0,
			"-0.024": 0.0,
			"-0.023": 0.0,
			"-0.022": 0.0,
			"-0.021": 0.0,
			"-0.02": 0.0,
			"-0.019": 0.337022854606,
			"-0.018": 0.808739403583,
			"-0.017": 1.28762740222,
			"-0.016": 0.454375511049,
			"-0.015": 0.756701372389,
			"-0.014": 0.907583279356,
			"-0.013": 1.1591993721,
			"-0.012": 1.77458284336,
			"-0.011": 1.66618447978,
			"-0.01": 1.40757764219,
			"-0.009": 0.680985515528,
			"-0.008": 1.51600765423,
			"-0.007": 2.69737981318,
			"-0.006": 5.30215523407,
			"-0.005": 6.6937787972,
			"-0.004": 12.4950513794,
			"-0.003": 27.3303480955,
			"-0.002": 25.6390753301,
			"-0.001": 16.0853748281,
			"0.0": 11.6950590035,
			"0.001": 8.8179109812,
			"0.002": 6.77286809492,
			"0.003": 6.76211326453,
			"0.004": 6.04473054141,
			"0.005": 4.83232171405,
			"0.006": 4.89348427556,
			"0.007": 5.26682320343,
			"0.008": 4.24206552177,
			"0.009": 4.42798720567,
			"0.01": 5.97863272787,
			"0.011": 6.81937419164,
			"0.012": 2.51801761981,
			"0.013": 2.02489184925,
			"0.014": 1.55473474722,
			"0.015": 0.00308919115435,
			"0.016": 0.0,
			"0.017": 0.0,
			"0.018": 0.0,
			"0.019": 0.0,
			"0.02": 0.0,
			"0.021": 0.0,
			"0.022": 0.0,
			"0.023": 0.0,
			"0.024": 0.0,
			"0.025": 0.0
		}
	}
}
