{
	 "smiles": "OC(C(O)=O)C1=CC=CC=C1", 
	 "Tm": 407.15, 
	 "num_atms": 19, 
	 "gaussian": { 
		 "optdone": 1, 
		 "sigma_profile": "yes", 
		 "theory": "DFT", 
		 "functional": "B3LYP", 
		 "basiset": "6-31G**", 
		 "properties": { 
			 "R2extent": 2626.9036, 
			 "electric_dipole_moment_norm": 2.00774239632, 
			 "electric_quadrupole_moment_norm": 9.05226321922, 
			 "total_energy": -535.346583745, 
			 "HOMO_LUMO_gap": 0.23231, 
			 "cosmo_polarized_energy": -11.4, 
			 "cosmo_cavitation_energy": 23.21, 
			 "cosmo_dispersion_energy": -17.09, 
			 "cosmo_repulsion_energy": 1.38, 
			 "cosmo_total_nonelectrostatic_energy": 7.5, 
			 "SMD_solvation_energy": 5.12 
		},
		"coords": [
			{
				"x": -2.4477299276,
				"y": 0.3786192901,
				"z": -2.6801078552,
				"element": "O" 
			},
			{
				"x": -1.2922988701,
				"y": -0.3505182383,
				"z": -2.3249062099,
				"element": "C" 
			},
			{
				"x": -1.3741275314,
				"y": -1.8103229803,
				"z": -2.7771509392,
				"element": "C" 
			},
			{
				"x": -2.6528250671,
				"y": -2.2578428863,
				"z": -2.7752373611,
				"element": "O" 
			},
			{
				"x": -0.4297679701,
				"y": -2.5072699513,
				"z": -3.0692256312,
				"element": "O" 
			},
			{
				"x": -0.9638764153,
				"y": -0.293572792,
				"z": -0.8250709977,
				"element": "C" 
			},
			{
				"x": 0.0989300018,
				"y": -1.0371549748,
				"z": -0.2942533783,
				"element": "C" 
			},
			{
				"x": 0.4012424115,
				"y": -0.9566267222,
				"z": 1.0648089903,
				"element": "C" 
			},
			{
				"x": -0.3515760224,
				"y": -0.1344340227,
				"z": 1.9066656555,
				"element": "C" 
			},
			{
				"x": -1.4055835883,
				"y": 0.6114500653,
				"z": 1.3788294735,
				"element": "C" 
			},
			{
				"x": -1.7100564494,
				"y": 0.5344524167,
				"z": 0.017954924,
				"element": "C" 
			},
			{
				"x": -3.2159677393,
				"y": -0.1457901162,
				"z": -2.4128237639,
				"element": "H" 
			},
			{
				"x": -0.4643539249,
				"y": 0.093284331,
				"z": -2.8880024856,
				"element": "H" 
			},
			{
				"x": -2.6237441618,
				"y": -3.1923793323,
				"z": -3.0398662707,
				"element": "H" 
			},
			{
				"x": 0.6845697268,
				"y": -1.6794707364,
				"z": -0.9450500168,
				"element": "H" 
			},
			{
				"x": 1.2266597557,
				"y": -1.5377485222,
				"z": 1.4662780641,
				"element": "H" 
			},
			{
				"x": -0.1148168906,
				"y": -0.0735293306,
				"z": 2.9650196505,
				"element": "H" 
			},
			{
				"x": -1.9922144111,
				"y": 1.2589467702,
				"z": 2.0246053839,
				"element": "H" 
			},
			{
				"x": -2.5157629265,
				"y": 1.1268077324,
				"z": -0.4015672321,
				"element": "H" 
			}
		],
		 "valence_orbital": [ 
			{
				"type": "occ",
				"energy": -0.33371,
				"method": "rhf"
			},
			{
				"type": "occ",
				"energy": -0.30867,
				"method": "rhf"
			},
			{
				"type": "occ",
				"energy": -0.27194,
				"method": "rhf"
			},
			{
				"type": "occ",
				"energy": -0.25168,
				"method": "rhf"
			},
			{
				"type": "occ",
				"energy": -0.24624,
				"method": "rhf"
			},
			{
				"type": "unocc",
				"energy": -0.01393,
				"method": "rhf"
			},
			{
				"type": "unocc",
				"energy": -0.00496,
				"method": "rhf"
			},
			{
				"type": "unocc",
				"energy": 0.00884,
				"method": "rhf"
			},
			{
				"type": "unocc",
				"energy": 0.05659,
				"method": "rhf"
			},
			{
				"type": "unocc",
				"energy": 0.09729,
				"method": "rhf"
			}
		],
		"cosmo_sigma_profile": { 
			"-0.025": 0.0,
			"-0.024": 0.0,
			"-0.023": 0.0,
			"-0.022": 0.0,
			"-0.021": 0.0,
			"-0.02": 0.00409978092109,
			"-0.019": 0.815094951715,
			"-0.018": 0.798444515996,
			"-0.017": 0.734758845361,
			"-0.016": 1.02401423767,
			"-0.015": 0.676710243254,
			"-0.014": 1.01590828221,
			"-0.013": 1.25192950019,
			"-0.012": 1.13857324935,
			"-0.011": 1.60510635477,
			"-0.01": 1.13661003058,
			"-0.009": 1.51100527791,
			"-0.008": 2.34186971472,
			"-0.007": 4.3761334022,
			"-0.006": 6.52346926357,
			"-0.005": 11.9651170066,
			"-0.004": 14.6826383947,
			"-0.003": 13.5593337835,
			"-0.002": 9.94855561428,
			"-0.001": 10.7088768075,
			"0.0": 11.7086107436,
			"0.001": 9.86755179418,
			"0.002": 12.208267076,
			"0.003": 12.1636547216,
			"0.004": 12.3046738698,
			"0.005": 13.0431239075,
			"0.006": 6.71418893193,
			"0.007": 1.95926133957,
			"0.008": 2.49362701701,
			"0.009": 3.31118343967,
			"0.01": 3.1852734894,
			"0.011": 5.80732524835,
			"0.012": 2.77357637459,
			"0.013": 1.11841211691,
			"0.014": 0.0,
			"0.015": 0.0,
			"0.016": 0.0,
			"0.017": 0.0,
			"0.018": 0.0,
			"0.019": 0.0,
			"0.02": 0.0,
			"0.021": 0.0,
			"0.022": 0.0,
			"0.023": 0.0,
			"0.024": 0.0,
			"0.025": 0.0
		}
	}
}
