{
	 "smiles": "CCCCCCCCC1CCCC1", 
	 "Tm": 229.15, 
	 "num_atms": 39, 
	 "gaussian": { 
		 "optdone": 1, 
		 "sigma_profile": "yes", 
		 "theory": "DFT", 
		 "functional": "B3LYP", 
		 "basiset": "6-31G**", 
		 "properties": { 
			 "R2extent": 4664.2714, 
			 "electric_dipole_moment_norm": 0.0733666818113, 
			 "electric_quadrupole_moment_norm": 1.14614771736, 
			 "total_energy": -511.08497001, 
			 "HOMO_LUMO_gap": 0.36996, 
			 "cosmo_polarized_energy": -0.83, 
			 "cosmo_cavitation_energy": 37.11, 
			 "cosmo_dispersion_energy": -25.88, 
			 "cosmo_repulsion_energy": 2.12, 
			 "cosmo_total_nonelectrostatic_energy": 13.35, 
			 "SMD_solvation_energy": 4.7 
		},
		"coords": [
			{
				"x": 2.2224325162,
				"y": -1.9068583737,
				"z": -2.761193604,
				"element": "C" 
			},
			{
				"x": 0.7836502304,
				"y": -2.0658773102,
				"z": -2.2549327204,
				"element": "C" 
			},
			{
				"x": -0.2844104516,
				"y": -1.5574941753,
				"z": -3.242672576,
				"element": "C" 
			},
			{
				"x": -0.36060298,
				"y": -0.0241247531,
				"z": -3.4291591929,
				"element": "C" 
			},
			{
				"x": -1.3792018013,
				"y": 0.703865215,
				"z": -2.5332579805,
				"element": "C" 
			},
			{
				"x": -1.109879716,
				"y": 0.6499470372,
				"z": -1.0223970223,
				"element": "C" 
			},
			{
				"x": -2.1125368756,
				"y": 1.4922357793,
				"z": -0.2194423292,
				"element": "C" 
			},
			{
				"x": -2.0089919867,
				"y": 1.4012739374,
				"z": 1.3137545877,
				"element": "C" 
			},
			{
				"x": -0.7786260803,
				"y": 2.0534960701,
				"z": 1.9670721366,
				"element": "C" 
			},
			{
				"x": -0.9453701751,
				"y": 2.2645496698,
				"z": 3.4879998176,
				"element": "C" 
			},
			{
				"x": 0.4858890547,
				"y": 2.4920607463,
				"z": 3.9893542841,
				"element": "C" 
			},
			{
				"x": 1.308624104,
				"y": 1.4496536088,
				"z": 3.203808198,
				"element": "C" 
			},
			{
				"x": 0.5671802955,
				"y": 1.2742113098,
				"z": 1.8457145297,
				"element": "C" 
			},
			{
				"x": 2.3712647731,
				"y": -2.4525001146,
				"z": -3.7004018799,
				"element": "H" 
			},
			{
				"x": 2.9430954194,
				"y": -2.2946163207,
				"z": -2.0334471252,
				"element": "H" 
			},
			{
				"x": 2.4778065304,
				"y": -0.8580212352,
				"z": -2.946725021,
				"element": "H" 
			},
			{
				"x": 0.678961544,
				"y": -1.5547956253,
				"z": -1.2906575495,
				"element": "H" 
			},
			{
				"x": 0.5964878594,
				"y": -3.1291684691,
				"z": -2.055654991,
				"element": "H" 
			},
			{
				"x": -1.2710128604,
				"y": -1.9252364397,
				"z": -2.9291614657,
				"element": "H" 
			},
			{
				"x": -0.089631565,
				"y": -2.0281818629,
				"z": -4.2157646814,
				"element": "H" 
			},
			{
				"x": -0.6275830166,
				"y": 0.1914487802,
				"z": -4.4712515356,
				"element": "H" 
			},
			{
				"x": 0.633087388,
				"y": 0.4206822897,
				"z": -3.2834807351,
				"element": "H" 
			},
			{
				"x": -2.3812936313,
				"y": 0.2964963878,
				"z": -2.7320740243,
				"element": "H" 
			},
			{
				"x": -1.4184540056,
				"y": 1.757824542,
				"z": -2.842899976,
				"element": "H" 
			},
			{
				"x": -1.1581207874,
				"y": -0.3894374587,
				"z": -0.6718804501,
				"element": "H" 
			},
			{
				"x": -0.0862517275,
				"y": 0.9927546139,
				"z": -0.8279022136,
				"element": "H" 
			},
			{
				"x": -2.0231907817,
				"y": 2.5457073123,
				"z": -0.5222470678,
				"element": "H" 
			},
			{
				"x": -3.1269665219,
				"y": 1.1849799641,
				"z": -0.5100657641,
				"element": "H" 
			},
			{
				"x": -2.9037422025,
				"y": 1.8819952129,
				"z": 1.7326365716,
				"element": "H" 
			},
			{
				"x": -2.0628089307,
				"y": 0.3471382091,
				"z": 1.6243907946,
				"element": "H" 
			},
			{
				"x": -0.642070929,
				"y": 3.0467878913,
				"z": 1.5136199823,
				"element": "H" 
			},
			{
				"x": -1.6298376725,
				"y": 3.0865168717,
				"z": 3.7252212067,
				"element": "H" 
			},
			{
				"x": -1.3603143548,
				"y": 1.353832482,
				"z": 3.9436501697,
				"element": "H" 
			},
			{
				"x": 0.5907238089,
				"y": 2.3886912435,
				"z": 5.0743360959,
				"element": "H" 
			},
			{
				"x": 0.810278441,
				"y": 3.5075190315,
				"z": 3.7272662976,
				"element": "H" 
			},
			{
				"x": 1.3177859917,
				"y": 0.5000686591,
				"z": 3.7511547559,
				"element": "H" 
			},
			{
				"x": 2.3538777898,
				"y": 1.7489011319,
				"z": 3.0776610241,
				"element": "H" 
			},
			{
				"x": 1.1680905519,
				"y": 1.6477126741,
				"z": 1.0108996457,
				"element": "H" 
			},
			{
				"x": 0.380462755,
				"y": 0.2136614678,
				"z": 1.6440298075,
				"element": "H" 
			}
		],
		 "valence_orbital": [ 
			{
				"type": "occ",
				"energy": -0.3108,
				"method": "rhf"
			},
			{
				"type": "occ",
				"energy": -0.30407,
				"method": "rhf"
			},
			{
				"type": "occ",
				"energy": -0.30146,
				"method": "rhf"
			},
			{
				"type": "occ",
				"energy": -0.29799,
				"method": "rhf"
			},
			{
				"type": "occ",
				"energy": -0.28909,
				"method": "rhf"
			},
			{
				"type": "unocc",
				"energy": 0.08087,
				"method": "rhf"
			},
			{
				"type": "unocc",
				"energy": 0.09106,
				"method": "rhf"
			},
			{
				"type": "unocc",
				"energy": 0.09214,
				"method": "rhf"
			},
			{
				"type": "unocc",
				"energy": 0.1034,
				"method": "rhf"
			},
			{
				"type": "unocc",
				"energy": 0.11503,
				"method": "rhf"
			}
		],
		"cosmo_sigma_profile": { 
			"-0.025": 0.0,
			"-0.024": 0.0,
			"-0.023": 0.0,
			"-0.022": 0.0,
			"-0.021": 0.0,
			"-0.02": 0.0,
			"-0.019": 0.0,
			"-0.018": 0.0,
			"-0.017": 0.0,
			"-0.016": 0.0,
			"-0.015": 0.0,
			"-0.014": 0.0,
			"-0.013": 0.0,
			"-0.012": 0.0,
			"-0.011": 0.0,
			"-0.01": 0.0,
			"-0.009": 0.0,
			"-0.008": 0.0,
			"-0.007": 0.0,
			"-0.006": 0.0,
			"-0.005": 0.0,
			"-0.004": 0.0,
			"-0.003": 2.8476286634,
			"-0.002": 29.8152462138,
			"-0.001": 67.2605419357,
			"0.0": 84.1380975631,
			"0.001": 62.6156420989,
			"0.002": 34.6915486346,
			"0.003": 1.7533836336,
			"0.004": 0.0,
			"0.005": 0.0,
			"0.006": 0.0,
			"0.007": 0.0,
			"0.008": 0.0,
			"0.009": 0.0,
			"0.01": 0.0,
			"0.011": 0.0,
			"0.012": 0.0,
			"0.013": 0.0,
			"0.014": 0.0,
			"0.015": 0.0,
			"0.016": 0.0,
			"0.017": 0.0,
			"0.018": 0.0,
			"0.019": 0.0,
			"0.02": 0.0,
			"0.021": 0.0,
			"0.022": 0.0,
			"0.023": 0.0,
			"0.024": 0.0,
			"0.025": 0.0
		}
	}
}
