{
	 "smiles": "BrC1=CC=C(C=C1)C1=CC=C(Br)C=C1", 
	 "Tm": 440.15, 
	 "num_atms": 22, 
	 "gaussian": { 
		 "optdone": 1, 
		 "sigma_profile": "yes", 
		 "theory": "DFT", 
		 "functional": "B3LYP", 
		 "basiset": "6-31G**", 
		 "properties": { 
			 "R2extent": 10189.3939, 
			 "electric_dipole_moment_norm": 0.00022360679775, 
			 "electric_quadrupole_moment_norm": 12.3688415533, 
			 "total_energy": -5604.915614, 
			 "HOMO_LUMO_gap": 0.18294, 
			 "cosmo_polarized_energy": -6.01, 
			 "cosmo_cavitation_energy": 31.11, 
			 "cosmo_dispersion_energy": -23.67, 
			 "cosmo_repulsion_energy": 1.85, 
			 "cosmo_total_nonelectrostatic_energy": 9.29, 
			 "SMD_solvation_energy": 2.73 
		},
		"coords": [
			{
				"x": -3.5902496985,
				"y": 3.022233669,
				"z": 2.5366428641,
				"element": "Br" 
			},
			{
				"x": -2.3382957795,
				"y": 2.1625775188,
				"z": 1.3773140258,
				"element": "C" 
			},
			{
				"x": -2.0270763698,
				"y": 2.7432874928,
				"z": 0.1491554402,
				"element": "C" 
			},
			{
				"x": -1.112758363,
				"y": 2.1105861221,
				"z": -0.6907322615,
				"element": "C" 
			},
			{
				"x": -0.5000020599,
				"y": 0.9001443523,
				"z": -0.3252370249,
				"element": "C" 
			},
			{
				"x": -0.8364419684,
				"y": 0.3415369935,
				"z": 0.9193519352,
				"element": "C" 
			},
			{
				"x": -1.7480924872,
				"y": 0.9628131301,
				"z": 1.7706013235,
				"element": "C" 
			},
			{
				"x": 0.4723537156,
				"y": 0.2325160916,
				"z": -1.2257487532,
				"element": "C" 
			},
			{
				"x": 1.6055599777,
				"y": -0.4201655868,
				"z": -0.7118742247,
				"element": "C" 
			},
			{
				"x": 2.5228371463,
				"y": -1.0496286309,
				"z": -1.5509731661,
				"element": "C" 
			},
			{
				"x": 2.3108744035,
				"y": -1.0295237176,
				"z": -2.9283341718,
				"element": "C" 
			},
			{
				"x": 3.5629436084,
				"y": -1.8889639122,
				"z": -4.0876971564,
				"element": "Br" 
			},
			{
				"x": 1.1973595126,
				"y": -0.3905750666,
				"z": -3.4708130338,
				"element": "C" 
			},
			{
				"x": 0.288435694,
				"y": 0.2335475874,
				"z": -2.6187312094,
				"element": "C" 
			},
			{
				"x": -2.4851279915,
				"y": 3.6815356078,
				"z": -0.1425810242,
				"element": "H" 
			},
			{
				"x": -0.8524770928,
				"y": 2.5810401146,
				"z": -1.6340313915,
				"element": "H" 
			},
			{
				"x": -0.4005821324,
				"y": -0.6070377218,
				"z": 1.2178993984,
				"element": "H" 
			},
			{
				"x": -2.0045983069,
				"y": 0.5152397259,
				"z": 2.7240714646,
				"element": "H" 
			},
			{
				"x": 1.7896489747,
				"y": -0.4144436384,
				"z": 0.3581561884,
				"element": "H" 
			},
			{
				"x": 3.3973233396,
				"y": -1.5415995648,
				"z": -1.1405302108,
				"element": "H" 
			},
			{
				"x": 1.0374805194,
				"y": -0.3891407065,
				"z": -4.5430384174,
				"element": "H" 
			},
			{
				"x": -0.5919146419,
				"y": 0.7058201397,
				"z": -3.0439705944,
				"element": "H" 
			}
		],
		 "valence_orbital": [ 
			{
				"type": "occ",
				"energy": -0.29001,
				"method": "rhf"
			},
			{
				"type": "occ",
				"energy": -0.26973,
				"method": "rhf"
			},
			{
				"type": "occ",
				"energy": -0.26912,
				"method": "rhf"
			},
			{
				"type": "occ",
				"energy": -0.26222,
				"method": "rhf"
			},
			{
				"type": "occ",
				"energy": -0.22828,
				"method": "rhf"
			},
			{
				"type": "unocc",
				"energy": -0.04534,
				"method": "rhf"
			},
			{
				"type": "unocc",
				"energy": -0.02305,
				"method": "rhf"
			},
			{
				"type": "unocc",
				"energy": -0.01892,
				"method": "rhf"
			},
			{
				"type": "unocc",
				"energy": 0.00377,
				"method": "rhf"
			},
			{
				"type": "unocc",
				"energy": 0.00616,
				"method": "rhf"
			}
		],
		"cosmo_sigma_profile": { 
			"-0.025": 0.0,
			"-0.024": 0.0,
			"-0.023": 0.0,
			"-0.022": 0.0,
			"-0.021": 0.0,
			"-0.02": 0.0,
			"-0.019": 0.0,
			"-0.018": 0.0,
			"-0.017": 0.0,
			"-0.016": 0.0,
			"-0.015": 0.0,
			"-0.014": 0.0,
			"-0.013": 0.0,
			"-0.012": 0.0,
			"-0.011": 0.0,
			"-0.01": 0.0,
			"-0.009": 0.0,
			"-0.008": 0.255864018407,
			"-0.007": 9.37360408095,
			"-0.006": 17.692918969,
			"-0.005": 15.7884521216,
			"-0.004": 14.6148008333,
			"-0.003": 14.7600659767,
			"-0.002": 14.3164406716,
			"-0.001": 14.8066007779,
			"0.0": 16.3596221493,
			"0.001": 23.0354959233,
			"0.002": 33.6760926152,
			"0.003": 38.3427337617,
			"0.004": 31.5043455909,
			"0.005": 12.6899330142,
			"0.006": 0.0,
			"0.007": 0.0,
			"0.008": 0.0,
			"0.009": 0.0,
			"0.01": 0.0,
			"0.011": 0.0,
			"0.012": 0.0,
			"0.013": 0.0,
			"0.014": 0.0,
			"0.015": 0.0,
			"0.016": 0.0,
			"0.017": 0.0,
			"0.018": 0.0,
			"0.019": 0.0,
			"0.02": 0.0,
			"0.021": 0.0,
			"0.022": 0.0,
			"0.023": 0.0,
			"0.024": 0.0,
			"0.025": 0.0
		}
	}
}
