{
	 "smiles": "CN1CC2(C=C)C3CC4OCC3C1C2C41C(=O)NC2=CC=CC=C12", 
	 "Tm": 451.15, 
	 "num_atms": 46, 
	 "gaussian": { 
		 "optdone": 1, 
		 "sigma_profile": "yes", 
		 "theory": "DFT", 
		 "functional": "B3LYP", 
		 "basiset": "6-31G**", 
		 "properties": { 
			 "R2extent": 6218.4844, 
			 "electric_dipole_moment_norm": 1.41960635741, 
			 "electric_quadrupole_moment_norm": 13.823222306, 
			 "total_energy": -1035.29749089, 
			 "HOMO_LUMO_gap": 0.18929, 
			 "cosmo_polarized_energy": -13.95, 
			 "cosmo_cavitation_energy": 41.73, 
			 "cosmo_dispersion_energy": -30.09, 
			 "cosmo_repulsion_energy": 2.21, 
			 "cosmo_total_nonelectrostatic_energy": 13.85, 
			 "SMD_solvation_energy": 4.87 
		},
		"coords": [
			{
				"x": -0.1270460129,
				"y": -3.4610857267,
				"z": -2.3782008419,
				"element": "C" 
			},
			{
				"x": -0.2051255065,
				"y": -2.7068685373,
				"z": -1.1456572117,
				"element": "N" 
			},
			{
				"x": -1.4980027213,
				"y": -2.7565930265,
				"z": -0.4442803436,
				"element": "C" 
			},
			{
				"x": -1.6277218338,
				"y": -1.3564628784,
				"z": 0.2311800537,
				"element": "C" 
			},
			{
				"x": -2.4692627522,
				"y": -1.3894056296,
				"z": 1.4836355799,
				"element": "C" 
			},
			{
				"x": -2.5237631499,
				"y": -2.3807864736,
				"z": 2.3763182537,
				"element": "C" 
			},
			{
				"x": -2.1038763574,
				"y": -0.3496538025,
				"z": -0.8669553232,
				"element": "C" 
			},
			{
				"x": -2.0918132557,
				"y": 1.102222454,
				"z": -0.3455406442,
				"element": "C" 
			},
			{
				"x": -0.6370442767,
				"y": 1.5683367785,
				"z": -0.2098611817,
				"element": "C" 
			},
			{
				"x": -0.0149516003,
				"y": 1.7084437573,
				"z": -1.491011584,
				"element": "O" 
			},
			{
				"x": -0.5339643467,
				"y": 0.8529731995,
				"z": -2.5079488972,
				"element": "C" 
			},
			{
				"x": -0.9856984812,
				"y": -0.4946917959,
				"z": -1.9611517077,
				"element": "C" 
			},
			{
				"x": 0.1249454703,
				"y": -1.2798610771,
				"z": -1.1929490734,
				"element": "C" 
			},
			{
				"x": -0.1169528545,
				"y": -0.9109315796,
				"z": 0.2946876451,
				"element": "C" 
			},
			{
				"x": 0.1758334625,
				"y": 0.5749554259,
				"z": 0.6827839879,
				"element": "C" 
			},
			{
				"x": -0.1924126333,
				"y": 0.8256205717,
				"z": 2.176472806,
				"element": "C" 
			},
			{
				"x": -1.2972303106,
				"y": 0.9837084091,
				"z": 2.6665031411,
				"element": "O" 
			},
			{
				"x": 0.9899185346,
				"y": 0.8935168675,
				"z": 2.8848085956,
				"element": "N" 
			},
			{
				"x": 2.1061273512,
				"y": 0.9551139712,
				"z": 2.0408890975,
				"element": "C" 
			},
			{
				"x": 3.4374704395,
				"y": 1.1380933431,
				"z": 2.3937298646,
				"element": "C" 
			},
			{
				"x": 4.3795388303,
				"y": 1.2022151627,
				"z": 1.3602533891,
				"element": "C" 
			},
			{
				"x": 3.9843363874,
				"y": 1.0910537287,
				"z": 0.027091919,
				"element": "C" 
			},
			{
				"x": 2.6350632762,
				"y": 0.8990272687,
				"z": -0.3053057186,
				"element": "C" 
			},
			{
				"x": 1.6837321728,
				"y": 0.822205175,
				"z": 0.706221933,
				"element": "C" 
			},
			{
				"x": -0.2924240816,
				"y": -4.5226506871,
				"z": -2.1638073254,
				"element": "H" 
			},
			{
				"x": 0.8740361635,
				"y": -3.3613289402,
				"z": -2.8112454798,
				"element": "H" 
			},
			{
				"x": -0.8649039429,
				"y": -3.1640870384,
				"z": -3.1491473917,
				"element": "H" 
			},
			{
				"x": -2.3524174269,
				"y": -2.9133279066,
				"z": -1.127200061,
				"element": "H" 
			},
			{
				"x": -1.5103038071,
				"y": -3.5802437981,
				"z": 0.2758404277,
				"element": "H" 
			},
			{
				"x": -3.0795816025,
				"y": -0.512901793,
				"z": 1.6746939517,
				"element": "H" 
			},
			{
				"x": -1.9370042383,
				"y": -3.2914257396,
				"z": 2.2947247427,
				"element": "H" 
			},
			{
				"x": -3.1597374172,
				"y": -2.3000673265,
				"z": 3.2526847911,
				"element": "H" 
			},
			{
				"x": -3.0956647281,
				"y": -0.6179360165,
				"z": -1.2480531496,
				"element": "H" 
			},
			{
				"x": -2.5893813142,
				"y": 1.194878343,
				"z": 0.6212541201,
				"element": "H" 
			},
			{
				"x": -2.6100959172,
				"y": 1.7697283875,
				"z": -1.0431307228,
				"element": "H" 
			},
			{
				"x": -0.5890515962,
				"y": 2.5635094627,
				"z": 0.2443252718,
				"element": "H" 
			},
			{
				"x": 0.2742089878,
				"y": 0.7248570686,
				"z": -3.2377150686,
				"element": "H" 
			},
			{
				"x": -1.3674218969,
				"y": 1.3474836707,
				"z": -3.0314844155,
				"element": "H" 
			},
			{
				"x": -1.3377764207,
				"y": -1.0914777677,
				"z": -2.8101552842,
				"element": "H" 
			},
			{
				"x": 1.1376798521,
				"y": -1.1259728063,
				"z": -1.5735676477,
				"element": "H" 
			},
			{
				"x": 0.4722966972,
				"y": -1.5720876066,
				"z": 0.9354684351,
				"element": "H" 
			},
			{
				"x": 0.9910614271,
				"y": 1.1269869667,
				"z": 3.8674424301,
				"element": "H" 
			},
			{
				"x": 3.7364100722,
				"y": 1.2359161248,
				"z": 3.433148193,
				"element": "H" 
			},
			{
				"x": 5.4278220529,
				"y": 1.3479325912,
				"z": 1.6043850036,
				"element": "H" 
			},
			{
				"x": 4.7255184487,
				"y": 1.1588876772,
				"z": -0.7633667249,
				"element": "H" 
			},
			{
				"x": 2.3335308564,
				"y": 0.8461815488,
				"z": -1.3434078349,
				"element": "H" 
			}
		],
		 "valence_orbital": [ 
			{
				"type": "occ",
				"energy": -0.24881,
				"method": "rhf"
			},
			{
				"type": "occ",
				"energy": -0.24605,
				"method": "rhf"
			},
			{
				"type": "occ",
				"energy": -0.23821,
				"method": "rhf"
			},
			{
				"type": "occ",
				"energy": -0.21371,
				"method": "rhf"
			},
			{
				"type": "occ",
				"energy": -0.20086,
				"method": "rhf"
			},
			{
				"type": "unocc",
				"energy": -0.01157,
				"method": "rhf"
			},
			{
				"type": "unocc",
				"energy": -0.00045,
				"method": "rhf"
			},
			{
				"type": "unocc",
				"energy": 0.02158,
				"method": "rhf"
			},
			{
				"type": "unocc",
				"energy": 0.03477,
				"method": "rhf"
			},
			{
				"type": "unocc",
				"energy": 0.07445,
				"method": "rhf"
			}
		],
		"cosmo_sigma_profile": { 
			"-0.025": 0.0,
			"-0.024": 0.0,
			"-0.023": 0.0,
			"-0.022": 0.0,
			"-0.021": 0.0,
			"-0.02": 0.0,
			"-0.019": 0.0,
			"-0.018": 0.0,
			"-0.017": 0.0,
			"-0.016": 0.329119101931,
			"-0.015": 1.16717078856,
			"-0.014": 1.50751346463,
			"-0.013": 0.840004466054,
			"-0.012": 1.02039411679,
			"-0.011": 0.914739058052,
			"-0.01": 1.40555862929,
			"-0.009": 1.06247971014,
			"-0.008": 1.22508041944,
			"-0.007": 1.81240164168,
			"-0.006": 4.88292845376,
			"-0.005": 13.2624203556,
			"-0.004": 29.782798082,
			"-0.003": 44.0381504292,
			"-0.002": 42.3677271673,
			"-0.001": 36.2864771792,
			"0.0": 29.3689120678,
			"0.001": 17.1628687898,
			"0.002": 15.5321518072,
			"0.003": 14.3971802444,
			"0.004": 13.0790332364,
			"0.005": 13.0329354796,
			"0.006": 12.7432797452,
			"0.007": 5.69879203686,
			"0.008": 4.24494871956,
			"0.009": 2.77979632117,
			"0.01": 3.29946126826,
			"0.011": 3.84261761217,
			"0.012": 3.95812150103,
			"0.013": 4.09006667823,
			"0.014": 1.41752378747,
			"0.015": 0.214769425042,
			"0.016": 0.317872358152,
			"0.017": 0.0,
			"0.018": 0.0,
			"0.019": 0.0,
			"0.02": 0.0,
			"0.021": 0.0,
			"0.022": 0.0,
			"0.023": 0.0,
			"0.024": 0.0,
			"0.025": 0.0
		}
	}
}
