{
	 "smiles": "CCOC(=O)CNC1=CC=CC=C1", 
	 "Tm": 330.65, 
	 "num_atms": 26, 
	 "gaussian": { 
		 "optdone": 1, 
		 "sigma_profile": "yes", 
		 "theory": "DFT", 
		 "functional": "B3LYP", 
		 "basiset": "6-31G**", 
		 "properties": { 
			 "R2extent": 3206.0383, 
			 "electric_dipole_moment_norm": 2.3393618788, 
			 "electric_quadrupole_moment_norm": 10.1987126139, 
			 "total_energy": -594.10929187, 
			 "HOMO_LUMO_gap": 0.19706, 
			 "cosmo_polarized_energy": -10.83, 
			 "cosmo_cavitation_energy": 29.7, 
			 "cosmo_dispersion_energy": -20.46, 
			 "cosmo_repulsion_energy": 1.65, 
			 "cosmo_total_nonelectrostatic_energy": 10.9, 
			 "SMD_solvation_energy": 5.13 
		},
		"coords": [
			{
				"x": 2.5500535198,
				"y": 2.4471796174,
				"z": 1.5272488642,
				"element": "C" 
			},
			{
				"x": 2.8225544509,
				"y": 3.0696407081,
				"z": 0.1667576332,
				"element": "C" 
			},
			{
				"x": 2.0716201095,
				"y": 2.3957648407,
				"z": -0.8750511489,
				"element": "O" 
			},
			{
				"x": 0.8086730427,
				"y": 2.8191740192,
				"z": -1.0797034461,
				"element": "C" 
			},
			{
				"x": 0.2828347475,
				"y": 3.7401260836,
				"z": -0.492976132,
				"element": "O" 
			},
			{
				"x": 0.1304691285,
				"y": 2.022466184,
				"z": -2.2020187675,
				"element": "C" 
			},
			{
				"x": 0.4759680796,
				"y": 0.624225173,
				"z": -2.3088592136,
				"element": "N" 
			},
			{
				"x": 0.1683978395,
				"y": -0.2789239754,
				"z": -1.2836111135,
				"element": "C" 
			},
			{
				"x": 0.7725635266,
				"y": -1.5509705934,
				"z": -1.2949521664,
				"element": "C" 
			},
			{
				"x": 0.4580174384,
				"y": -2.4960750827,
				"z": -0.3250317713,
				"element": "C" 
			},
			{
				"x": -0.4682964191,
				"y": -2.2044855491,
				"z": 0.6812186936,
				"element": "C" 
			},
			{
				"x": -1.0674760644,
				"y": -0.9461024497,
				"z": 0.6984940032,
				"element": "C" 
			},
			{
				"x": -0.7556464822,
				"y": 0.0149633393,
				"z": -0.2655274129,
				"element": "C" 
			},
			{
				"x": 2.7624815529,
				"y": 1.3745308276,
				"z": 1.5144951942,
				"element": "H" 
			},
			{
				"x": 3.185997456,
				"y": 2.9181574741,
				"z": 2.2842946251,
				"element": "H" 
			},
			{
				"x": 1.506545544,
				"y": 2.5952245735,
				"z": 1.8152260726,
				"element": "H" 
			},
			{
				"x": 2.5623752213,
				"y": 4.1307701192,
				"z": 0.1558387534,
				"element": "H" 
			},
			{
				"x": 3.8669582039,
				"y": 2.9472735291,
				"z": -0.1299482742,
				"element": "H" 
			},
			{
				"x": 0.3925047432,
				"y": 2.5123682892,
				"z": -3.1472059138,
				"element": "H" 
			},
			{
				"x": -0.9476091467,
				"y": 2.149851829,
				"z": -2.0767708302,
				"element": "H" 
			},
			{
				"x": 1.3883667887,
				"y": 0.4662570917,
				"z": -2.714034355,
				"element": "H" 
			},
			{
				"x": 1.4865072449,
				"y": -1.7919434966,
				"z": -2.0794120154,
				"element": "H" 
			},
			{
				"x": 0.9398638118,
				"y": -3.4696091008,
				"z": -0.3566754621,
				"element": "H" 
			},
			{
				"x": -0.713631094,
				"y": -2.944101766,
				"z": 1.4368306798,
				"element": "H" 
			},
			{
				"x": -1.7851355335,
				"y": -0.6965142031,
				"z": 1.4754032477,
				"element": "H" 
			},
			{
				"x": -1.2297577097,
				"y": 0.989052518,
				"z": -0.2136297443,
				"element": "H" 
			}
		],
		 "valence_orbital": [ 
			{
				"type": "occ",
				"energy": -0.30907,
				"method": "rhf"
			},
			{
				"type": "occ",
				"energy": -0.2997,
				"method": "rhf"
			},
			{
				"type": "occ",
				"energy": -0.27021,
				"method": "rhf"
			},
			{
				"type": "occ",
				"energy": -0.24343,
				"method": "rhf"
			},
			{
				"type": "occ",
				"energy": -0.19796,
				"method": "rhf"
			},
			{
				"type": "unocc",
				"energy": -0.0009,
				"method": "rhf"
			},
			{
				"type": "unocc",
				"energy": 0.01367,
				"method": "rhf"
			},
			{
				"type": "unocc",
				"energy": 0.02009,
				"method": "rhf"
			},
			{
				"type": "unocc",
				"energy": 0.08471,
				"method": "rhf"
			},
			{
				"type": "unocc",
				"energy": 0.10178,
				"method": "rhf"
			}
		],
		"cosmo_sigma_profile": { 
			"-0.025": 0.0,
			"-0.024": 0.0,
			"-0.023": 0.0,
			"-0.022": 0.0,
			"-0.021": 0.0,
			"-0.02": 0.0,
			"-0.019": 0.0,
			"-0.018": 0.0,
			"-0.017": 0.0,
			"-0.016": 0.0,
			"-0.015": 0.0,
			"-0.014": 0.0,
			"-0.013": 0.245229516572,
			"-0.012": 1.28734933232,
			"-0.011": 1.30992881194,
			"-0.01": 1.00287641079,
			"-0.009": 1.63872701605,
			"-0.008": 4.82700558958,
			"-0.007": 3.99534630492,
			"-0.006": 8.59852748233,
			"-0.005": 16.1261359266,
			"-0.004": 23.0475428411,
			"-0.003": 23.9982890367,
			"-0.002": 19.9772414861,
			"-0.001": 16.3931082633,
			"0.0": 17.9936509045,
			"0.001": 12.7450320614,
			"0.002": 10.3000366435,
			"0.003": 9.64623272265,
			"0.004": 11.0947912377,
			"0.005": 12.2833424619,
			"0.006": 13.1460394897,
			"0.007": 9.12930156801,
			"0.008": 2.58485677745,
			"0.009": 2.09155755598,
			"0.01": 2.46942514507,
			"0.011": 3.37793870431,
			"0.012": 4.39388078967,
			"0.013": 0.881658002782,
			"0.014": 0.0,
			"0.015": 0.0,
			"0.016": 0.0,
			"0.017": 0.0,
			"0.018": 0.0,
			"0.019": 0.0,
			"0.02": 0.0,
			"0.021": 0.0,
			"0.022": 0.0,
			"0.023": 0.0,
			"0.024": 0.0,
			"0.025": 0.0
		}
	}
}
