{
	 "smiles": "CC1=C(C=CC(Br)=N1)C(O)=O", 
	 "Tm": 429.15, 
	 "num_atms": 17, 
	 "gaussian": { 
		 "optdone": 1, 
		 "sigma_profile": "yes", 
		 "theory": "DFT", 
		 "functional": "B3LYP", 
		 "basiset": "6-31G**", 
		 "properties": { 
			 "R2extent": 3585.7461, 
			 "electric_dipole_moment_norm": 1.94888083525, 
			 "electric_quadrupole_moment_norm": 17.4568978567, 
			 "total_energy": -3046.97053198, 
			 "HOMO_LUMO_gap": 0.19783, 
			 "cosmo_polarized_energy": -13.82, 
			 "cosmo_cavitation_energy": 23.89, 
			 "cosmo_dispersion_energy": -18.21, 
			 "cosmo_repulsion_energy": 1.46, 
			 "cosmo_total_nonelectrostatic_energy": 7.14, 
			 "SMD_solvation_energy": 2.82 
		},
		"coords": [
			{
				"x": -0.2681201769,
				"y": 1.5291464816,
				"z": 2.4050666768,
				"element": "C" 
			},
			{
				"x": -0.6688269719,
				"y": 0.7232237032,
				"z": 1.1888211909,
				"element": "C" 
			},
			{
				"x": -0.5336390532,
				"y": -0.6763076937,
				"z": 1.0733215063,
				"element": "C" 
			},
			{
				"x": -0.8817676154,
				"y": -1.274379411,
				"z": -0.1488242966,
				"element": "C" 
			},
			{
				"x": -1.3903713974,
				"y": -0.5086675673,
				"z": -1.1851375969,
				"element": "C" 
			},
			{
				"x": -1.5099520436,
				"y": 0.8622660992,
				"z": -0.9442665456,
				"element": "C" 
			},
			{
				"x": -2.2238054379,
				"y": 1.9770484621,
				"z": -2.331323772,
				"element": "Br" 
			},
			{
				"x": -1.1559900042,
				"y": 1.4616144144,
				"z": 0.1735647788,
				"element": "N" 
			},
			{
				"x": 0.0079534007,
				"y": -1.6120618473,
				"z": 2.1193519671,
				"element": "C" 
			},
			{
				"x": -0.1199614286,
				"y": -1.2588114096,
				"z": 3.4228572461,
				"element": "O" 
			},
			{
				"x": 0.528560056,
				"y": -2.6643400361,
				"z": 1.832693591,
				"element": "O" 
			},
			{
				"x": -1.0682068717,
				"y": 1.5454308835,
				"z": 3.1598409466,
				"element": "H" 
			},
			{
				"x": 0.644814457,
				"y": 1.1570538348,
				"z": 2.8762943277,
				"element": "H" 
			},
			{
				"x": -0.1164469942,
				"y": 2.5646472069,
				"z": 2.0978954861,
				"element": "H" 
			},
			{
				"x": -0.7389350741,
				"y": -2.3442393529,
				"z": -0.2577209442,
				"element": "H" 
			},
			{
				"x": -1.6769520737,
				"y": -0.9400989656,
				"z": -2.1358575645,
				"element": "H" 
			},
			{
				"x": -0.656552771,
				"y": -0.4604248023,
				"z": 3.5152230023,
				"element": "H" 
			}
		],
		 "valence_orbital": [ 
			{
				"type": "occ",
				"energy": -0.30896,
				"method": "rhf"
			},
			{
				"type": "occ",
				"energy": -0.30068,
				"method": "rhf"
			},
			{
				"type": "occ",
				"energy": -0.29619,
				"method": "rhf"
			},
			{
				"type": "occ",
				"energy": -0.27808,
				"method": "rhf"
			},
			{
				"type": "occ",
				"energy": -0.26653,
				"method": "rhf"
			},
			{
				"type": "unocc",
				"energy": -0.0687,
				"method": "rhf"
			},
			{
				"type": "unocc",
				"energy": -0.04972,
				"method": "rhf"
			},
			{
				"type": "unocc",
				"energy": -0.00218,
				"method": "rhf"
			},
			{
				"type": "unocc",
				"energy": 0.02532,
				"method": "rhf"
			},
			{
				"type": "unocc",
				"energy": 0.05452,
				"method": "rhf"
			}
		],
		"cosmo_sigma_profile": { 
			"-0.025": 0.0,
			"-0.024": 0.0,
			"-0.023": 0.0,
			"-0.022": 0.0,
			"-0.021": 0.0,
			"-0.02": 0.0,
			"-0.019": 0.0,
			"-0.018": 0.0711030955658,
			"-0.017": 0.987877083899,
			"-0.016": 1.08405722674,
			"-0.015": 1.26105961359,
			"-0.014": 1.13579247485,
			"-0.013": 0.924213126614,
			"-0.012": 1.1933410857,
			"-0.011": 0.879467152289,
			"-0.01": 1.09359013563,
			"-0.009": 1.68276455242,
			"-0.008": 4.89009968669,
			"-0.007": 6.99294003137,
			"-0.006": 8.8247820723,
			"-0.005": 9.66688432349,
			"-0.004": 10.9038368942,
			"-0.003": 13.5050451742,
			"-0.002": 16.0504265223,
			"-0.001": 17.7619737356,
			"0.0": 14.4697401962,
			"0.001": 9.68286863046,
			"0.002": 8.41960316255,
			"0.003": 11.2885451962,
			"0.004": 12.5930983474,
			"0.005": 6.02352120549,
			"0.006": 3.97675639788,
			"0.007": 3.71091991847,
			"0.008": 4.47850673129,
			"0.009": 4.95150297182,
			"0.01": 5.55986522675,
			"0.011": 6.12460022848,
			"0.012": 3.9748996857,
			"0.013": 0.810767971723,
			"0.014": 0.0,
			"0.015": 0.0,
			"0.016": 0.0,
			"0.017": 0.0,
			"0.018": 0.0,
			"0.019": 0.0,
			"0.02": 0.0,
			"0.021": 0.0,
			"0.022": 0.0,
			"0.023": 0.0,
			"0.024": 0.0,
			"0.025": 0.0
		}
	}
}
