{
	 "smiles": "COC(=O)C(N)CC1=CNC2=C1C=C(Br)C=C2", 
	 "Tm": 393.15, 
	 "num_atms": 30, 
	 "gaussian": { 
		 "optdone": 1, 
		 "sigma_profile": "yes", 
		 "theory": "DFT", 
		 "functional": "B3LYP", 
		 "basiset": "6-31G**", 
		 "properties": { 
			 "R2extent": 7218.4434, 
			 "electric_dipole_moment_norm": 4.53655613985, 
			 "electric_quadrupole_moment_norm": 15.3762820116, 
			 "total_energy": -3296.47890691, 
			 "HOMO_LUMO_gap": 0.18885, 
			 "cosmo_polarized_energy": -16.49, 
			 "cosmo_cavitation_energy": 36.82, 
			 "cosmo_dispersion_energy": -25.79, 
			 "cosmo_repulsion_energy": 2.05, 
			 "cosmo_total_nonelectrostatic_energy": 13.08, 
			 "SMD_solvation_energy": 4.88 
		},
		"coords": [
			{
				"x": 3.3970126862,
				"y": -2.8439643518,
				"z": -0.4528653559,
				"element": "C" 
			},
			{
				"x": 2.4925143172,
				"y": -2.1898635408,
				"z": 0.4533877362,
				"element": "O" 
			},
			{
				"x": 1.2189703653,
				"y": -2.6385882473,
				"z": 0.4288379255,
				"element": "C" 
			},
			{
				"x": 0.8402959281,
				"y": -3.535494063,
				"z": -0.2993465095,
				"element": "O" 
			},
			{
				"x": 0.3602236225,
				"y": -1.9556105873,
				"z": 1.4955178747,
				"element": "C" 
			},
			{
				"x": 0.3016192408,
				"y": -2.7779996514,
				"z": 2.7128548647,
				"element": "N" 
			},
			{
				"x": -1.0638440087,
				"y": -1.7141929066,
				"z": 0.9635136406,
				"element": "C" 
			},
			{
				"x": -1.1246539663,
				"y": -0.752786672,
				"z": -0.1887329631,
				"element": "C" 
			},
			{
				"x": -1.1058203321,
				"y": -1.0690862195,
				"z": -1.5254831534,
				"element": "C" 
			},
			{
				"x": -1.1504992515,
				"y": 0.082994478,
				"z": -2.2884258968,
				"element": "N" 
			},
			{
				"x": -1.1997306953,
				"y": 1.1787517937,
				"z": -1.4529159302,
				"element": "C" 
			},
			{
				"x": -1.1815910883,
				"y": 0.6874377242,
				"z": -0.117649289,
				"element": "C" 
			},
			{
				"x": -1.2264905909,
				"y": 1.6030247862,
				"z": 0.948585276,
				"element": "C" 
			},
			{
				"x": -1.2857972915,
				"y": 2.954582996,
				"z": 0.6464869034,
				"element": "C" 
			},
			{
				"x": -1.3471594728,
				"y": 4.2301813808,
				"z": 2.0785368165,
				"element": "Br" 
			},
			{
				"x": -1.3028330278,
				"y": 3.4356387378,
				"z": -0.6762478249,
				"element": "C" 
			},
			{
				"x": -1.2609419761,
				"y": 2.5451267926,
				"z": -1.7425801825,
				"element": "C" 
			},
			{
				"x": 3.4598987527,
				"y": -3.9124580746,
				"z": -0.2312815676,
				"element": "H" 
			},
			{
				"x": 4.3638012694,
				"y": -2.3634849063,
				"z": -0.3037411229,
				"element": "H" 
			},
			{
				"x": 3.0617139601,
				"y": -2.718896594,
				"z": -1.4853764275,
				"element": "H" 
			},
			{
				"x": 0.8283537748,
				"y": -1.002270201,
				"z": 1.7571842311,
				"element": "H" 
			},
			{
				"x": 1.2311591769,
				"y": -2.8800343286,
				"z": 3.1136598685,
				"element": "H" 
			},
			{
				"x": -0.0206286684,
				"y": -3.71390473,
				"z": 2.4721972369,
				"element": "H" 
			},
			{
				"x": -1.4790076568,
				"y": -2.6821118097,
				"z": 0.661890421,
				"element": "H" 
			},
			{
				"x": -1.6649097616,
				"y": -1.3519138476,
				"z": 1.8038821426,
				"element": "H" 
			},
			{
				"x": -1.0533392901,
				"y": -2.0423973772,
				"z": -1.9922128276,
				"element": "H" 
			},
			{
				"x": -1.1619555859,
				"y": 0.1134228814,
				"z": -3.2945400308,
				"element": "H" 
			},
			{
				"x": -1.2172206683,
				"y": 1.2685285555,
				"z": 1.980043766,
				"element": "H" 
			},
			{
				"x": -1.3500247583,
				"y": 4.5030197592,
				"z": -0.8567892255,
				"element": "H" 
			},
			{
				"x": -1.2755150034,
				"y": 2.9094482233,
				"z": -2.7657903968,
				"element": "H" 
			}
		],
		 "valence_orbital": [ 
			{
				"type": "occ",
				"energy": -0.27654,
				"method": "rhf"
			},
			{
				"type": "occ",
				"energy": -0.27458,
				"method": "rhf"
			},
			{
				"type": "occ",
				"energy": -0.24174,
				"method": "rhf"
			},
			{
				"type": "occ",
				"energy": -0.21728,
				"method": "rhf"
			},
			{
				"type": "occ",
				"energy": -0.20561,
				"method": "rhf"
			},
			{
				"type": "unocc",
				"energy": -0.01676,
				"method": "rhf"
			},
			{
				"type": "unocc",
				"energy": 0.00548,
				"method": "rhf"
			},
			{
				"type": "unocc",
				"energy": 0.01848,
				"method": "rhf"
			},
			{
				"type": "unocc",
				"energy": 0.01884,
				"method": "rhf"
			},
			{
				"type": "unocc",
				"energy": 0.06073,
				"method": "rhf"
			}
		],
		"cosmo_sigma_profile": { 
			"-0.025": 0.0,
			"-0.024": 0.0,
			"-0.023": 0.0,
			"-0.022": 0.0,
			"-0.021": 0.0,
			"-0.02": 0.0,
			"-0.019": 0.0,
			"-0.018": 0.0,
			"-0.017": 0.0,
			"-0.016": 0.785700557924,
			"-0.015": 1.5526715825,
			"-0.014": 1.12723167989,
			"-0.013": 2.21590364653,
			"-0.012": 0.606219324949,
			"-0.011": 1.50527911486,
			"-0.01": 3.99045404922,
			"-0.009": 4.29688920299,
			"-0.008": 4.90798848535,
			"-0.007": 8.06875935638,
			"-0.006": 12.4969119511,
			"-0.005": 18.7643617292,
			"-0.004": 20.3719233431,
			"-0.003": 23.3043463529,
			"-0.002": 18.7550449813,
			"-0.001": 16.4672435433,
			"0.0": 14.4016265509,
			"0.001": 15.497917805,
			"0.002": 17.0824137901,
			"0.003": 21.2219656527,
			"0.004": 28.7497194793,
			"0.005": 29.6735704755,
			"0.006": 7.28427499525,
			"0.007": 3.17888264627,
			"0.008": 2.8042526836,
			"0.009": 2.57244343645,
			"0.01": 2.39060185602,
			"0.011": 2.50498921133,
			"0.012": 3.81083995414,
			"0.013": 1.46684323887,
			"0.014": 0.842849069474,
			"0.015": 0.392175977298,
			"0.016": 0.777583276282,
			"0.017": 0.350897590172,
			"0.018": 0.447028701863,
			"0.019": 0.0,
			"0.02": 0.0,
			"0.021": 0.0,
			"0.022": 0.0,
			"0.023": 0.0,
			"0.024": 0.0,
			"0.025": 0.0
		}
	}
}
