{
	 "smiles": "CCC1=C(C)N=C(NC(=O)NS(=O)(=O)C2=CC=CS2)N=C1Cl", 
	 "Tm": 399.15, 
	 "num_atms": 35, 
	 "gaussian": { 
		 "optdone": 1, 
		 "sigma_profile": "yes", 
		 "theory": "DFT", 
		 "functional": "B3LYP", 
		 "basiset": "6-31G**", 
		 "properties": { 
			 "R2extent": 12635.0896, 
			 "electric_dipole_moment_norm": 7.3824719627, 
			 "electric_quadrupole_moment_norm": 31.3476823633, 
			 "total_energy": -2166.31561137, 
			 "HOMO_LUMO_gap": 0.18889, 
			 "cosmo_polarized_energy": -20.19, 
			 "cosmo_cavitation_energy": 44.31, 
			 "cosmo_dispersion_energy": -32.26, 
			 "cosmo_repulsion_energy": 2.39, 
			 "cosmo_total_nonelectrostatic_energy": 14.43, 
			 "SMD_solvation_energy": 5.39 
		},
		"coords": [
			{
				"x": -2.0464542,
				"y": -3.0439254764,
				"z": 2.946559141,
				"element": "C" 
			},
			{
				"x": -1.7026993368,
				"y": -3.2401963678,
				"z": 1.4576100329,
				"element": "C" 
			},
			{
				"x": -0.5771087998,
				"y": -2.3518196647,
				"z": 0.9814874418,
				"element": "C" 
			},
			{
				"x": 0.7776631877,
				"y": -2.7651690605,
				"z": 0.9837821713,
				"element": "C" 
			},
			{
				"x": 1.1833649262,
				"y": -4.1433162594,
				"z": 1.4398338722,
				"element": "C" 
			},
			{
				"x": 1.7738765861,
				"y": -1.9716247246,
				"z": 0.5764535386,
				"element": "N" 
			},
			{
				"x": 1.4424651644,
				"y": -0.7441174675,
				"z": 0.1565860532,
				"element": "C" 
			},
			{
				"x": 2.505672946,
				"y": 0.0375818664,
				"z": -0.2552955864,
				"element": "N" 
			},
			{
				"x": 2.5812650676,
				"y": 1.3349173367,
				"z": -0.7854817533,
				"element": "C" 
			},
			{
				"x": 3.6649836355,
				"y": 1.7997888771,
				"z": -1.0927836076,
				"element": "O" 
			},
			{
				"x": 1.3822449065,
				"y": 2.0044566743,
				"z": -0.8926365814,
				"element": "N" 
			},
			{
				"x": 1.2079829322,
				"y": 3.4896290704,
				"z": -1.7151793202,
				"element": "S" 
			},
			{
				"x": -0.2272206731,
				"y": 3.7432877984,
				"z": -1.6012483615,
				"element": "O" 
			},
			{
				"x": 1.8813816627,
				"y": 3.4073791957,
				"z": -3.0030831749,
				"element": "O" 
			},
			{
				"x": 2.0410103296,
				"y": 4.6732610593,
				"z": -0.7036436334,
				"element": "C" 
			},
			{
				"x": 1.3834782283,
				"y": 5.5925246765,
				"z": 0.0789377955,
				"element": "C" 
			},
			{
				"x": 2.2811561655,
				"y": 6.4963641906,
				"z": 0.7090759768,
				"element": "C" 
			},
			{
				"x": 3.5893643426,
				"y": 6.2471401734,
				"z": 0.3792626819,
				"element": "C" 
			},
			{
				"x": 3.7654651552,
				"y": 4.9058296628,
				"z": -0.6945245146,
				"element": "S" 
			},
			{
				"x": 0.2036996709,
				"y": -0.239193568,
				"z": 0.1149314031,
				"element": "N" 
			},
			{
				"x": -0.766877973,
				"y": -1.0452460129,
				"z": 0.5246200171,
				"element": "C" 
			},
			{
				"x": -2.3774508686,
				"y": -0.3506652526,
				"z": 0.4590080412,
				"element": "Cl" 
			},
			{
				"x": -1.1842793674,
				"y": -3.2530203671,
				"z": 3.5880888661,
				"element": "H" 
			},
			{
				"x": -2.8582717082,
				"y": -3.7152818404,
				"z": 3.242825776,
				"element": "H" 
			},
			{
				"x": -2.368246549,
				"y": -2.0171472033,
				"z": 3.1418863196,
				"element": "H" 
			},
			{
				"x": -1.435451773,
				"y": -4.2862465537,
				"z": 1.2804525136,
				"element": "H" 
			},
			{
				"x": -2.5937816642,
				"y": -3.043604762,
				"z": 0.8546148999,
				"element": "H" 
			},
			{
				"x": 2.2711227006,
				"y": -4.2146501043,
				"z": 1.4442241791,
				"element": "H" 
			},
			{
				"x": 0.7851968458,
				"y": -4.9110951283,
				"z": 0.7665179139,
				"element": "H" 
			},
			{
				"x": 0.8041505766,
				"y": -4.3638100713,
				"z": 2.4424452635,
				"element": "H" 
			},
			{
				"x": 3.4102789296,
				"y": -0.4107565875,
				"z": -0.1882282618,
				"element": "H" 
			},
			{
				"x": 0.515561,
				"y": 1.5350037852,
				"z": -0.6131872296,
				"element": "H" 
			},
			{
				"x": 0.3050475875,
				"y": 5.6122691759,
				"z": 0.1730289701,
				"element": "H" 
			},
			{
				"x": 1.969809292,
				"y": 7.2954045164,
				"z": 1.3714543179,
				"element": "H" 
			},
			{
				"x": 4.4716010743,
				"y": 6.7729484131,
				"z": 0.7201048383,
				"element": "H" 
			}
		],
		 "valence_orbital": [ 
			{
				"type": "occ",
				"energy": -0.28764,
				"method": "rhf"
			},
			{
				"type": "occ",
				"energy": -0.28211,
				"method": "rhf"
			},
			{
				"type": "occ",
				"energy": -0.26221,
				"method": "rhf"
			},
			{
				"type": "occ",
				"energy": -0.2562,
				"method": "rhf"
			},
			{
				"type": "occ",
				"energy": -0.24946,
				"method": "rhf"
			},
			{
				"type": "unocc",
				"energy": -0.06057,
				"method": "rhf"
			},
			{
				"type": "unocc",
				"energy": -0.04544,
				"method": "rhf"
			},
			{
				"type": "unocc",
				"energy": -0.04072,
				"method": "rhf"
			},
			{
				"type": "unocc",
				"energy": 0.01506,
				"method": "rhf"
			},
			{
				"type": "unocc",
				"energy": 0.02448,
				"method": "rhf"
			}
		],
		"cosmo_sigma_profile": { 
			"-0.025": 0.0,
			"-0.024": 0.0,
			"-0.023": 0.0,
			"-0.022": 0.0,
			"-0.021": 0.0,
			"-0.02": 0.0,
			"-0.019": 0.0,
			"-0.018": 0.0,
			"-0.017": 0.0,
			"-0.016": 0.240626219822,
			"-0.015": 0.488460783211,
			"-0.014": 0.74607823047,
			"-0.013": 0.893985467862,
			"-0.012": 0.644939796912,
			"-0.011": 0.26191258703,
			"-0.01": 2.07203766964,
			"-0.009": 3.51039621391,
			"-0.008": 5.25197789189,
			"-0.007": 6.29588367079,
			"-0.006": 12.2533987736,
			"-0.005": 18.7655342221,
			"-0.004": 25.4386512334,
			"-0.003": 33.040765335,
			"-0.002": 40.9537046189,
			"-0.001": 37.5240614622,
			"0.0": 28.9533454262,
			"0.001": 30.1181133271,
			"0.002": 25.5685617554,
			"0.003": 18.439433329,
			"0.004": 9.91644204204,
			"0.005": 5.64467989996,
			"0.006": 6.48920757644,
			"0.007": 5.30828652217,
			"0.008": 6.04976450163,
			"0.009": 10.7080563584,
			"0.01": 13.4426164966,
			"0.011": 6.81418906388,
			"0.012": 2.53727244714,
			"0.013": 0.165304270293,
			"0.014": 0.0,
			"0.015": 0.0,
			"0.016": 0.0,
			"0.017": 0.0,
			"0.018": 0.0,
			"0.019": 0.0,
			"0.02": 0.0,
			"0.021": 0.0,
			"0.022": 0.0,
			"0.023": 0.0,
			"0.024": 0.0,
			"0.025": 0.0
		}
	}
}
