{
	 "smiles": "CC1=CC=CC=C1C(N)=O", 
	 "Tm": 417.15, 
	 "num_atms": 19, 
	 "gaussian": { 
		 "optdone": 1, 
		 "sigma_profile": "yes", 
		 "theory": "DFT", 
		 "functional": "B3LYP", 
		 "basiset": "6-31G**", 
		 "properties": { 
			 "R2extent": 2349.4759, 
			 "electric_dipole_moment_norm": 3.17057419563, 
			 "electric_quadrupole_moment_norm": 14.5692976601, 
			 "total_energy": -440.274571177, 
			 "HOMO_LUMO_gap": 0.21073, 
			 "cosmo_polarized_energy": -11.55, 
			 "cosmo_cavitation_energy": 22.43, 
			 "cosmo_dispersion_energy": -16.69, 
			 "cosmo_repulsion_energy": 1.36, 
			 "cosmo_total_nonelectrostatic_energy": 7.1, 
			 "SMD_solvation_energy": 4.62 
		},
		"coords": [
			{
				"x": 1.2142445461,
				"y": 2.5458248422,
				"z": -0.8812788016,
				"element": "C" 
			},
			{
				"x": 0.6234990587,
				"y": 1.1552848017,
				"z": -0.8638967383,
				"element": "C" 
			},
			{
				"x": 0.2457264174,
				"y": 0.5890198234,
				"z": 0.3607658151,
				"element": "C" 
			},
			{
				"x": -0.3210098306,
				"y": -0.6827106682,
				"z": 0.4445693209,
				"element": "C" 
			},
			{
				"x": -0.5225893723,
				"y": -1.429717577,
				"z": -0.7148890806,
				"element": "C" 
			},
			{
				"x": -0.1400732409,
				"y": -0.8946788889,
				"z": -1.9427950439,
				"element": "C" 
			},
			{
				"x": 0.435037971,
				"y": 0.382885725,
				"z": -2.0340997865,
				"element": "C" 
			},
			{
				"x": 0.8142336445,
				"y": 0.9304386316,
				"z": -3.3822481879,
				"element": "C" 
			},
			{
				"x": 1.198413753,
				"y": -0.008218927,
				"z": -4.3146045833,
				"element": "N" 
			},
			{
				"x": 0.7626630552,
				"y": 2.1217441634,
				"z": -3.6654270116,
				"element": "O" 
			},
			{
				"x": 1.4087583809,
				"y": 2.8870589231,
				"z": 0.139484517,
				"element": "H" 
			},
			{
				"x": 2.1493826976,
				"y": 2.5859478646,
				"z": -1.4468872826,
				"element": "H" 
			},
			{
				"x": 0.5384844438,
				"y": 3.2518473616,
				"z": -1.3700859545,
				"element": "H" 
			},
			{
				"x": 0.3985927499,
				"y": 1.1657012078,
				"z": 1.269321267,
				"element": "H" 
			},
			{
				"x": -0.6076222068,
				"y": -1.084213035,
				"z": 1.4125190597,
				"element": "H" 
			},
			{
				"x": -0.976431306,
				"y": -2.4150781577,
				"z": -0.6667240166,
				"element": "H" 
			},
			{
				"x": -0.3201489345,
				"y": -1.4606777885,
				"z": -2.8518938273,
				"element": "H" 
			},
			{
				"x": 1.5511502336,
				"y": 0.3651185353,
				"z": -5.1841901543,
				"element": "H" 
			},
			{
				"x": 1.5513879394,
				"y": -0.9050768374,
				"z": -4.0195395108,
				"element": "H" 
			}
		],
		 "valence_orbital": [ 
			{
				"type": "occ",
				"energy": -0.34342,
				"method": "rhf"
			},
			{
				"type": "occ",
				"energy": -0.2693,
				"method": "rhf"
			},
			{
				"type": "occ",
				"energy": -0.25672,
				"method": "rhf"
			},
			{
				"type": "occ",
				"energy": -0.24671,
				"method": "rhf"
			},
			{
				"type": "occ",
				"energy": -0.24234,
				"method": "rhf"
			},
			{
				"type": "unocc",
				"energy": -0.03161,
				"method": "rhf"
			},
			{
				"type": "unocc",
				"energy": -0.00384,
				"method": "rhf"
			},
			{
				"type": "unocc",
				"energy": 0.05613,
				"method": "rhf"
			},
			{
				"type": "unocc",
				"energy": 0.08392,
				"method": "rhf"
			},
			{
				"type": "unocc",
				"energy": 0.1038,
				"method": "rhf"
			}
		],
		"cosmo_sigma_profile": { 
			"-0.025": 0.0,
			"-0.024": 0.0,
			"-0.023": 0.0,
			"-0.022": 0.0,
			"-0.021": 0.0,
			"-0.02": 0.0,
			"-0.019": 0.0,
			"-0.018": 0.0,
			"-0.017": 0.0,
			"-0.016": 0.0,
			"-0.015": 0.0,
			"-0.014": 0.751986782721,
			"-0.013": 1.89742743036,
			"-0.012": 2.51449395778,
			"-0.011": 2.27211214303,
			"-0.01": 2.41538045363,
			"-0.009": 2.38279159902,
			"-0.008": 2.20783338995,
			"-0.007": 2.37579760101,
			"-0.006": 7.07479928628,
			"-0.005": 10.8968903524,
			"-0.004": 12.1227390357,
			"-0.003": 13.0707928105,
			"-0.002": 12.0095534397,
			"-0.001": 12.617307757,
			"0.0": 14.1668082039,
			"0.001": 15.2005692044,
			"0.002": 9.02407410751,
			"0.003": 9.64671660645,
			"0.004": 12.2875560763,
			"0.005": 11.2436352175,
			"0.006": 3.53920715316,
			"0.007": 1.90853171325,
			"0.008": 2.06174139725,
			"0.009": 1.59929131149,
			"0.01": 1.65261153105,
			"0.011": 1.43564741014,
			"0.012": 2.31006533126,
			"0.013": 3.33486455822,
			"0.014": 3.31550910092,
			"0.015": 0.469408500109,
			"0.016": 0.0,
			"0.017": 0.0,
			"0.018": 0.0,
			"0.019": 0.0,
			"0.02": 0.0,
			"0.021": 0.0,
			"0.022": 0.0,
			"0.023": 0.0,
			"0.024": 0.0,
			"0.025": 0.0
		}
	}
}
