{
	 "smiles": "ClC1=C(Cl)C(=O)NN=C1", 
	 "Tm": 475.15, 
	 "num_atms": 11, 
	 "gaussian": { 
		 "optdone": 1, 
		 "sigma_profile": "yes", 
		 "theory": "DFT", 
		 "functional": "B3LYP", 
		 "basiset": "6-31G**", 
		 "properties": { 
			 "R2extent": 1827.477, 
			 "electric_dipole_moment_norm": 2.71141651171, 
			 "electric_quadrupole_moment_norm": 3.18183721142, 
			 "total_energy": -1258.70602361, 
			 "HOMO_LUMO_gap": 0.17191, 
			 "cosmo_polarized_energy": -10.56, 
			 "cosmo_cavitation_energy": 19.62, 
			 "cosmo_dispersion_energy": -15.12, 
			 "cosmo_repulsion_energy": 1.24, 
			 "cosmo_total_nonelectrostatic_energy": 5.75, 
			 "SMD_solvation_energy": 3.15 
		},
		"coords": [
			{
				"x": 0.6542202574,
				"y": -1.4373940282,
				"z": 3.0747680673,
				"element": "Cl" 
			},
			{
				"x": 0.7170114129,
				"y": -0.2906203983,
				"z": 1.7719747691,
				"element": "C" 
			},
			{
				"x": 0.3484142229,
				"y": -0.6015080266,
				"z": 0.4929008489,
				"element": "C" 
			},
			{
				"x": -0.2195476444,
				"y": -2.1494724351,
				"z": 0.0072568082,
				"element": "Cl" 
			},
			{
				"x": 0.429561895,
				"y": 0.4269412376,
				"z": -0.5589528069,
				"element": "C" 
			},
			{
				"x": 0.1363322322,
				"y": 0.2900246524,
				"z": -1.7338036816,
				"element": "O" 
			},
			{
				"x": 0.9026129269,
				"y": 1.6502667381,
				"z": -0.0660935856,
				"element": "N" 
			},
			{
				"x": 1.2678790403,
				"y": 1.9737014208,
				"z": 1.1801954275,
				"element": "N" 
			},
			{
				"x": 1.178859394,
				"y": 1.0327335105,
				"z": 2.0765165859,
				"element": "C" 
			},
			{
				"x": 0.9794246455,
				"y": 2.3961027739,
				"z": -0.7483868262,
				"element": "H" 
			},
			{
				"x": 1.4735316174,
				"y": 1.2895245548,
				"z": 3.0875243936,
				"element": "H" 
			}
		],
		 "valence_orbital": [ 
			{
				"type": "occ",
				"energy": -0.33597,
				"method": "rhf"
			},
			{
				"type": "occ",
				"energy": -0.32663,
				"method": "rhf"
			},
			{
				"type": "occ",
				"energy": -0.30242,
				"method": "rhf"
			},
			{
				"type": "occ",
				"energy": -0.27829,
				"method": "rhf"
			},
			{
				"type": "occ",
				"energy": -0.25715,
				"method": "rhf"
			},
			{
				"type": "unocc",
				"energy": -0.08524,
				"method": "rhf"
			},
			{
				"type": "unocc",
				"energy": -0.0241,
				"method": "rhf"
			},
			{
				"type": "unocc",
				"energy": -0.01587,
				"method": "rhf"
			},
			{
				"type": "unocc",
				"energy": 0.04774,
				"method": "rhf"
			},
			{
				"type": "unocc",
				"energy": 0.08032,
				"method": "rhf"
			}
		],
		"cosmo_sigma_profile": { 
			"-0.025": 0.0,
			"-0.024": 0.0,
			"-0.023": 0.0,
			"-0.022": 0.0,
			"-0.021": 0.0,
			"-0.02": 0.0,
			"-0.019": 0.0,
			"-0.018": 0.018514378445,
			"-0.017": 0.9416843264,
			"-0.016": 1.27536085795,
			"-0.015": 1.49787603796,
			"-0.014": 0.458901164375,
			"-0.013": 0.314161983665,
			"-0.012": 1.3741686934,
			"-0.011": 0.843678996184,
			"-0.01": 2.10755103185,
			"-0.009": 2.05862246734,
			"-0.008": 2.79487752346,
			"-0.007": 2.87275779266,
			"-0.006": 3.96182347823,
			"-0.005": 6.08286744019,
			"-0.004": 11.9422264384,
			"-0.003": 17.1365732635,
			"-0.002": 12.2681363774,
			"-0.001": 9.90025251566,
			"0.0": 9.74799530731,
			"0.001": 12.8824563014,
			"0.002": 17.6318325195,
			"0.003": 13.1225638084,
			"0.004": 3.98014665359,
			"0.005": 2.35660071378,
			"0.006": 3.31321563423,
			"0.007": 2.32554329756,
			"0.008": 1.99306508716,
			"0.009": 2.88067364802,
			"0.01": 2.56944367801,
			"0.011": 3.42982250335,
			"0.012": 6.32365778395,
			"0.013": 2.45229211834,
			"0.014": 0.0266079133281,
			"0.015": 0.0,
			"0.016": 0.0,
			"0.017": 0.0,
			"0.018": 0.0,
			"0.019": 0.0,
			"0.02": 0.0,
			"0.021": 0.0,
			"0.022": 0.0,
			"0.023": 0.0,
			"0.024": 0.0,
			"0.025": 0.0
		}
	}
}
