{
	 "smiles": "CCC1=CC=CC(CC2=CC=CC=C2)=C1", 
	 "Tm": 264.15, 
	 "num_atms": 31, 
	 "gaussian": { 
		 "optdone": 1, 
		 "sigma_profile": "yes", 
		 "theory": "DFT", 
		 "functional": "B3LYP", 
		 "basiset": "6-31G**", 
		 "properties": { 
			 "R2extent": 4361.3605, 
			 "electric_dipole_moment_norm": 0.327462776511, 
			 "electric_quadrupole_moment_norm": 5.26675901765, 
			 "total_energy": -581.258626362, 
			 "HOMO_LUMO_gap": 0.22547, 
			 "cosmo_polarized_energy": -5.41, 
			 "cosmo_cavitation_energy": 34.06, 
			 "cosmo_dispersion_energy": -23.7, 
			 "cosmo_repulsion_energy": 1.88, 
			 "cosmo_total_nonelectrostatic_energy": 12.24, 
			 "SMD_solvation_energy": 5.42 
		},
		"coords": [
			{
				"x": 4.0609953119,
				"y": 0.9594330154,
				"z": 0.4552857423,
				"element": "C" 
			},
			{
				"x": 3.477397479,
				"y": 1.0829996831,
				"z": -0.9638646201,
				"element": "C" 
			},
			{
				"x": 1.9745533388,
				"y": 1.2715438113,
				"z": -0.9683844727,
				"element": "C" 
			},
			{
				"x": 1.4082587848,
				"y": 2.5504704535,
				"z": -0.9304320986,
				"element": "C" 
			},
			{
				"x": 0.0213487505,
				"y": 2.7115005213,
				"z": -0.8933721147,
				"element": "C" 
			},
			{
				"x": -0.8166075357,
				"y": 1.5986781274,
				"z": -0.8947611692,
				"element": "C" 
			},
			{
				"x": -0.2761464145,
				"y": 0.3054230333,
				"z": -0.9381673969,
				"element": "C" 
			},
			{
				"x": -1.1843288115,
				"y": -0.9134710133,
				"z": -0.9702713931,
				"element": "C" 
			},
			{
				"x": -2.1505162357,
				"y": -1.0149615387,
				"z": 0.1994949729,
				"element": "C" 
			},
			{
				"x": -1.6785937381,
				"y": -1.0046309901,
				"z": 1.5205466064,
				"element": "C" 
			},
			{
				"x": -2.5592452485,
				"y": -1.1219111563,
				"z": 2.5944469466,
				"element": "C" 
			},
			{
				"x": -3.9326418574,
				"y": -1.2485121193,
				"z": 2.3676070657,
				"element": "C" 
			},
			{
				"x": -4.4146749786,
				"y": -1.256424924,
				"z": 1.0591629449,
				"element": "C" 
			},
			{
				"x": -3.5279760346,
				"y": -1.1400777298,
				"z": -0.0145908974,
				"element": "C" 
			},
			{
				"x": 1.1146568341,
				"y": 0.163472276,
				"z": -0.9729681098,
				"element": "C" 
			},
			{
				"x": 5.1473865331,
				"y": 0.8243118226,
				"z": 0.4233018263,
				"element": "H" 
			},
			{
				"x": 3.8469457383,
				"y": 1.8560209553,
				"z": 1.0460504839,
				"element": "H" 
			},
			{
				"x": 3.6278489638,
				"y": 0.104020154,
				"z": 0.9839990262,
				"element": "H" 
			},
			{
				"x": 3.7357772765,
				"y": 0.1852464022,
				"z": -1.5384645736,
				"element": "H" 
			},
			{
				"x": 3.9530207791,
				"y": 1.927753748,
				"z": -1.4764034006,
				"element": "H" 
			},
			{
				"x": 2.0554672008,
				"y": 3.4244945583,
				"z": -0.9325399998,
				"element": "H" 
			},
			{
				"x": -0.4063423509,
				"y": 3.7101478586,
				"z": -0.8667280441,
				"element": "H" 
			},
			{
				"x": -1.8950126492,
				"y": 1.728753238,
				"z": -0.8597014424,
				"element": "H" 
			},
			{
				"x": -0.5603156845,
				"y": -1.8154862205,
				"z": -1.0041798071,
				"element": "H" 
			},
			{
				"x": -1.7622614378,
				"y": -0.9116102915,
				"z": -1.9029914552,
				"element": "H" 
			},
			{
				"x": -0.6127825745,
				"y": -0.8960161813,
				"z": 1.7042682808,
				"element": "H" 
			},
			{
				"x": -2.1745700163,
				"y": -1.1130299188,
				"z": 3.6106575224,
				"element": "H" 
			},
			{
				"x": -4.6191198271,
				"y": -1.3382032341,
				"z": 3.2046925793,
				"element": "H" 
			},
			{
				"x": -5.480532336,
				"y": -1.3515786252,
				"z": 0.8706284752,
				"element": "H" 
			},
			{
				"x": -3.9109170267,
				"y": -1.1493153481,
				"z": -1.0324671149,
				"element": "H" 
			},
			{
				"x": 1.5432277671,
				"y": -0.8367403671,
				"z": -1.0121543629,
				"element": "H" 
			}
		],
		 "valence_orbital": [ 
			{
				"type": "occ",
				"energy": -0.31898,
				"method": "rhf"
			},
			{
				"type": "occ",
				"energy": -0.24593,
				"method": "rhf"
			},
			{
				"type": "occ",
				"energy": -0.24325,
				"method": "rhf"
			},
			{
				"type": "occ",
				"energy": -0.23965,
				"method": "rhf"
			},
			{
				"type": "occ",
				"energy": -0.22719,
				"method": "rhf"
			},
			{
				"type": "unocc",
				"energy": -0.00172,
				"method": "rhf"
			},
			{
				"type": "unocc",
				"energy": 0.00104,
				"method": "rhf"
			},
			{
				"type": "unocc",
				"energy": 0.00215,
				"method": "rhf"
			},
			{
				"type": "unocc",
				"energy": 0.01374,
				"method": "rhf"
			},
			{
				"type": "unocc",
				"energy": 0.09257,
				"method": "rhf"
			}
		],
		"cosmo_sigma_profile": { 
			"-0.025": 0.0,
			"-0.024": 0.0,
			"-0.023": 0.0,
			"-0.022": 0.0,
			"-0.021": 0.0,
			"-0.02": 0.0,
			"-0.019": 0.0,
			"-0.018": 0.0,
			"-0.017": 0.0,
			"-0.016": 0.0,
			"-0.015": 0.0,
			"-0.014": 0.0,
			"-0.013": 0.0,
			"-0.012": 0.0,
			"-0.011": 0.0,
			"-0.01": 0.0,
			"-0.009": 0.0,
			"-0.008": 0.0,
			"-0.007": 0.0,
			"-0.006": 1.78489129129,
			"-0.005": 15.8141015809,
			"-0.004": 24.8690573193,
			"-0.003": 33.300291652,
			"-0.002": 29.8089797297,
			"-0.001": 30.1894625702,
			"0.0": 26.0315280701,
			"0.001": 23.8739425409,
			"0.002": 17.0698726051,
			"0.003": 14.1342262645,
			"0.004": 14.1344507673,
			"0.005": 15.8303775152,
			"0.006": 16.0021612808,
			"0.007": 6.59145232723,
			"0.008": 0.0226085565692,
			"0.009": 0.0,
			"0.01": 0.0,
			"0.011": 0.0,
			"0.012": 0.0,
			"0.013": 0.0,
			"0.014": 0.0,
			"0.015": 0.0,
			"0.016": 0.0,
			"0.017": 0.0,
			"0.018": 0.0,
			"0.019": 0.0,
			"0.02": 0.0,
			"0.021": 0.0,
			"0.022": 0.0,
			"0.023": 0.0,
			"0.024": 0.0,
			"0.025": 0.0
		}
	}
}
