{
	 "smiles": "OC1=C(OC2=C(C=CC=C2)C1=O)C1=CC=CC=C1", 
	 "Tm": 444.15, 
	 "num_atms": 28, 
	 "gaussian": { 
		 "optdone": 1, 
		 "sigma_profile": "yes", 
		 "theory": "DFT", 
		 "functional": "B3LYP", 
		 "basiset": "6-31G**", 
		 "properties": { 
			 "R2extent": 5774.4957, 
			 "electric_dipole_moment_norm": 3.05444514274, 
			 "electric_quadrupole_moment_norm": 12.9156886893, 
			 "total_energy": -803.297170975, 
			 "HOMO_LUMO_gap": 0.14078, 
			 "cosmo_polarized_energy": -9.1, 
			 "cosmo_cavitation_energy": 32.21, 
			 "cosmo_dispersion_energy": -24.18, 
			 "cosmo_repulsion_energy": 1.8, 
			 "cosmo_total_nonelectrostatic_energy": 9.83, 
			 "SMD_solvation_energy": 6.39 
		},
		"coords": [
			{
				"x": 0.4676739667,
				"y": -2.0538029706,
				"z": 1.7606538572,
				"element": "O" 
			},
			{
				"x": -0.3161723923,
				"y": -1.2057265705,
				"z": 1.0573824539,
				"element": "C" 
			},
			{
				"x": -0.8401791689,
				"y": -1.4860270482,
				"z": -0.1767311052,
				"element": "C" 
			},
			{
				"x": -1.626298361,
				"y": -0.5422855566,
				"z": -0.7977132245,
				"element": "O" 
			},
			{
				"x": -1.901041614,
				"y": 0.6601931985,
				"z": -0.2282003061,
				"element": "C" 
			},
			{
				"x": -1.3994380135,
				"y": 1.0177619231,
				"z": 1.0330589292,
				"element": "C" 
			},
			{
				"x": -1.7229049819,
				"y": 2.2805746088,
				"z": 1.56569755,
				"element": "C" 
			},
			{
				"x": -2.5247926489,
				"y": 3.1533071628,
				"z": 0.851288353,
				"element": "C" 
			},
			{
				"x": -3.018874456,
				"y": 2.7768221694,
				"z": -0.4128218503,
				"element": "C" 
			},
			{
				"x": -2.7138677847,
				"y": 1.5386933238,
				"z": -0.9578242441,
				"element": "C" 
			},
			{
				"x": -0.5612453992,
				"y": 0.0623990363,
				"z": 1.741362202,
				"element": "C" 
			},
			{
				"x": -0.048358551,
				"y": 0.2377837537,
				"z": 2.8596928773,
				"element": "O" 
			},
			{
				"x": -0.6845969242,
				"y": -2.7031406668,
				"z": -0.9832619511,
				"element": "C" 
			},
			{
				"x": -1.3131184596,
				"y": -2.7949030825,
				"z": -2.2418246921,
				"element": "C" 
			},
			{
				"x": -1.1783241429,
				"y": -3.9393232061,
				"z": -3.0219024781,
				"element": "C" 
			},
			{
				"x": -0.4158478164,
				"y": -5.0175994017,
				"z": -2.5681984982,
				"element": "C" 
			},
			{
				"x": 0.21097108,
				"y": -4.9377144321,
				"z": -1.3236432936,
				"element": "C" 
			},
			{
				"x": 0.0830397569,
				"y": -3.7972244911,
				"z": -0.5341692104,
				"element": "C" 
			},
			{
				"x": 0.6590188928,
				"y": -1.5423516736,
				"z": 2.5797552763,
				"element": "H" 
			},
			{
				"x": -1.3237538594,
				"y": 2.5347937557,
				"z": 2.542046643,
				"element": "H" 
			},
			{
				"x": -2.7747794715,
				"y": 4.1268237143,
				"z": 1.2608128791,
				"element": "H" 
			},
			{
				"x": -3.6480104118,
				"y": 3.4631248942,
				"z": -0.9718044092,
				"element": "H" 
			},
			{
				"x": -3.0856060406,
				"y": 1.2324061475,
				"z": -1.9296573858,
				"element": "H" 
			},
			{
				"x": -1.9067701402,
				"y": -1.9646379456,
				"z": -2.603624463,
				"element": "H" 
			},
			{
				"x": -1.6714437879,
				"y": -3.9883013528,
				"z": -3.9885172346,
				"element": "H" 
			},
			{
				"x": -0.311707217,
				"y": -5.9100518076,
				"z": -3.1784010982,
				"element": "H" 
			},
			{
				"x": 0.8066680117,
				"y": -5.7700945548,
				"z": -0.9602228118,
				"element": "H" 
			},
			{
				"x": 0.5742599347,
				"y": -3.7495989274,
				"z": 0.4276672352,
				"element": "H" 
			}
		],
		 "valence_orbital": [ 
			{
				"type": "occ",
				"energy": -0.27035,
				"method": "rhf"
			},
			{
				"type": "occ",
				"energy": -0.26672,
				"method": "rhf"
			},
			{
				"type": "occ",
				"energy": -0.25458,
				"method": "rhf"
			},
			{
				"type": "occ",
				"energy": -0.24821,
				"method": "rhf"
			},
			{
				"type": "occ",
				"energy": -0.21279,
				"method": "rhf"
			},
			{
				"type": "unocc",
				"energy": -0.07201,
				"method": "rhf"
			},
			{
				"type": "unocc",
				"energy": -0.02799,
				"method": "rhf"
			},
			{
				"type": "unocc",
				"energy": -0.01041,
				"method": "rhf"
			},
			{
				"type": "unocc",
				"energy": -0.00239,
				"method": "rhf"
			},
			{
				"type": "unocc",
				"energy": 0.02913,
				"method": "rhf"
			}
		],
		"cosmo_sigma_profile": { 
			"-0.025": 0.0,
			"-0.024": 0.0,
			"-0.023": 0.0,
			"-0.022": 0.0,
			"-0.021": 0.0,
			"-0.02": 0.0,
			"-0.019": 0.0,
			"-0.018": 0.0,
			"-0.017": 0.0,
			"-0.016": 0.0,
			"-0.015": 0.0,
			"-0.014": 0.0,
			"-0.013": 0.0,
			"-0.012": 0.381714616733,
			"-0.011": 0.50071686876,
			"-0.01": 0.681783470763,
			"-0.009": 0.679137152356,
			"-0.008": 1.07910144107,
			"-0.007": 6.00384793825,
			"-0.006": 14.3993857546,
			"-0.005": 18.2223581054,
			"-0.004": 20.6750818548,
			"-0.003": 16.5438475344,
			"-0.002": 17.3661623149,
			"-0.001": 18.8003927617,
			"0.0": 22.5857357311,
			"0.001": 27.866239754,
			"0.002": 25.9619800817,
			"0.003": 23.1256954266,
			"0.004": 15.3382250954,
			"0.005": 10.9905238807,
			"0.006": 4.27437235259,
			"0.007": 2.43301892489,
			"0.008": 2.13054422847,
			"0.009": 1.37234400439,
			"0.01": 1.88319916578,
			"0.011": 2.26922962159,
			"0.012": 2.85134646972,
			"0.013": 1.67189655362,
			"0.014": 0.0471476575468,
			"0.015": 0.0,
			"0.016": 0.0,
			"0.017": 0.0,
			"0.018": 0.0,
			"0.019": 0.0,
			"0.02": 0.0,
			"0.021": 0.0,
			"0.022": 0.0,
			"0.023": 0.0,
			"0.024": 0.0,
			"0.025": 0.0
		}
	}
}
