{
	 "smiles": "CC1C=CC(C2CC(=O)OC2=O)C11CC1", 
	 "Tm": 371.15, 
	 "num_atms": 29, 
	 "gaussian": { 
		 "optdone": 1, 
		 "sigma_profile": "yes", 
		 "theory": "DFT", 
		 "functional": "B3LYP", 
		 "basiset": "6-31G**", 
		 "properties": { 
			 "R2extent": 3540.0861, 
			 "electric_dipole_moment_norm": 5.10132844169, 
			 "electric_quadrupole_moment_norm": 14.6420563115, 
			 "total_energy": -691.355648319, 
			 "HOMO_LUMO_gap": 0.22905, 
			 "cosmo_polarized_energy": -12.81, 
			 "cosmo_cavitation_energy": 30.89, 
			 "cosmo_dispersion_energy": -21.59, 
			 "cosmo_repulsion_energy": 1.68, 
			 "cosmo_total_nonelectrostatic_energy": 10.98, 
			 "SMD_solvation_energy": 6.8 
		},
		"coords": [
			{
				"x": -0.0326470861,
				"y": 1.4357717999,
				"z": -2.1376717452,
				"element": "C" 
			},
			{
				"x": -0.6053287096,
				"y": 1.9208810277,
				"z": -0.7936663241,
				"element": "C" 
			},
			{
				"x": 0.411732301,
				"y": 1.8664730269,
				"z": 0.3235865655,
				"element": "C" 
			},
			{
				"x": 0.0520466839,
				"y": 1.0623023216,
				"z": 1.3265785102,
				"element": "C" 
			},
			{
				"x": -1.2874168766,
				"y": 0.4015828537,
				"z": 1.0930929198,
				"element": "C" 
			},
			{
				"x": -1.2021883879,
				"y": -1.1457720498,
				"z": 1.0415860277,
				"element": "C" 
			},
			{
				"x": -0.1933939547,
				"y": -1.7850878439,
				"z": 0.0823455789,
				"element": "C" 
			},
			{
				"x": 0.4058787719,
				"y": -2.9358634092,
				"z": 0.8683304765,
				"element": "C" 
			},
			{
				"x": 1.0931665803,
				"y": -3.8398858161,
				"z": 0.4925283818,
				"element": "O" 
			},
			{
				"x": 0.0557293284,
				"y": -2.7994775821,
				"z": 2.2111792458,
				"element": "O" 
			},
			{
				"x": -0.8153940328,
				"y": -1.7347468138,
				"z": 2.3955693505,
				"element": "C" 
			},
			{
				"x": -1.1746434302,
				"y": -1.3998567777,
				"z": 3.4888629998,
				"element": "O" 
			},
			{
				"x": -1.7769607585,
				"y": 1.0864377937,
				"z": -0.2093068004,
				"element": "C" 
			},
			{
				"x": -3.1759465317,
				"y": 1.6593319656,
				"z": -0.2480672592,
				"element": "C" 
			},
			{
				"x": -2.8298013491,
				"y": 0.4646598317,
				"z": -1.0976329845,
				"element": "C" 
			},
			{
				"x": 0.838263956,
				"y": 2.0357002406,
				"z": -2.4231712445,
				"element": "H" 
			},
			{
				"x": -0.768858973,
				"y": 1.5247599066,
				"z": -2.9429289853,
				"element": "H" 
			},
			{
				"x": 0.2848604328,
				"y": 0.3896231889,
				"z": -2.0858728331,
				"element": "H" 
			},
			{
				"x": -0.9355536901,
				"y": 2.9602350045,
				"z": -0.9375085517,
				"element": "H" 
			},
			{
				"x": 1.3358859957,
				"y": 2.4370398476,
				"z": 0.2861260922,
				"element": "H" 
			},
			{
				"x": 0.6329894335,
				"y": 0.8843754988,
				"z": 2.2271547091,
				"element": "H" 
			},
			{
				"x": -1.9691541564,
				"y": 0.6242274761,
				"z": 1.9240310703,
				"element": "H" 
			},
			{
				"x": -2.2073886842,
				"y": -1.5367351512,
				"z": 0.8358307296,
				"element": "H" 
			},
			{
				"x": 0.619550389,
				"y": -1.0909742508,
				"z": -0.1615627427,
				"element": "H" 
			},
			{
				"x": -0.6120354626,
				"y": -2.1503314764,
				"z": -0.8569697136,
				"element": "H" 
			},
			{
				"x": -3.8163841071,
				"y": 1.5041643185,
				"z": 0.6164914432,
				"element": "H" 
			},
			{
				"x": -3.3216944056,
				"y": 2.616127733,
				"z": -0.7429708914,
				"element": "H" 
			},
			{
				"x": -2.7437894739,
				"y": 0.6032053758,
				"z": -2.1712904753,
				"element": "H" 
			},
			{
				"x": -3.2502238025,
				"y": -0.4979680402,
				"z": -0.81817355,
				"element": "H" 
			}
		],
		 "valence_orbital": [ 
			{
				"type": "occ",
				"energy": -0.3051,
				"method": "rhf"
			},
			{
				"type": "occ",
				"energy": -0.30207,
				"method": "rhf"
			},
			{
				"type": "occ",
				"energy": -0.29382,
				"method": "rhf"
			},
			{
				"type": "occ",
				"energy": -0.27941,
				"method": "rhf"
			},
			{
				"type": "occ",
				"energy": -0.25678,
				"method": "rhf"
			},
			{
				"type": "unocc",
				"energy": -0.02773,
				"method": "rhf"
			},
			{
				"type": "unocc",
				"energy": -0.00384,
				"method": "rhf"
			},
			{
				"type": "unocc",
				"energy": 0.00325,
				"method": "rhf"
			},
			{
				"type": "unocc",
				"energy": 0.06595,
				"method": "rhf"
			},
			{
				"type": "unocc",
				"energy": 0.08397,
				"method": "rhf"
			}
		],
		"cosmo_sigma_profile": { 
			"-0.025": 0.0,
			"-0.024": 0.0,
			"-0.023": 0.0,
			"-0.022": 0.0,
			"-0.021": 0.0,
			"-0.02": 0.0,
			"-0.019": 0.0,
			"-0.018": 0.0,
			"-0.017": 0.0,
			"-0.016": 0.0,
			"-0.015": 0.0,
			"-0.014": 0.0,
			"-0.013": 0.0,
			"-0.012": 0.0143121924639,
			"-0.011": 0.746724486525,
			"-0.01": 1.09038291449,
			"-0.009": 3.01040566929,
			"-0.008": 6.8402935024,
			"-0.007": 8.1282091768,
			"-0.006": 8.57182855811,
			"-0.005": 11.6700331217,
			"-0.004": 20.9718381963,
			"-0.003": 22.9772565885,
			"-0.002": 22.3180304887,
			"-0.001": 20.3261891067,
			"0.0": 20.9991895753,
			"0.001": 19.3887705586,
			"0.002": 10.946774383,
			"0.003": 10.0854676411,
			"0.004": 7.83393536204,
			"0.005": 6.60443002954,
			"0.006": 5.96909146376,
			"0.007": 7.07503750592,
			"0.008": 5.51743571462,
			"0.009": 5.78266739619,
			"0.01": 11.2207137335,
			"0.011": 4.9298522002,
			"0.012": 0.118523301308,
			"0.013": 0.0,
			"0.014": 0.0,
			"0.015": 0.0,
			"0.016": 0.0,
			"0.017": 0.0,
			"0.018": 0.0,
			"0.019": 0.0,
			"0.02": 0.0,
			"0.021": 0.0,
			"0.022": 0.0,
			"0.023": 0.0,
			"0.024": 0.0,
			"0.025": 0.0
		}
	}
}
