{
	 "smiles": "CC(C(O)=O)C1=CC2=C(C=CC=C2)C=C1", 
	 "Tm": 394.15, 
	 "num_atms": 27, 
	 "gaussian": { 
		 "optdone": 1, 
		 "sigma_profile": "yes", 
		 "theory": "DFT", 
		 "functional": "B3LYP", 
		 "basiset": "6-31G**", 
		 "properties": { 
			 "R2extent": 4033.6683, 
			 "electric_dipole_moment_norm": 4.79981210153, 
			 "electric_quadrupole_moment_norm": 23.9831255619, 
			 "total_energy": -653.090855756, 
			 "HOMO_LUMO_gap": 0.17356, 
			 "cosmo_polarized_energy": -13.29, 
			 "cosmo_cavitation_energy": 30.53, 
			 "cosmo_dispersion_energy": -21.82, 
			 "cosmo_repulsion_energy": 1.7, 
			 "cosmo_total_nonelectrostatic_energy": 10.41, 
			 "SMD_solvation_energy": 6.04 
		},
		"coords": [
			{
				"x": -2.4115054168,
				"y": -1.7542575431,
				"z": -0.9477909939,
				"element": "C" 
			},
			{
				"x": -0.8963308328,
				"y": -1.9952402039,
				"z": -0.8447760731,
				"element": "C" 
			},
			{
				"x": -0.6145434653,
				"y": -3.4075737167,
				"z": -0.29333518,
				"element": "C" 
			},
			{
				"x": 0.6237142979,
				"y": -3.6117476416,
				"z": 0.2185758906,
				"element": "O" 
			},
			{
				"x": -1.4059745442,
				"y": -4.3160726027,
				"z": -0.3542169098,
				"element": "O" 
			},
			{
				"x": -0.1736590319,
				"y": -0.8857421351,
				"z": -0.0921838112,
				"element": "C" 
			},
			{
				"x": -0.2849791402,
				"y": -0.7580247609,
				"z": 1.282337698,
				"element": "C" 
			},
			{
				"x": 0.3496309047,
				"y": 0.2977095189,
				"z": 1.9881174893,
				"element": "C" 
			},
			{
				"x": 1.1229348897,
				"y": 1.2565740908,
				"z": 1.2556443426,
				"element": "C" 
			},
			{
				"x": 1.7575396455,
				"y": 2.3137234566,
				"z": 1.9620810232,
				"element": "C" 
			},
			{
				"x": 1.6334608583,
				"y": 2.4197408821,
				"z": 3.3288260511,
				"element": "C" 
			},
			{
				"x": 0.8689167808,
				"y": 1.4714493294,
				"z": 4.0538315834,
				"element": "C" 
			},
			{
				"x": 0.2428439363,
				"y": 0.435219384,
				"z": 3.3993085205,
				"element": "C" 
			},
			{
				"x": 1.2271901837,
				"y": 1.1095245633,
				"z": -0.1528716583,
				"element": "C" 
			},
			{
				"x": 0.6013623297,
				"y": 0.0717146613,
				"z": -0.8047029098,
				"element": "C" 
			},
			{
				"x": -2.6112699183,
				"y": -0.8088333381,
				"z": -1.4594052576,
				"element": "H" 
			},
			{
				"x": -2.8855237761,
				"y": -2.5702988988,
				"z": -1.4961888353,
				"element": "H" 
			},
			{
				"x": -2.8648649432,
				"y": -1.7073923026,
				"z": 0.0465216522,
				"element": "H" 
			},
			{
				"x": -0.4875954344,
				"y": -2.0197889022,
				"z": -1.8658058871,
				"element": "H" 
			},
			{
				"x": 1.0916213344,
				"y": -2.7634662659,
				"z": 0.27435383,
				"element": "H" 
			},
			{
				"x": -0.8717488265,
				"y": -1.4775202243,
				"z": 1.8500032676,
				"element": "H" 
			},
			{
				"x": 2.3435128402,
				"y": 3.0389663412,
				"z": 1.4034072455,
				"element": "H" 
			},
			{
				"x": 2.1222268824,
				"y": 3.2320614209,
				"z": 3.8586609441,
				"element": "H" 
			},
			{
				"x": 0.7795610238,
				"y": 1.5666431578,
				"z": 5.1319879577,
				"element": "H" 
			},
			{
				"x": -0.3433421451,
				"y": -0.2931275766,
				"z": 3.9535714321,
				"element": "H" 
			},
			{
				"x": 1.8141658049,
				"y": 1.8321322615,
				"z": -0.7139427008,
				"element": "H" 
			},
			{
				"x": 0.6926557627,
				"y": -0.0223729554,
				"z": -1.8839087108,
				"element": "H" 
			}
		],
		 "valence_orbital": [ 
			{
				"type": "occ",
				"energy": -0.30988,
				"method": "rhf"
			},
			{
				"type": "occ",
				"energy": -0.2966,
				"method": "rhf"
			},
			{
				"type": "occ",
				"energy": -0.26906,
				"method": "rhf"
			},
			{
				"type": "occ",
				"energy": -0.25169,
				"method": "rhf"
			},
			{
				"type": "occ",
				"energy": -0.22728,
				"method": "rhf"
			},
			{
				"type": "unocc",
				"energy": -0.05372,
				"method": "rhf"
			},
			{
				"type": "unocc",
				"energy": -0.02374,
				"method": "rhf"
			},
			{
				"type": "unocc",
				"energy": 0.01056,
				"method": "rhf"
			},
			{
				"type": "unocc",
				"energy": 0.01821,
				"method": "rhf"
			},
			{
				"type": "unocc",
				"energy": 0.07905,
				"method": "rhf"
			}
		],
		"cosmo_sigma_profile": { 
			"-0.025": 0.0,
			"-0.024": 0.0,
			"-0.023": 0.0,
			"-0.022": 0.0,
			"-0.021": 0.0,
			"-0.02": 0.0,
			"-0.019": 0.0,
			"-0.018": 0.0,
			"-0.017": 0.0,
			"-0.016": 0.0590255094061,
			"-0.015": 0.553588013858,
			"-0.014": 0.458514100418,
			"-0.013": 0.495410644671,
			"-0.012": 0.798636470847,
			"-0.011": 1.33760588685,
			"-0.01": 1.1240833993,
			"-0.009": 0.869976437142,
			"-0.008": 1.72619234477,
			"-0.007": 8.20995907235,
			"-0.006": 18.8852600558,
			"-0.005": 17.2307849186,
			"-0.004": 19.0300853296,
			"-0.003": 19.7821613969,
			"-0.002": 15.4027491669,
			"-0.001": 14.805269554,
			"0.0": 16.6662477092,
			"0.001": 14.5372523617,
			"0.002": 13.0869853415,
			"0.003": 16.370817895,
			"0.004": 20.9536815359,
			"0.005": 11.5655228421,
			"0.006": 2.76155839882,
			"0.007": 3.23681128444,
			"0.008": 1.85540039254,
			"0.009": 3.77067291944,
			"0.01": 4.8197572748,
			"0.011": 4.95608806575,
			"0.012": 5.55507603098,
			"0.013": 1.81981355557,
			"0.014": 0.131383368702,
			"0.015": 0.0,
			"0.016": 0.0,
			"0.017": 0.0,
			"0.018": 0.0,
			"0.019": 0.0,
			"0.02": 0.0,
			"0.021": 0.0,
			"0.022": 0.0,
			"0.023": 0.0,
			"0.024": 0.0,
			"0.025": 0.0
		}
	}
}
