{
	 "smiles": "OCCN1CCN(CCO)CC1", 
	 "Tm": 408.15, 
	 "num_atms": 30, 
	 "gaussian": { 
		 "optdone": 1, 
		 "sigma_profile": "yes", 
		 "theory": "DFT", 
		 "functional": "B3LYP", 
		 "basiset": "6-31G**", 
		 "properties": { 
			 "R2extent": 2863.1562, 
			 "electric_dipole_moment_norm": 1.80863468119, 
			 "electric_quadrupole_moment_norm": 10.9086317451, 
			 "total_energy": -575.60363633, 
			 "HOMO_LUMO_gap": 0.25179, 
			 "cosmo_polarized_energy": -11.28, 
			 "cosmo_cavitation_energy": 28.46, 
			 "cosmo_dispersion_energy": -20.91, 
			 "cosmo_repulsion_energy": 1.65, 
			 "cosmo_total_nonelectrostatic_energy": 9.2, 
			 "SMD_solvation_energy": 2.42 
		},
		"coords": [
			{
				"x": -0.0416475335,
				"y": -3.1271278905,
				"z": -0.9964117207,
				"element": "O" 
			},
			{
				"x": -0.258188126,
				"y": -2.3205585255,
				"z": -2.1360332069,
				"element": "C" 
			},
			{
				"x": -1.3151698681,
				"y": -1.2209570448,
				"z": -1.9171392447,
				"element": "C" 
			},
			{
				"x": -1.0967014384,
				"y": -0.2532611136,
				"z": -0.8448454119,
				"element": "N" 
			},
			{
				"x": 0.0876207814,
				"y": 0.5833654458,
				"z": -0.9095033439,
				"element": "C" 
			},
			{
				"x": 1.3629653218,
				"y": -0.0511565641,
				"z": -0.2783016676,
				"element": "C" 
			},
			{
				"x": 0.983028984,
				"y": -1.1063494354,
				"z": 0.6862514202,
				"element": "N" 
			},
			{
				"x": 2.1003587983,
				"y": -1.5711798335,
				"z": 1.5153618575,
				"element": "C" 
			},
			{
				"x": 3.1042788159,
				"y": -2.4394843269,
				"z": 0.7623481643,
				"element": "C" 
			},
			{
				"x": 3.9465488127,
				"y": -1.6132171391,
				"z": -0.0374238534,
				"element": "O" 
			},
			{
				"x": -0.1881915351,
				"y": -0.6719847024,
				"z": 1.4564190175,
				"element": "C" 
			},
			{
				"x": -1.4270997459,
				"y": -0.6503853557,
				"z": 0.5256424871,
				"element": "C" 
			},
			{
				"x": 0.33991026,
				"y": -2.5208483256,
				"z": -0.3195477844,
				"element": "H" 
			},
			{
				"x": -0.6095169806,
				"y": -2.9762553356,
				"z": -2.943847778,
				"element": "H" 
			},
			{
				"x": 0.6813485087,
				"y": -1.8624926594,
				"z": -2.4926432692,
				"element": "H" 
			},
			{
				"x": -2.2807767981,
				"y": -1.7026857564,
				"z": -1.724705071,
				"element": "H" 
			},
			{
				"x": -1.4258860909,
				"y": -0.6645346192,
				"z": -2.8606469365,
				"element": "H" 
			},
			{
				"x": 0.2847396307,
				"y": 0.8485902885,
				"z": -1.9532844915,
				"element": "H" 
			},
			{
				"x": -0.1319603744,
				"y": 1.5261334328,
				"z": -0.3885529652,
				"element": "H" 
			},
			{
				"x": 2.0170208331,
				"y": -0.4952842454,
				"z": -1.0300325969,
				"element": "H" 
			},
			{
				"x": 1.9515043231,
				"y": 0.7358033358,
				"z": 0.2270252269,
				"element": "H" 
			},
			{
				"x": 2.6405733354,
				"y": -0.73336755,
				"z": 1.991376584,
				"element": "H" 
			},
			{
				"x": 1.6772495378,
				"y": -2.1847354543,
				"z": 2.3188657131,
				"element": "H" 
			},
			{
				"x": 3.6991745468,
				"y": -2.997440926,
				"z": 1.5034477329,
				"element": "H" 
			},
			{
				"x": 2.5520450691,
				"y": -3.1664611212,
				"z": 0.14940893,
				"element": "H" 
			},
			{
				"x": 4.4839215067,
				"y": -2.1882555793,
				"z": -0.5958975839,
				"element": "H" 
			},
			{
				"x": -0.0224919451,
				"y": 0.3205422106,
				"z": 1.9130686818,
				"element": "H" 
			},
			{
				"x": -0.3599696539,
				"y": -1.3735854142,
				"z": 2.2791554332,
				"element": "H" 
			},
			{
				"x": -1.8719916216,
				"y": -1.6482439714,
				"z": 0.501321303,
				"element": "H" 
			},
			{
				"x": -2.174197354,
				"y": 0.0339181761,
				"z": 0.9610243743,
				"element": "H" 
			}
		],
		 "valence_orbital": [ 
			{
				"type": "occ",
				"energy": -0.30651,
				"method": "rhf"
			},
			{
				"type": "occ",
				"energy": -0.27216,
				"method": "rhf"
			},
			{
				"type": "occ",
				"energy": -0.24491,
				"method": "rhf"
			},
			{
				"type": "occ",
				"energy": -0.22425,
				"method": "rhf"
			},
			{
				"type": "occ",
				"energy": -0.18676,
				"method": "rhf"
			},
			{
				"type": "unocc",
				"energy": 0.06503,
				"method": "rhf"
			},
			{
				"type": "unocc",
				"energy": 0.08368,
				"method": "rhf"
			},
			{
				"type": "unocc",
				"energy": 0.10242,
				"method": "rhf"
			},
			{
				"type": "unocc",
				"energy": 0.10836,
				"method": "rhf"
			},
			{
				"type": "unocc",
				"energy": 0.11844,
				"method": "rhf"
			}
		],
		"cosmo_sigma_profile": { 
			"-0.025": 0.0,
			"-0.024": 0.0,
			"-0.023": 0.0,
			"-0.022": 0.0,
			"-0.021": 0.0,
			"-0.02": 0.0,
			"-0.019": 0.0,
			"-0.018": 0.0,
			"-0.017": 0.0,
			"-0.016": 0.236106195965,
			"-0.015": 0.94881762521,
			"-0.014": 1.23472636787,
			"-0.013": 0.86348900791,
			"-0.012": 1.33888412022,
			"-0.011": 0.606396996825,
			"-0.01": 0.33075175697,
			"-0.009": 0.506370856157,
			"-0.008": 1.24175107024,
			"-0.007": 1.39396461027,
			"-0.006": 1.39581408209,
			"-0.005": 5.38875235576,
			"-0.004": 13.2292228707,
			"-0.003": 34.2122700588,
			"-0.002": 46.9858666641,
			"-0.001": 30.4205590417,
			"0.0": 15.8568295891,
			"0.001": 9.63181576158,
			"0.002": 6.2850762345,
			"0.003": 5.98682928381,
			"0.004": 5.17683719863,
			"0.005": 3.7933040535,
			"0.006": 3.86829636948,
			"0.007": 3.01310112907,
			"0.008": 3.06018917063,
			"0.009": 3.27753714875,
			"0.01": 2.53785341674,
			"0.011": 3.25100466508,
			"0.012": 2.42177857941,
			"0.013": 2.89372163311,
			"0.014": 2.0275954015,
			"0.015": 2.51515616522,
			"0.016": 2.06807327319,
			"0.017": 0.396228778942,
			"0.018": 0.0,
			"0.019": 0.0,
			"0.02": 0.0,
			"0.021": 0.0,
			"0.022": 0.0,
			"0.023": 0.0,
			"0.024": 0.0,
			"0.025": 0.0
		}
	}
}
