{
	 "smiles": "FC(F)C1=NC2=C(N1)C=CC=C2Cl", 
	 "Tm": 399.15, 
	 "num_atms": 18, 
	 "gaussian": { 
		 "optdone": 1, 
		 "sigma_profile": "yes", 
		 "theory": "DFT", 
		 "functional": "B3LYP", 
		 "basiset": "6-31G**", 
		 "properties": { 
			 "R2extent": 3262.2172, 
			 "electric_dipole_moment_norm": 3.67026825995, 
			 "electric_quadrupole_moment_norm": 5.20405182814, 
			 "total_energy": -1077.24169976, 
			 "HOMO_LUMO_gap": 0.19296, 
			 "cosmo_polarized_energy": -12.7, 
			 "cosmo_cavitation_energy": 25.64, 
			 "cosmo_dispersion_energy": -18.86, 
			 "cosmo_repulsion_energy": 1.46, 
			 "cosmo_total_nonelectrostatic_energy": 8.24, 
			 "SMD_solvation_energy": 2.87 
		},
		"coords": [
			{
				"x": 2.33702182,
				"y": 2.9766302876,
				"z": 1.4732343485,
				"element": "F" 
			},
			{
				"x": 1.5759162804,
				"y": 3.1639446162,
				"z": 0.3492891273,
				"element": "C" 
			},
			{
				"x": 2.4477065238,
				"y": 3.4428485376,
				"z": -0.6704161826,
				"element": "F" 
			},
			{
				"x": 0.8150278986,
				"y": 1.9177778773,
				"z": 0.0390092705,
				"element": "C" 
			},
			{
				"x": -0.4894805715,
				"y": 1.8478252849,
				"z": -0.0436760666,
				"element": "N" 
			},
			{
				"x": -0.7476717823,
				"y": 0.5231965953,
				"z": -0.3449101264,
				"element": "C" 
			},
			{
				"x": 0.4612575721,
				"y": -0.2127956446,
				"z": -0.4423019351,
				"element": "C" 
			},
			{
				"x": 1.4495705002,
				"y": 0.7195086313,
				"z": -0.1885780404,
				"element": "N" 
			},
			{
				"x": 0.50076982,
				"y": -1.5778047387,
				"z": -0.7368402276,
				"element": "C" 
			},
			{
				"x": -0.7247847115,
				"y": -2.2034833795,
				"z": -0.9361634227,
				"element": "C" 
			},
			{
				"x": -1.9447889462,
				"y": -1.5033468558,
				"z": -0.8471600572,
				"element": "C" 
			},
			{
				"x": -1.9638722977,
				"y": -0.1461024236,
				"z": -0.5532539513,
				"element": "C" 
			},
			{
				"x": -3.4744460226,
				"y": 0.7225965834,
				"z": -0.4426353863,
				"element": "Cl" 
			},
			{
				"x": 0.9013960767,
				"y": 4.0106125528,
				"z": 0.4985967705,
				"element": "H" 
			},
			{
				"x": 2.4463804451,
				"y": 0.5656448451,
				"z": -0.1703844387,
				"element": "H" 
			},
			{
				"x": 1.4349310894,
				"y": -2.1251744961,
				"z": -0.8074296702,
				"element": "H" 
			},
			{
				"x": -0.7502699288,
				"y": -3.2637055735,
				"z": -1.1678358949,
				"element": "H" 
			},
			{
				"x": -2.8813637657,
				"y": -2.0248726995,
				"z": -1.0089441168,
				"element": "H" 
			}
		],
		 "valence_orbital": [ 
			{
				"type": "occ",
				"energy": -0.30945,
				"method": "rhf"
			},
			{
				"type": "occ",
				"energy": -0.30937,
				"method": "rhf"
			},
			{
				"type": "occ",
				"energy": -0.29497,
				"method": "rhf"
			},
			{
				"type": "occ",
				"energy": -0.24913,
				"method": "rhf"
			},
			{
				"type": "occ",
				"energy": -0.23574,
				"method": "rhf"
			},
			{
				"type": "unocc",
				"energy": -0.04278,
				"method": "rhf"
			},
			{
				"type": "unocc",
				"energy": 0.00079,
				"method": "rhf"
			},
			{
				"type": "unocc",
				"energy": 0.02628,
				"method": "rhf"
			},
			{
				"type": "unocc",
				"energy": 0.0349,
				"method": "rhf"
			},
			{
				"type": "unocc",
				"energy": 0.06759,
				"method": "rhf"
			}
		],
		"cosmo_sigma_profile": { 
			"-0.025": 0.0,
			"-0.024": 0.0,
			"-0.023": 0.0,
			"-0.022": 0.0,
			"-0.021": 0.0,
			"-0.02": 0.0,
			"-0.019": 0.0,
			"-0.018": 0.397613667106,
			"-0.017": 1.28791834589,
			"-0.016": 1.60699301647,
			"-0.015": 0.952251412168,
			"-0.014": 0.676336698005,
			"-0.013": 0.942948553024,
			"-0.012": 1.43903172963,
			"-0.011": 1.72221660566,
			"-0.01": 2.88915087379,
			"-0.009": 3.22612040894,
			"-0.008": 3.46423325211,
			"-0.007": 7.32947915588,
			"-0.006": 7.79852801695,
			"-0.005": 7.76462107969,
			"-0.004": 7.86935689588,
			"-0.003": 7.0360988246,
			"-0.002": 10.0569196797,
			"-0.001": 13.7998243386,
			"0.0": 12.8109217976,
			"0.001": 16.2894739724,
			"0.002": 20.472594302,
			"0.003": 23.8977588336,
			"0.004": 32.2202108525,
			"0.005": 9.2629989074,
			"0.006": 2.27702699422,
			"0.007": 2.03643301558,
			"0.008": 1.72980531674,
			"0.009": 1.51132546831,
			"0.01": 1.11665233048,
			"0.011": 1.00766832642,
			"0.012": 0.974423609417,
			"0.013": 1.24841914582,
			"0.014": 0.941110909328,
			"0.015": 0.631208436084,
			"0.016": 0.0761294399132,
			"0.017": 0.0,
			"0.018": 0.0,
			"0.019": 0.0,
			"0.02": 0.0,
			"0.021": 0.0,
			"0.022": 0.0,
			"0.023": 0.0,
			"0.024": 0.0,
			"0.025": 0.0
		}
	}
}
