{
	 "smiles": "OC(=O)CC12CC3CC(CC(C3)C1)C2", 
	 "Tm": 412.15, 
	 "num_atms": 32, 
	 "gaussian": { 
		 "optdone": 1, 
		 "sigma_profile": "yes", 
		 "theory": "DFT", 
		 "functional": "B3LYP", 
		 "basiset": "6-31G**", 
		 "properties": { 
			 "R2extent": 3245.6144, 
			 "electric_dipole_moment_norm": 3.73815925423, 
			 "electric_quadrupole_moment_norm": 18.5495244341, 
			 "total_energy": -618.615101788, 
			 "HOMO_LUMO_gap": 0.27023, 
			 "cosmo_polarized_energy": -12.47, 
			 "cosmo_cavitation_energy": 29.53, 
			 "cosmo_dispersion_energy": -22.21, 
			 "cosmo_repulsion_energy": 1.71, 
			 "cosmo_total_nonelectrostatic_energy": 9.03, 
			 "SMD_solvation_energy": 4.57 
		},
		"coords": [
			{
				"x": 0.1346820062,
				"y": 2.6236682558,
				"z": 3.8696972323,
				"element": "O" 
			},
			{
				"x": -0.3763414075,
				"y": 1.8843858707,
				"z": 2.8438984611,
				"element": "C" 
			},
			{
				"x": -1.2469508845,
				"y": 1.082033156,
				"z": 3.0754747047,
				"element": "O" 
			},
			{
				"x": 0.249506986,
				"y": 2.1858649521,
				"z": 1.4851866078,
				"element": "C" 
			},
			{
				"x": -0.2642043187,
				"y": 1.3967335894,
				"z": 0.2661800998,
				"element": "C" 
			},
			{
				"x": -0.0251350288,
				"y": -0.1259831958,
				"z": 0.4301538572,
				"element": "C" 
			},
			{
				"x": -0.4974708545,
				"y": -0.8817167849,
				"z": -0.8293818622,
				"element": "C" 
			},
			{
				"x": 0.2927535807,
				"y": -0.3872657458,
				"z": -2.0577299407,
				"element": "C" 
			},
			{
				"x": 0.0533955107,
				"y": 1.1247944271,
				"z": -2.246202313,
				"element": "C" 
			},
			{
				"x": -1.4509285867,
				"y": 1.3826662554,
				"z": -2.4694020933,
				"element": "C" 
			},
			{
				"x": -2.2430085522,
				"y": 0.8901022416,
				"z": -1.2414722076,
				"element": "C" 
			},
			{
				"x": -2.0026716532,
				"y": -0.6216580683,
				"z": -1.0474934532,
				"element": "C" 
			},
			{
				"x": -1.7733198493,
				"y": 1.6485009101,
				"z": 0.0174773552,
				"element": "C" 
			},
			{
				"x": 0.5191673173,
				"y": 1.8776837058,
				"z": -0.9835123486,
				"element": "C" 
			},
			{
				"x": 0.820753145,
				"y": 3.221970779,
				"z": 3.5410914889,
				"element": "H" 
			},
			{
				"x": 0.1192293286,
				"y": 3.2632182279,
				"z": 1.3008283851,
				"element": "H" 
			},
			{
				"x": 1.3343971314,
				"y": 2.0298674887,
				"z": 1.5868768372,
				"element": "H" 
			},
			{
				"x": -0.5594740524,
				"y": -0.4880598409,
				"z": 1.3131368287,
				"element": "H" 
			},
			{
				"x": 1.0457358347,
				"y": -0.3126061389,
				"z": 0.5972608497,
				"element": "H" 
			},
			{
				"x": -0.3261429662,
				"y": -1.9564374213,
				"z": -0.6885595378,
				"element": "H" 
			},
			{
				"x": 1.364378014,
				"y": -0.5865400271,
				"z": -1.9234050354,
				"element": "H" 
			},
			{
				"x": -0.0224642171,
				"y": -0.9327625946,
				"z": -2.9568981596,
				"element": "H" 
			},
			{
				"x": 0.6235477371,
				"y": 1.4851820508,
				"z": -3.1120778484,
				"element": "H" 
			},
			{
				"x": -1.7913579916,
				"y": 0.8626651452,
				"z": -3.3744630258,
				"element": "H" 
			},
			{
				"x": -1.6309466683,
				"y": 2.4539823352,
				"z": -2.6307005494,
				"element": "H" 
			},
			{
				"x": -3.3136715528,
				"y": 1.0761129332,
				"z": -1.3940664772,
				"element": "H" 
			},
			{
				"x": -2.3568462227,
				"y": -1.1751726852,
				"z": -1.9271866453,
				"element": "H" 
			},
			{
				"x": -2.5765143079,
				"y": -0.9867332806,
				"z": -0.1863122067,
				"element": "H" 
			},
			{
				"x": -2.3475664475,
				"y": 1.3269317238,
				"z": 0.8910512849,
				"element": "H" 
			},
			{
				"x": -1.9486593769,
				"y": 2.7267354769,
				"z": -0.1096680313,
				"element": "H" 
			},
			{
				"x": 0.3743028321,
				"y": 2.9591350323,
				"z": -1.1181936585,
				"element": "H" 
			},
			{
				"x": 1.5961255153,
				"y": 1.7193012262,
				"z": -0.8294885987,
				"element": "H" 
			}
		],
		 "valence_orbital": [ 
			{
				"type": "occ",
				"energy": -0.31018,
				"method": "rhf"
			},
			{
				"type": "occ",
				"energy": -0.28782,
				"method": "rhf"
			},
			{
				"type": "occ",
				"energy": -0.28086,
				"method": "rhf"
			},
			{
				"type": "occ",
				"energy": -0.27703,
				"method": "rhf"
			},
			{
				"type": "occ",
				"energy": -0.26107,
				"method": "rhf"
			},
			{
				"type": "unocc",
				"energy": 0.00916,
				"method": "rhf"
			},
			{
				"type": "unocc",
				"energy": 0.05565,
				"method": "rhf"
			},
			{
				"type": "unocc",
				"energy": 0.06665,
				"method": "rhf"
			},
			{
				"type": "unocc",
				"energy": 0.10448,
				"method": "rhf"
			},
			{
				"type": "unocc",
				"energy": 0.1155,
				"method": "rhf"
			}
		],
		"cosmo_sigma_profile": { 
			"-0.025": 0.0,
			"-0.024": 0.0,
			"-0.023": 0.0,
			"-0.022": 0.0,
			"-0.021": 0.0,
			"-0.02": 0.0,
			"-0.019": 0.061385535662,
			"-0.018": 1.02746224301,
			"-0.017": 0.910762442835,
			"-0.016": 1.25472525458,
			"-0.015": 1.04253247826,
			"-0.014": 0.94575497599,
			"-0.013": 1.30663549768,
			"-0.012": 1.09300136067,
			"-0.011": 1.56696914814,
			"-0.01": 0.966740687117,
			"-0.009": 1.24723461681,
			"-0.008": 1.1639292039,
			"-0.007": 2.29949932561,
			"-0.006": 3.75599237766,
			"-0.005": 3.95840118921,
			"-0.004": 5.47303616788,
			"-0.003": 7.61752684103,
			"-0.002": 25.9172831039,
			"-0.001": 40.5579243626,
			"0.0": 40.8477718209,
			"0.001": 34.1303103884,
			"0.002": 14.5614268368,
			"0.003": 2.72391355647,
			"0.004": 2.26432210862,
			"0.005": 2.59195412319,
			"0.006": 2.45104606085,
			"0.007": 2.54177554608,
			"0.008": 3.37811402674,
			"0.009": 2.5721728355,
			"0.01": 4.22031527869,
			"0.011": 5.14830049764,
			"0.012": 4.34669842341,
			"0.013": 2.09719164598,
			"0.014": 0.214823957201,
			"0.015": 0.0,
			"0.016": 0.0,
			"0.017": 0.0,
			"0.018": 0.0,
			"0.019": 0.0,
			"0.02": 0.0,
			"0.021": 0.0,
			"0.022": 0.0,
			"0.023": 0.0,
			"0.024": 0.0,
			"0.025": 0.0
		}
	}
}
