{
	 "smiles": "ClCC(=O)N1CCOC2CCCCC12", 
	 "Tm": 341.15, 
	 "num_atms": 30, 
	 "gaussian": { 
		 "optdone": 1, 
		 "sigma_profile": "yes", 
		 "theory": "DFT", 
		 "functional": "B3LYP", 
		 "basiset": "6-31G**", 
		 "properties": { 
			 "R2extent": 4230.0923, 
			 "electric_dipole_moment_norm": 3.97140191242, 
			 "electric_quadrupole_moment_norm": 17.8106661302, 
			 "total_energy": -1056.09516013, 
			 "HOMO_LUMO_gap": 0.24961, 
			 "cosmo_polarized_energy": -14.29, 
			 "cosmo_cavitation_energy": 31.22, 
			 "cosmo_dispersion_energy": -23.45, 
			 "cosmo_repulsion_energy": 1.85, 
			 "cosmo_total_nonelectrostatic_energy": 9.62, 
			 "SMD_solvation_energy": 3.6 
		},
		"coords": [
			{
				"x": 2.3096596958,
				"y": 4.562352777,
				"z": 0.6309683607,
				"element": "Cl" 
			},
			{
				"x": 0.7294269569,
				"y": 3.721785167,
				"z": 0.6897367032,
				"element": "C" 
			},
			{
				"x": 0.8306141505,
				"y": 2.2579164272,
				"z": 0.2111189686,
				"element": "C" 
			},
			{
				"x": 1.8426974008,
				"y": 1.8334528801,
				"z": -0.316766997,
				"element": "O" 
			},
			{
				"x": -0.2925300993,
				"y": 1.4816066475,
				"z": 0.4559954217,
				"element": "N" 
			},
			{
				"x": -1.6073992849,
				"y": 2.1528033254,
				"z": 0.4756682834,
				"element": "C" 
			},
			{
				"x": -2.7047928736,
				"y": 1.2240274005,
				"z": 0.9733287041,
				"element": "C" 
			},
			{
				"x": -2.7378947173,
				"y": 0.044188891,
				"z": 0.1977127991,
				"element": "O" 
			},
			{
				"x": -1.5298940098,
				"y": -0.6861174498,
				"z": 0.3754808142,
				"element": "C" 
			},
			{
				"x": -1.657820188,
				"y": -1.995776406,
				"z": -0.4128220219,
				"element": "C" 
			},
			{
				"x": -0.283637148,
				"y": -2.6581837322,
				"z": -0.6627698969,
				"element": "C" 
			},
			{
				"x": 0.7137984252,
				"y": -2.2505802364,
				"z": 0.4299520742,
				"element": "C" 
			},
			{
				"x": 0.963590256,
				"y": -0.721764155,
				"z": 0.4231291355,
				"element": "C" 
			},
			{
				"x": -0.2717367185,
				"y": 0.0855022988,
				"z": -0.0657501717,
				"element": "C" 
			},
			{
				"x": 0.0439450709,
				"y": 4.2888848974,
				"z": 0.0558207827,
				"element": "H" 
			},
			{
				"x": 0.3720670322,
				"y": 3.7730330915,
				"z": 1.7199005821,
				"element": "H" 
			},
			{
				"x": -1.8780688044,
				"y": 2.4976578716,
				"z": -0.5342952904,
				"element": "H" 
			},
			{
				"x": -1.5663310022,
				"y": 3.025827018,
				"z": 1.1311288758,
				"element": "H" 
			},
			{
				"x": -2.546919468,
				"y": 0.9843103572,
				"z": 2.0379547977,
				"element": "H" 
			},
			{
				"x": -3.6775992499,
				"y": 1.713257272,
				"z": 0.8679659692,
				"element": "H" 
			},
			{
				"x": -1.4207827822,
				"y": -0.9023476636,
				"z": 1.4524689148,
				"element": "H" 
			},
			{
				"x": -2.1602196296,
				"y": -1.7664151505,
				"z": -1.358851835,
				"element": "H" 
			},
			{
				"x": -2.3217332202,
				"y": -2.6670224342,
				"z": 0.1419498598,
				"element": "H" 
			},
			{
				"x": -0.3916026107,
				"y": -3.7468687651,
				"z": -0.7071029078,
				"element": "H" 
			},
			{
				"x": 0.1107827651,
				"y": -2.3492452728,
				"z": -1.6387074801,
				"element": "H" 
			},
			{
				"x": 1.6676955413,
				"y": -2.7710808178,
				"z": 0.2946755042,
				"element": "H" 
			},
			{
				"x": 0.3267626797,
				"y": -2.5747447341,
				"z": 1.4045320966,
				"element": "H" 
			},
			{
				"x": 1.2227501664,
				"y": -0.3817771296,
				"z": 1.4318018305,
				"element": "H" 
			},
			{
				"x": 1.8126202718,
				"y": -0.4783265243,
				"z": -0.2128324029,
				"element": "H" 
			},
			{
				"x": -0.2666486063,
				"y": 0.1354441494,
				"z": -1.1651914744,
				"element": "H" 
			}
		],
		 "valence_orbital": [ 
			{
				"type": "occ",
				"energy": -0.29714,
				"method": "rhf"
			},
			{
				"type": "occ",
				"energy": -0.29537,
				"method": "rhf"
			},
			{
				"type": "occ",
				"energy": -0.27002,
				"method": "rhf"
			},
			{
				"type": "occ",
				"energy": -0.26195,
				"method": "rhf"
			},
			{
				"type": "occ",
				"energy": -0.24613,
				"method": "rhf"
			},
			{
				"type": "unocc",
				"energy": 0.00348,
				"method": "rhf"
			},
			{
				"type": "unocc",
				"energy": 0.02756,
				"method": "rhf"
			},
			{
				"type": "unocc",
				"energy": 0.07117,
				"method": "rhf"
			},
			{
				"type": "unocc",
				"energy": 0.08193,
				"method": "rhf"
			},
			{
				"type": "unocc",
				"energy": 0.08373,
				"method": "rhf"
			}
		],
		"cosmo_sigma_profile": { 
			"-0.025": 0.0,
			"-0.024": 0.0,
			"-0.023": 0.0,
			"-0.022": 0.0,
			"-0.021": 0.0,
			"-0.02": 0.0,
			"-0.019": 0.0,
			"-0.018": 0.0,
			"-0.017": 0.0,
			"-0.016": 0.0,
			"-0.015": 0.0,
			"-0.014": 0.0,
			"-0.013": 0.0,
			"-0.012": 0.0,
			"-0.011": 0.0,
			"-0.01": 0.260584066091,
			"-0.009": 5.26309832296,
			"-0.008": 7.40550573406,
			"-0.007": 5.31208081223,
			"-0.006": 8.15024307153,
			"-0.005": 11.5945845842,
			"-0.004": 17.7891873314,
			"-0.003": 26.5961567728,
			"-0.002": 26.8580600573,
			"-0.001": 25.6941307371,
			"0.0": 22.251403142,
			"0.001": 18.0806696144,
			"0.002": 7.38753295674,
			"0.003": 6.57761153056,
			"0.004": 6.71450086675,
			"0.005": 9.44489023659,
			"0.006": 10.2423023164,
			"0.007": 4.63894716467,
			"0.008": 3.4734041421,
			"0.009": 3.25531658401,
			"0.01": 3.36810667446,
			"0.011": 3.58259288904,
			"0.012": 4.62953444744,
			"0.013": 3.75743555619,
			"0.014": 1.90233534913,
			"0.015": 0.183670060872,
			"0.016": 0.0,
			"0.017": 0.0,
			"0.018": 0.0,
			"0.019": 0.0,
			"0.02": 0.0,
			"0.021": 0.0,
			"0.022": 0.0,
			"0.023": 0.0,
			"0.024": 0.0,
			"0.025": 0.0
		}
	}
}
