{
	 "smiles": "NC1=CC=C(CCN2N=NC(=N2)C2=CC=CC=C2)C=C1", 
	 "Tm": 373.15, 
	 "num_atms": 35, 
	 "gaussian": { 
		 "optdone": 1, 
		 "sigma_profile": "yes", 
		 "theory": "DFT", 
		 "functional": "B3LYP", 
		 "basiset": "6-31G**", 
		 "properties": { 
			 "R2extent": 7011.6527, 
			 "electric_dipole_moment_norm": 3.57267110857, 
			 "electric_quadrupole_moment_norm": 14.888874037, 
			 "total_energy": -854.364690721, 
			 "HOMO_LUMO_gap": 0.17093, 
			 "cosmo_polarized_energy": -16.02, 
			 "cosmo_cavitation_energy": 39.9, 
			 "cosmo_dispersion_energy": -27.71, 
			 "cosmo_repulsion_energy": 2.14, 
			 "cosmo_total_nonelectrostatic_energy": 14.34, 
			 "SMD_solvation_energy": 4.0 
		},
		"coords": [
			{
				"x": 0.4862204283,
				"y": -0.7756715956,
				"z": -4.8509419659,
				"element": "N" 
			},
			{
				"x": -0.502899662,
				"y": -0.825650027,
				"z": -3.8670817342,
				"element": "C" 
			},
			{
				"x": -1.5648410759,
				"y": 0.0949973484,
				"z": -3.8654838118,
				"element": "C" 
			},
			{
				"x": -2.5169918953,
				"y": 0.0734167362,
				"z": -2.8507050318,
				"element": "C" 
			},
			{
				"x": -2.454239787,
				"y": -0.8570658755,
				"z": -1.8051031222,
				"element": "C" 
			},
			{
				"x": -3.4797256425,
				"y": -0.8549337759,
				"z": -0.6937040987,
				"element": "C" 
			},
			{
				"x": -3.1145323527,
				"y": 0.0453025182,
				"z": 0.5027989738,
				"element": "C" 
			},
			{
				"x": -1.9065801103,
				"y": -0.4034253361,
				"z": 1.1943432212,
				"element": "N" 
			},
			{
				"x": -1.8124193047,
				"y": -1.6000449675,
				"z": 1.7672617911,
				"element": "N" 
			},
			{
				"x": -0.6061195323,
				"y": -1.6672358397,
				"z": 2.2750092454,
				"element": "N" 
			},
			{
				"x": 0.0027314843,
				"y": -0.4835283488,
				"z": 1.9873657563,
				"element": "C" 
			},
			{
				"x": -0.8053714789,
				"y": 0.3322706151,
				"z": 1.3021419621,
				"element": "N" 
			},
			{
				"x": 1.3748598908,
				"y": -0.1490729045,
				"z": 2.3829569657,
				"element": "C" 
			},
			{
				"x": 2.1309122162,
				"y": -1.0654825631,
				"z": 3.129290729,
				"element": "C" 
			},
			{
				"x": 3.4346437843,
				"y": -0.7512501418,
				"z": 3.5076624553,
				"element": "C" 
			},
			{
				"x": 3.996041247,
				"y": 0.4758870595,
				"z": 3.1468513169,
				"element": "C" 
			},
			{
				"x": 3.2458114727,
				"y": 1.3903649831,
				"z": 2.4031338531,
				"element": "C" 
			},
			{
				"x": 1.9418890921,
				"y": 1.0824646613,
				"z": 2.0214926206,
				"element": "C" 
			},
			{
				"x": -1.3946231995,
				"y": -1.7744775529,
				"z": -1.8150833287,
				"element": "C" 
			},
			{
				"x": -0.4350036073,
				"y": -1.7637142908,
				"z": -2.8229122449,
				"element": "C" 
			},
			{
				"x": 0.2032379037,
				"y": -0.3558848507,
				"z": -5.7256453535,
				"element": "H" 
			},
			{
				"x": 0.9947108791,
				"y": -1.6373545641,
				"z": -4.9936681013,
				"element": "H" 
			},
			{
				"x": -1.6402611584,
				"y": 0.8280352898,
				"z": -4.6651673209,
				"element": "H" 
			},
			{
				"x": -3.3322943643,
				"y": 0.7935870867,
				"z": -2.8797826779,
				"element": "H" 
			},
			{
				"x": -3.6435682295,
				"y": -1.8699797371,
				"z": -0.3179108753,
				"element": "H" 
			},
			{
				"x": -4.445418939,
				"y": -0.496177424,
				"z": -1.069631562,
				"element": "H" 
			},
			{
				"x": -3.9303404842,
				"y": 0.0592351385,
				"z": 1.2321973938,
				"element": "H" 
			},
			{
				"x": -2.90570251,
				"y": 1.0675563155,
				"z": 0.1851079689,
				"element": "H" 
			},
			{
				"x": 1.6856711595,
				"y": -2.0155812406,
				"z": 3.4047825307,
				"element": "H" 
			},
			{
				"x": 4.0135274538,
				"y": -1.4657284932,
				"z": 4.0858544854,
				"element": "H" 
			},
			{
				"x": 5.0125861034,
				"y": 0.7184906084,
				"z": 3.4431585686,
				"element": "H" 
			},
			{
				"x": 3.6779545914,
				"y": 2.3455662937,
				"z": 2.1189754164,
				"element": "H" 
			},
			{
				"x": 1.3547908406,
				"y": 1.7874701724,
				"z": 1.4421947887,
				"element": "H" 
			},
			{
				"x": -1.3191074777,
				"y": -2.5130140437,
				"z": -1.0210640669,
				"element": "H" 
			},
			{
				"x": 0.3771522643,
				"y": -2.4864712541,
				"z": -2.8038947469,
				"element": "H" 
			}
		],
		 "valence_orbital": [ 
			{
				"type": "occ",
				"energy": -0.27984,
				"method": "rhf"
			},
			{
				"type": "occ",
				"energy": -0.24827,
				"method": "rhf"
			},
			{
				"type": "occ",
				"energy": -0.24627,
				"method": "rhf"
			},
			{
				"type": "occ",
				"energy": -0.23011,
				"method": "rhf"
			},
			{
				"type": "occ",
				"energy": -0.20021,
				"method": "rhf"
			},
			{
				"type": "unocc",
				"energy": -0.02928,
				"method": "rhf"
			},
			{
				"type": "unocc",
				"energy": -0.0152,
				"method": "rhf"
			},
			{
				"type": "unocc",
				"energy": 0.00187,
				"method": "rhf"
			},
			{
				"type": "unocc",
				"energy": 0.00452,
				"method": "rhf"
			},
			{
				"type": "unocc",
				"energy": 0.01435,
				"method": "rhf"
			}
		],
		"cosmo_sigma_profile": { 
			"-0.025": 0.0,
			"-0.024": 0.0,
			"-0.023": 0.0,
			"-0.022": 0.0,
			"-0.021": 0.0,
			"-0.02": 0.0,
			"-0.019": 0.0,
			"-0.018": 0.0,
			"-0.017": 0.0,
			"-0.016": 0.0,
			"-0.015": 0.0,
			"-0.014": 0.0,
			"-0.013": 0.0698891205837,
			"-0.012": 2.17717632301,
			"-0.011": 2.4684212332,
			"-0.01": 3.02093869502,
			"-0.009": 3.19240639468,
			"-0.008": 4.3608332492,
			"-0.007": 7.17003316812,
			"-0.006": 15.3729339539,
			"-0.005": 28.7041112843,
			"-0.004": 27.2696124985,
			"-0.003": 23.3510656511,
			"-0.002": 19.0433398327,
			"-0.001": 18.2453822416,
			"0.0": 19.0869611357,
			"0.001": 19.5885831445,
			"0.002": 21.2719815157,
			"0.003": 20.1209273802,
			"0.004": 21.4693738575,
			"0.005": 17.6800702455,
			"0.006": 12.1303336478,
			"0.007": 10.4959667528,
			"0.008": 4.26170158204,
			"0.009": 5.52507460644,
			"0.01": 4.32960940395,
			"0.011": 3.04251255296,
			"0.012": 2.15705723764,
			"0.013": 1.2628078172,
			"0.014": 1.12639344441,
			"0.015": 0.298117968705,
			"0.016": 0.0,
			"0.017": 0.0,
			"0.018": 0.0,
			"0.019": 0.0,
			"0.02": 0.0,
			"0.021": 0.0,
			"0.022": 0.0,
			"0.023": 0.0,
			"0.024": 0.0,
			"0.025": 0.0
		}
	}
}
