{
	 "smiles": "CCOC(=O)C1=C(C)NC(=O)NC1C1=CC=C(C=C1)[N+]([O-])=O", 
	 "Tm": 481.15, 
	 "num_atms": 37, 
	 "gaussian": { 
		 "optdone": 1, 
		 "sigma_profile": "yes", 
		 "theory": "DFT", 
		 "functional": "B3LYP", 
		 "basiset": "6-31G**", 
		 "properties": { 
			 "R2extent": 8140.0822, 
			 "electric_dipole_moment_norm": 4.49307406905, 
			 "electric_quadrupole_moment_norm": 28.6958328339, 
			 "total_energy": -1082.84598483, 
			 "HOMO_LUMO_gap": 0.14775, 
			 "cosmo_polarized_energy": -21.71, 
			 "cosmo_cavitation_energy": 41.81, 
			 "cosmo_dispersion_energy": -28.43, 
			 "cosmo_repulsion_energy": 2.2, 
			 "cosmo_total_nonelectrostatic_energy": 15.58, 
			 "SMD_solvation_energy": 10.66 
		},
		"coords": [
			{
				"x": -3.2079881684,
				"y": -0.6239875785,
				"z": -0.7237504673,
				"element": "C" 
			},
			{
				"x": -2.0691684213,
				"y": -1.3611089808,
				"z": -1.4027276629,
				"element": "C" 
			},
			{
				"x": -0.8857201588,
				"y": -0.5406992134,
				"z": -1.2808047837,
				"element": "O" 
			},
			{
				"x": 0.2508567714,
				"y": -1.0588877869,
				"z": -1.8189634589,
				"element": "C" 
			},
			{
				"x": 0.2553439637,
				"y": -2.1429817952,
				"z": -2.3805609001,
				"element": "O" 
			},
			{
				"x": 1.3901173237,
				"y": -0.143260128,
				"z": -1.6186340987,
				"element": "C" 
			},
			{
				"x": 2.6361015872,
				"y": -0.4020795814,
				"z": -2.1095565158,
				"element": "C" 
			},
			{
				"x": 3.0763402911,
				"y": -1.61153608,
				"z": -2.8864825082,
				"element": "C" 
			},
			{
				"x": 3.6512810621,
				"y": 0.5172654829,
				"z": -1.9027686031,
				"element": "N" 
			},
			{
				"x": 3.4671569086,
				"y": 1.8380093902,
				"z": -1.474550497,
				"element": "C" 
			},
			{
				"x": 4.3838064317,
				"y": 2.6438906816,
				"z": -1.4820987618,
				"element": "O" 
			},
			{
				"x": 2.1825126192,
				"y": 2.1187664458,
				"z": -1.1052430444,
				"element": "N" 
			},
			{
				"x": 1.1436788169,
				"y": 1.1250274962,
				"z": -0.8072707288,
				"element": "C" 
			},
			{
				"x": 1.0381949848,
				"y": 0.8651582837,
				"z": 0.7009592114,
				"element": "C" 
			},
			{
				"x": -0.0908667669,
				"y": 1.2955348949,
				"z": 1.4083878418,
				"element": "C" 
			},
			{
				"x": -0.194058724,
				"y": 1.1008788908,
				"z": 2.7840550289,
				"element": "C" 
			},
			{
				"x": 0.8543317983,
				"y": 0.4674357672,
				"z": 3.445611194,
				"element": "C" 
			},
			{
				"x": 1.9934828251,
				"y": 0.0269105263,
				"z": 2.7718053651,
				"element": "C" 
			},
			{
				"x": 2.0765195999,
				"y": 0.2294187419,
				"z": 1.3986200016,
				"element": "C" 
			},
			{
				"x": 0.7565104329,
				"y": 0.254433406,
				"z": 4.8979732511,
				"element": "N" 
			},
			{
				"x": -0.2603329568,
				"y": 0.6522876832,
				"z": 5.4660761288,
				"element": "O" 
			},
			{
				"x": 1.697060222,
				"y": -0.3089838331,
				"z": 5.4567460833,
				"element": "O" 
			},
			{
				"x": -3.3891555321,
				"y": 0.3440991216,
				"z": -1.2003168455,
				"element": "H" 
			},
			{
				"x": -4.1256944862,
				"y": -1.2160557285,
				"z": -0.7931119445,
				"element": "H" 
			},
			{
				"x": -2.9886306931,
				"y": -0.4546005127,
				"z": 0.334369624,
				"element": "H" 
			},
			{
				"x": -2.2681507925,
				"y": -1.5388600631,
				"z": -2.4641847347,
				"element": "H" 
			},
			{
				"x": -1.8738470344,
				"y": -2.3329814962,
				"z": -0.9393758661,
				"element": "H" 
			},
			{
				"x": 3.3754712927,
				"y": -1.3104230228,
				"z": -3.897913371,
				"element": "H" 
			},
			{
				"x": 2.2818528096,
				"y": -2.348578137,
				"z": -2.952564643,
				"element": "H" 
			},
			{
				"x": 3.9545922014,
				"y": -2.0569770572,
				"z": -2.403830764,
				"element": "H" 
			},
			{
				"x": 4.5665431005,
				"y": 0.3430613539,
				"z": -2.2935061095,
				"element": "H" 
			},
			{
				"x": 2.0716972324,
				"y": 3.0448927078,
				"z": -0.7161010161,
				"element": "H" 
			},
			{
				"x": 0.1905080019,
				"y": 1.5547865639,
				"z": -1.1264654075,
				"element": "H" 
			},
			{
				"x": -0.902914944,
				"y": 1.7811496233,
				"z": 0.8750239153,
				"element": "H" 
			},
			{
				"x": -1.060516898,
				"y": 1.4259876045,
				"z": 3.3462479716,
				"element": "H" 
			},
			{
				"x": 2.7842828845,
				"y": -0.4617765692,
				"z": 3.3269634835,
				"element": "H" 
			},
			{
				"x": 2.9572024149,
				"y": -0.1123171017,
				"z": 0.8639436321,
				"element": "H" 
			}
		],
		 "valence_orbital": [ 
			{
				"type": "occ",
				"energy": -0.2815,
				"method": "rhf"
			},
			{
				"type": "occ",
				"energy": -0.27713,
				"method": "rhf"
			},
			{
				"type": "occ",
				"energy": -0.27636,
				"method": "rhf"
			},
			{
				"type": "occ",
				"energy": -0.26411,
				"method": "rhf"
			},
			{
				"type": "occ",
				"energy": -0.23962,
				"method": "rhf"
			},
			{
				"type": "unocc",
				"energy": -0.09187,
				"method": "rhf"
			},
			{
				"type": "unocc",
				"energy": -0.04904,
				"method": "rhf"
			},
			{
				"type": "unocc",
				"energy": -0.03082,
				"method": "rhf"
			},
			{
				"type": "unocc",
				"energy": -0.00366,
				"method": "rhf"
			},
			{
				"type": "unocc",
				"energy": 0.04757,
				"method": "rhf"
			}
		],
		"cosmo_sigma_profile": { 
			"-0.025": 0.0,
			"-0.024": 0.0,
			"-0.023": 0.0,
			"-0.022": 0.0,
			"-0.021": 0.0,
			"-0.02": 0.0,
			"-0.019": 0.0,
			"-0.018": 0.0,
			"-0.017": 0.0,
			"-0.016": 0.121186604536,
			"-0.015": 1.05588580513,
			"-0.014": 2.42453369891,
			"-0.013": 1.81300155259,
			"-0.012": 2.15882711398,
			"-0.011": 2.08985380008,
			"-0.01": 2.03262961967,
			"-0.009": 3.00708491234,
			"-0.008": 3.79532101057,
			"-0.007": 9.68807642984,
			"-0.006": 15.3236716636,
			"-0.005": 17.1826653687,
			"-0.004": 24.3286349489,
			"-0.003": 27.6581413893,
			"-0.002": 28.5174426254,
			"-0.001": 32.6809431476,
			"0.0": 30.517841791,
			"0.001": 24.6590580837,
			"0.002": 17.7878913701,
			"0.003": 10.3123045742,
			"0.004": 8.50231962827,
			"0.005": 6.94358689215,
			"0.006": 6.29529599111,
			"0.007": 10.5759429092,
			"0.008": 10.2015091815,
			"0.009": 6.65944801047,
			"0.01": 6.94151223216,
			"0.011": 3.062505117,
			"0.012": 5.34356177205,
			"0.013": 7.21493684125,
			"0.014": 3.03761735437,
			"0.015": 0.0421573941929,
			"0.016": 0.0,
			"0.017": 0.0,
			"0.018": 0.0,
			"0.019": 0.0,
			"0.02": 0.0,
			"0.021": 0.0,
			"0.022": 0.0,
			"0.023": 0.0,
			"0.024": 0.0,
			"0.025": 0.0
		}
	}
}
