{
	 "smiles": "CC1=CC(CC#N)=NO1", 
	 "Tm": 310.15, 
	 "num_atms": 15, 
	 "gaussian": { 
		 "optdone": 1, 
		 "sigma_profile": "yes", 
		 "theory": "DFT", 
		 "functional": "B3LYP", 
		 "basiset": "6-31G**", 
		 "properties": { 
			 "R2extent": 1547.7284, 
			 "electric_dipole_moment_norm": 3.56587487161, 
			 "electric_quadrupole_moment_norm": 21.1568154633, 
			 "total_energy": -416.914010012, 
			 "HOMO_LUMO_gap": 0.24362, 
			 "cosmo_polarized_energy": -12.34, 
			 "cosmo_cavitation_energy": 20.76, 
			 "cosmo_dispersion_energy": -14.68, 
			 "cosmo_repulsion_energy": 1.23, 
			 "cosmo_total_nonelectrostatic_energy": 7.31, 
			 "SMD_solvation_energy": 5.22 
		},
		"coords": [
			{
				"x": 1.4455003567,
				"y": 0.2472762385,
				"z": 2.8297711654,
				"element": "C" 
			},
			{
				"x": 0.6158358219,
				"y": 0.0475833763,
				"z": 1.6095695526,
				"element": "C" 
			},
			{
				"x": -0.4728363642,
				"y": 0.6869701754,
				"z": 1.0937625715,
				"element": "C" 
			},
			{
				"x": -0.757766679,
				"y": -0.0377350783,
				"z": -0.0978271903,
				"element": "C" 
			},
			{
				"x": -1.8314501906,
				"y": 0.2071693155,
				"z": -1.1285439513,
				"element": "C" 
			},
			{
				"x": -3.1595381494,
				"y": 0.3979165763,
				"z": -0.5353948997,
				"element": "C" 
			},
			{
				"x": -4.2053686676,
				"y": 0.5656599954,
				"z": -0.062114154,
				"element": "N" 
			},
			{
				"x": 0.0828881731,
				"y": -1.0292942539,
				"z": -0.2871425906,
				"element": "N" 
			},
			{
				"x": 0.9614649497,
				"y": -0.9757178004,
				"z": 0.7963666037,
				"element": "O" 
			},
			{
				"x": 2.4917689741,
				"y": 0.4314819568,
				"z": 2.5647116671,
				"element": "H" 
			},
			{
				"x": 1.4174044889,
				"y": -0.6411485761,
				"z": 3.469100338,
				"element": "H" 
			},
			{
				"x": 1.0746350323,
				"y": 1.0998753872,
				"z": 3.4015912277,
				"element": "H" 
			},
			{
				"x": -1.0028599901,
				"y": 1.533686755,
				"z": 1.501978325,
				"element": "H" 
			},
			{
				"x": -1.5915145415,
				"y": 1.0996135507,
				"z": -1.720659985,
				"element": "H" 
			},
			{
				"x": -1.8579632142,
				"y": -0.6415376186,
				"z": -1.8192686801,
				"element": "H" 
			}
		],
		 "valence_orbital": [ 
			{
				"type": "occ",
				"energy": -0.33582,
				"method": "rhf"
			},
			{
				"type": "occ",
				"energy": -0.33297,
				"method": "rhf"
			},
			{
				"type": "occ",
				"energy": -0.31651,
				"method": "rhf"
			},
			{
				"type": "occ",
				"energy": -0.30257,
				"method": "rhf"
			},
			{
				"type": "occ",
				"energy": -0.26757,
				"method": "rhf"
			},
			{
				"type": "unocc",
				"energy": -0.02395,
				"method": "rhf"
			},
			{
				"type": "unocc",
				"energy": 0.02651,
				"method": "rhf"
			},
			{
				"type": "unocc",
				"energy": 0.02912,
				"method": "rhf"
			},
			{
				"type": "unocc",
				"energy": 0.05022,
				"method": "rhf"
			},
			{
				"type": "unocc",
				"energy": 0.07816,
				"method": "rhf"
			}
		],
		"cosmo_sigma_profile": { 
			"-0.025": 0.0,
			"-0.024": 0.0,
			"-0.023": 0.0,
			"-0.022": 0.0,
			"-0.021": 0.0,
			"-0.02": 0.0,
			"-0.019": 0.0,
			"-0.018": 0.0,
			"-0.017": 0.0,
			"-0.016": 0.0,
			"-0.015": 0.0,
			"-0.014": 0.0,
			"-0.013": 0.0,
			"-0.012": 0.0,
			"-0.011": 0.0495623217072,
			"-0.01": 3.09807362853,
			"-0.009": 5.63522949365,
			"-0.008": 6.24851489363,
			"-0.007": 8.96630908317,
			"-0.006": 12.7004565942,
			"-0.005": 10.7643569839,
			"-0.004": 10.0657027568,
			"-0.003": 11.3351572975,
			"-0.002": 12.5609570077,
			"-0.001": 9.10734920037,
			"0.0": 8.83545848465,
			"0.001": 8.78297909894,
			"0.002": 6.0024269012,
			"0.003": 5.25753807291,
			"0.004": 3.67471763934,
			"0.005": 3.88595613685,
			"0.006": 4.9568898796,
			"0.007": 6.57680095533,
			"0.008": 8.20441599575,
			"0.009": 5.52112559935,
			"0.01": 3.87691054523,
			"0.011": 4.05925831663,
			"0.012": 3.85561754656,
			"0.013": 2.13716664662,
			"0.014": 0.753105158845,
			"0.015": 0.0,
			"0.016": 0.0,
			"0.017": 0.0,
			"0.018": 0.0,
			"0.019": 0.0,
			"0.02": 0.0,
			"0.021": 0.0,
			"0.022": 0.0,
			"0.023": 0.0,
			"0.024": 0.0,
			"0.025": 0.0
		}
	}
}
