{
	 "smiles": "CC(C)C1=CC(=NN1)C(O)=O", 
	 "Tm": 428.15, 
	 "num_atms": 21, 
	 "gaussian": { 
		 "optdone": 1, 
		 "sigma_profile": "yes", 
		 "theory": "DFT", 
		 "functional": "B3LYP", 
		 "basiset": "6-31G**", 
		 "properties": { 
			 "R2extent": 2594.2053, 
			 "electric_dipole_moment_norm": 7.68554969147, 
			 "electric_quadrupole_moment_norm": 12.8292496519, 
			 "total_energy": -532.715921092, 
			 "HOMO_LUMO_gap": 0.22996, 
			 "cosmo_polarized_energy": -22.03, 
			 "cosmo_cavitation_energy": 25.34, 
			 "cosmo_dispersion_energy": -18.13, 
			 "cosmo_repulsion_energy": 1.49, 
			 "cosmo_total_nonelectrostatic_energy": 8.69, 
			 "SMD_solvation_energy": 4.72 
		},
		"coords": [
			{
				"x": 2.5705947746,
				"y": -0.2049048543,
				"z": -2.7747287329,
				"element": "C" 
			},
			{
				"x": 1.1329007385,
				"y": -0.6897796155,
				"z": -2.5004491342,
				"element": "C" 
			},
			{
				"x": 1.1021049874,
				"y": -2.1944339403,
				"z": -2.165343938,
				"element": "C" 
			},
			{
				"x": 0.4576576788,
				"y": 0.1347201579,
				"z": -1.4360368307,
				"element": "C" 
			},
			{
				"x": -0.6682665168,
				"y": 0.9368824293,
				"z": -1.4673378984,
				"element": "C" 
			},
			{
				"x": -0.8131919022,
				"y": 1.4362779548,
				"z": -0.1440271236,
				"element": "C" 
			},
			{
				"x": 0.1534688353,
				"y": 0.9794103676,
				"z": 0.6564688303,
				"element": "N" 
			},
			{
				"x": 0.9021003823,
				"y": 0.2066888298,
				"z": -0.1456872048,
				"element": "N" 
			},
			{
				"x": -1.8649497132,
				"y": 2.3357689312,
				"z": 0.4078017945,
				"element": "C" 
			},
			{
				"x": -2.5374770489,
				"y": 3.0647961393,
				"z": -0.5304746779,
				"element": "O" 
			},
			{
				"x": -2.1461969817,
				"y": 2.4341181024,
				"z": 1.5746635636,
				"element": "O" 
			},
			{
				"x": 2.5890367699,
				"y": 0.8562382258,
				"z": -3.0390820242,
				"element": "H" 
			},
			{
				"x": 3.0140013112,
				"y": -0.7722474402,
				"z": -3.5990300538,
				"element": "H" 
			},
			{
				"x": 3.2141832708,
				"y": -0.343103335,
				"z": -1.8981197528,
				"element": "H" 
			},
			{
				"x": 0.5472054953,
				"y": -0.5373838283,
				"z": -3.4147261465,
				"element": "H" 
			},
			{
				"x": 0.0792392768,
				"y": -2.5431099725,
				"z": -1.9974661169,
				"element": "H" 
			},
			{
				"x": 1.5341243115,
				"y": -2.7771963248,
				"z": -2.9849962649,
				"element": "H" 
			},
			{
				"x": 1.6836941574,
				"y": -2.4152610477,
				"z": -1.2627957028,
				"element": "H" 
			},
			{
				"x": -1.3118307899,
				"y": 1.0895344219,
				"z": -2.322629889,
				"element": "H" 
			},
			{
				"x": 1.7114699729,
				"y": -0.2488471268,
				"z": 0.249142552,
				"element": "H" 
			},
			{
				"x": -2.0971690102,
				"y": 2.9830319255,
				"z": -1.3878452492,
				"element": "H" 
			}
		],
		 "valence_orbital": [ 
			{
				"type": "occ",
				"energy": -0.30828,
				"method": "rhf"
			},
			{
				"type": "occ",
				"energy": -0.30227,
				"method": "rhf"
			},
			{
				"type": "occ",
				"energy": -0.27579,
				"method": "rhf"
			},
			{
				"type": "occ",
				"energy": -0.2639,
				"method": "rhf"
			},
			{
				"type": "occ",
				"energy": -0.25546,
				"method": "rhf"
			},
			{
				"type": "unocc",
				"energy": -0.0255,
				"method": "rhf"
			},
			{
				"type": "unocc",
				"energy": 0.01396,
				"method": "rhf"
			},
			{
				"type": "unocc",
				"energy": 0.04482,
				"method": "rhf"
			},
			{
				"type": "unocc",
				"energy": 0.07136,
				"method": "rhf"
			},
			{
				"type": "unocc",
				"energy": 0.08809,
				"method": "rhf"
			}
		],
		"cosmo_sigma_profile": { 
			"-0.025": 0.0,
			"-0.024": 0.0,
			"-0.023": 0.0,
			"-0.022": 0.0,
			"-0.021": 0.0,
			"-0.02": 0.0,
			"-0.019": 0.0,
			"-0.018": 0.364348821084,
			"-0.017": 1.14273057807,
			"-0.016": 2.572778498,
			"-0.015": 1.51774690506,
			"-0.014": 1.60369289715,
			"-0.013": 1.15910808028,
			"-0.012": 3.34900718554,
			"-0.011": 4.13584907382,
			"-0.01": 2.29829938436,
			"-0.009": 2.43546385104,
			"-0.008": 3.50148702759,
			"-0.007": 3.35672965591,
			"-0.006": 4.39780104861,
			"-0.005": 5.18069945672,
			"-0.004": 10.3687206621,
			"-0.003": 19.0334787027,
			"-0.002": 17.7756558065,
			"-0.001": 18.2130986073,
			"0.0": 21.0052099871,
			"0.001": 13.2699035179,
			"0.002": 7.56838491144,
			"0.003": 6.78865323814,
			"0.004": 3.74172963076,
			"0.005": 3.75201821488,
			"0.006": 2.73788267988,
			"0.007": 2.79798439955,
			"0.008": 4.47924567811,
			"0.009": 3.68179810601,
			"0.01": 5.60374325693,
			"0.011": 6.68709284434,
			"0.012": 7.07804078198,
			"0.013": 4.0052934468,
			"0.014": 2.59339372974,
			"0.015": 1.19328734982,
			"0.016": 0.151472214781,
			"0.017": 0.0,
			"0.018": 0.0,
			"0.019": 0.0,
			"0.02": 0.0,
			"0.021": 0.0,
			"0.022": 0.0,
			"0.023": 0.0,
			"0.024": 0.0,
			"0.025": 0.0
		}
	}
}
