{
	 "smiles": "C[Si](C)(C)C1=CC2(CC1=O)CCCCC2", 
	 "Tm": 329.15, 
	 "num_atms": 37, 
	 "gaussian": { 
		 "optdone": 1, 
		 "sigma_profile": "yes", 
		 "theory": "DFT", 
		 "functional": "B3LYP", 
		 "basiset": "6-31G**", 
		 "properties": { 
			 "R2extent": 4846.4643, 
			 "electric_dipole_moment_norm": 3.48594547003, 
			 "electric_quadrupole_moment_norm": 15.5472352951, 
			 "total_energy": -873.416302661, 
			 "HOMO_LUMO_gap": 0.18779, 
			 "cosmo_polarized_energy": -7.99, 
			 "cosmo_cavitation_energy": 38.17, 
			 "cosmo_dispersion_energy": -24.14, 
			 "cosmo_repulsion_energy": 2.03, 
			 "cosmo_total_nonelectrostatic_energy": 16.06, 
			 "SMD_solvation_energy": 7.6 
		},
		"coords": [
			{
				"x": -3.4161671971,
				"y": 2.6392689128,
				"z": 1.116926928,
				"element": "C" 
			},
			{
				"x": -1.9720022052,
				"y": 1.6688495277,
				"z": 1.8540607914,
				"element": "Si" 
			},
			{
				"x": -0.4137936167,
				"y": 2.7441981187,
				"z": 1.9053765707,
				"element": "C" 
			},
			{
				"x": -2.4107560069,
				"y": 1.0643849207,
				"z": 3.5898400012,
				"element": "C" 
			},
			{
				"x": -1.6331360356,
				"y": 0.1666905123,
				"z": 0.7591059584,
				"element": "C" 
			},
			{
				"x": -0.5116655138,
				"y": -0.1701187642,
				"z": 0.0880712219,
				"element": "C" 
			},
			{
				"x": -0.5811403497,
				"y": -1.46631504,
				"z": -0.7102919422,
				"element": "C" 
			},
			{
				"x": -2.0270167684,
				"y": -1.9432706132,
				"z": -0.4266484821,
				"element": "C" 
			},
			{
				"x": -2.6510362027,
				"y": -0.8908709067,
				"z": 0.4991023991,
				"element": "C" 
			},
			{
				"x": -3.7884031613,
				"y": -0.9263781966,
				"z": 0.939681787,
				"element": "O" 
			},
			{
				"x": -0.3459545524,
				"y": -1.2070413384,
				"z": -2.2244272358,
				"element": "C" 
			},
			{
				"x": 1.0985969123,
				"y": -0.8065440493,
				"z": -2.5624735178,
				"element": "C" 
			},
			{
				"x": 2.1056013844,
				"y": -1.8435305193,
				"z": -2.0432866832,
				"element": "C" 
			},
			{
				"x": 1.9210315902,
				"y": -2.0967089237,
				"z": -0.5396992151,
				"element": "C" 
			},
			{
				"x": 0.4732925836,
				"y": -2.4921703651,
				"z": -0.2093431321,
				"element": "C" 
			},
			{
				"x": -4.2920511802,
				"y": 1.9907266346,
				"z": 1.0184203233,
				"element": "H" 
			},
			{
				"x": -3.6894977501,
				"y": 3.4881808612,
				"z": 1.7537292307,
				"element": "H" 
			},
			{
				"x": -3.1726547975,
				"y": 3.0318623153,
				"z": 0.1236726617,
				"element": "H" 
			},
			{
				"x": 0.4418870227,
				"y": 2.2002209236,
				"z": 2.3205382741,
				"element": "H" 
			},
			{
				"x": -0.5761941251,
				"y": 3.6267343493,
				"z": 2.5343434779,
				"element": "H" 
			},
			{
				"x": -0.133276498,
				"y": 3.1009819191,
				"z": 0.9081436406,
				"element": "H" 
			},
			{
				"x": -2.6762147836,
				"y": 1.9012606677,
				"z": 4.245626076,
				"element": "H" 
			},
			{
				"x": -1.5749642939,
				"y": 0.5291493176,
				"z": 4.0534759716,
				"element": "H" 
			},
			{
				"x": -3.26518044,
				"y": 0.3821932204,
				"z": 3.5444512589,
				"element": "H" 
			},
			{
				"x": 0.3974740009,
				"y": 0.4262353839,
				"z": 0.0983937638,
				"element": "H" 
			},
			{
				"x": -2.6330289213,
				"y": -2.0262733542,
				"z": -1.3355800282,
				"element": "H" 
			},
			{
				"x": -2.0630859947,
				"y": -2.9212978996,
				"z": 0.0657315354,
				"element": "H" 
			},
			{
				"x": -1.0493677712,
				"y": -0.4427999852,
				"z": -2.5770934818,
				"element": "H" 
			},
			{
				"x": -0.5921021852,
				"y": -2.1322693526,
				"z": -2.7641420559,
				"element": "H" 
			},
			{
				"x": 1.2003724658,
				"y": -0.6882525968,
				"z": -3.647754902,
				"element": "H" 
			},
			{
				"x": 1.3273214398,
				"y": 0.1754705351,
				"z": -2.1268235334,
				"element": "H" 
			},
			{
				"x": 1.9615434341,
				"y": -2.7880699539,
				"z": -2.5871675635,
				"element": "H" 
			},
			{
				"x": 3.1311914602,
				"y": -1.5169964054,
				"z": -2.2519936255,
				"element": "H" 
			},
			{
				"x": 2.6017907452,
				"y": -2.8866595738,
				"z": -0.200982193,
				"element": "H" 
			},
			{
				"x": 2.2002745294,
				"y": -1.1939495915,
				"z": 0.0202086668,
				"element": "H" 
			},
			{
				"x": 0.3523779238,
				"y": -2.6413851333,
				"z": 0.8706317351,
				"element": "H" 
			},
			{
				"x": 0.2527348583,
				"y": -3.4578055569,
				"z": -0.6856246824,
				"element": "H" 
			}
		],
		 "valence_orbital": [ 
			{
				"type": "occ",
				"energy": -0.29824,
				"method": "rhf"
			},
			{
				"type": "occ",
				"energy": -0.29612,
				"method": "rhf"
			},
			{
				"type": "occ",
				"energy": -0.29208,
				"method": "rhf"
			},
			{
				"type": "occ",
				"energy": -0.25888,
				"method": "rhf"
			},
			{
				"type": "occ",
				"energy": -0.23098,
				"method": "rhf"
			},
			{
				"type": "unocc",
				"energy": -0.04319,
				"method": "rhf"
			},
			{
				"type": "unocc",
				"energy": 0.03969,
				"method": "rhf"
			},
			{
				"type": "unocc",
				"energy": 0.07268,
				"method": "rhf"
			},
			{
				"type": "unocc",
				"energy": 0.08303,
				"method": "rhf"
			},
			{
				"type": "unocc",
				"energy": 0.09462,
				"method": "rhf"
			}
		],
		"cosmo_sigma_profile": { 
			"-0.025": 0.0,
			"-0.024": 0.0,
			"-0.023": 0.0,
			"-0.022": 0.0,
			"-0.021": 0.0,
			"-0.02": 0.0,
			"-0.019": 0.0,
			"-0.018": 0.0,
			"-0.017": 0.0,
			"-0.016": 0.0,
			"-0.015": 0.0,
			"-0.014": 0.0,
			"-0.013": 0.0,
			"-0.012": 0.0,
			"-0.011": 0.0,
			"-0.01": 0.0,
			"-0.009": 0.0,
			"-0.008": 0.0,
			"-0.007": 0.0,
			"-0.006": 0.475049557234,
			"-0.005": 6.18031539679,
			"-0.004": 11.4641760726,
			"-0.003": 33.5580880798,
			"-0.002": 50.6522688977,
			"-0.001": 48.4128538346,
			"0.0": 44.1754099365,
			"0.001": 40.2318716477,
			"0.002": 21.9945694181,
			"0.003": 10.2917785978,
			"0.004": 2.87846475565,
			"0.005": 2.07439121933,
			"0.006": 2.56564104449,
			"0.007": 2.3580171318,
			"0.008": 1.7785958772,
			"0.009": 1.72966125662,
			"0.01": 1.3687336253,
			"0.011": 2.40855149199,
			"0.012": 2.42674767876,
			"0.013": 3.56109892584,
			"0.014": 1.22167828735,
			"0.015": 0.0766911016976,
			"0.016": 0.0,
			"0.017": 0.0,
			"0.018": 0.0,
			"0.019": 0.0,
			"0.02": 0.0,
			"0.021": 0.0,
			"0.022": 0.0,
			"0.023": 0.0,
			"0.024": 0.0,
			"0.025": 0.0
		}
	}
}
