{
	 "smiles": "OC(=O)C1=CSC2=CC=CC=C12", 
	 "Tm": 448.15, 
	 "num_atms": 18, 
	 "gaussian": { 
		 "optdone": 1, 
		 "sigma_profile": "yes", 
		 "theory": "DFT", 
		 "functional": "B3LYP", 
		 "basiset": "6-31G**", 
		 "properties": { 
			 "R2extent": 3469.4322, 
			 "electric_dipole_moment_norm": 1.18556424119, 
			 "electric_quadrupole_moment_norm": 10.3315676323, 
			 "total_energy": -895.228648705, 
			 "HOMO_LUMO_gap": 0.17557, 
			 "cosmo_polarized_energy": -9.05, 
			 "cosmo_cavitation_energy": 24.05, 
			 "cosmo_dispersion_energy": -18.64, 
			 "cosmo_repulsion_energy": 1.41, 
			 "cosmo_total_nonelectrostatic_energy": 6.82, 
			 "SMD_solvation_energy": 4.95 
		},
		"coords": [
			{
				"x": -2.6188617191,
				"y": 4.0166378525,
				"z": 2.3070469681,
				"element": "O" 
			},
			{
				"x": -1.7855125074,
				"y": 3.6314800683,
				"z": 1.3050389676,
				"element": "C" 
			},
			{
				"x": -1.2122784505,
				"y": 4.4425245974,
				"z": 0.6013297022,
				"element": "O" 
			},
			{
				"x": -1.6744548497,
				"y": 2.1668245089,
				"z": 1.188244265,
				"element": "C" 
			},
			{
				"x": -2.3428454071,
				"y": 1.2982349725,
				"z": 2.0069320049,
				"element": "C" 
			},
			{
				"x": -2.0306148604,
				"y": -0.3683490169,
				"z": 1.6492597456,
				"element": "S" 
			},
			{
				"x": -0.9478190769,
				"y": 0.0797610944,
				"z": 0.3344854026,
				"element": "C" 
			},
			{
				"x": -0.2465569321,
				"y": -0.7930263705,
				"z": -0.5030064167,
				"element": "C" 
			},
			{
				"x": 0.5641122786,
				"y": -0.2437264607,
				"z": -1.4898473173,
				"element": "C" 
			},
			{
				"x": 0.6715893487,
				"y": 1.1506258132,
				"z": -1.6365378663,
				"element": "C" 
			},
			{
				"x": -0.0252652555,
				"y": 2.0166322744,
				"z": -0.8043001027,
				"element": "C" 
			},
			{
				"x": -0.8531351752,
				"y": 1.4858056865,
				"z": 0.2031478133,
				"element": "C" 
			},
			{
				"x": -2.6155610439,
				"y": 4.987758259,
				"z": 2.2907729179,
				"element": "H" 
			},
			{
				"x": -3.0123387638,
				"y": 1.5615121413,
				"z": 2.8134795321,
				"element": "H" 
			},
			{
				"x": -0.3323260911,
				"y": -1.8688943533,
				"z": -0.3863671417,
				"element": "H" 
			},
			{
				"x": 1.1191785974,
				"y": -0.9004704884,
				"z": -2.1531261848,
				"element": "H" 
			},
			{
				"x": 1.3109736556,
				"y": 1.5571132773,
				"z": -2.4145342774,
				"element": "H" 
			},
			{
				"x": 0.0524162524,
				"y": 3.091656144,
				"z": -0.9111180127,
				"element": "H" 
			}
		],
		 "valence_orbital": [ 
			{
				"type": "occ",
				"energy": -0.322,
				"method": "rhf"
			},
			{
				"type": "occ",
				"energy": -0.28785,
				"method": "rhf"
			},
			{
				"type": "occ",
				"energy": -0.27864,
				"method": "rhf"
			},
			{
				"type": "occ",
				"energy": -0.24434,
				"method": "rhf"
			},
			{
				"type": "occ",
				"energy": -0.2282,
				"method": "rhf"
			},
			{
				"type": "unocc",
				"energy": -0.05263,
				"method": "rhf"
			},
			{
				"type": "unocc",
				"energy": -0.00636,
				"method": "rhf"
			},
			{
				"type": "unocc",
				"energy": -0.0048,
				"method": "rhf"
			},
			{
				"type": "unocc",
				"energy": 0.01314,
				"method": "rhf"
			},
			{
				"type": "unocc",
				"energy": 0.07754,
				"method": "rhf"
			}
		],
		"cosmo_sigma_profile": { 
			"-0.025": 0.0,
			"-0.024": 0.0,
			"-0.023": 0.0,
			"-0.022": 0.0,
			"-0.021": 0.0,
			"-0.02": 0.0,
			"-0.019": 0.00508586247326,
			"-0.018": 1.16760828451,
			"-0.017": 0.10077136651,
			"-0.016": 1.35703300517,
			"-0.015": 0.618262184336,
			"-0.014": 0.822499592673,
			"-0.013": 0.521418149423,
			"-0.012": 0.704702174468,
			"-0.011": 0.634232998853,
			"-0.01": 1.47084290026,
			"-0.009": 2.16294271119,
			"-0.008": 2.34887760355,
			"-0.007": 5.90452590143,
			"-0.006": 7.65833322868,
			"-0.005": 9.12813336559,
			"-0.004": 10.940444452,
			"-0.003": 10.2156811883,
			"-0.002": 10.7341259337,
			"-0.001": 12.6006350597,
			"0.0": 13.5907135924,
			"0.001": 23.2672663784,
			"0.002": 20.6954121044,
			"0.003": 17.117108086,
			"0.004": 14.4203320347,
			"0.005": 9.99472635222,
			"0.006": 3.15116405068,
			"0.007": 3.43160396893,
			"0.008": 2.03024956329,
			"0.009": 1.67201816326,
			"0.01": 2.06769283144,
			"0.011": 3.39590483308,
			"0.012": 2.00112138986,
			"0.013": 0.035546791564,
			"0.014": 0.0,
			"0.015": 0.0,
			"0.016": 0.0,
			"0.017": 0.0,
			"0.018": 0.0,
			"0.019": 0.0,
			"0.02": 0.0,
			"0.021": 0.0,
			"0.022": 0.0,
			"0.023": 0.0,
			"0.024": 0.0,
			"0.025": 0.0
		}
	}
}
