{
	 "smiles": "CCCCCCCC(C)CC", 
	 "Tm": 180.25, 
	 "num_atms": 35, 
	 "gaussian": { 
		 "optdone": 1, 
		 "sigma_profile": "yes", 
		 "theory": "DFT", 
		 "functional": "B3LYP", 
		 "basiset": "6-31G**", 
		 "properties": { 
			 "R2extent": 3104.4027, 
			 "electric_dipole_moment_norm": 0.14424454929, 
			 "electric_quadrupole_moment_norm": 0.575893323455, 
			 "total_energy": -433.670311808, 
			 "HOMO_LUMO_gap": 0.36973, 
			 "cosmo_polarized_energy": -0.85, 
			 "cosmo_cavitation_energy": 33.92, 
			 "cosmo_dispersion_energy": -23.13, 
			 "cosmo_repulsion_energy": 1.91, 
			 "cosmo_total_nonelectrostatic_energy": 12.7, 
			 "SMD_solvation_energy": 5.12 
		},
		"coords": [
			{
				"x": 1.0857791749,
				"y": -3.1825501988,
				"z": 2.6119222587,
				"element": "C" 
			},
			{
				"x": -0.3372930149,
				"y": -2.7720686275,
				"z": 2.2200734308,
				"element": "C" 
			},
			{
				"x": -0.4244277802,
				"y": -1.3477234258,
				"z": 1.6560737335,
				"element": "C" 
			},
			{
				"x": -1.856354802,
				"y": -0.9321937199,
				"z": 1.2849987406,
				"element": "C" 
			},
			{
				"x": -2.0270217691,
				"y": 0.5117887966,
				"z": 0.7640845166,
				"element": "C" 
			},
			{
				"x": -1.878553255,
				"y": 0.7130078214,
				"z": -0.7573350532,
				"element": "C" 
			},
			{
				"x": -0.4938407039,
				"y": 0.4580347519,
				"z": -1.3806701016,
				"element": "C" 
			},
			{
				"x": 0.6772807663,
				"y": 1.3270381067,
				"z": -0.8711736438,
				"element": "C" 
			},
			{
				"x": 1.9956066585,
				"y": 0.8179451558,
				"z": -1.4768120753,
				"element": "C" 
			},
			{
				"x": 0.4523949763,
				"y": 2.8255701632,
				"z": -1.1604183941,
				"element": "C" 
			},
			{
				"x": 1.5096430635,
				"y": 3.7636698376,
				"z": -0.5648789585,
				"element": "C" 
			},
			{
				"x": 1.7614120665,
				"y": -3.1437515189,
				"z": 1.7496511383,
				"element": "H" 
			},
			{
				"x": 1.493765572,
				"y": -2.5146629525,
				"z": 3.379341511,
				"element": "H" 
			},
			{
				"x": 1.1142882168,
				"y": -4.2022304647,
				"z": 3.010089357,
				"element": "H" 
			},
			{
				"x": -0.7308896952,
				"y": -3.4795641466,
				"z": 1.4773226513,
				"element": "H" 
			},
			{
				"x": -0.9967362308,
				"y": -2.8551938741,
				"z": 3.0950021689,
				"element": "H" 
			},
			{
				"x": 0.2368166343,
				"y": -1.2687356566,
				"z": 0.7844115971,
				"element": "H" 
			},
			{
				"x": -0.0290496937,
				"y": -0.6411197735,
				"z": 2.4002338251,
				"element": "H" 
			},
			{
				"x": -2.4800093488,
				"y": -1.055337781,
				"z": 2.1808644372,
				"element": "H" 
			},
			{
				"x": -2.2622871202,
				"y": -1.636098789,
				"z": 0.5439378619,
				"element": "H" 
			},
			{
				"x": -1.341034226,
				"y": 1.1777749387,
				"z": 1.3049272098,
				"element": "H" 
			},
			{
				"x": -3.035110494,
				"y": 0.8543672754,
				"z": 1.0300798472,
				"element": "H" 
			},
			{
				"x": -2.5997730893,
				"y": 0.0537572922,
				"z": -1.2600636043,
				"element": "H" 
			},
			{
				"x": -2.2015553813,
				"y": 1.7335585622,
				"z": -0.9987242456,
				"element": "H" 
			},
			{
				"x": -0.228473694,
				"y": -0.5982297213,
				"z": -1.2459868305,
				"element": "H" 
			},
			{
				"x": -0.5784725213,
				"y": 0.6006077749,
				"z": -2.4681007833,
				"element": "H" 
			},
			{
				"x": 0.7465018626,
				"y": 1.2071746528,
				"z": 0.2201587905,
				"element": "H" 
			},
			{
				"x": 2.1444497148,
				"y": -0.2448848961,
				"z": -1.2562172666,
				"element": "H" 
			},
			{
				"x": 1.9932333361,
				"y": 0.9310496601,
				"z": -2.5683624138,
				"element": "H" 
			},
			{
				"x": 2.8642953516,
				"y": 1.3575754675,
				"z": -1.088397995,
				"element": "H" 
			},
			{
				"x": 0.403116309,
				"y": 2.9722170854,
				"z": -2.2493549929,
				"element": "H" 
			},
			{
				"x": -0.5286239057,
				"y": 3.1230692642,
				"z": -0.7715112816,
				"element": "H" 
			},
			{
				"x": 1.2466817818,
				"y": 4.8116637502,
				"z": -0.7432426536,
				"element": "H" 
			},
			{
				"x": 1.5950657967,
				"y": 3.6248871662,
				"z": 0.5194086481,
				"element": "H" 
			},
			{
				"x": 2.5007754436,
				"y": 3.5982880234,
				"z": -0.9984314297,
				"element": "H" 
			}
		],
		 "valence_orbital": [ 
			{
				"type": "occ",
				"energy": -0.31417,
				"method": "rhf"
			},
			{
				"type": "occ",
				"energy": -0.3104,
				"method": "rhf"
			},
			{
				"type": "occ",
				"energy": -0.30099,
				"method": "rhf"
			},
			{
				"type": "occ",
				"energy": -0.29788,
				"method": "rhf"
			},
			{
				"type": "occ",
				"energy": -0.29271,
				"method": "rhf"
			},
			{
				"type": "unocc",
				"energy": 0.07702,
				"method": "rhf"
			},
			{
				"type": "unocc",
				"energy": 0.0948,
				"method": "rhf"
			},
			{
				"type": "unocc",
				"energy": 0.10074,
				"method": "rhf"
			},
			{
				"type": "unocc",
				"energy": 0.107,
				"method": "rhf"
			},
			{
				"type": "unocc",
				"energy": 0.11782,
				"method": "rhf"
			}
		],
		"cosmo_sigma_profile": { 
			"-0.025": 0.0,
			"-0.024": 0.0,
			"-0.023": 0.0,
			"-0.022": 0.0,
			"-0.021": 0.0,
			"-0.02": 0.0,
			"-0.019": 0.0,
			"-0.018": 0.0,
			"-0.017": 0.0,
			"-0.016": 0.0,
			"-0.015": 0.0,
			"-0.014": 0.0,
			"-0.013": 0.0,
			"-0.012": 0.0,
			"-0.011": 0.0,
			"-0.01": 0.0,
			"-0.009": 0.0,
			"-0.008": 0.0,
			"-0.007": 0.0,
			"-0.006": 0.0,
			"-0.005": 0.0,
			"-0.004": 0.0,
			"-0.003": 3.49182693422,
			"-0.002": 32.3453439707,
			"-0.001": 58.8163224972,
			"0.0": 67.9715275383,
			"0.001": 60.1976128849,
			"0.002": 34.3588828122,
			"0.003": 1.77601924254,
			"0.004": 0.0,
			"0.005": 0.0,
			"0.006": 0.0,
			"0.007": 0.0,
			"0.008": 0.0,
			"0.009": 0.0,
			"0.01": 0.0,
			"0.011": 0.0,
			"0.012": 0.0,
			"0.013": 0.0,
			"0.014": 0.0,
			"0.015": 0.0,
			"0.016": 0.0,
			"0.017": 0.0,
			"0.018": 0.0,
			"0.019": 0.0,
			"0.02": 0.0,
			"0.021": 0.0,
			"0.022": 0.0,
			"0.023": 0.0,
			"0.024": 0.0,
			"0.025": 0.0
		}
	}
}
