{
	 "smiles": "CCCC(N)C1=NN=NN1", 
	 "Tm": 551.15, 
	 "num_atms": 21, 
	 "gaussian": { 
		 "optdone": 1, 
		 "sigma_profile": "yes", 
		 "theory": "DFT", 
		 "functional": "B3LYP", 
		 "basiset": "6-31G**", 
		 "properties": { 
			 "R2extent": 2183.4413, 
			 "electric_dipole_moment_norm": 6.53100616138, 
			 "electric_quadrupole_moment_norm": 18.4084373294, 
			 "total_energy": -470.871501307, 
			 "HOMO_LUMO_gap": 0.26299, 
			 "cosmo_polarized_energy": -17.28, 
			 "cosmo_cavitation_energy": 24.12, 
			 "cosmo_dispersion_energy": -17.54, 
			 "cosmo_repulsion_energy": 1.45, 
			 "cosmo_total_nonelectrostatic_energy": 8.03, 
			 "SMD_solvation_energy": 1.37 
		},
		"coords": [
			{
				"x": 2.5013648033,
				"y": 0.4436744779,
				"z": -0.2915647932,
				"element": "C" 
			},
			{
				"x": 1.4326627893,
				"y": 1.0799817177,
				"z": 0.6049916159,
				"element": "C" 
			},
			{
				"x": 0.0530854464,
				"y": 0.4018689843,
				"z": 0.5378681844,
				"element": "C" 
			},
			{
				"x": -0.6372844116,
				"y": 0.443159251,
				"z": -0.8435955821,
				"element": "C" 
			},
			{
				"x": -1.0304894433,
				"y": 1.8201074254,
				"z": -1.1892632269,
				"element": "N" 
			},
			{
				"x": -1.8844215539,
				"y": -0.3943132031,
				"z": -0.8155362564,
				"element": "C" 
			},
			{
				"x": -1.9928619179,
				"y": -1.7054729937,
				"z": -0.9193551201,
				"element": "N" 
			},
			{
				"x": -3.3230346168,
				"y": -1.9833291816,
				"z": -0.7906182859,
				"element": "N" 
			},
			{
				"x": -4.0139726651,
				"y": -0.902748878,
				"z": -0.6189019712,
				"element": "N" 
			},
			{
				"x": -3.1190962426,
				"y": 0.1099494581,
				"z": -0.6289262842,
				"element": "N" 
			},
			{
				"x": 2.6110046106,
				"y": -0.6248777231,
				"z": -0.0764118027,
				"element": "H" 
			},
			{
				"x": 2.2616566878,
				"y": 0.5430623545,
				"z": -1.3556360423,
				"element": "H" 
			},
			{
				"x": 3.4752992649,
				"y": 0.9173178967,
				"z": -0.1332638848,
				"element": "H" 
			},
			{
				"x": 1.348000775,
				"y": 2.1513312339,
				"z": 0.3747132828,
				"element": "H" 
			},
			{
				"x": 1.7677976998,
				"y": 1.0382574214,
				"z": 1.648322902,
				"element": "H" 
			},
			{
				"x": -0.6226066194,
				"y": 0.8659693646,
				"z": 1.267157987,
				"element": "H" 
			},
			{
				"x": 0.1547450894,
				"y": -0.651152185,
				"z": 0.8227637342,
				"element": "H" 
			},
			{
				"x": 0.0371535919,
				"y": -0.0192379145,
				"z": -1.578844558,
				"element": "H" 
			},
			{
				"x": -0.2833440017,
				"y": 2.4658869907,
				"z": -0.9527717764,
				"element": "H" 
			},
			{
				"x": -1.1767529924,
				"y": 1.9028803626,
				"z": -2.192601412,
				"element": "H" 
			},
			{
				"x": -3.3827062937,
				"y": 1.0805851404,
				"z": -0.53222671,
				"element": "H" 
			}
		],
		 "valence_orbital": [ 
			{
				"type": "occ",
				"energy": -0.31505,
				"method": "rhf"
			},
			{
				"type": "occ",
				"energy": -0.28997,
				"method": "rhf"
			},
			{
				"type": "occ",
				"energy": -0.28688,
				"method": "rhf"
			},
			{
				"type": "occ",
				"energy": -0.27764,
				"method": "rhf"
			},
			{
				"type": "occ",
				"energy": -0.26733,
				"method": "rhf"
			},
			{
				"type": "unocc",
				"energy": -0.00434,
				"method": "rhf"
			},
			{
				"type": "unocc",
				"energy": 0.02655,
				"method": "rhf"
			},
			{
				"type": "unocc",
				"energy": 0.04831,
				"method": "rhf"
			},
			{
				"type": "unocc",
				"energy": 0.08963,
				"method": "rhf"
			},
			{
				"type": "unocc",
				"energy": 0.09667,
				"method": "rhf"
			}
		],
		"cosmo_sigma_profile": { 
			"-0.025": 0.0,
			"-0.024": 0.0,
			"-0.023": 0.0,
			"-0.022": 0.0,
			"-0.021": 0.0,
			"-0.02": 0.0,
			"-0.019": 0.0,
			"-0.018": 0.0677993884382,
			"-0.017": 0.881177984334,
			"-0.016": 0.971351509868,
			"-0.015": 0.814868777509,
			"-0.014": 0.454076469194,
			"-0.013": 0.713466567427,
			"-0.012": 0.734777610835,
			"-0.011": 2.05261148454,
			"-0.01": 3.82392534813,
			"-0.009": 4.3378416491,
			"-0.008": 4.23078915481,
			"-0.007": 3.89672630628,
			"-0.006": 4.09282688981,
			"-0.005": 7.71992169397,
			"-0.004": 10.7225288683,
			"-0.003": 19.5545431111,
			"-0.002": 21.2096170734,
			"-0.001": 20.5937506682,
			"0.0": 16.7548318728,
			"0.001": 11.831505992,
			"0.002": 4.22503579588,
			"0.003": 2.81428544686,
			"0.004": 3.55324061099,
			"0.005": 2.69195469898,
			"0.006": 3.81394765904,
			"0.007": 3.60323409732,
			"0.008": 4.84706441838,
			"0.009": 5.38824667416,
			"0.01": 5.46415237802,
			"0.011": 5.12357854412,
			"0.012": 4.74805702606,
			"0.013": 3.1912793792,
			"0.014": 2.09294359284,
			"0.015": 1.28794251119,
			"0.016": 0.328596994796,
			"0.017": 0.0,
			"0.018": 0.0,
			"0.019": 0.0,
			"0.02": 0.0,
			"0.021": 0.0,
			"0.022": 0.0,
			"0.023": 0.0,
			"0.024": 0.0,
			"0.025": 0.0
		}
	}
}
