{
	 "smiles": "NC1=NN2C=CC=NC2=N1", 
	 "Tm": 459.15, 
	 "num_atms": 15, 
	 "gaussian": { 
		 "optdone": 1, 
		 "sigma_profile": "yes", 
		 "theory": "DFT", 
		 "functional": "B3LYP", 
		 "basiset": "6-31G**", 
		 "properties": { 
			 "R2extent": 1518.3556, 
			 "electric_dipole_moment_norm": 3.04556501654, 
			 "electric_quadrupole_moment_norm": 17.8834018025, 
			 "total_energy": -467.286391862, 
			 "HOMO_LUMO_gap": 0.17165, 
			 "cosmo_polarized_energy": -15.71, 
			 "cosmo_cavitation_energy": 19.71, 
			 "cosmo_dispersion_energy": -15.31, 
			 "cosmo_repulsion_energy": 1.23, 
			 "cosmo_total_nonelectrostatic_energy": 5.64, 
			 "SMD_solvation_energy": -0.78 
		},
		"coords": [
			{
				"x": 0.4307611461,
				"y": 1.2523465522,
				"z": 1.7362366469,
				"element": "N" 
			},
			{
				"x": 0.1866153872,
				"y": 0.4245199483,
				"z": 0.6769299568,
				"element": "C" 
			},
			{
				"x": -0.226057444,
				"y": 0.9119290498,
				"z": -0.5094718081,
				"element": "N" 
			},
			{
				"x": -0.2847710485,
				"y": -0.2229764189,
				"z": -1.2499397278,
				"element": "N" 
			},
			{
				"x": -0.6421522881,
				"y": -0.3485165724,
				"z": -2.5448994054,
				"element": "C" 
			},
			{
				"x": -0.6292276707,
				"y": -1.6173138874,
				"z": -3.0827827769,
				"element": "C" 
			},
			{
				"x": -0.2459976087,
				"y": -2.6960601983,
				"z": -2.2532526699,
				"element": "C" 
			},
			{
				"x": 0.1058636092,
				"y": -2.5749271974,
				"z": -0.9800975251,
				"element": "N" 
			},
			{
				"x": 0.0898286753,
				"y": -1.3362294768,
				"z": -0.4688753126,
				"element": "C" 
			},
			{
				"x": 0.3873978782,
				"y": -0.9139301333,
				"z": 0.7573065772,
				"element": "N" 
			},
			{
				"x": -0.0090147668,
				"y": 2.1595171179,
				"z": 1.702438156,
				"element": "H" 
			},
			{
				"x": 0.4443827402,
				"y": 0.7996074266,
				"z": 2.6374435884,
				"element": "H" 
			},
			{
				"x": -0.9134253312,
				"y": 0.5605711054,
				"z": -3.067698431,
				"element": "H" 
			},
			{
				"x": -0.906598707,
				"y": -1.7764528358,
				"z": -4.1171742274,
				"element": "H" 
			},
			{
				"x": -0.2308045712,
				"y": -3.7053844798,
				"z": -2.6598630411,
				"element": "H" 
			}
		],
		 "valence_orbital": [ 
			{
				"type": "occ",
				"energy": -0.31474,
				"method": "rhf"
			},
			{
				"type": "occ",
				"energy": -0.27979,
				"method": "rhf"
			},
			{
				"type": "occ",
				"energy": -0.27166,
				"method": "rhf"
			},
			{
				"type": "occ",
				"energy": -0.24827,
				"method": "rhf"
			},
			{
				"type": "occ",
				"energy": -0.22519,
				"method": "rhf"
			},
			{
				"type": "unocc",
				"energy": -0.05354,
				"method": "rhf"
			},
			{
				"type": "unocc",
				"energy": -0.01113,
				"method": "rhf"
			},
			{
				"type": "unocc",
				"energy": 0.06796,
				"method": "rhf"
			},
			{
				"type": "unocc",
				"energy": 0.08328,
				"method": "rhf"
			},
			{
				"type": "unocc",
				"energy": 0.09662,
				"method": "rhf"
			}
		],
		"cosmo_sigma_profile": { 
			"-0.025": 0.0,
			"-0.024": 0.0,
			"-0.023": 0.0,
			"-0.022": 0.0,
			"-0.021": 0.0,
			"-0.02": 0.0,
			"-0.019": 0.0,
			"-0.018": 0.0,
			"-0.017": 0.0,
			"-0.016": 0.0,
			"-0.015": 0.0151466225054,
			"-0.014": 1.36208153309,
			"-0.013": 2.31576637931,
			"-0.012": 2.29775484623,
			"-0.011": 2.47655948514,
			"-0.01": 4.81648474093,
			"-0.009": 3.5815167297,
			"-0.008": 7.5098081778,
			"-0.007": 8.72938770009,
			"-0.006": 6.48546064173,
			"-0.005": 6.29331760868,
			"-0.004": 8.72096042062,
			"-0.003": 8.75734535563,
			"-0.002": 10.1186011567,
			"-0.001": 10.3835093976,
			"0.0": 10.3948207293,
			"0.001": 8.45306461251,
			"0.002": 5.08175203642,
			"0.003": 4.81387029862,
			"0.004": 3.427479844,
			"0.005": 4.27206532909,
			"0.006": 4.82929287171,
			"0.007": 4.18177191832,
			"0.008": 4.49208470555,
			"0.009": 3.13376831777,
			"0.01": 4.17488592173,
			"0.011": 3.16688355435,
			"0.012": 4.44391730004,
			"0.013": 3.59169227193,
			"0.014": 3.14834272332,
			"0.015": 2.20913195032,
			"0.016": 1.04977687641,
			"0.017": 0.109373671841,
			"0.018": 0.0,
			"0.019": 0.0,
			"0.02": 0.0,
			"0.021": 0.0,
			"0.022": 0.0,
			"0.023": 0.0,
			"0.024": 0.0,
			"0.025": 0.0
		}
	}
}
