{
	 "smiles": "COC(=O)C1=CC=C(Cl)C=C1N", 
	 "Tm": 340.15, 
	 "num_atms": 20, 
	 "gaussian": { 
		 "optdone": 1, 
		 "sigma_profile": "yes", 
		 "theory": "DFT", 
		 "functional": "B3LYP", 
		 "basiset": "6-31G**", 
		 "properties": { 
			 "R2extent": 4370.1313, 
			 "electric_dipole_moment_norm": 3.84378191629, 
			 "electric_quadrupole_moment_norm": 11.5347265681, 
			 "total_energy": -975.082844289, 
			 "HOMO_LUMO_gap": 0.17122, 
			 "cosmo_polarized_energy": -10.58, 
			 "cosmo_cavitation_energy": 25.98, 
			 "cosmo_dispersion_energy": -19.52, 
			 "cosmo_repulsion_energy": 1.56, 
			 "cosmo_total_nonelectrostatic_energy": 8.01, 
			 "SMD_solvation_energy": 5.61 
		},
		"coords": [
			{
				"x": -0.4514556616,
				"y": 0.6117495787,
				"z": 2.7827267402,
				"element": "C" 
			},
			{
				"x": -0.1600307374,
				"y": 1.18040295,
				"z": 1.4944666025,
				"element": "O" 
			},
			{
				"x": 0.5598489161,
				"y": 0.3748489364,
				"z": 0.6564900764,
				"element": "C" 
			},
			{
				"x": 0.9196880515,
				"y": -0.7336355069,
				"z": 1.0046396229,
				"element": "O" 
			},
			{
				"x": 0.8521813736,
				"y": 0.9785951439,
				"z": -0.6650974275,
				"element": "C" 
			},
			{
				"x": 1.6479019258,
				"y": 0.1896555226,
				"z": -1.517010129,
				"element": "C" 
			},
			{
				"x": 2.0325271188,
				"y": 0.6058893055,
				"z": -2.7798667714,
				"element": "C" 
			},
			{
				"x": 1.5982921194,
				"y": 1.8671137367,
				"z": -3.2043777449,
				"element": "C" 
			},
			{
				"x": 2.0660706328,
				"y": 2.4417106799,
				"z": -4.7977475573,
				"element": "Cl" 
			},
			{
				"x": 0.8102739466,
				"y": 2.6786552193,
				"z": -2.408161849,
				"element": "C" 
			},
			{
				"x": 0.4118385043,
				"y": 2.2562123682,
				"z": -1.1186064543,
				"element": "C" 
			},
			{
				"x": -0.4078569519,
				"y": 3.0791631619,
				"z": -0.3908339158,
				"element": "N" 
			},
			{
				"x": -1.0280948681,
				"y": -0.3092653112,
				"z": 2.6728385079,
				"element": "H" 
			},
			{
				"x": 0.472335976,
				"y": 0.3873954226,
				"z": 3.3208300685,
				"element": "H" 
			},
			{
				"x": -1.0314442663,
				"y": 1.3672166563,
				"z": 3.3131225324,
				"element": "H" 
			},
			{
				"x": 1.9618429258,
				"y": -0.7774795965,
				"z": -1.1399402987,
				"element": "H" 
			},
			{
				"x": 2.6479916636,
				"y": -0.0138380146,
				"z": -3.420059595,
				"element": "H" 
			},
			{
				"x": 0.4851506271,
				"y": 3.646397362,
				"z": -2.7756118432,
				"element": "H" 
			},
			{
				"x": -0.5433468518,
				"y": 2.8677411032,
				"z": 0.5851154208,
				"element": "H" 
			},
			{
				"x": -0.4860144443,
				"y": 4.0409712818,
				"z": -0.6791159856,
				"element": "H" 
			}
		],
		 "valence_orbital": [ 
			{
				"type": "occ",
				"energy": -0.31307,
				"method": "rhf"
			},
			{
				"type": "occ",
				"energy": -0.30191,
				"method": "rhf"
			},
			{
				"type": "occ",
				"energy": -0.27763,
				"method": "rhf"
			},
			{
				"type": "occ",
				"energy": -0.25133,
				"method": "rhf"
			},
			{
				"type": "occ",
				"energy": -0.21534,
				"method": "rhf"
			},
			{
				"type": "unocc",
				"energy": -0.04412,
				"method": "rhf"
			},
			{
				"type": "unocc",
				"energy": 0.00189,
				"method": "rhf"
			},
			{
				"type": "unocc",
				"energy": 0.03013,
				"method": "rhf"
			},
			{
				"type": "unocc",
				"energy": 0.05289,
				"method": "rhf"
			},
			{
				"type": "unocc",
				"energy": 0.08287,
				"method": "rhf"
			}
		],
		"cosmo_sigma_profile": { 
			"-0.025": 0.0,
			"-0.024": 0.0,
			"-0.023": 0.0,
			"-0.022": 0.0,
			"-0.021": 0.0,
			"-0.02": 0.0,
			"-0.019": 0.0,
			"-0.018": 0.0,
			"-0.017": 0.0,
			"-0.016": 0.0,
			"-0.015": 0.00422651411801,
			"-0.014": 0.755266899617,
			"-0.013": 1.27564955561,
			"-0.012": 1.7979080261,
			"-0.011": 1.68343479718,
			"-0.01": 1.6238011148,
			"-0.009": 2.60315288736,
			"-0.008": 3.4726315552,
			"-0.007": 3.49368515932,
			"-0.006": 9.32554277298,
			"-0.005": 13.0919670676,
			"-0.004": 13.3269966587,
			"-0.003": 13.8598757027,
			"-0.002": 12.9301317898,
			"-0.001": 13.0838681424,
			"0.0": 12.2255375828,
			"0.001": 17.0798831697,
			"0.002": 21.2161211987,
			"0.003": 23.488776824,
			"0.004": 16.7082944057,
			"0.005": 8.18883649867,
			"0.006": 2.60371486223,
			"0.007": 2.21018549727,
			"0.008": 1.29635063068,
			"0.009": 2.63427748983,
			"0.01": 2.22470890628,
			"0.011": 2.29247004623,
			"0.012": 4.55842216385,
			"0.013": 0.628660267713,
			"0.014": 0.0,
			"0.015": 0.0,
			"0.016": 0.0,
			"0.017": 0.0,
			"0.018": 0.0,
			"0.019": 0.0,
			"0.02": 0.0,
			"0.021": 0.0,
			"0.022": 0.0,
			"0.023": 0.0,
			"0.024": 0.0,
			"0.025": 0.0
		}
	}
}
