{
	 "smiles": "NC(CN1CCCC1=O)C1=CC(=CC=C1)C(F)(F)F", 
	 "Tm": 350.15, 
	 "num_atms": 34, 
	 "gaussian": { 
		 "optdone": 1, 
		 "sigma_profile": "yes", 
		 "theory": "DFT", 
		 "functional": "B3LYP", 
		 "basiset": "6-31G**", 
		 "properties": { 
			 "R2extent": 6824.563, 
			 "electric_dipole_moment_norm": 1.93079619587, 
			 "electric_quadrupole_moment_norm": 20.5034163802, 
			 "total_energy": -988.701161251, 
			 "HOMO_LUMO_gap": 0.20984, 
			 "cosmo_polarized_energy": -12.59, 
			 "cosmo_cavitation_energy": 37.41, 
			 "cosmo_dispersion_energy": -25.54, 
			 "cosmo_repulsion_energy": 1.94, 
			 "cosmo_total_nonelectrostatic_energy": 13.8, 
			 "SMD_solvation_energy": 6.86 
		},
		"coords": [
			{
				"x": -0.4779444933,
				"y": 1.7595103312,
				"z": 2.4609759726,
				"element": "N" 
			},
			{
				"x": 0.5499991474,
				"y": 1.2933946029,
				"z": 1.5352377353,
				"element": "C" 
			},
			{
				"x": 0.5516004307,
				"y": -0.2574181024,
				"z": 1.5105959922,
				"element": "C" 
			},
			{
				"x": -0.7378421506,
				"y": -0.8681042507,
				"z": 1.2427393112,
				"element": "N" 
			},
			{
				"x": -1.1465784798,
				"y": -1.3725588877,
				"z": -0.0666542197,
				"element": "C" 
			},
			{
				"x": -2.6256935167,
				"y": -1.7558974935,
				"z": 0.1548193874,
				"element": "C" 
			},
			{
				"x": -2.7087767006,
				"y": -2.0625569862,
				"z": 1.6590697135,
				"element": "C" 
			},
			{
				"x": -1.562217321,
				"y": -1.2568427528,
				"z": 2.2662460422,
				"element": "C" 
			},
			{
				"x": -1.3723632871,
				"y": -1.0158194858,
				"z": 3.4533212542,
				"element": "O" 
			},
			{
				"x": 0.3508707331,
				"y": 1.888894023,
				"z": 0.1431255637,
				"element": "C" 
			},
			{
				"x": 1.4327807903,
				"y": 1.9802653865,
				"z": -0.7396063921,
				"element": "C" 
			},
			{
				"x": 1.2575986384,
				"y": 2.478754441,
				"z": -2.0320418157,
				"element": "C" 
			},
			{
				"x": -0.004315856,
				"y": 2.900457045,
				"z": -2.4606984015,
				"element": "C" 
			},
			{
				"x": -1.0834292318,
				"y": 2.8210532984,
				"z": -1.5816977729,
				"element": "C" 
			},
			{
				"x": -0.9083597239,
				"y": 2.3227049403,
				"z": -0.2890137367,
				"element": "C" 
			},
			{
				"x": 2.4456724373,
				"y": 2.6251140798,
				"z": -2.9431037887,
				"element": "C" 
			},
			{
				"x": 3.0425106466,
				"y": 3.8321919497,
				"z": -2.8000442583,
				"element": "F" 
			},
			{
				"x": 3.3925098376,
				"y": 1.6912593404,
				"z": -2.6938695243,
				"element": "F" 
			},
			{
				"x": 2.1000444023,
				"y": 2.5129040991,
				"z": -4.2455070534,
				"element": "F" 
			},
			{
				"x": -0.5910339203,
				"y": 1.1157301467,
				"z": 3.239947571,
				"element": "H" 
			},
			{
				"x": -0.2585422534,
				"y": 2.6836726748,
				"z": 2.8179504589,
				"element": "H" 
			},
			{
				"x": 1.5752882445,
				"y": 1.5587502348,
				"z": 1.8528194648,
				"element": "H" 
			},
			{
				"x": 0.8757054891,
				"y": -0.6091787094,
				"z": 2.4963286413,
				"element": "H" 
			},
			{
				"x": 1.2732849272,
				"y": -0.6085521588,
				"z": 0.7658956733,
				"element": "H" 
			},
			{
				"x": -0.5364750877,
				"y": -2.2436438429,
				"z": -0.3524058421,
				"element": "H" 
			},
			{
				"x": -1.0226867962,
				"y": -0.608114916,
				"z": -0.8381038143,
				"element": "H" 
			},
			{
				"x": -3.2622525809,
				"y": -0.898983906,
				"z": -0.0863813066,
				"element": "H" 
			},
			{
				"x": -2.9329432387,
				"y": -2.5898580727,
				"z": -0.4803941978,
				"element": "H" 
			},
			{
				"x": -2.5282569798,
				"y": -3.1224334428,
				"z": 1.8780369829,
				"element": "H" 
			},
			{
				"x": -3.6581784927,
				"y": -1.7910630549,
				"z": 2.1251556048,
				"element": "H" 
			},
			{
				"x": 2.4214840426,
				"y": 1.6598664538,
				"z": -0.4223219716,
				"element": "H" 
			},
			{
				"x": -0.1342719883,
				"y": 3.2839640935,
				"z": -3.4669214642,
				"element": "H" 
			},
			{
				"x": -2.0662473491,
				"y": 3.1518150973,
				"z": -1.9052469335,
				"element": "H" 
			},
			{
				"x": -1.734140319,
				"y": 2.2684238242,
				"z": 0.412247124,
				"element": "H" 
			}
		],
		 "valence_orbital": [ 
			{
				"type": "occ",
				"energy": -0.26476,
				"method": "rhf"
			},
			{
				"type": "occ",
				"energy": -0.26277,
				"method": "rhf"
			},
			{
				"type": "occ",
				"energy": -0.24937,
				"method": "rhf"
			},
			{
				"type": "occ",
				"energy": -0.23899,
				"method": "rhf"
			},
			{
				"type": "occ",
				"energy": -0.23427,
				"method": "rhf"
			},
			{
				"type": "unocc",
				"energy": -0.02443,
				"method": "rhf"
			},
			{
				"type": "unocc",
				"energy": -0.01614,
				"method": "rhf"
			},
			{
				"type": "unocc",
				"energy": 0.02558,
				"method": "rhf"
			},
			{
				"type": "unocc",
				"energy": 0.07965,
				"method": "rhf"
			},
			{
				"type": "unocc",
				"energy": 0.09058,
				"method": "rhf"
			}
		],
		"cosmo_sigma_profile": { 
			"-0.025": 0.0,
			"-0.024": 0.0,
			"-0.023": 0.0,
			"-0.022": 0.0,
			"-0.021": 0.0,
			"-0.02": 0.0,
			"-0.019": 0.0,
			"-0.018": 0.0,
			"-0.017": 0.0,
			"-0.016": 0.0,
			"-0.015": 0.0,
			"-0.014": 0.0,
			"-0.013": 0.0,
			"-0.012": 0.0,
			"-0.011": 0.0602684370238,
			"-0.01": 1.11480074083,
			"-0.009": 1.25659438646,
			"-0.008": 0.930972479235,
			"-0.007": 2.93692623347,
			"-0.006": 10.9867673304,
			"-0.005": 18.6413417188,
			"-0.004": 32.5027310171,
			"-0.003": 35.6483125581,
			"-0.002": 27.7128775826,
			"-0.001": 22.4167856959,
			"0.0": 17.6363626246,
			"0.001": 16.3024780965,
			"0.002": 24.0649887782,
			"0.003": 40.8989955466,
			"0.004": 13.0938175223,
			"0.005": 3.00290139251,
			"0.006": 2.83742119316,
			"0.007": 1.95653584962,
			"0.008": 3.71130152197,
			"0.009": 1.61833898117,
			"0.01": 2.38419150273,
			"0.011": 2.87235584583,
			"0.012": 2.30355500317,
			"0.013": 2.94671957629,
			"0.014": 3.65770883173,
			"0.015": 1.54566626504,
			"0.016": 0.0210388897212,
			"0.017": 0.0,
			"0.018": 0.0,
			"0.019": 0.0,
			"0.02": 0.0,
			"0.021": 0.0,
			"0.022": 0.0,
			"0.023": 0.0,
			"0.024": 0.0,
			"0.025": 0.0
		}
	}
}
