{
	 "smiles": "OC(=O)C1CCC2=C(Cl)C=CC=C12", 
	 "Tm": 385.15, 
	 "num_atms": 22, 
	 "gaussian": { 
		 "optdone": 1, 
		 "sigma_profile": "yes", 
		 "theory": "DFT", 
		 "functional": "B3LYP", 
		 "basiset": "6-31G**", 
		 "properties": { 
			 "R2extent": 2881.8229, 
			 "electric_dipole_moment_norm": 3.96257545165, 
			 "electric_quadrupole_moment_norm": 15.6749060603, 
			 "total_energy": -997.146686803, 
			 "HOMO_LUMO_gap": 0.21919, 
			 "cosmo_polarized_energy": -12.42, 
			 "cosmo_cavitation_energy": 26.83, 
			 "cosmo_dispersion_energy": -19.77, 
			 "cosmo_repulsion_energy": 1.57, 
			 "cosmo_total_nonelectrostatic_energy": 8.63, 
			 "SMD_solvation_energy": 4.87 
		},
		"coords": [
			{
				"x": 2.3836565978,
				"y": 1.2417294918,
				"z": -0.2995389791,
				"element": "O" 
			},
			{
				"x": 1.9738439004,
				"y": 0.804522167,
				"z": -1.5106738528,
				"element": "C" 
			},
			{
				"x": 2.7556146725,
				"y": 0.69464322,
				"z": -2.4229236238,
				"element": "O" 
			},
			{
				"x": 0.4649905002,
				"y": 0.5078242496,
				"z": -1.6808710318,
				"element": "C" 
			},
			{
				"x": 0.2393121526,
				"y": -0.8027835682,
				"z": -2.4817802564,
				"element": "C" 
			},
			{
				"x": 0.0102475938,
				"y": -1.8999352968,
				"z": -1.4121505727,
				"element": "C" 
			},
			{
				"x": -0.5183680834,
				"y": -1.1224639333,
				"z": -0.2293259728,
				"element": "C" 
			},
			{
				"x": -1.1622009516,
				"y": -1.5674133058,
				"z": 0.9209963139,
				"element": "C" 
			},
			{
				"x": -1.4595395855,
				"y": -3.2838945145,
				"z": 1.1525293234,
				"element": "Cl" 
			},
			{
				"x": -1.5856914498,
				"y": -0.6621949278,
				"z": 1.9001495537,
				"element": "C" 
			},
			{
				"x": -1.358228506,
				"y": 0.7023295178,
				"z": 1.7224325451,
				"element": "C" 
			},
			{
				"x": -0.7054273954,
				"y": 1.1733947174,
				"z": 0.5764539823,
				"element": "C" 
			},
			{
				"x": -0.2864783637,
				"y": 0.2544450007,
				"z": -0.3872443948,
				"element": "C" 
			},
			{
				"x": 1.6488284706,
				"y": 1.1924861513,
				"z": 0.3335554893,
				"element": "H" 
			},
			{
				"x": 0.0711674973,
				"y": 1.3777438733,
				"z": -2.221448444,
				"element": "H" 
			},
			{
				"x": 1.0791523946,
				"y": -1.0066484932,
				"z": -3.1474223181,
				"element": "H" 
			},
			{
				"x": -0.6617590789,
				"y": -0.6963646687,
				"z": -3.0934101979,
				"element": "H" 
			},
			{
				"x": 0.9478977737,
				"y": -2.4059272247,
				"z": -1.1448920458,
				"element": "H" 
			},
			{
				"x": -0.6810109144,
				"y": -2.679525449,
				"z": -1.744894547,
				"element": "H" 
			},
			{
				"x": -2.0946299981,
				"y": -1.0286913034,
				"z": 2.7847528478,
				"element": "H" 
			},
			{
				"x": -1.7013601852,
				"y": 1.4019341778,
				"z": 2.4784250778,
				"element": "H" 
			},
			{
				"x": -0.5542170415,
				"y": 2.2406901187,
				"z": 0.4335811037,
				"element": "H" 
			}
		],
		 "valence_orbital": [ 
			{
				"type": "occ",
				"energy": -0.32259,
				"method": "rhf"
			},
			{
				"type": "occ",
				"energy": -0.31372,
				"method": "rhf"
			},
			{
				"type": "occ",
				"energy": -0.28516,
				"method": "rhf"
			},
			{
				"type": "occ",
				"energy": -0.26041,
				"method": "rhf"
			},
			{
				"type": "occ",
				"energy": -0.25463,
				"method": "rhf"
			},
			{
				"type": "unocc",
				"energy": -0.03544,
				"method": "rhf"
			},
			{
				"type": "unocc",
				"energy": -0.0287,
				"method": "rhf"
			},
			{
				"type": "unocc",
				"energy": 0.00903,
				"method": "rhf"
			},
			{
				"type": "unocc",
				"energy": 0.0215,
				"method": "rhf"
			},
			{
				"type": "unocc",
				"energy": 0.0843,
				"method": "rhf"
			}
		],
		"cosmo_sigma_profile": { 
			"-0.025": 0.0,
			"-0.024": 0.0,
			"-0.023": 0.0,
			"-0.022": 0.0,
			"-0.021": 0.0,
			"-0.02": 0.0,
			"-0.019": 0.0,
			"-0.018": 0.0,
			"-0.017": 0.0,
			"-0.016": 0.0,
			"-0.015": 0.0,
			"-0.014": 0.0477093782549,
			"-0.013": 0.483382055751,
			"-0.012": 0.816667502377,
			"-0.011": 1.00216375594,
			"-0.01": 1.93282807358,
			"-0.009": 2.08891724475,
			"-0.008": 3.93085769208,
			"-0.007": 9.97109316637,
			"-0.006": 10.636409271,
			"-0.005": 12.9906135118,
			"-0.004": 15.9186085072,
			"-0.003": 16.0155783345,
			"-0.002": 15.6879295673,
			"-0.001": 17.047351388,
			"0.0": 12.9734709043,
			"0.001": 14.2972456218,
			"0.002": 15.8292179239,
			"0.003": 15.8060790292,
			"0.004": 13.4425627068,
			"0.005": 7.09093738187,
			"0.006": 3.06258394,
			"0.007": 1.74769003274,
			"0.008": 2.67306249166,
			"0.009": 3.39416957157,
			"0.01": 4.83868099454,
			"0.011": 4.800341792,
			"0.012": 5.2600385363,
			"0.013": 1.81847413956,
			"0.014": 0.0601211228239,
			"0.015": 0.0,
			"0.016": 0.0,
			"0.017": 0.0,
			"0.018": 0.0,
			"0.019": 0.0,
			"0.02": 0.0,
			"0.021": 0.0,
			"0.022": 0.0,
			"0.023": 0.0,
			"0.024": 0.0,
			"0.025": 0.0
		}
	}
}
