{
	 "smiles": "ClC1=C2OCCC(=O)C2=C(Cl)C=C1", 
	 "Tm": 341.15, 
	 "num_atms": 19, 
	 "gaussian": { 
		 "optdone": 1, 
		 "sigma_profile": "yes", 
		 "theory": "DFT", 
		 "functional": "B3LYP", 
		 "basiset": "6-31G**", 
		 "properties": { 
			 "R2extent": 3939.3283, 
			 "electric_dipole_moment_norm": 1.97401593965, 
			 "electric_quadrupole_moment_norm": 15.860469791, 
			 "total_energy": -1417.39095376, 
			 "HOMO_LUMO_gap": 0.16688, 
			 "cosmo_polarized_energy": -10.56, 
			 "cosmo_cavitation_energy": 26.25, 
			 "cosmo_dispersion_energy": -20.04, 
			 "cosmo_repulsion_energy": 1.58, 
			 "cosmo_total_nonelectrostatic_energy": 7.79, 
			 "SMD_solvation_energy": 4.51 
		},
		"coords": [
			{
				"x": -4.1929546668,
				"y": -2.0753196278,
				"z": 0.6339248951,
				"element": "Cl" 
			},
			{
				"x": -2.5347510878,
				"y": -1.8234289855,
				"z": 1.1231952977,
				"element": "C" 
			},
			{
				"x": -1.7207553303,
				"y": -0.9363281222,
				"z": 0.3969806844,
				"element": "C" 
			},
			{
				"x": -2.3004950322,
				"y": -0.3210685087,
				"z": -0.6579884157,
				"element": "O" 
			},
			{
				"x": -1.4218565685,
				"y": 0.2563222408,
				"z": -1.6339260506,
				"element": "C" 
			},
			{
				"x": -0.3870947731,
				"y": 1.1364205412,
				"z": -0.9593373651,
				"element": "C" 
			},
			{
				"x": 0.4129947725,
				"y": 0.3314495038,
				"z": 0.0580904962,
				"element": "C" 
			},
			{
				"x": 1.5897117992,
				"y": 0.5702145515,
				"z": 0.2563238631,
				"element": "O" 
			},
			{
				"x": -0.3717669235,
				"y": -0.7130268828,
				"z": 0.7882430019,
				"element": "C" 
			},
			{
				"x": 0.118130278,
				"y": -1.442918689,
				"z": 1.8973911803,
				"element": "C" 
			},
			{
				"x": 1.7592683237,
				"y": -1.2813804937,
				"z": 2.4759859844,
				"element": "Cl" 
			},
			{
				"x": -0.6949811055,
				"y": -2.3255852385,
				"z": 2.6007163413,
				"element": "C" 
			},
			{
				"x": -2.0225473276,
				"y": -2.5075594616,
				"z": 2.2160785106,
				"element": "C" 
			},
			{
				"x": -2.0699832819,
				"y": 0.8133701347,
				"z": -2.3126178442,
				"element": "H" 
			},
			{
				"x": -0.9404735629,
				"y": -0.5561340354,
				"z": -2.1960351667,
				"element": "H" 
			},
			{
				"x": 0.3094825975,
				"y": 1.571849329,
				"z": -1.6799134489,
				"element": "H" 
			},
			{
				"x": -0.8885937885,
				"y": 1.9596829408,
				"z": -0.4330183453,
				"element": "H" 
			},
			{
				"x": -0.290766643,
				"y": -2.8664790952,
				"z": 3.4478415699,
				"element": "H" 
			},
			{
				"x": -2.6611676792,
				"y": -3.1939801014,
				"z": 2.7610648117,
				"element": "H" 
			}
		],
		 "valence_orbital": [ 
			{
				"type": "occ",
				"energy": -0.31607,
				"method": "rhf"
			},
			{
				"type": "occ",
				"energy": -0.315,
				"method": "rhf"
			},
			{
				"type": "occ",
				"energy": -0.2677,
				"method": "rhf"
			},
			{
				"type": "occ",
				"energy": -0.25134,
				"method": "rhf"
			},
			{
				"type": "occ",
				"energy": -0.23975,
				"method": "rhf"
			},
			{
				"type": "unocc",
				"energy": -0.07287,
				"method": "rhf"
			},
			{
				"type": "unocc",
				"energy": -0.0228,
				"method": "rhf"
			},
			{
				"type": "unocc",
				"energy": 0.01401,
				"method": "rhf"
			},
			{
				"type": "unocc",
				"energy": 0.02061,
				"method": "rhf"
			},
			{
				"type": "unocc",
				"energy": 0.03566,
				"method": "rhf"
			}
		],
		"cosmo_sigma_profile": { 
			"-0.025": 0.0,
			"-0.024": 0.0,
			"-0.023": 0.0,
			"-0.022": 0.0,
			"-0.021": 0.0,
			"-0.02": 0.0,
			"-0.019": 0.0,
			"-0.018": 0.0,
			"-0.017": 0.0,
			"-0.016": 0.0,
			"-0.015": 0.0,
			"-0.014": 0.0,
			"-0.013": 0.0,
			"-0.012": 0.0,
			"-0.011": 0.0,
			"-0.01": 0.0,
			"-0.009": 0.643018706533,
			"-0.008": 4.86155405584,
			"-0.007": 14.5832724723,
			"-0.006": 16.6228588049,
			"-0.005": 13.8986155581,
			"-0.004": 9.66053323526,
			"-0.003": 10.6073373865,
			"-0.002": 10.4747421985,
			"-0.001": 16.059924615,
			"0.0": 21.0476790609,
			"0.001": 19.8990720642,
			"0.002": 13.2342054536,
			"0.003": 13.3806622806,
			"0.004": 16.8246667371,
			"0.005": 6.83014402843,
			"0.006": 4.35136113522,
			"0.007": 2.94614918433,
			"0.008": 4.15249688477,
			"0.009": 3.52750641712,
			"0.01": 2.98600333401,
			"0.011": 4.17221456647,
			"0.012": 3.67207473463,
			"0.013": 0.384664855683,
			"0.014": 0.0,
			"0.015": 0.0,
			"0.016": 0.0,
			"0.017": 0.0,
			"0.018": 0.0,
			"0.019": 0.0,
			"0.02": 0.0,
			"0.021": 0.0,
			"0.022": 0.0,
			"0.023": 0.0,
			"0.024": 0.0,
			"0.025": 0.0
		}
	}
}
