{
	 "smiles": "CCCCCCCCCCCCCCCCC(CCC)C1=CC=CC=C1", 
	 "Tm": 304.55, 
	 "num_atms": 72, 
	 "gaussian": { 
		 "optdone": 1, 
		 "sigma_profile": "yes", 
		 "theory": "DFT", 
		 "functional": "B3LYP", 
		 "basiset": "6-31G**", 
		 "properties": { 
			 "R2extent": 21130.2268, 
			 "electric_dipole_moment_norm": 0.487101981109, 
			 "electric_quadrupole_moment_norm": 4.80209054059, 
			 "total_energy": -1018.54595624, 
			 "HOMO_LUMO_gap": 0.23575, 
			 "cosmo_polarized_energy": -3.96, 
			 "cosmo_cavitation_energy": 67.68, 
			 "cosmo_dispersion_energy": -44.58, 
			 "cosmo_repulsion_energy": 3.54, 
			 "cosmo_total_nonelectrostatic_energy": 26.65, 
			 "SMD_solvation_energy": 8.96 
		},
		"coords": [
			{
				"x": 6.9706256705,
				"y": 2.5915486995,
				"z": -3.7653343384,
				"element": "C" 
			},
			{
				"x": 6.0489152985,
				"y": 1.7800388903,
				"z": -4.6837978077,
				"element": "C" 
			},
			{
				"x": 5.5056475121,
				"y": 0.489361614,
				"z": -4.0403879993,
				"element": "C" 
			},
			{
				"x": 4.4718717463,
				"y": 0.6748896042,
				"z": -2.9052222177,
				"element": "C" 
			},
			{
				"x": 2.9938534889,
				"y": 0.6507471924,
				"z": -3.3385951576,
				"element": "C" 
			},
			{
				"x": 2.5487727095,
				"y": 1.8104953571,
				"z": -4.2415958754,
				"element": "C" 
			},
			{
				"x": 1.0355459178,
				"y": 1.8954341352,
				"z": -4.5169785626,
				"element": "C" 
			},
			{
				"x": 0.43754966,
				"y": 0.7267689411,
				"z": -5.3350878705,
				"element": "C" 
			},
			{
				"x": -0.1438666726,
				"y": -0.446821182,
				"z": -4.5231566813,
				"element": "C" 
			},
			{
				"x": -1.455365627,
				"y": -0.1198865524,
				"z": -3.7939513595,
				"element": "C" 
			},
			{
				"x": -2.020232729,
				"y": -1.3148635356,
				"z": -3.0130012869,
				"element": "C" 
			},
			{
				"x": -3.3850658159,
				"y": -1.0617157892,
				"z": -2.3480764147,
				"element": "C" 
			},
			{
				"x": -3.4139992297,
				"y": 0.0203432788,
				"z": -1.2539433864,
				"element": "C" 
			},
			{
				"x": -2.5524819614,
				"y": -0.2905654816,
				"z": -0.0214919858,
				"element": "C" 
			},
			{
				"x": -2.6926660063,
				"y": 0.7668705448,
				"z": 1.0833739922,
				"element": "C" 
			},
			{
				"x": -1.7586196043,
				"y": 0.5760498894,
				"z": 2.2920768761,
				"element": "C" 
			},
			{
				"x": -1.9535067739,
				"y": -0.728576273,
				"z": 3.0931406029,
				"element": "C" 
			},
			{
				"x": -3.3974521071,
				"y": -0.8929972935,
				"z": 3.6548357925,
				"element": "C" 
			},
			{
				"x": -3.9689627593,
				"y": 0.2167159391,
				"z": 4.5587734264,
				"element": "C" 
			},
			{
				"x": -3.4290761162,
				"y": 0.2568073105,
				"z": 5.9943611063,
				"element": "C" 
			},
			{
				"x": -0.8689084547,
				"y": -0.9602268798,
				"z": 4.1473104659,
				"element": "C" 
			},
			{
				"x": -0.6797853243,
				"y": -2.2583502106,
				"z": 4.6496434587,
				"element": "C" 
			},
			{
				"x": 0.2924949267,
				"y": -2.5339749251,
				"z": 5.609271132,
				"element": "C" 
			},
			{
				"x": 1.1115768971,
				"y": -1.5099839481,
				"z": 6.0907161789,
				"element": "C" 
			},
			{
				"x": 0.9461937274,
				"y": -0.2171105137,
				"z": 5.5963221277,
				"element": "C" 
			},
			{
				"x": -0.0311482334,
				"y": 0.0529309345,
				"z": 4.6339395333,
				"element": "C" 
			},
			{
				"x": 7.8381884862,
				"y": 1.9976218852,
				"z": -3.4545830076,
				"element": "H" 
			},
			{
				"x": 7.345122476,
				"y": 3.4871565255,
				"z": -4.2722594497,
				"element": "H" 
			},
			{
				"x": 6.4561504173,
				"y": 2.9217241057,
				"z": -2.8565321579,
				"element": "H" 
			},
			{
				"x": 6.6062250304,
				"y": 1.5084543307,
				"z": -5.5898835733,
				"element": "H" 
			},
			{
				"x": 5.2193675914,
				"y": 2.413716933,
				"z": -5.0185090854,
				"element": "H" 
			},
			{
				"x": 6.3640305516,
				"y": -0.0758092728,
				"z": -3.652827218,
				"element": "H" 
			},
			{
				"x": 5.0632753534,
				"y": -0.1446515298,
				"z": -4.8210265612,
				"element": "H" 
			},
			{
				"x": 4.674533221,
				"y": 1.6074790709,
				"z": -2.3613525665,
				"element": "H" 
			},
			{
				"x": 4.6104860724,
				"y": -0.1283768702,
				"z": -2.1709262924,
				"element": "H" 
			},
			{
				"x": 2.3704693593,
				"y": 0.6532455899,
				"z": -2.4332002184,
				"element": "H" 
			},
			{
				"x": 2.7951735849,
				"y": -0.3055657559,
				"z": -3.8404341332,
				"element": "H" 
			},
			{
				"x": 3.0734633218,
				"y": 1.7514979093,
				"z": -5.204459417,
				"element": "H" 
			},
			{
				"x": 2.8677287464,
				"y": 2.7556861201,
				"z": -3.7798955335,
				"element": "H" 
			},
			{
				"x": 0.4995629056,
				"y": 1.9999068412,
				"z": -3.5638654552,
				"element": "H" 
			},
			{
				"x": 0.8536984908,
				"y": 2.8314198556,
				"z": -5.0597592718,
				"element": "H" 
			},
			{
				"x": -0.361827322,
				"y": 1.1146408708,
				"z": -5.9806742308,
				"element": "H" 
			},
			{
				"x": 1.2081630434,
				"y": 0.3448587287,
				"z": -6.0185522346,
				"element": "H" 
			},
			{
				"x": -0.3264588361,
				"y": -1.2879368325,
				"z": -5.2061932301,
				"element": "H" 
			},
			{
				"x": 0.5939438376,
				"y": -0.8057192287,
				"z": -3.7948652587,
				"element": "H" 
			},
			{
				"x": -2.201183359,
				"y": 0.2174811678,
				"z": -4.5288015699,
				"element": "H" 
			},
			{
				"x": -1.2984010574,
				"y": 0.7262672743,
				"z": -3.1131315085,
				"element": "H" 
			},
			{
				"x": -2.1251334746,
				"y": -2.1660474684,
				"z": -3.6996662666,
				"element": "H" 
			},
			{
				"x": -1.2888847981,
				"y": -1.6327574984,
				"z": -2.2577530339,
				"element": "H" 
			},
			{
				"x": -3.7453808876,
				"y": -2.0057598805,
				"z": -1.9164815917,
				"element": "H" 
			},
			{
				"x": -4.1101617089,
				"y": -0.7908814288,
				"z": -3.12782201,
				"element": "H" 
			},
			{
				"x": -3.1084235776,
				"y": 0.9877499427,
				"z": -1.6745393566,
				"element": "H" 
			},
			{
				"x": -4.4553667892,
				"y": 0.154114679,
				"z": -0.9302108012,
				"element": "H" 
			},
			{
				"x": -2.831891763,
				"y": -1.2804386508,
				"z": 0.3646026915,
				"element": "H" 
			},
			{
				"x": -1.4953775957,
				"y": -0.3652631147,
				"z": -0.3105639984,
				"element": "H" 
			},
			{
				"x": -2.4823630978,
				"y": 1.7541541126,
				"z": 0.6499731445,
				"element": "H" 
			},
			{
				"x": -3.7384256667,
				"y": 0.807847716,
				"z": 1.4152298195,
				"element": "H" 
			},
			{
				"x": -1.878404546,
				"y": 1.4409195795,
				"z": 2.9561686534,
				"element": "H" 
			},
			{
				"x": -0.7194046397,
				"y": 0.610658445,
				"z": 1.9392066712,
				"element": "H" 
			},
			{
				"x": -1.8373236853,
				"y": -1.5573762461,
				"z": 2.3807174555,
				"element": "H" 
			},
			{
				"x": -4.0675902168,
				"y": -1.0046153248,
				"z": 2.7933009511,
				"element": "H" 
			},
			{
				"x": -3.4504172642,
				"y": -1.8477760557,
				"z": 4.193641829,
				"element": "H" 
			},
			{
				"x": -3.8283105035,
				"y": 1.1966417085,
				"z": 4.0849785924,
				"element": "H" 
			},
			{
				"x": -5.0561561258,
				"y": 0.0697506519,
				"z": 4.603976177,
				"element": "H" 
			},
			{
				"x": -3.9633714407,
				"y": 1.0083230947,
				"z": 6.5861276997,
				"element": "H" 
			},
			{
				"x": -3.5626251786,
				"y": -0.7116728305,
				"z": 6.4898918061,
				"element": "H" 
			},
			{
				"x": -2.3641995023,
				"y": 0.4967062601,
				"z": 6.0307203158,
				"element": "H" 
			},
			{
				"x": -1.3031384724,
				"y": -3.067624296,
				"z": 4.2753594712,
				"element": "H" 
			},
			{
				"x": 0.4156069326,
				"y": -3.5492648314,
				"z": 5.9766224375,
				"element": "H" 
			},
			{
				"x": 1.872537693,
				"y": -1.7200456062,
				"z": 6.836852458,
				"element": "H" 
			},
			{
				"x": 1.5804603162,
				"y": 0.5886533263,
				"z": 5.956105762,
				"element": "H" 
			},
			{
				"x": -0.1345760623,
				"y": 1.0679762505,
				"z": 4.2649493473,
				"element": "H" 
			}
		],
		 "valence_orbital": [ 
			{
				"type": "occ",
				"energy": -0.29659,
				"method": "rhf"
			},
			{
				"type": "occ",
				"energy": -0.29541,
				"method": "rhf"
			},
			{
				"type": "occ",
				"energy": -0.29337,
				"method": "rhf"
			},
			{
				"type": "occ",
				"energy": -0.24305,
				"method": "rhf"
			},
			{
				"type": "occ",
				"energy": -0.23276,
				"method": "rhf"
			},
			{
				"type": "unocc",
				"energy": 0.00299,
				"method": "rhf"
			},
			{
				"type": "unocc",
				"energy": 0.00598,
				"method": "rhf"
			},
			{
				"type": "unocc",
				"energy": 0.07409,
				"method": "rhf"
			},
			{
				"type": "unocc",
				"energy": 0.08458,
				"method": "rhf"
			},
			{
				"type": "unocc",
				"energy": 0.09058,
				"method": "rhf"
			}
		],
		"cosmo_sigma_profile": { 
			"-0.025": 0.0,
			"-0.024": 0.0,
			"-0.023": 0.0,
			"-0.022": 0.0,
			"-0.021": 0.0,
			"-0.02": 0.0,
			"-0.019": 0.0,
			"-0.018": 0.0,
			"-0.017": 0.0,
			"-0.016": 0.0,
			"-0.015": 0.0,
			"-0.014": 0.0,
			"-0.013": 0.0,
			"-0.012": 0.0,
			"-0.011": 0.0,
			"-0.01": 0.0,
			"-0.009": 0.0,
			"-0.008": 0.0,
			"-0.007": 0.0,
			"-0.006": 0.622889047997,
			"-0.005": 6.80670831209,
			"-0.004": 10.6226459916,
			"-0.003": 19.1231472747,
			"-0.002": 62.2121456002,
			"-0.001": 111.755765237,
			"0.0": 123.851174424,
			"0.001": 97.3971975943,
			"0.002": 50.7335084953,
			"0.003": 8.97519084238,
			"0.004": 7.86865690134,
			"0.005": 8.31014095088,
			"0.006": 7.90330004099,
			"0.007": 3.90151946231,
			"0.008": 0.0180647735824,
			"0.009": 0.0,
			"0.01": 0.0,
			"0.011": 0.0,
			"0.012": 0.0,
			"0.013": 0.0,
			"0.014": 0.0,
			"0.015": 0.0,
			"0.016": 0.0,
			"0.017": 0.0,
			"0.018": 0.0,
			"0.019": 0.0,
			"0.02": 0.0,
			"0.021": 0.0,
			"0.022": 0.0,
			"0.023": 0.0,
			"0.024": 0.0,
			"0.025": 0.0
		}
	}
}
