{
	 "smiles": "CSC1=NC2=C(N1)C=CC(=C2)N=CC1=CC=C2OCOC2=C1", 
	 "Tm": 487.15, 
	 "num_atms": 35, 
	 "gaussian": { 
		 "optdone": 1, 
		 "sigma_profile": "yes", 
		 "theory": "DFT", 
		 "functional": "B3LYP", 
		 "basiset": "6-31G**", 
		 "properties": { 
			 "R2extent": 9958.4636, 
			 "electric_dipole_moment_norm": 3.68862171143, 
			 "electric_quadrupole_moment_norm": 10.9498847533, 
			 "total_energy": -1330.39300734, 
			 "HOMO_LUMO_gap": 0.14717, 
			 "cosmo_polarized_energy": -18.65, 
			 "cosmo_cavitation_energy": 41.58, 
			 "cosmo_dispersion_energy": -30.57, 
			 "cosmo_repulsion_energy": 2.29, 
			 "cosmo_total_nonelectrostatic_energy": 13.31, 
			 "SMD_solvation_energy": 4.4 
		},
		"coords": [
			{
				"x": -5.8060360371,
				"y": -2.0122737439,
				"z": -0.1705777154,
				"element": "C" 
			},
			{
				"x": -5.2876492333,
				"y": -1.6112480133,
				"z": 1.5338373,
				"element": "S" 
			},
			{
				"x": -3.8484878407,
				"y": -0.6594663921,
				"z": 1.1704325314,
				"element": "C" 
			},
			{
				"x": -3.3717789858,
				"y": -0.4011042884,
				"z": -0.0227831652,
				"element": "N" 
			},
			{
				"x": -2.2390200618,
				"y": 0.3739504119,
				"z": 0.2091984002,
				"element": "C" 
			},
			{
				"x": -2.0511611607,
				"y": 0.5711938335,
				"z": 1.597538436,
				"element": "C" 
			},
			{
				"x": -3.1074181713,
				"y": -0.1086445631,
				"z": 2.1937945827,
				"element": "N" 
			},
			{
				"x": -0.9918853548,
				"y": 1.3216007985,
				"z": 2.1028570313,
				"element": "C" 
			},
			{
				"x": -0.1016586807,
				"y": 1.8673004108,
				"z": 1.1806223244,
				"element": "C" 
			},
			{
				"x": -0.2640694475,
				"y": 1.6748296309,
				"z": -0.2136402063,
				"element": "C" 
			},
			{
				"x": -1.3496162862,
				"y": 0.9420902664,
				"z": -0.7081991351,
				"element": "C" 
			},
			{
				"x": 0.5944819698,
				"y": 2.3364066734,
				"z": -1.1172136211,
				"element": "N" 
			},
			{
				"x": 1.8152950091,
				"y": 2.0247997689,
				"z": -1.3328457503,
				"element": "C" 
			},
			{
				"x": 2.672268871,
				"y": 0.9166112156,
				"z": -0.8577675549,
				"element": "C" 
			},
			{
				"x": 4.0440681265,
				"y": 1.0285938561,
				"z": -1.1418494686,
				"element": "C" 
			},
			{
				"x": 4.9748511389,
				"y": 0.0476257429,
				"z": -0.7688787864,
				"element": "C" 
			},
			{
				"x": 4.472417336,
				"y": -1.0601021071,
				"z": -0.1141893723,
				"element": "C" 
			},
			{
				"x": 5.15164757,
				"y": -2.1505686127,
				"z": 0.3552399954,
				"element": "O" 
			},
			{
				"x": 4.1544542646,
				"y": -3.0496137702,
				"z": 0.8649706575,
				"element": "C" 
			},
			{
				"x": 2.8912195322,
				"y": -2.3821078797,
				"z": 0.8173531917,
				"element": "O" 
			},
			{
				"x": 3.1101720718,
				"y": -1.1938714961,
				"z": 0.1613091188,
				"element": "C" 
			},
			{
				"x": 2.1853937521,
				"y": -0.2370480342,
				"z": -0.1877812636,
				"element": "C" 
			},
			{
				"x": -6.0182556401,
				"y": -1.0973337666,
				"z": -0.7232059533,
				"element": "H" 
			},
			{
				"x": -5.0223487546,
				"y": -2.5739965114,
				"z": -0.6782286548,
				"element": "H" 
			},
			{
				"x": -6.7088590753,
				"y": -2.6179550326,
				"z": -0.0732661819,
				"element": "H" 
			},
			{
				"x": -3.3051971615,
				"y": -0.1795530054,
				"z": 3.1794454063,
				"element": "H" 
			},
			{
				"x": -0.8547813839,
				"y": 1.4822530823,
				"z": 3.1680792588,
				"element": "H" 
			},
			{
				"x": 0.7359700526,
				"y": 2.4640911906,
				"z": 1.5263913204,
				"element": "H" 
			},
			{
				"x": -1.4930568574,
				"y": 0.8177282189,
				"z": -1.7757288517,
				"element": "H" 
			},
			{
				"x": 2.343636162,
				"y": 2.7006371778,
				"z": -2.0151950162,
				"element": "H" 
			},
			{
				"x": 4.3968916205,
				"y": 1.9099241271,
				"z": -1.669737713,
				"element": "H" 
			},
			{
				"x": 6.0320225188,
				"y": 0.14599083,
				"z": -0.9867893104,
				"element": "H" 
			},
			{
				"x": 4.1226440157,
				"y": -3.9497961354,
				"z": 0.2365884655,
				"element": "H" 
			},
			{
				"x": 4.3957632924,
				"y": -3.3074775038,
				"z": 1.9016987686,
				"element": "H" 
			},
			{
				"x": 1.1358828284,
				"y": -0.3693663797,
				"z": 0.0327209315,
				"element": "H" 
			}
		],
		 "valence_orbital": [ 
			{
				"type": "occ",
				"energy": -0.25531,
				"method": "rhf"
			},
			{
				"type": "occ",
				"energy": -0.25049,
				"method": "rhf"
			},
			{
				"type": "occ",
				"energy": -0.21423,
				"method": "rhf"
			},
			{
				"type": "occ",
				"energy": -0.2111,
				"method": "rhf"
			},
			{
				"type": "occ",
				"energy": -0.19117,
				"method": "rhf"
			},
			{
				"type": "unocc",
				"energy": -0.044,
				"method": "rhf"
			},
			{
				"type": "unocc",
				"energy": -0.01168,
				"method": "rhf"
			},
			{
				"type": "unocc",
				"energy": 0.00068,
				"method": "rhf"
			},
			{
				"type": "unocc",
				"energy": 0.01859,
				"method": "rhf"
			},
			{
				"type": "unocc",
				"energy": 0.03128,
				"method": "rhf"
			}
		],
		"cosmo_sigma_profile": { 
			"-0.025": 0.0,
			"-0.024": 0.0,
			"-0.023": 0.0,
			"-0.022": 0.0,
			"-0.021": 0.0,
			"-0.02": 0.0,
			"-0.019": 0.0,
			"-0.018": 0.00615164967754,
			"-0.017": 0.754194107236,
			"-0.016": 1.46332504148,
			"-0.015": 0.899626950638,
			"-0.014": 1.38549757529,
			"-0.013": 1.16763071408,
			"-0.012": 1.48293819372,
			"-0.011": 1.14722717877,
			"-0.01": 0.911318393357,
			"-0.009": 1.46185326197,
			"-0.008": 6.89637186288,
			"-0.007": 17.1292855805,
			"-0.006": 18.9321149605,
			"-0.005": 20.0008792744,
			"-0.004": 18.7581760183,
			"-0.003": 18.6427205637,
			"-0.002": 20.3676055012,
			"-0.001": 19.5165456183,
			"0.0": 20.9343831671,
			"0.001": 26.2572719152,
			"0.002": 30.5581559078,
			"0.003": 28.143997521,
			"0.004": 19.8123831573,
			"0.005": 13.9578482258,
			"0.006": 11.9573001704,
			"0.007": 8.56504770104,
			"0.008": 6.7681807796,
			"0.009": 5.28245430947,
			"0.01": 2.91913606946,
			"0.011": 2.33675864464,
			"0.012": 2.23493868839,
			"0.013": 1.63633048561,
			"0.014": 1.63296654523,
			"0.015": 1.73683976295,
			"0.016": 0.305046924035,
			"0.017": 0.0,
			"0.018": 0.0,
			"0.019": 0.0,
			"0.02": 0.0,
			"0.021": 0.0,
			"0.022": 0.0,
			"0.023": 0.0,
			"0.024": 0.0,
			"0.025": 0.0
		}
	}
}
