{
	 "smiles": "CC1=C(SC(=N1)C1CCN(CC1)C(=O)OC(C)(C)C)C=O", 
	 "Tm": 493.15, 
	 "num_atms": 43, 
	 "gaussian": { 
		 "optdone": 1, 
		 "sigma_profile": "yes", 
		 "theory": "DFT", 
		 "functional": "B3LYP", 
		 "basiset": "6-31G**", 
		 "properties": { 
			 "R2extent": 10799.9789, 
			 "electric_dipole_moment_norm": 2.55314580469, 
			 "electric_quadrupole_moment_norm": 24.2680008041, 
			 "total_energy": -1318.25727185, 
			 "HOMO_LUMO_gap": 0.15598, 
			 "cosmo_polarized_energy": -14.49, 
			 "cosmo_cavitation_energy": 45.39, 
			 "cosmo_dispersion_energy": -31.57, 
			 "cosmo_repulsion_energy": 2.4, 
			 "cosmo_total_nonelectrostatic_energy": 16.23, 
			 "SMD_solvation_energy": 7.96 
		},
		"coords": [
			{
				"x": 4.1177304809,
				"y": -0.2742614503,
				"z": -3.0227583902,
				"element": "C" 
			},
			{
				"x": 3.6059286297,
				"y": 0.9524231695,
				"z": -2.3273197543,
				"element": "C" 
			},
			{
				"x": 4.06133563,
				"y": 2.2506322645,
				"z": -2.4812022556,
				"element": "C" 
			},
			{
				"x": 3.1441331782,
				"y": 3.324406078,
				"z": -1.4533200334,
				"element": "S" 
			},
			{
				"x": 2.2211446729,
				"y": 1.9470795873,
				"z": -0.8962338262,
				"element": "C" 
			},
			{
				"x": 2.5736139782,
				"y": 0.8035233905,
				"z": -1.4343307332,
				"element": "N" 
			},
			{
				"x": 1.1246583141,
				"y": 2.1242883037,
				"z": 0.1256087457,
				"element": "C" 
			},
			{
				"x": -0.2621881846,
				"y": 1.6739480257,
				"z": -0.4070591527,
				"element": "C" 
			},
			{
				"x": -0.4353935165,
				"y": 0.1478708432,
				"z": -0.4258000785,
				"element": "C" 
			},
			{
				"x": -0.1202070867,
				"y": -0.417765049,
				"z": 0.8852398729,
				"element": "N" 
			},
			{
				"x": 1.2201343743,
				"y": -0.1184995512,
				"z": 1.3854514708,
				"element": "C" 
			},
			{
				"x": 1.4391669251,
				"y": 1.3979181919,
				"z": 1.4621154894,
				"element": "C" 
			},
			{
				"x": -0.9861236318,
				"y": -1.1323305347,
				"z": 1.6707431393,
				"element": "C" 
			},
			{
				"x": -0.6984247483,
				"y": -1.566098337,
				"z": 2.7793852467,
				"element": "O" 
			},
			{
				"x": -2.187268938,
				"y": -1.293381556,
				"z": 1.0576422338,
				"element": "O" 
			},
			{
				"x": -3.269383105,
				"y": -2.0457186308,
				"z": 1.7083838761,
				"element": "C" 
			},
			{
				"x": -2.8392762822,
				"y": -3.4990401832,
				"z": 1.9364689348,
				"element": "C" 
			},
			{
				"x": -4.3940983485,
				"y": -1.9714407256,
				"z": 0.6715838915,
				"element": "C" 
			},
			{
				"x": -3.6870117113,
				"y": -1.35246168,
				"z": 3.0100111682,
				"element": "C" 
			},
			{
				"x": 5.1238669569,
				"y": 2.7707388259,
				"z": -3.3309865282,
				"element": "C" 
			},
			{
				"x": 5.4424781752,
				"y": 3.9471359882,
				"z": -3.3889294487,
				"element": "O" 
			},
			{
				"x": 4.4695309504,
				"y": -1.0027311651,
				"z": -2.2847975425,
				"element": "H" 
			},
			{
				"x": 4.9350904141,
				"y": -0.0554993482,
				"z": -3.7113659246,
				"element": "H" 
			},
			{
				"x": 3.307528418,
				"y": -0.7512341448,
				"z": -3.5840990524,
				"element": "H" 
			},
			{
				"x": 1.0656955004,
				"y": 3.198132314,
				"z": 0.3376243678,
				"element": "H" 
			},
			{
				"x": -1.0263827204,
				"y": 2.1055692538,
				"z": 0.2508123012,
				"element": "H" 
			},
			{
				"x": -0.431069777,
				"y": 2.0780260365,
				"z": -1.4114615369,
				"element": "H" 
			},
			{
				"x": -1.4588120576,
				"y": -0.1133974126,
				"z": -0.6865753261,
				"element": "H" 
			},
			{
				"x": 0.2368632499,
				"y": -0.2912055811,
				"z": -1.1723662235,
				"element": "H" 
			},
			{
				"x": 1.3150065544,
				"y": -0.5733121518,
				"z": 2.3711751056,
				"element": "H" 
			},
			{
				"x": 1.9609716167,
				"y": -0.5702067628,
				"z": 0.7152270464,
				"element": "H" 
			},
			{
				"x": 0.7738733632,
				"y": 1.8110321603,
				"z": 2.2299386226,
				"element": "H" 
			},
			{
				"x": 2.4675679591,
				"y": 1.6104663334,
				"z": 1.7746478993,
				"element": "H" 
			},
			{
				"x": -2.0241360436,
				"y": -3.5550091143,
				"z": 2.6578233866,
				"element": "H" 
			},
			{
				"x": -2.5117539917,
				"y": -3.9495786639,
				"z": 0.9939970196,
				"element": "H" 
			},
			{
				"x": -3.6883937314,
				"y": -4.0789749014,
				"z": 2.3128739623,
				"element": "H" 
			},
			{
				"x": -5.2779065102,
				"y": -2.5032153491,
				"z": 1.0363952038,
				"element": "H" 
			},
			{
				"x": -4.6724400977,
				"y": -0.9314264467,
				"z": 0.4767155793,
				"element": "H" 
			},
			{
				"x": -4.080647502,
				"y": -2.4278122791,
				"z": -0.2720108296,
				"element": "H" 
			},
			{
				"x": -3.9496026124,
				"y": -0.3074733982,
				"z": 2.8156112177,
				"element": "H" 
			},
			{
				"x": -4.5683791946,
				"y": -1.8514478687,
				"z": 3.4261963589,
				"element": "H" 
			},
			{
				"x": -2.8816456591,
				"y": -1.3849641139,
				"z": 3.7436443292,
				"element": "H" 
			},
			{
				"x": 5.6456261085,
				"y": 2.0079956331,
				"z": -3.9449998329,
				"element": "H" 
			}
		],
		 "valence_orbital": [ 
			{
				"type": "occ",
				"energy": -0.28315,
				"method": "rhf"
			},
			{
				"type": "occ",
				"energy": -0.25879,
				"method": "rhf"
			},
			{
				"type": "occ",
				"energy": -0.25654,
				"method": "rhf"
			},
			{
				"type": "occ",
				"energy": -0.25378,
				"method": "rhf"
			},
			{
				"type": "occ",
				"energy": -0.23061,
				"method": "rhf"
			},
			{
				"type": "unocc",
				"energy": -0.07463,
				"method": "rhf"
			},
			{
				"type": "unocc",
				"energy": -0.00216,
				"method": "rhf"
			},
			{
				"type": "unocc",
				"energy": 0.00582,
				"method": "rhf"
			},
			{
				"type": "unocc",
				"energy": 0.05888,
				"method": "rhf"
			},
			{
				"type": "unocc",
				"energy": 0.06391,
				"method": "rhf"
			}
		],
		"cosmo_sigma_profile": { 
			"-0.025": 0.0,
			"-0.024": 0.0,
			"-0.023": 0.0,
			"-0.022": 0.0,
			"-0.021": 0.0,
			"-0.02": 0.0,
			"-0.019": 0.0,
			"-0.018": 0.0,
			"-0.017": 0.0,
			"-0.016": 0.0,
			"-0.015": 0.0,
			"-0.014": 0.0,
			"-0.013": 0.0,
			"-0.012": 0.0,
			"-0.011": 0.0,
			"-0.01": 0.0,
			"-0.009": 0.137380694187,
			"-0.008": 2.70523140027,
			"-0.007": 4.17907640069,
			"-0.006": 7.68890006361,
			"-0.005": 11.2621771733,
			"-0.004": 35.8758040271,
			"-0.003": 41.5941449651,
			"-0.002": 46.3073816213,
			"-0.001": 42.5217884712,
			"0.0": 40.1787836111,
			"0.001": 36.2466655884,
			"0.002": 21.7870844239,
			"0.003": 12.7634011246,
			"0.004": 8.5182208887,
			"0.005": 7.89015234818,
			"0.006": 5.84260928294,
			"0.007": 4.39316036867,
			"0.008": 4.60014150267,
			"0.009": 3.31692627621,
			"0.01": 3.59851485434,
			"0.011": 6.01412966726,
			"0.012": 5.00480544903,
			"0.013": 3.37917637451,
			"0.014": 2.1878525218,
			"0.015": 0.0,
			"0.016": 0.0,
			"0.017": 0.0,
			"0.018": 0.0,
			"0.019": 0.0,
			"0.02": 0.0,
			"0.021": 0.0,
			"0.022": 0.0,
			"0.023": 0.0,
			"0.024": 0.0,
			"0.025": 0.0
		}
	}
}
