{
	 "smiles": "OC(=O)C1=CC(=CC=C1Cl)[N+]([O-])=O", 
	 "Tm": 439.15, 
	 "num_atms": 17, 
	 "gaussian": { 
		 "optdone": 1, 
		 "sigma_profile": "yes", 
		 "theory": "DFT", 
		 "functional": "B3LYP", 
		 "basiset": "6-31G**", 
		 "properties": { 
			 "R2extent": 3625.6072, 
			 "electric_dipole_moment_norm": 4.08304575899, 
			 "electric_quadrupole_moment_norm": 5.82309909928, 
			 "total_energy": -1084.89994212, 
			 "HOMO_LUMO_gap": 0.18113, 
			 "cosmo_polarized_energy": -12.61, 
			 "cosmo_cavitation_energy": 24.87, 
			 "cosmo_dispersion_energy": -18.5, 
			 "cosmo_repulsion_energy": 1.46, 
			 "cosmo_total_nonelectrostatic_energy": 7.83, 
			 "SMD_solvation_energy": 7.67 
		},
		"coords": [
			{
				"x": -1.9601893346,
				"y": -3.0603651667,
				"z": 1.3659120883,
				"element": "O" 
			},
			{
				"x": -1.0225152482,
				"y": -2.0977327038,
				"z": 1.3867281818,
				"element": "C" 
			},
			{
				"x": 0.0601952471,
				"y": -2.2570552407,
				"z": 1.9137063565,
				"element": "O" 
			},
			{
				"x": -1.4065966847,
				"y": -0.814361732,
				"z": 0.7068186846,
				"element": "C" 
			},
			{
				"x": -0.3886143453,
				"y": 0.1514165659,
				"z": 0.6983388813,
				"element": "C" 
			},
			{
				"x": -0.5935115663,
				"y": 1.3860424765,
				"z": 0.10529258,
				"element": "C" 
			},
			{
				"x": -1.805516779,
				"y": 1.7159620902,
				"z": -0.4982047422,
				"element": "C" 
			},
			{
				"x": -2.8231258639,
				"y": 0.7728825288,
				"z": -0.4960260956,
				"element": "C" 
			},
			{
				"x": -2.6364586322,
				"y": -0.4835226605,
				"z": 0.0977353254,
				"element": "C" 
			},
			{
				"x": -4.0065712288,
				"y": -1.5613829125,
				"z": 0.0275019957,
				"element": "Cl" 
			},
			{
				"x": 0.496300804,
				"y": 2.3760560302,
				"z": 0.1125638948,
				"element": "N" 
			},
			{
				"x": 0.2741078431,
				"y": 3.4611555466,
				"z": -0.423241608,
				"element": "O" 
			},
			{
				"x": 1.5531359843,
				"y": 2.0561401549,
				"z": 0.6509538378,
				"element": "O" 
			},
			{
				"x": -1.5699249665,
				"y": -3.8174413959,
				"z": 1.8354861809,
				"element": "H" 
			},
			{
				"x": 0.5594807365,
				"y": -0.0857505092,
				"z": 1.1636804901,
				"element": "H" 
			},
			{
				"x": -1.9342784073,
				"y": 2.6900977053,
				"z": -0.9531146865,
				"element": "H" 
			},
			{
				"x": -3.7783175582,
				"y": 0.998659223,
				"z": -0.9552313649,
				"element": "H" 
			}
		],
		 "valence_orbital": [ 
			{
				"type": "occ",
				"energy": -0.31811,
				"method": "rhf"
			},
			{
				"type": "occ",
				"energy": -0.30348,
				"method": "rhf"
			},
			{
				"type": "occ",
				"energy": -0.29976,
				"method": "rhf"
			},
			{
				"type": "occ",
				"energy": -0.29859,
				"method": "rhf"
			},
			{
				"type": "occ",
				"energy": -0.28465,
				"method": "rhf"
			},
			{
				"type": "unocc",
				"energy": -0.10352,
				"method": "rhf"
			},
			{
				"type": "unocc",
				"energy": -0.07672,
				"method": "rhf"
			},
			{
				"type": "unocc",
				"energy": -0.02639,
				"method": "rhf"
			},
			{
				"type": "unocc",
				"energy": 0.00661,
				"method": "rhf"
			},
			{
				"type": "unocc",
				"energy": 0.0349,
				"method": "rhf"
			}
		],
		"cosmo_sigma_profile": { 
			"-0.025": 0.0,
			"-0.024": 0.0,
			"-0.023": 0.0,
			"-0.022": 0.0,
			"-0.021": 0.0,
			"-0.02": 0.0,
			"-0.019": 0.512564536193,
			"-0.018": 1.26043334059,
			"-0.017": 0.625784602157,
			"-0.016": 0.658413465539,
			"-0.015": 1.01038080887,
			"-0.014": 0.565762713224,
			"-0.013": 0.439627243738,
			"-0.012": 0.996758424691,
			"-0.011": 0.950069830353,
			"-0.01": 0.673877933778,
			"-0.009": 3.27916113457,
			"-0.008": 5.08409808667,
			"-0.007": 4.86758689716,
			"-0.006": 5.362565499,
			"-0.005": 8.55051366748,
			"-0.004": 11.0689642305,
			"-0.003": 17.9661327964,
			"-0.002": 26.284547614,
			"-0.001": 16.804470839,
			"0.0": 10.4651412468,
			"0.001": 8.92140895142,
			"0.002": 9.20241207085,
			"0.003": 11.4864147792,
			"0.004": 6.6090995079,
			"0.005": 5.80071280032,
			"0.006": 8.68105368174,
			"0.007": 13.2539643055,
			"0.008": 7.29958029032,
			"0.009": 5.6372065935,
			"0.01": 4.06295856767,
			"0.011": 3.89095004935,
			"0.012": 0.297682997528,
			"0.013": 0.0,
			"0.014": 0.0,
			"0.015": 0.0,
			"0.016": 0.0,
			"0.017": 0.0,
			"0.018": 0.0,
			"0.019": 0.0,
			"0.02": 0.0,
			"0.021": 0.0,
			"0.022": 0.0,
			"0.023": 0.0,
			"0.024": 0.0,
			"0.025": 0.0
		}
	}
}
