{
	 "smiles": "CC(C)C1=CC=C(NC(=O)CCl)C=C1", 
	 "Tm": 407.15, 
	 "num_atms": 28, 
	 "gaussian": { 
		 "optdone": 1, 
		 "sigma_profile": "yes", 
		 "theory": "DFT", 
		 "functional": "B3LYP", 
		 "basiset": "6-31G**", 
		 "properties": { 
			 "R2extent": 5998.406, 
			 "electric_dipole_moment_norm": 5.7406979236, 
			 "electric_quadrupole_moment_norm": 23.6788502795, 
			 "total_energy": -1017.7983949, 
			 "HOMO_LUMO_gap": 0.20892, 
			 "cosmo_polarized_energy": -14.35, 
			 "cosmo_cavitation_energy": 33.0, 
			 "cosmo_dispersion_energy": -23.47, 
			 "cosmo_repulsion_energy": 1.89, 
			 "cosmo_total_nonelectrostatic_energy": 11.43, 
			 "SMD_solvation_energy": 6.08 
		},
		"coords": [
			{
				"x": -1.9343472688,
				"y": -1.1362382989,
				"z": -2.9876585876,
				"element": "C" 
			},
			{
				"x": -0.4507540013,
				"y": -0.7903536163,
				"z": -2.7579820368,
				"element": "C" 
			},
			{
				"x": 0.437695346,
				"y": -2.0409367721,
				"z": -2.8986180158,
				"element": "C" 
			},
			{
				"x": -0.2339261134,
				"y": -0.0879229072,
				"z": -1.424716684,
				"element": "C" 
			},
			{
				"x": 0.2628643239,
				"y": 1.2192555673,
				"z": -1.3731671952,
				"element": "C" 
			},
			{
				"x": 0.4801772232,
				"y": 1.8737069925,
				"z": -0.159926251,
				"element": "C" 
			},
			{
				"x": 0.1647810126,
				"y": 1.2392542425,
				"z": 1.0466865478,
				"element": "C" 
			},
			{
				"x": 0.3805858018,
				"y": 1.8590937492,
				"z": 2.3052518849,
				"element": "N" 
			},
			{
				"x": 0.0062483464,
				"y": 3.0996235917,
				"z": 2.7851534619,
				"element": "C" 
			},
			{
				"x": 0.2620196726,
				"y": 3.4261991553,
				"z": 3.9292116639,
				"element": "O" 
			},
			{
				"x": -0.726924998,
				"y": 4.0140380092,
				"z": 1.7963418268,
				"element": "C" 
			},
			{
				"x": -1.7655334725,
				"y": 5.2078831447,
				"z": 2.6418563349,
				"element": "Cl" 
			},
			{
				"x": -0.3301301566,
				"y": -0.0726045946,
				"z": 1.0108664595,
				"element": "C" 
			},
			{
				"x": -0.5157302628,
				"y": -0.7232264568,
				"z": -0.204891437,
				"element": "C" 
			},
			{
				"x": -2.0766410447,
				"y": -1.5863279872,
				"z": -3.9760077947,
				"element": "H" 
			},
			{
				"x": -2.5647170459,
				"y": -0.243865605,
				"z": -2.9252916807,
				"element": "H" 
			},
			{
				"x": -2.295839275,
				"y": -1.8530554267,
				"z": -2.2420878552,
				"element": "H" 
			},
			{
				"x": -0.1520120988,
				"y": -0.0841307797,
				"z": -3.5437269356,
				"element": "H" 
			},
			{
				"x": 0.1802773314,
				"y": -2.7983452606,
				"z": -2.1499838234,
				"element": "H" 
			},
			{
				"x": 0.3095190196,
				"y": -2.4954869834,
				"z": -3.8868562236,
				"element": "H" 
			},
			{
				"x": 1.4959856769,
				"y": -1.7928151633,
				"z": -2.7718615414,
				"element": "H" 
			},
			{
				"x": 0.5077117699,
				"y": 1.7331667514,
				"z": -2.2993561834,
				"element": "H" 
			},
			{
				"x": 0.918186977,
				"y": 2.8663579991,
				"z": -0.1533307569,
				"element": "H" 
			},
			{
				"x": 0.7781608687,
				"y": 1.2850384998,
				"z": 3.039415993,
				"element": "H" 
			},
			{
				"x": -1.3565616133,
				"y": 3.4481588804,
				"z": 1.1101187727,
				"element": "H" 
			},
			{
				"x": 0.0005420939,
				"y": 4.5827344617,
				"z": 1.2129580625,
				"element": "H" 
			},
			{
				"x": -0.5772467157,
				"y": -0.5739856095,
				"z": 1.9426892721,
				"element": "H" 
			},
			{
				"x": -0.8994913971,
				"y": -1.7397155834,
				"z": -0.2003872777,
				"element": "H" 
			}
		],
		 "valence_orbital": [ 
			{
				"type": "occ",
				"energy": -0.29514,
				"method": "rhf"
			},
			{
				"type": "occ",
				"energy": -0.2925,
				"method": "rhf"
			},
			{
				"type": "occ",
				"energy": -0.26734,
				"method": "rhf"
			},
			{
				"type": "occ",
				"energy": -0.26445,
				"method": "rhf"
			},
			{
				"type": "occ",
				"energy": -0.23405,
				"method": "rhf"
			},
			{
				"type": "unocc",
				"energy": -0.02513,
				"method": "rhf"
			},
			{
				"type": "unocc",
				"energy": -0.02058,
				"method": "rhf"
			},
			{
				"type": "unocc",
				"energy": 0.01229,
				"method": "rhf"
			},
			{
				"type": "unocc",
				"energy": 0.03914,
				"method": "rhf"
			},
			{
				"type": "unocc",
				"energy": 0.07529,
				"method": "rhf"
			}
		],
		"cosmo_sigma_profile": { 
			"-0.025": 0.0,
			"-0.024": 0.0,
			"-0.023": 0.0,
			"-0.022": 0.0,
			"-0.021": 0.0,
			"-0.02": 0.0,
			"-0.019": 0.0,
			"-0.018": 0.0,
			"-0.017": 0.0,
			"-0.016": 0.0,
			"-0.015": 0.161541623554,
			"-0.014": 0.999182966227,
			"-0.013": 1.1869696264,
			"-0.012": 0.971841940509,
			"-0.011": 1.03784771109,
			"-0.01": 3.41402663139,
			"-0.009": 3.53200118392,
			"-0.008": 5.23885798037,
			"-0.007": 5.91015853349,
			"-0.006": 8.03399100501,
			"-0.005": 13.7760699917,
			"-0.004": 14.9517668774,
			"-0.003": 19.3716119252,
			"-0.002": 22.4476940966,
			"-0.001": 24.7240574597,
			"0.0": 23.9633530151,
			"0.001": 26.8306914546,
			"0.002": 16.6262126174,
			"0.003": 11.8580086386,
			"0.004": 12.1629962506,
			"0.005": 14.6852440524,
			"0.006": 8.84326767882,
			"0.007": 2.68369672192,
			"0.008": 1.43712896714,
			"0.009": 1.6835360084,
			"0.01": 2.05352073269,
			"0.011": 2.36691622854,
			"0.012": 4.130901679,
			"0.013": 5.2811475617,
			"0.014": 1.7601826286,
			"0.015": 0.0835099508548,
			"0.016": 0.0,
			"0.017": 0.0,
			"0.018": 0.0,
			"0.019": 0.0,
			"0.02": 0.0,
			"0.021": 0.0,
			"0.022": 0.0,
			"0.023": 0.0,
			"0.024": 0.0,
			"0.025": 0.0
		}
	}
}
