{
	 "smiles": "FC1=C(Cl)C=CC(C=O)=C1", 
	 "Tm": 320.15, 
	 "num_atms": 14, 
	 "gaussian": { 
		 "optdone": 1, 
		 "sigma_profile": "yes", 
		 "theory": "DFT", 
		 "functional": "B3LYP", 
		 "basiset": "6-31G**", 
		 "properties": { 
			 "R2extent": 2077.271, 
			 "electric_dipole_moment_norm": 0.767031922413, 
			 "electric_quadrupole_moment_norm": 11.6015534762, 
			 "total_energy": -904.392245244, 
			 "HOMO_LUMO_gap": 0.18417, 
			 "cosmo_polarized_energy": -7.16, 
			 "cosmo_cavitation_energy": 21.39, 
			 "cosmo_dispersion_energy": -15.66, 
			 "cosmo_repulsion_energy": 1.24, 
			 "cosmo_total_nonelectrostatic_energy": 6.97, 
			 "SMD_solvation_energy": 5.03 
		},
		"coords": [
			{
				"x": -3.2524039774,
				"y": -0.0918309208,
				"z": -0.1998805726,
				"element": "F" 
			},
			{
				"x": -1.9319489961,
				"y": 0.0860586915,
				"z": -0.0547260996,
				"element": "C" 
			},
			{
				"x": -1.1311729631,
				"y": -0.9794572473,
				"z": 0.367740466,
				"element": "C" 
			},
			{
				"x": -1.8626290387,
				"y": -2.5234177625,
				"z": 0.69934599,
				"element": "Cl" 
			},
			{
				"x": 0.2473589164,
				"y": -0.7944237846,
				"z": 0.5194660396,
				"element": "C" 
			},
			{
				"x": 0.812258993,
				"y": 0.4461810454,
				"z": 0.2496467967,
				"element": "C" 
			},
			{
				"x": 0.0042227451,
				"y": 1.5115940039,
				"z": -0.1738734958,
				"element": "C" 
			},
			{
				"x": 0.6039132845,
				"y": 2.8363336615,
				"z": -0.4625009578,
				"element": "C" 
			},
			{
				"x": 1.7881871916,
				"y": 3.0879437081,
				"z": -0.3584900073,
				"element": "O" 
			},
			{
				"x": -1.3749201031,
				"y": 1.3275019384,
				"z": -0.3259579902,
				"element": "C" 
			},
			{
				"x": 0.8575784564,
				"y": -1.6286354445,
				"z": 0.8477444292,
				"element": "H" 
			},
			{
				"x": 1.878316565,
				"y": 0.6133909948,
				"z": 0.3601299624,
				"element": "H" 
			},
			{
				"x": -0.1215934477,
				"y": 3.6126427235,
				"z": -0.7914695039,
				"element": "H" 
			},
			{
				"x": -2.022267626,
				"y": 2.1362183926,
				"z": -0.6524750567,
				"element": "H" 
			}
		],
		 "valence_orbital": [ 
			{
				"type": "occ",
				"energy": -0.34777,
				"method": "rhf"
			},
			{
				"type": "occ",
				"energy": -0.33115,
				"method": "rhf"
			},
			{
				"type": "occ",
				"energy": -0.28165,
				"method": "rhf"
			},
			{
				"type": "occ",
				"energy": -0.26902,
				"method": "rhf"
			},
			{
				"type": "occ",
				"energy": -0.26401,
				"method": "rhf"
			},
			{
				"type": "unocc",
				"energy": -0.07984,
				"method": "rhf"
			},
			{
				"type": "unocc",
				"energy": -0.03029,
				"method": "rhf"
			},
			{
				"type": "unocc",
				"energy": 0.01058,
				"method": "rhf"
			},
			{
				"type": "unocc",
				"energy": 0.02341,
				"method": "rhf"
			},
			{
				"type": "unocc",
				"energy": 0.10107,
				"method": "rhf"
			}
		],
		"cosmo_sigma_profile": { 
			"-0.025": 0.0,
			"-0.024": 0.0,
			"-0.023": 0.0,
			"-0.022": 0.0,
			"-0.021": 0.0,
			"-0.02": 0.0,
			"-0.019": 0.0,
			"-0.018": 0.0,
			"-0.017": 0.0,
			"-0.016": 0.0,
			"-0.015": 0.0,
			"-0.014": 0.0,
			"-0.013": 0.0,
			"-0.012": 0.0,
			"-0.011": 0.0,
			"-0.01": 0.382006685769,
			"-0.009": 3.33363935411,
			"-0.008": 5.39623544396,
			"-0.007": 7.23599706036,
			"-0.006": 8.06172700958,
			"-0.005": 6.52797475642,
			"-0.004": 7.59298088719,
			"-0.003": 7.86908965913,
			"-0.002": 13.9745545159,
			"-0.001": 17.8574212219,
			"0.0": 20.3126177252,
			"0.001": 16.3254463385,
			"0.002": 11.2461472847,
			"0.003": 18.7297504846,
			"0.004": 11.4988639429,
			"0.005": 2.68584737773,
			"0.006": 1.12158647569,
			"0.007": 1.71023646968,
			"0.008": 1.69819644041,
			"0.009": 2.20633478282,
			"0.01": 3.35747932803,
			"0.011": 3.92527299734,
			"0.012": 1.77528452369,
			"0.013": 0.202470791366,
			"0.014": 0.0,
			"0.015": 0.0,
			"0.016": 0.0,
			"0.017": 0.0,
			"0.018": 0.0,
			"0.019": 0.0,
			"0.02": 0.0,
			"0.021": 0.0,
			"0.022": 0.0,
			"0.023": 0.0,
			"0.024": 0.0,
			"0.025": 0.0
		}
	}
}
