{
	 "smiles": "OC(=O)CSC1=NN=C(N1C1=CC=CC=C1)C1=C(F)C=CC=C1", 
	 "Tm": 484.15, 
	 "num_atms": 35, 
	 "gaussian": { 
		 "optdone": 1, 
		 "sigma_profile": "yes", 
		 "theory": "DFT", 
		 "functional": "B3LYP", 
		 "basiset": "6-31G**", 
		 "properties": { 
			 "R2extent": 8195.6111, 
			 "electric_dipole_moment_norm": 3.29175365573, 
			 "electric_quadrupole_moment_norm": 19.2814516274, 
			 "total_energy": -1429.64604664, 
			 "HOMO_LUMO_gap": 0.18184, 
			 "cosmo_polarized_energy": -21.42, 
			 "cosmo_cavitation_energy": 42.42, 
			 "cosmo_dispersion_energy": -29.01, 
			 "cosmo_repulsion_energy": 2.2, 
			 "cosmo_total_nonelectrostatic_energy": 15.61, 
			 "SMD_solvation_energy": 6.62 
		},
		"coords": [
			{
				"x": -1.5211520851,
				"y": 4.8342436572,
				"z": 3.2254580489,
				"element": "O" 
			},
			{
				"x": -1.7540750487,
				"y": 4.0893418559,
				"z": 2.1199847199,
				"element": "C" 
			},
			{
				"x": -2.655076121,
				"y": 3.2920506948,
				"z": 2.032712877,
				"element": "O" 
			},
			{
				"x": -0.7369460776,
				"y": 4.4517887576,
				"z": 1.0456834288,
				"element": "C" 
			},
			{
				"x": -0.7875999278,
				"y": 3.3863377812,
				"z": -0.427638458,
				"element": "S" 
			},
			{
				"x": -0.0667109553,
				"y": 1.9516151782,
				"z": 0.3029716926,
				"element": "C" 
			},
			{
				"x": 0.4768229568,
				"y": 1.8845202984,
				"z": 1.4959821939,
				"element": "N" 
			},
			{
				"x": 0.8915380849,
				"y": 0.5847173074,
				"z": 1.6837870823,
				"element": "N" 
			},
			{
				"x": 0.5940789495,
				"y": -0.1003535589,
				"z": 0.6017633591,
				"element": "C" 
			},
			{
				"x": -0.0265288224,
				"y": 0.7278480142,
				"z": -0.3268286021,
				"element": "N" 
			},
			{
				"x": -0.653819664,
				"y": 0.3867434993,
				"z": -1.5686680898,
				"element": "C" 
			},
			{
				"x": -0.2063833237,
				"y": 0.9739914039,
				"z": -2.7547066333,
				"element": "C" 
			},
			{
				"x": -0.8423235565,
				"y": 0.6616397026,
				"z": -3.9557554635,
				"element": "C" 
			},
			{
				"x": -1.9054469658,
				"y": -0.2434234499,
				"z": -3.9734744312,
				"element": "C" 
			},
			{
				"x": -2.340228264,
				"y": -0.8323892672,
				"z": -2.784411068,
				"element": "C" 
			},
			{
				"x": -1.7219761657,
				"y": -0.5136862948,
				"z": -1.5755558865,
				"element": "C" 
			},
			{
				"x": 0.8630674483,
				"y": -1.5368148521,
				"z": 0.4488321702,
				"element": "C" 
			},
			{
				"x": 1.4071786447,
				"y": -2.098971015,
				"z": -0.7114352761,
				"element": "C" 
			},
			{
				"x": 1.6947168448,
				"y": -1.2954238396,
				"z": -1.7586373533,
				"element": "F" 
			},
			{
				"x": 1.6866720933,
				"y": -3.4543700357,
				"z": -0.8245341574,
				"element": "C" 
			},
			{
				"x": 1.4396495161,
				"y": -4.288186046,
				"z": 0.2661153909,
				"element": "C" 
			},
			{
				"x": 0.9230986927,
				"y": -3.7567072441,
				"z": 1.4506404339,
				"element": "C" 
			},
			{
				"x": 0.6390571113,
				"y": -2.3961427044,
				"z": 1.5383610915,
				"element": "C" 
			},
			{
				"x": -2.1889843139,
				"y": 4.5665894503,
				"z": 3.8789061922,
				"element": "H" 
			},
			{
				"x": 0.2625730545,
				"y": 4.4337017966,
				"z": 1.4829074842,
				"element": "H" 
			},
			{
				"x": -0.9388759824,
				"y": 5.4668978975,
				"z": 0.6902971452,
				"element": "H" 
			},
			{
				"x": 0.6375694299,
				"y": 1.6553339229,
				"z": -2.7314848118,
				"element": "H" 
			},
			{
				"x": -0.4985892523,
				"y": 1.1185353428,
				"z": -4.8786799212,
				"element": "H" 
			},
			{
				"x": -2.3944704973,
				"y": -0.4885896148,
				"z": -4.9114494896,
				"element": "H" 
			},
			{
				"x": -3.1701127172,
				"y": -1.5323830637,
				"z": -2.7933623514,
				"element": "H" 
			},
			{
				"x": -2.0642383423,
				"y": -0.9480933843,
				"z": -0.6423128642,
				"element": "H" 
			},
			{
				"x": 2.1060024288,
				"y": -3.8287916413,
				"z": -1.7519778349,
				"element": "H" 
			},
			{
				"x": 1.6570224479,
				"y": -5.349204563,
				"z": 0.1898528578,
				"element": "H" 
			},
			{
				"x": 0.7383841244,
				"y": -4.4018958793,
				"z": 2.3036002844,
				"element": "H" 
			},
			{
				"x": 0.2417062552,
				"y": -1.967270107,
				"z": 2.4518562397,
				"element": "H" 
			}
		],
		 "valence_orbital": [ 
			{
				"type": "occ",
				"energy": -0.26668,
				"method": "rhf"
			},
			{
				"type": "occ",
				"energy": -0.26274,
				"method": "rhf"
			},
			{
				"type": "occ",
				"energy": -0.25236,
				"method": "rhf"
			},
			{
				"type": "occ",
				"energy": -0.24745,
				"method": "rhf"
			},
			{
				"type": "occ",
				"energy": -0.21746,
				"method": "rhf"
			},
			{
				"type": "unocc",
				"energy": -0.03562,
				"method": "rhf"
			},
			{
				"type": "unocc",
				"energy": -0.02277,
				"method": "rhf"
			},
			{
				"type": "unocc",
				"energy": -0.01839,
				"method": "rhf"
			},
			{
				"type": "unocc",
				"energy": -0.00606,
				"method": "rhf"
			},
			{
				"type": "unocc",
				"energy": 0.00845,
				"method": "rhf"
			}
		],
		"cosmo_sigma_profile": { 
			"-0.025": 0.0,
			"-0.024": 0.0,
			"-0.023": 0.0,
			"-0.022": 0.0,
			"-0.021": 0.0,
			"-0.02": 0.0,
			"-0.019": 0.209446904272,
			"-0.018": 0.94494468475,
			"-0.017": 1.23997058622,
			"-0.016": 0.48663724114,
			"-0.015": 0.644394519067,
			"-0.014": 1.13160061045,
			"-0.013": 0.656737878529,
			"-0.012": 0.765242076993,
			"-0.011": 0.886354231009,
			"-0.01": 3.49187264162,
			"-0.009": 2.97824491778,
			"-0.008": 4.07390009248,
			"-0.007": 14.7993024673,
			"-0.006": 24.0514131686,
			"-0.005": 26.593986843,
			"-0.004": 20.817939214,
			"-0.003": 17.6268458738,
			"-0.002": 17.7942014062,
			"-0.001": 19.9461359017,
			"0.0": 21.1674166557,
			"0.001": 23.5665403652,
			"0.002": 26.4947282563,
			"0.003": 31.4995745153,
			"0.004": 24.6391857244,
			"0.005": 7.43340555339,
			"0.006": 7.40790613122,
			"0.007": 6.71035492505,
			"0.008": 5.12332766739,
			"0.009": 5.48088008607,
			"0.01": 4.40869956094,
			"0.011": 7.4728621282,
			"0.012": 5.12593008217,
			"0.013": 3.44969228424,
			"0.014": 1.59378590061,
			"0.015": 0.979420319923,
			"0.016": 0.644541123999,
			"0.017": 0.00988629597131,
			"0.018": 0.0,
			"0.019": 0.0,
			"0.02": 0.0,
			"0.021": 0.0,
			"0.022": 0.0,
			"0.023": 0.0,
			"0.024": 0.0,
			"0.025": 0.0
		}
	}
}
