{
	 "smiles": "[O-][N+](=O)C1=CC2=C(OC3=C(C=CC=C3)C2=O)C=C1", 
	 "Tm": 477.15, 
	 "num_atms": 25, 
	 "gaussian": { 
		 "optdone": 1, 
		 "sigma_profile": "yes", 
		 "theory": "DFT", 
		 "functional": "B3LYP", 
		 "basiset": "6-31G**", 
		 "properties": { 
			 "R2extent": 5260.9141, 
			 "electric_dipole_moment_norm": 6.9277819755, 
			 "electric_quadrupole_moment_norm": 8.80963347819, 
			 "total_energy": -855.160672135, 
			 "HOMO_LUMO_gap": 0.15974, 
			 "cosmo_polarized_energy": -12.91, 
			 "cosmo_cavitation_energy": 30.84, 
			 "cosmo_dispersion_energy": -22.93, 
			 "cosmo_repulsion_energy": 1.7, 
			 "cosmo_total_nonelectrostatic_energy": 9.61, 
			 "SMD_solvation_energy": 8.16 
		},
		"coords": [
			{
				"x": -0.0437700487,
				"y": 4.2773318391,
				"z": 2.3507134303,
				"element": "O" 
			},
			{
				"x": -0.6189429848,
				"y": 3.1906346211,
				"z": 2.4228216942,
				"element": "N" 
			},
			{
				"x": -1.5934634437,
				"y": 2.9562189778,
				"z": 3.1346148696,
				"element": "O" 
			},
			{
				"x": -0.0988077393,
				"y": 2.0938011771,
				"z": 1.5945602498,
				"element": "C" 
			},
			{
				"x": -0.7153469966,
				"y": 0.8552330942,
				"z": 1.6449847582,
				"element": "C" 
			},
			{
				"x": -0.2191409125,
				"y": -0.1896886391,
				"z": 0.8553233621,
				"element": "C" 
			},
			{
				"x": 0.8949401835,
				"y": 0.0506896622,
				"z": 0.031287419,
				"element": "C" 
			},
			{
				"x": 1.4349117378,
				"y": -0.9103719754,
				"z": -0.7634403377,
				"element": "O" 
			},
			{
				"x": 0.8904324987,
				"y": -2.171814506,
				"z": -0.7804154452,
				"element": "C" 
			},
			{
				"x": -0.2211713283,
				"y": -2.5218504263,
				"z": 0.0012906487,
				"element": "C" 
			},
			{
				"x": -0.7127515876,
				"y": -3.8362346153,
				"z": -0.0783946704,
				"element": "C" 
			},
			{
				"x": -0.110475316,
				"y": -4.7656942169,
				"z": -0.9124592024,
				"element": "C" 
			},
			{
				"x": 1.0011156895,
				"y": -4.3918069244,
				"z": -1.6853936286,
				"element": "C" 
			},
			{
				"x": 1.5067448346,
				"y": -3.0989084234,
				"z": -1.6251056939,
				"element": "C" 
			},
			{
				"x": -0.8574656206,
				"y": -1.5266861024,
				"z": 0.8873798197,
				"element": "C" 
			},
			{
				"x": -1.829780041,
				"y": -1.7772443244,
				"z": 1.5915458151,
				"element": "O" 
			},
			{
				"x": 1.5111314142,
				"y": 1.3108973922,
				"z": -0.0109028215,
				"element": "C" 
			},
			{
				"x": 1.0128044974,
				"y": 2.3360075645,
				"z": 0.7732153728,
				"element": "C" 
			},
			{
				"x": -1.5731524617,
				"y": 0.6776787721,
				"z": 2.2822013455,
				"element": "H" 
			},
			{
				"x": -1.5728606253,
				"y": -4.0860768193,
				"z": 0.5341685307,
				"element": "H" 
			},
			{
				"x": -0.4946194131,
				"y": -5.7790210652,
				"z": -0.9696699405,
				"element": "H" 
			},
			{
				"x": 1.4749251778,
				"y": -5.1175808711,
				"z": -2.3395319195,
				"element": "H" 
			},
			{
				"x": 2.3638453534,
				"y": -2.7901363782,
				"z": -2.2135694604,
				"element": "H" 
			},
			{
				"x": 2.3680187712,
				"y": 1.4571740518,
				"z": -0.6588488146,
				"element": "H" 
			},
			{
				"x": 1.4604783611,
				"y": 3.3218481352,
				"z": 0.768324619,
				"element": "H" 
			}
		],
		 "valence_orbital": [ 
			{
				"type": "occ",
				"energy": -0.2935,
				"method": "rhf"
			},
			{
				"type": "occ",
				"energy": -0.28832,
				"method": "rhf"
			},
			{
				"type": "occ",
				"energy": -0.27891,
				"method": "rhf"
			},
			{
				"type": "occ",
				"energy": -0.26593,
				"method": "rhf"
			},
			{
				"type": "occ",
				"energy": -0.25241,
				"method": "rhf"
			},
			{
				"type": "unocc",
				"energy": -0.09267,
				"method": "rhf"
			},
			{
				"type": "unocc",
				"energy": -0.08432,
				"method": "rhf"
			},
			{
				"type": "unocc",
				"energy": -0.03314,
				"method": "rhf"
			},
			{
				"type": "unocc",
				"energy": -0.02394,
				"method": "rhf"
			},
			{
				"type": "unocc",
				"energy": -0.00521,
				"method": "rhf"
			}
		],
		"cosmo_sigma_profile": { 
			"-0.025": 0.0,
			"-0.024": 0.0,
			"-0.023": 0.0,
			"-0.022": 0.0,
			"-0.021": 0.0,
			"-0.02": 0.0,
			"-0.019": 0.0,
			"-0.018": 0.0,
			"-0.017": 0.0,
			"-0.016": 0.0,
			"-0.015": 0.0,
			"-0.014": 0.0,
			"-0.013": 0.0,
			"-0.012": 0.0,
			"-0.011": 0.0,
			"-0.01": 0.0,
			"-0.009": 1.35805412813,
			"-0.008": 5.10894090076,
			"-0.007": 10.6709205928,
			"-0.006": 15.3051088223,
			"-0.005": 14.7384411434,
			"-0.004": 16.1819200933,
			"-0.003": 16.8765806757,
			"-0.002": 23.8475873534,
			"-0.001": 26.4197165824,
			"0.0": 21.0114889603,
			"0.001": 17.7269354903,
			"0.002": 15.7826673605,
			"0.003": 12.9232471228,
			"0.004": 5.55147954819,
			"0.005": 5.76288331586,
			"0.006": 5.41136598973,
			"0.007": 9.71127599633,
			"0.008": 8.26551952715,
			"0.009": 5.77580401364,
			"0.01": 4.17663587227,
			"0.011": 3.09466973376,
			"0.012": 3.90642880389,
			"0.013": 0.213086184976,
			"0.014": 0.0,
			"0.015": 0.0,
			"0.016": 0.0,
			"0.017": 0.0,
			"0.018": 0.0,
			"0.019": 0.0,
			"0.02": 0.0,
			"0.021": 0.0,
			"0.022": 0.0,
			"0.023": 0.0,
			"0.024": 0.0,
			"0.025": 0.0
		}
	}
}
