{
	 "smiles": "NC1=CC2=C(OC3=C2CCCC3)C=C1", 
	 "Tm": 347.15, 
	 "num_atms": 27, 
	 "gaussian": { 
		 "optdone": 1, 
		 "sigma_profile": "yes", 
		 "theory": "DFT", 
		 "functional": "B3LYP", 
		 "basiset": "6-31G**", 
		 "properties": { 
			 "R2extent": 3810.3206, 
			 "electric_dipole_moment_norm": 1.74676917193, 
			 "electric_quadrupole_moment_norm": 13.1542236917, 
			 "total_energy": -595.098861224, 
			 "HOMO_LUMO_gap": 0.18257, 
			 "cosmo_polarized_energy": -9.13, 
			 "cosmo_cavitation_energy": 28.94, 
			 "cosmo_dispersion_energy": -21.94, 
			 "cosmo_repulsion_energy": 1.73, 
			 "cosmo_total_nonelectrostatic_energy": 8.72, 
			 "SMD_solvation_energy": 4.13 
		},
		"coords": [
			{
				"x": 4.2114997283,
				"y": -1.0311329431,
				"z": 0.8769557047,
				"element": "N" 
			},
			{
				"x": 3.262614676,
				"y": -0.618642656,
				"z": -0.074751782,
				"element": "C" 
			},
			{
				"x": 2.1561922854,
				"y": 0.1498840174,
				"z": 0.3101538875,
				"element": "C" 
			},
			{
				"x": 1.1966302176,
				"y": 0.4889193249,
				"z": -0.65278085,
				"element": "C" 
			},
			{
				"x": 1.3674745387,
				"y": 0.0541455593,
				"z": -1.9803922358,
				"element": "C" 
			},
			{
				"x": 0.3279853286,
				"y": 0.4904951496,
				"z": -2.7715628185,
				"element": "O" 
			},
			{
				"x": -0.4985593618,
				"y": 1.2015941717,
				"z": -1.9348622849,
				"element": "C" 
			},
			{
				"x": -0.0366663475,
				"y": 1.2443525211,
				"z": -0.6558423505,
				"element": "C" 
			},
			{
				"x": -0.7629298529,
				"y": 1.9693459724,
				"z": 0.4412124571,
				"element": "C" 
			},
			{
				"x": -1.8237444405,
				"y": 2.9159199888,
				"z": -0.1591574671,
				"element": "C" 
			},
			{
				"x": -2.6347230154,
				"y": 2.2416792656,
				"z": -1.2809896287,
				"element": "C" 
			},
			{
				"x": -1.7416050098,
				"y": 1.8244572357,
				"z": -2.4695630876,
				"element": "C" 
			},
			{
				"x": 2.4532071005,
				"y": -0.7058119854,
				"z": -2.3887929723,
				"element": "C" 
			},
			{
				"x": 3.3980212829,
				"y": -1.0377605066,
				"z": -1.4195138905,
				"element": "C" 
			},
			{
				"x": 5.1321665051,
				"y": -1.2023088776,
				"z": 0.4942794066,
				"element": "H" 
			},
			{
				"x": 4.2684872646,
				"y": -0.4300441326,
				"z": 1.6886388729,
				"element": "H" 
			},
			{
				"x": 2.0474199,
				"y": 0.469613955,
				"z": 1.3435305234,
				"element": "H" 
			},
			{
				"x": -1.24420763,
				"y": 1.2486943501,
				"z": 1.1188451296,
				"element": "H" 
			},
			{
				"x": -0.0592715534,
				"y": 2.5405243214,
				"z": 1.0603867704,
				"element": "H" 
			},
			{
				"x": -2.4979284857,
				"y": 3.2682737232,
				"z": 0.6294754303,
				"element": "H" 
			},
			{
				"x": -1.322252993,
				"y": 3.8041095068,
				"z": -0.565885536,
				"element": "H" 
			},
			{
				"x": -3.4256649341,
				"y": 2.9129906335,
				"z": -1.6325031495,
				"element": "H" 
			},
			{
				"x": -3.1321578204,
				"y": 1.3499693179,
				"z": -0.8781798905,
				"element": "H" 
			},
			{
				"x": -1.49207028,
				"y": 2.6993232359,
				"z": -3.0879101549,
				"element": "H" 
			},
			{
				"x": -2.2694880562,
				"y": 1.1242433904,
				"z": -3.128435936,
				"element": "H" 
			},
			{
				"x": 2.5631752589,
				"y": -1.0274082871,
				"z": -3.4190490821,
				"element": "H" 
			},
			{
				"x": 4.259195694,
				"y": -1.6396262523,
				"z": -1.6978050656,
				"element": "H" 
			}
		],
		 "valence_orbital": [ 
			{
				"type": "occ",
				"energy": -0.31233,
				"method": "rhf"
			},
			{
				"type": "occ",
				"energy": -0.28623,
				"method": "rhf"
			},
			{
				"type": "occ",
				"energy": -0.26826,
				"method": "rhf"
			},
			{
				"type": "occ",
				"energy": -0.2003,
				"method": "rhf"
			},
			{
				"type": "occ",
				"energy": -0.18789,
				"method": "rhf"
			},
			{
				"type": "unocc",
				"energy": -0.00532,
				"method": "rhf"
			},
			{
				"type": "unocc",
				"energy": 0.0368,
				"method": "rhf"
			},
			{
				"type": "unocc",
				"energy": 0.06683,
				"method": "rhf"
			},
			{
				"type": "unocc",
				"energy": 0.087,
				"method": "rhf"
			},
			{
				"type": "unocc",
				"energy": 0.0939,
				"method": "rhf"
			}
		],
		"cosmo_sigma_profile": { 
			"-0.025": 0.0,
			"-0.024": 0.0,
			"-0.023": 0.0,
			"-0.022": 0.0,
			"-0.021": 0.0,
			"-0.02": 0.0,
			"-0.019": 0.0,
			"-0.018": 0.0,
			"-0.017": 0.0,
			"-0.016": 0.0,
			"-0.015": 0.0,
			"-0.014": 0.0,
			"-0.013": 0.0,
			"-0.012": 1.14269164571,
			"-0.011": 2.94696597984,
			"-0.01": 2.54087986631,
			"-0.009": 3.02288795226,
			"-0.008": 3.47112433316,
			"-0.007": 2.49966937507,
			"-0.006": 5.6681229745,
			"-0.005": 7.12923529583,
			"-0.004": 11.4534834595,
			"-0.003": 22.1021340377,
			"-0.002": 28.1784504745,
			"-0.001": 29.1429134522,
			"0.0": 21.6581011689,
			"0.001": 11.6492357599,
			"0.002": 8.97282593159,
			"0.003": 10.730066184,
			"0.004": 13.6037208561,
			"0.005": 12.2003006634,
			"0.006": 11.8664874803,
			"0.007": 8.12989148333,
			"0.008": 1.68080738477,
			"0.009": 2.31773870747,
			"0.01": 1.48559809614,
			"0.011": 1.35585564974,
			"0.012": 0.757591610942,
			"0.013": 0.534658322589,
			"0.014": 0.405491065712,
			"0.015": 0.893742370065,
			"0.016": 0.252857013593,
			"0.017": 0.0,
			"0.018": 0.0,
			"0.019": 0.0,
			"0.02": 0.0,
			"0.021": 0.0,
			"0.022": 0.0,
			"0.023": 0.0,
			"0.024": 0.0,
			"0.025": 0.0
		}
	}
}
