{
	 "smiles": "CN1N=CC2=C1N=CN=C2Cl", 
	 "Tm": 371.65, 
	 "num_atms": 16, 
	 "gaussian": { 
		 "optdone": 1, 
		 "sigma_profile": "yes", 
		 "theory": "DFT", 
		 "functional": "B3LYP", 
		 "basiset": "6-31G**", 
		 "properties": { 
			 "R2extent": 2941.56, 
			 "electric_dipole_moment_norm": 2.41280976664, 
			 "electric_quadrupole_moment_norm": 3.98185014911, 
			 "total_energy": -910.832098974, 
			 "HOMO_LUMO_gap": 0.19063, 
			 "cosmo_polarized_energy": -7.54, 
			 "cosmo_cavitation_energy": 22.51, 
			 "cosmo_dispersion_energy": -17.1, 
			 "cosmo_repulsion_energy": 1.36, 
			 "cosmo_total_nonelectrostatic_energy": 6.77, 
			 "SMD_solvation_energy": 0.26 
		},
		"coords": [
			{
				"x": -0.9799542913,
				"y": 1.7963052344,
				"z": 0.6903151922,
				"element": "C" 
			},
			{
				"x": -0.6415598628,
				"y": 1.2011747227,
				"z": -0.5886815223,
				"element": "N" 
			},
			{
				"x": -1.2766020551,
				"y": 1.5906582361,
				"z": -1.731651577,
				"element": "N" 
			},
			{
				"x": -0.762326723,
				"y": 0.882070197,
				"z": -2.7217484053,
				"element": "C" 
			},
			{
				"x": 0.2406438467,
				"y": -0.0044713685,
				"z": -2.2376492993,
				"element": "C" 
			},
			{
				"x": 0.2842219682,
				"y": 0.2394686178,
				"z": -0.8405687483,
				"element": "C" 
			},
			{
				"x": 1.0910043749,
				"y": -0.373369367,
				"z": 0.0371377951,
				"element": "N" 
			},
			{
				"x": 1.884794391,
				"y": -1.2709714999,
				"z": -0.5344412729,
				"element": "C" 
			},
			{
				"x": 1.951034968,
				"y": -1.6053694409,
				"z": -1.8466209667,
				"element": "N" 
			},
			{
				"x": 1.1426993664,
				"y": -0.9808137656,
				"z": -2.6746576549,
				"element": "C" 
			},
			{
				"x": 1.2189841865,
				"y": -1.4042808429,
				"z": -4.3730038716,
				"element": "Cl" 
			},
			{
				"x": -0.7965096536,
				"y": 2.8733075554,
				"z": 0.6638012388,
				"element": "H" 
			},
			{
				"x": -2.0326395591,
				"y": 1.6158958433,
				"z": 0.9218101217,
				"element": "H" 
			},
			{
				"x": -0.3489752101,
				"y": 1.3315717764,
				"z": 1.4484936522,
				"element": "H" 
			},
			{
				"x": -1.1155013753,
				"y": 1.0215405018,
				"z": -3.7337280742,
				"element": "H" 
			},
			{
				"x": 2.5676856285,
				"y": -1.8080163999,
				"z": 0.1185933926,
				"element": "H" 
			}
		],
		 "valence_orbital": [ 
			{
				"type": "occ",
				"energy": -0.31452,
				"method": "rhf"
			},
			{
				"type": "occ",
				"energy": -0.30697,
				"method": "rhf"
			},
			{
				"type": "occ",
				"energy": -0.28123,
				"method": "rhf"
			},
			{
				"type": "occ",
				"energy": -0.27922,
				"method": "rhf"
			},
			{
				"type": "occ",
				"energy": -0.2576,
				"method": "rhf"
			},
			{
				"type": "unocc",
				"energy": -0.06697,
				"method": "rhf"
			},
			{
				"type": "unocc",
				"energy": -0.02016,
				"method": "rhf"
			},
			{
				"type": "unocc",
				"energy": 0.02497,
				"method": "rhf"
			},
			{
				"type": "unocc",
				"energy": 0.02618,
				"method": "rhf"
			},
			{
				"type": "unocc",
				"energy": 0.10456,
				"method": "rhf"
			}
		],
		"cosmo_sigma_profile": { 
			"-0.025": 0.0,
			"-0.024": 0.0,
			"-0.023": 0.0,
			"-0.022": 0.0,
			"-0.021": 0.0,
			"-0.02": 0.0,
			"-0.019": 0.0,
			"-0.018": 0.0,
			"-0.017": 0.0,
			"-0.016": 0.0,
			"-0.015": 0.0,
			"-0.014": 0.0,
			"-0.013": 0.0,
			"-0.012": 0.0,
			"-0.011": 0.0,
			"-0.01": 0.0889234651367,
			"-0.009": 1.53689231472,
			"-0.008": 3.40108108894,
			"-0.007": 5.85805209267,
			"-0.006": 9.10267097886,
			"-0.005": 8.55204621616,
			"-0.004": 14.8735250764,
			"-0.003": 19.4164701562,
			"-0.002": 21.2310215258,
			"-0.001": 15.0678990393,
			"0.0": 12.3896325912,
			"0.001": 11.1418234731,
			"0.002": 11.9919669323,
			"0.003": 12.026151854,
			"0.004": 7.01176250736,
			"0.005": 6.27461887559,
			"0.006": 3.86946679688,
			"0.007": 3.18765781711,
			"0.008": 3.46751265391,
			"0.009": 3.62049476891,
			"0.01": 2.41434690119,
			"0.011": 2.96728136994,
			"0.012": 2.26069176374,
			"0.013": 1.96024467799,
			"0.014": 0.575960390637,
			"0.015": 0.0,
			"0.016": 0.0,
			"0.017": 0.0,
			"0.018": 0.0,
			"0.019": 0.0,
			"0.02": 0.0,
			"0.021": 0.0,
			"0.022": 0.0,
			"0.023": 0.0,
			"0.024": 0.0,
			"0.025": 0.0
		}
	}
}
