{
	 "smiles": "CC(C)(O)C#CC1=CC=C(C=NO)C=C1", 
	 "Tm": 383.15, 
	 "num_atms": 28, 
	 "gaussian": { 
		 "optdone": 1, 
		 "sigma_profile": "yes", 
		 "theory": "DFT", 
		 "functional": "B3LYP", 
		 "basiset": "6-31G**", 
		 "properties": { 
			 "R2extent": 5846.8316, 
			 "electric_dipole_moment_norm": 1.03370404856, 
			 "electric_quadrupole_moment_norm": 13.293018243, 
			 "total_energy": -670.191506441, 
			 "HOMO_LUMO_gap": 0.16358, 
			 "cosmo_polarized_energy": -12.76, 
			 "cosmo_cavitation_energy": 33.48, 
			 "cosmo_dispersion_energy": -23.64, 
			 "cosmo_repulsion_energy": 1.9, 
			 "cosmo_total_nonelectrostatic_energy": 11.74, 
			 "SMD_solvation_energy": 6.25 
		},
		"coords": [
			{
				"x": 4.3959656337,
				"y": -1.7811141026,
				"z": 1.2250582867,
				"element": "C" 
			},
			{
				"x": 3.0578500241,
				"y": -1.7334617359,
				"z": 1.9871408785,
				"element": "C" 
			},
			{
				"x": 2.5651819311,
				"y": -3.14701573,
				"z": 2.3291446449,
				"element": "C" 
			},
			{
				"x": 3.2398808398,
				"y": -1.0838617165,
				"z": 3.2547830349,
				"element": "O" 
			},
			{
				"x": 2.0478264042,
				"y": -1.0098822123,
				"z": 1.1871111843,
				"element": "C" 
			},
			{
				"x": 1.236299033,
				"y": -0.3816903261,
				"z": 0.5385551718,
				"element": "C" 
			},
			{
				"x": 0.2722269846,
				"y": 0.3477873185,
				"z": -0.2202430462,
				"element": "C" 
			},
			{
				"x": -0.9994000086,
				"y": 0.6333749464,
				"z": 0.3148183257,
				"element": "C" 
			},
			{
				"x": -1.9441205778,
				"y": 1.3439414515,
				"z": -0.4154161235,
				"element": "C" 
			},
			{
				"x": -1.6495877288,
				"y": 1.7970383121,
				"z": -1.7184685184,
				"element": "C" 
			},
			{
				"x": -2.5626321812,
				"y": 2.5527687718,
				"z": -2.5827808559,
				"element": "C" 
			},
			{
				"x": -3.7657833611,
				"y": 2.9847334248,
				"z": -2.4390569034,
				"element": "N" 
			},
			{
				"x": -4.3372421709,
				"y": 2.6747896795,
				"z": -1.1992797629,
				"element": "O" 
			},
			{
				"x": -0.3757292308,
				"y": 1.5073436453,
				"z": -2.2486640402,
				"element": "C" 
			},
			{
				"x": 0.5697271417,
				"y": 0.7996675304,
				"z": -1.5210943385,
				"element": "C" 
			},
			{
				"x": 4.2919491957,
				"y": -2.3109686023,
				"z": 0.273503108,
				"element": "H" 
			},
			{
				"x": 4.7524048737,
				"y": -0.7683480202,
				"z": 1.0105270674,
				"element": "H" 
			},
			{
				"x": 5.1431270298,
				"y": -2.292007091,
				"z": 1.8391795899,
				"element": "H" 
			},
			{
				"x": 3.3129438574,
				"y": -3.6473665294,
				"z": 2.9514356558,
				"element": "H" 
			},
			{
				"x": 1.6272825162,
				"y": -3.090985081,
				"z": 2.8860110264,
				"element": "H" 
			},
			{
				"x": 2.4050524901,
				"y": -3.7326377571,
				"z": 1.4204560587,
				"element": "H" 
			},
			{
				"x": 3.4402163447,
				"y": -0.1544135279,
				"z": 3.0786291555,
				"element": "H" 
			},
			{
				"x": -1.2377969815,
				"y": 0.2889883307,
				"z": 1.3159510087,
				"element": "H" 
			},
			{
				"x": -2.9125788322,
				"y": 1.5515292702,
				"z": 0.0155068249,
				"element": "H" 
			},
			{
				"x": -2.162881604,
				"y": 2.8185751453,
				"z": -3.5613450079,
				"element": "H" 
			},
			{
				"x": -5.2152619547,
				"y": 3.0702680124,
				"z": -1.2773627941,
				"element": "H" 
			},
			{
				"x": -0.129397187,
				"y": 1.8475954061,
				"z": -3.251205355,
				"element": "H" 
			},
			{
				"x": 1.5446775185,
				"y": 0.5878511874,
				"z": -1.9477942763,
				"element": "H" 
			}
		],
		 "valence_orbital": [ 
			{
				"type": "occ",
				"energy": -0.27365,
				"method": "rhf"
			},
			{
				"type": "occ",
				"energy": -0.26625,
				"method": "rhf"
			},
			{
				"type": "occ",
				"energy": -0.26336,
				"method": "rhf"
			},
			{
				"type": "occ",
				"energy": -0.26012,
				"method": "rhf"
			},
			{
				"type": "occ",
				"energy": -0.22116,
				"method": "rhf"
			},
			{
				"type": "unocc",
				"energy": -0.05758,
				"method": "rhf"
			},
			{
				"type": "unocc",
				"energy": -0.00759,
				"method": "rhf"
			},
			{
				"type": "unocc",
				"energy": 0.02516,
				"method": "rhf"
			},
			{
				"type": "unocc",
				"energy": 0.04972,
				"method": "rhf"
			},
			{
				"type": "unocc",
				"energy": 0.0665,
				"method": "rhf"
			}
		],
		"cosmo_sigma_profile": { 
			"-0.025": 0.0,
			"-0.024": 0.0,
			"-0.023": 0.0,
			"-0.022": 0.0,
			"-0.021": 0.0,
			"-0.02": 0.0,
			"-0.019": 0.0,
			"-0.018": 0.355973972177,
			"-0.017": 0.854075391018,
			"-0.016": 1.23585241007,
			"-0.015": 1.68433686519,
			"-0.014": 1.57831202851,
			"-0.013": 1.3642180022,
			"-0.012": 1.5084539245,
			"-0.011": 1.49058190947,
			"-0.01": 1.43932127751,
			"-0.009": 1.33740292344,
			"-0.008": 3.89623780946,
			"-0.007": 6.36788187543,
			"-0.006": 9.41498594038,
			"-0.005": 10.016782817,
			"-0.004": 18.5774260144,
			"-0.003": 19.2517054978,
			"-0.002": 17.7110198223,
			"-0.001": 18.6593840933,
			"0.0": 23.5676638395,
			"0.001": 18.7147902212,
			"0.002": 21.043284101,
			"0.003": 26.4255439875,
			"0.004": 18.7993903282,
			"0.005": 11.7092704761,
			"0.006": 6.23511809677,
			"0.007": 4.73873521061,
			"0.008": 3.9029296566,
			"0.009": 2.3730216166,
			"0.01": 2.94031217454,
			"0.011": 2.36589259227,
			"0.012": 2.14280219318,
			"0.013": 2.90565739123,
			"0.014": 1.16626282347,
			"0.015": 0.0,
			"0.016": 0.0,
			"0.017": 0.0,
			"0.018": 0.0,
			"0.019": 0.0,
			"0.02": 0.0,
			"0.021": 0.0,
			"0.022": 0.0,
			"0.023": 0.0,
			"0.024": 0.0,
			"0.025": 0.0
		}
	}
}
