{
	 "smiles": "ClC1=CC=C(Cl)C=C1", 
	 "Tm": 326.65, 
	 "num_atms": 12, 
	 "gaussian": { 
		 "optdone": 1, 
		 "sigma_profile": "yes", 
		 "theory": "DFT", 
		 "functional": "B3LYP", 
		 "basiset": "6-31G**", 
		 "properties": { 
			 "R2extent": 1848.196, 
			 "electric_dipole_moment_norm": 0.0, 
			 "electric_quadrupole_moment_norm": 7.32203167161, 
			 "total_energy": -1151.43426978, 
			 "HOMO_LUMO_gap": 0.21983, 
			 "cosmo_polarized_energy": -3.8, 
			 "cosmo_cavitation_energy": 19.81, 
			 "cosmo_dispersion_energy": -15.15, 
			 "cosmo_repulsion_energy": 1.26, 
			 "cosmo_total_nonelectrostatic_energy": 5.92, 
			 "SMD_solvation_energy": 2.89 
		},
		"coords": [
			{
				"x": -1.5901230316,
				"y": -1.6363863384,
				"z": 2.3695699314,
				"element": "Cl" 
			},
			{
				"x": -0.9356937979,
				"y": -0.4127763371,
				"z": 1.2934452436,
				"element": "C" 
			},
			{
				"x": -0.0190024823,
				"y": 0.5156923423,
				"z": 1.7863005057,
				"element": "C" 
			},
			{
				"x": 0.5007911913,
				"y": 1.4875417195,
				"z": 0.9315718832,
				"element": "C" 
			},
			{
				"x": 0.0958438011,
				"y": 1.5158762571,
				"z": -0.4027788735,
				"element": "C" 
			},
			{
				"x": 0.7502825157,
				"y": 2.7394779118,
				"z": -1.478905901,
				"element": "Cl" 
			},
			{
				"x": -0.8208504588,
				"y": 0.5874098533,
				"z": -0.8956336668,
				"element": "C" 
			},
			{
				"x": -1.3406432934,
				"y": -0.3844383412,
				"z": -0.0409061272,
				"element": "C" 
			},
			{
				"x": 0.2861461656,
				"y": 0.4808568261,
				"z": 2.8261317117,
				"element": "H" 
			},
			{
				"x": 1.2142354315,
				"y": 2.2161269347,
				"z": 1.2999939761,
				"element": "H" 
			},
			{
				"x": -1.1259986904,
				"y": 0.622246113,
				"z": -1.9354640418,
				"element": "H" 
			},
			{
				"x": -2.0540873509,
				"y": -1.1130269412,
				"z": -0.4093246413,
				"element": "H" 
			}
		],
		 "valence_orbital": [ 
			{
				"type": "occ",
				"energy": -0.32311,
				"method": "rhf"
			},
			{
				"type": "occ",
				"energy": -0.32033,
				"method": "rhf"
			},
			{
				"type": "occ",
				"energy": -0.31843,
				"method": "rhf"
			},
			{
				"type": "occ",
				"energy": -0.2782,
				"method": "rhf"
			},
			{
				"type": "occ",
				"energy": -0.24784,
				"method": "rhf"
			},
			{
				"type": "unocc",
				"energy": -0.02801,
				"method": "rhf"
			},
			{
				"type": "unocc",
				"energy": -0.02599,
				"method": "rhf"
			},
			{
				"type": "unocc",
				"energy": 0.01268,
				"method": "rhf"
			},
			{
				"type": "unocc",
				"energy": 0.03433,
				"method": "rhf"
			},
			{
				"type": "unocc",
				"energy": 0.12623,
				"method": "rhf"
			}
		],
		"cosmo_sigma_profile": { 
			"-0.025": 0.0,
			"-0.024": 0.0,
			"-0.023": 0.0,
			"-0.022": 0.0,
			"-0.021": 0.0,
			"-0.02": 0.0,
			"-0.019": 0.0,
			"-0.018": 0.0,
			"-0.017": 0.0,
			"-0.016": 0.0,
			"-0.015": 0.0,
			"-0.014": 0.0,
			"-0.013": 0.0,
			"-0.012": 0.0,
			"-0.011": 0.0,
			"-0.01": 0.0,
			"-0.009": 0.0,
			"-0.008": 4.32643989614,
			"-0.007": 8.37368500446,
			"-0.006": 8.43538329272,
			"-0.005": 5.48488177364,
			"-0.004": 6.57186540215,
			"-0.003": 6.7450479826,
			"-0.002": 7.86004457932,
			"-0.001": 11.7415644854,
			"0.0": 12.7222760505,
			"0.001": 21.2249477261,
			"0.002": 26.2405690498,
			"0.003": 16.6339122149,
			"0.004": 19.7823861319,
			"0.005": 8.0520231195,
			"0.006": 0.0,
			"0.007": 0.0,
			"0.008": 0.0,
			"0.009": 0.0,
			"0.01": 0.0,
			"0.011": 0.0,
			"0.012": 0.0,
			"0.013": 0.0,
			"0.014": 0.0,
			"0.015": 0.0,
			"0.016": 0.0,
			"0.017": 0.0,
			"0.018": 0.0,
			"0.019": 0.0,
			"0.02": 0.0,
			"0.021": 0.0,
			"0.022": 0.0,
			"0.023": 0.0,
			"0.024": 0.0,
			"0.025": 0.0
		}
	}
}
