{
	 "smiles": "BrC1=CN2N=CN=C2N=C1", 
	 "Tm": 458.15, 
	 "num_atms": 13, 
	 "gaussian": { 
		 "optdone": 1, 
		 "sigma_profile": "yes", 
		 "theory": "DFT", 
		 "functional": "B3LYP", 
		 "basiset": "6-31G**", 
		 "properties": { 
			 "R2extent": 3308.7116, 
			 "electric_dipole_moment_norm": 2.79197171547, 
			 "electric_quadrupole_moment_norm": 2.49635743835, 
			 "total_energy": -2982.71306191, 
			 "HOMO_LUMO_gap": 0.18407, 
			 "cosmo_polarized_energy": -11.18, 
			 "cosmo_cavitation_energy": 20.42, 
			 "cosmo_dispersion_energy": -16.01, 
			 "cosmo_repulsion_energy": 1.26, 
			 "cosmo_total_nonelectrostatic_energy": 5.68, 
			 "SMD_solvation_energy": -1.49 
		},
		"coords": [
			{
				"x": 1.9654741858,
				"y": -3.5668583448,
				"z": 0.6762533191,
				"element": "Br" 
			},
			{
				"x": 0.814203526,
				"y": -2.1330256104,
				"z": 0.2143049162,
				"element": "C" 
			},
			{
				"x": -0.4342058189,
				"y": -2.383192411,
				"z": -0.2957292771,
				"element": "C" 
			},
			{
				"x": -1.1896766369,
				"y": -1.2968193416,
				"z": -0.5977908811,
				"element": "N" 
			},
			{
				"x": -2.4420222676,
				"y": -1.2799803208,
				"z": -1.1080152988,
				"element": "N" 
			},
			{
				"x": -2.6690464996,
				"y": 0.0370394592,
				"z": -1.1932739999,
				"element": "C" 
			},
			{
				"x": -1.6810120184,
				"y": 0.8619997757,
				"z": -0.7863047628,
				"element": "N" 
			},
			{
				"x": -0.7277671353,
				"y": 0.0158178565,
				"z": -0.4025702894,
				"element": "C" 
			},
			{
				"x": 0.4969192909,
				"y": 0.258286167,
				"z": 0.0977137745,
				"element": "N" 
			},
			{
				"x": 1.2418513687,
				"y": -0.7864631036,
				"z": 0.3956802448,
				"element": "C" 
			},
			{
				"x": -0.863377251,
				"y": -3.3601225809,
				"z": -0.4757906781,
				"element": "H" 
			},
			{
				"x": -3.6133165594,
				"y": 0.4010909082,
				"z": -1.5759817379,
				"element": "H" 
			},
			{
				"x": 2.2324758158,
				"y": -0.5950724535,
				"z": 0.8004046703,
				"element": "H" 
			}
		],
		 "valence_orbital": [ 
			{
				"type": "occ",
				"energy": -0.32067,
				"method": "rhf"
			},
			{
				"type": "occ",
				"energy": -0.29509,
				"method": "rhf"
			},
			{
				"type": "occ",
				"energy": -0.29268,
				"method": "rhf"
			},
			{
				"type": "occ",
				"energy": -0.2761,
				"method": "rhf"
			},
			{
				"type": "occ",
				"energy": -0.26408,
				"method": "rhf"
			},
			{
				"type": "unocc",
				"energy": -0.08001,
				"method": "rhf"
			},
			{
				"type": "unocc",
				"energy": -0.03751,
				"method": "rhf"
			},
			{
				"type": "unocc",
				"energy": -0.0229,
				"method": "rhf"
			},
			{
				"type": "unocc",
				"energy": 0.03461,
				"method": "rhf"
			},
			{
				"type": "unocc",
				"energy": 0.10128,
				"method": "rhf"
			}
		],
		"cosmo_sigma_profile": { 
			"-0.025": 0.0,
			"-0.024": 0.0,
			"-0.023": 0.0,
			"-0.022": 0.0,
			"-0.021": 0.0,
			"-0.02": 0.0,
			"-0.019": 0.0,
			"-0.018": 0.0,
			"-0.017": 0.0,
			"-0.016": 0.0,
			"-0.015": 0.0,
			"-0.014": 0.0,
			"-0.013": 0.0920590203684,
			"-0.012": 1.38471464858,
			"-0.011": 1.35465158743,
			"-0.01": 2.82178938371,
			"-0.009": 4.51015669479,
			"-0.008": 4.83207877473,
			"-0.007": 7.45076414693,
			"-0.006": 7.56334981332,
			"-0.005": 10.3683475378,
			"-0.004": 12.2091833049,
			"-0.003": 13.9631912218,
			"-0.002": 10.0086436112,
			"-0.001": 10.8253846421,
			"0.0": 9.71226750987,
			"0.001": 10.5704346604,
			"0.002": 11.2513426165,
			"0.003": 12.1898278405,
			"0.004": 5.2001968423,
			"0.005": 2.91306412981,
			"0.006": 4.16704947185,
			"0.007": 3.3512833445,
			"0.008": 2.80064370773,
			"0.009": 2.8174208941,
			"0.01": 3.80582456622,
			"0.011": 3.88701824515,
			"0.012": 3.88251391651,
			"0.013": 2.68821770366,
			"0.014": 1.6728878435,
			"0.015": 1.14295365876,
			"0.016": 0.212187084881,
			"0.017": 0.0,
			"0.018": 0.0,
			"0.019": 0.0,
			"0.02": 0.0,
			"0.021": 0.0,
			"0.022": 0.0,
			"0.023": 0.0,
			"0.024": 0.0,
			"0.025": 0.0
		}
	}
}
