{
	 "smiles": "CCOC(=O)C1=CC=CC=C1C(C1=CC(Br)=C(O)C(Br)=C1)=C1C=C(Br)C(=O)C(Br)=C1", 
	 "Tm": 483.15, 
	 "num_atms": 44, 
	 "gaussian": { 
		 "optdone": 1, 
		 "sigma_profile": "yes", 
		 "theory": "DFT", 
		 "functional": "B3LYP", 
		 "basiset": "6-31G**", 
		 "properties": { 
			 "R2extent": 24882.8216, 
			 "electric_dipole_moment_norm": 8.52966552041, 
			 "electric_quadrupole_moment_norm": 40.9276663428, 
			 "total_energy": -11433.2708853, 
			 "HOMO_LUMO_gap": 0.11498, 
			 "cosmo_polarized_energy": -22.6, 
			 "cosmo_cavitation_energy": 58.69, 
			 "cosmo_dispersion_energy": -39.61, 
			 "cosmo_repulsion_energy": 3.13, 
			 "cosmo_total_nonelectrostatic_energy": 22.21, 
			 "SMD_solvation_energy": 7.15 
		},
		"coords": [
			{
				"x": -0.4309670875,
				"y": 5.7690743661,
				"z": -0.6446856058,
				"element": "C" 
			},
			{
				"x": 0.2976186632,
				"y": 4.4394904939,
				"z": -0.6592609825,
				"element": "C" 
			},
			{
				"x": -0.6949687697,
				"y": 3.4017601762,
				"z": -0.851512963,
				"element": "O" 
			},
			{
				"x": -0.2251933481,
				"y": 2.139699516,
				"z": -0.8990966348,
				"element": "C" 
			},
			{
				"x": 0.953026681,
				"y": 1.8628766998,
				"z": -0.771854376,
				"element": "O" 
			},
			{
				"x": -1.3080179895,
				"y": 1.1390487148,
				"z": -1.1448351469,
				"element": "C" 
			},
			{
				"x": -2.5676959827,
				"y": 1.5628778313,
				"z": -1.5884668785,
				"element": "C" 
			},
			{
				"x": -3.5632501173,
				"y": 0.6406394135,
				"z": -1.9050978012,
				"element": "C" 
			},
			{
				"x": -3.3015115921,
				"y": -0.723723699,
				"z": -1.7896145608,
				"element": "C" 
			},
			{
				"x": -2.0508710985,
				"y": -1.1577895794,
				"z": -1.3480280439,
				"element": "C" 
			},
			{
				"x": -1.0398850098,
				"y": -0.2446161602,
				"z": -1.0103943535,
				"element": "C" 
			},
			{
				"x": 0.2342929498,
				"y": -0.7883935691,
				"z": -0.4484443219,
				"element": "C" 
			},
			{
				"x": 0.4755571794,
				"y": -0.5204714292,
				"z": 0.9852397118,
				"element": "C" 
			},
			{
				"x": -0.5859645862,
				"y": -0.5832075498,
				"z": 1.9063022077,
				"element": "C" 
			},
			{
				"x": -0.3784577686,
				"y": -0.339824245,
				"z": 3.2567008571,
				"element": "C" 
			},
			{
				"x": -1.8368321476,
				"y": -0.4667215127,
				"z": 4.4706599637,
				"element": "Br" 
			},
			{
				"x": 0.8932012664,
				"y": 0.0010542691,
				"z": 3.7495919607,
				"element": "C" 
			},
			{
				"x": 1.0514210611,
				"y": 0.235553819,
				"z": 5.0633008943,
				"element": "O" 
			},
			{
				"x": 1.9384554601,
				"y": 0.0889637246,
				"z": 2.8120129936,
				"element": "C" 
			},
			{
				"x": 3.6696282344,
				"y": 0.5993618109,
				"z": 3.4540796111,
				"element": "Br" 
			},
			{
				"x": 1.7484157653,
				"y": -0.1595984812,
				"z": 1.461955183,
				"element": "C" 
			},
			{
				"x": 1.0630473374,
				"y": -1.579610139,
				"z": -1.2233490021,
				"element": "C" 
			},
			{
				"x": 0.8978693625,
				"y": -1.6393919289,
				"z": -2.6649403497,
				"element": "C" 
			},
			{
				"x": 1.7149031042,
				"y": -2.3842637436,
				"z": -3.4431642616,
				"element": "C" 
			},
			{
				"x": 1.499445631,
				"y": -2.4015289714,
				"z": -5.3300427397,
				"element": "Br" 
			},
			{
				"x": 2.8212807629,
				"y": -3.2130747759,
				"z": -2.9054668886,
				"element": "C" 
			},
			{
				"x": 3.559705077,
				"y": -3.8882806895,
				"z": -3.6070851515,
				"element": "O" 
			},
			{
				"x": 2.9309507049,
				"y": -3.1493649053,
				"z": -1.4273077635,
				"element": "C" 
			},
			{
				"x": 4.2732880101,
				"y": -4.2401268805,
				"z": -0.6427374965,
				"element": "Br" 
			},
			{
				"x": 2.1231391407,
				"y": -2.3909931342,
				"z": -0.6520053333,
				"element": "C" 
			},
			{
				"x": -1.1623601462,
				"y": 5.8065328097,
				"z": 0.1676083592,
				"element": "H" 
			},
			{
				"x": 0.2875680397,
				"y": 6.581218432,
				"z": -0.4978838447,
				"element": "H" 
			},
			{
				"x": -0.9537514267,
				"y": 5.9407474488,
				"z": -1.5899896209,
				"element": "H" 
			},
			{
				"x": 0.8257915575,
				"y": 4.2469620581,
				"z": 0.2794749887,
				"element": "H" 
			},
			{
				"x": 1.0307422291,
				"y": 4.3772114694,
				"z": -1.4693262158,
				"element": "H" 
			},
			{
				"x": -2.7518063008,
				"y": 2.625188399,
				"z": -1.6945054262,
				"element": "H" 
			},
			{
				"x": -4.5330457841,
				"y": 0.986877557,
				"z": -2.2485885491,
				"element": "H" 
			},
			{
				"x": -4.0659213793,
				"y": -1.4530173008,
				"z": -2.0403474872,
				"element": "H" 
			},
			{
				"x": -1.8505871329,
				"y": -2.2197895788,
				"z": -1.2465897128,
				"element": "H" 
			},
			{
				"x": -1.5822789382,
				"y": -0.8425364022,
				"z": 1.5692640192,
				"element": "H" 
			},
			{
				"x": 1.9833863797,
				"y": 0.4576687278,
				"z": 5.229087225,
				"element": "H" 
			},
			{
				"x": 2.5693397605,
				"y": -0.0288560967,
				"z": 0.7691760049,
				"element": "H" 
			},
			{
				"x": 0.1229092001,
				"y": -1.0387882732,
				"z": -3.1240415951,
				"element": "H" 
			},
			{
				"x": 2.2360830479,
				"y": -2.4235386915,
				"z": 0.4238091272,
				"element": "H" 
			}
		],
		 "valence_orbital": [ 
			{
				"type": "occ",
				"energy": -0.26332,
				"method": "rhf"
			},
			{
				"type": "occ",
				"energy": -0.25492,
				"method": "rhf"
			},
			{
				"type": "occ",
				"energy": -0.2526,
				"method": "rhf"
			},
			{
				"type": "occ",
				"energy": -0.25017,
				"method": "rhf"
			},
			{
				"type": "occ",
				"energy": -0.22308,
				"method": "rhf"
			},
			{
				"type": "unocc",
				"energy": -0.1081,
				"method": "rhf"
			},
			{
				"type": "unocc",
				"energy": -0.0664,
				"method": "rhf"
			},
			{
				"type": "unocc",
				"energy": -0.04471,
				"method": "rhf"
			},
			{
				"type": "unocc",
				"energy": -0.03449,
				"method": "rhf"
			},
			{
				"type": "unocc",
				"energy": -0.03183,
				"method": "rhf"
			}
		],
		"cosmo_sigma_profile": { 
			"-0.025": 0.0,
			"-0.024": 0.0,
			"-0.023": 0.0,
			"-0.022": 0.0,
			"-0.021": 0.0,
			"-0.02": 0.0,
			"-0.019": 0.0,
			"-0.018": 0.0,
			"-0.017": 0.0,
			"-0.016": 0.168189965923,
			"-0.015": 0.817884551089,
			"-0.014": 0.603471694249,
			"-0.013": 0.211869108428,
			"-0.012": 0.989282674181,
			"-0.011": 1.12520400669,
			"-0.01": 0.873062817352,
			"-0.009": 1.10548090214,
			"-0.008": 3.01658634184,
			"-0.007": 11.4409629088,
			"-0.006": 20.3408786066,
			"-0.005": 29.7303912435,
			"-0.004": 33.8346776554,
			"-0.003": 39.2557411137,
			"-0.002": 41.2720460888,
			"-0.001": 48.3601443241,
			"0.0": 46.481789548,
			"0.001": 41.4708457045,
			"0.002": 35.917814656,
			"0.003": 35.533491807,
			"0.004": 32.2211406107,
			"0.005": 14.7486819317,
			"0.006": 8.93716938387,
			"0.007": 5.09568789599,
			"0.008": 5.33759100295,
			"0.009": 6.57537953844,
			"0.01": 4.73735442571,
			"0.011": 4.46623538418,
			"0.012": 6.11186335419,
			"0.013": 3.38963483293,
			"0.014": 0.12165809491,
			"0.015": 0.0,
			"0.016": 0.0,
			"0.017": 0.0,
			"0.018": 0.0,
			"0.019": 0.0,
			"0.02": 0.0,
			"0.021": 0.0,
			"0.022": 0.0,
			"0.023": 0.0,
			"0.024": 0.0,
			"0.025": 0.0
		}
	}
}
