{
	 "smiles": "O=C1NC(=O)C(C(=O)N1)N(=O)=O", 
	 "Tm": 453.15, 
	 "num_atms": 15, 
	 "gaussian": { 
		 "optdone": 1, 
		 "sigma_profile": "yes", 
		 "theory": "DFT", 
		 "functional": "B3LYP", 
		 "basiset": "6-31G**", 
		 "properties": { 
			 "R2extent": 2748.0262, 
			 "electric_dipole_moment_norm": 2.96913669776, 
			 "electric_quadrupole_moment_norm": 10.4858125117, 
			 "total_energy": -694.532804421, 
			 "HOMO_LUMO_gap": 0.19792, 
			 "cosmo_polarized_energy": -18.85, 
			 "cosmo_cavitation_energy": 21.89, 
			 "cosmo_dispersion_energy": -15.59, 
			 "cosmo_repulsion_energy": 1.26, 
			 "cosmo_total_nonelectrostatic_energy": 7.57, 
			 "SMD_solvation_energy": 8.45 
		},
		"coords": [
			{
				"x": -0.6929950944,
				"y": -3.1623204622,
				"z": -0.3641473048,
				"element": "O" 
			},
			{
				"x": -0.117333895,
				"y": -2.266469331,
				"z": -0.9387820244,
				"element": "C" 
			},
			{
				"x": 1.2275145358,
				"y": -2.3465919305,
				"z": -1.2992911844,
				"element": "N" 
			},
			{
				"x": 1.9976859506,
				"y": -1.392800401,
				"z": -1.9348554439,
				"element": "C" 
			},
			{
				"x": 3.1472367896,
				"y": -1.586122014,
				"z": -2.26277582,
				"element": "O" 
			},
			{
				"x": 1.305819258,
				"y": -0.0477088802,
				"z": -2.1750538702,
				"element": "C" 
			},
			{
				"x": -0.2102066077,
				"y": 0.0069406402,
				"z": -1.9644126239,
				"element": "C" 
			},
			{
				"x": -0.8689899579,
				"y": 0.9600569828,
				"z": -2.3164635462,
				"element": "O" 
			},
			{
				"x": -0.7564020511,
				"y": -1.0888281736,
				"z": -1.3258356053,
				"element": "N" 
			},
			{
				"x": 1.919287192,
				"y": 0.9411457819,
				"z": -1.1773905177,
				"element": "N" 
			},
			{
				"x": 1.7344730669,
				"y": 0.672662287,
				"z": 0.0053541079,
				"element": "O" 
			},
			{
				"x": 2.52623247,
				"y": 1.8911223163,
				"z": -1.6335155649,
				"element": "O" 
			},
			{
				"x": 1.6827541271,
				"y": -3.2224015897,
				"z": -1.0668169938,
				"element": "H" 
			},
			{
				"x": 1.5568077485,
				"y": 0.3272715028,
				"z": -3.1653877232,
				"element": "H" 
			},
			{
				"x": -1.7469835327,
				"y": -1.0480567287,
				"z": -1.1127258852,
				"element": "H" 
			}
		],
		 "valence_orbital": [ 
			{
				"type": "occ",
				"energy": -0.33499,
				"method": "rhf"
			},
			{
				"type": "occ",
				"energy": -0.33214,
				"method": "rhf"
			},
			{
				"type": "occ",
				"energy": -0.32513,
				"method": "rhf"
			},
			{
				"type": "occ",
				"energy": -0.32155,
				"method": "rhf"
			},
			{
				"type": "occ",
				"energy": -0.29684,
				"method": "rhf"
			},
			{
				"type": "unocc",
				"energy": -0.09892,
				"method": "rhf"
			},
			{
				"type": "unocc",
				"energy": -0.09089,
				"method": "rhf"
			},
			{
				"type": "unocc",
				"energy": -0.02783,
				"method": "rhf"
			},
			{
				"type": "unocc",
				"energy": 0.01409,
				"method": "rhf"
			},
			{
				"type": "unocc",
				"energy": 0.0531,
				"method": "rhf"
			}
		],
		"cosmo_sigma_profile": { 
			"-0.025": 0.0,
			"-0.024": 0.0,
			"-0.023": 0.0,
			"-0.022": 0.0,
			"-0.021": 0.0,
			"-0.02": 0.0,
			"-0.019": 0.0,
			"-0.018": 0.967225795183,
			"-0.017": 2.17873223041,
			"-0.016": 1.90037869057,
			"-0.015": 2.16610956428,
			"-0.014": 2.2733769508,
			"-0.013": 4.14203473376,
			"-0.012": 4.46332923604,
			"-0.011": 2.71938878931,
			"-0.01": 3.93354988316,
			"-0.009": 4.03313548764,
			"-0.008": 3.08833464585,
			"-0.007": 3.70572427635,
			"-0.006": 5.97404452522,
			"-0.005": 7.34855597928,
			"-0.004": 8.87358721685,
			"-0.003": 9.80943070944,
			"-0.002": 8.34160106415,
			"-0.001": 6.28546963139,
			"0.0": 5.12403508677,
			"0.001": 4.46021185203,
			"0.002": 4.80936816706,
			"0.003": 6.6812727956,
			"0.004": 6.65328693893,
			"0.005": 11.1952092173,
			"0.006": 11.5202026868,
			"0.007": 8.77030387164,
			"0.008": 7.42738530956,
			"0.009": 8.03533704748,
			"0.01": 14.4424320114,
			"0.011": 3.9792574657,
			"0.012": 0.00791552804893,
			"0.013": 0.0,
			"0.014": 0.0,
			"0.015": 0.0,
			"0.016": 0.0,
			"0.017": 0.0,
			"0.018": 0.0,
			"0.019": 0.0,
			"0.02": 0.0,
			"0.021": 0.0,
			"0.022": 0.0,
			"0.023": 0.0,
			"0.024": 0.0,
			"0.025": 0.0
		}
	}
}
