{
	 "smiles": "COC1=CC=C(OC2=NC=CC=C2[N+]([O-])=O)C=C1", 
	 "Tm": 371.15, 
	 "num_atms": 28, 
	 "gaussian": { 
		 "optdone": 1, 
		 "sigma_profile": "yes", 
		 "theory": "DFT", 
		 "functional": "B3LYP", 
		 "basiset": "6-31G**", 
		 "properties": { 
			 "R2extent": 6664.7045, 
			 "electric_dipole_moment_norm": 4.69955256168, 
			 "electric_quadrupole_moment_norm": 24.8204050046, 
			 "total_energy": -873.567219524, 
			 "HOMO_LUMO_gap": 0.13242, 
			 "cosmo_polarized_energy": -14.59, 
			 "cosmo_cavitation_energy": 34.11, 
			 "cosmo_dispersion_energy": -24.45, 
			 "cosmo_repulsion_energy": 1.9, 
			 "cosmo_total_nonelectrostatic_energy": 11.55, 
			 "SMD_solvation_energy": 8.29 
		},
		"coords": [
			{
				"x": -2.23222405,
				"y": 3.9985101521,
				"z": -0.449034033,
				"element": "C" 
			},
			{
				"x": -0.946454307,
				"y": 3.666284213,
				"z": 0.049500713,
				"element": "O" 
			},
			{
				"x": -0.4610123769,
				"y": 2.4154231692,
				"z": -0.2002707605,
				"element": "C" 
			},
			{
				"x": 0.8187364233,
				"y": 2.1483408505,
				"z": 0.3127994613,
				"element": "C" 
			},
			{
				"x": 1.4092364241,
				"y": 0.9076627539,
				"z": 0.1158715431,
				"element": "C" 
			},
			{
				"x": 0.7166180416,
				"y": -0.0746863886,
				"z": -0.5925578681,
				"element": "C" 
			},
			{
				"x": 1.3299256847,
				"y": -1.2991345872,
				"z": -0.8985748378,
				"element": "O" 
			},
			{
				"x": 1.4612237133,
				"y": -2.2382571931,
				"z": 0.0541608651,
				"element": "C" 
			},
			{
				"x": 0.959844604,
				"y": -2.0115652269,
				"z": 1.2645804066,
				"element": "N" 
			},
			{
				"x": 1.1174549718,
				"y": -2.9335294567,
				"z": 2.2182496243,
				"element": "C" 
			},
			{
				"x": 1.8017041674,
				"y": -4.1333161028,
				"z": 2.0297896845,
				"element": "C" 
			},
			{
				"x": 2.3324671889,
				"y": -4.3788622454,
				"z": 0.7678550594,
				"element": "C" 
			},
			{
				"x": 2.1554268219,
				"y": -3.4380845852,
				"z": -0.2424054647,
				"element": "C" 
			},
			{
				"x": 2.7007018153,
				"y": -3.7542886269,
				"z": -1.5677372627,
				"element": "N" 
			},
			{
				"x": 3.5660411202,
				"y": -4.6332408478,
				"z": -1.6152358025,
				"element": "O" 
			},
			{
				"x": 2.2594174589,
				"y": -3.1526269933,
				"z": -2.5412373244,
				"element": "O" 
			},
			{
				"x": -0.5446731468,
				"y": 0.1754646446,
				"z": -1.111177684,
				"element": "C" 
			},
			{
				"x": -1.141970242,
				"y": 1.4250476046,
				"z": -0.9171736486,
				"element": "C" 
			},
			{
				"x": -2.27002303,
				"y": 3.9396629113,
				"z": -1.5445764691,
				"element": "H" 
			},
			{
				"x": -3.0105858256,
				"y": 3.3485537315,
				"z": -0.028444791,
				"element": "H" 
			},
			{
				"x": -2.4192480576,
				"y": 5.0277580354,
				"z": -0.1391468251,
				"element": "H" 
			},
			{
				"x": 1.3313520604,
				"y": 2.9325816572,
				"z": 0.859543957,
				"element": "H" 
			},
			{
				"x": 2.4001305222,
				"y": 0.6985849749,
				"z": 0.5042902406,
				"element": "H" 
			},
			{
				"x": 0.6724655032,
				"y": -2.6946219697,
				"z": 3.1822331072,
				"element": "H" 
			},
			{
				"x": 1.9111746254,
				"y": -4.8480381983,
				"z": 2.8372517818,
				"element": "H" 
			},
			{
				"x": 2.8816664825,
				"y": -5.2831638298,
				"z": 0.5354449726,
				"element": "H" 
			},
			{
				"x": -1.0546431071,
				"y": -0.6003377452,
				"z": -1.6722907725,
				"element": "H" 
			},
			{
				"x": -2.1265534862,
				"y": 1.6087792988,
				"z": -1.3295078724,
				"element": "H" 
			}
		],
		 "valence_orbital": [ 
			{
				"type": "occ",
				"energy": -0.28606,
				"method": "rhf"
			},
			{
				"type": "occ",
				"energy": -0.28206,
				"method": "rhf"
			},
			{
				"type": "occ",
				"energy": -0.26307,
				"method": "rhf"
			},
			{
				"type": "occ",
				"energy": -0.25705,
				"method": "rhf"
			},
			{
				"type": "occ",
				"energy": -0.21972,
				"method": "rhf"
			},
			{
				"type": "unocc",
				"energy": -0.0873,
				"method": "rhf"
			},
			{
				"type": "unocc",
				"energy": -0.03353,
				"method": "rhf"
			},
			{
				"type": "unocc",
				"energy": -0.01257,
				"method": "rhf"
			},
			{
				"type": "unocc",
				"energy": -0.00424,
				"method": "rhf"
			},
			{
				"type": "unocc",
				"energy": 0.00942,
				"method": "rhf"
			}
		],
		"cosmo_sigma_profile": { 
			"-0.025": 0.0,
			"-0.024": 0.0,
			"-0.023": 0.0,
			"-0.022": 0.0,
			"-0.021": 0.0,
			"-0.02": 0.0,
			"-0.019": 0.0,
			"-0.018": 0.0,
			"-0.017": 0.0,
			"-0.016": 0.0,
			"-0.015": 0.0,
			"-0.014": 0.0,
			"-0.013": 0.0,
			"-0.012": 0.0,
			"-0.011": 0.0,
			"-0.01": 0.0,
			"-0.009": 0.714529847171,
			"-0.008": 5.95384199123,
			"-0.007": 12.7690562061,
			"-0.006": 19.1207341977,
			"-0.005": 23.7192536103,
			"-0.004": 21.4028665935,
			"-0.003": 24.2083093259,
			"-0.002": 17.68233367,
			"-0.001": 17.1725210601,
			"0.0": 17.587039671,
			"0.001": 12.9596222031,
			"0.002": 12.6624511872,
			"0.003": 15.3440494865,
			"0.004": 15.137214824,
			"0.005": 9.15715463966,
			"0.006": 8.00168278024,
			"0.007": 8.24227094081,
			"0.008": 13.0312372684,
			"0.009": 8.43590058675,
			"0.01": 7.08575939079,
			"0.011": 2.17068539422,
			"0.012": 1.04555627692,
			"0.013": 0.44289733035,
			"0.014": 0.0,
			"0.015": 0.0,
			"0.016": 0.0,
			"0.017": 0.0,
			"0.018": 0.0,
			"0.019": 0.0,
			"0.02": 0.0,
			"0.021": 0.0,
			"0.022": 0.0,
			"0.023": 0.0,
			"0.024": 0.0,
			"0.025": 0.0
		}
	}
}
