{
	 "smiles": "BrCC(Br)(Br)Br", 
	 "Tm": 273.15, 
	 "num_atms": 8, 
	 "gaussian": { 
		 "optdone": 1, 
		 "sigma_profile": "yes", 
		 "theory": "DFT", 
		 "functional": "B3LYP", 
		 "basiset": "6-31G**", 
		 "properties": { 
			 "R2extent": 5955.1248, 
			 "electric_dipole_moment_norm": 1.24835332338, 
			 "electric_quadrupole_moment_norm": 3.03734887361, 
			 "total_energy": -10363.0134347, 
			 "HOMO_LUMO_gap": 0.20342, 
			 "cosmo_polarized_energy": -4.96, 
			 "cosmo_cavitation_energy": 20.64, 
			 "cosmo_dispersion_energy": -16.57, 
			 "cosmo_repulsion_energy": 1.39, 
			 "cosmo_total_nonelectrostatic_energy": 5.45, 
			 "SMD_solvation_energy": -0.93 
		},
		"coords": [
			{
				"x": -0.6672758552,
				"y": -3.4532652491,
				"z": -0.3375165747,
				"element": "Br" 
			},
			{
				"x": 0.0810971734,
				"y": -1.657957521,
				"z": -0.0800893618,
				"element": "C" 
			},
			{
				"x": 1.399045588,
				"y": -1.6249683417,
				"z": 0.6858911235,
				"element": "C" 
			},
			{
				"x": 2.810374555,
				"y": -2.6009384692,
				"z": -0.2591734069,
				"element": "Br" 
			},
			{
				"x": 1.9023508135,
				"y": 0.2916401759,
				"z": 0.7872503379,
				"element": "Br" 
			},
			{
				"x": 1.1969288817,
				"y": -2.3235485655,
				"z": 2.5048724507,
				"element": "Br" 
			},
			{
				"x": -0.6684310371,
				"y": -1.0871192952,
				"z": 0.4653567151,
				"element": "H" 
			},
			{
				"x": 0.2304098806,
				"y": -1.2410427343,
				"z": -1.0745912838,
				"element": "H" 
			}
		],
		 "valence_orbital": [ 
			{
				"type": "occ",
				"energy": -0.30347,
				"method": "rhf"
			},
			{
				"type": "occ",
				"energy": -0.29816,
				"method": "rhf"
			},
			{
				"type": "occ",
				"energy": -0.28853,
				"method": "rhf"
			},
			{
				"type": "occ",
				"energy": -0.28698,
				"method": "rhf"
			},
			{
				"type": "occ",
				"energy": -0.2814,
				"method": "rhf"
			},
			{
				"type": "unocc",
				"energy": -0.07798,
				"method": "rhf"
			},
			{
				"type": "unocc",
				"energy": -0.05007,
				"method": "rhf"
			},
			{
				"type": "unocc",
				"energy": -0.02128,
				"method": "rhf"
			},
			{
				"type": "unocc",
				"energy": 0.00906,
				"method": "rhf"
			},
			{
				"type": "unocc",
				"energy": 0.10444,
				"method": "rhf"
			}
		],
		"cosmo_sigma_profile": { 
			"-0.025": 0.0,
			"-0.024": 0.0,
			"-0.023": 0.0,
			"-0.022": 0.0,
			"-0.021": 0.0,
			"-0.02": 0.0,
			"-0.019": 0.0,
			"-0.018": 0.0,
			"-0.017": 0.0,
			"-0.016": 0.0,
			"-0.015": 0.0,
			"-0.014": 0.0,
			"-0.013": 0.0,
			"-0.012": 0.0,
			"-0.011": 0.00445382221166,
			"-0.01": 1.94493590109,
			"-0.009": 3.58410521933,
			"-0.008": 3.68143321359,
			"-0.007": 5.19769330141,
			"-0.006": 7.04454618886,
			"-0.005": 7.17429279662,
			"-0.004": 8.29926116869,
			"-0.003": 8.44674139902,
			"-0.002": 9.88835550531,
			"-0.001": 10.2162073981,
			"0.0": 11.7173874544,
			"0.001": 14.7642047077,
			"0.002": 24.0047125969,
			"0.003": 35.0939888213,
			"0.004": 14.7124119557,
			"0.005": 10.3535639866,
			"0.006": 1.00969068617,
			"0.007": 0.0,
			"0.008": 0.0,
			"0.009": 0.0,
			"0.01": 0.0,
			"0.011": 0.0,
			"0.012": 0.0,
			"0.013": 0.0,
			"0.014": 0.0,
			"0.015": 0.0,
			"0.016": 0.0,
			"0.017": 0.0,
			"0.018": 0.0,
			"0.019": 0.0,
			"0.02": 0.0,
			"0.021": 0.0,
			"0.022": 0.0,
			"0.023": 0.0,
			"0.024": 0.0,
			"0.025": 0.0
		}
	}
}
