{
	 "smiles": "CCC(O)=O", 
	 "Tm": 252.25, 
	 "num_atms": 11, 
	 "gaussian": { 
		 "optdone": 1, 
		 "sigma_profile": "yes", 
		 "theory": "DFT", 
		 "functional": "B3LYP", 
		 "basiset": "6-31G**", 
		 "properties": { 
			 "R2extent": 638.9872, 
			 "electric_dipole_moment_norm": 4.13995793578, 
			 "electric_quadrupole_moment_norm": 6.74800366553, 
			 "total_energy": -268.395077548, 
			 "HOMO_LUMO_gap": 0.28261, 
			 "cosmo_polarized_energy": -13.15, 
			 "cosmo_cavitation_energy": 14.6, 
			 "cosmo_dispersion_energy": -10.89, 
			 "cosmo_repulsion_energy": 0.99, 
			 "cosmo_total_nonelectrostatic_energy": 4.7, 
			 "SMD_solvation_energy": 4.01 
		},
		"coords": [
			{
				"x": -0.497874686,
				"y": -0.6188876489,
				"z": 2.1655448555,
				"element": "C" 
			},
			{
				"x": 0.9154072116,
				"y": -0.7282018397,
				"z": 1.5978911636,
				"element": "C" 
			},
			{
				"x": 0.940520571,
				"y": -0.7268319438,
				"z": 0.0736746679,
				"element": "C" 
			},
			{
				"x": 2.1787619752,
				"y": -0.8209481031,
				"z": -0.4876403262,
				"element": "O" 
			},
			{
				"x": -0.0346489145,
				"y": -0.647738302,
				"z": -0.629177993,
				"element": "O" 
			},
			{
				"x": -0.979128107,
				"y": 0.3028378122,
				"z": 1.8299563407,
				"element": "H" 
			},
			{
				"x": -1.1164666327,
				"y": -1.4531551629,
				"z": 1.826208893,
				"element": "H" 
			},
			{
				"x": -0.474933003,
				"y": -0.6230213194,
				"z": 3.2589455031,
				"element": "H" 
			},
			{
				"x": 1.407286325,
				"y": -1.6473757725,
				"z": 1.946116354,
				"element": "H" 
			},
			{
				"x": 1.5441333605,
				"y": 0.101741999,
				"z": 1.9500243644,
				"element": "H" 
			},
			{
				"x": 2.8547418998,
				"y": -0.8755197189,
				"z": 0.202756177,
				"element": "H" 
			}
		],
		 "valence_orbital": [ 
			{
				"type": "occ",
				"energy": -0.37855,
				"method": "rhf"
			},
			{
				"type": "occ",
				"energy": -0.36196,
				"method": "rhf"
			},
			{
				"type": "occ",
				"energy": -0.36016,
				"method": "rhf"
			},
			{
				"type": "occ",
				"energy": -0.31491,
				"method": "rhf"
			},
			{
				"type": "occ",
				"energy": -0.27083,
				"method": "rhf"
			},
			{
				"type": "unocc",
				"energy": 0.01178,
				"method": "rhf"
			},
			{
				"type": "unocc",
				"energy": 0.0536,
				"method": "rhf"
			},
			{
				"type": "unocc",
				"energy": 0.09732,
				"method": "rhf"
			},
			{
				"type": "unocc",
				"energy": 0.14228,
				"method": "rhf"
			},
			{
				"type": "unocc",
				"energy": 0.15145,
				"method": "rhf"
			}
		],
		"cosmo_sigma_profile": { 
			"-0.025": 0.0,
			"-0.024": 0.0,
			"-0.023": 0.0,
			"-0.022": 0.0,
			"-0.021": 0.0,
			"-0.02": 0.0,
			"-0.019": 0.417418589459,
			"-0.018": 0.974756194485,
			"-0.017": 1.18013290029,
			"-0.016": 1.35474295431,
			"-0.015": 0.878023800158,
			"-0.014": 0.72588061942,
			"-0.013": 1.15131237677,
			"-0.012": 0.972939357064,
			"-0.011": 1.37325449839,
			"-0.01": 1.30338021511,
			"-0.009": 1.26608277551,
			"-0.008": 1.78476276466,
			"-0.007": 3.21837039441,
			"-0.006": 4.73316222222,
			"-0.005": 3.99905030533,
			"-0.004": 7.67682979468,
			"-0.003": 10.2027325792,
			"-0.002": 11.1742780112,
			"-0.001": 7.59062042569,
			"0.0": 7.41832303642,
			"0.001": 7.03933983492,
			"0.002": 2.27299209526,
			"0.003": 1.4516584522,
			"0.004": 2.40737223398,
			"0.005": 2.09345675344,
			"0.006": 2.41607211391,
			"0.007": 2.58536763242,
			"0.008": 2.34309188306,
			"0.009": 3.32560026513,
			"0.01": 4.26398031651,
			"0.011": 5.74387213011,
			"0.012": 5.96422849393,
			"0.013": 2.59749484719,
			"0.014": 0.277388269208,
			"0.015": 0.0,
			"0.016": 0.0,
			"0.017": 0.0,
			"0.018": 0.0,
			"0.019": 0.0,
			"0.02": 0.0,
			"0.021": 0.0,
			"0.022": 0.0,
			"0.023": 0.0,
			"0.024": 0.0,
			"0.025": 0.0
		}
	}
}
