{
	 "smiles": "CN1N=C(C)C=C1CCl", 
	 "Tm": 338.65, 
	 "num_atms": 18, 
	 "gaussian": { 
		 "optdone": 1, 
		 "sigma_profile": "yes", 
		 "theory": "DFT", 
		 "functional": "B3LYP", 
		 "basiset": "6-31G**", 
		 "properties": { 
			 "R2extent": 1929.9701, 
			 "electric_dipole_moment_norm": 1.9126964056, 
			 "electric_quadrupole_moment_norm": 9.19956855293, 
			 "total_energy": -803.749046801, 
			 "HOMO_LUMO_gap": 0.21736, 
			 "cosmo_polarized_energy": -8.63, 
			 "cosmo_cavitation_energy": 23.18, 
			 "cosmo_dispersion_energy": -17.02, 
			 "cosmo_repulsion_energy": 1.42, 
			 "cosmo_total_nonelectrostatic_energy": 7.58, 
			 "SMD_solvation_energy": 2.94 
		},
		"coords": [
			{
				"x": 1.7667974462,
				"y": 2.0569166078,
				"z": -1.0654540609,
				"element": "C" 
			},
			{
				"x": 0.911341663,
				"y": 0.9820232519,
				"z": -0.5952525459,
				"element": "N" 
			},
			{
				"x": 0.5399020937,
				"y": 0.0028740316,
				"z": -1.4474988935,
				"element": "N" 
			},
			{
				"x": -0.2194476841,
				"y": -0.8316785585,
				"z": -0.7297994055,
				"element": "C" 
			},
			{
				"x": -0.8161498982,
				"y": -2.0504547973,
				"z": -1.3658768684,
				"element": "C" 
			},
			{
				"x": -0.3369117079,
				"y": -0.3787819647,
				"z": 0.6034521935,
				"element": "C" 
			},
			{
				"x": 0.4056858216,
				"y": 0.7904567327,
				"z": 0.6594844551,
				"element": "C" 
			},
			{
				"x": 0.6692132416,
				"y": 1.7021296748,
				"z": 1.794266752,
				"element": "C" 
			},
			{
				"x": -0.3172385317,
				"y": 3.2637235864,
				"z": 1.724176467,
				"element": "Cl" 
			},
			{
				"x": 1.8146569088,
				"y": 1.9757460914,
				"z": -2.1505799058,
				"element": "H" 
			},
			{
				"x": 2.7795047571,
				"y": 1.9684221988,
				"z": -0.6557803751,
				"element": "H" 
			},
			{
				"x": 1.3484397176,
				"y": 3.0274377287,
				"z": -0.7868261239,
				"element": "H" 
			},
			{
				"x": -1.9104439226,
				"y": -2.0353539885,
				"z": -1.3128473837,
				"element": "H" 
			},
			{
				"x": -0.523995268,
				"y": -2.0988128272,
				"z": -2.4171721867,
				"element": "H" 
			},
			{
				"x": -0.4779025621,
				"y": -2.9680401649,
				"z": -0.8716015508,
				"element": "H" 
			},
			{
				"x": -0.8882057981,
				"y": -0.8316057981,
				"z": 1.4152838571,
				"element": "H" 
			},
			{
				"x": 1.7070048324,
				"y": 2.0342509298,
				"z": 1.8425566595,
				"element": "H" 
			},
			{
				"x": 0.3986488907,
				"y": 1.2293472656,
				"z": 2.736668916,
				"element": "H" 
			}
		],
		 "valence_orbital": [ 
			{
				"type": "occ",
				"energy": -0.30384,
				"method": "rhf"
			},
			{
				"type": "occ",
				"energy": -0.29976,
				"method": "rhf"
			},
			{
				"type": "occ",
				"energy": -0.28418,
				"method": "rhf"
			},
			{
				"type": "occ",
				"energy": -0.24475,
				"method": "rhf"
			},
			{
				"type": "occ",
				"energy": -0.23819,
				"method": "rhf"
			},
			{
				"type": "unocc",
				"energy": -0.02083,
				"method": "rhf"
			},
			{
				"type": "unocc",
				"energy": 0.04558,
				"method": "rhf"
			},
			{
				"type": "unocc",
				"energy": 0.06927,
				"method": "rhf"
			},
			{
				"type": "unocc",
				"energy": 0.09555,
				"method": "rhf"
			},
			{
				"type": "unocc",
				"energy": 0.10698,
				"method": "rhf"
			}
		],
		"cosmo_sigma_profile": { 
			"-0.025": 0.0,
			"-0.024": 0.0,
			"-0.023": 0.0,
			"-0.022": 0.0,
			"-0.021": 0.0,
			"-0.02": 0.0,
			"-0.019": 0.0,
			"-0.018": 0.0,
			"-0.017": 0.0,
			"-0.016": 0.0,
			"-0.015": 0.0,
			"-0.014": 0.0,
			"-0.013": 0.0,
			"-0.012": 0.0,
			"-0.011": 0.0,
			"-0.01": 0.0,
			"-0.009": 1.02900308626,
			"-0.008": 5.13227392764,
			"-0.007": 6.50874745647,
			"-0.006": 10.0755163633,
			"-0.005": 12.1156549518,
			"-0.004": 15.7422996668,
			"-0.003": 16.6895138574,
			"-0.002": 13.9717595537,
			"-0.001": 13.1978356933,
			"0.0": 14.5616046348,
			"0.001": 9.55180932347,
			"0.002": 8.06064718589,
			"0.003": 9.0757621523,
			"0.004": 11.7373712627,
			"0.005": 13.3828428824,
			"0.006": 10.5666594541,
			"0.007": 5.72225257533,
			"0.008": 0.451002382683,
			"0.009": 1.50120972304,
			"0.01": 1.53988243452,
			"0.011": 1.09522798388,
			"0.012": 0.872743193292,
			"0.013": 1.22739832814,
			"0.014": 0.697508960065,
			"0.015": 0.89467175692,
			"0.016": 0.326344429949,
			"0.017": 0.0,
			"0.018": 0.0,
			"0.019": 0.0,
			"0.02": 0.0,
			"0.021": 0.0,
			"0.022": 0.0,
			"0.023": 0.0,
			"0.024": 0.0,
			"0.025": 0.0
		}
	}
}
