{
	 "smiles": "CC1=C(C)C(N)=C(C)C(C)=C1N", 
	 "Tm": 425.15, 
	 "num_atms": 28, 
	 "gaussian": { 
		 "optdone": 1, 
		 "sigma_profile": "yes", 
		 "theory": "DFT", 
		 "functional": "B3LYP", 
		 "basiset": "6-31G**", 
		 "properties": { 
			 "R2extent": 2317.2703, 
			 "electric_dipole_moment_norm": 2.12115513105, 
			 "electric_quadrupole_moment_norm": 5.94189241572, 
			 "total_energy": -500.230920825, 
			 "HOMO_LUMO_gap": 0.18565, 
			 "cosmo_polarized_energy": -11.0, 
			 "cosmo_cavitation_energy": 27.89, 
			 "cosmo_dispersion_energy": -21.19, 
			 "cosmo_repulsion_energy": 1.66, 
			 "cosmo_total_nonelectrostatic_energy": 8.36, 
			 "SMD_solvation_energy": 4.49 
		},
		"coords": [
			{
				"x": 0.8228986821,
				"y": -2.4774914944,
				"z": 2.0692027709,
				"element": "C" 
			},
			{
				"x": 0.237310854,
				"y": -1.3933224877,
				"z": 1.1907807487,
				"element": "C" 
			},
			{
				"x": -0.9418571526,
				"y": -0.6953895609,
				"z": 1.5073773641,
				"element": "C" 
			},
			{
				"x": -1.7497567521,
				"y": -0.953883472,
				"z": 2.7605049471,
				"element": "C" 
			},
			{
				"x": -1.4108506036,
				"y": 0.3034163063,
				"z": 0.6295811757,
				"element": "C" 
			},
			{
				"x": -2.5782956616,
				"y": 1.0283738932,
				"z": 0.9653547997,
				"element": "N" 
			},
			{
				"x": -0.6972210311,
				"y": 0.6454743048,
				"z": -0.5373996284,
				"element": "C" 
			},
			{
				"x": -1.2536681476,
				"y": 1.7662945637,
				"z": -1.3883290822,
				"element": "C" 
			},
			{
				"x": 0.4821607713,
				"y": -0.0521629682,
				"z": -0.8537906771,
				"element": "C" 
			},
			{
				"x": 1.3200268889,
				"y": 0.2438470489,
				"z": -2.0785724984,
				"element": "C" 
			},
			{
				"x": 0.9278863317,
				"y": -1.0803384431,
				"z": 0.0019803611,
				"element": "C" 
			},
			{
				"x": 2.1323169539,
				"y": -1.7585270283,
				"z": -0.2988474281,
				"element": "N" 
			},
			{
				"x": 1.878563095,
				"y": -2.2748234339,
				"z": 2.2875279129,
				"element": "H" 
			},
			{
				"x": 0.7803342541,
				"y": -3.4632674133,
				"z": 1.5819373715,
				"element": "H" 
			},
			{
				"x": 0.3097532868,
				"y": -2.5821648077,
				"z": 3.0240294163,
				"element": "H" 
			},
			{
				"x": -1.2656137896,
				"y": -1.6437298519,
				"z": 3.4502083922,
				"element": "H" 
			},
			{
				"x": -1.9303704329,
				"y": -0.0203296205,
				"z": 3.3072824342,
				"element": "H" 
			},
			{
				"x": -2.7353822917,
				"y": -1.3845430019,
				"z": 2.5279617225,
				"element": "H" 
			},
			{
				"x": -3.0628481647,
				"y": 1.4124710321,
				"z": 0.1654990678,
				"element": "H" 
			},
			{
				"x": -3.228352646,
				"y": 0.5093776741,
				"z": 1.5399678239,
				"element": "H" 
			},
			{
				"x": -0.5914988256,
				"y": 2.0587855095,
				"z": -2.2019421304,
				"element": "H" 
			},
			{
				"x": -2.2129404326,
				"y": 1.4886524184,
				"z": -1.8506131903,
				"element": "H" 
			},
			{
				"x": -1.4390045837,
				"y": 2.6612145867,
				"z": -0.7817714842,
				"element": "H" 
			},
			{
				"x": 1.3038424024,
				"y": -0.591674948,
				"z": -2.7945847778,
				"element": "H" 
			},
			{
				"x": 0.9879675282,
				"y": 1.125589735,
				"z": -2.6246864427,
				"element": "H" 
			},
			{
				"x": 2.3690385829,
				"y": 0.4075300082,
				"z": -1.8030115995,
				"element": "H" 
			},
			{
				"x": 2.1826508182,
				"y": -2.6903817602,
				"z": 0.0899758391,
				"element": "H" 
			},
			{
				"x": 2.3459100657,
				"y": -1.7898967888,
				"z": -1.2865232086,
				"element": "H" 
			}
		],
		 "valence_orbital": [ 
			{
				"type": "occ",
				"energy": -0.31202,
				"method": "rhf"
			},
			{
				"type": "occ",
				"energy": -0.31071,
				"method": "rhf"
			},
			{
				"type": "occ",
				"energy": -0.24975,
				"method": "rhf"
			},
			{
				"type": "occ",
				"energy": -0.21066,
				"method": "rhf"
			},
			{
				"type": "occ",
				"energy": -0.16188,
				"method": "rhf"
			},
			{
				"type": "unocc",
				"energy": 0.02377,
				"method": "rhf"
			},
			{
				"type": "unocc",
				"energy": 0.04231,
				"method": "rhf"
			},
			{
				"type": "unocc",
				"energy": 0.0752,
				"method": "rhf"
			},
			{
				"type": "unocc",
				"energy": 0.09628,
				"method": "rhf"
			},
			{
				"type": "unocc",
				"energy": 0.10589,
				"method": "rhf"
			}
		],
		"cosmo_sigma_profile": { 
			"-0.025": 0.0,
			"-0.024": 0.0,
			"-0.023": 0.0,
			"-0.022": 0.0,
			"-0.021": 0.0,
			"-0.02": 0.0,
			"-0.019": 0.0,
			"-0.018": 0.0,
			"-0.017": 0.0,
			"-0.016": 0.0,
			"-0.015": 0.0,
			"-0.014": 0.0,
			"-0.013": 0.0,
			"-0.012": 0.0,
			"-0.011": 0.351288128288,
			"-0.01": 4.16147195609,
			"-0.009": 4.35844773004,
			"-0.008": 6.93805344643,
			"-0.007": 5.14249945175,
			"-0.006": 6.56342678478,
			"-0.005": 10.3378474059,
			"-0.004": 12.1714712023,
			"-0.003": 18.1086504701,
			"-0.002": 19.1089997768,
			"-0.001": 19.7834759603,
			"0.0": 25.0951687813,
			"0.001": 21.6433980632,
			"0.002": 11.1427056636,
			"0.003": 6.78449231356,
			"0.004": 6.144241334,
			"0.005": 5.81316058367,
			"0.006": 6.8399216752,
			"0.007": 6.46262341929,
			"0.008": 7.34765836533,
			"0.009": 4.36776463869,
			"0.01": 1.45024069578,
			"0.011": 1.66437926689,
			"0.012": 0.73755150438,
			"0.013": 1.27225441168,
			"0.014": 1.552715568,
			"0.015": 0.919092594346,
			"0.016": 1.09580025855,
			"0.017": 0.444677516736,
			"0.018": 0.0,
			"0.019": 0.0,
			"0.02": 0.0,
			"0.021": 0.0,
			"0.022": 0.0,
			"0.023": 0.0,
			"0.024": 0.0,
			"0.025": 0.0
		}
	}
}
