{
	 "smiles": "OC(=O)C1=CCCSC1", 
	 "Tm": 377.15, 
	 "num_atms": 17, 
	 "gaussian": { 
		 "optdone": 1, 
		 "sigma_profile": "yes", 
		 "theory": "DFT", 
		 "functional": "B3LYP", 
		 "basiset": "6-31G**", 
		 "properties": { 
			 "R2extent": 1618.9243, 
			 "electric_dipole_moment_norm": 5.14759565623, 
			 "electric_quadrupole_moment_norm": 13.168601777, 
			 "total_energy": -782.087338925, 
			 "HOMO_LUMO_gap": 0.18088, 
			 "cosmo_polarized_energy": -15.48, 
			 "cosmo_cavitation_energy": 21.45, 
			 "cosmo_dispersion_energy": -16.79, 
			 "cosmo_repulsion_energy": 1.33, 
			 "cosmo_total_nonelectrostatic_energy": 5.99, 
			 "SMD_solvation_energy": 4.03 
		},
		"coords": [
			{
				"x": 0.636809702,
				"y": -1.5304114088,
				"z": 3.2105629066,
				"element": "O" 
			},
			{
				"x": 0.9017872826,
				"y": -0.4443984455,
				"z": 2.4368376634,
				"element": "C" 
			},
			{
				"x": 1.5993599832,
				"y": 0.4465991431,
				"z": 2.8637876078,
				"element": "O" 
			},
			{
				"x": 0.2984210384,
				"y": -0.4173495866,
				"z": 1.0596338365,
				"element": "C" 
			},
			{
				"x": -0.0011503497,
				"y": -1.553545837,
				"z": 0.4065999897,
				"element": "C" 
			},
			{
				"x": -0.5780983169,
				"y": -1.6588353045,
				"z": -0.9795128801,
				"element": "C" 
			},
			{
				"x": -1.1413425254,
				"y": -0.3482754967,
				"z": -1.5295166884,
				"element": "C" 
			},
			{
				"x": 0.0471012338,
				"y": 1.0321405807,
				"z": -1.3390446111,
				"element": "S" 
			},
			{
				"x": 0.1629211177,
				"y": 0.9725094264,
				"z": 0.4845389551,
				"element": "C" 
			},
			{
				"x": -0.0660305762,
				"y": -2.0549933244,
				"z": 2.8024058692,
				"element": "H" 
			},
			{
				"x": 0.2249652803,
				"y": -2.5084061315,
				"z": 0.8810766939,
				"element": "H" 
			},
			{
				"x": -1.3717357035,
				"y": -2.4202009171,
				"z": -0.9717001944,
				"element": "H" 
			},
			{
				"x": 0.1995581879,
				"y": -2.0452127568,
				"z": -1.6527770477,
				"element": "H" 
			},
			{
				"x": -2.0778830525,
				"y": -0.0850640006,
				"z": -1.026241309,
				"element": "H" 
			},
			{
				"x": -1.3507048846,
				"y": -0.4327293922,
				"z": -2.5986059998,
				"element": "H" 
			},
			{
				"x": -0.7007712091,
				"y": 1.483443832,
				"z": 0.9283763079,
				"element": "H" 
			},
			{
				"x": 1.0471927919,
				"y": 1.5479296193,
				"z": 0.7691789003,
				"element": "H" 
			}
		],
		 "valence_orbital": [ 
			{
				"type": "occ",
				"energy": -0.32338,
				"method": "rhf"
			},
			{
				"type": "occ",
				"energy": -0.3168,
				"method": "rhf"
			},
			{
				"type": "occ",
				"energy": -0.27988,
				"method": "rhf"
			},
			{
				"type": "occ",
				"energy": -0.27376,
				"method": "rhf"
			},
			{
				"type": "occ",
				"energy": -0.22968,
				"method": "rhf"
			},
			{
				"type": "unocc",
				"energy": -0.0488,
				"method": "rhf"
			},
			{
				"type": "unocc",
				"energy": 0.03197,
				"method": "rhf"
			},
			{
				"type": "unocc",
				"energy": 0.05521,
				"method": "rhf"
			},
			{
				"type": "unocc",
				"energy": 0.05763,
				"method": "rhf"
			},
			{
				"type": "unocc",
				"energy": 0.07894,
				"method": "rhf"
			}
		],
		"cosmo_sigma_profile": { 
			"-0.025": 0.0,
			"-0.024": 0.0,
			"-0.023": 0.0,
			"-0.022": 0.0,
			"-0.021": 0.0,
			"-0.02": 0.0,
			"-0.019": 0.0,
			"-0.018": 0.909788751868,
			"-0.017": 0.714421755005,
			"-0.016": 0.550743601753,
			"-0.015": 1.03181773171,
			"-0.014": 0.81243800179,
			"-0.013": 1.32435396345,
			"-0.012": 1.19145575029,
			"-0.011": 1.08645695769,
			"-0.01": 0.961019368001,
			"-0.009": 1.35076212682,
			"-0.008": 1.61603115794,
			"-0.007": 2.61153839525,
			"-0.006": 9.12348177996,
			"-0.005": 18.5618058475,
			"-0.004": 18.4596422747,
			"-0.003": 15.7865497099,
			"-0.002": 11.7878509097,
			"-0.001": 7.54625083722,
			"0.0": 7.46283683149,
			"0.001": 5.67050282475,
			"0.002": 4.81509884136,
			"0.003": 6.31737071797,
			"0.004": 5.0399890583,
			"0.005": 6.33076804782,
			"0.006": 5.28173280499,
			"0.007": 5.10042257152,
			"0.008": 4.93896881005,
			"0.009": 5.99565444331,
			"0.01": 5.91783247787,
			"0.011": 6.47509704064,
			"0.012": 4.68584376995,
			"0.013": 1.64735909665,
			"0.014": 0.133097568837,
			"0.015": 0.0,
			"0.016": 0.0,
			"0.017": 0.0,
			"0.018": 0.0,
			"0.019": 0.0,
			"0.02": 0.0,
			"0.021": 0.0,
			"0.022": 0.0,
			"0.023": 0.0,
			"0.024": 0.0,
			"0.025": 0.0
		}
	}
}
