{
	 "smiles": "CC(=O)C1=C(Cl)C=C(OC2=CC=C(Cl)C=C2)C=C1", 
	 "Tm": 328.15, 
	 "num_atms": 28, 
	 "gaussian": { 
		 "optdone": 1, 
		 "sigma_profile": "yes", 
		 "theory": "DFT", 
		 "functional": "B3LYP", 
		 "basiset": "6-31G**", 
		 "properties": { 
			 "R2extent": 9496.1279, 
			 "electric_dipole_moment_norm": 1.8415816816, 
			 "electric_quadrupole_moment_norm": 9.82105081038, 
			 "total_energy": -1610.33816016, 
			 "HOMO_LUMO_gap": 0.17909, 
			 "cosmo_polarized_energy": -9.2, 
			 "cosmo_cavitation_energy": 36.54, 
			 "cosmo_dispersion_energy": -26.58, 
			 "cosmo_repulsion_energy": 2.04, 
			 "cosmo_total_nonelectrostatic_energy": 12.01, 
			 "SMD_solvation_energy": 6.55 
		},
		"coords": [
			{
				"x": 0.2139102112,
				"y": -2.5884969817,
				"z": 5.050049737,
				"element": "C" 
			},
			{
				"x": 0.6834497555,
				"y": -1.9905802432,
				"z": 3.7396811457,
				"element": "C" 
			},
			{
				"x": 1.881274762,
				"y": -1.82336699,
				"z": 3.5572915041,
				"element": "O" 
			},
			{
				"x": -0.2768211942,
				"y": -1.5577240328,
				"z": 2.6546708811,
				"element": "C" 
			},
			{
				"x": -1.6609197486,
				"y": -1.7997615076,
				"z": 2.5382696269,
				"element": "C" 
			},
			{
				"x": -2.581464536,
				"y": -2.7575035585,
				"z": 3.6974579818,
				"element": "Cl" 
			},
			{
				"x": -2.4021564415,
				"y": -1.3168931452,
				"z": 1.462666623,
				"element": "C" 
			},
			{
				"x": -1.7778704043,
				"y": -0.5639759551,
				"z": 0.4666328079,
				"element": "C" 
			},
			{
				"x": -2.6015338961,
				"y": -0.0862777366,
				"z": -0.5193084289,
				"element": "O" 
			},
			{
				"x": -2.0874030276,
				"y": 0.3076536679,
				"z": -1.7449127556,
				"element": "C" 
			},
			{
				"x": -1.3379063172,
				"y": -0.5645573939,
				"z": -2.537830505,
				"element": "C" 
			},
			{
				"x": -0.9135744375,
				"y": -0.1532712012,
				"z": -3.8003606354,
				"element": "C" 
			},
			{
				"x": -1.2535401731,
				"y": 1.1203655126,
				"z": -4.2588198123,
				"element": "C" 
			},
			{
				"x": -0.7218689057,
				"y": 1.63526322,
				"z": -5.8515271844,
				"element": "Cl" 
			},
			{
				"x": -2.0113357299,
				"y": 1.9885583877,
				"z": -3.4732315819,
				"element": "C" 
			},
			{
				"x": -2.4269705744,
				"y": 1.5785077603,
				"z": -2.2067296691,
				"element": "C" 
			},
			{
				"x": -0.4058652845,
				"y": -0.2994873438,
				"z": 0.5425084792,
				"element": "C" 
			},
			{
				"x": 0.3080092629,
				"y": -0.8012677097,
				"z": 1.6190717886,
				"element": "C" 
			},
			{
				"x": -0.5700171271,
				"y": -1.9860421888,
				"z": 5.5166663156,
				"element": "H" 
			},
			{
				"x": -0.2009056226,
				"y": -3.5892291768,
				"z": 4.8975974505,
				"element": "H" 
			},
			{
				"x": 1.0812428578,
				"y": -2.6536329832,
				"z": 5.7083312181,
				"element": "H" 
			},
			{
				"x": -3.4630313944,
				"y": -1.5209961978,
				"z": 1.3858757769,
				"element": "H" 
			},
			{
				"x": -1.0932279298,
				"y": -1.5565142569,
				"z": -2.173225215,
				"element": "H" 
			},
			{
				"x": -0.3315894777,
				"y": -0.8192756986,
				"z": -4.4274712749,
				"element": "H" 
			},
			{
				"x": -2.2698631005,
				"y": 2.9736795112,
				"z": -3.8448404594,
				"element": "H" 
			},
			{
				"x": -3.0180644762,
				"y": 2.2320087824,
				"z": -1.5742503662,
				"element": "H" 
			},
			{
				"x": 0.0878149266,
				"y": 0.2909076314,
				"z": -0.2201031694,
				"element": "H" 
			},
			{
				"x": 1.3729280228,
				"y": -0.6148901721,
				"z": 1.7031397212,
				"element": "H" 
			}
		],
		 "valence_orbital": [ 
			{
				"type": "occ",
				"energy": -0.28026,
				"method": "rhf"
			},
			{
				"type": "occ",
				"energy": -0.26526,
				"method": "rhf"
			},
			{
				"type": "occ",
				"energy": -0.2615,
				"method": "rhf"
			},
			{
				"type": "occ",
				"energy": -0.25471,
				"method": "rhf"
			},
			{
				"type": "occ",
				"energy": -0.23921,
				"method": "rhf"
			},
			{
				"type": "unocc",
				"energy": -0.06012,
				"method": "rhf"
			},
			{
				"type": "unocc",
				"energy": -0.0342,
				"method": "rhf"
			},
			{
				"type": "unocc",
				"energy": -0.02259,
				"method": "rhf"
			},
			{
				"type": "unocc",
				"energy": -0.02162,
				"method": "rhf"
			},
			{
				"type": "unocc",
				"energy": 0.01603,
				"method": "rhf"
			}
		],
		"cosmo_sigma_profile": { 
			"-0.025": 0.0,
			"-0.024": 0.0,
			"-0.023": 0.0,
			"-0.022": 0.0,
			"-0.021": 0.0,
			"-0.02": 0.0,
			"-0.019": 0.0,
			"-0.018": 0.0,
			"-0.017": 0.0,
			"-0.016": 0.0,
			"-0.015": 0.0,
			"-0.014": 0.0,
			"-0.013": 0.0,
			"-0.012": 0.0,
			"-0.011": 0.0,
			"-0.01": 0.0,
			"-0.009": 0.0,
			"-0.008": 3.83624250385,
			"-0.007": 10.8956935103,
			"-0.006": 13.0027075076,
			"-0.005": 16.7240288912,
			"-0.004": 18.1910209741,
			"-0.003": 17.8065641598,
			"-0.002": 22.2066624912,
			"-0.001": 27.3220825232,
			"0.0": 28.1345878573,
			"0.001": 36.4503789096,
			"0.002": 35.6800139088,
			"0.003": 22.5825088,
			"0.004": 17.0316354936,
			"0.005": 9.58038362624,
			"0.006": 2.96012839163,
			"0.007": 2.35368005574,
			"0.008": 2.30535288093,
			"0.009": 1.33380573576,
			"0.01": 2.00253099456,
			"0.011": 3.54175507992,
			"0.012": 2.94520667766,
			"0.013": 1.08727245807,
			"0.014": 0.00856742997755,
			"0.015": 0.0,
			"0.016": 0.0,
			"0.017": 0.0,
			"0.018": 0.0,
			"0.019": 0.0,
			"0.02": 0.0,
			"0.021": 0.0,
			"0.022": 0.0,
			"0.023": 0.0,
			"0.024": 0.0,
			"0.025": 0.0
		}
	}
}
