{
	 "smiles": "NS(=O)(=O)C1=CC(F)=C(C=C1)N1C=CC=N1", 
	 "Tm": 464.15, 
	 "num_atms": 24, 
	 "gaussian": { 
		 "optdone": 1, 
		 "sigma_profile": "yes", 
		 "theory": "DFT", 
		 "functional": "B3LYP", 
		 "basiset": "6-31G**", 
		 "properties": { 
			 "R2extent": 5194.9043, 
			 "electric_dipole_moment_norm": 5.36594106285, 
			 "electric_quadrupole_moment_norm": 22.0767969355, 
			 "total_energy": -1160.40241417, 
			 "HOMO_LUMO_gap": 0.18488, 
			 "cosmo_polarized_energy": -19.69, 
			 "cosmo_cavitation_energy": 30.67, 
			 "cosmo_dispersion_energy": -23.1, 
			 "cosmo_repulsion_energy": 1.7, 
			 "cosmo_total_nonelectrostatic_energy": 9.27, 
			 "SMD_solvation_energy": 5.23 
		},
		"coords": [
			{
				"x": 2.0094470779,
				"y": 0.146124984,
				"z": -4.1121402828,
				"element": "N" 
			},
			{
				"x": 2.561413943,
				"y": 0.2865636606,
				"z": -2.5324106659,
				"element": "S" 
			},
			{
				"x": 3.2111669323,
				"y": -0.9863076309,
				"z": -2.2274476239,
				"element": "O" 
			},
			{
				"x": 3.2467646816,
				"y": 1.5750163965,
				"z": -2.4678217158,
				"element": "O" 
			},
			{
				"x": 1.1080789198,
				"y": 0.4055687357,
				"z": -1.4801006998,
				"element": "C" 
			},
			{
				"x": 0.5670304465,
				"y": -0.7572169521,
				"z": -0.9336498657,
				"element": "C" 
			},
			{
				"x": -0.56878586,
				"y": -0.6584088756,
				"z": -0.1456628952,
				"element": "C" 
			},
			{
				"x": -1.0825813247,
				"y": -1.8003740855,
				"z": 0.3649621568,
				"element": "F" 
			},
			{
				"x": -1.1822158209,
				"y": 0.5739154065,
				"z": 0.1275655712,
				"element": "C" 
			},
			{
				"x": -0.6085304957,
				"y": 1.7286510613,
				"z": -0.4281748146,
				"element": "C" 
			},
			{
				"x": 0.526896181,
				"y": 1.6501998931,
				"z": -1.2260079673,
				"element": "C" 
			},
			{
				"x": -2.3392055779,
				"y": 0.6874625659,
				"z": 0.9259515498,
				"element": "N" 
			},
			{
				"x": -2.9042581565,
				"y": -0.219478582,
				"z": 1.7916057538,
				"element": "C" 
			},
			{
				"x": -3.9947800066,
				"y": 0.3970503872,
				"z": 2.3561026328,
				"element": "C" 
			},
			{
				"x": -4.0198379212,
				"y": 1.6878544264,
				"z": 1.7736447416,
				"element": "C" 
			},
			{
				"x": -3.0257882208,
				"y": 1.8674583851,
				"z": 0.9164590879,
				"element": "N" 
			},
			{
				"x": 1.5245641695,
				"y": 0.9743855119,
				"z": -4.4419576984,
				"element": "H" 
			},
			{
				"x": 1.5013000662,
				"y": -0.7154043156,
				"z": -4.2837317327,
				"element": "H" 
			},
			{
				"x": 1.0241036359,
				"y": -1.7264662905,
				"z": -1.0966822309,
				"element": "H" 
			},
			{
				"x": -1.0783002526,
				"y": 2.6794593056,
				"z": -0.2123389071,
				"element": "H" 
			},
			{
				"x": 0.9792660227,
				"y": 2.5508763952,
				"z": -1.6258613842,
				"element": "H" 
			},
			{
				"x": -2.4873470337,
				"y": -1.2010983023,
				"z": 1.9320499997,
				"element": "H" 
			},
			{
				"x": -4.6742224014,
				"y": -0.0219589853,
				"z": 3.0827506429,
				"element": "H" 
			},
			{
				"x": -4.7253790047,
				"y": 2.4902269046,
				"z": 1.9438963476,
				"element": "H" 
			}
		],
		 "valence_orbital": [ 
			{
				"type": "occ",
				"energy": -0.30413,
				"method": "rhf"
			},
			{
				"type": "occ",
				"energy": -0.30326,
				"method": "rhf"
			},
			{
				"type": "occ",
				"energy": -0.2802,
				"method": "rhf"
			},
			{
				"type": "occ",
				"energy": -0.26505,
				"method": "rhf"
			},
			{
				"type": "occ",
				"energy": -0.24519,
				"method": "rhf"
			},
			{
				"type": "unocc",
				"energy": -0.06031,
				"method": "rhf"
			},
			{
				"type": "unocc",
				"energy": -0.0311,
				"method": "rhf"
			},
			{
				"type": "unocc",
				"energy": 0.00966,
				"method": "rhf"
			},
			{
				"type": "unocc",
				"energy": 0.0425,
				"method": "rhf"
			},
			{
				"type": "unocc",
				"energy": 0.05763,
				"method": "rhf"
			}
		],
		"cosmo_sigma_profile": { 
			"-0.025": 0.0,
			"-0.024": 0.0,
			"-0.023": 0.0,
			"-0.022": 0.0,
			"-0.021": 0.0,
			"-0.02": 0.0,
			"-0.019": 0.0,
			"-0.018": 0.0,
			"-0.017": 0.0,
			"-0.016": 0.406250472952,
			"-0.015": 2.55617225768,
			"-0.014": 2.59204961549,
			"-0.013": 3.25127648432,
			"-0.012": 2.81421626974,
			"-0.011": 2.48884156511,
			"-0.01": 2.7118944194,
			"-0.009": 2.31270168248,
			"-0.008": 6.07058431859,
			"-0.007": 10.9776103598,
			"-0.006": 10.7034057665,
			"-0.005": 10.941041927,
			"-0.004": 11.8648430375,
			"-0.003": 12.5142060438,
			"-0.002": 14.5115096788,
			"-0.001": 18.2837406611,
			"0.0": 20.3846017256,
			"0.001": 16.4699844455,
			"0.002": 15.9281450443,
			"0.003": 14.4784192946,
			"0.004": 10.6352287299,
			"0.005": 5.83560515368,
			"0.006": 5.70240350541,
			"0.007": 5.62117591068,
			"0.008": 6.4798019491,
			"0.009": 5.7821039087,
			"0.01": 9.63373184198,
			"0.011": 11.1303751603,
			"0.012": 3.8756081469,
			"0.013": 0.128613934124,
			"0.014": 0.0,
			"0.015": 0.0,
			"0.016": 0.0,
			"0.017": 0.0,
			"0.018": 0.0,
			"0.019": 0.0,
			"0.02": 0.0,
			"0.021": 0.0,
			"0.022": 0.0,
			"0.023": 0.0,
			"0.024": 0.0,
			"0.025": 0.0
		}
	}
}
