{
	 "smiles": "N#CCC1=CC=C(OCC2=NC=CC=C2)C=C1", 
	 "Tm": 350.15, 
	 "num_atms": 29, 
	 "gaussian": { 
		 "optdone": 1, 
		 "sigma_profile": "yes", 
		 "theory": "DFT", 
		 "functional": "B3LYP", 
		 "basiset": "6-31G**", 
		 "properties": { 
			 "R2extent": 5800.1347, 
			 "electric_dipole_moment_norm": 3.55163658755, 
			 "electric_quadrupole_moment_norm": 27.3568724791, 
			 "total_energy": -725.419078507, 
			 "HOMO_LUMO_gap": 0.19408, 
			 "cosmo_polarized_energy": -14.5, 
			 "cosmo_cavitation_energy": 34.66, 
			 "cosmo_dispersion_energy": -23.95, 
			 "cosmo_repulsion_energy": 1.88, 
			 "cosmo_total_nonelectrostatic_energy": 12.59, 
			 "SMD_solvation_energy": 6.15 
		},
		"coords": [
			{
				"x": 1.1517038239,
				"y": -3.9469784769,
				"z": -4.0341708025,
				"element": "N" 
			},
			{
				"x": 0.598209327,
				"y": -2.9580737142,
				"z": -4.2852453225,
				"element": "C" 
			},
			{
				"x": -0.1159954292,
				"y": -1.7118217494,
				"z": -4.5957076308,
				"element": "C" 
			},
			{
				"x": -0.7309946907,
				"y": -1.0487743425,
				"z": -3.3714064909,
				"element": "C" 
			},
			{
				"x": -1.7431733251,
				"y": -1.6885095372,
				"z": -2.6402183412,
				"element": "C" 
			},
			{
				"x": -2.3148466365,
				"y": -1.077843492,
				"z": -1.5329238934,
				"element": "C" 
			},
			{
				"x": -1.8843683848,
				"y": 0.1952199159,
				"z": -1.1282460399,
				"element": "C" 
			},
			{
				"x": -2.5219916319,
				"y": 0.7078251871,
				"z": -0.0310196073,
				"element": "O" 
			},
			{
				"x": -2.1989359557,
				"y": 2.0291498726,
				"z": 0.3957436442,
				"element": "C" 
			},
			{
				"x": -0.8808422537,
				"y": 2.1263453889,
				"z": 1.143090873,
				"element": "C" 
			},
			{
				"x": -0.2143664366,
				"y": 3.2796833678,
				"z": 0.9918531773,
				"element": "N" 
			},
			{
				"x": 0.9310238119,
				"y": 3.4310836283,
				"z": 1.6695337798,
				"element": "C" 
			},
			{
				"x": 1.4662511538,
				"y": 2.453604597,
				"z": 2.507982469,
				"element": "C" 
			},
			{
				"x": 0.7691452932,
				"y": 1.2533562083,
				"z": 2.6511335276,
				"element": "C" 
			},
			{
				"x": -0.4283434874,
				"y": 1.0847111954,
				"z": 1.9602882118,
				"element": "C" 
			},
			{
				"x": -0.8723678135,
				"y": 0.8439616832,
				"z": -1.843211083,
				"element": "C" 
			},
			{
				"x": -0.3081472439,
				"y": 0.2133967468,
				"z": -2.956425729,
				"element": "C" 
			},
			{
				"x": -0.8873604212,
				"y": -1.9474547945,
				"z": -5.3404360626,
				"element": "H" 
			},
			{
				"x": 0.5878635207,
				"y": -1.0286290159,
				"z": -5.0831939649,
				"element": "H" 
			},
			{
				"x": -2.0839675428,
				"y": -2.6765580177,
				"z": -2.9386744282,
				"element": "H" 
			},
			{
				"x": -3.1010825263,
				"y": -1.5644503465,
				"z": -0.9652217161,
				"element": "H" 
			},
			{
				"x": -2.1919977446,
				"y": 2.7354358333,
				"z": -0.4414372274,
				"element": "H" 
			},
			{
				"x": -3.0228435099,
				"y": 2.3091588078,
				"z": 1.0608976003,
				"element": "H" 
			},
			{
				"x": 1.4479046981,
				"y": 4.3784881526,
				"z": 1.5268503978,
				"element": "H" 
			},
			{
				"x": 2.4034083018,
				"y": 2.6282052178,
				"z": 3.0267479632,
				"element": "H" 
			},
			{
				"x": 1.1519586622,
				"y": 0.4628432966,
				"z": 3.2902584419,
				"element": "H" 
			},
			{
				"x": -1.0042757943,
				"y": 0.168766436,
				"z": 2.0371558122,
				"element": "H" 
			},
			{
				"x": -0.5060322304,
				"y": 1.8179370065,
				"z": -1.5421635138,
				"element": "H" 
			},
			{
				"x": 0.4805644661,
				"y": 0.7245209448,
				"z": -3.5027340447,
				"element": "H" 
			}
		],
		 "valence_orbital": [ 
			{
				"type": "occ",
				"energy": -0.29385,
				"method": "rhf"
			},
			{
				"type": "occ",
				"energy": -0.26663,
				"method": "rhf"
			},
			{
				"type": "occ",
				"energy": -0.26486,
				"method": "rhf"
			},
			{
				"type": "occ",
				"energy": -0.25845,
				"method": "rhf"
			},
			{
				"type": "occ",
				"energy": -0.22748,
				"method": "rhf"
			},
			{
				"type": "unocc",
				"energy": -0.0334,
				"method": "rhf"
			},
			{
				"type": "unocc",
				"energy": -0.02208,
				"method": "rhf"
			},
			{
				"type": "unocc",
				"energy": -0.01081,
				"method": "rhf"
			},
			{
				"type": "unocc",
				"energy": -0.00289,
				"method": "rhf"
			},
			{
				"type": "unocc",
				"energy": 0.03946,
				"method": "rhf"
			}
		],
		"cosmo_sigma_profile": { 
			"-0.025": 0.0,
			"-0.024": 0.0,
			"-0.023": 0.0,
			"-0.022": 0.0,
			"-0.021": 0.0,
			"-0.02": 0.0,
			"-0.019": 0.0,
			"-0.018": 0.0,
			"-0.017": 0.0,
			"-0.016": 0.0,
			"-0.015": 0.0,
			"-0.014": 0.0,
			"-0.013": 0.0,
			"-0.012": 0.0,
			"-0.011": 0.0,
			"-0.01": 0.0,
			"-0.009": 1.86641276604,
			"-0.008": 6.89170338041,
			"-0.007": 13.6085644072,
			"-0.006": 22.4877013558,
			"-0.005": 24.6962598649,
			"-0.004": 20.6910564344,
			"-0.003": 16.6928028448,
			"-0.002": 15.123715729,
			"-0.001": 13.3571651099,
			"0.0": 14.5159060745,
			"0.001": 18.0040107973,
			"0.002": 24.6549360802,
			"0.003": 22.1362560869,
			"0.004": 16.1014598914,
			"0.005": 10.8006517462,
			"0.006": 4.69286273976,
			"0.007": 4.93148699851,
			"0.008": 5.34975916271,
			"0.009": 5.55546301605,
			"0.01": 4.24942667941,
			"0.011": 4.02767221275,
			"0.012": 3.50513030131,
			"0.013": 2.3958978376,
			"0.014": 1.32145359341,
			"0.015": 0.531764881956,
			"0.016": 0.285814633668,
			"0.017": 0.0,
			"0.018": 0.0,
			"0.019": 0.0,
			"0.02": 0.0,
			"0.021": 0.0,
			"0.022": 0.0,
			"0.023": 0.0,
			"0.024": 0.0,
			"0.025": 0.0
		}
	}
}
