{
	 "smiles": "[O-][N+](=O)C1=CC(Br)=C(CC#N)C=C1", 
	 "Tm": 340.15, 
	 "num_atms": 18, 
	 "gaussian": { 
		 "optdone": 1, 
		 "sigma_profile": "yes", 
		 "theory": "DFT", 
		 "functional": "B3LYP", 
		 "basiset": "6-31G**", 
		 "properties": { 
			 "R2extent": 4031.155, 
			 "electric_dipole_moment_norm": 4.0199984092, 
			 "electric_quadrupole_moment_norm": 27.7832542307, 
			 "total_energy": -3139.0956804, 
			 "HOMO_LUMO_gap": 0.17127, 
			 "cosmo_polarized_energy": -14.99, 
			 "cosmo_cavitation_energy": 26.84, 
			 "cosmo_dispersion_energy": -19.1, 
			 "cosmo_repulsion_energy": 1.51, 
			 "cosmo_total_nonelectrostatic_energy": 9.25, 
			 "SMD_solvation_energy": 7.23 
		},
		"coords": [
			{
				"x": 0.9295362178,
				"y": 3.0656843623,
				"z": 0.6724890723,
				"element": "O" 
			},
			{
				"x": 0.0360398285,
				"y": 2.2970744682,
				"z": 0.3239258874,
				"element": "N" 
			},
			{
				"x": -1.1530384195,
				"y": 2.5912273232,
				"z": 0.2260905456,
				"element": "O" 
			},
			{
				"x": 0.4247494371,
				"y": 0.9121600786,
				"z": -0.0038230902,
				"element": "C" 
			},
			{
				"x": -0.5649969214,
				"y": 0.020497539,
				"z": -0.4041568365,
				"element": "C" 
			},
			{
				"x": -0.1927740468,
				"y": -1.2840115985,
				"z": -0.7150071639,
				"element": "C" 
			},
			{
				"x": -1.5604695934,
				"y": -2.4964325748,
				"z": -1.2592665367,
				"element": "Br" 
			},
			{
				"x": 1.1456721968,
				"y": -1.702192214,
				"z": -0.6350198415,
				"element": "C" 
			},
			{
				"x": 1.5769556339,
				"y": -3.1191528636,
				"z": -0.9752648651,
				"element": "C" 
			},
			{
				"x": 1.3476414847,
				"y": -4.0607252716,
				"z": 0.128886946,
				"element": "C" 
			},
			{
				"x": 1.1806853172,
				"y": -4.8000012697,
				"z": 1.0072410913,
				"element": "N" 
			},
			{
				"x": 2.1061921615,
				"y": -0.7672752558,
				"z": -0.2256974301,
				"element": "C" 
			},
			{
				"x": 1.762189128,
				"y": 0.5422941201,
				"z": 0.0936866482,
				"element": "C" 
			},
			{
				"x": -1.5937926897,
				"y": 0.3484300399,
				"z": -0.4674897744,
				"element": "H" 
			},
			{
				"x": 2.6445306833,
				"y": -3.1308621612,
				"z": -1.2178795497,
				"element": "H" 
			},
			{
				"x": 1.0364604343,
				"y": -3.4837152722,
				"z": -1.8550111004,
				"element": "H" 
			},
			{
				"x": 3.1446650813,
				"y": -1.076702081,
				"z": -0.1556784266,
				"element": "H" 
			},
			{
				"x": 2.4996540665,
				"y": 1.2687026309,
				"z": 0.4097744244,
				"element": "H" 
			}
		],
		 "valence_orbital": [ 
			{
				"type": "occ",
				"energy": -0.32493,
				"method": "rhf"
			},
			{
				"type": "occ",
				"energy": -0.31449,
				"method": "rhf"
			},
			{
				"type": "occ",
				"energy": -0.30724,
				"method": "rhf"
			},
			{
				"type": "occ",
				"energy": -0.303,
				"method": "rhf"
			},
			{
				"type": "occ",
				"energy": -0.27886,
				"method": "rhf"
			},
			{
				"type": "unocc",
				"energy": -0.10759,
				"method": "rhf"
			},
			{
				"type": "unocc",
				"energy": -0.0538,
				"method": "rhf"
			},
			{
				"type": "unocc",
				"energy": -0.02822,
				"method": "rhf"
			},
			{
				"type": "unocc",
				"energy": -0.02285,
				"method": "rhf"
			},
			{
				"type": "unocc",
				"energy": 0.02489,
				"method": "rhf"
			}
		],
		"cosmo_sigma_profile": { 
			"-0.025": 0.0,
			"-0.024": 0.0,
			"-0.023": 0.0,
			"-0.022": 0.0,
			"-0.021": 0.0,
			"-0.02": 0.0,
			"-0.019": 0.0,
			"-0.018": 0.0,
			"-0.017": 0.0,
			"-0.016": 0.0,
			"-0.015": 0.0,
			"-0.014": 0.0,
			"-0.013": 0.0,
			"-0.012": 0.0,
			"-0.011": 1.13809839766,
			"-0.01": 3.4661112214,
			"-0.009": 6.45117868894,
			"-0.008": 9.1080785171,
			"-0.007": 11.3205374399,
			"-0.006": 9.8106210342,
			"-0.005": 10.4158963422,
			"-0.004": 9.89090176061,
			"-0.003": 12.6138951853,
			"-0.002": 18.1564940833,
			"-0.001": 21.9180066291,
			"0.0": 15.1785046071,
			"0.001": 10.5030897867,
			"0.002": 9.54437940558,
			"0.003": 12.6511174655,
			"0.004": 6.77031500093,
			"0.005": 5.31875638367,
			"0.006": 7.5780118315,
			"0.007": 12.2531267819,
			"0.008": 8.57056159124,
			"0.009": 7.15895211284,
			"0.01": 4.01381922204,
			"0.011": 2.79306111851,
			"0.012": 2.34065489283,
			"0.013": 1.22268707805,
			"0.014": 0.0155567159327,
			"0.015": 0.0,
			"0.016": 0.0,
			"0.017": 0.0,
			"0.018": 0.0,
			"0.019": 0.0,
			"0.02": 0.0,
			"0.021": 0.0,
			"0.022": 0.0,
			"0.023": 0.0,
			"0.024": 0.0,
			"0.025": 0.0
		}
	}
}
