{
	 "smiles": "CC(C)(C)OC(=O)N1CCC(CC1)(NC1=CC=CC=C1)C(O)=O", 
	 "Tm": 421.15, 
	 "num_atms": 47, 
	 "gaussian": { 
		 "optdone": 1, 
		 "sigma_profile": "yes", 
		 "theory": "DFT", 
		 "functional": "B3LYP", 
		 "basiset": "6-31G**", 
		 "properties": { 
			 "R2extent": 8856.865, 
			 "electric_dipole_moment_norm": 6.1687902331, 
			 "electric_quadrupole_moment_norm": 18.0610386927, 
			 "total_energy": -1072.71530243, 
			 "HOMO_LUMO_gap": 0.20832, 
			 "cosmo_polarized_energy": -20.12, 
			 "cosmo_cavitation_energy": 46.83, 
			 "cosmo_dispersion_energy": -31.4, 
			 "cosmo_repulsion_energy": 2.41, 
			 "cosmo_total_nonelectrostatic_energy": 17.84, 
			 "SMD_solvation_energy": 8.9 
		},
		"coords": [
			{
				"x": 1.1401005447,
				"y": 0.8660452694,
				"z": -4.9737775166,
				"element": "C" 
			},
			{
				"x": 1.8581017497,
				"y": 0.2881537858,
				"z": -3.7492318035,
				"element": "C" 
			},
			{
				"x": 3.1766455564,
				"y": 1.0248612172,
				"z": -3.4966617103,
				"element": "C" 
			},
			{
				"x": 2.0961757367,
				"y": -1.2208189568,
				"z": -3.8747464747,
				"element": "C" 
			},
			{
				"x": 1.0924470973,
				"y": 0.577628957,
				"z": -2.5285644401,
				"element": "O" 
			},
			{
				"x": -0.1714112356,
				"y": 0.1042750586,
				"z": -2.3716665124,
				"element": "C" 
			},
			{
				"x": -0.7687365344,
				"y": -0.6079508375,
				"z": -3.1684182893,
				"element": "O" 
			},
			{
				"x": -0.699448855,
				"y": 0.5350524101,
				"z": -1.1847980575,
				"element": "N" 
			},
			{
				"x": 0.0675877725,
				"y": 1.3323691695,
				"z": -0.2197264578,
				"element": "C" 
			},
			{
				"x": -0.8807002191,
				"y": 1.9769367234,
				"z": 0.7952572852,
				"element": "C" 
			},
			{
				"x": -1.7334566261,
				"y": 0.9582223232,
				"z": 1.5999884503,
				"element": "C" 
			},
			{
				"x": -2.0243684055,
				"y": -0.2829669334,
				"z": 0.7081124179,
				"element": "C" 
			},
			{
				"x": -2.0224752749,
				"y": 0.0424164518,
				"z": -0.7867552523,
				"element": "C" 
			},
			{
				"x": -1.1171390968,
				"y": 0.5574064125,
				"z": 2.9115840569,
				"element": "N" 
			},
			{
				"x": 0.3018730766,
				"y": 0.3925611981,
				"z": 3.0511841769,
				"element": "C" 
			},
			{
				"x": 1.1084820889,
				"y": 1.4981579499,
				"z": 3.3564772015,
				"element": "C" 
			},
			{
				"x": 2.484385737,
				"y": 1.3429027698,
				"z": 3.5217732639,
				"element": "C" 
			},
			{
				"x": 3.0704924116,
				"y": 0.0794549936,
				"z": 3.418283017,
				"element": "C" 
			},
			{
				"x": 2.2682771766,
				"y": -1.0305697839,
				"z": 3.1510659258,
				"element": "C" 
			},
			{
				"x": 0.8939360266,
				"y": -0.8757192104,
				"z": 2.9637055251,
				"element": "C" 
			},
			{
				"x": -3.0664760692,
				"y": 1.6756060477,
				"z": 1.9523352686,
				"element": "C" 
			},
			{
				"x": -3.1505182144,
				"y": 2.1007656297,
				"z": 3.2194451318,
				"element": "O" 
			},
			{
				"x": -3.9399336228,
				"y": 1.8607522219,
				"z": 1.1350482648,
				"element": "O" 
			},
			{
				"x": 1.7719596574,
				"y": 0.7477705034,
				"z": -5.8601926226,
				"element": "H" 
			},
			{
				"x": 0.9502354492,
				"y": 1.9349757791,
				"z": -4.83281242,
				"element": "H" 
			},
			{
				"x": 0.1911618701,
				"y": 0.3577398274,
				"z": -5.1448689389,
				"element": "H" 
			},
			{
				"x": 3.0020247128,
				"y": 2.0972759204,
				"z": -3.3686335638,
				"element": "H" 
			},
			{
				"x": 3.8549360018,
				"y": 0.8834939517,
				"z": -4.3434093753,
				"element": "H" 
			},
			{
				"x": 3.6646178855,
				"y": 0.6446759026,
				"z": -2.5943327674,
				"element": "H" 
			},
			{
				"x": 2.5765404747,
				"y": -1.6052486011,
				"z": -2.9691014168,
				"element": "H" 
			},
			{
				"x": 2.7608334389,
				"y": -1.4196551297,
				"z": -4.7219238921,
				"element": "H" 
			},
			{
				"x": 1.1561351134,
				"y": -1.750408492,
				"z": -4.0294467023,
				"element": "H" 
			},
			{
				"x": 0.608311154,
				"y": 2.1163579888,
				"z": -0.7545127829,
				"element": "H" 
			},
			{
				"x": 0.8205293713,
				"y": 0.7151201815,
				"z": 0.2867479964,
				"element": "H" 
			},
			{
				"x": -0.3134581654,
				"y": 2.6226400851,
				"z": 1.4683214917,
				"element": "H" 
			},
			{
				"x": -1.5764566149,
				"y": 2.6211670983,
				"z": 0.2497876355,
				"element": "H" 
			},
			{
				"x": -1.2441815004,
				"y": -1.0298425858,
				"z": 0.8965736423,
				"element": "H" 
			},
			{
				"x": -2.9863784699,
				"y": -0.7268021079,
				"z": 0.9836483649,
				"element": "H" 
			},
			{
				"x": -2.2310468516,
				"y": -0.8484077411,
				"z": -1.3806135761,
				"element": "H" 
			},
			{
				"x": -2.8034511336,
				"y": 0.7798608824,
				"z": -1.0033656453,
				"element": "H" 
			},
			{
				"x": -1.5679751332,
				"y": -0.3104639639,
				"z": 3.1950738821,
				"element": "H" 
			},
			{
				"x": 0.6476901109,
				"y": 2.4714669344,
				"z": 3.4917540053,
				"element": "H" 
			},
			{
				"x": 3.0961348833,
				"y": 2.209521551,
				"z": 3.754826629,
				"element": "H" 
			},
			{
				"x": 4.1403442492,
				"y": -0.0401312133,
				"z": 3.5589288057,
				"element": "H" 
			},
			{
				"x": 2.7102460763,
				"y": -2.0203026704,
				"z": 3.0828914973,
				"element": "H" 
			},
			{
				"x": 0.2749392471,
				"y": -1.7441161826,
				"z": 2.7524968927,
				"element": "H" 
			},
			{
				"x": -2.3215326477,
				"y": 1.7706692147,
				"z": 3.6433493894,
				"element": "H" 
			}
		],
		 "valence_orbital": [ 
			{
				"type": "occ",
				"energy": -0.26907,
				"method": "rhf"
			},
			{
				"type": "occ",
				"energy": -0.26137,
				"method": "rhf"
			},
			{
				"type": "occ",
				"energy": -0.25549,
				"method": "rhf"
			},
			{
				"type": "occ",
				"energy": -0.24522,
				"method": "rhf"
			},
			{
				"type": "occ",
				"energy": -0.23028,
				"method": "rhf"
			},
			{
				"type": "unocc",
				"energy": -0.02196,
				"method": "rhf"
			},
			{
				"type": "unocc",
				"energy": -0.01982,
				"method": "rhf"
			},
			{
				"type": "unocc",
				"energy": 0.01185,
				"method": "rhf"
			},
			{
				"type": "unocc",
				"energy": 0.0586,
				"method": "rhf"
			},
			{
				"type": "unocc",
				"energy": 0.06268,
				"method": "rhf"
			}
		],
		"cosmo_sigma_profile": { 
			"-0.025": 0.0,
			"-0.024": 0.0,
			"-0.023": 0.0,
			"-0.022": 0.0,
			"-0.021": 0.0,
			"-0.02": 0.0,
			"-0.019": 0.0,
			"-0.018": 0.0,
			"-0.017": 0.0,
			"-0.016": 0.0,
			"-0.015": 0.0,
			"-0.014": 0.0,
			"-0.013": 1.05535864582,
			"-0.012": 1.96584206573,
			"-0.011": 1.82218431733,
			"-0.01": 2.20119090213,
			"-0.009": 3.0114149978,
			"-0.008": 3.35767211946,
			"-0.007": 6.3282085948,
			"-0.006": 12.1882775518,
			"-0.005": 17.9467004602,
			"-0.004": 33.8427297483,
			"-0.003": 40.140361294,
			"-0.002": 33.9431753018,
			"-0.001": 30.5015779613,
			"0.0": 36.7913095212,
			"0.001": 32.8835833749,
			"0.002": 17.808437389,
			"0.003": 15.4855666024,
			"0.004": 13.8804365368,
			"0.005": 14.4161804356,
			"0.006": 7.88667193651,
			"0.007": 4.93714097845,
			"0.008": 5.01556719413,
			"0.009": 3.21590273848,
			"0.01": 6.91406681025,
			"0.011": 5.72351822815,
			"0.012": 6.11807252015,
			"0.013": 4.80969692404,
			"0.014": 2.51816956536,
			"0.015": 0.0,
			"0.016": 0.0,
			"0.017": 0.0,
			"0.018": 0.0,
			"0.019": 0.0,
			"0.02": 0.0,
			"0.021": 0.0,
			"0.022": 0.0,
			"0.023": 0.0,
			"0.024": 0.0,
			"0.025": 0.0
		}
	}
}
