{
	 "smiles": "OC(=O)C1=NNC=CC1=O", 
	 "Tm": 473.15, 
	 "num_atms": 14, 
	 "gaussian": { 
		 "optdone": 1, 
		 "sigma_profile": "yes", 
		 "theory": "DFT", 
		 "functional": "B3LYP", 
		 "basiset": "6-31G**", 
		 "properties": { 
			 "R2extent": 1784.9209, 
			 "electric_dipole_moment_norm": 5.34454145461, 
			 "electric_quadrupole_moment_norm": 11.0718942801, 
			 "total_energy": -528.078041529, 
			 "HOMO_LUMO_gap": 0.17593, 
			 "cosmo_polarized_energy": -24.59, 
			 "cosmo_cavitation_energy": 19.82, 
			 "cosmo_dispersion_energy": -14.78, 
			 "cosmo_repulsion_energy": 1.23, 
			 "cosmo_total_nonelectrostatic_energy": 6.26, 
			 "SMD_solvation_energy": 5.17 
		},
		"coords": [
			{
				"x": 1.1985788586,
				"y": 0.9170450174,
				"z": -3.4378656712,
				"element": "O" 
			},
			{
				"x": 1.4704222421,
				"y": 0.3056332312,
				"z": -2.2709332271,
				"element": "C" 
			},
			{
				"x": 2.5505654444,
				"y": -0.1602497847,
				"z": -1.9879135708,
				"element": "O" 
			},
			{
				"x": 0.2591677404,
				"y": 0.2466430213,
				"z": -1.3761786641,
				"element": "C" 
			},
			{
				"x": 0.0591301676,
				"y": -0.9225560787,
				"z": -0.8319309761,
				"element": "N" 
			},
			{
				"x": -0.9937753709,
				"y": -1.0522354132,
				"z": -0.0181157348,
				"element": "N" 
			},
			{
				"x": -1.8728888288,
				"y": -0.0486882418,
				"z": 0.2780533383,
				"element": "C" 
			},
			{
				"x": -1.6991446726,
				"y": 1.1907539264,
				"z": -0.2458319917,
				"element": "C" 
			},
			{
				"x": -0.5623391642,
				"y": 1.4637278934,
				"z": -1.1187043704,
				"element": "C" 
			},
			{
				"x": -0.2863322205,
				"y": 2.5697861149,
				"z": -1.5755945185,
				"element": "O" 
			},
			{
				"x": 2.0329500853,
				"y": 0.9340863464,
				"z": -3.9369381526,
				"element": "H" 
			},
			{
				"x": -1.1055912567,
				"y": -1.9791197329,
				"z": 0.3657684373,
				"element": "H" 
			},
			{
				"x": -2.6855799585,
				"y": -0.3206946739,
				"z": 0.943803581,
				"element": "H" 
			},
			{
				"x": -2.3848630662,
				"y": 1.9975683741,
				"z": -0.0163184792,
				"element": "H" 
			}
		],
		 "valence_orbital": [ 
			{
				"type": "occ",
				"energy": -0.33066,
				"method": "rhf"
			},
			{
				"type": "occ",
				"energy": -0.31459,
				"method": "rhf"
			},
			{
				"type": "occ",
				"energy": -0.27943,
				"method": "rhf"
			},
			{
				"type": "occ",
				"energy": -0.24605,
				"method": "rhf"
			},
			{
				"type": "occ",
				"energy": -0.23787,
				"method": "rhf"
			},
			{
				"type": "unocc",
				"energy": -0.06194,
				"method": "rhf"
			},
			{
				"type": "unocc",
				"energy": -0.04131,
				"method": "rhf"
			},
			{
				"type": "unocc",
				"energy": 0.02127,
				"method": "rhf"
			},
			{
				"type": "unocc",
				"energy": 0.0449,
				"method": "rhf"
			},
			{
				"type": "unocc",
				"energy": 0.08388,
				"method": "rhf"
			}
		],
		"cosmo_sigma_profile": { 
			"-0.025": 0.0,
			"-0.024": 0.0,
			"-0.023": 0.0,
			"-0.022": 0.0,
			"-0.021": 0.0,
			"-0.02": 0.0,
			"-0.019": 0.795970956137,
			"-0.018": 3.35323942712,
			"-0.017": 2.50715902601,
			"-0.016": 2.4871741338,
			"-0.015": 1.69712056861,
			"-0.014": 1.17051193555,
			"-0.013": 2.56411788886,
			"-0.012": 2.27647013733,
			"-0.011": 4.00684779409,
			"-0.01": 2.76479459166,
			"-0.009": 2.86761686141,
			"-0.008": 4.68598919836,
			"-0.007": 5.34947150922,
			"-0.006": 4.34474683829,
			"-0.005": 4.50551370684,
			"-0.004": 6.16723438701,
			"-0.003": 9.38270918652,
			"-0.002": 9.93432635322,
			"-0.001": 8.25505071625,
			"0.0": 8.6935738643,
			"0.001": 7.80485458826,
			"0.002": 4.47248423821,
			"0.003": 3.41121230796,
			"0.004": 4.16047580723,
			"0.005": 3.91324108149,
			"0.006": 3.15659332139,
			"0.007": 3.51499411686,
			"0.008": 5.51278193962,
			"0.009": 3.96378159098,
			"0.01": 5.40110054111,
			"0.011": 8.9693840807,
			"0.012": 5.60584292275,
			"0.013": 4.60171988963,
			"0.014": 5.29292054878,
			"0.015": 1.45510510244,
			"0.016": 0.0,
			"0.017": 0.0,
			"0.018": 0.0,
			"0.019": 0.0,
			"0.02": 0.0,
			"0.021": 0.0,
			"0.022": 0.0,
			"0.023": 0.0,
			"0.024": 0.0,
			"0.025": 0.0
		}
	}
}
