{
	 "smiles": "IC1=CC=CC2=CC=CC(I)=C12", 
	 "Tm": 379.15, 
	 "num_atms": 18, 
	 "gaussian": { 
		 "optdone": 1, 
		 "sigma_profile": "no", 
		 "theory": "DFT", 
		 "functional": "B3LYP", 
		 "basiset": "6-31G**", 
		 "properties": { 
			 "R2extent": 2420.8251, 
			 "electric_dipole_moment_norm": 3.09343513913, 
			 "electric_quadrupole_moment_norm": 8.25236447935, 
			 "total_energy": -407.436148123, 
			 "HOMO_LUMO_gap": 0.15684, 
			 "cosmo_polarized_energy": -285596.04, 
			 "cosmo_cavitation_energy": 27.26, 
			 "cosmo_dispersion_energy": -22.99, 
			 "cosmo_repulsion_energy": 1.71, 
			 "cosmo_total_nonelectrostatic_energy": 5.98, 
			 "SMD_solvation_energy": 2.8 
		},
		"coords": [
			{
				"x": -0.2281214368,
				"y": -0.6312980275,
				"z": -4.3181400909,
				"element": "I" 
			},
			{
				"x": 0.3775592566,
				"y": -0.1378690154,
				"z": -2.3232251485,
				"element": "C" 
			},
			{
				"x": 1.7161497904,
				"y": -0.4381519925,
				"z": -2.1376347407,
				"element": "C" 
			},
			{
				"x": 2.3693568957,
				"y": -0.2109253215,
				"z": -0.9125036026,
				"element": "C" 
			},
			{
				"x": 1.6589480874,
				"y": 0.3234447904,
				"z": 0.1274778422,
				"element": "C" 
			},
			{
				"x": 0.2850900074,
				"y": 0.6480875155,
				"z": -0.0127287868,
				"element": "C" 
			},
			{
				"x": -0.3684123902,
				"y": 1.197501663,
				"z": 1.1202309663,
				"element": "C" 
			},
			{
				"x": -1.6922392455,
				"y": 1.5400904785,
				"z": 1.0763723509,
				"element": "C" 
			},
			{
				"x": -2.4081130563,
				"y": 1.339893579,
				"z": -0.1180732685,
				"element": "C" 
			},
			{
				"x": -1.8146858011,
				"y": 0.807338243,
				"z": -1.2497380854,
				"element": "C" 
			},
			{
				"x": -3.239415125,
				"y": 0.6671715479,
				"z": -2.8436188431,
				"element": "I" 
			},
			{
				"x": -0.4252109515,
				"y": 0.4263695233,
				"z": -1.2680806822,
				"element": "C" 
			},
			{
				"x": 2.2815737126,
				"y": -0.8613396589,
				"z": -2.9588077973,
				"element": "H" 
			},
			{
				"x": 3.4205483255,
				"y": -0.4607509781,
				"z": -0.8093661197,
				"element": "H" 
			},
			{
				"x": 2.1313967371,
				"y": 0.5120038935,
				"z": 1.0871195213,
				"element": "H" 
			},
			{
				"x": 0.2145344184,
				"y": 1.3384406345,
				"z": 2.025759116,
				"element": "H" 
			},
			{
				"x": -2.1959922859,
				"y": 1.960604696,
				"z": 1.940926569,
				"element": "H" 
			},
			{
				"x": -3.4559669388,
				"y": 1.6121884293,
				"z": -0.1492692,
				"element": "H" 
			}
		],
		 "valence_orbital": [ 
			{
				"type": "occ",
				"energy": -0.27932,
				"method": "rhf"
			},
			{
				"type": "occ",
				"energy": -0.26469,
				"method": "rhf"
			},
			{
				"type": "occ",
				"energy": -0.25674,
				"method": "rhf"
			},
			{
				"type": "occ",
				"energy": -0.23323,
				"method": "rhf"
			},
			{
				"type": "occ",
				"energy": -0.21797,
				"method": "rhf"
			},
			{
				"type": "unocc",
				"energy": -0.06113,
				"method": "rhf"
			},
			{
				"type": "unocc",
				"energy": -0.04492,
				"method": "rhf"
			},
			{
				"type": "unocc",
				"energy": -0.04075,
				"method": "rhf"
			},
			{
				"type": "unocc",
				"energy": -0.0302,
				"method": "rhf"
			},
			{
				"type": "unocc",
				"energy": 0.00959,
				"method": "rhf"
			}
		],
		"cosmo_sigma_profile": { 
			"0.0": 0.0,
			"0.0": 0.0,
			"0.0": 0.0,
			"0.0": 0.0,
			"0.0": 0.0,
			"0.0": 0.0,
			"0.0": 0.0,
			"0.0": 0.0,
			"0.0": 0.0,
			"0.0": 0.0,
			"0.0": 0.0,
			"0.0": 0.0,
			"0.0": 0.0,
			"0.0": 0.0,
			"0.0": 0.0,
			"0.0": 0.0,
			"0.0": 0.0,
			"0.0": 0.0,
			"0.0": 0.0,
			"0.0": 0.0,
			"0.0": 0.0,
			"0.0": 0.0,
			"0.0": 0.0,
			"0.0": 0.0,
			"0.0": 0.0,
			"0.0": 0.0,
			"0.0": 0.0,
			"0.0": 0.0,
			"0.0": 0.0,
			"0.0": 0.0,
			"0.0": 0.0,
			"0.0": 0.0,
			"0.0": 0.0,
			"0.0": 0.0,
			"0.0": 0.0,
			"0.0": 0.0,
			"0.0": 0.0,
			"0.0": 0.0,
			"0.0": 0.0,
			"0.0": 0.0,
			"0.0": 0.0,
			"0.0": 0.0,
			"0.0": 0.0,
			"0.0": 0.0,
			"0.0": 0.0,
			"0.0": 0.0,
			"0.0": 0.0,
			"0.0": 0.0,
			"0.0": 0.0,
			"0.0": 0.0,
			"0.0": 0.0
		}
	}
}
