{
	 "smiles": "OC(=O)CNC=O", 
	 "Tm": 422.15, 
	 "num_atms": 12, 
	 "gaussian": { 
		 "optdone": 1, 
		 "sigma_profile": "yes", 
		 "theory": "DFT", 
		 "functional": "B3LYP", 
		 "basiset": "6-31G**", 
		 "properties": { 
			 "R2extent": 1109.4892, 
			 "electric_dipole_moment_norm": 1.7792403098, 
			 "electric_quadrupole_moment_norm": 19.6588612193, 
			 "total_energy": -397.762452845, 
			 "HOMO_LUMO_gap": 0.26148, 
			 "cosmo_polarized_energy": -19.95, 
			 "cosmo_cavitation_energy": 17.02, 
			 "cosmo_dispersion_energy": -12.43, 
			 "cosmo_repulsion_energy": 1.09, 
			 "cosmo_total_nonelectrostatic_energy": 5.68, 
			 "SMD_solvation_energy": 6.21 
		},
		"coords": [
			{
				"x": -1.0034082901,
				"y": -1.2945897511,
				"z": 1.8746841551,
				"element": "O" 
			},
			{
				"x": -0.8676947058,
				"y": 0.0096751981,
				"z": 1.5711646863,
				"element": "C" 
			},
			{
				"x": -0.9079803603,
				"y": 0.8804134665,
				"z": 2.4025042975,
				"element": "O" 
			},
			{
				"x": -0.6220342649,
				"y": 0.3187940012,
				"z": 0.0848273201,
				"element": "C" 
			},
			{
				"x": -0.9258372531,
				"y": -0.7873849261,
				"z": -0.8106722113,
				"element": "N" 
			},
			{
				"x": -0.0155012695,
				"y": -1.3099849813,
				"z": -1.7103665317,
				"element": "C" 
			},
			{
				"x": -0.3064760131,
				"y": -2.0587699632,
				"z": -2.616980917,
				"element": "O" 
			},
			{
				"x": -0.9495115788,
				"y": -1.8040443067,
				"z": 1.0461235476,
				"element": "H" 
			},
			{
				"x": -1.18937998,
				"y": 1.2204885483,
				"z": -0.1634447428,
				"element": "H" 
			},
			{
				"x": 0.4387981131,
				"y": 0.5732478387,
				"z": -0.0195995139,
				"element": "H" 
			},
			{
				"x": -1.894317479,
				"y": -0.9317956177,
				"z": -1.0771608531,
				"element": "H" 
			},
			{
				"x": 1.0215430815,
				"y": -0.9878495066,
				"z": -1.4877792367,
				"element": "H" 
			}
		],
		 "valence_orbital": [ 
			{
				"type": "occ",
				"energy": -0.39336,
				"method": "rhf"
			},
			{
				"type": "occ",
				"energy": -0.32592,
				"method": "rhf"
			},
			{
				"type": "occ",
				"energy": -0.31222,
				"method": "rhf"
			},
			{
				"type": "occ",
				"energy": -0.28921,
				"method": "rhf"
			},
			{
				"type": "occ",
				"energy": -0.27226,
				"method": "rhf"
			},
			{
				"type": "unocc",
				"energy": -0.01078,
				"method": "rhf"
			},
			{
				"type": "unocc",
				"energy": -0.00334,
				"method": "rhf"
			},
			{
				"type": "unocc",
				"energy": 0.05466,
				"method": "rhf"
			},
			{
				"type": "unocc",
				"energy": 0.07901,
				"method": "rhf"
			},
			{
				"type": "unocc",
				"energy": 0.09538,
				"method": "rhf"
			}
		],
		"cosmo_sigma_profile": { 
			"-0.025": 0.0,
			"-0.024": 0.0,
			"-0.023": 0.0,
			"-0.022": 0.0,
			"-0.021": 0.0,
			"-0.02": 0.0,
			"-0.019": 0.0,
			"-0.018": 0.0,
			"-0.017": 0.0,
			"-0.016": 0.104405647405,
			"-0.015": 2.24083400848,
			"-0.014": 1.88763478586,
			"-0.013": 2.39838213752,
			"-0.012": 4.20103927604,
			"-0.011": 4.34720412015,
			"-0.01": 6.30660232322,
			"-0.009": 5.47387230938,
			"-0.008": 7.81663229936,
			"-0.007": 6.87268353711,
			"-0.006": 6.61583713226,
			"-0.005": 6.86723290201,
			"-0.004": 4.47984427936,
			"-0.003": 4.19860161508,
			"-0.002": 2.84792845079,
			"-0.001": 3.02159006637,
			"0.0": 3.29698221846,
			"0.001": 2.52514640678,
			"0.002": 3.44020830206,
			"0.003": 2.85994013141,
			"0.004": 3.34966409333,
			"0.005": 2.82800544458,
			"0.006": 3.43050204511,
			"0.007": 3.55788220049,
			"0.008": 3.85914845328,
			"0.009": 4.82958392056,
			"0.01": 7.20656394295,
			"0.011": 7.42898990561,
			"0.012": 10.1768482753,
			"0.013": 5.85258352244,
			"0.014": 0.504142126277,
			"0.015": 0.0,
			"0.016": 0.0,
			"0.017": 0.0,
			"0.018": 0.0,
			"0.019": 0.0,
			"0.02": 0.0,
			"0.021": 0.0,
			"0.022": 0.0,
			"0.023": 0.0,
			"0.024": 0.0,
			"0.025": 0.0
		}
	}
}
