{
	 "smiles": "CCN1C(=O)NC(=O)C(C2=CSC(C)=N2)=C1N", 
	 "Tm": 524.15, 
	 "num_atms": 29, 
	 "gaussian": { 
		 "optdone": 1, 
		 "sigma_profile": "yes", 
		 "theory": "DFT", 
		 "functional": "B3LYP", 
		 "basiset": "6-31G**", 
		 "properties": { 
			 "R2extent": 6033.7323, 
			 "electric_dipole_moment_norm": 5.65539310305, 
			 "electric_quadrupole_moment_norm": 7.11218985405, 
			 "total_energy": -1155.99902943, 
			 "HOMO_LUMO_gap": 0.16909, 
			 "cosmo_polarized_energy": -17.15, 
			 "cosmo_cavitation_energy": 33.56, 
			 "cosmo_dispersion_energy": -25.49, 
			 "cosmo_repulsion_energy": 1.91, 
			 "cosmo_total_nonelectrostatic_energy": 9.98, 
			 "SMD_solvation_energy": 6.07 
		},
		"coords": [
			{
				"x": 1.2310385789,
				"y": 0.6443674034,
				"z": -3.061521235,
				"element": "C" 
			},
			{
				"x": 1.633072526,
				"y": 1.654997319,
				"z": -1.9837553352,
				"element": "C" 
			},
			{
				"x": 0.723013912,
				"y": 1.6620167808,
				"z": -0.8237554982,
				"element": "N" 
			},
			{
				"x": -0.3236521957,
				"y": 2.5935598896,
				"z": -0.8853216576,
				"element": "C" 
			},
			{
				"x": -0.5064280869,
				"y": 3.3119032669,
				"z": -1.8578687226,
				"element": "O" 
			},
			{
				"x": -1.1056478553,
				"y": 2.6314109939,
				"z": 0.2383507513,
				"element": "N" 
			},
			{
				"x": -0.9955122889,
				"y": 1.8509038606,
				"z": 1.4044677866,
				"element": "C" 
			},
			{
				"x": -1.8092023413,
				"y": 2.0507968446,
				"z": 2.3050283772,
				"element": "O" 
			},
			{
				"x": 0.07366844,
				"y": 0.8731522076,
				"z": 1.3878371734,
				"element": "C" 
			},
			{
				"x": 0.2160487249,
				"y": -0.0286297487,
				"z": 2.5429709283,
				"element": "C" 
			},
			{
				"x": -0.5536749,
				"y": -0.0132614193,
				"z": 3.6839793994,
				"element": "C" 
			},
			{
				"x": -0.0467469155,
				"y": -1.2573521126,
				"z": 4.7753381817,
				"element": "S" 
			},
			{
				"x": 1.1874946271,
				"y": -1.7416295404,
				"z": 3.6375503304,
				"element": "C" 
			},
			{
				"x": 2.1336591342,
				"y": -2.8725727541,
				"z": 3.9048544533,
				"element": "C" 
			},
			{
				"x": 1.1956294839,
				"y": -1.0218048484,
				"z": 2.5506641561,
				"element": "N" 
			},
			{
				"x": 0.9060365323,
				"y": 0.8123077598,
				"z": 0.2644058685,
				"element": "C" 
			},
			{
				"x": 1.9630052458,
				"y": -0.0385142423,
				"z": 0.1873623286,
				"element": "N" 
			},
			{
				"x": 0.2368014131,
				"y": 0.8862523512,
				"z": -3.4452096932,
				"element": "H" 
			},
			{
				"x": 1.2089515322,
				"y": -0.3847153624,
				"z": -2.6864868707,
				"element": "H" 
			},
			{
				"x": 1.939286873,
				"y": 0.6861103701,
				"z": -3.8950970547,
				"element": "H" 
			},
			{
				"x": 2.6481990662,
				"y": 1.4853307502,
				"z": -1.6162074604,
				"element": "H" 
			},
			{
				"x": 1.5926410402,
				"y": 2.6618610535,
				"z": -2.3980389619,
				"element": "H" 
			},
			{
				"x": -1.8644332126,
				"y": 3.3009506022,
				"z": 0.2288559588,
				"element": "H" 
			},
			{
				"x": -1.3686313078,
				"y": 0.6537403236,
				"z": 3.9084620241,
				"element": "H" 
			},
			{
				"x": 1.5995193451,
				"y": -3.8179658031,
				"z": 4.0471572475,
				"element": "H" 
			},
			{
				"x": 2.7314120396,
				"y": -2.6915569523,
				"z": 4.804383813,
				"element": "H" 
			},
			{
				"x": 2.8097473162,
				"y": -2.9794744216,
				"z": 3.0542459665,
				"element": "H" 
			},
			{
				"x": 2.3036631436,
				"y": -0.3221313934,
				"z": -0.7158821391,
				"element": "H" 
			},
			{
				"x": 2.0110401297,
				"y": -0.7082531787,
				"z": 0.9625298839,
				"element": "H" 
			}
		],
		 "valence_orbital": [ 
			{
				"type": "occ",
				"energy": -0.27783,
				"method": "rhf"
			},
			{
				"type": "occ",
				"energy": -0.27501,
				"method": "rhf"
			},
			{
				"type": "occ",
				"energy": -0.26227,
				"method": "rhf"
			},
			{
				"type": "occ",
				"energy": -0.24928,
				"method": "rhf"
			},
			{
				"type": "occ",
				"energy": -0.1952,
				"method": "rhf"
			},
			{
				"type": "unocc",
				"energy": -0.02611,
				"method": "rhf"
			},
			{
				"type": "unocc",
				"energy": -0.01122,
				"method": "rhf"
			},
			{
				"type": "unocc",
				"energy": 0.01299,
				"method": "rhf"
			},
			{
				"type": "unocc",
				"energy": 0.02257,
				"method": "rhf"
			},
			{
				"type": "unocc",
				"energy": 0.05917,
				"method": "rhf"
			}
		],
		"cosmo_sigma_profile": { 
			"-0.025": 0.0,
			"-0.024": 0.0,
			"-0.023": 0.0,
			"-0.022": 0.0,
			"-0.021": 0.0,
			"-0.02": 0.0,
			"-0.019": 0.0,
			"-0.018": 0.0,
			"-0.017": 0.0,
			"-0.016": 0.0,
			"-0.015": 0.879653669194,
			"-0.014": 1.31867401729,
			"-0.013": 1.66624054051,
			"-0.012": 2.11396779931,
			"-0.011": 2.64235086312,
			"-0.01": 1.79017901238,
			"-0.009": 2.75452922197,
			"-0.008": 2.77137050697,
			"-0.007": 3.28969280574,
			"-0.006": 8.59477889193,
			"-0.005": 15.8353111386,
			"-0.004": 23.3910310735,
			"-0.003": 25.3338263281,
			"-0.002": 24.2346260896,
			"-0.001": 22.8511655499,
			"0.0": 20.3560538054,
			"0.001": 16.0530965154,
			"0.002": 18.0655533069,
			"0.003": 18.5684995958,
			"0.004": 12.6853699355,
			"0.005": 8.01679154771,
			"0.006": 5.68836946129,
			"0.007": 4.09410191338,
			"0.008": 2.69872848984,
			"0.009": 2.13579643711,
			"0.01": 3.32157959905,
			"0.011": 3.53921395938,
			"0.012": 5.634754057,
			"0.013": 6.67461373691,
			"0.014": 2.43573335601,
			"0.015": 0.0647985181555,
			"0.016": 0.0,
			"0.017": 0.0,
			"0.018": 0.0,
			"0.019": 0.0,
			"0.02": 0.0,
			"0.021": 0.0,
			"0.022": 0.0,
			"0.023": 0.0,
			"0.024": 0.0,
			"0.025": 0.0
		}
	}
}
