{
	 "smiles": "C1CC2=C(CN1)NN=N2", 
	 "Tm": 428.15, 
	 "num_atms": 17, 
	 "gaussian": { 
		 "optdone": 1, 
		 "sigma_profile": "yes", 
		 "theory": "DFT", 
		 "functional": "B3LYP", 
		 "basiset": "6-31G**", 
		 "properties": { 
			 "R2extent": 1149.8125, 
			 "electric_dipole_moment_norm": 3.71397501338, 
			 "electric_quadrupole_moment_norm": 17.6476073449, 
			 "total_energy": -414.310133775, 
			 "HOMO_LUMO_gap": 0.23615, 
			 "cosmo_polarized_energy": -16.66, 
			 "cosmo_cavitation_energy": 19.63, 
			 "cosmo_dispersion_energy": -15.36, 
			 "cosmo_repulsion_energy": 1.27, 
			 "cosmo_total_nonelectrostatic_energy": 5.54, 
			 "SMD_solvation_energy": -1.1 
		},
		"coords": [
			{
				"x": 1.2485865128,
				"y": 1.1215458605,
				"z": 1.0251395424,
				"element": "C" 
			},
			{
				"x": 1.7681395025,
				"y": 0.4778335728,
				"z": -0.2860128872,
				"element": "C" 
			},
			{
				"x": 0.597301913,
				"y": -0.1037613132,
				"z": -1.0156413295,
				"element": "C" 
			},
			{
				"x": -0.7068070744,
				"y": 0.2139654367,
				"z": -0.7070550024,
				"element": "C" 
			},
			{
				"x": -1.1218146385,
				"y": 1.1557318426,
				"z": 0.3887153789,
				"element": "C" 
			},
			{
				"x": 0.0291415362,
				"y": 1.9306353597,
				"z": 0.8723643241,
				"element": "N" 
			},
			{
				"x": -1.4322174585,
				"y": -0.5312053754,
				"z": -1.5785680939,
				"element": "N" 
			},
			{
				"x": -0.624799234,
				"y": -1.2641984807,
				"z": -2.3914069849,
				"element": "N" 
			},
			{
				"x": 0.6051961145,
				"y": -1.000385941,
				"z": -2.0465230322,
				"element": "N" 
			},
			{
				"x": 1.0255826066,
				"y": 0.3305084536,
				"z": 1.7520426557,
				"element": "H" 
			},
			{
				"x": 2.0221737994,
				"y": 1.7550182554,
				"z": 1.4703752668,
				"element": "H" 
			},
			{
				"x": 2.5163202625,
				"y": -0.2921435035,
				"z": -0.0654957363,
				"element": "H" 
			},
			{
				"x": 2.2728771849,
				"y": 1.2332387504,
				"z": -0.9044820629,
				"element": "H" 
			},
			{
				"x": -1.5472922953,
				"y": 0.5929181503,
				"z": 1.2322497448,
				"element": "H" 
			},
			{
				"x": -1.8992603688,
				"y": 1.8541241197,
				"z": 0.0574594903,
				"element": "H" 
			},
			{
				"x": 0.2150614353,
				"y": 2.6833341205,
				"z": 0.2129555595,
				"element": "H" 
			},
			{
				"x": -2.432889798,
				"y": -0.6015593083,
				"z": -1.6916168331,
				"element": "H" 
			}
		],
		 "valence_orbital": [ 
			{
				"type": "occ",
				"energy": -0.31766,
				"method": "rhf"
			},
			{
				"type": "occ",
				"energy": -0.29072,
				"method": "rhf"
			},
			{
				"type": "occ",
				"energy": -0.25888,
				"method": "rhf"
			},
			{
				"type": "occ",
				"energy": -0.2446,
				"method": "rhf"
			},
			{
				"type": "occ",
				"energy": -0.23491,
				"method": "rhf"
			},
			{
				"type": "unocc",
				"energy": 0.00124,
				"method": "rhf"
			},
			{
				"type": "unocc",
				"energy": 0.05207,
				"method": "rhf"
			},
			{
				"type": "unocc",
				"energy": 0.07335,
				"method": "rhf"
			},
			{
				"type": "unocc",
				"energy": 0.07842,
				"method": "rhf"
			},
			{
				"type": "unocc",
				"energy": 0.11887,
				"method": "rhf"
			}
		],
		"cosmo_sigma_profile": { 
			"-0.025": 0.0,
			"-0.024": 0.0,
			"-0.023": 0.0,
			"-0.022": 0.0,
			"-0.021": 0.0,
			"-0.02": 0.0,
			"-0.019": 0.0,
			"-0.018": 0.167291901473,
			"-0.017": 1.749824035,
			"-0.016": 1.18595984097,
			"-0.015": 1.47403071401,
			"-0.014": 1.25213684165,
			"-0.013": 1.04702350814,
			"-0.012": 0.699012078768,
			"-0.011": 1.69253420334,
			"-0.01": 2.62204028027,
			"-0.009": 1.97142648239,
			"-0.008": 2.41253321414,
			"-0.007": 4.64977150167,
			"-0.006": 6.99908186269,
			"-0.005": 7.5574776606,
			"-0.004": 16.4344292116,
			"-0.003": 15.0379897945,
			"-0.002": 12.2818633349,
			"-0.001": 10.775412745,
			"0.0": 6.5081481416,
			"0.001": 5.85691307976,
			"0.002": 6.06665025299,
			"0.003": 4.05724859371,
			"0.004": 3.21223617649,
			"0.005": 2.84594501123,
			"0.006": 3.61395246181,
			"0.007": 3.16168874539,
			"0.008": 2.50124669058,
			"0.009": 3.04963815675,
			"0.01": 3.13924974334,
			"0.011": 3.75842902987,
			"0.012": 4.18825447021,
			"0.013": 4.30346739035,
			"0.014": 2.99098709773,
			"0.015": 2.35123220824,
			"0.016": 1.58029391737,
			"0.017": 0.972749930898,
			"0.018": 0.255060947545,
			"0.019": 0.0,
			"0.02": 0.0,
			"0.021": 0.0,
			"0.022": 0.0,
			"0.023": 0.0,
			"0.024": 0.0,
			"0.025": 0.0
		}
	}
}
