{
	 "smiles": "CC1=CC(SCC(O)=O)=C(C)C=C1", 
	 "Tm": 347.15, 
	 "num_atms": 25, 
	 "gaussian": { 
		 "optdone": 1, 
		 "sigma_profile": "yes", 
		 "theory": "DFT", 
		 "functional": "B3LYP", 
		 "basiset": "6-31G**", 
		 "properties": { 
			 "R2extent": 3968.6529, 
			 "electric_dipole_moment_norm": 3.8592564802, 
			 "electric_quadrupole_moment_norm": 15.0730424537, 
			 "total_energy": -936.95125723, 
			 "HOMO_LUMO_gap": 0.20765, 
			 "cosmo_polarized_energy": -12.08, 
			 "cosmo_cavitation_energy": 29.82, 
			 "cosmo_dispersion_energy": -21.51, 
			 "cosmo_repulsion_energy": 1.67, 
			 "cosmo_total_nonelectrostatic_energy": 9.98, 
			 "SMD_solvation_energy": 6.05 
		},
		"coords": [
			{
				"x": 0.6864563152,
				"y": -0.5541794488,
				"z": 3.0892487811,
				"element": "C" 
			},
			{
				"x": 0.7774999742,
				"y": 0.1177695183,
				"z": 1.739702256,
				"element": "C" 
			},
			{
				"x": 1.6465053061,
				"y": -0.353544539,
				"z": 0.7525659165,
				"element": "C" 
			},
			{
				"x": 1.7150188047,
				"y": 0.2419778003,
				"z": -0.5145975845,
				"element": "C" 
			},
			{
				"x": 2.9019032661,
				"y": -0.4423895705,
				"z": -1.6912634702,
				"element": "S" 
			},
			{
				"x": 2.0940521044,
				"y": -2.028031753,
				"z": -2.1614171105,
				"element": "C" 
			},
			{
				"x": 1.0067900274,
				"y": -1.9491272588,
				"z": -3.2403014087,
				"element": "C" 
			},
			{
				"x": 1.0761035347,
				"y": -0.8977386929,
				"z": -4.0816434591,
				"element": "O" 
			},
			{
				"x": 0.1704768546,
				"y": -2.8092666967,
				"z": -3.3589465202,
				"element": "O" 
			},
			{
				"x": 0.9277362553,
				"y": 1.3673425914,
				"z": -0.82531836,
				"element": "C" 
			},
			{
				"x": 0.9621425182,
				"y": 2.0599324399,
				"z": -2.1672780648,
				"element": "C" 
			},
			{
				"x": 0.0728305915,
				"y": 1.8425021664,
				"z": 0.1806135332,
				"element": "C" 
			},
			{
				"x": -0.0091776845,
				"y": 1.2343445314,
				"z": 1.4297054015,
				"element": "C" 
			},
			{
				"x": 1.5454772575,
				"y": -1.2059745309,
				"z": 3.2710713585,
				"element": "H" 
			},
			{
				"x": 0.6426768751,
				"y": 0.181095702,
				"z": 3.8992104929,
				"element": "H" 
			},
			{
				"x": -0.2172064823,
				"y": -1.1713966622,
				"z": 3.1637528807,
				"element": "H" 
			},
			{
				"x": 2.2937924383,
				"y": -1.1988136603,
				"z": 0.9707706071,
				"element": "H" 
			},
			{
				"x": 1.6743716928,
				"y": -2.5205671471,
				"z": -1.283811693,
				"element": "H" 
			},
			{
				"x": 2.8990429569,
				"y": -2.6639290491,
				"z": -2.5466768058,
				"element": "H" 
			},
			{
				"x": 1.7895022203,
				"y": -0.3068953487,
				"z": -3.7714675821,
				"element": "H" 
			},
			{
				"x": 0.3464500865,
				"y": 2.9627271247,
				"z": -2.1473245206,
				"element": "H" 
			},
			{
				"x": 1.9776877618,
				"y": 2.3515977152,
				"z": -2.4525021139,
				"element": "H" 
			},
			{
				"x": 0.5715425453,
				"y": 1.4116977901,
				"z": -2.9590124708,
				"element": "H" 
			},
			{
				"x": -0.5451483209,
				"y": 2.7116220592,
				"z": -0.0290767857,
				"element": "H" 
			},
			{
				"x": -0.6877268992,
				"y": 1.638044919,
				"z": 2.1771967225,
				"element": "H" 
			}
		],
		 "valence_orbital": [ 
			{
				"type": "occ",
				"energy": -0.31321,
				"method": "rhf"
			},
			{
				"type": "occ",
				"energy": -0.28313,
				"method": "rhf"
			},
			{
				"type": "occ",
				"energy": -0.26874,
				"method": "rhf"
			},
			{
				"type": "occ",
				"energy": -0.24973,
				"method": "rhf"
			},
			{
				"type": "occ",
				"energy": -0.2395,
				"method": "rhf"
			},
			{
				"type": "unocc",
				"energy": -0.03185,
				"method": "rhf"
			},
			{
				"type": "unocc",
				"energy": -0.01078,
				"method": "rhf"
			},
			{
				"type": "unocc",
				"energy": 0.00558,
				"method": "rhf"
			},
			{
				"type": "unocc",
				"energy": 0.03314,
				"method": "rhf"
			},
			{
				"type": "unocc",
				"energy": 0.05762,
				"method": "rhf"
			}
		],
		"cosmo_sigma_profile": { 
			"-0.025": 0.0,
			"-0.024": 0.0,
			"-0.023": 0.0,
			"-0.022": 0.0,
			"-0.021": 0.0,
			"-0.02": 0.0,
			"-0.019": 0.0,
			"-0.018": 0.0,
			"-0.017": 0.0,
			"-0.016": 0.0,
			"-0.015": 0.0,
			"-0.014": 0.0,
			"-0.013": 0.0858735160612,
			"-0.012": 0.616059030645,
			"-0.011": 1.14830252588,
			"-0.01": 1.91711598064,
			"-0.009": 4.90546398072,
			"-0.008": 3.058346724,
			"-0.007": 4.62724534651,
			"-0.006": 7.66259683253,
			"-0.005": 15.4465516978,
			"-0.004": 20.4877354423,
			"-0.003": 21.5739586864,
			"-0.002": 20.2675619924,
			"-0.001": 21.4125793104,
			"0.0": 23.5169283966,
			"0.001": 13.9532027788,
			"0.002": 9.72785028451,
			"0.003": 12.3677902319,
			"0.004": 12.732931545,
			"0.005": 11.4135044317,
			"0.006": 3.73229531549,
			"0.007": 3.89025639868,
			"0.008": 3.61095057388,
			"0.009": 3.83454792079,
			"0.01": 4.86692085292,
			"0.011": 4.91402122631,
			"0.012": 5.11009680862,
			"0.013": 1.12638164863,
			"0.014": 0.0,
			"0.015": 0.0,
			"0.016": 0.0,
			"0.017": 0.0,
			"0.018": 0.0,
			"0.019": 0.0,
			"0.02": 0.0,
			"0.021": 0.0,
			"0.022": 0.0,
			"0.023": 0.0,
			"0.024": 0.0,
			"0.0": 0.0
		}
	}
}
