{
	 "smiles": "CC1=CC(C(=O)CCl)=C(C)N1", 
	 "Tm": 417.15, 
	 "num_atms": 21, 
	 "gaussian": { 
		 "optdone": 1, 
		 "sigma_profile": "yes", 
		 "theory": "DFT", 
		 "functional": "B3LYP", 
		 "basiset": "6-31G**", 
		 "properties": { 
			 "R2extent": 3629.9594, 
			 "electric_dipole_moment_norm": 7.42586555965, 
			 "electric_quadrupole_moment_norm": 20.3367452307, 
			 "total_energy": -901.049643041, 
			 "HOMO_LUMO_gap": 0.18761, 
			 "cosmo_polarized_energy": -18.83, 
			 "cosmo_cavitation_energy": 26.43, 
			 "cosmo_dispersion_energy": -19.39, 
			 "cosmo_repulsion_energy": 1.58, 
			 "cosmo_total_nonelectrostatic_energy": 8.62, 
			 "SMD_solvation_energy": 4.78 
		},
		"coords": [
			{
				"x": -0.3685020217,
				"y": 0.5649515809,
				"z": -2.8701182594,
				"element": "C" 
			},
			{
				"x": -0.0058684311,
				"y": -0.0345019877,
				"z": -1.5500285483,
				"element": "C" 
			},
			{
				"x": -0.0546233589,
				"y": -1.323833933,
				"z": -1.0901243088,
				"element": "C" 
			},
			{
				"x": 0.4150814836,
				"y": -1.3387534618,
				"z": 0.265835052,
				"element": "C" 
			},
			{
				"x": 0.4849287651,
				"y": -2.5834672812,
				"z": 1.0460282014,
				"element": "C" 
			},
			{
				"x": 0.1461710322,
				"y": -3.6543734776,
				"z": 0.5715003898,
				"element": "O" 
			},
			{
				"x": 1.0043901606,
				"y": -2.4761623573,
				"z": 2.4887174397,
				"element": "C" 
			},
			{
				"x": 1.0480808869,
				"y": -4.0485630781,
				"z": 3.3480490535,
				"element": "Cl" 
			},
			{
				"x": 0.7458726825,
				"y": -0.0214193665,
				"z": 0.6029664896,
				"element": "C" 
			},
			{
				"x": 1.2827430237,
				"y": 0.6301937241,
				"z": 1.8416970828,
				"element": "C" 
			},
			{
				"x": 0.4828799639,
				"y": 0.7382346168,
				"z": -0.5058939904,
				"element": "N" 
			},
			{
				"x": -0.7293340276,
				"y": -0.2167276291,
				"z": -3.5420853524,
				"element": "H" 
			},
			{
				"x": -1.1629300883,
				"y": 1.3165666096,
				"z": -2.7791930871,
				"element": "H" 
			},
			{
				"x": 0.4890914101,
				"y": 1.048728408,
				"z": -3.3546835104,
				"element": "H" 
			},
			{
				"x": -0.385417383,
				"y": -2.1958559966,
				"z": -1.6343831271,
				"element": "H" 
			},
			{
				"x": 2.0196886683,
				"y": -2.0722258327,
				"z": 2.4946286313,
				"element": "H" 
			},
			{
				"x": 0.3680002203,
				"y": -1.8039575847,
				"z": 3.0693805284,
				"element": "H" 
			},
			{
				"x": 0.6158216014,
				"y": 0.5009673756,
				"z": 2.7011409856,
				"element": "H" 
			},
			{
				"x": 1.4033748073,
				"y": 1.706935379,
				"z": 1.6867448342,
				"element": "H" 
			},
			{
				"x": 2.2631830926,
				"y": 0.2338589306,
				"z": 2.1276837777,
				"element": "H" 
			},
			{
				"x": 0.628767512,
				"y": 1.7358053615,
				"z": -0.551062282,
				"element": "H" 
			}
		],
		 "valence_orbital": [ 
			{
				"type": "occ",
				"energy": -0.28783,
				"method": "rhf"
			},
			{
				"type": "occ",
				"energy": -0.28769,
				"method": "rhf"
			},
			{
				"type": "occ",
				"energy": -0.25191,
				"method": "rhf"
			},
			{
				"type": "occ",
				"energy": -0.244,
				"method": "rhf"
			},
			{
				"type": "occ",
				"energy": -0.21543,
				"method": "rhf"
			},
			{
				"type": "unocc",
				"energy": -0.02782,
				"method": "rhf"
			},
			{
				"type": "unocc",
				"energy": 0.03321,
				"method": "rhf"
			},
			{
				"type": "unocc",
				"energy": 0.03363,
				"method": "rhf"
			},
			{
				"type": "unocc",
				"energy": 0.06153,
				"method": "rhf"
			},
			{
				"type": "unocc",
				"energy": 0.07928,
				"method": "rhf"
			}
		],
		"cosmo_sigma_profile": { 
			"-0.025": 0.0,
			"-0.024": 0.0,
			"-0.023": 0.0,
			"-0.022": 0.0,
			"-0.021": 0.0,
			"-0.02": 0.0,
			"-0.019": 0.0,
			"-0.018": 0.0,
			"-0.017": 0.0,
			"-0.016": 0.474439800307,
			"-0.015": 1.23901832145,
			"-0.014": 1.11439569689,
			"-0.013": 1.01317860908,
			"-0.012": 1.62113143913,
			"-0.011": 1.69531838609,
			"-0.01": 1.62134121811,
			"-0.009": 2.7188025266,
			"-0.008": 7.78687072709,
			"-0.007": 7.08829174561,
			"-0.006": 8.36624287167,
			"-0.005": 12.1046278875,
			"-0.004": 15.9171834921,
			"-0.003": 14.3539526229,
			"-0.002": 15.4927616082,
			"-0.001": 18.1941960923,
			"0.0": 12.0490028167,
			"0.001": 9.34840366399,
			"0.002": 7.16642963255,
			"0.003": 8.51039357533,
			"0.004": 9.91966321627,
			"0.005": 11.019470649,
			"0.006": 14.5692831529,
			"0.007": 8.04161907782,
			"0.008": 2.25855510611,
			"0.009": 2.17816818365,
			"0.01": 2.57887707467,
			"0.011": 2.75819141187,
			"0.012": 3.821393607,
			"0.013": 4.15572438218,
			"0.014": 1.70898536223,
			"0.015": 0.322123944678,
			"0.016": 0.0,
			"0.017": 0.0,
			"0.018": 0.0,
			"0.019": 0.0,
			"0.02": 0.0,
			"0.021": 0.0,
			"0.022": 0.0,
			"0.023": 0.0,
			"0.024": 0.0,
			"0.025": 0.0
		}
	}
}
