{
	 "smiles": "CS(=O)(=O)CC1=C(OC2=C1C=CC=C2)C(O)=O", 
	 "Tm": 492.15, 
	 "num_atms": 27, 
	 "gaussian": { 
		 "optdone": 1, 
		 "sigma_profile": "yes", 
		 "theory": "DFT", 
		 "functional": "B3LYP", 
		 "basiset": "6-31G**", 
		 "properties": { 
			 "R2extent": 4566.7454, 
			 "electric_dipole_moment_norm": 5.74821212204, 
			 "electric_quadrupole_moment_norm": 10.5320887677, 
			 "total_energy": -1199.45150225, 
			 "HOMO_LUMO_gap": 0.16769, 
			 "cosmo_polarized_energy": -20.59, 
			 "cosmo_cavitation_energy": 32.55, 
			 "cosmo_dispersion_energy": -23.75, 
			 "cosmo_repulsion_energy": 1.78, 
			 "cosmo_total_nonelectrostatic_energy": 10.58, 
			 "SMD_solvation_energy": 6.37 
		},
		"coords": [
			{
				"x": 2.9355182603,
				"y": 0.0927320729,
				"z": 2.1184676219,
				"element": "C" 
			},
			{
				"x": 2.1170715326,
				"y": 1.5966484449,
				"z": 1.5445513682,
				"element": "S" 
			},
			{
				"x": 2.1298170277,
				"y": 2.5804831319,
				"z": 2.6367623393,
				"element": "O" 
			},
			{
				"x": 2.6562262484,
				"y": 1.9464586032,
				"z": 0.2193341248,
				"element": "O" 
			},
			{
				"x": 0.362112084,
				"y": 1.0902309602,
				"z": 1.3317499317,
				"element": "C" 
			},
			{
				"x": 0.1294085487,
				"y": 0.046242115,
				"z": 0.2966326029,
				"element": "C" 
			},
			{
				"x": -0.1419360111,
				"y": -1.2778358889,
				"z": 0.5228592819,
				"element": "C" 
			},
			{
				"x": -0.3736719003,
				"y": -1.9642627045,
				"z": -0.6542760855,
				"element": "O" 
			},
			{
				"x": -0.2331201389,
				"y": -1.049665918,
				"z": -1.6665800167,
				"element": "C" 
			},
			{
				"x": 0.0898249069,
				"y": 0.2128945104,
				"z": -1.1379453419,
				"element": "C" 
			},
			{
				"x": 0.2972677782,
				"y": 1.2895170906,
				"z": -2.0168268333,
				"element": "C" 
			},
			{
				"x": 0.1550826913,
				"y": 1.0558133076,
				"z": -3.3787710558,
				"element": "C" 
			},
			{
				"x": -0.1797909543,
				"y": -0.2209064135,
				"z": -3.8756119076,
				"element": "C" 
			},
			{
				"x": -0.3772898154,
				"y": -1.3061372358,
				"z": -3.025169219,
				"element": "C" 
			},
			{
				"x": -0.2375403708,
				"y": -2.0522714705,
				"z": 1.7709657017,
				"element": "C" 
			},
			{
				"x": -0.6227041531,
				"y": -3.3377297044,
				"z": 1.6324230474,
				"element": "O" 
			},
			{
				"x": 0.0180721575,
				"y": -1.5801573421,
				"z": 2.8607291428,
				"element": "O" 
			},
			{
				"x": 2.3856857596,
				"y": -0.3096101367,
				"z": 2.9702792659,
				"element": "H" 
			},
			{
				"x": 2.9731159657,
				"y": -0.6269488877,
				"z": 1.3004720695,
				"element": "H" 
			},
			{
				"x": 3.9436254709,
				"y": 0.393657154,
				"z": 2.4088578531,
				"element": "H" 
			},
			{
				"x": 0.0221515091,
				"y": 0.7636279292,
				"z": 2.3151399301,
				"element": "H" 
			},
			{
				"x": -0.1233609262,
				"y": 2.0353824503,
				"z": 1.069609246,
				"element": "H" 
			},
			{
				"x": 0.5916979072,
				"y": 2.2621011683,
				"z": -1.6390890615,
				"element": "H" 
			},
			{
				"x": 0.3141590464,
				"y": 1.869149725,
				"z": -4.0796445664,
				"element": "H" 
			},
			{
				"x": -0.2797704028,
				"y": -0.3637878241,
				"z": -4.9471440685,
				"element": "H" 
			},
			{
				"x": -0.6270247316,
				"y": -2.2945643958,
				"z": -3.3940325678,
				"element": "H" 
			},
			{
				"x": -0.7827274902,
				"y": -3.5325607412,
				"z": 0.6947571964,
				"element": "H" 
			}
		],
		 "valence_orbital": [ 
			{
				"type": "occ",
				"energy": -0.29917,
				"method": "rhf"
			},
			{
				"type": "occ",
				"energy": -0.29398,
				"method": "rhf"
			},
			{
				"type": "occ",
				"energy": -0.28746,
				"method": "rhf"
			},
			{
				"type": "occ",
				"energy": -0.26458,
				"method": "rhf"
			},
			{
				"type": "occ",
				"energy": -0.24882,
				"method": "rhf"
			},
			{
				"type": "unocc",
				"energy": -0.08113,
				"method": "rhf"
			},
			{
				"type": "unocc",
				"energy": -0.01539,
				"method": "rhf"
			},
			{
				"type": "unocc",
				"energy": -0.00501,
				"method": "rhf"
			},
			{
				"type": "unocc",
				"energy": 0.05441,
				"method": "rhf"
			},
			{
				"type": "unocc",
				"energy": 0.06526,
				"method": "rhf"
			}
		],
		"cosmo_sigma_profile": { 
			"-0.025": 0.0,
			"-0.024": 0.0,
			"-0.023": 0.0,
			"-0.022": 0.0,
			"-0.021": 0.0,
			"-0.02": 0.0,
			"-0.019": 0.0,
			"-0.018": 0.0,
			"-0.017": 0.352230198523,
			"-0.016": 0.803435876073,
			"-0.015": 0.659343825518,
			"-0.014": 0.770539800858,
			"-0.013": 0.743497746676,
			"-0.012": 0.711113268308,
			"-0.011": 0.811988102359,
			"-0.01": 1.86960545614,
			"-0.009": 4.6236073779,
			"-0.008": 8.20386618728,
			"-0.007": 13.3883494261,
			"-0.006": 20.0835372129,
			"-0.005": 20.8592265946,
			"-0.004": 18.981571176,
			"-0.003": 16.3749580793,
			"-0.002": 13.6536568619,
			"-0.001": 13.1735699272,
			"0.0": 14.6594481112,
			"0.001": 13.0614895704,
			"0.002": 13.1054686154,
			"0.003": 12.7537659664,
			"0.004": 10.7285464864,
			"0.005": 5.1099466765,
			"0.006": 5.03713209742,
			"0.007": 5.13301625977,
			"0.008": 5.88122762316,
			"0.009": 8.46472180029,
			"0.01": 7.2207353592,
			"0.011": 11.5962926191,
			"0.012": 10.5506000456,
			"0.013": 1.21185807167,
			"0.014": 0.0,
			"0.015": 0.0,
			"0.016": 0.0,
			"0.017": 0.0,
			"0.018": 0.0,
			"0.019": 0.0,
			"0.02": 0.0,
			"0.021": 0.0,
			"0.022": 0.0,
			"0.023": 0.0,
			"0.024": 0.0,
			"0.025": 0.0
		}
	}
}
