{
	 "smiles": "COC(=O)C1=CC=C(CN2CCN(CC2)C(=O)OC(C)(C)C)C=C1", 
	 "Tm": 352.15, 
	 "num_atms": 50, 
	 "gaussian": { 
		 "optdone": 1, 
		 "sigma_profile": "yes", 
		 "theory": "DFT", 
		 "functional": "B3LYP", 
		 "basiset": "6-31G**", 
		 "properties": { 
			 "R2extent": 14199.5386, 
			 "electric_dipole_moment_norm": 3.9720245392, 
			 "electric_quadrupole_moment_norm": 13.080475457, 
			 "total_energy": -1112.02103913, 
			 "HOMO_LUMO_gap": 0.17506, 
			 "cosmo_polarized_energy": -15.31, 
			 "cosmo_cavitation_energy": 51.18, 
			 "cosmo_dispersion_energy": -35.07, 
			 "cosmo_repulsion_energy": 2.7, 
			 "cosmo_total_nonelectrostatic_energy": 18.81, 
			 "SMD_solvation_energy": 9.24 
		},
		"coords": [
			{
				"x": 2.3722353133,
				"y": -7.6613805619,
				"z": -0.5029177828,
				"element": "C" 
			},
			{
				"x": 1.8072299546,
				"y": -6.5041872731,
				"z": -1.1357755915,
				"element": "O" 
			},
			{
				"x": 0.9563894252,
				"y": -5.7850222202,
				"z": -0.3650410115,
				"element": "C" 
			},
			{
				"x": 0.685614644,
				"y": -6.0900404967,
				"z": 0.7807183671,
				"element": "O" 
			},
			{
				"x": 0.4040463603,
				"y": -4.6003989907,
				"z": -1.0777191804,
				"element": "C" 
			},
			{
				"x": 0.7505966257,
				"y": -4.2848636009,
				"z": -2.3977636808,
				"element": "C" 
			},
			{
				"x": 0.2040479843,
				"y": -3.1582726079,
				"z": -3.0095086086,
				"element": "C" 
			},
			{
				"x": -0.6987290446,
				"y": -2.3352551076,
				"z": -2.3259478299,
				"element": "C" 
			},
			{
				"x": -1.3366438483,
				"y": -1.1435466363,
				"z": -3.0198050322,
				"element": "C" 
			},
			{
				"x": -1.476587225,
				"y": 0.0149597832,
				"z": -2.149876809,
				"element": "N" 
			},
			{
				"x": -0.1820905997,
				"y": 0.5991433285,
				"z": -1.7628351715,
				"element": "C" 
			},
			{
				"x": -0.3286644153,
				"y": 2.0806855915,
				"z": -1.3663879407,
				"element": "C" 
			},
			{
				"x": -1.6066055573,
				"y": 2.3268787399,
				"z": -0.714366537,
				"element": "N" 
			},
			{
				"x": -2.8102494368,
				"y": 1.9359599304,
				"z": -1.4528376366,
				"element": "C" 
			},
			{
				"x": -2.4247427153,
				"y": 1.0187063777,
				"z": -2.619725893,
				"element": "C" 
			},
			{
				"x": -1.7747576659,
				"y": 2.8638348485,
				"z": 0.532038124,
				"element": "C" 
			},
			{
				"x": -2.8778674727,
				"y": 3.0465003828,
				"z": 1.0302681045,
				"element": "O" 
			},
			{
				"x": -0.5841566913,
				"y": 3.1577879185,
				"z": 1.1153151778,
				"element": "O" 
			},
			{
				"x": -0.5322113904,
				"y": 3.7424112032,
				"z": 2.463301345,
				"element": "C" 
			},
			{
				"x": -1.2238601704,
				"y": 5.1101794338,
				"z": 2.4715207375,
				"element": "C" 
			},
			{
				"x": 0.9728515416,
				"y": 3.8955587094,
				"z": 2.7006727127,
				"element": "C" 
			},
			{
				"x": -1.1455322509,
				"y": 2.7752187659,
				"z": 3.4818174222,
				"element": "C" 
			},
			{
				"x": -1.040084127,
				"y": -2.6566183762,
				"z": -1.0039961962,
				"element": "C" 
			},
			{
				"x": -0.493984915,
				"y": -3.7753006803,
				"z": -0.3849573165,
				"element": "C" 
			},
			{
				"x": 2.9454361181,
				"y": -7.3758787873,
				"z": 0.3828875001,
				"element": "H" 
			},
			{
				"x": 1.5864534555,
				"y": -8.3586944336,
				"z": -0.2012502537,
				"element": "H" 
			},
			{
				"x": 3.0228082294,
				"y": -8.1173916586,
				"z": -1.2493432893,
				"element": "H" 
			},
			{
				"x": 1.4491093104,
				"y": -4.9168396698,
				"z": -2.9341229041,
				"element": "H" 
			},
			{
				"x": 0.4833795173,
				"y": -2.9137804361,
				"z": -4.0314980446,
				"element": "H" 
			},
			{
				"x": -0.7622854729,
				"y": -0.9135466844,
				"z": -3.9391180747,
				"element": "H" 
			},
			{
				"x": -2.343682226,
				"y": -1.4329522431,
				"z": -3.3496378027,
				"element": "H" 
			},
			{
				"x": 0.2289246945,
				"y": 0.0201761323,
				"z": -0.9285234659,
				"element": "H" 
			},
			{
				"x": 0.5505032581,
				"y": 0.539897805,
				"z": -2.5892714364,
				"element": "H" 
			},
			{
				"x": 0.4739341549,
				"y": 2.3722901275,
				"z": -0.6927439869,
				"element": "H" 
			},
			{
				"x": -0.2502153105,
				"y": 2.7148698527,
				"z": -2.2603224658,
				"element": "H" 
			},
			{
				"x": -3.4787315481,
				"y": 1.4098387844,
				"z": -0.7668089451,
				"element": "H" 
			},
			{
				"x": -3.3480209537,
				"y": 2.8193455253,
				"z": -1.8242123283,
				"element": "H" 
			},
			{
				"x": -3.3290328337,
				"y": 0.5137850253,
				"z": -2.973728375,
				"element": "H" 
			},
			{
				"x": -2.0415524151,
				"y": 1.6084401465,
				"z": -3.474650159,
				"element": "H" 
			},
			{
				"x": -0.7867104814,
				"y": 5.7607952306,
				"z": 1.7071796206,
				"element": "H" 
			},
			{
				"x": -1.0811132937,
				"y": 5.5883977718,
				"z": 3.4461499709,
				"element": "H" 
			},
			{
				"x": -2.2920160534,
				"y": 5.0072167184,
				"z": 2.2804465156,
				"element": "H" 
			},
			{
				"x": 1.1555958323,
				"y": 4.3295064459,
				"z": 3.6882241145,
				"element": "H" 
			},
			{
				"x": 1.4184289003,
				"y": 4.5514835043,
				"z": 1.9468411262,
				"element": "H" 
			},
			{
				"x": 1.4727293071,
				"y": 2.9235832302,
				"z": 2.6523602499,
				"element": "H" 
			},
			{
				"x": -2.2128807177,
				"y": 2.6465823827,
				"z": 3.302150392,
				"element": "H" 
			},
			{
				"x": -0.6543647144,
				"y": 1.7987316894,
				"z": 3.4210575801,
				"element": "H" 
			},
			{
				"x": -0.9995181328,
				"y": 3.1659925498,
				"z": 4.4942285361,
				"element": "H" 
			},
			{
				"x": -1.7287083149,
				"y": -2.0086842569,
				"z": -0.4705308978,
				"element": "H" 
			},
			{
				"x": -0.7497146327,
				"y": -4.0321032138,
				"z": 0.6376470508,
				"element": "H" 
			}
		],
		 "valence_orbital": [ 
			{
				"type": "occ",
				"energy": -0.25622,
				"method": "rhf"
			},
			{
				"type": "occ",
				"energy": -0.25443,
				"method": "rhf"
			},
			{
				"type": "occ",
				"energy": -0.25114,
				"method": "rhf"
			},
			{
				"type": "occ",
				"energy": -0.23362,
				"method": "rhf"
			},
			{
				"type": "occ",
				"energy": -0.2183,
				"method": "rhf"
			},
			{
				"type": "unocc",
				"energy": -0.04324,
				"method": "rhf"
			},
			{
				"type": "unocc",
				"energy": -0.00665,
				"method": "rhf"
			},
			{
				"type": "unocc",
				"energy": 0.05445,
				"method": "rhf"
			},
			{
				"type": "unocc",
				"energy": 0.05931,
				"method": "rhf"
			},
			{
				"type": "unocc",
				"energy": 0.07647,
				"method": "rhf"
			}
		],
		"cosmo_sigma_profile": { 
			"-0.025": 0.0,
			"-0.024": 0.0,
			"-0.023": 0.0,
			"-0.022": 0.0,
			"-0.021": 0.0,
			"-0.02": 0.0,
			"-0.019": 0.0,
			"-0.018": 0.0,
			"-0.017": 0.0,
			"-0.016": 0.0,
			"-0.015": 0.0,
			"-0.014": 0.0,
			"-0.013": 0.0,
			"-0.012": 0.0,
			"-0.011": 0.0,
			"-0.01": 0.0,
			"-0.009": 0.0,
			"-0.008": 0.0,
			"-0.007": 0.456116186371,
			"-0.006": 8.84233965657,
			"-0.005": 21.0637060674,
			"-0.004": 39.7384494436,
			"-0.003": 60.2222553988,
			"-0.002": 46.370463223,
			"-0.001": 36.0510752823,
			"0.0": 39.0395737354,
			"0.001": 39.6747699913,
			"0.002": 23.2339079498,
			"0.003": 18.3066754695,
			"0.004": 19.5441370718,
			"0.005": 9.56156196268,
			"0.006": 7.50733309927,
			"0.007": 3.73371046771,
			"0.008": 4.16078235798,
			"0.009": 3.63525638422,
			"0.01": 3.539335135,
			"0.011": 3.80662904539,
			"0.012": 6.15669360281,
			"0.013": 3.00966545547,
			"0.014": 2.7290676714,
			"0.015": 0.149232677241,
			"0.016": 0.0,
			"0.017": 0.0,
			"0.018": 0.0,
			"0.019": 0.0,
			"0.02": 0.0,
			"0.021": 0.0,
			"0.022": 0.0,
			"0.023": 0.0,
			"0.024": 0.0,
			"0.025": 0.0
		}
	}
}
