{
	 "smiles": "OC(=O)C1=CC(C(O)=O)=C(Cl)C(=C1)C(O)=O", 
	 "Tm": 558.15, 
	 "num_atms": 21, 
	 "gaussian": { 
		 "optdone": 1, 
		 "sigma_profile": "yes", 
		 "theory": "DFT", 
		 "functional": "B3LYP", 
		 "basiset": "6-31G**", 
		 "properties": { 
			 "R2extent": 4537.9335, 
			 "electric_dipole_moment_norm": 4.62127082738, 
			 "electric_quadrupole_moment_norm": 13.3302917432, 
			 "total_energy": -1257.52713652, 
			 "HOMO_LUMO_gap": 0.19412, 
			 "cosmo_polarized_energy": -23.2, 
			 "cosmo_cavitation_energy": 29.35, 
			 "cosmo_dispersion_energy": -21.42, 
			 "cosmo_repulsion_energy": 1.67, 
			 "cosmo_total_nonelectrostatic_energy": 9.6, 
			 "SMD_solvation_energy": 8.58 
		},
		"coords": [
			{
				"x": -0.8907734698,
				"y": 4.395031608,
				"z": -1.4603145282,
				"element": "O" 
			},
			{
				"x": -0.8361444385,
				"y": 3.1443636438,
				"z": -1.9814905191,
				"element": "C" 
			},
			{
				"x": -1.2851522506,
				"y": 2.919442011,
				"z": -3.0794529579,
				"element": "O" 
			},
			{
				"x": -0.204761698,
				"y": 2.0780187002,
				"z": -1.1320062568,
				"element": "C" 
			},
			{
				"x": 0.2115740818,
				"y": 0.9035247248,
				"z": -1.7610423162,
				"element": "C" 
			},
			{
				"x": 0.7931129302,
				"y": -0.1419951808,
				"z": -1.0412001167,
				"element": "C" 
			},
			{
				"x": 1.1869708926,
				"y": -1.3286376398,
				"z": -1.8771310792,
				"element": "C" 
			},
			{
				"x": 0.994423047,
				"y": -2.516141002,
				"z": -1.2747866141,
				"element": "O" 
			},
			{
				"x": 1.5750689851,
				"y": -1.22343409,
				"z": -3.0209680446,
				"element": "O" 
			},
			{
				"x": 0.9804653272,
				"y": -0.0065180161,
				"z": 0.3523497759,
				"element": "C" 
			},
			{
				"x": 1.8759071886,
				"y": -1.2259096782,
				"z": 1.21633763,
				"element": "Cl" 
			},
			{
				"x": 0.5302666526,
				"y": 1.1585464064,
				"z": 1.0088346459,
				"element": "C" 
			},
			{
				"x": -0.0499095828,
				"y": 2.1828365916,
				"z": 0.2472387308,
				"element": "C" 
			},
			{
				"x": 0.5977421608,
				"y": 1.4664450329,
				"z": 2.4782592764,
				"element": "C" 
			},
			{
				"x": 0.701638224,
				"y": 0.3983924772,
				"z": 3.2850589775,
				"element": "O" 
			},
			{
				"x": 0.5089379916,
				"y": 2.6007381125,
				"z": 2.9072199948,
				"element": "O" 
			},
			{
				"x": -0.3611838793,
				"y": 4.4599255105,
				"z": -0.6534745214,
				"element": "H" 
			},
			{
				"x": 0.0868931593,
				"y": 0.8011977147,
				"z": -2.8329167759,
				"element": "H" 
			},
			{
				"x": 1.2604096687,
				"y": -3.1920134753,
				"z": -1.9216845937,
				"element": "H" 
			},
			{
				"x": -0.3859541185,
				"y": 3.0536965613,
				"z": 0.8013445774,
				"element": "H" 
			},
			{
				"x": 0.710769128,
				"y": 0.7499899873,
				"z": 4.1919247149,
				"element": "H" 
			}
		],
		 "valence_orbital": [ 
			{
				"type": "occ",
				"energy": -0.31053,
				"method": "rhf"
			},
			{
				"type": "occ",
				"energy": -0.30793,
				"method": "rhf"
			},
			{
				"type": "occ",
				"energy": -0.29032,
				"method": "rhf"
			},
			{
				"type": "occ",
				"energy": -0.28647,
				"method": "rhf"
			},
			{
				"type": "occ",
				"energy": -0.27917,
				"method": "rhf"
			},
			{
				"type": "unocc",
				"energy": -0.08505,
				"method": "rhf"
			},
			{
				"type": "unocc",
				"energy": -0.08077,
				"method": "rhf"
			},
			{
				"type": "unocc",
				"energy": -0.02706,
				"method": "rhf"
			},
			{
				"type": "unocc",
				"energy": 0.00561,
				"method": "rhf"
			},
			{
				"type": "unocc",
				"energy": 0.03118,
				"method": "rhf"
			}
		],
		"cosmo_sigma_profile": { 
			"-0.025": 0.0,
			"-0.024": 0.0,
			"-0.023": 0.0,
			"-0.022": 0.0,
			"-0.021": 0.0,
			"-0.02": 0.437447459613,
			"-0.019": 2.41175866151,
			"-0.018": 3.2932414445,
			"-0.017": 2.14411331575,
			"-0.016": 2.35005383137,
			"-0.015": 2.52782695163,
			"-0.014": 2.55521984716,
			"-0.013": 3.16954487439,
			"-0.012": 1.88116646725,
			"-0.011": 2.113197542,
			"-0.01": 2.27446644883,
			"-0.009": 3.12343355675,
			"-0.008": 3.32906457084,
			"-0.007": 3.29842426957,
			"-0.006": 4.76090962316,
			"-0.005": 10.6582783478,
			"-0.004": 12.6227664847,
			"-0.003": 16.5318168914,
			"-0.002": 20.2569460912,
			"-0.001": 16.1687743668,
			"0.0": 11.9314381037,
			"0.001": 10.6561597058,
			"0.002": 9.81426629317,
			"0.003": 10.2578451169,
			"0.004": 10.3796495755,
			"0.005": 8.25218446358,
			"0.006": 7.25209638784,
			"0.007": 8.85417074892,
			"0.008": 8.52750571887,
			"0.009": 8.50758986617,
			"0.01": 11.1368936479,
			"0.011": 13.1858963165,
			"0.012": 2.75652066517,
			"0.013": 0.306518444807,
			"0.014": 0.0,
			"0.015": 0.0,
			"0.016": 0.0,
			"0.017": 0.0,
			"0.018": 0.0,
			"0.019": 0.0,
			"0.02": 0.0,
			"0.021": 0.0,
			"0.022": 0.0,
			"0.023": 0.0,
			"0.024": 0.0,
			"0.025": 0.0
		}
	}
}
