{
	 "smiles": "CC1(C)OC(C)(CCC1C(O)=O)C(O)(C1=CC=CC=C1)C1=CC=CC=C1", 
	 "Tm": 436.15, 
	 "num_atms": 52, 
	 "gaussian": { 
		 "optdone": 1, 
		 "sigma_profile": "yes", 
		 "theory": "DFT", 
		 "functional": "B3LYP", 
		 "basiset": "6-31G**", 
		 "properties": { 
			 "R2extent": 8916.9265, 
			 "electric_dipole_moment_norm": 2.36085718331, 
			 "electric_quadrupole_moment_norm": 13.3649977729, 
			 "total_energy": -1154.9126365, 
			 "HOMO_LUMO_gap": 0.21871, 
			 "cosmo_polarized_energy": -15.79, 
			 "cosmo_cavitation_energy": 48.91, 
			 "cosmo_dispersion_energy": -32.36, 
			 "cosmo_repulsion_energy": 2.4, 
			 "cosmo_total_nonelectrostatic_energy": 18.95, 
			 "SMD_solvation_energy": 9.14 
		},
		"coords": [
			{
				"x": 1.569874219,
				"y": 0.6596951743,
				"z": 2.4431776948,
				"element": "C" 
			},
			{
				"x": 0.442174369,
				"y": 1.257640789,
				"z": 1.5896425111,
				"element": "C" 
			},
			{
				"x": 0.9152112522,
				"y": 2.5984562166,
				"z": 1.0042536036,
				"element": "C" 
			},
			{
				"x": 0.189526188,
				"y": 0.4436927678,
				"z": 0.4197035926,
				"element": "O" 
			},
			{
				"x": -0.8002623406,
				"y": -0.5990755317,
				"z": 0.4206314083,
				"element": "C" 
			},
			{
				"x": -0.4107636875,
				"y": -1.7415664979,
				"z": 1.3778733289,
				"element": "C" 
			},
			{
				"x": -2.1973359071,
				"y": -0.0209235143,
				"z": 0.8137998364,
				"element": "C" 
			},
			{
				"x": -2.0919202488,
				"y": 1.3635997421,
				"z": 1.4729213371,
				"element": "C" 
			},
			{
				"x": -0.8844845608,
				"y": 1.4213919233,
				"z": 2.4165509312,
				"element": "C" 
			},
			{
				"x": -0.8179979291,
				"y": 2.6570251372,
				"z": 3.2959924059,
				"element": "C" 
			},
			{
				"x": -1.5616921915,
				"y": 3.6895338352,
				"z": 2.8291095966,
				"element": "O" 
			},
			{
				"x": -0.1636821425,
				"y": 2.7468985134,
				"z": 4.314112747,
				"element": "O" 
			},
			{
				"x": -0.8408472685,
				"y": -1.181322783,
				"z": -1.0634008658,
				"element": "C" 
			},
			{
				"x": -1.7868150337,
				"y": -2.2621607655,
				"z": -1.0204787288,
				"element": "O" 
			},
			{
				"x": 0.5068025191,
				"y": -1.8033982182,
				"z": -1.4667715292,
				"element": "C" 
			},
			{
				"x": 1.6112786016,
				"y": -0.9927010728,
				"z": -1.7675264705,
				"element": "C" 
			},
			{
				"x": 2.8313168357,
				"y": -1.559054766,
				"z": -2.133687476,
				"element": "C" 
			},
			{
				"x": 2.9707963111,
				"y": -2.9462899904,
				"z": -2.2137170434,
				"element": "C" 
			},
			{
				"x": 1.8759587825,
				"y": -3.759511586,
				"z": -1.9249366339,
				"element": "C" 
			},
			{
				"x": 0.6534297219,
				"y": -3.1938081727,
				"z": -1.5548349126,
				"element": "C" 
			},
			{
				"x": -1.2968320205,
				"y": -0.1955120064,
				"z": -2.1652350958,
				"element": "C" 
			},
			{
				"x": -1.9318548538,
				"y": -0.7407831562,
				"z": -3.295200717,
				"element": "C" 
			},
			{
				"x": -2.3543148964,
				"y": 0.0692495576,
				"z": -4.3481752287,
				"element": "C" 
			},
			{
				"x": -2.1497374838,
				"y": 1.449058329,
				"z": -4.3002896321,
				"element": "C" 
			},
			{
				"x": -1.5112452963,
				"y": 2.0020380125,
				"z": -3.1913197766,
				"element": "C" 
			},
			{
				"x": -1.0843094215,
				"y": 1.19067729,
				"z": -2.1368758455,
				"element": "C" 
			},
			{
				"x": 1.3042878013,
				"y": -0.3187976587,
				"z": 2.8452028428,
				"element": "H" 
			},
			{
				"x": 1.7884100862,
				"y": 1.3209690919,
				"z": 3.2860647797,
				"element": "H" 
			},
			{
				"x": 2.4718288508,
				"y": 0.545270818,
				"z": 1.8348796325,
				"element": "H" 
			},
			{
				"x": 1.2987199945,
				"y": 3.2553223143,
				"z": 1.7900298549,
				"element": "H" 
			},
			{
				"x": 1.7243985701,
				"y": 2.4093187438,
				"z": 0.2940852053,
				"element": "H" 
			},
			{
				"x": 0.1105960289,
				"y": 3.1198927243,
				"z": 0.4789266746,
				"element": "H" 
			},
			{
				"x": 0.6252642358,
				"y": -2.0458896587,
				"z": 1.2193066925,
				"element": "H" 
			},
			{
				"x": -0.5323404627,
				"y": -1.4401842806,
				"z": 2.4208244291,
				"element": "H" 
			},
			{
				"x": -1.0587512329,
				"y": -2.6018265205,
				"z": 1.2018651591,
				"element": "H" 
			},
			{
				"x": -2.8452199678,
				"y": 0.0713909511,
				"z": -0.0642417142,
				"element": "H" 
			},
			{
				"x": -2.6913187103,
				"y": -0.7171033495,
				"z": 1.5005644575,
				"element": "H" 
			},
			{
				"x": -1.9930852033,
				"y": 2.1384602573,
				"z": 0.7073262051,
				"element": "H" 
			},
			{
				"x": -3.0138438518,
				"y": 1.5867084431,
				"z": 2.0182105445,
				"element": "H" 
			},
			{
				"x": -0.9404981599,
				"y": 0.5895557727,
				"z": 3.1276247778,
				"element": "H" 
			},
			{
				"x": -1.4303349136,
				"y": 4.4179480714,
				"z": 3.4599019593,
				"element": "H" 
			},
			{
				"x": -2.6703858325,
				"y": -1.8718937178,
				"z": -1.0230105692,
				"element": "H" 
			},
			{
				"x": 1.5140367395,
				"y": 0.0846535168,
				"z": -1.7181466648,
				"element": "H" 
			},
			{
				"x": 3.6738543293,
				"y": -0.9126217853,
				"z": -2.3640006154,
				"element": "H" 
			},
			{
				"x": 3.9209091422,
				"y": -3.3862297281,
				"z": -2.5037308098,
				"element": "H" 
			},
			{
				"x": 1.9672963842,
				"y": -4.8405080593,
				"z": -1.9887662363,
				"element": "H" 
			},
			{
				"x": -0.1949338147,
				"y": -3.8310946215,
				"z": -1.3386941681,
				"element": "H" 
			},
			{
				"x": -2.0851779267,
				"y": -1.8132328134,
				"z": -3.3468943846,
				"element": "H" 
			},
			{
				"x": -2.8408405131,
				"y": -0.3813598437,
				"z": -5.2089525693,
				"element": "H" 
			},
			{
				"x": -2.4792064351,
				"y": 2.0828577533,
				"z": -5.118690236,
				"element": "H" 
			},
			{
				"x": -1.3393381869,
				"y": 3.0739189378,
				"z": -3.1405298862,
				"element": "H" 
			},
			{
				"x": -0.5782004689,
				"y": 1.6318254143,
				"z": -1.2903743986,
				"element": "H" 
			}
		],
		 "valence_orbital": [ 
			{
				"type": "occ",
				"energy": -0.25313,
				"method": "rhf"
			},
			{
				"type": "occ",
				"energy": -0.24714,
				"method": "rhf"
			},
			{
				"type": "occ",
				"energy": -0.24424,
				"method": "rhf"
			},
			{
				"type": "occ",
				"energy": -0.23701,
				"method": "rhf"
			},
			{
				"type": "occ",
				"energy": -0.22743,
				"method": "rhf"
			},
			{
				"type": "unocc",
				"energy": -0.00872,
				"method": "rhf"
			},
			{
				"type": "unocc",
				"energy": -0.00206,
				"method": "rhf"
			},
			{
				"type": "unocc",
				"energy": 0.00078,
				"method": "rhf"
			},
			{
				"type": "unocc",
				"energy": 0.01174,
				"method": "rhf"
			},
			{
				"type": "unocc",
				"energy": 0.01569,
				"method": "rhf"
			}
		],
		"cosmo_sigma_profile": { 
			"-0.025": 0.0,
			"-0.024": 0.0,
			"-0.023": 0.0,
			"-0.022": 0.0,
			"-0.021": 0.0,
			"-0.02": 0.0,
			"-0.019": 0.0451884954386,
			"-0.018": 0.599883789222,
			"-0.017": 0.856235542355,
			"-0.016": 0.745408836323,
			"-0.015": 1.65693091422,
			"-0.014": 0.958380437579,
			"-0.013": 1.28068688718,
			"-0.012": 1.30714588951,
			"-0.011": 1.48572933978,
			"-0.01": 1.60131347214,
			"-0.009": 1.6482680674,
			"-0.008": 1.54036153345,
			"-0.007": 2.28369656211,
			"-0.006": 8.01005028224,
			"-0.005": 19.3430046952,
			"-0.004": 29.0757897336,
			"-0.003": 40.4248388894,
			"-0.002": 40.0351294971,
			"-0.001": 35.9572589418,
			"0.0": 34.1668726384,
			"0.001": 29.3904966993,
			"0.002": 23.3600645902,
			"0.003": 20.0497817497,
			"0.004": 20.0802769148,
			"0.005": 21.408884793,
			"0.006": 21.2107249812,
			"0.007": 7.28059884433,
			"0.008": 4.41532964524,
			"0.009": 3.75795694056,
			"0.01": 2.58623071258,
			"0.011": 2.74069853095,
			"0.012": 4.2001754762,
			"0.013": 0.438145368564,
			"0.014": 0.0,
			"0.015": 0.0,
			"0.016": 0.0,
			"0.017": 0.0,
			"0.018": 0.0,
			"0.019": 0.0,
			"0.02": 0.0,
			"0.021": 0.0,
			"0.022": 0.0,
			"0.023": 0.0,
			"0.024": 0.0,
			"0.025": 0.0
		}
	}
}
