{
	 "smiles": "COC1=C(OCC2=CN=CC=C2)C=C(N)C=C1", 
	 "Tm": 369.15, 
	 "num_atms": 31, 
	 "gaussian": { 
		 "optdone": 1, 
		 "sigma_profile": "yes", 
		 "theory": "DFT", 
		 "functional": "B3LYP", 
		 "basiset": "6-31G**", 
		 "properties": { 
			 "R2extent": 5421.4641, 
			 "electric_dipole_moment_norm": 2.01491035533, 
			 "electric_quadrupole_moment_norm": 20.1694895806, 
			 "total_energy": -763.735403259, 
			 "HOMO_LUMO_gap": 0.17698, 
			 "cosmo_polarized_energy": -14.49, 
			 "cosmo_cavitation_energy": 35.2, 
			 "cosmo_dispersion_energy": -24.8, 
			 "cosmo_repulsion_energy": 1.94, 
			 "cosmo_total_nonelectrostatic_energy": 12.34, 
			 "SMD_solvation_energy": 5.26 
		},
		"coords": [
			{
				"x": -2.7913001131,
				"y": 0.0867842555,
				"z": -0.7850368837,
				"element": "C" 
			},
			{
				"x": -1.9331786885,
				"y": 1.1013429308,
				"z": -1.317701123,
				"element": "O" 
			},
			{
				"x": -1.1554054317,
				"y": 1.7432028267,
				"z": -0.3719405203,
				"element": "C" 
			},
			{
				"x": -0.0497611814,
				"y": 1.1103225239,
				"z": 0.2224075399,
				"element": "C" 
			},
			{
				"x": 0.2631991234,
				"y": -0.2023723702,
				"z": -0.0697045294,
				"element": "O" 
			},
			{
				"x": 0.7413119776,
				"y": -0.4267116409,
				"z": -1.4042518932,
				"element": "C" 
			},
			{
				"x": 1.0950587808,
				"y": -1.8839043728,
				"z": -1.5654922764,
				"element": "C" 
			},
			{
				"x": 1.5274193708,
				"y": -2.6635398002,
				"z": -0.4844654489,
				"element": "C" 
			},
			{
				"x": 1.8897033075,
				"y": -3.9482861183,
				"z": -0.5846230012,
				"element": "N" 
			},
			{
				"x": 1.8363592307,
				"y": -4.5119393047,
				"z": -1.7976317388,
				"element": "C" 
			},
			{
				"x": 1.4179368453,
				"y": -3.8325745351,
				"z": -2.9423656109,
				"element": "C" 
			},
			{
				"x": 1.0373881869,
				"y": -2.4979851528,
				"z": -2.8194940099,
				"element": "C" 
			},
			{
				"x": 0.7286257094,
				"y": 1.7829416731,
				"z": 1.1613299628,
				"element": "C" 
			},
			{
				"x": 0.4316710441,
				"y": 3.1062060808,
				"z": 1.5274232866,
				"element": "C" 
			},
			{
				"x": 1.2512556715,
				"y": 3.7941370985,
				"z": 2.4282402682,
				"element": "N" 
			},
			{
				"x": -0.6608935911,
				"y": 3.7421747381,
				"z": 0.9148629719,
				"element": "C" 
			},
			{
				"x": -1.4411404587,
				"y": 3.0611500548,
				"z": -0.0171890576,
				"element": "C" 
			},
			{
				"x": -3.4938873508,
				"y": 0.5123257585,
				"z": -0.0570483957,
				"element": "H" 
			},
			{
				"x": -3.3510973831,
				"y": -0.3196858304,
				"z": -1.6304908939,
				"element": "H" 
			},
			{
				"x": -2.2146949228,
				"y": -0.7125159735,
				"z": -0.3075459694,
				"element": "H" 
			},
			{
				"x": 1.6286014986,
				"y": 0.2025826074,
				"z": -1.5732744151,
				"element": "H" 
			},
			{
				"x": -0.0207337041,
				"y": -0.1307954776,
				"z": -2.1341272917,
				"element": "H" 
			},
			{
				"x": 1.5671300883,
				"y": -2.2245780696,
				"z": 0.5087563946,
				"element": "H" 
			},
			{
				"x": 2.1390664145,
				"y": -5.5561944286,
				"z": -1.8563182401,
				"element": "H" 
			},
			{
				"x": 1.3840188037,
				"y": -4.3395268407,
				"z": -3.9017955939,
				"element": "H" 
			},
			{
				"x": 0.6956735014,
				"y": -1.9388009342,
				"z": -3.6876194043,
				"element": "H" 
			},
			{
				"x": 1.5727690454,
				"y": 1.2585990591,
				"z": 1.5999660574,
				"element": "H" 
			},
			{
				"x": 1.7556648208,
				"y": 3.2063370133,
				"z": 3.0778767307,
				"element": "H" 
			},
			{
				"x": 0.8044972526,
				"y": 4.5687576457,
				"z": 2.8997876273,
				"element": "H" 
			},
			{
				"x": -0.9000971168,
				"y": 4.7703103379,
				"z": 1.1734731802,
				"element": "H" 
			},
			{
				"x": -2.2919607312,
				"y": 3.5457362456,
				"z": -0.4863077222,
				"element": "H" 
			}
		],
		 "valence_orbital": [ 
			{
				"type": "occ",
				"energy": -0.26388,
				"method": "rhf"
			},
			{
				"type": "occ",
				"energy": -0.25067,
				"method": "rhf"
			},
			{
				"type": "occ",
				"energy": -0.24507,
				"method": "rhf"
			},
			{
				"type": "occ",
				"energy": -0.23803,
				"method": "rhf"
			},
			{
				"type": "occ",
				"energy": -0.19728,
				"method": "rhf"
			},
			{
				"type": "unocc",
				"energy": -0.0203,
				"method": "rhf"
			},
			{
				"type": "unocc",
				"energy": -0.0085,
				"method": "rhf"
			},
			{
				"type": "unocc",
				"energy": 0.00283,
				"method": "rhf"
			},
			{
				"type": "unocc",
				"energy": 0.01899,
				"method": "rhf"
			},
			{
				"type": "unocc",
				"energy": 0.07754,
				"method": "rhf"
			}
		],
		"cosmo_sigma_profile": { 
			"-0.025": 0.0,
			"-0.024": 0.0,
			"-0.023": 0.0,
			"-0.022": 0.0,
			"-0.021": 0.0,
			"-0.02": 0.0,
			"-0.019": 0.0,
			"-0.018": 0.0,
			"-0.017": 0.0,
			"-0.016": 0.0,
			"-0.015": 0.0,
			"-0.014": 0.0,
			"-0.013": 0.124601081236,
			"-0.012": 2.47647285276,
			"-0.011": 2.80793204648,
			"-0.01": 2.93112816476,
			"-0.009": 2.9898099226,
			"-0.008": 3.57925696481,
			"-0.007": 8.06220362681,
			"-0.006": 13.4660255001,
			"-0.005": 19.9543569693,
			"-0.004": 21.1185126045,
			"-0.003": 21.4415337029,
			"-0.002": 21.5447339785,
			"-0.001": 17.1409063266,
			"0.0": 18.0896168572,
			"0.001": 15.5511234104,
			"0.002": 20.6421233461,
			"0.003": 21.1593013477,
			"0.004": 14.2778977435,
			"0.005": 15.2449089671,
			"0.006": 11.3234377151,
			"0.007": 4.26035312479,
			"0.008": 4.25486983065,
			"0.009": 3.31380279847,
			"0.01": 2.7058035612,
			"0.011": 3.09098694596,
			"0.012": 2.35866140047,
			"0.013": 1.71239548195,
			"0.014": 1.60216850545,
			"0.015": 1.48965786865,
			"0.016": 0.66977084741,
			"0.017": 0.526051554543,
			"0.018": 0.020192144161,
			"0.019": 0.0,
			"0.02": 0.0,
			"0.021": 0.0,
			"0.022": 0.0,
			"0.023": 0.0,
			"0.024": 0.0,
			"0.025": 0.0
		}
	}
}
