{
	 "smiles": "CCOC(=O)CC1=NNN=N1", 
	 "Tm": 397.15, 
	 "num_atms": 19, 
	 "gaussian": { 
		 "optdone": 1, 
		 "sigma_profile": "yes", 
		 "theory": "DFT", 
		 "functional": "B3LYP", 
		 "basiset": "6-31G**", 
		 "properties": { 
			 "R2extent": 2359.5862, 
			 "electric_dipole_moment_norm": 2.61253901598, 
			 "electric_quadrupole_moment_norm": 13.9609636111, 
			 "total_energy": -564.766595394, 
			 "HOMO_LUMO_gap": 0.23857, 
			 "cosmo_polarized_energy": -15.59, 
			 "cosmo_cavitation_energy": 24.36, 
			 "cosmo_dispersion_energy": -17.35, 
			 "cosmo_repulsion_energy": 1.45, 
			 "cosmo_total_nonelectrostatic_energy": 8.46, 
			 "SMD_solvation_energy": 2.8 
		},
		"coords": [
			{
				"x": 0.16191619,
				"y": -0.3860956732,
				"z": -2.2310232013,
				"element": "C" 
			},
			{
				"x": 0.1021327477,
				"y": -1.5206580334,
				"z": -1.2202208253,
				"element": "C" 
			},
			{
				"x": 0.2200463397,
				"y": -1.0214970504,
				"z": 0.1369649573,
				"element": "O" 
			},
			{
				"x": 1.4675745675,
				"y": -0.8420371128,
				"z": 0.6060990133,
				"element": "C" 
			},
			{
				"x": 2.4815945995,
				"y": -1.069746317,
				"z": -0.015403096,
				"element": "O" 
			},
			{
				"x": 1.4708494824,
				"y": -0.3597102523,
				"z": 2.0557832143,
				"element": "C" 
			},
			{
				"x": 0.2399685017,
				"y": 0.3520414755,
				"z": 2.5094774896,
				"element": "C" 
			},
			{
				"x": -0.045234834,
				"y": 1.6174360985,
				"z": 2.2072976616,
				"element": "N" 
			},
			{
				"x": -1.2092487528,
				"y": 1.7675684724,
				"z": 2.8297455412,
				"element": "N" 
			},
			{
				"x": -1.6362908995,
				"y": 0.6934594447,
				"z": 3.4852519024,
				"element": "N" 
			},
			{
				"x": -0.7189500687,
				"y": -0.2189477769,
				"z": 3.2888446542,
				"element": "N" 
			},
			{
				"x": 1.1427671937,
				"y": 0.0950189913,
				"z": -2.211707255,
				"element": "H" 
			},
			{
				"x": -0.0078524723,
				"y": -0.7793152722,
				"z": -3.2388548803,
				"element": "H" 
			},
			{
				"x": -0.6057839549,
				"y": 0.3641250906,
				"z": -2.0205881117,
				"element": "H" 
			},
			{
				"x": -0.8666488565,
				"y": -2.0248390256,
				"z": -1.2366465762,
				"element": "H" 
			},
			{
				"x": 0.8965266085,
				"y": -2.2499134871,
				"z": -1.3950147192,
				"element": "H" 
			},
			{
				"x": 1.6076669561,
				"y": -1.2442880726,
				"z": 2.6868956243,
				"element": "H" 
			},
			{
				"x": 2.3544864651,
				"y": 0.2705647968,
				"z": 2.1770568791,
				"element": "H" 
			},
			{
				"x": -1.7281198131,
				"y": 2.6353337037,
				"z": 2.8190417279,
				"element": "H" 
			}
		],
		 "valence_orbital": [ 
			{
				"type": "occ",
				"energy": -0.32442,
				"method": "rhf"
			},
			{
				"type": "occ",
				"energy": -0.30858,
				"method": "rhf"
			},
			{
				"type": "occ",
				"energy": -0.30206,
				"method": "rhf"
			},
			{
				"type": "occ",
				"energy": -0.29657,
				"method": "rhf"
			},
			{
				"type": "occ",
				"energy": -0.27188,
				"method": "rhf"
			},
			{
				"type": "unocc",
				"energy": -0.03331,
				"method": "rhf"
			},
			{
				"type": "unocc",
				"energy": 0.00663,
				"method": "rhf"
			},
			{
				"type": "unocc",
				"energy": 0.0235,
				"method": "rhf"
			},
			{
				"type": "unocc",
				"energy": 0.06206,
				"method": "rhf"
			},
			{
				"type": "unocc",
				"energy": 0.10408,
				"method": "rhf"
			}
		],
		"cosmo_sigma_profile": { 
			"-0.025": 0.0,
			"-0.024": 0.0,
			"-0.023": 0.0,
			"-0.022": 0.0,
			"-0.021": 0.0,
			"-0.02": 0.331231285368,
			"-0.019": 2.03988375432,
			"-0.018": 1.63305422468,
			"-0.017": 1.02376713764,
			"-0.016": 0.587652086606,
			"-0.015": 1.5796930957,
			"-0.014": 0.780878500154,
			"-0.013": 0.217603030148,
			"-0.012": 0.943666573162,
			"-0.011": 1.24744476166,
			"-0.01": 0.828994635685,
			"-0.009": 1.33785662515,
			"-0.008": 3.90583844459,
			"-0.007": 4.33561088199,
			"-0.006": 6.200896474,
			"-0.005": 10.6558673363,
			"-0.004": 18.1022638015,
			"-0.003": 18.6204263764,
			"-0.002": 14.996728496,
			"-0.001": 13.5844051692,
			"0.0": 13.4710225117,
			"0.001": 8.08667019982,
			"0.002": 5.43583683146,
			"0.003": 5.5299682315,
			"0.004": 6.76622656823,
			"0.005": 6.41265771665,
			"0.006": 6.10532697673,
			"0.007": 6.45555956828,
			"0.008": 5.81924688057,
			"0.009": 5.68833702638,
			"0.01": 5.92399136759,
			"0.011": 6.39550313453,
			"0.012": 5.88691916272,
			"0.013": 1.39950472356,
			"0.014": 0.850815024718,
			"0.015": 0.11973377821,
			"0.016": 0.0,
			"0.017": 0.0,
			"0.018": 0.0,
			"0.019": 0.0,
			"0.02": 0.0,
			"0.021": 0.0,
			"0.022": 0.0,
			"0.023": 0.0,
			"0.024": 0.0,
			"0.025": 0.0
		}
	}
}
