{
	 "smiles": "NC1=CC(=CC=C1)C1=NC(=NO1)C1CC1", 
	 "Tm": 363.15, 
	 "num_atms": 26, 
	 "gaussian": { 
		 "optdone": 1, 
		 "sigma_profile": "yes", 
		 "theory": "DFT", 
		 "functional": "B3LYP", 
		 "basiset": "6-31G**", 
		 "properties": { 
			 "R2extent": 4329.5795, 
			 "electric_dipole_moment_norm": 3.83495123307, 
			 "electric_quadrupole_moment_norm": 16.6053801977, 
			 "total_energy": -665.224615142, 
			 "HOMO_LUMO_gap": 0.16328, 
			 "cosmo_polarized_energy": -12.64, 
			 "cosmo_cavitation_energy": 30.64, 
			 "cosmo_dispersion_energy": -22.52, 
			 "cosmo_repulsion_energy": 1.77, 
			 "cosmo_total_nonelectrostatic_energy": 9.88, 
			 "SMD_solvation_energy": 3.3 
		},
		"coords": [
			{
				"x": -1.1910895386,
				"y": -1.1651953847,
				"z": -4.3174183632,
				"element": "N" 
			},
			{
				"x": -0.2197236998,
				"y": -1.3147997027,
				"z": -3.3296123837,
				"element": "C" 
			},
			{
				"x": -0.506051532,
				"y": -1.006609503,
				"z": -1.992472515,
				"element": "C" 
			},
			{
				"x": 0.4549360952,
				"y": -1.2126113636,
				"z": -0.9951409289,
				"element": "C" 
			},
			{
				"x": 1.7196673661,
				"y": -1.7290392217,
				"z": -1.3150283996,
				"element": "C" 
			},
			{
				"x": 2.0010821321,
				"y": -2.0336116821,
				"z": -2.6453435398,
				"element": "C" 
			},
			{
				"x": 1.0512529119,
				"y": -1.8323880815,
				"z": -3.6438185782,
				"element": "C" 
			},
			{
				"x": 0.1111570456,
				"y": -0.8733318843,
				"z": 0.3847763649,
				"element": "C" 
			},
			{
				"x": -1.0118515155,
				"y": -0.3815411206,
				"z": 0.8395421539,
				"element": "N" 
			},
			{
				"x": -0.7656133443,
				"y": -0.2686838658,
				"z": 2.1896949924,
				"element": "C" 
			},
			{
				"x": 0.431056456,
				"y": -0.6612898761,
				"z": 2.5634782129,
				"element": "N" 
			},
			{
				"x": 1.0257457651,
				"y": -1.0694245742,
				"z": 1.351677751,
				"element": "O" 
			},
			{
				"x": -1.7531234902,
				"y": 0.2480689478,
				"z": 3.1511707704,
				"element": "C" 
			},
			{
				"x": -2.7058047797,
				"y": 1.3467993815,
				"z": 2.7158470549,
				"element": "C" 
			},
			{
				"x": -3.2261711373,
				"y": -0.0427249557,
				"z": 2.9276964995,
				"element": "C" 
			},
			{
				"x": -0.8420681781,
				"y": -1.0564351355,
				"z": -5.2592401196,
				"element": "H" 
			},
			{
				"x": -1.9298243013,
				"y": -0.5095257553,
				"z": -4.1049034561,
				"element": "H" 
			},
			{
				"x": -1.4764363991,
				"y": -0.6081868225,
				"z": -1.7131098063,
				"element": "H" 
			},
			{
				"x": 2.45832804,
				"y": -1.8837055129,
				"z": -0.5374947364,
				"element": "H" 
			},
			{
				"x": 2.9755256518,
				"y": -2.4325061982,
				"z": -2.9114987695,
				"element": "H" 
			},
			{
				"x": 1.2862639875,
				"y": -2.0799435306,
				"z": -4.6760554865,
				"element": "H" 
			},
			{
				"x": -1.3933018699,
				"y": 0.2692535701,
				"z": 4.1743718113,
				"element": "H" 
			},
			{
				"x": -2.6101190918,
				"y": 1.6984875384,
				"z": 1.693910604,
				"element": "H" 
			},
			{
				"x": -2.9438751086,
				"y": 2.1134948368,
				"z": 3.4464704275,
				"element": "H" 
			},
			{
				"x": -3.4802385919,
				"y": -0.6252954798,
				"z": 2.0483732879,
				"element": "H" 
			},
			{
				"x": -3.8284228735,
				"y": -0.2489546238,
				"z": 3.8069271523,
				"element": "H" 
			}
		],
		 "valence_orbital": [ 
			{
				"type": "occ",
				"energy": -0.30125,
				"method": "rhf"
			},
			{
				"type": "occ",
				"energy": -0.28775,
				"method": "rhf"
			},
			{
				"type": "occ",
				"energy": -0.27064,
				"method": "rhf"
			},
			{
				"type": "occ",
				"energy": -0.24132,
				"method": "rhf"
			},
			{
				"type": "occ",
				"energy": -0.21259,
				"method": "rhf"
			},
			{
				"type": "unocc",
				"energy": -0.04931,
				"method": "rhf"
			},
			{
				"type": "unocc",
				"energy": 0.00258,
				"method": "rhf"
			},
			{
				"type": "unocc",
				"energy": 0.02625,
				"method": "rhf"
			},
			{
				"type": "unocc",
				"energy": 0.0654,
				"method": "rhf"
			},
			{
				"type": "unocc",
				"energy": 0.07779,
				"method": "rhf"
			}
		],
		"cosmo_sigma_profile": { 
			"-0.025": 0.0,
			"-0.024": 0.0,
			"-0.023": 0.0,
			"-0.022": 0.0,
			"-0.021": 0.0,
			"-0.02": 0.0,
			"-0.019": 0.0,
			"-0.018": 0.0,
			"-0.017": 0.0,
			"-0.016": 0.0,
			"-0.015": 0.0,
			"-0.014": 0.0,
			"-0.013": 0.959590993839,
			"-0.012": 2.85384775705,
			"-0.011": 3.06182850525,
			"-0.01": 3.56545908993,
			"-0.009": 3.68871802204,
			"-0.008": 2.53954193421,
			"-0.007": 4.11476209051,
			"-0.006": 9.972903932,
			"-0.005": 16.0454547516,
			"-0.004": 15.141389086,
			"-0.003": 15.497999947,
			"-0.002": 15.4922715179,
			"-0.001": 17.4939707899,
			"0.0": 19.7350916483,
			"0.001": 18.9849751547,
			"0.002": 19.8903640591,
			"0.003": 16.8232625435,
			"0.004": 17.6077250476,
			"0.005": 11.6929485084,
			"0.006": 6.58953596841,
			"0.007": 5.50795911703,
			"0.008": 4.54218197768,
			"0.009": 3.18537239437,
			"0.01": 2.43853413373,
			"0.011": 2.17341446971,
			"0.012": 1.94030121048,
			"0.013": 1.93896352124,
			"0.014": 1.01953578036,
			"0.015": 0.0,
			"0.016": 0.0,
			"0.017": 0.0,
			"0.018": 0.0,
			"0.019": 0.0,
			"0.02": 0.0,
			"0.021": 0.0,
			"0.022": 0.0,
			"0.023": 0.0,
			"0.024": 0.0,
			"0.025": 0.0
		}
	}
}
