{
	 "smiles": "OC(=O)C1=C2SC(=NC2=NC(=C1)C1=CN=CC=C1)N1CCCC1", 
	 "Tm": 603.15, 
	 "num_atms": 37, 
	 "gaussian": { 
		 "optdone": 1, 
		 "sigma_profile": "yes", 
		 "theory": "DFT", 
		 "functional": "B3LYP", 
		 "basiset": "6-31G**", 
		 "properties": { 
			 "R2extent": 11646.8954, 
			 "electric_dipole_moment_norm": 5.33829726224, 
			 "electric_quadrupole_moment_norm": 29.3240272471, 
			 "total_energy": -1385.80519071, 
			 "HOMO_LUMO_gap": 0.14372, 
			 "cosmo_polarized_energy": -23.06, 
			 "cosmo_cavitation_energy": 42.16, 
			 "cosmo_dispersion_energy": -31.78, 
			 "cosmo_repulsion_energy": 2.35, 
			 "cosmo_total_nonelectrostatic_energy": 12.73, 
			 "SMD_solvation_energy": 2.51 
		},
		"coords": [
			{
				"x": 2.4767249085,
				"y": -1.4128881238,
				"z": 5.0451974796,
				"element": "O" 
			},
			{
				"x": 1.267554389,
				"y": -1.1171957786,
				"z": 4.5155479915,
				"element": "C" 
			},
			{
				"x": 0.2900603563,
				"y": -1.0601978256,
				"z": 5.2290877706,
				"element": "O" 
			},
			{
				"x": 1.1978824448,
				"y": -0.8604408697,
				"z": 3.042772202,
				"element": "C" 
			},
			{
				"x": 0.0428470291,
				"y": -0.2935706673,
				"z": 2.5126249891,
				"element": "C" 
			},
			{
				"x": -1.4408914301,
				"y": 0.182777534,
				"z": 3.3002405409,
				"element": "S" 
			},
			{
				"x": -2.0011718815,
				"y": 0.765998267,
				"z": 1.6879812861,
				"element": "C" 
			},
			{
				"x": -1.1735809219,
				"y": 0.6078351729,
				"z": 0.68486401,
				"element": "N" 
			},
			{
				"x": -0.0157523082,
				"y": 0.0083628384,
				"z": 1.1171097766,
				"element": "C" 
			},
			{
				"x": 0.984405005,
				"y": -0.2737679811,
				"z": 0.2822226473,
				"element": "N" 
			},
			{
				"x": 2.0855564919,
				"y": -0.8668415465,
				"z": 0.7767831165,
				"element": "C" 
			},
			{
				"x": 2.2326829422,
				"y": -1.1592294643,
				"z": 2.143208641,
				"element": "C" 
			},
			{
				"x": 3.1552535748,
				"y": -1.1762330347,
				"z": -0.2070212561,
				"element": "C" 
			},
			{
				"x": 4.1587573178,
				"y": -2.1282952913,
				"z": 0.0350614825,
				"element": "C" 
			},
			{
				"x": 5.1439725639,
				"y": -2.4220436728,
				"z": -0.8187286034,
				"element": "N" 
			},
			{
				"x": 5.1625670046,
				"y": -1.7667223099,
				"z": -1.9858804125,
				"element": "C" 
			},
			{
				"x": 4.2034975868,
				"y": -0.8182160259,
				"z": -2.347120296,
				"element": "C" 
			},
			{
				"x": 3.186159317,
				"y": -0.5210850892,
				"z": -1.4473529689,
				"element": "C" 
			},
			{
				"x": -3.2186072224,
				"y": 1.3204206565,
				"z": 1.5668413382,
				"element": "N" 
			},
			{
				"x": -3.7140295904,
				"y": 1.8231105111,
				"z": 0.2747116589,
				"element": "C" 
			},
			{
				"x": -4.9579996076,
				"y": 2.6303003906,
				"z": 0.6724722302,
				"element": "C" 
			},
			{
				"x": -5.4661263262,
				"y": 1.9119634308,
				"z": 1.9353669097,
				"element": "C" 
			},
			{
				"x": -4.1733900215,
				"y": 1.5115914536,
				"z": 2.6640779916,
				"element": "C" 
			},
			{
				"x": 3.1766216897,
				"y": -1.2858779188,
				"z": 4.3895599904,
				"element": "H" 
			},
			{
				"x": 3.147914843,
				"y": -1.629228172,
				"z": 2.4866777235,
				"element": "H" 
			},
			{
				"x": 4.1581593369,
				"y": -2.7067294341,
				"z": 0.9574716084,
				"element": "H" 
			},
			{
				"x": 5.9771343667,
				"y": -2.0163093921,
				"z": -2.6635650193,
				"element": "H" 
			},
			{
				"x": 4.2576814004,
				"y": -0.3238335667,
				"z": -3.3121779549,
				"element": "H" 
			},
			{
				"x": 2.4119419805,
				"y": 0.2026053281,
				"z": -1.6771764186,
				"element": "H" 
			},
			{
				"x": -3.958830851,
				"y": 0.9810261247,
				"z": -0.3852657994,
				"element": "H" 
			},
			{
				"x": -2.9393612331,
				"y": 2.4138603933,
				"z": -0.2203419904,
				"element": "H" 
			},
			{
				"x": -4.6747123072,
				"y": 3.6610988272,
				"z": 0.9127879793,
				"element": "H" 
			},
			{
				"x": -5.7015835964,
				"y": 2.665784233,
				"z": -0.1275694347,
				"element": "H" 
			},
			{
				"x": -6.1132387976,
				"y": 2.5350735556,
				"z": 2.557420707,
				"element": "H" 
			},
			{
				"x": -6.029040103,
				"y": 1.013910072,
				"z": 1.6586080971,
				"element": "H" 
			},
			{
				"x": -3.8287698699,
				"y": 2.3047870708,
				"z": 3.3426930789,
				"element": "H" 
			},
			{
				"x": -4.2859884809,
				"y": 0.5929003046,
				"z": 3.2508089071,
				"element": "H" 
			}
		],
		 "valence_orbital": [ 
			{
				"type": "occ",
				"energy": -0.26988,
				"method": "rhf"
			},
			{
				"type": "occ",
				"energy": -0.26467,
				"method": "rhf"
			},
			{
				"type": "occ",
				"energy": -0.25391,
				"method": "rhf"
			},
			{
				"type": "occ",
				"energy": -0.24551,
				"method": "rhf"
			},
			{
				"type": "occ",
				"energy": -0.21349,
				"method": "rhf"
			},
			{
				"type": "unocc",
				"energy": -0.06977,
				"method": "rhf"
			},
			{
				"type": "unocc",
				"energy": -0.04425,
				"method": "rhf"
			},
			{
				"type": "unocc",
				"energy": -0.02042,
				"method": "rhf"
			},
			{
				"type": "unocc",
				"energy": -0.00204,
				"method": "rhf"
			},
			{
				"type": "unocc",
				"energy": 0.01319,
				"method": "rhf"
			}
		],
		"cosmo_sigma_profile": { 
			"-0.025": 0.0,
			"-0.024": 0.0,
			"-0.023": 0.0,
			"-0.022": 0.0,
			"-0.021": 0.0,
			"-0.02": 0.39502738443,
			"-0.019": 0.563564561445,
			"-0.018": 1.44766099352,
			"-0.017": 0.928421430402,
			"-0.016": 0.66259270864,
			"-0.015": 1.00011408086,
			"-0.014": 1.12533367643,
			"-0.013": 1.43304073237,
			"-0.012": 1.0729073672,
			"-0.011": 1.39127754782,
			"-0.01": 2.03562310826,
			"-0.009": 1.98497251662,
			"-0.008": 2.00583613578,
			"-0.007": 4.70066767356,
			"-0.006": 10.344298884,
			"-0.005": 21.868063161,
			"-0.004": 37.2564530676,
			"-0.003": 32.6730701748,
			"-0.002": 25.5504369574,
			"-0.001": 30.0408862497,
			"0.0": 27.590920792,
			"0.001": 22.1921085685,
			"0.002": 21.7474761867,
			"0.003": 14.6125896687,
			"0.004": 11.0014251285,
			"0.005": 7.53688181872,
			"0.006": 7.75983816676,
			"0.007": 6.40378012186,
			"0.008": 6.68026775853,
			"0.009": 8.00867786893,
			"0.01": 7.91286303666,
			"0.011": 5.97535028735,
			"0.012": 4.56118454977,
			"0.013": 2.38220163349,
			"0.014": 3.49619369857,
			"0.015": 1.94044146302,
			"0.016": 0.746083837601,
			"0.017": 0.271179410457,
			"0.018": 0.0,
			"0.019": 0.0,
			"0.02": 0.0,
			"0.021": 0.0,
			"0.022": 0.0,
			"0.023": 0.0,
			"0.024": 0.0,
			"0.025": 0.0
		}
	}
}
