{
	 "smiles": "CN1CCN(CC1)S(=O)(=O)C1=C(C)NN=C1C", 
	 "Tm": 461.15, 
	 "num_atms": 35, 
	 "gaussian": { 
		 "optdone": 1, 
		 "sigma_profile": "yes", 
		 "theory": "DFT", 
		 "functional": "B3LYP", 
		 "basiset": "6-31G**", 
		 "properties": { 
			 "R2extent": 5008.5097, 
			 "electric_dipole_moment_norm": 3.64061387818, 
			 "electric_quadrupole_moment_norm": 18.3923983626, 
			 "total_energy": -1159.46749501, 
			 "HOMO_LUMO_gap": 0.21641, 
			 "cosmo_polarized_energy": -18.02, 
			 "cosmo_cavitation_energy": 36.93, 
			 "cosmo_dispersion_energy": -26.1, 
			 "cosmo_repulsion_energy": 1.97, 
			 "cosmo_total_nonelectrostatic_energy": 12.8, 
			 "SMD_solvation_energy": 1.77 
		},
		"coords": [
			{
				"x": 3.2976674317,
				"y": 2.0615087815,
				"z": 1.5885457016,
				"element": "C" 
			},
			{
				"x": 2.7316296562,
				"y": 1.1333753922,
				"z": 0.6204588613,
				"element": "N" 
			},
			{
				"x": 1.6821395761,
				"y": 0.304156344,
				"z": 1.21710831,
				"element": "C" 
			},
			{
				"x": 1.1896328535,
				"y": -0.7336876187,
				"z": 0.2041686667,
				"element": "C" 
			},
			{
				"x": 0.7512889757,
				"y": -0.1251850025,
				"z": -1.0652210362,
				"element": "N" 
			},
			{
				"x": 1.7491194979,
				"y": 0.8153558657,
				"z": -1.6101503737,
				"element": "C" 
			},
			{
				"x": 2.2294975666,
				"y": 1.826774386,
				"z": -0.5670758254,
				"element": "C" 
			},
			{
				"x": -0.8793238773,
				"y": 0.3309817065,
				"z": -1.1624807412,
				"element": "S" 
			},
			{
				"x": -1.3695947087,
				"y": 0.8945208152,
				"z": 0.1085331564,
				"element": "O" 
			},
			{
				"x": -0.9977956005,
				"y": 1.115991427,
				"z": -2.3972214585,
				"element": "O" 
			},
			{
				"x": -1.6695522157,
				"y": -1.2232924885,
				"z": -1.3610164695,
				"element": "C" 
			},
			{
				"x": -2.6664316467,
				"y": -1.747939944,
				"z": -0.5391136566,
				"element": "C" 
			},
			{
				"x": -3.3172608709,
				"y": -1.2740408233,
				"z": 0.7203854221,
				"element": "C" 
			},
			{
				"x": -3.0159009433,
				"y": -2.9071056373,
				"z": -1.1420569574,
				"element": "N" 
			},
			{
				"x": -2.3374214052,
				"y": -3.172826373,
				"z": -2.2894794654,
				"element": "N" 
			},
			{
				"x": -1.5115436414,
				"y": -2.1444229229,
				"z": -2.4404690238,
				"element": "C" 
			},
			{
				"x": -0.5875013984,
				"y": -2.0572867451,
				"z": -3.6119566475,
				"element": "C" 
			},
			{
				"x": 2.5604407151,
				"y": 2.7855072058,
				"z": 1.9848443363,
				"element": "H" 
			},
			{
				"x": 3.7127718824,
				"y": 1.5045755815,
				"z": 2.4352072716,
				"element": "H" 
			},
			{
				"x": 4.1116109123,
				"y": 2.6280530164,
				"z": 1.1242442885,
				"element": "H" 
			},
			{
				"x": 2.1021030803,
				"y": -0.2179066199,
				"z": 2.0855871876,
				"element": "H" 
			},
			{
				"x": 0.8246860019,
				"y": 0.9069070754,
				"z": 1.5664967944,
				"element": "H" 
			},
			{
				"x": 2.0086780762,
				"y": -1.4195064099,
				"z": -0.0428859177,
				"element": "H" 
			},
			{
				"x": 0.3719245244,
				"y": -1.3276291136,
				"z": 0.6203074718,
				"element": "H" 
			},
			{
				"x": 1.3180345424,
				"y": 1.3159968659,
				"z": -2.4774346176,
				"element": "H" 
			},
			{
				"x": 2.5989141692,
				"y": 0.2067539181,
				"z": -1.9419228624,
				"element": "H" 
			},
			{
				"x": 1.4057914328,
				"y": 2.5251493187,
				"z": -0.3217959218,
				"element": "H" 
			},
			{
				"x": 3.0452647787,
				"y": 2.4210591808,
				"z": -0.9960860687,
				"element": "H" 
			},
			{
				"x": -4.0633826064,
				"y": -1.9975145317,
				"z": 1.0628988293,
				"element": "H" 
			},
			{
				"x": -3.8055106804,
				"y": -0.3088219987,
				"z": 0.5660321172,
				"element": "H" 
			},
			{
				"x": -2.5799972295,
				"y": -1.1266359779,
				"z": 1.5131185507,
				"element": "H" 
			},
			{
				"x": -3.7175246374,
				"y": -3.5609859625,
				"z": -0.8286281652,
				"element": "H" 
			},
			{
				"x": -0.7502896127,
				"y": -2.9116957718,
				"z": -4.2716476513,
				"element": "H" 
			},
			{
				"x": -0.7579694877,
				"y": -1.1312984855,
				"z": -4.1693970004,
				"element": "H" 
			},
			{
				"x": 0.4569048888,
				"y": -2.0502844541,
				"z": -3.2838971052,
				"element": "H" 
			}
		],
		 "valence_orbital": [ 
			{
				"type": "occ",
				"energy": -0.28457,
				"method": "rhf"
			},
			{
				"type": "occ",
				"energy": -0.26712,
				"method": "rhf"
			},
			{
				"type": "occ",
				"energy": -0.25559,
				"method": "rhf"
			},
			{
				"type": "occ",
				"energy": -0.24203,
				"method": "rhf"
			},
			{
				"type": "occ",
				"energy": -0.21424,
				"method": "rhf"
			},
			{
				"type": "unocc",
				"energy": 0.00217,
				"method": "rhf"
			},
			{
				"type": "unocc",
				"energy": 0.02584,
				"method": "rhf"
			},
			{
				"type": "unocc",
				"energy": 0.06272,
				"method": "rhf"
			},
			{
				"type": "unocc",
				"energy": 0.07905,
				"method": "rhf"
			},
			{
				"type": "unocc",
				"energy": 0.08688,
				"method": "rhf"
			}
		],
		"cosmo_sigma_profile": { 
			"-0.025": 0.0,
			"-0.024": 0.0,
			"-0.023": 0.0,
			"-0.022": 0.0,
			"-0.021": 0.0,
			"-0.02": 0.0,
			"-0.019": 0.0,
			"-0.018": 0.00489916225642,
			"-0.017": 0.836318387001,
			"-0.016": 1.94946286676,
			"-0.015": 0.71121343536,
			"-0.014": 1.19445956041,
			"-0.013": 1.1626515488,
			"-0.012": 1.57392307378,
			"-0.011": 1.26568405362,
			"-0.01": 1.24057968775,
			"-0.009": 1.04876475111,
			"-0.008": 0.915522378619,
			"-0.007": 1.15774291228,
			"-0.006": 3.81985210436,
			"-0.005": 14.0093278086,
			"-0.004": 32.9182854485,
			"-0.003": 30.3867244992,
			"-0.002": 36.7803900081,
			"-0.001": 33.7423591463,
			"0.0": 26.5915161759,
			"0.001": 14.3556831175,
			"0.002": 12.5005966103,
			"0.003": 10.7601006767,
			"0.004": 7.29278027377,
			"0.005": 6.4990009941,
			"0.006": 5.61580765923,
			"0.007": 4.52686736614,
			"0.008": 4.33716162622,
			"0.009": 5.6805411016,
			"0.01": 6.56991688752,
			"0.011": 7.778606859,
			"0.012": 6.23894544126,
			"0.013": 2.21003028872,
			"0.014": 1.44153618128,
			"0.015": 1.085591142,
			"0.016": 0.373893266775,
			"0.017": 0.0,
			"0.018": 0.0,
			"0.019": 0.0,
			"0.02": 0.0,
			"0.021": 0.0,
			"0.022": 0.0,
			"0.023": 0.0,
			"0.024": 0.0,
			"0.025": 0.0
		}
	}
}
