{
	 "smiles": "CCCS(O)(=O)=O", 
	 "Tm": 281.15, 
	 "num_atms": 15, 
	 "gaussian": { 
		 "optdone": 1, 
		 "sigma_profile": "yes", 
		 "theory": "DFT", 
		 "functional": "B3LYP", 
		 "basiset": "6-31G**", 
		 "properties": { 
			 "R2extent": 2062.3607, 
			 "electric_dipole_moment_norm": 3.43341881075, 
			 "electric_quadrupole_moment_norm": 11.8913841848, 
			 "total_energy": -742.942299656, 
			 "HOMO_LUMO_gap": 0.33575, 
			 "cosmo_polarized_energy": -13.17, 
			 "cosmo_cavitation_energy": 19.24, 
			 "cosmo_dispersion_energy": -15.06, 
			 "cosmo_repulsion_energy": 1.23, 
			 "cosmo_total_nonelectrostatic_energy": 5.41, 
			 "SMD_solvation_energy": 2.47 
		},
		"coords": [
			{
				"x": 0.0884319672,
				"y": 1.1528257182,
				"z": -1.3091810721,
				"element": "C" 
			},
			{
				"x": -0.4001565077,
				"y": 1.6690455728,
				"z": 0.0476950554,
				"element": "C" 
			},
			{
				"x": -1.9180824482,
				"y": 1.8223129673,
				"z": 0.1848094264,
				"element": "C" 
			},
			{
				"x": -2.8416573969,
				"y": 0.2694137647,
				"z": 0.305306403,
				"element": "S" 
			},
			{
				"x": -2.7679936363,
				"y": -0.2508929539,
				"z": -1.2600373257,
				"element": "O" 
			},
			{
				"x": -4.2507981992,
				"y": 0.5662308055,
				"z": 0.5709870585,
				"element": "O" 
			},
			{
				"x": -2.1020518858,
				"y": -0.6698001635,
				"z": 1.1398254925,
				"element": "O" 
			},
			{
				"x": 1.1821770395,
				"y": 1.1502679007,
				"z": -1.3378701459,
				"element": "H" 
			},
			{
				"x": -0.2665576471,
				"y": 1.7886063766,
				"z": -2.1277716703,
				"element": "H" 
			},
			{
				"x": -0.2563143589,
				"y": 0.1346001977,
				"z": -1.5041593697,
				"element": "H" 
			},
			{
				"x": -0.0426886208,
				"y": 1.0199951377,
				"z": 0.8537012098,
				"element": "H" 
			},
			{
				"x": 0.024119357,
				"y": 2.6629248215,
				"z": 0.2362393586,
				"element": "H" 
			},
			{
				"x": -2.3721726497,
				"y": 2.3751238733,
				"z": -0.6420530496,
				"element": "H" 
			},
			{
				"x": -2.1819560061,
				"y": 2.3266117156,
				"z": 1.1198507992,
				"element": "H" 
			},
			{
				"x": -3.676199007,
				"y": -0.5049657343,
				"z": -1.49794217,
				"element": "H" 
			}
		],
		 "valence_orbital": [ 
			{
				"type": "occ",
				"energy": -0.35714,
				"method": "rhf"
			},
			{
				"type": "occ",
				"energy": -0.3428,
				"method": "rhf"
			},
			{
				"type": "occ",
				"energy": -0.32219,
				"method": "rhf"
			},
			{
				"type": "occ",
				"energy": -0.31618,
				"method": "rhf"
			},
			{
				"type": "occ",
				"energy": -0.30416,
				"method": "rhf"
			},
			{
				"type": "unocc",
				"energy": 0.03159,
				"method": "rhf"
			},
			{
				"type": "unocc",
				"energy": 0.06325,
				"method": "rhf"
			},
			{
				"type": "unocc",
				"energy": 0.07176,
				"method": "rhf"
			},
			{
				"type": "unocc",
				"energy": 0.09513,
				"method": "rhf"
			},
			{
				"type": "unocc",
				"energy": 0.10067,
				"method": "rhf"
			}
		],
		"cosmo_sigma_profile": { 
			"-0.025": 0.0,
			"-0.024": 0.0,
			"-0.023": 0.0,
			"-0.022": 0.0,
			"-0.021": 0.0,
			"-0.02": 0.196305850018,
			"-0.019": 1.0239486431,
			"-0.018": 0.969093550277,
			"-0.017": 0.971036540083,
			"-0.016": 0.555472854652,
			"-0.015": 0.612540671111,
			"-0.014": 0.58134093608,
			"-0.013": 0.976798144197,
			"-0.012": 0.608510781502,
			"-0.011": 0.989388033203,
			"-0.01": 1.10862704091,
			"-0.009": 2.23968907709,
			"-0.008": 5.08358975865,
			"-0.007": 5.06895055822,
			"-0.006": 4.82229423929,
			"-0.005": 8.55665845534,
			"-0.004": 10.9941102565,
			"-0.003": 10.102720126,
			"-0.002": 12.6181817723,
			"-0.001": 11.0845623442,
			"0.0": 10.0685171681,
			"0.001": 7.67378049992,
			"0.002": 4.9195411298,
			"0.003": 3.37548343003,
			"0.004": 4.03968669497,
			"0.005": 3.41422872092,
			"0.006": 4.47715486121,
			"0.007": 4.42141735491,
			"0.008": 4.603511311,
			"0.009": 4.42924932335,
			"0.01": 11.3886365632,
			"0.011": 8.00994510977,
			"0.012": 0.49424870101,
			"0.013": 0.0,
			"0.014": 0.0,
			"0.015": 0.0,
			"0.016": 0.0,
			"0.017": 0.0,
			"0.018": 0.0,
			"0.019": 0.0,
			"0.02": 0.0,
			"0.021": 0.0,
			"0.022": 0.0,
			"0.023": 0.0,
			"0.024": 0.0,
			"0.025": 0.0
		}
	}
}
