{
	 "smiles": "NC1=C(C=C(Br)C=C1Br)C(=O)C1=CC=CC=C1", 
	 "Tm": 371.15, 
	 "num_atms": 26, 
	 "gaussian": { 
		 "optdone": 1, 
		 "sigma_profile": "yes", 
		 "theory": "DFT", 
		 "functional": "B3LYP", 
		 "basiset": "6-31G**", 
		 "properties": { 
			 "R2extent": 11971.6743, 
			 "electric_dipole_moment_norm": 4.95005187549, 
			 "electric_quadrupole_moment_norm": 5.61279122719, 
			 "total_energy": -5773.59350233, 
			 "HOMO_LUMO_gap": 0.14236, 
			 "cosmo_polarized_energy": -11.29, 
			 "cosmo_cavitation_energy": 34.88, 
			 "cosmo_dispersion_energy": -25.8, 
			 "cosmo_repulsion_energy": 2.01, 
			 "cosmo_total_nonelectrostatic_energy": 11.09, 
			 "SMD_solvation_energy": 3.89 
		},
		"coords": [
			{
				"x": 2.0435911844,
				"y": 0.4322805823,
				"z": 0.9996248379,
				"element": "N" 
			},
			{
				"x": 1.8289815495,
				"y": 1.7057939962,
				"z": 0.5289826394,
				"element": "C" 
			},
			{
				"x": 0.5266930551,
				"y": 2.2343806082,
				"z": 0.3072278017,
				"element": "C" 
			},
			{
				"x": 0.3561887341,
				"y": 3.5844735231,
				"z": -0.0284838856,
				"element": "C" 
			},
			{
				"x": 1.4506314797,
				"y": 4.4137801877,
				"z": -0.2176706728,
				"element": "C" 
			},
			{
				"x": 1.2028501827,
				"y": 6.240243369,
				"z": -0.7149156975,
				"element": "Br" 
			},
			{
				"x": 2.7424866216,
				"y": 3.9176327575,
				"z": -0.0457019569,
				"element": "C" 
			},
			{
				"x": 2.9130755819,
				"y": 2.5921868476,
				"z": 0.3257222541,
				"element": "C" 
			},
			{
				"x": 4.7047263688,
				"y": 1.9551714438,
				"z": 0.5809443432,
				"element": "Br" 
			},
			{
				"x": -0.7441931451,
				"y": 1.4495064041,
				"z": 0.4964908975,
				"element": "C" 
			},
			{
				"x": -1.6945037219,
				"y": 1.9652271844,
				"z": 1.0705453543,
				"element": "O" 
			},
			{
				"x": -0.8845543226,
				"y": 0.0692526475,
				"z": -0.0782674066,
				"element": "C" 
			},
			{
				"x": -1.8593696024,
				"y": -0.7819925596,
				"z": 0.4674417675,
				"element": "C" 
			},
			{
				"x": -2.0707807677,
				"y": -2.0463497247,
				"z": -0.0747554732,
				"element": "C" 
			},
			{
				"x": -1.3279351253,
				"y": -2.4654613614,
				"z": -1.1832946465,
				"element": "C" 
			},
			{
				"x": -0.3710038164,
				"y": -1.618140955,
				"z": -1.7457713372,
				"element": "C" 
			},
			{
				"x": -0.1443049098,
				"y": -0.3571840415,
				"z": -1.193223424,
				"element": "C" 
			},
			{
				"x": 2.986546363,
				"y": 0.0782612601,
				"z": 0.9340680939,
				"element": "H" 
			},
			{
				"x": 1.3117441943,
				"y": -0.2499044348,
				"z": 0.8796461773,
				"element": "H" 
			},
			{
				"x": -0.6529955139,
				"y": 3.9616889368,
				"z": -0.1418225608,
				"element": "H" 
			},
			{
				"x": 3.6052916128,
				"y": 4.5547391417,
				"z": -0.1931052174,
				"element": "H" 
			},
			{
				"x": -2.4408976262,
				"y": -0.4265233626,
				"z": 1.3115822648,
				"element": "H" 
			},
			{
				"x": -2.8180449327,
				"y": -2.7042583166,
				"z": 0.3589415914,
				"element": "H" 
			},
			{
				"x": -1.4990270113,
				"y": -3.4493133947,
				"z": -1.6106851973,
				"element": "H" 
			},
			{
				"x": 0.1943421784,
				"y": -1.9361141381,
				"z": -2.6167234801,
				"element": "H" 
			},
			{
				"x": 0.589761389,
				"y": 0.3074233989,
				"z": -1.638797067,
				"element": "H" 
			}
		],
		 "valence_orbital": [ 
			{
				"type": "occ",
				"energy": -0.27336,
				"method": "rhf"
			},
			{
				"type": "occ",
				"energy": -0.27265,
				"method": "rhf"
			},
			{
				"type": "occ",
				"energy": -0.26519,
				"method": "rhf"
			},
			{
				"type": "occ",
				"energy": -0.25234,
				"method": "rhf"
			},
			{
				"type": "occ",
				"energy": -0.21611,
				"method": "rhf"
			},
			{
				"type": "unocc",
				"energy": -0.07375,
				"method": "rhf"
			},
			{
				"type": "unocc",
				"energy": -0.02896,
				"method": "rhf"
			},
			{
				"type": "unocc",
				"energy": -0.0218,
				"method": "rhf"
			},
			{
				"type": "unocc",
				"energy": -0.01745,
				"method": "rhf"
			},
			{
				"type": "unocc",
				"energy": -0.00964,
				"method": "rhf"
			}
		],
		"cosmo_sigma_profile": { 
			"-0.025": 0.0,
			"-0.024": 0.0,
			"-0.023": 0.0,
			"-0.022": 0.0,
			"-0.021": 0.0,
			"-0.02": 0.0,
			"-0.019": 0.0,
			"-0.018": 0.0,
			"-0.017": 0.0,
			"-0.016": 0.0,
			"-0.015": 0.0,
			"-0.014": 0.0,
			"-0.013": 0.140292129351,
			"-0.012": 0.532743147825,
			"-0.011": 1.6171903871,
			"-0.01": 2.23032919913,
			"-0.009": 1.70971903178,
			"-0.008": 3.03376266919,
			"-0.007": 6.70379277929,
			"-0.006": 14.652739503,
			"-0.005": 17.6416793063,
			"-0.004": 20.6376653105,
			"-0.003": 17.6821402453,
			"-0.002": 19.0646259748,
			"-0.001": 18.0289025127,
			"0.0": 20.840329431,
			"0.001": 29.5592683381,
			"0.002": 32.5175039822,
			"0.003": 27.3142609447,
			"0.004": 25.47648532,
			"0.005": 8.69099406476,
			"0.006": 2.46160201055,
			"0.007": 2.19499383966,
			"0.008": 2.84539496189,
			"0.009": 2.01757532343,
			"0.01": 2.96505250108,
			"0.011": 3.57297833031,
			"0.012": 2.93543880025,
			"0.013": 0.129954052745,
			"0.014": 0.0,
			"0.015": 0.0,
			"0.016": 0.0,
			"0.017": 0.0,
			"0.018": 0.0,
			"0.019": 0.0,
			"0.02": 0.0,
			"0.021": 0.0,
			"0.022": 0.0,
			"0.023": 0.0,
			"0.024": 0.0,
			"0.025": 0.0
		}
	}
}
