{
	 "smiles": "CC(=O)C1=C(NS(=O)(=O)C2=CC=CS2)C=CC=C1", 
	 "Tm": 424.15, 
	 "num_atms": 29, 
	 "gaussian": { 
		 "optdone": 1, 
		 "sigma_profile": "yes", 
		 "theory": "DFT", 
		 "functional": "B3LYP", 
		 "basiset": "6-31G**", 
		 "properties": { 
			 "R2extent": 5053.136, 
			 "electric_dipole_moment_norm": 7.31712200595, 
			 "electric_quadrupole_moment_norm": 14.6000619776, 
			 "total_energy": -1540.60697909, 
			 "HOMO_LUMO_gap": 0.18276, 
			 "cosmo_polarized_energy": -20.31, 
			 "cosmo_cavitation_energy": 35.89, 
			 "cosmo_dispersion_energy": -25.29, 
			 "cosmo_repulsion_energy": 1.86, 
			 "cosmo_total_nonelectrostatic_energy": 12.46, 
			 "SMD_solvation_energy": 6.21 
		},
		"coords": [
			{
				"x": 2.7978425801,
				"y": 0.1744356031,
				"z": -2.2846549957,
				"element": "C" 
			},
			{
				"x": 2.7292502004,
				"y": 0.9608268929,
				"z": -0.9910446556,
				"element": "C" 
			},
			{
				"x": 3.4094148288,
				"y": 1.9635490663,
				"z": -0.8458324228,
				"element": "O" 
			},
			{
				"x": 1.9117103288,
				"y": 0.4657005011,
				"z": 0.1868409591,
				"element": "C" 
			},
			{
				"x": 0.7758615944,
				"y": -0.3687584755,
				"z": 0.138595085,
				"element": "C" 
			},
			{
				"x": 0.1860765159,
				"y": -0.7567831382,
				"z": -1.1070522872,
				"element": "N" 
			},
			{
				"x": -0.8624507227,
				"y": 0.3015665606,
				"z": -1.9423245105,
				"element": "S" 
			},
			{
				"x": -1.380526682,
				"y": -0.5118415742,
				"z": -3.0405868915,
				"element": "O" 
			},
			{
				"x": -0.1257206979,
				"y": 1.5472208893,
				"z": -2.1396213933,
				"element": "O" 
			},
			{
				"x": -2.2267478712,
				"y": 0.6693402029,
				"z": -0.8735630341,
				"element": "C" 
			},
			{
				"x": -3.4065897513,
				"y": -0.0336669243,
				"z": -0.815553491,
				"element": "C" 
			},
			{
				"x": -4.3056457464,
				"y": 0.5087962354,
				"z": 0.1434690475,
				"element": "C" 
			},
			{
				"x": -3.7903013534,
				"y": 1.6072536516,
				"z": 0.7842163196,
				"element": "C" 
			},
			{
				"x": -2.2037634525,
				"y": 2.0111663417,
				"z": 0.2328859033,
				"element": "S" 
			},
			{
				"x": 0.1982498178,
				"y": -0.8380917827,
				"z": 1.3274625029,
				"element": "C" 
			},
			{
				"x": 0.7272040193,
				"y": -0.4870991389,
				"z": 2.566129276,
				"element": "C" 
			},
			{
				"x": 1.8226284622,
				"y": 0.3765764122,
				"z": 2.6274743706,
				"element": "C" 
			},
			{
				"x": 2.3928839778,
				"y": 0.8486874566,
				"z": 1.4502176085,
				"element": "C" 
			},
			{
				"x": 3.7767882353,
				"y": 0.360162527,
				"z": -2.7316108614,
				"element": "H" 
			},
			{
				"x": 2.6342178635,
				"y": -0.8949651191,
				"z": -2.1402312776,
				"element": "H" 
			},
			{
				"x": 2.0295224319,
				"y": 0.5414403367,
				"z": -2.9700774518,
				"element": "H" 
			},
			{
				"x": -0.2514810982,
				"y": -1.6744108632,
				"z": -1.084216012,
				"element": "H" 
			},
			{
				"x": -3.61635752,
				"y": -0.8830565283,
				"z": -1.4543843596,
				"element": "H" 
			},
			{
				"x": -5.2941682534,
				"y": 0.110410154,
				"z": 0.3393589129,
				"element": "H" 
			},
			{
				"x": -4.2611115881,
				"y": 2.2148714683,
				"z": 1.5455476343,
				"element": "H" 
			},
			{
				"x": -0.6823837411,
				"y": -1.4725450797,
				"z": 1.2698327893,
				"element": "H" 
			},
			{
				"x": 0.2741620598,
				"y": -0.8708206444,
				"z": 3.4754030219,
				"element": "H" 
			},
			{
				"x": 2.2334654226,
				"y": 0.6734763933,
				"z": 3.5876719003,
				"element": "H" 
			},
			{
				"x": 3.2488701397,
				"y": 1.5142585755,
				"z": 1.4719483129,
				"element": "H" 
			}
		],
		 "valence_orbital": [ 
			{
				"type": "occ",
				"energy": -0.2794,
				"method": "rhf"
			},
			{
				"type": "occ",
				"energy": -0.26858,
				"method": "rhf"
			},
			{
				"type": "occ",
				"energy": -0.26438,
				"method": "rhf"
			},
			{
				"type": "occ",
				"energy": -0.25292,
				"method": "rhf"
			},
			{
				"type": "occ",
				"energy": -0.2419,
				"method": "rhf"
			},
			{
				"type": "unocc",
				"energy": -0.05914,
				"method": "rhf"
			},
			{
				"type": "unocc",
				"energy": -0.05203,
				"method": "rhf"
			},
			{
				"type": "unocc",
				"energy": -0.02403,
				"method": "rhf"
			},
			{
				"type": "unocc",
				"energy": 0.00817,
				"method": "rhf"
			},
			{
				"type": "unocc",
				"energy": 0.02762,
				"method": "rhf"
			}
		],
		"cosmo_sigma_profile": { 
			"-0.025": 0.0,
			"-0.024": 0.0,
			"-0.023": 0.0,
			"-0.022": 0.0,
			"-0.021": 0.0,
			"-0.02": 0.0,
			"-0.019": 0.0,
			"-0.018": 0.0,
			"-0.017": 0.0,
			"-0.016": 0.586176513022,
			"-0.015": 0.952327565749,
			"-0.014": 1.45370355715,
			"-0.013": 1.51141341757,
			"-0.012": 0.957675937474,
			"-0.011": 1.3957927616,
			"-0.01": 2.15149725488,
			"-0.009": 4.31742048053,
			"-0.008": 6.82663485182,
			"-0.007": 10.5976240803,
			"-0.006": 13.954937145,
			"-0.005": 15.8119239371,
			"-0.004": 16.760640055,
			"-0.003": 17.6604075686,
			"-0.002": 18.5109305488,
			"-0.001": 21.1192738381,
			"0.0": 22.3159839082,
			"0.001": 23.8232098431,
			"0.002": 24.8525893961,
			"0.003": 22.7419972757,
			"0.004": 10.8059676788,
			"0.005": 6.49361935067,
			"0.006": 5.47112405605,
			"0.007": 5.08937174273,
			"0.008": 4.6353167772,
			"0.009": 7.33063132236,
			"0.01": 9.12313242859,
			"0.011": 6.70200846544,
			"0.012": 4.19107310066,
			"0.013": 1.32398846975,
			"0.014": 0.0476227599031,
			"0.015": 0.0,
			"0.016": 0.0,
			"0.017": 0.0,
			"0.018": 0.0,
			"0.019": 0.0,
			"0.02": 0.0,
			"0.021": 0.0,
			"0.022": 0.0,
			"0.023": 0.0,
			"0.024": 0.0,
			"0.025": 0.0
		}
	}
}
