{
	 "smiles": "NC1=C(O)C=CC(=C1)S(N)(=O)=O", 
	 "Tm": 473.15, 
	 "num_atms": 20, 
	 "gaussian": { 
		 "optdone": 1, 
		 "sigma_profile": "yes", 
		 "theory": "DFT", 
		 "functional": "B3LYP", 
		 "basiset": "6-31G**", 
		 "properties": { 
			 "R2extent": 2742.0082, 
			 "electric_dipole_moment_norm": 5.80118237, 
			 "electric_quadrupole_moment_norm": 20.6194450854, 
			 "total_energy": -966.751600354, 
			 "HOMO_LUMO_gap": 0.20953, 
			 "cosmo_polarized_energy": -23.03, 
			 "cosmo_cavitation_energy": 25.62, 
			 "cosmo_dispersion_energy": -19.63, 
			 "cosmo_repulsion_energy": 1.54, 
			 "cosmo_total_nonelectrostatic_energy": 7.53, 
			 "SMD_solvation_energy": 4.73 
		},
		"coords": [
			{
				"x": -2.1406186774,
				"y": -0.4065875203,
				"z": -2.5789690291,
				"element": "N" 
			},
			{
				"x": -1.7673493515,
				"y": -0.277961744,
				"z": -1.1944958079,
				"element": "C" 
			},
			{
				"x": -2.8334504594,
				"y": 0.015136977,
				"z": -0.3157591354,
				"element": "C" 
			},
			{
				"x": -4.0811013033,
				"y": 0.1280698067,
				"z": -0.8108046643,
				"element": "O" 
			},
			{
				"x": -2.5956165451,
				"y": 0.1907643761,
				"z": 1.0531522602,
				"element": "C" 
			},
			{
				"x": -1.3040623291,
				"y": 0.0525547409,
				"z": 1.5494709953,
				"element": "C" 
			},
			{
				"x": -0.2545235044,
				"y": -0.2706874039,
				"z": 0.6817208225,
				"element": "C" 
			},
			{
				"x": -0.4792979806,
				"y": -0.4247491728,
				"z": -0.6899615605,
				"element": "C" 
			},
			{
				"x": 1.4012822969,
				"y": -0.4894723112,
				"z": 1.3280210014,
				"element": "S" 
			},
			{
				"x": 1.5311096532,
				"y": -2.0892276482,
				"z": 1.8453061343,
				"element": "N" 
			},
			{
				"x": 1.5134380309,
				"y": 0.3175758913,
				"z": 2.542080744,
				"element": "O" 
			},
			{
				"x": 2.3284732244,
				"y": -0.371180179,
				"z": 0.2022889662,
				"element": "O" 
			},
			{
				"x": -1.8721226957,
				"y": 0.415829559,
				"z": -3.1152036092,
				"element": "H" 
			},
			{
				"x": -1.7006298685,
				"y": -1.2109851374,
				"z": -3.0158650307,
				"element": "H" 
			},
			{
				"x": -3.9887479038,
				"y": -0.0966947361,
				"z": -1.7606722793,
				"element": "H" 
			},
			{
				"x": -3.4273792675,
				"y": 0.4352480481,
				"z": 1.704832939,
				"element": "H" 
			},
			{
				"x": -1.0998600063,
				"y": 0.2113547586,
				"z": 2.6031760691,
				"element": "H" 
			},
			{
				"x": 0.3560251215,
				"y": -0.6311372171,
				"z": -1.3522954293,
				"element": "H" 
			},
			{
				"x": 1.4371029728,
				"y": -2.7528914311,
				"z": 1.0827120642,
				"element": "H" 
			},
			{
				"x": 0.911728593,
				"y": -2.2960596567,
				"z": 2.6228645496,
				"element": "H" 
			}
		],
		 "valence_orbital": [ 
			{
				"type": "occ",
				"energy": -0.30616,
				"method": "rhf"
			},
			{
				"type": "occ",
				"energy": -0.30009,
				"method": "rhf"
			},
			{
				"type": "occ",
				"energy": -0.29216,
				"method": "rhf"
			},
			{
				"type": "occ",
				"energy": -0.26945,
				"method": "rhf"
			},
			{
				"type": "occ",
				"energy": -0.23686,
				"method": "rhf"
			},
			{
				"type": "unocc",
				"energy": -0.02733,
				"method": "rhf"
			},
			{
				"type": "unocc",
				"energy": -0.02514,
				"method": "rhf"
			},
			{
				"type": "unocc",
				"energy": 0.05267,
				"method": "rhf"
			},
			{
				"type": "unocc",
				"energy": 0.0567,
				"method": "rhf"
			},
			{
				"type": "unocc",
				"energy": 0.08241,
				"method": "rhf"
			}
		],
		"cosmo_sigma_profile": { 
			"-0.025": 0.0,
			"-0.024": 0.0,
			"-0.023": 0.0,
			"-0.022": 0.0,
			"-0.021": 0.0,
			"-0.02": 0.0,
			"-0.019": 0.0,
			"-0.018": 0.0,
			"-0.017": 0.0,
			"-0.016": 0.0411524184342,
			"-0.015": 1.66227976971,
			"-0.014": 2.81190806696,
			"-0.013": 2.57819949796,
			"-0.012": 5.49016884472,
			"-0.011": 6.62142224141,
			"-0.01": 5.45328823243,
			"-0.009": 6.86554212024,
			"-0.008": 5.33177468229,
			"-0.007": 8.00124439849,
			"-0.006": 8.71272837204,
			"-0.005": 9.40225730869,
			"-0.004": 8.85926727555,
			"-0.003": 7.03704862179,
			"-0.002": 6.62350231269,
			"-0.001": 8.14832658546,
			"0.0": 8.28141275806,
			"0.001": 9.25737292359,
			"0.002": 13.9202534674,
			"0.003": 14.1832530352,
			"0.004": 6.99010038325,
			"0.005": 4.9158563536,
			"0.006": 4.87410817065,
			"0.007": 5.44306837027,
			"0.008": 6.84378655433,
			"0.009": 5.86071519769,
			"0.01": 8.15634832117,
			"0.011": 12.5942222514,
			"0.012": 7.65924155865,
			"0.013": 0.59031032077,
			"0.014": 0.0194446611788,
			"0.015": 0.0,
			"0.016": 0.0,
			"0.017": 0.0,
			"0.018": 0.0,
			"0.019": 0.0,
			"0.02": 0.0,
			"0.021": 0.0,
			"0.022": 0.0,
			"0.023": 0.0,
			"0.024": 0.0,
			"0.0": 0.0
		}
	}
}
