{
	 "smiles": "CC(=O)C(Cl)C(=O)NC1=CC=CC=C1", 
	 "Tm": 375.15, 
	 "num_atms": 24, 
	 "gaussian": { 
		 "optdone": 1, 
		 "sigma_profile": "yes", 
		 "theory": "DFT", 
		 "functional": "B3LYP", 
		 "basiset": "6-31G**", 
		 "properties": { 
			 "R2extent": 3893.9715, 
			 "electric_dipole_moment_norm": 1.08046791253, 
			 "electric_quadrupole_moment_norm": 16.7115624377, 
			 "total_energy": -1052.49625122, 
			 "HOMO_LUMO_gap": 0.18023, 
			 "cosmo_polarized_energy": -12.63, 
			 "cosmo_cavitation_energy": 30.14, 
			 "cosmo_dispersion_energy": -21.73, 
			 "cosmo_repulsion_energy": 1.72, 
			 "cosmo_total_nonelectrostatic_energy": 10.13, 
			 "SMD_solvation_energy": 6.04 
		},
		"coords": [
			{
				"x": -3.277489766,
				"y": -0.8149443658,
				"z": -1.8669860998,
				"element": "C" 
			},
			{
				"x": -2.6470343729,
				"y": -1.4504559283,
				"z": -0.6498235053,
				"element": "C" 
			},
			{
				"x": -2.4585605063,
				"y": -2.6375155929,
				"z": -0.5254937991,
				"element": "O" 
			},
			{
				"x": -2.2289099704,
				"y": -0.442122783,
				"z": 0.4603624756,
				"element": "C" 
			},
			{
				"x": -2.1686924936,
				"y": -1.2528028398,
				"z": 2.0732880542,
				"element": "Cl" 
			},
			{
				"x": -0.9096442275,
				"y": 0.2453243691,
				"z": 0.0290814681,
				"element": "C" 
			},
			{
				"x": -0.9819782008,
				"y": 1.1350206778,
				"z": -0.8110368327,
				"element": "O" 
			},
			{
				"x": 0.2274310594,
				"y": -0.2520562639,
				"z": 0.5789942545,
				"element": "N" 
			},
			{
				"x": 1.5662650516,
				"y": 0.1439579124,
				"z": 0.3485421594,
				"element": "C" 
			},
			{
				"x": 1.9260147667,
				"y": 1.1488422133,
				"z": -0.5611511753,
				"element": "C" 
			},
			{
				"x": 3.2746364805,
				"y": 1.4689677722,
				"z": -0.7215578704,
				"element": "C" 
			},
			{
				"x": 4.2664315783,
				"y": 0.8082928917,
				"z": 0.0041184,
				"element": "C" 
			},
			{
				"x": 3.9005582883,
				"y": -0.1915589102,
				"z": 0.9075656666,
				"element": "C" 
			},
			{
				"x": 2.5599238054,
				"y": -0.5230801048,
				"z": 1.0811070752,
				"element": "C" 
			},
			{
				"x": -2.703873302,
				"y": 0.0604613466,
				"z": -2.1845898768,
				"element": "H" 
			},
			{
				"x": -4.2843909725,
				"y": -0.4651928147,
				"z": -1.6068183539,
				"element": "H" 
			},
			{
				"x": -3.3490235231,
				"y": -1.5521596809,
				"z": -2.6675568238,
				"element": "H" 
			},
			{
				"x": -2.9686294579,
				"y": 0.3556447361,
				"z": 0.5352814347,
				"element": "H" 
			},
			{
				"x": 0.0972319465,
				"y": -0.9793662816,
				"z": 1.2711195498,
				"element": "H" 
			},
			{
				"x": 1.1583645069,
				"y": 1.6611579852,
				"z": -1.1232846121,
				"element": "H" 
			},
			{
				"x": 3.5476308468,
				"y": 2.2483718777,
				"z": -1.4271743473,
				"element": "H" 
			},
			{
				"x": 5.3116991804,
				"y": 1.0680928358,
				"z": -0.1318290538,
				"element": "H" 
			},
			{
				"x": 4.6585515174,
				"y": -0.717147784,
				"z": 1.4807503266,
				"element": "H" 
			},
			{
				"x": 2.2793877648,
				"y": -1.3031312679,
				"z": 1.7850914856,
				"element": "H" 
			}
		],
		 "valence_orbital": [ 
			{
				"type": "occ",
				"energy": -0.31555,
				"method": "rhf"
			},
			{
				"type": "occ",
				"energy": -0.27919,
				"method": "rhf"
			},
			{
				"type": "occ",
				"energy": -0.26461,
				"method": "rhf"
			},
			{
				"type": "occ",
				"energy": -0.25784,
				"method": "rhf"
			},
			{
				"type": "occ",
				"energy": -0.23166,
				"method": "rhf"
			},
			{
				"type": "unocc",
				"energy": -0.05143,
				"method": "rhf"
			},
			{
				"type": "unocc",
				"energy": -0.01457,
				"method": "rhf"
			},
			{
				"type": "unocc",
				"energy": -0.00809,
				"method": "rhf"
			},
			{
				"type": "unocc",
				"energy": 0.01244,
				"method": "rhf"
			},
			{
				"type": "unocc",
				"energy": 0.03845,
				"method": "rhf"
			}
		],
		"cosmo_sigma_profile": { 
			"-0.025": 0.0,
			"-0.024": 0.0,
			"-0.023": 0.0,
			"-0.022": 0.0,
			"-0.021": 0.0,
			"-0.02": 0.0,
			"-0.019": 0.0,
			"-0.018": 0.0,
			"-0.017": 0.0,
			"-0.016": 0.0,
			"-0.015": 0.0,
			"-0.014": 0.153971840858,
			"-0.013": 1.13254962831,
			"-0.012": 1.227239797,
			"-0.011": 0.9634207381,
			"-0.01": 3.90059308843,
			"-0.009": 4.39433895771,
			"-0.008": 4.11212841575,
			"-0.007": 6.25078329323,
			"-0.006": 10.8115484308,
			"-0.005": 16.1441076936,
			"-0.004": 17.5033843051,
			"-0.003": 19.3933510277,
			"-0.002": 18.6530742721,
			"-0.001": 14.0977758245,
			"0.0": 14.283546337,
			"0.001": 14.7433914687,
			"0.002": 14.2108750414,
			"0.003": 15.8992580411,
			"0.004": 17.4226587666,
			"0.005": 16.6171469188,
			"0.006": 5.53782070632,
			"0.007": 2.55444118492,
			"0.008": 4.70387278991,
			"0.009": 3.80713491416,
			"0.01": 6.06600034992,
			"0.011": 6.35130842696,
			"0.012": 2.01120942703,
			"0.013": 0.0,
			"0.014": 0.0,
			"0.015": 0.0,
			"0.016": 0.0,
			"0.017": 0.0,
			"0.018": 0.0,
			"0.019": 0.0,
			"0.02": 0.0,
			"0.021": 0.0,
			"0.022": 0.0,
			"0.023": 0.0,
			"0.024": 0.0,
			"0.025": 0.0
		}
	}
}
