{
	 "smiles": "CCCC(C)CC(C)O", 
	 "Tm": 171.15, 
	 "num_atms": 27, 
	 "gaussian": { 
		 "optdone": 1, 
		 "sigma_profile": "yes", 
		 "theory": "DFT", 
		 "functional": "B3LYP", 
		 "basiset": "6-31G**", 
		 "properties": { 
			 "R2extent": 1816.2652, 
			 "electric_dipole_moment_norm": 1.30078412121, 
			 "electric_quadrupole_moment_norm": 7.21203545748, 
			 "total_energy": -390.934127286, 
			 "HOMO_LUMO_gap": 0.32739, 
			 "cosmo_polarized_energy": -5.64, 
			 "cosmo_cavitation_energy": 26.91, 
			 "cosmo_dispersion_energy": -18.94, 
			 "cosmo_repulsion_energy": 1.57, 
			 "cosmo_total_nonelectrostatic_energy": 9.53, 
			 "SMD_solvation_energy": 4.4 
		},
		"coords": [
			{
				"x": -1.4543332182,
				"y": 0.6194521419,
				"z": -2.1199948074,
				"element": "C" 
			},
			{
				"x": 0.0397929063,
				"y": 0.3831345976,
				"z": -1.8707558113,
				"element": "C" 
			},
			{
				"x": 0.5717576277,
				"y": 0.8348108428,
				"z": -0.4985835594,
				"element": "C" 
			},
			{
				"x": -0.0373370032,
				"y": 0.1103551703,
				"z": 0.7335241369,
				"element": "C" 
			},
			{
				"x": -1.2070660015,
				"y": 0.9130677955,
				"z": 1.3315438764,
				"element": "C" 
			},
			{
				"x": 1.0143026584,
				"y": -0.177225931,
				"z": 1.8324164581,
				"element": "C" 
			},
			{
				"x": 1.7637241615,
				"y": -1.5202284095,
				"z": 1.7216422823,
				"element": "C" 
			},
			{
				"x": 2.6037582612,
				"y": -1.7104193028,
				"z": 0.4628414999,
				"element": "C" 
			},
			{
				"x": 0.8507272985,
				"y": -2.6222573637,
				"z": 1.7506817264,
				"element": "O" 
			},
			{
				"x": -1.717749395,
				"y": 1.6762476049,
				"z": -1.9944067681,
				"element": "H" 
			},
			{
				"x": -1.7291535396,
				"y": 0.3290929261,
				"z": -3.1397121511,
				"element": "H" 
			},
			{
				"x": -2.0795450626,
				"y": 0.0362092661,
				"z": -1.4364218778,
				"element": "H" 
			},
			{
				"x": 0.2580392181,
				"y": -0.6859082026,
				"z": -2.0007466067,
				"element": "H" 
			},
			{
				"x": 0.6136128456,
				"y": 0.9035033874,
				"z": -2.6489163167,
				"element": "H" 
			},
			{
				"x": 0.4172025678,
				"y": 1.9181419786,
				"z": -0.3882390151,
				"element": "H" 
			},
			{
				"x": 1.6579796039,
				"y": 0.6938004299,
				"z": -0.506377811,
				"element": "H" 
			},
			{
				"x": -0.427333978,
				"y": -0.8639905271,
				"z": 0.4091086531,
				"element": "H" 
			},
			{
				"x": -1.7069261378,
				"y": 0.3533772039,
				"z": 2.1304656067,
				"element": "H" 
			},
			{
				"x": -0.8485970367,
				"y": 1.8561698805,
				"z": 1.7630084526,
				"element": "H" 
			},
			{
				"x": -1.959765913,
				"y": 1.1628601699,
				"z": 0.5787282844,
				"element": "H" 
			},
			{
				"x": 0.5142386839,
				"y": -0.1810536674,
				"z": 2.8128120579,
				"element": "H" 
			},
			{
				"x": 1.7455984067,
				"y": 0.6415955203,
				"z": 1.8832338747,
				"element": "H" 
			},
			{
				"x": 2.4418320948,
				"y": -1.5818142152,
				"z": 2.5904420719,
				"element": "H" 
			},
			{
				"x": 1.9774860733,
				"y": -1.7036641862,
				"z": -0.4333242868,
				"element": "H" 
			},
			{
				"x": 3.1139186852,
				"y": -2.6769223737,
				"z": 0.5060762816,
				"element": "H" 
			},
			{
				"x": 3.3584858153,
				"y": -0.9232140721,
				"z": 0.371905794,
				"element": "H" 
			},
			{
				"x": 0.3262503771,
				"y": -2.5498206645,
				"z": 2.5589479545,
				"element": "H" 
			}
		],
		 "valence_orbital": [ 
			{
				"type": "occ",
				"energy": -0.32188,
				"method": "rhf"
			},
			{
				"type": "occ",
				"energy": -0.31017,
				"method": "rhf"
			},
			{
				"type": "occ",
				"energy": -0.30408,
				"method": "rhf"
			},
			{
				"type": "occ",
				"energy": -0.29873,
				"method": "rhf"
			},
			{
				"type": "occ",
				"energy": -0.2591,
				"method": "rhf"
			},
			{
				"type": "unocc",
				"energy": 0.06829,
				"method": "rhf"
			},
			{
				"type": "unocc",
				"energy": 0.09256,
				"method": "rhf"
			},
			{
				"type": "unocc",
				"energy": 0.11,
				"method": "rhf"
			},
			{
				"type": "unocc",
				"energy": 0.118,
				"method": "rhf"
			},
			{
				"type": "unocc",
				"energy": 0.13046,
				"method": "rhf"
			}
		],
		"cosmo_sigma_profile": { 
			"-0.025": 0.0,
			"-0.024": 0.0,
			"-0.023": 0.0,
			"-0.022": 0.0,
			"-0.021": 0.0,
			"-0.02": 0.0,
			"-0.019": 0.0,
			"-0.018": 0.0,
			"-0.017": 0.0,
			"-0.016": 0.0,
			"-0.015": 0.239414674207,
			"-0.014": 0.778915252488,
			"-0.013": 1.23617073682,
			"-0.012": 0.835675703669,
			"-0.011": 0.837286855722,
			"-0.01": 1.25504046595,
			"-0.009": 0.835218417301,
			"-0.008": 0.456874479108,
			"-0.007": 0.874923238045,
			"-0.006": 1.75912352314,
			"-0.005": 1.14555587951,
			"-0.004": 1.51002551739,
			"-0.003": 9.93154861301,
			"-0.002": 32.9488751099,
			"-0.001": 37.5210676548,
			"0.0": 40.2392209941,
			"0.001": 35.7004878594,
			"0.002": 18.9648051548,
			"0.003": 2.64910680627,
			"0.004": 1.38385565105,
			"0.005": 1.34717405219,
			"0.006": 1.13964215803,
			"0.007": 1.67033133444,
			"0.008": 0.970590237519,
			"0.009": 1.36245580351,
			"0.01": 1.30808569728,
			"0.011": 1.25553417637,
			"0.012": 1.33404676981,
			"0.013": 1.19783912752,
			"0.014": 1.83477600871,
			"0.015": 1.17776499585,
			"0.016": 0.0,
			"0.017": 0.0,
			"0.018": 0.0,
			"0.019": 0.0,
			"0.02": 0.0,
			"0.021": 0.0,
			"0.022": 0.0,
			"0.023": 0.0,
			"0.024": 0.0,
			"0.025": 0.0
		}
	}
}
