{
	 "smiles": "OC1=CC=CC=C1C1NN2C(COC3=CC=CC=C3)=NN=C2S1", 
	 "Tm": 490.15, 
	 "num_atms": 37, 
	 "gaussian": { 
		 "optdone": 1, 
		 "sigma_profile": "yes", 
		 "theory": "DFT", 
		 "functional": "B3LYP", 
		 "basiset": "6-31G**", 
		 "properties": { 
			 "R2extent": 9043.3736, 
			 "electric_dipole_moment_norm": 5.39474755943, 
			 "electric_quadrupole_moment_norm": 28.402564675, 
			 "total_energy": -1385.68920568, 
			 "HOMO_LUMO_gap": 0.1893, 
			 "cosmo_polarized_energy": -23.41, 
			 "cosmo_cavitation_energy": 42.81, 
			 "cosmo_dispersion_energy": -29.6, 
			 "cosmo_repulsion_energy": 2.19, 
			 "cosmo_total_nonelectrostatic_energy": 15.4, 
			 "SMD_solvation_energy": 4.6 
		},
		"coords": [
			{
				"x": 0.3628285995,
				"y": 0.4700971973,
				"z": 2.2339492833,
				"element": "O" 
			},
			{
				"x": -0.6264489086,
				"y": -0.2280114584,
				"z": 2.8345961387,
				"element": "C" 
			},
			{
				"x": -0.270391657,
				"y": -1.0493997252,
				"z": 3.9146877167,
				"element": "C" 
			},
			{
				"x": -1.2330519904,
				"y": -1.7976955885,
				"z": 4.5812567693,
				"element": "C" 
			},
			{
				"x": -2.5733350351,
				"y": -1.7548538435,
				"z": 4.1802752509,
				"element": "C" 
			},
			{
				"x": -2.9311255489,
				"y": -0.9443392387,
				"z": 3.1092423445,
				"element": "C" 
			},
			{
				"x": -1.9805942173,
				"y": -0.1673785371,
				"z": 2.4277380899,
				"element": "C" 
			},
			{
				"x": -2.4482436057,
				"y": 0.7414014561,
				"z": 1.334665979,
				"element": "C" 
			},
			{
				"x": -1.48182837,
				"y": 0.8247599387,
				"z": 0.202625118,
				"element": "N" 
			},
			{
				"x": -1.8860968395,
				"y": 1.9640669544,
				"z": -0.5401436668,
				"element": "N" 
			},
			{
				"x": -1.6115812551,
				"y": 2.4868670266,
				"z": -1.777346211,
				"element": "C" 
			},
			{
				"x": -1.1131690639,
				"y": 1.6856685572,
				"z": -2.9398002894,
				"element": "C" 
			},
			{
				"x": -0.1839030628,
				"y": 0.6791515711,
				"z": -2.5497097644,
				"element": "O" 
			},
			{
				"x": 1.1173986333,
				"y": 1.0481300728,
				"z": -2.265941719,
				"element": "C" 
			},
			{
				"x": 1.9968527093,
				"y": -0.0150140456,
				"z": -2.0277600586,
				"element": "C" 
			},
			{
				"x": 3.3320688972,
				"y": 0.2449296049,
				"z": -1.7355272942,
				"element": "C" 
			},
			{
				"x": 3.8018586357,
				"y": 1.5609701872,
				"z": -1.6800552207,
				"element": "C" 
			},
			{
				"x": 2.9181835067,
				"y": 2.6115659975,
				"z": -1.9164569465,
				"element": "C" 
			},
			{
				"x": 1.5716573036,
				"y": 2.3691772628,
				"z": -2.2091808361,
				"element": "C" 
			},
			{
				"x": -1.9851328228,
				"y": 3.7496739649,
				"z": -1.7942251265,
				"element": "N" 
			},
			{
				"x": -2.4795096849,
				"y": 4.088282351,
				"z": -0.5392148579,
				"element": "N" 
			},
			{
				"x": -2.3877632504,
				"y": 3.0034090271,
				"z": 0.1891686633,
				"element": "C" 
			},
			{
				"x": -2.6292420373,
				"y": 2.5512613066,
				"z": 1.8750824132,
				"element": "S" 
			},
			{
				"x": 0.0212133757,
				"y": 0.8370117224,
				"z": 1.3928458338,
				"element": "H" 
			},
			{
				"x": 0.7743509609,
				"y": -1.0794143796,
				"z": 4.2054932268,
				"element": "H" 
			},
			{
				"x": -0.9356487564,
				"y": -2.426733567,
				"z": 5.4154050969,
				"element": "H" 
			},
			{
				"x": -3.3240441103,
				"y": -2.345331874,
				"z": 4.6948633258,
				"element": "H" 
			},
			{
				"x": -3.9697106127,
				"y": -0.8971723907,
				"z": 2.7898289314,
				"element": "H" 
			},
			{
				"x": -3.4419723515,
				"y": 0.4427922015,
				"z": 0.9797037582,
				"element": "H" 
			},
			{
				"x": -1.551193559,
				"y": 0.0025878715,
				"z": -0.397090346,
				"element": "H" 
			},
			{
				"x": -1.937034693,
				"y": 1.1332668663,
				"z": -3.404637323,
				"element": "H" 
			},
			{
				"x": -0.7007638288,
				"y": 2.368992841,
				"z": -3.6895896858,
				"element": "H" 
			},
			{
				"x": 1.6164841659,
				"y": -1.0299637479,
				"z": -2.083132806,
				"element": "H" 
			},
			{
				"x": 4.0089299497,
				"y": -0.5845943383,
				"z": -1.5527062038,
				"element": "H" 
			},
			{
				"x": 4.8436927494,
				"y": 1.7618932622,
				"z": -1.4513819688,
				"element": "H" 
			},
			{
				"x": 3.2676652563,
				"y": 3.6388133951,
				"z": -1.8698236459,
				"element": "H" 
			},
			{
				"x": 0.9012005181,
				"y": 3.2054320987,
				"z": -2.3682039691,
				"element": "H" 
			}
		],
		 "valence_orbital": [ 
			{
				"type": "occ",
				"energy": -0.26337,
				"method": "rhf"
			},
			{
				"type": "occ",
				"energy": -0.2569,
				"method": "rhf"
			},
			{
				"type": "occ",
				"energy": -0.23502,
				"method": "rhf"
			},
			{
				"type": "occ",
				"energy": -0.23199,
				"method": "rhf"
			},
			{
				"type": "occ",
				"energy": -0.22993,
				"method": "rhf"
			},
			{
				"type": "unocc",
				"energy": -0.04063,
				"method": "rhf"
			},
			{
				"type": "unocc",
				"energy": -0.01102,
				"method": "rhf"
			},
			{
				"type": "unocc",
				"energy": -0.0072,
				"method": "rhf"
			},
			{
				"type": "unocc",
				"energy": -0.00084,
				"method": "rhf"
			},
			{
				"type": "unocc",
				"energy": 0.00229,
				"method": "rhf"
			}
		],
		"cosmo_sigma_profile": { 
			"-0.025": 0.0,
			"-0.024": 0.0,
			"-0.023": 0.0,
			"-0.022": 0.0,
			"-0.021": 0.0,
			"-0.02": 0.0,
			"-0.019": 0.0,
			"-0.018": 0.0,
			"-0.017": 0.0309699759732,
			"-0.016": 0.850587483872,
			"-0.015": 1.4466787505,
			"-0.014": 1.52787402602,
			"-0.013": 1.73573609553,
			"-0.012": 0.963625675295,
			"-0.011": 1.42585435149,
			"-0.01": 1.44470697022,
			"-0.009": 6.00133312573,
			"-0.008": 8.44070442841,
			"-0.007": 10.2815648202,
			"-0.006": 18.9923921501,
			"-0.005": 24.617650646,
			"-0.004": 23.1738295896,
			"-0.003": 23.4062290307,
			"-0.002": 21.635621266,
			"-0.001": 21.5792562945,
			"0.0": 21.5263149724,
			"0.001": 19.9807283232,
			"0.002": 23.4073291135,
			"0.003": 23.900208732,
			"0.004": 22.7396084603,
			"0.005": 22.3969946477,
			"0.006": 10.1832511993,
			"0.007": 4.54940534091,
			"0.008": 3.52184585443,
			"0.009": 3.09827112884,
			"0.01": 3.60251036773,
			"0.011": 4.55729131399,
			"0.012": 3.72277719464,
			"0.013": 3.72699345371,
			"0.014": 2.55535842115,
			"0.015": 2.7053103089,
			"0.016": 1.57917088624,
			"0.017": 0.152242255904,
			"0.018": 0.0,
			"0.019": 0.0,
			"0.02": 0.0,
			"0.021": 0.0,
			"0.022": 0.0,
			"0.023": 0.0,
			"0.024": 0.0,
			"0.025": 0.0
		}
	}
}
