{
	 "smiles": "CC(C)C(Br)C(=O)NC1=C(Cl)C=CC=C1", 
	 "Tm": 388.15, 
	 "num_atms": 28, 
	 "gaussian": { 
		 "optdone": 1, 
		 "sigma_profile": "yes", 
		 "theory": "DFT", 
		 "functional": "B3LYP", 
		 "basiset": "6-31G**", 
		 "properties": { 
			 "R2extent": 5509.9375, 
			 "electric_dipole_moment_norm": 1.71900177138, 
			 "electric_quadrupole_moment_norm": 13.1791420749, 
			 "total_energy": -3588.61140645, 
			 "HOMO_LUMO_gap": 0.19219, 
			 "cosmo_polarized_energy": -8.04, 
			 "cosmo_cavitation_energy": 34.65, 
			 "cosmo_dispersion_energy": -24.49, 
			 "cosmo_repulsion_energy": 1.91, 
			 "cosmo_total_nonelectrostatic_energy": 12.07, 
			 "SMD_solvation_energy": 4.87 
		},
		"coords": [
			{
				"x": -3.863042342,
				"y": 1.763135569,
				"z": 0.6228238648,
				"element": "C" 
			},
			{
				"x": -2.6466426889,
				"y": 0.96262083,
				"z": 0.1378641991,
				"element": "C" 
			},
			{
				"x": -3.1049589828,
				"y": -0.2799800842,
				"z": -0.6513281128,
				"element": "C" 
			},
			{
				"x": -1.7337764625,
				"y": 0.5401163805,
				"z": 1.3094792565,
				"element": "C" 
			},
			{
				"x": -1.009771504,
				"y": 2.1442169096,
				"z": 2.2717466818,
				"element": "Br" 
			},
			{
				"x": -0.5925575033,
				"y": -0.3954820628,
				"z": 0.8903675459,
				"element": "C" 
			},
			{
				"x": -0.7298669921,
				"y": -1.6000454133,
				"z": 1.0578304166,
				"element": "O" 
			},
			{
				"x": 0.4694369763,
				"y": 0.2035054149,
				"z": 0.2652326712,
				"element": "N" 
			},
			{
				"x": 1.6038769886,
				"y": -0.4037111008,
				"z": -0.2987378998,
				"element": "C" 
			},
			{
				"x": 2.5941250766,
				"y": 0.4125033047,
				"z": -0.88148241,
				"element": "C" 
			},
			{
				"x": 2.3969936964,
				"y": 2.1669142903,
				"z": -0.8863553258,
				"element": "Cl" 
			},
			{
				"x": 3.7367159694,
				"y": -0.1270010532,
				"z": -1.4632129345,
				"element": "C" 
			},
			{
				"x": 3.9179152906,
				"y": -1.5091983201,
				"z": -1.4767340153,
				"element": "C" 
			},
			{
				"x": 2.9481316214,
				"y": -2.3327578971,
				"z": -0.9055063935,
				"element": "C" 
			},
			{
				"x": 1.803261286,
				"y": -1.7951112439,
				"z": -0.3220485894,
				"element": "C" 
			},
			{
				"x": -3.5673376167,
				"y": 2.6700678673,
				"z": 1.1543233875,
				"element": "H" 
			},
			{
				"x": -4.4842825517,
				"y": 2.0538594433,
				"z": -0.2299002033,
				"element": "H" 
			},
			{
				"x": -4.4824401637,
				"y": 1.1586674265,
				"z": 1.2959086234,
				"element": "H" 
			},
			{
				"x": -2.0528848535,
				"y": 1.5974938395,
				"z": -0.5325874113,
				"element": "H" 
			},
			{
				"x": -3.7664146,
				"y": 0.0308115051,
				"z": -1.4657954111,
				"element": "H" 
			},
			{
				"x": -2.2689754587,
				"y": -0.8317583558,
				"z": -1.0871621258,
				"element": "H" 
			},
			{
				"x": -3.6610087589,
				"y": -0.9715869938,
				"z": -0.0096069883,
				"element": "H" 
			},
			{
				"x": -2.2994111537,
				"y": 0.004480767,
				"z": 2.0711364549,
				"element": "H" 
			},
			{
				"x": 0.484050015,
				"y": 1.2166678175,
				"z": 0.2860652636,
				"element": "H" 
			},
			{
				"x": 4.4728495352,
				"y": 0.5389352454,
				"z": -1.8995704266,
				"element": "H" 
			},
			{
				"x": 4.8090044894,
				"y": -1.9317838095,
				"z": -1.9296863811,
				"element": "H" 
			},
			{
				"x": 3.0784290791,
				"y": -3.4106513165,
				"z": -0.9090744047,
				"element": "H" 
			},
			{
				"x": 1.0512816084,
				"y": -2.4294289594,
				"z": 0.1248106681,
				"element": "H" 
			}
		],
		 "valence_orbital": [ 
			{
				"type": "occ",
				"energy": -0.29541,
				"method": "rhf"
			},
			{
				"type": "occ",
				"energy": -0.28689,
				"method": "rhf"
			},
			{
				"type": "occ",
				"energy": -0.26282,
				"method": "rhf"
			},
			{
				"type": "occ",
				"energy": -0.25591,
				"method": "rhf"
			},
			{
				"type": "occ",
				"energy": -0.23202,
				"method": "rhf"
			},
			{
				"type": "unocc",
				"energy": -0.03983,
				"method": "rhf"
			},
			{
				"type": "unocc",
				"energy": -0.01535,
				"method": "rhf"
			},
			{
				"type": "unocc",
				"energy": -0.01015,
				"method": "rhf"
			},
			{
				"type": "unocc",
				"energy": 0.01858,
				"method": "rhf"
			},
			{
				"type": "unocc",
				"energy": 0.03857,
				"method": "rhf"
			}
		],
		"cosmo_sigma_profile": { 
			"-0.025": 0.0,
			"-0.024": 0.0,
			"-0.023": 0.0,
			"-0.022": 0.0,
			"-0.021": 0.0,
			"-0.02": 0.0,
			"-0.019": 0.0,
			"-0.018": 0.0,
			"-0.017": 0.0,
			"-0.016": 0.0,
			"-0.015": 0.0,
			"-0.014": 0.0,
			"-0.013": 0.0,
			"-0.012": 0.0,
			"-0.011": 0.0227364466973,
			"-0.01": 0.249840328198,
			"-0.009": 0.880006734185,
			"-0.008": 1.36443293415,
			"-0.007": 6.27573934209,
			"-0.006": 9.5765672649,
			"-0.005": 11.5493618483,
			"-0.004": 20.8684343402,
			"-0.003": 24.6318057764,
			"-0.002": 25.1234746509,
			"-0.001": 25.5295514723,
			"0.0": 33.2263959559,
			"0.001": 27.4644729525,
			"0.002": 24.3121596193,
			"0.003": 23.6196997952,
			"0.004": 21.5957995569,
			"0.005": 10.0321186378,
			"0.006": 2.00085043494,
			"0.007": 1.63261120456,
			"0.008": 1.10791729206,
			"0.009": 1.65143864208,
			"0.01": 1.86071415739,
			"0.011": 2.19402714579,
			"0.012": 2.43406180129,
			"0.013": 0.715557033879,
			"0.014": 0.0,
			"0.015": 0.0,
			"0.016": 0.0,
			"0.017": 0.0,
			"0.018": 0.0,
			"0.019": 0.0,
			"0.02": 0.0,
			"0.021": 0.0,
			"0.022": 0.0,
			"0.023": 0.0,
			"0.024": 0.0,
			"0.025": 0.0
		}
	}
}
