{
	 "smiles": "CN(C)S(=O)(=O)C1=CC=C(C=C1)C1=C(N=C(C)O1)C1=CC=C(C=C1)S(=O)(=O)N(C)C", 
	 "Tm": 483.15, 
	 "num_atms": 53, 
	 "gaussian": { 
		 "optdone": 1, 
		 "sigma_profile": "yes", 
		 "theory": "DFT", 
		 "functional": "B3LYP", 
		 "basiset": "6-31G**", 
		 "properties": { 
			 "R2extent": 20178.9007, 
			 "electric_dipole_moment_norm": 2.96213493784, 
			 "electric_quadrupole_moment_norm": 60.8729612538, 
			 "total_energy": -2112.5988337, 
			 "HOMO_LUMO_gap": 0.15108, 
			 "cosmo_polarized_energy": -26.83, 
			 "cosmo_cavitation_energy": 58.85, 
			 "cosmo_dispersion_energy": -40.84, 
			 "cosmo_repulsion_energy": 3.0, 
			 "cosmo_total_nonelectrostatic_energy": 21.01, 
			 "SMD_solvation_energy": 6.04 
		},
		"coords": [
			{
				"x": -2.8015359699,
				"y": 0.1775734246,
				"z": -6.0087739346,
				"element": "C" 
			},
			{
				"x": -1.9964315432,
				"y": 0.8285360542,
				"z": -4.963551858,
				"element": "N" 
			},
			{
				"x": -0.6597236152,
				"y": 1.2332763886,
				"z": -5.4154562779,
				"element": "C" 
			},
			{
				"x": -2.8243493473,
				"y": 2.0443445805,
				"z": -4.1021966716,
				"element": "S" 
			},
			{
				"x": -4.1929998129,
				"y": 1.5511366783,
				"z": -3.9181319363,
				"element": "O" 
			},
			{
				"x": -2.5804448779,
				"y": 3.3722767802,
				"z": -4.6846355726,
				"element": "O" 
			},
			{
				"x": -1.976560207,
				"y": 1.9892619472,
				"z": -2.5217842567,
				"element": "C" 
			},
			{
				"x": -2.1541076617,
				"y": 0.8827479468,
				"z": -1.6859251571,
				"element": "C" 
			},
			{
				"x": -1.5325311746,
				"y": 0.859359988,
				"z": -0.4441721537,
				"element": "C" 
			},
			{
				"x": -0.7226058646,
				"y": 1.9341063113,
				"z": -0.0247344839,
				"element": "C" 
			},
			{
				"x": -0.578334613,
				"y": 3.046666681,
				"z": -0.8736523414,
				"element": "C" 
			},
			{
				"x": -1.2031250149,
				"y": 3.0772056517,
				"z": -2.1180480006,
				"element": "C" 
			},
			{
				"x": -0.0794942699,
				"y": 1.9341228311,
				"z": 1.2863743058,
				"element": "C" 
			},
			{
				"x": 0.3683934903,
				"y": 1.0046844121,
				"z": 2.2011172701,
				"element": "C" 
			},
			{
				"x": 0.8117666285,
				"y": 1.6775433912,
				"z": 3.3393677669,
				"element": "N" 
			},
			{
				"x": 0.6551793105,
				"y": 2.9379166538,
				"z": 3.0815397654,
				"element": "C" 
			},
			{
				"x": 0.9752215592,
				"y": 4.1091936995,
				"z": 3.9394742847,
				"element": "C" 
			},
			{
				"x": 0.1257049223,
				"y": 3.1770684267,
				"z": 1.8524940323,
				"element": "O" 
			},
			{
				"x": 0.4818799782,
				"y": -0.4607142237,
				"z": 2.1427900049,
				"element": "C" 
			},
			{
				"x": 0.4467559,
				"y": -1.1915582809,
				"z": 3.3439114122,
				"element": "C" 
			},
			{
				"x": 0.5776869305,
				"y": -2.5769196664,
				"z": 3.339492251,
				"element": "C" 
			},
			{
				"x": 0.7544410022,
				"y": -3.2469520823,
				"z": 2.125231123,
				"element": "C" 
			},
			{
				"x": 0.8227717253,
				"y": -2.5376479878,
				"z": 0.9225831028,
				"element": "C" 
			},
			{
				"x": 0.6925927292,
				"y": -1.1517775588,
				"z": 0.936565983,
				"element": "C" 
			},
			{
				"x": 0.8735744709,
				"y": -5.0406756142,
				"z": 2.1057076769,
				"element": "S" 
			},
			{
				"x": 1.3458637651,
				"y": -5.4617089735,
				"z": 3.4258567489,
				"element": "O" 
			},
			{
				"x": 1.5643132737,
				"y": -5.4177193389,
				"z": 0.8707891177,
				"element": "O" 
			},
			{
				"x": -0.7049280544,
				"y": -5.6297048219,
				"z": 1.9604630583,
				"element": "N" 
			},
			{
				"x": -1.3598364735,
				"y": -5.4190686777,
				"z": 0.6683313011,
				"element": "C" 
			},
			{
				"x": -1.5702833786,
				"y": -5.4637335312,
				"z": 3.1298268415,
				"element": "C" 
			},
			{
				"x": -3.7801447735,
				"y": -0.0793218104,
				"z": -5.605294801,
				"element": "H" 
			},
			{
				"x": -2.2833043468,
				"y": -0.7401635584,
				"z": -6.3014109112,
				"element": "H" 
			},
			{
				"x": -2.9318298168,
				"y": 0.8088108774,
				"z": -6.8993374968,
				"element": "H" 
			},
			{
				"x": -0.0899212849,
				"y": 1.6427972592,
				"z": -4.5781587238,
				"element": "H" 
			},
			{
				"x": -0.6913241195,
				"y": 1.9781980988,
				"z": -6.2213641204,
				"element": "H" 
			},
			{
				"x": -0.1407726833,
				"y": 0.3389192916,
				"z": -5.7712654728,
				"element": "H" 
			},
			{
				"x": -2.7887934109,
				"y": 0.0617956613,
				"z": -2.0008709846,
				"element": "H" 
			},
			{
				"x": -1.689072368,
				"y": 0.0141266343,
				"z": 0.2161067547,
				"element": "H" 
			},
			{
				"x": 0.024583625,
				"y": 3.8883774565,
				"z": -0.5519192449,
				"element": "H" 
			},
			{
				"x": -1.1030933707,
				"y": 3.9343162884,
				"z": -2.774832499,
				"element": "H" 
			},
			{
				"x": 1.7137850067,
				"y": 4.7578943801,
				"z": 3.4570755681,
				"element": "H" 
			},
			{
				"x": 0.0805545733,
				"y": 4.7104955039,
				"z": 4.131355112,
				"element": "H" 
			},
			{
				"x": 1.3785945406,
				"y": 3.75317607,
				"z": 4.8875821116,
				"element": "H" 
			},
			{
				"x": 0.3309755126,
				"y": -0.6550120817,
				"z": 4.2789032225,
				"element": "H" 
			},
			{
				"x": 0.5733226251,
				"y": -3.1372835672,
				"z": 4.2679126648,
				"element": "H" 
			},
			{
				"x": 1.0170633395,
				"y": -3.0674250396,
				"z": -0.003411811,
				"element": "H" 
			},
			{
				"x": 0.7820507905,
				"y": -0.6009949911,
				"z": 0.0066288115,
				"element": "H" 
			},
			{
				"x": -2.1990487814,
				"y": -6.1170870682,
				"z": 0.5964661358,
				"element": "H" 
			},
			{
				"x": -0.656059643,
				"y": -5.6402500727,
				"z": -0.1335547063,
				"element": "H" 
			},
			{
				"x": -1.7476590849,
				"y": -4.3953078085,
				"z": 0.5480780889,
				"element": "H" 
			},
			{
				"x": -1.9759516692,
				"y": -4.4438919053,
				"z": 3.2193194344,
				"element": "H" 
			},
			{
				"x": -2.4070656031,
				"y": -6.1616609508,
				"z": 3.0330653397,
				"element": "H" 
			},
			{
				"x": -1.0119428644,
				"y": -5.7158497573,
				"z": 4.0308741252,
				"element": "H" 
			}
		],
		 "valence_orbital": [ 
			{
				"type": "occ",
				"energy": -0.28129,
				"method": "rhf"
			},
			{
				"type": "occ",
				"energy": -0.27409,
				"method": "rhf"
			},
			{
				"type": "occ",
				"energy": -0.25981,
				"method": "rhf"
			},
			{
				"type": "occ",
				"energy": -0.2555,
				"method": "rhf"
			},
			{
				"type": "occ",
				"energy": -0.22894,
				"method": "rhf"
			},
			{
				"type": "unocc",
				"energy": -0.07786,
				"method": "rhf"
			},
			{
				"type": "unocc",
				"energy": -0.03868,
				"method": "rhf"
			},
			{
				"type": "unocc",
				"energy": -0.03319,
				"method": "rhf"
			},
			{
				"type": "unocc",
				"energy": -0.02347,
				"method": "rhf"
			},
			{
				"type": "unocc",
				"energy": -0.00073,
				"method": "rhf"
			}
		],
		"cosmo_sigma_profile": { 
			"-0.025": 0.0,
			"-0.024": 0.0,
			"-0.023": 0.0,
			"-0.022": 0.0,
			"-0.021": 0.0,
			"-0.02": 0.0,
			"-0.019": 0.0,
			"-0.018": 0.0,
			"-0.017": 0.0,
			"-0.016": 0.0,
			"-0.015": 0.0,
			"-0.014": 0.0,
			"-0.013": 0.0,
			"-0.012": 0.0,
			"-0.011": 0.0,
			"-0.01": 0.0,
			"-0.009": 0.0,
			"-0.008": 1.18492047924,
			"-0.007": 11.1293609897,
			"-0.006": 30.0141412397,
			"-0.005": 34.7094019351,
			"-0.004": 49.0315226,
			"-0.003": 53.4061845229,
			"-0.002": 56.3869720011,
			"-0.001": 28.4396679557,
			"0.0": 30.0735954802,
			"0.001": 30.809156972,
			"0.002": 30.518993459,
			"0.003": 15.3435977607,
			"0.004": 10.1375540098,
			"0.005": 10.9377863745,
			"0.006": 9.43700601023,
			"0.007": 9.11999367327,
			"0.008": 8.78494241483,
			"0.009": 9.45204614873,
			"0.01": 13.5040882931,
			"0.011": 16.7031754729,
			"0.012": 8.12808481546,
			"0.013": 0.872751226023,
			"0.014": 0.321120635739,
			"0.015": 0.0,
			"0.016": 0.0,
			"0.017": 0.0,
			"0.018": 0.0,
			"0.019": 0.0,
			"0.02": 0.0,
			"0.021": 0.0,
			"0.022": 0.0,
			"0.023": 0.0,
			"0.024": 0.0,
			"0.025": 0.0
		}
	}
}
