{
	 "smiles": "CN1C=CC(=CC1=O)C(=O)NC1(CCCCCC1)C(O)=O", 
	 "Tm": 516.15, 
	 "num_atms": 41, 
	 "gaussian": { 
		 "optdone": 1, 
		 "sigma_profile": "yes", 
		 "theory": "DFT", 
		 "functional": "B3LYP", 
		 "basiset": "6-31G**", 
		 "properties": { 
			 "R2extent": 8314.7298, 
			 "electric_dipole_moment_norm": 5.14377557345, 
			 "electric_quadrupole_moment_norm": 21.3568088822, 
			 "total_energy": -994.081693226, 
			 "HOMO_LUMO_gap": 0.15408, 
			 "cosmo_polarized_energy": -24.21, 
			 "cosmo_cavitation_energy": 41.62, 
			 "cosmo_dispersion_energy": -29.46, 
			 "cosmo_repulsion_energy": 2.22, 
			 "cosmo_total_nonelectrostatic_energy": 14.38, 
			 "SMD_solvation_energy": 8.69 
		},
		"coords": [
			{
				"x": 2.0683902126,
				"y": -1.9978961387,
				"z": 5.6007684439,
				"element": "C" 
			},
			{
				"x": 1.5537585201,
				"y": -1.3402979054,
				"z": 4.3996012153,
				"element": "N" 
			},
			{
				"x": 0.3746123686,
				"y": -0.650789329,
				"z": 4.412000432,
				"element": "C" 
			},
			{
				"x": -0.1139051343,
				"y": -0.0319636024,
				"z": 3.2993412725,
				"element": "C" 
			},
			{
				"x": 0.6328395225,
				"y": -0.1193831277,
				"z": 2.0885926169,
				"element": "C" 
			},
			{
				"x": 1.8258082103,
				"y": -0.7952412231,
				"z": 2.0675192066,
				"element": "C" 
			},
			{
				"x": 2.3623329284,
				"y": -1.4587124131,
				"z": 3.2405630162,
				"element": "C" 
			},
			{
				"x": 3.4193793486,
				"y": -2.0840931146,
				"z": 3.2923143147,
				"element": "O" 
			},
			{
				"x": 0.059217273,
				"y": 0.5950751004,
				"z": 0.8858943211,
				"element": "C" 
			},
			{
				"x": -0.7546645184,
				"y": 1.4984924817,
				"z": 1.0291418947,
				"element": "O" 
			},
			{
				"x": 0.5297484577,
				"y": 0.159737073,
				"z": -0.3378389257,
				"element": "N" 
			},
			{
				"x": -0.0327339921,
				"y": 0.5806104228,
				"z": -1.6541044949,
				"element": "C" 
			},
			{
				"x": -1.4493570606,
				"y": -0.0181640112,
				"z": -1.821022314,
				"element": "C" 
			},
			{
				"x": -2.3153451637,
				"y": 0.4568635325,
				"z": -3.0025218556,
				"element": "C" 
			},
			{
				"x": -2.778971168,
				"y": 1.9206964837,
				"z": -2.8913530234,
				"element": "C" 
			},
			{
				"x": -1.7903904505,
				"y": 2.9728548593,
				"z": -3.4325627174,
				"element": "C" 
			},
			{
				"x": -0.2978310298,
				"y": 2.6860603169,
				"z": -3.1770741091,
				"element": "C" 
			},
			{
				"x": 0.0383179909,
				"y": 2.1339194035,
				"z": -1.777804175,
				"element": "C" 
			},
			{
				"x": 0.9406768523,
				"y": -0.0127241982,
				"z": -2.7035006288,
				"element": "C" 
			},
			{
				"x": 2.256640409,
				"y": 0.1286441907,
				"z": -2.4085977653,
				"element": "O" 
			},
			{
				"x": 0.5973278822,
				"y": -0.5447589742,
				"z": -3.730001101,
				"element": "O" 
			},
			{
				"x": 2.1842906763,
				"y": -3.0685193731,
				"z": 5.4171054442,
				"element": "H" 
			},
			{
				"x": 1.3752096983,
				"y": -1.8316007473,
				"z": 6.4259286995,
				"element": "H" 
			},
			{
				"x": 3.0531957142,
				"y": -1.595918515,
				"z": 5.8494095679,
				"element": "H" 
			},
			{
				"x": -0.1470086396,
				"y": -0.6274985431,
				"z": 5.3626499223,
				"element": "H" 
			},
			{
				"x": -1.041527319,
				"y": 0.5230315762,
				"z": 3.3242632869,
				"element": "H" 
			},
			{
				"x": 2.4554753953,
				"y": -0.8515489892,
				"z": 1.1869159523,
				"element": "H" 
			},
			{
				"x": 0.8761241512,
				"y": -0.7925366264,
				"z": -0.3169109247,
				"element": "H" 
			},
			{
				"x": -1.9887598007,
				"y": 0.2038111676,
				"z": -0.893776252,
				"element": "H" 
			},
			{
				"x": -1.3376021445,
				"y": -1.1072781121,
				"z": -1.878472286,
				"element": "H" 
			},
			{
				"x": -3.2011109449,
				"y": -0.1899571005,
				"z": -3.009798884,
				"element": "H" 
			},
			{
				"x": -1.7976092408,
				"y": 0.2738737421,
				"z": -3.9488415178,
				"element": "H" 
			},
			{
				"x": -3.7296560639,
				"y": 2.0423330702,
				"z": -3.4240940506,
				"element": "H" 
			},
			{
				"x": -3.0031575976,
				"y": 2.1335118204,
				"z": -1.8376901774,
				"element": "H" 
			},
			{
				"x": -1.9289940375,
				"y": 3.0782666891,
				"z": -4.515811306,
				"element": "H" 
			},
			{
				"x": -2.0524210755,
				"y": 3.9466161724,
				"z": -2.9996875074,
				"element": "H" 
			},
			{
				"x": 0.0789888074,
				"y": 2.0037468533,
				"z": -3.9463843169,
				"element": "H" 
			},
			{
				"x": 0.2586948875,
				"y": 3.6195679558,
				"z": -3.3180452597,
				"element": "H" 
			},
			{
				"x": -0.6151570819,
				"y": 2.5646853549,
				"z": -1.0177534303,
				"element": "H" 
			},
			{
				"x": 1.0581882263,
				"y": 2.4322987471,
				"z": -1.5062701399,
				"element": "H" 
			},
			{
				"x": 2.3384849307,
				"y": 0.5450850304,
				"z": -1.5344924444,
				"element": "H" 
			}
		],
		 "valence_orbital": [ 
			{
				"type": "occ",
				"energy": -0.28587,
				"method": "rhf"
			},
			{
				"type": "occ",
				"energy": -0.28403,
				"method": "rhf"
			},
			{
				"type": "occ",
				"energy": -0.26898,
				"method": "rhf"
			},
			{
				"type": "occ",
				"energy": -0.25555,
				"method": "rhf"
			},
			{
				"type": "occ",
				"energy": -0.22814,
				"method": "rhf"
			},
			{
				"type": "unocc",
				"energy": -0.07406,
				"method": "rhf"
			},
			{
				"type": "unocc",
				"energy": -0.00831,
				"method": "rhf"
			},
			{
				"type": "unocc",
				"energy": -0.00405,
				"method": "rhf"
			},
			{
				"type": "unocc",
				"energy": 0.03069,
				"method": "rhf"
			},
			{
				"type": "unocc",
				"energy": 0.05144,
				"method": "rhf"
			}
		],
		"cosmo_sigma_profile": { 
			"-0.025": 0.0,
			"-0.024": 0.0,
			"-0.023": 0.0,
			"-0.022": 0.0,
			"-0.021": 0.0,
			"-0.02": 0.0,
			"-0.019": 0.0,
			"-0.018": 0.0,
			"-0.017": 0.0872377066597,
			"-0.016": 0.79809655496,
			"-0.015": 1.15369148442,
			"-0.014": 1.8029619318,
			"-0.013": 2.91098717199,
			"-0.012": 2.6637776832,
			"-0.011": 3.39411065417,
			"-0.01": 4.6266695166,
			"-0.009": 5.74767000267,
			"-0.008": 5.47673276892,
			"-0.007": 6.40910958144,
			"-0.006": 10.6013111387,
			"-0.005": 11.137552772,
			"-0.004": 13.6794635859,
			"-0.003": 24.0891751059,
			"-0.002": 38.5513231493,
			"-0.001": 43.057473397,
			"0.0": 34.556042543,
			"0.001": 25.4472195642,
			"0.002": 12.0645386094,
			"0.003": 8.17932246244,
			"0.004": 5.96146415562,
			"0.005": 5.46501339224,
			"0.006": 6.55881865596,
			"0.007": 5.60140960714,
			"0.008": 5.08127877254,
			"0.009": 7.03251235269,
			"0.01": 8.19315663033,
			"0.011": 7.57781319549,
			"0.012": 6.72106390407,
			"0.013": 3.82963326581,
			"0.014": 5.58903796621,
			"0.015": 2.09867707143,
			"0.016": 0.0715206427693,
			"0.017": 0.0,
			"0.018": 0.0,
			"0.019": 0.0,
			"0.02": 0.0,
			"0.021": 0.0,
			"0.022": 0.0,
			"0.023": 0.0,
			"0.024": 0.0,
			"0.025": 0.0
		}
	}
}
