{
	 "smiles": "ClS(=O)(=O)C1=CN=C(C=C1)N1CCOCC1", 
	 "Tm": 391.15, 
	 "num_atms": 27, 
	 "gaussian": { 
		 "optdone": 1, 
		 "sigma_profile": "yes", 
		 "theory": "DFT", 
		 "functional": "B3LYP", 
		 "basiset": "6-31G**", 
		 "properties": { 
			 "R2extent": 7906.0827, 
			 "electric_dipole_moment_norm": 7.24648577036, 
			 "electric_quadrupole_moment_norm": 30.7579350217, 
			 "total_energy": -1543.05246905, 
			 "HOMO_LUMO_gap": 0.15268, 
			 "cosmo_polarized_energy": -14.78, 
			 "cosmo_cavitation_energy": 33.27, 
			 "cosmo_dispersion_energy": -25.32, 
			 "cosmo_repulsion_energy": 1.93, 
			 "cosmo_total_nonelectrostatic_energy": 9.88, 
			 "SMD_solvation_energy": 2.6 
		},
		"coords": [
			{
				"x": -1.622358643,
				"y": 4.8382825078,
				"z": -3.1523366725,
				"element": "Cl" 
			},
			{
				"x": -0.1256767718,
				"y": 3.4160292566,
				"z": -3.7495088949,
				"element": "S" 
			},
			{
				"x": -0.6066306434,
				"y": 2.8542731602,
				"z": -5.0069099457,
				"element": "O" 
			},
			{
				"x": 1.1473757466,
				"y": 4.1190422389,
				"z": -3.6420276766,
				"element": "O" 
			},
			{
				"x": -0.2366173678,
				"y": 2.1995979186,
				"z": -2.4821516174,
				"element": "C" 
			},
			{
				"x": 0.5842810638,
				"y": 2.2793968203,
				"z": -1.3532751766,
				"element": "C" 
			},
			{
				"x": 0.5396808158,
				"y": 1.3900651304,
				"z": -0.3703621714,
				"element": "N" 
			},
			{
				"x": -0.3382530459,
				"y": 0.3619439653,
				"z": -0.4548997971,
				"element": "C" 
			},
			{
				"x": -1.2069319202,
				"y": 0.2105080396,
				"z": -1.5745578694,
				"element": "C" 
			},
			{
				"x": -1.1527709337,
				"y": 1.142716953,
				"z": -2.5888277146,
				"element": "C" 
			},
			{
				"x": -0.3540993888,
				"y": -0.5256120372,
				"z": 0.5796449467,
				"element": "N" 
			},
			{
				"x": -1.2776674061,
				"y": -1.6630171166,
				"z": 0.5971424532,
				"element": "C" 
			},
			{
				"x": -1.0616171041,
				"y": -2.4771673677,
				"z": 1.8741330938,
				"element": "C" 
			},
			{
				"x": 0.2963544696,
				"y": -2.8398908105,
				"z": 2.0243531846,
				"element": "O" 
			},
			{
				"x": 1.2016057455,
				"y": -1.7292275203,
				"z": 2.0516049069,
				"element": "C" 
			},
			{
				"x": 0.5327625284,
				"y": -0.3892961139,
				"z": 1.7359386069,
				"element": "C" 
			},
			{
				"x": 1.3059273857,
				"y": 3.0866883563,
				"z": -1.2564113247,
				"element": "H" 
			},
			{
				"x": -1.897320487,
				"y": -0.6197748951,
				"z": -1.6414394961,
				"element": "H" 
			},
			{
				"x": -1.7932420623,
				"y": 1.0589437823,
				"z": -3.4602898963,
				"element": "H" 
			},
			{
				"x": -2.3219391747,
				"y": -1.32151485,
				"z": 0.5468358325,
				"element": "H" 
			},
			{
				"x": -1.0913863082,
				"y": -2.3076109954,
				"z": -0.272169999,
				"element": "H" 
			},
			{
				"x": -1.6278835829,
				"y": -3.4098905131,
				"z": 1.8083325266,
				"element": "H" 
			},
			{
				"x": -1.4371518973,
				"y": -1.9258278854,
				"z": 2.7500492238,
				"element": "H" 
			},
			{
				"x": 1.9861011809,
				"y": -1.9363242852,
				"z": 1.3140645193,
				"element": "H" 
			},
			{
				"x": 1.6739816645,
				"y": -1.6693123706,
				"z": 3.0421051861,
				"element": "H" 
			},
			{
				"x": -0.0362940801,
				"y": -0.0250716221,
				"z": 2.601583471,
				"element": "H" 
			},
			{
				"x": 1.2843702163,
				"y": 0.3636502539,
				"z": 1.5028803008,
				"element": "H" 
			}
		],
		 "valence_orbital": [ 
			{
				"type": "occ",
				"energy": -0.30949,
				"method": "rhf"
			},
			{
				"type": "occ",
				"energy": -0.30444,
				"method": "rhf"
			},
			{
				"type": "occ",
				"energy": -0.28393,
				"method": "rhf"
			},
			{
				"type": "occ",
				"energy": -0.27134,
				"method": "rhf"
			},
			{
				"type": "occ",
				"energy": -0.2351,
				"method": "rhf"
			},
			{
				"type": "unocc",
				"energy": -0.08242,
				"method": "rhf"
			},
			{
				"type": "unocc",
				"energy": -0.04754,
				"method": "rhf"
			},
			{
				"type": "unocc",
				"energy": -0.02942,
				"method": "rhf"
			},
			{
				"type": "unocc",
				"energy": 0.05895,
				"method": "rhf"
			},
			{
				"type": "unocc",
				"energy": 0.06909,
				"method": "rhf"
			}
		],
		"cosmo_sigma_profile": { 
			"-0.025": 0.0,
			"-0.024": 0.0,
			"-0.023": 0.0,
			"-0.022": 0.0,
			"-0.021": 0.0,
			"-0.02": 0.0,
			"-0.019": 0.0,
			"-0.018": 0.0,
			"-0.017": 0.0,
			"-0.016": 0.0,
			"-0.015": 0.0,
			"-0.014": 0.0,
			"-0.013": 0.0,
			"-0.012": 0.0,
			"-0.011": 0.0,
			"-0.01": 0.0,
			"-0.009": 0.793822564926,
			"-0.008": 4.25687208319,
			"-0.007": 7.66280748567,
			"-0.006": 17.9377195739,
			"-0.005": 29.0188978318,
			"-0.004": 23.7323019463,
			"-0.003": 16.6779456679,
			"-0.002": 15.2213447692,
			"-0.001": 21.414768651,
			"0.0": 20.5434921047,
			"0.001": 14.8431091033,
			"0.002": 12.9160029051,
			"0.003": 14.4194801088,
			"0.004": 17.4673983366,
			"0.005": 8.9290479331,
			"0.006": 5.18721578114,
			"0.007": 7.74973878099,
			"0.008": 11.8720352833,
			"0.009": 9.68270878016,
			"0.01": 2.42528746466,
			"0.011": 0.771747016455,
			"0.012": 1.89050295299,
			"0.013": 1.50014008216,
			"0.014": 0.116699333644,
			"0.015": 0.0,
			"0.016": 0.0,
			"0.017": 0.0,
			"0.018": 0.0,
			"0.019": 0.0,
			"0.02": 0.0,
			"0.021": 0.0,
			"0.022": 0.0,
			"0.023": 0.0,
			"0.024": 0.0,
			"0.025": 0.0
		}
	}
}
