{
	 "smiles": "CCOC(=O)C1=NN(C(C)=C1)C1=NN(C)C(C)=C1", 
	 "Tm": 345.15, 
	 "num_atms": 34, 
	 "gaussian": { 
		 "optdone": 1, 
		 "sigma_profile": "yes", 
		 "theory": "DFT", 
		 "functional": "B3LYP", 
		 "basiset": "6-31G**", 
		 "properties": { 
			 "R2extent": 6766.9112, 
			 "electric_dipole_moment_norm": 6.17635145454, 
			 "electric_quadrupole_moment_norm": 19.641374067, 
			 "total_energy": -836.354552895, 
			 "HOMO_LUMO_gap": 0.19445, 
			 "cosmo_polarized_energy": -21.06, 
			 "cosmo_cavitation_energy": 38.51, 
			 "cosmo_dispersion_energy": -27.53, 
			 "cosmo_repulsion_energy": 2.17, 
			 "cosmo_total_nonelectrostatic_energy": 13.15, 
			 "SMD_solvation_energy": 6.3 
		},
		"coords": [
			{
				"x": 1.6319743825,
				"y": -3.3341651357,
				"z": 2.8735308263,
				"element": "C" 
			},
			{
				"x": 1.4769283161,
				"y": -3.6236856252,
				"z": 1.3923041217,
				"element": "C" 
			},
			{
				"x": 1.0605229658,
				"y": -2.3971209329,
				"z": 0.7558865227,
				"element": "O" 
			},
			{
				"x": 0.8729265425,
				"y": -2.4683889142,
				"z": -0.575025083,
				"element": "C" 
			},
			{
				"x": 1.0332636883,
				"y": -3.4817021279,
				"z": -1.231979994,
				"element": "O" 
			},
			{
				"x": 0.4470073412,
				"y": -1.1846514296,
				"z": -1.1720698156,
				"element": "C" 
			},
			{
				"x": 0.2681739157,
				"y": -0.0727407917,
				"z": -0.4613477089,
				"element": "N" 
			},
			{
				"x": -0.1133837914,
				"y": 0.8566652884,
				"z": -1.3667851129,
				"element": "N" 
			},
			{
				"x": -0.1793213406,
				"y": 0.3439134375,
				"z": -2.6536616825,
				"element": "C" 
			},
			{
				"x": -0.5670429135,
				"y": 1.1062653118,
				"z": -3.8800889017,
				"element": "C" 
			},
			{
				"x": 0.18122512,
				"y": -0.9802014347,
				"z": -2.5458857415,
				"element": "C" 
			},
			{
				"x": -0.3847473629,
				"y": 2.1695962182,
				"z": -0.9163463749,
				"element": "C" 
			},
			{
				"x": -0.2578347993,
				"y": 2.4504243365,
				"z": 0.3774855569,
				"element": "N" 
			},
			{
				"x": -0.5834943483,
				"y": 3.7610356423,
				"z": 0.4706354636,
				"element": "N" 
			},
			{
				"x": -0.5498130852,
				"y": 4.402701874,
				"z": 1.7716779035,
				"element": "C" 
			},
			{
				"x": -0.9122863948,
				"y": 4.3136715372,
				"z": -0.729203336,
				"element": "C" 
			},
			{
				"x": -1.3084743643,
				"y": 5.7467832182,
				"z": -0.8875022233,
				"element": "C" 
			},
			{
				"x": -0.7938439166,
				"y": 3.2997423667,
				"z": -1.6661185122,
				"element": "C" 
			},
			{
				"x": 1.948400288,
				"y": -4.240728348,
				"z": 3.3992603446,
				"element": "H" 
			},
			{
				"x": 2.3821909423,
				"y": -2.5563492123,
				"z": 3.0420447991,
				"element": "H" 
			},
			{
				"x": 0.6859251074,
				"y": -2.995619828,
				"z": 3.3054984562,
				"element": "H" 
			},
			{
				"x": 0.7260760406,
				"y": -4.3972882939,
				"z": 1.2004766887,
				"element": "H" 
			},
			{
				"x": 2.4148649182,
				"y": -3.9600318654,
				"z": 0.9382364723,
				"element": "H" 
			},
			{
				"x": -0.5246777151,
				"y": 0.4321679378,
				"z": -4.7381754983,
				"element": "H" 
			},
			{
				"x": 0.110106911,
				"y": 1.9438271375,
				"z": -4.0806546088,
				"element": "H" 
			},
			{
				"x": -1.586295538,
				"y": 1.5032216321,
				"z": -3.8182969119,
				"element": "H" 
			},
			{
				"x": 0.2479329352,
				"y": -1.7092889877,
				"z": -3.3384217319,
				"element": "H" 
			},
			{
				"x": 0.1657995333,
				"y": 5.2312533321,
				"z": 1.7830711168,
				"element": "H" 
			},
			{
				"x": -0.2387551049,
				"y": 3.6469985359,
				"z": 2.4912644141,
				"element": "H" 
			},
			{
				"x": -1.538599365,
				"y": 4.7826093177,
				"z": 2.0487624066,
				"element": "H" 
			},
			{
				"x": -0.5121135713,
				"y": 6.429043937,
				"z": -0.567027347,
				"element": "H" 
			},
			{
				"x": -2.2037299018,
				"y": 5.9905684049,
				"z": -0.3031822676,
				"element": "H" 
			},
			{
				"x": -1.5270772421,
				"y": 5.9593146093,
				"z": -1.9359324131,
				"element": "H" 
			},
			{
				"x": -0.9809281931,
				"y": 3.3929588522,
				"z": -2.7214298278,
				"element": "H" 
			}
		],
		 "valence_orbital": [ 
			{
				"type": "occ",
				"energy": -0.27373,
				"method": "rhf"
			},
			{
				"type": "occ",
				"energy": -0.25617,
				"method": "rhf"
			},
			{
				"type": "occ",
				"energy": -0.24638,
				"method": "rhf"
			},
			{
				"type": "occ",
				"energy": -0.2375,
				"method": "rhf"
			},
			{
				"type": "occ",
				"energy": -0.21776,
				"method": "rhf"
			},
			{
				"type": "unocc",
				"energy": -0.02331,
				"method": "rhf"
			},
			{
				"type": "unocc",
				"energy": 0.0165,
				"method": "rhf"
			},
			{
				"type": "unocc",
				"energy": 0.03212,
				"method": "rhf"
			},
			{
				"type": "unocc",
				"energy": 0.07637,
				"method": "rhf"
			},
			{
				"type": "unocc",
				"energy": 0.092,
				"method": "rhf"
			}
		],
		"cosmo_sigma_profile": { 
			"-0.025": 0.0,
			"-0.024": 0.0,
			"-0.023": 0.0,
			"-0.022": 0.0,
			"-0.021": 0.0,
			"-0.02": 0.0,
			"-0.019": 0.0,
			"-0.018": 0.0,
			"-0.017": 0.0,
			"-0.016": 0.0,
			"-0.015": 0.0,
			"-0.014": 0.0,
			"-0.013": 0.0,
			"-0.012": 0.0,
			"-0.011": 0.0,
			"-0.01": 0.0,
			"-0.009": 0.0,
			"-0.008": 0.238971936259,
			"-0.007": 4.44893605522,
			"-0.006": 21.1018667995,
			"-0.005": 29.3849710954,
			"-0.004": 33.6760867401,
			"-0.003": 34.3516733309,
			"-0.002": 31.0618946049,
			"-0.001": 26.405998736,
			"0.0": 20.0007946621,
			"0.001": 13.6281126898,
			"0.002": 14.4160150412,
			"0.003": 15.3366826956,
			"0.004": 10.9082957167,
			"0.005": 6.44309376948,
			"0.006": 4.42039734261,
			"0.007": 4.64164581202,
			"0.008": 4.32075637709,
			"0.009": 3.95996744956,
			"0.01": 3.70383841821,
			"0.011": 4.60523063334,
			"0.012": 7.35351873759,
			"0.013": 2.42780779109,
			"0.014": 1.75936821095,
			"0.015": 1.56481109557,
			"0.016": 1.71828712859,
			"0.017": 1.18852984939,
			"0.018": 1.20713017316,
			"0.019": 0.744736493683,
			"0.02": 0.0209230558712,
			"0.021": 0.0,
			"0.022": 0.0,
			"0.023": 0.0,
			"0.024": 0.0,
			"0.025": 0.0
		}
	}
}
