{
	 "smiles": "[O-][N+](=O)C1=C(C=O)C=CC(Br)=C1", 
	 "Tm": 370.65, 
	 "num_atms": 16, 
	 "gaussian": { 
		 "optdone": 1, 
		 "sigma_profile": "yes", 
		 "theory": "DFT", 
		 "functional": "B3LYP", 
		 "basiset": "6-31G**", 
		 "properties": { 
			 "R2extent": 4432.6822, 
			 "electric_dipole_moment_norm": 5.62265607876, 
			 "electric_quadrupole_moment_norm": 6.61495199227, 
			 "total_energy": -3120.85244502, 
			 "HOMO_LUMO_gap": 0.17331, 
			 "cosmo_polarized_energy": -13.39, 
			 "cosmo_cavitation_energy": 24.54, 
			 "cosmo_dispersion_energy": -17.93, 
			 "cosmo_repulsion_energy": 1.43, 
			 "cosmo_total_nonelectrostatic_energy": 8.04, 
			 "SMD_solvation_energy": 6.51 
		},
		"coords": [
			{
				"x": 0.2428601091,
				"y": -0.0701973545,
				"z": 2.0774036067,
				"element": "O" 
			},
			{
				"x": 0.0236222027,
				"y": 1.0079531417,
				"z": 1.5420483086,
				"element": "N" 
			},
			{
				"x": -0.0878873444,
				"y": 2.092638953,
				"z": 2.1061261658,
				"element": "O" 
			},
			{
				"x": -0.0288589137,
				"y": 1.0226327188,
				"z": 0.0636840947,
				"element": "C" 
			},
			{
				"x": -0.8522324888,
				"y": 0.1421739335,
				"z": -0.6565206051,
				"element": "C" 
			},
			{
				"x": -1.9116925248,
				"y": -0.7116034716,
				"z": -0.0493446731,
				"element": "C" 
			},
			{
				"x": -2.3621424401,
				"y": -0.5742188946,
				"z": 1.0659463006,
				"element": "O" 
			},
			{
				"x": -0.7423982215,
				"y": 0.1545627844,
				"z": -2.0524353575,
				"element": "C" 
			},
			{
				"x": 0.1326785642,
				"y": 1.0145455618,
				"z": -2.7128783384,
				"element": "C" 
			},
			{
				"x": 0.911343907,
				"y": 1.8920173476,
				"z": -1.9597869823,
				"element": "C" 
			},
			{
				"x": 2.1032883189,
				"y": 3.0839931748,
				"z": -2.8359827245,
				"element": "Br" 
			},
			{
				"x": 0.8342958968,
				"y": 1.9087107862,
				"z": -0.5655603078,
				"element": "C" 
			},
			{
				"x": -2.3067470484,
				"y": -1.4846341019,
				"z": -0.7437248326,
				"element": "H" 
			},
			{
				"x": -1.3742209513,
				"y": -0.5133644694,
				"z": -2.6322424785,
				"element": "H" 
			},
			{
				"x": 0.2043036629,
				"y": 1.0111979711,
				"z": -3.7940632367,
				"element": "H" 
			},
			{
				"x": 1.4386872712,
				"y": 2.586891919,
				"z": 0.0236310599,
				"element": "H" 
			}
		],
		 "valence_orbital": [ 
			{
				"type": "occ",
				"energy": -0.31822,
				"method": "rhf"
			},
			{
				"type": "occ",
				"energy": -0.31134,
				"method": "rhf"
			},
			{
				"type": "occ",
				"energy": -0.2902,
				"method": "rhf"
			},
			{
				"type": "occ",
				"energy": -0.27904,
				"method": "rhf"
			},
			{
				"type": "occ",
				"energy": -0.27633,
				"method": "rhf"
			},
			{
				"type": "unocc",
				"energy": -0.10302,
				"method": "rhf"
			},
			{
				"type": "unocc",
				"energy": -0.07446,
				"method": "rhf"
			},
			{
				"type": "unocc",
				"energy": -0.04485,
				"method": "rhf"
			},
			{
				"type": "unocc",
				"energy": -0.02069,
				"method": "rhf"
			},
			{
				"type": "unocc",
				"energy": 0.00291,
				"method": "rhf"
			}
		],
		"cosmo_sigma_profile": { 
			"-0.025": 0.0,
			"-0.024": 0.0,
			"-0.023": 0.0,
			"-0.022": 0.0,
			"-0.021": 0.0,
			"-0.02": 0.0,
			"-0.019": 0.0,
			"-0.018": 0.0,
			"-0.017": 0.0,
			"-0.016": 0.0,
			"-0.015": 0.0,
			"-0.014": 0.0,
			"-0.013": 0.0,
			"-0.012": 0.0,
			"-0.011": 0.252241673387,
			"-0.01": 2.26135894222,
			"-0.009": 8.12535760732,
			"-0.008": 9.25384699845,
			"-0.007": 8.10217836244,
			"-0.006": 8.04330912184,
			"-0.005": 8.34157373503,
			"-0.004": 8.45054288581,
			"-0.003": 12.7049435558,
			"-0.002": 16.8017293281,
			"-0.001": 20.2044218026,
			"0.0": 12.6154148552,
			"0.001": 10.0620476376,
			"0.002": 9.91953494064,
			"0.003": 14.3287490972,
			"0.004": 6.03776785899,
			"0.005": 5.25255853499,
			"0.006": 7.61858484099,
			"0.007": 12.360847906,
			"0.008": 8.74811830233,
			"0.009": 5.85317470837,
			"0.01": 3.48182832374,
			"0.011": 1.95423892212,
			"0.012": 0.615408564815,
			"0.013": 0.0,
			"0.014": 0.0,
			"0.015": 0.0,
			"0.016": 0.0,
			"0.017": 0.0,
			"0.018": 0.0,
			"0.019": 0.0,
			"0.02": 0.0,
			"0.021": 0.0,
			"0.022": 0.0,
			"0.023": 0.0,
			"0.024": 0.0,
			"0.025": 0.0
		}
	}
}
