{
	 "smiles": "CC1=CC=C(C(N)=O)C(F)=C1F", 
	 "Tm": 433.15, 
	 "num_atms": 19, 
	 "gaussian": { 
		 "optdone": 1, 
		 "sigma_profile": "yes", 
		 "theory": "DFT", 
		 "functional": "B3LYP", 
		 "basiset": "6-31G**", 
		 "properties": { 
			 "R2extent": 4332.2405, 
			 "electric_dipole_moment_norm": 2.11958766037, 
			 "electric_quadrupole_moment_norm": 21.475636395, 
			 "total_energy": -638.736549919, 
			 "HOMO_LUMO_gap": 0.20854, 
			 "cosmo_polarized_energy": -10.34, 
			 "cosmo_cavitation_energy": 24.0, 
			 "cosmo_dispersion_energy": -17.72, 
			 "cosmo_repulsion_energy": 1.37, 
			 "cosmo_total_nonelectrostatic_energy": 7.65, 
			 "SMD_solvation_energy": 5.76 
		},
		"coords": [
			{
				"x": -0.7583613108,
				"y": -0.4306562574,
				"z": -0.3851917256,
				"element": "C" 
			},
			{
				"x": 0.423845648,
				"y": 0.4566932864,
				"z": -0.0967182939,
				"element": "C" 
			},
			{
				"x": 1.7530790566,
				"y": 0.0465357226,
				"z": -0.2714960965,
				"element": "C" 
			},
			{
				"x": 2.8159405998,
				"y": 0.898648426,
				"z": 0.0068975661,
				"element": "C" 
			},
			{
				"x": 2.6085143843,
				"y": 2.204752872,
				"z": 0.474390811,
				"element": "C" 
			},
			{
				"x": 3.8411111163,
				"y": 3.0365199373,
				"z": 0.7420854984,
				"element": "C" 
			},
			{
				"x": 3.6543409274,
				"y": 4.305526566,
				"z": 1.1981815987,
				"element": "N" 
			},
			{
				"x": 4.9589603087,
				"y": 2.5701747179,
				"z": 0.5507512177,
				"element": "O" 
			},
			{
				"x": 1.2828912059,
				"y": 2.6097914113,
				"z": 0.6472243705,
				"element": "C" 
			},
			{
				"x": 0.9639655779,
				"y": 3.8513606924,
				"z": 1.0942775669,
				"element": "F" 
			},
			{
				"x": 0.2212537642,
				"y": 1.7548006475,
				"z": 0.3677044141,
				"element": "C" 
			},
			{
				"x": -1.0339437564,
				"y": 2.2092019359,
				"z": 0.5564702919,
				"element": "F" 
			},
			{
				"x": -1.3739645949,
				"y": -0.5735950622,
				"z": 0.5092508238,
				"element": "H" 
			},
			{
				"x": -0.4299952939,
				"y": -1.4111746542,
				"z": -0.7368230596,
				"element": "H" 
			},
			{
				"x": -1.4070411635,
				"y": 0.0099889765,
				"z": -1.1497709437,
				"element": "H" 
			},
			{
				"x": 1.9484779321,
				"y": -0.9590749593,
				"z": -0.632020667,
				"element": "H" 
			},
			{
				"x": 3.8450689066,
				"y": 0.5851352443,
				"z": -0.1269484499,
				"element": "H" 
			},
			{
				"x": 4.4817431335,
				"y": 4.8541375263,
				"z": 1.3731231983,
				"element": "H" 
			},
			{
				"x": 2.7408135583,
				"y": 4.6962329707,
				"z": 1.3561118789,
				"element": "H" 
			}
		],
		 "valence_orbital": [ 
			{
				"type": "occ",
				"energy": -0.35315,
				"method": "rhf"
			},
			{
				"type": "occ",
				"energy": -0.26767,
				"method": "rhf"
			},
			{
				"type": "occ",
				"energy": -0.26052,
				"method": "rhf"
			},
			{
				"type": "occ",
				"energy": -0.25667,
				"method": "rhf"
			},
			{
				"type": "occ",
				"energy": -0.252,
				"method": "rhf"
			},
			{
				"type": "unocc",
				"energy": -0.04346,
				"method": "rhf"
			},
			{
				"type": "unocc",
				"energy": -0.00901,
				"method": "rhf"
			},
			{
				"type": "unocc",
				"energy": 0.06131,
				"method": "rhf"
			},
			{
				"type": "unocc",
				"energy": 0.06244,
				"method": "rhf"
			},
			{
				"type": "unocc",
				"energy": 0.09659,
				"method": "rhf"
			}
		],
		"cosmo_sigma_profile": { 
			"-0.025": 0.0,
			"-0.024": 0.0,
			"-0.023": 0.0,
			"-0.022": 0.0,
			"-0.021": 0.0,
			"-0.02": 0.0,
			"-0.019": 0.0,
			"-0.018": 0.0,
			"-0.017": 0.0,
			"-0.016": 0.0,
			"-0.015": 0.0710668720161,
			"-0.014": 0.870990083677,
			"-0.013": 1.62445841889,
			"-0.012": 1.59256922153,
			"-0.011": 1.20452832529,
			"-0.01": 1.96091923204,
			"-0.009": 2.20347054219,
			"-0.008": 1.74989420671,
			"-0.007": 2.9798167552,
			"-0.006": 5.91616757123,
			"-0.005": 10.2082810055,
			"-0.004": 11.8224946586,
			"-0.003": 12.071834563,
			"-0.002": 17.2411994875,
			"-0.001": 22.171325856,
			"0.0": 16.9444279719,
			"0.001": 14.6163172356,
			"0.002": 15.3556140621,
			"0.003": 18.942776974,
			"0.004": 11.5923484787,
			"0.005": 2.0568460218,
			"0.006": 1.39748752232,
			"0.007": 1.28905247121,
			"0.008": 1.62073350112,
			"0.009": 0.895958999039,
			"0.01": 1.7296085078,
			"0.011": 1.60758694871,
			"0.012": 1.9159595747,
			"0.013": 4.68353044155,
			"0.014": 3.3673731925,
			"0.015": 0.220817725718,
			"0.016": 0.0,
			"0.017": 0.0,
			"0.018": 0.0,
			"0.019": 0.0,
			"0.02": 0.0,
			"0.021": 0.0,
			"0.022": 0.0,
			"0.023": 0.0,
			"0.024": 0.0,
			"0.025": 0.0
		}
	}
}
