{
	 "smiles": "CC1=CC=C(CNC2=CC(=O)C3=C(C=CC=C3)C2=O)N=C1", 
	 "Tm": 408.15, 
	 "num_atms": 35, 
	 "gaussian": { 
		 "optdone": 1, 
		 "sigma_profile": "yes", 
		 "theory": "DFT", 
		 "functional": "B3LYP", 
		 "basiset": "6-31G**", 
		 "properties": { 
			 "R2extent": 8295.9925, 
			 "electric_dipole_moment_norm": 4.01597889561, 
			 "electric_quadrupole_moment_norm": 14.9479171281, 
			 "total_energy": -916.199456483, 
			 "HOMO_LUMO_gap": 0.1165, 
			 "cosmo_polarized_energy": -14.6, 
			 "cosmo_cavitation_energy": 39.61, 
			 "cosmo_dispersion_energy": -28.13, 
			 "cosmo_repulsion_energy": 2.12, 
			 "cosmo_total_nonelectrostatic_energy": 13.6, 
			 "SMD_solvation_energy": 5.36 
		},
		"coords": [
			{
				"x": 5.3451288248,
				"y": 0.7396234429,
				"z": 0.03263812,
				"element": "C" 
			},
			{
				"x": 4.0960209192,
				"y": -0.0497587229,
				"z": 0.3339104297,
				"element": "C" 
			},
			{
				"x": 3.7397897914,
				"y": -1.1857203332,
				"z": -0.4013988167,
				"element": "C" 
			},
			{
				"x": 2.576169143,
				"y": -1.8810559151,
				"z": -0.0809380616,
				"element": "C" 
			},
			{
				"x": 1.7910315624,
				"y": -1.425664821,
				"z": 0.982629173,
				"element": "C" 
			},
			{
				"x": 0.5015174254,
				"y": -2.1177765438,
				"z": 1.3875738885,
				"element": "C" 
			},
			{
				"x": -0.6805031072,
				"y": -1.2793060229,
				"z": 1.1487223136,
				"element": "N" 
			},
			{
				"x": -1.3276616755,
				"y": -1.024423461,
				"z": -0.0298853116,
				"element": "C" 
			},
			{
				"x": -2.1228393611,
				"y": 0.0847180062,
				"z": -0.1669465553,
				"element": "C" 
			},
			{
				"x": -2.9213403386,
				"y": 0.3842124798,
				"z": -1.3404769731,
				"element": "C" 
			},
			{
				"x": -3.6236262404,
				"y": 1.39495853,
				"z": -1.4136753208,
				"element": "O" 
			},
			{
				"x": -2.8571770722,
				"y": -0.5852836947,
				"z": -2.4796274336,
				"element": "C" 
			},
			{
				"x": -2.0412444425,
				"y": -1.7258746412,
				"z": -2.3914489953,
				"element": "C" 
			},
			{
				"x": -1.982586817,
				"y": -2.6260660819,
				"z": -3.4631829517,
				"element": "C" 
			},
			{
				"x": -2.7338004561,
				"y": -2.3899763934,
				"z": -4.6123798518,
				"element": "C" 
			},
			{
				"x": -3.5451286849,
				"y": -1.2532971969,
				"z": -4.6979994022,
				"element": "C" 
			},
			{
				"x": -3.6056846889,
				"y": -0.3530836726,
				"z": -3.6342957162,
				"element": "C" 
			},
			{
				"x": -1.229938545,
				"y": -2.0046040297,
				"z": -1.1750313323,
				"element": "C" 
			},
			{
				"x": -0.5089658066,
				"y": -2.996782278,
				"z": -1.1178844953,
				"element": "O" 
			},
			{
				"x": 2.1124708663,
				"y": -0.3355219906,
				"z": 1.6965100027,
				"element": "N" 
			},
			{
				"x": 3.2292230263,
				"y": 0.3216269671,
				"z": 1.3705603559,
				"element": "C" 
			},
			{
				"x": 5.4342519633,
				"y": 1.6077703707,
				"z": 0.6915268168,
				"element": "H" 
			},
			{
				"x": 6.2451955473,
				"y": 0.1279669007,
				"z": 0.1630931078,
				"element": "H" 
			},
			{
				"x": 5.348293788,
				"y": 1.1025702849,
				"z": -1.0012553342,
				"element": "H" 
			},
			{
				"x": 4.3680434266,
				"y": -1.522008388,
				"z": -1.2231355014,
				"element": "H" 
			},
			{
				"x": 2.2687029543,
				"y": -2.7546214991,
				"z": -0.6465522605,
				"element": "H" 
			},
			{
				"x": 0.3825523218,
				"y": -3.0649625484,
				"z": 0.8714198141,
				"element": "H" 
			},
			{
				"x": 0.5279604811,
				"y": -2.3001728283,
				"z": 2.4663336066,
				"element": "H" 
			},
			{
				"x": -0.7302975652,
				"y": -0.5042931496,
				"z": 1.799063078,
				"element": "H" 
			},
			{
				"x": -2.1943987592,
				"y": 0.8091904844,
				"z": 0.6404063154,
				"element": "H" 
			},
			{
				"x": -1.3465409638,
				"y": -3.5000317561,
				"z": -3.3730449761,
				"element": "H" 
			},
			{
				"x": -2.6889266138,
				"y": -3.0899481611,
				"z": -5.4415126949,
				"element": "H" 
			},
			{
				"x": -4.1295846654,
				"y": -1.0711486708,
				"z": -5.595347407,
				"element": "H" 
			},
			{
				"x": -4.2237916477,
				"y": 0.537736665,
				"z": -3.671799908,
				"element": "H" 
			},
			{
				"x": 3.4574854099,
				"y": 1.2018086687,
				"z": 1.9717322775,
				"element": "H" 
			}
		],
		 "valence_orbital": [ 
			{
				"type": "occ",
				"energy": -0.26098,
				"method": "rhf"
			},
			{
				"type": "occ",
				"energy": -0.2603,
				"method": "rhf"
			},
			{
				"type": "occ",
				"energy": -0.25563,
				"method": "rhf"
			},
			{
				"type": "occ",
				"energy": -0.24247,
				"method": "rhf"
			},
			{
				"type": "occ",
				"energy": -0.21757,
				"method": "rhf"
			},
			{
				"type": "unocc",
				"energy": -0.10107,
				"method": "rhf"
			},
			{
				"type": "unocc",
				"energy": -0.03208,
				"method": "rhf"
			},
			{
				"type": "unocc",
				"energy": -0.03068,
				"method": "rhf"
			},
			{
				"type": "unocc",
				"energy": -0.01278,
				"method": "rhf"
			},
			{
				"type": "unocc",
				"energy": -0.0046,
				"method": "rhf"
			}
		],
		"cosmo_sigma_profile": { 
			"-0.025": 0.0,
			"-0.024": 0.0,
			"-0.023": 0.0,
			"-0.022": 0.0,
			"-0.021": 0.0,
			"-0.02": 0.0,
			"-0.019": 0.0,
			"-0.018": 0.0,
			"-0.017": 0.0,
			"-0.016": 0.0,
			"-0.015": 0.0,
			"-0.014": 0.263964536363,
			"-0.013": 0.993597391057,
			"-0.012": 1.39240294418,
			"-0.011": 1.12871687892,
			"-0.01": 1.13432061525,
			"-0.009": 1.23047223578,
			"-0.008": 1.16451824761,
			"-0.007": 5.78324885302,
			"-0.006": 15.4278789509,
			"-0.005": 22.3556792235,
			"-0.004": 27.6437464706,
			"-0.003": 25.029106831,
			"-0.002": 24.9260896155,
			"-0.001": 25.9191534688,
			"0.0": 26.6584930043,
			"0.001": 27.7399887126,
			"0.002": 32.5708112899,
			"0.003": 25.4608055366,
			"0.004": 8.64436134704,
			"0.005": 6.28042148651,
			"0.006": 4.45682599991,
			"0.007": 5.3313965124,
			"0.008": 3.29683547845,
			"0.009": 4.62384589586,
			"0.01": 3.18847926352,
			"0.011": 2.91705430737,
			"0.012": 3.8637252876,
			"0.013": 5.03479666886,
			"0.014": 2.14462797879,
			"0.015": 0.685167691854,
			"0.016": 0.0,
			"0.017": 0.0,
			"0.018": 0.0,
			"0.019": 0.0,
			"0.02": 0.0,
			"0.021": 0.0,
			"0.022": 0.0,
			"0.023": 0.0,
			"0.024": 0.0,
			"0.025": 0.0
		}
	}
}
