{
	 "smiles": "CC(C)(C)OC(=O)N1CCN2C(CNC(=O)C2=O)C1", 
	 "Tm": 496.15, 
	 "num_atms": 38, 
	 "gaussian": { 
		 "optdone": 1, 
		 "sigma_profile": "yes", 
		 "theory": "DFT", 
		 "functional": "B3LYP", 
		 "basiset": "6-31G**", 
		 "properties": { 
			 "R2extent": 7464.8117, 
			 "electric_dipole_moment_norm": 5.81537670921, 
			 "electric_quadrupole_moment_norm": 41.5163185334, 
			 "total_energy": -933.926319186, 
			 "HOMO_LUMO_gap": 0.21047, 
			 "cosmo_polarized_energy": -24.83, 
			 "cosmo_cavitation_energy": 38.96, 
			 "cosmo_dispersion_energy": -26.98, 
			 "cosmo_repulsion_energy": 2.08, 
			 "cosmo_total_nonelectrostatic_energy": 14.06, 
			 "SMD_solvation_energy": 7.22 
		},
		"coords": [
			{
				"x": -1.1065520562,
				"y": 2.1872629283,
				"z": 1.0340371093,
				"element": "C" 
			},
			{
				"x": 0.2096567465,
				"y": 2.3367340222,
				"z": 0.2645549035,
				"element": "C" 
			},
			{
				"x": 1.2131574992,
				"y": 3.1751186408,
				"z": 1.0601163775,
				"element": "C" 
			},
			{
				"x": 0.0031181989,
				"y": 2.9184873472,
				"z": -1.1374510406,
				"element": "C" 
			},
			{
				"x": 0.8905769084,
				"y": 1.0315801417,
				"z": 0.1702559169,
				"element": "O" 
			},
			{
				"x": 0.3116869426,
				"y": -0.0117226189,
				"z": -0.462609937,
				"element": "C" 
			},
			{
				"x": -0.7748602357,
				"y": -0.0001841169,
				"z": -1.0273614402,
				"element": "O" 
			},
			{
				"x": 1.1222976152,
				"y": -1.1192406722,
				"z": -0.3930374157,
				"element": "N" 
			},
			{
				"x": 2.369718726,
				"y": -1.1596711277,
				"z": 0.3815952948,
				"element": "C" 
			},
			{
				"x": 2.7448037523,
				"y": -2.6234383391,
				"z": 0.6613847394,
				"element": "C" 
			},
			{
				"x": 1.5486521401,
				"y": -3.3837662779,
				"z": 1.0085944744,
				"element": "N" 
			},
			{
				"x": 0.4971185959,
				"y": -3.4824403505,
				"z": -0.0158028738,
				"element": "C" 
			},
			{
				"x": -0.8675557155,
				"y": -3.4166170749,
				"z": 0.6630692101,
				"element": "C" 
			},
			{
				"x": -0.922802669,
				"y": -4.4258819624,
				"z": 1.7110170152,
				"element": "N" 
			},
			{
				"x": 0.120476515,
				"y": -4.7146406642,
				"z": 2.5487834663,
				"element": "C" 
			},
			{
				"x": 0.034674923,
				"y": -5.4827736986,
				"z": 3.4883655396,
				"element": "O" 
			},
			{
				"x": 1.4517496123,
				"y": -3.982844993,
				"z": 2.2421279309,
				"element": "C" 
			},
			{
				"x": 2.3349269097,
				"y": -3.9457410475,
				"z": 3.0824090018,
				"element": "O" 
			},
			{
				"x": 0.6994371915,
				"y": -2.3480796369,
				"z": -1.042849535,
				"element": "C" 
			},
			{
				"x": -1.5461489533,
				"y": 3.1756458638,
				"z": 1.2022651959,
				"element": "H" 
			},
			{
				"x": -1.8178001755,
				"y": 1.5757230896,
				"z": 0.4784810773,
				"element": "H" 
			},
			{
				"x": -0.9259416782,
				"y": 1.7270913092,
				"z": 2.0107865536,
				"element": "H" 
			},
			{
				"x": 0.8268205518,
				"y": 4.1890348568,
				"z": 1.1992771656,
				"element": "H" 
			},
			{
				"x": 2.1688925436,
				"y": 3.2382910788,
				"z": 0.531885068,
				"element": "H" 
			},
			{
				"x": 1.3913587585,
				"y": 2.7347721153,
				"z": 2.0454796697,
				"element": "H" 
			},
			{
				"x": -0.398458823,
				"y": 3.9337492669,
				"z": -1.0567919423,
				"element": "H" 
			},
			{
				"x": 0.9575943915,
				"y": 2.9729545385,
				"z": -1.6705599039,
				"element": "H" 
			},
			{
				"x": -0.6917088048,
				"y": 2.3088096201,
				"z": -1.71524728,
				"element": "H" 
			},
			{
				"x": 2.2153497838,
				"y": -0.6291097332,
				"z": 1.3234471495,
				"element": "H" 
			},
			{
				"x": 3.1882208285,
				"y": -0.6576659865,
				"z": -0.1521602194,
				"element": "H" 
			},
			{
				"x": 3.4309144038,
				"y": -2.6896252778,
				"z": 1.50582394,
				"element": "H" 
			},
			{
				"x": 3.2348129515,
				"y": -3.078669445,
				"z": -0.2086627447,
				"element": "H" 
			},
			{
				"x": 0.5751864157,
				"y": -4.4467508642,
				"z": -0.5420786148,
				"element": "H" 
			},
			{
				"x": -1.6487887681,
				"y": -3.6300778351,
				"z": -0.0722396687,
				"element": "H" 
			},
			{
				"x": -1.0425244223,
				"y": -2.4038308953,
				"z": 1.0528614201,
				"element": "H" 
			},
			{
				"x": -1.8143818875,
				"y": -4.8129244958,
				"z": 1.9924795081,
				"element": "H" 
			},
			{
				"x": -0.2317320458,
				"y": -2.1418157739,
				"z": -1.5714030337,
				"element": "H" 
			},
			{
				"x": 1.4447533297,
				"y": -2.6544419316,
				"z": -1.787242078,
				"element": "H" 
			}
		],
		 "valence_orbital": [ 
			{
				"type": "occ",
				"energy": -0.27265,
				"method": "rhf"
			},
			{
				"type": "occ",
				"energy": -0.26658,
				"method": "rhf"
			},
			{
				"type": "occ",
				"energy": -0.25249,
				"method": "rhf"
			},
			{
				"type": "occ",
				"energy": -0.24869,
				"method": "rhf"
			},
			{
				"type": "occ",
				"energy": -0.24459,
				"method": "rhf"
			},
			{
				"type": "unocc",
				"energy": -0.03412,
				"method": "rhf"
			},
			{
				"type": "unocc",
				"energy": 0.04054,
				"method": "rhf"
			},
			{
				"type": "unocc",
				"energy": 0.06624,
				"method": "rhf"
			},
			{
				"type": "unocc",
				"energy": 0.0711,
				"method": "rhf"
			},
			{
				"type": "unocc",
				"energy": 0.07999,
				"method": "rhf"
			}
		],
		"cosmo_sigma_profile": { 
			"-0.025": 0.0,
			"-0.024": 0.0,
			"-0.023": 0.0,
			"-0.022": 0.0,
			"-0.021": 0.0,
			"-0.02": 0.0,
			"-0.019": 0.0,
			"-0.018": 0.0,
			"-0.017": 0.0,
			"-0.016": 0.0,
			"-0.015": 0.50226703606,
			"-0.014": 1.29655560797,
			"-0.013": 1.30536065966,
			"-0.012": 1.45983411149,
			"-0.011": 0.768826998139,
			"-0.01": 1.08571169931,
			"-0.009": 1.03384801717,
			"-0.008": 3.30325771433,
			"-0.007": 9.76168652297,
			"-0.006": 17.794292515,
			"-0.005": 23.0498308328,
			"-0.004": 29.0444924873,
			"-0.003": 29.8674728723,
			"-0.002": 25.1656030398,
			"-0.001": 24.567731956,
			"0.0": 31.2926410911,
			"0.001": 22.3764469526,
			"0.002": 9.03952859788,
			"0.003": 7.79458996337,
			"0.004": 6.06829798768,
			"0.005": 4.574456315,
			"0.006": 5.01165578178,
			"0.007": 4.57426814176,
			"0.008": 3.60914075881,
			"0.009": 2.80082343558,
			"0.01": 4.30119456084,
			"0.011": 5.0535812187,
			"0.012": 8.7045217873,
			"0.013": 11.3527777417,
			"0.014": 3.89042742567,
			"0.015": 1.83707204708,
			"0.016": 1.56139152662,
			"0.017": 0.234538517293,
			"0.018": 0.0,
			"0.019": 0.0,
			"0.02": 0.0,
			"0.021": 0.0,
			"0.022": 0.0,
			"0.023": 0.0,
			"0.024": 0.0,
			"0.025": 0.0
		}
	}
}
