{
	 "smiles": "NC1=CC=C(C=C1)S(=O)(=O)NCC1=CC=CC=C1", 
	 "Tm": 444.15, 
	 "num_atms": 32, 
	 "gaussian": { 
		 "optdone": 1, 
		 "sigma_profile": "yes", 
		 "theory": "DFT", 
		 "functional": "B3LYP", 
		 "basiset": "6-31G**", 
		 "properties": { 
			 "R2extent": 6684.7054, 
			 "electric_dipole_moment_norm": 6.62629795738, 
			 "electric_quadrupole_moment_norm": 29.6399825206, 
			 "total_energy": -1161.89707903, 
			 "HOMO_LUMO_gap": 0.20022, 
			 "cosmo_polarized_energy": -20.77, 
			 "cosmo_cavitation_energy": 37.75, 
			 "cosmo_dispersion_energy": -26.98, 
			 "cosmo_repulsion_energy": 2.06, 
			 "cosmo_total_nonelectrostatic_energy": 12.83, 
			 "SMD_solvation_energy": 5.08 
		},
		"coords": [
			{
				"x": 4.1129403101,
				"y": -3.0146971664,
				"z": -3.1908014705,
				"element": "N" 
			},
			{
				"x": 3.0195763709,
				"y": -2.2067036061,
				"z": -2.9349271504,
				"element": "C" 
			},
			{
				"x": 3.0706092671,
				"y": -0.8238586731,
				"z": -3.1958934055,
				"element": "C" 
			},
			{
				"x": 1.9545602092,
				"y": -0.0228738113,
				"z": -2.9855901624,
				"element": "C" 
			},
			{
				"x": 0.7719327971,
				"y": -0.5912730704,
				"z": -2.5061270734,
				"element": "C" 
			},
			{
				"x": 0.7003940151,
				"y": -1.9653971719,
				"z": -2.2487167814,
				"element": "C" 
			},
			{
				"x": 1.8136413223,
				"y": -2.7644451026,
				"z": -2.4587747931,
				"element": "C" 
			},
			{
				"x": -0.6647219529,
				"y": 0.4286549826,
				"z": -2.2557444799,
				"element": "S" 
			},
			{
				"x": -0.3516980548,
				"y": 1.7675725727,
				"z": -2.7767654211,
				"element": "O" 
			},
			{
				"x": -1.8668108799,
				"y": -0.2888947184,
				"z": -2.6944064385,
				"element": "O" 
			},
			{
				"x": -0.7975518403,
				"y": 0.4611802692,
				"z": -0.561676569,
				"element": "N" 
			},
			{
				"x": 0.0217977149,
				"y": 1.4570449854,
				"z": 0.1534023427,
				"element": "C" 
			},
			{
				"x": -0.1731984462,
				"y": 1.32396042,
				"z": 1.6491134785,
				"element": "C" 
			},
			{
				"x": -0.0293495669,
				"y": 0.0813020864,
				"z": 2.2827313429,
				"element": "C" 
			},
			{
				"x": -0.1897688056,
				"y": -0.0317147034,
				"z": 3.6627808984,
				"element": "C" 
			},
			{
				"x": -0.4949877345,
				"y": 1.0961041437,
				"z": 4.430013421,
				"element": "C" 
			},
			{
				"x": -0.6419885361,
				"y": 2.3356403001,
				"z": 3.8076342254,
				"element": "C" 
			},
			{
				"x": -0.4851909393,
				"y": 2.4462987674,
				"z": 2.4239366416,
				"element": "C" 
			},
			{
				"x": 5.0132523226,
				"y": -2.5626715263,
				"z": -3.2491272104,
				"element": "H" 
			},
			{
				"x": 4.1383313857,
				"y": -3.911800892,
				"z": -2.7295005099,
				"element": "H" 
			},
			{
				"x": 3.9892219752,
				"y": -0.3833938337,
				"z": -3.5742909916,
				"element": "H" 
			},
			{
				"x": 1.9861267318,
				"y": 1.0401480719,
				"z": -3.1979286377,
				"element": "H" 
			},
			{
				"x": -0.2273040017,
				"y": -2.4011994961,
				"z": -1.8933425553,
				"element": "H" 
			},
			{
				"x": 1.7580808425,
				"y": -3.8326283764,
				"z": -2.2662533178,
				"element": "H" 
			},
			{
				"x": -1.790840323,
				"y": 0.5301266308,
				"z": -0.3445366219,
				"element": "H" 
			},
			{
				"x": 1.0677599578,
				"y": 1.2550474209,
				"z": -0.10890218,
				"element": "H" 
			},
			{
				"x": -0.1979277674,
				"y": 2.481180613,
				"z": -0.1720245175,
				"element": "H" 
			},
			{
				"x": 0.1997738419,
				"y": -0.7948985537,
				"z": 1.6833120146,
				"element": "H" 
			},
			{
				"x": -0.0763929972,
				"y": -1.0002808028,
				"z": 4.141783605,
				"element": "H" 
			},
			{
				"x": -0.620077222,
				"y": 1.0068104991,
				"z": 5.5053393683,
				"element": "H" 
			},
			{
				"x": -0.8841828529,
				"y": 3.2164668534,
				"z": 4.3954556592,
				"element": "H" 
			},
			{
				"x": -0.6062071435,
				"y": 3.4129928879,
				"z": 1.9413272897,
				"element": "H" 
			}
		],
		 "valence_orbital": [ 
			{
				"type": "occ",
				"energy": -0.26817,
				"method": "rhf"
			},
			{
				"type": "occ",
				"energy": -0.26488,
				"method": "rhf"
			},
			{
				"type": "occ",
				"energy": -0.25319,
				"method": "rhf"
			},
			{
				"type": "occ",
				"energy": -0.24565,
				"method": "rhf"
			},
			{
				"type": "occ",
				"energy": -0.22124,
				"method": "rhf"
			},
			{
				"type": "unocc",
				"energy": -0.02102,
				"method": "rhf"
			},
			{
				"type": "unocc",
				"energy": -0.01394,
				"method": "rhf"
			},
			{
				"type": "unocc",
				"energy": -0.00793,
				"method": "rhf"
			},
			{
				"type": "unocc",
				"energy": -0.00389,
				"method": "rhf"
			},
			{
				"type": "unocc",
				"energy": 0.06171,
				"method": "rhf"
			}
		],
		"cosmo_sigma_profile": { 
			"-0.025": 0.0,
			"-0.024": 0.0,
			"-0.023": 0.0,
			"-0.022": 0.0,
			"-0.021": 0.0,
			"-0.02": 0.0,
			"-0.019": 0.0,
			"-0.018": 0.0,
			"-0.017": 0.0,
			"-0.016": 0.0,
			"-0.015": 0.0,
			"-0.014": 1.03425489505,
			"-0.013": 3.28744711839,
			"-0.012": 4.50822947749,
			"-0.011": 3.63949411455,
			"-0.01": 4.1154656096,
			"-0.009": 4.38070610296,
			"-0.008": 3.6551802889,
			"-0.007": 6.41449923662,
			"-0.006": 14.8282414023,
			"-0.005": 21.6173027419,
			"-0.004": 22.1353425907,
			"-0.003": 21.9611813655,
			"-0.002": 17.0290563142,
			"-0.001": 16.3641009279,
			"0.0": 15.3866219539,
			"0.001": 16.0806793801,
			"0.002": 16.8580887609,
			"0.003": 21.4369585416,
			"0.004": 24.6428426085,
			"0.005": 14.6226750296,
			"0.006": 11.4174416754,
			"0.007": 3.84555406046,
			"0.008": 3.07809360376,
			"0.009": 4.62186457104,
			"0.01": 5.90680058573,
			"0.011": 9.77745138159,
			"0.012": 7.28869618861,
			"0.013": 0.442872470827,
			"0.014": 0.0,
			"0.015": 0.0,
			"0.016": 0.0,
			"0.017": 0.0,
			"0.018": 0.0,
			"0.019": 0.0,
			"0.02": 0.0,
			"0.021": 0.0,
			"0.022": 0.0,
			"0.023": 0.0,
			"0.024": 0.0,
			"0.025": 0.0
		}
	}
}
