{
	 "smiles": "NS(=O)(=O)C1=CN=C(S)C=C1", 
	 "Tm": 516.15, 
	 "num_atms": 17, 
	 "gaussian": { 
		 "optdone": 1, 
		 "sigma_profile": "yes", 
		 "theory": "DFT", 
		 "functional": "B3LYP", 
		 "basiset": "6-31G**", 
		 "properties": { 
			 "R2extent": 3435.5374, 
			 "electric_dipole_moment_norm": 4.83450690247, 
			 "electric_quadrupole_moment_norm": 26.1032694006, 
			 "total_energy": -1250.39257826, 
			 "HOMO_LUMO_gap": 0.19266, 
			 "cosmo_polarized_energy": -19.76, 
			 "cosmo_cavitation_energy": 24.89, 
			 "cosmo_dispersion_energy": -19.49, 
			 "cosmo_repulsion_energy": 1.47, 
			 "cosmo_total_nonelectrostatic_energy": 6.87, 
			 "SMD_solvation_energy": 2.22 
		},
		"coords": [
			{
				"x": -2.9051976265,
				"y": -2.0112211067,
				"z": -2.551106694,
				"element": "N" 
			},
			{
				"x": -3.1305832512,
				"y": -1.4782871785,
				"z": -0.9761937191,
				"element": "S" 
			},
			{
				"x": -4.2449584564,
				"y": -0.5359983564,
				"z": -1.0355303564,
				"element": "O" 
			},
			{
				"x": -3.1355380075,
				"y": -2.6831655935,
				"z": -0.1494065772,
				"element": "O" 
			},
			{
				"x": -1.6706908068,
				"y": -0.5405563175,
				"z": -0.5200704247,
				"element": "C" 
			},
			{
				"x": -1.6010187823,
				"y": 0.8296938968,
				"z": -0.7754764234,
				"element": "C" 
			},
			{
				"x": -0.5290219757,
				"y": 1.5701022077,
				"z": -0.4742360173,
				"element": "N" 
			},
			{
				"x": 0.5092665414,
				"y": 0.9604003803,
				"z": 0.1084007475,
				"element": "C" 
			},
			{
				"x": 1.9371700576,
				"y": 1.9471762155,
				"z": 0.4981588617,
				"element": "S" 
			},
			{
				"x": 0.5228751435,
				"y": -0.4087689026,
				"z": 0.4302282219,
				"element": "C" 
			},
			{
				"x": -0.5906873735,
				"y": -1.1700937413,
				"z": 0.1083136116,
				"element": "C" 
			},
			{
				"x": -2.8816999127,
				"y": -1.2601356033,
				"z": -3.2329009989,
				"element": "H" 
			},
			{
				"x": -2.1460967407,
				"y": -2.6771553827,
				"z": -2.6493856351,
				"element": "H" 
			},
			{
				"x": -2.4446746282,
				"y": 1.3498325341,
				"z": -1.2219145171,
				"element": "H" 
			},
			{
				"x": 1.4007050107,
				"y": 3.0923847966,
				"z": 0.0357835823,
				"element": "H" 
			},
			{
				"x": 1.3793308887,
				"y": -0.8533206094,
				"z": 0.9258920196,
				"element": "H" 
			},
			{
				"x": -0.6430800805,
				"y": -2.2258872389,
				"z": 0.3537443185,
				"element": "H" 
			}
		],
		 "valence_orbital": [ 
			{
				"type": "occ",
				"energy": -0.31383,
				"method": "rhf"
			},
			{
				"type": "occ",
				"energy": -0.31247,
				"method": "rhf"
			},
			{
				"type": "occ",
				"energy": -0.30822,
				"method": "rhf"
			},
			{
				"type": "occ",
				"energy": -0.28329,
				"method": "rhf"
			},
			{
				"type": "occ",
				"energy": -0.25038,
				"method": "rhf"
			},
			{
				"type": "unocc",
				"energy": -0.05772,
				"method": "rhf"
			},
			{
				"type": "unocc",
				"energy": -0.04973,
				"method": "rhf"
			},
			{
				"type": "unocc",
				"energy": 0.00086,
				"method": "rhf"
			},
			{
				"type": "unocc",
				"energy": 0.0448,
				"method": "rhf"
			},
			{
				"type": "unocc",
				"energy": 0.06423,
				"method": "rhf"
			}
		],
		"cosmo_sigma_profile": { 
			"-0.025": 0.0,
			"-0.024": 0.0,
			"-0.023": 0.0,
			"-0.022": 0.0,
			"-0.021": 0.0,
			"-0.02": 0.0,
			"-0.019": 0.0,
			"-0.018": 0.0,
			"-0.017": 0.0,
			"-0.016": 0.399429578783,
			"-0.015": 3.04133512822,
			"-0.014": 2.38264683615,
			"-0.013": 3.39346393605,
			"-0.012": 3.20057025466,
			"-0.011": 3.96864033335,
			"-0.01": 3.49169923805,
			"-0.009": 3.82154732908,
			"-0.008": 8.56781085784,
			"-0.007": 9.90635751688,
			"-0.006": 7.41408055589,
			"-0.005": 6.88083099424,
			"-0.004": 5.17872733092,
			"-0.003": 7.06945638855,
			"-0.002": 9.18066776738,
			"-0.001": 13.4822509935,
			"0.0": 17.1934333448,
			"0.001": 11.0667017869,
			"0.002": 9.53723561674,
			"0.003": 9.03632915554,
			"0.004": 6.92906694151,
			"0.005": 6.61613466491,
			"0.006": 7.95278223608,
			"0.007": 7.337136072,
			"0.008": 4.5206882563,
			"0.009": 6.51155039589,
			"0.01": 9.000274955,
			"0.011": 11.3827100274,
			"0.012": 2.92643051243,
			"0.013": 0.441382157956,
			"0.014": 0.0,
			"0.015": 0.0,
			"0.016": 0.0,
			"0.017": 0.0,
			"0.018": 0.0,
			"0.019": 0.0,
			"0.02": 0.0,
			"0.021": 0.0,
			"0.022": 0.0,
			"0.023": 0.0,
			"0.024": 0.0,
			"0.025": 0.0
		}
	}
}
