{
	 "smiles": "OC(=O)C=CC1=CC=C(C=C1[N+]([O-])=O)[N+]([O-])=O", 
	 "Tm": 452.0, 
	 "num_atms": 23, 
	 "gaussian": { 
		 "optdone": 1, 
		 "sigma_profile": "yes", 
		 "theory": "DFT", 
		 "functional": "B3LYP", 
		 "basiset": "6-31G**", 
		 "properties": { 
			 "R2extent": 5382.4491, 
			 "electric_dipole_moment_norm": 4.69879726207, 
			 "electric_quadrupole_moment_norm": 17.0010615654, 
			 "total_energy": -907.20715986, 
			 "HOMO_LUMO_gap": 0.15881, 
			 "cosmo_polarized_energy": -18.64, 
			 "cosmo_cavitation_energy": 30.87, 
			 "cosmo_dispersion_energy": -21.95, 
			 "cosmo_repulsion_energy": 1.7, 
			 "cosmo_total_nonelectrostatic_energy": 10.62, 
			 "SMD_solvation_energy": 11.09 
		},
		"coords": [
			{
				"x": 3.0664745189,
				"y": 0.2608110738,
				"z": -4.4254135983,
				"element": "O" 
			},
			{
				"x": 1.9744006727,
				"y": 0.8219424393,
				"z": -3.8525282578,
				"element": "C" 
			},
			{
				"x": 1.268252893,
				"y": 1.6286155345,
				"z": -4.4219271258,
				"element": "O" 
			},
			{
				"x": 1.7726826629,
				"y": 0.3147027832,
				"z": -2.4747108111,
				"element": "C" 
			},
			{
				"x": 0.7642014445,
				"y": 0.7921725656,
				"z": -1.7279520504,
				"element": "C" 
			},
			{
				"x": 0.4465947042,
				"y": 0.3065486777,
				"z": -0.3762763235,
				"element": "C" 
			},
			{
				"x": 0.6151052991,
				"y": -1.0606292586,
				"z": -0.0763191367,
				"element": "C" 
			},
			{
				"x": 0.2953434155,
				"y": -1.5908318793,
				"z": 1.1665856511,
				"element": "C" 
			},
			{
				"x": -0.2326128924,
				"y": -0.7448141413,
				"z": 2.1396812275,
				"element": "C" 
			},
			{
				"x": -0.4393276102,
				"y": 0.6054747316,
				"z": 1.8982673918,
				"element": "C" 
			},
			{
				"x": -0.0896583285,
				"y": 1.1139616559,
				"z": 0.6519166608,
				"element": "C" 
			},
			{
				"x": -0.2726756658,
				"y": 2.5695207889,
				"z": 0.4746252205,
				"element": "N" 
			},
			{
				"x": -1.039430293,
				"y": 3.1378935309,
				"z": 1.2473335969,
				"element": "O" 
			},
			{
				"x": 0.3652333852,
				"y": 3.1222846526,
				"z": -0.4200515279,
				"element": "O" 
			},
			{
				"x": -0.5864445458,
				"y": -1.2953647547,
				"z": 3.460027418,
				"element": "N" 
			},
			{
				"x": -1.0445575379,
				"y": -0.517909758,
				"z": 4.2931556619,
				"element": "O" 
			},
			{
				"x": -0.3971754299,
				"y": -2.497277499,
				"z": 3.6359190147,
				"element": "O" 
			},
			{
				"x": 3.1309987098,
				"y": 0.6403435212,
				"z": -5.3178110767,
				"element": "H" 
			},
			{
				"x": 2.4832114461,
				"y": -0.4193792756,
				"z": -2.1083029532,
				"element": "H" 
			},
			{
				"x": 0.1492694789,
				"y": 1.5764337762,
				"z": -2.1559406812,
				"element": "H" 
			},
			{
				"x": 0.9792919794,
				"y": -1.7192083945,
				"z": -0.8565594872,
				"element": "H" 
			},
			{
				"x": 0.4312078916,
				"y": -2.6417743743,
				"z": 1.3894471901,
				"element": "H" 
			},
			{
				"x": -0.8529861981,
				"y": 1.2516836038,
				"z": 2.6603339965,
				"element": "H" 
			}
		],
		 "valence_orbital": [ 
			{
				"type": "occ",
				"energy": -0.31735,
				"method": "rhf"
			},
			{
				"type": "occ",
				"energy": -0.31277,
				"method": "rhf"
			},
			{
				"type": "occ",
				"energy": -0.30588,
				"method": "rhf"
			},
			{
				"type": "occ",
				"energy": -0.29293,
				"method": "rhf"
			},
			{
				"type": "occ",
				"energy": -0.28422,
				"method": "rhf"
			},
			{
				"type": "unocc",
				"energy": -0.12541,
				"method": "rhf"
			},
			{
				"type": "unocc",
				"energy": -0.10731,
				"method": "rhf"
			},
			{
				"type": "unocc",
				"energy": -0.07012,
				"method": "rhf"
			},
			{
				"type": "unocc",
				"energy": -0.03998,
				"method": "rhf"
			},
			{
				"type": "unocc",
				"energy": -0.00669,
				"method": "rhf"
			}
		],
		"cosmo_sigma_profile": { 
			"-0.025": 0.0,
			"-0.024": 0.0,
			"-0.023": 0.0,
			"-0.022": 0.0,
			"-0.021": 0.0,
			"-0.02": 0.0,
			"-0.019": 0.14378618415,
			"-0.018": 1.13157202792,
			"-0.017": 0.74787425502,
			"-0.016": 0.862516929172,
			"-0.015": 0.765339077361,
			"-0.014": 0.438110663301,
			"-0.013": 0.609094775622,
			"-0.012": 1.21853808097,
			"-0.011": 0.8992641773,
			"-0.01": 1.7064709513,
			"-0.009": 7.00501981862,
			"-0.008": 9.90579084796,
			"-0.007": 9.81981552149,
			"-0.006": 10.3014220462,
			"-0.005": 12.0500766248,
			"-0.004": 15.2618915162,
			"-0.003": 25.1364217245,
			"-0.002": 18.5696253869,
			"-0.001": 14.9306811328,
			"0.0": 10.0600364594,
			"0.001": 8.03868034284,
			"0.002": 8.78528023216,
			"0.003": 7.59657806843,
			"0.004": 8.80342011656,
			"0.005": 9.53114460679,
			"0.006": 15.3329810147,
			"0.007": 18.647829447,
			"0.008": 11.2756989621,
			"0.009": 8.92173310355,
			"0.01": 2.59542702235,
			"0.011": 4.608737771,
			"0.012": 2.83485484382,
			"0.013": 0.00818791069725,
			"0.014": 0.0,
			"0.015": 0.0,
			"0.016": 0.0,
			"0.017": 0.0,
			"0.018": 0.0,
			"0.019": 0.0,
			"0.02": 0.0,
			"0.021": 0.0,
			"0.022": 0.0,
			"0.023": 0.0,
			"0.024": 0.0,
			"0.025": 0.0
		}
	}
}
