{
	 "smiles": "CCOC(=O)NC1=CC=C(Cl)C=C1", 
	 "Tm": 338.15, 
	 "num_atms": 23, 
	 "gaussian": { 
		 "optdone": 1, 
		 "sigma_profile": "yes", 
		 "theory": "DFT", 
		 "functional": "B3LYP", 
		 "basiset": "6-31G**", 
		 "properties": { 
			 "R2extent": 4575.8558, 
			 "electric_dipole_moment_norm": 1.33858243676, 
			 "electric_quadrupole_moment_norm": 18.6342038295, 
			 "total_energy": -1014.40397757, 
			 "HOMO_LUMO_gap": 0.20448, 
			 "cosmo_polarized_energy": -10.45, 
			 "cosmo_cavitation_energy": 29.32, 
			 "cosmo_dispersion_energy": -21.43, 
			 "cosmo_repulsion_energy": 1.72, 
			 "cosmo_total_nonelectrostatic_energy": 9.61, 
			 "SMD_solvation_energy": 6.05 
		},
		"coords": [
			{
				"x": -1.1238836344,
				"y": 2.7005949678,
				"z": -2.2901853545,
				"element": "C" 
			},
			{
				"x": -1.4922904329,
				"y": 1.2297675303,
				"z": -2.267179623,
				"element": "C" 
			},
			{
				"x": -0.6067578111,
				"y": 0.5754254701,
				"z": -1.3253794403,
				"element": "O" 
			},
			{
				"x": -0.8067578487,
				"y": -0.7515614701,
				"z": -1.1874781003,
				"element": "C" 
			},
			{
				"x": -1.6525935303,
				"y": -1.388851402,
				"z": -1.7879630451,
				"element": "O" 
			},
			{
				"x": 0.0499211768,
				"y": -1.3481221939,
				"z": -0.2854529726,
				"element": "N" 
			},
			{
				"x": 1.0954665738,
				"y": -0.8765485027,
				"z": 0.5307919516,
				"element": "C" 
			},
			{
				"x": 1.5240111174,
				"y": 0.4583660163,
				"z": 0.5920864195,
				"element": "C" 
			},
			{
				"x": 2.5727515796,
				"y": 0.8184244752,
				"z": 1.4378215802,
				"element": "C" 
			},
			{
				"x": 3.2017581913,
				"y": -0.1414068673,
				"z": 2.2264145012,
				"element": "C" 
			},
			{
				"x": 4.5230746925,
				"y": 0.3251163613,
				"z": 3.2889678461,
				"element": "Cl" 
			},
			{
				"x": 2.7891801561,
				"y": -1.4720362779,
				"z": 2.1781437406,
				"element": "C" 
			},
			{
				"x": 1.7434475116,
				"y": -1.8307841257,
				"z": 1.3348129917,
				"element": "C" 
			},
			{
				"x": -0.087188105,
				"y": 2.841550694,
				"z": -2.6096766281,
				"element": "H" 
			},
			{
				"x": -1.2475281337,
				"y": 3.1526155905,
				"z": -1.3017197004,
				"element": "H" 
			},
			{
				"x": -1.7736899023,
				"y": 3.2311890879,
				"z": -2.99286221,
				"element": "H" 
			},
			{
				"x": -1.3716005136,
				"y": 0.7594383683,
				"z": -3.2473009817,
				"element": "H" 
			},
			{
				"x": -2.5257396643,
				"y": 1.0688597586,
				"z": -1.9470077954,
				"element": "H" 
			},
			{
				"x": -0.144004357,
				"y": -2.3376249095,
				"z": -0.2225643315,
				"element": "H" 
			},
			{
				"x": 1.043674541,
				"y": 1.2108962005,
				"z": -0.0149288983,
				"element": "H" 
			},
			{
				"x": 2.8987340096,
				"y": 1.85194555,
				"z": 1.4801326998,
				"element": "H" 
			},
			{
				"x": 3.2787713651,
				"y": -2.2197386659,
				"z": 2.7920621156,
				"element": "H" 
			},
			{
				"x": 1.4239430184,
				"y": -2.8694156557,
				"z": 1.299465235,
				"element": "H" 
			}
		],
		 "valence_orbital": [ 
			{
				"type": "occ",
				"energy": -0.3078,
				"method": "rhf"
			},
			{
				"type": "occ",
				"energy": -0.29737,
				"method": "rhf"
			},
			{
				"type": "occ",
				"energy": -0.28345,
				"method": "rhf"
			},
			{
				"type": "occ",
				"energy": -0.26656,
				"method": "rhf"
			},
			{
				"type": "occ",
				"energy": -0.22096,
				"method": "rhf"
			},
			{
				"type": "unocc",
				"energy": -0.01648,
				"method": "rhf"
			},
			{
				"type": "unocc",
				"energy": -0.01466,
				"method": "rhf"
			},
			{
				"type": "unocc",
				"energy": 0.03004,
				"method": "rhf"
			},
			{
				"type": "unocc",
				"energy": 0.05546,
				"method": "rhf"
			},
			{
				"type": "unocc",
				"energy": 0.07843,
				"method": "rhf"
			}
		],
		"cosmo_sigma_profile": { 
			"-0.025": 0.0,
			"-0.024": 0.0,
			"-0.023": 0.0,
			"-0.022": 0.0,
			"-0.021": 0.0,
			"-0.02": 0.0,
			"-0.019": 0.0,
			"-0.018": 0.0,
			"-0.017": 0.0,
			"-0.016": 0.0949937859352,
			"-0.015": 0.890927683906,
			"-0.014": 1.19737885269,
			"-0.013": 1.45393462967,
			"-0.012": 0.633993259988,
			"-0.011": 1.07937717108,
			"-0.01": 1.02986761428,
			"-0.009": 1.22154582513,
			"-0.008": 2.42569391313,
			"-0.007": 5.12020587625,
			"-0.006": 7.25418946811,
			"-0.005": 12.5107188041,
			"-0.004": 17.7641949828,
			"-0.003": 17.5084808327,
			"-0.002": 18.579031872,
			"-0.001": 19.5856894857,
			"0.0": 22.1814586179,
			"0.001": 15.7998378206,
			"0.002": 20.9387032399,
			"0.003": 21.8862119287,
			"0.004": 18.7839548998,
			"0.005": 10.8163708337,
			"0.006": 2.11741395056,
			"0.007": 0.675012064797,
			"0.008": 0.810853452296,
			"0.009": 1.53014791892,
			"0.01": 1.54302777729,
			"0.011": 1.55570775284,
			"0.012": 3.98470853012,
			"0.013": 4.55377319563,
			"0.014": 0.0991991724721,
			"0.015": 0.0,
			"0.016": 0.0,
			"0.017": 0.0,
			"0.018": 0.0,
			"0.019": 0.0,
			"0.02": 0.0,
			"0.021": 0.0,
			"0.022": 0.0,
			"0.023": 0.0,
			"0.024": 0.0,
			"0.025": 0.0
		}
	}
}
