{
	 "smiles": "COC1=C(SC(=N1)N(C)C)C=O", 
	 "Tm": 343.15, 
	 "num_atms": 22, 
	 "gaussian": { 
		 "optdone": 1, 
		 "sigma_profile": "yes", 
		 "theory": "DFT", 
		 "functional": "B3LYP", 
		 "basiset": "6-31G**", 
		 "properties": { 
			 "R2extent": 2709.2527, 
			 "electric_dipole_moment_norm": 7.28211857498, 
			 "electric_quadrupole_moment_norm": 12.8975037717, 
			 "total_energy": -930.879187452, 
			 "HOMO_LUMO_gap": 0.16225, 
			 "cosmo_polarized_energy": -16.08, 
			 "cosmo_cavitation_energy": 27.58, 
			 "cosmo_dispersion_energy": -20.37, 
			 "cosmo_repulsion_energy": 1.6, 
			 "cosmo_total_nonelectrostatic_energy": 8.81, 
			 "SMD_solvation_energy": 5.78 
		},
		"coords": [
			{
				"x": 0.056963029,
				"y": -1.3638742025,
				"z": 2.8088957672,
				"element": "C" 
			},
			{
				"x": 0.8554497825,
				"y": -0.2631482239,
				"z": 2.3622442119,
				"element": "O" 
			},
			{
				"x": 0.7060618197,
				"y": 0.1328817874,
				"z": 1.0969112222,
				"element": "C" 
			},
			{
				"x": 1.4424523918,
				"y": 1.1894922319,
				"z": 0.567276604,
				"element": "C" 
			},
			{
				"x": 0.9466528388,
				"y": 1.4038334312,
				"z": -1.1223465332,
				"element": "S" 
			},
			{
				"x": -0.1623827929,
				"y": 0.0488836248,
				"z": -0.928096165,
				"element": "C" 
			},
			{
				"x": -0.1822742798,
				"y": -0.4900501215,
				"z": 0.277550319,
				"element": "N" 
			},
			{
				"x": -0.9202860251,
				"y": -0.4025133623,
				"z": -1.9602160137,
				"element": "N" 
			},
			{
				"x": -1.9727432456,
				"y": -1.379197323,
				"z": -1.6979233614,
				"element": "C" 
			},
			{
				"x": -0.9678258392,
				"y": 0.329229215,
				"z": -3.2152975625,
				"element": "C" 
			},
			{
				"x": 2.4428331817,
				"y": 2.0307717136,
				"z": 1.1810584525,
				"element": "C" 
			},
			{
				"x": 2.8265058613,
				"y": 1.9468942354,
				"z": 2.3396224436,
				"element": "O" 
			},
			{
				"x": 0.2699938043,
				"y": -2.2664134115,
				"z": 2.2286678092,
				"element": "H" 
			},
			{
				"x": 0.3348011079,
				"y": -1.5128664272,
				"z": 3.8525516132,
				"element": "H" 
			},
			{
				"x": -1.0096981562,
				"y": -1.1346998064,
				"z": 2.7304525087,
				"element": "H" 
			},
			{
				"x": -2.0663536408,
				"y": -2.0462799375,
				"z": -2.5596727942,
				"element": "H" 
			},
			{
				"x": -1.7065669736,
				"y": -1.9580986329,
				"z": -0.8153664878,
				"element": "H" 
			},
			{
				"x": -2.9415490425,
				"y": -0.8917328809,
				"z": -1.5213625388,
				"element": "H" 
			},
			{
				"x": -1.3786256057,
				"y": -0.3234646426,
				"z": -3.9885120032,
				"element": "H" 
			},
			{
				"x": -1.5909720606,
				"y": 1.2326824546,
				"z": -3.1510280472,
				"element": "H" 
			},
			{
				"x": 0.040768371,
				"y": 0.6215840095,
				"z": -3.5231019703,
				"element": "H" 
			},
			{
				"x": 2.8673954743,
				"y": 2.8031862686,
				"z": 0.4978925259,
				"element": "H" 
			}
		],
		 "valence_orbital": [ 
			{
				"type": "occ",
				"energy": -0.2943,
				"method": "rhf"
			},
			{
				"type": "occ",
				"energy": -0.29007,
				"method": "rhf"
			},
			{
				"type": "occ",
				"energy": -0.26488,
				"method": "rhf"
			},
			{
				"type": "occ",
				"energy": -0.22478,
				"method": "rhf"
			},
			{
				"type": "occ",
				"energy": -0.19914,
				"method": "rhf"
			},
			{
				"type": "unocc",
				"energy": -0.03689,
				"method": "rhf"
			},
			{
				"type": "unocc",
				"energy": 0.00308,
				"method": "rhf"
			},
			{
				"type": "unocc",
				"energy": 0.02522,
				"method": "rhf"
			},
			{
				"type": "unocc",
				"energy": 0.07198,
				"method": "rhf"
			},
			{
				"type": "unocc",
				"energy": 0.08938,
				"method": "rhf"
			}
		],
		"cosmo_sigma_profile": { 
			"-0.025": 0.0,
			"-0.024": 0.0,
			"-0.023": 0.0,
			"-0.022": 0.0,
			"-0.021": 0.0,
			"-0.02": 0.0,
			"-0.019": 0.0,
			"-0.018": 0.0,
			"-0.017": 0.0,
			"-0.016": 0.0,
			"-0.015": 0.0,
			"-0.014": 0.0,
			"-0.013": 0.0,
			"-0.012": 0.0,
			"-0.011": 0.0,
			"-0.01": 0.0,
			"-0.009": 0.0,
			"-0.008": 0.187767092888,
			"-0.007": 4.24737592214,
			"-0.006": 14.0912299389,
			"-0.005": 22.8740673481,
			"-0.004": 27.6087400749,
			"-0.003": 27.128192475,
			"-0.002": 16.9934268893,
			"-0.001": 12.0509268495,
			"0.0": 14.9088330629,
			"0.001": 13.283779424,
			"0.002": 11.8044468102,
			"0.003": 10.6710188853,
			"0.004": 7.55666701389,
			"0.005": 4.60332367365,
			"0.006": 4.32652750762,
			"0.007": 4.4239987818,
			"0.008": 2.38042694577,
			"0.009": 2.05339188829,
			"0.01": 2.12732703761,
			"0.011": 2.29374078614,
			"0.012": 3.0176340978,
			"0.013": 5.72966974675,
			"0.014": 3.98200012575,
			"0.015": 2.07132222417,
			"0.016": 0.585764684641,
			"0.017": 0.0,
			"0.018": 0.0,
			"0.019": 0.0,
			"0.02": 0.0,
			"0.021": 0.0,
			"0.022": 0.0,
			"0.023": 0.0,
			"0.024": 0.0,
			"0.025": 0.0
		}
	}
}
