{
	 "smiles": "OC(=O)C1=CC(NC(=O)CCl)=CC=C1", 
	 "Tm": 494.15, 
	 "num_atms": 22, 
	 "gaussian": { 
		 "optdone": 1, 
		 "sigma_profile": "yes", 
		 "theory": "DFT", 
		 "functional": "B3LYP", 
		 "basiset": "6-31G**", 
		 "properties": { 
			 "R2extent": 4184.2576, 
			 "electric_dipole_moment_norm": 6.4311078649, 
			 "electric_quadrupole_moment_norm": 18.4026825031, 
			 "total_energy": -1088.40929039, 
			 "HOMO_LUMO_gap": 0.18683, 
			 "cosmo_polarized_energy": -22.82, 
			 "cosmo_cavitation_energy": 28.82, 
			 "cosmo_dispersion_energy": -20.66, 
			 "cosmo_repulsion_energy": 1.63, 
			 "cosmo_total_nonelectrostatic_energy": 9.79, 
			 "SMD_solvation_energy": 6.51 
		},
		"coords": [
			{
				"x": 1.5709960691,
				"y": -4.2070045382,
				"z": 1.6226565909,
				"element": "O" 
			},
			{
				"x": 1.1884827125,
				"y": -3.4431317596,
				"z": 0.5654463618,
				"element": "C" 
			},
			{
				"x": 1.1308198577,
				"y": -3.9212731656,
				"z": -0.5417231559,
				"element": "O" 
			},
			{
				"x": 0.8608348795,
				"y": -2.0062992181,
				"z": 0.859248251,
				"element": "C" 
			},
			{
				"x": 0.0139879024,
				"y": -1.3487173891,
				"z": -0.0418027583,
				"element": "C" 
			},
			{
				"x": -0.3091865085,
				"y": -0.0019279032,
				"z": 0.1548988682,
				"element": "C" 
			},
			{
				"x": -1.171908597,
				"y": 0.7225320015,
				"z": -0.6953778599,
				"element": "N" 
			},
			{
				"x": -1.3601666168,
				"y": 0.7425556746,
				"z": -2.0666274102,
				"element": "C" 
			},
			{
				"x": -2.1321476149,
				"y": 1.5468751025,
				"z": -2.5611663102,
				"element": "O" 
			},
			{
				"x": -0.5678618741,
				"y": -0.2194099631,
				"z": -2.9428443187,
				"element": "C" 
			},
			{
				"x": -1.5307043385,
				"y": -1.7174279556,
				"z": -3.2774086481,
				"element": "Cl" 
			},
			{
				"x": 0.2050798606,
				"y": 0.6684124133,
				"z": 1.2800106502,
				"element": "C" 
			},
			{
				"x": 1.0408723815,
				"y": 0.0101733058,
				"z": 2.1751171225,
				"element": "C" 
			},
			{
				"x": 1.3814757371,
				"y": -1.3270459348,
				"z": 1.9671717131,
				"element": "C" 
			},
			{
				"x": 1.4033519326,
				"y": -3.7374874784,
				"z": 2.4516044714,
				"element": "H" 
			},
			{
				"x": -0.3986173748,
				"y": -1.9192494088,
				"z": -0.8648687801,
				"element": "H" 
			},
			{
				"x": -1.6813459088,
				"y": 1.4838861636,
				"z": -0.2616032968,
				"element": "H" 
			},
			{
				"x": -0.4121820853,
				"y": 0.2736925819,
				"z": -3.9005477447,
				"element": "H" 
			},
			{
				"x": 0.3824740777,
				"y": -0.5320457328,
				"z": -2.5112347213,
				"element": "H" 
			},
			{
				"x": -0.0433450622,
				"y": 1.7146236786,
				"z": 1.4364567024,
				"element": "H" 
			},
			{
				"x": 1.4434726346,
				"y": 0.5479013337,
				"z": 3.0278344968,
				"element": "H" 
			},
			{
				"x": 2.0776179358,
				"y": -1.8127318085,
				"z": 2.6453597759,
				"element": "H" 
			}
		],
		 "valence_orbital": [ 
			{
				"type": "occ",
				"energy": -0.30758,
				"method": "rhf"
			},
			{
				"type": "occ",
				"energy": -0.2894,
				"method": "rhf"
			},
			{
				"type": "occ",
				"energy": -0.27587,
				"method": "rhf"
			},
			{
				"type": "occ",
				"energy": -0.27382,
				"method": "rhf"
			},
			{
				"type": "occ",
				"energy": -0.25085,
				"method": "rhf"
			},
			{
				"type": "unocc",
				"energy": -0.06402,
				"method": "rhf"
			},
			{
				"type": "unocc",
				"energy": -0.04652,
				"method": "rhf"
			},
			{
				"type": "unocc",
				"energy": -0.01996,
				"method": "rhf"
			},
			{
				"type": "unocc",
				"energy": 0.03201,
				"method": "rhf"
			},
			{
				"type": "unocc",
				"energy": 0.0536,
				"method": "rhf"
			}
		],
		"cosmo_sigma_profile": { 
			"-0.025": 0.0,
			"-0.024": 0.0,
			"-0.023": 0.0,
			"-0.022": 0.0,
			"-0.021": 0.0,
			"-0.02": 0.0,
			"-0.019": 0.130142773489,
			"-0.018": 1.0841787071,
			"-0.017": 0.576936616425,
			"-0.016": 1.46621242495,
			"-0.015": 1.98384833358,
			"-0.014": 1.68030944258,
			"-0.013": 1.9039517187,
			"-0.012": 2.53040943121,
			"-0.011": 3.06187105652,
			"-0.01": 2.08826969107,
			"-0.009": 4.26425348874,
			"-0.008": 8.18636368756,
			"-0.007": 12.7611555439,
			"-0.006": 11.9513841917,
			"-0.005": 10.5901106128,
			"-0.004": 8.39941986621,
			"-0.003": 10.6346710341,
			"-0.002": 11.4772131717,
			"-0.001": 12.2578338235,
			"0.0": 12.4472964726,
			"0.001": 16.7829647846,
			"0.002": 16.8835410693,
			"0.003": 13.9171500401,
			"0.004": 9.5879377936,
			"0.005": 11.1977793843,
			"0.006": 4.45593530841,
			"0.007": 3.75059518395,
			"0.008": 4.56201120499,
			"0.009": 5.10631132937,
			"0.01": 6.20161049754,
			"0.011": 7.7357578128,
			"0.012": 9.36784006528,
			"0.013": 3.7629344826,
			"0.014": 0.075504476687,
			"0.015": 0.0,
			"0.016": 0.0,
			"0.017": 0.0,
			"0.018": 0.0,
			"0.019": 0.0,
			"0.02": 0.0,
			"0.021": 0.0,
			"0.022": 0.0,
			"0.023": 0.0,
			"0.024": 0.0,
			"0.0": 0.0
		}
	}
}
