{
	 "smiles": "CS(=O)(=O)N1CCCC(CCl)C1", 
	 "Tm": 338.15, 
	 "num_atms": 26, 
	 "gaussian": { 
		 "optdone": 1, 
		 "sigma_profile": "yes", 
		 "theory": "DFT", 
		 "functional": "B3LYP", 
		 "basiset": "6-31G**", 
		 "properties": { 
			 "R2extent": 3473.0182, 
			 "electric_dipole_moment_norm": 5.27864308606, 
			 "electric_quadrupole_moment_norm": 8.35517446616, 
			 "total_energy": -1338.70904652, 
			 "HOMO_LUMO_gap": 0.28554, 
			 "cosmo_polarized_energy": -16.35, 
			 "cosmo_cavitation_energy": 29.67, 
			 "cosmo_dispersion_energy": -21.87, 
			 "cosmo_repulsion_energy": 1.69, 
			 "cosmo_total_nonelectrostatic_energy": 9.5, 
			 "SMD_solvation_energy": 3.31 
		},
		"coords": [
			{
				"x": 0.8954883241,
				"y": -1.4041831862,
				"z": 2.4179355595,
				"element": "C" 
			},
			{
				"x": -0.6615174895,
				"y": -0.6149002017,
				"z": 1.9425556723,
				"element": "S" 
			},
			{
				"x": -1.7270396525,
				"y": -1.5936529784,
				"z": 2.161895783,
				"element": "O" 
			},
			{
				"x": -0.6863281068,
				"y": 0.7069742423,
				"z": 2.5717829032,
				"element": "O" 
			},
			{
				"x": -0.5763476429,
				"y": -0.3552142908,
				"z": 0.2820434643,
				"element": "N" 
			},
			{
				"x": -0.6846467643,
				"y": -1.5214628128,
				"z": -0.6103640463,
				"element": "C" 
			},
			{
				"x": -1.2097295873,
				"y": -1.0614501234,
				"z": -1.9750269773,
				"element": "C" 
			},
			{
				"x": -0.3586727241,
				"y": 0.0810749528,
				"z": -2.5496416188,
				"element": "C" 
			},
			{
				"x": -0.1977949839,
				"y": 1.2481319713,
				"z": -1.5542990899,
				"element": "C" 
			},
			{
				"x": -1.4757309411,
				"y": 2.0603025685,
				"z": -1.3224745269,
				"element": "C" 
			},
			{
				"x": -2.0647376156,
				"y": 2.8678623747,
				"z": -2.8438239301,
				"element": "Cl" 
			},
			{
				"x": 0.3170764743,
				"y": 0.7065189537,
				"z": -0.2040318392,
				"element": "C" 
			},
			{
				"x": 0.8495471899,
				"y": -1.576994891,
				"z": 3.4945010778,
				"element": "H" 
			},
			{
				"x": 0.9931422309,
				"y": -2.35467982,
				"z": 1.8908619103,
				"element": "H" 
			},
			{
				"x": 1.7255318644,
				"y": -0.7361865884,
				"z": 2.1819648088,
				"element": "H" 
			},
			{
				"x": -1.3663157218,
				"y": -2.2388143552,
				"z": -0.151297576,
				"element": "H" 
			},
			{
				"x": 0.3004761137,
				"y": -2.0052670872,
				"z": -0.7357680563,
				"element": "H" 
			},
			{
				"x": -1.2083320737,
				"y": -1.9142781422,
				"z": -2.6631048243,
				"element": "H" 
			},
			{
				"x": -2.2527585158,
				"y": -0.745371664,
				"z": -1.8635656575,
				"element": "H" 
			},
			{
				"x": 0.6426033357,
				"y": -0.3023089905,
				"z": -2.7884910235,
				"element": "H" 
			},
			{
				"x": -0.7878575958,
				"y": 0.445029259,
				"z": -3.4874069509,
				"element": "H" 
			},
			{
				"x": 0.5660469268,
				"y": 1.9352165225,
				"z": -1.9386025311,
				"element": "H" 
			},
			{
				"x": -2.2981285297,
				"y": 1.4455326048,
				"z": -0.958779647,
				"element": "H" 
			},
			{
				"x": -1.3000332155,
				"y": 2.8650724424,
				"z": -0.6070401755,
				"element": "H" 
			},
			{
				"x": 0.3497284629,
				"y": 1.4964027479,
				"z": 0.5487829308,
				"element": "H" 
			},
			{
				"x": 1.3414302376,
				"y": 0.3217464918,
				"z": -0.3481056394,
				"element": "H" 
			}
		],
		 "valence_orbital": [ 
			{
				"type": "occ",
				"energy": -0.30372,
				"method": "rhf"
			},
			{
				"type": "occ",
				"energy": -0.30165,
				"method": "rhf"
			},
			{
				"type": "occ",
				"energy": -0.2976,
				"method": "rhf"
			},
			{
				"type": "occ",
				"energy": -0.29485,
				"method": "rhf"
			},
			{
				"type": "occ",
				"energy": -0.26326,
				"method": "rhf"
			},
			{
				"type": "unocc",
				"energy": 0.02228,
				"method": "rhf"
			},
			{
				"type": "unocc",
				"energy": 0.05729,
				"method": "rhf"
			},
			{
				"type": "unocc",
				"energy": 0.07089,
				"method": "rhf"
			},
			{
				"type": "unocc",
				"energy": 0.07384,
				"method": "rhf"
			},
			{
				"type": "unocc",
				"energy": 0.08529,
				"method": "rhf"
			}
		],
		"cosmo_sigma_profile": { 
			"-0.025": 0.0,
			"-0.024": 0.0,
			"-0.023": 0.0,
			"-0.022": 0.0,
			"-0.021": 0.0,
			"-0.02": 0.0,
			"-0.019": 0.0,
			"-0.018": 0.0,
			"-0.017": 0.0,
			"-0.016": 0.0,
			"-0.015": 0.0,
			"-0.014": 0.0,
			"-0.013": 0.0,
			"-0.012": 0.0,
			"-0.011": 0.0,
			"-0.01": 0.0,
			"-0.009": 0.717177783291,
			"-0.008": 4.92245316474,
			"-0.007": 10.4927237497,
			"-0.006": 14.260053784,
			"-0.005": 19.1895927108,
			"-0.004": 30.1628183607,
			"-0.003": 25.5494110381,
			"-0.002": 17.0329170384,
			"-0.001": 12.3535136443,
			"0.0": 13.5780279706,
			"0.001": 6.49742406058,
			"0.002": 8.04500702354,
			"0.003": 6.29911120695,
			"0.004": 8.55003523894,
			"0.005": 8.79686629632,
			"0.006": 9.77283976192,
			"0.007": 8.13001072785,
			"0.008": 3.50023833796,
			"0.009": 3.28793138081,
			"0.01": 4.80754887845,
			"0.011": 9.28366624911,
			"0.012": 7.64797521129,
			"0.013": 0.697662694713,
			"0.014": 0.0,
			"0.015": 0.0,
			"0.016": 0.0,
			"0.017": 0.0,
			"0.018": 0.0,
			"0.019": 0.0,
			"0.02": 0.0,
			"0.021": 0.0,
			"0.022": 0.0,
			"0.023": 0.0,
			"0.024": 0.0,
			"0.025": 0.0
		}
	}
}
