{
	 "smiles": "OC1=CC(CC(=O)OCC2=CC=CC=C2)=CC=C1", 
	 "Tm": 353.15, 
	 "num_atms": 32, 
	 "gaussian": { 
		 "optdone": 1, 
		 "sigma_profile": "yes", 
		 "theory": "DFT", 
		 "functional": "B3LYP", 
		 "basiset": "6-31G**", 
		 "properties": { 
			 "R2extent": 5628.7513, 
			 "electric_dipole_moment_norm": 1.66035331782, 
			 "electric_quadrupole_moment_norm": 5.43570860146, 
			 "total_energy": -805.71687751, 
			 "HOMO_LUMO_gap": 0.20374, 
			 "cosmo_polarized_energy": -13.1, 
			 "cosmo_cavitation_energy": 36.75, 
			 "cosmo_dispersion_energy": -25.47, 
			 "cosmo_repulsion_energy": 2.01, 
			 "cosmo_total_nonelectrostatic_energy": 13.3, 
			 "SMD_solvation_energy": 7.15 
		},
		"coords": [
			{
				"x": 1.5768672117,
				"y": 4.43590519,
				"z": 0.2859722498,
				"element": "O" 
			},
			{
				"x": 1.8751967349,
				"y": 3.2200697902,
				"z": 0.8343124226,
				"element": "C" 
			},
			{
				"x": 2.2173095714,
				"y": 2.113483195,
				"z": 0.053902906,
				"element": "C" 
			},
			{
				"x": 2.5111407931,
				"y": 0.8859952095,
				"z": 0.6608272364,
				"element": "C" 
			},
			{
				"x": 2.9040885367,
				"y": -0.3151194698,
				"z": -0.1859517571,
				"element": "C" 
			},
			{
				"x": 1.8567659336,
				"y": -0.6642225005,
				"z": -1.2322462697,
				"element": "C" 
			},
			{
				"x": 1.5832336907,
				"y": 0.0365693848,
				"z": -2.1870448014,
				"element": "O" 
			},
			{
				"x": 1.2781137879,
				"y": -1.8523599941,
				"z": -0.9698141847,
				"element": "O" 
			},
			{
				"x": 0.250228513,
				"y": -2.3053259312,
				"z": -1.9008539243,
				"element": "C" 
			},
			{
				"x": -1.1294312399,
				"y": -1.8887920428,
				"z": -1.457885879,
				"element": "C" 
			},
			{
				"x": -1.9036979569,
				"y": -2.7412292142,
				"z": -0.6611192764,
				"element": "C" 
			},
			{
				"x": -3.1780594833,
				"y": -2.3585642916,
				"z": -0.241085342,
				"element": "C" 
			},
			{
				"x": -3.6906717213,
				"y": -1.1150297399,
				"z": -0.614992123,
				"element": "C" 
			},
			{
				"x": -2.9251881595,
				"y": -0.2579184051,
				"z": -1.4090272257,
				"element": "C" 
			},
			{
				"x": -1.6517476584,
				"y": -0.641703247,
				"z": -1.8291686364,
				"element": "C" 
			},
			{
				"x": 2.4594669502,
				"y": 0.7786980052,
				"z": 2.0536847584,
				"element": "C" 
			},
			{
				"x": 2.122050659,
				"y": 1.8930251551,
				"z": 2.8275965701,
				"element": "C" 
			},
			{
				"x": 1.8295435654,
				"y": 3.1146359094,
				"z": 2.2298959093,
				"element": "C" 
			},
			{
				"x": 1.632438021,
				"y": 4.3672315386,
				"z": -0.6761363465,
				"element": "H" 
			},
			{
				"x": 2.2357934086,
				"y": 2.1906722264,
				"z": -1.0304163273,
				"element": "H" 
			},
			{
				"x": 3.0869493015,
				"y": -1.182768237,
				"z": 0.4499794275,
				"element": "H" 
			},
			{
				"x": 3.8266979281,
				"y": -0.0942831371,
				"z": -0.7364148666,
				"element": "H" 
			},
			{
				"x": 0.487737688,
				"y": -1.9126530039,
				"z": -2.8911278778,
				"element": "H" 
			},
			{
				"x": 0.3514590104,
				"y": -3.3924797102,
				"z": -1.8996628322,
				"element": "H" 
			},
			{
				"x": -1.5061270186,
				"y": -3.7107646399,
				"z": -0.3706847944,
				"element": "H" 
			},
			{
				"x": -3.7699616906,
				"y": -3.0300055865,
				"z": 0.3743879573,
				"element": "H" 
			},
			{
				"x": -4.6833540143,
				"y": -0.815739515,
				"z": -0.2907728183,
				"element": "H" 
			},
			{
				"x": -3.3215350083,
				"y": 0.7098430285,
				"z": -1.7029408158,
				"element": "H" 
			},
			{
				"x": -1.0483159582,
				"y": 0.0237459274,
				"z": -2.4387003692,
				"element": "H" 
			},
			{
				"x": 2.6829278996,
				"y": -0.1702003091,
				"z": 2.5323881299,
				"element": "H" 
			},
			{
				"x": 2.0844950895,
				"y": 1.8052281298,
				"z": 3.909721234,
				"element": "H" 
			},
			{
				"x": 1.5646856151,
				"y": 3.988156285,
				"z": 2.8161776666,
				"element": "H" 
			}
		],
		 "valence_orbital": [ 
			{
				"type": "occ",
				"energy": -0.27628,
				"method": "rhf"
			},
			{
				"type": "occ",
				"energy": -0.25183,
				"method": "rhf"
			},
			{
				"type": "occ",
				"energy": -0.25008,
				"method": "rhf"
			},
			{
				"type": "occ",
				"energy": -0.24253,
				"method": "rhf"
			},
			{
				"type": "occ",
				"energy": -0.21754,
				"method": "rhf"
			},
			{
				"type": "unocc",
				"energy": -0.0138,
				"method": "rhf"
			},
			{
				"type": "unocc",
				"energy": -0.00534,
				"method": "rhf"
			},
			{
				"type": "unocc",
				"energy": -0.00271,
				"method": "rhf"
			},
			{
				"type": "unocc",
				"energy": 0.01133,
				"method": "rhf"
			},
			{
				"type": "unocc",
				"energy": 0.02196,
				"method": "rhf"
			}
		],
		"cosmo_sigma_profile": { 
			"-0.025": 0.0,
			"-0.024": 0.0,
			"-0.023": 0.0,
			"-0.022": 0.0,
			"-0.021": 0.0,
			"-0.02": 0.0,
			"-0.019": 0.0,
			"-0.018": 0.205009078527,
			"-0.017": 1.36064471351,
			"-0.016": 0.554330347964,
			"-0.015": 0.957300274804,
			"-0.014": 1.61517701366,
			"-0.013": 0.747663153429,
			"-0.012": 0.788476468414,
			"-0.011": 0.521383870647,
			"-0.01": 0.996649093994,
			"-0.009": 1.24192408938,
			"-0.008": 0.785515215794,
			"-0.007": 3.59179388735,
			"-0.006": 17.4343085845,
			"-0.005": 22.8058575259,
			"-0.004": 27.0804782709,
			"-0.003": 25.4030922065,
			"-0.002": 18.30470895,
			"-0.001": 17.2130131806,
			"0.0": 14.9444535075,
			"0.001": 16.0439753276,
			"0.002": 18.1001393589,
			"0.003": 19.6197505766,
			"0.004": 24.421377213,
			"0.005": 23.9196305626,
			"0.006": 13.3963619695,
			"0.007": 3.65796034782,
			"0.008": 3.38031709404,
			"0.009": 3.98868809518,
			"0.01": 3.30348402899,
			"0.011": 3.90751443793,
			"0.012": 2.55309628449,
			"0.013": 0.0,
			"0.014": 0.0,
			"0.015": 0.0,
			"0.016": 0.0,
			"0.017": 0.0,
			"0.018": 0.0,
			"0.019": 0.0,
			"0.02": 0.0,
			"0.021": 0.0,
			"0.022": 0.0,
			"0.023": 0.0,
			"0.024": 0.0,
			"0.025": 0.0
		}
	}
}
