{
	 "smiles": "NS(=O)(=O)N1CCCCC1", 
	 "Tm": 395.15, 
	 "num_atms": 22, 
	 "gaussian": { 
		 "optdone": 1, 
		 "sigma_profile": "yes", 
		 "theory": "DFT", 
		 "functional": "B3LYP", 
		 "basiset": "6-31G**", 
		 "properties": { 
			 "R2extent": 1996.0648, 
			 "electric_dipole_moment_norm": 4.27352297876, 
			 "electric_quadrupole_moment_norm": 16.6901387517, 
			 "total_energy": -855.83153048, 
			 "HOMO_LUMO_gap": 0.29513, 
			 "cosmo_polarized_energy": -13.78, 
			 "cosmo_cavitation_energy": 24.4, 
			 "cosmo_dispersion_energy": -18.93, 
			 "cosmo_repulsion_energy": 1.49, 
			 "cosmo_total_nonelectrostatic_energy": 6.96, 
			 "SMD_solvation_energy": 2.0 
		},
		"coords": [
			{
				"x": 0.9459089362,
				"y": 2.9426631149,
				"z": 0.2926515573,
				"element": "N" 
			},
			{
				"x": 1.8180194975,
				"y": 1.4967806988,
				"z": 0.5797315603,
				"element": "S" 
			},
			{
				"x": 2.9970890181,
				"y": 1.5348027575,
				"z": -0.2837608151,
				"element": "O" 
			},
			{
				"x": 1.8957803139,
				"y": 1.3642673911,
				"z": 2.0322256491,
				"element": "O" 
			},
			{
				"x": 0.8471167905,
				"y": 0.2612746688,
				"z": 0.0376288468,
				"element": "N" 
			},
			{
				"x": -0.3900001281,
				"y": 0.0440251592,
				"z": 0.8262554319,
				"element": "C" 
			},
			{
				"x": -1.2440150253,
				"y": -1.0204096002,
				"z": 0.1356925666,
				"element": "C" 
			},
			{
				"x": -1.7142522075,
				"y": -0.5607295824,
				"z": -1.2629998163,
				"element": "C" 
			},
			{
				"x": -0.6693411798,
				"y": 0.3618038648,
				"z": -1.9355703504,
				"element": "C" 
			},
			{
				"x": 0.7426690635,
				"y": 0.0553060949,
				"z": -1.4288419131,
				"element": "C" 
			},
			{
				"x": 1.4537759639,
				"y": 3.4984188476,
				"z": -0.3905882439,
				"element": "H" 
			},
			{
				"x": 0.8655645761,
				"y": 3.4504100628,
				"z": 1.1697357995,
				"element": "H" 
			},
			{
				"x": -0.9641435266,
				"y": 0.9792784541,
				"z": 0.9155837867,
				"element": "H" 
			},
			{
				"x": -0.0999729644,
				"y": -0.2694822196,
				"z": 1.8306781083,
				"element": "H" 
			},
			{
				"x": -2.1012368363,
				"y": -1.2542437248,
				"z": 0.7753181777,
				"element": "H" 
			},
			{
				"x": -0.6545261166,
				"y": -1.9411229712,
				"z": 0.0571235467,
				"element": "H" 
			},
			{
				"x": -2.6695099285,
				"y": -0.0301461833,
				"z": -1.182067975,
				"element": "H" 
			},
			{
				"x": -1.9015908597,
				"y": -1.4413945817,
				"z": -1.8873297862,
				"element": "H" 
			},
			{
				"x": -0.893115927,
				"y": 1.4120363409,
				"z": -1.7173320993,
				"element": "H" 
			},
			{
				"x": -0.6978398331,
				"y": 0.2519830638,
				"z": -3.0251630742,
				"element": "H" 
			},
			{
				"x": 1.4950841615,
				"y": 0.674219848,
				"z": -1.9193129865,
				"element": "H" 
			},
			{
				"x": 1.0089362117,
				"y": -0.9871415042,
				"z": -1.643157971,
				"element": "H" 
			}
		],
		 "valence_orbital": [ 
			{
				"type": "occ",
				"energy": -0.32224,
				"method": "rhf"
			},
			{
				"type": "occ",
				"energy": -0.31439,
				"method": "rhf"
			},
			{
				"type": "occ",
				"energy": -0.30102,
				"method": "rhf"
			},
			{
				"type": "occ",
				"energy": -0.29012,
				"method": "rhf"
			},
			{
				"type": "occ",
				"energy": -0.24641,
				"method": "rhf"
			},
			{
				"type": "unocc",
				"energy": 0.04872,
				"method": "rhf"
			},
			{
				"type": "unocc",
				"energy": 0.07385,
				"method": "rhf"
			},
			{
				"type": "unocc",
				"energy": 0.09366,
				"method": "rhf"
			},
			{
				"type": "unocc",
				"energy": 0.09756,
				"method": "rhf"
			},
			{
				"type": "unocc",
				"energy": 0.10606,
				"method": "rhf"
			}
		],
		"cosmo_sigma_profile": { 
			"-0.025": 0.0,
			"-0.024": 0.0,
			"-0.023": 0.0,
			"-0.022": 0.0,
			"-0.021": 0.0,
			"-0.02": 0.0,
			"-0.019": 0.0,
			"-0.018": 0.0,
			"-0.017": 0.0,
			"-0.016": 0.0,
			"-0.015": 0.0676714938085,
			"-0.014": 2.04071868764,
			"-0.013": 2.49313744569,
			"-0.012": 2.65683463661,
			"-0.011": 2.59869885118,
			"-0.01": 1.72915339013,
			"-0.009": 1.37024566822,
			"-0.008": 2.14740426322,
			"-0.007": 1.64618687171,
			"-0.006": 1.72646007396,
			"-0.005": 4.109199569,
			"-0.004": 15.4211742915,
			"-0.003": 25.8651064883,
			"-0.002": 30.5614710384,
			"-0.001": 16.8236423134,
			"0.0": 15.0634528281,
			"0.001": 5.84491701117,
			"0.002": 4.02983823128,
			"0.003": 4.54273139318,
			"0.004": 4.64499045549,
			"0.005": 5.03911802311,
			"0.006": 4.2257203224,
			"0.007": 5.03399042168,
			"0.008": 5.2008577966,
			"0.009": 3.86821234624,
			"0.01": 6.86844446669,
			"0.011": 10.0540703984,
			"0.012": 3.835663635,
			"0.013": 0.0,
			"0.014": 0.0,
			"0.015": 0.0,
			"0.016": 0.0,
			"0.017": 0.0,
			"0.018": 0.0,
			"0.019": 0.0,
			"0.02": 0.0,
			"0.021": 0.0,
			"0.022": 0.0,
			"0.023": 0.0,
			"0.024": 0.0,
			"0.025": 0.0
		}
	}
}
