{
	 "smiles": "ClC1=CC=C(C=C1)C1=COC(=O)N1", 
	 "Tm": 515.15, 
	 "num_atms": 19, 
	 "gaussian": { 
		 "optdone": 1, 
		 "sigma_profile": "yes", 
		 "theory": "DFT", 
		 "functional": "B3LYP", 
		 "basiset": "6-31G**", 
		 "properties": { 
			 "R2extent": 3853.5769, 
			 "electric_dipole_moment_norm": 3.38192544418, 
			 "electric_quadrupole_moment_norm": 25.9177039722, 
			 "total_energy": -1011.96617828, 
			 "HOMO_LUMO_gap": 0.168, 
			 "cosmo_polarized_energy": -14.9, 
			 "cosmo_cavitation_energy": 26.18, 
			 "cosmo_dispersion_energy": -19.59, 
			 "cosmo_repulsion_energy": 1.53, 
			 "cosmo_total_nonelectrostatic_energy": 8.13, 
			 "SMD_solvation_energy": 5.86 
		},
		"coords": [
			{
				"x": -2.8386010304,
				"y": 3.0909810678,
				"z": 2.038252274,
				"element": "Cl" 
			},
			{
				"x": -1.8484027027,
				"y": 1.875764231,
				"z": 1.2504654232,
				"element": "C" 
			},
			{
				"x": -2.0733868907,
				"y": 1.5694554923,
				"z": -0.0930927802,
				"element": "C" 
			},
			{
				"x": -1.2943359296,
				"y": 0.5965182751,
				"z": -0.7101592981,
				"element": "C" 
			},
			{
				"x": -0.2745910023,
				"y": -0.0686763842,
				"z": -0.006885713,
				"element": "C" 
			},
			{
				"x": -0.0687397632,
				"y": 0.2600829033,
				"z": 1.3433952012,
				"element": "C" 
			},
			{
				"x": -0.8513169242,
				"y": 1.2242687394,
				"z": 1.9749686323,
				"element": "C" 
			},
			{
				"x": 0.5513044061,
				"y": -1.0720879011,
				"z": -0.6741417978,
				"element": "C" 
			},
			{
				"x": 0.8871836961,
				"y": -1.2256466695,
				"z": -1.9734242553,
				"element": "C" 
			},
			{
				"x": 1.7162274649,
				"y": -2.3138493436,
				"z": -2.1330970911,
				"element": "O" 
			},
			{
				"x": 1.9203136252,
				"y": -2.8968582934,
				"z": -0.8889619558,
				"element": "C" 
			},
			{
				"x": 2.5739604447,
				"y": -3.8905773766,
				"z": -0.6943263297,
				"element": "O" 
			},
			{
				"x": 1.2279515811,
				"y": -2.1003596125,
				"z": 0.0015901561,
				"element": "N" 
			},
			{
				"x": -2.8594951939,
				"y": 2.0764567078,
				"z": -0.6413627341,
				"element": "H" 
			},
			{
				"x": -1.4924520047,
				"y": 0.3339152229,
				"z": -1.744726395,
				"element": "H" 
			},
			{
				"x": 0.7281684733,
				"y": -0.2182511324,
				"z": 1.9051473444,
				"element": "H" 
			},
			{
				"x": -0.6837027919,
				"y": 1.4749847583,
				"z": 3.0164216835,
				"element": "H" 
			},
			{
				"x": 0.6687533404,
				"y": -0.6446525608,
				"z": -2.8539485318,
				"element": "H" 
			},
			{
				"x": 1.0781612017,
				"y": -2.3889681237,
				"z": 0.9548861674,
				"element": "H" 
			}
		],
		 "valence_orbital": [ 
			{
				"type": "occ",
				"energy": -0.32478,
				"method": "rhf"
			},
			{
				"type": "occ",
				"energy": -0.28642,
				"method": "rhf"
			},
			{
				"type": "occ",
				"energy": -0.28261,
				"method": "rhf"
			},
			{
				"type": "occ",
				"energy": -0.27079,
				"method": "rhf"
			},
			{
				"type": "occ",
				"energy": -0.21849,
				"method": "rhf"
			},
			{
				"type": "unocc",
				"energy": -0.05049,
				"method": "rhf"
			},
			{
				"type": "unocc",
				"energy": -0.03283,
				"method": "rhf"
			},
			{
				"type": "unocc",
				"energy": 0.01678,
				"method": "rhf"
			},
			{
				"type": "unocc",
				"energy": 0.03529,
				"method": "rhf"
			},
			{
				"type": "unocc",
				"energy": 0.04791,
				"method": "rhf"
			}
		],
		"cosmo_sigma_profile": { 
			"-0.025": 0.0,
			"-0.024": 0.0,
			"-0.023": 0.0,
			"-0.022": 0.0,
			"-0.021": 0.0,
			"-0.02": 0.0,
			"-0.019": 0.0,
			"-0.018": 0.0224642766716,
			"-0.017": 0.614122342205,
			"-0.016": 1.21917803044,
			"-0.015": 1.02299957998,
			"-0.014": 1.01654656882,
			"-0.013": 1.03487413142,
			"-0.012": 1.54222381134,
			"-0.011": 1.55486051182,
			"-0.01": 2.84646652947,
			"-0.009": 4.00634497531,
			"-0.008": 5.20726223489,
			"-0.007": 9.63768615205,
			"-0.006": 8.95345030897,
			"-0.005": 8.81273665057,
			"-0.004": 8.42854766946,
			"-0.003": 9.81498275242,
			"-0.002": 10.525765569,
			"-0.001": 13.1390062475,
			"0.0": 16.5805462204,
			"0.001": 20.8848526939,
			"0.002": 20.8594244682,
			"0.003": 20.0932970332,
			"0.004": 11.8152197192,
			"0.005": 7.01675030441,
			"0.006": 2.45267686174,
			"0.007": 2.79674710807,
			"0.008": 3.92510711206,
			"0.009": 2.09860428038,
			"0.01": 2.07479000959,
			"0.011": 2.07953922163,
			"0.012": 6.65240361895,
			"0.013": 4.4235040588,
			"0.014": 0.200347713148,
			"0.015": 0.0,
			"0.016": 0.0,
			"0.017": 0.0,
			"0.018": 0.0,
			"0.019": 0.0,
			"0.02": 0.0,
			"0.021": 0.0,
			"0.022": 0.0,
			"0.023": 0.0,
			"0.024": 0.0,
			"0.025": 0.0
		}
	}
}
