{
	 "smiles": "CC1(C)OCC(CO)O1", 
	 "Tm": 246.15, 
	 "num_atms": 21, 
	 "gaussian": { 
		 "optdone": 1, 
		 "sigma_profile": "yes", 
		 "theory": "DFT", 
		 "functional": "B3LYP", 
		 "basiset": "6-31G**", 
		 "properties": { 
			 "R2extent": 1490.375, 
			 "electric_dipole_moment_norm": 1.79183015657, 
			 "electric_quadrupole_moment_norm": 7.66269946494, 
			 "total_energy": -461.523846414, 
			 "HOMO_LUMO_gap": 0.31117, 
			 "cosmo_polarized_energy": -9.08, 
			 "cosmo_cavitation_energy": 23.07, 
			 "cosmo_dispersion_energy": -16.87, 
			 "cosmo_repulsion_energy": 1.41, 
			 "cosmo_total_nonelectrostatic_energy": 7.61, 
			 "SMD_solvation_energy": 4.03 
		},
		"coords": [
			{
				"x": 0.9935208051,
				"y": 1.2614217883,
				"z": -1.0822277238,
				"element": "C" 
			},
			{
				"x": 0.6414065487,
				"y": -0.0959411981,
				"z": -0.4740107209,
				"element": "C" 
			},
			{
				"x": 0.8002904314,
				"y": -1.2515923442,
				"z": -1.456418304,
				"element": "C" 
			},
			{
				"x": 1.4578756468,
				"y": -0.3693945125,
				"z": 0.6661332868,
				"element": "O" 
			},
			{
				"x": 0.6996998191,
				"y": -0.0480998078,
				"z": 1.8260997768,
				"element": "C" 
			},
			{
				"x": -0.7302841078,
				"y": -0.367526483,
				"z": 1.3894169327,
				"element": "C" 
			},
			{
				"x": -1.8133704704,
				"y": 0.4496277855,
				"z": 2.0750232212,
				"element": "C" 
			},
			{
				"x": -1.7811075288,
				"y": 0.098846622,
				"z": 3.4524360839,
				"element": "O" 
			},
			{
				"x": -0.7142890371,
				"y": -0.0357832403,
				"z": 0.0025206656,
				"element": "O" 
			},
			{
				"x": 0.3078901103,
				"y": 1.5013984246,
				"z": -1.8999532153,
				"element": "H" 
			},
			{
				"x": 0.9129623011,
				"y": 2.0446290851,
				"z": -0.3237318993,
				"element": "H" 
			},
			{
				"x": 2.0159686056,
				"y": 1.2509151822,
				"z": -1.4701686932,
				"element": "H" 
			},
			{
				"x": 0.1776121766,
				"y": -1.0877972716,
				"z": -2.3402013021,
				"element": "H" 
			},
			{
				"x": 1.8437237572,
				"y": -1.3413551953,
				"z": -1.7717873703,
				"element": "H" 
			},
			{
				"x": 0.4982294924,
				"y": -2.1859963676,
				"z": -0.9772864946,
				"element": "H" 
			},
			{
				"x": 1.0562139893,
				"y": -0.6587374718,
				"z": 2.6576482361,
				"element": "H" 
			},
			{
				"x": 0.7998901211,
				"y": 1.0153323759,
				"z": 2.095178634,
				"element": "H" 
			},
			{
				"x": -0.9401701389,
				"y": -1.4385027673,
				"z": 1.5308200701,
				"element": "H" 
			},
			{
				"x": -2.7861631423,
				"y": 0.2246778394,
				"z": 1.6133382514,
				"element": "H" 
			},
			{
				"x": -1.6046071014,
				"y": 1.5187644417,
				"z": 1.9135278201,
				"element": "H" 
			},
			{
				"x": -2.471492278,
				"y": 0.5950131147,
				"z": 3.9077427448,
				"element": "H" 
			}
		],
		 "valence_orbital": [ 
			{
				"type": "occ",
				"energy": -0.3281,
				"method": "rhf"
			},
			{
				"type": "occ",
				"energy": -0.32043,
				"method": "rhf"
			},
			{
				"type": "occ",
				"energy": -0.27483,
				"method": "rhf"
			},
			{
				"type": "occ",
				"energy": -0.26196,
				"method": "rhf"
			},
			{
				"type": "occ",
				"energy": -0.24744,
				"method": "rhf"
			},
			{
				"type": "unocc",
				"energy": 0.06373,
				"method": "rhf"
			},
			{
				"type": "unocc",
				"energy": 0.09022,
				"method": "rhf"
			},
			{
				"type": "unocc",
				"energy": 0.11314,
				"method": "rhf"
			},
			{
				"type": "unocc",
				"energy": 0.12023,
				"method": "rhf"
			},
			{
				"type": "unocc",
				"energy": 0.12836,
				"method": "rhf"
			}
		],
		"cosmo_sigma_profile": { 
			"-0.025": 0.0,
			"-0.024": 0.0,
			"-0.023": 0.0,
			"-0.022": 0.0,
			"-0.021": 0.0,
			"-0.02": 0.0,
			"-0.019": 0.0,
			"-0.018": 0.0,
			"-0.017": 0.0,
			"-0.016": 0.829451373334,
			"-0.015": 1.00015234135,
			"-0.014": 1.29544767962,
			"-0.013": 0.771648493263,
			"-0.012": 0.633664867362,
			"-0.011": 0.877243010567,
			"-0.01": 0.813598953298,
			"-0.009": 0.54113394817,
			"-0.008": 1.04990114892,
			"-0.007": 1.39139932352,
			"-0.006": 1.98858010523,
			"-0.005": 3.95701476376,
			"-0.004": 22.9107952083,
			"-0.003": 23.9607881398,
			"-0.002": 21.1554426568,
			"-0.001": 16.4412275672,
			"0.0": 18.7791189212,
			"0.001": 11.3170955665,
			"0.002": 4.90837508393,
			"0.003": 5.57162419498,
			"0.004": 4.24820095786,
			"0.005": 3.84580437284,
			"0.006": 4.52290003257,
			"0.007": 3.74227328468,
			"0.008": 3.41686675938,
			"0.009": 2.93078829157,
			"0.01": 3.97241720971,
			"0.011": 4.38394816463,
			"0.012": 3.78702519928,
			"0.013": 2.83435091362,
			"0.014": 0.451899873841,
			"0.015": 0.0,
			"0.016": 0.0,
			"0.017": 0.0,
			"0.018": 0.0,
			"0.019": 0.0,
			"0.02": 0.0,
			"0.021": 0.0,
			"0.022": 0.0,
			"0.023": 0.0,
			"0.024": 0.0,
			"0.025": 0.0
		}
	}
}
