{
	 "smiles": "ClCC(=O)N(CC=C)CC=C", 
	 "Tm": 298.15, 
	 "num_atms": 23, 
	 "gaussian": { 
		 "optdone": 1, 
		 "sigma_profile": "yes", 
		 "theory": "DFT", 
		 "functional": "B3LYP", 
		 "basiset": "6-31G**", 
		 "properties": { 
			 "R2extent": 2564.194, 
			 "electric_dipole_moment_norm": 3.70978764082, 
			 "electric_quadrupole_moment_norm": 7.95616130304, 
			 "total_energy": -902.206061495, 
			 "HOMO_LUMO_gap": 0.22705, 
			 "cosmo_polarized_energy": -11.35, 
			 "cosmo_cavitation_energy": 28.61, 
			 "cosmo_dispersion_energy": -19.16, 
			 "cosmo_repulsion_energy": 1.56, 
			 "cosmo_total_nonelectrostatic_energy": 11.01, 
			 "SMD_solvation_energy": 6.31 
		},
		"coords": [
			{
				"x": 2.4375900958,
				"y": 0.9072078337,
				"z": 1.9408062748,
				"element": "Cl" 
			},
			{
				"x": 0.7263335983,
				"y": 0.4842981253,
				"z": 2.3970408347,
				"element": "C" 
			},
			{
				"x": -0.2946506685,
				"y": 1.0485415228,
				"z": 1.405615957,
				"element": "C" 
			},
			{
				"x": -0.9519559354,
				"y": 2.0347415998,
				"z": 1.7182123061,
				"element": "O" 
			},
			{
				"x": -0.4527901575,
				"y": 0.397297913,
				"z": 0.2101629518,
				"element": "N" 
			},
			{
				"x": -1.4346301349,
				"y": 0.9506448905,
				"z": -0.7384817388,
				"element": "C" 
			},
			{
				"x": -0.8128885078,
				"y": 1.9070358961,
				"z": -1.7258784908,
				"element": "C" 
			},
			{
				"x": -1.121478532,
				"y": 3.2009679274,
				"z": -1.7967344551,
				"element": "C" 
			},
			{
				"x": 0.2835529932,
				"y": -0.8125826265,
				"z": -0.1811869228,
				"element": "C" 
			},
			{
				"x": -0.3408227147,
				"y": -2.084481101,
				"z": 0.3407365594,
				"element": "C" 
			},
			{
				"x": 0.3350941054,
				"y": -3.0465885179,
				"z": 0.9697967258,
				"element": "C" 
			},
			{
				"x": 0.5344798374,
				"y": 0.9603612395,
				"z": 3.3555943617,
				"element": "H" 
			},
			{
				"x": 0.6807103465,
				"y": -0.6010892905,
				"z": 2.4891843878,
				"element": "H" 
			},
			{
				"x": -1.9004072591,
				"y": 0.105719636,
				"z": -1.261166225,
				"element": "H" 
			},
			{
				"x": -2.2037070092,
				"y": 1.460497323,
				"z": -0.1568570674,
				"element": "H" 
			},
			{
				"x": -0.0647404356,
				"y": 1.491342212,
				"z": -2.4012577934,
				"element": "H" 
			},
			{
				"x": -0.6521610381,
				"y": 3.8610366717,
				"z": -2.52038954,
				"element": "H" 
			},
			{
				"x": -1.8507803368,
				"y": 3.6467313504,
				"z": -1.125455751,
				"element": "H" 
			},
			{
				"x": 1.3272251602,
				"y": -0.739927083,
				"z": 0.134099332,
				"element": "H" 
			},
			{
				"x": 0.2983938717,
				"y": -0.8303253978,
				"z": -1.2774793861,
				"element": "H" 
			},
			{
				"x": -1.4117526223,
				"y": -2.1940749562,
				"z": 0.1708088705,
				"element": "H" 
			},
			{
				"x": -0.1505050616,
				"y": -3.9545990289,
				"z": 1.3141943148,
				"element": "H" 
			},
			{
				"x": 1.4045904049,
				"y": -2.9659561393,
				"z": 1.1524344943,
				"element": "H" 
			}
		],
		 "valence_orbital": [ 
			{
				"type": "occ",
				"energy": -0.30372,
				"method": "rhf"
			},
			{
				"type": "occ",
				"energy": -0.28048,
				"method": "rhf"
			},
			{
				"type": "occ",
				"energy": -0.26913,
				"method": "rhf"
			},
			{
				"type": "occ",
				"energy": -0.2508,
				"method": "rhf"
			},
			{
				"type": "occ",
				"energy": -0.24597,
				"method": "rhf"
			},
			{
				"type": "unocc",
				"energy": -0.01892,
				"method": "rhf"
			},
			{
				"type": "unocc",
				"energy": -0.00448,
				"method": "rhf"
			},
			{
				"type": "unocc",
				"energy": 0.01384,
				"method": "rhf"
			},
			{
				"type": "unocc",
				"energy": 0.05767,
				"method": "rhf"
			},
			{
				"type": "unocc",
				"energy": 0.08725,
				"method": "rhf"
			}
		],
		"cosmo_sigma_profile": { 
			"-0.025": 0.0,
			"-0.024": 0.0,
			"-0.023": 0.0,
			"-0.022": 0.0,
			"-0.021": 0.0,
			"-0.02": 0.0,
			"-0.019": 0.0,
			"-0.018": 0.0,
			"-0.017": 0.0,
			"-0.016": 0.0,
			"-0.015": 0.0,
			"-0.014": 0.0,
			"-0.013": 0.0,
			"-0.012": 0.0,
			"-0.011": 0.0,
			"-0.01": 0.0,
			"-0.009": 0.0878216551436,
			"-0.008": 1.48470208287,
			"-0.007": 5.67333955341,
			"-0.006": 14.28909577,
			"-0.005": 23.0200779168,
			"-0.004": 19.6951733567,
			"-0.003": 20.1492773212,
			"-0.002": 17.5044048665,
			"-0.001": 18.5932608342,
			"0.0": 14.0958248227,
			"0.001": 13.283376159,
			"0.002": 14.7677474745,
			"0.003": 13.0284857244,
			"0.004": 12.9614255535,
			"0.005": 12.8837682837,
			"0.006": 8.86503807725,
			"0.007": 2.59655093886,
			"0.008": 2.24157413987,
			"0.009": 1.73870926371,
			"0.01": 1.41026799809,
			"0.011": 2.11618993011,
			"0.012": 1.92754388772,
			"0.013": 4.15518213947,
			"0.014": 1.87723760647,
			"0.015": 0.0209124508066,
			"0.016": 0.0,
			"0.017": 0.0,
			"0.018": 0.0,
			"0.019": 0.0,
			"0.02": 0.0,
			"0.021": 0.0,
			"0.022": 0.0,
			"0.023": 0.0,
			"0.024": 0.0,
			"0.025": 0.0
		}
	}
}
