{
	 "smiles": "CC1(C)CCC(=O)CC1=O", 
	 "Tm": 377.15, 
	 "num_atms": 22, 
	 "gaussian": { 
		 "optdone": 1, 
		 "sigma_profile": "yes", 
		 "theory": "DFT", 
		 "functional": "B3LYP", 
		 "basiset": "6-31G**", 
		 "properties": { 
			 "R2extent": 1535.5293, 
			 "electric_dipole_moment_norm": 3.78792905689, 
			 "electric_quadrupole_moment_norm": 9.37847167187, 
			 "total_energy": -462.536834857, 
			 "HOMO_LUMO_gap": 0.2103, 
			 "cosmo_polarized_energy": -11.85, 
			 "cosmo_cavitation_energy": 23.68, 
			 "cosmo_dispersion_energy": -17.1, 
			 "cosmo_repulsion_energy": 1.38, 
			 "cosmo_total_nonelectrostatic_energy": 7.96, 
			 "SMD_solvation_energy": 5.11 
		},
		"coords": [
			{
				"x": -0.7346663056,
				"y": -0.4957718343,
				"z": 1.5054221679,
				"element": "C" 
			},
			{
				"x": -0.5400393848,
				"y": 0.0614423625,
				"z": 0.0734874895,
				"element": "C" 
			},
			{
				"x": -1.7696626847,
				"y": 0.8928814698,
				"z": -0.3183566737,
				"element": "C" 
			},
			{
				"x": -0.3349303513,
				"y": -1.089963816,
				"z": -0.9477985213,
				"element": "C" 
			},
			{
				"x": 0.9728837675,
				"y": -1.8859266319,
				"z": -0.7735238038,
				"element": "C" 
			},
			{
				"x": 2.1838309596,
				"y": -0.9676968241,
				"z": -0.7775061057,
				"element": "C" 
			},
			{
				"x": 3.1701588732,
				"y": -1.1659883212,
				"z": -1.4560967554,
				"element": "O" 
			},
			{
				"x": 2.069169315,
				"y": 0.2481603122,
				"z": 0.1411311619,
				"element": "C" 
			},
			{
				"x": 0.7134210296,
				"y": 0.9567610024,
				"z": 0.0642576252,
				"element": "C" 
			},
			{
				"x": 0.6537108732,
				"y": 2.1681054077,
				"z": 0.001932369,
				"element": "O" 
			},
			{
				"x": -0.876244061,
				"y": 0.3205863575,
				"z": 2.2205119469,
				"element": "H" 
			},
			{
				"x": 0.1101026866,
				"y": -1.099383338,
				"z": 1.8503546871,
				"element": "H" 
			},
			{
				"x": -1.6280813935,
				"y": -1.1287071901,
				"z": 1.5364820215,
				"element": "H" 
			},
			{
				"x": -2.6686557082,
				"y": 0.2676306463,
				"z": -0.3086910023,
				"element": "H" 
			},
			{
				"x": -1.9144506957,
				"y": 1.7245609263,
				"z": 0.37490171,
				"element": "H" 
			},
			{
				"x": -1.6556935783,
				"y": 1.3180067661,
				"z": -1.319681561,
				"element": "H" 
			},
			{
				"x": -1.1889374032,
				"y": -1.7737730244,
				"z": -0.8812028761,
				"element": "H" 
			},
			{
				"x": -0.3563222448,
				"y": -0.6662012853,
				"z": -1.960016463,
				"element": "H" 
			},
			{
				"x": 0.9599261762,
				"y": -2.4271485362,
				"z": 0.1825958878,
				"element": "H" 
			},
			{
				"x": 1.0984429662,
				"y": -2.626540977,
				"z": -1.5671718452,
				"element": "H" 
			},
			{
				"x": 2.1899573728,
				"y": -0.1182606714,
				"z": 1.1717049821,
				"element": "H" 
			},
			{
				"x": 2.8701797914,
				"y": 0.9596271991,
				"z": -0.0647364415,
				"element": "H" 
			}
		],
		 "valence_orbital": [ 
			{
				"type": "occ",
				"energy": -0.36101,
				"method": "rhf"
			},
			{
				"type": "occ",
				"energy": -0.33641,
				"method": "rhf"
			},
			{
				"type": "occ",
				"energy": -0.33437,
				"method": "rhf"
			},
			{
				"type": "occ",
				"energy": -0.25906,
				"method": "rhf"
			},
			{
				"type": "occ",
				"energy": -0.24495,
				"method": "rhf"
			},
			{
				"type": "unocc",
				"energy": -0.03465,
				"method": "rhf"
			},
			{
				"type": "unocc",
				"energy": -0.01265,
				"method": "rhf"
			},
			{
				"type": "unocc",
				"energy": 0.06884,
				"method": "rhf"
			},
			{
				"type": "unocc",
				"energy": 0.09687,
				"method": "rhf"
			},
			{
				"type": "unocc",
				"energy": 0.11515,
				"method": "rhf"
			}
		],
		"cosmo_sigma_profile": { 
			"-0.025": 0.0,
			"-0.024": 0.0,
			"-0.023": 0.0,
			"-0.022": 0.0,
			"-0.021": 0.0,
			"-0.02": 0.0,
			"-0.019": 0.0,
			"-0.018": 0.0,
			"-0.017": 0.0,
			"-0.016": 0.0,
			"-0.015": 0.0,
			"-0.014": 0.0,
			"-0.013": 0.0,
			"-0.012": 0.0,
			"-0.011": 0.027226103259,
			"-0.01": 0.79432139104,
			"-0.009": 2.04929963449,
			"-0.008": 4.66348336993,
			"-0.007": 4.23243731573,
			"-0.006": 6.67098217113,
			"-0.005": 9.38744588768,
			"-0.004": 21.2504121464,
			"-0.003": 25.7808839672,
			"-0.002": 21.2916908195,
			"-0.001": 15.5876998989,
			"0.0": 14.036138027,
			"0.001": 9.86096167867,
			"0.002": 4.3210542194,
			"0.003": 3.24038259792,
			"0.004": 2.69360439293,
			"0.005": 3.13221586738,
			"0.006": 3.61797782961,
			"0.007": 2.39795109703,
			"0.008": 2.97709187978,
			"0.009": 4.1176454705,
			"0.01": 4.79949171953,
			"0.011": 7.90653850028,
			"0.012": 7.36777914318,
			"0.013": 1.87727440945,
			"0.014": 0.0,
			"0.015": 0.0,
			"0.016": 0.0,
			"0.017": 0.0,
			"0.018": 0.0,
			"0.019": 0.0,
			"0.02": 0.0,
			"0.021": 0.0,
			"0.022": 0.0,
			"0.023": 0.0,
			"0.024": 0.0,
			"0.025": 0.0
		}
	}
}
