{
	 "smiles": "OC1=CC(OCC2=CC=CC=C2)=CC=N1", 
	 "Tm": 469.15, 
	 "num_atms": 26, 
	 "gaussian": { 
		 "optdone": 1, 
		 "sigma_profile": "yes", 
		 "theory": "DFT", 
		 "functional": "B3LYP", 
		 "basiset": "6-31G**", 
		 "properties": { 
			 "R2extent": 4024.9541, 
			 "electric_dipole_moment_norm": 1.86038143401, 
			 "electric_quadrupole_moment_norm": 2.89457770322, 
			 "total_energy": -669.101598015, 
			 "HOMO_LUMO_gap": 0.21768, 
			 "cosmo_polarized_energy": -10.24, 
			 "cosmo_cavitation_energy": 30.31, 
			 "cosmo_dispersion_energy": -21.84, 
			 "cosmo_repulsion_energy": 1.72, 
			 "cosmo_total_nonelectrostatic_energy": 10.19, 
			 "SMD_solvation_energy": 4.44 
		},
		"coords": [
			{
				"x": 3.1063270696,
				"y": -0.3801641239,
				"z": -1.3187292812,
				"element": "O" 
			},
			{
				"x": 1.9882373577,
				"y": -0.5816638585,
				"z": -2.0552126258,
				"element": "C" 
			},
			{
				"x": 0.7567589467,
				"y": -0.5934723046,
				"z": -1.3835264479,
				"element": "C" 
			},
			{
				"x": -0.3829663378,
				"y": -0.8045407924,
				"z": -2.156311507,
				"element": "C" 
			},
			{
				"x": -1.6524363261,
				"y": -0.865057037,
				"z": -1.6744876616,
				"element": "O" 
			},
			{
				"x": -1.8717239326,
				"y": -0.7980122151,
				"z": -0.2615543527,
				"element": "C" 
			},
			{
				"x": -1.7870372227,
				"y": 0.6023804236,
				"z": 0.3116051701,
				"element": "C" 
			},
			{
				"x": -1.3391476126,
				"y": 0.7961278504,
				"z": 1.6231847623,
				"element": "C" 
			},
			{
				"x": -1.3158094312,
				"y": 2.0746914317,
				"z": 2.1833266182,
				"element": "C" 
			},
			{
				"x": -1.7326966691,
				"y": 3.1739618214,
				"z": 1.4315282704,
				"element": "C" 
			},
			{
				"x": -2.1751749625,
				"y": 2.9875335824,
				"z": 0.119730276,
				"element": "C" 
			},
			{
				"x": -2.2067427467,
				"y": 1.7088830392,
				"z": -0.4362991332,
				"element": "C" 
			},
			{
				"x": -0.2465578516,
				"y": -0.9829543806,
				"z": -3.5465065111,
				"element": "C" 
			},
			{
				"x": 1.0277147822,
				"y": -0.9458069131,
				"z": -4.0849232217,
				"element": "C" 
			},
			{
				"x": 2.147087182,
				"y": -0.7508456612,
				"z": -3.364135485,
				"element": "N" 
			},
			{
				"x": 3.8403779117,
				"y": -0.3984478909,
				"z": -1.9533539588,
				"element": "H" 
			},
			{
				"x": 0.7302366605,
				"y": -0.414684583,
				"z": -0.3178508723,
				"element": "H" 
			},
			{
				"x": -2.8843999871,
				"y": -1.1964540355,
				"z": -0.1386276031,
				"element": "H" 
			},
			{
				"x": -1.18524974,
				"y": -1.4754023375,
				"z": 0.2614564919,
				"element": "H" 
			},
			{
				"x": -1.00464787,
				"y": -0.0563591073,
				"z": 2.2104578462,
				"element": "H" 
			},
			{
				"x": -0.9633770095,
				"y": 2.2115482225,
				"z": 3.2016369939,
				"element": "H" 
			},
			{
				"x": -1.7087970727,
				"y": 4.1704891072,
				"z": 1.8628261269,
				"element": "H" 
			},
			{
				"x": -2.4970357429,
				"y": 3.8400661139,
				"z": -0.4716185097,
				"element": "H" 
			},
			{
				"x": -2.5468812416,
				"y": 1.5626255065,
				"z": -1.4568733275,
				"element": "H" 
			},
			{
				"x": -1.1243810348,
				"y": -1.1498237733,
				"z": -4.1591936295,
				"element": "H" 
			},
			{
				"x": 1.1714228808,
				"y": -1.0818180848,
				"z": -5.1548484277,
				"element": "H" 
			}
		],
		 "valence_orbital": [ 
			{
				"type": "occ",
				"energy": -0.26632,
				"method": "rhf"
			},
			{
				"type": "occ",
				"energy": -0.25551,
				"method": "rhf"
			},
			{
				"type": "occ",
				"energy": -0.25134,
				"method": "rhf"
			},
			{
				"type": "occ",
				"energy": -0.24662,
				"method": "rhf"
			},
			{
				"type": "occ",
				"energy": -0.22891,
				"method": "rhf"
			},
			{
				"type": "unocc",
				"energy": -0.01123,
				"method": "rhf"
			},
			{
				"type": "unocc",
				"energy": -0.00842,
				"method": "rhf"
			},
			{
				"type": "unocc",
				"energy": -0.00397,
				"method": "rhf"
			},
			{
				"type": "unocc",
				"energy": 0.01228,
				"method": "rhf"
			},
			{
				"type": "unocc",
				"energy": 0.09035,
				"method": "rhf"
			}
		],
		"cosmo_sigma_profile": { 
			"-0.025": 0.0,
			"-0.024": 0.0,
			"-0.023": 0.0,
			"-0.022": 0.0,
			"-0.021": 0.0,
			"-0.02": 0.0,
			"-0.019": 0.0,
			"-0.018": 0.0,
			"-0.017": 0.434427495748,
			"-0.016": 0.525558918619,
			"-0.015": 0.801097773087,
			"-0.014": 0.997057541928,
			"-0.013": 0.347257758898,
			"-0.012": 0.281739390859,
			"-0.011": 0.640269583811,
			"-0.01": 0.882131438734,
			"-0.009": 0.989290524901,
			"-0.008": 0.570611058604,
			"-0.007": 6.23452927526,
			"-0.006": 15.5464415498,
			"-0.005": 19.2511596266,
			"-0.004": 20.8228162708,
			"-0.003": 16.9480086508,
			"-0.002": 12.8448749125,
			"-0.001": 13.7032414095,
			"0.0": 12.4692900144,
			"0.001": 17.8001561563,
			"0.002": 22.3219700558,
			"0.003": 21.5790900063,
			"0.004": 16.5888929548,
			"0.005": 13.1441800663,
			"0.006": 7.65697545709,
			"0.007": 3.6649042217,
			"0.008": 3.69299520145,
			"0.009": 3.78975689105,
			"0.01": 2.6122921594,
			"0.011": 2.48972566011,
			"0.012": 0.798120893172,
			"0.013": 0.827762841613,
			"0.014": 0.883664092293,
			"0.015": 0.146622540781,
			"0.016": 0.0,
			"0.017": 0.0,
			"0.018": 0.0,
			"0.019": 0.0,
			"0.02": 0.0,
			"0.021": 0.0,
			"0.022": 0.0,
			"0.023": 0.0,
			"0.024": 0.0,
			"0.025": 0.0
		}
	}
}
