{
	 "smiles": "CC(=O)NC1=CC=C(N)C=C1C", 
	 "Tm": 415.15, 
	 "num_atms": 24, 
	 "gaussian": { 
		 "optdone": 1, 
		 "sigma_profile": "yes", 
		 "theory": "DFT", 
		 "functional": "B3LYP", 
		 "basiset": "6-31G**", 
		 "properties": { 
			 "R2extent": 3587.7593, 
			 "electric_dipole_moment_norm": 5.22587237789, 
			 "electric_quadrupole_moment_norm": 15.785431805, 
			 "total_energy": -534.943486125, 
			 "HOMO_LUMO_gap": 0.19624, 
			 "cosmo_polarized_energy": -15.28, 
			 "cosmo_cavitation_energy": 27.58, 
			 "cosmo_dispersion_energy": -19.59, 
			 "cosmo_repulsion_energy": 1.58, 
			 "cosmo_total_nonelectrostatic_energy": 9.58, 
			 "SMD_solvation_energy": 5.79 
		},
		"coords": [
			{
				"x": 1.4446508176,
				"y": 0.5820520786,
				"z": 3.3257441875,
				"element": "C" 
			},
			{
				"x": 1.6186196288,
				"y": 0.7588350908,
				"z": 1.8267450669,
				"element": "C" 
			},
			{
				"x": 2.651745191,
				"y": 1.198316557,
				"z": 1.3392218179,
				"element": "O" 
			},
			{
				"x": 0.563026953,
				"y": 0.3995243841,
				"z": 1.0128549933,
				"element": "N" 
			},
			{
				"x": -0.7260406191,
				"y": -0.0939192441,
				"z": 1.3627466439,
				"element": "C" 
			},
			{
				"x": -1.5846372054,
				"y": 0.6556005028,
				"z": 2.1743133997,
				"element": "C" 
			},
			{
				"x": -2.8461486376,
				"y": 0.1838872468,
				"z": 2.520726162,
				"element": "C" 
			},
			{
				"x": -3.2969950739,
				"y": -1.0505632354,
				"z": 2.0268271592,
				"element": "C" 
			},
			{
				"x": -4.5857699021,
				"y": -1.5075211317,
				"z": 2.3059771156,
				"element": "N" 
			},
			{
				"x": -2.4406411483,
				"y": -1.7875969038,
				"z": 1.1914129694,
				"element": "C" 
			},
			{
				"x": -1.1630853669,
				"y": -1.3360846935,
				"z": 0.8569571263,
				"element": "C" 
			},
			{
				"x": -0.2683185619,
				"y": -2.1626046149,
				"z": -0.034577009,
				"element": "C" 
			},
			{
				"x": 0.9899805711,
				"y": 1.4780877222,
				"z": 3.7612142341,
				"element": "H" 
			},
			{
				"x": 0.8144120134,
				"y": -0.2719080615,
				"z": 3.5833879389,
				"element": "H" 
			},
			{
				"x": 2.4385021934,
				"y": 0.4653971576,
				"z": 3.7595328169,
				"element": "H" 
			},
			{
				"x": 0.791194025,
				"y": 0.49346712,
				"z": 0.0299917404,
				"element": "H" 
			},
			{
				"x": -1.256929847,
				"y": 1.6265221761,
				"z": 2.5325303828,
				"element": "H" 
			},
			{
				"x": -3.4941635771,
				"y": 0.7825019027,
				"z": 3.1556277879,
				"element": "H" 
			},
			{
				"x": -4.7164770652,
				"y": -2.5063549577,
				"z": 2.2246227485,
				"element": "H" 
			},
			{
				"x": -4.9991888831,
				"y": -1.1407648656,
				"z": 3.1520371251,
				"element": "H" 
			},
			{
				"x": -2.7812401948,
				"y": -2.7429334189,
				"z": 0.7975971667,
				"element": "H" 
			},
			{
				"x": -0.6883326018,
				"y": -3.1581286018,
				"z": -0.1989546907,
				"element": "H" 
			},
			{
				"x": -0.135338306,
				"y": -1.697288884,
				"z": -1.0199266998,
				"element": "H" 
			},
			{
				"x": 0.7309755972,
				"y": -2.2749233256,
				"z": 0.3981898166,
				"element": "H" 
			}
		],
		 "valence_orbital": [ 
			{
				"type": "occ",
				"energy": -0.31312,
				"method": "rhf"
			},
			{
				"type": "occ",
				"energy": -0.25563,
				"method": "rhf"
			},
			{
				"type": "occ",
				"energy": -0.24812,
				"method": "rhf"
			},
			{
				"type": "occ",
				"energy": -0.23898,
				"method": "rhf"
			},
			{
				"type": "occ",
				"energy": -0.1998,
				"method": "rhf"
			},
			{
				"type": "unocc",
				"energy": -0.00356,
				"method": "rhf"
			},
			{
				"type": "unocc",
				"energy": 0.00349,
				"method": "rhf"
			},
			{
				"type": "unocc",
				"energy": 0.04231,
				"method": "rhf"
			},
			{
				"type": "unocc",
				"energy": 0.07522,
				"method": "rhf"
			},
			{
				"type": "unocc",
				"energy": 0.08994,
				"method": "rhf"
			}
		],
		"cosmo_sigma_profile": { 
			"-0.025": 0.0,
			"-0.024": 0.0,
			"-0.023": 0.0,
			"-0.022": 0.0,
			"-0.021": 0.0,
			"-0.02": 0.0,
			"-0.019": 0.0,
			"-0.018": 0.0,
			"-0.017": 0.0,
			"-0.016": 0.0,
			"-0.015": 0.0,
			"-0.014": 0.0,
			"-0.013": 0.646443676878,
			"-0.012": 3.50262001878,
			"-0.011": 3.24545629471,
			"-0.01": 3.568457246,
			"-0.009": 4.18787147736,
			"-0.008": 5.00203792904,
			"-0.007": 4.22275683443,
			"-0.006": 8.49100850079,
			"-0.005": 12.9036384494,
			"-0.004": 16.4870239706,
			"-0.003": 15.3110680097,
			"-0.002": 17.0491295229,
			"-0.001": 21.3776879175,
			"0.0": 17.6615881974,
			"0.001": 11.5271564954,
			"0.002": 9.11499723882,
			"0.003": 8.29791540726,
			"0.004": 7.96170507156,
			"0.005": 8.58485469846,
			"0.006": 10.5929975642,
			"0.007": 3.37694899082,
			"0.008": 2.63092289062,
			"0.009": 1.58342741849,
			"0.01": 1.76884510087,
			"0.011": 2.54834009156,
			"0.012": 2.29142552846,
			"0.013": 3.36585180346,
			"0.014": 6.78136476463,
			"0.015": 2.73719025344,
			"0.016": 0.15004741536,
			"0.017": 0.0,
			"0.018": 0.0,
			"0.019": 0.0,
			"0.02": 0.0,
			"0.021": 0.0,
			"0.022": 0.0,
			"0.023": 0.0,
			"0.024": 0.0,
			"0.025": 0.0
		}
	}
}
