{
	 "smiles": "CC1=NN(N=C1C(O)=O)C1=CC=CC=C1", 
	 "Tm": 476.15, 
	 "num_atms": 24, 
	 "gaussian": { 
		 "optdone": 1, 
		 "sigma_profile": "yes", 
		 "theory": "DFT", 
		 "functional": "B3LYP", 
		 "basiset": "6-31G**", 
		 "properties": { 
			 "R2extent": 4168.8088, 
			 "electric_dipole_moment_norm": 4.85858044803, 
			 "electric_quadrupole_moment_norm": 10.8471098907, 
			 "total_energy": -701.181713607, 
			 "HOMO_LUMO_gap": 0.17896, 
			 "cosmo_polarized_energy": -11.48, 
			 "cosmo_cavitation_energy": 29.26, 
			 "cosmo_dispersion_energy": -21.54, 
			 "cosmo_repulsion_energy": 1.68, 
			 "cosmo_total_nonelectrostatic_energy": 9.4, 
			 "SMD_solvation_energy": 4.99 
		},
		"coords": [
			{
				"x": 0.7221729897,
				"y": -1.6761444652,
				"z": 2.0215901088,
				"element": "C" 
			},
			{
				"x": 0.0922016592,
				"y": -0.9344972778,
				"z": 0.8905926705,
				"element": "C" 
			},
			{
				"x": 0.5272382608,
				"y": -1.0304491855,
				"z": -0.3659165053,
				"element": "N" 
			},
			{
				"x": -0.2870360747,
				"y": -0.2263645314,
				"z": -1.0711384525,
				"element": "N" 
			},
			{
				"x": -1.2225196212,
				"y": 0.3857692846,
				"z": -0.3559493994,
				"element": "N" 
			},
			{
				"x": -1.0078951366,
				"y": -0.0433673591,
				"z": 0.8929604878,
				"element": "C" 
			},
			{
				"x": -1.8503634059,
				"y": 0.4084832244,
				"z": 2.0220495278,
				"element": "C" 
			},
			{
				"x": -2.8334769545,
				"y": 1.2738314679,
				"z": 1.6895158453,
				"element": "O" 
			},
			{
				"x": -1.6794182036,
				"y": 0.037528166,
				"z": 3.1615643181,
				"element": "O" 
			},
			{
				"x": -0.1486456675,
				"y": -0.0511832453,
				"z": -2.47824644,
				"element": "C" 
			},
			{
				"x": 0.8654579998,
				"y": -0.7348221034,
				"z": -3.1547910898,
				"element": "C" 
			},
			{
				"x": 0.9957173359,
				"y": -0.5593293097,
				"z": -4.5311788743,
				"element": "C" 
			},
			{
				"x": 0.1276891139,
				"y": 0.285833103,
				"z": -5.2254477892,
				"element": "C" 
			},
			{
				"x": -0.8800871112,
				"y": 0.9612207886,
				"z": -4.5336913054,
				"element": "C" 
			},
			{
				"x": -1.0261033232,
				"y": 0.798548894,
				"z": -3.1575251534,
				"element": "C" 
			},
			{
				"x": 1.0837689191,
				"y": -0.9816534661,
				"z": 2.7852726414,
				"element": "H" 
			},
			{
				"x": -0.0081767761,
				"y": -2.3262930977,
				"z": 2.5116354116,
				"element": "H" 
			},
			{
				"x": 1.5556739033,
				"y": -2.2784434842,
				"z": 1.6557391434,
				"element": "H" 
			},
			{
				"x": -2.7940805184,
				"y": 1.4376626303,
				"z": 0.731768105,
				"element": "H" 
			},
			{
				"x": 1.5304470339,
				"y": -1.3865561408,
				"z": -2.6021437733,
				"element": "H" 
			},
			{
				"x": 1.7819646233,
				"y": -1.0882169887,
				"z": -5.0611964107,
				"element": "H" 
			},
			{
				"x": 0.2355047014,
				"y": 0.4173960301,
				"z": -6.2976599013,
				"element": "H" 
			},
			{
				"x": -1.559517651,
				"y": 1.6203307108,
				"z": -5.0654421209,
				"element": "H" 
			},
			{
				"x": -1.8039160963,
				"y": 1.3172163552,
				"z": -2.6110610442,
				"element": "H" 
			}
		],
		 "valence_orbital": [ 
			{
				"type": "occ",
				"energy": -0.31074,
				"method": "rhf"
			},
			{
				"type": "occ",
				"energy": -0.30529,
				"method": "rhf"
			},
			{
				"type": "occ",
				"energy": -0.27846,
				"method": "rhf"
			},
			{
				"type": "occ",
				"energy": -0.2704,
				"method": "rhf"
			},
			{
				"type": "occ",
				"energy": -0.24437,
				"method": "rhf"
			},
			{
				"type": "unocc",
				"energy": -0.06541,
				"method": "rhf"
			},
			{
				"type": "unocc",
				"energy": -0.02336,
				"method": "rhf"
			},
			{
				"type": "unocc",
				"energy": -0.01458,
				"method": "rhf"
			},
			{
				"type": "unocc",
				"energy": 0.01776,
				"method": "rhf"
			},
			{
				"type": "unocc",
				"energy": 0.07486,
				"method": "rhf"
			}
		],
		"cosmo_sigma_profile": { 
			"-0.025": 0.0,
			"-0.024": 0.0,
			"-0.023": 0.0,
			"-0.022": 0.0,
			"-0.021": 0.0,
			"-0.02": 0.0,
			"-0.019": 0.0,
			"-0.018": 0.0,
			"-0.017": 0.0,
			"-0.016": 0.333310948715,
			"-0.015": 0.597157076469,
			"-0.014": 0.212662832816,
			"-0.013": 0.411542417663,
			"-0.012": 0.94700377373,
			"-0.011": 1.19105160253,
			"-0.01": 0.419943201833,
			"-0.009": 0.898904691122,
			"-0.008": 1.08553353474,
			"-0.007": 3.56757975799,
			"-0.006": 12.5910005602,
			"-0.005": 17.9217563993,
			"-0.004": 17.8486002594,
			"-0.003": 20.1881367474,
			"-0.002": 22.744952417,
			"-0.001": 20.0004215535,
			"0.0": 17.2779413962,
			"0.001": 15.0300827653,
			"0.002": 16.0778370797,
			"0.003": 15.7190157222,
			"0.004": 14.6075042171,
			"0.005": 3.71759364841,
			"0.006": 4.70273096986,
			"0.007": 4.16891105579,
			"0.008": 3.79130768287,
			"0.009": 4.84106883904,
			"0.01": 5.8058817568,
			"0.011": 4.29475504277,
			"0.012": 3.0345839308,
			"0.013": 0.948941206754,
			"0.014": 0.0,
			"0.015": 0.0,
			"0.016": 0.0,
			"0.017": 0.0,
			"0.018": 0.0,
			"0.019": 0.0,
			"0.02": 0.0,
			"0.021": 0.0,
			"0.022": 0.0,
			"0.023": 0.0,
			"0.024": 0.0,
			"0.025": 0.0
		}
	}
}
