{
	 "smiles": "N#CC1=NN(N=C1)C1=CC=CC=C1", 
	 "Tm": 364.15, 
	 "num_atms": 19, 
	 "gaussian": { 
		 "optdone": 1, 
		 "sigma_profile": "yes", 
		 "theory": "DFT", 
		 "functional": "B3LYP", 
		 "basiset": "6-31G**", 
		 "properties": { 
			 "R2extent": 3060.2729, 
			 "electric_dipole_moment_norm": 4.74425401301, 
			 "electric_quadrupole_moment_norm": 12.2176203477, 
			 "total_energy": -565.522316408, 
			 "HOMO_LUMO_gap": 0.18279, 
			 "cosmo_polarized_energy": -8.97, 
			 "cosmo_cavitation_energy": 25.42, 
			 "cosmo_dispersion_energy": -18.38, 
			 "cosmo_repulsion_energy": 1.43, 
			 "cosmo_total_nonelectrostatic_energy": 8.48, 
			 "SMD_solvation_energy": 4.65 
		},
		"coords": [
			{
				"x": -3.7769199957,
				"y": -2.0585006031,
				"z": -2.8554822822,
				"element": "N" 
			},
			{
				"x": -3.1693670958,
				"y": -1.2248825102,
				"z": -2.3193631502,
				"element": "C" 
			},
			{
				"x": -2.4602333556,
				"y": -0.1685217349,
				"z": -1.6822639584,
				"element": "C" 
			},
			{
				"x": -1.357787807,
				"y": -0.380188211,
				"z": -0.9466248259,
				"element": "N" 
			},
			{
				"x": -1.0166942995,
				"y": 0.8371943773,
				"z": -0.5426718764,
				"element": "N" 
			},
			{
				"x": -1.8141836423,
				"y": 1.8308536769,
				"z": -0.9592832605,
				"element": "N" 
			},
			{
				"x": -2.7397269838,
				"y": 1.2157271296,
				"z": -1.6859073197,
				"element": "C" 
			},
			{
				"x": 0.1249820972,
				"y": 1.0736375566,
				"z": 0.2816186561,
				"element": "C" 
			},
			{
				"x": 0.4270353903,
				"y": 2.3809765086,
				"z": 0.6710309863,
				"element": "C" 
			},
			{
				"x": 1.5432852051,
				"y": 2.6025087507,
				"z": 1.4754732055,
				"element": "C" 
			},
			{
				"x": 2.346120278,
				"y": 1.5360362453,
				"z": 1.885298755,
				"element": "C" 
			},
			{
				"x": 2.0281051607,
				"y": 0.2361221101,
				"z": 1.485875275,
				"element": "C" 
			},
			{
				"x": 0.9162941969,
				"y": -0.0062794112,
				"z": 0.6816384501,
				"element": "C" 
			},
			{
				"x": -3.5402063635,
				"y": 1.7572076307,
				"z": -2.1667888576,
				"element": "H" 
			},
			{
				"x": -0.2051953507,
				"y": 3.1974168873,
				"z": 0.3450274833,
				"element": "H" 
			},
			{
				"x": 1.7836658236,
				"y": 3.6160120191,
				"z": 1.7816501342,
				"element": "H" 
			},
			{
				"x": 3.2140223021,
				"y": 1.7165763603,
				"z": 2.5119042266,
				"element": "H" 
			},
			{
				"x": 2.6471621412,
				"y": -0.5985138805,
				"z": 1.8002211005,
				"element": "H" 
			},
			{
				"x": 0.6574422988,
				"y": -1.0087829016,
				"z": 0.3641472583,
				"element": "H" 
			}
		],
		 "valence_orbital": [ 
			{
				"type": "occ",
				"energy": -0.32429,
				"method": "rhf"
			},
			{
				"type": "occ",
				"energy": -0.32108,
				"method": "rhf"
			},
			{
				"type": "occ",
				"energy": -0.30648,
				"method": "rhf"
			},
			{
				"type": "occ",
				"energy": -0.27217,
				"method": "rhf"
			},
			{
				"type": "occ",
				"energy": -0.25083,
				"method": "rhf"
			},
			{
				"type": "unocc",
				"energy": -0.06804,
				"method": "rhf"
			},
			{
				"type": "unocc",
				"energy": -0.02657,
				"method": "rhf"
			},
			{
				"type": "unocc",
				"energy": -0.01586,
				"method": "rhf"
			},
			{
				"type": "unocc",
				"energy": 0.01229,
				"method": "rhf"
			},
			{
				"type": "unocc",
				"energy": 0.01567,
				"method": "rhf"
			}
		],
		"cosmo_sigma_profile": { 
			"-0.025": 0.0,
			"-0.024": 0.0,
			"-0.023": 0.0,
			"-0.022": 0.0,
			"-0.021": 0.0,
			"-0.02": 0.0,
			"-0.019": 0.0,
			"-0.018": 0.0,
			"-0.017": 0.0,
			"-0.016": 0.0,
			"-0.015": 0.0,
			"-0.014": 0.0,
			"-0.013": 0.0,
			"-0.012": 0.0,
			"-0.011": 1.49566863085,
			"-0.01": 2.35813655631,
			"-0.009": 1.99478041787,
			"-0.008": 1.50709911918,
			"-0.007": 5.53558991286,
			"-0.006": 11.3885422136,
			"-0.005": 12.9216191327,
			"-0.004": 14.4619189611,
			"-0.003": 15.8296591966,
			"-0.002": 15.7885419202,
			"-0.001": 16.3024700626,
			"0.0": 15.9713599245,
			"0.001": 15.0810872672,
			"0.002": 14.6701648658,
			"0.003": 17.337103047,
			"0.004": 12.7681261895,
			"0.005": 4.0882144902,
			"0.006": 6.98815284747,
			"0.007": 4.59068957791,
			"0.008": 6.02453943166,
			"0.009": 3.3787589623,
			"0.01": 3.10282262578,
			"0.011": 2.04761577819,
			"0.012": 1.62160265688,
			"0.013": 0.0581635647985,
			"0.014": 0.0,
			"0.015": 0.0,
			"0.016": 0.0,
			"0.017": 0.0,
			"0.018": 0.0,
			"0.019": 0.0,
			"0.02": 0.0,
			"0.021": 0.0,
			"0.022": 0.0,
			"0.023": 0.0,
			"0.024": 0.0,
			"0.025": 0.0
		}
	}
}
