{
	 "smiles": "OC1=CC=C2C(=O)CC(OC2=C1)C1=CC=CC=C1", 
	 "Tm": 461.15, 
	 "num_atms": 30, 
	 "gaussian": { 
		 "optdone": 1, 
		 "sigma_profile": "yes", 
		 "theory": "DFT", 
		 "functional": "B3LYP", 
		 "basiset": "6-31G**", 
		 "properties": { 
			 "R2extent": 4390.5635, 
			 "electric_dipole_moment_norm": 1.91011226372, 
			 "electric_quadrupole_moment_norm": 15.9256744843, 
			 "total_energy": -804.497508393, 
			 "HOMO_LUMO_gap": 0.17986, 
			 "cosmo_polarized_energy": -15.28, 
			 "cosmo_cavitation_energy": 33.57, 
			 "cosmo_dispersion_energy": -24.03, 
			 "cosmo_repulsion_energy": 1.84, 
			 "cosmo_total_nonelectrostatic_energy": 11.38, 
			 "SMD_solvation_energy": 6.29 
		},
		"coords": [
			{
				"x": 2.6958699934,
				"y": -1.6714527948,
				"z": -2.8936051521,
				"element": "O" 
			},
			{
				"x": 2.2995031958,
				"y": -1.0971859219,
				"z": -1.7264509159,
				"element": "C" 
			},
			{
				"x": 2.9561848679,
				"y": 0.0248147821,
				"z": -1.1845068785,
				"element": "C" 
			},
			{
				"x": 2.503055386,
				"y": 0.5587936044,
				"z": 0.0088960095,
				"element": "C" 
			},
			{
				"x": 1.4059495245,
				"y": 0.003740709,
				"z": 0.6878809495,
				"element": "C" 
			},
			{
				"x": 0.9818814698,
				"y": 0.5312052564,
				"z": 1.994307184,
				"element": "C" 
			},
			{
				"x": 1.4724093107,
				"y": 1.5216223615,
				"z": 2.5207001624,
				"element": "O" 
			},
			{
				"x": -0.0961764182,
				"y": -0.2991755748,
				"z": 2.6817632797,
				"element": "C" 
			},
			{
				"x": -1.0645287461,
				"y": -0.9180244238,
				"z": 1.6745846247,
				"element": "C" 
			},
			{
				"x": -0.3232775106,
				"y": -1.7085366689,
				"z": 0.7038660858,
				"element": "O" 
			},
			{
				"x": 0.7492594091,
				"y": -1.1098697555,
				"z": 0.1164099564,
				"element": "C" 
			},
			{
				"x": 1.1966823387,
				"y": -1.6610126552,
				"z": -1.0841535206,
				"element": "C" 
			},
			{
				"x": -1.9936501934,
				"y": 0.0526814607,
				"z": 0.9524341945,
				"element": "C" 
			},
			{
				"x": -2.8552086427,
				"y": -0.4654531958,
				"z": -0.02698457,
				"element": "C" 
			},
			{
				"x": -3.7446033939,
				"y": 0.3635270385,
				"z": -0.7055631588,
				"element": "C" 
			},
			{
				"x": -3.7905184909,
				"y": 1.7296986865,
				"z": -0.412743257,
				"element": "C" 
			},
			{
				"x": -2.9394561357,
				"y": 2.254368878,
				"z": 0.5578805728,
				"element": "C" 
			},
			{
				"x": -2.0448758857,
				"y": 1.4218629747,
				"z": 1.2372921443,
				"element": "C" 
			},
			{
				"x": 3.451343172,
				"y": -1.1840961634,
				"z": -3.2478475434,
				"element": "H" 
			},
			{
				"x": 3.8111641245,
				"y": 0.4570817455,
				"z": -1.6988349125,
				"element": "H" 
			},
			{
				"x": 2.9919690925,
				"y": 1.4148882594,
				"z": 0.4628675677,
				"element": "H" 
			},
			{
				"x": -0.6111208683,
				"y": 0.3057581107,
				"z": 3.431042531,
				"element": "H" 
			},
			{
				"x": 0.4101599074,
				"y": -1.1154393959,
				"z": 3.2138216591,
				"element": "H" 
			},
			{
				"x": -1.6771155248,
				"y": -1.6717549446,
				"z": 2.1791344375,
				"element": "H" 
			},
			{
				"x": 0.6853977136,
				"y": -2.5111472805,
				"z": -1.5196163585,
				"element": "H" 
			},
			{
				"x": -2.8140919332,
				"y": -1.525417957,
				"z": -0.261136226,
				"element": "H" 
			},
			{
				"x": -4.4035828324,
				"y": -0.0546590314,
				"z": -1.4612030317,
				"element": "H" 
			},
			{
				"x": -4.4848628307,
				"y": 2.3781116439,
				"z": -0.9393562703,
				"element": "H" 
			},
			{
				"x": -2.9632787479,
				"y": 3.3153914812,
				"z": 0.7890325961,
				"element": "H" 
			},
			{
				"x": -1.3857813513,
				"y": 1.8573787709,
				"z": 1.9807878402,
				"element": "H" 
			}
		],
		 "valence_orbital": [ 
			{
				"type": "occ",
				"energy": -0.25392,
				"method": "rhf"
			},
			{
				"type": "occ",
				"energy": -0.25197,
				"method": "rhf"
			},
			{
				"type": "occ",
				"energy": -0.24101,
				"method": "rhf"
			},
			{
				"type": "occ",
				"energy": -0.23817,
				"method": "rhf"
			},
			{
				"type": "occ",
				"energy": -0.22713,
				"method": "rhf"
			},
			{
				"type": "unocc",
				"energy": -0.04727,
				"method": "rhf"
			},
			{
				"type": "unocc",
				"energy": -0.0104,
				"method": "rhf"
			},
			{
				"type": "unocc",
				"energy": -0.00285,
				"method": "rhf"
			},
			{
				"type": "unocc",
				"energy": -0.00035,
				"method": "rhf"
			},
			{
				"type": "unocc",
				"energy": 0.05143,
				"method": "rhf"
			}
		],
		"cosmo_sigma_profile": { 
			"-0.025": 0.0,
			"-0.024": 0.0,
			"-0.023": 0.0,
			"-0.022": 0.0,
			"-0.021": 0.0,
			"-0.02": 0.0,
			"-0.019": 0.0513828666693,
			"-0.018": 1.10949742911,
			"-0.017": 1.24951050992,
			"-0.016": 1.16048076147,
			"-0.015": 0.949821765308,
			"-0.014": 0.809625553272,
			"-0.013": 1.28310466886,
			"-0.012": 1.16006884005,
			"-0.011": 0.929670325773,
			"-0.01": 0.843845086676,
			"-0.009": 0.642185618794,
			"-0.008": 1.28910973164,
			"-0.007": 6.4273222812,
			"-0.006": 18.7119543652,
			"-0.005": 21.1972609103,
			"-0.004": 21.9023752459,
			"-0.003": 16.6527354838,
			"-0.002": 13.5025754017,
			"-0.001": 13.5259429724,
			"0.0": 13.5387024904,
			"0.001": 15.6289288095,
			"0.002": 21.1215014075,
			"0.003": 28.5155124135,
			"0.004": 19.0862093233,
			"0.005": 13.8101228994,
			"0.006": 7.3718218857,
			"0.007": 2.83718313705,
			"0.008": 3.89632714703,
			"0.009": 4.21279144146,
			"0.01": 3.73303639388,
			"0.011": 2.88407746864,
			"0.012": 4.39483570836,
			"0.013": 2.98243773042,
			"0.014": 0.543320707792,
			"0.015": 0.0,
			"0.016": 0.0,
			"0.017": 0.0,
			"0.018": 0.0,
			"0.019": 0.0,
			"0.02": 0.0,
			"0.021": 0.0,
			"0.022": 0.0,
			"0.023": 0.0,
			"0.024": 0.0,
			"0.025": 0.0
		}
	}
}
