{
	 "smiles": "NC1CCCC(C1)C(=O)NC1CC1", 
	 "Tm": 371.15, 
	 "num_atms": 31, 
	 "gaussian": { 
		 "optdone": 1, 
		 "sigma_profile": "yes", 
		 "theory": "DFT", 
		 "functional": "B3LYP", 
		 "basiset": "6-31G**", 
		 "properties": { 
			 "R2extent": 3363.7822, 
			 "electric_dipole_moment_norm": 2.93293209775, 
			 "electric_quadrupole_moment_norm": 9.21929998644, 
			 "total_energy": -576.62187378, 
			 "HOMO_LUMO_gap": 0.24632, 
			 "cosmo_polarized_energy": -12.77, 
			 "cosmo_cavitation_energy": 30.87, 
			 "cosmo_dispersion_energy": -22.27, 
			 "cosmo_repulsion_energy": 1.79, 
			 "cosmo_total_nonelectrostatic_energy": 10.38, 
			 "SMD_solvation_energy": 3.38 
		},
		"coords": [
			{
				"x": -2.1056969204,
				"y": -0.5628402592,
				"z": 3.4439697338,
				"element": "N" 
			},
			{
				"x": -0.802332738,
				"y": -0.6319911754,
				"z": 2.7507900557,
				"element": "C" 
			},
			{
				"x": 0.1924557465,
				"y": 0.3119093214,
				"z": 3.4606057333,
				"element": "C" 
			},
			{
				"x": 0.108062154,
				"y": 1.7301481288,
				"z": 2.8911395938,
				"element": "C" 
			},
			{
				"x": 0.6064359868,
				"y": 1.7619757683,
				"z": 1.4324129141,
				"element": "C" 
			},
			{
				"x": 0.1442927195,
				"y": 0.5115787775,
				"z": 0.6023956905,
				"element": "C" 
			},
			{
				"x": -1.0351879447,
				"y": -0.2094165656,
				"z": 1.2807204702,
				"element": "C" 
			},
			{
				"x": 1.314933703,
				"y": -0.4376529638,
				"z": 0.3457161837,
				"element": "C" 
			},
			{
				"x": 1.5146683948,
				"y": -1.4591583388,
				"z": 0.9963907786,
				"element": "O" 
			},
			{
				"x": 2.1810588928,
				"y": -0.0958355015,
				"z": -0.670718663,
				"element": "N" 
			},
			{
				"x": 2.1770570926,
				"y": 1.0843934214,
				"z": -1.4864623288,
				"element": "C" 
			},
			{
				"x": 2.6920480633,
				"y": 0.9519255699,
				"z": -2.8959056086,
				"element": "C" 
			},
			{
				"x": 1.2231078506,
				"y": 1.1878074185,
				"z": -2.6584896173,
				"element": "C" 
			},
			{
				"x": -2.0121745106,
				"y": -0.9699567218,
				"z": 4.3731428628,
				"element": "H" 
			},
			{
				"x": -2.7801935995,
				"y": -1.149686466,
				"z": 2.9549065169,
				"element": "H" 
			},
			{
				"x": -0.3731519404,
				"y": -1.6421674278,
				"z": 2.7537154223,
				"element": "H" 
			},
			{
				"x": 1.207815206,
				"y": -0.0793992206,
				"z": 3.3306395064,
				"element": "H" 
			},
			{
				"x": -0.0158186611,
				"y": 0.3142179672,
				"z": 4.5374970177,
				"element": "H" 
			},
			{
				"x": -0.933481942,
				"y": 2.0679543545,
				"z": 2.9458123239,
				"element": "H" 
			},
			{
				"x": 0.6977191802,
				"y": 2.4332745672,
				"z": 3.4907320775,
				"element": "H" 
			},
			{
				"x": 0.255675512,
				"y": 2.6759387497,
				"z": 0.9402289306,
				"element": "H" 
			},
			{
				"x": 1.7020514972,
				"y": 1.8160735167,
				"z": 1.4332609787,
				"element": "H" 
			},
			{
				"x": -0.1983221224,
				"y": 0.8668818002,
				"z": -0.3747478606,
				"element": "H" 
			},
			{
				"x": -1.3266471074,
				"y": -1.0810709741,
				"z": 0.6838256858,
				"element": "H" 
			},
			{
				"x": -1.8880996577,
				"y": 0.4804315768,
				"z": 1.2740814158,
				"element": "H" 
			},
			{
				"x": 2.9919789702,
				"y": -0.7006389962,
				"z": -0.715514185,
				"element": "H" 
			},
			{
				"x": 2.413060604,
				"y": 2.0158321455,
				"z": -0.9730656842,
				"element": "H" 
			},
			{
				"x": 3.2970501783,
				"y": 1.7601274584,
				"z": -3.294069089,
				"element": "H" 
			},
			{
				"x": 2.9916222683,
				"y": -0.0395286905,
				"z": -3.2227778581,
				"element": "H" 
			},
			{
				"x": 0.5508975779,
				"y": 0.3516595499,
				"z": -2.8211001683,
				"element": "H" 
			},
			{
				"x": 0.8065155464,
				"y": 2.1630132091,
				"z": -2.8910328291,
				"element": "H" 
			}
		],
		 "valence_orbital": [ 
			{
				"type": "occ",
				"energy": -0.29832,
				"method": "rhf"
			},
			{
				"type": "occ",
				"energy": -0.29063,
				"method": "rhf"
			},
			{
				"type": "occ",
				"energy": -0.24429,
				"method": "rhf"
			},
			{
				"type": "occ",
				"energy": -0.24004,
				"method": "rhf"
			},
			{
				"type": "occ",
				"energy": -0.21822,
				"method": "rhf"
			},
			{
				"type": "unocc",
				"energy": 0.0281,
				"method": "rhf"
			},
			{
				"type": "unocc",
				"energy": 0.08025,
				"method": "rhf"
			},
			{
				"type": "unocc",
				"energy": 0.08895,
				"method": "rhf"
			},
			{
				"type": "unocc",
				"energy": 0.0946,
				"method": "rhf"
			},
			{
				"type": "unocc",
				"energy": 0.10145,
				"method": "rhf"
			}
		],
		"cosmo_sigma_profile": { 
			"-0.025": 0.0,
			"-0.024": 0.0,
			"-0.023": 0.0,
			"-0.022": 0.0,
			"-0.021": 0.0,
			"-0.02": 0.0,
			"-0.019": 0.0,
			"-0.018": 0.0,
			"-0.017": 0.0,
			"-0.016": 0.0,
			"-0.015": 0.0,
			"-0.014": 0.0,
			"-0.013": 0.319389975626,
			"-0.012": 0.650648049693,
			"-0.011": 1.04671443476,
			"-0.01": 0.898008311799,
			"-0.009": 2.22260343642,
			"-0.008": 4.33427583697,
			"-0.007": 3.30192391163,
			"-0.006": 4.92919057125,
			"-0.005": 13.0409019507,
			"-0.004": 15.0463235707,
			"-0.003": 21.6208758872,
			"-0.002": 30.6971778289,
			"-0.001": 34.0763114356,
			"0.0": 30.1758096548,
			"0.001": 20.4957333218,
			"0.002": 10.405713022,
			"0.003": 5.75407920701,
			"0.004": 5.96244175456,
			"0.005": 4.24944978876,
			"0.006": 2.05321857252,
			"0.007": 2.08925755338,
			"0.008": 3.16737560157,
			"0.009": 2.79934956706,
			"0.01": 2.37284277337,
			"0.011": 2.39569910233,
			"0.012": 2.41369712912,
			"0.013": 2.96586129468,
			"0.014": 4.48445402519,
			"0.015": 1.91507638907,
			"0.016": 0.476545848686,
			"0.017": 0.794406456036,
			"0.018": 0.401500393634,
			"0.019": 0.389370321309,
			"0.02": 0.0572258519799,
			"0.021": 0.0,
			"0.022": 0.0,
			"0.023": 0.0,
			"0.024": 0.0,
			"0.025": 0.0
		}
	}
}
