{
	 "smiles": "CCNC1=CC=CC=C1", 
	 "Tm": 209.65, 
	 "num_atms": 20, 
	 "gaussian": { 
		 "optdone": 1, 
		 "sigma_profile": "yes", 
		 "theory": "DFT", 
		 "functional": "B3LYP", 
		 "basiset": "6-31G**", 
		 "properties": { 
			 "R2extent": 1438.3255, 
			 "electric_dipole_moment_norm": 1.87836466641, 
			 "electric_quadrupole_moment_norm": 6.33729390671, 
			 "total_energy": -366.235060697, 
			 "HOMO_LUMO_gap": 0.19778, 
			 "cosmo_polarized_energy": -6.27, 
			 "cosmo_cavitation_energy": 22.55, 
			 "cosmo_dispersion_energy": -16.84, 
			 "cosmo_repulsion_energy": 1.39, 
			 "cosmo_total_nonelectrostatic_energy": 7.1, 
			 "SMD_solvation_energy": 3.3 
		},
		"coords": [
			{
				"x": 2.1375308138,
				"y": 0.1918164985,
				"z": -2.1663825825,
				"element": "C" 
			},
			{
				"x": 2.3010102455,
				"y": 0.2446703542,
				"z": -0.6419188285,
				"element": "C" 
			},
			{
				"x": 1.2749899662,
				"y": 1.0306846686,
				"z": 0.0254382495,
				"element": "N" 
			},
			{
				"x": 0.0633657669,
				"y": 0.5191660617,
				"z": 0.4659977258,
				"element": "C" 
			},
			{
				"x": -0.7479075407,
				"y": 1.2981065379,
				"z": 1.3183246742,
				"element": "C" 
			},
			{
				"x": -1.9745185816,
				"y": 0.8224548429,
				"z": 1.766980699,
				"element": "C" 
			},
			{
				"x": -2.4355155164,
				"y": -0.4413403156,
				"z": 1.3851023338,
				"element": "C" 
			},
			{
				"x": -1.6398003851,
				"y": -1.2162779808,
				"z": 0.5419512693,
				"element": "C" 
			},
			{
				"x": -0.4071249879,
				"y": -0.7519627914,
				"z": 0.0816248593,
				"element": "C" 
			},
			{
				"x": 2.1859605084,
				"y": 1.1981599128,
				"z": -2.5933123011,
				"element": "H" 
			},
			{
				"x": 2.9301236447,
				"y": -0.4151586744,
				"z": -2.6180464426,
				"element": "H" 
			},
			{
				"x": 1.1734728833,
				"y": -0.2422586861,
				"z": -2.4465124216,
				"element": "H" 
			},
			{
				"x": 3.2701666549,
				"y": 0.6934644989,
				"z": -0.3984245563,
				"element": "H" 
			},
			{
				"x": 2.3229928343,
				"y": -0.7746218478,
				"z": -0.230291466,
				"element": "H" 
			},
			{
				"x": 1.5912006484,
				"y": 1.8566928146,
				"z": 0.5082255872,
				"element": "H" 
			},
			{
				"x": -0.4017919937,
				"y": 2.2830852369,
				"z": 1.6249733131,
				"element": "H" 
			},
			{
				"x": -2.5752739667,
				"y": 1.4453590239,
				"z": 2.424578416,
				"element": "H" 
			},
			{
				"x": -3.3938225241,
				"y": -0.8103182653,
				"z": 1.7365218772,
				"element": "H" 
			},
			{
				"x": -1.9784672364,
				"y": -2.2011240283,
				"z": 0.2305941359,
				"element": "H" 
			},
			{
				"x": 0.1830087663,
				"y": -1.3769978611,
				"z": -0.5793245416,
				"element": "H" 
			}
		],
		 "valence_orbital": [ 
			{
				"type": "occ",
				"energy": -0.34156,
				"method": "rhf"
			},
			{
				"type": "occ",
				"energy": -0.3273,
				"method": "rhf"
			},
			{
				"type": "occ",
				"energy": -0.28613,
				"method": "rhf"
			},
			{
				"type": "occ",
				"energy": -0.23752,
				"method": "rhf"
			},
			{
				"type": "occ",
				"energy": -0.18643,
				"method": "rhf"
			},
			{
				"type": "unocc",
				"energy": 0.01135,
				"method": "rhf"
			},
			{
				"type": "unocc",
				"energy": 0.0285,
				"method": "rhf"
			},
			{
				"type": "unocc",
				"energy": 0.07982,
				"method": "rhf"
			},
			{
				"type": "unocc",
				"energy": 0.101,
				"method": "rhf"
			},
			{
				"type": "unocc",
				"energy": 0.11368,
				"method": "rhf"
			}
		],
		"cosmo_sigma_profile": { 
			"-0.025": 0.0,
			"-0.024": 0.0,
			"-0.023": 0.0,
			"-0.022": 0.0,
			"-0.021": 0.0,
			"-0.02": 0.0,
			"-0.019": 0.0,
			"-0.018": 0.0,
			"-0.017": 0.0,
			"-0.016": 0.0,
			"-0.015": 0.0,
			"-0.014": 0.0,
			"-0.013": 0.018743274656,
			"-0.012": 1.43566898416,
			"-0.011": 1.18323633648,
			"-0.01": 1.48369588989,
			"-0.009": 1.60098106658,
			"-0.008": 1.52727822,
			"-0.007": 1.49664512444,
			"-0.006": 2.33402150166,
			"-0.005": 7.87351044068,
			"-0.004": 13.7962840708,
			"-0.003": 19.7596729642,
			"-0.002": 20.3494932759,
			"-0.001": 18.4948516656,
			"0.0": 13.9255820769,
			"0.001": 13.6259027943,
			"0.002": 9.45308722821,
			"0.003": 7.66029980491,
			"0.004": 7.59833894905,
			"0.005": 8.66370047569,
			"0.006": 8.95281524931,
			"0.007": 8.95001391725,
			"0.008": 6.70974746635,
			"0.009": 0.751862120285,
			"0.01": 0.158606531649,
			"0.011": 0.0,
			"0.012": 0.0,
			"0.013": 0.0,
			"0.014": 0.0,
			"0.015": 0.0,
			"0.016": 0.0,
			"0.017": 0.0,
			"0.018": 0.0,
			"0.019": 0.0,
			"0.02": 0.0,
			"0.021": 0.0,
			"0.022": 0.0,
			"0.023": 0.0,
			"0.024": 0.0,
			"0.025": 0.0
		}
	}
}
