{
	 "smiles": "COC(=O)C1=C(Cl)C=CC=C1Cl", 
	 "Tm": 301.15, 
	 "num_atms": 18, 
	 "gaussian": { 
		 "optdone": 1, 
		 "sigma_profile": "yes", 
		 "theory": "DFT", 
		 "functional": "B3LYP", 
		 "basiset": "6-31G**", 
		 "properties": { 
			 "R2extent": 2632.5602, 
			 "electric_dipole_moment_norm": 2.36223651652, 
			 "electric_quadrupole_moment_norm": 16.7442046234, 
			 "total_energy": -1379.29557232, 
			 "HOMO_LUMO_gap": 0.22399, 
			 "cosmo_polarized_energy": -8.59, 
			 "cosmo_cavitation_energy": 26.66, 
			 "cosmo_dispersion_energy": -18.96, 
			 "cosmo_repulsion_energy": 1.53, 
			 "cosmo_total_nonelectrostatic_energy": 9.23, 
			 "SMD_solvation_energy": 5.48 
		},
		"coords": [
			{
				"x": -0.6928863742,
				"y": -0.2415726369,
				"z": 3.7588937799,
				"element": "C" 
			},
			{
				"x": -0.7876005376,
				"y": -0.4145465676,
				"z": 2.3315815818,
				"element": "O" 
			},
			{
				"x": -0.0678617784,
				"y": 0.4533755689,
				"z": 1.603064394,
				"element": "C" 
			},
			{
				"x": 0.6246957264,
				"y": 1.3334591177,
				"z": 2.0571576433,
				"element": "O" 
			},
			{
				"x": -0.235831312,
				"y": 0.1867234994,
				"z": 0.1274002395,
				"element": "C" 
			},
			{
				"x": -1.2340874788,
				"y": 0.8278142599,
				"z": -0.6165652809,
				"element": "C" 
			},
			{
				"x": -2.356059798,
				"y": 1.9073068158,
				"z": 0.1929306778,
				"element": "Cl" 
			},
			{
				"x": -1.3668818302,
				"y": 0.6300046278,
				"z": -1.9896630357,
				"element": "C" 
			},
			{
				"x": -0.4831120403,
				"y": -0.22938989,
				"z": -2.6401091696,
				"element": "C" 
			},
			{
				"x": 0.5200554339,
				"y": -0.8869198389,
				"z": -1.9301940549,
				"element": "C" 
			},
			{
				"x": 0.6321316376,
				"y": -0.6724797309,
				"z": -0.5577504634,
				"element": "C" 
			},
			{
				"x": 1.8950500515,
				"y": -1.5102349073,
				"z": 0.3269078666,
				"element": "Cl" 
			},
			{
				"x": -1.3276392344,
				"y": -1.0155382192,
				"z": 4.188733979,
				"element": "H" 
			},
			{
				"x": 0.3415644695,
				"y": -0.3623314764,
				"z": 4.0887739522,
				"element": "H" 
			},
			{
				"x": -1.0458441597,
				"y": 0.7516852905,
				"z": 4.0458520929,
				"element": "H" 
			},
			{
				"x": -2.1515078666,
				"y": 1.1433413158,
				"z": -2.5331782721,
				"element": "H" 
			},
			{
				"x": -0.5777082122,
				"y": -0.3889803462,
				"z": -3.7095870435,
				"element": "H" 
			},
			{
				"x": 1.2099233038,
				"y": -1.5589168825,
				"z": -2.4272488869,
				"element": "H" 
			}
		],
		 "valence_orbital": [ 
			{
				"type": "occ",
				"energy": -0.32133,
				"method": "rhf"
			},
			{
				"type": "occ",
				"energy": -0.30918,
				"method": "rhf"
			},
			{
				"type": "occ",
				"energy": -0.29212,
				"method": "rhf"
			},
			{
				"type": "occ",
				"energy": -0.26458,
				"method": "rhf"
			},
			{
				"type": "occ",
				"energy": -0.25811,
				"method": "rhf"
			},
			{
				"type": "unocc",
				"energy": -0.03412,
				"method": "rhf"
			},
			{
				"type": "unocc",
				"energy": -0.03078,
				"method": "rhf"
			},
			{
				"type": "unocc",
				"energy": -0.00157,
				"method": "rhf"
			},
			{
				"type": "unocc",
				"energy": 0.00049,
				"method": "rhf"
			},
			{
				"type": "unocc",
				"energy": 0.04489,
				"method": "rhf"
			}
		],
		"cosmo_sigma_profile": { 
			"-0.025": 0.0,
			"-0.024": 0.0,
			"-0.023": 0.0,
			"-0.022": 0.0,
			"-0.021": 0.0,
			"-0.02": 0.0,
			"-0.019": 0.0,
			"-0.018": 0.0,
			"-0.017": 0.0,
			"-0.016": 0.0,
			"-0.015": 0.0,
			"-0.014": 0.0,
			"-0.013": 0.0,
			"-0.012": 0.0,
			"-0.011": 0.0,
			"-0.01": 0.0,
			"-0.009": 0.309855342361,
			"-0.008": 5.35973387746,
			"-0.007": 9.40443790843,
			"-0.006": 12.4868725012,
			"-0.005": 11.2199186014,
			"-0.004": 13.6959617683,
			"-0.003": 13.1219627355,
			"-0.002": 10.8054653467,
			"-0.001": 12.6684666917,
			"0.0": 23.4159140678,
			"0.001": 26.3132176716,
			"0.002": 22.5126071708,
			"0.003": 20.5747558679,
			"0.004": 13.9782800223,
			"0.005": 4.03234472901,
			"0.006": 3.10241130591,
			"0.007": 2.3900020195,
			"0.008": 2.07615968551,
			"0.009": 2.1194621192,
			"0.01": 3.40386259489,
			"0.011": 4.35330852334,
			"0.012": 0.814111072276,
			"0.013": 0.0,
			"0.014": 0.0,
			"0.015": 0.0,
			"0.016": 0.0,
			"0.017": 0.0,
			"0.018": 0.0,
			"0.019": 0.0,
			"0.02": 0.0,
			"0.021": 0.0,
			"0.022": 0.0,
			"0.023": 0.0,
			"0.024": 0.0,
			"0.025": 0.0
		}
	}
}
