{
	 "smiles": "CN1C=CN=C1C(N)=S", 
	 "Tm": 408.15, 
	 "num_atms": 16, 
	 "gaussian": { 
		 "optdone": 1, 
		 "sigma_profile": "yes", 
		 "theory": "DFT", 
		 "functional": "B3LYP", 
		 "basiset": "6-31G**", 
		 "properties": { 
			 "R2extent": 1539.9128, 
			 "electric_dipole_moment_norm": 2.94355282949, 
			 "electric_quadrupole_moment_norm": 13.0966835394, 
			 "total_energy": -757.201005912, 
			 "HOMO_LUMO_gap": 0.1537, 
			 "cosmo_polarized_energy": -12.38, 
			 "cosmo_cavitation_energy": 21.3, 
			 "cosmo_dispersion_energy": -16.49, 
			 "cosmo_repulsion_energy": 1.29, 
			 "cosmo_total_nonelectrostatic_energy": 6.1, 
			 "SMD_solvation_energy": 2.32 
		},
		"coords": [
			{
				"x": 1.8099759367,
				"y": 1.6893534141,
				"z": 0.1629234733,
				"element": "C" 
			},
			{
				"x": 0.3832128769,
				"y": 1.3693383639,
				"z": 0.1224607231,
				"element": "N" 
			},
			{
				"x": -0.5671036429,
				"y": 2.0444180046,
				"z": 0.8437071241,
				"element": "C" 
			},
			{
				"x": -1.7794345871,
				"y": 1.4588364859,
				"z": 0.5450470671,
				"element": "C" 
			},
			{
				"x": -1.5974166509,
				"y": 0.443947675,
				"z": -0.3391265577,
				"element": "N" 
			},
			{
				"x": -0.2870513723,
				"y": 0.3981476413,
				"z": -0.5880748497,
				"element": "C" 
			},
			{
				"x": 0.2731663402,
				"y": -0.5962053273,
				"z": -1.5155885358,
				"element": "C" 
			},
			{
				"x": -0.6818498054,
				"y": -1.389623999,
				"z": -2.0310886032,
				"element": "N" 
			},
			{
				"x": 1.8919687687,
				"y": -0.7671020145,
				"z": -1.9185729257,
				"element": "S" 
			},
			{
				"x": 2.3844163783,
				"y": 0.829736283,
				"z": 0.5085534438,
				"element": "H" 
			},
			{
				"x": 1.9427861137,
				"y": 2.5287399284,
				"z": 0.8483162386,
				"element": "H" 
			},
			{
				"x": 2.1694736697,
				"y": 1.9573313368,
				"z": -0.8307241633,
				"element": "H" 
			},
			{
				"x": -0.3013485747,
				"y": 2.8652198385,
				"z": 1.4924867226,
				"element": "H" 
			},
			{
				"x": -2.7574725286,
				"y": 1.7216574498,
				"z": 0.9234837445,
				"element": "H" 
			},
			{
				"x": -0.419291244,
				"y": -2.1126736435,
				"z": -2.6821289463,
				"element": "H" 
			},
			{
				"x": -1.6443316785,
				"y": -1.2413214371,
				"z": -1.7519739554,
				"element": "H" 
			}
		],
		 "valence_orbital": [ 
			{
				"type": "occ",
				"energy": -0.28945,
				"method": "rhf"
			},
			{
				"type": "occ",
				"energy": -0.28569,
				"method": "rhf"
			},
			{
				"type": "occ",
				"energy": -0.24513,
				"method": "rhf"
			},
			{
				"type": "occ",
				"energy": -0.22288,
				"method": "rhf"
			},
			{
				"type": "occ",
				"energy": -0.20965,
				"method": "rhf"
			},
			{
				"type": "unocc",
				"energy": -0.05595,
				"method": "rhf"
			},
			{
				"type": "unocc",
				"energy": 0.041,
				"method": "rhf"
			},
			{
				"type": "unocc",
				"energy": 0.07743,
				"method": "rhf"
			},
			{
				"type": "unocc",
				"energy": 0.08204,
				"method": "rhf"
			},
			{
				"type": "unocc",
				"energy": 0.10169,
				"method": "rhf"
			}
		],
		"cosmo_sigma_profile": { 
			"-0.025": 0.0,
			"-0.024": 0.0,
			"-0.023": 0.0,
			"-0.022": 0.0,
			"-0.021": 0.0,
			"-0.02": 0.0,
			"-0.019": 0.0,
			"-0.018": 0.0,
			"-0.017": 0.0,
			"-0.016": 0.0,
			"-0.015": 0.404090587346,
			"-0.014": 1.24482297741,
			"-0.013": 1.14664916287,
			"-0.012": 2.08323829617,
			"-0.011": 1.86661857866,
			"-0.01": 2.93980457914,
			"-0.009": 5.15359127809,
			"-0.008": 4.16032362757,
			"-0.007": 5.51805739506,
			"-0.006": 6.46411302732,
			"-0.005": 9.82300985176,
			"-0.004": 11.2680785773,
			"-0.003": 12.610181645,
			"-0.002": 9.27735178559,
			"-0.001": 7.92189418141,
			"0.0": 9.90779977873,
			"0.001": 10.5550963882,
			"0.002": 10.0003644044,
			"0.003": 9.58726597142,
			"0.004": 8.38200116382,
			"0.005": 5.77353865563,
			"0.006": 6.447337513,
			"0.007": 6.655369292,
			"0.008": 7.13666678541,
			"0.009": 6.87750314338,
			"0.01": 4.63010045453,
			"0.011": 2.79024340969,
			"0.012": 1.91492425991,
			"0.013": 0.0513581412135,
			"0.014": 0.0,
			"0.015": 0.0,
			"0.016": 0.0,
			"0.017": 0.0,
			"0.018": 0.0,
			"0.019": 0.0,
			"0.02": 0.0,
			"0.021": 0.0,
			"0.022": 0.0,
			"0.023": 0.0,
			"0.024": 0.0,
			"0.025": 0.0
		}
	}
}
