{
	 "smiles": "CCOC(=O)CBr", 
	 "Tm": 235.15, 
	 "num_atms": 14, 
	 "gaussian": { 
		 "optdone": 1, 
		 "sigma_profile": "yes", 
		 "theory": "DFT", 
		 "functional": "B3LYP", 
		 "basiset": "6-31G**", 
		 "properties": { 
			 "R2extent": 3572.2771, 
			 "electric_dipole_moment_norm": 3.33844707012, 
			 "electric_quadrupole_moment_norm": 6.11719964118, 
			 "total_energy": -2878.50527216, 
			 "HOMO_LUMO_gap": 0.27403, 
			 "cosmo_polarized_energy": -8.72, 
			 "cosmo_cavitation_energy": 20.23, 
			 "cosmo_dispersion_energy": -15.34, 
			 "cosmo_repulsion_energy": 1.34, 
			 "cosmo_total_nonelectrostatic_energy": 6.22, 
			 "SMD_solvation_energy": 3.69 
		},
		"coords": [
			{
				"x": 1.3090544166,
				"y": 0.4523709149,
				"z": 0.9084370716,
				"element": "C" 
			},
			{
				"x": 0.027419825,
				"y": 1.1875409474,
				"z": 0.5497459783,
				"element": "C" 
			},
			{
				"x": 0.0220782396,
				"y": 1.5865315992,
				"z": -0.8468347925,
				"element": "O" 
			},
			{
				"x": -0.4074110155,
				"y": 0.6637154722,
				"z": -1.7342714965,
				"element": "C" 
			},
			{
				"x": -0.7820162849,
				"y": -0.4483240804,
				"z": -1.4554395272,
				"element": "O" 
			},
			{
				"x": -0.3423462524,
				"y": 1.2890678187,
				"z": -3.1219291795,
				"element": "C" 
			},
			{
				"x": -0.8532180466,
				"y": 0.0560194651,
				"z": -4.5422834307,
				"element": "Br" 
			},
			{
				"x": 1.3765938655,
				"y": -0.4925011051,
				"z": 0.3637803968,
				"element": "H" 
			},
			{
				"x": 2.1872525981,
				"y": 1.0615779195,
				"z": 0.6754826918,
				"element": "H" 
			},
			{
				"x": 1.3196290077,
				"y": 0.2307755054,
				"z": 1.9807673165,
				"element": "H" 
			},
			{
				"x": -0.8518563462,
				"y": 0.5674523087,
				"z": 0.7388489323,
				"element": "H" 
			},
			{
				"x": -0.0650827552,
				"y": 2.128119768,
				"z": 1.0973782466,
				"element": "H" 
			},
			{
				"x": 0.6717291119,
				"y": 1.6323352998,
				"z": -3.3268913099,
				"element": "H" 
			},
			{
				"x": -1.0143263636,
				"y": 2.1465181665,
				"z": -3.1708908976,
				"element": "H" 
			}
		],
		 "valence_orbital": [ 
			{
				"type": "occ",
				"energy": -0.35103,
				"method": "rhf"
			},
			{
				"type": "occ",
				"energy": -0.31079,
				"method": "rhf"
			},
			{
				"type": "occ",
				"energy": -0.2859,
				"method": "rhf"
			},
			{
				"type": "occ",
				"energy": -0.27798,
				"method": "rhf"
			},
			{
				"type": "occ",
				"energy": -0.27667,
				"method": "rhf"
			},
			{
				"type": "unocc",
				"energy": -0.00264,
				"method": "rhf"
			},
			{
				"type": "unocc",
				"energy": 0.0015,
				"method": "rhf"
			},
			{
				"type": "unocc",
				"energy": 0.0952,
				"method": "rhf"
			},
			{
				"type": "unocc",
				"energy": 0.11112,
				"method": "rhf"
			},
			{
				"type": "unocc",
				"energy": 0.12322,
				"method": "rhf"
			}
		],
		"cosmo_sigma_profile": { 
			"-0.025": 0.0,
			"-0.024": 0.0,
			"-0.023": 0.0,
			"-0.022": 0.0,
			"-0.021": 0.0,
			"-0.02": 0.0,
			"-0.019": 0.0,
			"-0.018": 0.0,
			"-0.017": 0.0,
			"-0.016": 0.0,
			"-0.015": 0.0,
			"-0.014": 0.0,
			"-0.013": 0.0,
			"-0.012": 0.0,
			"-0.011": 0.0,
			"-0.01": 1.11798967084,
			"-0.009": 4.89163881031,
			"-0.008": 3.72279615379,
			"-0.007": 3.71776391051,
			"-0.006": 6.65653948037,
			"-0.005": 8.49718985674,
			"-0.004": 15.5973271861,
			"-0.003": 15.1972403034,
			"-0.002": 14.4980922742,
			"-0.001": 12.5554335835,
			"0.0": 12.371702194,
			"0.001": 6.64320940269,
			"0.002": 7.01655870552,
			"0.003": 6.53473623072,
			"0.004": 7.96823021238,
			"0.005": 10.7529611679,
			"0.006": 6.79221319373,
			"0.007": 3.29818290605,
			"0.008": 2.82288169533,
			"0.009": 2.1565668762,
			"0.01": 2.84246972447,
			"0.011": 4.39631824627,
			"0.012": 2.52324409257,
			"0.013": 0.296522832435,
			"0.014": 0.0,
			"0.015": 0.0,
			"0.016": 0.0,
			"0.017": 0.0,
			"0.018": 0.0,
			"0.019": 0.0,
			"0.02": 0.0,
			"0.021": 0.0,
			"0.022": 0.0,
			"0.023": 0.0,
			"0.024": 0.0,
			"0.025": 0.0
		}
	}
}
