{
	 "smiles": "NC1=C(C=NC=N1)C1=CC=CC=C1", 
	 "Tm": 429.15, 
	 "num_atms": 22, 
	 "gaussian": { 
		 "optdone": 1, 
		 "sigma_profile": "yes", 
		 "theory": "DFT", 
		 "functional": "B3LYP", 
		 "basiset": "6-31G**", 
		 "properties": { 
			 "R2extent": 2783.0105, 
			 "electric_dipole_moment_norm": 4.15654809427, 
			 "electric_quadrupole_moment_norm": 9.68774355823, 
			 "total_energy": -550.728788877, 
			 "HOMO_LUMO_gap": 0.20738, 
			 "cosmo_polarized_energy": -13.82, 
			 "cosmo_cavitation_energy": 26.61, 
			 "cosmo_dispersion_energy": -19.0, 
			 "cosmo_repulsion_energy": 1.51, 
			 "cosmo_total_nonelectrostatic_energy": 9.12, 
			 "SMD_solvation_energy": 1.45 
		},
		"coords": [
			{
				"x": -1.5125543393,
				"y": 2.2494615512,
				"z": 1.214488272,
				"element": "N" 
			},
			{
				"x": -0.1799599087,
				"y": 1.7369078703,
				"z": 1.3432943132,
				"element": "C" 
			},
			{
				"x": 0.4679444573,
				"y": 1.0251214607,
				"z": 0.3099999246,
				"element": "C" 
			},
			{
				"x": 1.7669670165,
				"y": 0.5893412193,
				"z": 0.5870883061,
				"element": "C" 
			},
			{
				"x": 2.3852186568,
				"y": 0.817642585,
				"z": 1.7511875713,
				"element": "N" 
			},
			{
				"x": 1.672138917,
				"y": 1.5008382068,
				"z": 2.6507477517,
				"element": "C" 
			},
			{
				"x": 0.4289689359,
				"y": 1.9700575892,
				"z": 2.5094686466,
				"element": "N" 
			},
			{
				"x": -0.1836604084,
				"y": 0.7477768203,
				"z": -1.0034766714,
				"element": "C" 
			},
			{
				"x": -0.0532977401,
				"y": 1.6502703953,
				"z": -2.0700469646,
				"element": "C" 
			},
			{
				"x": -0.6618799918,
				"y": 1.3897028537,
				"z": -3.2987855824,
				"element": "C" 
			},
			{
				"x": -1.4081433378,
				"y": 0.2235936065,
				"z": -3.4785434948,
				"element": "C" 
			},
			{
				"x": -1.540947713,
				"y": -0.6827216728,
				"z": -2.4249884821,
				"element": "C" 
			},
			{
				"x": -0.932763056,
				"y": -0.4230833286,
				"z": -1.1958544132,
				"element": "C" 
			},
			{
				"x": -1.5580228209,
				"y": 2.8717049418,
				"z": 0.409328271,
				"element": "H" 
			},
			{
				"x": -2.1478903915,
				"y": 1.4846064142,
				"z": 0.9933916735,
				"element": "H" 
			},
			{
				"x": 2.3261545298,
				"y": 0.0340382595,
				"z": -0.1648042137,
				"element": "H" 
			},
			{
				"x": 2.1559257685,
				"y": 1.6978967835,
				"z": 3.6058300496,
				"element": "H" 
			},
			{
				"x": 0.5329711271,
				"y": 2.5551765366,
				"z": -1.9345957521,
				"element": "H" 
			},
			{
				"x": -0.5498231621,
				"y": 2.0964452336,
				"z": -4.1160110015,
				"element": "H" 
			},
			{
				"x": -1.8808000267,
				"y": 0.0207891044,
				"z": -4.4350614894,
				"element": "H" 
			},
			{
				"x": -2.1155375166,
				"y": -1.5946403862,
				"z": -2.5597059881,
				"element": "H" 
			},
			{
				"x": -1.0317089959,
				"y": -1.1333260444,
				"z": -0.3793507263,
				"element": "H" 
			}
		],
		 "valence_orbital": [ 
			{
				"type": "occ",
				"energy": -0.27701,
				"method": "rhf"
			},
			{
				"type": "occ",
				"energy": -0.27496,
				"method": "rhf"
			},
			{
				"type": "occ",
				"energy": -0.2661,
				"method": "rhf"
			},
			{
				"type": "occ",
				"energy": -0.25952,
				"method": "rhf"
			},
			{
				"type": "occ",
				"energy": -0.24443,
				"method": "rhf"
			},
			{
				"type": "unocc",
				"energy": -0.03705,
				"method": "rhf"
			},
			{
				"type": "unocc",
				"energy": -0.02891,
				"method": "rhf"
			},
			{
				"type": "unocc",
				"energy": -0.01894,
				"method": "rhf"
			},
			{
				"type": "unocc",
				"energy": -0.01555,
				"method": "rhf"
			},
			{
				"type": "unocc",
				"energy": 0.07675,
				"method": "rhf"
			}
		],
		"cosmo_sigma_profile": { 
			"-0.025": 0.0,
			"-0.024": 0.0,
			"-0.023": 0.0,
			"-0.022": 0.0,
			"-0.021": 0.0,
			"-0.02": 0.0,
			"-0.019": 0.0,
			"-0.018": 0.0,
			"-0.017": 0.0,
			"-0.016": 0.0,
			"-0.015": 0.0,
			"-0.014": 0.0,
			"-0.013": 0.0,
			"-0.012": 0.0,
			"-0.011": 1.55859904764,
			"-0.01": 2.40724791756,
			"-0.009": 3.29089280081,
			"-0.008": 3.94047546283,
			"-0.007": 6.88778792301,
			"-0.006": 14.6696854964,
			"-0.005": 18.3292102102,
			"-0.004": 17.7035011862,
			"-0.003": 15.1466423857,
			"-0.002": 16.4194691666,
			"-0.001": 16.88835598,
			"0.0": 13.2088794363,
			"0.001": 10.695159697,
			"0.002": 11.0680359238,
			"0.003": 10.1557821898,
			"0.004": 10.9856834249,
			"0.005": 9.95520010229,
			"0.006": 4.0150613777,
			"0.007": 3.33383699377,
			"0.008": 2.03943241497,
			"0.009": 2.4932442345,
			"0.01": 1.84682180929,
			"0.011": 2.01925794847,
			"0.012": 1.83425363516,
			"0.013": 3.06439627002,
			"0.014": 2.08760919696,
			"0.015": 1.72186887776,
			"0.016": 2.00460727978,
			"0.017": 1.57545449335,
			"0.018": 1.16433736545,
			"0.019": 0.704994558477,
			"0.02": 0.0541379522701,
			"0.021": 0.0,
			"0.022": 0.0,
			"0.023": 0.0,
			"0.024": 0.0,
			"0.025": 0.0
		}
	}
}
