{
	 "smiles": "OC(=O)C1=C2C=C(Br)C=CC2=NC(C=CC2=CC=C(Cl)C=C2)=C1", 
	 "Tm": 594.15, 
	 "num_atms": 34, 
	 "gaussian": { 
		 "optdone": 1, 
		 "sigma_profile": "yes", 
		 "theory": "DFT", 
		 "functional": "B3LYP", 
		 "basiset": "6-31G**", 
		 "properties": { 
			 "R2extent": 16193.295, 
			 "electric_dipole_moment_norm": 3.45347512515, 
			 "electric_quadrupole_moment_norm": 14.4347524548, 
			 "total_energy": -3929.35247976, 
			 "HOMO_LUMO_gap": 0.12206, 
			 "cosmo_polarized_energy": -12.26, 
			 "cosmo_cavitation_energy": 43.7, 
			 "cosmo_dispersion_energy": -31.89, 
			 "cosmo_repulsion_energy": 2.37, 
			 "cosmo_total_nonelectrostatic_energy": 14.18, 
			 "SMD_solvation_energy": 6.16 
		},
		"coords": [
			{
				"x": -1.9897735596,
				"y": -4.0635004296,
				"z": 0.6985201376,
				"element": "O" 
			},
			{
				"x": -2.7743336255,
				"y": -2.9580218492,
				"z": 0.7140987432,
				"element": "C" 
			},
			{
				"x": -3.9700841889,
				"y": -3.0377102939,
				"z": 0.9164523887,
				"element": "O" 
			},
			{
				"x": -2.0005849417,
				"y": -1.7027892103,
				"z": 0.4613356853,
				"element": "C" 
			},
			{
				"x": -2.6240608303,
				"y": -0.4093281387,
				"z": 0.4324186726,
				"element": "C" 
			},
			{
				"x": -4.0078798288,
				"y": -0.166362019,
				"z": 0.6335838362,
				"element": "C" 
			},
			{
				"x": -4.4870643976,
				"y": 1.1232150548,
				"z": 0.5815805786,
				"element": "C" 
			},
			{
				"x": -6.3488791124,
				"y": 1.445314623,
				"z": 0.8527285642,
				"element": "Br" 
			},
			{
				"x": -3.6444716877,
				"y": 2.2298216357,
				"z": 0.3324248853,
				"element": "C" 
			},
			{
				"x": -2.3023025651,
				"y": 2.0151648976,
				"z": 0.1352438549,
				"element": "C" 
			},
			{
				"x": -1.753067223,
				"y": 0.7039698765,
				"z": 0.1780994652,
				"element": "C" 
			},
			{
				"x": -0.4150973206,
				"y": 0.5842530143,
				"z": -0.0277879553,
				"element": "N" 
			},
			{
				"x": 0.1459264374,
				"y": -0.6188929247,
				"z": 0.0022287416,
				"element": "C" 
			},
			{
				"x": 1.579052137,
				"y": -0.8395208789,
				"z": -0.2090805025,
				"element": "C" 
			},
			{
				"x": 2.6608605914,
				"y": -0.0559394038,
				"z": -0.4638199285,
				"element": "C" 
			},
			{
				"x": 2.9315038527,
				"y": 1.3698598402,
				"z": -0.6504271456,
				"element": "C" 
			},
			{
				"x": 4.2750245978,
				"y": 1.7240482967,
				"z": -0.9055682839,
				"element": "C" 
			},
			{
				"x": 4.664045186,
				"y": 3.0439896536,
				"z": -1.100936142,
				"element": "C" 
			},
			{
				"x": 3.6952179582,
				"y": 4.0459807425,
				"z": -1.0423073905,
				"element": "C" 
			},
			{
				"x": 4.1667668311,
				"y": 5.7199153356,
				"z": -1.2864819999,
				"element": "Cl" 
			},
			{
				"x": 2.3582931586,
				"y": 3.7352675138,
				"z": -0.7924544891,
				"element": "C" 
			},
			{
				"x": 1.9812104277,
				"y": 2.4096666193,
				"z": -0.5985671469,
				"element": "C" 
			},
			{
				"x": -0.6425489605,
				"y": -1.7859241248,
				"z": 0.2484164041,
				"element": "C" 
			},
			{
				"x": -2.5863928345,
				"y": -4.8103882772,
				"z": 0.8709752725,
				"element": "H" 
			},
			{
				"x": -4.669905704,
				"y": -0.9976539594,
				"z": 0.8254835848,
				"element": "H" 
			},
			{
				"x": -4.0616084784,
				"y": 3.2296825953,
				"z": 0.2994675519,
				"element": "H" 
			},
			{
				"x": -1.6264535885,
				"y": 2.8410765766,
				"z": -0.0583618462,
				"element": "H" 
			},
			{
				"x": 1.8259927879,
				"y": -1.8973507569,
				"z": -0.1433252948,
				"element": "H" 
			},
			{
				"x": 3.5761054398,
				"y": -0.6408088236,
				"z": -0.5545191532,
				"element": "H" 
			},
			{
				"x": 5.0304687822,
				"y": 0.9439685391,
				"z": -0.951317643,
				"element": "H" 
			},
			{
				"x": 5.7004211444,
				"y": 3.2962367372,
				"z": -1.2956797255,
				"element": "H" 
			},
			{
				"x": 1.6192861401,
				"y": 4.528193023,
				"z": -0.7506202616,
				"element": "H" 
			},
			{
				"x": 0.9468527956,
				"y": 2.1554143997,
				"z": -0.404054692,
				"element": "H" 
			},
			{
				"x": -0.159619421,
				"y": -2.7546478844,
				"z": 0.2674512339,
				"element": "H" 
			}
		],
		 "valence_orbital": [ 
			{
				"type": "occ",
				"energy": -0.26771,
				"method": "rhf"
			},
			{
				"type": "occ",
				"energy": -0.26435,
				"method": "rhf"
			},
			{
				"type": "occ",
				"energy": -0.26418,
				"method": "rhf"
			},
			{
				"type": "occ",
				"energy": -0.24841,
				"method": "rhf"
			},
			{
				"type": "occ",
				"energy": -0.21962,
				"method": "rhf"
			},
			{
				"type": "unocc",
				"energy": -0.09756,
				"method": "rhf"
			},
			{
				"type": "unocc",
				"energy": -0.06029,
				"method": "rhf"
			},
			{
				"type": "unocc",
				"energy": -0.02295,
				"method": "rhf"
			},
			{
				"type": "unocc",
				"energy": -0.01591,
				"method": "rhf"
			},
			{
				"type": "unocc",
				"energy": -0.0123,
				"method": "rhf"
			}
		],
		"cosmo_sigma_profile": { 
			"-0.025": 0.0,
			"-0.024": 0.0,
			"-0.023": 0.0,
			"-0.022": 0.0,
			"-0.021": 0.0,
			"-0.02": 0.0,
			"-0.019": 0.345032098957,
			"-0.018": 0.828710237369,
			"-0.017": 1.19883958577,
			"-0.016": 0.586022997195,
			"-0.015": 0.649509298795,
			"-0.014": 0.494015965375,
			"-0.013": 1.19781794523,
			"-0.012": 0.777532950465,
			"-0.011": 0.751198084103,
			"-0.01": 0.327776203699,
			"-0.009": 0.981041023471,
			"-0.008": 3.77098297978,
			"-0.007": 11.9937223831,
			"-0.006": 15.6611756257,
			"-0.005": 14.9923532105,
			"-0.004": 16.0038105841,
			"-0.003": 17.8013152423,
			"-0.002": 22.1761418906,
			"-0.001": 28.5340551898,
			"0.0": 32.4735957344,
			"0.001": 40.0941063657,
			"0.002": 38.9755834401,
			"0.003": 43.6603239103,
			"0.004": 37.2681339699,
			"0.005": 13.3037649235,
			"0.006": 3.35183697099,
			"0.007": 2.40620670422,
			"0.008": 1.4744639637,
			"0.009": 1.94707581378,
			"0.01": 2.38015716069,
			"0.011": 2.13425514413,
			"0.012": 0.173547282408,
			"0.013": 0.0,
			"0.014": 0.0,
			"0.015": 0.0,
			"0.016": 0.0,
			"0.017": 0.0,
			"0.018": 0.0,
			"0.019": 0.0,
			"0.02": 0.0,
			"0.021": 0.0,
			"0.022": 0.0,
			"0.023": 0.0,
			"0.024": 0.0,
			"0.025": 0.0
		}
	}
}
