{
	 "smiles": "ClC1=CC2=C(OC(=CC2=O)C2=CC=CC=C2)C=C1", 
	 "Tm": 458.15, 
	 "num_atms": 27, 
	 "gaussian": { 
		 "optdone": 1, 
		 "sigma_profile": "yes", 
		 "theory": "DFT", 
		 "functional": "B3LYP", 
		 "basiset": "6-31G**", 
		 "properties": { 
			 "R2extent": 6640.9535, 
			 "electric_dipole_moment_norm": 5.503155314, 
			 "electric_quadrupole_moment_norm": 9.45145957247, 
			 "total_energy": -1187.66197067, 
			 "HOMO_LUMO_gap": 0.1647, 
			 "cosmo_polarized_energy": -11.4, 
			 "cosmo_cavitation_energy": 33.84, 
			 "cosmo_dispersion_energy": -24.99, 
			 "cosmo_repulsion_energy": 1.88, 
			 "cosmo_total_nonelectrostatic_energy": 10.73, 
			 "SMD_solvation_energy": 6.13 
		},
		"coords": [
			{
				"x": 3.7885501798,
				"y": -0.7055501219,
				"z": 4.3312744738,
				"element": "Cl" 
			},
			{
				"x": 2.6480062668,
				"y": -0.6651993407,
				"z": 2.9965680093,
				"element": "C" 
			},
			{
				"x": 2.233947564,
				"y": 0.5502529451,
				"z": 2.4776740988,
				"element": "C" 
			},
			{
				"x": 1.3230519967,
				"y": 0.5718645968,
				"z": 1.4110512686,
				"element": "C" 
			},
			{
				"x": 0.8496051986,
				"y": -0.6394395496,
				"z": 0.8943223316,
				"element": "C" 
			},
			{
				"x": -0.0369514389,
				"y": -0.6850892037,
				"z": -0.1492860715,
				"element": "O" 
			},
			{
				"x": -0.4953750976,
				"y": 0.4734622321,
				"z": -0.7082283892,
				"element": "C" 
			},
			{
				"x": -0.1001608769,
				"y": 1.6926308329,
				"z": -0.2562761396,
				"element": "C" 
			},
			{
				"x": 0.8530812698,
				"y": 1.8552783216,
				"z": 0.8334492011,
				"element": "C" 
			},
			{
				"x": 1.2338378883,
				"y": 2.9478753437,
				"z": 1.2509949344,
				"element": "O" 
			},
			{
				"x": -1.4476820208,
				"y": 0.2209318964,
				"z": -1.8058059091,
				"element": "C" 
			},
			{
				"x": -2.1019566255,
				"y": -1.0185366605,
				"z": -1.9093699387,
				"element": "C" 
			},
			{
				"x": -3.0158522096,
				"y": -1.2506001105,
				"z": -2.9350972385,
				"element": "C" 
			},
			{
				"x": -3.2869063583,
				"y": -0.2550276583,
				"z": -3.8752056522,
				"element": "C" 
			},
			{
				"x": -2.6332634373,
				"y": 0.9765090422,
				"z": -3.7864020005,
				"element": "C" 
			},
			{
				"x": -1.7193240637,
				"y": 1.2133991363,
				"z": -2.7635089266,
				"element": "C" 
			},
			{
				"x": 1.2692781953,
				"y": -1.8665258266,
				"z": 1.4187097601,
				"element": "C" 
			},
			{
				"x": 2.1710713317,
				"y": -1.8780042883,
				"z": 2.4733374392,
				"element": "C" 
			},
			{
				"x": 2.5892280495,
				"y": 1.4976184782,
				"z": 2.8670414564,
				"element": "H" 
			},
			{
				"x": -0.5085527103,
				"y": 2.5937534406,
				"z": -0.6951050964,
				"element": "H" 
			},
			{
				"x": -1.8960594619,
				"y": -1.7924049938,
				"z": -1.1792092773,
				"element": "H" 
			},
			{
				"x": -3.5184397272,
				"y": -2.2111790549,
				"z": -2.9983373333,
				"element": "H" 
			},
			{
				"x": -3.9980783854,
				"y": -0.438300694,
				"z": -4.6751700722,
				"element": "H" 
			},
			{
				"x": -2.8282977752,
				"y": 1.7516916974,
				"z": -4.5213115812,
				"element": "H" 
			},
			{
				"x": -1.1986101922,
				"y": 2.1641867924,
				"z": -2.7220403,
				"element": "H" 
			},
			{
				"x": 0.8863297181,
				"y": -2.7883277143,
				"z": 0.9944784874,
				"element": "H" 
			},
			{
				"x": 2.509722722,
				"y": -2.8176695387,
				"z": 2.8950524655,
				"element": "H" 
			}
		],
		 "valence_orbital": [ 
			{
				"type": "occ",
				"energy": -0.2749,
				"method": "rhf"
			},
			{
				"type": "occ",
				"energy": -0.26916,
				"method": "rhf"
			},
			{
				"type": "occ",
				"energy": -0.2505,
				"method": "rhf"
			},
			{
				"type": "occ",
				"energy": -0.24533,
				"method": "rhf"
			},
			{
				"type": "occ",
				"energy": -0.2385,
				"method": "rhf"
			},
			{
				"type": "unocc",
				"energy": -0.0738,
				"method": "rhf"
			},
			{
				"type": "unocc",
				"energy": -0.04114,
				"method": "rhf"
			},
			{
				"type": "unocc",
				"energy": -0.01951,
				"method": "rhf"
			},
			{
				"type": "unocc",
				"energy": -0.0163,
				"method": "rhf"
			},
			{
				"type": "unocc",
				"energy": 0.01805,
				"method": "rhf"
			}
		],
		"cosmo_sigma_profile": { 
			"-0.025": 0.0,
			"-0.024": 0.0,
			"-0.023": 0.0,
			"-0.022": 0.0,
			"-0.021": 0.0,
			"-0.02": 0.0,
			"-0.019": 0.0,
			"-0.018": 0.0,
			"-0.017": 0.0,
			"-0.016": 0.0,
			"-0.015": 0.0,
			"-0.014": 0.0,
			"-0.013": 0.0,
			"-0.012": 0.0,
			"-0.011": 0.0,
			"-0.01": 0.0,
			"-0.009": 1.27757958032,
			"-0.008": 5.93993956683,
			"-0.007": 8.69397327812,
			"-0.006": 14.269983935,
			"-0.005": 15.6771981803,
			"-0.004": 17.8610857031,
			"-0.003": 15.7490537513,
			"-0.002": 19.1505206328,
			"-0.001": 24.8251687905,
			"0.0": 29.565255574,
			"0.001": 33.8300143179,
			"0.002": 21.3943839191,
			"0.003": 19.1915190198,
			"0.004": 23.6667659125,
			"0.005": 5.90229783773,
			"0.006": 1.30364157762,
			"0.007": 1.73259502486,
			"0.008": 1.63128043455,
			"0.009": 0.88112216784,
			"0.01": 1.64290709195,
			"0.011": 1.75948245702,
			"0.012": 2.621868503,
			"0.013": 4.94737751964,
			"0.014": 2.13782854118,
			"0.015": 0.259957328979,
			"0.016": 0.0,
			"0.017": 0.0,
			"0.018": 0.0,
			"0.019": 0.0,
			"0.02": 0.0,
			"0.021": 0.0,
			"0.022": 0.0,
			"0.023": 0.0,
			"0.024": 0.0,
			"0.025": 0.0
		}
	}
}
