{
	 "smiles": "NC1=NC=C(CC2=CC=C(Cl)C=C2)S1", 
	 "Tm": 401.15, 
	 "num_atms": 23, 
	 "gaussian": { 
		 "optdone": 1, 
		 "sigma_profile": "yes", 
		 "theory": "DFT", 
		 "functional": "B3LYP", 
		 "basiset": "6-31G**", 
		 "properties": { 
			 "R2extent": 5467.4456, 
			 "electric_dipole_moment_norm": 1.54533695031, 
			 "electric_quadrupole_moment_norm": 19.965094698, 
			 "total_energy": -1354.37053213, 
			 "HOMO_LUMO_gap": 0.19343, 
			 "cosmo_polarized_energy": -12.24, 
			 "cosmo_cavitation_energy": 31.1, 
			 "cosmo_dispersion_energy": -22.89, 
			 "cosmo_repulsion_energy": 1.78, 
			 "cosmo_total_nonelectrostatic_energy": 9.99, 
			 "SMD_solvation_energy": 2.76 
		},
		"coords": [
			{
				"x": 3.8130572151,
				"y": -1.1387057749,
				"z": 0.8139310131,
				"element": "N" 
			},
			{
				"x": 2.4389991614,
				"y": -1.0488996431,
				"z": 0.8437954064,
				"element": "C" 
			},
			{
				"x": 1.6567833772,
				"y": -1.998922242,
				"z": 1.2678035125,
				"element": "N" 
			},
			{
				"x": 0.3424237082,
				"y": -1.5801957495,
				"z": 1.248644164,
				"element": "C" 
			},
			{
				"x": 0.0831921678,
				"y": -0.318078681,
				"z": 0.8059353362,
				"element": "C" 
			},
			{
				"x": -1.2377744756,
				"y": 0.3828461316,
				"z": 0.6730212505,
				"element": "C" 
			},
			{
				"x": -1.6361450734,
				"y": 0.7540587929,
				"z": -0.7493008912,
				"element": "C" 
			},
			{
				"x": -2.0839057136,
				"y": 2.0439329033,
				"z": -1.0526681294,
				"element": "C" 
			},
			{
				"x": -2.4809530165,
				"y": 2.3885553157,
				"z": -2.3462132843,
				"element": "C" 
			},
			{
				"x": -2.4264937851,
				"y": 1.4236109647,
				"z": -3.3487753373,
				"element": "C" 
			},
			{
				"x": -2.9216048076,
				"y": 1.8427487886,
				"z": -4.9844772208,
				"element": "Cl" 
			},
			{
				"x": -1.9816832319,
				"y": 0.1292684204,
				"z": -3.0766236698,
				"element": "C" 
			},
			{
				"x": -1.588718441,
				"y": -0.1943976415,
				"z": -1.7797761593,
				"element": "C" 
			},
			{
				"x": 1.6155858979,
				"y": 0.4488505452,
				"z": 0.3806532908,
				"element": "S" 
			},
			{
				"x": 4.1430955026,
				"y": -2.0897511611,
				"z": 0.9177325142,
				"element": "H" 
			},
			{
				"x": 4.2886857433,
				"y": -0.6179694375,
				"z": 0.0908065911,
				"element": "H" 
			},
			{
				"x": -0.4284046499,
				"y": -2.268557431,
				"z": 1.5803182295,
				"element": "H" 
			},
			{
				"x": -1.2552642094,
				"y": 1.2880651188,
				"z": 1.2927810175,
				"element": "H" 
			},
			{
				"x": -1.9959103973,
				"y": -0.2879291042,
				"z": 1.0990160477,
				"element": "H" 
			},
			{
				"x": -2.1256643642,
				"y": 2.7965339081,
				"z": -0.2692633407,
				"element": "H" 
			},
			{
				"x": -2.8245178348,
				"y": 3.3918210937,
				"z": -2.5729974676,
				"element": "H" 
			},
			{
				"x": -1.9432397298,
				"y": -0.6099321015,
				"z": -3.8692713848,
				"element": "H" 
			},
			{
				"x": -1.2312430433,
				"y": -1.1977530158,
				"z": -1.5651714882,
				"element": "H" 
			}
		],
		 "valence_orbital": [ 
			{
				"type": "occ",
				"energy": -0.27392,
				"method": "rhf"
			},
			{
				"type": "occ",
				"energy": -0.27205,
				"method": "rhf"
			},
			{
				"type": "occ",
				"energy": -0.26211,
				"method": "rhf"
			},
			{
				"type": "occ",
				"energy": -0.24066,
				"method": "rhf"
			},
			{
				"type": "occ",
				"energy": -0.20931,
				"method": "rhf"
			},
			{
				"type": "unocc",
				"energy": -0.01588,
				"method": "rhf"
			},
			{
				"type": "unocc",
				"energy": -0.01408,
				"method": "rhf"
			},
			{
				"type": "unocc",
				"energy": -0.00417,
				"method": "rhf"
			},
			{
				"type": "unocc",
				"energy": 0.0123,
				"method": "rhf"
			},
			{
				"type": "unocc",
				"energy": 0.0317,
				"method": "rhf"
			}
		],
		"cosmo_sigma_profile": { 
			"-0.025": 0.0,
			"-0.024": 0.0,
			"-0.023": 0.0,
			"-0.022": 0.0,
			"-0.021": 0.0,
			"-0.02": 0.0,
			"-0.019": 0.0,
			"-0.018": 0.0,
			"-0.017": 0.0,
			"-0.016": 0.0,
			"-0.015": 0.107798379159,
			"-0.014": 1.64012591973,
			"-0.013": 2.94462041107,
			"-0.012": 2.37557003334,
			"-0.011": 2.7364533606,
			"-0.01": 2.64175164035,
			"-0.009": 1.96465967719,
			"-0.008": 1.42077618914,
			"-0.007": 6.01448052822,
			"-0.006": 15.1086294938,
			"-0.005": 15.5833920389,
			"-0.004": 13.2786116649,
			"-0.003": 13.1750149238,
			"-0.002": 14.947880412,
			"-0.001": 13.8967004429,
			"0.0": 14.5913642509,
			"0.001": 17.428370008,
			"0.002": 22.9914848276,
			"0.003": 25.3417054091,
			"0.004": 29.2739065792,
			"0.005": 16.9205181427,
			"0.006": 2.90521577776,
			"0.007": 2.71143388911,
			"0.008": 2.82002174042,
			"0.009": 1.31868969632,
			"0.01": 1.53373288461,
			"0.011": 1.91234497582,
			"0.012": 1.75434975182,
			"0.013": 1.08730929531,
			"0.014": 1.07188736032,
			"0.015": 0.773402441841,
			"0.016": 0.580955587152,
			"0.017": 0.0,
			"0.018": 0.0,
			"0.019": 0.0,
			"0.02": 0.0,
			"0.021": 0.0,
			"0.022": 0.0,
			"0.023": 0.0,
			"0.024": 0.0,
			"0.025": 0.0
		}
	}
}
