{
	 "smiles": "NS(=O)(=O)C1=C(Cl)N=CC=C1", 
	 "Tm": 457.15, 
	 "num_atms": 16, 
	 "gaussian": { 
		 "optdone": 1, 
		 "sigma_profile": "yes", 
		 "theory": "DFT", 
		 "functional": "B3LYP", 
		 "basiset": "6-31G**", 
		 "properties": { 
			 "R2extent": 2100.0816, 
			 "electric_dipole_moment_norm": 5.98451067089, 
			 "electric_quadrupole_moment_norm": 9.47113270311, 
			 "total_energy": -1311.78804741, 
			 "HOMO_LUMO_gap": 0.2149, 
			 "cosmo_polarized_energy": -18.5, 
			 "cosmo_cavitation_energy": 23.6, 
			 "cosmo_dispersion_energy": -18.29, 
			 "cosmo_repulsion_energy": 1.42, 
			 "cosmo_total_nonelectrostatic_energy": 6.73, 
			 "SMD_solvation_energy": 2.28 
		},
		"coords": [
			{
				"x": -2.2128000215,
				"y": 1.7558646539,
				"z": 0.6273892107,
				"element": "N" 
			},
			{
				"x": -1.7622045169,
				"y": 0.2297332042,
				"z": 0.0480117181,
				"element": "S" 
			},
			{
				"x": -1.8544172164,
				"y": -0.7029462347,
				"z": 1.1707116939,
				"element": "O" 
			},
			{
				"x": -2.4775292268,
				"y": 0.0168167842,
				"z": -1.2097004691,
				"element": "O" 
			},
			{
				"x": -0.0132185849,
				"y": 0.4753007388,
				"z": -0.3355328422,
				"element": "C" 
			},
			{
				"x": 0.7774933688,
				"y": -0.5678832499,
				"z": -0.8570689342,
				"element": "C" 
			},
			{
				"x": 0.0976425758,
				"y": -2.1502044208,
				"z": -1.156456152,
				"element": "Cl" 
			},
			{
				"x": 2.0578897208,
				"y": -0.4299922309,
				"z": -1.1505159257,
				"element": "N" 
			},
			{
				"x": 2.6368092281,
				"y": 0.7598115092,
				"z": -0.9432005762,
				"element": "C" 
			},
			{
				"x": 1.9534122212,
				"y": 1.8589874817,
				"z": -0.4329240855,
				"element": "C" 
			},
			{
				"x": 0.6019742234,
				"y": 1.7089912874,
				"z": -0.1244917235,
				"element": "C" 
			},
			{
				"x": -2.9397007443,
				"y": 2.1357093701,
				"z": 0.0265647501,
				"element": "H" 
			},
			{
				"x": -2.5306155356,
				"y": 1.6634382533,
				"z": 1.5886941213,
				"element": "H" 
			},
			{
				"x": 3.6916017579,
				"y": 0.8243901842,
				"z": -1.1997185809,
				"element": "H" 
			},
			{
				"x": 2.4595849044,
				"y": 2.8058320865,
				"z": -0.2798628759,
				"element": "H" 
			},
			{
				"x": 0.0164778461,
				"y": 2.5278505829,
				"z": 0.2757006709,
				"element": "H" 
			}
		],
		 "valence_orbital": [ 
			{
				"type": "occ",
				"energy": -0.31972,
				"method": "rhf"
			},
			{
				"type": "occ",
				"energy": -0.30444,
				"method": "rhf"
			},
			{
				"type": "occ",
				"energy": -0.30017,
				"method": "rhf"
			},
			{
				"type": "occ",
				"energy": -0.28715,
				"method": "rhf"
			},
			{
				"type": "occ",
				"energy": -0.27307,
				"method": "rhf"
			},
			{
				"type": "unocc",
				"energy": -0.05817,
				"method": "rhf"
			},
			{
				"type": "unocc",
				"energy": -0.0478,
				"method": "rhf"
			},
			{
				"type": "unocc",
				"energy": 0.018,
				"method": "rhf"
			},
			{
				"type": "unocc",
				"energy": 0.04223,
				"method": "rhf"
			},
			{
				"type": "unocc",
				"energy": 0.06861,
				"method": "rhf"
			}
		],
		"cosmo_sigma_profile": { 
			"-0.025": 0.0,
			"-0.024": 0.0,
			"-0.023": 0.0,
			"-0.022": 0.0,
			"-0.021": 0.0,
			"-0.02": 0.0,
			"-0.019": 0.0,
			"-0.018": 0.0,
			"-0.017": 0.0,
			"-0.016": 0.20161826988,
			"-0.015": 2.39631397511,
			"-0.014": 2.45148087896,
			"-0.013": 2.72081937718,
			"-0.012": 2.24465978149,
			"-0.011": 2.22109682993,
			"-0.01": 1.37079886339,
			"-0.009": 3.74947868515,
			"-0.008": 8.29105391913,
			"-0.007": 7.83923122478,
			"-0.006": 7.62386790572,
			"-0.005": 6.11471249898,
			"-0.004": 6.72654847584,
			"-0.003": 11.1324038448,
			"-0.002": 14.2547472885,
			"-0.001": 15.2091823093,
			"0.0": 14.0222955092,
			"0.001": 7.67069629665,
			"0.002": 7.87758815578,
			"0.003": 9.86346365641,
			"0.004": 7.7915165759,
			"0.005": 6.43533393612,
			"0.006": 4.85294078185,
			"0.007": 5.31893854212,
			"0.008": 5.46146914762,
			"0.009": 5.88251736033,
			"0.01": 12.6087804088,
			"0.011": 7.79212598356,
			"0.012": 0.749574046905,
			"0.013": 0.629930799024,
			"0.014": 0.164806232588,
			"0.015": 0.0,
			"0.016": 0.0,
			"0.017": 0.0,
			"0.018": 0.0,
			"0.019": 0.0,
			"0.02": 0.0,
			"0.021": 0.0,
			"0.022": 0.0,
			"0.023": 0.0,
			"0.024": 0.0,
			"0.025": 0.0
		}
	}
}
