{
	 "smiles": "CC(C)(C)OC(=O)N1CC(C)(C)NC2=C1C=CC=C2", 
	 "Tm": 366.15, 
	 "num_atms": 41, 
	 "gaussian": { 
		 "optdone": 1, 
		 "sigma_profile": "yes", 
		 "theory": "DFT", 
		 "functional": "B3LYP", 
		 "basiset": "6-31G**", 
		 "properties": { 
			 "R2extent": 5741.8568, 
			 "electric_dipole_moment_norm": 3.58811008332, 
			 "electric_quadrupole_moment_norm": 8.92367107753, 
			 "total_energy": -844.855837551, 
			 "HOMO_LUMO_gap": 0.19158, 
			 "cosmo_polarized_energy": -11.49, 
			 "cosmo_cavitation_energy": 40.78, 
			 "cosmo_dispersion_energy": -27.74, 
			 "cosmo_repulsion_energy": 2.12, 
			 "cosmo_total_nonelectrostatic_energy": 15.16, 
			 "SMD_solvation_energy": 7.11 
		},
		"coords": [
			{
				"x": 2.0991403503,
				"y": -1.9994450629,
				"z": 4.0570831709,
				"element": "C" 
			},
			{
				"x": 1.2994419619,
				"y": -2.488330592,
				"z": 2.8459354901,
				"element": "C" 
			},
			{
				"x": -0.103828546,
				"y": -2.9358320754,
				"z": 3.2691776564,
				"element": "C" 
			},
			{
				"x": 2.0635538211,
				"y": -3.5896945542,
				"z": 2.1031678275,
				"element": "C" 
			},
			{
				"x": 1.2172418198,
				"y": -1.2776886081,
				"z": 2.0124664112,
				"element": "O" 
			},
			{
				"x": 0.5757414722,
				"y": -1.2999163113,
				"z": 0.8158727498,
				"element": "C" 
			},
			{
				"x": 0.0193963408,
				"y": -2.2794959585,
				"z": 0.3463273747,
				"element": "O" 
			},
			{
				"x": 0.6481846766,
				"y": -0.0649889133,
				"z": 0.1966792339,
				"element": "N" 
			},
			{
				"x": 1.234505457,
				"y": 1.1097952599,
				"z": 0.8473823063,
				"element": "C" 
			},
			{
				"x": 0.1943264497,
				"y": 2.2399794601,
				"z": 0.9772742269,
				"element": "C" 
			},
			{
				"x": -0.9840668754,
				"y": 1.8054183207,
				"z": 1.8721714223,
				"element": "C" 
			},
			{
				"x": 0.8708144662,
				"y": 3.4918221703,
				"z": 1.5536908796,
				"element": "C" 
			},
			{
				"x": -0.2316891441,
				"y": 2.5364005067,
				"z": -0.3896742552,
				"element": "N" 
			},
			{
				"x": -0.436839492,
				"y": 1.5085112256,
				"z": -1.3112979698,
				"element": "C" 
			},
			{
				"x": 0.0191096803,
				"y": 0.1904135417,
				"z": -1.0630829947,
				"element": "C" 
			},
			{
				"x": -0.1229674761,
				"y": -0.7855987131,
				"z": -2.0574069022,
				"element": "C" 
			},
			{
				"x": -0.7426067441,
				"y": -0.4867890241,
				"z": -3.2690256415,
				"element": "C" 
			},
			{
				"x": -1.2137988237,
				"y": 0.8050738677,
				"z": -3.5087177892,
				"element": "C" 
			},
			{
				"x": -1.0547270294,
				"y": 1.7901716667,
				"z": -2.5410662775,
				"element": "C" 
			},
			{
				"x": 1.5741586557,
				"y": -1.1845081271,
				"z": 4.5644389258,
				"element": "H" 
			},
			{
				"x": 3.0848719009,
				"y": -1.6379309534,
				"z": 3.7497145038,
				"element": "H" 
			},
			{
				"x": 2.2376943619,
				"y": -2.8172909359,
				"z": 4.7703525897,
				"element": "H" 
			},
			{
				"x": -0.0246339924,
				"y": -3.7596445383,
				"z": 3.9860905613,
				"element": "H" 
			},
			{
				"x": -0.6337739524,
				"y": -2.1116893694,
				"z": 3.7574894118,
				"element": "H" 
			},
			{
				"x": -0.6841191404,
				"y": -3.2697263421,
				"z": 2.4092553121,
				"element": "H" 
			},
			{
				"x": 1.5072816931,
				"y": -3.9321324113,
				"z": 1.2308217759,
				"element": "H" 
			},
			{
				"x": 2.226883103,
				"y": -4.4384663483,
				"z": 2.7752733306,
				"element": "H" 
			},
			{
				"x": 3.0418616408,
				"y": -3.2204761363,
				"z": 1.779229148,
				"element": "H" 
			},
			{
				"x": 2.0744118846,
				"y": 1.4719608697,
				"z": 0.2421738977,
				"element": "H" 
			},
			{
				"x": 1.6076084879,
				"y": 0.8231665311,
				"z": 1.8257180494,
				"element": "H" 
			},
			{
				"x": -1.4916180069,
				"y": 0.9313626931,
				"z": 1.4558895716,
				"element": "H" 
			},
			{
				"x": -1.7177307404,
				"y": 2.6151528795,
				"z": 1.9525992502,
				"element": "H" 
			},
			{
				"x": -0.6442130492,
				"y": 1.5572142306,
				"z": 2.8837065014,
				"element": "H" 
			},
			{
				"x": 1.7260966498,
				"y": 3.7896783235,
				"z": 0.9402059989,
				"element": "H" 
			},
			{
				"x": 1.2145621622,
				"y": 3.3147539004,
				"z": 2.5778137541,
				"element": "H" 
			},
			{
				"x": 0.1661340065,
				"y": 4.3308132086,
				"z": 1.5823931449,
				"element": "H" 
			},
			{
				"x": -0.8637335723,
				"y": 3.3205811365,
				"z": -0.4838915493,
				"element": "H" 
			},
			{
				"x": 0.2280997627,
				"y": -1.7875648211,
				"z": -1.8567832255,
				"element": "H" 
			},
			{
				"x": -0.8528323335,
				"y": -1.2631498708,
				"z": -4.0195029545,
				"element": "H" 
			},
			{
				"x": -1.7008180556,
				"y": 1.0492751081,
				"z": -4.448422767,
				"element": "H" 
			},
			{
				"x": -1.4037238311,
				"y": 2.8035147663,
				"z": -2.7265221502,
				"element": "H" 
			}
		],
		 "valence_orbital": [ 
			{
				"type": "occ",
				"energy": -0.2871,
				"method": "rhf"
			},
			{
				"type": "occ",
				"energy": -0.27592,
				"method": "rhf"
			},
			{
				"type": "occ",
				"energy": -0.25784,
				"method": "rhf"
			},
			{
				"type": "occ",
				"energy": -0.21601,
				"method": "rhf"
			},
			{
				"type": "occ",
				"energy": -0.18351,
				"method": "rhf"
			},
			{
				"type": "unocc",
				"energy": 0.00807,
				"method": "rhf"
			},
			{
				"type": "unocc",
				"energy": 0.02486,
				"method": "rhf"
			},
			{
				"type": "unocc",
				"energy": 0.06034,
				"method": "rhf"
			},
			{
				"type": "unocc",
				"energy": 0.07007,
				"method": "rhf"
			},
			{
				"type": "unocc",
				"energy": 0.08692,
				"method": "rhf"
			}
		],
		"cosmo_sigma_profile": { 
			"-0.025": 0.0,
			"-0.024": 0.0,
			"-0.023": 0.0,
			"-0.022": 0.0,
			"-0.021": 0.0,
			"-0.02": 0.0,
			"-0.019": 0.0,
			"-0.018": 0.0,
			"-0.017": 0.0,
			"-0.016": 0.0,
			"-0.015": 0.0,
			"-0.014": 0.0,
			"-0.013": 0.0326268700654,
			"-0.012": 0.934022019349,
			"-0.011": 1.22370991977,
			"-0.01": 1.37669379123,
			"-0.009": 1.6399444998,
			"-0.008": 1.71739027988,
			"-0.007": 1.70627252331,
			"-0.006": 2.91826461682,
			"-0.005": 9.00988639875,
			"-0.004": 26.5456402635,
			"-0.003": 37.902003612,
			"-0.002": 35.3173365909,
			"-0.001": 34.6963580164,
			"0.0": 44.9541895461,
			"0.001": 37.2023033022,
			"0.002": 14.2121824756,
			"0.003": 12.0707362484,
			"0.004": 10.5415554262,
			"0.005": 10.4388146974,
			"0.006": 9.4486363196,
			"0.007": 10.9027292763,
			"0.008": 3.91862061588,
			"0.009": 2.25241590885,
			"0.01": 1.7984929291,
			"0.011": 1.60591370461,
			"0.012": 2.17754797093,
			"0.013": 1.81027942963,
			"0.014": 0.150734631575,
			"0.015": 0.0,
			"0.016": 0.0,
			"0.017": 0.0,
			"0.018": 0.0,
			"0.019": 0.0,
			"0.02": 0.0,
			"0.021": 0.0,
			"0.022": 0.0,
			"0.023": 0.0,
			"0.024": 0.0,
			"0.025": 0.0
		}
	}
}
