{
	 "smiles": "OC1=CC=C(Br)C2=CC=CN=C12", 
	 "Tm": 397.15, 
	 "num_atms": 18, 
	 "gaussian": { 
		 "optdone": 1, 
		 "sigma_profile": "yes", 
		 "theory": "DFT", 
		 "functional": "B3LYP", 
		 "basiset": "6-31G**", 
		 "properties": { 
			 "R2extent": 3831.3269, 
			 "electric_dipole_moment_norm": 1.80803415344, 
			 "electric_quadrupole_moment_norm": 7.57427813194, 
			 "total_energy": -3047.96262964, 
			 "HOMO_LUMO_gap": 0.15067, 
			 "cosmo_polarized_energy": -6.13, 
			 "cosmo_cavitation_energy": 24.15, 
			 "cosmo_dispersion_energy": -18.88, 
			 "cosmo_repulsion_energy": 1.47, 
			 "cosmo_total_nonelectrostatic_energy": 6.74, 
			 "SMD_solvation_energy": 2.41 
		},
		"coords": [
			{
				"x": -2.172388089,
				"y": -1.8264910435,
				"z": -2.3300702963,
				"element": "O" 
			},
			{
				"x": -1.087207764,
				"y": -1.0348229197,
				"z": -2.2349371773,
				"element": "C" 
			},
			{
				"x": -0.7797925599,
				"y": -0.0971040261,
				"z": -3.1997329621,
				"element": "C" 
			},
			{
				"x": 0.3696997796,
				"y": 0.7110473045,
				"z": -3.056514233,
				"element": "C" 
			},
			{
				"x": 1.2020681029,
				"y": 0.5860449007,
				"z": -1.965680055,
				"element": "C" 
			},
			{
				"x": 2.7432971187,
				"y": 1.7167409262,
				"z": -1.8389564443,
				"element": "Br" 
			},
			{
				"x": 0.9286651283,
				"y": -0.3647410143,
				"z": -0.9454636722,
				"element": "C" 
			},
			{
				"x": 1.7051817889,
				"y": -0.5879478082,
				"z": 0.2200175396,
				"element": "C" 
			},
			{
				"x": 1.3152528591,
				"y": -1.5486738699,
				"z": 1.1258080706,
				"element": "C" 
			},
			{
				"x": 0.1419928958,
				"y": -2.2998425533,
				"z": 0.877581107,
				"element": "C" 
			},
			{
				"x": -0.6092130681,
				"y": -2.1253006734,
				"z": -0.1925200735,
				"element": "N" 
			},
			{
				"x": -0.2351177206,
				"y": -1.1800329432,
				"z": -1.0943313704,
				"element": "C" 
			},
			{
				"x": -2.1495608047,
				"y": -2.3857944362,
				"z": -1.5274805575,
				"element": "H" 
			},
			{
				"x": -1.4244556833,
				"y": 0.0140215887,
				"z": -4.0644978779,
				"element": "H" 
			},
			{
				"x": 0.5987854605,
				"y": 1.4435870418,
				"z": -3.8222608954,
				"element": "H" 
			},
			{
				"x": 2.5993320529,
				"y": 0.0044947878,
				"z": 0.381340471,
				"element": "H" 
			},
			{
				"x": 1.894229995,
				"y": -1.7362160645,
				"z": 2.0241468229,
				"element": "H" 
			},
			{
				"x": -0.179669492,
				"y": -3.0628691975,
				"z": 1.5838516037,
				"element": "H" 
			}
		],
		 "valence_orbital": [ 
			{
				"type": "occ",
				"energy": -0.29379,
				"method": "rhf"
			},
			{
				"type": "occ",
				"energy": -0.29131,
				"method": "rhf"
			},
			{
				"type": "occ",
				"energy": -0.28353,
				"method": "rhf"
			},
			{
				"type": "occ",
				"energy": -0.26636,
				"method": "rhf"
			},
			{
				"type": "occ",
				"energy": -0.21423,
				"method": "rhf"
			},
			{
				"type": "unocc",
				"energy": -0.06356,
				"method": "rhf"
			},
			{
				"type": "unocc",
				"energy": -0.03,
				"method": "rhf"
			},
			{
				"type": "unocc",
				"energy": 0.00585,
				"method": "rhf"
			},
			{
				"type": "unocc",
				"energy": 0.01825,
				"method": "rhf"
			},
			{
				"type": "unocc",
				"energy": 0.07974,
				"method": "rhf"
			}
		],
		"cosmo_sigma_profile": { 
			"-0.025": 0.0,
			"-0.024": 0.0,
			"-0.023": 0.0,
			"-0.022": 0.0,
			"-0.021": 0.0,
			"-0.02": 0.0,
			"-0.019": 0.0,
			"-0.018": 0.0,
			"-0.017": 0.0,
			"-0.016": 0.0,
			"-0.015": 0.0,
			"-0.014": 0.0,
			"-0.013": 0.0754168660203,
			"-0.012": 0.364200946998,
			"-0.011": 0.463393796569,
			"-0.01": 0.664672410852,
			"-0.009": 0.554770096701,
			"-0.008": 1.89701754261,
			"-0.007": 9.76361214391,
			"-0.006": 10.9615351299,
			"-0.005": 9.74046660623,
			"-0.004": 9.02337333794,
			"-0.003": 9.36839418709,
			"-0.002": 11.0971336565,
			"-0.001": 12.4088914012,
			"0.0": 21.710075145,
			"0.001": 26.1427533153,
			"0.002": 23.8162352568,
			"0.003": 17.5252526163,
			"0.004": 12.2371842916,
			"0.005": 7.55462178448,
			"0.006": 2.7478267524,
			"0.007": 3.25662307566,
			"0.008": 1.8909642502,
			"0.009": 1.23692904682,
			"0.01": 1.67835589161,
			"0.011": 1.84702440918,
			"0.012": 0.0899921761185,
			"0.013": 0.0,
			"0.014": 0.0,
			"0.015": 0.0,
			"0.016": 0.0,
			"0.017": 0.0,
			"0.018": 0.0,
			"0.019": 0.0,
			"0.02": 0.0,
			"0.021": 0.0,
			"0.022": 0.0,
			"0.023": 0.0,
			"0.024": 0.0,
			"0.025": 0.0
		}
	}
}
