{
	 "smiles": "CCCCCCCOC(=O)CCCCCC", 
	 "Tm": 240.15, 
	 "num_atms": 44, 
	 "gaussian": { 
		 "optdone": 1, 
		 "sigma_profile": "yes", 
		 "theory": "DFT", 
		 "functional": "B3LYP", 
		 "basiset": "6-31G**", 
		 "properties": { 
			 "R2extent": 6132.9495, 
			 "electric_dipole_moment_norm": 1.92666923472, 
			 "electric_quadrupole_moment_norm": 5.70751013928, 
			 "total_energy": -700.864602176, 
			 "HOMO_LUMO_gap": 0.27643, 
			 "cosmo_polarized_energy": -6.48, 
			 "cosmo_cavitation_energy": 44.33, 
			 "cosmo_dispersion_energy": -28.13, 
			 "cosmo_repulsion_energy": 2.28, 
			 "cosmo_total_nonelectrostatic_energy": 18.48, 
			 "SMD_solvation_energy": 7.07 
		},
		"coords": [
			{
				"x": 3.5480366134,
				"y": -2.1040027942,
				"z": 0.6834627421,
				"element": "C" 
			},
			{
				"x": 3.4783924219,
				"y": -2.2347052178,
				"z": 2.2095087899,
				"element": "C" 
			},
			{
				"x": 2.2678118769,
				"y": -3.0344597644,
				"z": 2.7232042483,
				"element": "C" 
			},
			{
				"x": 0.8846066826,
				"y": -2.4416984569,
				"z": 2.39981129,
				"element": "C" 
			},
			{
				"x": 0.6254179374,
				"y": -1.0679615612,
				"z": 3.0362238984,
				"element": "C" 
			},
			{
				"x": -0.8074236555,
				"y": -0.54160696,
				"z": 2.848374858,
				"element": "C" 
			},
			{
				"x": -1.1961316688,
				"y": -0.2232833004,
				"z": 1.411128594,
				"element": "C" 
			},
			{
				"x": -0.3255614454,
				"y": 0.8307047719,
				"z": 0.93621778,
				"element": "O" 
			},
			{
				"x": -0.5476339745,
				"y": 1.2584581225,
				"z": -0.3280708823,
				"element": "C" 
			},
			{
				"x": -1.4205185642,
				"y": 0.8070382139,
				"z": -1.0412201472,
				"element": "O" 
			},
			{
				"x": 0.4479465828,
				"y": 2.3241733155,
				"z": -0.7343406524,
				"element": "C" 
			},
			{
				"x": 1.7976825493,
				"y": 1.7210327617,
				"z": -1.1898604227,
				"element": "C" 
			},
			{
				"x": 1.708337211,
				"y": 0.7155824078,
				"z": -2.3500382505,
				"element": "C" 
			},
			{
				"x": 1.0984168188,
				"y": 1.2850288304,
				"z": -3.6396036303,
				"element": "C" 
			},
			{
				"x": 1.205151325,
				"y": 0.3476204997,
				"z": -4.8541599023,
				"element": "C" 
			},
			{
				"x": 0.421543424,
				"y": -0.9630017635,
				"z": -4.7118425223,
				"element": "C" 
			},
			{
				"x": 3.5452212615,
				"y": -3.0887544218,
				"z": 0.2013998517,
				"element": "H" 
			},
			{
				"x": 2.7003562738,
				"y": -1.5385535489,
				"z": 0.2818844912,
				"element": "H" 
			},
			{
				"x": 4.4620468016,
				"y": -1.586400409,
				"z": 0.3739284681,
				"element": "H" 
			},
			{
				"x": 4.3911581844,
				"y": -2.728374846,
				"z": 2.566887302,
				"element": "H" 
			},
			{
				"x": 3.4842465734,
				"y": -1.235075681,
				"z": 2.6622804664,
				"element": "H" 
			},
			{
				"x": 2.3564159886,
				"y": -3.1461297324,
				"z": 3.812672683,
				"element": "H" 
			},
			{
				"x": 2.3182014967,
				"y": -4.0508855647,
				"z": 2.309188148,
				"element": "H" 
			},
			{
				"x": 0.1171852216,
				"y": -3.1454500155,
				"z": 2.7512000155,
				"element": "H" 
			},
			{
				"x": 0.7580786106,
				"y": -2.381535725,
				"z": 1.3115622791,
				"element": "H" 
			},
			{
				"x": 1.3254063295,
				"y": -0.3262484714,
				"z": 2.6354909668,
				"element": "H" 
			},
			{
				"x": 0.829660736,
				"y": -1.1329516023,
				"z": 4.113381837,
				"element": "H" 
			},
			{
				"x": -1.5275985513,
				"y": -1.2801882724,
				"z": 3.2259420823,
				"element": "H" 
			},
			{
				"x": -0.9453799328,
				"y": 0.3642729123,
				"z": 3.4510511378,
				"element": "H" 
			},
			{
				"x": -2.2331851791,
				"y": 0.1203034492,
				"z": 1.3440270751,
				"element": "H" 
			},
			{
				"x": -1.0972205629,
				"y": -1.0878938082,
				"z": 0.7475420834,
				"element": "H" 
			},
			{
				"x": -0.0076907976,
				"y": 2.9008998691,
				"z": -1.5423312687,
				"element": "H" 
			},
			{
				"x": 0.6230532991,
				"y": 2.993414882,
				"z": 0.1136857313,
				"element": "H" 
			},
			{
				"x": 2.4517277703,
				"y": 2.5537703578,
				"z": -1.4784791986,
				"element": "H" 
			},
			{
				"x": 2.2720657295,
				"y": 1.2373555415,
				"z": -0.3277879533,
				"element": "H" 
			},
			{
				"x": 1.1316698936,
				"y": -0.1601507187,
				"z": -2.0280500712,
				"element": "H" 
			},
			{
				"x": 2.7233274871,
				"y": 0.3514130606,
				"z": -2.5609378427,
				"element": "H" 
			},
			{
				"x": 0.0412770745,
				"y": 1.5218581081,
				"z": -3.4663229768,
				"element": "H" 
			},
			{
				"x": 1.5984567126,
				"y": 2.2340128119,
				"z": -3.8810699135,
				"element": "H" 
			},
			{
				"x": 2.263586842,
				"y": 0.1227183181,
				"z": -5.046921446,
				"element": "H" 
			},
			{
				"x": 0.8436107165,
				"y": 0.88396189,
				"z": -5.7409145116,
				"element": "H" 
			},
			{
				"x": 0.8103507737,
				"y": -1.5848064647,
				"z": -3.8989032291,
				"element": "H" 
			},
			{
				"x": 0.4757188335,
				"y": -1.5554133062,
				"z": -5.6313530987,
				"element": "H" 
			},
			{
				"x": -0.635821721,
				"y": -0.7681877174,
				"z": -4.4999488992,
				"element": "H" 
			}
		],
		 "valence_orbital": [ 
			{
				"type": "occ",
				"energy": -0.31164,
				"method": "rhf"
			},
			{
				"type": "occ",
				"energy": -0.30892,
				"method": "rhf"
			},
			{
				"type": "occ",
				"energy": -0.30596,
				"method": "rhf"
			},
			{
				"type": "occ",
				"energy": -0.2931,
				"method": "rhf"
			},
			{
				"type": "occ",
				"energy": -0.26215,
				"method": "rhf"
			},
			{
				"type": "unocc",
				"energy": 0.01428,
				"method": "rhf"
			},
			{
				"type": "unocc",
				"energy": 0.06188,
				"method": "rhf"
			},
			{
				"type": "unocc",
				"energy": 0.09494,
				"method": "rhf"
			},
			{
				"type": "unocc",
				"energy": 0.09854,
				"method": "rhf"
			},
			{
				"type": "unocc",
				"energy": 0.10298,
				"method": "rhf"
			}
		],
		"cosmo_sigma_profile": { 
			"-0.025": 0.0,
			"-0.024": 0.0,
			"-0.023": 0.0,
			"-0.022": 0.0,
			"-0.021": 0.0,
			"-0.02": 0.0,
			"-0.019": 0.0,
			"-0.018": 0.0,
			"-0.017": 0.0,
			"-0.016": 0.0,
			"-0.015": 0.0,
			"-0.014": 0.0,
			"-0.013": 0.0,
			"-0.012": 0.0,
			"-0.011": 0.0,
			"-0.01": 0.0,
			"-0.009": 0.0,
			"-0.008": 0.0,
			"-0.007": 0.0,
			"-0.006": 0.05402394737,
			"-0.005": 3.90022797687,
			"-0.004": 11.253027329,
			"-0.003": 25.7589026828,
			"-0.002": 58.905862286,
			"-0.001": 66.911164339,
			"0.0": 67.5377930586,
			"0.001": 51.8745930155,
			"0.002": 21.3872440798,
			"0.003": 5.84932203075,
			"0.004": 4.08261922938,
			"0.005": 3.21858589877,
			"0.006": 3.64098948436,
			"0.007": 2.13028271521,
			"0.008": 2.43335520271,
			"0.009": 2.04823622505,
			"0.01": 1.90536374968,
			"0.011": 1.95687777473,
			"0.012": 3.87237375634,
			"0.013": 1.78719379807,
			"0.014": 0.0,
			"0.015": 0.0,
			"0.016": 0.0,
			"0.017": 0.0,
			"0.018": 0.0,
			"0.019": 0.0,
			"0.02": 0.0,
			"0.021": 0.0,
			"0.022": 0.0,
			"0.023": 0.0,
			"0.024": 0.0,
			"0.025": 0.0
		}
	}
}
