{
	 "smiles": "O=C1OC(=CC2=CC=CC=C2)C2=C1C=CC=C2", 
	 "Tm": 373.15, 
	 "num_atms": 27, 
	 "gaussian": { 
		 "optdone": 1, 
		 "sigma_profile": "yes", 
		 "theory": "DFT", 
		 "functional": "B3LYP", 
		 "basiset": "6-31G**", 
		 "properties": { 
			 "R2extent": 5066.4768, 
			 "electric_dipole_moment_norm": 5.11553681347, 
			 "electric_quadrupole_moment_norm": 20.8644863328, 
			 "total_energy": -728.072376333, 
			 "HOMO_LUMO_gap": 0.14882, 
			 "cosmo_polarized_energy": -10.72, 
			 "cosmo_cavitation_energy": 31.76, 
			 "cosmo_dispersion_energy": -23.07, 
			 "cosmo_repulsion_energy": 1.76, 
			 "cosmo_total_nonelectrostatic_energy": 10.46, 
			 "SMD_solvation_energy": 6.16 
		},
		"coords": [
			{
				"x": -0.3403364185,
				"y": 4.6432928169,
				"z": 2.1526755352,
				"element": "O" 
			},
			{
				"x": -0.059362392,
				"y": 3.6713120407,
				"z": 1.4990955994,
				"element": "C" 
			},
			{
				"x": -1.0254917866,
				"y": 2.8081996218,
				"z": 0.9995951821,
				"element": "O" 
			},
			{
				"x": -0.4343185332,
				"y": 1.755782699,
				"z": 0.2976424008,
				"element": "C" 
			},
			{
				"x": -1.2655412228,
				"y": 0.8569642444,
				"z": -0.2660712354,
				"element": "C" 
			},
			{
				"x": -0.9391693807,
				"y": -0.3882643935,
				"z": -0.9731678794,
				"element": "C" 
			},
			{
				"x": 0.0513342536,
				"y": -1.2800773213,
				"z": -0.5223639963,
				"element": "C" 
			},
			{
				"x": 0.3059015746,
				"y": -2.4689285086,
				"z": -1.2049449774,
				"element": "C" 
			},
			{
				"x": -0.4309846717,
				"y": -2.7989147631,
				"z": -2.3444352749,
				"element": "C" 
			},
			{
				"x": -1.4365234153,
				"y": -1.9365854514,
				"z": -2.7880272678,
				"element": "C" 
			},
			{
				"x": -1.6938326885,
				"y": -0.750104509,
				"z": -2.104963029,
				"element": "C" 
			},
			{
				"x": 1.0186279339,
				"y": 1.9716203986,
				"z": 0.3172707414,
				"element": "C" 
			},
			{
				"x": 1.2422234452,
				"y": 3.1411523513,
				"z": 1.0569545196,
				"element": "C" 
			},
			{
				"x": 2.5130530643,
				"y": 3.6723601424,
				"z": 1.2575033484,
				"element": "C" 
			},
			{
				"x": 3.5918598602,
				"y": 3.0031959587,
				"z": 0.6828405583,
				"element": "C" 
			},
			{
				"x": 3.3804932951,
				"y": 1.8425118024,
				"z": -0.0793695132,
				"element": "C" 
			},
			{
				"x": 2.1041874612,
				"y": 1.312992247,
				"z": -0.2735265492,
				"element": "C" 
			},
			{
				"x": -2.3226498103,
				"y": 1.1006992648,
				"z": -0.1823863501,
				"element": "H" 
			},
			{
				"x": 0.5987142958,
				"y": -1.0517132891,
				"z": 0.3865371007,
				"element": "H" 
			},
			{
				"x": 1.0705562654,
				"y": -3.1467280077,
				"z": -0.8360507399,
				"element": "H" 
			},
			{
				"x": -0.2338994696,
				"y": -3.7268075109,
				"z": -2.873135736,
				"element": "H" 
			},
			{
				"x": -2.0240998425,
				"y": -2.1907919571,
				"z": -3.6655264731,
				"element": "H" 
			},
			{
				"x": -2.4795086816,
				"y": -0.0845856927,
				"z": -2.4523413079,
				"element": "H" 
			},
			{
				"x": 2.6413726903,
				"y": 4.5811102617,
				"z": 1.8368095755,
				"element": "H" 
			},
			{
				"x": 4.6007219648,
				"y": 3.3818292713,
				"z": 0.8150488643,
				"element": "H" 
			},
			{
				"x": 4.2323828423,
				"y": 1.3434280428,
				"z": -0.5321658409,
				"element": "H" 
			},
			{
				"x": 1.9677893668,
				"y": 0.4207502409,
				"z": -0.8717972555,
				"element": "H" 
			}
		],
		 "valence_orbital": [ 
			{
				"type": "occ",
				"energy": -0.27642,
				"method": "rhf"
			},
			{
				"type": "occ",
				"energy": -0.27376,
				"method": "rhf"
			},
			{
				"type": "occ",
				"energy": -0.27318,
				"method": "rhf"
			},
			{
				"type": "occ",
				"energy": -0.26116,
				"method": "rhf"
			},
			{
				"type": "occ",
				"energy": -0.22174,
				"method": "rhf"
			},
			{
				"type": "unocc",
				"energy": -0.07292,
				"method": "rhf"
			},
			{
				"type": "unocc",
				"energy": -0.0433,
				"method": "rhf"
			},
			{
				"type": "unocc",
				"energy": -0.01245,
				"method": "rhf"
			},
			{
				"type": "unocc",
				"energy": -0.00599,
				"method": "rhf"
			},
			{
				"type": "unocc",
				"energy": 0.04315,
				"method": "rhf"
			}
		],
		"cosmo_sigma_profile": { 
			"-0.025": 0.0,
			"-0.024": 0.0,
			"-0.023": 0.0,
			"-0.022": 0.0,
			"-0.021": 0.0,
			"-0.02": 0.0,
			"-0.019": 0.0,
			"-0.018": 0.0,
			"-0.017": 0.0,
			"-0.016": 0.0,
			"-0.015": 0.0,
			"-0.014": 0.0,
			"-0.013": 0.0,
			"-0.012": 0.0,
			"-0.011": 0.0,
			"-0.01": 0.0,
			"-0.009": 0.0,
			"-0.008": 0.428750535469,
			"-0.007": 6.93548434329,
			"-0.006": 17.679665651,
			"-0.005": 21.1345501014,
			"-0.004": 22.3500318822,
			"-0.003": 19.6649839535,
			"-0.002": 18.1081067925,
			"-0.001": 17.3022173682,
			"0.0": 18.9338082724,
			"0.001": 21.3180980929,
			"0.002": 26.749865368,
			"0.003": 18.5949608836,
			"0.004": 11.5591522418,
			"0.005": 10.4244993712,
			"0.006": 2.72807332034,
			"0.007": 3.04258205952,
			"0.008": 3.02225291757,
			"0.009": 3.96021482072,
			"0.01": 3.11816513932,
			"0.011": 5.79731202093,
			"0.012": 3.33429635685,
			"0.013": 0.228814531196,
			"0.014": 0.0,
			"0.015": 0.0,
			"0.016": 0.0,
			"0.017": 0.0,
			"0.018": 0.0,
			"0.019": 0.0,
			"0.02": 0.0,
			"0.021": 0.0,
			"0.022": 0.0,
			"0.023": 0.0,
			"0.024": 0.0,
			"0.025": 0.0
		}
	}
}
