{
	 "smiles": "ICC1=C2N=CC=CC2=CC=C1", 
	 "Tm": 353.15, 
	 "num_atms": 20, 
	 "gaussian": { 
		 "optdone": 1, 
		 "sigma_profile": "yes", 
		 "theory": "DFT", 
		 "functional": "B3LYP", 
		 "basiset": "6-31G**", 
		 "properties": { 
			 "R2extent": 2272.0329, 
			 "electric_dipole_moment_norm": 4.08016572948, 
			 "electric_quadrupole_moment_norm": 13.2311243986, 
			 "total_energy": -452.039408315, 
			 "HOMO_LUMO_gap": 0.16086, 
			 "cosmo_polarized_energy": -8.79, 
			 "cosmo_cavitation_energy": 26.94, 
			 "cosmo_dispersion_energy": -20.96, 
			 "cosmo_repulsion_energy": 1.63, 
			 "cosmo_total_nonelectrostatic_energy": 7.61, 
			 "SMD_solvation_energy": 2.47 
		},
		"coords": [
			{
				"x": 2.0955327401,
				"y": -2.1173589202,
				"z": 3.1146999886,
				"element": "I" 
			},
			{
				"x": 2.0737381855,
				"y": -0.8452240161,
				"z": 1.286126105,
				"element": "C" 
			},
			{
				"x": 0.7182370611,
				"y": -0.3326413482,
				"z": 0.956577618,
				"element": "C" 
			},
			{
				"x": -0.123437111,
				"y": -1.0696969716,
				"z": 0.0597417943,
				"element": "C" 
			},
			{
				"x": 0.3520969535,
				"y": -2.2292066804,
				"z": -0.475445281,
				"element": "N" 
			},
			{
				"x": -0.4289400704,
				"y": -2.9050617276,
				"z": -1.2942794244,
				"element": "C" 
			},
			{
				"x": -1.7365725409,
				"y": -2.4994457415,
				"z": -1.6591815207,
				"element": "C" 
			},
			{
				"x": -2.2290282703,
				"y": -1.3267134327,
				"z": -1.1385082139,
				"element": "C" 
			},
			{
				"x": -1.4262204471,
				"y": -0.5645077305,
				"z": -0.2513234155,
				"element": "C" 
			},
			{
				"x": -1.8608631994,
				"y": 0.6578829217,
				"z": 0.323291862,
				"element": "C" 
			},
			{
				"x": -1.0321798912,
				"y": 1.3566953232,
				"z": 1.1721956076,
				"element": "C" 
			},
			{
				"x": 0.2517620553,
				"y": 0.8582534751,
				"z": 1.4862768939,
				"element": "C" 
			},
			{
				"x": 2.7792516856,
				"y": -0.0550823914,
				"z": 1.5315956017,
				"element": "H" 
			},
			{
				"x": 2.4593714394,
				"y": -1.5144205903,
				"z": 0.5234676728,
				"element": "H" 
			},
			{
				"x": -0.0174226583,
				"y": -3.8268348902,
				"z": -1.7036447669,
				"element": "H" 
			},
			{
				"x": -2.3227178299,
				"y": -3.1090426575,
				"z": -2.3392845891,
				"element": "H" 
			},
			{
				"x": -3.2240339341,
				"y": -0.9712740187,
				"z": -1.3943745037,
				"element": "H" 
			},
			{
				"x": -2.8521350331,
				"y": 1.0319974424,
				"z": 0.0808777429,
				"element": "H" 
			},
			{
				"x": -1.3613376289,
				"y": 2.2947549928,
				"z": 1.6087345276,
				"element": "H" 
			},
			{
				"x": 0.884998494,
				"y": 1.4181269617,
				"z": 2.1695563007,
				"element": "H" 
			}
		],
		 "valence_orbital": [ 
			{
				"type": "occ",
				"energy": -0.26364,
				"method": "rhf"
			},
			{
				"type": "occ",
				"energy": -0.2608,
				"method": "rhf"
			},
			{
				"type": "occ",
				"energy": -0.24973,
				"method": "rhf"
			},
			{
				"type": "occ",
				"energy": -0.24605,
				"method": "rhf"
			},
			{
				"type": "occ",
				"energy": -0.23335,
				"method": "rhf"
			},
			{
				"type": "unocc",
				"energy": -0.07249,
				"method": "rhf"
			},
			{
				"type": "unocc",
				"energy": -0.03759,
				"method": "rhf"
			},
			{
				"type": "unocc",
				"energy": -0.02429,
				"method": "rhf"
			},
			{
				"type": "unocc",
				"energy": 0.02005,
				"method": "rhf"
			},
			{
				"type": "unocc",
				"energy": 0.05084,
				"method": "rhf"
			}
		],
		"cosmo_sigma_profile": { 
			"-0.025": 0.0,
			"-0.024": 0.0,
			"-0.023": 0.0,
			"-0.022": 0.0,
			"-0.021": 0.0,
			"-0.02": 0.0,
			"-0.019": 0.0,
			"-0.018": 0.0,
			"-0.017": 0.0,
			"-0.016": 0.0,
			"-0.015": 0.0,
			"-0.014": 0.0,
			"-0.013": 0.0,
			"-0.012": 0.0,
			"-0.011": 0.0,
			"-0.01": 0.0,
			"-0.009": 0.0,
			"-0.008": 1.56114537698,
			"-0.007": 11.217684263,
			"-0.006": 16.725097505,
			"-0.005": 16.5941183458,
			"-0.004": 14.5258782216,
			"-0.003": 13.5692318273,
			"-0.002": 11.3723776095,
			"-0.001": 11.9910263445,
			"0.0": 12.1545400245,
			"0.001": 19.6935978337,
			"0.002": 24.8818824118,
			"0.003": 18.4388023545,
			"0.004": 12.0677974367,
			"0.005": 10.6383566489,
			"0.006": 15.2545565801,
			"0.007": 4.80407399392,
			"0.008": 2.00069812447,
			"0.009": 1.02878168154,
			"0.01": 1.38860790761,
			"0.011": 0.948089369972,
			"0.012": 0.550128026915,
			"0.013": 0.0368629526024,
			"0.014": 0.0,
			"0.015": 0.0,
			"0.016": 0.0,
			"0.017": 0.0,
			"0.018": 0.0,
			"0.019": 0.0,
			"0.02": 0.0,
			"0.021": 0.0,
			"0.022": 0.0,
			"0.023": 0.0,
			"0.024": 0.0,
			"0.025": 0.0
		}
	}
}
