{
	 "smiles": "CCOC1=C2OCC(CC2=CC=C1)C(O)=O", 
	 "Tm": 434.15, 
	 "num_atms": 30, 
	 "gaussian": { 
		 "optdone": 1, 
		 "sigma_profile": "yes", 
		 "theory": "DFT", 
		 "functional": "B3LYP", 
		 "basiset": "6-31G**", 
		 "properties": { 
			 "R2extent": 4713.0912, 
			 "electric_dipole_moment_norm": 2.58314578373, 
			 "electric_quadrupole_moment_norm": 19.6436088474, 
			 "total_energy": -766.603883337, 
			 "HOMO_LUMO_gap": 0.21176, 
			 "cosmo_polarized_energy": -17.78, 
			 "cosmo_cavitation_energy": 32.97, 
			 "cosmo_dispersion_energy": -23.77, 
			 "cosmo_repulsion_energy": 1.87, 
			 "cosmo_total_nonelectrostatic_energy": 11.07, 
			 "SMD_solvation_energy": 6.83 
		},
		"coords": [
			{
				"x": -4.2698674455,
				"y": -0.6697424229,
				"z": -1.5128538207,
				"element": "C" 
			},
			{
				"x": -3.0938799827,
				"y": -0.5214784407,
				"z": -0.5647216259,
				"element": "C" 
			},
			{
				"x": -2.9159380518,
				"y": 0.8842372816,
				"z": -0.3139476891,
				"element": "O" 
			},
			{
				"x": -1.9061819136,
				"y": 1.2273755006,
				"z": 0.5488894819,
				"element": "C" 
			},
			{
				"x": -0.5489472644,
				"y": 1.0840514222,
				"z": 0.1858450114,
				"element": "C" 
			},
			{
				"x": -0.2984659462,
				"y": 0.5568534012,
				"z": -1.0549842863,
				"element": "O" 
			},
			{
				"x": 1.0395533749,
				"y": 0.1312530671,
				"z": -1.314288308,
				"element": "C" 
			},
			{
				"x": 2.0505669155,
				"y": 1.1900709122,
				"z": -0.8740202523,
				"element": "C" 
			},
			{
				"x": 1.9201486215,
				"y": 1.3888195409,
				"z": 0.6511507946,
				"element": "C" 
			},
			{
				"x": 0.464214501,
				"y": 1.5126036927,
				"z": 1.0557066081,
				"element": "C" 
			},
			{
				"x": 0.1072110736,
				"y": 2.0789963138,
				"z": 2.2872142242,
				"element": "C" 
			},
			{
				"x": -1.2276236162,
				"y": 2.2223043859,
				"z": 2.6511340746,
				"element": "C" 
			},
			{
				"x": -2.2312797772,
				"y": 1.7945704034,
				"z": 1.7783245513,
				"element": "C" 
			},
			{
				"x": 3.4604353441,
				"y": 0.7826969551,
				"z": -1.2833347411,
				"element": "C" 
			},
			{
				"x": 4.4385136529,
				"y": 1.6857147597,
				"z": -1.0100168353,
				"element": "O" 
			},
			{
				"x": 3.7367439944,
				"y": -0.2692729838,
				"z": -1.8054105298,
				"element": "O" 
			},
			{
				"x": -4.4515002289,
				"y": -1.727922445,
				"z": -1.7262610419,
				"element": "H" 
			},
			{
				"x": -5.1768669826,
				"y": -0.2423625938,
				"z": -1.0755042563,
				"element": "H" 
			},
			{
				"x": -4.0676912013,
				"y": -0.1551697224,
				"z": -2.4565544997,
				"element": "H" 
			},
			{
				"x": -3.2882558774,
				"y": -1.0352861237,
				"z": 0.3876970878,
				"element": "H" 
			},
			{
				"x": -2.1813918792,
				"y": -0.9404339944,
				"z": -1.0018582829,
				"element": "H" 
			},
			{
				"x": 1.0939975096,
				"y": -0.0521447146,
				"z": -2.3877522804,
				"element": "H" 
			},
			{
				"x": 1.2430977527,
				"y": -0.8144394445,
				"z": -0.7954878646,
				"element": "H" 
			},
			{
				"x": 1.7999825245,
				"y": 2.1340045841,
				"z": -1.3793010124,
				"element": "H" 
			},
			{
				"x": 2.4658017348,
				"y": 2.2804088841,
				"z": 0.9845819775,
				"element": "H" 
			},
			{
				"x": 2.3867938735,
				"y": 0.5353879331,
				"z": 1.1622000727,
				"element": "H" 
			},
			{
				"x": 0.8941592604,
				"y": 2.416453573,
				"z": 2.9574119622,
				"element": "H" 
			},
			{
				"x": -1.4899930271,
				"y": 2.6655350191,
				"z": 3.6066604932,
				"element": "H" 
			},
			{
				"x": -3.2825313196,
				"y": 1.8991139931,
				"z": 2.0267685578,
				"element": "H" 
			},
			{
				"x": 4.0603943801,
				"y": 2.4819012629,
				"z": -0.6100875705,
				"element": "H" 
			}
		],
		 "valence_orbital": [ 
			{
				"type": "occ",
				"energy": -0.31517,
				"method": "rhf"
			},
			{
				"type": "occ",
				"energy": -0.28082,
				"method": "rhf"
			},
			{
				"type": "occ",
				"energy": -0.27035,
				"method": "rhf"
			},
			{
				"type": "occ",
				"energy": -0.23908,
				"method": "rhf"
			},
			{
				"type": "occ",
				"energy": -0.21847,
				"method": "rhf"
			},
			{
				"type": "unocc",
				"energy": -0.00671,
				"method": "rhf"
			},
			{
				"type": "unocc",
				"energy": -0.00063,
				"method": "rhf"
			},
			{
				"type": "unocc",
				"energy": 0.00576,
				"method": "rhf"
			},
			{
				"type": "unocc",
				"energy": 0.03964,
				"method": "rhf"
			},
			{
				"type": "unocc",
				"energy": 0.0858,
				"method": "rhf"
			}
		],
		"cosmo_sigma_profile": { 
			"-0.025": 0.0,
			"-0.024": 0.0,
			"-0.023": 0.0,
			"-0.022": 0.0,
			"-0.021": 0.0,
			"-0.02": 0.0,
			"-0.019": 0.499318895841,
			"-0.018": 0.94163909041,
			"-0.017": 1.0835956719,
			"-0.016": 1.24193072257,
			"-0.015": 1.30259023782,
			"-0.014": 1.39359975563,
			"-0.013": 0.786079410295,
			"-0.012": 0.705947072995,
			"-0.011": 1.80964199363,
			"-0.01": 1.11835566742,
			"-0.009": 1.3032688644,
			"-0.008": 2.43284776601,
			"-0.007": 5.24413340592,
			"-0.006": 12.788986231,
			"-0.005": 16.1082415808,
			"-0.004": 18.5012138466,
			"-0.003": 24.7293376779,
			"-0.002": 23.0912653781,
			"-0.001": 20.3092272733,
			"0.0": 18.5682239732,
			"0.001": 14.741270391,
			"0.002": 10.1703999739,
			"0.003": 10.4989726514,
			"0.004": 12.5036800532,
			"0.005": 11.4834079699,
			"0.006": 9.69915042653,
			"0.007": 4.07577117128,
			"0.008": 5.50481740302,
			"0.009": 5.35165270152,
			"0.01": 7.34529631144,
			"0.011": 8.41306038123,
			"0.012": 5.1479169877,
			"0.013": 0.857923086201,
			"0.014": 0.0,
			"0.015": 0.0,
			"0.016": 0.0,
			"0.017": 0.0,
			"0.018": 0.0,
			"0.019": 0.0,
			"0.02": 0.0,
			"0.021": 0.0,
			"0.022": 0.0,
			"0.023": 0.0,
			"0.024": 0.0,
			"0.025": 0.0
		}
	}
}
