{
	 "smiles": "CCOC(=O)C1=C(C=CC(Cl)=C1)[N+]([O-])=O", 
	 "Tm": 311.15, 
	 "num_atms": 23, 
	 "gaussian": { 
		 "optdone": 1, 
		 "sigma_profile": "yes", 
		 "theory": "DFT", 
		 "functional": "B3LYP", 
		 "basiset": "6-31G**", 
		 "properties": { 
			 "R2extent": 4286.1105, 
			 "electric_dipole_moment_norm": 1.99947027735, 
			 "electric_quadrupole_moment_norm": 14.4287832075, 
			 "total_energy": -1163.52326486, 
			 "HOMO_LUMO_gap": 0.17704, 
			 "cosmo_polarized_energy": -10.56, 
			 "cosmo_cavitation_energy": 30.31, 
			 "cosmo_dispersion_energy": -21.57, 
			 "cosmo_repulsion_energy": 1.7, 
			 "cosmo_total_nonelectrostatic_energy": 10.43, 
			 "SMD_solvation_energy": 7.91 
		},
		"coords": [
			{
				"x": -2.2046607214,
				"y": 1.9814784477,
				"z": 2.295821736,
				"element": "C" 
			},
			{
				"x": -2.3173266364,
				"y": 0.4719915136,
				"z": 2.1545604083,
				"element": "C" 
			},
			{
				"x": -1.3699390475,
				"y": -0.0389826471,
				"z": 1.1767680825,
				"element": "O" 
			},
			{
				"x": -0.1213446583,
				"y": -0.2623798837,
				"z": 1.6080314348,
				"element": "C" 
			},
			{
				"x": 0.2561659304,
				"y": -0.1754128959,
				"z": 2.756439047,
				"element": "O" 
			},
			{
				"x": 0.7604597897,
				"y": -0.7731873249,
				"z": 0.4979760477,
				"element": "C" 
			},
			{
				"x": 0.8364214237,
				"y": -0.2345648473,
				"z": -0.7939235188,
				"element": "C" 
			},
			{
				"x": 1.6042922488,
				"y": -0.8318270835,
				"z": -1.7906320379,
				"element": "C" 
			},
			{
				"x": 2.3435161875,
				"y": -1.9751751215,
				"z": -1.5025769825,
				"element": "C" 
			},
			{
				"x": 2.3008904679,
				"y": -2.4996578908,
				"z": -0.2099456665,
				"element": "C" 
			},
			{
				"x": 3.2379141447,
				"y": -3.9251649104,
				"z": 0.1717851014,
				"element": "Cl" 
			},
			{
				"x": 1.5193424685,
				"y": -1.9106429534,
				"z": 0.7837159594,
				"element": "C" 
			},
			{
				"x": 0.1815477077,
				"y": 1.0391526679,
				"z": -1.1298693762,
				"element": "N" 
			},
			{
				"x": -0.1750269682,
				"y": 1.1995721866,
				"z": -2.2955557087,
				"element": "O" 
			},
			{
				"x": 0.0762354659,
				"y": 1.873861345,
				"z": -0.2338044037,
				"element": "O" 
			},
			{
				"x": -2.3155313324,
				"y": 2.472508276,
				"z": 1.325902179,
				"element": "H" 
			},
			{
				"x": -2.9916025843,
				"y": 2.3443093434,
				"z": 2.9654497011,
				"element": "H" 
			},
			{
				"x": -1.2368190149,
				"y": 2.259476657,
				"z": 2.7192099593,
				"element": "H" 
			},
			{
				"x": -3.2896313483,
				"y": 0.1736492594,
				"z": 1.7570739097,
				"element": "H" 
			},
			{
				"x": -2.1407868072,
				"y": -0.0352544861,
				"z": 3.1059594784,
				"element": "H" 
			},
			{
				"x": 1.6262946781,
				"y": -0.383130221,
				"z": -2.7763224912,
				"element": "H" 
			},
			{
				"x": 2.9541052526,
				"y": -2.4453105449,
				"z": -2.2646290821,
				"element": "H" 
			},
			{
				"x": 1.4845833532,
				"y": -2.3296088858,
				"z": 1.7823662227,
				"element": "H" 
			}
		],
		 "valence_orbital": [ 
			{
				"type": "occ",
				"energy": -0.30985,
				"method": "rhf"
			},
			{
				"type": "occ",
				"energy": -0.30414,
				"method": "rhf"
			},
			{
				"type": "occ",
				"energy": -0.30283,
				"method": "rhf"
			},
			{
				"type": "occ",
				"energy": -0.28354,
				"method": "rhf"
			},
			{
				"type": "occ",
				"energy": -0.27615,
				"method": "rhf"
			},
			{
				"type": "unocc",
				"energy": -0.09911,
				"method": "rhf"
			},
			{
				"type": "unocc",
				"energy": -0.05792,
				"method": "rhf"
			},
			{
				"type": "unocc",
				"energy": -0.02813,
				"method": "rhf"
			},
			{
				"type": "unocc",
				"energy": 0.00411,
				"method": "rhf"
			},
			{
				"type": "unocc",
				"energy": 0.02159,
				"method": "rhf"
			}
		],
		"cosmo_sigma_profile": { 
			"-0.025": 0.0,
			"-0.024": 0.0,
			"-0.023": 0.0,
			"-0.022": 0.0,
			"-0.021": 0.0,
			"-0.02": 0.0,
			"-0.019": 0.0,
			"-0.018": 0.0,
			"-0.017": 0.0,
			"-0.016": 0.0,
			"-0.015": 0.0,
			"-0.014": 0.0,
			"-0.013": 0.0,
			"-0.012": 0.0,
			"-0.011": 0.0,
			"-0.01": 0.245208563007,
			"-0.009": 3.80712463273,
			"-0.008": 6.17150135562,
			"-0.007": 6.49338849307,
			"-0.006": 8.76951803938,
			"-0.005": 11.625232521,
			"-0.004": 17.3280845473,
			"-0.003": 17.9430965817,
			"-0.002": 24.9284884911,
			"-0.001": 30.900762832,
			"0.0": 20.7978990768,
			"0.001": 13.1225538189,
			"0.002": 13.5142005732,
			"0.003": 18.4800736266,
			"0.004": 9.36336022006,
			"0.005": 6.45520543373,
			"0.006": 6.50624386205,
			"0.007": 9.65115013505,
			"0.008": 6.10706604592,
			"0.009": 4.78806721896,
			"0.01": 2.55912713945,
			"0.011": 4.37633565585,
			"0.012": 0.5622126975,
			"0.013": 0.0,
			"0.014": 0.0,
			"0.015": 0.0,
			"0.016": 0.0,
			"0.017": 0.0,
			"0.018": 0.0,
			"0.019": 0.0,
			"0.02": 0.0,
			"0.021": 0.0,
			"0.022": 0.0,
			"0.023": 0.0,
			"0.024": 0.0,
			"0.025": 0.0
		}
	}
}
