{
	 "smiles": "CC(C)(C)OC(=O)CN=C(C1=CC=CC=C1)C1=CC=CC=C1", 
	 "Tm": 387.15, 
	 "num_atms": 43, 
	 "gaussian": { 
		 "optdone": 1, 
		 "sigma_profile": "yes", 
		 "theory": "DFT", 
		 "functional": "B3LYP", 
		 "basiset": "6-31G**", 
		 "properties": { 
			 "R2extent": 7644.8118, 
			 "electric_dipole_moment_norm": 3.00256917322, 
			 "electric_quadrupole_moment_norm": 15.2746111879, 
			 "total_energy": -941.891448845, 
			 "HOMO_LUMO_gap": 0.18828, 
			 "cosmo_polarized_energy": -11.19, 
			 "cosmo_cavitation_energy": 45.79, 
			 "cosmo_dispersion_energy": -29.88, 
			 "cosmo_repulsion_energy": 2.32, 
			 "cosmo_total_nonelectrostatic_energy": 18.23, 
			 "SMD_solvation_energy": 6.86 
		},
		"coords": [
			{
				"x": -3.4855786861,
				"y": -2.9017601979,
				"z": -1.2966042487,
				"element": "C" 
			},
			{
				"x": -2.5244760255,
				"y": -1.926987619,
				"z": -1.9844926373,
				"element": "C" 
			},
			{
				"x": -1.2393449825,
				"y": -2.6371302285,
				"z": -2.4158312334,
				"element": "C" 
			},
			{
				"x": -3.1728405404,
				"y": -1.2096375389,
				"z": -3.1730450564,
				"element": "C" 
			},
			{
				"x": -2.0326521576,
				"y": -0.9315571478,
				"z": -1.0087793457,
				"element": "O" 
			},
			{
				"x": -2.8649278009,
				"y": -0.0623804854,
				"z": -0.4086691946,
				"element": "C" 
			},
			{
				"x": -4.0708853437,
				"y": -0.0276883577,
				"z": -0.5385314319,
				"element": "O" 
			},
			{
				"x": -2.1046761522,
				"y": 0.8734215223,
				"z": 0.533540028,
				"element": "C" 
			},
			{
				"x": -0.8535682482,
				"y": 1.3382906654,
				"z": -0.026044173,
				"element": "N" 
			},
			{
				"x": 0.2795283832,
				"y": 1.073097057,
				"z": 0.5151086067,
				"element": "C" 
			},
			{
				"x": 1.4988428427,
				"y": 1.662245343,
				"z": -0.1205815637,
				"element": "C" 
			},
			{
				"x": 2.7881721194,
				"y": 1.2028192343,
				"z": 0.1910331469,
				"element": "C" 
			},
			{
				"x": 3.9093390371,
				"y": 1.7534725202,
				"z": -0.4324597869,
				"element": "C" 
			},
			{
				"x": 3.7595669598,
				"y": 2.7734784851,
				"z": -1.3714956134,
				"element": "C" 
			},
			{
				"x": 2.4788846525,
				"y": 3.2378739964,
				"z": -1.6899200568,
				"element": "C" 
			},
			{
				"x": 1.3603117369,
				"y": 2.6869979019,
				"z": -1.0737280721,
				"element": "C" 
			},
			{
				"x": 0.4737968654,
				"y": 0.2267770854,
				"z": 1.7439542944,
				"element": "C" 
			},
			{
				"x": 0.9905303364,
				"y": 0.7946879581,
				"z": 2.918917061,
				"element": "C" 
			},
			{
				"x": 1.154886643,
				"y": 0.0203214916,
				"z": 4.0673009625,
				"element": "C" 
			},
			{
				"x": 0.8193875538,
				"y": -1.3354938762,
				"z": 4.0526661419,
				"element": "C" 
			},
			{
				"x": 0.3126088449,
				"y": -1.9108957915,
				"z": 2.8862795252,
				"element": "C" 
			},
			{
				"x": 0.1362493948,
				"y": -1.1349696974,
				"z": 1.7392181329,
				"element": "C" 
			},
			{
				"x": -3.7526822473,
				"y": -3.7036797946,
				"z": -1.9926449752,
				"element": "H" 
			},
			{
				"x": -4.3963925438,
				"y": -2.3953557186,
				"z": -0.9766633492,
				"element": "H" 
			},
			{
				"x": -3.0069801969,
				"y": -3.357441356,
				"z": -0.4238056031,
				"element": "H" 
			},
			{
				"x": -0.5302173023,
				"y": -1.9236100884,
				"z": -2.8445237382,
				"element": "H" 
			},
			{
				"x": -1.4662212372,
				"y": -3.3982521602,
				"z": -3.1684333354,
				"element": "H" 
			},
			{
				"x": -0.7610628169,
				"y": -3.1291814435,
				"z": -1.56348215,
				"element": "H" 
			},
			{
				"x": -2.4773363255,
				"y": -0.4815527739,
				"z": -3.6015513796,
				"element": "H" 
			},
			{
				"x": -4.0852595338,
				"y": -0.6938541326,
				"z": -2.8731848198,
				"element": "H" 
			},
			{
				"x": -3.4209676683,
				"y": -1.9415064793,
				"z": -3.9486046612,
				"element": "H" 
			},
			{
				"x": -2.7633488198,
				"y": 1.7351456715,
				"z": 0.6793571802,
				"element": "H" 
			},
			{
				"x": -2.0149556857,
				"y": 0.3522085662,
				"z": 1.4989835237,
				"element": "H" 
			},
			{
				"x": 2.9164211445,
				"y": 0.4063083374,
				"z": 0.9159179301,
				"element": "H" 
			},
			{
				"x": 4.8993763456,
				"y": 1.382207339,
				"z": -0.1833009573,
				"element": "H" 
			},
			{
				"x": 4.6324850002,
				"y": 3.2053407311,
				"z": -1.8529699529,
				"element": "H" 
			},
			{
				"x": 2.3553369794,
				"y": 4.0335544072,
				"z": -2.4193498539,
				"element": "H" 
			},
			{
				"x": 0.3609951003,
				"y": 3.0320254544,
				"z": -1.3141704957,
				"element": "H" 
			},
			{
				"x": 1.2614691481,
				"y": 1.8465883731,
				"z": 2.9299454697,
				"element": "H" 
			},
			{
				"x": 1.5481190309,
				"y": 0.4747246434,
				"z": 4.9722306095,
				"element": "H" 
			},
			{
				"x": 0.9531367745,
				"y": -1.9396237863,
				"z": 4.9454034184,
				"element": "H" 
			},
			{
				"x": 0.052251508,
				"y": -2.9654442465,
				"z": 2.8681385146,
				"element": "H" 
			},
			{
				"x": -0.2655220867,
				"y": -1.5767838635,
				"z": 0.8326731396,
				"element": "H" 
			}
		],
		 "valence_orbital": [ 
			{
				"type": "occ",
				"energy": -0.25968,
				"method": "rhf"
			},
			{
				"type": "occ",
				"energy": -0.25595,
				"method": "rhf"
			},
			{
				"type": "occ",
				"energy": -0.24888,
				"method": "rhf"
			},
			{
				"type": "occ",
				"energy": -0.24482,
				"method": "rhf"
			},
			{
				"type": "occ",
				"energy": -0.23266,
				"method": "rhf"
			},
			{
				"type": "unocc",
				"energy": -0.04438,
				"method": "rhf"
			},
			{
				"type": "unocc",
				"energy": -0.01243,
				"method": "rhf"
			},
			{
				"type": "unocc",
				"energy": -0.01124,
				"method": "rhf"
			},
			{
				"type": "unocc",
				"energy": 0.00403,
				"method": "rhf"
			},
			{
				"type": "unocc",
				"energy": 0.01814,
				"method": "rhf"
			}
		],
		"cosmo_sigma_profile": { 
			"-0.025": 0.0,
			"-0.024": 0.0,
			"-0.023": 0.0,
			"-0.022": 0.0,
			"-0.021": 0.0,
			"-0.02": 0.0,
			"-0.019": 0.0,
			"-0.018": 0.0,
			"-0.017": 0.0,
			"-0.016": 0.0,
			"-0.015": 0.0,
			"-0.014": 0.0,
			"-0.013": 0.0,
			"-0.012": 0.0,
			"-0.011": 0.0,
			"-0.01": 0.0,
			"-0.009": 0.0,
			"-0.008": 0.0,
			"-0.007": 0.1821426754,
			"-0.006": 12.5567110553,
			"-0.005": 21.2030021657,
			"-0.004": 37.3374561396,
			"-0.003": 38.0545261029,
			"-0.002": 34.3573875997,
			"-0.001": 38.8920823492,
			"0.0": 42.3247606291,
			"0.001": 29.1799608199,
			"0.002": 20.4422242052,
			"0.003": 19.8698079374,
			"0.004": 21.4897710116,
			"0.005": 20.6149582326,
			"0.006": 5.61131921937,
			"0.007": 3.46177426126,
			"0.008": 2.62148560379,
			"0.009": 3.56407851554,
			"0.01": 2.9220641378,
			"0.011": 3.54256237799,
			"0.012": 3.44939232553,
			"0.013": 1.16764232291,
			"0.014": 0.0139183341681,
			"0.015": 0.0,
			"0.016": 0.0,
			"0.017": 0.0,
			"0.018": 0.0,
			"0.019": 0.0,
			"0.02": 0.0,
			"0.021": 0.0,
			"0.022": 0.0,
			"0.023": 0.0,
			"0.024": 0.0,
			"0.025": 0.0
		}
	}
}
