{
	 "smiles": "CC1=C2C(=O)NC(=O)C2=CC=C1", 
	 "Tm": 459.15, 
	 "num_atms": 19, 
	 "gaussian": { 
		 "optdone": 1, 
		 "sigma_profile": "yes", 
		 "theory": "DFT", 
		 "functional": "B3LYP", 
		 "basiset": "6-31G**", 
		 "properties": { 
			 "R2extent": 2265.7704, 
			 "electric_dipole_moment_norm": 2.80824257677, 
			 "electric_quadrupole_moment_norm": 10.9138337622, 
			 "total_energy": -552.414324679, 
			 "HOMO_LUMO_gap": 0.18389, 
			 "cosmo_polarized_energy": -11.13, 
			 "cosmo_cavitation_energy": 23.67, 
			 "cosmo_dispersion_energy": -17.45, 
			 "cosmo_repulsion_energy": 1.37, 
			 "cosmo_total_nonelectrostatic_energy": 7.59, 
			 "SMD_solvation_energy": 5.34 
		},
		"coords": [
			{
				"x": 1.791524407,
				"y": 1.2034981585,
				"z": -0.2158944983,
				"element": "C" 
			},
			{
				"x": 0.5869477704,
				"y": 1.0785156434,
				"z": 0.6808021323,
				"element": "C" 
			},
			{
				"x": -0.6347455652,
				"y": 0.57267508,
				"z": 0.2288676316,
				"element": "C" 
			},
			{
				"x": -1.0206831641,
				"y": 0.0752710069,
				"z": -1.1264666934,
				"element": "C" 
			},
			{
				"x": -0.3555194927,
				"y": -0.0000778149,
				"z": -2.1409133013,
				"element": "O" 
			},
			{
				"x": -2.3643690535,
				"y": -0.3086543018,
				"z": -1.0046983921,
				"element": "N" 
			},
			{
				"x": -2.8846308312,
				"y": -0.1124720685,
				"z": 0.2816415261,
				"element": "C" 
			},
			{
				"x": -4.0165402138,
				"y": -0.3649286652,
				"z": 0.6389668459,
				"element": "O" 
			},
			{
				"x": -1.7487215433,
				"y": 0.4596883888,
				"z": 1.0676349516,
				"element": "C" 
			},
			{
				"x": -1.706592391,
				"y": 0.8435053644,
				"z": 2.3990823763,
				"element": "C" 
			},
			{
				"x": -0.4918977331,
				"y": 1.3532692852,
				"z": 2.8729160255,
				"element": "C" 
			},
			{
				"x": 0.6214560717,
				"y": 1.4656913693,
				"z": 2.0328907474,
				"element": "C" 
			},
			{
				"x": 1.5767277778,
				"y": 1.8448621941,
				"z": -1.0760803316,
				"element": "H" 
			},
			{
				"x": 2.0786395278,
				"y": 0.2307952833,
				"z": -0.6267653351,
				"element": "H" 
			},
			{
				"x": 2.642957537,
				"y": 1.6197841961,
				"z": 0.328419838,
				"element": "H" 
			},
			{
				"x": -2.9022547458,
				"y": -0.6889770928,
				"z": -1.7706312264,
				"element": "H" 
			},
			{
				"x": -2.5796199469,
				"y": 0.7493394056,
				"z": 3.0362756142,
				"element": "H" 
			},
			{
				"x": -0.4068023179,
				"y": 1.6681689554,
				"z": 3.9088397997,
				"element": "H" 
			},
			{
				"x": 1.5479239067,
				"y": 1.8661456121,
				"z": 2.4362122894,
				"element": "H" 
			}
		],
		 "valence_orbital": [ 
			{
				"type": "occ",
				"energy": -0.29236,
				"method": "rhf"
			},
			{
				"type": "occ",
				"energy": -0.29033,
				"method": "rhf"
			},
			{
				"type": "occ",
				"energy": -0.27272,
				"method": "rhf"
			},
			{
				"type": "occ",
				"energy": -0.26649,
				"method": "rhf"
			},
			{
				"type": "occ",
				"energy": -0.26481,
				"method": "rhf"
			},
			{
				"type": "unocc",
				"energy": -0.08092,
				"method": "rhf"
			},
			{
				"type": "unocc",
				"energy": -0.03643,
				"method": "rhf"
			},
			{
				"type": "unocc",
				"energy": 0.03046,
				"method": "rhf"
			},
			{
				"type": "unocc",
				"energy": 0.07731,
				"method": "rhf"
			},
			{
				"type": "unocc",
				"energy": 0.08496,
				"method": "rhf"
			}
		],
		"cosmo_sigma_profile": { 
			"-0.025": 0.0,
			"-0.024": 0.0,
			"-0.023": 0.0,
			"-0.022": 0.0,
			"-0.021": 0.0,
			"-0.02": 0.0,
			"-0.019": 0.0,
			"-0.018": 0.0,
			"-0.017": 0.149374828763,
			"-0.016": 1.22307786523,
			"-0.015": 1.3994892199,
			"-0.014": 0.724170716377,
			"-0.013": 0.669072295257,
			"-0.012": 0.668699203659,
			"-0.011": 0.781866498608,
			"-0.01": 1.44092057067,
			"-0.009": 0.559336201526,
			"-0.008": 1.05921402757,
			"-0.007": 5.61875588063,
			"-0.006": 9.16508750627,
			"-0.005": 11.6831453679,
			"-0.004": 13.3597871342,
			"-0.003": 14.7481031702,
			"-0.002": 16.7264136059,
			"-0.001": 20.1267778967,
			"0.0": 16.1110441149,
			"0.001": 11.9795489103,
			"0.002": 14.0940665311,
			"0.003": 8.8265895419,
			"0.004": 3.25400711398,
			"0.005": 3.21258113091,
			"0.006": 2.04009369537,
			"0.007": 2.74826646852,
			"0.008": 3.78381339904,
			"0.009": 3.41686173518,
			"0.01": 4.26943821643,
			"0.011": 9.76269750767,
			"0.012": 5.64094363539,
			"0.013": 0.342347629043,
			"0.014": 0.0,
			"0.015": 0.0,
			"0.016": 0.0,
			"0.017": 0.0,
			"0.018": 0.0,
			"0.019": 0.0,
			"0.02": 0.0,
			"0.021": 0.0,
			"0.022": 0.0,
			"0.023": 0.0,
			"0.024": 0.0,
			"0.025": 0.0
		}
	}
}
