{
	 "smiles": "NC1=CC(=NO1)C1=C(F)C=CC=C1", 
	 "Tm": 392.15, 
	 "num_atms": 20, 
	 "gaussian": { 
		 "optdone": 1, 
		 "sigma_profile": "yes", 
		 "theory": "DFT", 
		 "functional": "B3LYP", 
		 "basiset": "6-31G**", 
		 "properties": { 
			 "R2extent": 2974.7679, 
			 "electric_dipole_moment_norm": 4.4321845573, 
			 "electric_quadrupole_moment_norm": 22.0647336925, 
			 "total_energy": -631.685712158, 
			 "HOMO_LUMO_gap": 0.18662, 
			 "cosmo_polarized_energy": -15.89, 
			 "cosmo_cavitation_energy": 25.33, 
			 "cosmo_dispersion_energy": -18.87, 
			 "cosmo_repulsion_energy": 1.47, 
			 "cosmo_total_nonelectrostatic_energy": 7.93, 
			 "SMD_solvation_energy": 4.93 
		},
		"coords": [
			{
				"x": -2.9957488445,
				"y": 0.7530449625,
				"z": 2.7175965479,
				"element": "N" 
			},
			{
				"x": -2.077375924,
				"y": 0.970990004,
				"z": 1.7188147176,
				"element": "C" 
			},
			{
				"x": -1.2263788391,
				"y": 0.1545684668,
				"z": 1.0241727826,
				"element": "C" 
			},
			{
				"x": -0.4957585169,
				"y": 1.0635866231,
				"z": 0.1988240103,
				"element": "C" 
			},
			{
				"x": -0.8751451639,
				"y": 2.3167499423,
				"z": 0.3746281983,
				"element": "N" 
			},
			{
				"x": -1.8964099798,
				"y": 2.2508752749,
				"z": 1.3519628054,
				"element": "O" 
			},
			{
				"x": 0.5544684786,
				"y": 0.7053079227,
				"z": -0.7723493942,
				"element": "C" 
			},
			{
				"x": 1.5551822265,
				"y": 1.5989191656,
				"z": -1.1837708169,
				"element": "C" 
			},
			{
				"x": 1.5841410777,
				"y": 2.8473888944,
				"z": -0.6895017301,
				"element": "F" 
			},
			{
				"x": 2.5470966373,
				"y": 1.2385362516,
				"z": -2.0890499038,
				"element": "C" 
			},
			{
				"x": 2.5593262868,
				"y": -0.0520221436,
				"z": -2.6156728464,
				"element": "C" 
			},
			{
				"x": 1.5791462001,
				"y": -0.9685128699,
				"z": -2.229686707,
				"element": "C" 
			},
			{
				"x": 0.5952554397,
				"y": -0.5886072976,
				"z": -1.3201516184,
				"element": "C" 
			},
			{
				"x": -3.4105742634,
				"y": -0.167309158,
				"z": 2.7281706788,
				"element": "H" 
			},
			{
				"x": -3.6681515436,
				"y": 1.4991047112,
				"z": 2.8359576123,
				"element": "H" 
			},
			{
				"x": -1.1053292672,
				"y": -0.9122114589,
				"z": 1.1203282499,
				"element": "H" 
			},
			{
				"x": 3.2932416753,
				"y": 1.9769840325,
				"z": -2.3618072332,
				"element": "H" 
			},
			{
				"x": 3.3304741566,
				"y": -0.3369192256,
				"z": -3.3249216981,
				"element": "H" 
			},
			{
				"x": 1.5778619972,
				"y": -1.9741681729,
				"z": -2.6381144775,
				"element": "H" 
			},
			{
				"x": -0.1745218333,
				"y": -1.2987059252,
				"z": -1.0354291776,
				"element": "H" 
			}
		],
		 "valence_orbital": [ 
			{
				"type": "occ",
				"energy": -0.30581,
				"method": "rhf"
			},
			{
				"type": "occ",
				"energy": -0.29058,
				"method": "rhf"
			},
			{
				"type": "occ",
				"energy": -0.25179,
				"method": "rhf"
			},
			{
				"type": "occ",
				"energy": -0.23803,
				"method": "rhf"
			},
			{
				"type": "occ",
				"energy": -0.21747,
				"method": "rhf"
			},
			{
				"type": "unocc",
				"energy": -0.03085,
				"method": "rhf"
			},
			{
				"type": "unocc",
				"energy": -0.00241,
				"method": "rhf"
			},
			{
				"type": "unocc",
				"energy": 0.02923,
				"method": "rhf"
			},
			{
				"type": "unocc",
				"energy": 0.0629,
				"method": "rhf"
			},
			{
				"type": "unocc",
				"energy": 0.08264,
				"method": "rhf"
			}
		],
		"cosmo_sigma_profile": { 
			"-0.025": 0.0,
			"-0.024": 0.0,
			"-0.023": 0.0,
			"-0.022": 0.0,
			"-0.021": 0.0,
			"-0.02": 0.0,
			"-0.019": 0.0,
			"-0.018": 0.0,
			"-0.017": 0.0,
			"-0.016": 0.0,
			"-0.015": 0.528718524055,
			"-0.014": 2.83435837008,
			"-0.013": 2.887083214,
			"-0.012": 2.70656821857,
			"-0.011": 2.69750119075,
			"-0.01": 2.06987363566,
			"-0.009": 2.17401047576,
			"-0.008": 3.66798275086,
			"-0.007": 9.64203908659,
			"-0.006": 10.4384851371,
			"-0.005": 10.9842034608,
			"-0.004": 9.86379492562,
			"-0.003": 8.3586508288,
			"-0.002": 7.3736590741,
			"-0.001": 8.37332685149,
			"0.0": 11.9525057302,
			"0.001": 15.085206666,
			"0.002": 18.4073401142,
			"0.003": 18.8699622487,
			"0.004": 18.4843043869,
			"0.005": 7.16312273226,
			"0.006": 4.48655315706,
			"0.007": 3.77776630275,
			"0.008": 4.49198917483,
			"0.009": 4.6322512207,
			"0.01": 2.8681399549,
			"0.011": 3.05549012203,
			"0.012": 1.70975259786,
			"0.013": 1.69031879571,
			"0.014": 1.60126509797,
			"0.015": 0.664904039642,
			"0.016": 0.0,
			"0.017": 0.0,
			"0.018": 0.0,
			"0.019": 0.0,
			"0.02": 0.0,
			"0.021": 0.0,
			"0.022": 0.0,
			"0.023": 0.0,
			"0.024": 0.0,
			"0.025": 0.0
		}
	}
}
