{
	 "smiles": "OC(=O)C=CC1=CC(F)=C(F)C(F)=C1", 
	 "Tm": 470.15, 
	 "num_atms": 19, 
	 "gaussian": { 
		 "optdone": 1, 
		 "sigma_profile": "yes", 
		 "theory": "DFT", 
		 "functional": "B3LYP", 
		 "basiset": "6-31G**", 
		 "properties": { 
			 "R2extent": 4160.3065, 
			 "electric_dipole_moment_norm": 1.77669669612, 
			 "electric_quadrupole_moment_norm": 15.398126537, 
			 "total_energy": -795.906733506, 
			 "HOMO_LUMO_gap": 0.16725, 
			 "cosmo_polarized_energy": -10.64, 
			 "cosmo_cavitation_energy": 26.74, 
			 "cosmo_dispersion_energy": -18.93, 
			 "cosmo_repulsion_energy": 1.42, 
			 "cosmo_total_nonelectrostatic_energy": 9.23, 
			 "SMD_solvation_energy": 7.53 
		},
		"coords": [
			{
				"x": -2.0192012843,
				"y": 3.7791645954,
				"z": -0.9071224855,
				"element": "O" 
			},
			{
				"x": -2.4524602643,
				"y": 2.5376549667,
				"z": -1.2536004154,
				"element": "C" 
			},
			{
				"x": -3.5283684888,
				"y": 2.3521601902,
				"z": -1.7885633838,
				"element": "O" 
			},
			{
				"x": -1.5029859,
				"y": 1.4607721311,
				"z": -0.9209192696,
				"element": "C" 
			},
			{
				"x": -0.3126408499,
				"y": 1.6697776545,
				"z": -0.3295095175,
				"element": "C" 
			},
			{
				"x": 0.6823548039,
				"y": 0.6576584904,
				"z": 0.0317989847,
				"element": "C" 
			},
			{
				"x": 0.4960078603,
				"y": -0.7167930042,
				"z": -0.2107603373,
				"element": "C" 
			},
			{
				"x": 1.4780826138,
				"y": -1.6199622491,
				"z": 0.1564611326,
				"element": "C" 
			},
			{
				"x": 1.3142719875,
				"y": -2.931663223,
				"z": -0.068116409,
				"element": "F" 
			},
			{
				"x": 2.6619328677,
				"y": -1.2004263551,
				"z": 0.7677933628,
				"element": "C" 
			},
			{
				"x": 3.5985647473,
				"y": -2.0870735978,
				"z": 1.1152384783,
				"element": "F" 
			},
			{
				"x": 2.8430635748,
				"y": 0.1595472892,
				"z": 1.0062275457,
				"element": "C" 
			},
			{
				"x": 3.9801483982,
				"y": 0.5600480509,
				"z": 1.5932601529,
				"element": "F" 
			},
			{
				"x": 1.8728195732,
				"y": 1.0838044263,
				"z": 0.6469641856,
				"element": "C" 
			},
			{
				"x": -2.7262558436,
				"y": 4.3874324403,
				"z": -1.176922082,
				"element": "H" 
			},
			{
				"x": -1.8572153999,
				"y": 0.4743441854,
				"z": -1.2004875728,
				"element": "H" 
			},
			{
				"x": -0.0443423806,
				"y": 2.6949831797,
				"z": -0.0865825381,
				"element": "H" 
			},
			{
				"x": -0.4015115695,
				"y": -1.0998083018,
				"z": -0.6813698674,
				"element": "H" 
			},
			{
				"x": 2.0539355542,
				"y": 2.1335791309,
				"z": 0.8507100359,
				"element": "H" 
			}
		],
		 "valence_orbital": [ 
			{
				"type": "occ",
				"energy": -0.32444,
				"method": "rhf"
			},
			{
				"type": "occ",
				"energy": -0.3117,
				"method": "rhf"
			},
			{
				"type": "occ",
				"energy": -0.27997,
				"method": "rhf"
			},
			{
				"type": "occ",
				"energy": -0.27223,
				"method": "rhf"
			},
			{
				"type": "occ",
				"energy": -0.24979,
				"method": "rhf"
			},
			{
				"type": "unocc",
				"energy": -0.08254,
				"method": "rhf"
			},
			{
				"type": "unocc",
				"energy": -0.02421,
				"method": "rhf"
			},
			{
				"type": "unocc",
				"energy": 0.0071,
				"method": "rhf"
			},
			{
				"type": "unocc",
				"energy": 0.03995,
				"method": "rhf"
			},
			{
				"type": "unocc",
				"energy": 0.07349,
				"method": "rhf"
			}
		],
		"cosmo_sigma_profile": { 
			"-0.025": 0.0,
			"-0.024": 0.0,
			"-0.023": 0.0,
			"-0.022": 0.0,
			"-0.021": 0.0,
			"-0.02": 0.0,
			"-0.019": 0.0,
			"-0.018": 0.370854236069,
			"-0.017": 1.23065003191,
			"-0.016": 0.917760211212,
			"-0.015": 0.26332880891,
			"-0.014": 0.880380036293,
			"-0.013": 0.908200436025,
			"-0.012": 0.71329239216,
			"-0.011": 0.796392437052,
			"-0.01": 2.61353009036,
			"-0.009": 5.74118249342,
			"-0.008": 4.4308607153,
			"-0.007": 5.09355198816,
			"-0.006": 5.65473885497,
			"-0.005": 4.71401669839,
			"-0.004": 5.76544426328,
			"-0.003": 10.901079834,
			"-0.002": 19.4521743176,
			"-0.001": 21.0273069487,
			"0.0": 19.5889905015,
			"0.001": 22.5136274775,
			"0.002": 18.762053967,
			"0.003": 32.1635783314,
			"0.004": 6.93791547041,
			"0.005": 3.28743381397,
			"0.006": 2.63119638158,
			"0.007": 2.25701018365,
			"0.008": 2.13204818802,
			"0.009": 2.26402387441,
			"0.01": 2.13980065104,
			"0.011": 2.45399317002,
			"0.012": 5.57380346304,
			"0.013": 1.58286595665,
			"0.014": 0.0,
			"0.015": 0.0,
			"0.016": 0.0,
			"0.017": 0.0,
			"0.018": 0.0,
			"0.019": 0.0,
			"0.02": 0.0,
			"0.021": 0.0,
			"0.022": 0.0,
			"0.023": 0.0,
			"0.024": 0.0,
			"0.025": 0.0
		}
	}
}
