{
	 "smiles": "NNC(=O)C1=CC(=CC=C1)S(=O)(=O)N1CCCC1", 
	 "Tm": 427.15, 
	 "num_atms": 33, 
	 "gaussian": { 
		 "optdone": 1, 
		 "sigma_profile": "yes", 
		 "theory": "DFT", 
		 "functional": "B3LYP", 
		 "basiset": "6-31G**", 
		 "properties": { 
			 "R2extent": 5953.1392, 
			 "electric_dipole_moment_norm": 5.95647649958, 
			 "electric_quadrupole_moment_norm": 16.0196022763, 
			 "total_energy": -1216.23686127, 
			 "HOMO_LUMO_gap": 0.1905, 
			 "cosmo_polarized_energy": -22.33, 
			 "cosmo_cavitation_energy": 37.17, 
			 "cosmo_dispersion_energy": -26.75, 
			 "cosmo_repulsion_energy": 2.05, 
			 "cosmo_total_nonelectrostatic_energy": 12.47, 
			 "SMD_solvation_energy": 5.2 
		},
		"coords": [
			{
				"x": 4.791602551,
				"y": 1.2127248229,
				"z": 3.7397795683,
				"element": "N" 
			},
			{
				"x": 3.7799201076,
				"y": 0.3905460744,
				"z": 3.1943115619,
				"element": "N" 
			},
			{
				"x": 2.9284302998,
				"y": 0.897751824,
				"z": 2.2406807545,
				"element": "C" 
			},
			{
				"x": 2.931238394,
				"y": 2.0872563497,
				"z": 1.9401451793,
				"element": "O" 
			},
			{
				"x": 2.0020326828,
				"y": -0.0922133682,
				"z": 1.5959026067,
				"element": "C" 
			},
			{
				"x": 1.4983867553,
				"y": 0.2303489267,
				"z": 0.3298985362,
				"element": "C" 
			},
			{
				"x": 0.6262087094,
				"y": -0.6506624533,
				"z": -0.307388934,
				"element": "C" 
			},
			{
				"x": 0.2475161947,
				"y": -1.8555470602,
				"z": 0.2947540534,
				"element": "C" 
			},
			{
				"x": 0.7410835206,
				"y": -2.1663411716,
				"z": 1.5617252047,
				"element": "C" 
			},
			{
				"x": 1.6089988118,
				"y": -1.2883266109,
				"z": 2.2128102025,
				"element": "C" 
			},
			{
				"x": -0.0628462911,
				"y": -0.212399914,
				"z": -1.9154385208,
				"element": "S" 
			},
			{
				"x": -0.4860382323,
				"y": -1.4640884918,
				"z": -2.548060925,
				"element": "O" 
			},
			{
				"x": 0.8758249587,
				"y": 0.7154171777,
				"z": -2.547007703,
				"element": "O" 
			},
			{
				"x": -1.4477867618,
				"y": 0.650681728,
				"z": -1.6057907761,
				"element": "N" 
			},
			{
				"x": -1.3754352717,
				"y": 2.0520828217,
				"z": -1.1225065169,
				"element": "C" 
			},
			{
				"x": -2.7215216935,
				"y": 2.2521293978,
				"z": -0.3962489118,
				"element": "C" 
			},
			{
				"x": -3.6345790033,
				"y": 1.1539217428,
				"z": -0.9708511541,
				"element": "C" 
			},
			{
				"x": -2.6775104851,
				"y": -0.0280903439,
				"z": -1.1566082538,
				"element": "C" 
			},
			{
				"x": 5.0012681041,
				"y": 1.9205226071,
				"z": 3.0333067019,
				"element": "H" 
			},
			{
				"x": 4.3776436464,
				"y": 1.7245953116,
				"z": 4.5182188534,
				"element": "H" 
			},
			{
				"x": 4.0338660535,
				"y": -0.5865031303,
				"z": 3.1483767056,
				"element": "H" 
			},
			{
				"x": 1.8129849628,
				"y": 1.1503149079,
				"z": -0.1491436316,
				"element": "H" 
			},
			{
				"x": -0.4046905562,
				"y": -2.5388329302,
				"z": -0.2379200081,
				"element": "H" 
			},
			{
				"x": 0.4479439617,
				"y": -3.0942726737,
				"z": 2.0431983541,
				"element": "H" 
			},
			{
				"x": 1.9610085158,
				"y": -1.5262697721,
				"z": 3.2120873942,
				"element": "H" 
			},
			{
				"x": -1.2541123874,
				"y": 2.7216765143,
				"z": -1.9786726482,
				"element": "H" 
			},
			{
				"x": -0.5257616939,
				"y": 2.2108115084,
				"z": -0.4497012292,
				"element": "H" 
			},
			{
				"x": -2.589546219,
				"y": 2.0991907168,
				"z": 0.6804279701,
				"element": "H" 
			},
			{
				"x": -3.1190155041,
				"y": 3.2600123393,
				"z": -0.5404691688,
				"element": "H" 
			},
			{
				"x": -4.475085502,
				"y": 0.9085255268,
				"z": -0.3161322095,
				"element": "H" 
			},
			{
				"x": -4.0362752785,
				"y": 1.4583122535,
				"z": -1.9430828475,
				"element": "H" 
			},
			{
				"x": -3.0026980141,
				"y": -0.7485963259,
				"z": -1.9085388945,
				"element": "H" 
			},
			{
				"x": -2.5264553361,
				"y": -0.5596783056,
				"z": -0.203561314,
				"element": "H" 
			}
		],
		 "valence_orbital": [ 
			{
				"type": "occ",
				"energy": -0.2829,
				"method": "rhf"
			},
			{
				"type": "occ",
				"energy": -0.27938,
				"method": "rhf"
			},
			{
				"type": "occ",
				"energy": -0.26754,
				"method": "rhf"
			},
			{
				"type": "occ",
				"energy": -0.26243,
				"method": "rhf"
			},
			{
				"type": "occ",
				"energy": -0.24805,
				"method": "rhf"
			},
			{
				"type": "unocc",
				"energy": -0.05755,
				"method": "rhf"
			},
			{
				"type": "unocc",
				"energy": -0.03957,
				"method": "rhf"
			},
			{
				"type": "unocc",
				"energy": 0.0311,
				"method": "rhf"
			},
			{
				"type": "unocc",
				"energy": 0.06176,
				"method": "rhf"
			},
			{
				"type": "unocc",
				"energy": 0.07812,
				"method": "rhf"
			}
		],
		"cosmo_sigma_profile": { 
			"-0.025": 0.0,
			"-0.024": 0.0,
			"-0.023": 0.0,
			"-0.022": 0.0,
			"-0.021": 0.0,
			"-0.02": 0.0,
			"-0.019": 0.0,
			"-0.018": 0.0,
			"-0.017": 0.0,
			"-0.016": 0.0,
			"-0.015": 0.308606441216,
			"-0.014": 0.877961476566,
			"-0.013": 1.3832860633,
			"-0.012": 1.60944095745,
			"-0.011": 2.61706311749,
			"-0.01": 3.98661531315,
			"-0.009": 3.62149526975,
			"-0.008": 5.20286364419,
			"-0.007": 7.61936923585,
			"-0.006": 9.73700195383,
			"-0.005": 14.6170665799,
			"-0.004": 32.5598678439,
			"-0.003": 34.5552783152,
			"-0.002": 27.5348432959,
			"-0.001": 20.5119905379,
			"0.0": 16.2881795155,
			"0.001": 18.6704278228,
			"0.002": 15.0027878917,
			"0.003": 6.990047998,
			"0.004": 6.61741631321,
			"0.005": 5.77242518964,
			"0.006": 6.07978954361,
			"0.007": 6.07626294268,
			"0.008": 6.58313021028,
			"0.009": 4.41425688432,
			"0.01": 8.37001837042,
			"0.011": 10.2769358487,
			"0.012": 8.8168314722,
			"0.013": 4.48206284546,
			"0.014": 0.971621000797,
			"0.015": 0.593948951987,
			"0.016": 0.501430238243,
			"0.017": 0.227733217766,
			"0.018": 0.0,
			"0.019": 0.0,
			"0.02": 0.0,
			"0.021": 0.0,
			"0.022": 0.0,
			"0.023": 0.0,
			"0.024": 0.0,
			"0.025": 0.0
		}
	}
}
