{
	 "smiles": "COC1=CC=C(C=C1)N1C(=O)C2ON=C(C2C1=O)C(=O)C1=CC=CC=C1", 
	 "Tm": 439.15, 
	 "num_atms": 40, 
	 "gaussian": { 
		 "optdone": 1, 
		 "sigma_profile": "yes", 
		 "theory": "DFT", 
		 "functional": "B3LYP", 
		 "basiset": "6-31G**", 
		 "properties": { 
			 "R2extent": 12579.3588, 
			 "electric_dipole_moment_norm": 2.10485277632, 
			 "electric_quadrupole_moment_norm": 25.6656232667, 
			 "total_energy": -1218.01979576, 
			 "HOMO_LUMO_gap": 0.13804, 
			 "cosmo_polarized_energy": -20.44, 
			 "cosmo_cavitation_energy": 45.81, 
			 "cosmo_dispersion_energy": -32.48, 
			 "cosmo_repulsion_energy": 2.43, 
			 "cosmo_total_nonelectrostatic_energy": 15.76, 
			 "SMD_solvation_energy": 9.92 
		},
		"coords": [
			{
				"x": -3.3477259671,
				"y": -5.9512083544,
				"z": -1.800638832,
				"element": "C" 
			},
			{
				"x": -2.8303456161,
				"y": -4.8022545995,
				"z": -2.455227449,
				"element": "O" 
			},
			{
				"x": -2.5083232956,
				"y": -3.7169777917,
				"z": -1.6987720327,
				"element": "C" 
			},
			{
				"x": -2.0009446747,
				"y": -2.6132447897,
				"z": -2.4019529724,
				"element": "C" 
			},
			{
				"x": -1.6353311977,
				"y": -1.457955146,
				"z": -1.7277266736,
				"element": "C" 
			},
			{
				"x": -1.7815022973,
				"y": -1.3855417051,
				"z": -0.3355099899,
				"element": "C" 
			},
			{
				"x": -2.2904387102,
				"y": -2.4770606586,
				"z": 0.3676017679,
				"element": "C" 
			},
			{
				"x": -2.6497412023,
				"y": -3.6442928584,
				"z": -0.3077460102,
				"element": "C" 
			},
			{
				"x": -1.4044099542,
				"y": -0.1903076731,
				"z": 0.3608605467,
				"element": "N" 
			},
			{
				"x": -1.7202767904,
				"y": 1.0995241869,
				"z": -0.0931918175,
				"element": "C" 
			},
			{
				"x": -2.3583548717,
				"y": 1.3731429919,
				"z": -1.0826511798,
				"element": "O" 
			},
			{
				"x": -1.0965831115,
				"y": 2.1042621592,
				"z": 0.8807599007,
				"element": "C" 
			},
			{
				"x": 0.0222120321,
				"y": 2.7807706216,
				"z": 0.2218327587,
				"element": "O" 
			},
			{
				"x": 1.1979879656,
				"y": 2.4927845992,
				"z": 0.8866417088,
				"element": "N" 
			},
			{
				"x": 0.9823988266,
				"y": 1.6932883009,
				"z": 1.8704644044,
				"element": "C" 
			},
			{
				"x": -0.4674971269,
				"y": 1.2746640838,
				"z": 1.991054136,
				"element": "C" 
			},
			{
				"x": -0.6842070532,
				"y": -0.1904186709,
				"z": 1.5704612295,
				"element": "C" 
			},
			{
				"x": -0.3081753363,
				"y": -1.1704960493,
				"z": 2.1670451939,
				"element": "O" 
			},
			{
				"x": 1.9955243624,
				"y": 1.326663127,
				"z": 2.9124331085,
				"element": "C" 
			},
			{
				"x": 1.5432487136,
				"y": 1.0145721159,
				"z": 4.0087092392,
				"element": "O" 
			},
			{
				"x": 3.4599040664,
				"y": 1.3603317989,
				"z": 2.6442883831,
				"element": "C" 
			},
			{
				"x": 4.3095143784,
				"y": 1.1633053483,
				"z": 3.7476950456,
				"element": "C" 
			},
			{
				"x": 5.6895510269,
				"y": 1.1595023606,
				"z": 3.5815624882,
				"element": "C" 
			},
			{
				"x": 6.2396746777,
				"y": 1.3445661488,
				"z": 2.3089226056,
				"element": "C" 
			},
			{
				"x": 5.4037452909,
				"y": 1.5331992803,
				"z": 1.2071036527,
				"element": "C" 
			},
			{
				"x": 4.0187387452,
				"y": 1.5411498748,
				"z": 1.3684537253,
				"element": "C" 
			},
			{
				"x": -4.2905459365,
				"y": -5.7316939109,
				"z": -1.2836332035,
				"element": "H" 
			},
			{
				"x": -3.5316128071,
				"y": -6.6866254733,
				"z": -2.5850512418,
				"element": "H" 
			},
			{
				"x": -2.6299376216,
				"y": -6.3635281106,
				"z": -1.080172969,
				"element": "H" 
			},
			{
				"x": -1.8991476355,
				"y": -2.6864832071,
				"z": -3.4793018139,
				"element": "H" 
			},
			{
				"x": -1.2505056472,
				"y": -0.6087871922,
				"z": -2.278742715,
				"element": "H" 
			},
			{
				"x": -2.393726519,
				"y": -2.4293573887,
				"z": 1.4444446045,
				"element": "H" 
			},
			{
				"x": -3.0364608175,
				"y": -4.4812705172,
				"z": 0.2604728074,
				"element": "H" 
			},
			{
				"x": -1.8233582111,
				"y": 2.8658070774,
				"z": 1.1703279247,
				"element": "H" 
			},
			{
				"x": -0.8454667679,
				"y": 1.4211727924,
				"z": 3.0049048433,
				"element": "H" 
			},
			{
				"x": 3.8597945537,
				"y": 1.0152705715,
				"z": 4.7234017377,
				"element": "H" 
			},
			{
				"x": 6.3384889166,
				"y": 1.0108314027,
				"z": 4.4395032652,
				"element": "H" 
			},
			{
				"x": 7.3180586592,
				"y": 1.3395250977,
				"z": 2.177476565,
				"element": "H" 
			},
			{
				"x": 5.8296802665,
				"y": 1.6729408983,
				"z": 0.2181180973,
				"element": "H" 
			},
			{
				"x": 3.3772966867,
				"y": 1.6947292586,
				"z": 0.5100791607,
				"element": "H" 
			}
		],
		 "valence_orbital": [ 
			{
				"type": "occ",
				"energy": -0.26496,
				"method": "rhf"
			},
			{
				"type": "occ",
				"energy": -0.26164,
				"method": "rhf"
			},
			{
				"type": "occ",
				"energy": -0.26041,
				"method": "rhf"
			},
			{
				"type": "occ",
				"energy": -0.25951,
				"method": "rhf"
			},
			{
				"type": "occ",
				"energy": -0.22391,
				"method": "rhf"
			},
			{
				"type": "unocc",
				"energy": -0.08587,
				"method": "rhf"
			},
			{
				"type": "unocc",
				"energy": -0.04522,
				"method": "rhf"
			},
			{
				"type": "unocc",
				"energy": -0.03023,
				"method": "rhf"
			},
			{
				"type": "unocc",
				"energy": -0.01644,
				"method": "rhf"
			},
			{
				"type": "unocc",
				"energy": -0.0108,
				"method": "rhf"
			}
		],
		"cosmo_sigma_profile": { 
			"-0.025": 0.0,
			"-0.024": 0.0,
			"-0.023": 0.0,
			"-0.022": 0.0,
			"-0.021": 0.0,
			"-0.02": 0.0,
			"-0.019": 0.0,
			"-0.018": 0.0,
			"-0.017": 0.0,
			"-0.016": 0.0,
			"-0.015": 0.0,
			"-0.014": 0.0,
			"-0.013": 0.00028118604049,
			"-0.012": 0.366837349404,
			"-0.011": 2.15048316084,
			"-0.01": 7.40890483512,
			"-0.009": 6.40614150944,
			"-0.008": 4.78598822178,
			"-0.007": 10.77098904,
			"-0.006": 26.6043732934,
			"-0.005": 30.2079426937,
			"-0.004": 30.8773155831,
			"-0.003": 23.5712622278,
			"-0.002": 19.3869208054,
			"-0.001": 16.4737285502,
			"0.0": 19.6336475354,
			"0.001": 18.6259168528,
			"0.002": 23.0516560122,
			"0.003": 30.2398372125,
			"0.004": 25.1678732399,
			"0.005": 9.74908382371,
			"0.006": 10.7409498693,
			"0.007": 10.1631133825,
			"0.008": 10.4725511345,
			"0.009": 11.3847436329,
			"0.01": 12.5809661505,
			"0.011": 7.30626080595,
			"0.012": 0.0987185446329,
			"0.013": 0.0,
			"0.014": 0.0,
			"0.015": 0.0,
			"0.016": 0.0,
			"0.017": 0.0,
			"0.018": 0.0,
			"0.019": 0.0,
			"0.02": 0.0,
			"0.021": 0.0,
			"0.022": 0.0,
			"0.023": 0.0,
			"0.024": 0.0,
			"0.025": 0.0
		}
	}
}
