{
	 "smiles": "CC(=O)N1CCN(CC2=C(O)C(=CC(Cl)=C2)C(C)=O)CC1", 
	 "Tm": 410.15, 
	 "num_atms": 40, 
	 "gaussian": { 
		 "optdone": 1, 
		 "sigma_profile": "yes", 
		 "theory": "DFT", 
		 "functional": "B3LYP", 
		 "basiset": "6-31G**", 
		 "properties": { 
			 "R2extent": 10381.8013, 
			 "electric_dipole_moment_norm": 4.51455425707, 
			 "electric_quadrupole_moment_norm": 32.6064503421, 
			 "total_energy": -1378.42610529, 
			 "HOMO_LUMO_gap": 0.17196, 
			 "cosmo_polarized_energy": -21.08, 
			 "cosmo_cavitation_energy": 43.25, 
			 "cosmo_dispersion_energy": -30.53, 
			 "cosmo_repulsion_energy": 2.33, 
			 "cosmo_total_nonelectrostatic_energy": 15.06, 
			 "SMD_solvation_energy": 7.47 
		},
		"coords": [
			{
				"x": -5.1650687165,
				"y": 1.3690598141,
				"z": -2.5556552932,
				"element": "C" 
			},
			{
				"x": -3.9522926825,
				"y": 1.5276634812,
				"z": -3.4604674924,
				"element": "C" 
			},
			{
				"x": -4.0367777852,
				"y": 2.0559123688,
				"z": -4.563924179,
				"element": "O" 
			},
			{
				"x": -2.7500847737,
				"y": 1.0569350544,
				"z": -2.980022069,
				"element": "N" 
			},
			{
				"x": -1.5750113167,
				"y": 1.126170188,
				"z": -3.8543754078,
				"element": "C" 
			},
			{
				"x": -0.6996577469,
				"y": -0.1034934235,
				"z": -3.6462204949,
				"element": "C" 
			},
			{
				"x": -0.1814156427,
				"y": -0.1673838214,
				"z": -2.2604483471,
				"element": "N" 
			},
			{
				"x": 0.2480332653,
				"y": -1.5380557242,
				"z": -1.9109239024,
				"element": "C" 
			},
			{
				"x": 1.1312096393,
				"y": -1.580623252,
				"z": -0.6800229873,
				"element": "C" 
			},
			{
				"x": 2.1607233935,
				"y": -0.6178204338,
				"z": -0.516629984,
				"element": "C" 
			},
			{
				"x": 2.2775360684,
				"y": 0.389078554,
				"z": -1.4104529274,
				"element": "O" 
			},
			{
				"x": 3.0518756514,
				"y": -0.7191469793,
				"z": 0.5745966878,
				"element": "C" 
			},
			{
				"x": 2.8878860547,
				"y": -1.7751028988,
				"z": 1.4879207961,
				"element": "C" 
			},
			{
				"x": 1.8681760648,
				"y": -2.6973466974,
				"z": 1.3323459903,
				"element": "C" 
			},
			{
				"x": 1.6680082339,
				"y": -4.0025944986,
				"z": 2.4961845823,
				"element": "Cl" 
			},
			{
				"x": 0.9872766946,
				"y": -2.6036957187,
				"z": 0.2525647318,
				"element": "C" 
			},
			{
				"x": 4.1918198522,
				"y": 0.224283973,
				"z": 0.8651051896,
				"element": "C" 
			},
			{
				"x": 4.4916816423,
				"y": 1.3880625757,
				"z": -0.0551703563,
				"element": "C" 
			},
			{
				"x": 4.8805079081,
				"y": 0.0374648842,
				"z": 1.8591086369,
				"element": "O" 
			},
			{
				"x": -1.1107595049,
				"y": 0.4406337393,
				"z": -1.2762084245,
				"element": "C" 
			},
			{
				"x": -2.5799512403,
				"y": 0.36670415,
				"z": -1.7001107809,
				"element": "C" 
			},
			{
				"x": -5.3121488871,
				"y": 0.3319588684,
				"z": -2.2370039565,
				"element": "H" 
			},
			{
				"x": -5.0710688294,
				"y": 1.9835927684,
				"z": -1.6532615405,
				"element": "H" 
			},
			{
				"x": -6.0384129995,
				"y": 1.7015265348,
				"z": -3.1156596617,
				"element": "H" 
			},
			{
				"x": -1.9315540965,
				"y": 1.1783824205,
				"z": -4.8843141088,
				"element": "H" 
			},
			{
				"x": -0.9970421324,
				"y": 2.0415024894,
				"z": -3.6650813318,
				"element": "H" 
			},
			{
				"x": -1.2932972477,
				"y": -1.0021239058,
				"z": -3.8812398116,
				"element": "H" 
			},
			{
				"x": 0.1480670758,
				"y": -0.0830957742,
				"z": -4.3399967743,
				"element": "H" 
			},
			{
				"x": 0.8158640243,
				"y": -1.9086607318,
				"z": -2.7750920931,
				"element": "H" 
			},
			{
				"x": -0.6101283522,
				"y": -2.2187269118,
				"z": -1.7856387708,
				"element": "H" 
			},
			{
				"x": 1.4198495993,
				"y": 0.4104448699,
				"z": -1.9257736996,
				"element": "H" 
			},
			{
				"x": 3.5822838614,
				"y": -1.8304512859,
				"z": 2.3181634299,
				"element": "H" 
			},
			{
				"x": 0.1969836785,
				"y": -3.3389501182,
				"z": 0.1337689653,
				"element": "H" 
			},
			{
				"x": 5.3579738506,
				"y": 1.9189503048,
				"z": 0.3418552515,
				"element": "H" 
			},
			{
				"x": 3.6316933801,
				"y": 2.0599211206,
				"z": -0.1271980311,
				"element": "H" 
			},
			{
				"x": 4.6890681078,
				"y": 1.0421418627,
				"z": -1.0739211299,
				"element": "H" 
			},
			{
				"x": -0.974965934,
				"y": -0.0574116881,
				"z": -0.3129532827,
				"element": "H" 
			},
			{
				"x": -0.8381641987,
				"y": 1.4925641739,
				"z": -1.1340281005,
				"element": "H" 
			},
			{
				"x": -2.9031302456,
				"y": -0.6843453482,
				"z": -1.762810322,
				"element": "H" 
			},
			{
				"x": -3.1900857139,
				"y": 0.8440750157,
				"z": -0.9282090002,
				"element": "H" 
			}
		],
		 "valence_orbital": [ 
			{
				"type": "occ",
				"energy": -0.26025,
				"method": "rhf"
			},
			{
				"type": "occ",
				"energy": -0.25476,
				"method": "rhf"
			},
			{
				"type": "occ",
				"energy": -0.25004,
				"method": "rhf"
			},
			{
				"type": "occ",
				"energy": -0.24426,
				"method": "rhf"
			},
			{
				"type": "occ",
				"energy": -0.22668,
				"method": "rhf"
			},
			{
				"type": "unocc",
				"energy": -0.05472,
				"method": "rhf"
			},
			{
				"type": "unocc",
				"energy": -0.01166,
				"method": "rhf"
			},
			{
				"type": "unocc",
				"energy": 0.0176,
				"method": "rhf"
			},
			{
				"type": "unocc",
				"energy": 0.02972,
				"method": "rhf"
			},
			{
				"type": "unocc",
				"energy": 0.03303,
				"method": "rhf"
			}
		],
		"cosmo_sigma_profile": { 
			"-0.025": 0.0,
			"-0.024": 0.0,
			"-0.023": 0.0,
			"-0.022": 0.0,
			"-0.021": 0.0,
			"-0.02": 0.0,
			"-0.019": 0.0,
			"-0.018": 0.0,
			"-0.017": 0.0,
			"-0.016": 0.0,
			"-0.015": 0.0,
			"-0.014": 0.0,
			"-0.013": 0.0,
			"-0.012": 0.0,
			"-0.011": 0.0,
			"-0.01": 0.0,
			"-0.009": 0.0,
			"-0.008": 0.546527755777,
			"-0.007": 4.87345288402,
			"-0.006": 15.9653105792,
			"-0.005": 37.4012134325,
			"-0.004": 43.0680907229,
			"-0.003": 37.3071878643,
			"-0.002": 26.08221544,
			"-0.001": 25.3353485364,
			"0.0": 22.5106716379,
			"0.001": 18.763437544,
			"0.002": 24.0019751618,
			"0.003": 17.3816195421,
			"0.004": 13.0340062772,
			"0.005": 13.6935251551,
			"0.006": 5.44762236506,
			"0.007": 4.51993659102,
			"0.008": 4.18554280917,
			"0.009": 3.36566286243,
			"0.01": 3.76829925761,
			"0.011": 3.96893990991,
			"0.012": 4.86954960646,
			"0.013": 4.63711818397,
			"0.014": 5.5541275948,
			"0.015": 2.33424323494,
			"0.016": 0.171660543491,
			"0.017": 0.0,
			"0.018": 0.0,
			"0.019": 0.0,
			"0.02": 0.0,
			"0.021": 0.0,
			"0.022": 0.0,
			"0.023": 0.0,
			"0.024": 0.0,
			"0.025": 0.0
		}
	}
}
