{
	 "smiles": "CCC(CC)C(C)(C)C", 
	 "Tm": 173.95, 
	 "num_atms": 29, 
	 "gaussian": { 
		 "optdone": 1, 
		 "sigma_profile": "yes", 
		 "theory": "DFT", 
		 "functional": "B3LYP", 
		 "basiset": "6-31G**", 
		 "properties": { 
			 "R2extent": 1907.1486, 
			 "electric_dipole_moment_norm": 0.058919945689, 
			 "electric_quadrupole_moment_norm": 0.257556032739, 
			 "total_energy": -355.033990326, 
			 "HOMO_LUMO_gap": 0.35971, 
			 "cosmo_polarized_energy": -0.85, 
			 "cosmo_cavitation_energy": 27.04, 
			 "cosmo_dispersion_energy": -19.22, 
			 "cosmo_repulsion_energy": 1.54, 
			 "cosmo_total_nonelectrostatic_energy": 9.36, 
			 "SMD_solvation_energy": 4.79 
		},
		"coords": [
			{
				"x": -2.9945338419,
				"y": 0.3704223931,
				"z": -2.2270252085,
				"element": "C" 
			},
			{
				"x": -1.5963418001,
				"y": 0.1473518594,
				"z": -1.635055852,
				"element": "C" 
			},
			{
				"x": -1.3082309122,
				"y": 0.9541222982,
				"z": -0.3463399272,
				"element": "C" 
			},
			{
				"x": -1.3340748834,
				"y": 2.4845739146,
				"z": -0.6092700348,
				"element": "C" 
			},
			{
				"x": -0.2917817041,
				"y": 3.0775125758,
				"z": -1.5684711605,
				"element": "C" 
			},
			{
				"x": -0.0680196116,
				"y": 0.4031744991,
				"z": 0.4566042458,
				"element": "C" 
			},
			{
				"x": -0.4645399896,
				"y": -0.9328974131,
				"z": 1.1273230223,
				"element": "C" 
			},
			{
				"x": 1.1681710347,
				"y": 0.142839519,
				"z": -0.4322794316,
				"element": "C" 
			},
			{
				"x": 0.3289703154,
				"y": 1.3780258898,
				"z": 1.5849945812,
				"element": "C" 
			},
			{
				"x": -3.1641327949,
				"y": -0.2922798929,
				"z": -3.0823250702,
				"element": "H" 
			},
			{
				"x": -3.1386224704,
				"y": 1.3966830442,
				"z": -2.5790609226,
				"element": "H" 
			},
			{
				"x": -3.7760589631,
				"y": 0.1618149352,
				"z": -1.4868870434,
				"element": "H" 
			},
			{
				"x": -1.4847188961,
				"y": -0.9218888084,
				"z": -1.4234003841,
				"element": "H" 
			},
			{
				"x": -0.8436447161,
				"y": 0.3772582183,
				"z": -2.3987004392,
				"element": "H" 
			},
			{
				"x": -2.1670329301,
				"y": 0.7809902746,
				"z": 0.3216478384,
				"element": "H" 
			},
			{
				"x": -1.271187506,
				"y": 3.0115458859,
				"z": 0.3487397134,
				"element": "H" 
			},
			{
				"x": -2.3300103845,
				"y": 2.7273906439,
				"z": -0.9988109108,
				"element": "H" 
			},
			{
				"x": -0.5126153323,
				"y": 4.1338442783,
				"z": -1.7570179809,
				"element": "H" 
			},
			{
				"x": 0.7228877055,
				"y": 3.0283719201,
				"z": -1.1628349114,
				"element": "H" 
			},
			{
				"x": -0.2848644296,
				"y": 2.5700124701,
				"z": -2.5386610027,
				"element": "H" 
			},
			{
				"x": -1.2983676859,
				"y": -0.7925678559,
				"z": 1.8247357429,
				"element": "H" 
			},
			{
				"x": -0.7634961978,
				"y": -1.6924168885,
				"z": 0.3982559835,
				"element": "H" 
			},
			{
				"x": 0.3784320099,
				"y": -1.3422961684,
				"z": 1.6954346779,
				"element": "H" 
			},
			{
				"x": 1.9987751548,
				"y": -0.2245179227,
				"z": 0.1815832288,
				"element": "H" 
			},
			{
				"x": 0.9687071942,
				"y": -0.615821728,
				"z": -1.1951254835,
				"element": "H" 
			},
			{
				"x": 1.5124249927,
				"y": 1.0461339307,
				"z": -0.9422104222,
				"element": "H" 
			},
			{
				"x": 0.7332274148,
				"y": 2.3186030279,
				"z": 1.1989445339,
				"element": "H" 
			},
			{
				"x": -0.5269925939,
				"y": 1.6173923933,
				"z": 2.2268952396,
				"element": "H" 
			},
			{
				"x": 1.1002718215,
				"y": 0.9274227065,
				"z": 2.219817378,
				"element": "H" 
			}
		],
		 "valence_orbital": [ 
			{
				"type": "occ",
				"energy": -0.33068,
				"method": "rhf"
			},
			{
				"type": "occ",
				"energy": -0.32393,
				"method": "rhf"
			},
			{
				"type": "occ",
				"energy": -0.29901,
				"method": "rhf"
			},
			{
				"type": "occ",
				"energy": -0.29255,
				"method": "rhf"
			},
			{
				"type": "occ",
				"energy": -0.28766,
				"method": "rhf"
			},
			{
				"type": "unocc",
				"energy": 0.07205,
				"method": "rhf"
			},
			{
				"type": "unocc",
				"energy": 0.1045,
				"method": "rhf"
			},
			{
				"type": "unocc",
				"energy": 0.11436,
				"method": "rhf"
			},
			{
				"type": "unocc",
				"energy": 0.11899,
				"method": "rhf"
			},
			{
				"type": "unocc",
				"energy": 0.1284,
				"method": "rhf"
			}
		],
		"cosmo_sigma_profile": { 
			"-0.025": 0.0,
			"-0.024": 0.0,
			"-0.023": 0.0,
			"-0.022": 0.0,
			"-0.021": 0.0,
			"-0.02": 0.0,
			"-0.019": 0.0,
			"-0.018": 0.0,
			"-0.017": 0.0,
			"-0.016": 0.0,
			"-0.015": 0.0,
			"-0.014": 0.0,
			"-0.013": 0.0,
			"-0.012": 0.0,
			"-0.011": 0.0,
			"-0.01": 0.0,
			"-0.009": 0.0,
			"-0.008": 0.0,
			"-0.007": 0.0,
			"-0.006": 0.0,
			"-0.005": 0.0,
			"-0.004": 0.0198890279224,
			"-0.003": 6.15190483233,
			"-0.002": 30.6766484899,
			"-0.001": 42.9306668034,
			"0.0": 46.0864934945,
			"0.001": 42.3116713481,
			"0.002": 34.8037672369,
			"0.003": 3.55712210092,
			"0.004": 0.0,
			"0.005": 0.0,
			"0.006": 0.0,
			"0.007": 0.0,
			"0.008": 0.0,
			"0.009": 0.0,
			"0.01": 0.0,
			"0.011": 0.0,
			"0.012": 0.0,
			"0.013": 0.0,
			"0.014": 0.0,
			"0.015": 0.0,
			"0.016": 0.0,
			"0.017": 0.0,
			"0.018": 0.0,
			"0.019": 0.0,
			"0.02": 0.0,
			"0.021": 0.0,
			"0.022": 0.0,
			"0.023": 0.0,
			"0.024": 0.0,
			"0.025": 0.0
		}
	}
}
