{
	 "smiles": "NC1=CC2=C(C=C1)N(CC(=O)N1CCOCC1)C=C2", 
	 "Tm": 483.15, 
	 "num_atms": 36, 
	 "gaussian": { 
		 "optdone": 1, 
		 "sigma_profile": "yes", 
		 "theory": "DFT", 
		 "functional": "B3LYP", 
		 "basiset": "6-31G**", 
		 "properties": { 
			 "R2extent": 5956.4142, 
			 "electric_dipole_moment_norm": 3.14412347404, 
			 "electric_quadrupole_moment_norm": 14.9623341678, 
			 "total_energy": -858.431807213, 
			 "HOMO_LUMO_gap": 0.17464, 
			 "cosmo_polarized_energy": -18.14, 
			 "cosmo_cavitation_energy": 37.79, 
			 "cosmo_dispersion_energy": -26.35, 
			 "cosmo_repulsion_energy": 2.02, 
			 "cosmo_total_nonelectrostatic_energy": 13.45, 
			 "SMD_solvation_energy": 6.25 
		},
		"coords": [
			{
				"x": 3.4876523657,
				"y": -0.4630070722,
				"z": -4.0433500202,
				"element": "N" 
			},
			{
				"x": 2.9860249631,
				"y": -0.4665541577,
				"z": -2.7290685663,
				"element": "C" 
			},
			{
				"x": 2.5205481359,
				"y": -1.6436981413,
				"z": -2.1411857597,
				"element": "C" 
			},
			{
				"x": 2.0904937593,
				"y": -1.6299547692,
				"z": -0.8038050507,
				"element": "C" 
			},
			{
				"x": 2.1264791922,
				"y": -0.4123589693,
				"z": -0.0693652765,
				"element": "C" 
			},
			{
				"x": 2.5942002684,
				"y": 0.7716004514,
				"z": -0.6493353449,
				"element": "C" 
			},
			{
				"x": 3.0178611019,
				"y": 0.7313470124,
				"z": -1.9716595967,
				"element": "C" 
			},
			{
				"x": 1.6339413759,
				"y": -0.6721030846,
				"z": 1.2059543264,
				"element": "N" 
			},
			{
				"x": 1.5275758735,
				"y": 0.2716635635,
				"z": 2.3057266514,
				"element": "C" 
			},
			{
				"x": 0.1890358687,
				"y": 0.1577817272,
				"z": 3.0589464857,
				"element": "C" 
			},
			{
				"x": 0.1804809604,
				"y": -0.3072513517,
				"z": 4.1959502247,
				"element": "O" 
			},
			{
				"x": -0.9480918272,
				"y": 0.5768187288,
				"z": 2.4229667262,
				"element": "N" 
			},
			{
				"x": -2.2413727172,
				"y": 0.4397069258,
				"z": 3.0976283964,
				"element": "C" 
			},
			{
				"x": -3.1969879164,
				"y": -0.368494397,
				"z": 2.2190847698,
				"element": "C" 
			},
			{
				"x": -3.3155041832,
				"y": 0.205066606,
				"z": 0.9222055346,
				"element": "O" 
			},
			{
				"x": -2.0569389275,
				"y": 0.2577292728,
				"z": 0.2653599895,
				"element": "C" 
			},
			{
				"x": -1.0523600112,
				"y": 1.0994600307,
				"z": 1.0602969582,
				"element": "C" 
			},
			{
				"x": 1.3178948768,
				"y": -2.0180341399,
				"z": 1.2833104164,
				"element": "C" 
			},
			{
				"x": 1.5721827682,
				"y": -2.6321834947,
				"z": 0.08395086,
				"element": "C" 
			},
			{
				"x": 3.1368322834,
				"y": -1.2183833042,
				"z": -4.6177827844,
				"element": "H" 
			},
			{
				"x": 3.385848074,
				"y": 0.4231854638,
				"z": -4.5208154642,
				"element": "H" 
			},
			{
				"x": 2.5006660642,
				"y": -2.5678182543,
				"z": -2.7140657637,
				"element": "H" 
			},
			{
				"x": 2.6464865786,
				"y": 1.7030987166,
				"z": -0.092778653,
				"element": "H" 
			},
			{
				"x": 3.399264619,
				"y": 1.63649203,
				"z": -2.4372066763,
				"element": "H" 
			},
			{
				"x": 2.3003873096,
				"y": 0.0911850194,
				"z": 3.0587978636,
				"element": "H" 
			},
			{
				"x": 1.6698412139,
				"y": 1.2803762079,
				"z": 1.9095935602,
				"element": "H" 
			},
			{
				"x": -2.0685735353,
				"y": -0.0445495184,
				"z": 4.059276503,
				"element": "H" 
			},
			{
				"x": -2.6623384892,
				"y": 1.4395189765,
				"z": 3.271244491,
				"element": "H" 
			},
			{
				"x": -2.8393749995,
				"y": -1.4083063586,
				"z": 2.143903142,
				"element": "H" 
			},
			{
				"x": -4.2022208994,
				"y": -0.3754077533,
				"z": 2.6503648978,
				"element": "H" 
			},
			{
				"x": -2.2333840088,
				"y": 0.7045386076,
				"z": -0.7173105508,
				"element": "H" 
			},
			{
				"x": -1.6504163918,
				"y": -0.756548105,
				"z": 0.1251752745,
				"element": "H" 
			},
			{
				"x": -1.4091650724,
				"y": 2.1383742727,
				"z": 1.1031364904,
				"element": "H" 
			},
			{
				"x": -0.0857484133,
				"y": 1.0856736239,
				"z": 0.5591265905,
				"element": "H" 
			},
			{
				"x": 0.9353276441,
				"y": -2.4248112368,
				"z": 2.2091596368,
				"element": "H" 
			},
			{
				"x": 1.4133520954,
				"y": -3.6780531285,
				"z": -0.1375302814,
				"element": "H" 
			}
		],
		 "valence_orbital": [ 
			{
				"type": "occ",
				"energy": -0.26966,
				"method": "rhf"
			},
			{
				"type": "occ",
				"energy": -0.25363,
				"method": "rhf"
			},
			{
				"type": "occ",
				"energy": -0.23646,
				"method": "rhf"
			},
			{
				"type": "occ",
				"energy": -0.2032,
				"method": "rhf"
			},
			{
				"type": "occ",
				"energy": -0.18402,
				"method": "rhf"
			},
			{
				"type": "unocc",
				"energy": -0.00938,
				"method": "rhf"
			},
			{
				"type": "unocc",
				"energy": 0.01008,
				"method": "rhf"
			},
			{
				"type": "unocc",
				"energy": 0.03861,
				"method": "rhf"
			},
			{
				"type": "unocc",
				"energy": 0.06378,
				"method": "rhf"
			},
			{
				"type": "unocc",
				"energy": 0.08497,
				"method": "rhf"
			}
		],
		"cosmo_sigma_profile": { 
			"-0.025": 0.0,
			"-0.024": 0.0,
			"-0.023": 0.0,
			"-0.022": 0.0,
			"-0.021": 0.0,
			"-0.02": 0.0,
			"-0.019": 0.0,
			"-0.018": 0.0,
			"-0.017": 0.0,
			"-0.016": 0.0,
			"-0.015": 0.0,
			"-0.014": 0.0,
			"-0.013": 0.0,
			"-0.012": 0.710437184408,
			"-0.011": 2.64232903567,
			"-0.01": 3.03860838627,
			"-0.009": 4.59650191417,
			"-0.008": 5.92465326405,
			"-0.007": 6.95941279864,
			"-0.006": 13.0607548742,
			"-0.005": 27.8067886544,
			"-0.004": 31.4460033805,
			"-0.003": 30.5262127188,
			"-0.002": 22.9072839046,
			"-0.001": 17.5942883378,
			"0.0": 16.0241393371,
			"0.001": 12.1050484594,
			"0.002": 10.3939557044,
			"0.003": 11.1843813657,
			"0.004": 10.8045635879,
			"0.005": 11.5378305558,
			"0.006": 12.8302385737,
			"0.007": 16.1943117981,
			"0.008": 4.58295807479,
			"0.009": 2.50309748445,
			"0.01": 4.10329068569,
			"0.011": 2.81267524272,
			"0.012": 4.03303796501,
			"0.013": 6.98369533308,
			"0.014": 3.27352825732,
			"0.015": 1.17253002397,
			"0.016": 0.500632833493,
			"0.017": 0.0354065087746,
			"0.018": 0.0,
			"0.019": 0.0,
			"0.02": 0.0,
			"0.021": 0.0,
			"0.022": 0.0,
			"0.023": 0.0,
			"0.024": 0.0,
			"0.025": 0.0
		}
	}
}
