{
	 "smiles": "CC(C)(C)C(N)C(O)=O", 
	 "Tm": 573.15, 
	 "num_atms": 22, 
	 "gaussian": { 
		 "optdone": 1, 
		 "sigma_profile": "yes", 
		 "theory": "DFT", 
		 "functional": "B3LYP", 
		 "basiset": "6-31G**", 
		 "properties": { 
			 "R2extent": 1590.0536, 
			 "electric_dipole_moment_norm": 1.41733160552, 
			 "electric_quadrupole_moment_norm": 5.97869062755, 
			 "total_energy": -441.696501719, 
			 "HOMO_LUMO_gap": 0.24733, 
			 "cosmo_polarized_energy": -9.92, 
			 "cosmo_cavitation_energy": 23.47, 
			 "cosmo_dispersion_energy": -16.72, 
			 "cosmo_repulsion_energy": 1.37, 
			 "cosmo_total_nonelectrostatic_energy": 8.12, 
			 "SMD_solvation_energy": 4.6 
		},
		"coords": [
			{
				"x": 1.5982391873,
				"y": -0.6735551064,
				"z": -1.2405359828,
				"element": "C" 
			},
			{
				"x": 1.1021586413,
				"y": -0.1394489932,
				"z": 0.11684069,
				"element": "C" 
			},
			{
				"x": 0.8732857062,
				"y": 1.3801021142,
				"z": 0.0081804819,
				"element": "C" 
			},
			{
				"x": 2.1585179403,
				"y": -0.4247117415,
				"z": 1.2016354635,
				"element": "C" 
			},
			{
				"x": -0.2736229573,
				"y": -0.7984083254,
				"z": 0.4981676138,
				"element": "C" 
			},
			{
				"x": -0.7247105913,
				"y": -0.3488552982,
				"z": 1.8170193827,
				"element": "N" 
			},
			{
				"x": -0.2108539929,
				"y": -2.325131231,
				"z": 0.4365304313,
				"element": "C" 
			},
			{
				"x": -0.5931968571,
				"y": -2.8253051951,
				"z": -0.7619772358,
				"element": "O" 
			},
			{
				"x": 0.1293918011,
				"y": -3.0403007272,
				"z": 1.3573824375,
				"element": "O" 
			},
			{
				"x": 1.8607666595,
				"y": -1.7353525633,
				"z": -1.1984618186,
				"element": "H" 
			},
			{
				"x": 0.8423047208,
				"y": -0.5486712092,
				"z": -2.023377007,
				"element": "H" 
			},
			{
				"x": 2.4946180031,
				"y": -0.1253368471,
				"z": -1.5493746457,
				"element": "H" 
			},
			{
				"x": 0.1881317297,
				"y": 1.6179382988,
				"z": -0.8142472746,
				"element": "H" 
			},
			{
				"x": 1.8205033478,
				"y": 1.8942971615,
				"z": -0.1882858973,
				"element": "H" 
			},
			{
				"x": 0.4454458405,
				"y": 1.771956992,
				"z": 0.93353617,
				"element": "H" 
			},
			{
				"x": 3.118004237,
				"y": 0.0186527599,
				"z": 0.9145097643,
				"element": "H" 
			},
			{
				"x": 1.8667826728,
				"y": 0.013640989,
				"z": 2.1606893983,
				"element": "H" 
			},
			{
				"x": 2.3121029781,
				"y": -1.4983409388,
				"z": 1.3476358892,
				"element": "H" 
			},
			{
				"x": -1.0033544239,
				"y": -0.470433472,
				"z": -0.2496147203,
				"element": "H" 
			},
			{
				"x": -1.7215595548,
				"y": -0.5245443473,
				"z": 1.9149342672,
				"element": "H" 
			},
			{
				"x": -0.2702989662,
				"y": -0.9234849753,
				"z": 2.5242467617,
				"element": "H" 
			},
			{
				"x": -0.5006561222,
				"y": -3.7917073447,
				"z": -0.6961341694,
				"element": "H" 
			}
		],
		 "valence_orbital": [ 
			{
				"type": "occ",
				"energy": -0.32302,
				"method": "rhf"
			},
			{
				"type": "occ",
				"energy": -0.32245,
				"method": "rhf"
			},
			{
				"type": "occ",
				"energy": -0.31613,
				"method": "rhf"
			},
			{
				"type": "occ",
				"energy": -0.28038,
				"method": "rhf"
			},
			{
				"type": "occ",
				"energy": -0.24389,
				"method": "rhf"
			},
			{
				"type": "unocc",
				"energy": 0.00344,
				"method": "rhf"
			},
			{
				"type": "unocc",
				"energy": 0.06955,
				"method": "rhf"
			},
			{
				"type": "unocc",
				"energy": 0.08301,
				"method": "rhf"
			},
			{
				"type": "unocc",
				"energy": 0.11078,
				"method": "rhf"
			},
			{
				"type": "unocc",
				"energy": 0.12488,
				"method": "rhf"
			}
		],
		"cosmo_sigma_profile": { 
			"-0.025": 0.0,
			"-0.024": 0.0,
			"-0.023": 0.0,
			"-0.022": 0.0,
			"-0.021": 0.0,
			"-0.02": 0.0,
			"-0.019": 0.0178959253973,
			"-0.018": 0.61785357768,
			"-0.017": 0.879463071922,
			"-0.016": 0.561829420989,
			"-0.015": 1.32680074432,
			"-0.014": 0.50616247957,
			"-0.013": 0.414038084232,
			"-0.012": 0.847491648982,
			"-0.011": 1.59116191916,
			"-0.01": 2.47912804625,
			"-0.009": 1.86988511345,
			"-0.008": 2.97329303111,
			"-0.007": 3.96917016058,
			"-0.006": 3.6347920384,
			"-0.005": 5.45403792644,
			"-0.004": 5.37297029832,
			"-0.003": 14.8928706892,
			"-0.002": 20.2200218903,
			"-0.001": 16.8119173537,
			"0.0": 17.701620743,
			"0.001": 22.8190281039,
			"0.002": 16.8420702129,
			"0.003": 4.15908613381,
			"0.004": 2.62469828372,
			"0.005": 4.250060605,
			"0.006": 3.55292268104,
			"0.007": 3.66779314588,
			"0.008": 4.16446461708,
			"0.009": 3.43729159422,
			"0.01": 2.45728780471,
			"0.011": 4.12297726583,
			"0.012": 4.30018496864,
			"0.013": 0.803469856883,
			"0.014": 0.562006750502,
			"0.015": 0.557540202217,
			"0.016": 0.158262660549,
			"0.017": 0.0,
			"0.018": 0.0,
			"0.019": 0.0,
			"0.02": 0.0,
			"0.021": 0.0,
			"0.022": 0.0,
			"0.023": 0.0,
			"0.024": 0.0,
			"0.025": 0.0
		}
	}
}
