{
	 "smiles": "FC(F)(F)C(C(=O)N(CC1=CC=CC=C1)CC1=CC=CC=C1)C(F)(F)F", 
	 "Tm": 349.15, 
	 "num_atms": 41, 
	 "gaussian": { 
		 "optdone": 1, 
		 "sigma_profile": "yes", 
		 "theory": "DFT", 
		 "functional": "B3LYP", 
		 "basiset": "6-31G**", 
		 "properties": { 
			 "R2extent": 11129.9274, 
			 "electric_dipole_moment_norm": 5.0568379893, 
			 "electric_quadrupole_moment_norm": 22.3214136365, 
			 "total_energy": -1423.99336139, 
			 "HOMO_LUMO_gap": 0.22717, 
			 "cosmo_polarized_energy": -13.18, 
			 "cosmo_cavitation_energy": 46.01, 
			 "cosmo_dispersion_energy": -28.91, 
			 "cosmo_repulsion_energy": 2.09, 
			 "cosmo_total_nonelectrostatic_energy": 19.19, 
			 "SMD_solvation_energy": 9.78 
		},
		"coords": [
			{
				"x": 3.1574825885,
				"y": -3.3495241115,
				"z": 1.0680681081,
				"element": "F" 
			},
			{
				"x": 2.2701726251,
				"y": -4.2824220512,
				"z": 0.6344373274,
				"element": "C" 
			},
			{
				"x": 1.929648027,
				"y": -5.0351175379,
				"z": 1.6856720048,
				"element": "F" 
			},
			{
				"x": 2.9148305056,
				"y": -5.0667489811,
				"z": -0.2495827204,
				"element": "F" 
			},
			{
				"x": 1.0779945612,
				"y": -3.5774368145,
				"z": -0.0144520199,
				"element": "C" 
			},
			{
				"x": 0.386546324,
				"y": -2.6521874916,
				"z": 1.0114954837,
				"element": "C" 
			},
			{
				"x": -0.3630989577,
				"y": -3.1415367188,
				"z": 1.8477197462,
				"element": "O" 
			},
			{
				"x": 0.657335306,
				"y": -1.3131702976,
				"z": 0.9387104807,
				"element": "N" 
			},
			{
				"x": 0.0830964132,
				"y": -0.4560993383,
				"z": 1.9986157125,
				"element": "C" 
			},
			{
				"x": -1.1588472637,
				"y": 0.303181403,
				"z": 1.5759757729,
				"element": "C" 
			},
			{
				"x": -2.3735754055,
				"y": -0.3785445405,
				"z": 1.3998022182,
				"element": "C" 
			},
			{
				"x": -3.5180226839,
				"y": 0.312369121,
				"z": 1.0034837101,
				"element": "C" 
			},
			{
				"x": -3.4670823178,
				"y": 1.6922782762,
				"z": 0.7839271689,
				"element": "C" 
			},
			{
				"x": -2.2661004966,
				"y": 2.3779944074,
				"z": 0.9644419871,
				"element": "C" 
			},
			{
				"x": -1.1187898861,
				"y": 1.6846378468,
				"z": 1.358223912,
				"element": "C" 
			},
			{
				"x": 1.5689482153,
				"y": -0.6960642782,
				"z": -0.0353713982,
				"element": "C" 
			},
			{
				"x": 1.1153501467,
				"y": -0.6903590409,
				"z": -1.4898900671,
				"element": "C" 
			},
			{
				"x": 2.090981022,
				"y": -0.6690649273,
				"z": -2.4962412819,
				"element": "C" 
			},
			{
				"x": 1.7259694336,
				"y": -0.6108967664,
				"z": -3.8416943809,
				"element": "C" 
			},
			{
				"x": 0.3765522676,
				"y": -0.5824519477,
				"z": -4.1976471901,
				"element": "C" 
			},
			{
				"x": -0.6002683175,
				"y": -0.6124707952,
				"z": -3.2010033412,
				"element": "C" 
			},
			{
				"x": -0.2359970549,
				"y": -0.6657193442,
				"z": -1.8544976033,
				"element": "C" 
			},
			{
				"x": 0.063525727,
				"y": -4.5590309648,
				"z": -0.612409235,
				"element": "C" 
			},
			{
				"x": -0.3453080868,
				"y": -5.4978552044,
				"z": 0.2472367765,
				"element": "F" 
			},
			{
				"x": 0.6016306433,
				"y": -5.1872270049,
				"z": -1.6796021441,
				"element": "F" 
			},
			{
				"x": -1.0187021424,
				"y": -3.8803362916,
				"z": -1.0481393557,
				"element": "F" 
			},
			{
				"x": 1.4740617074,
				"y": -3.0250252661,
				"z": -0.8667925598,
				"element": "H" 
			},
			{
				"x": -0.147358209,
				"y": -1.1167892141,
				"z": 2.8356357079,
				"element": "H" 
			},
			{
				"x": 0.8618671766,
				"y": 0.2436632139,
				"z": 2.31823519,
				"element": "H" 
			},
			{
				"x": -2.4099370131,
				"y": -1.4492935122,
				"z": 1.5795364526,
				"element": "H" 
			},
			{
				"x": -4.4533145797,
				"y": -0.2246490474,
				"z": 0.8731045238,
				"element": "H" 
			},
			{
				"x": -4.3607748736,
				"y": 2.2290105512,
				"z": 0.4788091547,
				"element": "H" 
			},
			{
				"x": -2.219890057,
				"y": 3.4508234144,
				"z": 0.8003843368,
				"element": "H" 
			},
			{
				"x": -0.1861953665,
				"y": 2.2252679837,
				"z": 1.5041170301,
				"element": "H" 
			},
			{
				"x": 1.7009123364,
				"y": 0.3393077755,
				"z": 0.2936406212,
				"element": "H" 
			},
			{
				"x": 2.5575799973,
				"y": -1.162688965,
				"z": 0.0388042367,
				"element": "H" 
			},
			{
				"x": 3.1442369914,
				"y": -0.6981943236,
				"z": -2.2250550286,
				"element": "H" 
			},
			{
				"x": 2.4944710854,
				"y": -0.5974312862,
				"z": -4.6091664196,
				"element": "H" 
			},
			{
				"x": 0.0886397885,
				"y": -0.5445368056,
				"z": -5.2441359965,
				"element": "H" 
			},
			{
				"x": -1.6524666349,
				"y": -0.5967225852,
				"z": -3.4699229445,
				"element": "H" 
			},
			{
				"x": -1.0026035423,
				"y": -0.690738539,
				"z": -1.0874739763,
				"element": "H" 
			}
		],
		 "valence_orbital": [ 
			{
				"type": "occ",
				"energy": -0.26375,
				"method": "rhf"
			},
			{
				"type": "occ",
				"energy": -0.26017,
				"method": "rhf"
			},
			{
				"type": "occ",
				"energy": -0.25675,
				"method": "rhf"
			},
			{
				"type": "occ",
				"energy": -0.25485,
				"method": "rhf"
			},
			{
				"type": "occ",
				"energy": -0.24658,
				"method": "rhf"
			},
			{
				"type": "unocc",
				"energy": -0.01941,
				"method": "rhf"
			},
			{
				"type": "unocc",
				"energy": -0.01564,
				"method": "rhf"
			},
			{
				"type": "unocc",
				"energy": -0.011,
				"method": "rhf"
			},
			{
				"type": "unocc",
				"energy": -0.00856,
				"method": "rhf"
			},
			{
				"type": "unocc",
				"energy": 0.00021,
				"method": "rhf"
			}
		],
		"cosmo_sigma_profile": { 
			"-0.025": 0.0,
			"-0.024": 0.0,
			"-0.023": 0.0,
			"-0.022": 0.0,
			"-0.021": 0.0,
			"-0.02": 0.0,
			"-0.019": 0.0,
			"-0.018": 0.0,
			"-0.017": 0.0,
			"-0.016": 0.0,
			"-0.015": 0.0,
			"-0.014": 0.0,
			"-0.013": 0.0,
			"-0.012": 0.0,
			"-0.011": 0.259796413488,
			"-0.01": 0.606746327431,
			"-0.009": 1.01379159886,
			"-0.008": 3.56505203244,
			"-0.007": 7.76457623772,
			"-0.006": 17.9916100533,
			"-0.005": 24.0150599699,
			"-0.004": 27.896777031,
			"-0.003": 26.2740962734,
			"-0.002": 23.939874307,
			"-0.001": 26.2724928964,
			"0.0": 22.2905992774,
			"0.001": 32.6141316208,
			"0.002": 63.89722618,
			"0.003": 30.80260156,
			"0.004": 19.9993669607,
			"0.005": 18.7752239657,
			"0.006": 6.45939078764,
			"0.007": 1.31504442743,
			"0.008": 2.43823755488,
			"0.009": 2.19857529956,
			"0.01": 1.79925110791,
			"0.011": 2.09953444697,
			"0.012": 3.04553588146,
			"0.013": 0.263268571457,
			"0.014": 0.0,
			"0.015": 0.0,
			"0.016": 0.0,
			"0.017": 0.0,
			"0.018": 0.0,
			"0.019": 0.0,
			"0.02": 0.0,
			"0.021": 0.0,
			"0.022": 0.0,
			"0.023": 0.0,
			"0.024": 0.0,
			"0.025": 0.0
		}
	}
}
