{
	 "smiles": "OC(=O)C1=C(Cl)C(Br)=CC(=C1)S(Cl)(=O)=O", 
	 "Tm": 434.15, 
	 "num_atms": 18, 
	 "gaussian": { 
		 "optdone": 1, 
		 "sigma_profile": "yes", 
		 "theory": "DFT", 
		 "functional": "B3LYP", 
		 "basiset": "6-31G**", 
		 "properties": { 
			 "R2extent": 6401.9842, 
			 "electric_dipole_moment_norm": 5.20119535203, 
			 "electric_quadrupole_moment_norm": 9.79816804357, 
			 "total_energy": -4459.34437359, 
			 "HOMO_LUMO_gap": 0.18084, 
			 "cosmo_polarized_energy": -14.75, 
			 "cosmo_cavitation_energy": 30.89, 
			 "cosmo_dispersion_energy": -23.52, 
			 "cosmo_repulsion_energy": 1.8, 
			 "cosmo_total_nonelectrostatic_energy": 9.16, 
			 "SMD_solvation_energy": 3.88 
		},
		"coords": [
			{
				"x": -0.833961864,
				"y": -3.7550208372,
				"z": 1.2834306367,
				"element": "O" 
			},
			{
				"x": -1.3693540453,
				"y": -2.7831115261,
				"z": 0.5329065459,
				"element": "C" 
			},
			{
				"x": -2.2463369834,
				"y": -3.0335683834,
				"z": -0.2591644399,
				"element": "O" 
			},
			{
				"x": -0.8364473364,
				"y": -1.3552898446,
				"z": 0.6452653458,
				"element": "C" 
			},
			{
				"x": -0.0632561706,
				"y": -0.7808476525,
				"z": 1.6751207055,
				"element": "C" 
			},
			{
				"x": 0.4130570606,
				"y": -1.7082691703,
				"z": 3.0846283473,
				"element": "Cl" 
			},
			{
				"x": 0.334432787,
				"y": 0.5681479472,
				"z": 1.6122053723,
				"element": "C" 
			},
			{
				"x": 1.3694104304,
				"y": 1.3787534991,
				"z": 2.9785066567,
				"element": "Br" 
			},
			{
				"x": -0.0280672815,
				"y": 1.3554563892,
				"z": 0.5230809945,
				"element": "C" 
			},
			{
				"x": -0.7967572621,
				"y": 0.7799551968,
				"z": -0.4835435103,
				"element": "C" 
			},
			{
				"x": -1.2040901417,
				"y": -0.5441348392,
				"z": -0.4373440204,
				"element": "C" 
			},
			{
				"x": -1.2476353636,
				"y": 1.7885103316,
				"z": -1.8979743017,
				"element": "S" 
			},
			{
				"x": -3.1208996774,
				"y": 2.5548277264,
				"z": -1.2635134913,
				"element": "Cl" 
			},
			{
				"x": -0.3363211526,
				"y": 2.9229013695,
				"z": -1.9674093621,
				"element": "O" 
			},
			{
				"x": -1.5131705824,
				"y": 0.9186989759,
				"z": -3.0339305145,
				"element": "O" 
			},
			{
				"x": -0.1568680888,
				"y": -3.4159787928,
				"z": 1.8904991928,
				"element": "H" 
			},
			{
				"x": 0.2874743176,
				"y": 2.3896813463,
				"z": 0.4610692459,
				"element": "H" 
			},
			{
				"x": -1.8080086457,
				"y": -0.982911736,
				"z": -1.2228334031,
				"element": "H" 
			}
		],
		 "valence_orbital": [ 
			{
				"type": "occ",
				"energy": -0.32906,
				"method": "rhf"
			},
			{
				"type": "occ",
				"energy": -0.32543,
				"method": "rhf"
			},
			{
				"type": "occ",
				"energy": -0.31284,
				"method": "rhf"
			},
			{
				"type": "occ",
				"energy": -0.30357,
				"method": "rhf"
			},
			{
				"type": "occ",
				"energy": -0.29239,
				"method": "rhf"
			},
			{
				"type": "unocc",
				"energy": -0.11155,
				"method": "rhf"
			},
			{
				"type": "unocc",
				"energy": -0.09284,
				"method": "rhf"
			},
			{
				"type": "unocc",
				"energy": -0.07307,
				"method": "rhf"
			},
			{
				"type": "unocc",
				"energy": -0.05488,
				"method": "rhf"
			},
			{
				"type": "unocc",
				"energy": -0.00235,
				"method": "rhf"
			}
		],
		"cosmo_sigma_profile": { 
			"-0.025": 0.0,
			"-0.024": 0.0,
			"-0.023": 0.0,
			"-0.022": 0.0,
			"-0.021": 0.0,
			"-0.02": 0.0,
			"-0.019": 0.0,
			"-0.018": 0.0,
			"-0.017": 0.0,
			"-0.016": 0.0333578763655,
			"-0.015": 0.278584860303,
			"-0.014": 1.11643973545,
			"-0.013": 1.55698226253,
			"-0.012": 0.884288261045,
			"-0.011": 0.95854228819,
			"-0.01": 1.89434424301,
			"-0.009": 2.29858873413,
			"-0.008": 5.0647326492,
			"-0.007": 6.76586677871,
			"-0.006": 10.8600611696,
			"-0.005": 14.3687646813,
			"-0.004": 21.6490897827,
			"-0.003": 23.6168528375,
			"-0.002": 17.5442784852,
			"-0.001": 13.9125652832,
			"0.0": 16.082059064,
			"0.001": 20.1525273452,
			"0.002": 25.7288176533,
			"0.003": 19.3296101317,
			"0.004": 5.61839810574,
			"0.005": 3.89896578485,
			"0.006": 6.88499225111,
			"0.007": 11.498877994,
			"0.008": 10.6460331822,
			"0.009": 5.68172741151,
			"0.01": 4.63380538723,
			"0.011": 3.54223229294,
			"0.012": 1.21743302888,
			"0.013": 0.00530920783134,
			"0.014": 0.0,
			"0.015": 0.0,
			"0.016": 0.0,
			"0.017": 0.0,
			"0.018": 0.0,
			"0.019": 0.0,
			"0.02": 0.0,
			"0.021": 0.0,
			"0.022": 0.0,
			"0.023": 0.0,
			"0.024": 0.0,
			"0.025": 0.0
		}
	}
}
