{
	 "smiles": "SC1=NN=C(N1CC1=CC=CO1)C1=CN=CC=C1", 
	 "Tm": 391.15, 
	 "num_atms": 28, 
	 "gaussian": { 
		 "optdone": 1, 
		 "sigma_profile": "yes", 
		 "theory": "DFT", 
		 "functional": "B3LYP", 
		 "basiset": "6-31G**", 
		 "properties": { 
			 "R2extent": 5246.7727, 
			 "electric_dipole_moment_norm": 8.34694670224, 
			 "electric_quadrupole_moment_norm": 14.778832211, 
			 "total_energy": -1155.65551448, 
			 "HOMO_LUMO_gap": 0.18922, 
			 "cosmo_polarized_energy": -21.19, 
			 "cosmo_cavitation_energy": 34.2, 
			 "cosmo_dispersion_energy": -24.67, 
			 "cosmo_repulsion_energy": 1.82, 
			 "cosmo_total_nonelectrostatic_energy": 11.35, 
			 "SMD_solvation_energy": 2.46 
		},
		"coords": [
			{
				"x": 3.0284954737,
				"y": 2.1456053034,
				"z": -0.8567059097,
				"element": "S" 
			},
			{
				"x": 1.927095282,
				"y": 1.6757030642,
				"z": 0.4412896891,
				"element": "C" 
			},
			{
				"x": 2.0489124506,
				"y": 2.084365697,
				"z": 1.6834610518,
				"element": "N" 
			},
			{
				"x": 1.1096836385,
				"y": 1.4169534803,
				"z": 2.4277880466,
				"element": "N" 
			},
			{
				"x": 0.4277319298,
				"y": 0.6261244175,
				"z": 1.6206898766,
				"element": "C" 
			},
			{
				"x": 0.9132515182,
				"y": 0.7426391573,
				"z": 0.3308172388,
				"element": "N" 
			},
			{
				"x": 0.5949305215,
				"y": -0.0498818886,
				"z": -0.8603249301,
				"element": "C" 
			},
			{
				"x": -0.4104566246,
				"y": 0.5693827182,
				"z": -1.7784057321,
				"element": "C" 
			},
			{
				"x": -1.5695136149,
				"y": 0.1131340972,
				"z": -2.3351257989,
				"element": "C" 
			},
			{
				"x": -2.0455550682,
				"y": 1.1528191968,
				"z": -3.2019845045,
				"element": "C" 
			},
			{
				"x": -1.1433091315,
				"y": 2.1649077964,
				"z": -3.1083405812,
				"element": "C" 
			},
			{
				"x": -0.135411374,
				"y": 1.8249234953,
				"z": -2.2498819765,
				"element": "O" 
			},
			{
				"x": -0.6513129384,
				"y": -0.2571997046,
				"z": 2.0785383278,
				"element": "C" 
			},
			{
				"x": -0.5360073379,
				"y": -0.8444548332,
				"z": 3.3538587123,
				"element": "C" 
			},
			{
				"x": -1.4595000299,
				"y": -1.6416460915,
				"z": 3.8925231413,
				"element": "N" 
			},
			{
				"x": -2.5594578369,
				"y": -1.894232792,
				"z": 3.1693851087,
				"element": "C" 
			},
			{
				"x": -2.7828303614,
				"y": -1.3602557867,
				"z": 1.9007547709,
				"element": "C" 
			},
			{
				"x": -1.8167090167,
				"y": -0.5224401937,
				"z": 1.3472399636,
				"element": "C" 
			},
			{
				"x": 2.077566953,
				"y": 2.5451064309,
				"z": -1.727314238,
				"element": "H" 
			},
			{
				"x": 1.5424469663,
				"y": -0.2118932614,
				"z": -1.3865986285,
				"element": "H" 
			},
			{
				"x": 0.2217505789,
				"y": -1.0232243302,
				"z": -0.5360221535,
				"element": "H" 
			},
			{
				"x": -2.0271929831,
				"y": -0.8498419896,
				"z": -2.1575221363,
				"element": "H" 
			},
			{
				"x": -2.9417950326,
				"y": 1.1431276435,
				"z": -3.8048338782,
				"element": "H" 
			},
			{
				"x": -1.0716731264,
				"y": 3.1460394282,
				"z": -3.5508534739,
				"element": "H" 
			},
			{
				"x": 0.3511059026,
				"y": -0.6427531452,
				"z": 3.9487113333,
				"element": "H" 
			},
			{
				"x": -3.2965493505,
				"y": -2.5495078583,
				"z": 3.6298947367,
				"element": "H" 
			},
			{
				"x": -3.7002205147,
				"y": -1.5827966263,
				"z": 1.3647973629,
				"element": "H" 
			},
			{
				"x": -1.9797768735,
				"y": -0.0611034252,
				"z": 0.3788645811,
				"element": "H" 
			}
		],
		 "valence_orbital": [ 
			{
				"type": "occ",
				"energy": -0.27335,
				"method": "rhf"
			},
			{
				"type": "occ",
				"energy": -0.26263,
				"method": "rhf"
			},
			{
				"type": "occ",
				"energy": -0.25416,
				"method": "rhf"
			},
			{
				"type": "occ",
				"energy": -0.25239,
				"method": "rhf"
			},
			{
				"type": "occ",
				"energy": -0.2358,
				"method": "rhf"
			},
			{
				"type": "unocc",
				"energy": -0.04658,
				"method": "rhf"
			},
			{
				"type": "unocc",
				"energy": -0.03058,
				"method": "rhf"
			},
			{
				"type": "unocc",
				"energy": -0.02,
				"method": "rhf"
			},
			{
				"type": "unocc",
				"energy": 0.00163,
				"method": "rhf"
			},
			{
				"type": "unocc",
				"energy": 0.03724,
				"method": "rhf"
			}
		],
		"cosmo_sigma_profile": { 
			"-0.025": 0.0,
			"-0.024": 0.0,
			"-0.023": 0.0,
			"-0.022": 0.0,
			"-0.021": 0.0,
			"-0.02": 0.0,
			"-0.019": 0.0,
			"-0.018": 0.0,
			"-0.017": 0.0,
			"-0.016": 0.0,
			"-0.015": 0.0,
			"-0.014": 0.0,
			"-0.013": 0.0,
			"-0.012": 0.0,
			"-0.011": 0.195742456482,
			"-0.01": 0.766178515912,
			"-0.009": 4.02249935182,
			"-0.008": 8.14522806524,
			"-0.007": 16.0646442563,
			"-0.006": 19.9392324402,
			"-0.005": 20.952991356,
			"-0.004": 18.0730029076,
			"-0.003": 17.5952725652,
			"-0.002": 17.4680533056,
			"-0.001": 17.2900078615,
			"0.0": 19.9648350893,
			"0.001": 22.4283431851,
			"0.002": 21.1019160843,
			"0.003": 13.711022118,
			"0.004": 11.7722137735,
			"0.005": 7.99932649599,
			"0.006": 5.73793574656,
			"0.007": 4.67231596794,
			"0.008": 4.10509626166,
			"0.009": 3.88229783734,
			"0.01": 2.78812321977,
			"0.011": 2.71635064189,
			"0.012": 4.32741565028,
			"0.013": 4.56447597369,
			"0.014": 3.2005495161,
			"0.015": 3.33799774714,
			"0.016": 1.93406131503,
			"0.017": 0.118885786688,
			"0.018": 0.0,
			"0.019": 0.0,
			"0.02": 0.0,
			"0.021": 0.0,
			"0.022": 0.0,
			"0.023": 0.0,
			"0.024": 0.0,
			"0.025": 0.0
		}
	}
}
