{
	 "smiles": "COC(=O)CSC1=CC(=NC2=CC=CC=C12)C(F)(F)F", 
	 "Tm": 370.15, 
	 "num_atms": 30, 
	 "gaussian": { 
		 "optdone": 1, 
		 "sigma_profile": "yes", 
		 "theory": "DFT", 
		 "functional": "B3LYP", 
		 "basiset": "6-31G**", 
		 "properties": { 
			 "R2extent": 8759.7296, 
			 "electric_dipole_moment_norm": 4.93208690211, 
			 "electric_quadrupole_moment_norm": 10.0985603048, 
			 "total_energy": -1404.32674974, 
			 "HOMO_LUMO_gap": 0.16182, 
			 "cosmo_polarized_energy": -11.61, 
			 "cosmo_cavitation_energy": 38.0, 
			 "cosmo_dispersion_energy": -26.5, 
			 "cosmo_repulsion_energy": 1.93, 
			 "cosmo_total_nonelectrostatic_energy": 13.43, 
			 "SMD_solvation_energy": 7.42 
		},
		"coords": [
			{
				"x": -1.8143716603,
				"y": -3.3505155253,
				"z": -2.5118783527,
				"element": "C" 
			},
			{
				"x": -1.1565013879,
				"y": -2.6191835106,
				"z": -1.4603507417,
				"element": "O" 
			},
			{
				"x": -0.3251517467,
				"y": -3.3494334069,
				"z": -0.6857945573,
				"element": "C" 
			},
			{
				"x": -0.1469869091,
				"y": -4.5391301677,
				"z": -0.8168062775,
				"element": "O" 
			},
			{
				"x": 0.3688976436,
				"y": -2.4831376372,
				"z": 0.3461164291,
				"element": "C" 
			},
			{
				"x": 1.9349345419,
				"y": -1.8000718631,
				"z": -0.3885129693,
				"element": "S" 
			},
			{
				"x": 1.9977032333,
				"y": -0.1638452806,
				"z": 0.3417366504,
				"element": "C" 
			},
			{
				"x": 3.0484371803,
				"y": 0.1220700935,
				"z": 1.1911842621,
				"element": "C" 
			},
			{
				"x": 3.1530657355,
				"y": 1.4245830994,
				"z": 1.731978992,
				"element": "C" 
			},
			{
				"x": 2.3018468388,
				"y": 2.3979742363,
				"z": 1.4984082955,
				"element": "N" 
			},
			{
				"x": 1.2617766106,
				"y": 2.1446011075,
				"z": 0.6578123717,
				"element": "C" 
			},
			{
				"x": 0.3527897684,
				"y": 3.2045785887,
				"z": 0.3960759423,
				"element": "C" 
			},
			{
				"x": -0.7032599494,
				"y": 3.0206545087,
				"z": -0.4652390648,
				"element": "C" 
			},
			{
				"x": -0.8891491497,
				"y": 1.7718450543,
				"z": -1.1069248651,
				"element": "C" 
			},
			{
				"x": -0.0294113914,
				"y": 0.7208626876,
				"z": -0.8727014895,
				"element": "C" 
			},
			{
				"x": 1.0623836861,
				"y": 0.8706480793,
				"z": 0.023386307,
				"element": "C" 
			},
			{
				"x": 4.2940527132,
				"y": 1.7778614234,
				"z": 2.6713128627,
				"element": "C" 
			},
			{
				"x": 5.0379228459,
				"y": 2.7851161586,
				"z": 2.1789168511,
				"element": "F" 
			},
			{
				"x": 5.1162303268,
				"y": 0.7208662581,
				"z": 2.8660879325,
				"element": "F" 
			},
			{
				"x": 3.834784429,
				"y": 2.1618483113,
				"z": 3.8766066063,
				"element": "F" 
			},
			{
				"x": -1.078743989,
				"y": -3.7709417166,
				"z": -3.2016999827,
				"element": "H" 
			},
			{
				"x": -2.4146513012,
				"y": -4.1621979729,
				"z": -2.09466104,
				"element": "H" 
			},
			{
				"x": -2.4484080461,
				"y": -2.6255283292,
				"z": -3.0211944435,
				"element": "H" 
			},
			{
				"x": -0.2678411068,
				"y": -1.649857209,
				"z": 0.6424216998,
				"element": "H" 
			},
			{
				"x": 0.6228627417,
				"y": -3.0991464901,
				"z": 1.2087433647,
				"element": "H" 
			},
			{
				"x": 3.7736594374,
				"y": -0.6375908357,
				"z": 1.4525045984,
				"element": "H" 
			},
			{
				"x": 0.5334205444,
				"y": 4.1507160485,
				"z": 0.89497462,
				"element": "H" 
			},
			{
				"x": -1.3936721575,
				"y": 3.8349909535,
				"z": -0.6635676129,
				"element": "H" 
			},
			{
				"x": -1.7174866135,
				"y": 1.6434971771,
				"z": -1.7974154754,
				"element": "H" 
			},
			{
				"x": -0.1775328685,
				"y": -0.2272338406,
				"z": -1.377320913,
				"element": "H" 
			}
		],
		 "valence_orbital": [ 
			{
				"type": "occ",
				"energy": -0.28925,
				"method": "rhf"
			},
			{
				"type": "occ",
				"energy": -0.27857,
				"method": "rhf"
			},
			{
				"type": "occ",
				"energy": -0.27129,
				"method": "rhf"
			},
			{
				"type": "occ",
				"energy": -0.25689,
				"method": "rhf"
			},
			{
				"type": "occ",
				"energy": -0.24379,
				"method": "rhf"
			},
			{
				"type": "unocc",
				"energy": -0.08197,
				"method": "rhf"
			},
			{
				"type": "unocc",
				"energy": -0.03898,
				"method": "rhf"
			},
			{
				"type": "unocc",
				"energy": -0.02367,
				"method": "rhf"
			},
			{
				"type": "unocc",
				"energy": -0.00351,
				"method": "rhf"
			},
			{
				"type": "unocc",
				"energy": 0.02552,
				"method": "rhf"
			}
		],
		"cosmo_sigma_profile": { 
			"-0.025": 0.0,
			"-0.024": 0.0,
			"-0.023": 0.0,
			"-0.022": 0.0,
			"-0.021": 0.0,
			"-0.02": 0.0,
			"-0.019": 0.0,
			"-0.018": 0.0,
			"-0.017": 0.0,
			"-0.016": 0.0,
			"-0.015": 0.0,
			"-0.014": 0.0,
			"-0.013": 0.0,
			"-0.012": 0.0,
			"-0.011": 0.0,
			"-0.01": 0.0,
			"-0.009": 0.00154549059881,
			"-0.008": 1.8050687704,
			"-0.007": 9.78320055069,
			"-0.006": 19.4625479383,
			"-0.005": 20.6450813914,
			"-0.004": 23.0475833454,
			"-0.003": 21.0385575284,
			"-0.002": 21.256844357,
			"-0.001": 23.4063392998,
			"0.0": 22.5130045869,
			"0.001": 24.8425675308,
			"0.002": 39.3055751552,
			"0.003": 36.7971635673,
			"0.004": 9.17177769059,
			"0.005": 6.8307532582,
			"0.006": 5.59871535429,
			"0.007": 4.4733929599,
			"0.008": 2.16420570761,
			"0.009": 3.44147212534,
			"0.01": 2.98415403145,
			"0.011": 5.52732305747,
			"0.012": 2.70601971893,
			"0.013": 0.216005042966,
			"0.014": 0.0,
			"0.015": 0.0,
			"0.016": 0.0,
			"0.017": 0.0,
			"0.018": 0.0,
			"0.019": 0.0,
			"0.02": 0.0,
			"0.021": 0.0,
			"0.022": 0.0,
			"0.023": 0.0,
			"0.024": 0.0,
			"0.025": 0.0
		}
	}
}
