{
	 "smiles": "OC(=O)C1CCCN1C(=O)CC1=CN2C=CSC2=N1", 
	 "Tm": 395.15, 
	 "num_atms": 32, 
	 "gaussian": { 
		 "optdone": 1, 
		 "sigma_profile": "yes", 
		 "theory": "DFT", 
		 "functional": "B3LYP", 
		 "basiset": "6-31G**", 
		 "properties": { 
			 "R2extent": 6639.6627, 
			 "electric_dipole_moment_norm": 8.91598738166, 
			 "electric_quadrupole_moment_norm": 31.5547436073, 
			 "total_energy": -1253.22924963, 
			 "HOMO_LUMO_gap": 0.19194, 
			 "cosmo_polarized_energy": -21.03, 
			 "cosmo_cavitation_energy": 35.98, 
			 "cosmo_dispersion_energy": -26.23, 
			 "cosmo_repulsion_energy": 1.96, 
			 "cosmo_total_nonelectrostatic_energy": 11.71, 
			 "SMD_solvation_energy": 6.94 
		},
		"coords": [
			{
				"x": -0.5609660186,
				"y": -1.0534898541,
				"z": -3.167035936,
				"element": "O" 
			},
			{
				"x": -0.2015358803,
				"y": -1.8561698245,
				"z": -2.1556450719,
				"element": "C" 
			},
			{
				"x": 0.2634494656,
				"y": -2.9560824368,
				"z": -2.3506116964,
				"element": "O" 
			},
			{
				"x": -0.4491675143,
				"y": -1.3117740025,
				"z": -0.7266099927,
				"element": "C" 
			},
			{
				"x": -1.1171270955,
				"y": -2.3975182964,
				"z": 0.145239979,
				"element": "C" 
			},
			{
				"x": -0.5760824371,
				"y": -2.137517159,
				"z": 1.5565878549,
				"element": "C" 
			},
			{
				"x": 0.8745698434,
				"y": -1.7314718311,
				"z": 1.2914870398,
				"element": "C" 
			},
			{
				"x": 0.7987431636,
				"y": -1.0075244761,
				"z": 0.0084948721,
				"element": "N" 
			},
			{
				"x": 1.7378606915,
				"y": -0.0502953418,
				"z": -0.2623972685,
				"element": "C" 
			},
			{
				"x": 2.6648144149,
				"y": 0.1745134669,
				"z": 0.5116254864,
				"element": "O" 
			},
			{
				"x": 1.6356462763,
				"y": 0.7539661313,
				"z": -1.5736620233,
				"element": "C" 
			},
			{
				"x": 0.5429910517,
				"y": 1.7855913628,
				"z": -1.595059663,
				"element": "C" 
			},
			{
				"x": 0.5612884414,
				"y": 3.0500512053,
				"z": -1.0504601613,
				"element": "C" 
			},
			{
				"x": -0.6808831428,
				"y": 3.5959640028,
				"z": -1.3424039571,
				"element": "N" 
			},
			{
				"x": -1.3770767864,
				"y": 4.7838401746,
				"z": -1.1418562076,
				"element": "C" 
			},
			{
				"x": -2.6138128311,
				"y": 4.7461029084,
				"z": -1.6840266348,
				"element": "C" 
			},
			{
				"x": -2.9692382966,
				"y": 3.2129626843,
				"z": -2.4808944141,
				"element": "S" 
			},
			{
				"x": -1.3773094521,
				"y": 2.6386113045,
				"z": -2.0418129271,
				"element": "C" 
			},
			{
				"x": -0.6779174281,
				"y": 1.5356590849,
				"z": -2.2148815085,
				"element": "N" 
			},
			{
				"x": -0.7910810215,
				"y": -0.1377172673,
				"z": -2.8565939991,
				"element": "H" 
			},
			{
				"x": -1.0771228511,
				"y": -0.4169825164,
				"z": -0.7744251197,
				"element": "H" 
			},
			{
				"x": -0.7843107275,
				"y": -3.3744170401,
				"z": -0.2164564953,
				"element": "H" 
			},
			{
				"x": -2.2073205565,
				"y": -2.3551854867,
				"z": 0.073494195,
				"element": "H" 
			},
			{
				"x": -0.6546903335,
				"y": -3.0132461749,
				"z": 2.2065522233,
				"element": "H" 
			},
			{
				"x": -1.1173675973,
				"y": -1.3128299134,
				"z": 2.034822047,
				"element": "H" 
			},
			{
				"x": 1.5271443054,
				"y": -2.6078362131,
				"z": 1.1894129142,
				"element": "H" 
			},
			{
				"x": 1.3094123329,
				"y": -1.0775985805,
				"z": 2.0488059834,
				"element": "H" 
			},
			{
				"x": 1.5205612628,
				"y": 0.0937847944,
				"z": -2.4366187538,
				"element": "H" 
			},
			{
				"x": 2.6054436769,
				"y": 1.2468949692,
				"z": -1.6600879948,
				"element": "H" 
			},
			{
				"x": 1.3207583333,
				"y": 3.5859248498,
				"z": -0.5045313293,
				"element": "H" 
			},
			{
				"x": -0.9182054698,
				"y": 5.6007861583,
				"z": -0.6036457468,
				"element": "H" 
			},
			{
				"x": -3.3549678198,
				"y": 5.5310033173,
				"z": -1.6700056942,
				"element": "H" 
			}
		],
		 "valence_orbital": [ 
			{
				"type": "occ",
				"energy": -0.26394,
				"method": "rhf"
			},
			{
				"type": "occ",
				"energy": -0.26374,
				"method": "rhf"
			},
			{
				"type": "occ",
				"energy": -0.24685,
				"method": "rhf"
			},
			{
				"type": "occ",
				"energy": -0.23394,
				"method": "rhf"
			},
			{
				"type": "occ",
				"energy": -0.22948,
				"method": "rhf"
			},
			{
				"type": "unocc",
				"energy": -0.03754,
				"method": "rhf"
			},
			{
				"type": "unocc",
				"energy": -0.01519,
				"method": "rhf"
			},
			{
				"type": "unocc",
				"energy": 0.01363,
				"method": "rhf"
			},
			{
				"type": "unocc",
				"energy": 0.01528,
				"method": "rhf"
			},
			{
				"type": "unocc",
				"energy": 0.02259,
				"method": "rhf"
			}
		],
		"cosmo_sigma_profile": { 
			"-0.025": 0.0,
			"-0.024": 0.0,
			"-0.023": 0.0,
			"-0.022": 0.0,
			"-0.021": 0.0,
			"-0.02": 0.0,
			"-0.019": 0.0,
			"-0.018": 0.0,
			"-0.017": 0.0,
			"-0.016": 0.0,
			"-0.015": 0.0,
			"-0.014": 0.0,
			"-0.013": 0.0,
			"-0.012": 0.0,
			"-0.011": 1.12897835859,
			"-0.01": 5.96448642917,
			"-0.009": 7.08677875011,
			"-0.008": 5.68139547751,
			"-0.007": 5.99339216329,
			"-0.006": 8.22144447998,
			"-0.005": 16.9041239678,
			"-0.004": 24.8766738937,
			"-0.003": 28.7900974371,
			"-0.002": 28.0483143709,
			"-0.001": 28.2684250856,
			"0.0": 23.5409331071,
			"0.001": 18.8062546413,
			"0.002": 17.4639740446,
			"0.003": 9.97629347809,
			"0.004": 6.51372389649,
			"0.005": 5.42530291632,
			"0.006": 3.50042569955,
			"0.007": 3.43518782725,
			"0.008": 4.52598573702,
			"0.009": 4.04461400973,
			"0.01": 4.03742966274,
			"0.011": 7.20607717036,
			"0.012": 8.08569289861,
			"0.013": 5.89674629445,
			"0.014": 4.91186193509,
			"0.015": 0.695249134474,
			"0.016": 0.0,
			"0.017": 0.0,
			"0.018": 0.0,
			"0.019": 0.0,
			"0.02": 0.0,
			"0.021": 0.0,
			"0.022": 0.0,
			"0.023": 0.0,
			"0.024": 0.0,
			"0.025": 0.0
		}
	}
}
