{
	 "smiles": "CC(C)(C)OC(=O)C1=CC(=NN1C1=CC=CC=C1)C(O)=O", 
	 "Tm": 533.15, 
	 "num_atms": 37, 
	 "gaussian": { 
		 "optdone": 1, 
		 "sigma_profile": "yes", 
		 "theory": "DFT", 
		 "functional": "B3LYP", 
		 "basiset": "6-31G**", 
		 "properties": { 
			 "R2extent": 7422.0478, 
			 "electric_dipole_moment_norm": 8.46596496272, 
			 "electric_quadrupole_moment_norm": 28.0598706462, 
			 "total_energy": -991.654093928, 
			 "HOMO_LUMO_gap": 0.19582, 
			 "cosmo_polarized_energy": -16.37, 
			 "cosmo_cavitation_energy": 41.71, 
			 "cosmo_dispersion_energy": -27.49, 
			 "cosmo_repulsion_energy": 2.11, 
			 "cosmo_total_nonelectrostatic_energy": 16.34, 
			 "SMD_solvation_energy": 8.66 
		},
		"coords": [
			{
				"x": 1.4795038721,
				"y": 3.1165925857,
				"z": -0.2733913345,
				"element": "C" 
			},
			{
				"x": 0.1871417255,
				"y": 2.30920894,
				"z": -0.1199040642,
				"element": "C" 
			},
			{
				"x": -0.8214323237,
				"y": 2.6024572581,
				"z": -1.2344165561,
				"element": "C" 
			},
			{
				"x": -0.4360909132,
				"y": 2.5293730556,
				"z": 1.2596836881,
				"element": "C" 
			},
			{
				"x": 0.5031263631,
				"y": 0.8602006627,
				"z": -0.1006641536,
				"element": "O" 
			},
			{
				"x": 1.0807771105,
				"y": 0.2528166752,
				"z": -1.1455090545,
				"element": "C" 
			},
			{
				"x": 1.4185425751,
				"y": 0.774100463,
				"z": -2.1905920215,
				"element": "O" 
			},
			{
				"x": 1.3458124182,
				"y": -1.1876363313,
				"z": -0.8898891193,
				"element": "C" 
			},
			{
				"x": 2.2855483527,
				"y": -1.9477053009,
				"z": -1.5645397589,
				"element": "C" 
			},
			{
				"x": 2.2812410692,
				"y": -3.1899721791,
				"z": -0.9093951442,
				"element": "C" 
			},
			{
				"x": 1.3921788322,
				"y": -3.2124928392,
				"z": 0.0907189162,
				"element": "N" 
			},
			{
				"x": 0.8249554876,
				"y": -1.9941866627,
				"z": 0.1059802051,
				"element": "N" 
			},
			{
				"x": -0.2466725712,
				"y": -1.7613898372,
				"z": 1.0284769188,
				"element": "C" 
			},
			{
				"x": -0.0353377878,
				"y": -2.0223815295,
				"z": 2.3827517006,
				"element": "C" 
			},
			{
				"x": -1.0848540235,
				"y": -1.8457402367,
				"z": 3.2839810332,
				"element": "C" 
			},
			{
				"x": -2.3327493554,
				"y": -1.410400081,
				"z": 2.8337420087,
				"element": "C" 
			},
			{
				"x": -2.5347652227,
				"y": -1.1602720995,
				"z": 1.4741183971,
				"element": "C" 
			},
			{
				"x": -1.4941588586,
				"y": -1.3413557144,
				"z": 0.5639426145,
				"element": "C" 
			},
			{
				"x": 3.0982619697,
				"y": -4.3977878563,
				"z": -1.1990172524,
				"element": "C" 
			},
			{
				"x": 2.8403148642,
				"y": -5.4522760202,
				"z": -0.3939967724,
				"element": "O" 
			},
			{
				"x": 3.9264668964,
				"y": -4.4429510026,
				"z": -2.0777771663,
				"element": "O" 
			},
			{
				"x": 2.1985030787,
				"y": 2.8358196253,
				"z": 0.5023508071,
				"element": "H" 
			},
			{
				"x": 1.9333224235,
				"y": 2.9581370169,
				"z": -1.2518357515,
				"element": "H" 
			},
			{
				"x": 1.2556067272,
				"y": 4.1818835767,
				"z": -0.1576918062,
				"element": "H" 
			},
			{
				"x": -0.3875303361,
				"y": 2.4235701437,
				"z": -2.218629908,
				"element": "H" 
			},
			{
				"x": -1.7128139195,
				"y": 1.9781918049,
				"z": -1.1176584427,
				"element": "H" 
			},
			{
				"x": -1.1331678545,
				"y": 3.6500535635,
				"z": -1.174433887,
				"element": "H" 
			},
			{
				"x": 0.2776614938,
				"y": 2.2806188621,
				"z": 2.0500518335,
				"element": "H" 
			},
			{
				"x": -1.3232556895,
				"y": 1.9037198621,
				"z": 1.3892672837,
				"element": "H" 
			},
			{
				"x": -0.7274021839,
				"y": 3.5777583191,
				"z": 1.3730385471,
				"element": "H" 
			},
			{
				"x": 2.8986812714,
				"y": -1.6302331776,
				"z": -2.3925671328,
				"element": "H" 
			},
			{
				"x": 0.9399526519,
				"y": -2.3608941068,
				"z": 2.7143732003,
				"element": "H" 
			},
			{
				"x": -0.9245952776,
				"y": -2.0462964303,
				"z": 4.3388605594,
				"element": "H" 
			},
			{
				"x": -3.1476488073,
				"y": -1.2736279736,
				"z": 3.5381092339,
				"element": "H" 
			},
			{
				"x": -3.508451541,
				"y": -0.8385462748,
				"z": 1.1172201309,
				"element": "H" 
			},
			{
				"x": -1.6477702024,
				"y": -1.1723098682,
				"z": -0.496359401,
				"element": "H" 
			},
			{
				"x": 2.1373976849,
				"y": -5.1961468926,
				"z": 0.2292016489,
				"element": "H" 
			}
		],
		 "valence_orbital": [ 
			{
				"type": "occ",
				"energy": -0.28566,
				"method": "rhf"
			},
			{
				"type": "occ",
				"energy": -0.27566,
				"method": "rhf"
			},
			{
				"type": "occ",
				"energy": -0.27293,
				"method": "rhf"
			},
			{
				"type": "occ",
				"energy": -0.26984,
				"method": "rhf"
			},
			{
				"type": "occ",
				"energy": -0.25718,
				"method": "rhf"
			},
			{
				"type": "unocc",
				"energy": -0.06136,
				"method": "rhf"
			},
			{
				"type": "unocc",
				"energy": -0.02943,
				"method": "rhf"
			},
			{
				"type": "unocc",
				"energy": -0.02476,
				"method": "rhf"
			},
			{
				"type": "unocc",
				"energy": -0.02039,
				"method": "rhf"
			},
			{
				"type": "unocc",
				"energy": 0.06549,
				"method": "rhf"
			}
		],
		"cosmo_sigma_profile": { 
			"-0.025": 0.0,
			"-0.024": 0.0,
			"-0.023": 0.0,
			"-0.022": 0.0,
			"-0.021": 0.0,
			"-0.02": 0.0,
			"-0.019": 0.0,
			"-0.018": 0.0,
			"-0.017": 0.0,
			"-0.016": 0.0,
			"-0.015": 0.263694074022,
			"-0.014": 0.609310163892,
			"-0.013": 0.884166379844,
			"-0.012": 0.422724615678,
			"-0.011": 0.526043248841,
			"-0.01": 0.765165995224,
			"-0.009": 1.18378606882,
			"-0.008": 2.75655473979,
			"-0.007": 8.59651731249,
			"-0.006": 13.9390484136,
			"-0.005": 18.3460137769,
			"-0.004": 26.6895691017,
			"-0.003": 25.8470902602,
			"-0.002": 33.9694859462,
			"-0.001": 33.3831147471,
			"0.0": 40.3435976563,
			"0.001": 25.5274092831,
			"0.002": 16.4506636467,
			"0.003": 15.2495194163,
			"0.004": 15.8645331212,
			"0.005": 7.51588241048,
			"0.006": 5.61886404533,
			"0.007": 5.22903241207,
			"0.008": 4.50002719681,
			"0.009": 5.11559114013,
			"0.01": 7.40350784669,
			"0.011": 8.3618631536,
			"0.012": 5.12732302341,
			"0.013": 0.940274882586,
			"0.014": 0.0,
			"0.015": 0.0,
			"0.016": 0.0,
			"0.017": 0.0,
			"0.018": 0.0,
			"0.019": 0.0,
			"0.02": 0.0,
			"0.021": 0.0,
			"0.022": 0.0,
			"0.023": 0.0,
			"0.024": 0.0,
			"0.025": 0.0
		}
	}
}
