{
	 "smiles": "IC1=CC(=O)N(CC2=CC=CC=C2)N=C1", 
	 "Tm": 430.15, 
	 "num_atms": 24, 
	 "gaussian": { 
		 "optdone": 1, 
		 "sigma_profile": "yes", 
		 "theory": "DFT", 
		 "functional": "B3LYP", 
		 "basiset": "6-31G**", 
		 "properties": { 
			 "R2extent": 4414.5836, 
			 "electric_dipole_moment_norm": 1.88871419754, 
			 "electric_quadrupole_moment_norm": 6.93238466835, 
			 "total_energy": -620.682432512, 
			 "HOMO_LUMO_gap": 0.16868, 
			 "cosmo_polarized_energy": -9.67, 
			 "cosmo_cavitation_energy": 31.9, 
			 "cosmo_dispersion_energy": -24.32, 
			 "cosmo_repulsion_energy": 1.87, 
			 "cosmo_total_nonelectrostatic_energy": 9.45, 
			 "SMD_solvation_energy": 4.25 
		},
		"coords": [
			{
				"x": -2.1817639452,
				"y": -4.2586706217,
				"z": -1.6675142097,
				"element": "I" 
			},
			{
				"x": -1.371222595,
				"y": -2.5589235062,
				"z": -0.7030924322,
				"element": "C" 
			},
			{
				"x": -1.0188549467,
				"y": -2.5783866995,
				"z": 0.6083868209,
				"element": "C" 
			},
			{
				"x": -0.4771365484,
				"y": -1.3810245149,
				"z": 1.2375421768,
				"element": "C" 
			},
			{
				"x": -0.1530302959,
				"y": -1.2898221349,
				"z": 2.4179636321,
				"element": "O" 
			},
			{
				"x": -0.34099227,
				"y": -0.2883663748,
				"z": 0.3529521153,
				"element": "N" 
			},
			{
				"x": 0.1873745162,
				"y": 0.9885776418,
				"z": 0.8804835297,
				"element": "C" 
			},
			{
				"x": -0.901064541,
				"y": 1.9087874162,
				"z": 1.3944439771,
				"element": "C" 
			},
			{
				"x": -1.4565717353,
				"y": 2.8814489926,
				"z": 0.554354705,
				"element": "C" 
			},
			{
				"x": -2.4655273581,
				"y": 3.7259289695,
				"z": 1.0198180274,
				"element": "C" 
			},
			{
				"x": -2.9291462892,
				"y": 3.6032117175,
				"z": 2.3309380378,
				"element": "C" 
			},
			{
				"x": -2.3814061483,
				"y": 2.6330222101,
				"z": 3.1732836371,
				"element": "C" 
			},
			{
				"x": -1.3722328097,
				"y": 1.7887998758,
				"z": 2.7091093726,
				"element": "C" 
			},
			{
				"x": -0.6922759483,
				"y": -0.2771089002,
				"z": -0.9366862752,
				"element": "N" 
			},
			{
				"x": -1.1914081022,
				"y": -1.3622091368,
				"z": -1.4650873675,
				"element": "C" 
			},
			{
				"x": -1.1259120413,
				"y": -3.4471587487,
				"z": 1.2458423031,
				"element": "H" 
			},
			{
				"x": 0.8824946016,
				"y": 0.7236325996,
				"z": 1.6779432875,
				"element": "H" 
			},
			{
				"x": 0.7320722483,
				"y": 1.4502613681,
				"z": 0.0556611534,
				"element": "H" 
			},
			{
				"x": -1.0968246995,
				"y": 2.9762230973,
				"z": -0.4668826263,
				"element": "H" 
			},
			{
				"x": -2.8862125354,
				"y": 4.4800749119,
				"z": 0.3607341934,
				"element": "H" 
			},
			{
				"x": -3.7123256141,
				"y": 4.2619860953,
				"z": 2.6953368997,
				"element": "H" 
			},
			{
				"x": -2.73878562,
				"y": 2.5344563762,
				"z": 4.1943989377,
				"element": "H" 
			},
			{
				"x": -0.9507052628,
				"y": 1.0243869349,
				"z": 3.3545598847,
				"element": "H" 
			},
			{
				"x": -1.4564420596,
				"y": -1.3059275693,
				"z": -2.5144897805,
				"element": "H" 
			}
		],
		 "valence_orbital": [ 
			{
				"type": "occ",
				"energy": -0.27331,
				"method": "rhf"
			},
			{
				"type": "occ",
				"energy": -0.26417,
				"method": "rhf"
			},
			{
				"type": "occ",
				"energy": -0.2518,
				"method": "rhf"
			},
			{
				"type": "occ",
				"energy": -0.24884,
				"method": "rhf"
			},
			{
				"type": "occ",
				"energy": -0.24402,
				"method": "rhf"
			},
			{
				"type": "unocc",
				"energy": -0.07534,
				"method": "rhf"
			},
			{
				"type": "unocc",
				"energy": -0.05688,
				"method": "rhf"
			},
			{
				"type": "unocc",
				"energy": -0.01501,
				"method": "rhf"
			},
			{
				"type": "unocc",
				"energy": -0.00817,
				"method": "rhf"
			},
			{
				"type": "unocc",
				"energy": -0.00226,
				"method": "rhf"
			}
		],
		"cosmo_sigma_profile": { 
			"-0.025": 0.0,
			"-0.024": 0.0,
			"-0.023": 0.0,
			"-0.022": 0.0,
			"-0.021": 0.0,
			"-0.02": 0.0,
			"-0.019": 0.0,
			"-0.018": 0.0,
			"-0.017": 0.0,
			"-0.016": 0.0,
			"-0.015": 0.0,
			"-0.014": 0.0,
			"-0.013": 0.0,
			"-0.012": 0.0,
			"-0.011": 0.0,
			"-0.01": 0.0,
			"-0.009": 1.65801705641,
			"-0.008": 4.54721259664,
			"-0.007": 4.80353436232,
			"-0.006": 12.0442916399,
			"-0.005": 18.6368958121,
			"-0.004": 20.7654575525,
			"-0.003": 24.5104694081,
			"-0.002": 21.8470402244,
			"-0.001": 22.5337376721,
			"0.0": 19.1471914157,
			"0.001": 15.5430380841,
			"0.002": 18.8045761882,
			"0.003": 24.1228193329,
			"0.004": 16.2997030946,
			"0.005": 11.6240216683,
			"0.006": 7.33901531997,
			"0.007": 2.45543703119,
			"0.008": 1.93653143978,
			"0.009": 2.67795747236,
			"0.01": 1.55189080979,
			"0.011": 1.31766756834,
			"0.012": 2.77896866004,
			"0.013": 2.96554359101,
			"0.014": 1.50194996252,
			"0.015": 0.0073763246147,
			"0.016": 0.0,
			"0.017": 0.0,
			"0.018": 0.0,
			"0.019": 0.0,
			"0.02": 0.0,
			"0.021": 0.0,
			"0.022": 0.0,
			"0.023": 0.0,
			"0.024": 0.0,
			"0.025": 0.0
		}
	}
}
