{
	 "smiles": "OC(=O)CS(=O)(=O)C1=CC=C(Br)C=C1", 
	 "Tm": 419.15, 
	 "num_atms": 21, 
	 "gaussian": { 
		 "optdone": 1, 
		 "sigma_profile": "yes", 
		 "theory": "DFT", 
		 "functional": "B3LYP", 
		 "basiset": "6-31G**", 
		 "properties": { 
			 "R2extent": 5952.2033, 
			 "electric_dipole_moment_norm": 2.66804277514, 
			 "electric_quadrupole_moment_norm": 11.2442262722, 
			 "total_energy": -3579.49742754, 
			 "HOMO_LUMO_gap": 0.20771, 
			 "cosmo_polarized_energy": -16.79, 
			 "cosmo_cavitation_energy": 29.33, 
			 "cosmo_dispersion_energy": -22.11, 
			 "cosmo_repulsion_energy": 1.7, 
			 "cosmo_total_nonelectrostatic_energy": 8.92, 
			 "SMD_solvation_energy": 4.4 
		},
		"coords": [
			{
				"x": 3.8542848025,
				"y": -1.0745133759,
				"z": -1.523014577,
				"element": "O" 
			},
			{
				"x": 3.5088624568,
				"y": -0.5287554396,
				"z": -0.3494381257,
				"element": "C" 
			},
			{
				"x": 3.6600048655,
				"y": -1.0978418034,
				"z": 0.7021666928,
				"element": "O" 
			},
			{
				"x": 2.954731391,
				"y": 0.9058206379,
				"z": -0.3873899897,
				"element": "C" 
			},
			{
				"x": 1.8536708702,
				"y": 1.3254011549,
				"z": -1.780459624,
				"element": "S" 
			},
			{
				"x": 2.5143277259,
				"y": 0.7612612968,
				"z": -2.9857014226,
				"element": "O" 
			},
			{
				"x": 1.5514327575,
				"y": 2.7583644687,
				"z": -1.6985370484,
				"element": "O" 
			},
			{
				"x": 0.3426754853,
				"y": 0.4065248366,
				"z": -1.4879968473,
				"element": "C" 
			},
			{
				"x": 0.2867254074,
				"y": -0.955591495,
				"z": -1.796749027,
				"element": "C" 
			},
			{
				"x": -0.8925350953,
				"y": -1.6573755838,
				"z": -1.5569320315,
				"element": "C" 
			},
			{
				"x": -1.9927083596,
				"y": -0.9831242454,
				"z": -1.0226955085,
				"element": "C" 
			},
			{
				"x": -3.6038879154,
				"y": -1.9430614282,
				"z": -0.7001615936,
				"element": "Br" 
			},
			{
				"x": -1.9390600836,
				"y": 0.3795062356,
				"z": -0.7242430616,
				"element": "C" 
			},
			{
				"x": -0.7581838876,
				"y": 1.081852184,
				"z": -0.9576007522,
				"element": "C" 
			},
			{
				"x": 3.6087591819,
				"y": -0.4771869581,
				"z": -2.2662338816,
				"element": "H" 
			},
			{
				"x": 2.4309769526,
				"y": 1.1153691512,
				"z": 0.5452379645,
				"element": "H" 
			},
			{
				"x": 3.7819486812,
				"y": 1.6165890983,
				"z": -0.4990216913,
				"element": "H" 
			},
			{
				"x": 1.1454308855,
				"y": -1.4635943327,
				"z": -2.2216809594,
				"element": "H" 
			},
			{
				"x": -0.958572327,
				"y": -2.7141864745,
				"z": -1.7868994385,
				"element": "H" 
			},
			{
				"x": -2.8082229926,
				"y": 0.8840431644,
				"z": -0.3188967544,
				"element": "H" 
			},
			{
				"x": -0.691860802,
				"y": 2.1438989082,
				"z": -0.748052323,
				"element": "H" 
			}
		],
		 "valence_orbital": [ 
			{
				"type": "occ",
				"energy": -0.32314,
				"method": "rhf"
			},
			{
				"type": "occ",
				"energy": -0.31054,
				"method": "rhf"
			},
			{
				"type": "occ",
				"energy": -0.29853,
				"method": "rhf"
			},
			{
				"type": "occ",
				"energy": -0.28498,
				"method": "rhf"
			},
			{
				"type": "occ",
				"energy": -0.27684,
				"method": "rhf"
			},
			{
				"type": "unocc",
				"energy": -0.06913,
				"method": "rhf"
			},
			{
				"type": "unocc",
				"energy": -0.04965,
				"method": "rhf"
			},
			{
				"type": "unocc",
				"energy": -0.01828,
				"method": "rhf"
			},
			{
				"type": "unocc",
				"energy": -0.01581,
				"method": "rhf"
			},
			{
				"type": "unocc",
				"energy": 0.04606,
				"method": "rhf"
			}
		],
		"cosmo_sigma_profile": { 
			"-0.025": 0.0,
			"-0.024": 0.0,
			"-0.023": 0.0,
			"-0.022": 0.0,
			"-0.021": 0.0,
			"-0.02": 0.0,
			"-0.019": 0.0,
			"-0.018": 0.0,
			"-0.017": 0.0,
			"-0.016": 0.0,
			"-0.015": 0.0,
			"-0.014": 0.0,
			"-0.013": 0.450217415213,
			"-0.012": 3.01556929829,
			"-0.011": 3.83792098152,
			"-0.01": 4.52429182575,
			"-0.009": 5.87468276841,
			"-0.008": 11.3047763083,
			"-0.007": 12.2560891132,
			"-0.006": 9.87301467158,
			"-0.005": 10.5721563715,
			"-0.004": 11.9929451353,
			"-0.003": 10.4599455523,
			"-0.002": 10.8154452839,
			"-0.001": 15.787965401,
			"0.0": 23.0568641401,
			"0.001": 17.7338021053,
			"0.002": 10.0057390575,
			"0.003": 13.5881747259,
			"0.004": 11.209028349,
			"0.005": 3.97197434581,
			"0.006": 5.20441328468,
			"0.007": 4.37017309878,
			"0.008": 6.97397235376,
			"0.009": 8.96854063053,
			"0.01": 12.4809744805,
			"0.011": 8.38458060851,
			"0.012": 2.0958280044,
			"0.013": 0.0615855158169,
			"0.014": 0.0,
			"0.015": 0.0,
			"0.016": 0.0,
			"0.017": 0.0,
			"0.018": 0.0,
			"0.019": 0.0,
			"0.02": 0.0,
			"0.021": 0.0,
			"0.022": 0.0,
			"0.023": 0.0,
			"0.024": 0.0,
			"0.025": 0.0
		}
	}
}
