{
	 "smiles": "CC1=C2C(CCC(O)=O)=CNC2=CC=C1", 
	 "Tm": 419.15, 
	 "num_atms": 28, 
	 "gaussian": { 
		 "optdone": 1, 
		 "sigma_profile": "yes", 
		 "theory": "DFT", 
		 "functional": "B3LYP", 
		 "basiset": "6-31G**", 
		 "properties": { 
			 "R2extent": 3621.2589, 
			 "electric_dipole_moment_norm": 6.17996171347, 
			 "electric_quadrupole_moment_norm": 26.153822408, 
			 "total_energy": -670.334819222, 
			 "HOMO_LUMO_gap": 0.18794, 
			 "cosmo_polarized_energy": -17.54, 
			 "cosmo_cavitation_energy": 30.46, 
			 "cosmo_dispersion_energy": -21.84, 
			 "cosmo_repulsion_energy": 1.7, 
			 "cosmo_total_nonelectrostatic_energy": 10.31, 
			 "SMD_solvation_energy": 5.85 
		},
		"coords": [
			{
				"x": -0.6001017729,
				"y": 1.1437783385,
				"z": 0.8108780561,
				"element": "C" 
			},
			{
				"x": -1.0092627586,
				"y": 0.2235155012,
				"z": -0.313925831,
				"element": "C" 
			},
			{
				"x": -0.2154159397,
				"y": -0.8791567177,
				"z": -0.7325675745,
				"element": "C" 
			},
			{
				"x": 1.0538386457,
				"y": -1.4528747971,
				"z": -0.3074148854,
				"element": "C" 
			},
			{
				"x": 1.9733510326,
				"y": -1.0601452904,
				"z": 0.8307938793,
				"element": "C" 
			},
			{
				"x": 3.3598893401,
				"y": -0.5141963191,
				"z": 0.4062410708,
				"element": "C" 
			},
			{
				"x": 3.3659100973,
				"y": 0.8695003359,
				"z": -0.2383042191,
				"element": "C" 
			},
			{
				"x": 2.4341606499,
				"y": 1.0915748932,
				"z": -1.1989689683,
				"element": "O" 
			},
			{
				"x": 4.1551325116,
				"y": 1.7341707596,
				"z": 0.0555431012,
				"element": "O" 
			},
			{
				"x": 1.2855013603,
				"y": -2.5294305695,
				"z": -1.1374905659,
				"element": "C" 
			},
			{
				"x": 0.2570551503,
				"y": -2.6648644684,
				"z": -2.0394906426,
				"element": "N" 
			},
			{
				"x": -0.6765886253,
				"y": -1.6743920781,
				"z": -1.8217843894,
				"element": "C" 
			},
			{
				"x": -1.8757144876,
				"y": -1.4305162513,
				"z": -2.5008738424,
				"element": "C" 
			},
			{
				"x": -2.6336399379,
				"y": -0.3545390953,
				"z": -2.0689391806,
				"element": "C" 
			},
			{
				"x": -2.2009613896,
				"y": 0.451277749,
				"z": -0.9968707856,
				"element": "C" 
			},
			{
				"x": 0.3655113468,
				"y": 1.6194026231,
				"z": 0.6076942461,
				"element": "H" 
			},
			{
				"x": -1.3382660579,
				"y": 1.9390544603,
				"z": 0.9431416629,
				"element": "H" 
			},
			{
				"x": -0.5155139308,
				"y": 0.6123642855,
				"z": 1.7660335778,
				"element": "H" 
			},
			{
				"x": 1.4852168443,
				"y": -0.3297990697,
				"z": 1.4782576366,
				"element": "H" 
			},
			{
				"x": 2.1540743265,
				"y": -1.9399956937,
				"z": 1.4595500321,
				"element": "H" 
			},
			{
				"x": 3.8254032684,
				"y": -1.213857249,
				"z": -0.300751369,
				"element": "H" 
			},
			{
				"x": 4.0213525521,
				"y": -0.4465703338,
				"z": 1.2727614045,
				"element": "H" 
			},
			{
				"x": 1.8717385737,
				"y": 0.3049422042,
				"z": -1.3154318049,
				"element": "H" 
			},
			{
				"x": 2.1109747563,
				"y": -3.2281826511,
				"z": -1.1367698614,
				"element": "H" 
			},
			{
				"x": 0.1988280388,
				"y": -3.370885904,
				"z": -2.7553203536,
				"element": "H" 
			},
			{
				"x": -2.1943013331,
				"y": -2.0578438252,
				"z": -3.3283083173,
				"element": "H" 
			},
			{
				"x": -3.5727940186,
				"y": -0.1235879711,
				"z": -2.5626563366,
				"element": "H" 
			},
			{
				"x": -2.8202782426,
				"y": 1.2904571339,
				"z": -0.6917257399,
				"element": "H" 
			}
		],
		 "valence_orbital": [ 
			{
				"type": "occ",
				"energy": -0.29991,
				"method": "rhf"
			},
			{
				"type": "occ",
				"energy": -0.27776,
				"method": "rhf"
			},
			{
				"type": "occ",
				"energy": -0.25545,
				"method": "rhf"
			},
			{
				"type": "occ",
				"energy": -0.23086,
				"method": "rhf"
			},
			{
				"type": "occ",
				"energy": -0.20934,
				"method": "rhf"
			},
			{
				"type": "unocc",
				"energy": -0.0214,
				"method": "rhf"
			},
			{
				"type": "unocc",
				"energy": 0.0194,
				"method": "rhf"
			},
			{
				"type": "unocc",
				"energy": 0.02103,
				"method": "rhf"
			},
			{
				"type": "unocc",
				"energy": 0.0452,
				"method": "rhf"
			},
			{
				"type": "unocc",
				"energy": 0.06754,
				"method": "rhf"
			}
		],
		"cosmo_sigma_profile": { 
			"-0.025": 0.0,
			"-0.024": 0.0,
			"-0.023": 0.0,
			"-0.022": 0.0,
			"-0.021": 0.0,
			"-0.02": 0.0,
			"-0.019": 0.0,
			"-0.018": 0.0,
			"-0.017": 0.0,
			"-0.016": 0.526456284496,
			"-0.015": 1.68911691901,
			"-0.014": 1.49619913623,
			"-0.013": 1.49631899923,
			"-0.012": 1.28635950096,
			"-0.011": 1.17194212316,
			"-0.01": 1.51663392709,
			"-0.009": 1.6033295688,
			"-0.008": 4.65908493842,
			"-0.007": 6.63401042595,
			"-0.006": 9.77163963221,
			"-0.005": 14.6146066584,
			"-0.004": 23.0348511748,
			"-0.003": 20.9438753869,
			"-0.002": 20.2951784532,
			"-0.001": 15.5428598886,
			"0.0": 15.1883621554,
			"0.001": 13.5515039751,
			"0.002": 10.6427995469,
			"0.003": 10.9538171117,
			"0.004": 10.2048137461,
			"0.005": 12.1664503326,
			"0.006": 9.30988732528,
			"0.007": 7.86113617463,
			"0.008": 2.66231160869,
			"0.009": 2.72713278955,
			"0.01": 3.42256900372,
			"0.011": 5.39627155168,
			"0.012": 6.1470013331,
			"0.013": 4.30379979357,
			"0.014": 0.634607927699,
			"0.015": 0.0,
			"0.016": 0.0,
			"0.017": 0.0,
			"0.018": 0.0,
			"0.019": 0.0,
			"0.02": 0.0,
			"0.021": 0.0,
			"0.022": 0.0,
			"0.023": 0.0,
			"0.024": 0.0,
			"0.025": 0.0
		}
	}
}
