{
	 "smiles": "OC(=O)C(=C/C1=CC=CC=C1)C(=CC1=CC=CC=C1)C(O)=O", 
	 "Tm": 496.15, 
	 "num_atms": 36, 
	 "gaussian": { 
		 "optdone": 1, 
		 "sigma_profile": "yes", 
		 "theory": "DFT", 
		 "functional": "B3LYP", 
		 "basiset": "6-31G**", 
		 "properties": { 
			 "R2extent": 8889.9435, 
			 "electric_dipole_moment_norm": 2.55381153572, 
			 "electric_quadrupole_moment_norm": 16.5190922105, 
			 "total_energy": -995.237801368, 
			 "HOMO_LUMO_gap": 0.15172, 
			 "cosmo_polarized_energy": -20.18, 
			 "cosmo_cavitation_energy": 41.82, 
			 "cosmo_dispersion_energy": -28.74, 
			 "cosmo_repulsion_energy": 2.22, 
			 "cosmo_total_nonelectrostatic_energy": 15.31, 
			 "SMD_solvation_energy": 8.97 
		},
		"coords": [
			{
				"x": 0.5452304955,
				"y": -2.6608176767,
				"z": -2.1587313813,
				"element": "O" 
			},
			{
				"x": -0.4578971634,
				"y": -2.0922176363,
				"z": -1.4597776745,
				"element": "C" 
			},
			{
				"x": -1.5115212071,
				"y": -2.6520482307,
				"z": -1.237421301,
				"element": "O" 
			},
			{
				"x": -0.1318869002,
				"y": -0.7083555772,
				"z": -0.9700690402,
				"element": "C" 
			},
			{
				"x": 0.9821721316,
				"y": -0.4007736262,
				"z": -0.2700466186,
				"element": "C" 
			},
			{
				"x": 2.0355627822,
				"y": -1.2850056601,
				"z": 0.2503171465,
				"element": "C" 
			},
			{
				"x": 3.3416266661,
				"y": -0.7777031634,
				"z": 0.3755443496,
				"element": "C" 
			},
			{
				"x": 4.3732785237,
				"y": -1.5678004659,
				"z": 0.8774673793,
				"element": "C" 
			},
			{
				"x": 4.1143082153,
				"y": -2.8773398646,
				"z": 1.2873964443,
				"element": "C" 
			},
			{
				"x": 2.8160548578,
				"y": -3.3855793766,
				"z": 1.1965077987,
				"element": "C" 
			},
			{
				"x": 1.7860670891,
				"y": -2.5989264241,
				"z": 0.6866408016,
				"element": "C" 
			},
			{
				"x": -1.1759366797,
				"y": 0.3206541824,
				"z": -1.2453183664,
				"element": "C" 
			},
			{
				"x": -1.6403683679,
				"y": 1.0901901765,
				"z": -0.2289903304,
				"element": "C" 
			},
			{
				"x": -2.679278005,
				"y": 2.1290081206,
				"z": -0.1410390554,
				"element": "C" 
			},
			{
				"x": -2.4672917146,
				"y": 3.1881244829,
				"z": 0.7618966366,
				"element": "C" 
			},
			{
				"x": -3.4235907998,
				"y": 4.1855159572,
				"z": 0.9373442021,
				"element": "C" 
			},
			{
				"x": -4.6314896114,
				"y": 4.1226495143,
				"z": 0.2402100631,
				"element": "C" 
			},
			{
				"x": -4.8723516,
				"y": 3.0560844303,
				"z": -0.6295955583,
				"element": "C" 
			},
			{
				"x": -3.9079889105,
				"y": 2.0702640475,
				"z": -0.8220432372,
				"element": "C" 
			},
			{
				"x": -1.5550247554,
				"y": 0.4005041578,
				"z": -2.6860060775,
				"element": "C" 
			},
			{
				"x": -2.1657484411,
				"y": 1.5484014634,
				"z": -3.0556177813,
				"element": "O" 
			},
			{
				"x": -1.2820911618,
				"y": -0.4648604641,
				"z": -3.4969394948,
				"element": "O" 
			},
			{
				"x": 0.2201633472,
				"y": -3.5379986795,
				"z": -2.423147709,
				"element": "H" 
			},
			{
				"x": 1.1248644526,
				"y": 0.6546408088,
				"z": -0.0397959105,
				"element": "H" 
			},
			{
				"x": 3.545908763,
				"y": 0.242920784,
				"z": 0.0619359358,
				"element": "H" 
			},
			{
				"x": 5.3771633616,
				"y": -1.1601808154,
				"z": 0.9545203764,
				"element": "H" 
			},
			{
				"x": 4.9147763503,
				"y": -3.4929388224,
				"z": 1.6873878794,
				"element": "H" 
			},
			{
				"x": 2.6025858368,
				"y": -4.3953977286,
				"z": 1.5352192591,
				"element": "H" 
			},
			{
				"x": 0.7756148756,
				"y": -2.9934338782,
				"z": 0.6553296982,
				"element": "H" 
			},
			{
				"x": -1.1658270023,
				"y": 0.888615843,
				"z": 0.7305073423,
				"element": "H" 
			},
			{
				"x": -1.5355378913,
				"y": 3.2305229614,
				"z": 1.3202903968,
				"element": "H" 
			},
			{
				"x": -3.2314403837,
				"y": 5.0027981375,
				"z": 1.626361406,
				"element": "H" 
			},
			{
				"x": -5.386026865,
				"y": 4.8904929666,
				"z": 0.3844182802,
				"element": "H" 
			},
			{
				"x": -5.8199623646,
				"y": 2.9879870965,
				"z": -1.1561400951,
				"element": "H" 
			},
			{
				"x": -4.1129656957,
				"y": 1.2399128974,
				"z": -1.4863881946,
				"element": "H" 
			},
			{
				"x": -2.3112522279,
				"y": 1.4671900619,
				"z": -4.0133275698,
				"element": "H" 
			}
		],
		 "valence_orbital": [ 
			{
				"type": "occ",
				"energy": -0.26799,
				"method": "rhf"
			},
			{
				"type": "occ",
				"energy": -0.25564,
				"method": "rhf"
			},
			{
				"type": "occ",
				"energy": -0.25293,
				"method": "rhf"
			},
			{
				"type": "occ",
				"energy": -0.24727,
				"method": "rhf"
			},
			{
				"type": "occ",
				"energy": -0.22124,
				"method": "rhf"
			},
			{
				"type": "unocc",
				"energy": -0.06952,
				"method": "rhf"
			},
			{
				"type": "unocc",
				"energy": -0.04275,
				"method": "rhf"
			},
			{
				"type": "unocc",
				"energy": -0.00593,
				"method": "rhf"
			},
			{
				"type": "unocc",
				"energy": -0.00347,
				"method": "rhf"
			},
			{
				"type": "unocc",
				"energy": 0.00851,
				"method": "rhf"
			}
		],
		"cosmo_sigma_profile": { 
			"-0.025": 0.0,
			"-0.024": 0.0,
			"-0.023": 0.0,
			"-0.022": 0.0,
			"-0.021": 0.0,
			"-0.02": 0.0,
			"-0.019": 0.209288338136,
			"-0.018": 1.52424307017,
			"-0.017": 1.53854446341,
			"-0.016": 1.932259527,
			"-0.015": 2.04342072476,
			"-0.014": 1.47976039482,
			"-0.013": 0.531761736481,
			"-0.012": 0.742966011272,
			"-0.011": 1.73485114691,
			"-0.01": 1.65215808745,
			"-0.009": 1.13854438534,
			"-0.008": 0.976522447871,
			"-0.007": 6.66376040083,
			"-0.006": 23.3850394602,
			"-0.005": 27.4202036038,
			"-0.004": 27.4023101233,
			"-0.003": 23.5729460901,
			"-0.002": 19.8514126228,
			"-0.001": 17.6309952656,
			"0.0": 20.2643574538,
			"0.001": 18.3085396783,
			"0.002": 20.0812365268,
			"0.003": 17.7403938841,
			"0.004": 21.5747300892,
			"0.005": 23.9655959948,
			"0.006": 8.59201303719,
			"0.007": 6.94249180402,
			"0.008": 6.46216532928,
			"0.009": 8.36005959271,
			"0.01": 6.78476287794,
			"0.011": 7.1235573042,
			"0.012": 6.17860352019,
			"0.013": 0.610437878227,
			"0.014": 0.0,
			"0.015": 0.0,
			"0.016": 0.0,
			"0.017": 0.0,
			"0.018": 0.0,
			"0.019": 0.0,
			"0.02": 0.0,
			"0.021": 0.0,
			"0.022": 0.0,
			"0.023": 0.0,
			"0.024": 0.0,
			"0.025": 0.0
		}
	}
}
