{
	 "smiles": "CN1N(C(=O)C(NN=C2C(=O)N(N=C2C(F)(F)F)C2=CC=CC=C2)=C1C)C1=CC=CC=C1", 
	 "Tm": 458.15, 
	 "num_atms": 49, 
	 "gaussian": { 
		 "optdone": 1, 
		 "sigma_profile": "yes", 
		 "theory": "DFT", 
		 "functional": "B3LYP", 
		 "basiset": "6-31G**", 
		 "properties": { 
			 "R2extent": 20672.8202, 
			 "electric_dipole_moment_norm": 5.99495271124, 
			 "electric_quadrupole_moment_norm": 23.0600360477, 
			 "total_energy": -1588.88222673, 
			 "HOMO_LUMO_gap": 0.11128, 
			 "cosmo_polarized_energy": -19.25, 
			 "cosmo_cavitation_energy": 55.6, 
			 "cosmo_dispersion_energy": -38.21, 
			 "cosmo_repulsion_energy": 2.75, 
			 "cosmo_total_nonelectrostatic_energy": 20.14, 
			 "SMD_solvation_energy": 10.4 
		},
		"coords": [
			{
				"x": -2.1096447023,
				"y": 3.804072458,
				"z": -2.2849295409,
				"element": "C" 
			},
			{
				"x": -0.8555659729,
				"y": 3.1996980185,
				"z": -1.807157406,
				"element": "N" 
			},
			{
				"x": -0.3109582828,
				"y": 3.8462157557,
				"z": -0.6735495903,
				"element": "N" 
			},
			{
				"x": 0.159273579,
				"y": 2.8910034188,
				"z": 0.2394893126,
				"element": "C" 
			},
			{
				"x": 0.7818700446,
				"y": 3.0982109844,
				"z": 1.2757498437,
				"element": "O" 
			},
			{
				"x": -0.2187276925,
				"y": 1.6139254749,
				"z": -0.3476765055,
				"element": "C" 
			},
			{
				"x": 0.1464684705,
				"y": 0.4602267597,
				"z": 0.3366620361,
				"element": "N" 
			},
			{
				"x": -0.1225098059,
				"y": -0.7261985523,
				"z": -0.1336537956,
				"element": "N" 
			},
			{
				"x": 0.2053126337,
				"y": -1.8359453576,
				"z": 0.4768903014,
				"element": "C" 
			},
			{
				"x": -0.1227114276,
				"y": -3.1280073309,
				"z": -0.1796262536,
				"element": "C" 
			},
			{
				"x": -0.6748406286,
				"y": -3.3362032477,
				"z": -1.247624466,
				"element": "O" 
			},
			{
				"x": 0.3716863844,
				"y": -4.0878483737,
				"z": 0.7337871262,
				"element": "N" 
			},
			{
				"x": 0.9304595747,
				"y": -3.507923147,
				"z": 1.8406389929,
				"element": "N" 
			},
			{
				"x": 0.8551269823,
				"y": -2.2130291833,
				"z": 1.7151278006,
				"element": "C" 
			},
			{
				"x": 1.3464047057,
				"y": -1.3300663202,
				"z": 2.8163969262,
				"element": "C" 
			},
			{
				"x": 0.3185978012,
				"y": -0.6562773218,
				"z": 3.3884506202,
				"element": "F" 
			},
			{
				"x": 2.183058953,
				"y": -0.3733309107,
				"z": 2.3170543327,
				"element": "F" 
			},
			{
				"x": 1.9985137826,
				"y": -1.9950006822,
				"z": 3.7686928723,
				"element": "F" 
			},
			{
				"x": 0.3480842269,
				"y": -5.5078707863,
				"z": 0.6372314408,
				"element": "C" 
			},
			{
				"x": 0.917651375,
				"y": -6.2724181125,
				"z": 1.6653509069,
				"element": "C" 
			},
			{
				"x": 0.8993732547,
				"y": -7.6624207596,
				"z": 1.5802280967,
				"element": "C" 
			},
			{
				"x": 0.3209195196,
				"y": -8.3023752836,
				"z": 0.4823201829,
				"element": "C" 
			},
			{
				"x": -0.2422574951,
				"y": -7.5322656674,
				"z": -0.5350263391,
				"element": "C" 
			},
			{
				"x": -0.235876082,
				"y": -6.1385920301,
				"z": -0.4706496228,
				"element": "C" 
			},
			{
				"x": -0.8433895823,
				"y": 1.8249643455,
				"z": -1.5425712577,
				"element": "C" 
			},
			{
				"x": -1.4683831785,
				"y": 0.8653821319,
				"z": -2.5030566031,
				"element": "C" 
			},
			{
				"x": 0.207763033,
				"y": 5.1643520933,
				"z": -0.7956703643,
				"element": "C" 
			},
			{
				"x": 0.5909689164,
				"y": 5.6732362631,
				"z": -2.0432315256,
				"element": "C" 
			},
			{
				"x": 1.0846506368,
				"y": 6.974665277,
				"z": -2.1331289354,
				"element": "C" 
			},
			{
				"x": 1.2190054461,
				"y": 7.7612163423,
				"z": -0.9882607715,
				"element": "C" 
			},
			{
				"x": 0.8519758089,
				"y": 7.238079562,
				"z": 0.2535739574,
				"element": "C" 
			},
			{
				"x": 0.3362532964,
				"y": 5.9475731112,
				"z": 0.3586752985,
				"element": "C" 
			},
			{
				"x": -2.910195253,
				"y": 3.7203818954,
				"z": -1.5390307081,
				"element": "H" 
			},
			{
				"x": -1.9327813071,
				"y": 4.8559426731,
				"z": -2.5097136156,
				"element": "H" 
			},
			{
				"x": -2.4069678985,
				"y": 3.2983474956,
				"z": -3.2040085004,
				"element": "H" 
			},
			{
				"x": 0.6754693796,
				"y": 0.6223447707,
				"z": 1.1970446917,
				"element": "H" 
			},
			{
				"x": 1.3656636111,
				"y": -5.7738958079,
				"z": 2.5152761704,
				"element": "H" 
			},
			{
				"x": 1.3429141851,
				"y": -8.2465622662,
				"z": 2.3814957341,
				"element": "H" 
			},
			{
				"x": 0.3100691593,
				"y": -9.3864495791,
				"z": 0.4215668523,
				"element": "H" 
			},
			{
				"x": -0.6960157522,
				"y": -8.0150334443,
				"z": -1.3958700834,
				"element": "H" 
			},
			{
				"x": -0.6722727622,
				"y": -5.5427470868,
				"z": -1.2598380101,
				"element": "H" 
			},
			{
				"x": -1.1702108516,
				"y": -0.1532379807,
				"z": -2.2559039607,
				"element": "H" 
			},
			{
				"x": -1.1647296677,
				"y": 1.0926954526,
				"z": -3.5301176044,
				"element": "H" 
			},
			{
				"x": -2.5636426148,
				"y": 0.9135597713,
				"z": -2.4595987137,
				"element": "H" 
			},
			{
				"x": 0.519838732,
				"y": 5.0451888527,
				"z": -2.9244493958,
				"element": "H" 
			},
			{
				"x": 1.3781905987,
				"y": 7.3663833728,
				"z": -3.1026591474,
				"element": "H" 
			},
			{
				"x": 1.6098795319,
				"y": 8.7713804877,
				"z": -1.0621555038,
				"element": "H" 
			},
			{
				"x": 0.9581611719,
				"y": 7.8404475646,
				"z": 1.1508562844,
				"element": "H" 
			},
			{
				"x": 0.0530761624,
				"y": 5.5354048988,
				"z": 1.31869844,
				"element": "H" 
			}
		],
		 "valence_orbital": [ 
			{
				"type": "occ",
				"energy": -0.25844,
				"method": "rhf"
			},
			{
				"type": "occ",
				"energy": -0.24645,
				"method": "rhf"
			},
			{
				"type": "occ",
				"energy": -0.23507,
				"method": "rhf"
			},
			{
				"type": "occ",
				"energy": -0.22137,
				"method": "rhf"
			},
			{
				"type": "occ",
				"energy": -0.20929,
				"method": "rhf"
			},
			{
				"type": "unocc",
				"energy": -0.09801,
				"method": "rhf"
			},
			{
				"type": "unocc",
				"energy": -0.03542,
				"method": "rhf"
			},
			{
				"type": "unocc",
				"energy": -0.01743,
				"method": "rhf"
			},
			{
				"type": "unocc",
				"energy": -0.01379,
				"method": "rhf"
			},
			{
				"type": "unocc",
				"energy": -0.00139,
				"method": "rhf"
			}
		],
		"cosmo_sigma_profile": { 
			"-0.025": 0.0,
			"-0.024": 0.0,
			"-0.023": 0.0,
			"-0.022": 0.0,
			"-0.021": 0.0,
			"-0.02": 0.0,
			"-0.019": 0.0,
			"-0.018": 0.0,
			"-0.017": 0.0,
			"-0.016": 0.0,
			"-0.015": 0.0,
			"-0.014": 0.0,
			"-0.013": 0.0,
			"-0.012": 0.0,
			"-0.011": 0.0,
			"-0.01": 0.0,
			"-0.009": 0.0,
			"-0.008": 0.295462668204,
			"-0.007": 5.79218119625,
			"-0.006": 27.7724071732,
			"-0.005": 34.9798523152,
			"-0.004": 39.5102508326,
			"-0.003": 41.1955932544,
			"-0.002": 39.729983248,
			"-0.001": 35.560045796,
			"0.0": 29.0807570158,
			"0.001": 38.3638995221,
			"0.002": 42.8594382118,
			"0.003": 24.2167378769,
			"0.004": 25.1611957609,
			"0.005": 23.5570715516,
			"0.006": 6.41612608704,
			"0.007": 4.89297261776,
			"0.008": 4.97838820627,
			"0.009": 4.53407671165,
			"0.01": 4.14815449137,
			"0.011": 4.6730585195,
			"0.012": 7.00140697811,
			"0.013": 2.86841736888,
			"0.014": 0.00252646767645,
			"0.015": 0.0,
			"0.016": 0.0,
			"0.017": 0.0,
			"0.018": 0.0,
			"0.019": 0.0,
			"0.02": 0.0,
			"0.021": 0.0,
			"0.022": 0.0,
			"0.023": 0.0,
			"0.024": 0.0,
			"0.025": 0.0
		}
	}
}
