{
	 "smiles": "CC1=CC(C)=C(N)C(=C1)C(O)C1=CC=CC=C1", 
	 "Tm": 398.15, 
	 "num_atms": 34, 
	 "gaussian": { 
		 "optdone": 1, 
		 "sigma_profile": "yes", 
		 "theory": "DFT", 
		 "functional": "B3LYP", 
		 "basiset": "6-31G**", 
		 "properties": { 
			 "R2extent": 5230.8822, 
			 "electric_dipole_moment_norm": 1.83703946882, 
			 "electric_quadrupole_moment_norm": 9.73515098856, 
			 "total_energy": -711.825183171, 
			 "HOMO_LUMO_gap": 0.18625, 
			 "cosmo_polarized_energy": -13.89, 
			 "cosmo_cavitation_energy": 35.91, 
			 "cosmo_dispersion_energy": -25.56, 
			 "cosmo_repulsion_energy": 2.0, 
			 "cosmo_total_nonelectrostatic_energy": 12.35, 
			 "SMD_solvation_energy": 5.93 
		},
		"coords": [
			{
				"x": 0.7137829695,
				"y": -4.1624355352,
				"z": 2.7331417527,
				"element": "C" 
			},
			{
				"x": 1.2217292329,
				"y": -2.7591230926,
				"z": 2.4953491471,
				"element": "C" 
			},
			{
				"x": 1.6297917415,
				"y": -1.9481868084,
				"z": 3.5610218204,
				"element": "C" 
			},
			{
				"x": 2.0924072243,
				"y": -0.6469508907,
				"z": 3.3726035942,
				"element": "C" 
			},
			{
				"x": 2.525654949,
				"y": 0.1925347075,
				"z": 4.5508471332,
				"element": "C" 
			},
			{
				"x": 2.1514031607,
				"y": -0.1174470516,
				"z": 2.0618979699,
				"element": "C" 
			},
			{
				"x": 2.5811553917,
				"y": 1.2132717138,
				"z": 1.8831802473,
				"element": "N" 
			},
			{
				"x": 1.7283223133,
				"y": -0.9111197329,
				"z": 0.9766437598,
				"element": "C" 
			},
			{
				"x": 1.280099782,
				"y": -2.2149668162,
				"z": 1.2128693464,
				"element": "C" 
			},
			{
				"x": 1.7117460847,
				"y": -0.3749555833,
				"z": -0.4513030978,
				"element": "C" 
			},
			{
				"x": 2.0596823745,
				"y": -1.4471545696,
				"z": -1.3233917671,
				"element": "O" 
			},
			{
				"x": 0.3559292204,
				"y": 0.2374671262,
				"z": -0.8160847086,
				"element": "C" 
			},
			{
				"x": 0.0563737588,
				"y": 1.5627647711,
				"z": -0.473324308,
				"element": "C" 
			},
			{
				"x": -1.1831483341,
				"y": 2.1153123407,
				"z": -0.7952728503,
				"element": "C" 
			},
			{
				"x": -2.1397534411,
				"y": 1.3535717774,
				"z": -1.4702532451,
				"element": "C" 
			},
			{
				"x": -1.8485893015,
				"y": 0.0332103618,
				"z": -1.8148520625,
				"element": "C" 
			},
			{
				"x": -0.609700884,
				"y": -0.5216461083,
				"z": -1.4884044852,
				"element": "C" 
			},
			{
				"x": 0.7126229297,
				"y": -4.746076414,
				"z": 1.8078574764,
				"element": "H" 
			},
			{
				"x": -0.3134299705,
				"y": -4.1607572525,
				"z": 3.1200609532,
				"element": "H" 
			},
			{
				"x": 1.3307909818,
				"y": -4.6960882311,
				"z": 3.4645092165,
				"element": "H" 
			},
			{
				"x": 1.5940667932,
				"y": -2.3428998144,
				"z": 4.5749037305,
				"element": "H" 
			},
			{
				"x": 3.5895835534,
				"y": 0.4668739991,
				"z": 4.4977568997,
				"element": "H" 
			},
			{
				"x": 2.3831438178,
				"y": -0.3499985844,
				"z": 5.4886347159,
				"element": "H" 
			},
			{
				"x": 1.9554354817,
				"y": 1.1279096198,
				"z": 4.6160025144,
				"element": "H" 
			},
			{
				"x": 3.1826692188,
				"y": 1.5459318976,
				"z": 2.6252897103,
				"element": "H" 
			},
			{
				"x": 3.0092737467,
				"y": 1.3952547079,
				"z": 0.9847259316,
				"element": "H" 
			},
			{
				"x": 0.9865583688,
				"y": -2.8163046521,
				"z": 0.3586529536,
				"element": "H" 
			},
			{
				"x": 2.4677823263,
				"y": 0.4216026244,
				"z": -0.5514396578,
				"element": "H" 
			},
			{
				"x": 1.929602064,
				"y": -1.1319538053,
				"z": -2.2280563058,
				"element": "H" 
			},
			{
				"x": 0.7882669994,
				"y": 2.1569636845,
				"z": 0.066442063,
				"element": "H" 
			},
			{
				"x": -1.4006531739,
				"y": 3.1441718667,
				"z": -0.5218872095,
				"element": "H" 
			},
			{
				"x": -3.1028453165,
				"y": 1.7863633349,
				"z": -1.7255210047,
				"element": "H" 
			},
			{
				"x": -2.5863816987,
				"y": -0.5684756489,
				"z": -2.3387316359,
				"element": "H" 
			},
			{
				"x": -0.3850723647,
				"y": -1.5497639419,
				"z": -1.7544685979,
				"element": "H" 
			}
		],
		 "valence_orbital": [ 
			{
				"type": "occ",
				"energy": -0.27826,
				"method": "rhf"
			},
			{
				"type": "occ",
				"energy": -0.24559,
				"method": "rhf"
			},
			{
				"type": "occ",
				"energy": -0.24091,
				"method": "rhf"
			},
			{
				"type": "occ",
				"energy": -0.22316,
				"method": "rhf"
			},
			{
				"type": "occ",
				"energy": -0.1909,
				"method": "rhf"
			},
			{
				"type": "unocc",
				"energy": -0.00465,
				"method": "rhf"
			},
			{
				"type": "unocc",
				"energy": 0.0009,
				"method": "rhf"
			},
			{
				"type": "unocc",
				"energy": 0.01921,
				"method": "rhf"
			},
			{
				"type": "unocc",
				"energy": 0.02779,
				"method": "rhf"
			},
			{
				"type": "unocc",
				"energy": 0.06978,
				"method": "rhf"
			}
		],
		"cosmo_sigma_profile": { 
			"-0.025": 0.0,
			"-0.024": 0.0,
			"-0.023": 0.0,
			"-0.022": 0.0,
			"-0.021": 0.0,
			"-0.02": 0.0,
			"-0.019": 0.0,
			"-0.018": 0.0,
			"-0.017": 0.0,
			"-0.016": 0.129366175559,
			"-0.015": 0.73369632708,
			"-0.014": 0.584126880755,
			"-0.013": 1.29125627377,
			"-0.012": 1.63397921893,
			"-0.011": 3.11958880755,
			"-0.01": 3.28763340404,
			"-0.009": 4.85899453358,
			"-0.008": 4.16429551605,
			"-0.007": 4.63622629308,
			"-0.006": 5.5999024717,
			"-0.005": 11.6320971028,
			"-0.004": 22.2505036887,
			"-0.003": 29.217359274,
			"-0.002": 20.8611365965,
			"-0.001": 22.2011470675,
			"0.0": 24.5203595601,
			"0.001": 21.1523592627,
			"0.002": 14.1758571205,
			"0.003": 13.5251643662,
			"0.004": 13.1839337091,
			"0.005": 15.9527145137,
			"0.006": 19.2931735126,
			"0.007": 10.2169283928,
			"0.008": 4.42209924276,
			"0.009": 3.18015654341,
			"0.01": 1.56962471214,
			"0.011": 2.06785805321,
			"0.012": 1.3288940757,
			"0.013": 1.69066786738,
			"0.014": 0.966803203749,
			"0.015": 0.00754328146132,
			"0.016": 0.0,
			"0.017": 0.0,
			"0.018": 0.0,
			"0.019": 0.0,
			"0.02": 0.0,
			"0.021": 0.0,
			"0.022": 0.0,
			"0.023": 0.0,
			"0.024": 0.0,
			"0.025": 0.0
		}
	}
}
