{
	 "smiles": "OC(=O)C1=CC2=C(CCCC2=O)NC1=O", 
	 "Tm": 563.15, 
	 "num_atms": 24, 
	 "gaussian": { 
		 "optdone": 1, 
		 "sigma_profile": "yes", 
		 "theory": "DFT", 
		 "functional": "B3LYP", 
		 "basiset": "6-31G**", 
		 "properties": { 
			 "R2extent": 3784.9067, 
			 "electric_dipole_moment_norm": 9.98552335734, 
			 "electric_quadrupole_moment_norm": 15.0325806776, 
			 "total_energy": -742.182619136, 
			 "HOMO_LUMO_gap": 0.17189, 
			 "cosmo_polarized_energy": -26.03, 
			 "cosmo_cavitation_energy": 27.86, 
			 "cosmo_dispersion_energy": -21.02, 
			 "cosmo_repulsion_energy": 1.63, 
			 "cosmo_total_nonelectrostatic_energy": 8.46, 
			 "SMD_solvation_energy": 6.45 
		},
		"coords": [
			{
				"x": 3.1650719343,
				"y": 3.6795244195,
				"z": 0.1729236514,
				"element": "O" 
			},
			{
				"x": 2.7133137964,
				"y": 2.5917123105,
				"z": 0.8081267159,
				"element": "C" 
			},
			{
				"x": 3.2533343098,
				"y": 2.1430688308,
				"z": 1.7963230963,
				"element": "O" 
			},
			{
				"x": 1.4828452438,
				"y": 1.9478087821,
				"z": 0.2213515398,
				"element": "C" 
			},
			{
				"x": 0.9560372988,
				"y": 0.8308026706,
				"z": 0.8146573417,
				"element": "C" 
			},
			{
				"x": -0.2009207876,
				"y": 0.1744811605,
				"z": 0.3067609236,
				"element": "C" 
			},
			{
				"x": -0.8164782501,
				"y": 0.6944119366,
				"z": -0.8179634011,
				"element": "C" 
			},
			{
				"x": -2.0385527746,
				"y": 0.081581065,
				"z": -1.4481697405,
				"element": "C" 
			},
			{
				"x": -2.8326557257,
				"y": -0.7424641305,
				"z": -0.4244549716,
				"element": "C" 
			},
			{
				"x": -1.9184253677,
				"y": -1.7291189817,
				"z": 0.3126961965,
				"element": "C" 
			},
			{
				"x": -0.7221027025,
				"y": -1.0493889388,
				"z": 0.9696780115,
				"element": "C" 
			},
			{
				"x": -0.1970013512,
				"y": -1.5002505762,
				"z": 1.9745672188,
				"element": "O" 
			},
			{
				"x": -0.2868980114,
				"y": 1.804641291,
				"z": -1.3965764238,
				"element": "N" 
			},
			{
				"x": 0.8513498792,
				"y": 2.4985424202,
				"z": -0.9613319398,
				"element": "C" 
			},
			{
				"x": 1.2162604196,
				"y": 3.4997831759,
				"z": -1.5962108432,
				"element": "O" 
			},
			{
				"x": 2.5796079325,
				"y": 3.8693794613,
				"z": -0.601584297,
				"element": "H" 
			},
			{
				"x": 1.439230703,
				"y": 0.4289238748,
				"z": 1.7001215059,
				"element": "H" 
			},
			{
				"x": -2.6635434527,
				"y": 0.8674229836,
				"z": -1.8889822766,
				"element": "H" 
			},
			{
				"x": -1.7160025221,
				"y": -0.563229561,
				"z": -2.2790668577,
				"element": "H" 
			},
			{
				"x": -3.3002228872,
				"y": -0.0634247949,
				"z": 0.2984195828,
				"element": "H" 
			},
			{
				"x": -3.643235819,
				"y": -1.2754453306,
				"z": -0.9305485011,
				"element": "H" 
			},
			{
				"x": -1.5204799947,
				"y": -2.4701035161,
				"z": -0.396588635,
				"element": "H" 
			},
			{
				"x": -2.4519880573,
				"y": -2.2877665516,
				"z": 1.0857426751,
				"element": "H" 
			},
			{
				"x": -0.7264438135,
				"y": 2.2097079992,
				"z": -2.2165905719,
				"element": "H" 
			}
		],
		 "valence_orbital": [ 
			{
				"type": "occ",
				"energy": -0.29574,
				"method": "rhf"
			},
			{
				"type": "occ",
				"energy": -0.29531,
				"method": "rhf"
			},
			{
				"type": "occ",
				"energy": -0.26574,
				"method": "rhf"
			},
			{
				"type": "occ",
				"energy": -0.26184,
				"method": "rhf"
			},
			{
				"type": "occ",
				"energy": -0.25409,
				"method": "rhf"
			},
			{
				"type": "unocc",
				"energy": -0.0822,
				"method": "rhf"
			},
			{
				"type": "unocc",
				"energy": -0.06662,
				"method": "rhf"
			},
			{
				"type": "unocc",
				"energy": 0.00207,
				"method": "rhf"
			},
			{
				"type": "unocc",
				"energy": 0.04494,
				"method": "rhf"
			},
			{
				"type": "unocc",
				"energy": 0.04821,
				"method": "rhf"
			}
		],
		"cosmo_sigma_profile": { 
			"-0.025": 0.0,
			"-0.024": 0.0,
			"-0.023": 0.0,
			"-0.022": 0.0,
			"-0.021": 0.0,
			"-0.02": 0.0,
			"-0.019": 0.0,
			"-0.018": 0.0173641984274,
			"-0.017": 1.0042569495,
			"-0.016": 1.53159114862,
			"-0.015": 1.2588396592,
			"-0.014": 1.14679591656,
			"-0.013": 1.48832347811,
			"-0.012": 1.28127231085,
			"-0.011": 0.9609328156,
			"-0.01": 1.44437030085,
			"-0.009": 0.956563694775,
			"-0.008": 2.84651350668,
			"-0.007": 9.94627404346,
			"-0.006": 11.71465633,
			"-0.005": 19.6364219956,
			"-0.004": 26.454117629,
			"-0.003": 21.2746305946,
			"-0.002": 17.6902497988,
			"-0.001": 14.5577721928,
			"0.0": 7.45734881153,
			"0.001": 5.28397336515,
			"0.002": 4.5997154291,
			"0.003": 5.3058171797,
			"0.004": 4.00072091301,
			"0.005": 4.55784556998,
			"0.006": 4.20116237835,
			"0.007": 5.37314304129,
			"0.008": 4.62826322808,
			"0.009": 6.33094260192,
			"0.01": 7.77756689798,
			"0.011": 10.6610147801,
			"0.012": 11.1087851202,
			"0.013": 4.37325367578,
			"0.014": 0.817004781311,
			"0.015": 0.0,
			"0.016": 0.0,
			"0.017": 0.0,
			"0.018": 0.0,
			"0.019": 0.0,
			"0.02": 0.0,
			"0.021": 0.0,
			"0.022": 0.0,
			"0.023": 0.0,
			"0.024": 0.0,
			"0.025": 0.0
		}
	}
}
