{
	 "smiles": "CCCCNC(=O)NS(=O)(=O)C1=CC=C(N)C=C1", 
	 "Tm": 417.15, 
	 "num_atms": 35, 
	 "gaussian": { 
		 "optdone": 1, 
		 "sigma_profile": "yes", 
		 "theory": "DFT", 
		 "functional": "B3LYP", 
		 "basiset": "6-31G**", 
		 "properties": { 
			 "R2extent": 7895.6927, 
			 "electric_dipole_moment_norm": 5.58811720081, 
			 "electric_quadrupole_moment_norm": 32.9974356076, 
			 "total_energy": -1217.49241776, 
			 "HOMO_LUMO_gap": 0.19641, 
			 "cosmo_polarized_energy": -22.71, 
			 "cosmo_cavitation_energy": 39.6, 
			 "cosmo_dispersion_energy": -27.63, 
			 "cosmo_repulsion_energy": 2.14, 
			 "cosmo_total_nonelectrostatic_energy": 14.11, 
			 "SMD_solvation_energy": 5.99 
		},
		"coords": [
			{
				"x": 0.432191131,
				"y": 2.8017552543,
				"z": 3.7345738219,
				"element": "C" 
			},
			{
				"x": 1.0749899353,
				"y": 3.4685188349,
				"z": 2.5120240079,
				"element": "C" 
			},
			{
				"x": 2.2084596371,
				"y": 2.6546988482,
				"z": 1.8653458671,
				"element": "C" 
			},
			{
				"x": 1.8030246181,
				"y": 1.2986244957,
				"z": 1.2657998781,
				"element": "C" 
			},
			{
				"x": 0.7983408611,
				"y": 1.4023243263,
				"z": 0.1947439894,
				"element": "N" 
			},
			{
				"x": 1.0394026143,
				"y": 1.7870015211,
				"z": -1.0968753606,
				"element": "C" 
			},
			{
				"x": 0.2564329865,
				"y": 2.4417801738,
				"z": -1.7682407297,
				"element": "O" 
			},
			{
				"x": 2.293630793,
				"y": 1.3786002081,
				"z": -1.6532967947,
				"element": "N" 
			},
			{
				"x": 2.7439793968,
				"y": -0.2704273539,
				"z": -1.9032501255,
				"element": "S" 
			},
			{
				"x": 2.9546739748,
				"y": -0.8808157853,
				"z": -0.5906578517,
				"element": "O" 
			},
			{
				"x": 3.8189903658,
				"y": -0.1651752766,
				"z": -2.8909400518,
				"element": "O" 
			},
			{
				"x": 1.3455079535,
				"y": -1.0645577862,
				"z": -2.6606290476,
				"element": "C" 
			},
			{
				"x": 1.2197352611,
				"y": -1.0590590345,
				"z": -4.0543170732,
				"element": "C" 
			},
			{
				"x": 0.1188082159,
				"y": -1.6580700125,
				"z": -4.6480593044,
				"element": "C" 
			},
			{
				"x": -0.8780347794,
				"y": -2.2700362614,
				"z": -3.860252205,
				"element": "C" 
			},
			{
				"x": -1.9520442843,
				"y": -2.9043143379,
				"z": -4.4546213902,
				"element": "N" 
			},
			{
				"x": -0.7294571849,
				"y": -2.2721651068,
				"z": -2.458139086,
				"element": "C" 
			},
			{
				"x": 0.3722734226,
				"y": -1.6756641512,
				"z": -1.8620980925,
				"element": "C" 
			},
			{
				"x": -0.3289234657,
				"y": 3.4496121073,
				"z": 4.1811236406,
				"element": "H" 
			},
			{
				"x": 1.1807393789,
				"y": 2.5875235416,
				"z": 4.5059914359,
				"element": "H" 
			},
			{
				"x": -0.0561722232,
				"y": 1.8540280643,
				"z": 3.4815638893,
				"element": "H" 
			},
			{
				"x": 1.4797277539,
				"y": 4.4435600831,
				"z": 2.8091506195,
				"element": "H" 
			},
			{
				"x": 0.3041005812,
				"y": 3.6902609353,
				"z": 1.7615419627,
				"element": "H" 
			},
			{
				"x": 2.6798932809,
				"y": 3.2529294783,
				"z": 1.0755076103,
				"element": "H" 
			},
			{
				"x": 2.988654271,
				"y": 2.4622483374,
				"z": 2.6146684416,
				"element": "H" 
			},
			{
				"x": 1.3832200863,
				"y": 0.6409629964,
				"z": 2.0339555835,
				"element": "H" 
			},
			{
				"x": 2.6749375443,
				"y": 0.7860763702,
				"z": 0.8654963539,
				"element": "H" 
			},
			{
				"x": -0.1067947788,
				"y": 1.7514384588,
				"z": 0.4857143168,
				"element": "H" 
			},
			{
				"x": 2.4126722171,
				"y": 1.8574060162,
				"z": -2.5434341979,
				"element": "H" 
			},
			{
				"x": 1.991900105,
				"y": -0.6019273306,
				"z": -4.663700876,
				"element": "H" 
			},
			{
				"x": 0.0249727468,
				"y": -1.6646013662,
				"z": -5.7305685607,
				"element": "H" 
			},
			{
				"x": -2.1728162924,
				"y": -2.6425396187,
				"z": -5.4038321091,
				"element": "H" 
			},
			{
				"x": -2.7639903068,
				"y": -3.070699613,
				"z": -3.8790499651,
				"element": "H" 
			},
			{
				"x": -1.4825018149,
				"y": -2.7547698253,
				"z": -1.8410214438,
				"element": "H" 
			},
			{
				"x": 0.4893759982,
				"y": -1.6874271911,
				"z": -0.7845171532,
				"element": "H" 
			}
		],
		 "valence_orbital": [ 
			{
				"type": "occ",
				"energy": -0.2939,
				"method": "rhf"
			},
			{
				"type": "occ",
				"energy": -0.27056,
				"method": "rhf"
			},
			{
				"type": "occ",
				"energy": -0.26785,
				"method": "rhf"
			},
			{
				"type": "occ",
				"energy": -0.25189,
				"method": "rhf"
			},
			{
				"type": "occ",
				"energy": -0.22506,
				"method": "rhf"
			},
			{
				"type": "unocc",
				"energy": -0.02865,
				"method": "rhf"
			},
			{
				"type": "unocc",
				"energy": -0.0186,
				"method": "rhf"
			},
			{
				"type": "unocc",
				"energy": 0.00964,
				"method": "rhf"
			},
			{
				"type": "unocc",
				"energy": 0.05882,
				"method": "rhf"
			},
			{
				"type": "unocc",
				"energy": 0.06426,
				"method": "rhf"
			}
		],
		"cosmo_sigma_profile": { 
			"-0.025": 0.0,
			"-0.024": 0.0,
			"-0.023": 0.0,
			"-0.022": 0.0,
			"-0.021": 0.0,
			"-0.02": 0.0,
			"-0.019": 0.0,
			"-0.018": 0.0,
			"-0.017": 0.0,
			"-0.016": 0.0,
			"-0.015": 0.476971097855,
			"-0.014": 1.32080800085,
			"-0.013": 3.67161291936,
			"-0.012": 5.20834081504,
			"-0.011": 5.16603794863,
			"-0.01": 4.61667447215,
			"-0.009": 5.48270791621,
			"-0.008": 5.62386765426,
			"-0.007": 8.3616373392,
			"-0.006": 10.3094778065,
			"-0.005": 12.1657818249,
			"-0.004": 12.020279285,
			"-0.003": 20.5388732897,
			"-0.002": 27.1748094216,
			"-0.001": 26.1585630518,
			"0.0": 26.6078910365,
			"0.001": 25.8978489807,
			"0.002": 18.1981442182,
			"0.003": 20.2383855389,
			"0.004": 14.7904626887,
			"0.005": 6.07600872136,
			"0.006": 6.37309690927,
			"0.007": 5.48287132255,
			"0.008": 4.89542282703,
			"0.009": 6.48025885746,
			"0.01": 9.55767599295,
			"0.011": 8.42478026712,
			"0.012": 5.2550221207,
			"0.013": 4.66277414922,
			"0.014": 0.282694469349,
			"0.015": 0.0,
			"0.016": 0.0,
			"0.017": 0.0,
			"0.018": 0.0,
			"0.019": 0.0,
			"0.02": 0.0,
			"0.021": 0.0,
			"0.022": 0.0,
			"0.023": 0.0,
			"0.024": 0.0,
			"0.025": 0.0
		}
	}
}
