{
	 "smiles": "CC1=C(C=C(C=C1)C(O)=O)S(=O)(=O)NC1CCCC1", 
	 "Tm": 459.15, 
	 "num_atms": 36, 
	 "gaussian": { 
		 "optdone": 1, 
		 "sigma_profile": "yes", 
		 "theory": "DFT", 
		 "functional": "B3LYP", 
		 "basiset": "6-31G**", 
		 "properties": { 
			 "R2extent": 6611.4573, 
			 "electric_dipole_moment_norm": 2.71357064032, 
			 "electric_quadrupole_moment_norm": 17.9461589918, 
			 "total_energy": -1259.42608797, 
			 "HOMO_LUMO_gap": 0.20317, 
			 "cosmo_polarized_energy": -17.3, 
			 "cosmo_cavitation_energy": 39.75, 
			 "cosmo_dispersion_energy": -28.1, 
			 "cosmo_repulsion_energy": 2.12, 
			 "cosmo_total_nonelectrostatic_energy": 13.77, 
			 "SMD_solvation_energy": 6.58 
		},
		"coords": [
			{
				"x": -1.3582926812,
				"y": 1.5909641666,
				"z": 2.9280448457,
				"element": "C" 
			},
			{
				"x": -0.7729713515,
				"y": 0.21671342,
				"z": 2.7200648476,
				"element": "C" 
			},
			{
				"x": -0.5500507997,
				"y": -0.337338564,
				"z": 1.4395302559,
				"element": "C" 
			},
			{
				"x": -0.0182141424,
				"y": -1.6130943989,
				"z": 1.2759020646,
				"element": "C" 
			},
			{
				"x": 0.3228264905,
				"y": -2.3749058896,
				"z": 2.4002875959,
				"element": "C" 
			},
			{
				"x": 0.1155283949,
				"y": -1.8463143057,
				"z": 3.677665126,
				"element": "C" 
			},
			{
				"x": -0.425943844,
				"y": -0.573366485,
				"z": 3.8246541514,
				"element": "C" 
			},
			{
				"x": 0.9010012996,
				"y": -3.7385414599,
				"z": 2.2843327468,
				"element": "C" 
			},
			{
				"x": 1.0667851086,
				"y": -4.1387308588,
				"z": 0.9982996967,
				"element": "O" 
			},
			{
				"x": 1.2051955088,
				"y": -4.4442047849,
				"z": 3.2254366991,
				"element": "O" 
			},
			{
				"x": -0.9878396474,
				"y": 0.6453192018,
				"z": -0.0110013669,
				"element": "S" 
			},
			{
				"x": -0.1623989211,
				"y": 1.8603320669,
				"z": 0.0261999884,
				"element": "O" 
			},
			{
				"x": -2.452510028,
				"y": 0.7369562371,
				"z": -0.0822920851,
				"element": "O" 
			},
			{
				"x": -0.5171877411,
				"y": -0.3167614492,
				"z": -1.305714663,
				"element": "N" 
			},
			{
				"x": 0.6936696735,
				"y": 0.0202477034,
				"z": -2.0712809712,
				"element": "C" 
			},
			{
				"x": 1.1974178908,
				"y": -1.178592333,
				"z": -2.8946444034,
				"element": "C" 
			},
			{
				"x": 2.1757768525,
				"y": -0.5550097201,
				"z": -3.9177896877,
				"element": "C" 
			},
			{
				"x": 1.7952260168,
				"y": 0.9582630303,
				"z": -4.0131521598,
				"element": "C" 
			},
			{
				"x": 0.5489922298,
				"y": 1.1349465455,
				"z": -3.122578225,
				"element": "C" 
			},
			{
				"x": -0.7040628793,
				"y": 2.3601592212,
				"z": 2.5072182814,
				"element": "H" 
			},
			{
				"x": -1.5001640212,
				"y": 1.7904253535,
				"z": 3.9924248771,
				"element": "H" 
			},
			{
				"x": -2.3238391416,
				"y": 1.6849509211,
				"z": 2.4216977935,
				"element": "H" 
			},
			{
				"x": 0.1248101908,
				"y": -2.0112756941,
				"z": 0.2803991728,
				"element": "H" 
			},
			{
				"x": 0.3819495863,
				"y": -2.4465985085,
				"z": 4.5410295557,
				"element": "H" 
			},
			{
				"x": -0.5883221919,
				"y": -0.1724312698,
				"z": 4.8209699349,
				"element": "H" 
			},
			{
				"x": 1.4425507067,
				"y": -5.0330211921,
				"z": 1.0473802896,
				"element": "H" 
			},
			{
				"x": -1.3422000662,
				"y": -0.5016680441,
				"z": -1.8713134867,
				"element": "H" 
			},
			{
				"x": 1.4557910679,
				"y": 0.311432866,
				"z": -1.3411001782,
				"element": "H" 
			},
			{
				"x": 0.3428801891,
				"y": -1.6352068933,
				"z": -3.4112327502,
				"element": "H" 
			},
			{
				"x": 1.6506647884,
				"y": -1.9562314478,
				"z": -2.2731594317,
				"element": "H" 
			},
			{
				"x": 2.1089589329,
				"y": -1.057393473,
				"z": -4.8869302239,
				"element": "H" 
			},
			{
				"x": 3.2103234087,
				"y": -0.6672811191,
				"z": -3.5786375748,
				"element": "H" 
			},
			{
				"x": 1.6101441272,
				"y": 1.2762079412,
				"z": -5.0429710716,
				"element": "H" 
			},
			{
				"x": 2.616486337,
				"y": 1.5770120794,
				"z": -3.6368722481,
				"element": "H" 
			},
			{
				"x": -0.3673357362,
				"y": 0.9547270367,
				"z": -3.7017761622,
				"element": "H" 
			},
			{
				"x": 0.4648543922,
				"y": 2.1246101001,
				"z": -2.6682912339,
				"element": "H" 
			}
		],
		 "valence_orbital": [ 
			{
				"type": "occ",
				"energy": -0.30311,
				"method": "rhf"
			},
			{
				"type": "occ",
				"energy": -0.28329,
				"method": "rhf"
			},
			{
				"type": "occ",
				"energy": -0.27161,
				"method": "rhf"
			},
			{
				"type": "occ",
				"energy": -0.26753,
				"method": "rhf"
			},
			{
				"type": "occ",
				"energy": -0.26275,
				"method": "rhf"
			},
			{
				"type": "unocc",
				"energy": -0.05958,
				"method": "rhf"
			},
			{
				"type": "unocc",
				"energy": -0.03101,
				"method": "rhf"
			},
			{
				"type": "unocc",
				"energy": 0.03735,
				"method": "rhf"
			},
			{
				"type": "unocc",
				"energy": 0.05394,
				"method": "rhf"
			},
			{
				"type": "unocc",
				"energy": 0.06772,
				"method": "rhf"
			}
		],
		"cosmo_sigma_profile": { 
			"-0.025": 0.0,
			"-0.024": 0.0,
			"-0.023": 0.0,
			"-0.022": 0.0,
			"-0.021": 0.0,
			"-0.02": 0.0,
			"-0.019": 0.240864792088,
			"-0.018": 0.753723068687,
			"-0.017": 1.12582313771,
			"-0.016": 0.804217470605,
			"-0.015": 0.373397808597,
			"-0.014": 1.26935137827,
			"-0.013": 1.58887434733,
			"-0.012": 1.61575891724,
			"-0.011": 1.58622893067,
			"-0.01": 1.92194881819,
			"-0.009": 1.93272974044,
			"-0.008": 2.30894459663,
			"-0.007": 6.83675931388,
			"-0.006": 7.58178316638,
			"-0.005": 10.4801751489,
			"-0.004": 13.8322277652,
			"-0.003": 26.9774331437,
			"-0.002": 38.8182517217,
			"-0.001": 43.5848926982,
			"0.0": 32.6109355777,
			"0.001": 32.2919665925,
			"0.002": 16.2615948816,
			"0.003": 7.71927549875,
			"0.004": 6.18509268975,
			"0.005": 6.45139686353,
			"0.006": 6.46458814666,
			"0.007": 4.80044859743,
			"0.008": 4.68489777643,
			"0.009": 5.81962750913,
			"0.01": 8.83716076631,
			"0.011": 12.3731784798,
			"0.012": 4.69082234193,
			"0.013": 0.0,
			"0.014": 0.0,
			"0.015": 0.0,
			"0.016": 0.0,
			"0.017": 0.0,
			"0.018": 0.0,
			"0.019": 0.0,
			"0.02": 0.0,
			"0.021": 0.0,
			"0.022": 0.0,
			"0.023": 0.0,
			"0.024": 0.0,
			"0.025": 0.0
		}
	}
}
