{
	 "smiles": "CCNC(=O)CC(O)=O", 
	 "Tm": 325.15, 
	 "num_atms": 18, 
	 "gaussian": { 
		 "optdone": 1, 
		 "sigma_profile": "yes", 
		 "theory": "DFT", 
		 "functional": "B3LYP", 
		 "basiset": "6-31G**", 
		 "properties": { 
			 "R2extent": 1730.6579, 
			 "electric_dipole_moment_norm": 4.58879156315, 
			 "electric_quadrupole_moment_norm": 6.35721518827, 
			 "total_energy": -476.411229354, 
			 "HOMO_LUMO_gap": 0.25814, 
			 "cosmo_polarized_energy": -18.34, 
			 "cosmo_cavitation_energy": 22.63, 
			 "cosmo_dispersion_energy": -16.19, 
			 "cosmo_repulsion_energy": 1.4, 
			 "cosmo_total_nonelectrostatic_energy": 7.83, 
			 "SMD_solvation_energy": 5.51 
		},
		"coords": [
			{
				"x": 2.7090826828,
				"y": 1.1309140715,
				"z": -1.8746386689,
				"element": "C" 
			},
			{
				"x": 1.1989331227,
				"y": 1.3747774838,
				"z": -1.8180583441,
				"element": "C" 
			},
			{
				"x": 0.6581339771,
				"y": 1.2907049848,
				"z": -0.4660477884,
				"element": "N" 
			},
			{
				"x": -0.0842784824,
				"y": 0.2287590642,
				"z": -0.037835907,
				"element": "C" 
			},
			{
				"x": -0.3977418721,
				"y": -0.7133998966,
				"z": -0.7521042066,
				"element": "O" 
			},
			{
				"x": -0.4917609461,
				"y": 0.2755015364,
				"z": 1.4410122632,
				"element": "C" 
			},
			{
				"x": -1.9416825169,
				"y": -0.130788006,
				"z": 1.6219171495,
				"element": "C" 
			},
			{
				"x": -2.7720619601,
				"y": 0.7368273184,
				"z": 0.9960973033,
				"element": "O" 
			},
			{
				"x": -2.3340776294,
				"y": -1.0806599249,
				"z": 2.2563855778,
				"element": "O" 
			},
			{
				"x": 2.9525993216,
				"y": 0.1309346161,
				"z": -1.504195867,
				"element": "H" 
			},
			{
				"x": 3.0694889732,
				"y": 1.2125738654,
				"z": -2.9053712486,
				"element": "H" 
			},
			{
				"x": 3.2569817527,
				"y": 1.8627044115,
				"z": -1.2702910337,
				"element": "H" 
			},
			{
				"x": 0.6658119185,
				"y": 0.6218864456,
				"z": -2.4021088777,
				"element": "H" 
			},
			{
				"x": 0.9538414454,
				"y": 2.3589972619,
				"z": -2.235070239,
				"element": "H" 
			},
			{
				"x": 0.8915525273,
				"y": 2.0192981209,
				"z": 0.191575048,
				"element": "H" 
			},
			{
				"x": -0.3491714056,
				"y": 1.271255835,
				"z": 1.8748680222,
				"element": "H" 
			},
			{
				"x": 0.1197599117,
				"y": -0.4404139334,
				"z": 1.9946411818,
				"element": "H" 
			},
			{
				"x": -3.6723108205,
				"y": 0.3971267453,
				"z": 1.1329256353,
				"element": "H" 
			}
		],
		 "valence_orbital": [ 
			{
				"type": "occ",
				"energy": -0.35775,
				"method": "rhf"
			},
			{
				"type": "occ",
				"energy": -0.31919,
				"method": "rhf"
			},
			{
				"type": "occ",
				"energy": -0.27684,
				"method": "rhf"
			},
			{
				"type": "occ",
				"energy": -0.25812,
				"method": "rhf"
			},
			{
				"type": "occ",
				"energy": -0.25417,
				"method": "rhf"
			},
			{
				"type": "unocc",
				"energy": 0.00397,
				"method": "rhf"
			},
			{
				"type": "unocc",
				"energy": 0.02392,
				"method": "rhf"
			},
			{
				"type": "unocc",
				"energy": 0.0679,
				"method": "rhf"
			},
			{
				"type": "unocc",
				"energy": 0.08075,
				"method": "rhf"
			},
			{
				"type": "unocc",
				"energy": 0.10967,
				"method": "rhf"
			}
		],
		"cosmo_sigma_profile": { 
			"-0.025": 0.0,
			"-0.024": 0.0,
			"-0.023": 0.0,
			"-0.022": 0.0,
			"-0.021": 0.0,
			"-0.02": 0.0,
			"-0.019": 0.0978788972565,
			"-0.018": 1.00257942118,
			"-0.017": 0.82772517891,
			"-0.016": 0.76031791459,
			"-0.015": 1.06589133479,
			"-0.014": 2.40015301951,
			"-0.013": 2.05632196436,
			"-0.012": 2.65026785321,
			"-0.011": 2.42303982932,
			"-0.01": 2.6427844873,
			"-0.009": 1.91889631838,
			"-0.008": 3.79639477077,
			"-0.007": 5.53892851309,
			"-0.006": 5.79180869637,
			"-0.005": 7.39128886653,
			"-0.004": 12.2027128722,
			"-0.003": 14.3493862263,
			"-0.002": 14.3669713962,
			"-0.001": 12.2479613771,
			"0.0": 12.8188686774,
			"0.001": 10.4151687424,
			"0.002": 4.8011561457,
			"0.003": 5.08548723276,
			"0.004": 3.49880600903,
			"0.005": 3.76621689413,
			"0.006": 4.66942753336,
			"0.007": 5.67029549966,
			"0.008": 5.58168295729,
			"0.009": 3.96486676181,
			"0.01": 3.52346795767,
			"0.011": 6.5539019403,
			"0.012": 5.32164088103,
			"0.013": 4.55689116134,
			"0.014": 3.48112596047,
			"0.015": 0.0292058562051,
			"0.016": 0.0,
			"0.017": 0.0,
			"0.018": 0.0,
			"0.019": 0.0,
			"0.02": 0.0,
			"0.021": 0.0,
			"0.022": 0.0,
			"0.023": 0.0,
			"0.024": 0.0,
			"0.025": 0.0
		}
	}
}
