{
	 "smiles": "CN1C(=O)CCC2=C1C=CC(Br)=C2", 
	 "Tm": 353.15, 
	 "num_atms": 23, 
	 "gaussian": { 
		 "optdone": 1, 
		 "sigma_profile": "yes", 
		 "theory": "DFT", 
		 "functional": "B3LYP", 
		 "basiset": "6-31G**", 
		 "properties": { 
			 "R2extent": 6823.9728, 
			 "electric_dipole_moment_norm": 0.705730975656, 
			 "electric_quadrupole_moment_norm": 15.3575589177, 
			 "total_energy": -3088.498408, 
			 "HOMO_LUMO_gap": 0.19518, 
			 "cosmo_polarized_energy": -9.62, 
			 "cosmo_cavitation_energy": 27.94, 
			 "cosmo_dispersion_energy": -21.26, 
			 "cosmo_repulsion_energy": 1.67, 
			 "cosmo_total_nonelectrostatic_energy": 8.35, 
			 "SMD_solvation_energy": 3.78 
		},
		"coords": [
			{
				"x": -0.0295647519,
				"y": 1.1279707921,
				"z": -1.4768602553,
				"element": "C" 
			},
			{
				"x": -0.0080709917,
				"y": 0.3227375073,
				"z": -0.2578333583,
				"element": "N" 
			},
			{
				"x": -0.3584002697,
				"y": -1.0218106721,
				"z": -0.3687584054,
				"element": "C" 
			},
			{
				"x": -0.7182413183,
				"y": -1.5106315649,
				"z": -1.4295494669,
				"element": "O" 
			},
			{
				"x": -0.2358422361,
				"y": -1.8419354687,
				"z": 0.905016635,
				"element": "C" 
			},
			{
				"x": -0.6021738758,
				"y": -1.0314872156,
				"z": 2.1500794853,
				"element": "C" 
			},
			{
				"x": 0.1989810167,
				"y": 0.245682554,
				"z": 2.1764337886,
				"element": "C" 
			},
			{
				"x": 0.4665732241,
				"y": 0.8893089682,
				"z": 0.949013119,
				"element": "C" 
			},
			{
				"x": 1.1799815329,
				"y": 2.0963352627,
				"z": 0.9494650734,
				"element": "C" 
			},
			{
				"x": 1.6294503945,
				"y": 2.6590637501,
				"z": 2.1444169113,
				"element": "C" 
			},
			{
				"x": 1.3694018361,
				"y": 2.0104003577,
				"z": 3.3460603953,
				"element": "C" 
			},
			{
				"x": 1.9866402529,
				"y": 2.7664654506,
				"z": 4.9892573259,
				"element": "Br" 
			},
			{
				"x": 0.6608369365,
				"y": 0.8096431765,
				"z": 3.3634400032,
				"element": "C" 
			},
			{
				"x": 0.9834788146,
				"y": 1.3194668909,
				"z": -1.8498290264,
				"element": "H" 
			},
			{
				"x": -0.5779106113,
				"y": 0.56475641,
				"z": -2.2292562927,
				"element": "H" 
			},
			{
				"x": -0.5258436716,
				"y": 2.0836763904,
				"z": -1.2866828908,
				"element": "H" 
			},
			{
				"x": 0.8042404697,
				"y": -2.1883899857,
				"z": 0.9769012389,
				"element": "H" 
			},
			{
				"x": -0.8661913094,
				"y": -2.7239481365,
				"z": 0.7783001702,
				"element": "H" 
			},
			{
				"x": -0.4321424726,
				"y": -1.6149236718,
				"z": 3.0599483799,
				"element": "H" 
			},
			{
				"x": -1.6752269527,
				"y": -0.7919880432,
				"z": 2.1245548594,
				"element": "H" 
			},
			{
				"x": 1.4008054987,
				"y": 2.6057112731,
				"z": 0.0195469962,
				"element": "H" 
			},
			{
				"x": 2.1826036897,
				"y": 3.5910674727,
				"z": 2.1320223076,
				"element": "H" 
			},
			{
				"x": 0.4595147947,
				"y": 0.3121285021,
				"z": 4.3064130065,
				"element": "H" 
			}
		],
		 "valence_orbital": [ 
			{
				"type": "occ",
				"energy": -0.28823,
				"method": "rhf"
			},
			{
				"type": "occ",
				"energy": -0.28085,
				"method": "rhf"
			},
			{
				"type": "occ",
				"energy": -0.26377,
				"method": "rhf"
			},
			{
				"type": "occ",
				"energy": -0.25827,
				"method": "rhf"
			},
			{
				"type": "occ",
				"energy": -0.21833,
				"method": "rhf"
			},
			{
				"type": "unocc",
				"energy": -0.02315,
				"method": "rhf"
			},
			{
				"type": "unocc",
				"energy": -0.01925,
				"method": "rhf"
			},
			{
				"type": "unocc",
				"energy": 0.00628,
				"method": "rhf"
			},
			{
				"type": "unocc",
				"energy": 0.02473,
				"method": "rhf"
			},
			{
				"type": "unocc",
				"energy": 0.09521,
				"method": "rhf"
			}
		],
		"cosmo_sigma_profile": { 
			"-0.025": 0.0,
			"-0.024": 0.0,
			"-0.023": 0.0,
			"-0.022": 0.0,
			"-0.021": 0.0,
			"-0.02": 0.0,
			"-0.019": 0.0,
			"-0.018": 0.0,
			"-0.017": 0.0,
			"-0.016": 0.0,
			"-0.015": 0.0,
			"-0.014": 0.0,
			"-0.013": 0.0,
			"-0.012": 0.0,
			"-0.011": 0.0,
			"-0.01": 0.0,
			"-0.009": 0.0,
			"-0.008": 0.0283881540429,
			"-0.007": 4.65956089392,
			"-0.006": 12.9219021639,
			"-0.005": 20.9509006871,
			"-0.004": 21.3176539617,
			"-0.003": 21.788252972,
			"-0.002": 22.1273415603,
			"-0.001": 15.4655865076,
			"0.0": 12.5121185064,
			"0.001": 12.3106056865,
			"0.002": 13.8071194951,
			"0.003": 20.7009680297,
			"0.004": 17.9778079325,
			"0.005": 10.5211804474,
			"0.006": 1.17305011417,
			"0.007": 1.99071149658,
			"0.008": 1.77653917119,
			"0.009": 1.09493930862,
			"0.01": 1.37560258625,
			"0.011": 1.58881325589,
			"0.012": 2.85862285572,
			"0.013": 4.71049954982,
			"0.014": 1.60671309387,
			"0.015": 0.165795715767,
			"0.016": 0.0,
			"0.017": 0.0,
			"0.018": 0.0,
			"0.019": 0.0,
			"0.02": 0.0,
			"0.021": 0.0,
			"0.022": 0.0,
			"0.023": 0.0,
			"0.024": 0.0,
			"0.025": 0.0
		}
	}
}
