{
	 "smiles": "NC(=O)C1=NN(C=C1)C1=C(N)C=CC=C1", 
	 "Tm": 435.15, 
	 "num_atms": 25, 
	 "gaussian": { 
		 "optdone": 1, 
		 "sigma_profile": "yes", 
		 "theory": "DFT", 
		 "functional": "B3LYP", 
		 "basiset": "6-31G**", 
		 "properties": { 
			 "R2extent": 3656.1857, 
			 "electric_dipole_moment_norm": 4.15089861837, 
			 "electric_quadrupole_moment_norm": 16.8298947516, 
			 "total_energy": -681.325630759, 
			 "HOMO_LUMO_gap": 0.17422, 
			 "cosmo_polarized_energy": -16.68, 
			 "cosmo_cavitation_energy": 29.64, 
			 "cosmo_dispersion_energy": -21.64, 
			 "cosmo_repulsion_energy": 1.69, 
			 "cosmo_total_nonelectrostatic_energy": 9.69, 
			 "SMD_solvation_energy": 5.66 
		},
		"coords": [
			{
				"x": 2.9858891607,
				"y": 0.5148105187,
				"z": 2.3922174242,
				"element": "N" 
			},
			{
				"x": 2.8807292013,
				"y": 1.3724576945,
				"z": 1.3342726988,
				"element": "C" 
			},
			{
				"x": 3.6849058199,
				"y": 2.2674855996,
				"z": 1.1029144084,
				"element": "O" 
			},
			{
				"x": 1.7045165544,
				"y": 1.135683532,
				"z": 0.4515243033,
				"element": "C" 
			},
			{
				"x": 0.8420675791,
				"y": 0.1346865558,
				"z": 0.6671831661,
				"element": "N" 
			},
			{
				"x": -0.0797843169,
				"y": 0.2448060067,
				"z": -0.3175260193,
				"element": "N" 
			},
			{
				"x": 0.1927075565,
				"y": 1.3004394933,
				"z": -1.1447369082,
				"element": "C" 
			},
			{
				"x": 1.338642035,
				"y": 1.9029805421,
				"z": -0.6744249567,
				"element": "C" 
			},
			{
				"x": -1.1956992817,
				"y": -0.6425786762,
				"z": -0.4013522802,
				"element": "C" 
			},
			{
				"x": -1.0133055862,
				"y": -2.038395465,
				"z": -0.2494547511,
				"element": "C" 
			},
			{
				"x": 0.2380405737,
				"y": -2.5885194738,
				"z": -0.0361743139,
				"element": "N" 
			},
			{
				"x": -2.1512252856,
				"y": -2.8550879098,
				"z": -0.3919438873,
				"element": "C" 
			},
			{
				"x": -3.4017128707,
				"y": -2.3181853623,
				"z": -0.6774630742,
				"element": "C" 
			},
			{
				"x": -3.5673378506,
				"y": -0.9382842588,
				"z": -0.8181906019,
				"element": "C" 
			},
			{
				"x": -2.4586526856,
				"y": -0.1091686391,
				"z": -0.668341516,
				"element": "C" 
			},
			{
				"x": 3.7011927616,
				"y": 0.7023857866,
				"z": 3.0771456954,
				"element": "H" 
			},
			{
				"x": 2.2208222842,
				"y": -0.100055915,
				"z": 2.6223605503,
				"element": "H" 
			},
			{
				"x": -0.4351199907,
				"y": 1.5129450434,
				"z": -1.9964454963,
				"element": "H" 
			},
			{
				"x": 1.8597117863,
				"y": 2.760017084,
				"z": -1.0701252439,
				"element": "H" 
			},
			{
				"x": 0.9015765357,
				"y": -1.9791146402,
				"z": 0.4252867607,
				"element": "H" 
			},
			{
				"x": 0.2413358144,
				"y": -3.539958735,
				"z": 0.3008988951,
				"element": "H" 
			},
			{
				"x": -2.0327109007,
				"y": -3.9304437634,
				"z": -0.2849228881,
				"element": "H" 
			},
			{
				"x": -4.2540347734,
				"y": -2.9832852505,
				"z": -0.7820322428,
				"element": "H" 
			},
			{
				"x": -4.5431414977,
				"y": -0.5124931511,
				"z": -1.0257610086,
				"element": "H" 
			},
			{
				"x": -2.563412623,
				"y": 0.9688733836,
				"z": -0.7428087139,
				"element": "H" 
			}
		],
		 "valence_orbital": [ 
			{
				"type": "occ",
				"energy": -0.26564,
				"method": "rhf"
			},
			{
				"type": "occ",
				"energy": -0.2582,
				"method": "rhf"
			},
			{
				"type": "occ",
				"energy": -0.24829,
				"method": "rhf"
			},
			{
				"type": "occ",
				"energy": -0.24267,
				"method": "rhf"
			},
			{
				"type": "occ",
				"energy": -0.20758,
				"method": "rhf"
			},
			{
				"type": "unocc",
				"energy": -0.03336,
				"method": "rhf"
			},
			{
				"type": "unocc",
				"energy": -0.00372,
				"method": "rhf"
			},
			{
				"type": "unocc",
				"energy": 0.00718,
				"method": "rhf"
			},
			{
				"type": "unocc",
				"energy": 0.03175,
				"method": "rhf"
			},
			{
				"type": "unocc",
				"energy": 0.08409,
				"method": "rhf"
			}
		],
		"cosmo_sigma_profile": { 
			"-0.025": 0.0,
			"-0.024": 0.0,
			"-0.023": 0.0,
			"-0.022": 0.0,
			"-0.021": 0.0,
			"-0.02": 0.0,
			"-0.019": 0.0,
			"-0.018": 0.0,
			"-0.017": 0.0,
			"-0.016": 0.0,
			"-0.015": 0.0313629911822,
			"-0.014": 0.877988986357,
			"-0.013": 2.26735049186,
			"-0.012": 3.17662591285,
			"-0.011": 3.30784443331,
			"-0.01": 4.29952600404,
			"-0.009": 4.50450571184,
			"-0.008": 6.45154773633,
			"-0.007": 8.85433916095,
			"-0.006": 11.2092404913,
			"-0.005": 12.3276145357,
			"-0.004": 14.3663760837,
			"-0.003": 13.0957521072,
			"-0.002": 11.7040806353,
			"-0.001": 11.6790913407,
			"0.0": 13.6392817517,
			"0.001": 16.0906906294,
			"0.002": 17.9996085141,
			"0.003": 17.0762473472,
			"0.004": 16.0137452591,
			"0.005": 12.8039411123,
			"0.006": 8.79822172653,
			"0.007": 4.03854591836,
			"0.008": 2.43154328165,
			"0.009": 2.19675894054,
			"0.01": 2.66496525378,
			"0.011": 2.67190490564,
			"0.012": 1.89073475594,
			"0.013": 5.09605013547,
			"0.014": 4.94503131379,
			"0.015": 0.440370473892,
			"0.016": 0.0,
			"0.017": 0.0,
			"0.018": 0.0,
			"0.019": 0.0,
			"0.02": 0.0,
			"0.021": 0.0,
			"0.022": 0.0,
			"0.023": 0.0,
			"0.024": 0.0,
			"0.025": 0.0
		}
	}
}
