{
	 "smiles": "OCC(F)(F)C(F)(F)C(F)(F)C(F)(F)C(F)(F)C(F)(F)C(F)(F)F", 
	 "Tm": 318.15, 
	 "num_atms": 27, 
	 "gaussian": { 
		 "optdone": 1, 
		 "sigma_profile": "yes", 
		 "theory": "DFT", 
		 "functional": "B3LYP", 
		 "basiset": "6-31G**", 
		 "properties": { 
			 "R2extent": 6990.1942, 
			 "electric_dipole_moment_norm": 1.65724649343, 
			 "electric_quadrupole_moment_norm": 7.21811169836, 
			 "total_energy": -1879.41867355, 
			 "HOMO_LUMO_gap": 0.31366, 
			 "cosmo_polarized_energy": -6.63, 
			 "cosmo_cavitation_energy": 35.37, 
			 "cosmo_dispersion_energy": -23.63, 
			 "cosmo_repulsion_energy": 1.53, 
			 "cosmo_total_nonelectrostatic_energy": 13.27, 
			 "SMD_solvation_energy": 10.55 
		},
		"coords": [
			{
				"x": 1.2951308016,
				"y": 1.763621695,
				"z": -4.2765488648,
				"element": "O" 
			},
			{
				"x": 1.9850652376,
				"y": 1.364784423,
				"z": -3.118452077,
				"element": "C" 
			},
			{
				"x": 1.0044328011,
				"y": 0.8635420844,
				"z": -2.0562985588,
				"element": "C" 
			},
			{
				"x": 0.2671942712,
				"y": -0.1607590242,
				"z": -2.5931591083,
				"element": "F" 
			},
			{
				"x": 0.1426286766,
				"y": 1.8539124393,
				"z": -1.7058495367,
				"element": "F" 
			},
			{
				"x": 1.6894388536,
				"y": 0.3466469344,
				"z": -0.7740118415,
				"element": "C" 
			},
			{
				"x": 2.6297252189,
				"y": -0.5672611094,
				"z": -1.1436528595,
				"element": "F" 
			},
			{
				"x": 2.3220672997,
				"y": 1.3905964572,
				"z": -0.1854154204,
				"element": "F" 
			},
			{
				"x": 0.8165347999,
				"y": -0.3790734708,
				"z": 0.2974563119,
				"element": "C" 
			},
			{
				"x": 0.372834429,
				"y": -1.5364732828,
				"z": -0.2416871073,
				"element": "F" 
			},
			{
				"x": 1.6529151529,
				"y": -0.6656200174,
				"z": 1.3252754089,
				"element": "F" 
			},
			{
				"x": -0.4015319397,
				"y": 0.4047166954,
				"z": 0.8569181299,
				"element": "C" 
			},
			{
				"x": -0.0237150079,
				"y": 1.6856625271,
				"z": 1.0787076422,
				"element": "F" 
			},
			{
				"x": -1.3899432661,
				"y": 0.3883597048,
				"z": -0.0678120919,
				"element": "F" 
			},
			{
				"x": -1.0073936688,
				"y": -0.0871782136,
				"z": 2.2085935633,
				"element": "C" 
			},
			{
				"x": -2.0610585589,
				"y": 0.7266359142,
				"z": 2.4576580706,
				"element": "F" 
			},
			{
				"x": -0.0805702339,
				"y": 0.0977189501,
				"z": 3.1748159182,
				"element": "F" 
			},
			{
				"x": -1.5048421984,
				"y": -1.5533658787,
				"z": 2.3511019114,
				"element": "C" 
			},
			{
				"x": -0.4551902284,
				"y": -2.3899662515,
				"z": 2.1792921104,
				"element": "F" 
			},
			{
				"x": -1.9533599099,
				"y": -1.669122558,
				"z": 3.6230471791,
				"element": "F" 
			},
			{
				"x": -2.654860251,
				"y": -2.0288952073,
				"z": 1.4271800429,
				"element": "C" 
			},
			{
				"x": -2.2394425998,
				"y": -2.1295911125,
				"z": 0.1595769127,
				"element": "F" 
			},
			{
				"x": -3.6892673526,
				"y": -1.1828810626,
				"z": 1.4848118921,
				"element": "F" 
			},
			{
				"x": -3.057708717,
				"y": -3.2361651854,
				"z": 1.8420244015,
				"element": "F" 
			},
			{
				"x": 0.8152246241,
				"y": 0.9940384834,
				"z": -4.6125612585,
				"element": "H" 
			},
			{
				"x": 2.5074872971,
				"y": 2.2397772788,
				"z": -2.7253714293,
				"element": "H" 
			},
			{
				"x": 2.7222044691,
				"y": 0.573538787,
				"z": -3.3076393411,
				"element": "H" 
			}
		],
		 "valence_orbital": [ 
			{
				"type": "occ",
				"energy": -0.38502,
				"method": "rhf"
			},
			{
				"type": "occ",
				"energy": -0.37477,
				"method": "rhf"
			},
			{
				"type": "occ",
				"energy": -0.35881,
				"method": "rhf"
			},
			{
				"type": "occ",
				"energy": -0.34751,
				"method": "rhf"
			},
			{
				"type": "occ",
				"energy": -0.29936,
				"method": "rhf"
			},
			{
				"type": "unocc",
				"energy": 0.0143,
				"method": "rhf"
			},
			{
				"type": "unocc",
				"energy": 0.01596,
				"method": "rhf"
			},
			{
				"type": "unocc",
				"energy": 0.04064,
				"method": "rhf"
			},
			{
				"type": "unocc",
				"energy": 0.05053,
				"method": "rhf"
			},
			{
				"type": "unocc",
				"energy": 0.07038,
				"method": "rhf"
			}
		],
		"cosmo_sigma_profile": { 
			"-0.025": 0.0,
			"-0.024": 0.0,
			"-0.023": 0.0,
			"-0.022": 0.0,
			"-0.021": 0.0,
			"-0.02": 0.0,
			"-0.019": 0.0,
			"-0.018": 0.0,
			"-0.017": 0.00983203452853,
			"-0.016": 0.670987310025,
			"-0.015": 0.726402019019,
			"-0.014": 1.10017077795,
			"-0.013": 0.666676682046,
			"-0.012": 0.632648912889,
			"-0.011": 1.04534819305,
			"-0.01": 1.50657122825,
			"-0.009": 0.894681782728,
			"-0.008": 2.4935308269,
			"-0.007": 5.44142610664,
			"-0.006": 6.08109713766,
			"-0.005": 5.97177555288,
			"-0.004": 4.80652504017,
			"-0.003": 7.02149922854,
			"-0.002": 11.2997424858,
			"-0.001": 25.5392234532,
			"0.0": 54.0352109176,
			"0.001": 101.629184253,
			"0.002": 29.8845558909,
			"0.003": 6.57909530966,
			"0.004": 1.91324920216,
			"0.005": 2.04285988195,
			"0.006": 1.10164702842,
			"0.007": 1.38538160012,
			"0.008": 1.20880811536,
			"0.009": 1.23689070976,
			"0.01": 1.72179595802,
			"0.011": 1.12336445516,
			"0.012": 2.32080148346,
			"0.013": 0.654809990649,
			"0.014": 0.0,
			"0.015": 0.0,
			"0.016": 0.0,
			"0.017": 0.0,
			"0.018": 0.0,
			"0.019": 0.0,
			"0.02": 0.0,
			"0.021": 0.0,
			"0.022": 0.0,
			"0.023": 0.0,
			"0.024": 0.0,
			"0.025": 0.0
		}
	}
}
