{
	 "smiles": "ClCC(=O)NC1CCCCNC1=O", 
	 "Tm": 470.15, 
	 "num_atms": 26, 
	 "gaussian": { 
		 "optdone": 1, 
		 "sigma_profile": "yes", 
		 "theory": "DFT", 
		 "functional": "B3LYP", 
		 "basiset": "6-31G**", 
		 "properties": { 
			 "R2extent": 3364.0565, 
			 "electric_dipole_moment_norm": 5.96003786817, 
			 "electric_quadrupole_moment_norm": 9.15859120717, 
			 "total_energy": -1032.85743994, 
			 "HOMO_LUMO_gap": 0.22537, 
			 "cosmo_polarized_energy": -17.61, 
			 "cosmo_cavitation_energy": 29.2, 
			 "cosmo_dispersion_energy": -21.19, 
			 "cosmo_repulsion_energy": 1.71, 
			 "cosmo_total_nonelectrostatic_energy": 9.72, 
			 "SMD_solvation_energy": 4.46 
		},
		"coords": [
			{
				"x": -2.3278220096,
				"y": -3.3151738296,
				"z": 1.1207999917,
				"element": "Cl" 
			},
			{
				"x": -1.0232880533,
				"y": -3.342554275,
				"z": -0.1490746239,
				"element": "C" 
			},
			{
				"x": -1.1162885015,
				"y": -2.1204859549,
				"z": -1.0624143513,
				"element": "C" 
			},
			{
				"x": -1.5373636141,
				"y": -2.2203589082,
				"z": -2.2054034108,
				"element": "O" 
			},
			{
				"x": -0.7100656261,
				"y": -0.9134576144,
				"z": -0.5505481095,
				"element": "N" 
			},
			{
				"x": -0.0427149335,
				"y": -0.6571323958,
				"z": 0.7254127944,
				"element": "C" 
			},
			{
				"x": -0.3580232277,
				"y": 0.7541389,
				"z": 1.2587162486,
				"element": "C" 
			},
			{
				"x": -0.0532511703,
				"y": 1.9478290931,
				"z": 0.3411137118,
				"element": "C" 
			},
			{
				"x": 1.4254518588,
				"y": 2.1470110306,
				"z": -0.0138674044,
				"element": "C" 
			},
			{
				"x": 2.0520206841,
				"y": 0.9844958862,
				"z": -0.7932470508,
				"element": "C" 
			},
			{
				"x": 2.3275321183,
				"y": -0.2056841528,
				"z": 0.0092611511,
				"element": "N" 
			},
			{
				"x": 1.4552593708,
				"y": -1.0315558093,
				"z": 0.656593566,
				"element": "C" 
			},
			{
				"x": 1.8407960462,
				"y": -2.0793997003,
				"z": 1.1708406871,
				"element": "O" 
			},
			{
				"x": -0.0694042906,
				"y": -3.4068975905,
				"z": 0.3770208271,
				"element": "H" 
			},
			{
				"x": -1.1977120767,
				"y": -4.2231550288,
				"z": -0.7626037674,
				"element": "H" 
			},
			{
				"x": -0.7906115573,
				"y": -0.1602359767,
				"z": -1.2206003164,
				"element": "H" 
			},
			{
				"x": -0.4411515636,
				"y": -1.3624044603,
				"z": 1.4560554554,
				"element": "H" 
			},
			{
				"x": 0.1844160182,
				"y": 0.8742751745,
				"z": 2.2046977453,
				"element": "H" 
			},
			{
				"x": -1.4253401175,
				"y": 0.7676730575,
				"z": 1.5063023138,
				"element": "H" 
			},
			{
				"x": -0.6389067598,
				"y": 1.8711537468,
				"z": -0.5863817228,
				"element": "H" 
			},
			{
				"x": -0.4229740543,
				"y": 2.8527648251,
				"z": 0.8370781668,
				"element": "H" 
			},
			{
				"x": 2.014461197,
				"y": 2.3164332453,
				"z": 0.8961887481,
				"element": "H" 
			},
			{
				"x": 1.5200007795,
				"y": 3.0518314038,
				"z": -0.6268251443,
				"element": "H" 
			},
			{
				"x": 3.0166145119,
				"y": 1.3035372114,
				"z": -1.1968370707,
				"element": "H" 
			},
			{
				"x": 1.4248454072,
				"y": 0.7315032058,
				"z": -1.6607323317,
				"element": "H" 
			},
			{
				"x": 3.2620195638,
				"y": -0.5916510836,
				"z": -0.0300461032,
				"element": "H" 
			}
		],
		 "valence_orbital": [ 
			{
				"type": "occ",
				"energy": -0.299,
				"method": "rhf"
			},
			{
				"type": "occ",
				"energy": -0.2823,
				"method": "rhf"
			},
			{
				"type": "occ",
				"energy": -0.26363,
				"method": "rhf"
			},
			{
				"type": "occ",
				"energy": -0.2553,
				"method": "rhf"
			},
			{
				"type": "occ",
				"energy": -0.24519,
				"method": "rhf"
			},
			{
				"type": "unocc",
				"energy": -0.01982,
				"method": "rhf"
			},
			{
				"type": "unocc",
				"energy": 0.00491,
				"method": "rhf"
			},
			{
				"type": "unocc",
				"energy": 0.05008,
				"method": "rhf"
			},
			{
				"type": "unocc",
				"energy": 0.06224,
				"method": "rhf"
			},
			{
				"type": "unocc",
				"energy": 0.07127,
				"method": "rhf"
			}
		],
		"cosmo_sigma_profile": { 
			"-0.025": 0.0,
			"-0.024": 0.0,
			"-0.023": 0.0,
			"-0.022": 0.0,
			"-0.021": 0.0,
			"-0.02": 0.0,
			"-0.019": 0.0,
			"-0.018": 0.0,
			"-0.017": 0.0,
			"-0.016": 0.0,
			"-0.015": 0.0,
			"-0.014": 0.469013630426,
			"-0.013": 1.23940963066,
			"-0.012": 3.35853688087,
			"-0.011": 2.06475673154,
			"-0.01": 1.94356611084,
			"-0.009": 2.45091197383,
			"-0.008": 4.70476483975,
			"-0.007": 4.36520276835,
			"-0.006": 7.58820204578,
			"-0.005": 13.8791558511,
			"-0.004": 20.2134419723,
			"-0.003": 26.6403838496,
			"-0.002": 24.7698890307,
			"-0.001": 19.9199298581,
			"0.0": 12.8939260207,
			"0.001": 8.40445073611,
			"0.002": 9.53110145697,
			"0.003": 10.5084242683,
			"0.004": 8.74142806758,
			"0.005": 9.72613369634,
			"0.006": 5.53793760076,
			"0.007": 2.88083173843,
			"0.008": 1.48741900147,
			"0.009": 1.45923730793,
			"0.01": 3.39138722384,
			"0.011": 3.50768998036,
			"0.012": 5.18700963281,
			"0.013": 9.31979807818,
			"0.014": 4.07089154921,
			"0.015": 0.209737420073,
			"0.016": 0.0,
			"0.017": 0.0,
			"0.018": 0.0,
			"0.019": 0.0,
			"0.02": 0.0,
			"0.021": 0.0,
			"0.022": 0.0,
			"0.023": 0.0,
			"0.024": 0.0,
			"0.025": 0.0
		}
	}
}
