{
	 "smiles": "NCC1=CC(=NC=C1)N1C=CC=N1", 
	 "Tm": 318.15, 
	 "num_atms": 23, 
	 "gaussian": { 
		 "optdone": 1, 
		 "sigma_profile": "yes", 
		 "theory": "DFT", 
		 "functional": "B3LYP", 
		 "basiset": "6-31G**", 
		 "properties": { 
			 "R2extent": 3589.6839, 
			 "electric_dipole_moment_norm": 2.60870876297, 
			 "electric_quadrupole_moment_norm": 16.2958078621, 
			 "total_energy": -567.952778411, 
			 "HOMO_LUMO_gap": 0.19999, 
			 "cosmo_polarized_energy": -17.73, 
			 "cosmo_cavitation_energy": 27.49, 
			 "cosmo_dispersion_energy": -20.0, 
			 "cosmo_repulsion_energy": 1.58, 
			 "cosmo_total_nonelectrostatic_energy": 9.08, 
			 "SMD_solvation_energy": 1.7 
		},
		"coords": [
			{
				"x": -4.3404924866,
				"y": 0.5946544872,
				"z": 0.1190854779,
				"element": "N" 
			},
			{
				"x": -3.1497651178,
				"y": 0.0442049247,
				"z": 0.7812010374,
				"element": "C" 
			},
			{
				"x": -2.1643561246,
				"y": -0.6525556805,
				"z": -0.1421935715,
				"element": "C" 
			},
			{
				"x": -1.0864020073,
				"y": 0.0383025342,
				"z": -0.6985946588,
				"element": "C" 
			},
			{
				"x": -0.2411404876,
				"y": -0.6325366054,
				"z": -1.5930454819,
				"element": "C" 
			},
			{
				"x": -0.414561809,
				"y": -1.8971661004,
				"z": -1.9697452427,
				"element": "N" 
			},
			{
				"x": -1.4596386856,
				"y": -2.5475141869,
				"z": -1.446477923,
				"element": "C" 
			},
			{
				"x": -2.346242004,
				"y": -1.9867073484,
				"z": -0.5301175221,
				"element": "C" 
			},
			{
				"x": 0.8780909261,
				"y": 0.0474207016,
				"z": -2.1405903058,
				"element": "N" 
			},
			{
				"x": 1.5987969765,
				"y": 1.0583822557,
				"z": -1.5567068637,
				"element": "C" 
			},
			{
				"x": 2.5821270265,
				"y": 1.413079783,
				"z": -2.4502606501,
				"element": "C" 
			},
			{
				"x": 2.3747767373,
				"y": 0.5554805854,
				"z": -3.5597401316,
				"element": "C" 
			},
			{
				"x": 1.3519485591,
				"y": -0.2688893062,
				"z": -3.3744906529,
				"element": "N" 
			},
			{
				"x": -4.8422455007,
				"y": -0.150988215,
				"z": -0.3587767531,
				"element": "H" 
			},
			{
				"x": -4.0557491937,
				"y": 1.2486569886,
				"z": -0.6072235703,
				"element": "H" 
			},
			{
				"x": -2.6460463437,
				"y": 0.8649596839,
				"z": 1.3036788635,
				"element": "H" 
			},
			{
				"x": -3.4893864587,
				"y": -0.65931026,
				"z": 1.5494825988,
				"element": "H" 
			},
			{
				"x": -0.9210122062,
				"y": 1.0839476851,
				"z": -0.4584191499,
				"element": "H" 
			},
			{
				"x": -1.5823629924,
				"y": -3.5797226339,
				"z": -1.7695378698,
				"element": "H" 
			},
			{
				"x": -3.1640678456,
				"y": -2.5778822294,
				"z": -0.1270937867,
				"element": "H" 
			},
			{
				"x": 1.3812234079,
				"y": 1.4078005593,
				"z": -0.5591887699,
				"element": "H" 
			},
			{
				"x": 3.343272758,
				"y": 2.1675549027,
				"z": -2.3189176663,
				"element": "H" 
			},
			{
				"x": 2.929832872,
				"y": 0.5116274749,
				"z": -4.4876274075,
				"element": "H" 
			}
		],
		 "valence_orbital": [ 
			{
				"type": "occ",
				"energy": -0.2864,
				"method": "rhf"
			},
			{
				"type": "occ",
				"energy": -0.26439,
				"method": "rhf"
			},
			{
				"type": "occ",
				"energy": -0.24862,
				"method": "rhf"
			},
			{
				"type": "occ",
				"energy": -0.24636,
				"method": "rhf"
			},
			{
				"type": "occ",
				"energy": -0.23642,
				"method": "rhf"
			},
			{
				"type": "unocc",
				"energy": -0.03643,
				"method": "rhf"
			},
			{
				"type": "unocc",
				"energy": -0.02832,
				"method": "rhf"
			},
			{
				"type": "unocc",
				"energy": 0.03136,
				"method": "rhf"
			},
			{
				"type": "unocc",
				"energy": 0.07007,
				"method": "rhf"
			},
			{
				"type": "unocc",
				"energy": 0.07686,
				"method": "rhf"
			}
		],
		"cosmo_sigma_profile": { 
			"-0.025": 0.0,
			"-0.024": 0.0,
			"-0.023": 0.0,
			"-0.022": 0.0,
			"-0.021": 0.0,
			"-0.02": 0.0,
			"-0.019": 0.0,
			"-0.018": 0.0,
			"-0.017": 0.0,
			"-0.016": 0.0,
			"-0.015": 0.0,
			"-0.014": 0.0,
			"-0.013": 0.0,
			"-0.012": 0.0,
			"-0.011": 0.0,
			"-0.01": 1.71770915355,
			"-0.009": 5.64225854647,
			"-0.008": 6.25595658775,
			"-0.007": 15.8064098212,
			"-0.006": 15.8750884447,
			"-0.005": 15.2944614899,
			"-0.004": 16.2587654262,
			"-0.003": 13.332399466,
			"-0.002": 11.8208395149,
			"-0.001": 13.2556007815,
			"0.0": 12.5736621339,
			"0.001": 15.1254246411,
			"0.002": 16.0437878405,
			"0.003": 10.5557635142,
			"0.004": 9.15856901067,
			"0.005": 7.11157328334,
			"0.006": 3.98912590669,
			"0.007": 2.88561087194,
			"0.008": 3.11802189761,
			"0.009": 2.2893100332,
			"0.01": 2.39365486617,
			"0.011": 2.85660735331,
			"0.012": 2.27674461547,
			"0.013": 1.95282442587,
			"0.014": 2.20073772347,
			"0.015": 2.69605759348,
			"0.016": 1.73484052295,
			"0.017": 1.95323174083,
			"0.018": 1.89483963449,
			"0.019": 1.29917767056,
			"0.02": 0.042689031136,
			"0.021": 0.0,
			"0.022": 0.0,
			"0.023": 0.0,
			"0.024": 0.0,
			"0.025": 0.0
		}
	}
}
