{
	 "smiles": "OC(=O)C1=CNC(=O)C=C1", 
	 "Tm": 588.15, 
	 "num_atms": 15, 
	 "gaussian": { 
		 "optdone": 1, 
		 "sigma_profile": "yes", 
		 "theory": "DFT", 
		 "functional": "B3LYP", 
		 "basiset": "6-31G**", 
		 "properties": { 
			 "R2extent": 1684.7902, 
			 "electric_dipole_moment_norm": 2.15990250474, 
			 "electric_quadrupole_moment_norm": 16.8148517026, 
			 "total_energy": -512.097933972, 
			 "HOMO_LUMO_gap": 0.1779, 
			 "cosmo_polarized_energy": -16.64, 
			 "cosmo_cavitation_energy": 20.3, 
			 "cosmo_dispersion_energy": -15.23, 
			 "cosmo_repulsion_energy": 1.24, 
			 "cosmo_total_nonelectrostatic_energy": 6.31, 
			 "SMD_solvation_energy": 5.87 
		},
		"coords": [
			{
				"x": 1.9393839358,
				"y": 0.9093383299,
				"z": 2.2632987243,
				"element": "O" 
			},
			{
				"x": 1.0717819837,
				"y": -0.1003793596,
				"z": 2.0001582131,
				"element": "C" 
			},
			{
				"x": 0.5953869257,
				"y": -0.793966462,
				"z": 2.8801661562,
				"element": "O" 
			},
			{
				"x": 0.7897154858,
				"y": -0.2457971149,
				"z": 0.5613933664,
				"element": "C" 
			},
			{
				"x": -0.0774827612,
				"y": -1.2398774621,
				"z": 0.1785267713,
				"element": "C" 
			},
			{
				"x": -0.3766532534,
				"y": -1.4242610842,
				"z": -1.1252133432,
				"element": "N" 
			},
			{
				"x": 0.1379593579,
				"y": -0.6564289915,
				"z": -2.2073978972,
				"element": "C" 
			},
			{
				"x": -0.2078182849,
				"y": -0.9207582781,
				"z": -3.3508007873,
				"element": "O" 
			},
			{
				"x": 1.0526533138,
				"y": 0.3873191506,
				"z": -1.7767131372,
				"element": "C" 
			},
			{
				"x": 1.3596149913,
				"y": 0.5797407911,
				"z": -0.4629343397,
				"element": "C" 
			},
			{
				"x": 2.0537044172,
				"y": 0.9164093427,
				"z": 3.2277273734,
				"element": "H" 
			},
			{
				"x": -0.5405936614,
				"y": -1.8969287256,
				"z": 0.9062102908,
				"element": "H" 
			},
			{
				"x": -1.0164339814,
				"y": -2.1581815977,
				"z": -1.40629545,
				"element": "H" 
			},
			{
				"x": 1.4759117177,
				"y": 1.0033925193,
				"z": -2.5612626959,
				"element": "H" 
			},
			{
				"x": 2.0458698134,
				"y": 1.3672789421,
				"z": -0.1699632451,
				"element": "H" 
			}
		],
		 "valence_orbital": [ 
			{
				"type": "occ",
				"energy": -0.32599,
				"method": "rhf"
			},
			{
				"type": "occ",
				"energy": -0.3185,
				"method": "rhf"
			},
			{
				"type": "occ",
				"energy": -0.28648,
				"method": "rhf"
			},
			{
				"type": "occ",
				"energy": -0.26332,
				"method": "rhf"
			},
			{
				"type": "occ",
				"energy": -0.23377,
				"method": "rhf"
			},
			{
				"type": "unocc",
				"energy": -0.05587,
				"method": "rhf"
			},
			{
				"type": "unocc",
				"energy": -0.03927,
				"method": "rhf"
			},
			{
				"type": "unocc",
				"energy": 0.05721,
				"method": "rhf"
			},
			{
				"type": "unocc",
				"energy": 0.05946,
				"method": "rhf"
			},
			{
				"type": "unocc",
				"energy": 0.07732,
				"method": "rhf"
			}
		],
		"cosmo_sigma_profile": { 
			"-0.025": 0.0,
			"-0.024": 0.0,
			"-0.023": 0.0,
			"-0.022": 0.0,
			"-0.021": 0.0,
			"-0.02": 0.0,
			"-0.019": 0.223171452291,
			"-0.018": 0.755491440824,
			"-0.017": 1.63668409289,
			"-0.016": 2.55970663284,
			"-0.015": 1.91857399357,
			"-0.014": 1.97510348519,
			"-0.013": 2.11948058933,
			"-0.012": 2.06347348251,
			"-0.011": 2.1422873568,
			"-0.01": 2.30359722293,
			"-0.009": 2.07064800194,
			"-0.008": 3.25404104343,
			"-0.007": 5.14331899652,
			"-0.006": 6.04793441263,
			"-0.005": 4.70935768542,
			"-0.004": 6.24232122225,
			"-0.003": 6.99468288461,
			"-0.002": 14.569524346,
			"-0.001": 15.6056895481,
			"0.0": 12.8498234739,
			"0.001": 8.77042827048,
			"0.002": 8.28943687128,
			"0.003": 4.81207959843,
			"0.004": 3.28271814789,
			"0.005": 4.34559598444,
			"0.006": 3.15005515052,
			"0.007": 4.53603289903,
			"0.008": 3.22250226655,
			"0.009": 2.67753563282,
			"0.01": 2.74996154856,
			"0.011": 4.69982927499,
			"0.012": 6.56650861841,
			"0.013": 5.90247762735,
			"0.014": 3.89799365788,
			"0.015": 0.481312868478,
			"0.016": 0.0,
			"0.017": 0.0,
			"0.018": 0.0,
			"0.019": 0.0,
			"0.02": 0.0,
			"0.021": 0.0,
			"0.022": 0.0,
			"0.023": 0.0,
			"0.024": 0.0,
			"0.025": 0.0
		}
	}
}
