{
	 "smiles": "ClS(=O)(=O)C1=CC=C(C=C1)S(=O)(=O)N1CCCCC1", 
	 "Tm": 425.15, 
	 "num_atms": 33, 
	 "gaussian": { 
		 "optdone": 1, 
		 "sigma_profile": "yes", 
		 "theory": "DFT", 
		 "functional": "B3LYP", 
		 "basiset": "6-31G**", 
		 "properties": { 
			 "R2extent": 9345.8384, 
			 "electric_dipole_moment_norm": 5.43173280455, 
			 "electric_quadrupole_moment_norm": 22.7132928498, 
			 "total_energy": -2039.68003699, 
			 "HOMO_LUMO_gap": 0.1576, 
			 "cosmo_polarized_energy": -17.04, 
			 "cosmo_cavitation_energy": 39.91, 
			 "cosmo_dispersion_energy": -28.86, 
			 "cosmo_repulsion_energy": 2.16, 
			 "cosmo_total_nonelectrostatic_energy": 13.2, 
			 "SMD_solvation_energy": 3.2 
		},
		"coords": [
			{
				"x": -3.6440628017,
				"y": 4.0019918961,
				"z": 1.031383849,
				"element": "Cl" 
			},
			{
				"x": -2.0954516125,
				"y": 4.3262265127,
				"z": 2.4638357774,
				"element": "S" 
			},
			{
				"x": -1.4949422337,
				"y": 5.6109393617,
				"z": 2.130821358,
				"element": "O" 
			},
			{
				"x": -2.6820314015,
				"y": 4.0480467532,
				"z": 3.7678640624,
				"element": "O" 
			},
			{
				"x": -0.9584426044,
				"y": 3.0117735689,
				"z": 2.0334038259,
				"element": "C" 
			},
			{
				"x": -1.0952268064,
				"y": 1.7748556687,
				"z": 2.6652829559,
				"element": "C" 
			},
			{
				"x": -0.2029055846,
				"y": 0.7573832937,
				"z": 2.3333959243,
				"element": "C" 
			},
			{
				"x": 0.793792942,
				"y": 0.9991908018,
				"z": 1.3827783213,
				"element": "C" 
			},
			{
				"x": 0.9347491734,
				"y": 2.251353694,
				"z": 0.7761017326,
				"element": "C" 
			},
			{
				"x": 0.0454440698,
				"y": 3.2744047083,
				"z": 1.1006577428,
				"element": "C" 
			},
			{
				"x": 1.9090429976,
				"y": -0.3445974085,
				"z": 0.9085802236,
				"element": "S" 
			},
			{
				"x": 3.1406852229,
				"y": 0.2930548858,
				"z": 0.4417663173,
				"element": "O" 
			},
			{
				"x": 1.8828516507,
				"y": -1.3107095394,
				"z": 2.00768414,
				"element": "O" 
			},
			{
				"x": 1.2181575261,
				"y": -1.0840266186,
				"z": -0.4105618568,
				"element": "N" 
			},
			{
				"x": 1.288655047,
				"y": -0.3918972575,
				"z": -1.7156296909,
				"element": "C" 
			},
			{
				"x": 0.7657889628,
				"y": -1.3323314714,
				"z": -2.8037369931,
				"element": "C" 
			},
			{
				"x": -0.7162577333,
				"y": -1.7096394136,
				"z": -2.5793805386,
				"element": "C" 
			},
			{
				"x": -1.0755532874,
				"y": -1.7444463671,
				"z": -1.074678302,
				"element": "C" 
			},
			{
				"x": 0.1435446847,
				"y": -2.0848284207,
				"z": -0.2135058705,
				"element": "C" 
			},
			{
				"x": -1.8694745514,
				"y": 1.6224639926,
				"z": 3.4087372719,
				"element": "H" 
			},
			{
				"x": -0.2540364129,
				"y": -0.2069773053,
				"z": 2.826095833,
				"element": "H" 
			},
			{
				"x": 1.7506991676,
				"y": 2.4262638134,
				"z": 0.0840824462,
				"element": "H" 
			},
			{
				"x": 0.1359847974,
				"y": 4.2591728566,
				"z": 0.6563287522,
				"element": "H" 
			},
			{
				"x": 0.6907420521,
				"y": 0.5338897573,
				"z": -1.7064284231,
				"element": "H" 
			},
			{
				"x": 2.3288551475,
				"y": -0.1180918886,
				"z": -1.8988657976,
				"element": "H" 
			},
			{
				"x": 1.391841541,
				"y": -2.2316767439,
				"z": -2.8082775935,
				"element": "H" 
			},
			{
				"x": 0.9004248042,
				"y": -0.8531893757,
				"z": -3.7787195004,
				"element": "H" 
			},
			{
				"x": -0.9110469441,
				"y": -2.6853926659,
				"z": -3.0372250147,
				"element": "H" 
			},
			{
				"x": -1.3688559389,
				"y": -0.993200673,
				"z": -3.0900714338,
				"element": "H" 
			},
			{
				"x": -1.8680372954,
				"y": -2.4753273955,
				"z": -0.8821933032,
				"element": "H" 
			},
			{
				"x": -1.465882574,
				"y": -0.7707996814,
				"z": -0.7557045004,
				"element": "H" 
			},
			{
				"x": -0.11195394,
				"y": -2.1237881803,
				"z": 0.8465682669,
				"element": "H" 
			},
			{
				"x": 0.5351019356,
				"y": -3.0759911584,
				"z": -0.475189982,
				"element": "H" 
			}
		],
		 "valence_orbital": [ 
			{
				"type": "occ",
				"energy": -0.3199,
				"method": "rhf"
			},
			{
				"type": "occ",
				"energy": -0.3147,
				"method": "rhf"
			},
			{
				"type": "occ",
				"energy": -0.30349,
				"method": "rhf"
			},
			{
				"type": "occ",
				"energy": -0.30182,
				"method": "rhf"
			},
			{
				"type": "occ",
				"energy": -0.26033,
				"method": "rhf"
			},
			{
				"type": "unocc",
				"energy": -0.10273,
				"method": "rhf"
			},
			{
				"type": "unocc",
				"energy": -0.06364,
				"method": "rhf"
			},
			{
				"type": "unocc",
				"energy": -0.05336,
				"method": "rhf"
			},
			{
				"type": "unocc",
				"energy": 0.03061,
				"method": "rhf"
			},
			{
				"type": "unocc",
				"energy": 0.04768,
				"method": "rhf"
			}
		],
		"cosmo_sigma_profile": { 
			"-0.025": 0.0,
			"-0.024": 0.0,
			"-0.023": 0.0,
			"-0.022": 0.0,
			"-0.021": 0.0,
			"-0.02": 0.0,
			"-0.019": 0.0,
			"-0.018": 0.0,
			"-0.017": 0.0,
			"-0.016": 0.0,
			"-0.015": 0.0,
			"-0.014": 0.0,
			"-0.013": 0.0,
			"-0.012": 0.0,
			"-0.011": 0.0,
			"-0.01": 0.381570551131,
			"-0.009": 3.99821885711,
			"-0.008": 7.09031909947,
			"-0.007": 7.99377135151,
			"-0.006": 8.5342529264,
			"-0.005": 12.0348527651,
			"-0.004": 29.6500233774,
			"-0.003": 39.5826990004,
			"-0.002": 37.7447418965,
			"-0.001": 33.694214648,
			"0.0": 26.4275562051,
			"0.001": 10.7127364007,
			"0.002": 12.3813788721,
			"0.003": 19.0721240896,
			"0.004": 10.809182452,
			"0.005": 6.66621706657,
			"0.006": 6.84061092249,
			"0.007": 10.9743182591,
			"0.008": 11.9260780548,
			"0.009": 6.47305704788,
			"0.01": 6.69207893648,
			"0.011": 7.56659667178,
			"0.012": 1.74771783217,
			"0.013": 0.0,
			"0.014": 0.0,
			"0.015": 0.0,
			"0.016": 0.0,
			"0.017": 0.0,
			"0.018": 0.0,
			"0.019": 0.0,
			"0.02": 0.0,
			"0.021": 0.0,
			"0.022": 0.0,
			"0.023": 0.0,
			"0.024": 0.0,
			"0.025": 0.0
		}
	}
}
