{
	 "smiles": "OC1=CC=C(C=C1)C1=NC(=CS1)C1=CC=CC=C1", 
	 "Tm": 422.15, 
	 "num_atms": 29, 
	 "gaussian": { 
		 "optdone": 1, 
		 "sigma_profile": "yes", 
		 "theory": "DFT", 
		 "functional": "B3LYP", 
		 "basiset": "6-31G**", 
		 "properties": { 
			 "R2extent": 7414.886, 
			 "electric_dipole_moment_norm": 2.21542861542, 
			 "electric_quadrupole_moment_norm": 22.5751097362, 
			 "total_energy": -1106.39237037, 
			 "HOMO_LUMO_gap": 0.15401, 
			 "cosmo_polarized_energy": -12.94, 
			 "cosmo_cavitation_energy": 35.21, 
			 "cosmo_dispersion_energy": -26.47, 
			 "cosmo_repulsion_energy": 1.95, 
			 "cosmo_total_nonelectrostatic_energy": 10.7, 
			 "SMD_solvation_energy": 5.09 
		},
		"coords": [
			{
				"x": -2.1159957164,
				"y": -2.5513973981,
				"z": -5.357056238,
				"element": "O" 
			},
			{
				"x": -1.455575981,
				"y": -1.8021096261,
				"z": -4.4299200603,
				"element": "C" 
			},
			{
				"x": -1.05842166,
				"y": -0.4808559458,
				"z": -4.6659243319,
				"element": "C" 
			},
			{
				"x": -0.3864678083,
				"y": 0.2297950061,
				"z": -3.6760860283,
				"element": "C" 
			},
			{
				"x": -0.0970365353,
				"y": -0.3561629301,
				"z": -2.4347483688,
				"element": "C" 
			},
			{
				"x": -0.5039785826,
				"y": -1.6866277416,
				"z": -2.2145136324,
				"element": "C" 
			},
			{
				"x": -1.1735648292,
				"y": -2.4025942113,
				"z": -3.1953360452,
				"element": "C" 
			},
			{
				"x": 0.6090043869,
				"y": 0.3643380983,
				"z": -1.370703284,
				"element": "C" 
			},
			{
				"x": 0.9290068923,
				"y": -0.1552763673,
				"z": -0.2177682415,
				"element": "N" 
			},
			{
				"x": 1.5837282399,
				"y": 0.7362997026,
				"z": 0.6088233946,
				"element": "C" 
			},
			{
				"x": 1.7713008717,
				"y": 1.9819126018,
				"z": 0.0592090167,
				"element": "C" 
			},
			{
				"x": 1.1082734034,
				"y": 2.0559453758,
				"z": -1.5354365239,
				"element": "S" 
			},
			{
				"x": 2.0148766755,
				"y": 0.2941142556,
				"z": 1.9505705976,
				"element": "C" 
			},
			{
				"x": 1.8758815551,
				"y": -1.0540790281,
				"z": 2.3191545996,
				"element": "C" 
			},
			{
				"x": 2.2830228064,
				"y": -1.4926383121,
				"z": 3.577925538,
				"element": "C" 
			},
			{
				"x": 2.8355371416,
				"y": -0.5956220904,
				"z": 4.4936124381,
				"element": "C" 
			},
			{
				"x": 2.9749864062,
				"y": 0.7484966171,
				"z": 4.1388845694,
				"element": "C" 
			},
			{
				"x": 2.5677950867,
				"y": 1.1892265186,
				"z": 2.8821238097,
				"element": "C" 
			},
			{
				"x": -2.2488663115,
				"y": -2.0264167819,
				"z": -6.1572024083,
				"element": "H" 
			},
			{
				"x": -1.2732502219,
				"y": -0.0092983255,
				"z": -5.6223865566,
				"element": "H" 
			},
			{
				"x": -0.0852034651,
				"y": 1.2531239823,
				"z": -3.8821665394,
				"element": "H" 
			},
			{
				"x": -0.2831343864,
				"y": -2.1432357781,
				"z": -1.2563768909,
				"element": "H" 
			},
			{
				"x": -1.4885077387,
				"y": -3.4271444901,
				"z": -3.0276532842,
				"element": "H" 
			},
			{
				"x": 2.2622384222,
				"y": 2.8439479473,
				"z": 0.4853290628,
				"element": "H" 
			},
			{
				"x": 1.4460324043,
				"y": -1.7460610681,
				"z": 1.6041369379,
				"element": "H" 
			},
			{
				"x": 2.1682912689,
				"y": -2.5398692589,
				"z": 3.8436092685,
				"element": "H" 
			},
			{
				"x": 3.1522551893,
				"y": -0.937978928,
				"z": 5.4745545827,
				"element": "H" 
			},
			{
				"x": 3.398734768,
				"y": 1.4572468349,
				"z": 4.8448222526,
				"element": "H" 
			},
			{
				"x": 2.674337718,
				"y": 2.2402213409,
				"z": 2.6304223655,
				"element": "H" 
			}
		],
		 "valence_orbital": [ 
			{
				"type": "occ",
				"energy": -0.27044,
				"method": "rhf"
			},
			{
				"type": "occ",
				"energy": -0.26049,
				"method": "rhf"
			},
			{
				"type": "occ",
				"energy": -0.24644,
				"method": "rhf"
			},
			{
				"type": "occ",
				"energy": -0.2341,
				"method": "rhf"
			},
			{
				"type": "occ",
				"energy": -0.20209,
				"method": "rhf"
			},
			{
				"type": "unocc",
				"energy": -0.04808,
				"method": "rhf"
			},
			{
				"type": "unocc",
				"energy": -0.02129,
				"method": "rhf"
			},
			{
				"type": "unocc",
				"energy": -0.00872,
				"method": "rhf"
			},
			{
				"type": "unocc",
				"energy": 0.00463,
				"method": "rhf"
			},
			{
				"type": "unocc",
				"energy": 0.02088,
				"method": "rhf"
			}
		],
		"cosmo_sigma_profile": { 
			"-0.025": 0.0,
			"-0.024": 0.0,
			"-0.023": 0.0,
			"-0.022": 0.0,
			"-0.021": 0.0,
			"-0.02": 0.0,
			"-0.019": 0.0570918228292,
			"-0.018": 0.888590146385,
			"-0.017": 0.962446263891,
			"-0.016": 0.991826255584,
			"-0.015": 1.05048409063,
			"-0.014": 1.38519053956,
			"-0.013": 0.683037135469,
			"-0.012": 0.878279671009,
			"-0.011": 1.11813174721,
			"-0.01": 1.7309916554,
			"-0.009": 3.27875790062,
			"-0.008": 3.76492828846,
			"-0.007": 5.74060550159,
			"-0.006": 11.9361706836,
			"-0.005": 16.6023116474,
			"-0.004": 18.0505936119,
			"-0.003": 16.7461935423,
			"-0.002": 14.2466751283,
			"-0.001": 15.0566718297,
			"0.0": 15.7765248498,
			"0.001": 22.7813071222,
			"0.002": 27.6675477167,
			"0.003": 35.5338189339,
			"0.004": 29.6947520524,
			"0.005": 17.4661590103,
			"0.006": 9.57467710228,
			"0.007": 3.61992994166,
			"0.008": 2.84136696841,
			"0.009": 2.09076796027,
			"0.01": 1.92390492279,
			"0.011": 1.53473605992,
			"0.012": 0.026213206701,
			"0.013": 0.0,
			"0.014": 0.0,
			"0.015": 0.0,
			"0.016": 0.0,
			"0.017": 0.0,
			"0.018": 0.0,
			"0.019": 0.0,
			"0.02": 0.0,
			"0.021": 0.0,
			"0.022": 0.0,
			"0.023": 0.0,
			"0.024": 0.0,
			"0.025": 0.0
		}
	}
}
