{
	 "smiles": "NS(=O)(=O)C1=CC2=C(NC(=O)C2=O)C=C1", 
	 "Tm": 532.15, 
	 "num_atms": 21, 
	 "gaussian": { 
		 "optdone": 1, 
		 "sigma_profile": "yes", 
		 "theory": "DFT", 
		 "functional": "B3LYP", 
		 "basiset": "6-31G**", 
		 "properties": { 
			 "R2extent": 4802.4392, 
			 "electric_dipole_moment_norm": 5.5849410928, 
			 "electric_quadrupole_moment_norm": 31.6540661372, 
			 "total_energy": -1116.98189255, 
			 "HOMO_LUMO_gap": 0.14461, 
			 "cosmo_polarized_energy": -25.76, 
			 "cosmo_cavitation_energy": 28.41, 
			 "cosmo_dispersion_energy": -21.35, 
			 "cosmo_repulsion_energy": 1.62, 
			 "cosmo_total_nonelectrostatic_energy": 8.69, 
			 "SMD_solvation_energy": 5.84 
		},
		"coords": [
			{
				"x": -3.509762417,
				"y": -0.244267953,
				"z": -2.0063180464,
				"element": "N" 
			},
			{
				"x": -2.1214076158,
				"y": -1.0605174488,
				"z": -1.4799773506,
				"element": "S" 
			},
			{
				"x": -1.3053464213,
				"y": -1.3166319113,
				"z": -2.6703812531,
				"element": "O" 
			},
			{
				"x": -2.5553004289,
				"y": -2.1253081884,
				"z": -0.5723021944,
				"element": "O" 
			},
			{
				"x": -1.2624060373,
				"y": 0.1624038681,
				"z": -0.4936148277,
				"element": "C" 
			},
			{
				"x": -1.5477012521,
				"y": 0.2694233469,
				"z": 0.8700659714,
				"element": "C" 
			},
			{
				"x": -0.8606013673,
				"y": 1.2311382678,
				"z": 1.5986835547,
				"element": "C" 
			},
			{
				"x": 0.0997293323,
				"y": 2.0637049857,
				"z": 0.9838573308,
				"element": "C" 
			},
			{
				"x": 0.6526651717,
				"y": 2.9390186636,
				"z": 1.9200259169,
				"element": "N" 
			},
			{
				"x": 0.1180008304,
				"y": 2.7563330655,
				"z": 3.1921726631,
				"element": "C" 
			},
			{
				"x": 0.4032381354,
				"y": 3.3653250738,
				"z": 4.1952192256,
				"element": "O" 
			},
			{
				"x": -0.9255902809,
				"y": 1.5953950399,
				"z": 3.0259546102,
				"element": "C" 
			},
			{
				"x": -1.6052196722,
				"y": 1.1483125455,
				"z": 3.9214010224,
				"element": "O" 
			},
			{
				"x": 0.3923719182,
				"y": 1.9454498171,
				"z": -0.3717735595,
				"element": "C" 
			},
			{
				"x": -0.3034263608,
				"y": 0.9801636762,
				"z": -1.1046827977,
				"element": "C" 
			},
			{
				"x": -4.3353365638,
				"y": -0.6899831669,
				"z": -1.6142194804,
				"element": "H" 
			},
			{
				"x": -3.5336558603,
				"y": -0.249020303,
				"z": -3.0227835851,
				"element": "H" 
			},
			{
				"x": -2.2684548594,
				"y": -0.3844654766,
				"z": 1.3495204844,
				"element": "H" 
			},
			{
				"x": 1.365516064,
				"y": 3.62649253,
				"z": 1.7218644268,
				"element": "H" 
			},
			{
				"x": 1.1387723145,
				"y": 2.5716765631,
				"z": -0.8494294846,
				"element": "H" 
			},
			{
				"x": -0.0921846294,
				"y": 0.8423570049,
				"z": -2.1596826267,
				"element": "H" 
			}
		],
		 "valence_orbital": [ 
			{
				"type": "occ",
				"energy": -0.31713,
				"method": "rhf"
			},
			{
				"type": "occ",
				"energy": -0.30447,
				"method": "rhf"
			},
			{
				"type": "occ",
				"energy": -0.29699,
				"method": "rhf"
			},
			{
				"type": "occ",
				"energy": -0.26047,
				"method": "rhf"
			},
			{
				"type": "occ",
				"energy": -0.25712,
				"method": "rhf"
			},
			{
				"type": "unocc",
				"energy": -0.11251,
				"method": "rhf"
			},
			{
				"type": "unocc",
				"energy": -0.04964,
				"method": "rhf"
			},
			{
				"type": "unocc",
				"energy": -0.02023,
				"method": "rhf"
			},
			{
				"type": "unocc",
				"energy": 0.043,
				"method": "rhf"
			},
			{
				"type": "unocc",
				"energy": 0.06229,
				"method": "rhf"
			}
		],
		"cosmo_sigma_profile": { 
			"-0.025": 0.0,
			"-0.024": 0.0,
			"-0.023": 0.0,
			"-0.022": 0.0,
			"-0.021": 0.0,
			"-0.02": 0.0,
			"-0.019": 0.0,
			"-0.018": 0.00443391554233,
			"-0.017": 1.36200379945,
			"-0.016": 1.53386957025,
			"-0.015": 2.51121719074,
			"-0.014": 4.18617807648,
			"-0.013": 3.50010105125,
			"-0.012": 4.38873981934,
			"-0.011": 3.36415723504,
			"-0.01": 2.15564418688,
			"-0.009": 5.19211301337,
			"-0.008": 9.30559089713,
			"-0.007": 8.97226684463,
			"-0.006": 9.01187605505,
			"-0.005": 9.68510586522,
			"-0.004": 9.60836374048,
			"-0.003": 10.9460847518,
			"-0.002": 14.9971005069,
			"-0.001": 13.9329590474,
			"0.0": 16.1274572229,
			"0.001": 9.98108080284,
			"0.002": 5.62876047838,
			"0.003": 4.81832499145,
			"0.004": 5.76523040153,
			"0.005": 4.92840860128,
			"0.006": 5.68368900227,
			"0.007": 6.3979998007,
			"0.008": 9.04003779597,
			"0.009": 9.52364870484,
			"0.01": 17.9032023143,
			"0.011": 15.1853876978,
			"0.012": 2.85629396256,
			"0.013": 0.00128264930188,
			"0.014": 0.0,
			"0.015": 0.0,
			"0.016": 0.0,
			"0.017": 0.0,
			"0.018": 0.0,
			"0.019": 0.0,
			"0.02": 0.0,
			"0.021": 0.0,
			"0.022": 0.0,
			"0.023": 0.0,
			"0.024": 0.0,
			"0.025": 0.0
		}
	}
}
