{
	 "smiles": "BrC(Br)C1=CC=C(C=C1)C(Br)Br", 
	 "Tm": 445.15, 
	 "num_atms": 18, 
	 "gaussian": { 
		 "optdone": 1, 
		 "sigma_profile": "yes", 
		 "theory": "DFT", 
		 "functional": "B3LYP", 
		 "basiset": "6-31G**", 
		 "properties": { 
			 "R2extent": 9392.3698, 
			 "electric_dipole_moment_norm": 2.20763707842, 
			 "electric_quadrupole_moment_norm": 12.1513935542, 
			 "total_energy": -10594.0783787, 
			 "HOMO_LUMO_gap": 0.19094, 
			 "cosmo_polarized_energy": -9.24, 
			 "cosmo_cavitation_energy": 31.54, 
			 "cosmo_dispersion_energy": -23.65, 
			 "cosmo_repulsion_energy": 1.93, 
			 "cosmo_total_nonelectrostatic_energy": 9.81, 
			 "SMD_solvation_energy": 0.45 
		},
		"coords": [
			{
				"x": -0.3853652316,
				"y": -1.6973635791,
				"z": -3.3540537732,
				"element": "Br" 
			},
			{
				"x": 1.0037318849,
				"y": -1.9090702029,
				"z": -1.961069862,
				"element": "C" 
			},
			{
				"x": 1.1258463357,
				"y": -3.8053741261,
				"z": -1.4096260707,
				"element": "Br" 
			},
			{
				"x": 0.7725442456,
				"y": -0.9998353597,
				"z": -0.7956810657,
				"element": "C" 
			},
			{
				"x": -0.3811508389,
				"y": -1.0934760584,
				"z": -0.0001259332,
				"element": "C" 
			},
			{
				"x": -0.5646783546,
				"y": -0.2356431635,
				"z": 1.0727372426,
				"element": "C" 
			},
			{
				"x": 0.4007693721,
				"y": 0.7378500426,
				"z": 1.3775508624,
				"element": "C" 
			},
			{
				"x": 1.5487953706,
				"y": 0.8323554192,
				"z": 0.5872540595,
				"element": "C" 
			},
			{
				"x": 1.7337552211,
				"y": -0.032126024,
				"z": -0.4938931187,
				"element": "C" 
			},
			{
				"x": 0.2357404739,
				"y": 1.6801857578,
				"z": 2.5277657006,
				"element": "C" 
			},
			{
				"x": 0.1550243474,
				"y": 0.7285468444,
				"z": 4.2606364022,
				"element": "Br" 
			},
			{
				"x": -1.3553596696,
				"y": 2.8373182069,
				"z": 2.3162240626,
				"element": "Br" 
			},
			{
				"x": 1.9416965308,
				"y": -1.7024311263,
				"z": -2.4659717252,
				"element": "H" 
			},
			{
				"x": -1.1300502352,
				"y": -1.843878673,
				"z": -0.2314512447,
				"element": "H" 
			},
			{
				"x": -1.4577293389,
				"y": -0.3121340756,
				"z": 1.6843529429,
				"element": "H" 
			},
			{
				"x": 2.3041033364,
				"y": 1.5804481268,
				"z": 0.8109764257,
				"element": "H" 
			},
			{
				"x": 2.6311113788,
				"y": 0.0520909547,
				"z": -1.1003942697,
				"element": "H" 
			},
			{
				"x": 1.0712151715,
				"y": 2.366037036,
				"z": 2.6225693647,
				"element": "H" 
			}
		],
		 "valence_orbital": [ 
			{
				"type": "occ",
				"energy": -0.28959,
				"method": "rhf"
			},
			{
				"type": "occ",
				"energy": -0.28268,
				"method": "rhf"
			},
			{
				"type": "occ",
				"energy": -0.27927,
				"method": "rhf"
			},
			{
				"type": "occ",
				"energy": -0.27488,
				"method": "rhf"
			},
			{
				"type": "occ",
				"energy": -0.2594,
				"method": "rhf"
			},
			{
				"type": "unocc",
				"energy": -0.06846,
				"method": "rhf"
			},
			{
				"type": "unocc",
				"energy": -0.04581,
				"method": "rhf"
			},
			{
				"type": "unocc",
				"energy": -0.04357,
				"method": "rhf"
			},
			{
				"type": "unocc",
				"energy": -0.03071,
				"method": "rhf"
			},
			{
				"type": "unocc",
				"energy": -0.00091,
				"method": "rhf"
			}
		],
		"cosmo_sigma_profile": { 
			"-0.025": 0.0,
			"-0.024": 0.0,
			"-0.023": 0.0,
			"-0.022": 0.0,
			"-0.021": 0.0,
			"-0.02": 0.0,
			"-0.019": 0.0,
			"-0.018": 0.0,
			"-0.017": 0.0,
			"-0.016": 0.0,
			"-0.015": 0.0,
			"-0.014": 0.0,
			"-0.013": 0.0,
			"-0.012": 0.0,
			"-0.011": 3.44873321258,
			"-0.01": 5.55097704517,
			"-0.009": 4.435463858,
			"-0.008": 5.45432415044,
			"-0.007": 8.30235733029,
			"-0.006": 8.68550538207,
			"-0.005": 8.66579129148,
			"-0.004": 13.6309839816,
			"-0.003": 14.6552553452,
			"-0.002": 12.3286751686,
			"-0.001": 14.2019052315,
			"0.0": 17.5070079314,
			"0.001": 19.4671246478,
			"0.002": 28.3950289597,
			"0.003": 35.1161912509,
			"0.004": 44.1378537289,
			"0.005": 21.1581863784,
			"0.006": 0.0,
			"0.007": 0.0,
			"0.008": 0.0,
			"0.009": 0.0,
			"0.01": 0.0,
			"0.011": 0.0,
			"0.012": 0.0,
			"0.013": 0.0,
			"0.014": 0.0,
			"0.015": 0.0,
			"0.016": 0.0,
			"0.017": 0.0,
			"0.018": 0.0,
			"0.019": 0.0,
			"0.02": 0.0,
			"0.021": 0.0,
			"0.022": 0.0,
			"0.023": 0.0,
			"0.024": 0.0,
			"0.025": 0.0
		}
	}
}
