{
	 "smiles": "C[C@@H]1[C@@H]2C[C@H]3OC[C@@]45CCCC(C)(C)[C@H]4C[C@@H](O)C([C@@H]2O)([C@@H]35)C1=O", 
	 "Tm": 493.15, 
	 "num_atms": 54, 
	 "gaussian": { 
		 "optdone": 1, 
		 "sigma_profile": "yes", 
		 "theory": "DFT", 
		 "functional": "B3LYP", 
		 "basiset": "6-31G**", 
		 "properties": { 
			 "R2extent": 7166.2525, 
			 "electric_dipole_moment_norm": 3.53460420132, 
			 "electric_quadrupole_moment_norm": 16.5589017133, 
			 "total_energy": -1081.09428315, 
			 "HOMO_LUMO_gap": 0.21687, 
			 "cosmo_polarized_energy": -15.76, 
			 "cosmo_cavitation_energy": 44.5, 
			 "cosmo_dispersion_energy": -32.13, 
			 "cosmo_repulsion_energy": 2.33, 
			 "cosmo_total_nonelectrostatic_energy": 14.7, 
			 "SMD_solvation_energy": 6.63 
		},
		"coords": [
			{
				"x": 1.9278560447,
				"y": -3.4036340386,
				"z": 3.0154370559,
				"element": "C" 
			},
			{
				"x": 1.3755024403,
				"y": -1.9854982022,
				"z": 2.9028460866,
				"element": "C" 
			},
			{
				"x": -0.1406976699,
				"y": -1.7506506886,
				"z": 2.6676537607,
				"element": "C" 
			},
			{
				"x": -0.720825201,
				"y": -2.5571665058,
				"z": 1.4828626802,
				"element": "C" 
			},
			{
				"x": -0.6935403936,
				"y": -1.8225160806,
				"z": 0.1314971673,
				"element": "C" 
			},
			{
				"x": -1.927504499,
				"y": -1.0865512487,
				"z": -0.0060299417,
				"element": "O" 
			},
			{
				"x": -1.6980761033,
				"y": 0.1932846365,
				"z": -0.5904900624,
				"element": "C" 
			},
			{
				"x": -0.2500711235,
				"y": 0.1814665235,
				"z": -1.1278204115,
				"element": "C" 
			},
			{
				"x": -0.2208989486,
				"y": -0.5008358783,
				"z": -2.5373551283,
				"element": "C" 
			},
			{
				"x": -0.1380932488,
				"y": 0.4987462192,
				"z": -3.7104623314,
				"element": "C" 
			},
			{
				"x": -0.8894077215,
				"y": 1.7950675187,
				"z": -3.3987995424,
				"element": "C" 
			},
			{
				"x": -0.2479302943,
				"y": 2.5798230132,
				"z": -2.2170798158,
				"element": "C" 
			},
			{
				"x": -1.3325387357,
				"y": 3.4536367954,
				"z": -1.5550627357,
				"element": "C" 
			},
			{
				"x": 0.8442940698,
				"y": 3.5163268832,
				"z": -2.779980719,
				"element": "C" 
			},
			{
				"x": 0.4369259281,
				"y": 1.5701387876,
				"z": -1.22087223,
				"element": "C" 
			},
			{
				"x": 0.7241913501,
				"y": 2.1531148878,
				"z": 0.1705677712,
				"element": "C" 
			},
			{
				"x": 1.6091708136,
				"y": 1.1998257749,
				"z": 0.9683566449,
				"element": "C" 
			},
			{
				"x": 2.0104281644,
				"y": 1.7744288454,
				"z": 2.225135721,
				"element": "O" 
			},
			{
				"x": 0.9415629734,
				"y": -0.1506324709,
				"z": 1.256835635,
				"element": "C" 
			},
			{
				"x": -0.1698068401,
				"y": -0.2342957277,
				"z": 2.3524310007,
				"element": "C" 
			},
			{
				"x": 0.1165731001,
				"y": 0.4706810698,
				"z": 3.5502302135,
				"element": "O" 
			},
			{
				"x": 0.4293548496,
				"y": -0.7824589852,
				"z": -0.0924543793,
				"element": "C" 
			},
			{
				"x": 2.0006886762,
				"y": -1.1535243628,
				"z": 1.7938410294,
				"element": "C" 
			},
			{
				"x": 3.1189687807,
				"y": -1.2737253545,
				"z": 1.3367707787,
				"element": "O" 
			},
			{
				"x": 3.0117102149,
				"y": -3.3661903093,
				"z": 3.1554084053,
				"element": "H" 
			},
			{
				"x": 1.7416541719,
				"y": -3.9966455138,
				"z": 2.1147668717,
				"element": "H" 
			},
			{
				"x": 1.4869389657,
				"y": -3.9309482231,
				"z": 3.8672081561,
				"element": "H" 
			},
			{
				"x": 1.6132264497,
				"y": -1.4356992525,
				"z": 3.8244943703,
				"element": "H" 
			},
			{
				"x": -0.7088257768,
				"y": -1.9507472366,
				"z": 3.5802439068,
				"element": "H" 
			},
			{
				"x": -0.1990257698,
				"y": -3.5143398429,
				"z": 1.3824113305,
				"element": "H" 
			},
			{
				"x": -1.7707036075,
				"y": -2.8022636743,
				"z": 1.6701306576,
				"element": "H" 
			},
			{
				"x": -0.6552379026,
				"y": -2.5696638236,
				"z": -0.6741233578,
				"element": "H" 
			},
			{
				"x": -1.8482263358,
				"y": 0.9717901507,
				"z": 0.1699538444,
				"element": "H" 
			},
			{
				"x": -2.4415921332,
				"y": 0.3507460217,
				"z": -1.3786221836,
				"element": "H" 
			},
			{
				"x": -1.1190268136,
				"y": -1.1188621682,
				"z": -2.6467343435,
				"element": "H" 
			},
			{
				"x": 0.6299179653,
				"y": -1.1896677567,
				"z": -2.5985112772,
				"element": "H" 
			},
			{
				"x": -0.5377024799,
				"y": 0.0329956817,
				"z": -4.6181324352,
				"element": "H" 
			},
			{
				"x": 0.9110836019,
				"y": 0.7322200576,
				"z": -3.9315014444,
				"element": "H" 
			},
			{
				"x": -1.9338254476,
				"y": 1.5546255814,
				"z": -3.1635295808,
				"element": "H" 
			},
			{
				"x": -0.9233998705,
				"y": 2.4433300929,
				"z": -4.2828690552,
				"element": "H" 
			},
			{
				"x": -0.916963046,
				"y": 4.1211666436,
				"z": -0.7934875869,
				"element": "H" 
			},
			{
				"x": -2.120237853,
				"y": 2.8568573538,
				"z": -1.0862432277,
				"element": "H" 
			},
			{
				"x": -1.8107265224,
				"y": 4.0842300993,
				"z": -2.313215535,
				"element": "H" 
			},
			{
				"x": 0.4006879478,
				"y": 4.2817975802,
				"z": -3.4259962822,
				"element": "H" 
			},
			{
				"x": 1.3869173665,
				"y": 4.0355811066,
				"z": -1.9824485629,
				"element": "H" 
			},
			{
				"x": 1.5797821995,
				"y": 2.963179137,
				"z": -3.3746338735,
				"element": "H" 
			},
			{
				"x": 1.4237568533,
				"y": 1.3586367767,
				"z": -1.6593925622,
				"element": "H" 
			},
			{
				"x": 1.2465434329,
				"y": 3.1141052417,
				"z": 0.0689398824,
				"element": "H" 
			},
			{
				"x": -0.194498793,
				"y": 2.3557238779,
				"z": 0.7313339551,
				"element": "H" 
			},
			{
				"x": 2.5148996343,
				"y": 0.9745797918,
				"z": 0.3844542713,
				"element": "H" 
			},
			{
				"x": 2.4537384525,
				"y": 2.6143900773,
				"z": 2.052199496,
				"element": "H" 
			},
			{
				"x": -1.1514305885,
				"y": 0.0674285171,
				"z": 1.9737605255,
				"element": "H" 
			},
			{
				"x": 0.7281037516,
				"y": 1.1939788844,
				"z": 3.3345832233,
				"element": "H" 
			},
			{
				"x": 1.2988355207,
				"y": -1.2471862836,
				"z": -0.5676058359,
				"element": "H" 
			}
		],
		 "valence_orbital": [ 
			{
				"type": "occ",
				"energy": -0.28297,
				"method": "rhf"
			},
			{
				"type": "occ",
				"energy": -0.27422,
				"method": "rhf"
			},
			{
				"type": "occ",
				"energy": -0.25337,
				"method": "rhf"
			},
			{
				"type": "occ",
				"energy": -0.24256,
				"method": "rhf"
			},
			{
				"type": "occ",
				"energy": -0.23145,
				"method": "rhf"
			},
			{
				"type": "unocc",
				"energy": -0.01458,
				"method": "rhf"
			},
			{
				"type": "unocc",
				"energy": 0.05334,
				"method": "rhf"
			},
			{
				"type": "unocc",
				"energy": 0.06216,
				"method": "rhf"
			},
			{
				"type": "unocc",
				"energy": 0.07841,
				"method": "rhf"
			},
			{
				"type": "unocc",
				"energy": 0.08831,
				"method": "rhf"
			}
		],
		"cosmo_sigma_profile": { 
			"-0.025": 0.0,
			"-0.024": 0.0,
			"-0.023": 0.0,
			"-0.022": 0.0,
			"-0.021": 0.0,
			"-0.02": 0.0,
			"-0.019": 0.0,
			"-0.018": 0.0,
			"-0.017": 0.148933239884,
			"-0.016": 0.823599161812,
			"-0.015": 1.06229782781,
			"-0.014": 1.28954673652,
			"-0.013": 0.794576655733,
			"-0.012": 0.749498945934,
			"-0.011": 0.947869871695,
			"-0.01": 1.15533683735,
			"-0.009": 0.989129032971,
			"-0.008": 0.96662470662,
			"-0.007": 1.25361526283,
			"-0.006": 2.69140062418,
			"-0.005": 6.33369572729,
			"-0.004": 27.0731789004,
			"-0.003": 44.2765942504,
			"-0.002": 52.3009286499,
			"-0.001": 48.0507940537,
			"0.0": 40.7466008934,
			"0.001": 33.5960296223,
			"0.002": 15.9634022309,
			"0.003": 5.35483428433,
			"0.004": 5.1044126033,
			"0.005": 5.8426840095,
			"0.006": 4.83569110722,
			"0.007": 5.22183000615,
			"0.008": 5.55640347073,
			"0.009": 5.24349061256,
			"0.01": 3.97910854747,
			"0.011": 4.97825933383,
			"0.012": 6.30986717215,
			"0.013": 3.30247999087,
			"0.014": 2.4138298228,
			"0.015": 1.33610795832,
			"0.016": 0.244412981189,
			"0.017": 0.0,
			"0.018": 0.0,
			"0.019": 0.0,
			"0.02": 0.0,
			"0.021": 0.0,
			"0.022": 0.0,
			"0.023": 0.0,
			"0.024": 0.0,
			"0.025": 0.0
		}
	}
}
