{
	 "smiles": "CC(C)C1=CC(=NN1C1=CC=CC=C1)C(O)=O", 
	 "Tm": 411.15, 
	 "num_atms": 31, 
	 "gaussian": { 
		 "optdone": 1, 
		 "sigma_profile": "yes", 
		 "theory": "DFT", 
		 "functional": "B3LYP", 
		 "basiset": "6-31G**", 
		 "properties": { 
			 "R2extent": 4878.5249, 
			 "electric_dipole_moment_norm": 7.43032189478, 
			 "electric_quadrupole_moment_norm": 18.5947517636, 
			 "total_energy": -763.778884256, 
			 "HOMO_LUMO_gap": 0.20812, 
			 "cosmo_polarized_energy": -13.99, 
			 "cosmo_cavitation_energy": 34.91, 
			 "cosmo_dispersion_energy": -24.29, 
			 "cosmo_repulsion_energy": 1.91, 
			 "cosmo_total_nonelectrostatic_energy": 12.54, 
			 "SMD_solvation_energy": 6.68 
		},
		"coords": [
			{
				"x": 2.7885671994,
				"y": -1.0851820159,
				"z": 0.703427951,
				"element": "C" 
			},
			{
				"x": 1.6728549236,
				"y": -1.6589855495,
				"z": -0.1911469474,
				"element": "C" 
			},
			{
				"x": 2.269323955,
				"y": -2.4649831571,
				"z": -1.3628021226,
				"element": "C" 
			},
			{
				"x": 0.7657067187,
				"y": -0.5593969687,
				"z": -0.6868576978,
				"element": "C" 
			},
			{
				"x": 1.0853389629,
				"y": 0.6289274781,
				"z": -1.3193126306,
				"element": "C" 
			},
			{
				"x": -0.1407161695,
				"y": 1.2981401557,
				"z": -1.4951167976,
				"element": "C" 
			},
			{
				"x": -1.1632271393,
				"y": 0.5899509561,
				"z": -1.0123592662,
				"element": "N" 
			},
			{
				"x": -0.6081997541,
				"y": -0.5450741387,
				"z": -0.5303251456,
				"element": "N" 
			},
			{
				"x": -1.4615701768,
				"y": -1.5090680598,
				"z": 0.0889894386,
				"element": "C" 
			},
			{
				"x": -2.3814709352,
				"y": -1.0760942362,
				"z": 1.0490271172,
				"element": "C" 
			},
			{
				"x": -3.2355590076,
				"y": -2.0001478601,
				"z": 1.6475127455,
				"element": "C" 
			},
			{
				"x": -3.1687990384,
				"y": -3.3516249571,
				"z": 1.2994156123,
				"element": "C" 
			},
			{
				"x": -2.2524669187,
				"y": -3.775426836,
				"z": 0.3361163708,
				"element": "C" 
			},
			{
				"x": -1.4030798842,
				"y": -2.8557211821,
				"z": -0.2807758564,
				"element": "C" 
			},
			{
				"x": -0.3938149628,
				"y": 2.6197427858,
				"z": -2.1236050997,
				"element": "C" 
			},
			{
				"x": -1.6969035055,
				"y": 2.979502693,
				"z": -2.1570793075,
				"element": "O" 
			},
			{
				"x": 0.4811988016,
				"y": 3.3249954261,
				"z": -2.5705851251,
				"element": "O" 
			},
			{
				"x": 3.4346836993,
				"y": -0.4028537654,
				"z": 0.1416703153,
				"element": "H" 
			},
			{
				"x": 2.3743492295,
				"y": -0.5335427779,
				"z": 1.552208234,
				"element": "H" 
			},
			{
				"x": 3.4149938366,
				"y": -1.8942451371,
				"z": 1.0929049872,
				"element": "H" 
			},
			{
				"x": 1.0738102647,
				"y": -2.340846359,
				"z": 0.4215173569,
				"element": "H" 
			},
			{
				"x": 2.8890949738,
				"y": -1.824448507,
				"z": -1.9986903559,
				"element": "H" 
			},
			{
				"x": 1.4898708655,
				"y": -2.9014235703,
				"z": -1.9953350312,
				"element": "H" 
			},
			{
				"x": 2.8979398037,
				"y": -3.2786326208,
				"z": -0.9864184026,
				"element": "H" 
			},
			{
				"x": 2.0624171781,
				"y": 0.9845815657,
				"z": -1.6070055945,
				"element": "H" 
			},
			{
				"x": -2.4184744687,
				"y": -0.0243657837,
				"z": 1.3093348804,
				"element": "H" 
			},
			{
				"x": -3.9503971695,
				"y": -1.6638082213,
				"z": 2.3923690614,
				"element": "H" 
			},
			{
				"x": -3.8324932091,
				"y": -4.0691351701,
				"z": 1.7721486482,
				"element": "H" 
			},
			{
				"x": -2.2063440509,
				"y": -4.8214449994,
				"z": 0.0487393085,
				"element": "H" 
			},
			{
				"x": -0.7185317045,
				"y": -3.1750335347,
				"z": -1.058879015,
				"element": "H" 
			},
			{
				"x": -2.2157023176,
				"y": 2.2608443475,
				"z": -1.7527876314,
				"element": "H" 
			}
		],
		 "valence_orbital": [ 
			{
				"type": "occ",
				"energy": -0.2912,
				"method": "rhf"
			},
			{
				"type": "occ",
				"energy": -0.27281,
				"method": "rhf"
			},
			{
				"type": "occ",
				"energy": -0.26263,
				"method": "rhf"
			},
			{
				"type": "occ",
				"energy": -0.25612,
				"method": "rhf"
			},
			{
				"type": "occ",
				"energy": -0.24938,
				"method": "rhf"
			},
			{
				"type": "unocc",
				"energy": -0.04126,
				"method": "rhf"
			},
			{
				"type": "unocc",
				"energy": -0.02407,
				"method": "rhf"
			},
			{
				"type": "unocc",
				"energy": -0.0139,
				"method": "rhf"
			},
			{
				"type": "unocc",
				"energy": 0.02225,
				"method": "rhf"
			},
			{
				"type": "unocc",
				"energy": 0.0655,
				"method": "rhf"
			}
		],
		"cosmo_sigma_profile": { 
			"-0.025": 0.0,
			"-0.024": 0.0,
			"-0.023": 0.0,
			"-0.022": 0.0,
			"-0.021": 0.0,
			"-0.02": 0.0,
			"-0.019": 0.0,
			"-0.018": 0.0,
			"-0.017": 0.0,
			"-0.016": 0.0,
			"-0.015": 0.115602888365,
			"-0.014": 0.446611209295,
			"-0.013": 0.493419604431,
			"-0.012": 0.404432936085,
			"-0.011": 0.727555005079,
			"-0.01": 0.956334059503,
			"-0.009": 0.547158834826,
			"-0.008": 0.688770289231,
			"-0.007": 5.47759128014,
			"-0.006": 14.3007202632,
			"-0.005": 17.2812432715,
			"-0.004": 19.9877184662,
			"-0.003": 29.7606747362,
			"-0.002": 26.4360784041,
			"-0.001": 23.8713352234,
			"0.0": 25.9805537056,
			"0.001": 23.8240153052,
			"0.002": 16.8149442428,
			"0.003": 16.3522269411,
			"0.004": 14.9850339976,
			"0.005": 5.43226923464,
			"0.006": 4.40009847905,
			"0.007": 3.62188258189,
			"0.008": 3.11010915897,
			"0.009": 3.44937170466,
			"0.01": 5.43556973206,
			"0.011": 5.09498959237,
			"0.012": 5.48819531538,
			"0.013": 1.99228980022,
			"0.014": 0.0765443281253,
			"0.015": 0.0,
			"0.016": 0.0,
			"0.017": 0.0,
			"0.018": 0.0,
			"0.019": 0.0,
			"0.02": 0.0,
			"0.021": 0.0,
			"0.022": 0.0,
			"0.023": 0.0,
			"0.024": 0.0,
			"0.025": 0.0
		}
	}
}
