{
	 "smiles": "CC1=C(C(=O)CBr)C2=C(N1)C=CC=C2", 
	 "Tm": 477.15, 
	 "num_atms": 24, 
	 "gaussian": { 
		 "optdone": 1, 
		 "sigma_profile": "yes", 
		 "theory": "DFT", 
		 "functional": "B3LYP", 
		 "basiset": "6-31G**", 
		 "properties": { 
			 "R2extent": 4675.9282, 
			 "electric_dipole_moment_norm": 4.49287608999, 
			 "electric_quadrupole_moment_norm": 9.21449610722, 
			 "total_energy": -3126.59417107, 
			 "HOMO_LUMO_gap": 0.16254, 
			 "cosmo_polarized_energy": -14.5, 
			 "cosmo_cavitation_energy": 29.53, 
			 "cosmo_dispersion_energy": -21.93, 
			 "cosmo_repulsion_energy": 1.71, 
			 "cosmo_total_nonelectrostatic_energy": 9.31, 
			 "SMD_solvation_energy": 4.03 
		},
		"coords": [
			{
				"x": 1.7261222147,
				"y": 1.6890968128,
				"z": -0.7855189778,
				"element": "C" 
			},
			{
				"x": 0.7907457012,
				"y": 0.5259914242,
				"z": -0.7760129472,
				"element": "C" 
			},
			{
				"x": -0.5912343285,
				"y": 0.4734260517,
				"z": -0.5665636717,
				"element": "C" 
			},
			{
				"x": -1.3737298503,
				"y": 1.6872614322,
				"z": -0.3609469305,
				"element": "C" 
			},
			{
				"x": -0.8598926234,
				"y": 2.8042190781,
				"z": -0.3077169504,
				"element": "O" 
			},
			{
				"x": -2.893830101,
				"y": 1.603509672,
				"z": -0.2636257529,
				"element": "C" 
			},
			{
				"x": -3.4550260527,
				"y": 1.076213365,
				"z": 1.5640719208,
				"element": "Br" 
			},
			{
				"x": -0.9813726159,
				"y": -0.9261132937,
				"z": -0.6698950674,
				"element": "C" 
			},
			{
				"x": 0.2036463157,
				"y": -1.6541681059,
				"z": -0.9535333802,
				"element": "C" 
			},
			{
				"x": 1.2463530203,
				"y": -0.739845711,
				"z": -1.0051502042,
				"element": "N" 
			},
			{
				"x": 0.2335078397,
				"y": -3.0376800404,
				"z": -1.1313209886,
				"element": "C" 
			},
			{
				"x": -0.9716430037,
				"y": -3.7222993191,
				"z": -1.0176931278,
				"element": "C" 
			},
			{
				"x": -2.1616243718,
				"y": -3.0328953648,
				"z": -0.7238369329,
				"element": "C" 
			},
			{
				"x": -2.179347955,
				"y": -1.6531017289,
				"z": -0.5453182952,
				"element": "C" 
			},
			{
				"x": 1.4101179186,
				"y": 2.4336091975,
				"z": -1.5209116307,
				"element": "H" 
			},
			{
				"x": 1.7172857573,
				"y": 2.201539118,
				"z": 0.1803450863,
				"element": "H" 
			},
			{
				"x": 2.7482750072,
				"y": 1.3684363752,
				"z": -1.011862932,
				"element": "H" 
			},
			{
				"x": -3.3361501459,
				"y": 0.8730550172,
				"z": -0.9400047633,
				"element": "H" 
			},
			{
				"x": -3.3085889782,
				"y": 2.5957601434,
				"z": -0.4227282298,
				"element": "H" 
			},
			{
				"x": 2.2113019954,
				"y": -0.9697967222,
				"z": -1.1878260753,
				"element": "H" 
			},
			{
				"x": 1.1618520464,
				"y": -3.5586628074,
				"z": -1.3479997867,
				"element": "H" 
			},
			{
				"x": -0.9917263423,
				"y": -4.7998103395,
				"z": -1.1491821095,
				"element": "H" 
			},
			{
				"x": -3.0878334577,
				"y": -3.591117316,
				"z": -0.6247541183,
				"element": "H" 
			},
			{
				"x": -3.1088079899,
				"y": -1.1640269384,
				"z": -0.2798141347,
				"element": "H" 
			}
		],
		 "valence_orbital": [ 
			{
				"type": "occ",
				"energy": -0.28125,
				"method": "rhf"
			},
			{
				"type": "occ",
				"energy": -0.26975,
				"method": "rhf"
			},
			{
				"type": "occ",
				"energy": -0.24261,
				"method": "rhf"
			},
			{
				"type": "occ",
				"energy": -0.23238,
				"method": "rhf"
			},
			{
				"type": "occ",
				"energy": -0.21444,
				"method": "rhf"
			},
			{
				"type": "unocc",
				"energy": -0.0519,
				"method": "rhf"
			},
			{
				"type": "unocc",
				"energy": -0.01532,
				"method": "rhf"
			},
			{
				"type": "unocc",
				"energy": 0.01535,
				"method": "rhf"
			},
			{
				"type": "unocc",
				"energy": 0.02272,
				"method": "rhf"
			},
			{
				"type": "unocc",
				"energy": 0.06546,
				"method": "rhf"
			}
		],
		"cosmo_sigma_profile": { 
			"-0.025": 0.0,
			"-0.024": 0.0,
			"-0.023": 0.0,
			"-0.022": 0.0,
			"-0.021": 0.0,
			"-0.02": 0.0,
			"-0.019": 0.0,
			"-0.018": 0.0,
			"-0.017": 0.143162831645,
			"-0.016": 1.27342806747,
			"-0.015": 1.57536596567,
			"-0.014": 1.20365266884,
			"-0.013": 1.60481281424,
			"-0.012": 1.68471701193,
			"-0.011": 1.416496643,
			"-0.01": 0.988533159333,
			"-0.009": 1.90137099166,
			"-0.008": 3.9736874002,
			"-0.007": 6.76580435616,
			"-0.006": 8.75755858748,
			"-0.005": 14.143112797,
			"-0.004": 16.844347206,
			"-0.003": 16.9208749661,
			"-0.002": 16.7240416649,
			"-0.001": 15.8083501447,
			"0.0": 10.5150342892,
			"0.001": 14.7978352534,
			"0.002": 16.0409254462,
			"0.003": 17.067232826,
			"0.004": 18.6660434081,
			"0.005": 22.1180359005,
			"0.006": 13.216088038,
			"0.007": 2.29709573215,
			"0.008": 1.485656041,
			"0.009": 1.97975240411,
			"0.01": 1.18356181357,
			"0.011": 1.74811982346,
			"0.012": 2.91748370186,
			"0.013": 2.37228975281,
			"0.014": 0.680625383497,
			"0.015": 0.0,
			"0.016": 0.0,
			"0.017": 0.0,
			"0.018": 0.0,
			"0.019": 0.0,
			"0.02": 0.0,
			"0.021": 0.0,
			"0.022": 0.0,
			"0.023": 0.0,
			"0.024": 0.0,
			"0.025": 0.0
		}
	}
}
