{
	 "smiles": "NC(=NO)C1=CC=CC(=C1)C(O)=O", 
	 "Tm": 469.15, 
	 "num_atms": 21, 
	 "gaussian": { 
		 "optdone": 1, 
		 "sigma_profile": "yes", 
		 "theory": "DFT", 
		 "functional": "B3LYP", 
		 "basiset": "6-31G**", 
		 "properties": { 
			 "R2extent": 2930.3364, 
			 "electric_dipole_moment_norm": 5.41878166473, 
			 "electric_quadrupole_moment_norm": 13.9752182895, 
			 "total_energy": -644.795395289, 
			 "HOMO_LUMO_gap": 0.16128, 
			 "cosmo_polarized_energy": -20.64, 
			 "cosmo_cavitation_energy": 26.13, 
			 "cosmo_dispersion_energy": -19.1, 
			 "cosmo_repulsion_energy": 1.54, 
			 "cosmo_total_nonelectrostatic_energy": 8.57, 
			 "SMD_solvation_energy": 5.55 
		},
		"coords": [
			{
				"x": 0.4012463195,
				"y": 2.9617909828,
				"z": -1.7209133682,
				"element": "N" 
			},
			{
				"x": -0.4372918665,
				"y": 1.8589710433,
				"z": -1.6171739664,
				"element": "C" 
			},
			{
				"x": -0.8208239305,
				"y": 1.3177891469,
				"z": -2.7248902226,
				"element": "N" 
			},
			{
				"x": -1.6063495053,
				"y": 0.151875451,
				"z": -2.5209908092,
				"element": "O" 
			},
			{
				"x": -0.7523089981,
				"y": 1.3975273499,
				"z": -0.2344420567,
				"element": "C" 
			},
			{
				"x": -1.1513911855,
				"y": 2.3161363863,
				"z": 0.7467486983,
				"element": "C" 
			},
			{
				"x": -1.4200593965,
				"y": 1.89578564,
				"z": 2.0510352574,
				"element": "C" 
			},
			{
				"x": -1.2983742802,
				"y": 0.5522100306,
				"z": 2.3904924758,
				"element": "C" 
			},
			{
				"x": -0.9286419085,
				"y": -0.3830532326,
				"z": 1.4141578212,
				"element": "C" 
			},
			{
				"x": -0.6466728732,
				"y": 0.044619742,
				"z": 0.1133726688,
				"element": "C" 
			},
			{
				"x": -0.8293773811,
				"y": -1.8227830641,
				"z": 1.8266974332,
				"element": "C" 
			},
			{
				"x": -0.9110780649,
				"y": -2.7472763426,
				"z": 0.8345076942,
				"element": "O" 
			},
			{
				"x": -0.6891246887,
				"y": -2.1741228236,
				"z": 2.9746100393,
				"element": "O" 
			},
			{
				"x": 0.4158727849,
				"y": 3.5978050781,
				"z": -0.9391622639,
				"element": "H" 
			},
			{
				"x": 0.400096021,
				"y": 3.4072400036,
				"z": -2.6287815778,
				"element": "H" 
			},
			{
				"x": -1.8480002598,
				"y": -0.0674079929,
				"z": -3.4296143494,
				"element": "H" 
			},
			{
				"x": -1.2722649294,
				"y": 3.3652050997,
				"z": 0.4898484476,
				"element": "H" 
			},
			{
				"x": -1.7268031683,
				"y": 2.6203381103,
				"z": 2.799145163,
				"element": "H" 
			},
			{
				"x": -1.4912329596,
				"y": 0.2015192001,
				"z": 3.3984839066,
				"element": "H" 
			},
			{
				"x": -0.3180178194,
				"y": -0.6528403165,
				"z": -0.6480985809,
				"element": "H" 
			},
			{
				"x": -1.18270191,
				"y": -2.3270294925,
				"z": 0.0060675896,
				"element": "H" 
			}
		],
		 "valence_orbital": [ 
			{
				"type": "occ",
				"energy": -0.28349,
				"method": "rhf"
			},
			{
				"type": "occ",
				"energy": -0.27419,
				"method": "rhf"
			},
			{
				"type": "occ",
				"energy": -0.27328,
				"method": "rhf"
			},
			{
				"type": "occ",
				"energy": -0.26687,
				"method": "rhf"
			},
			{
				"type": "occ",
				"energy": -0.21616,
				"method": "rhf"
			},
			{
				"type": "unocc",
				"energy": -0.05488,
				"method": "rhf"
			},
			{
				"type": "unocc",
				"energy": -0.03811,
				"method": "rhf"
			},
			{
				"type": "unocc",
				"energy": 0.02685,
				"method": "rhf"
			},
			{
				"type": "unocc",
				"energy": 0.05632,
				"method": "rhf"
			},
			{
				"type": "unocc",
				"energy": 0.05965,
				"method": "rhf"
			}
		],
		"cosmo_sigma_profile": { 
			"-0.025": 0.0,
			"-0.024": 0.0,
			"-0.023": 0.0,
			"-0.022": 0.0,
			"-0.021": 0.0,
			"-0.02": 0.0,
			"-0.019": 0.0,
			"-0.018": 0.00357375078654,
			"-0.017": 0.522465721212,
			"-0.016": 2.30715247935,
			"-0.015": 1.87167401946,
			"-0.014": 1.5775037837,
			"-0.013": 3.26535364979,
			"-0.012": 4.97714389015,
			"-0.011": 4.20487912828,
			"-0.01": 4.81253545034,
			"-0.009": 4.02376503198,
			"-0.008": 5.20649754022,
			"-0.007": 6.67621260172,
			"-0.006": 9.7910134357,
			"-0.005": 9.89926095213,
			"-0.004": 9.89275718495,
			"-0.003": 7.97441700939,
			"-0.002": 8.18434503145,
			"-0.001": 11.0797911742,
			"0.0": 10.631423005,
			"0.001": 10.6351437289,
			"0.002": 16.1482203762,
			"0.003": 11.2937616191,
			"0.004": 6.3628621118,
			"0.005": 5.10690653279,
			"0.006": 5.99525904021,
			"0.007": 6.82294764832,
			"0.008": 6.48830538052,
			"0.009": 7.73973914852,
			"0.01": 7.21746470045,
			"0.011": 7.87613878952,
			"0.012": 6.45831023656,
			"0.013": 2.35745369886,
			"0.014": 0.674763162854,
			"0.015": 0.0897150595595,
			"0.016": 0.0,
			"0.017": 0.0,
			"0.018": 0.0,
			"0.019": 0.0,
			"0.02": 0.0,
			"0.021": 0.0,
			"0.022": 0.0,
			"0.023": 0.0,
			"0.024": 0.0,
			"0.025": 0.0
		}
	}
}
