{
	 "smiles": "COC1=CC=C(NN=C2C(=O)OC(C)(C)OC2=O)C=C1", 
	 "Tm": 401.15, 
	 "num_atms": 34, 
	 "gaussian": { 
		 "optdone": 1, 
		 "sigma_profile": "yes", 
		 "theory": "DFT", 
		 "functional": "B3LYP", 
		 "basiset": "6-31G**", 
		 "properties": { 
			 "R2extent": 9008.4376, 
			 "electric_dipole_moment_norm": 2.91378124951, 
			 "electric_quadrupole_moment_norm": 25.8369151522, 
			 "total_energy": -989.426515857, 
			 "HOMO_LUMO_gap": 0.12971, 
			 "cosmo_polarized_energy": -17.91, 
			 "cosmo_cavitation_energy": 38.77, 
			 "cosmo_dispersion_energy": -28.03, 
			 "cosmo_repulsion_energy": 2.15, 
			 "cosmo_total_nonelectrostatic_energy": 12.88, 
			 "SMD_solvation_energy": 8.79 
		},
		"coords": [
			{
				"x": 3.2559985583,
				"y": -4.0495641336,
				"z": 3.2373994539,
				"element": "C" 
			},
			{
				"x": 2.4237416722,
				"y": -3.0077678214,
				"z": 3.7262487448,
				"element": "O" 
			},
			{
				"x": 1.7587290669,
				"y": -2.2333269742,
				"z": 2.8247513954,
				"element": "C" 
			},
			{
				"x": 0.9554864746,
				"y": -1.2185662602,
				"z": 3.368018285,
				"element": "C" 
			},
			{
				"x": 0.2363016262,
				"y": -0.3746471383,
				"z": 2.5352005349,
				"element": "C" 
			},
			{
				"x": 0.3092471293,
				"y": -0.5320865083,
				"z": 1.1434070118,
				"element": "C" 
			},
			{
				"x": -0.4367012633,
				"y": 0.3490351126,
				"z": 0.3357970999,
				"element": "N" 
			},
			{
				"x": -0.4178033802,
				"y": 0.2589674213,
				"z": -0.9570795098,
				"element": "N" 
			},
			{
				"x": -1.1328924988,
				"y": 1.0839421453,
				"z": -1.7059880632,
				"element": "C" 
			},
			{
				"x": -1.9779913074,
				"y": 2.1453239984,
				"z": -1.1561955195,
				"element": "C" 
			},
			{
				"x": -2.0376444541,
				"y": 2.4236285468,
				"z": 0.0376412742,
				"element": "O" 
			},
			{
				"x": -2.7081269794,
				"y": 2.870136809,
				"z": -2.0358384287,
				"element": "O" 
			},
			{
				"x": -2.9297130983,
				"y": 2.3380662496,
				"z": -3.3636907568,
				"element": "C" 
			},
			{
				"x": -3.299321301,
				"y": 3.5308049439,
				"z": -4.2276012236,
				"element": "C" 
			},
			{
				"x": -4.0211261247,
				"y": 1.2700738897,
				"z": -3.3016189845,
				"element": "C" 
			},
			{
				"x": -1.7331152674,
				"y": 1.7956218472,
				"z": -3.9178724908,
				"element": "O" 
			},
			{
				"x": -0.9511346794,
				"y": 0.9441005541,
				"z": -3.1663857422,
				"element": "C" 
			},
			{
				"x": -0.1604468149,
				"y": 0.222984719,
				"z": -3.7209251742,
				"element": "O" 
			},
			{
				"x": 1.1066430283,
				"y": -1.5399032204,
				"z": 0.595258904,
				"element": "C" 
			},
			{
				"x": 1.8291002117,
				"y": -2.3876956584,
				"z": 1.4323667913,
				"element": "C" 
			},
			{
				"x": 4.06735203,
				"y": -3.6582491118,
				"z": 2.6106540562,
				"element": "H" 
			},
			{
				"x": 3.6831041823,
				"y": -4.5308789188,
				"z": 4.1181751074,
				"element": "H" 
			},
			{
				"x": 2.6830430374,
				"y": -4.7893116699,
				"z": 2.6639793021,
				"element": "H" 
			},
			{
				"x": 0.9116927979,
				"y": -1.1116541696,
				"z": 4.4464104736,
				"element": "H" 
			},
			{
				"x": -0.3838429876,
				"y": 0.4090902058,
				"z": 2.9621310805,
				"element": "H" 
			},
			{
				"x": -0.9986849676,
				"y": 1.1015334095,
				"z": 0.7560887036,
				"element": "H" 
			},
			{
				"x": -2.4798116256,
				"y": 4.2523101004,
				"z": -4.2227724197,
				"element": "H" 
			},
			{
				"x": -3.4782480518,
				"y": 3.202065503,
				"z": -5.2536520617,
				"element": "H" 
			},
			{
				"x": -4.2008937463,
				"y": 4.009658048,
				"z": -3.8390014473,
				"element": "H" 
			},
			{
				"x": -4.2161228941,
				"y": 0.8863124786,
				"z": -4.3058282831,
				"element": "H" 
			},
			{
				"x": -4.9408544271,
				"y": 1.6981691456,
				"z": -2.8957602843,
				"element": "H" 
			},
			{
				"x": -3.7152305389,
				"y": 0.434135809,
				"z": -2.6663919048,
				"element": "H" 
			},
			{
				"x": 1.156888942,
				"y": -1.6502847706,
				"z": -0.4816974404,
				"element": "H" 
			},
			{
				"x": 2.442677651,
				"y": -3.1623245813,
				"z": 0.9886715163,
				"element": "H" 
			}
		],
		 "valence_orbital": [ 
			{
				"type": "occ",
				"energy": -0.2818,
				"method": "rhf"
			},
			{
				"type": "occ",
				"energy": -0.2746,
				"method": "rhf"
			},
			{
				"type": "occ",
				"energy": -0.26682,
				"method": "rhf"
			},
			{
				"type": "occ",
				"energy": -0.26544,
				"method": "rhf"
			},
			{
				"type": "occ",
				"energy": -0.21151,
				"method": "rhf"
			},
			{
				"type": "unocc",
				"energy": -0.0818,
				"method": "rhf"
			},
			{
				"type": "unocc",
				"energy": -0.01644,
				"method": "rhf"
			},
			{
				"type": "unocc",
				"energy": -0.00286,
				"method": "rhf"
			},
			{
				"type": "unocc",
				"energy": 0.01736,
				"method": "rhf"
			},
			{
				"type": "unocc",
				"energy": 0.08432,
				"method": "rhf"
			}
		],
		"cosmo_sigma_profile": { 
			"-0.025": 0.0,
			"-0.024": 0.0,
			"-0.023": 0.0,
			"-0.022": 0.0,
			"-0.021": 0.0,
			"-0.02": 0.0,
			"-0.019": 0.0,
			"-0.018": 0.0,
			"-0.017": 0.0,
			"-0.016": 0.0,
			"-0.015": 0.0,
			"-0.014": 0.0,
			"-0.013": 0.262265663303,
			"-0.012": 0.948611370799,
			"-0.011": 0.680668592752,
			"-0.01": 1.51561983259,
			"-0.009": 1.55409825326,
			"-0.008": 1.66737256577,
			"-0.007": 5.56519055708,
			"-0.006": 24.3216638555,
			"-0.005": 32.5289826435,
			"-0.004": 29.0118841668,
			"-0.003": 26.2931233576,
			"-0.002": 25.6636772896,
			"-0.001": 22.5696716736,
			"0.0": 15.9501472905,
			"0.001": 14.3106614965,
			"0.002": 15.8257459955,
			"0.003": 18.8089860001,
			"0.004": 12.546583504,
			"0.005": 5.85616849034,
			"0.006": 7.16907060022,
			"0.007": 6.12297565034,
			"0.008": 6.43792152801,
			"0.009": 7.00330711177,
			"0.01": 7.61495492826,
			"0.011": 7.77917028257,
			"0.012": 7.16827270532,
			"0.013": 3.44692630231,
			"0.014": 0.16433472819,
			"0.015": 0.0,
			"0.016": 0.0,
			"0.017": 0.0,
			"0.018": 0.0,
			"0.019": 0.0,
			"0.02": 0.0,
			"0.021": 0.0,
			"0.022": 0.0,
			"0.023": 0.0,
			"0.024": 0.0,
			"0.025": 0.0
		}
	}
}
