{
	 "smiles": "OC1=CC(Cl)=CC(Cl)=C1O", 
	 "Tm": 355.65, 
	 "num_atms": 14, 
	 "gaussian": { 
		 "optdone": 1, 
		 "sigma_profile": "yes", 
		 "theory": "DFT", 
		 "functional": "B3LYP", 
		 "basiset": "6-31G**", 
		 "properties": { 
			 "R2extent": 2572.8496, 
			 "electric_dipole_moment_norm": 3.79105169841, 
			 "electric_quadrupole_moment_norm": 10.2290129196, 
			 "total_energy": -1301.86931024, 
			 "HOMO_LUMO_gap": 0.20562, 
			 "cosmo_polarized_energy": -11.66, 
			 "cosmo_cavitation_energy": 22.16, 
			 "cosmo_dispersion_energy": -17.08, 
			 "cosmo_repulsion_energy": 1.39, 
			 "cosmo_total_nonelectrostatic_energy": 6.47, 
			 "SMD_solvation_energy": 3.97 
		},
		"coords": [
			{
				"x": -2.1408641301,
				"y": -1.0420958468,
				"z": 0.7495459492,
				"element": "O" 
			},
			{
				"x": -1.4001007362,
				"y": 0.063165717,
				"z": 0.4124630792,
				"element": "C" 
			},
			{
				"x": -1.9350941383,
				"y": 1.2378033466,
				"z": -0.1028968333,
				"element": "C" 
			},
			{
				"x": -1.0694743599,
				"y": 2.2917535801,
				"z": -0.4054592756,
				"element": "C" 
			},
			{
				"x": -1.7359329446,
				"y": 3.7806461417,
				"z": -1.0573638158,
				"element": "Cl" 
			},
			{
				"x": 0.3013029272,
				"y": 2.1867122349,
				"z": -0.2022086805,
				"element": "C" 
			},
			{
				"x": 0.8159907604,
				"y": 0.9948960207,
				"z": 0.3173639827,
				"element": "C" 
			},
			{
				"x": 2.5355963653,
				"y": 0.8410354864,
				"z": 0.580881994,
				"element": "Cl" 
			},
			{
				"x": -0.0168360661,
				"y": -0.080855212,
				"z": 0.632189288,
				"element": "C" 
			},
			{
				"x": 0.4873953532,
				"y": -1.2328350237,
				"z": 1.1351590836,
				"element": "O" 
			},
			{
				"x": -3.0771474188,
				"y": -0.8836676203,
				"z": 0.5772662718,
				"element": "H" 
			},
			{
				"x": -3.0031529851,
				"y": 1.3371039054,
				"z": -0.2679694383,
				"element": "H" 
			},
			{
				"x": 0.9660932173,
				"y": 3.0074328377,
				"z": -0.4389252435,
				"element": "H" 
			},
			{
				"x": -0.2558758446,
				"y": -1.8380955676,
				"z": 1.2796536386,
				"element": "H" 
			}
		],
		 "valence_orbital": [ 
			{
				"type": "occ",
				"energy": -0.32193,
				"method": "rhf"
			},
			{
				"type": "occ",
				"energy": -0.31154,
				"method": "rhf"
			},
			{
				"type": "occ",
				"energy": -0.30457,
				"method": "rhf"
			},
			{
				"type": "occ",
				"energy": -0.24986,
				"method": "rhf"
			},
			{
				"type": "occ",
				"energy": -0.22423,
				"method": "rhf"
			},
			{
				"type": "unocc",
				"energy": -0.01861,
				"method": "rhf"
			},
			{
				"type": "unocc",
				"energy": -0.0067,
				"method": "rhf"
			},
			{
				"type": "unocc",
				"energy": 0.00493,
				"method": "rhf"
			},
			{
				"type": "unocc",
				"energy": 0.03549,
				"method": "rhf"
			},
			{
				"type": "unocc",
				"energy": 0.05828,
				"method": "rhf"
			}
		],
		"cosmo_sigma_profile": { 
			"-0.025": 0.0,
			"-0.024": 0.0,
			"-0.023": 0.0,
			"-0.022": 0.0,
			"-0.021": 0.0,
			"-0.02": 0.127109172487,
			"-0.019": 0.910818863329,
			"-0.018": 1.14523767105,
			"-0.017": 1.19586438754,
			"-0.016": 1.37541453799,
			"-0.015": 1.6739490871,
			"-0.014": 1.35311639887,
			"-0.013": 1.20043524864,
			"-0.012": 1.79429911,
			"-0.011": 1.92983660929,
			"-0.01": 2.50778565343,
			"-0.009": 1.56889464671,
			"-0.008": 3.31165990196,
			"-0.007": 3.16570531736,
			"-0.006": 3.53083173416,
			"-0.005": 4.43117866972,
			"-0.004": 4.96890385921,
			"-0.003": 4.97039093139,
			"-0.002": 7.72520035732,
			"-0.001": 8.64586810187,
			"0.0": 13.9965282574,
			"0.001": 22.9035826905,
			"0.002": 24.1634677825,
			"0.003": 18.5049696573,
			"0.004": 20.1042705455,
			"0.005": 11.5411541711,
			"0.006": 4.02530062709,
			"0.007": 2.22020462398,
			"0.008": 1.89058408354,
			"0.009": 1.91434146323,
			"0.01": 2.14870671772,
			"0.011": 1.14762247771,
			"0.012": 0.0,
			"0.013": 0.0,
			"0.014": 0.0,
			"0.015": 0.0,
			"0.016": 0.0,
			"0.017": 0.0,
			"0.018": 0.0,
			"0.019": 0.0,
			"0.02": 0.0,
			"0.021": 0.0,
			"0.022": 0.0,
			"0.023": 0.0,
			"0.024": 0.0,
			"0.025": 0.0
		}
	}
}
