{
	 "smiles": "NC1=CC(=NN1)C1=CC(=CC=C1)[N+]([O-])=O", 
	 "Tm": 411.15, 
	 "num_atms": 23, 
	 "gaussian": { 
		 "optdone": 1, 
		 "sigma_profile": "yes", 
		 "theory": "DFT", 
		 "functional": "B3LYP", 
		 "basiset": "6-31G**", 
		 "properties": { 
			 "R2extent": 4355.1216, 
			 "electric_dipole_moment_norm": 6.64978553414, 
			 "electric_quadrupole_moment_norm": 19.7358792414, 
			 "total_energy": -717.117376202, 
			 "HOMO_LUMO_gap": 0.13856, 
			 "cosmo_polarized_energy": -18.14, 
			 "cosmo_cavitation_energy": 28.72, 
			 "cosmo_dispersion_energy": -21.3, 
			 "cosmo_repulsion_energy": 1.66, 
			 "cosmo_total_nonelectrostatic_energy": 9.08, 
			 "SMD_solvation_energy": 6.29 
		},
		"coords": [
			{
				"x": -3.9258820401,
				"y": 3.5950510736,
				"z": -1.1404325957,
				"element": "N" 
			},
			{
				"x": -3.0994370355,
				"y": 2.728669502,
				"z": -0.4237681616,
				"element": "C" 
			},
			{
				"x": -1.834752421,
				"y": 2.2239577496,
				"z": -0.6680916787,
				"element": "C" 
			},
			{
				"x": -1.5163289267,
				"y": 1.4620714585,
				"z": 0.4904985314,
				"element": "C" 
			},
			{
				"x": -2.5101331307,
				"y": 1.4866254964,
				"z": 1.382270499,
				"element": "N" 
			},
			{
				"x": -3.4592177444,
				"y": 2.26390524,
				"z": 0.8054713246,
				"element": "N" 
			},
			{
				"x": -0.2925943528,
				"y": 0.6939500998,
				"z": 0.7696828444,
				"element": "C" 
			},
			{
				"x": 0.7819428293,
				"y": 0.7002090383,
				"z": -0.1274413524,
				"element": "C" 
			},
			{
				"x": 1.9245429034,
				"y": -0.0375273348,
				"z": 0.1698834078,
				"element": "C" 
			},
			{
				"x": 2.0489448616,
				"y": -0.7895661243,
				"z": 1.3356027915,
				"element": "C" 
			},
			{
				"x": 0.9765495878,
				"y": -0.7918037556,
				"z": 2.2272916285,
				"element": "C" 
			},
			{
				"x": -0.1781424124,
				"y": -0.0630062074,
				"z": 1.9506425106,
				"element": "C" 
			},
			{
				"x": 3.0431595249,
				"y": -0.0195511457,
				"z": -0.7870562657,
				"element": "N" 
			},
			{
				"x": 2.911145137,
				"y": 0.6495467063,
				"z": -1.8124975376,
				"element": "O" 
			},
			{
				"x": 4.0465078122,
				"y": -0.6752278688,
				"z": -0.5070187522,
				"element": "O" 
			},
			{
				"x": -4.8714544066,
				"y": 3.2494640947,
				"z": -1.2655329028,
				"element": "H" 
			},
			{
				"x": -3.5308539497,
				"y": 3.8407005202,
				"z": -2.039068124,
				"element": "H" 
			},
			{
				"x": -1.247112236,
				"y": 2.3681572426,
				"z": -1.5617672947,
				"element": "H" 
			},
			{
				"x": -4.2834754216,
				"y": 2.5088054337,
				"z": 1.3316466955,
				"element": "H" 
			},
			{
				"x": 0.7544373262,
				"y": 1.266233161,
				"z": -1.0492849061,
				"element": "H" 
			},
			{
				"x": 2.9585295754,
				"y": -1.3460890419,
				"z": 1.5210958722,
				"element": "H" 
			},
			{
				"x": 1.0431808189,
				"y": -1.3683356145,
				"z": 3.1447413339,
				"element": "H" 
			},
			{
				"x": -1.011956299,
				"y": -0.0666397233,
				"z": 2.6440321321,
				"element": "H" 
			}
		],
		 "valence_orbital": [ 
			{
				"type": "occ",
				"energy": -0.29325,
				"method": "rhf"
			},
			{
				"type": "occ",
				"energy": -0.283,
				"method": "rhf"
			},
			{
				"type": "occ",
				"energy": -0.27118,
				"method": "rhf"
			},
			{
				"type": "occ",
				"energy": -0.23799,
				"method": "rhf"
			},
			{
				"type": "occ",
				"energy": -0.21921,
				"method": "rhf"
			},
			{
				"type": "unocc",
				"energy": -0.08065,
				"method": "rhf"
			},
			{
				"type": "unocc",
				"energy": -0.03244,
				"method": "rhf"
			},
			{
				"type": "unocc",
				"energy": 0.0032,
				"method": "rhf"
			},
			{
				"type": "unocc",
				"energy": 0.03502,
				"method": "rhf"
			},
			{
				"type": "unocc",
				"energy": 0.0566,
				"method": "rhf"
			}
		],
		"cosmo_sigma_profile": { 
			"-0.025": 0.0,
			"-0.024": 0.0,
			"-0.023": 0.0,
			"-0.022": 0.0,
			"-0.021": 0.0,
			"-0.02": 0.0,
			"-0.019": 0.0,
			"-0.018": 0.0,
			"-0.017": 0.144090950058,
			"-0.016": 1.58006288897,
			"-0.015": 1.15172028318,
			"-0.014": 1.45423181187,
			"-0.013": 4.58455183699,
			"-0.012": 4.34167893599,
			"-0.011": 3.1851715727,
			"-0.01": 4.20273880609,
			"-0.009": 3.47009696912,
			"-0.008": 4.37595521255,
			"-0.007": 7.7126678968,
			"-0.006": 11.0920219753,
			"-0.005": 11.0484729411,
			"-0.004": 9.6463015005,
			"-0.003": 8.28345737988,
			"-0.002": 9.81481979044,
			"-0.001": 13.9244353299,
			"0.0": 12.1883209123,
			"0.001": 16.207479938,
			"0.002": 21.0542861125,
			"0.003": 11.8327756221,
			"0.004": 10.8570091929,
			"0.005": 10.7732331588,
			"0.006": 8.04730199152,
			"0.007": 10.3945996052,
			"0.008": 10.1807313382,
			"0.009": 7.10906041059,
			"0.01": 4.39212709354,
			"0.011": 1.55749209831,
			"0.012": 2.46611007017,
			"0.013": 1.68517299628,
			"0.014": 1.20197420637,
			"0.015": 0.148727734857,
			"0.016": 0.0,
			"0.017": 0.0,
			"0.018": 0.0,
			"0.019": 0.0,
			"0.02": 0.0,
			"0.021": 0.0,
			"0.022": 0.0,
			"0.023": 0.0,
			"0.024": 0.0,
			"0.025": 0.0
		}
	}
}
