{
	 "smiles": "SC1=NN=NN1C1CC1", 
	 "Tm": 401.15, 
	 "num_atms": 15, 
	 "gaussian": { 
		 "optdone": 1, 
		 "sigma_profile": "yes", 
		 "theory": "DFT", 
		 "functional": "B3LYP", 
		 "basiset": "6-31G**", 
		 "properties": { 
			 "R2extent": 2055.7967, 
			 "electric_dipole_moment_norm": 5.09355477933, 
			 "electric_quadrupole_moment_norm": 11.2190562749, 
			 "total_energy": -773.130999191, 
			 "HOMO_LUMO_gap": 0.24322, 
			 "cosmo_polarized_energy": -12.45, 
			 "cosmo_cavitation_energy": 20.53, 
			 "cosmo_dispersion_energy": -15.91, 
			 "cosmo_repulsion_energy": 1.24, 
			 "cosmo_total_nonelectrostatic_energy": 5.86, 
			 "SMD_solvation_energy": 0.89 
		},
		"coords": [
			{
				"x": -1.9234625174,
				"y": 2.538023137,
				"z": -1.2956300938,
				"element": "S" 
			},
			{
				"x": -1.8720148168,
				"y": 1.2643454044,
				"z": -0.0796318336,
				"element": "C" 
			},
			{
				"x": -2.3466377099,
				"y": 1.3841357941,
				"z": 1.1511212206,
				"element": "N" 
			},
			{
				"x": -2.111621694,
				"y": 0.1922453856,
				"z": 1.7536719492,
				"element": "N" 
			},
			{
				"x": -1.5249514596,
				"y": -0.6310998241,
				"z": 0.9549840813,
				"element": "N" 
			},
			{
				"x": -1.3546866614,
				"y": 0.0232583339,
				"z": -0.2328166051,
				"element": "N" 
			},
			{
				"x": -0.7112398779,
				"y": -0.6890862131,
				"z": -1.3118350689,
				"element": "C" 
			},
			{
				"x": -1.1197571529,
				"y": -0.5231534825,
				"z": -2.7504744868,
				"element": "C" 
			},
			{
				"x": 0.2280654511,
				"y": -0.0202785661,
				"z": -2.2785529949,
				"element": "C" 
			},
			{
				"x": -2.5351157856,
				"y": 3.3968247527,
				"z": -0.4578465089,
				"element": "H" 
			},
			{
				"x": -0.4640522754,
				"y": -1.6827851665,
				"z": -0.9589165479,
				"element": "H" 
			},
			{
				"x": -1.1698587552,
				"y": -1.4224622671,
				"z": -3.3559602508,
				"element": "H" 
			},
			{
				"x": -1.8762495323,
				"y": 0.2173923144,
				"z": -2.9888155814,
				"element": "H" 
			},
			{
				"x": 0.3649441133,
				"y": 1.0536008296,
				"z": -2.2040276614,
				"element": "H" 
			},
			{
				"x": 1.1252386742,
				"y": -0.5661604324,
				"z": -2.5523696175,
				"element": "H" 
			}
		],
		 "valence_orbital": [ 
			{
				"type": "occ",
				"energy": -0.33734,
				"method": "rhf"
			},
			{
				"type": "occ",
				"energy": -0.29718,
				"method": "rhf"
			},
			{
				"type": "occ",
				"energy": -0.28952,
				"method": "rhf"
			},
			{
				"type": "occ",
				"energy": -0.28556,
				"method": "rhf"
			},
			{
				"type": "occ",
				"energy": -0.25961,
				"method": "rhf"
			},
			{
				"type": "unocc",
				"energy": -0.01639,
				"method": "rhf"
			},
			{
				"type": "unocc",
				"energy": -0.01102,
				"method": "rhf"
			},
			{
				"type": "unocc",
				"energy": 0.01967,
				"method": "rhf"
			},
			{
				"type": "unocc",
				"energy": 0.04036,
				"method": "rhf"
			},
			{
				"type": "unocc",
				"energy": 0.06746,
				"method": "rhf"
			}
		],
		"cosmo_sigma_profile": { 
			"-0.025": 0.0,
			"-0.024": 0.0,
			"-0.023": 0.0,
			"-0.022": 0.0,
			"-0.021": 0.0,
			"-0.02": 0.0,
			"-0.019": 0.0,
			"-0.018": 0.0,
			"-0.017": 0.0,
			"-0.016": 0.0,
			"-0.015": 0.0,
			"-0.014": 0.0970834821764,
			"-0.013": 1.35584048067,
			"-0.012": 1.61240898677,
			"-0.011": 1.06326994477,
			"-0.01": 1.20258978585,
			"-0.009": 1.92049321943,
			"-0.008": 2.79748962722,
			"-0.007": 5.6858030563,
			"-0.006": 9.02181930691,
			"-0.005": 10.1669093571,
			"-0.004": 13.8696865336,
			"-0.003": 14.4155867149,
			"-0.002": 14.2358741461,
			"-0.001": 13.9984663204,
			"0.0": 12.8908608847,
			"0.001": 9.12727880696,
			"0.002": 6.70649638134,
			"0.003": 5.98925699969,
			"0.004": 4.43433888256,
			"0.005": 4.07060304026,
			"0.006": 2.93500969358,
			"0.007": 3.54703811941,
			"0.008": 5.57829262154,
			"0.009": 4.59277053903,
			"0.01": 4.48934668351,
			"0.011": 4.75023454099,
			"0.012": 2.78275506945,
			"0.013": 2.11236846406,
			"0.014": 1.23998838191,
			"0.015": 0.10248214684,
			"0.016": 0.0,
			"0.017": 0.0,
			"0.018": 0.0,
			"0.019": 0.0,
			"0.02": 0.0,
			"0.021": 0.0,
			"0.022": 0.0,
			"0.023": 0.0,
			"0.024": 0.0,
			"0.025": 0.0
		}
	}
}
