{
	 "smiles": "OCC1CC2=C(O1)C=CC(Br)=C2", 
	 "Tm": 337.15, 
	 "num_atms": 21, 
	 "gaussian": { 
		 "optdone": 1, 
		 "sigma_profile": "yes", 
		 "theory": "DFT", 
		 "functional": "B3LYP", 
		 "basiset": "6-31G**", 
		 "properties": { 
			 "R2extent": 4592.2218, 
			 "electric_dipole_moment_norm": 3.15121365509, 
			 "electric_quadrupole_moment_norm": 8.69646271251, 
			 "total_energy": -3070.21791597, 
			 "HOMO_LUMO_gap": 0.19834, 
			 "cosmo_polarized_energy": -10.15, 
			 "cosmo_cavitation_energy": 26.75, 
			 "cosmo_dispersion_energy": -20.31, 
			 "cosmo_repulsion_energy": 1.64, 
			 "cosmo_total_nonelectrostatic_energy": 8.08, 
			 "SMD_solvation_energy": 3.23 
		},
		"coords": [
			{
				"x": -0.4709204075,
				"y": 2.6075055799,
				"z": -3.1004621012,
				"element": "O" 
			},
			{
				"x": -0.3698227422,
				"y": 2.3594059151,
				"z": -1.7067157278,
				"element": "C" 
			},
			{
				"x": 0.8450202245,
				"y": 1.4870261401,
				"z": -1.3702460312,
				"element": "C" 
			},
			{
				"x": 0.7714196245,
				"y": 0.0755740375,
				"z": -2.0073576841,
				"element": "C" 
			},
			{
				"x": 0.4004446043,
				"y": -0.7788791913,
				"z": -0.8177366147,
				"element": "C" 
			},
			{
				"x": 0.5062096656,
				"y": 0.0078724391,
				"z": 0.3323451375,
				"element": "C" 
			},
			{
				"x": 0.8718238843,
				"y": 1.2991020179,
				"z": 0.0734844476,
				"element": "O" 
			},
			{
				"x": 0.2660722523,
				"y": -0.5019205169,
				"z": 1.6031882462,
				"element": "C" 
			},
			{
				"x": -0.095428192,
				"y": -1.8497004149,
				"z": 1.7068639257,
				"element": "C" 
			},
			{
				"x": -0.2070774187,
				"y": -2.6362340401,
				"z": 0.560127598,
				"element": "C" 
			},
			{
				"x": -0.7103296394,
				"y": -4.4760719334,
				"z": 0.7335590427,
				"element": "Br" 
			},
			{
				"x": 0.0398612576,
				"y": -2.1161249127,
				"z": -0.7153908415,
				"element": "C" 
			},
			{
				"x": 0.2371018538,
				"y": 3.215136436,
				"z": -3.3509390946,
				"element": "H" 
			},
			{
				"x": -0.326761103,
				"y": 3.2863613767,
				"z": -1.1178483251,
				"element": "H" 
			},
			{
				"x": -1.2827347232,
				"y": 1.8268428671,
				"z": -1.4202542839,
				"element": "H" 
			},
			{
				"x": 1.7671732258,
				"y": 2.015716974,
				"z": -1.6366923111,
				"element": "H" 
			},
			{
				"x": 1.7354224803,
				"y": -0.2299798939,
				"z": -2.4312377622,
				"element": "H" 
			},
			{
				"x": 0.0379221903,
				"y": 0.0571031172,
				"z": -2.8192695531,
				"element": "H" 
			},
			{
				"x": 0.3535403354,
				"y": 0.1262822921,
				"z": 2.4827291817,
				"element": "H" 
			},
			{
				"x": -0.2935565307,
				"y": -2.2844664049,
				"z": 2.6798462652,
				"element": "H" 
			},
			{
				"x": -0.048780842,
				"y": -2.7483518845,
				"z": -1.5920935142,
				"element": "H" 
			}
		],
		 "valence_orbital": [ 
			{
				"type": "occ",
				"energy": -0.29327,
				"method": "rhf"
			},
			{
				"type": "occ",
				"energy": -0.28144,
				"method": "rhf"
			},
			{
				"type": "occ",
				"energy": -0.27675,
				"method": "rhf"
			},
			{
				"type": "occ",
				"energy": -0.25795,
				"method": "rhf"
			},
			{
				"type": "occ",
				"energy": -0.21348,
				"method": "rhf"
			},
			{
				"type": "unocc",
				"energy": -0.01514,
				"method": "rhf"
			},
			{
				"type": "unocc",
				"energy": 0.00317,
				"method": "rhf"
			},
			{
				"type": "unocc",
				"energy": 0.01204,
				"method": "rhf"
			},
			{
				"type": "unocc",
				"energy": 0.05746,
				"method": "rhf"
			},
			{
				"type": "unocc",
				"energy": 0.09089,
				"method": "rhf"
			}
		],
		"cosmo_sigma_profile": { 
			"-0.025": 0.0,
			"-0.024": 0.0,
			"-0.023": 0.0,
			"-0.022": 0.0,
			"-0.021": 0.0,
			"-0.02": 0.0,
			"-0.019": 0.0,
			"-0.018": 0.0,
			"-0.017": 0.00270875216847,
			"-0.016": 0.974356771286,
			"-0.015": 1.10665395258,
			"-0.014": 0.956647573585,
			"-0.013": 1.20570181084,
			"-0.012": 0.838290574895,
			"-0.011": 1.00476637672,
			"-0.01": 1.34731788901,
			"-0.009": 1.25240893403,
			"-0.008": 1.13968583275,
			"-0.007": 4.81782388423,
			"-0.006": 9.79315755401,
			"-0.005": 13.8445994188,
			"-0.004": 18.0246400696,
			"-0.003": 16.5737904256,
			"-0.002": 15.8597901771,
			"-0.001": 11.8260731071,
			"0.0": 11.7338708943,
			"0.001": 11.8395484198,
			"0.002": 15.8611611611,
			"0.003": 21.1350727389,
			"0.004": 20.8571587245,
			"0.005": 13.5382929359,
			"0.006": 4.21545044753,
			"0.007": 2.30272040921,
			"0.008": 1.83842206519,
			"0.009": 2.55558694232,
			"0.01": 2.49650211368,
			"0.011": 2.09761689589,
			"0.012": 1.41729911995,
			"0.013": 1.58202450757,
			"0.014": 1.29418611024,
			"0.015": 0.00860976845785,
			"0.016": 0.0,
			"0.017": 0.0,
			"0.018": 0.0,
			"0.019": 0.0,
			"0.02": 0.0,
			"0.021": 0.0,
			"0.022": 0.0,
			"0.023": 0.0,
			"0.024": 0.0,
			"0.025": 0.0
		}
	}
}
