{
	 "smiles": "OC(=O)C1=CC=C(CN2C=NC=N2)C=C1", 
	 "Tm": 501.15, 
	 "num_atms": 24, 
	 "gaussian": { 
		 "optdone": 1, 
		 "sigma_profile": "yes", 
		 "theory": "DFT", 
		 "functional": "B3LYP", 
		 "basiset": "6-31G**", 
		 "properties": { 
			 "R2extent": 4649.4135, 
			 "electric_dipole_moment_norm": 2.80861835606, 
			 "electric_quadrupole_moment_norm": 32.6408223721, 
			 "total_energy": -701.18032908, 
			 "HOMO_LUMO_gap": 0.20715, 
			 "cosmo_polarized_energy": -21.39, 
			 "cosmo_cavitation_energy": 29.38, 
			 "cosmo_dispersion_energy": -21.16, 
			 "cosmo_repulsion_energy": 1.63, 
			 "cosmo_total_nonelectrostatic_energy": 9.85, 
			 "SMD_solvation_energy": 4.27 
		},
		"coords": [
			{
				"x": -2.8515969983,
				"y": -1.9525368923,
				"z": 2.5201710751,
				"element": "O" 
			},
			{
				"x": -1.640877374,
				"y": -1.3519958145,
				"z": 2.6671719687,
				"element": "C" 
			},
			{
				"x": -1.2575830586,
				"y": -1.0251718356,
				"z": 3.7656069591,
				"element": "O" 
			},
			{
				"x": -0.8397395011,
				"y": -1.1280218584,
				"z": 1.4185281511,
				"element": "C" 
			},
			{
				"x": 0.1815205835,
				"y": -0.1719230435,
				"z": 1.4660235152,
				"element": "C" 
			},
			{
				"x": 0.9579638761,
				"y": 0.0811603571,
				"z": 0.338587571,
				"element": "C" 
			},
			{
				"x": 0.7469332932,
				"y": -0.6304008491,
				"z": -0.8484434302,
				"element": "C" 
			},
			{
				"x": 1.6263094392,
				"y": -0.3720859499,
				"z": -2.0596921716,
				"element": "C" 
			},
			{
				"x": 0.8807759462,
				"y": -0.1554209236,
				"z": -3.2942505028,
				"element": "N" 
			},
			{
				"x": 0.4319007762,
				"y": 0.9980732433,
				"z": -3.8414063312,
				"element": "C" 
			},
			{
				"x": -0.2595650614,
				"y": 0.7518420418,
				"z": -4.9412286105,
				"element": "N" 
			},
			{
				"x": -0.2105969655,
				"y": -0.606709627,
				"z": -5.0203311738,
				"element": "C" 
			},
			{
				"x": 0.4656241307,
				"y": -1.2071959906,
				"z": -4.0497673236,
				"element": "N" 
			},
			{
				"x": -0.2574906177,
				"y": -1.6060701297,
				"z": -0.8898920699,
				"element": "C" 
			},
			{
				"x": -1.0452451078,
				"y": -1.848506514,
				"z": 0.2323060315,
				"element": "C" 
			},
			{
				"x": -3.0894660305,
				"y": -2.0057073947,
				"z": 1.5842837864,
				"element": "H" 
			},
			{
				"x": 0.3449325475,
				"y": 0.3654634064,
				"z": 2.3938086429,
				"element": "H" 
			},
			{
				"x": 1.7378722507,
				"y": 0.8372055442,
				"z": 0.383383624,
				"element": "H" 
			},
			{
				"x": 2.2879822474,
				"y": -1.2233140964,
				"z": -2.2452230359,
				"element": "H" 
			},
			{
				"x": 2.2545315432,
				"y": 0.5065685602,
				"z": -1.8909039491,
				"element": "H" 
			},
			{
				"x": 0.6371830066,
				"y": 1.9708981041,
				"z": -3.4157135384,
				"element": "H" 
			},
			{
				"x": -0.6768003673,
				"y": -1.1702945888,
				"z": -5.8167846705,
				"element": "H" 
			},
			{
				"x": -0.4165860033,
				"y": -2.1696523213,
				"z": -1.8038652441,
				"element": "H" 
			},
			{
				"x": -1.7934825549,
				"y": -2.6361034277,
				"z": 0.1816307264,
				"element": "H" 
			}
		],
		 "valence_orbital": [ 
			{
				"type": "occ",
				"energy": -0.28637,
				"method": "rhf"
			},
			{
				"type": "occ",
				"energy": -0.28086,
				"method": "rhf"
			},
			{
				"type": "occ",
				"energy": -0.28041,
				"method": "rhf"
			},
			{
				"type": "occ",
				"energy": -0.27561,
				"method": "rhf"
			},
			{
				"type": "occ",
				"energy": -0.26783,
				"method": "rhf"
			},
			{
				"type": "unocc",
				"energy": -0.06068,
				"method": "rhf"
			},
			{
				"type": "unocc",
				"energy": -0.03174,
				"method": "rhf"
			},
			{
				"type": "unocc",
				"energy": -0.00484,
				"method": "rhf"
			},
			{
				"type": "unocc",
				"energy": 0.03681,
				"method": "rhf"
			},
			{
				"type": "unocc",
				"energy": 0.0449,
				"method": "rhf"
			}
		],
		"cosmo_sigma_profile": { 
			"-0.025": 0.0,
			"-0.024": 0.0,
			"-0.023": 0.0,
			"-0.022": 0.0,
			"-0.021": 0.0,
			"-0.02": 0.0,
			"-0.019": 0.148359329759,
			"-0.018": 1.09806279281,
			"-0.017": 0.876943136145,
			"-0.016": 1.10321992534,
			"-0.015": 0.745683745403,
			"-0.014": 0.844491798352,
			"-0.013": 0.817215239341,
			"-0.012": 1.57314495989,
			"-0.011": 2.21384679197,
			"-0.01": 4.76258362463,
			"-0.009": 4.86822744676,
			"-0.008": 10.396024001,
			"-0.007": 10.7910711622,
			"-0.006": 12.2473049972,
			"-0.005": 13.6812479468,
			"-0.004": 11.9149663842,
			"-0.003": 10.7016799963,
			"-0.002": 11.9066288359,
			"-0.001": 12.4186398343,
			"0.0": 13.7450799971,
			"0.001": 15.2594997417,
			"0.002": 17.4537196211,
			"0.003": 16.3932794322,
			"0.004": 6.64963800047,
			"0.005": 5.08227191906,
			"0.006": 4.14472641842,
			"0.007": 6.25313286687,
			"0.008": 4.90380362759,
			"0.009": 4.36840698037,
			"0.01": 7.78770827751,
			"0.011": 6.75993435205,
			"0.012": 6.90871166957,
			"0.013": 3.56547073721,
			"0.014": 1.46968395169,
			"0.015": 0.827878804919,
			"0.016": 1.22933388714,
			"0.017": 0.226922466736,
			"0.018": 0.0,
			"0.019": 0.0,
			"0.02": 0.0,
			"0.021": 0.0,
			"0.022": 0.0,
			"0.023": 0.0,
			"0.024": 0.0,
			"0.025": 0.0
		}
	}
}
