{
	 "smiles": "NC(=O)CN1C=NC2=C1C=CC(=C2)C(O)=O", 
	 "Tm": 572.15, 
	 "num_atms": 25, 
	 "gaussian": { 
		 "optdone": 1, 
		 "sigma_profile": "yes", 
		 "theory": "DFT", 
		 "functional": "B3LYP", 
		 "basiset": "6-31G**", 
		 "properties": { 
			 "R2extent": 4670.2655, 
			 "electric_dipole_moment_norm": 5.0457825726, 
			 "electric_quadrupole_moment_norm": 36.1175842609, 
			 "total_energy": -776.443407357, 
			 "HOMO_LUMO_gap": 0.19878, 
			 "cosmo_polarized_energy": -29.95, 
			 "cosmo_cavitation_energy": 30.5, 
			 "cosmo_dispersion_energy": -21.78, 
			 "cosmo_repulsion_energy": 1.69, 
			 "cosmo_total_nonelectrostatic_energy": 10.41, 
			 "SMD_solvation_energy": 5.46 
		},
		"coords": [
			{
				"x": -0.7060953983,
				"y": 2.6651914168,
				"z": -0.5359405981,
				"element": "N" 
			},
			{
				"x": -0.8897105714,
				"y": 2.0081688865,
				"z": -1.7109387105,
				"element": "C" 
			},
			{
				"x": -0.813571544,
				"y": 2.5304636581,
				"z": -2.8106600195,
				"element": "O" 
			},
			{
				"x": -1.2572219085,
				"y": 0.5150446383,
				"z": -1.6106802883,
				"element": "C" 
			},
			{
				"x": -1.1196590295,
				"y": -0.1067027521,
				"z": -0.3065088871,
				"element": "N" 
			},
			{
				"x": -2.1362960622,
				"y": -0.4033559577,
				"z": 0.5875644124,
				"element": "C" 
			},
			{
				"x": -1.7331219913,
				"y": -0.9728963156,
				"z": 1.6903994405,
				"element": "N" 
			},
			{
				"x": -0.3555627128,
				"y": -1.082320882,
				"z": 1.5429222883,
				"element": "C" 
			},
			{
				"x": 0.0502534052,
				"y": -0.5451551051,
				"z": 0.2946441141,
				"element": "C" 
			},
			{
				"x": 1.3849149471,
				"y": -0.5341832573,
				"z": -0.1183290574,
				"element": "C" 
			},
			{
				"x": 2.3156083177,
				"y": -1.0704074809,
				"z": 0.7646460617,
				"element": "C" 
			},
			{
				"x": 1.935852453,
				"y": -1.6016413555,
				"z": 2.0216496017,
				"element": "C" 
			},
			{
				"x": 0.5936960025,
				"y": -1.6248900954,
				"z": 2.409791921,
				"element": "C" 
			},
			{
				"x": 2.9318824932,
				"y": -2.1902763708,
				"z": 2.9749194021,
				"element": "C" 
			},
			{
				"x": 4.2302914415,
				"y": -1.8078950884,
				"z": 2.818647964,
				"element": "O" 
			},
			{
				"x": 2.6364472166,
				"y": -2.9650941545,
				"z": 3.8538592135,
				"element": "O" 
			},
			{
				"x": -0.4584368903,
				"y": 3.6422612275,
				"z": -0.575412572,
				"element": "H" 
			},
			{
				"x": -0.7234308761,
				"y": 2.1973018303,
				"z": 0.3556027856,
				"element": "H" 
			},
			{
				"x": -0.6444343382,
				"y": -0.0149496989,
				"z": -2.3448180803,
				"element": "H" 
			},
			{
				"x": -2.2968339577,
				"y": 0.4159648388,
				"z": -1.9359732347,
				"element": "H" 
			},
			{
				"x": -3.1654682032,
				"y": -0.1650324349,
				"z": 0.3463103445,
				"element": "H" 
			},
			{
				"x": 1.6908658144,
				"y": -0.1390625198,
				"z": -1.0816065119,
				"element": "H" 
			},
			{
				"x": 3.3538351828,
				"y": -1.1165514674,
				"z": 0.44674979,
				"element": "H" 
			},
			{
				"x": 0.3124328304,
				"y": -2.0562585166,
				"z": 3.3635051698,
				"element": "H" 
			},
			{
				"x": 4.2859633792,
				"y": -1.0618230433,
				"z": 2.2061554506,
				"element": "H" 
			}
		],
		 "valence_orbital": [ 
			{
				"type": "occ",
				"energy": -0.29164,
				"method": "rhf"
			},
			{
				"type": "occ",
				"energy": -0.27782,
				"method": "rhf"
			},
			{
				"type": "occ",
				"energy": -0.27147,
				"method": "rhf"
			},
			{
				"type": "occ",
				"energy": -0.25647,
				"method": "rhf"
			},
			{
				"type": "occ",
				"energy": -0.24759,
				"method": "rhf"
			},
			{
				"type": "unocc",
				"energy": -0.04881,
				"method": "rhf"
			},
			{
				"type": "unocc",
				"energy": -0.03791,
				"method": "rhf"
			},
			{
				"type": "unocc",
				"energy": 0.00246,
				"method": "rhf"
			},
			{
				"type": "unocc",
				"energy": 0.02384,
				"method": "rhf"
			},
			{
				"type": "unocc",
				"energy": 0.05665,
				"method": "rhf"
			}
		],
		"cosmo_sigma_profile": { 
			"-0.025": 0.0,
			"-0.024": 0.0,
			"-0.023": 0.0,
			"-0.022": 0.0,
			"-0.021": 0.0,
			"-0.02": 0.0,
			"-0.019": 0.0138973632594,
			"-0.018": 0.776024047159,
			"-0.017": 1.00072948769,
			"-0.016": 1.00039372276,
			"-0.015": 1.0661393971,
			"-0.014": 2.31178439423,
			"-0.013": 3.34219194312,
			"-0.012": 3.2115295701,
			"-0.011": 6.29403726019,
			"-0.01": 7.24476764096,
			"-0.009": 7.85360913171,
			"-0.008": 12.0331787293,
			"-0.007": 11.4743213202,
			"-0.006": 10.5951043541,
			"-0.005": 10.5216149927,
			"-0.004": 9.76689978536,
			"-0.003": 10.5502316672,
			"-0.002": 9.31259608001,
			"-0.001": 10.8154187565,
			"0.0": 10.3796309302,
			"0.001": 11.4922572042,
			"0.002": 16.0687932074,
			"0.003": 15.1685690417,
			"0.004": 7.00318770844,
			"0.005": 4.85649381585,
			"0.006": 5.29993763927,
			"0.007": 5.22769979478,
			"0.008": 5.02869851705,
			"0.009": 3.91983351049,
			"0.01": 7.09691818044,
			"0.011": 7.90611364718,
			"0.012": 9.23439552709,
			"0.013": 8.58567292258,
			"0.014": 4.9796649422,
			"0.015": 1.34827562299,
			"0.016": 0.933940040606,
			"0.017": 0.326791061909,
			"0.018": 0.0,
			"0.019": 0.0,
			"0.02": 0.0,
			"0.021": 0.0,
			"0.022": 0.0,
			"0.023": 0.0,
			"0.024": 0.0,
			"0.025": 0.0
		}
	}
}
