{
	 "smiles": "CC1=C(SC(=N1)C(=CC1=CC=CO1)C#N)N=NC1=C(Cl)C=C(Cl)C=C1Cl", 
	 "Tm": 429.15, 
	 "num_atms": 35, 
	 "gaussian": { 
		 "optdone": 1, 
		 "sigma_profile": "yes", 
		 "theory": "DFT", 
		 "functional": "B3LYP", 
		 "basiset": "6-31G**", 
		 "properties": { 
			 "R2extent": 20816.4809, 
			 "electric_dipole_moment_norm": 6.33330554608, 
			 "electric_quadrupole_moment_norm": 27.2095637126, 
			 "total_energy": -2726.10387555, 
			 "HOMO_LUMO_gap": 0.10686, 
			 "cosmo_polarized_energy": -15.93, 
			 "cosmo_cavitation_energy": 50.63, 
			 "cosmo_dispersion_energy": -34.79, 
			 "cosmo_repulsion_energy": 2.59, 
			 "cosmo_total_nonelectrostatic_energy": 18.43, 
			 "SMD_solvation_energy": 7.97 
		},
		"coords": [
			{
				"x": -2.4348966793,
				"y": -0.9571067603,
				"z": 1.3726588862,
				"element": "C" 
			},
			{
				"x": -1.138366945,
				"y": -0.3563680355,
				"z": 0.9277854828,
				"element": "C" 
			},
			{
				"x": -0.9031225279,
				"y": 0.9966694577,
				"z": 0.6519094441,
				"element": "C" 
			},
			{
				"x": 0.7638652826,
				"y": 1.233892134,
				"z": 0.1795055597,
				"element": "S" 
			},
			{
				"x": 1.0160059309,
				"y": -0.4875625664,
				"z": 0.3782493712,
				"element": "C" 
			},
			{
				"x": -0.0521455893,
				"y": -1.1544959252,
				"z": 0.7711863537,
				"element": "N" 
			},
			{
				"x": 2.3337936094,
				"y": -1.0779628626,
				"z": 0.1570657739,
				"element": "C" 
			},
			{
				"x": 2.6628582426,
				"y": -2.3976466778,
				"z": -0.0442854102,
				"element": "C" 
			},
			{
				"x": 1.9134488513,
				"y": -3.5901995856,
				"z": -0.2558134646,
				"element": "C" 
			},
			{
				"x": 2.4020735379,
				"y": -4.8807249383,
				"z": -0.3866955435,
				"element": "C" 
			},
			{
				"x": 1.2892003355,
				"y": -5.721157923,
				"z": -0.6383621592,
				"element": "C" 
			},
			{
				"x": 0.1982667335,
				"y": -4.89326318,
				"z": -0.6564263272,
				"element": "C" 
			},
			{
				"x": 0.5555957259,
				"y": -3.6112324409,
				"z": -0.4276800958,
				"element": "O" 
			},
			{
				"x": 3.4373225861,
				"y": -0.1586447456,
				"z": 0.1694153662,
				"element": "C" 
			},
			{
				"x": 4.3303633635,
				"y": 0.5886296252,
				"z": 0.1685018514,
				"element": "N" 
			},
			{
				"x": -1.6909958765,
				"y": 2.1239883443,
				"z": 0.6811905279,
				"element": "N" 
			},
			{
				"x": -2.8912320129,
				"y": 1.9440291242,
				"z": 1.0568592074,
				"element": "N" 
			},
			{
				"x": -3.6955368913,
				"y": 3.1004479075,
				"z": 1.0248519975,
				"element": "C" 
			},
			{
				"x": -3.7344712758,
				"y": 4.062615291,
				"z": -0.0105372789,
				"element": "C" 
			},
			{
				"x": -2.7241480636,
				"y": 3.9323118109,
				"z": -1.4329144981,
				"element": "Cl" 
			},
			{
				"x": -4.6373462215,
				"y": 5.1246986526,
				"z": 0.0125763405,
				"element": "C" 
			},
			{
				"x": -5.5157042153,
				"y": 5.2503232952,
				"z": 1.0849760367,
				"element": "C" 
			},
			{
				"x": -6.6402246279,
				"y": 6.5908035219,
				"z": 1.1210421416,
				"element": "Cl" 
			},
			{
				"x": -5.5250610683,
				"y": 4.3227130312,
				"z": 2.1240605123,
				"element": "C" 
			},
			{
				"x": -4.6309282206,
				"y": 3.2597303252,
				"z": 2.0709551621,
				"element": "C" 
			},
			{
				"x": -4.653109054,
				"y": 2.1083020162,
				"z": 3.3885396318,
				"element": "Cl" 
			},
			{
				"x": -3.2307456481,
				"y": -0.7506603633,
				"z": 0.6500506965,
				"element": "H" 
			},
			{
				"x": -2.767930564,
				"y": -0.5180805717,
				"z": 2.3177407835,
				"element": "H" 
			},
			{
				"x": -2.307973763,
				"y": -2.0349544941,
				"z": 1.4886455662,
				"element": "H" 
			},
			{
				"x": 3.7313065549,
				"y": -2.592981704,
				"z": -0.0870606789,
				"element": "H" 
			},
			{
				"x": 3.4405279069,
				"y": -5.1706144258,
				"z": -0.3090469024,
				"element": "H" 
			},
			{
				"x": 1.2889655573,
				"y": -6.7905918949,
				"z": -0.7889685242,
				"element": "H" 
			},
			{
				"x": -0.8555322598,
				"y": -5.0653187954,
				"z": -0.8148684004,
				"element": "H" 
			},
			{
				"x": -4.6531152253,
				"y": 5.8380308676,
				"z": -0.8017040761,
				"element": "H" 
			},
			{
				"x": -6.2105074888,
				"y": 4.4216824857,
				"z": 2.9559966662,
				"element": "H" 
			}
		],
		 "valence_orbital": [ 
			{
				"type": "occ",
				"energy": -0.2765,
				"method": "rhf"
			},
			{
				"type": "occ",
				"energy": -0.26248,
				"method": "rhf"
			},
			{
				"type": "occ",
				"energy": -0.25661,
				"method": "rhf"
			},
			{
				"type": "occ",
				"energy": -0.23584,
				"method": "rhf"
			},
			{
				"type": "occ",
				"energy": -0.21911,
				"method": "rhf"
			},
			{
				"type": "unocc",
				"energy": -0.11225,
				"method": "rhf"
			},
			{
				"type": "unocc",
				"energy": -0.07882,
				"method": "rhf"
			},
			{
				"type": "unocc",
				"energy": -0.03681,
				"method": "rhf"
			},
			{
				"type": "unocc",
				"energy": -0.02411,
				"method": "rhf"
			},
			{
				"type": "unocc",
				"energy": -0.01445,
				"method": "rhf"
			}
		],
		"cosmo_sigma_profile": { 
			"-0.025": 0.0,
			"-0.024": 0.0,
			"-0.023": 0.0,
			"-0.022": 0.0,
			"-0.021": 0.0,
			"-0.02": 0.0,
			"-0.019": 0.0,
			"-0.018": 0.0,
			"-0.017": 0.0,
			"-0.016": 0.0,
			"-0.015": 0.0,
			"-0.014": 0.0,
			"-0.013": 0.0,
			"-0.012": 0.0,
			"-0.011": 0.529807966163,
			"-0.01": 4.53265100078,
			"-0.009": 8.05918592159,
			"-0.008": 10.0418818874,
			"-0.007": 8.61543862189,
			"-0.006": 10.6795448342,
			"-0.005": 12.455281925,
			"-0.004": 15.0518560544,
			"-0.003": 23.9187873951,
			"-0.002": 32.8677531354,
			"-0.001": 55.2551040122,
			"0.0": 63.5945127833,
			"0.001": 38.9128168182,
			"0.002": 34.7854948155,
			"0.003": 33.2996912012,
			"0.004": 24.0954751214,
			"0.005": 7.18743931489,
			"0.006": 7.01410959073,
			"0.007": 6.00990613485,
			"0.008": 5.46699724244,
			"0.009": 5.07837963999,
			"0.01": 4.03051426638,
			"0.011": 3.81418449697,
			"0.012": 2.82627615276,
			"0.013": 1.06137800324,
			"0.014": 0.0,
			"0.015": 0.0,
			"0.016": 0.0,
			"0.017": 0.0,
			"0.018": 0.0,
			"0.019": 0.0,
			"0.02": 0.0,
			"0.021": 0.0,
			"0.022": 0.0,
			"0.023": 0.0,
			"0.024": 0.0,
			"0.025": 0.0
		}
	}
}
