{
	 "smiles": "OC(=O)C1=CC(=CC=C1)C1=NOC(=N1)C1CC1", 
	 "Tm": 432.15, 
	 "num_atms": 27, 
	 "gaussian": { 
		 "optdone": 1, 
		 "sigma_profile": "yes", 
		 "theory": "DFT", 
		 "functional": "B3LYP", 
		 "basiset": "6-31G**", 
		 "properties": { 
			 "R2extent": 6455.9489, 
			 "electric_dipole_moment_norm": 6.82953905472, 
			 "electric_quadrupole_moment_norm": 19.5821377937, 
			 "total_energy": -798.428574664, 
			 "HOMO_LUMO_gap": 0.19594, 
			 "cosmo_polarized_energy": -16.36, 
			 "cosmo_cavitation_energy": 32.67, 
			 "cosmo_dispersion_energy": -23.83, 
			 "cosmo_repulsion_energy": 1.84, 
			 "cosmo_total_nonelectrostatic_energy": 10.67, 
			 "SMD_solvation_energy": 5.13 
		},
		"coords": [
			{
				"x": -0.8708637834,
				"y": -5.4259050668,
				"z": -1.2835254896,
				"element": "O" 
			},
			{
				"x": 0.355419564,
				"y": -5.1087341865,
				"z": -0.7936086906,
				"element": "C" 
			},
			{
				"x": 1.2775985112,
				"y": -5.8783943158,
				"z": -0.9284010469,
				"element": "O" 
			},
			{
				"x": 0.4897492826,
				"y": -3.7865619606,
				"z": -0.0943936047,
				"element": "C" 
			},
			{
				"x": -0.4223924005,
				"y": -2.7417251323,
				"z": -0.261934476,
				"element": "C" 
			},
			{
				"x": -0.2376835248,
				"y": -1.5239824175,
				"z": 0.4083284422,
				"element": "C" 
			},
			{
				"x": 0.8713799345,
				"y": -1.3589974658,
				"z": 1.2475344845,
				"element": "C" 
			},
			{
				"x": 1.7900695351,
				"y": -2.3978681124,
				"z": 1.404798334,
				"element": "C" 
			},
			{
				"x": 1.6082070617,
				"y": -3.6031451846,
				"z": 0.7333584162,
				"element": "C" 
			},
			{
				"x": -1.196371916,
				"y": -0.4236809705,
				"z": 0.2329276015,
				"element": "C" 
			},
			{
				"x": -2.269105638,
				"y": -0.5367073351,
				"z": -0.5194539375,
				"element": "N" 
			},
			{
				"x": -2.8795292966,
				"y": 0.722382498,
				"z": -0.3997882812,
				"element": "O" 
			},
			{
				"x": -2.1005463524,
				"y": 1.4540622253,
				"z": 0.4178020798,
				"element": "C" 
			},
			{
				"x": -1.0510147107,
				"y": 0.8051633067,
				"z": 0.8405349399,
				"element": "N" 
			},
			{
				"x": -2.5133187337,
				"y": 2.8273842088,
				"z": 0.7146763889,
				"element": "C" 
			},
			{
				"x": -1.4375685507,
				"y": 3.8864464289,
				"z": 0.9111661618,
				"element": "C" 
			},
			{
				"x": -2.2108254445,
				"y": 3.3989886178,
				"z": 2.0926600399,
				"element": "C" 
			},
			{
				"x": -1.533594729,
				"y": -4.7909148075,
				"z": -0.9785076177,
				"element": "H" 
			},
			{
				"x": -1.2702832049,
				"y": -2.8273957059,
				"z": -0.935870739,
				"element": "H" 
			},
			{
				"x": 1.0031993641,
				"y": -0.4138014192,
				"z": 1.762638052,
				"element": "H" 
			},
			{
				"x": 2.6514937452,
				"y": -2.2622908201,
				"z": 2.0514919652,
				"element": "H" 
			},
			{
				"x": 2.315676668,
				"y": -4.4192614588,
				"z": 0.8311166055,
				"element": "H" 
			},
			{
				"x": -3.437748514,
				"y": 3.1242717466,
				"z": 0.2317545583,
				"element": "H" 
			},
			{
				"x": -1.6487113101,
				"y": 4.8745979128,
				"z": 0.515350777,
				"element": "H" 
			},
			{
				"x": -0.4103688534,
				"y": 3.5542561605,
				"z": 0.8047916494,
				"element": "H" 
			},
			{
				"x": -2.9666123541,
				"y": 4.0438595717,
				"z": 2.5292702578,
				"element": "H" 
			},
			{
				"x": -1.7087543497,
				"y": 2.7357536826,
				"z": 2.7889831295,
				"element": "H" 
			}
		],
		 "valence_orbital": [ 
			{
				"type": "occ",
				"energy": -0.30554,
				"method": "rhf"
			},
			{
				"type": "occ",
				"energy": -0.28778,
				"method": "rhf"
			},
			{
				"type": "occ",
				"energy": -0.27876,
				"method": "rhf"
			},
			{
				"type": "occ",
				"energy": -0.27088,
				"method": "rhf"
			},
			{
				"type": "occ",
				"energy": -0.25537,
				"method": "rhf"
			},
			{
				"type": "unocc",
				"energy": -0.05943,
				"method": "rhf"
			},
			{
				"type": "unocc",
				"energy": -0.05166,
				"method": "rhf"
			},
			{
				"type": "unocc",
				"energy": -0.01412,
				"method": "rhf"
			},
			{
				"type": "unocc",
				"energy": 0.03075,
				"method": "rhf"
			},
			{
				"type": "unocc",
				"energy": 0.0598,
				"method": "rhf"
			}
		],
		"cosmo_sigma_profile": { 
			"-0.025": 0.0,
			"-0.024": 0.0,
			"-0.023": 0.0,
			"-0.022": 0.0,
			"-0.021": 0.0,
			"-0.02": 0.0028307532284,
			"-0.019": 0.51203096633,
			"-0.018": 0.606944328645,
			"-0.017": 1.21284492175,
			"-0.016": 1.03090910887,
			"-0.015": 1.12141830173,
			"-0.014": 1.0789442296,
			"-0.013": 0.827283341746,
			"-0.012": 0.860534937764,
			"-0.011": 1.01689645901,
			"-0.01": 1.32779943741,
			"-0.009": 0.722015588932,
			"-0.008": 2.26966871369,
			"-0.007": 6.94194169352,
			"-0.006": 15.5311681761,
			"-0.005": 15.6536230791,
			"-0.004": 15.4874070204,
			"-0.003": 17.3385827301,
			"-0.002": 19.5737321899,
			"-0.001": 23.966696357,
			"0.0": 23.2433501999,
			"0.001": 23.1991956431,
			"0.002": 20.8404711871,
			"0.003": 10.4346297259,
			"0.004": 5.49344094833,
			"0.005": 6.6378127624,
			"0.006": 7.00260441703,
			"0.007": 7.91326744284,
			"0.008": 5.74575007653,
			"0.009": 5.56958054062,
			"0.01": 6.92421239379,
			"0.011": 6.25182288499,
			"0.012": 4.90601071294,
			"0.013": 1.10495082582,
			"0.014": 0.0,
			"0.015": 0.0,
			"0.016": 0.0,
			"0.017": 0.0,
			"0.018": 0.0,
			"0.019": 0.0,
			"0.02": 0.0,
			"0.021": 0.0,
			"0.022": 0.0,
			"0.023": 0.0,
			"0.024": 0.0,
			"0.025": 0.0
		}
	}
}
