{
	 "smiles": "CN1C=C(CCC(O)=O)C2=C1C=CC=C2", 
	 "Tm": 397.15, 
	 "num_atms": 28, 
	 "gaussian": { 
		 "optdone": 1, 
		 "sigma_profile": "yes", 
		 "theory": "DFT", 
		 "functional": "B3LYP", 
		 "basiset": "6-31G**", 
		 "properties": { 
			 "R2extent": 3823.9609, 
			 "electric_dipole_moment_norm": 6.02366300103, 
			 "electric_quadrupole_moment_norm": 26.8278057066, 
			 "total_energy": -670.331272678, 
			 "HOMO_LUMO_gap": 0.19022, 
			 "cosmo_polarized_energy": -15.43, 
			 "cosmo_cavitation_energy": 31.21, 
			 "cosmo_dispersion_energy": -22.09, 
			 "cosmo_repulsion_energy": 1.72, 
			 "cosmo_total_nonelectrostatic_energy": 10.84, 
			 "SMD_solvation_energy": 6.06 
		},
		"coords": [
			{
				"x": 0.2242376823,
				"y": 2.7015778307,
				"z": 0.0866831644,
				"element": "C" 
			},
			{
				"x": 0.5398528188,
				"y": 1.2897978454,
				"z": -0.0090070422,
				"element": "N" 
			},
			{
				"x": 1.2212239373,
				"y": 0.5424010057,
				"z": 0.9320903994,
				"element": "C" 
			},
			{
				"x": 1.3132675201,
				"y": -0.7761844236,
				"z": 0.5385159228,
				"element": "C" 
			},
			{
				"x": 2.0187882095,
				"y": -1.8917480554,
				"z": 1.264166727,
				"element": "C" 
			},
			{
				"x": 1.0984276955,
				"y": -2.9917237245,
				"z": 1.8545920043,
				"element": "C" 
			},
			{
				"x": 0.2892774431,
				"y": -2.5862467346,
				"z": 3.0839112078,
				"element": "C" 
			},
			{
				"x": -0.3578760002,
				"y": -1.3976354153,
				"z": 3.0092496818,
				"element": "O" 
			},
			{
				"x": 0.1954235011,
				"y": -3.2727518239,
				"z": 4.0725860049,
				"element": "O" 
			},
			{
				"x": 0.6420318127,
				"y": -0.8550178724,
				"z": -0.7391552032,
				"element": "C" 
			},
			{
				"x": 0.1696585802,
				"y": 0.4513006988,
				"z": -1.0444109922,
				"element": "C" 
			},
			{
				"x": -0.5356563071,
				"y": 0.7351509497,
				"z": -2.2201104785,
				"element": "C" 
			},
			{
				"x": -0.7567875086,
				"y": -0.3149960938,
				"z": -3.1038661242,
				"element": "C" 
			},
			{
				"x": -0.2872557721,
				"y": -1.6154084588,
				"z": -2.827515329,
				"element": "C" 
			},
			{
				"x": 0.4078425114,
				"y": -1.8938032287,
				"z": -1.6572792796,
				"element": "C" 
			},
			{
				"x": 0.6872213499,
				"y": 3.1102099731,
				"z": 0.9863374613,
				"element": "H" 
			},
			{
				"x": 0.6119959274,
				"y": 3.2456898533,
				"z": -0.7810910312,
				"element": "H" 
			},
			{
				"x": -0.857967848,
				"y": 2.8630615076,
				"z": 0.1473602018,
				"element": "H" 
			},
			{
				"x": 1.6144468208,
				"y": 1.0183076908,
				"z": 1.8209799262,
				"element": "H" 
			},
			{
				"x": 2.6409351577,
				"y": -1.474905956,
				"z": 2.0644955384,
				"element": "H" 
			},
			{
				"x": 2.7105336946,
				"y": -2.3841154583,
				"z": 0.5695685454,
				"element": "H" 
			},
			{
				"x": 1.6904950139,
				"y": -3.8594050574,
				"z": 2.1529183654,
				"element": "H" 
			},
			{
				"x": 0.3919694105,
				"y": -3.3283790704,
				"z": 1.0847592766,
				"element": "H" 
			},
			{
				"x": -0.1512114704,
				"y": -0.9573017676,
				"z": 2.164272119,
				"element": "H" 
			},
			{
				"x": -0.8964464316,
				"y": 1.7355662986,
				"z": -2.4385309125,
				"element": "H" 
			},
			{
				"x": -1.2998150494,
				"y": -0.1295277816,
				"z": -4.0258075453,
				"element": "H" 
			},
			{
				"x": -0.4739588567,
				"y": -2.4102240714,
				"z": -3.5434378682,
				"element": "H" 
			},
			{
				"x": 0.7675461574,
				"y": -2.8996886599,
				"z": -1.4592747402,
				"element": "H" 
			}
		],
		 "valence_orbital": [ 
			{
				"type": "occ",
				"energy": -0.29715,
				"method": "rhf"
			},
			{
				"type": "occ",
				"energy": -0.28127,
				"method": "rhf"
			},
			{
				"type": "occ",
				"energy": -0.25253,
				"method": "rhf"
			},
			{
				"type": "occ",
				"energy": -0.2328,
				"method": "rhf"
			},
			{
				"type": "occ",
				"energy": -0.21362,
				"method": "rhf"
			},
			{
				"type": "unocc",
				"energy": -0.0234,
				"method": "rhf"
			},
			{
				"type": "unocc",
				"energy": 0.0124,
				"method": "rhf"
			},
			{
				"type": "unocc",
				"energy": 0.02408,
				"method": "rhf"
			},
			{
				"type": "unocc",
				"energy": 0.04746,
				"method": "rhf"
			},
			{
				"type": "unocc",
				"energy": 0.07671,
				"method": "rhf"
			}
		],
		"cosmo_sigma_profile": { 
			"-0.025": 0.0,
			"-0.024": 0.0,
			"-0.023": 0.0,
			"-0.022": 0.0,
			"-0.021": 0.0,
			"-0.02": 0.0,
			"-0.019": 0.0,
			"-0.018": 0.0,
			"-0.017": 0.0,
			"-0.016": 0.0,
			"-0.015": 0.0,
			"-0.014": 0.0,
			"-0.013": 0.0,
			"-0.012": 0.0,
			"-0.011": 0.0,
			"-0.01": 0.0,
			"-0.009": 0.708605835301,
			"-0.008": 4.94225712475,
			"-0.007": 5.16007396901,
			"-0.006": 13.3229087931,
			"-0.005": 27.861250673,
			"-0.004": 29.6563692637,
			"-0.003": 27.7760850958,
			"-0.002": 21.5411923199,
			"-0.001": 13.5116444418,
			"0.0": 9.31661386484,
			"0.001": 9.56985825431,
			"0.002": 8.62635417728,
			"0.003": 10.0069959998,
			"0.004": 10.0416569842,
			"0.005": 11.399612864,
			"0.006": 11.2402285211,
			"0.007": 6.83814166978,
			"0.008": 2.29823860393,
			"0.009": 3.3901089071,
			"0.01": 3.5861634669,
			"0.011": 5.1053867948,
			"0.012": 6.65949748057,
			"0.013": 4.22731124543,
			"0.014": 0.815087778791,
			"0.015": 0.0,
			"0.016": 0.0,
			"0.017": 0.0,
			"0.018": 0.0,
			"0.019": 0.0,
			"0.02": 0.0,
			"0.021": 0.0,
			"0.022": 0.0,
			"0.023": 0.0,
			"0.024": 0.0,
			"0.025": 0.0
		}
	}
}
