{
	 "smiles": "CC1=C(C(C)=NN1)C1=CC=CC=C1", 
	 "Tm": 407.15, 
	 "num_atms": 25, 
	 "gaussian": { 
		 "optdone": 1, 
		 "sigma_profile": "yes", 
		 "theory": "DFT", 
		 "functional": "B3LYP", 
		 "basiset": "6-31G**", 
		 "properties": { 
			 "R2extent": 2542.3934, 
			 "electric_dipole_moment_norm": 2.25402805218, 
			 "electric_quadrupole_moment_norm": 12.7997003551, 
			 "total_energy": -535.905562816, 
			 "HOMO_LUMO_gap": 0.20525, 
			 "cosmo_polarized_energy": -10.51, 
			 "cosmo_cavitation_energy": 28.12, 
			 "cosmo_dispersion_energy": -20.36, 
			 "cosmo_repulsion_energy": 1.62, 
			 "cosmo_total_nonelectrostatic_energy": 9.38, 
			 "SMD_solvation_energy": 3.76 
		},
		"coords": [
			{
				"x": 0.7830885634,
				"y": 0.9010264258,
				"z": 2.3645453496,
				"element": "C" 
			},
			{
				"x": -0.005682583,
				"y": -0.1827627109,
				"z": 1.6998397606,
				"element": "C" 
			},
			{
				"x": -0.3797049051,
				"y": -0.390195122,
				"z": 0.3731835872,
				"element": "C" 
			},
			{
				"x": -1.097594727,
				"y": -1.6285137959,
				"z": 0.3890131745,
				"element": "C" 
			},
			{
				"x": -1.7586686054,
				"y": -2.3468823796,
				"z": -0.7493058241,
				"element": "C" 
			},
			{
				"x": -1.1659230877,
				"y": -2.1350068324,
				"z": 1.6182180533,
				"element": "N" 
			},
			{
				"x": -0.4943555166,
				"y": -1.2476727448,
				"z": 2.3883438345,
				"element": "N" 
			},
			{
				"x": -0.0997559704,
				"y": 0.486350983,
				"z": -0.7780892779,
				"element": "C" 
			},
			{
				"x": -0.2553536039,
				"y": 1.8817561411,
				"z": -0.6841113333,
				"element": "C" 
			},
			{
				"x": 0.019003966,
				"y": 2.7122750232,
				"z": -1.7705144518,
				"element": "C" 
			},
			{
				"x": 0.4440077629,
				"y": 2.1671682497,
				"z": -2.9832102571,
				"element": "C" 
			},
			{
				"x": 0.594931755,
				"y": 0.7836052739,
				"z": -3.0966900435,
				"element": "C" 
			},
			{
				"x": 0.330531404,
				"y": -0.0454256276,
				"z": -2.0074332757,
				"element": "C" 
			},
			{
				"x": 1.4477361825,
				"y": 0.4922685052,
				"z": 3.1338049224,
				"element": "H" 
			},
			{
				"x": 0.1389719515,
				"y": 1.646451735,
				"z": 2.8473987362,
				"element": "H" 
			},
			{
				"x": 1.3988332525,
				"y": 1.424309385,
				"z": 1.6297182779,
				"element": "H" 
			},
			{
				"x": -2.4784926512,
				"y": -3.0684793231,
				"z": -0.356181574,
				"element": "H" 
			},
			{
				"x": -2.2811874582,
				"y": -1.6487302659,
				"z": -1.4105628606,
				"element": "H" 
			},
			{
				"x": -1.0363256147,
				"y": -2.8977233606,
				"z": -1.3633535616,
				"element": "H" 
			},
			{
				"x": -0.4010417944,
				"y": -1.4308509978,
				"z": 3.3752518203,
				"element": "H" 
			},
			{
				"x": -0.6186726862,
				"y": 2.3142594475,
				"z": 0.2433824514,
				"element": "H" 
			},
			{
				"x": -0.1114122511,
				"y": 3.7865741513,
				"z": -1.672165791,
				"element": "H" 
			},
			{
				"x": 0.6527283744,
				"y": 2.8127934145,
				"z": -3.8313805252,
				"element": "H" 
			},
			{
				"x": 0.9283770416,
				"y": 0.3477831283,
				"z": -4.0345509352,
				"element": "H" 
			},
			{
				"x": 0.4760612011,
				"y": -1.1169787028,
				"z": -2.1009502566,
				"element": "H" 
			}
		],
		 "valence_orbital": [ 
			{
				"type": "occ",
				"energy": -0.28016,
				"method": "rhf"
			},
			{
				"type": "occ",
				"energy": -0.2642,
				"method": "rhf"
			},
			{
				"type": "occ",
				"energy": -0.24645,
				"method": "rhf"
			},
			{
				"type": "occ",
				"energy": -0.2342,
				"method": "rhf"
			},
			{
				"type": "occ",
				"energy": -0.21195,
				"method": "rhf"
			},
			{
				"type": "unocc",
				"energy": -0.0067,
				"method": "rhf"
			},
			{
				"type": "unocc",
				"energy": 0.00203,
				"method": "rhf"
			},
			{
				"type": "unocc",
				"energy": 0.02971,
				"method": "rhf"
			},
			{
				"type": "unocc",
				"energy": 0.08303,
				"method": "rhf"
			},
			{
				"type": "unocc",
				"energy": 0.08492,
				"method": "rhf"
			}
		],
		"cosmo_sigma_profile": { 
			"-0.025": 0.0,
			"-0.024": 0.0,
			"-0.023": 0.0,
			"-0.022": 0.0,
			"-0.021": 0.0,
			"-0.02": 0.0,
			"-0.019": 0.0,
			"-0.018": 0.0,
			"-0.017": 0.0,
			"-0.016": 0.666395951089,
			"-0.015": 1.18738269688,
			"-0.014": 1.26347525554,
			"-0.013": 0.746057011629,
			"-0.012": 1.58048738174,
			"-0.011": 0.805233521474,
			"-0.01": 1.08288197842,
			"-0.009": 1.19451579187,
			"-0.008": 1.27296306827,
			"-0.007": 0.754647844782,
			"-0.006": 4.6032567058,
			"-0.005": 14.9628441026,
			"-0.004": 19.8842951472,
			"-0.003": 23.8491166876,
			"-0.002": 19.3260257647,
			"-0.001": 19.4359125141,
			"0.0": 19.3071888151,
			"0.001": 14.4658829516,
			"0.002": 9.21605514917,
			"0.003": 13.1188022752,
			"0.004": 14.0300005497,
			"0.005": 14.4208025505,
			"0.006": 10.7449456911,
			"0.007": 3.41127211799,
			"0.008": 1.96107758259,
			"0.009": 1.12577898122,
			"0.01": 1.57278479679,
			"0.011": 1.32696917419,
			"0.012": 1.24767835998,
			"0.013": 1.13718932048,
			"0.014": 0.768366174755,
			"0.015": 1.00332987189,
			"0.016": 1.27344654629,
			"0.017": 0.464138542593,
			"0.018": 0.0,
			"0.019": 0.0,
			"0.02": 0.0,
			"0.021": 0.0,
			"0.022": 0.0,
			"0.023": 0.0,
			"0.024": 0.0,
			"0.025": 0.0
		}
	}
}
