{
	 "smiles": "OC1CCN(CCS(=O)(=O)C2=CC=C(Br)C=C2)CC1", 
	 "Tm": 391.15, 
	 "num_atms": 37, 
	 "gaussian": { 
		 "optdone": 1, 
		 "sigma_profile": "yes", 
		 "theory": "DFT", 
		 "functional": "B3LYP", 
		 "basiset": "6-31G**", 
		 "properties": { 
			 "R2extent": 8937.3339, 
			 "electric_dipole_moment_norm": 4.88487864025, 
			 "electric_quadrupole_moment_norm": 13.0319884039, 
			 "total_energy": -3756.16769431, 
			 "HOMO_LUMO_gap": 0.18773, 
			 "cosmo_polarized_energy": -18.05, 
			 "cosmo_cavitation_energy": 40.68, 
			 "cosmo_dispersion_energy": -28.46, 
			 "cosmo_repulsion_energy": 2.13, 
			 "cosmo_total_nonelectrostatic_energy": 14.34, 
			 "SMD_solvation_energy": 3.6 
		},
		"coords": [
			{
				"x": 1.5386388689,
				"y": 2.2832324847,
				"z": -1.3798718556,
				"element": "O" 
			},
			{
				"x": 2.106812638,
				"y": 3.0174333659,
				"z": -0.2999820546,
				"element": "C" 
			},
			{
				"x": 2.8398555665,
				"y": 2.0861111569,
				"z": 0.6881650081,
				"element": "C" 
			},
			{
				"x": 1.8612358221,
				"y": 1.4913435488,
				"z": 1.7248716387,
				"element": "C" 
			},
			{
				"x": 0.4945299848,
				"y": 1.4626240027,
				"z": 1.1757253055,
				"element": "N" 
			},
			{
				"x": -0.4269039167,
				"y": 0.659523965,
				"z": 1.9792008182,
				"element": "C" 
			},
			{
				"x": -0.2578805771,
				"y": -0.8521916973,
				"z": 1.8472537301,
				"element": "C" 
			},
			{
				"x": -1.0573432608,
				"y": -1.6109870337,
				"z": 0.3797018548,
				"element": "S" 
			},
			{
				"x": -1.2373635521,
				"y": -3.03097792,
				"z": 0.7284160789,
				"element": "O" 
			},
			{
				"x": -2.2016521856,
				"y": -0.765437709,
				"z": -0.0040003094,
				"element": "O" 
			},
			{
				"x": 0.1444168201,
				"y": -1.5498016299,
				"z": -0.9582499654,
				"element": "C" 
			},
			{
				"x": 1.1465165949,
				"y": -2.5209453164,
				"z": -1.015668101,
				"element": "C" 
			},
			{
				"x": 2.0689031402,
				"y": -2.4901564721,
				"z": -2.0597280735,
				"element": "C" 
			},
			{
				"x": 1.9665132453,
				"y": -1.4911030418,
				"z": -3.0300312162,
				"element": "C" 
			},
			{
				"x": 3.2329865471,
				"y": -1.4476553197,
				"z": -4.4541507006,
				"element": "Br" 
			},
			{
				"x": 0.9563298314,
				"y": -0.5304719613,
				"z": -2.9848146959,
				"element": "C" 
			},
			{
				"x": 0.0318106026,
				"y": -0.5666360413,
				"z": -1.9407413426,
				"element": "C" 
			},
			{
				"x": -0.0278024713,
				"y": 2.8432097502,
				"z": 1.0527049808,
				"element": "C" 
			},
			{
				"x": 1.0270400531,
				"y": 3.8034327277,
				"z": 0.4548592546,
				"element": "C" 
			},
			{
				"x": 1.0077744339,
				"y": 1.5893367212,
				"z": -0.9555926395,
				"element": "H" 
			},
			{
				"x": 2.822579822,
				"y": 3.7087771658,
				"z": -0.756864334,
				"element": "H" 
			},
			{
				"x": 3.6346514417,
				"y": 2.6316330841,
				"z": 1.2098197588,
				"element": "H" 
			},
			{
				"x": 3.3179669795,
				"y": 1.2937765762,
				"z": 0.1038311548,
				"element": "H" 
			},
			{
				"x": 2.164980548,
				"y": 0.4740337249,
				"z": 1.9878042771,
				"element": "H" 
			},
			{
				"x": 1.8820148355,
				"y": 2.0737320607,
				"z": 2.6658059863,
				"element": "H" 
			},
			{
				"x": -1.4495678098,
				"y": 0.9062411112,
				"z": 1.6774967841,
				"element": "H" 
			},
			{
				"x": -0.3425632227,
				"y": 0.9148688002,
				"z": 3.0530387405,
				"element": "H" 
			},
			{
				"x": -0.7761692554,
				"y": -1.3619053465,
				"z": 2.6653580415,
				"element": "H" 
			},
			{
				"x": 0.7817987252,
				"y": -1.1884083654,
				"z": 1.8516780267,
				"element": "H" 
			},
			{
				"x": 1.1878117969,
				"y": -3.3059813823,
				"z": -0.2679158114,
				"element": "H" 
			},
			{
				"x": 2.8524499179,
				"y": -3.2360783323,
				"z": -2.1258310711,
				"element": "H" 
			},
			{
				"x": 0.8961383449,
				"y": 0.2384951377,
				"z": -3.7451470205,
				"element": "H" 
			},
			{
				"x": -0.7770529276,
				"y": 0.1544056103,
				"z": -1.8908515432,
				"element": "H" 
			},
			{
				"x": -0.9161528098,
				"y": 2.7989280846,
				"z": 0.4147315077,
				"element": "H" 
			},
			{
				"x": -0.355611134,
				"y": 3.2220074186,
				"z": 2.0377981718,
				"element": "H" 
			},
			{
				"x": 0.5411575539,
				"y": 4.5140597878,
				"z": -0.2197488483,
				"element": "H" 
			},
			{
				"x": 1.5040490087,
				"y": 4.388031284,
				"z": 1.251028464,
				"element": "H" 
			}
		],
		 "valence_orbital": [ 
			{
				"type": "occ",
				"energy": -0.28875,
				"method": "rhf"
			},
			{
				"type": "occ",
				"energy": -0.2816,
				"method": "rhf"
			},
			{
				"type": "occ",
				"energy": -0.2613,
				"method": "rhf"
			},
			{
				"type": "occ",
				"energy": -0.25692,
				"method": "rhf"
			},
			{
				"type": "occ",
				"energy": -0.23678,
				"method": "rhf"
			},
			{
				"type": "unocc",
				"energy": -0.04905,
				"method": "rhf"
			},
			{
				"type": "unocc",
				"energy": -0.03305,
				"method": "rhf"
			},
			{
				"type": "unocc",
				"energy": -0.00315,
				"method": "rhf"
			},
			{
				"type": "unocc",
				"energy": 0.05342,
				"method": "rhf"
			},
			{
				"type": "unocc",
				"energy": 0.05907,
				"method": "rhf"
			}
		],
		"cosmo_sigma_profile": { 
			"-0.025": 0.0,
			"-0.024": 0.0,
			"-0.023": 0.0,
			"-0.022": 0.0,
			"-0.021": 0.0,
			"-0.02": 0.0,
			"-0.019": 0.0,
			"-0.018": 0.0,
			"-0.017": 0.0,
			"-0.016": 0.0,
			"-0.015": 0.0,
			"-0.014": 0.0,
			"-0.013": 0.0,
			"-0.012": 0.0,
			"-0.011": 0.0,
			"-0.01": 0.00805384473508,
			"-0.009": 1.18902456384,
			"-0.008": 10.1487428593,
			"-0.007": 13.0444335319,
			"-0.006": 10.5784519445,
			"-0.005": 12.9799953701,
			"-0.004": 21.3001451746,
			"-0.003": 39.4087539587,
			"-0.002": 39.71136162,
			"-0.001": 28.2915471242,
			"0.0": 29.6148446109,
			"0.001": 27.115492293,
			"0.002": 13.713572569,
			"0.003": 12.5647969623,
			"0.004": 13.4819591262,
			"0.005": 5.63475626717,
			"0.006": 3.32508769536,
			"0.007": 3.94089489197,
			"0.008": 4.42047681982,
			"0.009": 4.9210708018,
			"0.01": 5.34099544096,
			"0.011": 9.36905502935,
			"0.012": 8.33344113197,
			"0.013": 1.58153311326,
			"0.014": 1.64630686972,
			"0.015": 1.26481850983,
			"0.016": 0.112924238452,
			"0.017": 0.0,
			"0.018": 0.0,
			"0.019": 0.0,
			"0.02": 0.0,
			"0.021": 0.0,
			"0.022": 0.0,
			"0.023": 0.0,
			"0.024": 0.0,
			"0.025": 0.0
		}
	}
}
