{
	 "smiles": "OCC1=CC=C(CN2C=NC=N2)C=C1", 
	 "Tm": 342.15, 
	 "num_atms": 25, 
	 "gaussian": { 
		 "optdone": 1, 
		 "sigma_profile": "yes", 
		 "theory": "DFT", 
		 "functional": "B3LYP", 
		 "basiset": "6-31G**", 
		 "properties": { 
			 "R2extent": 3738.632, 
			 "electric_dipole_moment_norm": 1.77357662084, 
			 "electric_quadrupole_moment_norm": 16.7465771374, 
			 "total_energy": -627.145022303, 
			 "HOMO_LUMO_gap": 0.22862, 
			 "cosmo_polarized_energy": -15.13, 
			 "cosmo_cavitation_energy": 29.42, 
			 "cosmo_dispersion_energy": -21.11, 
			 "cosmo_repulsion_energy": 1.66, 
			 "cosmo_total_nonelectrostatic_energy": 9.97, 
			 "SMD_solvation_energy": 3.05 
		},
		"coords": [
			{
				"x": -2.3127730965,
				"y": -2.2027250972,
				"z": -3.2812539466,
				"element": "O" 
			},
			{
				"x": -1.5202538007,
				"y": -2.7495480953,
				"z": -2.2380001742,
				"element": "C" 
			},
			{
				"x": -1.1197340952,
				"y": -1.7393971957,
				"z": -1.1786233566,
				"element": "C" 
			},
			{
				"x": -1.9298837845,
				"y": -0.6318076205,
				"z": -0.9108687857,
				"element": "C" 
			},
			{
				"x": -1.5723232165,
				"y": 0.2835213711,
				"z": 0.080241806,
				"element": "C" 
			},
			{
				"x": -0.4057051421,
				"y": 0.106273135,
				"z": 0.8299148032,
				"element": "C" 
			},
			{
				"x": -0.0364264857,
				"y": 1.091806518,
				"z": 1.9230056117,
				"element": "C" 
			},
			{
				"x": 1.2878782891,
				"y": 1.6872023139,
				"z": 1.757124666,
				"element": "N" 
			},
			{
				"x": 1.6549783771,
				"y": 2.8027352759,
				"z": 1.0867355316,
				"element": "C" 
			},
			{
				"x": 2.9689819458,
				"y": 2.9543661903,
				"z": 1.1189969293,
				"element": "N" 
			},
			{
				"x": 3.3698997356,
				"y": 1.8670815987,
				"z": 1.8339723328,
				"element": "C" 
			},
			{
				"x": 2.3946748708,
				"y": 1.0664208048,
				"z": 2.2439287158,
				"element": "N" 
			},
			{
				"x": 0.4070365966,
				"y": -1.0043088341,
				"z": 0.5642818963,
				"element": "C" 
			},
			{
				"x": 0.0550078915,
				"y": -1.9094534982,
				"z": -0.433809812,
				"element": "C" 
			},
			{
				"x": -1.7941564825,
				"y": -1.5058308803,
				"z": -3.705334391,
				"element": "H" 
			},
			{
				"x": -2.1416305466,
				"y": -3.5338317073,
				"z": -1.788677908,
				"element": "H" 
			},
			{
				"x": -0.6196701904,
				"y": -3.2477315085,
				"z": -2.6305335157,
				"element": "H" 
			},
			{
				"x": -2.8360555903,
				"y": -0.4898768701,
				"z": -1.4914386384,
				"element": "H" 
			},
			{
				"x": -2.211701173,
				"y": 1.1423352918,
				"z": 0.2724794615,
				"element": "H" 
			},
			{
				"x": -0.0271125519,
				"y": 0.6073666092,
				"z": 2.9033606034,
				"element": "H" 
			},
			{
				"x": -0.7639565326,
				"y": 1.9073786632,
				"z": 1.9606395537,
				"element": "H" 
			},
			{
				"x": 0.9441482938,
				"y": 3.4625312541,
				"z": 0.6081970832,
				"element": "H" 
			},
			{
				"x": 4.4056117162,
				"y": 1.661595241,
				"z": 2.067454611,
				"element": "H" 
			},
			{
				"x": 1.3240940958,
				"y": -1.1410581197,
				"z": 1.1299480443,
				"element": "H" 
			},
			{
				"x": 0.7025708761,
				"y": -2.7592448402,
				"z": -0.6380411214,
				"element": "H" 
			}
		],
		 "valence_orbital": [ 
			{
				"type": "occ",
				"energy": -0.28355,
				"method": "rhf"
			},
			{
				"type": "occ",
				"energy": -0.27463,
				"method": "rhf"
			},
			{
				"type": "occ",
				"energy": -0.26432,
				"method": "rhf"
			},
			{
				"type": "occ",
				"energy": -0.25957,
				"method": "rhf"
			},
			{
				"type": "occ",
				"energy": -0.2474,
				"method": "rhf"
			},
			{
				"type": "unocc",
				"energy": -0.01878,
				"method": "rhf"
			},
			{
				"type": "unocc",
				"energy": -0.01203,
				"method": "rhf"
			},
			{
				"type": "unocc",
				"energy": 0.00771,
				"method": "rhf"
			},
			{
				"type": "unocc",
				"energy": 0.05352,
				"method": "rhf"
			},
			{
				"type": "unocc",
				"energy": 0.07981,
				"method": "rhf"
			}
		],
		"cosmo_sigma_profile": { 
			"-0.025": 0.0,
			"-0.024": 0.0,
			"-0.023": 0.0,
			"-0.022": 0.0,
			"-0.021": 0.0,
			"-0.02": 0.0,
			"-0.019": 0.0,
			"-0.018": 0.0,
			"-0.017": 0.0,
			"-0.016": 0.125919376689,
			"-0.015": 1.06588896252,
			"-0.014": 0.755943947577,
			"-0.013": 0.907520384911,
			"-0.012": 0.891122144731,
			"-0.011": 1.21563636433,
			"-0.01": 3.62124798044,
			"-0.009": 3.67299221808,
			"-0.008": 6.67617117124,
			"-0.007": 8.66192310448,
			"-0.006": 10.9854897803,
			"-0.005": 16.2200154138,
			"-0.004": 18.5652725546,
			"-0.003": 17.1933232192,
			"-0.002": 15.0591531058,
			"-0.001": 12.7172287681,
			"0.0": 12.9668291366,
			"0.001": 12.8259849433,
			"0.002": 16.2086556768,
			"0.003": 12.7984347839,
			"0.004": 12.5092577251,
			"0.005": 12.5901950772,
			"0.006": 6.13521840664,
			"0.007": 4.63317995665,
			"0.008": 3.38196242256,
			"0.009": 2.44793351784,
			"0.01": 2.63681833723,
			"0.011": 4.07981634033,
			"0.012": 2.96992479362,
			"0.013": 3.30224446287,
			"0.014": 3.81217659738,
			"0.015": 1.24462744372,
			"0.016": 0.993579512406,
			"0.017": 0.506120524271,
			"0.018": 0.0,
			"0.019": 0.0,
			"0.02": 0.0,
			"0.021": 0.0,
			"0.022": 0.0,
			"0.023": 0.0,
			"0.024": 0.0,
			"0.025": 0.0
		}
	}
}
