{
	 "smiles": "COCCCS(=O)(=O)NCC(O)=O", 
	 "Tm": 333.15, 
	 "num_atms": 26, 
	 "gaussian": { 
		 "optdone": 1, 
		 "sigma_profile": "yes", 
		 "theory": "DFT", 
		 "functional": "B3LYP", 
		 "basiset": "6-31G**", 
		 "properties": { 
			 "R2extent": 4470.4702, 
			 "electric_dipole_moment_norm": 4.37486168696, 
			 "electric_quadrupole_moment_norm": 14.2166827692, 
			 "total_energy": -1065.45910538, 
			 "HOMO_LUMO_gap": 0.25409, 
			 "cosmo_polarized_energy": -22.7, 
			 "cosmo_cavitation_energy": 31.09, 
			 "cosmo_dispersion_energy": -22.48, 
			 "cosmo_repulsion_energy": 1.78, 
			 "cosmo_total_nonelectrostatic_energy": 10.38, 
			 "SMD_solvation_energy": 5.58 
		},
		"coords": [
			{
				"x": 0.865632911,
				"y": 3.8427735882,
				"z": -2.1003347365,
				"element": "C" 
			},
			{
				"x": -0.1891128426,
				"y": 2.9058319401,
				"z": -2.0310924285,
				"element": "O" 
			},
			{
				"x": -0.2330477036,
				"y": 2.1570590092,
				"z": -0.8290329094,
				"element": "C" 
			},
			{
				"x": 0.7691241443,
				"y": 0.9915592101,
				"z": -0.8357305468,
				"element": "C" 
			},
			{
				"x": 0.8165478188,
				"y": 0.1896839805,
				"z": 0.4692948642,
				"element": "C" 
			},
			{
				"x": -0.6724731279,
				"y": -0.8138338353,
				"z": 0.7372322895,
				"element": "S" 
			},
			{
				"x": -1.7788553593,
				"y": 0.0613568704,
				"z": 1.1415710732,
				"element": "O" 
			},
			{
				"x": -0.7959813574,
				"y": -1.7383342891,
				"z": -0.3972412467,
				"element": "O" 
			},
			{
				"x": -0.2382039636,
				"y": -1.688129893,
				"z": 2.1349075196,
				"element": "N" 
			},
			{
				"x": 0.1353101938,
				"y": -3.0894717365,
				"z": 1.9537202809,
				"element": "C" 
			},
			{
				"x": -0.9887952262,
				"y": -4.0773656609,
				"z": 1.655482742,
				"element": "C" 
			},
			{
				"x": -2.1974324342,
				"y": -3.5986087956,
				"z": 2.0223175797,
				"element": "O" 
			},
			{
				"x": -0.8093996231,
				"y": -5.182681964,
				"z": 1.2033031244,
				"element": "O" 
			},
			{
				"x": 0.8340253541,
				"y": 4.5523303556,
				"z": -1.2582308173,
				"element": "H" 
			},
			{
				"x": 0.7380123117,
				"y": 4.3985752818,
				"z": -3.0325109147,
				"element": "H" 
			},
			{
				"x": 1.8601668136,
				"y": 3.3713168657,
				"z": -2.1148892471,
				"element": "H" 
			},
			{
				"x": -0.0473505558,
				"y": 2.8087641642,
				"z": 0.0417649971,
				"element": "H" 
			},
			{
				"x": -1.2542875551,
				"y": 1.7789399229,
				"z": -0.7399518591,
				"element": "H" 
			},
			{
				"x": 0.542846448,
				"y": 0.3221931635,
				"z": -1.6717285522,
				"element": "H" 
			},
			{
				"x": 1.7806950742,
				"y": 1.3791140356,
				"z": -1.0033963996,
				"element": "H" 
			},
			{
				"x": 1.6462921013,
				"y": -0.5226544406,
				"z": 0.4653530191,
				"element": "H" 
			},
			{
				"x": 0.9093739488,
				"y": 0.8253692849,
				"z": 1.3544976758,
				"element": "H" 
			},
			{
				"x": -0.9964781021,
				"y": -1.5617622267,
				"z": 2.8021132825,
				"element": "H" 
			},
			{
				"x": 0.8643705764,
				"y": -3.1827408058,
				"z": 1.1476884925,
				"element": "H" 
			},
			{
				"x": 0.6303629395,
				"y": -3.4272583247,
				"z": 2.8720445178,
				"element": "H" 
			},
			{
				"x": -2.8511427846,
				"y": -4.2805257006,
				"z": 1.7938481995,
				"element": "H" 
			}
		],
		 "valence_orbital": [ 
			{
				"type": "occ",
				"energy": -0.31056,
				"method": "rhf"
			},
			{
				"type": "occ",
				"energy": -0.30652,
				"method": "rhf"
			},
			{
				"type": "occ",
				"energy": -0.29942,
				"method": "rhf"
			},
			{
				"type": "occ",
				"energy": -0.26975,
				"method": "rhf"
			},
			{
				"type": "occ",
				"energy": -0.25499,
				"method": "rhf"
			},
			{
				"type": "unocc",
				"energy": -0.0009,
				"method": "rhf"
			},
			{
				"type": "unocc",
				"energy": 0.04953,
				"method": "rhf"
			},
			{
				"type": "unocc",
				"energy": 0.0505,
				"method": "rhf"
			},
			{
				"type": "unocc",
				"energy": 0.07166,
				"method": "rhf"
			},
			{
				"type": "unocc",
				"energy": 0.08367,
				"method": "rhf"
			}
		],
		"cosmo_sigma_profile": { 
			"-0.025": 0.0,
			"-0.024": 0.0,
			"-0.023": 0.0,
			"-0.022": 0.0,
			"-0.021": 0.0,
			"-0.02": 0.0,
			"-0.019": 0.359758257672,
			"-0.018": 1.08612150524,
			"-0.017": 0.973986742317,
			"-0.016": 0.893611123721,
			"-0.015": 0.44100831962,
			"-0.014": 1.69275849741,
			"-0.013": 1.55492008694,
			"-0.012": 0.74099595226,
			"-0.011": 2.01343638731,
			"-0.01": 2.52375238706,
			"-0.009": 5.55418208506,
			"-0.008": 9.71570959024,
			"-0.007": 9.36910295568,
			"-0.006": 9.60265655302,
			"-0.005": 16.1904829784,
			"-0.004": 20.4593367236,
			"-0.003": 19.8258312565,
			"-0.002": 18.9982859903,
			"-0.001": 13.2223239679,
			"0.0": 9.64509959855,
			"0.001": 6.85198599974,
			"0.002": 5.98720025868,
			"0.003": 8.36395508819,
			"0.004": 8.09516024364,
			"0.005": 8.5018885978,
			"0.006": 8.38299885592,
			"0.007": 5.37494250187,
			"0.008": 6.54802177798,
			"0.009": 7.15105357875,
			"0.01": 10.8363907235,
			"0.011": 13.9963127315,
			"0.012": 5.7749935841,
			"0.013": 2.02097471262,
			"0.014": 0.349249387864,
			"0.015": 0.0,
			"0.016": 0.0,
			"0.017": 0.0,
			"0.018": 0.0,
			"0.019": 0.0,
			"0.02": 0.0,
			"0.021": 0.0,
			"0.022": 0.0,
			"0.023": 0.0,
			"0.024": 0.0,
			"0.025": 0.0
		}
	}
}
