{
	 "smiles": "OCC1=CC(=CC=C1)C(O)=O", 
	 "Tm": 385.15, 
	 "num_atms": 19, 
	 "gaussian": { 
		 "optdone": 1, 
		 "sigma_profile": "yes", 
		 "theory": "DFT", 
		 "functional": "B3LYP", 
		 "basiset": "6-31G**", 
		 "properties": { 
			 "R2extent": 2604.9575, 
			 "electric_dipole_moment_norm": 4.159084707, 
			 "electric_quadrupole_moment_norm": 15.3484498133, 
			 "total_energy": -535.34247625, 
			 "HOMO_LUMO_gap": 0.21101, 
			 "cosmo_polarized_energy": -17.08, 
			 "cosmo_cavitation_energy": 23.46, 
			 "cosmo_dispersion_energy": -17.36, 
			 "cosmo_repulsion_energy": 1.4, 
			 "cosmo_total_nonelectrostatic_energy": 7.5, 
			 "SMD_solvation_energy": 5.25 
		},
		"coords": [
			{
				"x": 4.4447074737,
				"y": 1.7125742775,
				"z": 0.0385534853,
				"element": "O" 
			},
			{
				"x": 3.6122917894,
				"y": 0.8679238607,
				"z": 0.8182503279,
				"element": "C" 
			},
			{
				"x": 2.1483976643,
				"y": 0.9141730515,
				"z": 0.4165108296,
				"element": "C" 
			},
			{
				"x": 1.145580794,
				"y": 0.6340502601,
				"z": 1.3457492347,
				"element": "C" 
			},
			{
				"x": -0.2051312732,
				"y": 0.651467534,
				"z": 0.9756109339,
				"element": "C" 
			},
			{
				"x": -0.5518990308,
				"y": 0.9335340389,
				"z": -0.3533579198,
				"element": "C" 
			},
			{
				"x": 0.4450557189,
				"y": 1.2128404647,
				"z": -1.2878576559,
				"element": "C" 
			},
			{
				"x": 1.7860284511,
				"y": 1.2093464507,
				"z": -0.9047362457,
				"element": "C" 
			},
			{
				"x": -1.2162817585,
				"y": 0.3395208515,
				"z": 2.0390956747,
				"element": "C" 
			},
			{
				"x": -2.4954962475,
				"y": 0.7390711626,
				"z": 1.805477123,
				"element": "O" 
			},
			{
				"x": -0.9429662353,
				"y": -0.234725591,
				"z": 3.0669448176,
				"element": "O" 
			},
			{
				"x": 4.1615881251,
				"y": 2.6243455861,
				"z": 0.1895575116,
				"element": "H" 
			},
			{
				"x": 4.0040586926,
				"y": -0.1443868126,
				"z": 0.6629807199,
				"element": "H" 
			},
			{
				"x": 3.7063826756,
				"y": 1.0812789629,
				"z": 1.8938821508,
				"element": "H" 
			},
			{
				"x": 1.3888188664,
				"y": 0.400115875,
				"z": 2.3781440559,
				"element": "H" 
			},
			{
				"x": -1.5885323553,
				"y": 0.9015478463,
				"z": -0.6805332591,
				"element": "H" 
			},
			{
				"x": 0.1757898193,
				"y": 1.4246564021,
				"z": -2.3183723587,
				"element": "H" 
			},
			{
				"x": 2.5677990487,
				"y": 1.4330629908,
				"z": -1.62376271,
				"element": "H" 
			},
			{
				"x": -2.5280922185,
				"y": 1.3172027881,
				"z": 1.0309632844,
				"element": "H" 
			}
		],
		 "valence_orbital": [ 
			{
				"type": "occ",
				"energy": -0.31723,
				"method": "rhf"
			},
			{
				"type": "occ",
				"energy": -0.29132,
				"method": "rhf"
			},
			{
				"type": "occ",
				"energy": -0.27746,
				"method": "rhf"
			},
			{
				"type": "occ",
				"energy": -0.26626,
				"method": "rhf"
			},
			{
				"type": "occ",
				"energy": -0.26375,
				"method": "rhf"
			},
			{
				"type": "unocc",
				"energy": -0.05274,
				"method": "rhf"
			},
			{
				"type": "unocc",
				"energy": -0.02525,
				"method": "rhf"
			},
			{
				"type": "unocc",
				"energy": 0.04414,
				"method": "rhf"
			},
			{
				"type": "unocc",
				"energy": 0.05995,
				"method": "rhf"
			},
			{
				"type": "unocc",
				"energy": 0.07479,
				"method": "rhf"
			}
		],
		"cosmo_sigma_profile": { 
			"-0.025": 0.0,
			"-0.024": 0.0,
			"-0.023": 0.0,
			"-0.022": 0.0,
			"-0.021": 0.0,
			"-0.02": 0.0,
			"-0.019": 0.170330537353,
			"-0.018": 0.756429868228,
			"-0.017": 1.05691560158,
			"-0.016": 1.38391282119,
			"-0.015": 1.85104800472,
			"-0.014": 1.41593525776,
			"-0.013": 2.29334418328,
			"-0.012": 1.92956092125,
			"-0.011": 1.80972942722,
			"-0.01": 2.38604348804,
			"-0.009": 1.73915623387,
			"-0.008": 2.76896005973,
			"-0.007": 4.44733974678,
			"-0.006": 9.5049608385,
			"-0.005": 13.4320797255,
			"-0.004": 13.4235003872,
			"-0.003": 10.5663575769,
			"-0.002": 11.257899059,
			"-0.001": 10.0596117592,
			"0.0": 9.8522897398,
			"0.001": 9.80736878619,
			"0.002": 10.3262620218,
			"0.003": 13.5736630224,
			"0.004": 8.64358027498,
			"0.005": 2.83382372242,
			"0.006": 4.37048305718,
			"0.007": 2.9540938063,
			"0.008": 3.81114115659,
			"0.009": 4.71474375962,
			"0.01": 5.04133603967,
			"0.011": 7.02922218336,
			"0.012": 6.40907846565,
			"0.013": 3.23453600653,
			"0.014": 1.61742928432,
			"0.015": 0.0,
			"0.016": 0.0,
			"0.017": 0.0,
			"0.018": 0.0,
			"0.019": 0.0,
			"0.02": 0.0,
			"0.021": 0.0,
			"0.022": 0.0,
			"0.023": 0.0,
			"0.024": 0.0,
			"0.025": 0.0
		}
	}
}
