{
	 "smiles": "OC(=O)C1CCN(CC1)S(=O)(=O)C1=CC2=C(C=CC=C2)C=C1", 
	 "Tm": 454.15, 
	 "num_atms": 39, 
	 "gaussian": { 
		 "optdone": 1, 
		 "sigma_profile": "yes", 
		 "theory": "DFT", 
		 "functional": "B3LYP", 
		 "basiset": "6-31G**", 
		 "properties": { 
			 "R2extent": 8641.0621, 
			 "electric_dipole_moment_norm": 7.22139045129, 
			 "electric_quadrupole_moment_norm": 26.8017719828, 
			 "total_energy": -1373.72948139, 
			 "HOMO_LUMO_gap": 0.17313, 
			 "cosmo_polarized_energy": -26.49, 
			 "cosmo_cavitation_energy": 42.38, 
			 "cosmo_dispersion_energy": -30.06, 
			 "cosmo_repulsion_energy": 2.22, 
			 "cosmo_total_nonelectrostatic_energy": 14.54, 
			 "SMD_solvation_energy": 5.5 
		},
		"coords": [
			{
				"x": 2.244735178,
				"y": 3.9856131084,
				"z": -2.4556991787,
				"element": "O" 
			},
			{
				"x": 1.0813053541,
				"y": 3.2801448493,
				"z": -2.44510077,
				"element": "C" 
			},
			{
				"x": 0.2097238913,
				"y": 3.553829002,
				"z": -3.2317425703,
				"element": "O" 
			},
			{
				"x": 0.9921637727,
				"y": 2.1819573089,
				"z": -1.380721765,
				"element": "C" 
			},
			{
				"x": -0.3266932769,
				"y": 1.3823090502,
				"z": -1.4975955164,
				"element": "C" 
			},
			{
				"x": -1.3720609525,
				"y": 1.8767490374,
				"z": -0.4957765519,
				"element": "C" 
			},
			{
				"x": -0.8879776055,
				"y": 1.7540299741,
				"z": 0.8977114127,
				"element": "N" 
			},
			{
				"x": 0.5638303455,
				"y": 1.8871115112,
				"z": 1.1164055381,
				"element": "C" 
			},
			{
				"x": 1.154286186,
				"y": 2.7996817334,
				"z": 0.040118254,
				"element": "C" 
			},
			{
				"x": -1.717434372,
				"y": 0.7697219321,
				"z": 1.9752710039,
				"element": "S" 
			},
			{
				"x": -3.1367334153,
				"y": 0.8816744994,
				"z": 1.6327072153,
				"element": "O" 
			},
			{
				"x": -1.1977475615,
				"y": 1.1051258318,
				"z": 3.3031983278,
				"element": "O" 
			},
			{
				"x": -1.217802407,
				"y": -0.9234260152,
				"z": 1.6264538596,
				"element": "C" 
			},
			{
				"x": -0.1728122532,
				"y": -1.4790999857,
				"z": 2.3323310909,
				"element": "C" 
			},
			{
				"x": 0.263981274,
				"y": -2.7983578555,
				"z": 2.0384858825,
				"element": "C" 
			},
			{
				"x": -0.3964040178,
				"y": -3.5342502165,
				"z": 1.0004250965,
				"element": "C" 
			},
			{
				"x": 0.0453826408,
				"y": -4.8518703103,
				"z": 0.7078657154,
				"element": "C" 
			},
			{
				"x": 1.0888208508,
				"y": -5.415542342,
				"z": 1.4079493313,
				"element": "C" 
			},
			{
				"x": 1.7388019871,
				"y": -4.6890969677,
				"z": 2.4361518721,
				"element": "C" 
			},
			{
				"x": 1.3346389845,
				"y": -3.4099165065,
				"z": 2.7450133707,
				"element": "C" 
			},
			{
				"x": -1.4798386697,
				"y": -2.9258700373,
				"z": 0.3075837773,
				"element": "C" 
			},
			{
				"x": -1.8908802219,
				"y": -1.6490153753,
				"z": 0.6091019861,
				"element": "C" 
			},
			{
				"x": 2.8530939471,
				"y": 3.645928748,
				"z": -1.7844795105,
				"element": "H" 
			},
			{
				"x": 1.836370598,
				"y": 1.5001533632,
				"z": -1.5557053831,
				"element": "H" 
			},
			{
				"x": -0.1313632563,
				"y": 0.3199520761,
				"z": -1.3188190476,
				"element": "H" 
			},
			{
				"x": -0.7203711287,
				"y": 1.4858941658,
				"z": -2.5116297949,
				"element": "H" 
			},
			{
				"x": -1.6108990233,
				"y": 2.9285811402,
				"z": -0.6927994027,
				"element": "H" 
			},
			{
				"x": -2.3091133596,
				"y": 1.3267187818,
				"z": -0.5881136484,
				"element": "H" 
			},
			{
				"x": 1.0689389466,
				"y": 0.9074773131,
				"z": 1.0819484253,
				"element": "H" 
			},
			{
				"x": 0.7263162188,
				"y": 2.3091595995,
				"z": 2.1100253189,
				"element": "H" 
			},
			{
				"x": 2.2095974619,
				"y": 2.9746195014,
				"z": 0.2787807514,
				"element": "H" 
			},
			{
				"x": 0.6537432443,
				"y": 3.7729834802,
				"z": 0.0909474897,
				"element": "H" 
			},
			{
				"x": 0.2979392926,
				"y": -0.9173945266,
				"z": 3.1327647717,
				"element": "H" 
			},
			{
				"x": -0.4561458203,
				"y": -5.4102818658,
				"z": -0.0780508406,
				"element": "H" 
			},
			{
				"x": 1.4171020646,
				"y": -6.4242627626,
				"z": 1.1752222355,
				"element": "H" 
			},
			{
				"x": 2.5577451079,
				"y": -5.1481061334,
				"z": 2.9819254747,
				"element": "H" 
			},
			{
				"x": 1.8280901231,
				"y": -2.8499044671,
				"z": 3.5348221007,
				"element": "H" 
			},
			{
				"x": -1.9941974982,
				"y": -3.4948927126,
				"z": -0.4622493266,
				"element": "H" 
			},
			{
				"x": -2.74103263,
				"y": -1.2011279273,
				"z": 0.1070730045,
				"element": "H" 
			}
		],
		 "valence_orbital": [ 
			{
				"type": "occ",
				"energy": -0.29808,
				"method": "rhf"
			},
			{
				"type": "occ",
				"energy": -0.27972,
				"method": "rhf"
			},
			{
				"type": "occ",
				"energy": -0.27,
				"method": "rhf"
			},
			{
				"type": "occ",
				"energy": -0.24907,
				"method": "rhf"
			},
			{
				"type": "occ",
				"energy": -0.23559,
				"method": "rhf"
			},
			{
				"type": "unocc",
				"energy": -0.06246,
				"method": "rhf"
			},
			{
				"type": "unocc",
				"energy": -0.03676,
				"method": "rhf"
			},
			{
				"type": "unocc",
				"energy": -0.00072,
				"method": "rhf"
			},
			{
				"type": "unocc",
				"energy": 0.01037,
				"method": "rhf"
			},
			{
				"type": "unocc",
				"energy": 0.0328,
				"method": "rhf"
			}
		],
		"cosmo_sigma_profile": { 
			"-0.025": 0.0,
			"-0.024": 0.0,
			"-0.023": 0.0,
			"-0.022": 0.0,
			"-0.021": 0.0,
			"-0.02": 0.0,
			"-0.019": 0.0755582261916,
			"-0.018": 1.1813305117,
			"-0.017": 0.834699472504,
			"-0.016": 1.38594850933,
			"-0.015": 1.2893054961,
			"-0.014": 0.785071192095,
			"-0.013": 1.41540939456,
			"-0.012": 0.868717134735,
			"-0.011": 1.46386777801,
			"-0.01": 1.0362507173,
			"-0.009": 1.42074295758,
			"-0.008": 2.05592532762,
			"-0.007": 10.740551514,
			"-0.006": 24.9502227481,
			"-0.005": 28.5692872066,
			"-0.004": 30.5178722023,
			"-0.003": 27.5915139414,
			"-0.002": 20.974819778,
			"-0.001": 17.92510433,
			"0.0": 15.1124122179,
			"0.001": 15.5276834622,
			"0.002": 25.1510752398,
			"0.003": 21.174595179,
			"0.004": 15.4777810977,
			"0.005": 8.24490996269,
			"0.006": 5.84082202914,
			"0.007": 6.88186313399,
			"0.008": 5.85452805101,
			"0.009": 6.57612389954,
			"0.01": 11.2240848971,
			"0.011": 13.2143403227,
			"0.012": 9.25617962024,
			"0.013": 1.20596315703,
			"0.014": 0.00031019979274,
			"0.015": 0.0,
			"0.016": 0.0,
			"0.017": 0.0,
			"0.018": 0.0,
			"0.019": 0.0,
			"0.02": 0.0,
			"0.021": 0.0,
			"0.022": 0.0,
			"0.023": 0.0,
			"0.024": 0.0,
			"0.0": 0.0
		}
	}
}
