{
	 "smiles": "CCC(C)N1N=CC(C(O)=O)=C1C1CC1", 
	 "Tm": 390.15, 
	 "num_atms": 31, 
	 "gaussian": { 
		 "optdone": 1, 
		 "sigma_profile": "yes", 
		 "theory": "DFT", 
		 "functional": "B3LYP", 
		 "basiset": "6-31G**", 
		 "properties": { 
			 "R2extent": 3524.3511, 
			 "electric_dipole_moment_norm": 7.34387570565, 
			 "electric_quadrupole_moment_norm": 14.9274703852, 
			 "total_energy": -688.734807, 
			 "HOMO_LUMO_gap": 0.22797, 
			 "cosmo_polarized_energy": -17.04, 
			 "cosmo_cavitation_energy": 32.42, 
			 "cosmo_dispersion_energy": -22.78, 
			 "cosmo_repulsion_energy": 1.78, 
			 "cosmo_total_nonelectrostatic_energy": 11.41, 
			 "SMD_solvation_energy": 5.34 
		},
		"coords": [
			{
				"x": -0.0071204117,
				"y": -3.4344308684,
				"z": -2.5929961054,
				"element": "C" 
			},
			{
				"x": -0.2275830615,
				"y": -2.4185207894,
				"z": -1.4650687131,
				"element": "C" 
			},
			{
				"x": 0.5207701965,
				"y": -1.0952329614,
				"z": -1.7033094748,
				"element": "C" 
			},
			{
				"x": -0.0240167605,
				"y": -0.2613990343,
				"z": -2.8701180225,
				"element": "C" 
			},
			{
				"x": 0.6564361384,
				"y": -0.2851421235,
				"z": -0.4714409315,
				"element": "N" 
			},
			{
				"x": 1.9019466804,
				"y": 0.2139734522,
				"z": -0.2392500268,
				"element": "N" 
			},
			{
				"x": 1.8042140264,
				"y": 0.8913000922,
				"z": 0.8915464504,
				"element": "C" 
			},
			{
				"x": 0.497485873,
				"y": 0.8331439791,
				"z": 1.4277672014,
				"element": "C" 
			},
			{
				"x": 0.1597938098,
				"y": 1.4447513827,
				"z": 2.7314355098,
				"element": "C" 
			},
			{
				"x": -1.0026255555,
				"y": 1.063054704,
				"z": 3.3298437861,
				"element": "O" 
			},
			{
				"x": 0.8877489133,
				"y": 2.2361471435,
				"z": 3.2881162631,
				"element": "O" 
			},
			{
				"x": -0.2365977485,
				"y": 0.0741140942,
				"z": 0.5028515025,
				"element": "C" 
			},
			{
				"x": -1.6738425091,
				"y": -0.3192054281,
				"z": 0.5039183119,
				"element": "C" 
			},
			{
				"x": -2.6606615311,
				"y": 0.2440926917,
				"z": -0.5036009501,
				"element": "C" 
			},
			{
				"x": -2.7621555461,
				"y": 0.6609068197,
				"z": 0.9315327972,
				"element": "C" 
			},
			{
				"x": -0.5039422463,
				"y": -4.3806751852,
				"z": -2.3587030258,
				"element": "H" 
			},
			{
				"x": 1.058610085,
				"y": -3.6449190222,
				"z": -2.7348099694,
				"element": "H" 
			},
			{
				"x": -0.4090653214,
				"y": -3.0815414816,
				"z": -3.5477055807,
				"element": "H" 
			},
			{
				"x": 0.1255752298,
				"y": -2.8481885893,
				"z": -0.52010713,
				"element": "H" 
			},
			{
				"x": -1.3003011408,
				"y": -2.2305283814,
				"z": -1.3515005429,
				"element": "H" 
			},
			{
				"x": 1.5638440759,
				"y": -1.3371039586,
				"z": -1.925486588,
				"element": "H" 
			},
			{
				"x": 0.5268314891,
				"y": 0.6795828589,
				"z": -2.9485286805,
				"element": "H" 
			},
			{
				"x": -1.0872862903,
				"y": -0.0384512686,
				"z": -2.7521476502,
				"element": "H" 
			},
			{
				"x": 0.1029733611,
				"y": -0.8045022467,
				"z": -3.810847181,
				"element": "H" 
			},
			{
				"x": 2.6608070945,
				"y": 1.3922213391,
				"z": 1.3198249972,
				"element": "H" 
			},
			{
				"x": -1.4516546247,
				"y": 0.401744386,
				"z": 2.7837509845,
				"element": "H" 
			},
			{
				"x": -1.8598763021,
				"y": -1.3552989358,
				"z": 0.782907126,
				"element": "H" 
			},
			{
				"x": -2.293110762,
				"y": 0.987497106,
				"z": -1.2022551792,
				"element": "H" 
			},
			{
				"x": -3.4080642777,
				"y": -0.4304976905,
				"z": -0.9095465486,
				"element": "H" 
			},
			{
				"x": -3.5833092614,
				"y": 0.2748684671,
				"z": 1.5282761543,
				"element": "H" 
			},
			{
				"x": -2.4688236225,
				"y": 1.6754394486,
				"z": 1.1771512164,
				"element": "H" 
			}
		],
		 "valence_orbital": [ 
			{
				"type": "occ",
				"energy": -0.30281,
				"method": "rhf"
			},
			{
				"type": "occ",
				"energy": -0.28955,
				"method": "rhf"
			},
			{
				"type": "occ",
				"energy": -0.2625,
				"method": "rhf"
			},
			{
				"type": "occ",
				"energy": -0.2563,
				"method": "rhf"
			},
			{
				"type": "occ",
				"energy": -0.24963,
				"method": "rhf"
			},
			{
				"type": "unocc",
				"energy": -0.02166,
				"method": "rhf"
			},
			{
				"type": "unocc",
				"energy": 0.0168,
				"method": "rhf"
			},
			{
				"type": "unocc",
				"energy": 0.06262,
				"method": "rhf"
			},
			{
				"type": "unocc",
				"energy": 0.0725,
				"method": "rhf"
			},
			{
				"type": "unocc",
				"energy": 0.08755,
				"method": "rhf"
			}
		],
		"cosmo_sigma_profile": { 
			"-0.025": 0.0,
			"-0.024": 0.0,
			"-0.023": 0.0,
			"-0.022": 0.0,
			"-0.021": 0.0,
			"-0.02": 0.0,
			"-0.019": 0.0,
			"-0.018": 0.0,
			"-0.017": 0.0,
			"-0.016": 0.0,
			"-0.015": 0.0,
			"-0.014": 0.129780621786,
			"-0.013": 0.660491052355,
			"-0.012": 0.794337337157,
			"-0.011": 1.42310592944,
			"-0.01": 0.73213873625,
			"-0.009": 0.743386123842,
			"-0.008": 1.39279960104,
			"-0.007": 3.87527216295,
			"-0.006": 12.0313592021,
			"-0.005": 17.9513375922,
			"-0.004": 22.8617851102,
			"-0.003": 29.2027177791,
			"-0.002": 28.3460856997,
			"-0.001": 26.3948017905,
			"0.0": 22.6226326692,
			"0.001": 17.6379436412,
			"0.002": 9.23059255321,
			"0.003": 8.77736845597,
			"0.004": 5.29971879994,
			"0.005": 4.7890291635,
			"0.006": 3.221080687,
			"0.007": 4.46743946177,
			"0.008": 3.82171835655,
			"0.009": 4.03812518245,
			"0.01": 4.53837223032,
			"0.011": 6.06817227944,
			"0.012": 7.06373288517,
			"0.013": 4.14140017243,
			"0.014": 2.05845263025,
			"0.015": 0.414089418937,
			"0.016": 0.0,
			"0.017": 0.0,
			"0.018": 0.0,
			"0.019": 0.0,
			"0.02": 0.0,
			"0.021": 0.0,
			"0.022": 0.0,
			"0.023": 0.0,
			"0.024": 0.0,
			"0.025": 0.0
		}
	}
}
