{
	 "smiles": "O=C(CN1CCNCC1)NC1CC1", 
	 "Tm": 296.15, 
	 "num_atms": 30, 
	 "gaussian": { 
		 "optdone": 1, 
		 "sigma_profile": "yes", 
		 "theory": "DFT", 
		 "functional": "B3LYP", 
		 "basiset": "6-31G**", 
		 "properties": { 
			 "R2extent": 3438.5247, 
			 "electric_dipole_moment_norm": 2.58934770357, 
			 "electric_quadrupole_moment_norm": 13.8794351049, 
			 "total_energy": -592.632446192, 
			 "HOMO_LUMO_gap": 0.23401, 
			 "cosmo_polarized_energy": -14.85, 
			 "cosmo_cavitation_energy": 30.96, 
			 "cosmo_dispersion_energy": -22.0, 
			 "cosmo_repulsion_energy": 1.78, 
			 "cosmo_total_nonelectrostatic_energy": 10.74, 
			 "SMD_solvation_energy": 0.95 
		},
		"coords": [
			{
				"x": -0.4193659711,
				"y": -0.7085694405,
				"z": -1.9995899665,
				"element": "O" 
			},
			{
				"x": -0.0727092457,
				"y": -0.0646715451,
				"z": -1.0194483318,
				"element": "C" 
			},
			{
				"x": 1.3634689959,
				"y": -0.2090821527,
				"z": -0.4660756285,
				"element": "C" 
			},
			{
				"x": 1.749275954,
				"y": 0.3940533672,
				"z": 0.7903064151,
				"element": "N" 
			},
			{
				"x": 1.1905162199,
				"y": -0.1901730181,
				"z": 2.0063967336,
				"element": "C" 
			},
			{
				"x": 1.7738005398,
				"y": 0.5374684664,
				"z": 3.245247051,
				"element": "C" 
			},
			{
				"x": 3.1080246855,
				"y": 1.0819032229,
				"z": 3.0073504833,
				"element": "N" 
			},
			{
				"x": 3.0713038022,
				"y": 2.1040115183,
				"z": 1.9525699673,
				"element": "C" 
			},
			{
				"x": 1.9979178012,
				"y": 1.8241526887,
				"z": 0.8594361555,
				"element": "C" 
			},
			{
				"x": -0.902443739,
				"y": 0.8093952809,
				"z": -0.3673312088,
				"element": "N" 
			},
			{
				"x": -2.2150882547,
				"y": 1.1164725273,
				"z": -0.8630252719,
				"element": "C" 
			},
			{
				"x": -3.2855553245,
				"y": 1.4516938454,
				"z": 0.142889371,
				"element": "C" 
			},
			{
				"x": -3.3372837811,
				"y": 0.1454048933,
				"z": -0.6120344486,
				"element": "C" 
			},
			{
				"x": 2.0256195307,
				"y": 0.1623630082,
				"z": -1.2586035676,
				"element": "H" 
			},
			{
				"x": 1.5388089887,
				"y": -1.2909252516,
				"z": -0.4128131227,
				"element": "H" 
			},
			{
				"x": 0.0848274491,
				"y": -0.1570358273,
				"z": 2.0420845526,
				"element": "H" 
			},
			{
				"x": 1.4687036131,
				"y": -1.2533880795,
				"z": 2.0260383864,
				"element": "H" 
			},
			{
				"x": 1.800371524,
				"y": -0.1471367095,
				"z": 4.0992739206,
				"element": "H" 
			},
			{
				"x": 1.1228395046,
				"y": 1.3716440209,
				"z": 3.535931853,
				"element": "H" 
			},
			{
				"x": 3.708040441,
				"y": 0.3227994471,
				"z": 2.6945353794,
				"element": "H" 
			},
			{
				"x": 2.8755532201,
				"y": 3.0849354567,
				"z": 2.4066222031,
				"element": "H" 
			},
			{
				"x": 4.0659311736,
				"y": 2.1534264531,
				"z": 1.4988604241,
				"element": "H" 
			},
			{
				"x": 1.0902955123,
				"y": 2.4225778511,
				"z": 1.0841138339,
				"element": "H" 
			},
			{
				"x": 2.3502481948,
				"y": 2.1679558342,
				"z": -0.1186947129,
				"element": "H" 
			},
			{
				"x": -0.5075472214,
				"y": 1.4074675896,
				"z": 0.34255748,
				"element": "H" 
			},
			{
				"x": -2.2321071753,
				"y": 1.6463429257,
				"z": -1.8139139397,
				"element": "H" 
			},
			{
				"x": -3.0157746415,
				"y": 1.4139012861,
				"z": 1.1945902717,
				"element": "H" 
			},
			{
				"x": -3.9937286526,
				"y": 2.2345130641,
				"z": -0.1099128451,
				"element": "H" 
			},
			{
				"x": -3.089334425,
				"y": -0.7616816842,
				"z": -0.0719167791,
				"element": "H" 
			},
			{
				"x": -4.0794087187,
				"y": 0.0207809614,
				"z": -1.3937446583,
				"element": "H" 
			}
		],
		 "valence_orbital": [ 
			{
				"type": "occ",
				"energy": -0.30079,
				"method": "rhf"
			},
			{
				"type": "occ",
				"energy": -0.25624,
				"method": "rhf"
			},
			{
				"type": "occ",
				"energy": -0.2453,
				"method": "rhf"
			},
			{
				"type": "occ",
				"energy": -0.22527,
				"method": "rhf"
			},
			{
				"type": "occ",
				"energy": -0.20257,
				"method": "rhf"
			},
			{
				"type": "unocc",
				"energy": 0.03144,
				"method": "rhf"
			},
			{
				"type": "unocc",
				"energy": 0.05804,
				"method": "rhf"
			},
			{
				"type": "unocc",
				"energy": 0.08058,
				"method": "rhf"
			},
			{
				"type": "unocc",
				"energy": 0.0997,
				"method": "rhf"
			},
			{
				"type": "unocc",
				"energy": 0.10684,
				"method": "rhf"
			}
		],
		"cosmo_sigma_profile": { 
			"-0.025": 0.0,
			"-0.024": 0.0,
			"-0.023": 0.0,
			"-0.022": 0.0,
			"-0.021": 0.0,
			"-0.02": 0.0,
			"-0.019": 0.0,
			"-0.018": 0.0,
			"-0.017": 0.0,
			"-0.016": 0.0,
			"-0.015": 0.0,
			"-0.014": 0.0,
			"-0.013": 0.0,
			"-0.012": 0.0,
			"-0.011": 0.403756475982,
			"-0.01": 1.3294260316,
			"-0.009": 1.49794907423,
			"-0.008": 2.95026574565,
			"-0.007": 2.91562602896,
			"-0.006": 4.9443334002,
			"-0.005": 16.3642502663,
			"-0.004": 27.4832209154,
			"-0.003": 32.660965283,
			"-0.002": 31.8807279492,
			"-0.001": 26.8874197284,
			"0.0": 20.0262476843,
			"0.001": 11.5850962504,
			"0.002": 8.30589993064,
			"0.003": 7.13040055511,
			"0.004": 4.78996887722,
			"0.005": 4.79469869871,
			"0.006": 3.08408758538,
			"0.007": 2.84324954616,
			"0.008": 2.91434076192,
			"0.009": 2.31327165406,
			"0.01": 2.42364794096,
			"0.011": 2.52926418566,
			"0.012": 2.3882507074,
			"0.013": 3.84483379255,
			"0.014": 5.91899599675,
			"0.015": 4.14319467643,
			"0.016": 0.615599964049,
			"0.017": 0.450695799813,
			"0.018": 0.816513336738,
			"0.019": 0.206634810879,
			"0.02": 0.0,
			"0.021": 0.0,
			"0.022": 0.0,
			"0.023": 0.0,
			"0.024": 0.0,
			"0.025": 0.0
		}
	}
}
