{
	 "smiles": "CC1=CC=C(C=C1)N1N=C(C(O)=O)C2=C1CCC2", 
	 "Tm": 498.15, 
	 "num_atms": 32, 
	 "gaussian": { 
		 "optdone": 1, 
		 "sigma_profile": "yes", 
		 "theory": "DFT", 
		 "functional": "B3LYP", 
		 "basiset": "6-31G**", 
		 "properties": { 
			 "R2extent": 6036.1743, 
			 "electric_dipole_moment_norm": 4.39810550806, 
			 "electric_quadrupole_moment_norm": 22.3865129234, 
			 "total_energy": -801.878313739, 
			 "HOMO_LUMO_gap": 0.1841, 
			 "cosmo_polarized_energy": -15.4, 
			 "cosmo_cavitation_energy": 35.58, 
			 "cosmo_dispersion_energy": -25.93, 
			 "cosmo_repulsion_energy": 2.02, 
			 "cosmo_total_nonelectrostatic_energy": 11.66, 
			 "SMD_solvation_energy": 5.91 
		},
		"coords": [
			{
				"x": -0.5093249277,
				"y": -5.1139525895,
				"z": -0.0774027767,
				"element": "C" 
			},
			{
				"x": -0.3535658666,
				"y": -3.6328652852,
				"z": 0.1726901442,
				"element": "C" 
			},
			{
				"x": 0.6257822141,
				"y": -3.1502166956,
				"z": 1.0546281743,
				"element": "C" 
			},
			{
				"x": 0.8004414011,
				"y": -1.789030885,
				"z": 1.27751321,
				"element": "C" 
			},
			{
				"x": -0.0233187255,
				"y": -0.8702203667,
				"z": 0.6163206631,
				"element": "C" 
			},
			{
				"x": -1.0167778894,
				"y": -1.325856594,
				"z": -0.2533801951,
				"element": "C" 
			},
			{
				"x": -1.1681636753,
				"y": -2.6957218405,
				"z": -0.4711626137,
				"element": "C" 
			},
			{
				"x": 0.1578894784,
				"y": 0.5220761073,
				"z": 0.8457035219,
				"element": "N" 
			},
			{
				"x": 0.8089755438,
				"y": 0.9335773572,
				"z": 1.9584341936,
				"element": "N" 
			},
			{
				"x": 0.8505315286,
				"y": 2.2720003959,
				"z": 1.8798839954,
				"element": "C" 
			},
			{
				"x": 1.5014677131,
				"y": 3.0445131932,
				"z": 2.954296316,
				"element": "C" 
			},
			{
				"x": 1.4268403923,
				"y": 4.3818858319,
				"z": 2.70052298,
				"element": "O" 
			},
			{
				"x": 2.0411924268,
				"y": 2.5991826115,
				"z": 3.9434210981,
				"element": "O" 
			},
			{
				"x": 0.2262381787,
				"y": 2.7272958306,
				"z": 0.6937483448,
				"element": "C" 
			},
			{
				"x": -0.1993807356,
				"y": 1.5881315184,
				"z": 0.0603476698,
				"element": "C" 
			},
			{
				"x": -0.9017787058,
				"y": 1.84433341,
				"z": -1.2413115274,
				"element": "C" 
			},
			{
				"x": -0.542151642,
				"y": 3.3512556541,
				"z": -1.4716372386,
				"element": "C" 
			},
			{
				"x": -0.1378320139,
				"y": 3.9574431202,
				"z": -0.0863948145,
				"element": "C" 
			},
			{
				"x": -1.4461541404,
				"y": -5.3357886654,
				"z": -0.5961302193,
				"element": "H" 
			},
			{
				"x": -0.5002143224,
				"y": -5.6807887094,
				"z": 0.8595553157,
				"element": "H" 
			},
			{
				"x": 0.3098361107,
				"y": -5.5014776814,
				"z": -0.6956387594,
				"element": "H" 
			},
			{
				"x": 1.2693207722,
				"y": -3.8546939088,
				"z": 1.5756931642,
				"element": "H" 
			},
			{
				"x": 1.5559242556,
				"y": -1.420951627,
				"z": 1.9606898294,
				"element": "H" 
			},
			{
				"x": -1.6843853336,
				"y": -0.6272732757,
				"z": -0.7435750516,
				"element": "H" 
			},
			{
				"x": -1.9464102152,
				"y": -3.0380352213,
				"z": -1.1482546693,
				"element": "H" 
			},
			{
				"x": 1.8755114072,
				"y": 4.8115264773,
				"z": 3.4472274081,
				"element": "H" 
			},
			{
				"x": -1.9871493614,
				"y": 1.7006732847,
				"z": -1.1489342722,
				"element": "H" 
			},
			{
				"x": -0.5629428008,
				"y": 1.2076509116,
				"z": -2.0652040367,
				"element": "H" 
			},
			{
				"x": 0.317651429,
				"y": 3.4047441462,
				"z": -2.1468949175,
				"element": "H" 
			},
			{
				"x": -1.3611359509,
				"y": 3.89859805,
				"z": -1.9461706758,
				"element": "H" 
			},
			{
				"x": 0.6802749851,
				"y": 4.6778788854,
				"z": -0.1746601334,
				"element": "H" 
			},
			{
				"x": -0.9752915302,
				"y": 4.4899065599,
				"z": 0.3828758727,
				"element": "H" 
			}
		],
		 "valence_orbital": [ 
			{
				"type": "occ",
				"energy": -0.28249,
				"method": "rhf"
			},
			{
				"type": "occ",
				"energy": -0.26524,
				"method": "rhf"
			},
			{
				"type": "occ",
				"energy": -0.25765,
				"method": "rhf"
			},
			{
				"type": "occ",
				"energy": -0.23843,
				"method": "rhf"
			},
			{
				"type": "occ",
				"energy": -0.22269,
				"method": "rhf"
			},
			{
				"type": "unocc",
				"energy": -0.03859,
				"method": "rhf"
			},
			{
				"type": "unocc",
				"energy": -0.00997,
				"method": "rhf"
			},
			{
				"type": "unocc",
				"energy": 0.00312,
				"method": "rhf"
			},
			{
				"type": "unocc",
				"energy": 0.04268,
				"method": "rhf"
			},
			{
				"type": "unocc",
				"energy": 0.08291,
				"method": "rhf"
			}
		],
		"cosmo_sigma_profile": { 
			"-0.025": 0.0,
			"-0.024": 0.0,
			"-0.023": 0.0,
			"-0.022": 0.0,
			"-0.021": 0.0,
			"-0.02": 0.0,
			"-0.019": 0.0,
			"-0.018": 0.585739909503,
			"-0.017": 0.890829990855,
			"-0.016": 1.03736742955,
			"-0.015": 0.654708346099,
			"-0.014": 0.952168527718,
			"-0.013": 0.461491332114,
			"-0.012": 0.25884128874,
			"-0.011": 1.10698019167,
			"-0.01": 0.984075858626,
			"-0.009": 0.386341870924,
			"-0.008": 0.65786502459,
			"-0.007": 2.23123719926,
			"-0.006": 7.40220693592,
			"-0.005": 14.7628967285,
			"-0.004": 27.7812116203,
			"-0.003": 30.0743866921,
			"-0.002": 30.3510428814,
			"-0.001": 25.714003767,
			"0.0": 27.4913851154,
			"0.001": 18.8839324957,
			"0.002": 17.6602342635,
			"0.003": 13.9165314778,
			"0.004": 14.7412726079,
			"0.005": 11.0265438915,
			"0.006": 4.90361920201,
			"0.007": 4.68327264145,
			"0.008": 2.58776923055,
			"0.009": 1.92921411169,
			"0.01": 3.36324438026,
			"0.011": 3.8959276804,
			"0.012": 6.01686069191,
			"0.013": 2.40721793965,
			"0.014": 1.90606786715,
			"0.015": 0.749116057432,
			"0.016": 0.0,
			"0.017": 0.0,
			"0.018": 0.0,
			"0.019": 0.0,
			"0.02": 0.0,
			"0.021": 0.0,
			"0.022": 0.0,
			"0.023": 0.0,
			"0.024": 0.0,
			"0.025": 0.0
		}
	}
}
