{
	 "smiles": "COC1=NN=C(C=C1)C(O)=O", 
	 "Tm": 413.15, 
	 "num_atms": 17, 
	 "gaussian": { 
		 "optdone": 1, 
		 "sigma_profile": "yes", 
		 "theory": "DFT", 
		 "functional": "B3LYP", 
		 "basiset": "6-31G**", 
		 "properties": { 
			 "R2extent": 2064.6288, 
			 "electric_dipole_moment_norm": 5.33636386128, 
			 "electric_quadrupole_moment_norm": 11.5499367561, 
			 "total_energy": -567.398428111, 
			 "HOMO_LUMO_gap": 0.19052, 
			 "cosmo_polarized_energy": -12.3, 
			 "cosmo_cavitation_energy": 22.27, 
			 "cosmo_dispersion_energy": -16.83, 
			 "cosmo_repulsion_energy": 1.36, 
			 "cosmo_total_nonelectrostatic_energy": 6.81, 
			 "SMD_solvation_energy": 4.96 
		},
		"coords": [
			{
				"x": 2.7950696494,
				"y": 1.633845467,
				"z": 0.666403383,
				"element": "C" 
			},
			{
				"x": 2.2773385518,
				"y": 0.3263259498,
				"z": 0.9678166836,
				"element": "O" 
			},
			{
				"x": 1.0636724737,
				"y": 0.0163132917,
				"z": 0.497599668,
				"element": "C" 
			},
			{
				"x": 0.3952837603,
				"y": 0.9209868357,
				"z": -0.2206990802,
				"element": "N" 
			},
			{
				"x": -0.811474538,
				"y": 0.6018862125,
				"z": -0.6836204491,
				"element": "N" 
			},
			{
				"x": -1.342113659,
				"y": -0.591657967,
				"z": -0.4373168729,
				"element": "C" 
			},
			{
				"x": -0.6821397705,
				"y": -1.5825070149,
				"z": 0.3136412739,
				"element": "C" 
			},
			{
				"x": 0.5636487171,
				"y": -1.2716460472,
				"z": 0.799446693,
				"element": "C" 
			},
			{
				"x": -2.7108506827,
				"y": -0.8278625423,
				"z": -1.0160468139,
				"element": "C" 
			},
			{
				"x": -3.2002941697,
				"y": 0.2134878287,
				"z": -1.7036591794,
				"element": "O" 
			},
			{
				"x": -3.3088068951,
				"y": -1.8698038988,
				"z": -0.8677620115,
				"element": "O" 
			},
			{
				"x": 3.7760677008,
				"y": 1.6656709137,
				"z": 1.1399143202,
				"element": "H" 
			},
			{
				"x": 2.8830072997,
				"y": 1.7770372334,
				"z": -0.4133613118,
				"element": "H" 
			},
			{
				"x": 2.1447741446,
				"y": 2.4120632852,
				"z": 1.0733704271,
				"element": "H" 
			},
			{
				"x": -1.1664339092,
				"y": -2.5378397632,
				"z": 0.4812668697,
				"element": "H" 
			},
			{
				"x": 1.1624768004,
				"y": -1.9565386175,
				"z": 1.389346081,
				"element": "H" 
			},
			{
				"x": -2.5204254736,
				"y": 0.9190388332,
				"z": -1.6674396807,
				"element": "H" 
			}
		],
		 "valence_orbital": [ 
			{
				"type": "occ",
				"energy": -0.32952,
				"method": "rhf"
			},
			{
				"type": "occ",
				"energy": -0.31102,
				"method": "rhf"
			},
			{
				"type": "occ",
				"energy": -0.27601,
				"method": "rhf"
			},
			{
				"type": "occ",
				"energy": -0.27424,
				"method": "rhf"
			},
			{
				"type": "occ",
				"energy": -0.26597,
				"method": "rhf"
			},
			{
				"type": "unocc",
				"energy": -0.07545,
				"method": "rhf"
			},
			{
				"type": "unocc",
				"energy": -0.05656,
				"method": "rhf"
			},
			{
				"type": "unocc",
				"energy": 0.04475,
				"method": "rhf"
			},
			{
				"type": "unocc",
				"energy": 0.08757,
				"method": "rhf"
			},
			{
				"type": "unocc",
				"energy": 0.10287,
				"method": "rhf"
			}
		],
		"cosmo_sigma_profile": { 
			"-0.025": 0.0,
			"-0.024": 0.0,
			"-0.023": 0.0,
			"-0.022": 0.0,
			"-0.021": 0.0,
			"-0.02": 0.0,
			"-0.019": 0.0,
			"-0.018": 0.0,
			"-0.017": 0.0,
			"-0.016": 0.0,
			"-0.015": 0.0,
			"-0.014": 0.232714421966,
			"-0.013": 0.365037022715,
			"-0.012": 0.294563566814,
			"-0.011": 0.747701853578,
			"-0.01": 1.07819559928,
			"-0.009": 3.22028862008,
			"-0.008": 4.83886180901,
			"-0.007": 5.44218791104,
			"-0.006": 10.8587235866,
			"-0.005": 13.2368171069,
			"-0.004": 16.8690573772,
			"-0.003": 20.543035408,
			"-0.002": 15.7683266293,
			"-0.001": 12.5154427381,
			"0.0": 6.8126441271,
			"0.001": 5.51308509865,
			"0.002": 5.15242703021,
			"0.003": 4.84426196968,
			"0.004": 5.49642814884,
			"0.005": 5.16714258001,
			"0.006": 4.34419206633,
			"0.007": 6.40528443437,
			"0.008": 5.44643563916,
			"0.009": 5.44470091043,
			"0.01": 6.966636086,
			"0.011": 6.11265599502,
			"0.012": 4.15865617408,
			"0.013": 0.904227991562,
			"0.014": 0.0,
			"0.015": 0.0,
			"0.016": 0.0,
			"0.017": 0.0,
			"0.018": 0.0,
			"0.019": 0.0,
			"0.02": 0.0,
			"0.021": 0.0,
			"0.022": 0.0,
			"0.023": 0.0,
			"0.024": 0.0,
			"0.025": 0.0
		}
	}
}
