{
	 "smiles": "ClC(=O)C1=CC=C(OC2=NC=CC=C2)C=C1", 
	 "Tm": 353.65, 
	 "num_atms": 24, 
	 "gaussian": { 
		 "optdone": 1, 
		 "sigma_profile": "yes", 
		 "theory": "DFT", 
		 "functional": "B3LYP", 
		 "basiset": "6-31G**", 
		 "properties": { 
			 "R2extent": 5945.9899, 
			 "electric_dipole_moment_norm": 6.74094470308, 
			 "electric_quadrupole_moment_norm": 9.88214525242, 
			 "total_energy": -1127.49112164, 
			 "HOMO_LUMO_gap": 0.17228, 
			 "cosmo_polarized_energy": -9.19, 
			 "cosmo_cavitation_energy": 31.48, 
			 "cosmo_dispersion_energy": -23.19, 
			 "cosmo_repulsion_energy": 1.8, 
			 "cosmo_total_nonelectrostatic_energy": 10.09, 
			 "SMD_solvation_energy": 5.61 
		},
		"coords": [
			{
				"x": -4.8184612753,
				"y": -1.3034573239,
				"z": 0.000061766,
				"element": "Cl" 
			},
			{
				"x": -3.5620451231,
				"y": -1.8494614769,
				"z": 1.2274923052,
				"element": "C" 
			},
			{
				"x": -3.8395145945,
				"y": -2.751643132,
				"z": 1.9602661047,
				"element": "O" 
			},
			{
				"x": -2.2895214347,
				"y": -1.1030846857,
				"z": 1.1969705061,
				"element": "C" 
			},
			{
				"x": -2.0126287181,
				"y": -0.0446694645,
				"z": 0.318304761,
				"element": "C" 
			},
			{
				"x": -0.7854830134,
				"y": 0.6067281615,
				"z": 0.3543160842,
				"element": "C" 
			},
			{
				"x": 0.1812761245,
				"y": 0.1943293116,
				"z": 1.2787176865,
				"element": "C" 
			},
			{
				"x": 1.3890696957,
				"y": 0.8265004612,
				"z": 1.4622585994,
				"element": "O" 
			},
			{
				"x": 2.1274545544,
				"y": 1.3660903714,
				"z": 0.4378561023,
				"element": "C" 
			},
			{
				"x": 1.8931794922,
				"y": 0.9973114984,
				"z": -0.8108000139,
				"element": "N" 
			},
			{
				"x": 2.6816937897,
				"y": 1.519507021,
				"z": -1.7643910678,
				"element": "C" 
			},
			{
				"x": 3.7183949046,
				"y": 2.4088140143,
				"z": -1.5026235624,
				"element": "C" 
			},
			{
				"x": 3.9453774432,
				"y": 2.7809883944,
				"z": -0.1723188064,
				"element": "C" 
			},
			{
				"x": 3.1378240093,
				"y": 2.2564212758,
				"z": 0.8276028725,
				"element": "C" 
			},
			{
				"x": -0.0819431965,
				"y": -0.8560784819,
				"z": 2.1661698687,
				"element": "C" 
			},
			{
				"x": -1.308717844,
				"y": -1.4999511505,
				"z": 2.1253016029,
				"element": "C" 
			},
			{
				"x": -2.7640201997,
				"y": 0.2720851065,
				"z": -0.3944738687,
				"element": "H" 
			},
			{
				"x": -0.5767376259,
				"y": 1.4162868691,
				"z": -0.3313652085,
				"element": "H" 
			},
			{
				"x": 2.4662790111,
				"y": 1.2000151548,
				"z": -2.7817871015,
				"element": "H" 
			},
			{
				"x": 4.3274418803,
				"y": 2.7984248254,
				"z": -2.3109244117,
				"element": "H" 
			},
			{
				"x": 4.7422537311,
				"y": 3.4741925014,
				"z": 0.0801537791,
				"element": "H" 
			},
			{
				"x": 3.2648788668,
				"y": 2.5078627256,
				"z": 1.8741150472,
				"element": "H" 
			},
			{
				"x": 0.6853458889,
				"y": -1.1471621659,
				"z": 2.8751942686,
				"element": "H" 
			},
			{
				"x": -1.5269963667,
				"y": -2.3170498111,
				"z": 2.8037026866,
				"element": "H" 
			}
		],
		 "valence_orbital": [ 
			{
				"type": "occ",
				"energy": -0.28777,
				"method": "rhf"
			},
			{
				"type": "occ",
				"energy": -0.28589,
				"method": "rhf"
			},
			{
				"type": "occ",
				"energy": -0.27602,
				"method": "rhf"
			},
			{
				"type": "occ",
				"energy": -0.27026,
				"method": "rhf"
			},
			{
				"type": "occ",
				"energy": -0.24245,
				"method": "rhf"
			},
			{
				"type": "unocc",
				"energy": -0.07017,
				"method": "rhf"
			},
			{
				"type": "unocc",
				"energy": -0.03913,
				"method": "rhf"
			},
			{
				"type": "unocc",
				"energy": -0.02012,
				"method": "rhf"
			},
			{
				"type": "unocc",
				"energy": -0.0174,
				"method": "rhf"
			},
			{
				"type": "unocc",
				"energy": 0.02452,
				"method": "rhf"
			}
		],
		"cosmo_sigma_profile": { 
			"-0.025": 0.0,
			"-0.024": 0.0,
			"-0.023": 0.0,
			"-0.022": 0.0,
			"-0.021": 0.0,
			"-0.02": 0.0,
			"-0.019": 0.0,
			"-0.018": 0.0,
			"-0.017": 0.0,
			"-0.016": 0.0,
			"-0.015": 0.0,
			"-0.014": 0.0,
			"-0.013": 0.0,
			"-0.012": 0.0,
			"-0.011": 0.0,
			"-0.01": 0.0,
			"-0.009": 0.0,
			"-0.008": 2.10422447056,
			"-0.007": 12.4340309366,
			"-0.006": 16.5569674931,
			"-0.005": 15.1650360732,
			"-0.004": 13.1495708784,
			"-0.003": 14.8877097176,
			"-0.002": 14.8231912891,
			"-0.001": 19.6041525849,
			"0.0": 25.1324782044,
			"0.001": 30.0741519377,
			"0.002": 32.3696923009,
			"0.003": 14.8974433806,
			"0.004": 11.2836116277,
			"0.005": 10.1826659545,
			"0.006": 7.08831557812,
			"0.007": 3.73315239563,
			"0.008": 4.91926396763,
			"0.009": 4.89049216067,
			"0.01": 1.30568666187,
			"0.011": 1.07269822697,
			"0.012": 0.819404936908,
			"0.013": 0.270595861903,
			"0.014": 0.0,
			"0.015": 0.0,
			"0.016": 0.0,
			"0.017": 0.0,
			"0.018": 0.0,
			"0.019": 0.0,
			"0.02": 0.0,
			"0.021": 0.0,
			"0.022": 0.0,
			"0.023": 0.0,
			"0.024": 0.0,
			"0.025": 0.0
		}
	}
}
