{
	 "smiles": "CC(C)OC(=O)C1=CC(=CC(=C1)C(=O)OC(C)C)N(=O)=O", 
	 "Tm": 338.15, 
	 "num_atms": 38, 
	 "gaussian": { 
		 "optdone": 1, 
		 "sigma_profile": "yes", 
		 "theory": "DFT", 
		 "functional": "B3LYP", 
		 "basiset": "6-31G**", 
		 "properties": { 
			 "R2extent": 9671.3707, 
			 "electric_dipole_moment_norm": 4.75971335481, 
			 "electric_quadrupole_moment_norm": 27.3881164646, 
			 "total_energy": -1049.78595249, 
			 "HOMO_LUMO_gap": 0.18832, 
			 "cosmo_polarized_energy": -12.75, 
			 "cosmo_cavitation_energy": 43.66, 
			 "cosmo_dispersion_energy": -29.84, 
			 "cosmo_repulsion_energy": 2.34, 
			 "cosmo_total_nonelectrostatic_energy": 16.16, 
			 "SMD_solvation_energy": 11.82 
		},
		"coords": [
			{
				"x": -3.9657231075,
				"y": -2.9732114147,
				"z": -3.546933755,
				"element": "C" 
			},
			{
				"x": -2.8405644638,
				"y": -1.9515366154,
				"z": -3.4766988236,
				"element": "C" 
			},
			{
				"x": -3.0598513188,
				"y": -0.7331932456,
				"z": -4.366718849,
				"element": "C" 
			},
			{
				"x": -2.7778194294,
				"y": -1.522521201,
				"z": -2.0794075767,
				"element": "O" 
			},
			{
				"x": -1.5933397602,
				"y": -1.0816667762,
				"z": -1.6206565714,
				"element": "C" 
			},
			{
				"x": -0.5763662482,
				"y": -1.0142171544,
				"z": -2.2840236762,
				"element": "O" 
			},
			{
				"x": -1.6624605801,
				"y": -0.6806615608,
				"z": -0.1792591438,
				"element": "C" 
			},
			{
				"x": -2.8460986088,
				"y": -0.7668197898,
				"z": 0.559252864,
				"element": "C" 
			},
			{
				"x": -2.8263646859,
				"y": -0.3745287527,
				"z": 1.8949942788,
				"element": "C" 
			},
			{
				"x": -1.6756525594,
				"y": 0.097011861,
				"z": 2.5161258645,
				"element": "C" 
			},
			{
				"x": -0.4960907665,
				"y": 0.1808575626,
				"z": 1.768866646,
				"element": "C" 
			},
			{
				"x": -0.4917113192,
				"y": -0.2071227589,
				"z": 0.4253770246,
				"element": "C" 
			},
			{
				"x": 0.7283962366,
				"y": 0.6932418069,
				"z": 2.4637239224,
				"element": "C" 
			},
			{
				"x": 0.7405877041,
				"y": 1.0282288927,
				"z": 3.6323343644,
				"element": "O" 
			},
			{
				"x": 1.7921589266,
				"y": 0.7385901681,
				"z": 1.6430345604,
				"element": "O" 
			},
			{
				"x": 3.0517724355,
				"y": 1.2284468037,
				"z": 2.2030683593,
				"element": "C" 
			},
			{
				"x": 3.7688465028,
				"y": 0.0808489065,
				"z": 2.9054308706,
				"element": "C" 
			},
			{
				"x": 3.827644868,
				"y": 1.811511768,
				"z": 1.031331791,
				"element": "C" 
			},
			{
				"x": -4.0741175488,
				"y": -0.4641391914,
				"z": 2.6780079988,
				"element": "N" 
			},
			{
				"x": -5.0760391194,
				"y": -0.8845578141,
				"z": 2.1016823106,
				"element": "O" 
			},
			{
				"x": -4.0323005992,
				"y": -0.113154972,
				"z": 3.854820423,
				"element": "O" 
			},
			{
				"x": -3.7733835924,
				"y": -3.8129722245,
				"z": -2.8736020871,
				"element": "H" 
			},
			{
				"x": -4.9222958977,
				"y": -2.5191469093,
				"z": -3.2696967082,
				"element": "H" 
			},
			{
				"x": -4.0525425179,
				"y": -3.3616183655,
				"z": -4.5662201389,
				"element": "H" 
			},
			{
				"x": -1.8782410061,
				"y": -2.4138571999,
				"z": -3.7135638359,
				"element": "H" 
			},
			{
				"x": -3.1287394673,
				"y": -1.0440684213,
				"z": -5.4140779371,
				"element": "H" 
			},
			{
				"x": -2.2268261798,
				"y": -0.032616809,
				"z": -4.2735710035,
				"element": "H" 
			},
			{
				"x": -3.9893416641,
				"y": -0.2212209418,
				"z": -4.0978859476,
				"element": "H" 
			},
			{
				"x": -3.7629217135,
				"y": -1.1284899597,
				"z": 0.1141772694,
				"element": "H" 
			},
			{
				"x": -1.6867392384,
				"y": 0.3953297389,
				"z": 3.556808565,
				"element": "H" 
			},
			{
				"x": 0.4148912292,
				"y": -0.1475734213,
				"z": -0.1640962626,
				"element": "H" 
			},
			{
				"x": 2.799121022,
				"y": 2.0059606564,
				"z": 2.9293597257,
				"element": "H" 
			},
			{
				"x": 3.1665048197,
				"y": -0.3014730666,
				"z": 3.7327354088,
				"element": "H" 
			},
			{
				"x": 4.7233936353,
				"y": 0.4304634349,
				"z": 3.3115864212,
				"element": "H" 
			},
			{
				"x": 3.9712656506,
				"y": -0.7346407683,
				"z": 2.2037303589,
				"element": "H" 
			},
			{
				"x": 4.7775687054,
				"y": 2.2254143005,
				"z": 1.3830534101,
				"element": "H" 
			},
			{
				"x": 4.043830325,
				"y": 1.0406316995,
				"z": 0.2849379031,
				"element": "H" 
			},
			{
				"x": 3.2611493316,
				"y": 2.6119717347,
				"z": 0.5476719761,
				"element": "H" 
			}
		],
		 "valence_orbital": [ 
			{
				"type": "occ",
				"energy": -0.2974,
				"method": "rhf"
			},
			{
				"type": "occ",
				"energy": -0.29244,
				"method": "rhf"
			},
			{
				"type": "occ",
				"energy": -0.28961,
				"method": "rhf"
			},
			{
				"type": "occ",
				"energy": -0.28773,
				"method": "rhf"
			},
			{
				"type": "occ",
				"energy": -0.28478,
				"method": "rhf"
			},
			{
				"type": "unocc",
				"energy": -0.09646,
				"method": "rhf"
			},
			{
				"type": "unocc",
				"energy": -0.07542,
				"method": "rhf"
			},
			{
				"type": "unocc",
				"energy": -0.04174,
				"method": "rhf"
			},
			{
				"type": "unocc",
				"energy": 0.03101,
				"method": "rhf"
			},
			{
				"type": "unocc",
				"energy": 0.06546,
				"method": "rhf"
			}
		],
		"cosmo_sigma_profile": { 
			"-0.025": 0.0,
			"-0.024": 0.0,
			"-0.023": 0.0,
			"-0.022": 0.0,
			"-0.021": 0.0,
			"-0.02": 0.0,
			"-0.019": 0.0,
			"-0.018": 0.0,
			"-0.017": 0.0,
			"-0.016": 0.0,
			"-0.015": 0.0,
			"-0.014": 0.0,
			"-0.013": 0.0,
			"-0.012": 0.0,
			"-0.011": 0.0,
			"-0.01": 0.0,
			"-0.009": 0.0,
			"-0.008": 0.612926686798,
			"-0.007": 1.5428703962,
			"-0.006": 2.21616297657,
			"-0.005": 13.5870241749,
			"-0.004": 40.5596986351,
			"-0.003": 46.2044460587,
			"-0.002": 55.4648368449,
			"-0.001": 44.2528116681,
			"0.0": 37.2941098922,
			"0.001": 17.6849412812,
			"0.002": 9.09211810814,
			"0.003": 11.1769720493,
			"0.004": 9.98171597259,
			"0.005": 6.51973555361,
			"0.006": 7.31050298303,
			"0.007": 12.4804979669,
			"0.008": 8.45310955521,
			"0.009": 6.4658548532,
			"0.01": 4.58920761693,
			"0.011": 7.62322219808,
			"0.012": 2.35917970041,
			"0.013": 0.0,
			"0.014": 0.0,
			"0.015": 0.0,
			"0.016": 0.0,
			"0.017": 0.0,
			"0.018": 0.0,
			"0.019": 0.0,
			"0.02": 0.0,
			"0.021": 0.0,
			"0.022": 0.0,
			"0.023": 0.0,
			"0.024": 0.0,
			"0.025": 0.0
		}
	}
}
