{
	 "smiles": "O=C1NC(=O)C2(CCCC3=C2C=CC=C3)N1", 
	 "Tm": 477.15, 
	 "num_atms": 28, 
	 "gaussian": { 
		 "optdone": 1, 
		 "sigma_profile": "yes", 
		 "theory": "DFT", 
		 "functional": "B3LYP", 
		 "basiset": "6-31G**", 
		 "properties": { 
			 "R2extent": 3319.5819, 
			 "electric_dipole_moment_norm": 3.08441386814, 
			 "electric_quadrupole_moment_norm": 15.9705549609, 
			 "total_energy": -724.513210764, 
			 "HOMO_LUMO_gap": 0.22947, 
			 "cosmo_polarized_energy": -16.32, 
			 "cosmo_cavitation_energy": 30.5, 
			 "cosmo_dispersion_energy": -22.03, 
			 "cosmo_repulsion_energy": 1.72, 
			 "cosmo_total_nonelectrostatic_energy": 10.19, 
			 "SMD_solvation_energy": 5.7 
		},
		"coords": [
			{
				"x": 2.3470876215,
				"y": -1.9444616967,
				"z": -2.4392066552,
				"element": "O" 
			},
			{
				"x": 1.7943116537,
				"y": -1.2622625566,
				"z": -1.6020743721,
				"element": "C" 
			},
			{
				"x": 2.2325500797,
				"y": -1.0657457884,
				"z": -0.2742505866,
				"element": "N" 
			},
			{
				"x": 1.3700479364,
				"y": -0.3031234023,
				"z": 0.4835515617,
				"element": "C" 
			},
			{
				"x": 1.5163797435,
				"y": 0.0372929935,
				"z": 1.6374202933,
				"element": "O" 
			},
			{
				"x": 0.1878390814,
				"y": 0.0697711399,
				"z": -0.4504918291,
				"element": "C" 
			},
			{
				"x": 0.1074746906,
				"y": 1.6088887927,
				"z": -0.5249249249,
				"element": "C" 
			},
			{
				"x": -1.1878991429,
				"y": 2.0743760457,
				"z": -1.1896442711,
				"element": "C" 
			},
			{
				"x": -2.3847289747,
				"y": 1.6356127783,
				"z": -0.34302519,
				"element": "C" 
			},
			{
				"x": -2.3308463047,
				"y": 0.1664425948,
				"z": 0.0313540223,
				"element": "C" 
			},
			{
				"x": -1.1294422378,
				"y": -0.5641935242,
				"z": 0.0133923035,
				"element": "C" 
			},
			{
				"x": -1.142815235,
				"y": -1.9210488923,
				"z": 0.37480386,
				"element": "C" 
			},
			{
				"x": -2.318468175,
				"y": -2.5521317069,
				"z": 0.7650876226,
				"element": "C" 
			},
			{
				"x": -3.5130661783,
				"y": -1.8274552423,
				"z": 0.7889093945,
				"element": "C" 
			},
			{
				"x": -3.5107928334,
				"y": -0.4862120569,
				"z": 0.4213178449,
				"element": "C" 
			},
			{
				"x": 0.6431552259,
				"y": -0.5223293097,
				"z": -1.7198811958,
				"element": "N" 
			},
			{
				"x": 3.1085770955,
				"y": -1.4374651365,
				"z": 0.064164678,
				"element": "H" 
			},
			{
				"x": 0.1590714034,
				"y": 1.9936090427,
				"z": 0.5006006691,
				"element": "H" 
			},
			{
				"x": 0.9892108022,
				"y": 1.9740457961,
				"z": -1.0606642858,
				"element": "H" 
			},
			{
				"x": -1.2628160724,
				"y": 1.6531967759,
				"z": -2.2013217424,
				"element": "H" 
			},
			{
				"x": -1.1835816796,
				"y": 3.1634105309,
				"z": -1.3044752018,
				"element": "H" 
			},
			{
				"x": -3.3274915045,
				"y": 1.8463706804,
				"z": -0.860720398,
				"element": "H" 
			},
			{
				"x": -2.4043327439,
				"y": 2.2348196238,
				"z": 0.5791302509,
				"element": "H" 
			},
			{
				"x": -0.217373569,
				"y": -2.4902982873,
				"z": 0.3528148868,
				"element": "H" 
			},
			{
				"x": -2.3043046151,
				"y": -3.6004915417,
				"z": 1.0474843259,
				"element": "H" 
			},
			{
				"x": -4.4402374389,
				"y": -2.308308471,
				"z": 1.0870787509,
				"element": "H" 
			},
			{
				"x": -4.4411113121,
				"y": 0.0769578983,
				"z": 0.4302154626,
				"element": "H" 
			},
			{
				"x": 0.0115026836,
				"y": -0.7308670801,
				"z": -2.4784452739,
				"element": "H" 
			}
		],
		 "valence_orbital": [ 
			{
				"type": "occ",
				"energy": -0.28896,
				"method": "rhf"
			},
			{
				"type": "occ",
				"energy": -0.27414,
				"method": "rhf"
			},
			{
				"type": "occ",
				"energy": -0.26182,
				"method": "rhf"
			},
			{
				"type": "occ",
				"energy": -0.25109,
				"method": "rhf"
			},
			{
				"type": "occ",
				"energy": -0.2479,
				"method": "rhf"
			},
			{
				"type": "unocc",
				"energy": -0.01843,
				"method": "rhf"
			},
			{
				"type": "unocc",
				"energy": -0.01319,
				"method": "rhf"
			},
			{
				"type": "unocc",
				"energy": -0.00639,
				"method": "rhf"
			},
			{
				"type": "unocc",
				"energy": 0.06098,
				"method": "rhf"
			},
			{
				"type": "unocc",
				"energy": 0.0717,
				"method": "rhf"
			}
		],
		"cosmo_sigma_profile": { 
			"-0.025": 0.0,
			"-0.024": 0.0,
			"-0.023": 0.0,
			"-0.022": 0.0,
			"-0.021": 0.0,
			"-0.02": 0.0,
			"-0.019": 0.0,
			"-0.018": 0.0,
			"-0.017": 0.363099827393,
			"-0.016": 1.5019056361,
			"-0.015": 1.18552312083,
			"-0.014": 2.52263252734,
			"-0.013": 1.6282623675,
			"-0.012": 0.906035951507,
			"-0.011": 2.33277395509,
			"-0.01": 1.44005253889,
			"-0.009": 2.48442065859,
			"-0.008": 2.10355019105,
			"-0.007": 2.77648877349,
			"-0.006": 7.64332411434,
			"-0.005": 14.0239040106,
			"-0.004": 22.1940338638,
			"-0.003": 26.3912131568,
			"-0.002": 25.2969776758,
			"-0.001": 21.8338925514,
			"0.0": 13.6931524731,
			"0.001": 8.95932015097,
			"0.002": 9.97726528014,
			"0.003": 9.5299900332,
			"0.004": 9.66020604034,
			"0.005": 12.1506019155,
			"0.006": 6.68543086549,
			"0.007": 2.05207101674,
			"0.008": 2.72327441857,
			"0.009": 3.0442826321,
			"0.01": 3.65191911933,
			"0.011": 4.97327992062,
			"0.012": 10.2176382077,
			"0.013": 6.42354459855,
			"0.014": 0.644952138089,
			"0.015": 0.0,
			"0.016": 0.0,
			"0.017": 0.0,
			"0.018": 0.0,
			"0.019": 0.0,
			"0.02": 0.0,
			"0.021": 0.0,
			"0.022": 0.0,
			"0.023": 0.0,
			"0.024": 0.0,
			"0.025": 0.0
		}
	}
}
