{
	 "smiles": "[O-][N+](=O)C1=C(F)C=C(F)C=C1F", 
	 "Tm": 276.9, 
	 "num_atms": 14, 
	 "gaussian": { 
		 "optdone": 1, 
		 "sigma_profile": "yes", 
		 "theory": "DFT", 
		 "functional": "B3LYP", 
		 "basiset": "6-31G**", 
		 "properties": { 
			 "R2extent": 2242.8115, 
			 "electric_dipole_moment_norm": 4.08570459162, 
			 "electric_quadrupole_moment_norm": 11.0505442956, 
			 "total_energy": -734.419444302, 
			 "HOMO_LUMO_gap": 0.18922, 
			 "cosmo_polarized_energy": -8.26, 
			 "cosmo_cavitation_energy": 21.36, 
			 "cosmo_dispersion_energy": -15.27, 
			 "cosmo_repulsion_energy": 1.15, 
			 "cosmo_total_nonelectrostatic_energy": 7.24, 
			 "SMD_solvation_energy": 7.52 
		},
		"coords": [
			{
				"x": -0.6070229605,
				"y": 2.9265090094,
				"z": 1.1586036695,
				"element": "O" 
			},
			{
				"x": -0.3030683971,
				"y": 2.4995234694,
				"z": 0.048176895,
				"element": "N" 
			},
			{
				"x": -0.5767975171,
				"y": 3.0260190256,
				"z": -1.0268249716,
				"element": "O" 
			},
			{
				"x": 0.4544679727,
				"y": 1.2492418535,
				"z": 0.0016914354,
				"element": "C" 
			},
			{
				"x": 1.50550657,
				"y": 1.0792428641,
				"z": -0.9104011443,
				"element": "C" 
			},
			{
				"x": 1.8432796427,
				"y": 2.0767771351,
				"z": -1.7256217715,
				"element": "F" 
			},
			{
				"x": 2.2400778891,
				"y": -0.0973585632,
				"z": -0.9612207299,
				"element": "C" 
			},
			{
				"x": 1.8902560783,
				"y": -1.1205327276,
				"z": -0.0865143875,
				"element": "C" 
			},
			{
				"x": 2.5834027133,
				"y": -2.2645845027,
				"z": -0.1291220202,
				"element": "F" 
			},
			{
				"x": 0.8509329791,
				"y": -1.0056949061,
				"z": 0.8305390217,
				"element": "C" 
			},
			{
				"x": 0.1478983961,
				"y": 0.1905141172,
				"z": 0.8680513085,
				"element": "C" 
			},
			{
				"x": -0.8651504112,
				"y": 0.3073991526,
				"z": 1.7246782948,
				"element": "F" 
			},
			{
				"x": 3.0606677352,
				"y": -0.2052077212,
				"z": -1.6589011073,
				"element": "H" 
			},
			{
				"x": 0.5890493095,
				"y": -1.820048206,
				"z": 1.4938655077,
				"element": "H" 
			}
		],
		 "valence_orbital": [ 
			{
				"type": "occ",
				"energy": -0.31903,
				"method": "rhf"
			},
			{
				"type": "occ",
				"energy": -0.31557,
				"method": "rhf"
			},
			{
				"type": "occ",
				"energy": -0.31389,
				"method": "rhf"
			},
			{
				"type": "occ",
				"energy": -0.28825,
				"method": "rhf"
			},
			{
				"type": "occ",
				"energy": -0.28227,
				"method": "rhf"
			},
			{
				"type": "unocc",
				"energy": -0.09305,
				"method": "rhf"
			},
			{
				"type": "unocc",
				"energy": -0.04185,
				"method": "rhf"
			},
			{
				"type": "unocc",
				"energy": -0.02541,
				"method": "rhf"
			},
			{
				"type": "unocc",
				"energy": 0.03132,
				"method": "rhf"
			},
			{
				"type": "unocc",
				"energy": 0.10212,
				"method": "rhf"
			}
		],
		"cosmo_sigma_profile": { 
			"-0.025": 0.0,
			"-0.024": 0.0,
			"-0.023": 0.0,
			"-0.022": 0.0,
			"-0.021": 0.0,
			"-0.02": 0.0,
			"-0.019": 0.0,
			"-0.018": 0.0,
			"-0.017": 0.0,
			"-0.016": 0.0,
			"-0.015": 0.0,
			"-0.014": 0.0,
			"-0.013": 0.0,
			"-0.012": 0.0,
			"-0.011": 0.248024170291,
			"-0.01": 3.31520998053,
			"-0.009": 3.50740776312,
			"-0.008": 4.16076410264,
			"-0.007": 4.872866376,
			"-0.006": 4.78156224428,
			"-0.005": 5.87162438702,
			"-0.004": 9.66014284792,
			"-0.003": 18.0785285808,
			"-0.002": 19.4937945203,
			"-0.001": 12.3072341731,
			"0.0": 6.89159822886,
			"0.001": 7.79456806911,
			"0.002": 20.3647042252,
			"0.003": 15.0954212321,
			"0.004": 4.28645069256,
			"0.005": 4.21979724153,
			"0.006": 7.17156759911,
			"0.007": 12.3806776685,
			"0.008": 5.88564414776,
			"0.009": 2.70570278076,
			"0.01": 0.249931262449,
			"0.011": 0.0,
			"0.012": 0.0,
			"0.013": 0.0,
			"0.014": 0.0,
			"0.015": 0.0,
			"0.016": 0.0,
			"0.017": 0.0,
			"0.018": 0.0,
			"0.019": 0.0,
			"0.02": 0.0,
			"0.021": 0.0,
			"0.022": 0.0,
			"0.023": 0.0,
			"0.024": 0.0,
			"0.025": 0.0
		}
	}
}
