{
	 "smiles": "ON=C(C1=CC=CC=C1)C1=CC=C(O)C=C1", 
	 "Tm": 351.15, 
	 "num_atms": 27, 
	 "gaussian": { 
		 "optdone": 1, 
		 "sigma_profile": "yes", 
		 "theory": "DFT", 
		 "functional": "B3LYP", 
		 "basiset": "6-31G**", 
		 "properties": { 
			 "R2extent": 4353.1568, 
			 "electric_dipole_moment_norm": 1.62931608658, 
			 "electric_quadrupole_moment_norm": 9.583300504, 
			 "total_energy": -707.151173684, 
			 "HOMO_LUMO_gap": 0.17493, 
			 "cosmo_polarized_energy": -14.15, 
			 "cosmo_cavitation_energy": 31.5, 
			 "cosmo_dispersion_energy": -22.79, 
			 "cosmo_repulsion_energy": 1.79, 
			 "cosmo_total_nonelectrostatic_energy": 10.51, 
			 "SMD_solvation_energy": 5.74 
		},
		"coords": [
			{
				"x": -2.2927331003,
				"y": 0.581452456,
				"z": -1.2968312849,
				"element": "O" 
			},
			{
				"x": -1.5250187053,
				"y": -0.5563570918,
				"z": -1.5854863186,
				"element": "N" 
			},
			{
				"x": -0.3642623133,
				"y": -0.5533075828,
				"z": -1.0164359864,
				"element": "C" 
			},
			{
				"x": 0.4442448899,
				"y": -1.7829831213,
				"z": -1.2604888145,
				"element": "C" 
			},
			{
				"x": -0.1877531148,
				"y": -3.0188986226,
				"z": -1.483027313,
				"element": "C" 
			},
			{
				"x": 0.561885964,
				"y": -4.1624164684,
				"z": -1.7460007362,
				"element": "C" 
			},
			{
				"x": 1.957261418,
				"y": -4.0961814153,
				"z": -1.790232179,
				"element": "C" 
			},
			{
				"x": 2.5955616233,
				"y": -2.8749519846,
				"z": -1.5706488577,
				"element": "C" 
			},
			{
				"x": 1.8468849281,
				"y": -1.7277674488,
				"z": -1.3062177137,
				"element": "C" 
			},
			{
				"x": 0.1897374784,
				"y": 0.539126809,
				"z": -0.1705746294,
				"element": "C" 
			},
			{
				"x": 0.8400631529,
				"y": 0.2309779923,
				"z": 1.0344500617,
				"element": "C" 
			},
			{
				"x": 1.3627380294,
				"y": 1.2317448264,
				"z": 1.8500809608,
				"element": "C" 
			},
			{
				"x": 1.2578802184,
				"y": 2.5714763706,
				"z": 1.4617236663,
				"element": "C" 
			},
			{
				"x": 1.755491677,
				"y": 3.5983205956,
				"z": 2.2093740672,
				"element": "O" 
			},
			{
				"x": 0.6220941763,
				"y": 2.8977537593,
				"z": 0.2574882747,
				"element": "C" 
			},
			{
				"x": 0.0894575696,
				"y": 1.8930985522,
				"z": -0.5400412426,
				"element": "C" 
			},
			{
				"x": -3.1031488927,
				"y": 0.3996580744,
				"z": -1.7908045031,
				"element": "H" 
			},
			{
				"x": -1.2703963811,
				"y": -3.0650817091,
				"z": -1.4446423998,
				"element": "H" 
			},
			{
				"x": 0.0569444354,
				"y": -5.1104263692,
				"z": -1.909466072,
				"element": "H" 
			},
			{
				"x": 2.5410151042,
				"y": -4.9900761303,
				"z": -1.9908761512,
				"element": "H" 
			},
			{
				"x": 3.6794399293,
				"y": -2.8115367001,
				"z": -1.6085586772,
				"element": "H" 
			},
			{
				"x": 2.3507808471,
				"y": -0.7805025792,
				"z": -1.1450562626,
				"element": "H" 
			},
			{
				"x": 0.9334680554,
				"y": -0.8057095151,
				"z": 1.3421796465,
				"element": "H" 
			},
			{
				"x": 1.8537814302,
				"y": 0.9711676855,
				"z": 2.7855057739,
				"element": "H" 
			},
			{
				"x": 2.1584798647,
				"y": 3.2408696421,
				"z": 3.0113843865,
				"element": "H" 
			},
			{
				"x": 0.5524514878,
				"y": 3.9411042699,
				"z": -0.0318028113,
				"element": "H" 
			},
			{
				"x": -0.4144497719,
				"y": 2.1560457054,
				"z": -1.4619948843,
				"element": "H" 
			}
		],
		 "valence_orbital": [ 
			{
				"type": "occ",
				"energy": -0.26762,
				"method": "rhf"
			},
			{
				"type": "occ",
				"energy": -0.25342,
				"method": "rhf"
			},
			{
				"type": "occ",
				"energy": -0.24717,
				"method": "rhf"
			},
			{
				"type": "occ",
				"energy": -0.23578,
				"method": "rhf"
			},
			{
				"type": "occ",
				"energy": -0.21018,
				"method": "rhf"
			},
			{
				"type": "unocc",
				"energy": -0.03525,
				"method": "rhf"
			},
			{
				"type": "unocc",
				"energy": -0.00717,
				"method": "rhf"
			},
			{
				"type": "unocc",
				"energy": 0.00069,
				"method": "rhf"
			},
			{
				"type": "unocc",
				"energy": 0.0066,
				"method": "rhf"
			},
			{
				"type": "unocc",
				"energy": 0.06255,
				"method": "rhf"
			}
		],
		"cosmo_sigma_profile": { 
			"-0.025": 0.0,
			"-0.024": 0.0,
			"-0.023": 0.0,
			"-0.022": 0.0,
			"-0.021": 0.0,
			"-0.02": 0.0,
			"-0.019": 0.0,
			"-0.018": 0.619090783774,
			"-0.017": 2.16215303614,
			"-0.016": 1.80199176943,
			"-0.015": 2.2731739293,
			"-0.014": 1.51354980578,
			"-0.013": 2.05195190968,
			"-0.012": 1.2244066865,
			"-0.011": 1.72923986415,
			"-0.01": 1.3184855477,
			"-0.009": 1.8903695989,
			"-0.008": 2.0674166457,
			"-0.007": 2.78214336766,
			"-0.006": 9.93499188793,
			"-0.005": 14.3868679297,
			"-0.004": 18.4105273809,
			"-0.003": 16.7616244716,
			"-0.002": 13.570331835,
			"-0.001": 16.5278248954,
			"0.0": 13.5602390421,
			"0.001": 15.5446949856,
			"0.002": 17.1098081877,
			"0.003": 20.9031965792,
			"0.004": 20.6910938669,
			"0.005": 21.9861590524,
			"0.006": 9.189025667,
			"0.007": 4.6474386106,
			"0.008": 4.44065183829,
			"0.009": 3.73715862351,
			"0.01": 4.0791425537,
			"0.011": 3.57742649163,
			"0.012": 1.0110138462,
			"0.013": 0.155026862001,
			"0.014": 0.0,
			"0.015": 0.0,
			"0.016": 0.0,
			"0.017": 0.0,
			"0.018": 0.0,
			"0.019": 0.0,
			"0.02": 0.0,
			"0.021": 0.0,
			"0.022": 0.0,
			"0.023": 0.0,
			"0.024": 0.0,
			"0.025": 0.0
		}
	}
}
