{
	 "smiles": "CC1=C2OC(=CC2=CC(Br)=C1)C#N", 
	 "Tm": 413.15, 
	 "num_atms": 19, 
	 "gaussian": { 
		 "optdone": 1, 
		 "sigma_profile": "yes", 
		 "theory": "DFT", 
		 "functional": "B3LYP", 
		 "basiset": "6-31G**", 
		 "properties": { 
			 "R2extent": 4301.0484, 
			 "electric_dipole_moment_norm": 2.78954782537, 
			 "electric_quadrupole_moment_norm": 25.1138157839, 
			 "total_energy": -3086.03234587, 
			 "HOMO_LUMO_gap": 0.17554, 
			 "cosmo_polarized_energy": -8.23, 
			 "cosmo_cavitation_energy": 27.31, 
			 "cosmo_dispersion_energy": -19.94, 
			 "cosmo_repulsion_energy": 1.58, 
			 "cosmo_total_nonelectrostatic_energy": 8.94, 
			 "SMD_solvation_energy": 5.39 
		},
		"coords": [
			{
				"x": -0.0393835807,
				"y": 3.1666075533,
				"z": -1.47052757,
				"element": "C" 
			},
			{
				"x": -0.3762133452,
				"y": 1.8479617245,
				"z": -0.8210713449,
				"element": "C" 
			},
			{
				"x": 0.4269545536,
				"y": 0.7154348114,
				"z": -0.9622019568,
				"element": "C" 
			},
			{
				"x": 1.5872241768,
				"y": 0.6581526604,
				"z": -1.6856374067,
				"element": "O" 
			},
			{
				"x": 2.0485136997,
				"y": -0.633433339,
				"z": -1.5558192695,
				"element": "C" 
			},
			{
				"x": 1.2260310974,
				"y": -1.3973943131,
				"z": -0.778158909,
				"element": "C" 
			},
			{
				"x": 0.1513069004,
				"y": -0.5351259182,
				"z": -0.3743711188,
				"element": "C" 
			},
			{
				"x": -1.0003028953,
				"y": -0.6906745791,
				"z": 0.4135847143,
				"element": "C" 
			},
			{
				"x": -1.8096888607,
				"y": 0.4256452779,
				"z": 0.5640956475,
				"element": "C" 
			},
			{
				"x": -3.3954771245,
				"y": 0.2856692974,
				"z": 1.6250310178,
				"element": "Br" 
			},
			{
				"x": -1.5149878658,
				"y": 1.6652652106,
				"z": -0.0323917387,
				"element": "C" 
			},
			{
				"x": 3.2565478345,
				"y": -0.9575803645,
				"z": -2.2220011369,
				"element": "C" 
			},
			{
				"x": 4.2469044598,
				"y": -1.2470417054,
				"z": -2.7603140995,
				"element": "N" 
			},
			{
				"x": 0.8880821321,
				"y": 3.0999528043,
				"z": -2.0420518008,
				"element": "H" 
			},
			{
				"x": 0.0801292451,
				"y": 3.9534889651,
				"z": -0.7184778302,
				"element": "H" 
			},
			{
				"x": -0.8368279438,
				"y": 3.4819026097,
				"z": -2.1514918613,
				"element": "H" 
			},
			{
				"x": 1.3759416989,
				"y": -2.4382646679,
				"z": -0.5315261938,
				"element": "H" 
			},
			{
				"x": -1.2495759231,
				"y": -1.6342421905,
				"z": 0.8835755319,
				"element": "H" 
			},
			{
				"x": -2.1911782591,
				"y": 2.498476163,
				"z": 0.1260553252,
				"element": "H" 
			}
		],
		 "valence_orbital": [ 
			{
				"type": "occ",
				"energy": -0.32385,
				"method": "rhf"
			},
			{
				"type": "occ",
				"energy": -0.30466,
				"method": "rhf"
			},
			{
				"type": "occ",
				"energy": -0.29587,
				"method": "rhf"
			},
			{
				"type": "occ",
				"energy": -0.2484,
				"method": "rhf"
			},
			{
				"type": "occ",
				"energy": -0.24782,
				"method": "rhf"
			},
			{
				"type": "unocc",
				"energy": -0.07228,
				"method": "rhf"
			},
			{
				"type": "unocc",
				"energy": -0.01646,
				"method": "rhf"
			},
			{
				"type": "unocc",
				"energy": -0.00565,
				"method": "rhf"
			},
			{
				"type": "unocc",
				"energy": 0.00134,
				"method": "rhf"
			},
			{
				"type": "unocc",
				"energy": 0.00194,
				"method": "rhf"
			}
		],
		"cosmo_sigma_profile": { 
			"-0.025": 0.0,
			"-0.024": 0.0,
			"-0.023": 0.0,
			"-0.022": 0.0,
			"-0.021": 0.0,
			"-0.02": 0.0,
			"-0.019": 0.0,
			"-0.018": 0.0,
			"-0.017": 0.0,
			"-0.016": 0.0,
			"-0.015": 0.0,
			"-0.014": 0.0,
			"-0.013": 0.0,
			"-0.012": 0.0,
			"-0.011": 0.0245226606656,
			"-0.01": 1.54234622726,
			"-0.009": 2.43707799776,
			"-0.008": 3.61381836909,
			"-0.007": 5.99340844369,
			"-0.006": 6.16458587985,
			"-0.005": 9.77639866507,
			"-0.004": 13.253507994,
			"-0.003": 17.6362778033,
			"-0.002": 20.657332925,
			"-0.001": 25.8665498248,
			"0.0": 21.8020995131,
			"0.001": 20.3966786988,
			"0.002": 20.995505572,
			"0.003": 11.9618675375,
			"0.004": 15.1736323562,
			"0.005": 8.59094895805,
			"0.006": 2.72659841573,
			"0.007": 3.2912672933,
			"0.008": 3.14677523935,
			"0.009": 3.04647324366,
			"0.01": 2.67946717472,
			"0.011": 2.39521068751,
			"0.012": 1.39477064376,
			"0.013": 0.0447745369241,
			"0.014": 0.0,
			"0.015": 0.0,
			"0.016": 0.0,
			"0.017": 0.0,
			"0.018": 0.0,
			"0.019": 0.0,
			"0.02": 0.0,
			"0.021": 0.0,
			"0.022": 0.0,
			"0.023": 0.0,
			"0.024": 0.0,
			"0.025": 0.0
		}
	}
}
