{
	 "smiles": "CC(=O)C1=C(C=C2OCOC2=C1)[N+]([O-])=O", 
	 "Tm": 395.15, 
	 "num_atms": 22, 
	 "gaussian": { 
		 "optdone": 1, 
		 "sigma_profile": "yes", 
		 "theory": "DFT", 
		 "functional": "B3LYP", 
		 "basiset": "6-31G**", 
		 "properties": { 
			 "R2extent": 3990.2047, 
			 "electric_dipole_moment_norm": 5.86122792169, 
			 "electric_quadrupole_moment_norm": 14.3381313633, 
			 "total_energy": -777.909760864, 
			 "HOMO_LUMO_gap": 0.14683, 
			 "cosmo_polarized_energy": -14.43, 
			 "cosmo_cavitation_energy": 27.34, 
			 "cosmo_dispersion_energy": -20.15, 
			 "cosmo_repulsion_energy": 1.57, 
			 "cosmo_total_nonelectrostatic_energy": 8.76, 
			 "SMD_solvation_energy": 8.2 
		},
		"coords": [
			{
				"x": -2.5696571311,
				"y": 3.5589013092,
				"z": -0.6607035389,
				"element": "C" 
			},
			{
				"x": -1.7186801474,
				"y": 2.5510571359,
				"z": -1.4070390506,
				"element": "C" 
			},
			{
				"x": -1.9529224402,
				"y": 2.2251049629,
				"z": -2.5533150424,
				"element": "O" 
			},
			{
				"x": -0.6847077049,
				"y": 1.7612777288,
				"z": -0.6149670577,
				"element": "C" 
			},
			{
				"x": 0.48407274,
				"y": 2.2838271552,
				"z": -0.0445851613,
				"element": "C" 
			},
			{
				"x": 1.3936098256,
				"y": 1.5107587714,
				"z": 0.7046445464,
				"element": "C" 
			},
			{
				"x": 1.0783676189,
				"y": 0.1817516521,
				"z": 0.8522658109,
				"element": "C" 
			},
			{
				"x": 1.7710888269,
				"y": -0.7888530543,
				"z": 1.5216695057,
				"element": "O" 
			},
			{
				"x": 1.0467540764,
				"y": -2.0094531107,
				"z": 1.3211415186,
				"element": "C" 
			},
			{
				"x": -0.1345262456,
				"y": -1.6996572498,
				"z": 0.5615250827,
				"element": "O" 
			},
			{
				"x": -0.0689616582,
				"y": -0.3703598221,
				"z": 0.2752388185,
				"element": "C" 
			},
			{
				"x": -0.9558881891,
				"y": 0.3869300664,
				"z": -0.463902937,
				"element": "C" 
			},
			{
				"x": 0.8446012358,
				"y": 3.6827506144,
				"z": -0.2707645506,
				"element": "N" 
			},
			{
				"x": 1.7996396948,
				"y": 4.1432282016,
				"z": 0.3541065259,
				"element": "O" 
			},
			{
				"x": 0.1746804137,
				"y": 4.3231412399,
				"z": -1.0875740992,
				"element": "O" 
			},
			{
				"x": -2.0211096901,
				"y": 4.088170248,
				"z": 0.118708748,
				"element": "H" 
			},
			{
				"x": -3.3953857208,
				"y": 3.0121721401,
				"z": -0.1867159822,
				"element": "H" 
			},
			{
				"x": -2.9929396298,
				"y": 4.2705173586,
				"z": -1.3715810104,
				"element": "H" 
			},
			{
				"x": 2.2879099343,
				"y": 1.9592138697,
				"z": 1.1147598549,
				"element": "H" 
			},
			{
				"x": 0.7547791678,
				"y": -2.4268494033,
				"z": 2.290445266,
				"element": "H" 
			},
			{
				"x": 1.6649507677,
				"y": -2.7168012337,
				"z": 0.7563146254,
				"element": "H" 
			},
			{
				"x": -1.8357757444,
				"y": -0.0526285805,
				"z": -0.9181718727,
				"element": "H" 
			}
		],
		 "valence_orbital": [ 
			{
				"type": "occ",
				"energy": -0.31381,
				"method": "rhf"
			},
			{
				"type": "occ",
				"energy": -0.29616,
				"method": "rhf"
			},
			{
				"type": "occ",
				"energy": -0.28286,
				"method": "rhf"
			},
			{
				"type": "occ",
				"energy": -0.25595,
				"method": "rhf"
			},
			{
				"type": "occ",
				"energy": -0.24143,
				"method": "rhf"
			},
			{
				"type": "unocc",
				"energy": -0.0946,
				"method": "rhf"
			},
			{
				"type": "unocc",
				"energy": -0.03957,
				"method": "rhf"
			},
			{
				"type": "unocc",
				"energy": -0.01625,
				"method": "rhf"
			},
			{
				"type": "unocc",
				"energy": 0.01004,
				"method": "rhf"
			},
			{
				"type": "unocc",
				"energy": 0.07222,
				"method": "rhf"
			}
		],
		"cosmo_sigma_profile": { 
			"-0.025": 0.0,
			"-0.024": 0.0,
			"-0.023": 0.0,
			"-0.022": 0.0,
			"-0.021": 0.0,
			"-0.02": 0.0,
			"-0.019": 0.0,
			"-0.018": 0.0,
			"-0.017": 0.0,
			"-0.016": 0.0,
			"-0.015": 0.0,
			"-0.014": 0.0,
			"-0.013": 0.0,
			"-0.012": 0.0,
			"-0.011": 0.0,
			"-0.01": 0.0,
			"-0.009": 4.88736966579,
			"-0.008": 12.0645660283,
			"-0.007": 13.5488404494,
			"-0.006": 12.4635239484,
			"-0.005": 11.5567856594,
			"-0.004": 13.5770464505,
			"-0.003": 13.0343299178,
			"-0.002": 17.9675558078,
			"-0.001": 20.5338618237,
			"0.0": 15.3402889498,
			"0.001": 8.15362012895,
			"0.002": 5.40315247617,
			"0.003": 7.35698309555,
			"0.004": 6.47336036149,
			"0.005": 7.48872609961,
			"0.006": 8.57993899055,
			"0.007": 11.2074302129,
			"0.008": 10.2031545862,
			"0.009": 6.24103391872,
			"0.01": 5.25764365721,
			"0.011": 4.65114053984,
			"0.012": 2.82603845899,
			"0.013": 0.377573672966,
			"0.014": 0.0,
			"0.015": 0.0,
			"0.016": 0.0,
			"0.017": 0.0,
			"0.018": 0.0,
			"0.019": 0.0,
			"0.02": 0.0,
			"0.021": 0.0,
			"0.022": 0.0,
			"0.023": 0.0,
			"0.024": 0.0,
			"0.025": 0.0
		}
	}
}
