{
	 "smiles": "COC1=C(OC)C=C(C=C1)C(=O)C1=C(Cl)C=CC=C1", 
	 "Tm": 399.15, 
	 "num_atms": 32, 
	 "gaussian": { 
		 "optdone": 1, 
		 "sigma_profile": "yes", 
		 "theory": "DFT", 
		 "functional": "B3LYP", 
		 "basiset": "6-31G**", 
		 "properties": { 
			 "R2extent": 7756.9117, 
			 "electric_dipole_moment_norm": 2.27311392147, 
			 "electric_quadrupole_moment_norm": 19.6117456033, 
			 "total_energy": -1265.26137054, 
			 "HOMO_LUMO_gap": 0.16222, 
			 "cosmo_polarized_energy": -11.89, 
			 "cosmo_cavitation_energy": 38.06, 
			 "cosmo_dispersion_energy": -26.71, 
			 "cosmo_repulsion_energy": 2.07, 
			 "cosmo_total_nonelectrostatic_energy": 13.42, 
			 "SMD_solvation_energy": 8.28 
		},
		"coords": [
			{
				"x": 5.5657552042,
				"y": -0.1729334133,
				"z": 0.0087479109,
				"element": "C" 
			},
			{
				"x": 4.7767248988,
				"y": -0.1352578094,
				"z": -1.1861530946,
				"element": "O" 
			},
			{
				"x": 3.4219776842,
				"y": -0.0328412372,
				"z": -1.0476420186,
				"element": "C" 
			},
			{
				"x": 2.7985568917,
				"y": 1.0707287608,
				"z": -0.4078531917,
				"element": "C" 
			},
			{
				"x": 3.632725323,
				"y": 2.0265571704,
				"z": 0.0962994291,
				"element": "O" 
			},
			{
				"x": 3.0457170059,
				"y": 3.1685911023,
				"z": 0.7062112098,
				"element": "C" 
			},
			{
				"x": 1.4107960303,
				"y": 1.1244997906,
				"z": -0.3459941817,
				"element": "C" 
			},
			{
				"x": 0.6221064884,
				"y": 0.1220130713,
				"z": -0.9398099094,
				"element": "C" 
			},
			{
				"x": 1.2406823217,
				"y": -0.9517370403,
				"z": -1.5884027971,
				"element": "C" 
			},
			{
				"x": 2.6316572967,
				"y": -1.0236727003,
				"z": -1.629271494,
				"element": "C" 
			},
			{
				"x": -0.8538180259,
				"y": 0.2359713277,
				"z": -0.7957718134,
				"element": "C" 
			},
			{
				"x": -1.3629102999,
				"y": 1.0459208293,
				"z": -0.0308802341,
				"element": "O" 
			},
			{
				"x": -1.7616088518,
				"y": -0.7231546341,
				"z": -1.5377916989,
				"element": "C" 
			},
			{
				"x": -1.8964816171,
				"y": -0.7803741425,
				"z": -2.931183219,
				"element": "C" 
			},
			{
				"x": -0.9798230644,
				"y": 0.3061602138,
				"z": -3.9704578173,
				"element": "Cl" 
			},
			{
				"x": -2.7946471173,
				"y": -1.6595300085,
				"z": -3.5388987683,
				"element": "C" 
			},
			{
				"x": -3.5744471042,
				"y": -2.502299549,
				"z": -2.7487468264,
				"element": "C" 
			},
			{
				"x": -3.4720424744,
				"y": -2.4498145159,
				"z": -1.3572943527,
				"element": "C" 
			},
			{
				"x": -2.5828240786,
				"y": -1.5578940366,
				"z": -0.7641300429,
				"element": "C" 
			},
			{
				"x": 5.2450000874,
				"y": -0.9974161888,
				"z": 0.6579644371,
				"element": "H" 
			},
			{
				"x": 6.5910440996,
				"y": -0.3536621594,
				"z": -0.3193164598,
				"element": "H" 
			},
			{
				"x": 5.5126005076,
				"y": 0.7689135748,
				"z": 0.5587457218,
				"element": "H" 
			},
			{
				"x": 2.4091488704,
				"y": 3.7162925293,
				"z": 0.0008125641,
				"element": "H" 
			},
			{
				"x": 2.4524088802,
				"y": 2.8961512487,
				"z": 1.5878583545,
				"element": "H" 
			},
			{
				"x": 3.8773887967,
				"y": 3.8046558525,
				"z": 1.012277906,
				"element": "H" 
			},
			{
				"x": 0.8943610552,
				"y": 1.9384937069,
				"z": 0.1470622768,
				"element": "H" 
			},
			{
				"x": 0.64556803,
				"y": -1.7357999196,
				"z": -2.0430714299,
				"element": "H" 
			},
			{
				"x": 3.1396428768,
				"y": -1.848761365,
				"z": -2.1174840645,
				"element": "H" 
			},
			{
				"x": -2.8820271269,
				"y": -1.6700019321,
				"z": -4.6197398084,
				"element": "H" 
			},
			{
				"x": -4.2686244047,
				"y": -3.1892519617,
				"z": -3.2234450397,
				"element": "H" 
			},
			{
				"x": -4.0879578825,
				"y": -3.0941577245,
				"z": -0.7376532028,
				"element": "H" 
			},
			{
				"x": -2.5092503011,
				"y": -1.4920888402,
				"z": 0.3169116553,
				"element": "H" 
			}
		],
		 "valence_orbital": [ 
			{
				"type": "occ",
				"energy": -0.27013,
				"method": "rhf"
			},
			{
				"type": "occ",
				"energy": -0.25207,
				"method": "rhf"
			},
			{
				"type": "occ",
				"energy": -0.24884,
				"method": "rhf"
			},
			{
				"type": "occ",
				"energy": -0.24287,
				"method": "rhf"
			},
			{
				"type": "occ",
				"energy": -0.22131,
				"method": "rhf"
			},
			{
				"type": "unocc",
				"energy": -0.05909,
				"method": "rhf"
			},
			{
				"type": "unocc",
				"energy": -0.0181,
				"method": "rhf"
			},
			{
				"type": "unocc",
				"energy": -0.01582,
				"method": "rhf"
			},
			{
				"type": "unocc",
				"energy": 0.0037,
				"method": "rhf"
			},
			{
				"type": "unocc",
				"energy": 0.0287,
				"method": "rhf"
			}
		],
		"cosmo_sigma_profile": { 
			"-0.025": 0.0,
			"-0.024": 0.0,
			"-0.023": 0.0,
			"-0.022": 0.0,
			"-0.021": 0.0,
			"-0.02": 0.0,
			"-0.019": 0.0,
			"-0.018": 0.0,
			"-0.017": 0.0,
			"-0.016": 0.0,
			"-0.015": 0.0,
			"-0.014": 0.0,
			"-0.013": 0.0,
			"-0.012": 0.0,
			"-0.011": 0.0,
			"-0.01": 0.0,
			"-0.009": 0.0,
			"-0.008": 0.658814898546,
			"-0.007": 7.31068742818,
			"-0.006": 20.0712083632,
			"-0.005": 27.5214714472,
			"-0.004": 24.0140615952,
			"-0.003": 27.6537199862,
			"-0.002": 21.7354926167,
			"-0.001": 17.2165247201,
			"0.0": 20.3766977394,
			"0.001": 24.6343386747,
			"0.002": 27.4246933215,
			"0.003": 30.4012222462,
			"0.004": 20.3535550331,
			"0.005": 7.96655905158,
			"0.006": 4.11248327174,
			"0.007": 4.46501756272,
			"0.008": 4.26013842953,
			"0.009": 3.71906511756,
			"0.01": 4.00645975461,
			"0.011": 5.19824026826,
			"0.012": 2.78213398009,
			"0.013": 0.570821224794,
			"0.014": 0.0,
			"0.015": 0.0,
			"0.016": 0.0,
			"0.017": 0.0,
			"0.018": 0.0,
			"0.019": 0.0,
			"0.02": 0.0,
			"0.021": 0.0,
			"0.022": 0.0,
			"0.023": 0.0,
			"0.024": 0.0,
			"0.025": 0.0
		}
	}
}
