{
	 "smiles": "CCOC(=O)C1=C(N)C=C(S1)C1=CC=C(Br)C=C1", 
	 "Tm": 379.15, 
	 "num_atms": 30, 
	 "gaussian": { 
		 "optdone": 1, 
		 "sigma_profile": "yes", 
		 "theory": "DFT", 
		 "functional": "B3LYP", 
		 "basiset": "6-31G**", 
		 "properties": { 
			 "R2extent": 13044.7864, 
			 "electric_dipole_moment_norm": 1.49994238223, 
			 "electric_quadrupole_moment_norm": 17.4333698469, 
			 "total_energy": -3677.43113721, 
			 "HOMO_LUMO_gap": 0.1427, 
			 "cosmo_polarized_energy": -11.91, 
			 "cosmo_cavitation_energy": 38.31, 
			 "cosmo_dispersion_energy": -28.81, 
			 "cosmo_repulsion_energy": 2.2, 
			 "cosmo_total_nonelectrostatic_energy": 11.71, 
			 "SMD_solvation_energy": 5.76 
		},
		"coords": [
			{
				"x": 4.5414085722,
				"y": 1.7728528938,
				"z": -2.1310865762,
				"element": "C" 
			},
			{
				"x": 4.6024062359,
				"y": 1.5843857072,
				"z": -0.622337338,
				"element": "C" 
			},
			{
				"x": 3.3126049901,
				"y": 1.2178705338,
				"z": -0.083542166,
				"element": "O" 
			},
			{
				"x": 2.9969093704,
				"y": -0.1007966519,
				"z": -0.0995859257,
				"element": "C" 
			},
			{
				"x": 3.7514852596,
				"y": -0.9699277525,
				"z": -0.5350892182,
				"element": "O" 
			},
			{
				"x": 1.6851527324,
				"y": -0.3678283671,
				"z": 0.443363781,
				"element": "C" 
			},
			{
				"x": 1.1066947652,
				"y": -1.6367589221,
				"z": 0.532451937,
				"element": "C" 
			},
			{
				"x": 1.7497782036,
				"y": -2.7955934342,
				"z": 0.1960319106,
				"element": "N" 
			},
			{
				"x": -0.2234655155,
				"y": -1.5790813473,
				"z": 1.0524584078,
				"element": "C" 
			},
			{
				"x": -0.6440293407,
				"y": -0.3051364921,
				"z": 1.3572130512,
				"element": "C" 
			},
			{
				"x": 0.5970948508,
				"y": 0.877759651,
				"z": 1.0251181392,
				"element": "S" 
			},
			{
				"x": -1.9438189524,
				"y": 0.0938977152,
				"z": 1.9120644835,
				"element": "C" 
			},
			{
				"x": -2.6869995155,
				"y": -0.8020318508,
				"z": 2.7021889891,
				"element": "C" 
			},
			{
				"x": -3.9275351011,
				"y": -0.4458893127,
				"z": 3.2235175417,
				"element": "C" 
			},
			{
				"x": -4.4370488756,
				"y": 0.8263437286,
				"z": 2.9654257109,
				"element": "C" 
			},
			{
				"x": -6.1355358979,
				"y": 1.3237472695,
				"z": 3.6816134991,
				"element": "Br" 
			},
			{
				"x": -3.7206908532,
				"y": 1.740044968,
				"z": 2.1938836466,
				"element": "C" 
			},
			{
				"x": -2.4845708631,
				"y": 1.369407066,
				"z": 1.6710690537,
				"element": "C" 
			},
			{
				"x": 5.5100825625,
				"y": 2.1250526755,
				"z": -2.5016473439,
				"element": "H" 
			},
			{
				"x": 4.3082770307,
				"y": 0.8267233675,
				"z": -2.6255506546,
				"element": "H" 
			},
			{
				"x": 3.7806981939,
				"y": 2.5112645296,
				"z": -2.4011206495,
				"element": "H" 
			},
			{
				"x": 4.8536710842,
				"y": 2.5176461658,
				"z": -0.1124536448,
				"element": "H" 
			},
			{
				"x": 5.329977666,
				"y": 0.8157450379,
				"z": -0.351100491,
				"element": "H" 
			},
			{
				"x": 1.1901720371,
				"y": -3.6032179572,
				"z": -0.0273347087,
				"element": "H" 
			},
			{
				"x": 2.625323611,
				"y": -2.6727370057,
				"z": -0.3003925126,
				"element": "H" 
			},
			{
				"x": -0.8496081957,
				"y": -2.4566758666,
				"z": 1.1690106185,
				"element": "H" 
			},
			{
				"x": -2.2789890611,
				"y": -1.7810027379,
				"z": 2.9321548098,
				"element": "H" 
			},
			{
				"x": -4.4881189374,
				"y": -1.1443633588,
				"z": 3.8342527959,
				"element": "H" 
			},
			{
				"x": -4.1274368652,
				"y": 2.7252010533,
				"z": 1.9964541167,
				"element": "H" 
			},
			{
				"x": -1.941789191,
				"y": 2.0753986943,
				"z": 1.0497687371,
				"element": "H" 
			}
		],
		 "valence_orbital": [ 
			{
				"type": "occ",
				"energy": -0.27258,
				"method": "rhf"
			},
			{
				"type": "occ",
				"energy": -0.27127,
				"method": "rhf"
			},
			{
				"type": "occ",
				"energy": -0.26435,
				"method": "rhf"
			},
			{
				"type": "occ",
				"energy": -0.23176,
				"method": "rhf"
			},
			{
				"type": "occ",
				"energy": -0.20363,
				"method": "rhf"
			},
			{
				"type": "unocc",
				"energy": -0.06093,
				"method": "rhf"
			},
			{
				"type": "unocc",
				"energy": -0.02228,
				"method": "rhf"
			},
			{
				"type": "unocc",
				"energy": -0.00429,
				"method": "rhf"
			},
			{
				"type": "unocc",
				"energy": 0.00293,
				"method": "rhf"
			},
			{
				"type": "unocc",
				"energy": 0.02957,
				"method": "rhf"
			}
		],
		"cosmo_sigma_profile": { 
			"-0.025": 0.0,
			"-0.024": 0.0,
			"-0.023": 0.0,
			"-0.022": 0.0,
			"-0.021": 0.0,
			"-0.02": 0.0,
			"-0.019": 0.0,
			"-0.018": 0.0,
			"-0.017": 0.0,
			"-0.016": 0.0,
			"-0.015": 0.0,
			"-0.014": 0.540095978525,
			"-0.013": 1.78057906495,
			"-0.012": 1.03396919615,
			"-0.011": 1.4729092244,
			"-0.01": 1.98709578367,
			"-0.009": 2.51230772815,
			"-0.008": 5.23248894779,
			"-0.007": 9.35813616508,
			"-0.006": 11.4578564665,
			"-0.005": 14.3591316982,
			"-0.004": 17.8932826587,
			"-0.003": 21.2370396814,
			"-0.002": 18.8920496114,
			"-0.001": 21.9563841617,
			"0.0": 24.843834721,
			"0.001": 27.9472223977,
			"0.002": 34.6083890476,
			"0.003": 37.6459822014,
			"0.004": 23.9880831037,
			"0.005": 11.9176157468,
			"0.006": 4.61768937092,
			"0.007": 4.80592337352,
			"0.008": 2.29643289556,
			"0.009": 1.6318259001,
			"0.01": 2.79411599644,
			"0.011": 2.06626184688,
			"0.012": 2.00099428992,
			"0.013": 0.408861224827,
			"0.014": 0.0,
			"0.015": 0.0,
			"0.016": 0.0,
			"0.017": 0.0,
			"0.018": 0.0,
			"0.019": 0.0,
			"0.02": 0.0,
			"0.021": 0.0,
			"0.022": 0.0,
			"0.023": 0.0,
			"0.024": 0.0,
			"0.025": 0.0
		}
	}
}
