{
	 "smiles": "CS(=O)(=O)C1=C(F)C=CC(=C1)S(N)(=O)=O", 
	 "Tm": 476.15, 
	 "num_atms": 23, 
	 "gaussian": { 
		 "optdone": 1, 
		 "sigma_profile": "yes", 
		 "theory": "DFT", 
		 "functional": "B3LYP", 
		 "basiset": "6-31G**", 
		 "properties": { 
			 "R2extent": 5593.9806, 
			 "electric_dipole_moment_norm": 6.8195460846, 
			 "electric_quadrupole_moment_norm": 16.6174806577, 
			 "total_energy": -1523.28144878, 
			 "HOMO_LUMO_gap": 0.21735, 
			 "cosmo_polarized_energy": -24.39, 
			 "cosmo_cavitation_energy": 30.71, 
			 "cosmo_dispersion_energy": -23.12, 
			 "cosmo_repulsion_energy": 1.71, 
			 "cosmo_total_nonelectrostatic_energy": 9.3, 
			 "SMD_solvation_energy": 5.1 
		},
		"coords": [
			{
				"x": -5.1629991665,
				"y": -0.2736254884,
				"z": -0.1140355277,
				"element": "C" 
			},
			{
				"x": -3.9942164725,
				"y": -1.541307529,
				"z": -0.6450574732,
				"element": "S" 
			},
			{
				"x": -4.4293411616,
				"y": -2.8276657305,
				"z": -0.0907738611,
				"element": "O" 
			},
			{
				"x": -3.7657170448,
				"y": -1.3784594493,
				"z": -2.0877796886,
				"element": "O" 
			},
			{
				"x": -2.4491348422,
				"y": -1.0587681757,
				"z": 0.1664255757,
				"element": "C" 
			},
			{
				"x": -2.3255312233,
				"y": -1.0103758804,
				"z": 1.5573518125,
				"element": "C" 
			},
			{
				"x": -3.4036986703,
				"y": -1.2412507271,
				"z": 2.3253456027,
				"element": "F" 
			},
			{
				"x": -1.1170529402,
				"y": -0.7108098067,
				"z": 2.1740298884,
				"element": "C" 
			},
			{
				"x": -0.0013511246,
				"y": -0.4533290843,
				"z": 1.379138295,
				"element": "C" 
			},
			{
				"x": -0.1209377366,
				"y": -0.493453671,
				"z": -0.0112114712,
				"element": "C" 
			},
			{
				"x": -1.3329661774,
				"y": -0.803954824,
				"z": -0.6275394287,
				"element": "C" 
			},
			{
				"x": 1.3227804887,
				"y": -0.1590258974,
				"z": -1.0250309409,
				"element": "S" 
			},
			{
				"x": 1.1226062757,
				"y": 1.4656110256,
				"z": -1.4560706846,
				"element": "N" 
			},
			{
				"x": 2.4925835205,
				"y": -0.2387408856,
				"z": -0.1462442561,
				"element": "O" 
			},
			{
				"x": 1.1941908741,
				"y": -0.9484607343,
				"z": -2.2503846376,
				"element": "O" 
			},
			{
				"x": -5.2325640075,
				"y": -0.29313807,
				"z": 0.9734205405,
				"element": "H" 
			},
			{
				"x": -4.8272206078,
				"y": 0.6970492886,
				"z": -0.4814017135,
				"element": "H" 
			},
			{
				"x": -6.1212056583,
				"y": -0.5412934367,
				"z": -0.5640422391,
				"element": "H" 
			},
			{
				"x": -1.0643247286,
				"y": -0.6915758796,
				"z": 3.2568493814,
				"element": "H" 
			},
			{
				"x": 0.9608835738,
				"y": -0.2341075856,
				"z": 1.8281097117,
				"element": "H" 
			},
			{
				"x": -1.4244839525,
				"y": -0.8664951948,
				"z": -1.706769267,
				"element": "H" 
			},
			{
				"x": 1.0708347408,
				"y": 1.5413605738,
				"z": -2.4688039585,
				"element": "H" 
			},
			{
				"x": 1.891366041,
				"y": 2.0144171623,
				"z": -1.0799256603,
				"element": "H" 
			}
		],
		 "valence_orbital": [ 
			{
				"type": "occ",
				"energy": -0.31544,
				"method": "rhf"
			},
			{
				"type": "occ",
				"energy": -0.31144,
				"method": "rhf"
			},
			{
				"type": "occ",
				"energy": -0.30378,
				"method": "rhf"
			},
			{
				"type": "occ",
				"energy": -0.2955,
				"method": "rhf"
			},
			{
				"type": "occ",
				"energy": -0.28129,
				"method": "rhf"
			},
			{
				"type": "unocc",
				"energy": -0.06394,
				"method": "rhf"
			},
			{
				"type": "unocc",
				"energy": -0.05433,
				"method": "rhf"
			},
			{
				"type": "unocc",
				"energy": 0.02723,
				"method": "rhf"
			},
			{
				"type": "unocc",
				"energy": 0.04987,
				"method": "rhf"
			},
			{
				"type": "unocc",
				"energy": 0.05798,
				"method": "rhf"
			}
		],
		"cosmo_sigma_profile": { 
			"-0.025": 0.0,
			"-0.024": 0.0,
			"-0.023": 0.0,
			"-0.022": 0.0,
			"-0.021": 0.0,
			"-0.02": 0.0,
			"-0.019": 0.0,
			"-0.018": 0.0,
			"-0.017": 0.0,
			"-0.016": 0.14955655774,
			"-0.015": 1.82990937937,
			"-0.014": 2.26534523094,
			"-0.013": 2.28543878221,
			"-0.012": 2.85205727816,
			"-0.011": 2.51187123142,
			"-0.01": 2.98810833849,
			"-0.009": 8.38266239514,
			"-0.008": 9.64933219971,
			"-0.007": 12.3531714308,
			"-0.006": 13.438406866,
			"-0.005": 13.2475981259,
			"-0.004": 12.3601926738,
			"-0.003": 15.3141949856,
			"-0.002": 15.9895434905,
			"-0.001": 16.1722319044,
			"0.0": 12.100207552,
			"0.001": 8.26632902977,
			"0.002": 10.0738751534,
			"0.003": 7.80791524549,
			"0.004": 5.08004031896,
			"0.005": 4.52459772489,
			"0.006": 6.67404932534,
			"0.007": 6.16351816368,
			"0.008": 7.81708797027,
			"0.009": 7.44031675161,
			"0.01": 18.1521886118,
			"0.011": 17.0842974667,
			"0.012": 2.86885598685,
			"0.013": 0.0,
			"0.014": 0.0,
			"0.015": 0.0,
			"0.016": 0.0,
			"0.017": 0.0,
			"0.018": 0.0,
			"0.019": 0.0,
			"0.02": 0.0,
			"0.021": 0.0,
			"0.022": 0.0,
			"0.023": 0.0,
			"0.024": 0.0,
			"0.025": 0.0
		}
	}
}
