{
	 "smiles": "COC1=C(C=C(Cl)C=C1C(O)=O)[N+]([O-])=O", 
	 "Tm": 435.15, 
	 "num_atms": 21, 
	 "gaussian": { 
		 "optdone": 1, 
		 "sigma_profile": "yes", 
		 "theory": "DFT", 
		 "functional": "B3LYP", 
		 "basiset": "6-31G**", 
		 "properties": { 
			 "R2extent": 4632.8258, 
			 "electric_dipole_moment_norm": 3.90672433632, 
			 "electric_quadrupole_moment_norm": 5.98057255537, 
			 "total_energy": -1199.41333316, 
			 "HOMO_LUMO_gap": 0.16919, 
			 "cosmo_polarized_energy": -12.68, 
			 "cosmo_cavitation_energy": 28.38, 
			 "cosmo_dispersion_energy": -20.84, 
			 "cosmo_repulsion_energy": 1.63, 
			 "cosmo_total_nonelectrostatic_energy": 9.17, 
			 "SMD_solvation_energy": 8.66 
		},
		"coords": [
			{
				"x": 0.8563503888,
				"y": -0.2140140338,
				"z": -1.5064330302,
				"element": "C" 
			},
			{
				"x": 1.2798183357,
				"y": -0.3894997082,
				"z": -0.1363925063,
				"element": "O" 
			},
			{
				"x": 0.500615085,
				"y": 0.1234451971,
				"z": 0.8378746045,
				"element": "C" 
			},
			{
				"x": -0.3926220886,
				"y": -0.7045842737,
				"z": 1.5507383154,
				"element": "C" 
			},
			{
				"x": -1.1116662734,
				"y": -0.2625016414,
				"z": 2.6582568899,
				"element": "C" 
			},
			{
				"x": -0.9716762907,
				"y": 1.0583209044,
				"z": 3.0641139858,
				"element": "C" 
			},
			{
				"x": -1.8916797404,
				"y": 1.6480241015,
				"z": 4.43108965,
				"element": "Cl" 
			},
			{
				"x": -0.091215571,
				"y": 1.9084565767,
				"z": 2.4034099222,
				"element": "C" 
			},
			{
				"x": 0.6488460215,
				"y": 1.4557086672,
				"z": 1.30207709,
				"element": "C" 
			},
			{
				"x": 1.6180617205,
				"y": 2.3951118191,
				"z": 0.6587761822,
				"element": "C" 
			},
			{
				"x": 1.8859058742,
				"y": 3.4612855545,
				"z": 1.4541748098,
				"element": "O" 
			},
			{
				"x": 2.1247180897,
				"y": 2.2729856672,
				"z": -0.4358283918,
				"element": "O" 
			},
			{
				"x": -0.5941270261,
				"y": -2.115682949,
				"z": 1.1755102423,
				"element": "N" 
			},
			{
				"x": -0.5460060202,
				"y": -2.4155018216,
				"z": -0.0134705969,
				"element": "O" 
			},
			{
				"x": -0.8285427063,
				"y": -2.9018358693,
				"z": 2.0924749304,
				"element": "O" 
			},
			{
				"x": 0.8239205353,
				"y": 0.8466361673,
				"z": -1.758297013,
				"element": "H" 
			},
			{
				"x": 1.6210608182,
				"y": -0.7087345597,
				"z": -2.1052106376,
				"element": "H" 
			},
			{
				"x": -0.1074175986,
				"y": -0.7021227145,
				"z": -1.662440179,
				"element": "H" 
			},
			{
				"x": -1.7598940617,
				"y": -0.9542076933,
				"z": 3.1810910324,
				"element": "H" 
			},
			{
				"x": 0.0364808458,
				"y": 2.9276026357,
				"z": 2.7443878576,
				"element": "H" 
			},
			{
				"x": 2.4979696622,
				"y": 4.0209079739,
				"z": 0.9480968423,
				"element": "H" 
			}
		],
		 "valence_orbital": [ 
			{
				"type": "occ",
				"energy": -0.31283,
				"method": "rhf"
			},
			{
				"type": "occ",
				"energy": -0.30058,
				"method": "rhf"
			},
			{
				"type": "occ",
				"energy": -0.2924,
				"method": "rhf"
			},
			{
				"type": "occ",
				"energy": -0.28645,
				"method": "rhf"
			},
			{
				"type": "occ",
				"energy": -0.26745,
				"method": "rhf"
			},
			{
				"type": "unocc",
				"energy": -0.09826,
				"method": "rhf"
			},
			{
				"type": "unocc",
				"energy": -0.07449,
				"method": "rhf"
			},
			{
				"type": "unocc",
				"energy": -0.02848,
				"method": "rhf"
			},
			{
				"type": "unocc",
				"energy": 0.00686,
				"method": "rhf"
			},
			{
				"type": "unocc",
				"energy": 0.02692,
				"method": "rhf"
			}
		],
		"cosmo_sigma_profile": { 
			"-0.025": 0.0,
			"-0.024": 0.0,
			"-0.023": 0.0,
			"-0.022": 0.0,
			"-0.021": 0.0,
			"-0.02": 0.0,
			"-0.019": 0.323120138305,
			"-0.018": 1.06659209108,
			"-0.017": 0.991491535257,
			"-0.016": 0.623962324169,
			"-0.015": 0.698868116175,
			"-0.014": 0.462776735793,
			"-0.013": 0.798171939868,
			"-0.012": 1.03824268218,
			"-0.011": 1.05578755792,
			"-0.01": 0.194060291548,
			"-0.009": 1.84888627213,
			"-0.008": 4.26539383391,
			"-0.007": 5.40848306672,
			"-0.006": 6.71006571447,
			"-0.005": 8.29932279386,
			"-0.004": 19.2837583531,
			"-0.003": 26.971869946,
			"-0.002": 21.536267067,
			"-0.001": 19.7064313172,
			"0.0": 10.0896009675,
			"0.001": 11.5292028496,
			"0.002": 11.0898898418,
			"0.003": 14.4414436545,
			"0.004": 12.7105956576,
			"0.005": 7.23511477649,
			"0.006": 8.41072721879,
			"0.007": 11.0581774408,
			"0.008": 7.72024514786,
			"0.009": 6.51613805867,
			"0.01": 5.02471927832,
			"0.011": 2.67954460423,
			"0.012": 0.295242442116,
			"0.013": 0.0,
			"0.014": 0.0,
			"0.015": 0.0,
			"0.016": 0.0,
			"0.017": 0.0,
			"0.018": 0.0,
			"0.019": 0.0,
			"0.02": 0.0,
			"0.021": 0.0,
			"0.022": 0.0,
			"0.023": 0.0,
			"0.024": 0.0,
			"0.025": 0.0
		}
	}
}
