{
	 "smiles": "CN(C)C1=CC=C(C=C1)C1=NC2=C(S1)C=CC=C2", 
	 "Tm": 445.15, 
	 "num_atms": 32, 
	 "gaussian": { 
		 "optdone": 1, 
		 "sigma_profile": "yes", 
		 "theory": "DFT", 
		 "functional": "B3LYP", 
		 "basiset": "6-31G**", 
		 "properties": { 
			 "R2extent": 7725.5506, 
			 "electric_dipole_moment_norm": 3.97969934794, 
			 "electric_quadrupole_moment_norm": 22.0788618126, 
			 "total_energy": -1087.73681494, 
			 "HOMO_LUMO_gap": 0.14502, 
			 "cosmo_polarized_energy": -10.27, 
			 "cosmo_cavitation_energy": 36.52, 
			 "cosmo_dispersion_energy": -27.64, 
			 "cosmo_repulsion_energy": 2.04, 
			 "cosmo_total_nonelectrostatic_energy": 10.92, 
			 "SMD_solvation_energy": 3.9 
		},
		"coords": [
			{
				"x": 3.4708771276,
				"y": -3.3984061308,
				"z": -1.8277580803,
				"element": "C" 
			},
			{
				"x": 3.6270778521,
				"y": -1.9607521467,
				"z": -1.6856744599,
				"element": "N" 
			},
			{
				"x": 4.9367567171,
				"y": -1.3657835579,
				"z": -1.8933453014,
				"element": "C" 
			},
			{
				"x": 2.6056566122,
				"y": -1.2071260852,
				"z": -1.1407401553,
				"element": "C" 
			},
			{
				"x": 1.353236248,
				"y": -1.7849022141,
				"z": -0.819781135,
				"element": "C" 
			},
			{
				"x": 0.3274062772,
				"y": -1.0166726719,
				"z": -0.2892370558,
				"element": "C" 
			},
			{
				"x": 0.4863795876,
				"y": 0.3565619073,
				"z": -0.0435104378,
				"element": "C" 
			},
			{
				"x": 1.7329758482,
				"y": 0.9318090691,
				"z": -0.3534179822,
				"element": "C" 
			},
			{
				"x": 2.7662378707,
				"y": 0.1778989481,
				"z": -0.8836688733,
				"element": "C" 
			},
			{
				"x": -0.5734336474,
				"y": 1.1912248894,
				"z": 0.5154832567,
				"element": "C" 
			},
			{
				"x": -0.4520831347,
				"y": 2.4630385531,
				"z": 0.7607714691,
				"element": "N" 
			},
			{
				"x": -1.6095481701,
				"y": 3.0020159914,
				"z": 1.2867068715,
				"element": "C" 
			},
			{
				"x": -2.6844054715,
				"y": 2.093267489,
				"z": 1.4561779035,
				"element": "C" 
			},
			{
				"x": -2.182350553,
				"y": 0.502888498,
				"z": 0.920459014,
				"element": "S" 
			},
			{
				"x": -3.9122248528,
				"y": 2.504297661,
				"z": 1.9778367529,
				"element": "C" 
			},
			{
				"x": -4.0610280718,
				"y": 3.8438776326,
				"z": 2.3331080712,
				"element": "C" 
			},
			{
				"x": -3.0041195269,
				"y": 4.7556795121,
				"z": 2.1706977999,
				"element": "C" 
			},
			{
				"x": -1.7814273787,
				"y": 4.3464446118,
				"z": 1.6512192395,
				"element": "C" 
			},
			{
				"x": 4.3669338228,
				"y": -3.8124193281,
				"z": -2.2915729434,
				"element": "H" 
			},
			{
				"x": 3.3221242182,
				"y": -3.903158435,
				"z": -0.861726392,
				"element": "H" 
			},
			{
				"x": 2.618638342,
				"y": -3.6458734538,
				"z": -2.4726094772,
				"element": "H" 
			},
			{
				"x": 4.882151991,
				"y": -0.5070719546,
				"z": -2.5735683075,
				"element": "H" 
			},
			{
				"x": 5.3981328683,
				"y": -1.0253542717,
				"z": -0.9546744149,
				"element": "H" 
			},
			{
				"x": 5.5979993277,
				"y": -2.1049365844,
				"z": -2.3471023098,
				"element": "H" 
			},
			{
				"x": 1.1784459017,
				"y": -2.8406891934,
				"z": -0.9839900265,
				"element": "H" 
			},
			{
				"x": -0.6159554991,
				"y": -1.5051311326,
				"z": -0.0598784845,
				"element": "H" 
			},
			{
				"x": 1.8739435628,
				"y": 1.9905148774,
				"z": -0.1646608336,
				"element": "H" 
			},
			{
				"x": 3.7073657116,
				"y": 0.6682556945,
				"z": -1.0994729439,
				"element": "H" 
			},
			{
				"x": -4.73087886,
				"y": 1.8029546693,
				"z": 2.1047231802,
				"element": "H" 
			},
			{
				"x": -5.0079845206,
				"y": 4.1850025202,
				"z": 2.7408569976,
				"element": "H" 
			},
			{
				"x": -3.1460662324,
				"y": 5.7940543564,
				"z": 2.4554162563,
				"element": "H" 
			},
			{
				"x": -0.9567339678,
				"y": 5.0393902793,
				"z": 1.5203328023,
				"element": "H" 
			}
		],
		 "valence_orbital": [ 
			{
				"type": "occ",
				"energy": -0.26238,
				"method": "rhf"
			},
			{
				"type": "occ",
				"energy": -0.25097,
				"method": "rhf"
			},
			{
				"type": "occ",
				"energy": -0.23446,
				"method": "rhf"
			},
			{
				"type": "occ",
				"energy": -0.22388,
				"method": "rhf"
			},
			{
				"type": "occ",
				"energy": -0.18723,
				"method": "rhf"
			},
			{
				"type": "unocc",
				"energy": -0.04221,
				"method": "rhf"
			},
			{
				"type": "unocc",
				"energy": -0.00025,
				"method": "rhf"
			},
			{
				"type": "unocc",
				"energy": 0.00549,
				"method": "rhf"
			},
			{
				"type": "unocc",
				"energy": 0.02293,
				"method": "rhf"
			},
			{
				"type": "unocc",
				"energy": 0.02443,
				"method": "rhf"
			}
		],
		"cosmo_sigma_profile": { 
			"-0.025": 0.0,
			"-0.024": 0.0,
			"-0.023": 0.0,
			"-0.022": 0.0,
			"-0.021": 0.0,
			"-0.02": 0.0,
			"-0.019": 0.0,
			"-0.018": 0.0,
			"-0.017": 0.0,
			"-0.016": 0.0,
			"-0.015": 0.0,
			"-0.014": 0.0,
			"-0.013": 0.0,
			"-0.012": 0.0,
			"-0.011": 0.0,
			"-0.01": 0.0,
			"-0.009": 0.0,
			"-0.008": 0.12642723145,
			"-0.007": 3.79087246241,
			"-0.006": 14.1791195551,
			"-0.005": 22.5086791983,
			"-0.004": 30.3819140879,
			"-0.003": 25.3311987992,
			"-0.002": 27.8000389853,
			"-0.001": 20.195993042,
			"0.0": 15.3358440514,
			"0.001": 20.3983577716,
			"0.002": 21.589595036,
			"0.003": 24.0997643332,
			"0.004": 27.6418727792,
			"0.005": 25.2293899568,
			"0.006": 6.9160791518,
			"0.007": 2.46891270373,
			"0.008": 1.13066253334,
			"0.009": 1.42939790988,
			"0.01": 1.31302450872,
			"0.011": 1.2217339448,
			"0.012": 1.09311511827,
			"0.013": 0.143003131735,
			"0.014": 0.0,
			"0.015": 0.0,
			"0.016": 0.0,
			"0.017": 0.0,
			"0.018": 0.0,
			"0.019": 0.0,
			"0.02": 0.0,
			"0.021": 0.0,
			"0.022": 0.0,
			"0.023": 0.0,
			"0.024": 0.0,
			"0.025": 0.0
		}
	}
}
