{
	 "smiles": "COC1=C(OCC2=NC=CC=C2)C=C(C=C1)C(O)=O", 
	 "Tm": 493.15, 
	 "num_atms": 32, 
	 "gaussian": { 
		 "optdone": 1, 
		 "sigma_profile": "yes", 
		 "theory": "DFT", 
		 "functional": "B3LYP", 
		 "basiset": "6-31G**", 
		 "properties": { 
			 "R2extent": 7683.8998, 
			 "electric_dipole_moment_norm": 3.42311031666, 
			 "electric_quadrupole_moment_norm": 9.55650701878, 
			 "total_energy": -896.95742193, 
			 "HOMO_LUMO_gap": 0.19448, 
			 "cosmo_polarized_energy": -13.73, 
			 "cosmo_cavitation_energy": 37.25, 
			 "cosmo_dispersion_energy": -26.29, 
			 "cosmo_repulsion_energy": 2.04, 
			 "cosmo_total_nonelectrostatic_energy": 12.99, 
			 "SMD_solvation_energy": 7.06 
		},
		"coords": [
			{
				"x": -2.5976521547,
				"y": -1.5304143885,
				"z": -0.5198712017,
				"element": "C" 
			},
			{
				"x": -1.3612814465,
				"y": -1.0588534655,
				"z": -1.076330097,
				"element": "O" 
			},
			{
				"x": -0.300479801,
				"y": -0.9960694343,
				"z": -0.2105918108,
				"element": "C" 
			},
			{
				"x": -0.2821185052,
				"y": -0.1086595417,
				"z": 0.8860346788,
				"element": "C" 
			},
			{
				"x": -1.3599889075,
				"y": 0.7017766984,
				"z": 1.1698780372,
				"element": "O" 
			},
			{
				"x": -1.5762907078,
				"y": 1.7748067184,
				"z": 0.2420375072,
				"element": "C" 
			},
			{
				"x": -2.7584364892,
				"y": 2.6018188882,
				"z": 0.6920513971,
				"element": "C" 
			},
			{
				"x": -3.1387581344,
				"y": 3.5429086014,
				"z": -0.1853197602,
				"element": "N" 
			},
			{
				"x": -4.1694526792,
				"y": 4.3258262417,
				"z": 0.1486582734,
				"element": "C" 
			},
			{
				"x": -4.868429674,
				"y": 4.2125509905,
				"z": 1.3519442001,
				"element": "C" 
			},
			{
				"x": -4.4648549139,
				"y": 3.2309045039,
				"z": 2.2551491946,
				"element": "C" 
			},
			{
				"x": -3.38814498,
				"y": 2.4081666188,
				"z": 1.924785418,
				"element": "C" 
			},
			{
				"x": 0.8261652289,
				"y": -0.0701664567,
				"z": 1.7268953793,
				"element": "C" 
			},
			{
				"x": 1.9325784717,
				"y": -0.8943717204,
				"z": 1.4790758339,
				"element": "C" 
			},
			{
				"x": 1.9262956633,
				"y": -1.7512876623,
				"z": 0.3707409419,
				"element": "C" 
			},
			{
				"x": 0.8149901667,
				"y": -1.8008793382,
				"z": -0.4633887248,
				"element": "C" 
			},
			{
				"x": 3.1339048397,
				"y": -0.884569494,
				"z": 2.3503126988,
				"element": "C" 
			},
			{
				"x": 3.0306072157,
				"y": -0.0195098657,
				"z": 3.3921798924,
				"element": "O" 
			},
			{
				"x": 4.1248295064,
				"y": -1.5677636797,
				"z": 2.1781980017,
				"element": "O" 
			},
			{
				"x": -2.4838581125,
				"y": -2.5562841763,
				"z": -0.1491574276,
				"element": "H" 
			},
			{
				"x": -3.3189076969,
				"y": -1.5195409476,
				"z": -1.3386795297,
				"element": "H" 
			},
			{
				"x": -2.9451470551,
				"y": -0.8846218316,
				"z": 0.2909878638,
				"element": "H" 
			},
			{
				"x": -1.7610480615,
				"y": 1.386265621,
				"z": -0.7654678591,
				"element": "H" 
			},
			{
				"x": -0.6796943212,
				"y": 2.408918041,
				"z": 0.195703959,
				"element": "H" 
			},
			{
				"x": -4.4526092771,
				"y": 5.0802553594,
				"z": -0.5836704974,
				"element": "H" 
			},
			{
				"x": -5.7009788222,
				"y": 4.8743290548,
				"z": 1.5685188054,
				"element": "H" 
			},
			{
				"x": -4.9785207085,
				"y": 3.1067268289,
				"z": 3.2044653607,
				"element": "H" 
			},
			{
				"x": -3.035436512,
				"y": 1.6338775715,
				"z": 2.5951505933,
				"element": "H" 
			},
			{
				"x": 0.8177708304,
				"y": 0.6106730371,
				"z": 2.5698843359,
				"element": "H" 
			},
			{
				"x": 2.793572078,
				"y": -2.3760891244,
				"z": 0.1885532698,
				"element": "H" 
			},
			{
				"x": 0.781201222,
				"y": -2.4638858778,
				"z": -1.3217269946,
				"element": "H" 
			},
			{
				"x": 3.8651737381,
				"y": -0.1002377704,
				"z": 3.8820982606,
				"element": "H" 
			}
		],
		 "valence_orbital": [ 
			{
				"type": "occ",
				"energy": -0.27213,
				"method": "rhf"
			},
			{
				"type": "occ",
				"energy": -0.25882,
				"method": "rhf"
			},
			{
				"type": "occ",
				"energy": -0.25745,
				"method": "rhf"
			},
			{
				"type": "occ",
				"energy": -0.25333,
				"method": "rhf"
			},
			{
				"type": "occ",
				"energy": -0.24069,
				"method": "rhf"
			},
			{
				"type": "unocc",
				"energy": -0.04621,
				"method": "rhf"
			},
			{
				"type": "unocc",
				"energy": -0.02706,
				"method": "rhf"
			},
			{
				"type": "unocc",
				"energy": -0.01124,
				"method": "rhf"
			},
			{
				"type": "unocc",
				"energy": -0.00878,
				"method": "rhf"
			},
			{
				"type": "unocc",
				"energy": 0.05745,
				"method": "rhf"
			}
		],
		"cosmo_sigma_profile": { 
			"-0.025": 0.0,
			"-0.024": 0.0,
			"-0.023": 0.0,
			"-0.022": 0.0,
			"-0.021": 0.0,
			"-0.02": 0.0,
			"-0.019": 0.0,
			"-0.018": 0.720957496862,
			"-0.017": 1.14186004525,
			"-0.016": 0.738335805917,
			"-0.015": 0.616945518924,
			"-0.014": 0.809417712454,
			"-0.013": 0.350851766796,
			"-0.012": 0.595569539059,
			"-0.011": 0.845105369826,
			"-0.01": 0.738124732283,
			"-0.009": 0.748067270806,
			"-0.008": 0.503389279109,
			"-0.007": 5.78863237745,
			"-0.006": 15.3998120159,
			"-0.005": 21.084403082,
			"-0.004": 21.5382955717,
			"-0.003": 26.7553768809,
			"-0.002": 23.6810975782,
			"-0.001": 19.23998776,
			"0.0": 21.5179886959,
			"0.001": 26.0545649422,
			"0.002": 30.0195041852,
			"0.003": 24.904602469,
			"0.004": 9.68312236597,
			"0.005": 8.60638238479,
			"0.006": 5.46331329281,
			"0.007": 5.81643186464,
			"0.008": 3.92976856904,
			"0.009": 3.79727191455,
			"0.01": 3.56065906913,
			"0.011": 5.1011753823,
			"0.012": 4.94819751482,
			"0.013": 1.11050409021,
			"0.014": 0.768526950601,
			"0.015": 0.648173096095,
			"0.016": 0.462981082322,
			"0.017": 0.0238259659387,
			"0.018": 0.0,
			"0.019": 0.0,
			"0.02": 0.0,
			"0.021": 0.0,
			"0.022": 0.0,
			"0.023": 0.0,
			"0.024": 0.0,
			"0.025": 0.0
		}
	}
}
