{
	 "smiles": "CC1=C(SC(=N1)C1=CC=C(Cl)C=C1)C(O)=O", 
	 "Tm": 524.15, 
	 "num_atms": 24, 
	 "gaussian": { 
		 "optdone": 1, 
		 "sigma_profile": "yes", 
		 "theory": "DFT", 
		 "functional": "B3LYP", 
		 "basiset": "6-31G**", 
		 "properties": { 
			 "R2extent": 7470.6704, 
			 "electric_dipole_moment_norm": 3.24771875322, 
			 "electric_quadrupole_moment_norm": 20.9753730076, 
			 "total_energy": -1487.58506467, 
			 "HOMO_LUMO_gap": 0.15008, 
			 "cosmo_polarized_energy": -14.11, 
			 "cosmo_cavitation_energy": 32.41, 
			 "cosmo_dispersion_energy": -24.49, 
			 "cosmo_repulsion_energy": 1.85, 
			 "cosmo_total_nonelectrostatic_energy": 9.76, 
			 "SMD_solvation_energy": 4.87 
		},
		"coords": [
			{
				"x": -3.5910361688,
				"y": 2.03021411,
				"z": -0.9634156414,
				"element": "C" 
			},
			{
				"x": -2.3902476232,
				"y": 1.1558478021,
				"z": -0.7558945895,
				"element": "C" 
			},
			{
				"x": -2.1937713424,
				"y": 0.2699998597,
				"z": 0.2920482308,
				"element": "C" 
			},
			{
				"x": -0.6453482558,
				"y": -0.5242994197,
				"z": 0.1045097043,
				"element": "S" 
			},
			{
				"x": -0.3799824097,
				"y": 0.3973464533,
				"z": -1.3711391188,
				"element": "C" 
			},
			{
				"x": -1.3680185359,
				"y": 1.2063773958,
				"z": -1.6641265928,
				"element": "N" 
			},
			{
				"x": 0.8329112592,
				"y": 0.2623301498,
				"z": -2.1823804466,
				"element": "C" 
			},
			{
				"x": 0.9590416927,
				"y": 1.0407228749,
				"z": -3.3472301654,
				"element": "C" 
			},
			{
				"x": 2.0924507527,
				"y": 0.9446405303,
				"z": -4.1463040384,
				"element": "C" 
			},
			{
				"x": 3.1130606733,
				"y": 0.0636937377,
				"z": -3.7826436763,
				"element": "C" 
			},
			{
				"x": 4.5445513628,
				"y": -0.0615961223,
				"z": -4.7863148266,
				"element": "Cl" 
			},
			{
				"x": 3.0118182627,
				"y": -0.7194321432,
				"z": -2.6317898395,
				"element": "C" 
			},
			{
				"x": 1.8734099064,
				"y": -0.6158808897,
				"z": -1.8388026555,
				"element": "C" 
			},
			{
				"x": -3.1350084515,
				"y": 0.0231238513,
				"z": 1.4014657267,
				"element": "C" 
			},
			{
				"x": -2.7795240867,
				"y": -0.8873313991,
				"z": 2.3477657512,
				"element": "O" 
			},
			{
				"x": -4.1995844368,
				"y": 0.5940664193,
				"z": 1.4934403261,
				"element": "O" 
			},
			{
				"x": -3.7398459487,
				"y": 2.6995540536,
				"z": -0.1117872761,
				"element": "H" 
			},
			{
				"x": -3.4543993764,
				"y": 2.6148937785,
				"z": -1.8742535002,
				"element": "H" 
			},
			{
				"x": -4.5027079735,
				"y": 1.4315507072,
				"z": -1.0401204748,
				"element": "H" 
			},
			{
				"x": 0.1547194281,
				"y": 1.7180371524,
				"z": -3.6106983066,
				"element": "H" 
			},
			{
				"x": 2.1881706017,
				"y": 1.5453398317,
				"z": -5.0438370209,
				"element": "H" 
			},
			{
				"x": 3.8131325152,
				"y": -1.3984268224,
				"z": -2.3635429003,
				"element": "H" 
			},
			{
				"x": 1.8023994557,
				"y": -1.2289040374,
				"z": -0.944717523,
				"element": "H" 
			},
			{
				"x": -1.9128913009,
				"y": -1.2793678738,
				"z": 2.1705688535,
				"element": "H" 
			}
		],
		 "valence_orbital": [ 
			{
				"type": "occ",
				"energy": -0.29407,
				"method": "rhf"
			},
			{
				"type": "occ",
				"energy": -0.28554,
				"method": "rhf"
			},
			{
				"type": "occ",
				"energy": -0.2817,
				"method": "rhf"
			},
			{
				"type": "occ",
				"energy": -0.28073,
				"method": "rhf"
			},
			{
				"type": "occ",
				"energy": -0.23868,
				"method": "rhf"
			},
			{
				"type": "unocc",
				"energy": -0.0886,
				"method": "rhf"
			},
			{
				"type": "unocc",
				"energy": -0.03245,
				"method": "rhf"
			},
			{
				"type": "unocc",
				"energy": -0.02421,
				"method": "rhf"
			},
			{
				"type": "unocc",
				"energy": -0.02088,
				"method": "rhf"
			},
			{
				"type": "unocc",
				"energy": 0.01681,
				"method": "rhf"
			}
		],
		"cosmo_sigma_profile": { 
			"-0.025": 0.0,
			"-0.024": 0.0,
			"-0.023": 0.0,
			"-0.022": 0.0,
			"-0.021": 0.0,
			"-0.02": 0.0,
			"-0.019": 0.0237049904347,
			"-0.018": 0.553736457947,
			"-0.017": 0.726662278802,
			"-0.016": 1.09361413965,
			"-0.015": 0.834822711238,
			"-0.014": 0.769880603213,
			"-0.013": 0.894722243656,
			"-0.012": 1.35612009595,
			"-0.011": 1.38513159238,
			"-0.01": 0.703239726261,
			"-0.009": 1.10334273415,
			"-0.008": 4.83769155981,
			"-0.007": 8.60186059829,
			"-0.006": 9.07644869927,
			"-0.005": 10.8887596687,
			"-0.004": 12.2641026799,
			"-0.003": 15.3069007663,
			"-0.002": 20.7717204964,
			"-0.001": 28.9731878721,
			"0.0": 27.2517366396,
			"0.001": 25.7166510744,
			"0.002": 26.3952218871,
			"0.003": 14.6739998528,
			"0.004": 13.8644171921,
			"0.005": 5.5795371233,
			"0.006": 3.87345345385,
			"0.007": 3.61659964039,
			"0.008": 4.87953115584,
			"0.009": 4.22329307949,
			"0.01": 5.19553839907,
			"0.011": 4.56733004293,
			"0.012": 3.5161444626,
			"0.013": 1.35223758003,
			"0.014": 0.0,
			"0.015": 0.0,
			"0.016": 0.0,
			"0.017": 0.0,
			"0.018": 0.0,
			"0.019": 0.0,
			"0.02": 0.0,
			"0.021": 0.0,
			"0.022": 0.0,
			"0.023": 0.0,
			"0.024": 0.0,
			"0.025": 0.0
		}
	}
}
