{
	 "smiles": "COC1=CC=C(C=C1)C1=COC2=C(C=CC(OC)=C2)C1=O", 
	 "Tm": 435.15, 
	 "num_atms": 35, 
	 "gaussian": { 
		 "optdone": 1, 
		 "sigma_profile": "yes", 
		 "theory": "DFT", 
		 "functional": "B3LYP", 
		 "basiset": "6-31G**", 
		 "properties": { 
			 "R2extent": 10200.6889, 
			 "electric_dipole_moment_norm": 2.30775103077, 
			 "electric_quadrupole_moment_norm": 24.786974489, 
			 "total_energy": -957.115629556, 
			 "HOMO_LUMO_gap": 0.15385, 
			 "cosmo_polarized_energy": -14.65, 
			 "cosmo_cavitation_energy": 39.32, 
			 "cosmo_dispersion_energy": -29.1, 
			 "cosmo_repulsion_energy": 2.17, 
			 "cosmo_total_nonelectrostatic_energy": 12.39, 
			 "SMD_solvation_energy": 9.13 
		},
		"coords": [
			{
				"x": 4.6293698418,
				"y": 4.2685180312,
				"z": 1.7690676581,
				"element": "C" 
			},
			{
				"x": 4.2287382688,
				"y": 3.0321564043,
				"z": 2.3377378944,
				"element": "O" 
			},
			{
				"x": 3.0617253659,
				"y": 2.4715975677,
				"z": 1.9059149966,
				"element": "C" 
			},
			{
				"x": 2.213394419,
				"y": 3.0322875898,
				"z": 0.9440185889,
				"element": "C" 
			},
			{
				"x": 1.0418106322,
				"y": 2.3696911226,
				"z": 0.575344063,
				"element": "C" 
			},
			{
				"x": 0.6834157847,
				"y": 1.1426831388,
				"z": 1.1532153551,
				"element": "C" 
			},
			{
				"x": 1.5621057758,
				"y": 0.5866083233,
				"z": 2.1037920733,
				"element": "C" 
			},
			{
				"x": 2.727211301,
				"y": 1.2377576283,
				"z": 2.482539787,
				"element": "C" 
			},
			{
				"x": -0.5795214305,
				"y": 0.4554037361,
				"z": 0.7970340663,
				"element": "C" 
			},
			{
				"x": -1.2801638418,
				"y": -0.209352281,
				"z": 1.7510966116,
				"element": "C" 
			},
			{
				"x": -2.4145577414,
				"y": -0.9254383865,
				"z": 1.5591245596,
				"element": "O" 
			},
			{
				"x": -2.9403420184,
				"y": -1.0015836129,
				"z": 0.2973883218,
				"element": "C" 
			},
			{
				"x": -2.3356245408,
				"y": -0.3308878397,
				"z": -0.7772782878,
				"element": "C" 
			},
			{
				"x": -2.9369948487,
				"y": -0.4500989611,
				"z": -2.0397139847,
				"element": "C" 
			},
			{
				"x": -4.0858710457,
				"y": -1.202447383,
				"z": -2.2271081472,
				"element": "C" 
			},
			{
				"x": -4.6708042761,
				"y": -1.8640761608,
				"z": -1.1259095932,
				"element": "C" 
			},
			{
				"x": -5.7949166059,
				"y": -2.623957774,
				"z": -1.1991239639,
				"element": "O" 
			},
			{
				"x": -6.4376311623,
				"y": -2.7731802846,
				"z": -2.4585212448,
				"element": "C" 
			},
			{
				"x": -4.0953914382,
				"y": -1.7621234642,
				"z": 0.1427454795,
				"element": "C" 
			},
			{
				"x": -1.1111943294,
				"y": 0.4701092028,
				"z": -0.5860078894,
				"element": "C" 
			},
			{
				"x": -0.5899656125,
				"y": 1.0922190969,
				"z": -1.5128113448,
				"element": "O" 
			},
			{
				"x": 4.7804357414,
				"y": 4.1862153396,
				"z": 0.6850325669,
				"element": "H" 
			},
			{
				"x": 5.5769797868,
				"y": 4.5263780219,
				"z": 2.244747774,
				"element": "H" 
			},
			{
				"x": 3.8984580727,
				"y": 5.0628815547,
				"z": 1.9684847226,
				"element": "H" 
			},
			{
				"x": 2.4514508788,
				"y": 3.9794668732,
				"z": 0.474533377,
				"element": "H" 
			},
			{
				"x": 0.4018234792,
				"y": 2.8055827761,
				"z": -0.1808661369,
				"element": "H" 
			},
			{
				"x": 1.341151894,
				"y": -0.3858558988,
				"z": 2.5350608282,
				"element": "H" 
			},
			{
				"x": 3.4050852499,
				"y": 0.8027316822,
				"z": 3.2096542689,
				"element": "H" 
			},
			{
				"x": -0.9958907049,
				"y": -0.22667226,
				"z": 2.7966884209,
				"element": "H" 
			},
			{
				"x": -2.4664602996,
				"y": 0.070552488,
				"z": -2.8672516181,
				"element": "H" 
			},
			{
				"x": -4.524616324,
				"y": -1.2755175179,
				"z": -3.2144572005,
				"element": "H" 
			},
			{
				"x": -5.7800981766,
				"y": -3.2541555224,
				"z": -3.192976879,
				"element": "H" 
			},
			{
				"x": -7.3022556483,
				"y": -3.4128738218,
				"z": -2.2772444615,
				"element": "H" 
			},
			{
				"x": -6.7784834333,
				"y": -1.8088043311,
				"z": -2.8546576417,
				"element": "H" 
			},
			{
				"x": -4.5438730136,
				"y": -2.267615078,
				"z": 0.9896069796,
				"element": "H" 
			}
		],
		 "valence_orbital": [ 
			{
				"type": "occ",
				"energy": -0.24822,
				"method": "rhf"
			},
			{
				"type": "occ",
				"energy": -0.24393,
				"method": "rhf"
			},
			{
				"type": "occ",
				"energy": -0.23566,
				"method": "rhf"
			},
			{
				"type": "occ",
				"energy": -0.23295,
				"method": "rhf"
			},
			{
				"type": "occ",
				"energy": -0.20254,
				"method": "rhf"
			},
			{
				"type": "unocc",
				"energy": -0.04869,
				"method": "rhf"
			},
			{
				"type": "unocc",
				"energy": -0.02006,
				"method": "rhf"
			},
			{
				"type": "unocc",
				"energy": 0.00064,
				"method": "rhf"
			},
			{
				"type": "unocc",
				"energy": 0.00433,
				"method": "rhf"
			},
			{
				"type": "unocc",
				"energy": 0.02907,
				"method": "rhf"
			}
		],
		"cosmo_sigma_profile": { 
			"-0.025": 0.0,
			"-0.024": 0.0,
			"-0.023": 0.0,
			"-0.022": 0.0,
			"-0.021": 0.0,
			"-0.02": 0.0,
			"-0.019": 0.0,
			"-0.018": 0.0,
			"-0.017": 0.0,
			"-0.016": 0.0,
			"-0.015": 0.0,
			"-0.014": 0.0,
			"-0.013": 0.0,
			"-0.012": 0.0,
			"-0.011": 0.0,
			"-0.01": 0.302187128406,
			"-0.009": 1.92262979459,
			"-0.008": 2.54354864151,
			"-0.007": 7.42488289578,
			"-0.006": 20.7111180751,
			"-0.005": 28.1534145115,
			"-0.004": 28.324520616,
			"-0.003": 27.1236571813,
			"-0.002": 20.0796106232,
			"-0.001": 19.1549210693,
			"0.0": 19.7470699715,
			"0.001": 22.9298035783,
			"0.002": 26.560054267,
			"0.003": 20.2048692193,
			"0.004": 17.4992589814,
			"0.005": 16.5105390252,
			"0.006": 8.58732029835,
			"0.007": 4.94467959551,
			"0.008": 4.02857750677,
			"0.009": 4.59601014556,
			"0.01": 3.60378415077,
			"0.011": 2.89982547302,
			"0.012": 2.31936276694,
			"0.013": 4.0556308682,
			"0.014": 0.85440864958,
			"0.015": 0.0,
			"0.016": 0.0,
			"0.017": 0.0,
			"0.018": 0.0,
			"0.019": 0.0,
			"0.02": 0.0,
			"0.021": 0.0,
			"0.022": 0.0,
			"0.023": 0.0,
			"0.024": 0.0,
			"0.025": 0.0
		}
	}
}
