{
	 "smiles": "OCC1=CC=CC2=NC=CN12", 
	 "Tm": 428.15, 
	 "num_atms": 19, 
	 "gaussian": { 
		 "optdone": 1, 
		 "sigma_profile": "yes", 
		 "theory": "DFT", 
		 "functional": "B3LYP", 
		 "basiset": "6-31G**", 
		 "properties": { 
			 "R2extent": 1600.2233, 
			 "electric_dipole_moment_norm": 4.62210601999, 
			 "electric_quadrupole_moment_norm": 10.6411683752, 
			 "total_energy": -494.376921505, 
			 "HOMO_LUMO_gap": 0.17127, 
			 "cosmo_polarized_energy": -14.09, 
			 "cosmo_cavitation_energy": 22.69, 
			 "cosmo_dispersion_energy": -17.03, 
			 "cosmo_repulsion_energy": 1.35, 
			 "cosmo_total_nonelectrostatic_energy": 7.01, 
			 "SMD_solvation_energy": 2.56 
		},
		"coords": [
			{
				"x": 0.4704888555,
				"y": -1.1955814753,
				"z": 2.9741984135,
				"element": "O" 
			},
			{
				"x": 1.4507787717,
				"y": -1.0332501885,
				"z": 1.9517469766,
				"element": "C" 
			},
			{
				"x": 0.7878290819,
				"y": -1.0345938738,
				"z": 0.60662157,
				"element": "C" 
			},
			{
				"x": 1.1028816823,
				"y": -1.9134247819,
				"z": -0.3973152287,
				"element": "C" 
			},
			{
				"x": 0.5108828274,
				"y": -1.8092016707,
				"z": -1.6864602714,
				"element": "C" 
			},
			{
				"x": -0.394678381,
				"y": -0.811469576,
				"z": -1.9515286474,
				"element": "C" 
			},
			{
				"x": -0.7428257484,
				"y": 0.1015528787,
				"z": -0.930506541,
				"element": "C" 
			},
			{
				"x": -1.5795016271,
				"y": 1.1360355287,
				"z": -0.9470518472,
				"element": "N" 
			},
			{
				"x": -1.5257644901,
				"y": 1.6543076868,
				"z": 0.3117430494,
				"element": "C" 
			},
			{
				"x": -0.6599282247,
				"y": 0.9568626784,
				"z": 1.1308842733,
				"element": "C" 
			},
			{
				"x": -0.1431520032,
				"y": -0.0488465928,
				"z": 0.3396155377,
				"element": "N" 
			},
			{
				"x": 0.9074185043,
				"y": -1.066611353,
				"z": 3.8257135426,
				"element": "H" 
			},
			{
				"x": 1.9921932732,
				"y": -0.0803723247,
				"z": 2.0803603071,
				"element": "H" 
			},
			{
				"x": 2.1937995044,
				"y": -1.8425184675,
				"z": 1.968621172,
				"element": "H" 
			},
			{
				"x": 1.828311262,
				"y": -2.6929686373,
				"z": -0.1918468342,
				"element": "H" 
			},
			{
				"x": 0.7854468233,
				"y": -2.5209316497,
				"z": -2.4579218783,
				"element": "H" 
			},
			{
				"x": -0.8625474144,
				"y": -0.689586781,
				"z": -2.9215275277,
				"element": "H" 
			},
			{
				"x": -2.1229977372,
				"y": 2.5133264356,
				"z": 0.5895247793,
				"element": "H" 
			},
			{
				"x": -0.4195349597,
				"y": 1.034372164,
				"z": 2.1770291543,
				"element": "H" 
			}
		],
		 "valence_orbital": [ 
			{
				"type": "occ",
				"energy": -0.31495,
				"method": "rhf"
			},
			{
				"type": "occ",
				"energy": -0.28779,
				"method": "rhf"
			},
			{
				"type": "occ",
				"energy": -0.26154,
				"method": "rhf"
			},
			{
				"type": "occ",
				"energy": -0.23816,
				"method": "rhf"
			},
			{
				"type": "occ",
				"energy": -0.20402,
				"method": "rhf"
			},
			{
				"type": "unocc",
				"energy": -0.03275,
				"method": "rhf"
			},
			{
				"type": "unocc",
				"energy": 0.00931,
				"method": "rhf"
			},
			{
				"type": "unocc",
				"energy": 0.0593,
				"method": "rhf"
			},
			{
				"type": "unocc",
				"energy": 0.07918,
				"method": "rhf"
			},
			{
				"type": "unocc",
				"energy": 0.09524,
				"method": "rhf"
			}
		],
		"cosmo_sigma_profile": { 
			"-0.025": 0.0,
			"-0.024": 0.0,
			"-0.023": 0.0,
			"-0.022": 0.0,
			"-0.021": 0.0,
			"-0.02": 0.0,
			"-0.019": 0.0,
			"-0.018": 0.0,
			"-0.017": 0.193988572996,
			"-0.016": 1.00031007216,
			"-0.015": 1.283163718,
			"-0.014": 0.74941418346,
			"-0.013": 1.04931790166,
			"-0.012": 0.811414755587,
			"-0.011": 0.940260682773,
			"-0.01": 0.77384243989,
			"-0.009": 0.791782036795,
			"-0.008": 1.49424487954,
			"-0.007": 7.92451260732,
			"-0.006": 14.6739781599,
			"-0.005": 15.7053115878,
			"-0.004": 14.851470251,
			"-0.003": 10.1945955041,
			"-0.002": 9.05597050442,
			"-0.001": 7.48224547093,
			"0.0": 8.70562726184,
			"0.001": 10.7409420734,
			"0.002": 12.1144535314,
			"0.003": 14.7579305711,
			"0.004": 11.7727502948,
			"0.005": 6.3959784492,
			"0.006": 3.76289874583,
			"0.007": 3.43411902375,
			"0.008": 3.46893085496,
			"0.009": 2.16664285247,
			"0.01": 2.23658200419,
			"0.011": 2.5072309458,
			"0.012": 2.35623203408,
			"0.013": 2.60075261651,
			"0.014": 1.15762734188,
			"0.015": 1.03028959677,
			"0.016": 1.10476348846,
			"0.017": 1.02224784983,
			"0.018": 0.789868102346,
			"0.019": 0.105075304124,
			"0.02": 0.0,
			"0.021": 0.0,
			"0.022": 0.0,
			"0.023": 0.0,
			"0.024": 0.0,
			"0.025": 0.0
		}
	}
}
