{
	 "smiles": "CC(=O)NC(CC1=CC=CC=C1)C(O)=O", 
	 "Tm": 445.15, 
	 "num_atms": 28, 
	 "gaussian": { 
		 "optdone": 1, 
		 "sigma_profile": "yes", 
		 "theory": "DFT", 
		 "functional": "B3LYP", 
		 "basiset": "6-31G**", 
		 "properties": { 
			 "R2extent": 3671.5267, 
			 "electric_dipole_moment_norm": 4.73977983244, 
			 "electric_quadrupole_moment_norm": 21.1499817955, 
			 "total_energy": -707.452510378, 
			 "HOMO_LUMO_gap": 0.22248, 
			 "cosmo_polarized_energy": -18.67, 
			 "cosmo_cavitation_energy": 30.77, 
			 "cosmo_dispersion_energy": -21.32, 
			 "cosmo_repulsion_energy": 1.68, 
			 "cosmo_total_nonelectrostatic_energy": 11.13, 
			 "SMD_solvation_energy": 6.53 
		},
		"coords": [
			{
				"x": 0.3029405751,
				"y": -2.1113412598,
				"z": 1.5592496619,
				"element": "C" 
			},
			{
				"x": -0.1171193855,
				"y": -3.0692976267,
				"z": 0.4637279112,
				"element": "C" 
			},
			{
				"x": -0.2637389911,
				"y": -4.2649298246,
				"z": 0.6814787179,
				"element": "O" 
			},
			{
				"x": -0.2957026136,
				"y": -2.6088513857,
				"z": -0.8310564327,
				"element": "N" 
			},
			{
				"x": -0.2971172479,
				"y": -1.2902717493,
				"z": -1.4338426534,
				"element": "C" 
			},
			{
				"x": -1.6528053398,
				"y": -0.5206694073,
				"z": -1.3421550398,
				"element": "C" 
			},
			{
				"x": -2.1482942882,
				"y": -0.163972764,
				"z": 0.0415522268,
				"element": "C" 
			},
			{
				"x": -1.793543793,
				"y": 1.0519459071,
				"z": 0.6454501653,
				"element": "C" 
			},
			{
				"x": -2.247914946,
				"y": 1.3719700457,
				"z": 1.9256580977,
				"element": "C" 
			},
			{
				"x": -3.0684672889,
				"y": 0.4823678204,
				"z": 2.6222456005,
				"element": "C" 
			},
			{
				"x": -3.4359892542,
				"y": -0.7260497479,
				"z": 2.0280896136,
				"element": "C" 
			},
			{
				"x": -2.9815969008,
				"y": -1.043440978,
				"z": 0.7472742785,
				"element": "C" 
			},
			{
				"x": 0.9498234924,
				"y": -0.4701612421,
				"z": -1.0857005108,
				"element": "C" 
			},
			{
				"x": 0.8124351897,
				"y": 0.823067008,
				"z": -1.47288972,
				"element": "O" 
			},
			{
				"x": 1.9744707097,
				"y": -0.8982124498,
				"z": -0.6109783287,
				"element": "O" 
			},
			{
				"x": -0.0651086701,
				"y": -1.0939367103,
				"z": 1.4301532152,
				"element": "H" 
			},
			{
				"x": 1.3955135351,
				"y": -2.0775102759,
				"z": 1.5874718146,
				"element": "H" 
			},
			{
				"x": -0.063633023,
				"y": -2.5144818982,
				"z": 2.5039052743,
				"element": "H" 
			},
			{
				"x": -0.5248956471,
				"y": -3.3768617965,
				"z": -1.4479728714,
				"element": "H" 
			},
			{
				"x": -0.1564424052,
				"y": -1.4667104204,
				"z": -2.5103383575,
				"element": "H" 
			},
			{
				"x": -2.3925017404,
				"y": -1.1619870974,
				"z": -1.8333302605,
				"element": "H" 
			},
			{
				"x": -1.5584127873,
				"y": 0.3821921115,
				"z": -1.9520226366,
				"element": "H" 
			},
			{
				"x": -1.1584895533,
				"y": 1.7482054835,
				"z": 0.1053269242,
				"element": "H" 
			},
			{
				"x": -1.9658964043,
				"y": 2.3193600939,
				"z": 2.3765945644,
				"element": "H" 
			},
			{
				"x": -3.4239548989,
				"y": 0.7322059485,
				"z": 3.6176928402,
				"element": "H" 
			},
			{
				"x": -4.0791349447,
				"y": -1.4217689387,
				"z": 2.5593123217,
				"element": "H" 
			},
			{
				"x": -3.2745744398,
				"y": -1.9847366614,
				"z": 0.2899830261,
				"element": "H" 
			},
			{
				"x": 1.6653510612,
				"y": 1.2492778154,
				"z": -1.2824794429,
				"element": "H" 
			}
		],
		 "valence_orbital": [ 
			{
				"type": "occ",
				"energy": -0.28985,
				"method": "rhf"
			},
			{
				"type": "occ",
				"energy": -0.25718,
				"method": "rhf"
			},
			{
				"type": "occ",
				"energy": -0.25416,
				"method": "rhf"
			},
			{
				"type": "occ",
				"energy": -0.24197,
				"method": "rhf"
			},
			{
				"type": "occ",
				"energy": -0.23789,
				"method": "rhf"
			},
			{
				"type": "unocc",
				"energy": -0.01541,
				"method": "rhf"
			},
			{
				"type": "unocc",
				"energy": -0.00981,
				"method": "rhf"
			},
			{
				"type": "unocc",
				"energy": -0.00368,
				"method": "rhf"
			},
			{
				"type": "unocc",
				"energy": 0.03636,
				"method": "rhf"
			},
			{
				"type": "unocc",
				"energy": 0.06156,
				"method": "rhf"
			}
		],
		"cosmo_sigma_profile": { 
			"-0.025": 0.0,
			"-0.024": 0.0,
			"-0.023": 0.0,
			"-0.022": 0.0,
			"-0.021": 0.0,
			"-0.02": 0.0,
			"-0.019": 0.178539465778,
			"-0.018": 0.966558155707,
			"-0.017": 0.749941923756,
			"-0.016": 0.789726099697,
			"-0.015": 1.10266379615,
			"-0.014": 0.962615834781,
			"-0.013": 2.18583949954,
			"-0.012": 1.74647717495,
			"-0.011": 2.59865422723,
			"-0.01": 2.62141224044,
			"-0.009": 4.06709579119,
			"-0.008": 2.87607761372,
			"-0.007": 3.79658515836,
			"-0.006": 7.31091169191,
			"-0.005": 15.4459962898,
			"-0.004": 19.771547112,
			"-0.003": 20.0774376571,
			"-0.002": 17.9752348849,
			"-0.001": 17.9480419196,
			"0.0": 17.3085388567,
			"0.001": 13.425755476,
			"0.002": 13.2728697305,
			"0.003": 14.1505852333,
			"0.004": 11.5506839085,
			"0.005": 8.96532991154,
			"0.006": 8.05807015386,
			"0.007": 3.58564503472,
			"0.008": 3.68948147894,
			"0.009": 2.98341552652,
			"0.01": 3.77314135167,
			"0.011": 5.07605934389,
			"0.012": 2.41084078158,
			"0.013": 3.41078260531,
			"0.014": 5.60152679657,
			"0.015": 2.12261230846,
			"0.016": 0.0772632682202,
			"0.017": 0.0,
			"0.018": 0.0,
			"0.019": 0.0,
			"0.02": 0.0,
			"0.021": 0.0,
			"0.022": 0.0,
			"0.023": 0.0,
			"0.024": 0.0,
			"0.025": 0.0
		}
	}
}
