{
	 "smiles": "CC(C)(C)C=C", 
	 "Tm": 158.15, 
	 "num_atms": 18, 
	 "gaussian": { 
		 "optdone": 1, 
		 "sigma_profile": "yes", 
		 "theory": "DFT", 
		 "functional": "B3LYP", 
		 "basiset": "6-31G**", 
		 "properties": { 
			 "R2extent": 947.3382, 
			 "electric_dipole_moment_norm": 0.331897544432, 
			 "electric_quadrupole_moment_norm": 1.46193893169, 
			 "total_energy": -235.860941868, 
			 "HOMO_LUMO_gap": 0.27637, 
			 "cosmo_polarized_energy": -1.56, 
			 "cosmo_cavitation_energy": 19.66, 
			 "cosmo_dispersion_energy": -13.89, 
			 "cosmo_repulsion_energy": 1.18, 
			 "cosmo_total_nonelectrostatic_energy": 6.94, 
			 "SMD_solvation_energy": 4.34 
		},
		"coords": [
			{
				"x": 1.6754694409,
				"y": -0.0696342826,
				"z": 2.2869065214,
				"element": "C" 
			},
			{
				"x": 0.8582547906,
				"y": -0.4904552043,
				"z": 1.0548942229,
				"element": "C" 
			},
			{
				"x": -0.4962852907,
				"y": -1.0797684009,
				"z": 1.5127471703,
				"element": "C" 
			},
			{
				"x": 1.6354110868,
				"y": -1.5703441535,
				"z": 0.2664799751,
				"element": "C" 
			},
			{
				"x": 0.5785722739,
				"y": 0.6719802277,
				"z": 0.1190446487,
				"element": "C" 
			},
			{
				"x": 0.9539775281,
				"y": 1.9437494507,
				"z": 0.2587128146,
				"element": "C" 
			},
			{
				"x": 1.8561563635,
				"y": -0.9332297586,
				"z": 2.9358092121,
				"element": "H" 
			},
			{
				"x": 1.1481999635,
				"y": 0.6869581593,
				"z": 2.8773649632,
				"element": "H" 
			},
			{
				"x": 2.6489068255,
				"y": 0.3415530913,
				"z": 1.9998051325,
				"element": "H" 
			},
			{
				"x": -0.3409998939,
				"y": -1.9597518445,
				"z": 2.147465589,
				"element": "H" 
			},
			{
				"x": -1.0719208422,
				"y": -0.3441390728,
				"z": 2.0839169457,
				"element": "H" 
			},
			{
				"x": -1.1043282864,
				"y": -1.3892414483,
				"z": 0.6552279239,
				"element": "H" 
			},
			{
				"x": 1.8093117735,
				"y": -2.4548855529,
				"z": 0.8899420974,
				"element": "H" 
			},
			{
				"x": 2.6070018031,
				"y": -1.1908710026,
				"z": -0.0663232751,
				"element": "H" 
			},
			{
				"x": 1.0785252559,
				"y": -1.8912436482,
				"z": -0.6210564953,
				"element": "H" 
			},
			{
				"x": -0.0019854174,
				"y": 0.3988806753,
				"z": -0.7648428897,
				"element": "H" 
			},
			{
				"x": 1.5323798035,
				"y": 2.2935215004,
				"z": 1.1085518696,
				"element": "H" 
			},
			{
				"x": 0.6912528217,
				"y": 2.6909212644,
				"z": -0.484646426,
				"element": "H" 
			}
		],
		 "valence_orbital": [ 
			{
				"type": "occ",
				"energy": -0.36128,
				"method": "rhf"
			},
			{
				"type": "occ",
				"energy": -0.32984,
				"method": "rhf"
			},
			{
				"type": "occ",
				"energy": -0.32149,
				"method": "rhf"
			},
			{
				"type": "occ",
				"energy": -0.31583,
				"method": "rhf"
			},
			{
				"type": "occ",
				"energy": -0.24999,
				"method": "rhf"
			},
			{
				"type": "unocc",
				"energy": 0.02638,
				"method": "rhf"
			},
			{
				"type": "unocc",
				"energy": 0.08599,
				"method": "rhf"
			},
			{
				"type": "unocc",
				"energy": 0.12663,
				"method": "rhf"
			},
			{
				"type": "unocc",
				"energy": 0.13551,
				"method": "rhf"
			},
			{
				"type": "unocc",
				"energy": 0.13717,
				"method": "rhf"
			}
		],
		"cosmo_sigma_profile": { 
			"-0.025": 0.0,
			"-0.024": 0.0,
			"-0.023": 0.0,
			"-0.022": 0.0,
			"-0.021": 0.0,
			"-0.02": 0.0,
			"-0.019": 0.0,
			"-0.018": 0.0,
			"-0.017": 0.0,
			"-0.016": 0.0,
			"-0.015": 0.0,
			"-0.014": 0.0,
			"-0.013": 0.0,
			"-0.012": 0.0,
			"-0.011": 0.0,
			"-0.01": 0.0,
			"-0.009": 0.0,
			"-0.008": 0.0,
			"-0.007": 0.0,
			"-0.006": 0.0,
			"-0.005": 0.402949669911,
			"-0.004": 4.15348783959,
			"-0.003": 14.5681219456,
			"-0.002": 27.8997803599,
			"-0.001": 24.4488042106,
			"0.0": 21.1447047121,
			"0.001": 25.2442967162,
			"0.002": 16.7328434447,
			"0.003": 4.60518313472,
			"0.004": 3.62862202951,
			"0.005": 2.794217855,
			"0.006": 2.92953389164,
			"0.007": 2.41893570018,
			"0.008": 0.947347944319,
			"0.009": 0.0,
			"0.01": 0.0,
			"0.011": 0.0,
			"0.012": 0.0,
			"0.013": 0.0,
			"0.014": 0.0,
			"0.015": 0.0,
			"0.016": 0.0,
			"0.017": 0.0,
			"0.018": 0.0,
			"0.019": 0.0,
			"0.02": 0.0,
			"0.021": 0.0,
			"0.022": 0.0,
			"0.023": 0.0,
			"0.024": 0.0,
			"0.025": 0.0
		}
	}
}
