{
	 "smiles": "COC(=O)C1=CN=C(S1)C1=CC=CC=C1", 
	 "Tm": 381.15, 
	 "num_atms": 24, 
	 "gaussian": { 
		 "optdone": 1, 
		 "sigma_profile": "yes", 
		 "theory": "DFT", 
		 "functional": "B3LYP", 
		 "basiset": "6-31G**", 
		 "properties": { 
			 "R2extent": 5197.5444, 
			 "electric_dipole_moment_norm": 1.12757854715, 
			 "electric_quadrupole_moment_norm": 22.567177836, 
			 "total_energy": -1027.98725241, 
			 "HOMO_LUMO_gap": 0.15633, 
			 "cosmo_polarized_energy": -9.23, 
			 "cosmo_cavitation_energy": 30.74, 
			 "cosmo_dispersion_energy": -23.14, 
			 "cosmo_repulsion_energy": 1.75, 
			 "cosmo_total_nonelectrostatic_energy": 9.35, 
			 "SMD_solvation_energy": 5.35 
		},
		"coords": [
			{
				"x": 2.6157468291,
				"y": -0.8084849926,
				"z": -5.3683449725,
				"element": "C" 
			},
			{
				"x": 1.8535222403,
				"y": -0.3932414478,
				"z": -4.2232025308,
				"element": "O" 
			},
			{
				"x": 1.976177044,
				"y": -1.1885836605,
				"z": -3.135689282,
				"element": "C" 
			},
			{
				"x": 2.6707936602,
				"y": -2.1864254772,
				"z": -3.0977705039,
				"element": "O" 
			},
			{
				"x": 1.1669306672,
				"y": -0.6926424829,
				"z": -2.0159486469,
				"element": "C" 
			},
			{
				"x": 0.3496859183,
				"y": 0.4107354655,
				"z": -1.9385854449,
				"element": "C" 
			},
			{
				"x": -0.2791195176,
				"y": 0.6130808888,
				"z": -0.7489119594,
				"element": "N" 
			},
			{
				"x": 0.032589995,
				"y": -0.3235277154,
				"z": 0.1231850924,
				"element": "C" 
			},
			{
				"x": 1.1481997311,
				"y": -1.5362378511,
				"z": -0.494886068,
				"element": "S" 
			},
			{
				"x": -0.4980145775,
				"y": -0.3609832767,
				"z": 1.4913797695,
				"element": "C" 
			},
			{
				"x": -1.3861008405,
				"y": 0.6490772392,
				"z": 1.903714219,
				"element": "C" 
			},
			{
				"x": -1.9066840259,
				"y": 0.6420771526,
				"z": 3.1942874225,
				"element": "C" 
			},
			{
				"x": -1.5522724861,
				"y": -0.3680479661,
				"z": 4.0926585847,
				"element": "C" 
			},
			{
				"x": -0.6710389396,
				"y": -1.3746453411,
				"z": 3.6911133844,
				"element": "C" 
			},
			{
				"x": -0.1471031897,
				"y": -1.3726015758,
				"z": 2.4008942879,
				"element": "C" 
			},
			{
				"x": 3.6830126235,
				"y": -0.8276941549,
				"z": -5.1340735738,
				"element": "H" 
			},
			{
				"x": 2.3082420378,
				"y": -1.805090183,
				"z": -5.6947419648,
				"element": "H" 
			},
			{
				"x": 2.4062755475,
				"y": -0.0700933957,
				"z": -6.1419945867,
				"element": "H" 
			},
			{
				"x": 0.1910221169,
				"y": 1.1019427513,
				"z": -2.7575527913,
				"element": "H" 
			},
			{
				"x": -1.6521884203,
				"y": 1.4263673959,
				"z": 1.1963676693,
				"element": "H" 
			},
			{
				"x": -2.5914683821,
				"y": 1.4272481593,
				"z": 3.5011406098,
				"element": "H" 
			},
			{
				"x": -1.9599623875,
				"y": -0.371148304,
				"z": 5.0992795421,
				"element": "H" 
			},
			{
				"x": -0.3909799029,
				"y": -2.1628539367,
				"z": 4.3834952724,
				"element": "H" 
			},
			{
				"x": 0.537234259,
				"y": -2.162327291,
				"z": 2.1031864708,
				"element": "H" 
			}
		],
		 "valence_orbital": [ 
			{
				"type": "occ",
				"energy": -0.29389,
				"method": "rhf"
			},
			{
				"type": "occ",
				"energy": -0.28673,
				"method": "rhf"
			},
			{
				"type": "occ",
				"energy": -0.26977,
				"method": "rhf"
			},
			{
				"type": "occ",
				"energy": -0.26121,
				"method": "rhf"
			},
			{
				"type": "occ",
				"energy": -0.23111,
				"method": "rhf"
			},
			{
				"type": "unocc",
				"energy": -0.07478,
				"method": "rhf"
			},
			{
				"type": "unocc",
				"energy": -0.01738,
				"method": "rhf"
			},
			{
				"type": "unocc",
				"energy": -0.00895,
				"method": "rhf"
			},
			{
				"type": "unocc",
				"energy": 0.01654,
				"method": "rhf"
			},
			{
				"type": "unocc",
				"energy": 0.04326,
				"method": "rhf"
			}
		],
		"cosmo_sigma_profile": { 
			"-0.025": 0.0,
			"-0.024": 0.0,
			"-0.023": 0.0,
			"-0.022": 0.0,
			"-0.021": 0.0,
			"-0.02": 0.0,
			"-0.019": 0.0,
			"-0.018": 0.0,
			"-0.017": 0.0,
			"-0.016": 0.0,
			"-0.015": 0.0,
			"-0.014": 0.0,
			"-0.013": 0.0,
			"-0.012": 0.0,
			"-0.011": 0.0,
			"-0.01": 0.0,
			"-0.009": 0.362569077298,
			"-0.008": 1.44081415438,
			"-0.007": 5.40505020159,
			"-0.006": 16.0494871755,
			"-0.005": 19.0741257079,
			"-0.004": 20.1577318291,
			"-0.003": 18.8230283554,
			"-0.002": 17.2438231719,
			"-0.001": 19.9874105633,
			"0.0": 22.0386553823,
			"0.001": 23.7780675109,
			"0.002": 19.6190197529,
			"0.003": 17.4786023326,
			"0.004": 17.5277494718,
			"0.005": 5.61351680639,
			"0.006": 4.77170469783,
			"0.007": 2.88106826536,
			"0.008": 3.12605050535,
			"0.009": 2.65708937503,
			"0.01": 2.81197228696,
			"0.011": 5.58734318623,
			"0.012": 2.92821196112,
			"0.013": 0.0,
			"0.014": 0.0,
			"0.015": 0.0,
			"0.016": 0.0,
			"0.017": 0.0,
			"0.018": 0.0,
			"0.019": 0.0,
			"0.02": 0.0,
			"0.021": 0.0,
			"0.022": 0.0,
			"0.023": 0.0,
			"0.024": 0.0,
			"0.025": 0.0
		}
	}
}
