{
	 "smiles": "CCC(=O)NC(C)C(O)=O", 
	 "Tm": 363.15, 
	 "num_atms": 21, 
	 "gaussian": { 
		 "optdone": 1, 
		 "sigma_profile": "yes", 
		 "theory": "DFT", 
		 "functional": "B3LYP", 
		 "basiset": "6-31G**", 
		 "properties": { 
			 "R2extent": 2332.2763, 
			 "electric_dipole_moment_norm": 3.21576208853, 
			 "electric_quadrupole_moment_norm": 14.6487036471, 
			 "total_energy": -515.723895559, 
			 "HOMO_LUMO_gap": 0.23271, 
			 "cosmo_polarized_energy": -15.44, 
			 "cosmo_cavitation_energy": 24.66, 
			 "cosmo_dispersion_energy": -17.22, 
			 "cosmo_repulsion_energy": 1.44, 
			 "cosmo_total_nonelectrostatic_energy": 8.89, 
			 "SMD_solvation_energy": 6.04 
		},
		"coords": [
			{
				"x": -3.5202815453,
				"y": -2.3937999757,
				"z": -0.0799643801,
				"element": "C" 
			},
			{
				"x": -3.375744648,
				"y": -1.271383653,
				"z": 0.9646797507,
				"element": "C" 
			},
			{
				"x": -1.9534621229,
				"y": -1.1675103819,
				"z": 1.5029712871,
				"element": "C" 
			},
			{
				"x": -1.5955497714,
				"y": -1.7938734247,
				"z": 2.4914226267,
				"element": "O" 
			},
			{
				"x": -1.0580533489,
				"y": -0.3385714572,
				"z": 0.8541484422,
				"element": "N" 
			},
			{
				"x": -1.1802100788,
				"y": 0.3139016303,
				"z": -0.4421960256,
				"element": "C" 
			},
			{
				"x": -0.6225811803,
				"y": 1.7434534014,
				"z": -0.395239692,
				"element": "C" 
			},
			{
				"x": -0.4873679942,
				"y": -0.5195435081,
				"z": -1.5251994113,
				"element": "C" 
			},
			{
				"x": 0.8388271909,
				"y": -0.6445190458,
				"z": -1.2845865438,
				"element": "O" 
			},
			{
				"x": -1.035662345,
				"y": -1.0269486884,
				"z": -2.4780068231,
				"element": "O" 
			},
			{
				"x": -3.1727549324,
				"y": -3.3438457319,
				"z": 0.3364491678,
				"element": "H" 
			},
			{
				"x": -4.5695944348,
				"y": -2.5128195508,
				"z": -0.3660225546,
				"element": "H" 
			},
			{
				"x": -2.9457452413,
				"y": -2.186139983,
				"z": -0.9875454886,
				"element": "H" 
			},
			{
				"x": -3.9963853815,
				"y": -1.4968805403,
				"z": 1.8353353964,
				"element": "H" 
			},
			{
				"x": -3.7235645625,
				"y": -0.3180622415,
				"z": 0.5518007127,
				"element": "H" 
			},
			{
				"x": -0.1233323474,
				"y": -0.3988424068,
				"z": 1.2420915406,
				"element": "H" 
			},
			{
				"x": -2.2324796091,
				"y": 0.3387244763,
				"z": -0.7242240863,
				"element": "H" 
			},
			{
				"x": -0.7137297705,
				"y": 2.2289038826,
				"z": -1.3718813918,
				"element": "H" 
			},
			{
				"x": -1.1774964061,
				"y": 2.3295598443,
				"z": 0.34169852,
				"element": "H" 
			},
			{
				"x": 0.434464554,
				"y": 1.7377660883,
				"z": -0.1148699241,
				"element": "H" 
			},
			{
				"x": 1.1977039757,
				"y": -1.2108687341,
				"z": -1.9885611228,
				"element": "H" 
			}
		],
		 "valence_orbital": [ 
			{
				"type": "occ",
				"energy": -0.34871,
				"method": "rhf"
			},
			{
				"type": "occ",
				"energy": -0.33366,
				"method": "rhf"
			},
			{
				"type": "occ",
				"energy": -0.30047,
				"method": "rhf"
			},
			{
				"type": "occ",
				"energy": -0.25087,
				"method": "rhf"
			},
			{
				"type": "occ",
				"energy": -0.24341,
				"method": "rhf"
			},
			{
				"type": "unocc",
				"energy": -0.0107,
				"method": "rhf"
			},
			{
				"type": "unocc",
				"energy": 0.02626,
				"method": "rhf"
			},
			{
				"type": "unocc",
				"energy": 0.05689,
				"method": "rhf"
			},
			{
				"type": "unocc",
				"energy": 0.09166,
				"method": "rhf"
			},
			{
				"type": "unocc",
				"energy": 0.1031,
				"method": "rhf"
			}
		],
		"cosmo_sigma_profile": { 
			"-0.025": 0.0,
			"-0.024": 0.0,
			"-0.023": 0.0,
			"-0.022": 0.0,
			"-0.021": 0.0,
			"-0.02": 0.0,
			"-0.019": 0.258055338721,
			"-0.018": 0.920522454178,
			"-0.017": 0.977963452895,
			"-0.016": 1.0488480275,
			"-0.015": 0.756458692431,
			"-0.014": 0.499532035344,
			"-0.013": 0.599680053604,
			"-0.012": 1.1409869366,
			"-0.011": 2.08443948189,
			"-0.01": 1.34918530425,
			"-0.009": 1.39568568483,
			"-0.008": 3.2607022295,
			"-0.007": 4.61221912743,
			"-0.006": 5.13815529322,
			"-0.005": 10.6405158686,
			"-0.004": 14.4873160797,
			"-0.003": 17.6429191233,
			"-0.002": 21.1453554501,
			"-0.001": 22.2446653685,
			"0.0": 17.1493967449,
			"0.001": 9.35674866169,
			"0.002": 4.9668444932,
			"0.003": 5.60450954333,
			"0.004": 6.0065014981,
			"0.005": 2.58924210992,
			"0.006": 3.96571101104,
			"0.007": 3.69469446681,
			"0.008": 2.4128129628,
			"0.009": 3.00847905458,
			"0.01": 3.87958465731,
			"0.011": 5.4970221141,
			"0.012": 3.50488099257,
			"0.013": 3.93081682835,
			"0.014": 5.23742668499,
			"0.015": 1.65262152999,
			"0.016": 0.0380067037167,
			"0.017": 0.0,
			"0.018": 0.0,
			"0.019": 0.0,
			"0.02": 0.0,
			"0.021": 0.0,
			"0.022": 0.0,
			"0.023": 0.0,
			"0.024": 0.0,
			"0.025": 0.0
		}
	}
}
