{
	 "smiles": "OCC1=CC(=NN1)C12CC3CC(CC(C3)C1)C2", 
	 "Tm": 433.15, 
	 "num_atms": 37, 
	 "gaussian": { 
		 "optdone": 1, 
		 "sigma_profile": "yes", 
		 "theory": "DFT", 
		 "functional": "B3LYP", 
		 "basiset": "6-31G**", 
		 "properties": { 
			 "R2extent": 4747.0861, 
			 "electric_dipole_moment_norm": 1.40571511339, 
			 "electric_quadrupole_moment_norm": 15.199794617, 
			 "total_energy": -730.270934648, 
			 "HOMO_LUMO_gap": 0.2469, 
			 "cosmo_polarized_energy": -12.59, 
			 "cosmo_cavitation_energy": 34.96, 
			 "cosmo_dispersion_energy": -25.98, 
			 "cosmo_repulsion_energy": 2.01, 
			 "cosmo_total_nonelectrostatic_energy": 10.99, 
			 "SMD_solvation_energy": 3.62 
		},
		"coords": [
			{
				"x": 4.73477239,
				"y": -2.664558032,
				"z": 1.0210116395,
				"element": "O" 
			},
			{
				"x": 3.8825369133,
				"y": -3.1729956138,
				"z": 0.0076087049,
				"element": "C" 
			},
			{
				"x": 2.5499744558,
				"y": -2.4831918335,
				"z": -0.0249074647,
				"element": "C" 
			},
			{
				"x": 2.2007382913,
				"y": -1.1620178169,
				"z": 0.1990161881,
				"element": "C" 
			},
			{
				"x": 0.7930135413,
				"y": -1.1066451798,
				"z": 0.0263667229,
				"element": "C" 
			},
			{
				"x": 0.3041895204,
				"y": -2.3131082277,
				"z": -0.2831649769,
				"element": "N" 
			},
			{
				"x": 1.3829297221,
				"y": -3.1255570472,
				"z": -0.3014551289,
				"element": "N" 
			},
			{
				"x": -0.1413292658,
				"y": 0.0786093882,
				"z": 0.1460607263,
				"element": "C" 
			},
			{
				"x": -0.8854402094,
				"y": 0.3111609538,
				"z": -1.1990839972,
				"element": "C" 
			},
			{
				"x": -1.8552412311,
				"y": 1.5039499385,
				"z": -1.0834791014,
				"element": "C" 
			},
			{
				"x": -2.8951929585,
				"y": 1.2167232112,
				"z": 0.0192825281,
				"element": "C" 
			},
			{
				"x": -2.1731229327,
				"y": 1.0083049244,
				"z": 1.3665773468,
				"element": "C" 
			},
			{
				"x": -1.3793816911,
				"y": 2.2811234517,
				"z": 1.7259623555,
				"element": "C" 
			},
			{
				"x": -0.3381716411,
				"y": 2.5659034848,
				"z": 0.6237841113,
				"element": "C" 
			},
			{
				"x": -1.0619216772,
				"y": 2.7764513535,
				"z": -0.7222656176,
				"element": "C" 
			},
			{
				"x": 0.630478816,
				"y": 1.3707394177,
				"z": 0.5073964912,
				"element": "C" 
			},
			{
				"x": -1.2031344967,
				"y": -0.1844775599,
				"z": 1.250804446,
				"element": "C" 
			},
			{
				"x": 4.2284407443,
				"y": -2.6515783824,
				"z": 1.8443345604,
				"element": "H" 
			},
			{
				"x": 3.7294545249,
				"y": -4.2621749534,
				"z": 0.1059855852,
				"element": "H" 
			},
			{
				"x": 4.4249547702,
				"y": -3.0158173384,
				"z": -0.9320637552,
				"element": "H" 
			},
			{
				"x": 2.8782120398,
				"y": -0.3601815727,
				"z": 0.447944531,
				"element": "H" 
			},
			{
				"x": 1.2548415076,
				"y": -4.1026458031,
				"z": -0.5162404591,
				"element": "H" 
			},
			{
				"x": -1.4251710843,
				"y": -0.6025120213,
				"z": -1.4717314757,
				"element": "H" 
			},
			{
				"x": -0.1504274092,
				"y": 0.4954563931,
				"z": -1.9937036389,
				"element": "H" 
			},
			{
				"x": -2.3667108352,
				"y": 1.6482635045,
				"z": -2.0439966008,
				"element": "H" 
			},
			{
				"x": -3.4789547319,
				"y": 0.3230571322,
				"z": -0.2372567934,
				"element": "H" 
			},
			{
				"x": -3.6047315235,
				"y": 2.0513530302,
				"z": 0.0961313973,
				"element": "H" 
			},
			{
				"x": -2.9109471633,
				"y": 0.7993759987,
				"z": 2.152085567,
				"element": "H" 
			},
			{
				"x": -2.0603630299,
				"y": 3.136168622,
				"z": 1.8303895441,
				"element": "H" 
			},
			{
				"x": -0.8781982546,
				"y": 2.1524053701,
				"z": 2.6946066917,
				"element": "H" 
			},
			{
				"x": 0.232888152,
				"y": 3.467494306,
				"z": 0.8802769576,
				"element": "H" 
			},
			{
				"x": -1.7380950575,
				"y": 3.6390338826,
				"z": -0.6551457537,
				"element": "H" 
			},
			{
				"x": -0.3327874778,
				"y": 3.0032799271,
				"z": -1.5114408147,
				"element": "H" 
			},
			{
				"x": 1.1656905483,
				"y": 1.2312792729,
				"z": 1.4561302484,
				"element": "H" 
			},
			{
				"x": 1.3882293335,
				"y": 1.5782013683,
				"z": -0.2597633474,
				"element": "H" 
			},
			{
				"x": -1.7472412305,
				"y": -1.1049583701,
				"z": 1.0117362296,
				"element": "H" 
			},
			{
				"x": -0.6955813697,
				"y": -0.3548151791,
				"z": 2.2096063525,
				"element": "H" 
			}
		],
		 "valence_orbital": [ 
			{
				"type": "occ",
				"energy": -0.27827,
				"method": "rhf"
			},
			{
				"type": "occ",
				"energy": -0.27532,
				"method": "rhf"
			},
			{
				"type": "occ",
				"energy": -0.26618,
				"method": "rhf"
			},
			{
				"type": "occ",
				"energy": -0.24265,
				"method": "rhf"
			},
			{
				"type": "occ",
				"energy": -0.23271,
				"method": "rhf"
			},
			{
				"type": "unocc",
				"energy": 0.01419,
				"method": "rhf"
			},
			{
				"type": "unocc",
				"energy": 0.06699,
				"method": "rhf"
			},
			{
				"type": "unocc",
				"energy": 0.07498,
				"method": "rhf"
			},
			{
				"type": "unocc",
				"energy": 0.07768,
				"method": "rhf"
			},
			{
				"type": "unocc",
				"energy": 0.08942,
				"method": "rhf"
			}
		],
		"cosmo_sigma_profile": { 
			"-0.025": 0.0,
			"-0.024": 0.0,
			"-0.023": 0.0,
			"-0.022": 0.0,
			"-0.021": 0.0,
			"-0.02": 0.0,
			"-0.019": 0.0,
			"-0.018": 0.0,
			"-0.017": 0.0,
			"-0.016": 1.14040291892,
			"-0.015": 2.07117984195,
			"-0.014": 2.31389755922,
			"-0.013": 1.81619424603,
			"-0.012": 1.82507738365,
			"-0.011": 2.55878010323,
			"-0.01": 1.61215466833,
			"-0.009": 2.00812279514,
			"-0.008": 1.80427367061,
			"-0.007": 2.87457594417,
			"-0.006": 4.88012828718,
			"-0.005": 7.29692546865,
			"-0.004": 6.60545868624,
			"-0.003": 5.99493825056,
			"-0.002": 28.1603868442,
			"-0.001": 50.4370938491,
			"0.0": 43.9141842138,
			"0.001": 36.8585791097,
			"0.002": 14.9524710411,
			"0.003": 6.48538534212,
			"0.004": 6.03722433576,
			"0.005": 6.50598046489,
			"0.006": 6.39856062524,
			"0.007": 3.94090942565,
			"0.008": 3.72499415033,
			"0.009": 3.33720187299,
			"0.01": 2.29099619898,
			"0.011": 1.95276605844,
			"0.012": 2.66035730727,
			"0.013": 3.29261016612,
			"0.014": 2.25079535485,
			"0.015": 0.868404414176,
			"0.016": 0.460396496811,
			"0.017": 0.0666802865606,
			"0.018": 0.0,
			"0.019": 0.0,
			"0.02": 0.0,
			"0.021": 0.0,
			"0.022": 0.0,
			"0.023": 0.0,
			"0.024": 0.0,
			"0.025": 0.0
		}
	}
}
