{
	 "smiles": "CSCCC(N)CO", 
	 "Tm": 306.65, 
	 "num_atms": 21, 
	 "gaussian": { 
		 "optdone": 1, 
		 "sigma_profile": "yes", 
		 "theory": "DFT", 
		 "functional": "B3LYP", 
		 "basiset": "6-31G**", 
		 "properties": { 
			 "R2extent": 1999.6987, 
			 "electric_dipole_moment_norm": 1.6975986098, 
			 "electric_quadrupole_moment_norm": 7.79264611028, 
			 "total_energy": -726.517190636, 
			 "HOMO_LUMO_gap": 0.25688, 
			 "cosmo_polarized_energy": -12.22, 
			 "cosmo_cavitation_energy": 24.5, 
			 "cosmo_dispersion_energy": -17.99, 
			 "cosmo_repulsion_energy": 1.48, 
			 "cosmo_total_nonelectrostatic_energy": 8.0, 
			 "SMD_solvation_energy": 2.93 
		},
		"coords": [
			{
				"x": -2.4988163559,
				"y": -1.9228664973,
				"z": 2.5439771877,
				"element": "C" 
			},
			{
				"x": -2.5900346828,
				"y": -0.2550116972,
				"z": 1.8043897367,
				"element": "S" 
			},
			{
				"x": -0.9328348472,
				"y": -0.1291302641,
				"z": 1.0218142181,
				"element": "C" 
			},
			{
				"x": -0.7136383796,
				"y": -1.0554319582,
				"z": -0.1773799518,
				"element": "C" 
			},
			{
				"x": 0.6106470235,
				"y": -0.8185950847,
				"z": -0.9448769801,
				"element": "C" 
			},
			{
				"x": 0.7342407468,
				"y": 0.4741325401,
				"z": -1.6296059214,
				"element": "N" 
			},
			{
				"x": 1.8540698733,
				"y": -0.9860366407,
				"z": -0.0658207299,
				"element": "C" 
			},
			{
				"x": 1.7445555119,
				"y": -2.2108799977,
				"z": 0.6498822481,
				"element": "O" 
			},
			{
				"x": -3.4253510368,
				"y": -2.0661349712,
				"z": 3.1045518792,
				"element": "H" 
			},
			{
				"x": -1.6539391418,
				"y": -2.0000675887,
				"z": 3.2338863351,
				"element": "H" 
			},
			{
				"x": -2.425105712,
				"y": -2.70283807,
				"z": 1.7829626897,
				"element": "H" 
			},
			{
				"x": -0.866512331,
				"y": 0.9234180454,
				"z": 0.7236846272,
				"element": "H" 
			},
			{
				"x": -0.1752561436,
				"y": -0.3006083448,
				"z": 1.7932593793,
				"element": "H" 
			},
			{
				"x": -1.5465000358,
				"y": -0.9345957432,
				"z": -0.8814514834,
				"element": "H" 
			},
			{
				"x": -0.7267246696,
				"y": -2.0959938944,
				"z": 0.1612708302,
				"element": "H" 
			},
			{
				"x": 0.6629997239,
				"y": -1.5918882618,
				"z": -1.722146285,
				"element": "H" 
			},
			{
				"x": 0.6183660389,
				"y": 1.2397868395,
				"z": -0.9689391488,
				"element": "H" 
			},
			{
				"x": -0.0074329239,
				"y": 0.5754550507,
				"z": -2.3177798728,
				"element": "H" 
			},
			{
				"x": 2.7404520672,
				"y": -0.9648296742,
				"z": -0.7144371057,
				"element": "H" 
			},
			{
				"x": 1.9352745519,
				"y": -0.1283701125,
				"z": 0.6240262971,
				"element": "H" 
			},
			{
				"x": 2.5643407228,
				"y": -2.3468136752,
				"z": 1.1396320503,
				"element": "H" 
			}
		],
		 "valence_orbital": [ 
			{
				"type": "occ",
				"energy": -0.31906,
				"method": "rhf"
			},
			{
				"type": "occ",
				"energy": -0.29991,
				"method": "rhf"
			},
			{
				"type": "occ",
				"energy": -0.27053,
				"method": "rhf"
			},
			{
				"type": "occ",
				"energy": -0.23831,
				"method": "rhf"
			},
			{
				"type": "occ",
				"energy": -0.21272,
				"method": "rhf"
			},
			{
				"type": "unocc",
				"energy": 0.04416,
				"method": "rhf"
			},
			{
				"type": "unocc",
				"energy": 0.06798,
				"method": "rhf"
			},
			{
				"type": "unocc",
				"energy": 0.06971,
				"method": "rhf"
			},
			{
				"type": "unocc",
				"energy": 0.09473,
				"method": "rhf"
			},
			{
				"type": "unocc",
				"energy": 0.10767,
				"method": "rhf"
			}
		],
		"cosmo_sigma_profile": { 
			"-0.025": 0.0,
			"-0.024": 0.0,
			"-0.023": 0.0,
			"-0.022": 0.0,
			"-0.021": 0.0,
			"-0.02": 0.0,
			"-0.019": 0.0,
			"-0.018": 0.0,
			"-0.017": 0.0,
			"-0.016": 0.271556768233,
			"-0.015": 0.967577163148,
			"-0.014": 1.2745613863,
			"-0.013": 0.875985804192,
			"-0.012": 0.800957692231,
			"-0.011": 0.827528233683,
			"-0.01": 1.27634647938,
			"-0.009": 4.13750694437,
			"-0.008": 3.95134613922,
			"-0.007": 4.73418588641,
			"-0.006": 6.7363048786,
			"-0.005": 10.1300748842,
			"-0.004": 14.5623470534,
			"-0.003": 21.9880687469,
			"-0.002": 18.4898509808,
			"-0.001": 18.8847559515,
			"0.0": 12.951414073,
			"0.001": 7.18331456972,
			"0.002": 6.21235169383,
			"0.003": 5.90343993732,
			"0.004": 4.5969423554,
			"0.005": 5.82378763387,
			"0.006": 6.56741323814,
			"0.007": 5.37148018154,
			"0.008": 4.68481565083,
			"0.009": 4.45844733116,
			"0.01": 4.50567687491,
			"0.011": 4.10598487075,
			"0.012": 3.42990964844,
			"0.013": 1.14350086563,
			"0.014": 1.14894216986,
			"0.015": 0.536713203453,
			"0.016": 0.79612061063,
			"0.017": 0.582610925115,
			"0.018": 0.433803288858,
			"0.019": 0.450878065788,
			"0.02": 0.0844469672738,
			"0.021": 0.0,
			"0.022": 0.0,
			"0.023": 0.0,
			"0.024": 0.0,
			"0.025": 0.0
		}
	}
}
