{
	 "smiles": "C(NC1=CC=C(C=C1)C1=CC=CC=C1)C(NC1=CC=C(C=C1)C1=CC=CC=C1)=NC1=CC=C(C=C1)C1=CC=CC=C1", 
	 "Tm": 463.15, 
	 "num_atms": 72, 
	 "gaussian": { 
		 "optdone": 1, 
		 "sigma_profile": "yes", 
		 "theory": "DFT", 
		 "functional": "B3LYP", 
		 "basiset": "6-31G**", 
		 "properties": { 
			 "R2extent": 36503.9477, 
			 "electric_dipole_moment_norm": 3.5708405243, 
			 "electric_quadrupole_moment_norm": 14.4056282005, 
			 "total_energy": -1631.00688386, 
			 "HOMO_LUMO_gap": 0.14736, 
			 "cosmo_polarized_energy": -20.11, 
			 "cosmo_cavitation_energy": 76.54, 
			 "cosmo_dispersion_energy": -51.99, 
			 "cosmo_repulsion_energy": 3.85, 
			 "cosmo_total_nonelectrostatic_energy": 28.4, 
			 "SMD_solvation_energy": 9.33 
		},
		"coords": [
			{
				"x": -2.2543029112,
				"y": 0.5331861201,
				"z": 1.4436007144,
				"element": "C" 
			},
			{
				"x": -3.1413322026,
				"y": 0.4111358411,
				"z": 0.3070575683,
				"element": "N" 
			},
			{
				"x": -2.9729656182,
				"y": -0.616417317,
				"z": -0.6318744574,
				"element": "C" 
			},
			{
				"x": -3.5799452625,
				"y": -0.4807619732,
				"z": -1.8954814127,
				"element": "C" 
			},
			{
				"x": -3.5029293615,
				"y": -1.4926199967,
				"z": -2.8416635375,
				"element": "C" 
			},
			{
				"x": -2.8197699846,
				"y": -2.6947407288,
				"z": -2.5808961288,
				"element": "C" 
			},
			{
				"x": -2.2149586596,
				"y": -2.8209831371,
				"z": -1.3214915622,
				"element": "C" 
			},
			{
				"x": -2.2804636523,
				"y": -1.8097715257,
				"z": -0.3651096958,
				"element": "C" 
			},
			{
				"x": -2.7385264304,
				"y": -3.7755756043,
				"z": -3.5929271101,
				"element": "C" 
			},
			{
				"x": -2.622562039,
				"y": -3.4803225921,
				"z": -4.9631817268,
				"element": "C" 
			},
			{
				"x": -2.5484953403,
				"y": -4.4962822131,
				"z": -5.9149823607,
				"element": "C" 
			},
			{
				"x": -2.581898703,
				"y": -5.8353341037,
				"z": -5.5208170215,
				"element": "C" 
			},
			{
				"x": -2.693865067,
				"y": -6.1460522204,
				"z": -4.1641770063,
				"element": "C" 
			},
			{
				"x": -2.7746898199,
				"y": -5.1294727859,
				"z": -3.2136074,
				"element": "C" 
			},
			{
				"x": -0.8796793591,
				"y": 1.111826387,
				"z": 1.0867885804,
				"element": "C" 
			},
			{
				"x": 0.2170593793,
				"y": 0.7656160529,
				"z": 1.8537940282,
				"element": "N" 
			},
			{
				"x": 0.3080335656,
				"y": -0.0597750272,
				"z": 2.9948442008,
				"element": "C" 
			},
			{
				"x": 1.3874746848,
				"y": -0.951437454,
				"z": 3.0977553896,
				"element": "C" 
			},
			{
				"x": 1.5433556681,
				"y": -1.7484603737,
				"z": 4.2261062815,
				"element": "C" 
			},
			{
				"x": 0.6242570146,
				"y": -1.7012474582,
				"z": 5.2887826856,
				"element": "C" 
			},
			{
				"x": -0.4472348041,
				"y": -0.7999509362,
				"z": 5.1770389684,
				"element": "C" 
			},
			{
				"x": -0.599036041,
				"y": 0.0198908484,
				"z": 4.0621137851,
				"element": "C" 
			},
			{
				"x": 0.783973695,
				"y": -2.5632266033,
				"z": 6.4858457443,
				"element": "C" 
			},
			{
				"x": 2.0577084191,
				"y": -2.8451489542,
				"z": 7.0094684873,
				"element": "C" 
			},
			{
				"x": 2.2070550344,
				"y": -3.656195313,
				"z": 8.1334283099,
				"element": "C" 
			},
			{
				"x": 1.0858017411,
				"y": -4.2016227258,
				"z": 8.76167232,
				"element": "C" 
			},
			{
				"x": -0.1860785803,
				"y": -3.9294733663,
				"z": 8.2541833821,
				"element": "C" 
			},
			{
				"x": -0.3350482495,
				"y": -3.1209440336,
				"z": 7.1283319425,
				"element": "C" 
			},
			{
				"x": -0.821893589,
				"y": 1.8823706875,
				"z": 0.0590094463,
				"element": "N" 
			},
			{
				"x": 0.3718516563,
				"y": 2.5021549135,
				"z": -0.3483825795,
				"element": "C" 
			},
			{
				"x": 1.020733286,
				"y": 3.4794325087,
				"z": 0.430125988,
				"element": "C" 
			},
			{
				"x": 2.1568471807,
				"y": 4.1292856357,
				"z": -0.0467612247,
				"element": "C" 
			},
			{
				"x": 2.6964687936,
				"y": 3.8312276674,
				"z": -1.308958489,
				"element": "C" 
			},
			{
				"x": 2.0398679689,
				"y": 2.8559359767,
				"z": -2.0814731282,
				"element": "C" 
			},
			{
				"x": 0.8991392173,
				"y": 2.2094697784,
				"z": -1.6186970211,
				"element": "C" 
			},
			{
				"x": 3.9097821643,
				"y": 4.5229143065,
				"z": -1.81101143,
				"element": "C" 
			},
			{
				"x": 4.8718601296,
				"y": 3.8355547652,
				"z": -2.5718316412,
				"element": "C" 
			},
			{
				"x": 6.0117341916,
				"y": 4.4843759675,
				"z": -3.0443905078,
				"element": "C" 
			},
			{
				"x": 6.2194610815,
				"y": 5.8363412924,
				"z": -2.7643235723,
				"element": "C" 
			},
			{
				"x": 5.2741334376,
				"y": 6.5328580928,
				"z": -2.0089263321,
				"element": "C" 
			},
			{
				"x": 4.1325041013,
				"y": 5.8844667087,
				"z": -1.5400066174,
				"element": "C" 
			},
			{
				"x": -2.731897904,
				"y": 1.199748426,
				"z": 2.1721812975,
				"element": "H" 
			},
			{
				"x": -2.1507413215,
				"y": -0.4319345276,
				"z": 1.9410826832,
				"element": "H" 
			},
			{
				"x": -3.2624107955,
				"y": 1.309127666,
				"z": -0.1469467978,
				"element": "H" 
			},
			{
				"x": -4.1313531823,
				"y": 0.4286733187,
				"z": -2.1220543253,
				"element": "H" 
			},
			{
				"x": -4.0055475139,
				"y": -1.3591625005,
				"z": -3.7953391033,
				"element": "H" 
			},
			{
				"x": -1.6484438698,
				"y": -3.7186697794,
				"z": -1.0904235509,
				"element": "H" 
			},
			{
				"x": -1.7728861062,
				"y": -1.9575651865,
				"z": 0.5818608446,
				"element": "H" 
			},
			{
				"x": -2.5646908207,
				"y": -2.4433473554,
				"z": -5.2811113536,
				"element": "H" 
			},
			{
				"x": -2.4532685793,
				"y": -4.2407041718,
				"z": -6.9668811865,
				"element": "H" 
			},
			{
				"x": -2.5219789249,
				"y": -6.6271343188,
				"z": -6.2619693248,
				"element": "H" 
			},
			{
				"x": -2.7304266831,
				"y": -7.1840773203,
				"z": -3.8447108612,
				"element": "H" 
			},
			{
				"x": -2.8934620104,
				"y": -5.3847450626,
				"z": -2.1645933457,
				"element": "H" 
			},
			{
				"x": 1.1014090779,
				"y": 1.0665236834,
				"z": 1.4604331581,
				"element": "H" 
			},
			{
				"x": 2.0931607807,
				"y": -1.0305097629,
				"z": 2.2751365429,
				"element": "H" 
			},
			{
				"x": 2.3727005421,
				"y": -2.4480264758,
				"z": 4.2669292318,
				"element": "H" 
			},
			{
				"x": -1.1507910885,
				"y": -0.7033757106,
				"z": 5.9983842675,
				"element": "H" 
			},
			{
				"x": -1.4025844153,
				"y": 0.7474571681,
				"z": 4.038781894,
				"element": "H" 
			},
			{
				"x": 2.9352719668,
				"y": -2.4027451674,
				"z": 6.5471033976,
				"element": "H" 
			},
			{
				"x": 3.2009138719,
				"y": -3.8542027849,
				"z": 8.5249092785,
				"element": "H" 
			},
			{
				"x": 1.2020706292,
				"y": -4.832631238,
				"z": 9.6379340288,
				"element": "H" 
			},
			{
				"x": -1.0649324392,
				"y": -4.3558681385,
				"z": 8.729585311,
				"element": "H" 
			},
			{
				"x": -1.3272285119,
				"y": -2.9404555157,
				"z": 6.7250422447,
				"element": "H" 
			},
			{
				"x": 0.6192775339,
				"y": 3.7342617302,
				"z": 1.4068726599,
				"element": "H" 
			},
			{
				"x": 2.6476566788,
				"y": 4.8653348372,
				"z": 0.5836066283,
				"element": "H" 
			},
			{
				"x": 2.4120949023,
				"y": 2.6239630973,
				"z": -3.0751706568,
				"element": "H" 
			},
			{
				"x": 0.3887080328,
				"y": 1.4763202084,
				"z": -2.2354378857,
				"element": "H" 
			},
			{
				"x": 4.7352867787,
				"y": 2.7769756695,
				"z": -2.7729070718,
				"element": "H" 
			},
			{
				"x": 6.7439429293,
				"y": 3.9297248682,
				"z": -3.6247216746,
				"element": "H" 
			},
			{
				"x": 7.107970667,
				"y": 6.3418164939,
				"z": -3.1314241922,
				"element": "H" 
			},
			{
				"x": 5.4199621394,
				"y": 7.5876040439,
				"z": -1.7925958805,
				"element": "H" 
			},
			{
				"x": 3.3898909002,
				"y": 6.4444966986,
				"z": -0.9792321176,
				"element": "H" 
			}
		],
		 "valence_orbital": [ 
			{
				"type": "occ",
				"energy": -0.24152,
				"method": "rhf"
			},
			{
				"type": "occ",
				"energy": -0.24083,
				"method": "rhf"
			},
			{
				"type": "occ",
				"energy": -0.22038,
				"method": "rhf"
			},
			{
				"type": "occ",
				"energy": -0.20127,
				"method": "rhf"
			},
			{
				"type": "occ",
				"energy": -0.18764,
				"method": "rhf"
			},
			{
				"type": "unocc",
				"energy": -0.04028,
				"method": "rhf"
			},
			{
				"type": "unocc",
				"energy": -0.02328,
				"method": "rhf"
			},
			{
				"type": "unocc",
				"energy": -0.01773,
				"method": "rhf"
			},
			{
				"type": "unocc",
				"energy": -0.01189,
				"method": "rhf"
			},
			{
				"type": "unocc",
				"energy": -0.00623,
				"method": "rhf"
			}
		],
		"cosmo_sigma_profile": { 
			"-0.025": 0.0,
			"-0.024": 0.0,
			"-0.023": 0.0,
			"-0.022": 0.0,
			"-0.021": 0.0,
			"-0.02": 0.0,
			"-0.019": 0.0,
			"-0.018": 0.0,
			"-0.017": 0.0,
			"-0.016": 0.0,
			"-0.015": 0.0,
			"-0.014": 0.0,
			"-0.013": 0.106750203152,
			"-0.012": 0.780918433556,
			"-0.011": 1.12444084413,
			"-0.01": 2.2959281701,
			"-0.009": 2.55736751476,
			"-0.008": 4.10554249134,
			"-0.007": 7.9658518123,
			"-0.006": 23.6244784176,
			"-0.005": 59.8438139316,
			"-0.004": 59.0417237575,
			"-0.003": 53.6236614561,
			"-0.002": 40.8356023518,
			"-0.001": 39.3380831301,
			"0.0": 33.6726080044,
			"0.001": 37.4490820963,
			"0.002": 39.2988237643,
			"0.003": 46.6027667926,
			"0.004": 51.570890185,
			"0.005": 52.2122067079,
			"0.006": 41.1524969495,
			"0.007": 7.03742399018,
			"0.008": 2.67329964675,
			"0.009": 2.30211091655,
			"0.01": 1.666806261,
			"0.011": 1.56852412316,
			"0.012": 0.956047690808,
			"0.013": 0.156331723541,
			"0.014": 0.0,
			"0.015": 0.0,
			"0.016": 0.0,
			"0.017": 0.0,
			"0.018": 0.0,
			"0.019": 0.0,
			"0.02": 0.0,
			"0.021": 0.0,
			"0.022": 0.0,
			"0.023": 0.0,
			"0.024": 0.0,
			"0.025": 0.0
		}
	}
}
