{
	 "smiles": "COC1=CC(C(=O)C2=CC=CC=C2)=C(O)C=C1", 
	 "Tm": 355.15, 
	 "num_atms": 29, 
	 "gaussian": { 
		 "optdone": 1, 
		 "sigma_profile": "yes", 
		 "theory": "DFT", 
		 "functional": "B3LYP", 
		 "basiset": "6-31G**", 
		 "properties": { 
			 "R2extent": 5044.8915, 
			 "electric_dipole_moment_norm": 2.92512295468, 
			 "electric_quadrupole_moment_norm": 13.3679209244, 
			 "total_energy": -766.372967737, 
			 "HOMO_LUMO_gap": 0.15063, 
			 "cosmo_polarized_energy": -15.27, 
			 "cosmo_cavitation_energy": 33.33, 
			 "cosmo_dispersion_energy": -23.98, 
			 "cosmo_repulsion_energy": 1.86, 
			 "cosmo_total_nonelectrostatic_energy": 11.21, 
			 "SMD_solvation_energy": 7.18 
		},
		"coords": [
			{
				"x": -4.1689372375,
				"y": 1.7535096381,
				"z": 1.1575717677,
				"element": "C" 
			},
			{
				"x": -3.7478344245,
				"y": 2.0721984982,
				"z": -0.1593193857,
				"element": "O" 
			},
			{
				"x": -2.7745497496,
				"y": 1.2953623871,
				"z": -0.7239136908,
				"element": "C" 
			},
			{
				"x": -2.1432554762,
				"y": 0.2233665498,
				"z": -0.0970776675,
				"element": "C" 
			},
			{
				"x": -1.1314083781,
				"y": -0.5080615717,
				"z": -0.745516408,
				"element": "C" 
			},
			{
				"x": -0.5515713208,
				"y": -1.6664405136,
				"z": 0.0215081084,
				"element": "C" 
			},
			{
				"x": -1.2982366223,
				"y": -2.3510536534,
				"z": 0.713421804,
				"element": "O" 
			},
			{
				"x": 0.9202450534,
				"y": -1.9401969967,
				"z": 0.016402909,
				"element": "C" 
			},
			{
				"x": 1.3551477538,
				"y": -3.2057074712,
				"z": 0.4396353605,
				"element": "C" 
			},
			{
				"x": 2.7145375192,
				"y": -3.4943133933,
				"z": 0.5169317729,
				"element": "C" 
			},
			{
				"x": 3.6561320121,
				"y": -2.5118155556,
				"z": 0.1961289907,
				"element": "C" 
			},
			{
				"x": 3.2320813945,
				"y": -1.2432916469,
				"z": -0.2056902561,
				"element": "C" 
			},
			{
				"x": 1.870527685,
				"y": -0.9599722367,
				"z": -0.3026818892,
				"element": "C" 
			},
			{
				"x": -0.7951579029,
				"y": -0.1826674118,
				"z": -2.0699142585,
				"element": "C" 
			},
			{
				"x": 0.1267801223,
				"y": -0.9505724366,
				"z": -2.7281616578,
				"element": "O" 
			},
			{
				"x": -1.4403436271,
				"y": 0.8906533094,
				"z": -2.7006259219,
				"element": "C" 
			},
			{
				"x": -2.4102491012,
				"y": 1.628409271,
				"z": -2.0370836451,
				"element": "C" 
			},
			{
				"x": -4.5887731236,
				"y": 0.7410000691,
				"z": 1.2151155639,
				"element": "H" 
			},
			{
				"x": -3.3454016695,
				"y": 1.8390417812,
				"z": 1.8785943056,
				"element": "H" 
			},
			{
				"x": -4.9436622027,
				"y": 2.4790475492,
				"z": 1.4104977739,
				"element": "H" 
			},
			{
				"x": -2.4110875928,
				"y": -0.0880449738,
				"z": 0.9046745669,
				"element": "H" 
			},
			{
				"x": 0.6070577262,
				"y": -3.9452360996,
				"z": 0.7048692226,
				"element": "H" 
			},
			{
				"x": 3.0429238006,
				"y": -4.4803454613,
				"z": 0.8328857134,
				"element": "H" 
			},
			{
				"x": 4.7176731507,
				"y": -2.7335015232,
				"z": 0.2633992797,
				"element": "H" 
			},
			{
				"x": 3.962459011,
				"y": -0.4750972707,
				"z": -0.4431023254,
				"element": "H" 
			},
			{
				"x": 1.5434980429,
				"y": 0.027309526,
				"z": -0.6107182274,
				"element": "H" 
			},
			{
				"x": 0.2263714186,
				"y": -0.6190645796,
				"z": -3.6296667347,
				"element": "H" 
			},
			{
				"x": -1.1831863417,
				"y": 1.1409530937,
				"z": -3.7280102179,
				"element": "H" 
			},
			{
				"x": -2.9072799199,
				"y": 2.4620311225,
				"z": -2.5221548533,
				"element": "H" 
			}
		],
		 "valence_orbital": [ 
			{
				"type": "occ",
				"energy": -0.26218,
				"method": "rhf"
			},
			{
				"type": "occ",
				"energy": -0.25164,
				"method": "rhf"
			},
			{
				"type": "occ",
				"energy": -0.25013,
				"method": "rhf"
			},
			{
				"type": "occ",
				"energy": -0.23904,
				"method": "rhf"
			},
			{
				"type": "occ",
				"energy": -0.20719,
				"method": "rhf"
			},
			{
				"type": "unocc",
				"energy": -0.05656,
				"method": "rhf"
			},
			{
				"type": "unocc",
				"energy": -0.0105,
				"method": "rhf"
			},
			{
				"type": "unocc",
				"energy": 0.00035,
				"method": "rhf"
			},
			{
				"type": "unocc",
				"energy": 0.0169,
				"method": "rhf"
			},
			{
				"type": "unocc",
				"energy": 0.05915,
				"method": "rhf"
			}
		],
		"cosmo_sigma_profile": { 
			"-0.025": 0.0,
			"-0.024": 0.0,
			"-0.023": 0.0,
			"-0.022": 0.0,
			"-0.021": 0.0,
			"-0.02": 0.0,
			"-0.019": 0.00343194153843,
			"-0.018": 0.862698086634,
			"-0.017": 1.02159224561,
			"-0.016": 1.04142417375,
			"-0.015": 1.34119571068,
			"-0.014": 0.726872188454,
			"-0.013": 0.77071804988,
			"-0.012": 0.959467913115,
			"-0.011": 1.48598046543,
			"-0.01": 0.711068489632,
			"-0.009": 1.2875694348,
			"-0.008": 1.37813334177,
			"-0.007": 3.13055669811,
			"-0.006": 15.2149034843,
			"-0.005": 22.3111299882,
			"-0.004": 23.73117754,
			"-0.003": 20.410946828,
			"-0.002": 16.3512972824,
			"-0.001": 15.3503642494,
			"0.0": 14.2531431817,
			"0.001": 15.577113867,
			"0.002": 16.5561561357,
			"0.003": 22.7288884639,
			"0.004": 23.2107368088,
			"0.005": 10.8944494221,
			"0.006": 5.85371469162,
			"0.007": 6.19126354565,
			"0.008": 3.97758078061,
			"0.009": 4.81375149236,
			"0.01": 5.359593574,
			"0.011": 3.44481574453,
			"0.012": 4.16047282781,
			"0.013": 1.25073662953,
			"0.014": 0.00816277385354,
			"0.015": 0.0,
			"0.016": 0.0,
			"0.017": 0.0,
			"0.018": 0.0,
			"0.019": 0.0,
			"0.02": 0.0,
			"0.021": 0.0,
			"0.022": 0.0,
			"0.023": 0.0,
			"0.024": 0.0,
			"0.025": 0.0
		}
	}
}
