{
	 "smiles": "COC1=C(OCC#N)C=C(C(=C1)C(O)=O)[N+]([O-])=O", 
	 "Tm": 423.15, 
	 "num_atms": 26, 
	 "gaussian": { 
		 "optdone": 1, 
		 "sigma_profile": "yes", 
		 "theory": "DFT", 
		 "functional": "B3LYP", 
		 "basiset": "6-31G**", 
		 "properties": { 
			 "R2extent": 5354.2872, 
			 "electric_dipole_moment_norm": 4.53388996558, 
			 "electric_quadrupole_moment_norm": 36.4050277861, 
			 "total_energy": -946.575102401, 
			 "HOMO_LUMO_gap": 0.14861, 
			 "cosmo_polarized_energy": -21.32, 
			 "cosmo_cavitation_energy": 33.01, 
			 "cosmo_dispersion_energy": -23.28, 
			 "cosmo_repulsion_energy": 1.79, 
			 "cosmo_total_nonelectrostatic_energy": 11.52, 
			 "SMD_solvation_energy": 11.62 
		},
		"coords": [
			{
				"x": 2.1804060761,
				"y": 1.3793087076,
				"z": -2.5363605684,
				"element": "C" 
			},
			{
				"x": 1.612270914,
				"y": 1.7770433122,
				"z": -1.283776093,
				"element": "O" 
			},
			{
				"x": 0.697783473,
				"y": 0.9723591077,
				"z": -0.6990676778,
				"element": "C" 
			},
			{
				"x": 0.123817662,
				"y": 1.43408611,
				"z": 0.5077366224,
				"element": "C" 
			},
			{
				"x": 0.4208709787,
				"y": 2.6519464263,
				"z": 1.0586996735,
				"element": "O" 
			},
			{
				"x": 1.7929733642,
				"y": 2.8969297454,
				"z": 1.3899998821,
				"element": "C" 
			},
			{
				"x": 1.8536377961,
				"y": 4.1261650944,
				"z": 2.1865132224,
				"element": "C" 
			},
			{
				"x": 1.9382521249,
				"y": 5.0957807927,
				"z": 2.8163682185,
				"element": "N" 
			},
			{
				"x": -0.8481134085,
				"y": 0.6655797318,
				"z": 1.1225363664,
				"element": "C" 
			},
			{
				"x": -1.2524602,
				"y": -0.5684187054,
				"z": 0.5941421282,
				"element": "C" 
			},
			{
				"x": -0.6807411778,
				"y": -1.0690917728,
				"z": -0.6011455087,
				"element": "C" 
			},
			{
				"x": 0.2813820932,
				"y": -0.254513804,
				"z": -1.2142829196,
				"element": "C" 
			},
			{
				"x": -0.9626906906,
				"y": -2.3301684144,
				"z": -1.4416929262,
				"element": "C" 
			},
			{
				"x": -1.6060220442,
				"y": -3.3520935479,
				"z": -0.9029122995,
				"element": "O" 
			},
			{
				"x": -0.5552832215,
				"y": -2.3726408347,
				"z": -2.5844957941,
				"element": "O" 
			},
			{
				"x": -2.2851746158,
				"y": -1.230858831,
				"z": 1.4047759549,
				"element": "N" 
			},
			{
				"x": -2.9613725671,
				"y": -0.536541738,
				"z": 2.1502623294,
				"element": "O" 
			},
			{
				"x": -2.4193540761,
				"y": -2.4680447003,
				"z": 1.3509896012,
				"element": "O" 
			},
			{
				"x": 2.7353091675,
				"y": 0.4402508073,
				"z": -2.4385990995,
				"element": "H" 
			},
			{
				"x": 1.4048938478,
				"y": 1.2719145114,
				"z": -3.3014351542,
				"element": "H" 
			},
			{
				"x": 2.8623209654,
				"y": 2.1820391347,
				"z": -2.8155723777,
				"element": "H" 
			},
			{
				"x": 2.2020606271,
				"y": 2.0679065326,
				"z": 1.9828616556,
				"element": "H" 
			},
			{
				"x": 2.4021980777,
				"y": 3.0147292982,
				"z": 0.4889691213,
				"element": "H" 
			},
			{
				"x": -1.3074859784,
				"y": 1.0358526409,
				"z": 2.0291350603,
				"element": "H" 
			},
			{
				"x": 0.6693612314,
				"y": -0.6214126176,
				"z": -2.1550479832,
				"element": "H" 
			},
			{
				"x": -1.8739404192,
				"y": -3.1458069872,
				"z": 0.0259985656,
				"element": "H" 
			}
		],
		 "valence_orbital": [ 
			{
				"type": "occ",
				"energy": -0.32533,
				"method": "rhf"
			},
			{
				"type": "occ",
				"energy": -0.31729,
				"method": "rhf"
			},
			{
				"type": "occ",
				"energy": -0.29352,
				"method": "rhf"
			},
			{
				"type": "occ",
				"energy": -0.28278,
				"method": "rhf"
			},
			{
				"type": "occ",
				"energy": -0.2718,
				"method": "rhf"
			},
			{
				"type": "unocc",
				"energy": -0.12319,
				"method": "rhf"
			},
			{
				"type": "unocc",
				"energy": -0.06742,
				"method": "rhf"
			},
			{
				"type": "unocc",
				"energy": -0.02927,
				"method": "rhf"
			},
			{
				"type": "unocc",
				"energy": -0.01348,
				"method": "rhf"
			},
			{
				"type": "unocc",
				"energy": 0.01839,
				"method": "rhf"
			}
		],
		"cosmo_sigma_profile": { 
			"-0.025": 0.0,
			"-0.024": 0.0,
			"-0.023": 0.0,
			"-0.022": 0.0,
			"-0.021": 0.0,
			"-0.02": 0.0,
			"-0.019": 0.0,
			"-0.018": 0.0,
			"-0.017": 0.0,
			"-0.016": 0.0,
			"-0.015": 0.0,
			"-0.014": 0.0292975809445,
			"-0.013": 0.402420843369,
			"-0.012": 0.382876697251,
			"-0.011": 0.924676762244,
			"-0.01": 6.02484517214,
			"-0.009": 6.08752558449,
			"-0.008": 8.42568429567,
			"-0.007": 16.9619743374,
			"-0.006": 17.4250309211,
			"-0.005": 17.0808310174,
			"-0.004": 18.1398212823,
			"-0.003": 15.8996408191,
			"-0.002": 19.9000501461,
			"-0.001": 16.9371151766,
			"0.0": 9.7200038756,
			"0.001": 10.1739914183,
			"0.002": 9.66129621235,
			"0.003": 10.0731149723,
			"0.004": 9.53942334105,
			"0.005": 10.7403015522,
			"0.006": 12.4416196071,
			"0.007": 11.1414218238,
			"0.008": 9.12899953734,
			"0.009": 7.93490435916,
			"0.01": 7.05249243237,
			"0.011": 7.75058880879,
			"0.012": 4.84640200201,
			"0.013": 1.63025842146,
			"0.014": 0.0406095009246,
			"0.015": 0.0,
			"0.016": 0.0,
			"0.017": 0.0,
			"0.018": 0.0,
			"0.019": 0.0,
			"0.02": 0.0,
			"0.021": 0.0,
			"0.022": 0.0,
			"0.023": 0.0,
			"0.024": 0.0,
			"0.025": 0.0
		}
	}
}
