{
	 "smiles": "CC(C)(C)C(=O)CC#N", 
	 "Tm": 342.65, 
	 "num_atms": 20, 
	 "gaussian": { 
		 "optdone": 1, 
		 "sigma_profile": "yes", 
		 "theory": "DFT", 
		 "functional": "B3LYP", 
		 "basiset": "6-31G**", 
		 "properties": { 
			 "R2extent": 1870.5797, 
			 "electric_dipole_moment_norm": 4.31908708062, 
			 "electric_quadrupole_moment_norm": 18.3365347359, 
			 "total_energy": -403.33434453, 
			 "HOMO_LUMO_gap": 0.2213, 
			 "cosmo_polarized_energy": -11.94, 
			 "cosmo_cavitation_energy": 23.44, 
			 "cosmo_dispersion_energy": -15.77, 
			 "cosmo_repulsion_energy": 1.29, 
			 "cosmo_total_nonelectrostatic_energy": 8.96, 
			 "SMD_solvation_energy": 6.2 
		},
		"coords": [
			{
				"x": -1.2662863692,
				"y": 1.7962511086,
				"z": -0.1124644225,
				"element": "C" 
			},
			{
				"x": -0.1113658309,
				"y": 0.8029975902,
				"z": 0.1749739854,
				"element": "C" 
			},
			{
				"x": -0.5049365498,
				"y": -0.6005345109,
				"z": -0.3138919991,
				"element": "C" 
			},
			{
				"x": 0.1855880123,
				"y": 0.7748187962,
				"z": 1.6895962313,
				"element": "C" 
			},
			{
				"x": 1.1122622638,
				"y": 1.2826614274,
				"z": -0.6215333191,
				"element": "C" 
			},
			{
				"x": 1.4935822824,
				"y": 0.7429920058,
				"z": -1.6362486864,
				"element": "O" 
			},
			{
				"x": 1.8748222407,
				"y": 2.5502177853,
				"z": -0.1303718586,
				"element": "C" 
			},
			{
				"x": 2.9535801088,
				"y": 2.1998257117,
				"z": 0.7925832575,
				"element": "C" 
			},
			{
				"x": 3.8045686858,
				"y": 1.9056569605,
				"z": 1.5254286436,
				"element": "N" 
			},
			{
				"x": -2.1663421556,
				"y": 1.4686284852,
				"z": 0.4177816887,
				"element": "H" 
			},
			{
				"x": -1.0381910866,
				"y": 2.8119488901,
				"z": 0.2277179971,
				"element": "H" 
			},
			{
				"x": -1.4992851075,
				"y": 1.8357784543,
				"z": -1.1811859075,
				"element": "H" 
			},
			{
				"x": -1.4041229301,
				"y": -0.9388608714,
				"z": 0.2106203421,
				"element": "H" 
			},
			{
				"x": 0.2952677019,
				"y": -1.3216472438,
				"z": -0.1239634761,
				"element": "H" 
			},
			{
				"x": -0.7035392921,
				"y": -0.6037241951,
				"z": -1.3878499468,
				"element": "H" 
			},
			{
				"x": -0.6977749882,
				"y": 0.4099417076,
				"z": 2.223618923,
				"element": "H" 
			},
			{
				"x": 1.0202337414,
				"y": 0.1080425472,
				"z": 1.9251320023,
				"element": "H" 
			},
			{
				"x": 0.4220730233,
				"y": 1.7649322826,
				"z": 2.0910259276,
				"element": "H" 
			},
			{
				"x": 1.2073323813,
				"y": 3.2644202883,
				"z": 0.3613699357,
				"element": "H" 
			},
			{
				"x": 2.3065338684,
				"y": 3.0244527801,
				"z": -1.0164393182,
				"element": "H" 
			}
		],
		 "valence_orbital": [ 
			{
				"type": "occ",
				"energy": -0.35133,
				"method": "rhf"
			},
			{
				"type": "occ",
				"energy": -0.34638,
				"method": "rhf"
			},
			{
				"type": "occ",
				"energy": -0.33773,
				"method": "rhf"
			},
			{
				"type": "occ",
				"energy": -0.33001,
				"method": "rhf"
			},
			{
				"type": "occ",
				"energy": -0.26396,
				"method": "rhf"
			},
			{
				"type": "unocc",
				"energy": -0.04266,
				"method": "rhf"
			},
			{
				"type": "unocc",
				"energy": 0.02879,
				"method": "rhf"
			},
			{
				"type": "unocc",
				"energy": 0.03403,
				"method": "rhf"
			},
			{
				"type": "unocc",
				"energy": 0.06199,
				"method": "rhf"
			},
			{
				"type": "unocc",
				"energy": 0.10233,
				"method": "rhf"
			}
		],
		"cosmo_sigma_profile": { 
			"-0.025": 0.0,
			"-0.024": 0.0,
			"-0.023": 0.0,
			"-0.022": 0.0,
			"-0.021": 0.0,
			"-0.02": 0.0,
			"-0.019": 0.0,
			"-0.018": 0.0,
			"-0.017": 0.0,
			"-0.016": 0.0,
			"-0.015": 0.0,
			"-0.014": 0.0,
			"-0.013": 0.0,
			"-0.012": 0.0,
			"-0.011": 0.0,
			"-0.01": 0.907967122387,
			"-0.009": 6.51891767025,
			"-0.008": 5.13869288005,
			"-0.007": 5.69357123488,
			"-0.006": 6.63352474737,
			"-0.005": 5.93584899909,
			"-0.004": 16.6287115654,
			"-0.003": 18.7114156447,
			"-0.002": 17.0003403774,
			"-0.001": 18.2583225285,
			"0.0": 20.2196309009,
			"0.001": 11.4620206752,
			"0.002": 4.5567717327,
			"0.003": 4.06723640374,
			"0.004": 2.3638941987,
			"0.005": 4.1610580779,
			"0.006": 4.18314076593,
			"0.007": 4.03642567225,
			"0.008": 4.69860001713,
			"0.009": 5.4634164902,
			"0.01": 6.55707023829,
			"0.011": 6.2883394418,
			"0.012": 2.81218899866,
			"0.013": 1.46124441608,
			"0.014": 0.0617170504475,
			"0.015": 0.0,
			"0.016": 0.0,
			"0.017": 0.0,
			"0.018": 0.0,
			"0.019": 0.0,
			"0.02": 0.0,
			"0.021": 0.0,
			"0.022": 0.0,
			"0.023": 0.0,
			"0.024": 0.0,
			"0.025": 0.0
		}
	}
}
