{
	 "smiles": "CC(=O)C1=CC(OCC2=CC(=NO2)C(O)=O)=CC=C1", 
	 "Tm": 443.15, 
	 "num_atms": 30, 
	 "gaussian": { 
		 "optdone": 1, 
		 "sigma_profile": "yes", 
		 "theory": "DFT", 
		 "functional": "B3LYP", 
		 "basiset": "6-31G**", 
		 "properties": { 
			 "R2extent": 8974.4831, 
			 "electric_dipole_moment_norm": 5.07797553952, 
			 "electric_quadrupole_moment_norm": 31.7499503211, 
			 "total_energy": -932.828380598, 
			 "HOMO_LUMO_gap": 0.17959, 
			 "cosmo_polarized_energy": -17.72, 
			 "cosmo_cavitation_energy": 36.69, 
			 "cosmo_dispersion_energy": -26.42, 
			 "cosmo_repulsion_energy": 2.03, 
			 "cosmo_total_nonelectrostatic_energy": 12.29, 
			 "SMD_solvation_energy": 8.6 
		},
		"coords": [
			{
				"x": 4.4341374898,
				"y": -3.103455408,
				"z": -1.4677967028,
				"element": "C" 
			},
			{
				"x": 3.4665360881,
				"y": -2.1955219162,
				"z": -0.7301568121,
				"element": "C" 
			},
			{
				"x": 3.7438334231,
				"y": -1.7560428468,
				"z": 0.3758522868,
				"element": "O" 
			},
			{
				"x": 2.1594662416,
				"y": -1.8438290892,
				"z": -1.3816039817,
				"element": "C" 
			},
			{
				"x": 1.293742704,
				"y": -1.0001877633,
				"z": -0.6642034999,
				"element": "C" 
			},
			{
				"x": 0.0676652052,
				"y": -0.6375832141,
				"z": -1.2138391376,
				"element": "C" 
			},
			{
				"x": -0.8476949257,
				"y": 0.1775958079,
				"z": -0.5997327219,
				"element": "O" 
			},
			{
				"x": -0.5286914613,
				"y": 0.6869701433,
				"z": 0.6810031377,
				"element": "C" 
			},
			{
				"x": -1.6840575715,
				"y": 1.5317734648,
				"z": 1.1103972646,
				"element": "C" 
			},
			{
				"x": -2.8729385796,
				"y": 1.863713889,
				"z": 0.5387562654,
				"element": "C" 
			},
			{
				"x": -3.4744726366,
				"y": 2.7028526203,
				"z": 1.515121085,
				"element": "C" 
			},
			{
				"x": -2.712754009,
				"y": 2.8589556214,
				"z": 2.5767305289,
				"element": "N" 
			},
			{
				"x": -1.5702083668,
				"y": 2.1163577956,
				"z": 2.3275079525,
				"element": "O" 
			},
			{
				"x": -4.8048437424,
				"y": 3.3835648634,
				"z": 1.4583807232,
				"element": "C" 
			},
			{
				"x": -5.1083694903,
				"y": 4.1214009113,
				"z": 2.54350567,
				"element": "O" 
			},
			{
				"x": -5.5469082046,
				"y": 3.2783263967,
				"z": 0.5127527908,
				"element": "O" 
			},
			{
				"x": -0.3055905996,
				"y": -1.111948942,
				"z": -2.481410993,
				"element": "C" 
			},
			{
				"x": 0.5535173474,
				"y": -1.945599981,
				"z": -3.1867201217,
				"element": "C" 
			},
			{
				"x": 1.7879748508,
				"y": -2.3165692615,
				"z": -2.6443475195,
				"element": "C" 
			},
			{
				"x": 3.9761763317,
				"y": -4.0758006547,
				"z": -1.6797137306,
				"element": "H" 
			},
			{
				"x": 4.7291467759,
				"y": -2.6653212644,
				"z": -2.4275530341,
				"element": "H" 
			},
			{
				"x": 5.3193689956,
				"y": -3.2473566771,
				"z": -0.8479776009,
				"element": "H" 
			},
			{
				"x": 1.6268880727,
				"y": -0.6607444477,
				"z": 0.3090078511,
				"element": "H" 
			},
			{
				"x": 0.3894933112,
				"y": 1.2922236073,
				"z": 0.6545712143,
				"element": "H" 
			},
			{
				"x": -0.3667673063,
				"y": -0.1241372155,
				"z": 1.4062446126,
				"element": "H" 
			},
			{
				"x": -3.2681765759,
				"y": 1.5673527244,
				"z": -0.4180540878,
				"element": "H" 
			},
			{
				"x": -4.3752355364,
				"y": 4.0685038337,
				"z": 3.1820584496,
				"element": "H" 
			},
			{
				"x": -1.2668867199,
				"y": -0.8143029283,
				"z": -2.887223565,
				"element": "H" 
			},
			{
				"x": 0.2599225863,
				"y": -2.3096331874,
				"z": -4.1665966074,
				"element": "H" 
			},
			{
				"x": 2.4468263028,
				"y": -2.9678568817,
				"z": -3.2077597165,
				"element": "H" 
			}
		],
		 "valence_orbital": [ 
			{
				"type": "occ",
				"energy": -0.28756,
				"method": "rhf"
			},
			{
				"type": "occ",
				"energy": -0.28586,
				"method": "rhf"
			},
			{
				"type": "occ",
				"energy": -0.27101,
				"method": "rhf"
			},
			{
				"type": "occ",
				"energy": -0.25852,
				"method": "rhf"
			},
			{
				"type": "occ",
				"energy": -0.24679,
				"method": "rhf"
			},
			{
				"type": "unocc",
				"energy": -0.0672,
				"method": "rhf"
			},
			{
				"type": "unocc",
				"energy": -0.06309,
				"method": "rhf"
			},
			{
				"type": "unocc",
				"energy": -0.01236,
				"method": "rhf"
			},
			{
				"type": "unocc",
				"energy": -0.00587,
				"method": "rhf"
			},
			{
				"type": "unocc",
				"energy": 0.03212,
				"method": "rhf"
			}
		],
		"cosmo_sigma_profile": { 
			"-0.025": 0.0,
			"-0.024": 0.0,
			"-0.023": 0.0,
			"-0.022": 0.0,
			"-0.021": 0.0,
			"-0.02": 0.0,
			"-0.019": 0.0,
			"-0.018": 0.0,
			"-0.017": 0.0736141863585,
			"-0.016": 0.561590050275,
			"-0.015": 0.462174533829,
			"-0.014": 0.725338033316,
			"-0.013": 0.42625134676,
			"-0.012": 1.35339407106,
			"-0.011": 0.639433585134,
			"-0.01": 0.357459177368,
			"-0.009": 3.5596733831,
			"-0.008": 11.5791354284,
			"-0.007": 10.7152599981,
			"-0.006": 20.2167144503,
			"-0.005": 19.4737109028,
			"-0.004": 17.9839907755,
			"-0.003": 19.197643848,
			"-0.002": 21.1227174205,
			"-0.001": 20.7702475014,
			"0.0": 16.4927339416,
			"0.001": 15.6198317975,
			"0.002": 18.629098972,
			"0.003": 19.7262061283,
			"0.004": 14.7282843163,
			"0.005": 9.71636960146,
			"0.006": 8.81413410705,
			"0.007": 5.78045194114,
			"0.008": 6.26628692107,
			"0.009": 7.78853964049,
			"0.01": 6.65723959164,
			"0.011": 8.1164095752,
			"0.012": 5.10230192534,
			"0.013": 1.24225814039,
			"0.014": 0.0834051302441,
			"0.015": 0.0,
			"0.016": 0.0,
			"0.017": 0.0,
			"0.018": 0.0,
			"0.019": 0.0,
			"0.02": 0.0,
			"0.021": 0.0,
			"0.022": 0.0,
			"0.023": 0.0,
			"0.024": 0.0,
			"0.025": 0.0
		}
	}
}
