{
	 "smiles": "BrC1=CC=C2SC=C(C=O)C2=C1", 
	 "Tm": 379.15, 
	 "num_atms": 17, 
	 "gaussian": { 
		 "optdone": 1, 
		 "sigma_profile": "yes", 
		 "theory": "DFT", 
		 "functional": "B3LYP", 
		 "basiset": "6-31G**", 
		 "properties": { 
			 "R2extent": 4002.7023, 
			 "electric_dipole_moment_norm": 3.98907009966, 
			 "electric_quadrupole_moment_norm": 6.97638613395, 
			 "total_energy": -3390.77808691, 
			 "HOMO_LUMO_gap": 0.16713, 
			 "cosmo_polarized_energy": -9.22, 
			 "cosmo_cavitation_energy": 25.67, 
			 "cosmo_dispersion_energy": -19.87, 
			 "cosmo_repulsion_energy": 1.51, 
			 "cosmo_total_nonelectrostatic_energy": 7.31, 
			 "SMD_solvation_energy": 3.88 
		},
		"coords": [
			{
				"x": 3.6649865974,
				"y": 1.1927479831,
				"z": -1.5236105166,
				"element": "Br" 
			},
			{
				"x": 1.821931565,
				"y": 1.0351481979,
				"z": -1.0412270154,
				"element": "C" 
			},
			{
				"x": 0.9486188911,
				"y": 2.080379656,
				"z": -1.3850403688,
				"element": "C" 
			},
			{
				"x": -0.3972620975,
				"y": 1.9970900977,
				"z": -1.048854573,
				"element": "C" 
			},
			{
				"x": -0.8452042284,
				"y": 0.8605115342,
				"z": -0.370117339,
				"element": "C" 
			},
			{
				"x": -2.4908261239,
				"y": 0.5227828343,
				"z": 0.1616115472,
				"element": "S" 
			},
			{
				"x": -1.9955494221,
				"y": -0.9961940941,
				"z": 0.8301260883,
				"element": "C" 
			},
			{
				"x": -0.6603542895,
				"y": -1.2605985241,
				"z": 0.6738849109,
				"element": "C" 
			},
			{
				"x": -0.058592109,
				"y": -2.5014510138,
				"z": 1.1768370433,
				"element": "C" 
			},
			{
				"x": 1.1189054563,
				"y": -2.7983381925,
				"z": 1.0713213754,
				"element": "O" 
			},
			{
				"x": 0.0326257665,
				"y": -0.1924735996,
				"z": -0.0233737346,
				"element": "C" 
			},
			{
				"x": 1.3931443609,
				"y": -0.0984794625,
				"z": -0.3682279271,
				"element": "C" 
			},
			{
				"x": 1.328470037,
				"y": 2.9481186394,
				"z": -1.9114677833,
				"element": "H" 
			},
			{
				"x": -1.0771960685,
				"y": 2.8012434119,
				"z": -1.3115824552,
				"element": "H" 
			},
			{
				"x": -2.7263680448,
				"y": -1.6318139086,
				"z": 1.3145748529,
				"element": "H" 
			},
			{
				"x": -0.775012028,
				"y": -3.1850100083,
				"z": 1.6825033357,
				"element": "H" 
			},
			{
				"x": 2.0701817376,
				"y": -0.9006635508,
				"z": -0.1058574407,
				"element": "H" 
			}
		],
		 "valence_orbital": [ 
			{
				"type": "occ",
				"energy": -0.29539,
				"method": "rhf"
			},
			{
				"type": "occ",
				"energy": -0.2882,
				"method": "rhf"
			},
			{
				"type": "occ",
				"energy": -0.2629,
				"method": "rhf"
			},
			{
				"type": "occ",
				"energy": -0.24939,
				"method": "rhf"
			},
			{
				"type": "occ",
				"energy": -0.23821,
				"method": "rhf"
			},
			{
				"type": "unocc",
				"energy": -0.07108,
				"method": "rhf"
			},
			{
				"type": "unocc",
				"energy": -0.02959,
				"method": "rhf"
			},
			{
				"type": "unocc",
				"energy": -0.02186,
				"method": "rhf"
			},
			{
				"type": "unocc",
				"energy": -0.0045,
				"method": "rhf"
			},
			{
				"type": "unocc",
				"energy": 0.01158,
				"method": "rhf"
			}
		],
		"cosmo_sigma_profile": { 
			"-0.025": 0.0,
			"-0.024": 0.0,
			"-0.023": 0.0,
			"-0.022": 0.0,
			"-0.021": 0.0,
			"-0.02": 0.0,
			"-0.019": 0.0,
			"-0.018": 0.0,
			"-0.017": 0.0,
			"-0.016": 0.0,
			"-0.015": 0.0,
			"-0.014": 0.0,
			"-0.013": 0.0,
			"-0.012": 0.0,
			"-0.011": 0.588721050545,
			"-0.01": 3.27385500554,
			"-0.009": 3.66043219456,
			"-0.008": 5.73366472431,
			"-0.007": 7.78836363379,
			"-0.006": 8.7654085109,
			"-0.005": 7.34300772595,
			"-0.004": 9.5981963425,
			"-0.003": 11.6927824778,
			"-0.002": 10.6537207123,
			"-0.001": 14.7214225355,
			"0.0": 21.1247901562,
			"0.001": 26.4395465484,
			"0.002": 27.9949024063,
			"0.003": 19.1794489605,
			"0.004": 12.357519778,
			"0.005": 7.7276535219,
			"0.006": 1.14863982673,
			"0.007": 1.5844995503,
			"0.008": 1.76769006539,
			"0.009": 1.87751411691,
			"0.01": 2.57431574402,
			"0.011": 2.82508385921,
			"0.012": 1.98394263248,
			"0.013": 0.819398104114,
			"0.014": 0.0,
			"0.015": 0.0,
			"0.016": 0.0,
			"0.017": 0.0,
			"0.018": 0.0,
			"0.019": 0.0,
			"0.02": 0.0,
			"0.021": 0.0,
			"0.022": 0.0,
			"0.023": 0.0,
			"0.024": 0.0,
			"0.025": 0.0
		}
	}
}
