{
	 "smiles": "CC(=O)C(C#N)C1=C(Cl)C=CC=C1Cl", 
	 "Tm": 323.15, 
	 "num_atms": 21, 
	 "gaussian": { 
		 "optdone": 1, 
		 "sigma_profile": "yes", 
		 "theory": "DFT", 
		 "functional": "B3LYP", 
		 "basiset": "6-31G**", 
		 "properties": { 
			 "R2extent": 3370.3843, 
			 "electric_dipole_moment_norm": 7.0035351659, 
			 "electric_quadrupole_moment_norm": 18.3959324972, 
			 "total_energy": -1435.61020816, 
			 "HOMO_LUMO_gap": 0.21169, 
			 "cosmo_polarized_energy": -15.61, 
			 "cosmo_cavitation_energy": 29.7, 
			 "cosmo_dispersion_energy": -20.1, 
			 "cosmo_repulsion_energy": 1.58, 
			 "cosmo_total_nonelectrostatic_energy": 11.18, 
			 "SMD_solvation_energy": 6.65 
		},
		"coords": [
			{
				"x": 1.6815008431,
				"y": 2.1076948232,
				"z": -1.6623204384,
				"element": "C" 
			},
			{
				"x": 2.588331346,
				"y": 1.1999267963,
				"z": -0.8601286141,
				"element": "C" 
			},
			{
				"x": 3.7647840391,
				"y": 1.0606671302,
				"z": -1.0934435255,
				"element": "O" 
			},
			{
				"x": 1.9376578698,
				"y": 0.5049826464,
				"z": 0.3814693295,
				"element": "C" 
			},
			{
				"x": 2.8108833049,
				"y": -0.5352058904,
				"z": 0.9383093275,
				"element": "C" 
			},
			{
				"x": 3.4758386586,
				"y": -1.3541179569,
				"z": 1.4202445133,
				"element": "N" 
			},
			{
				"x": 0.5084616325,
				"y": 0.0125041149,
				"z": 0.1878196675,
				"element": "C" 
			},
			{
				"x": 0.1869719186,
				"y": -0.9957313958,
				"z": -0.741240175,
				"element": "C" 
			},
			{
				"x": 1.4452513332,
				"y": -1.6892620651,
				"z": -1.7450508421,
				"element": "Cl" 
			},
			{
				"x": -1.1128015384,
				"y": -1.4681767783,
				"z": -0.9120468641,
				"element": "C" 
			},
			{
				"x": -2.1419575405,
				"y": -0.9291413464,
				"z": -0.1446090322,
				"element": "C" 
			},
			{
				"x": -1.8738920718,
				"y": 0.0754981915,
				"z": 0.7808034564,
				"element": "C" 
			},
			{
				"x": -0.5652888622,
				"y": 0.5308247916,
				"z": 0.9358324952,
				"element": "C" 
			},
			{
				"x": -0.3014027918,
				"y": 1.8060360307,
				"z": 2.1220425469,
				"element": "Cl" 
			},
			{
				"x": 1.0776629125,
				"y": 2.7454598564,
				"z": -1.0079671823,
				"element": "H" 
			},
			{
				"x": 0.9880409911,
				"y": 1.5089327549,
				"z": -2.2622172765,
				"element": "H" 
			},
			{
				"x": 2.2921412495,
				"y": 2.7199249114,
				"z": -2.3267543089,
				"element": "H" 
			},
			{
				"x": 1.9017995888,
				"y": 1.3066267233,
				"z": 1.1304357282,
				"element": "H" 
			},
			{
				"x": -1.3054110089,
				"y": -2.2482899821,
				"z": -1.6392062086,
				"element": "H" 
			},
			{
				"x": -3.1570912898,
				"y": -1.2921268939,
				"z": -0.2692834491,
				"element": "H" 
			},
			{
				"x": -2.6648805844,
				"y": 0.5059735382,
				"z": 1.3834108524,
				"element": "H" 
			}
		],
		 "valence_orbital": [ 
			{
				"type": "occ",
				"energy": -0.32934,
				"method": "rhf"
			},
			{
				"type": "occ",
				"energy": -0.31906,
				"method": "rhf"
			},
			{
				"type": "occ",
				"energy": -0.2914,
				"method": "rhf"
			},
			{
				"type": "occ",
				"energy": -0.2711,
				"method": "rhf"
			},
			{
				"type": "occ",
				"energy": -0.26479,
				"method": "rhf"
			},
			{
				"type": "unocc",
				"energy": -0.0531,
				"method": "rhf"
			},
			{
				"type": "unocc",
				"energy": -0.04556,
				"method": "rhf"
			},
			{
				"type": "unocc",
				"energy": -0.03523,
				"method": "rhf"
			},
			{
				"type": "unocc",
				"energy": -0.01164,
				"method": "rhf"
			},
			{
				"type": "unocc",
				"energy": 0.03194,
				"method": "rhf"
			}
		],
		"cosmo_sigma_profile": { 
			"-0.025": 0.0,
			"-0.024": 0.0,
			"-0.023": 0.0,
			"-0.022": 0.0,
			"-0.021": 0.0,
			"-0.02": 0.0,
			"-0.019": 0.0,
			"-0.018": 0.0,
			"-0.017": 0.0,
			"-0.016": 0.0,
			"-0.015": 0.0,
			"-0.014": 0.0,
			"-0.013": 0.0,
			"-0.012": 0.349413276784,
			"-0.011": 1.60434233044,
			"-0.01": 1.37475501534,
			"-0.009": 1.97283151212,
			"-0.008": 7.61787600334,
			"-0.007": 9.34647819513,
			"-0.006": 13.6987349986,
			"-0.005": 13.6224942456,
			"-0.004": 15.0332784718,
			"-0.003": 17.154072658,
			"-0.002": 18.3730584727,
			"-0.001": 19.2102754671,
			"0.0": 20.6551818771,
			"0.001": 20.2547543992,
			"0.002": 17.0591615279,
			"0.003": 15.3978952099,
			"0.004": 7.47918279939,
			"0.005": 4.36747939221,
			"0.006": 4.61820344812,
			"0.007": 5.40900881471,
			"0.008": 6.26726351331,
			"0.009": 6.70356917884,
			"0.01": 6.95396731658,
			"0.011": 5.39895302358,
			"0.012": 2.3389166289,
			"0.013": 0.806751096275,
			"0.014": 0.0,
			"0.015": 0.0,
			"0.016": 0.0,
			"0.017": 0.0,
			"0.018": 0.0,
			"0.019": 0.0,
			"0.02": 0.0,
			"0.021": 0.0,
			"0.022": 0.0,
			"0.023": 0.0,
			"0.024": 0.0,
			"0.025": 0.0
		}
	}
}
