{
	 "smiles": "CNC(=O)C1=CC=C(N)C=C1", 
	 "Tm": 451.15, 
	 "num_atms": 21, 
	 "gaussian": { 
		 "optdone": 1, 
		 "sigma_profile": "yes", 
		 "theory": "DFT", 
		 "functional": "B3LYP", 
		 "basiset": "6-31G**", 
		 "properties": { 
			 "R2extent": 2264.2087, 
			 "electric_dipole_moment_norm": 4.86377594673, 
			 "electric_quadrupole_moment_norm": 17.047871534, 
			 "total_energy": -495.627467145, 
			 "HOMO_LUMO_gap": 0.19121, 
			 "cosmo_polarized_energy": -17.08, 
			 "cosmo_cavitation_energy": 24.8, 
			 "cosmo_dispersion_energy": -18.55, 
			 "cosmo_repulsion_energy": 1.5, 
			 "cosmo_total_nonelectrostatic_energy": 7.76, 
			 "SMD_solvation_energy": 4.59 
		},
		"coords": [
			{
				"x": 0.2144393893,
				"y": -3.1409622894,
				"z": 2.3672714586,
				"element": "C" 
			},
			{
				"x": -0.0029394636,
				"y": -2.111024728,
				"z": 1.3679401852,
				"element": "N" 
			},
			{
				"x": 0.8243703449,
				"y": -1.017446174,
				"z": 1.2763586552,
				"element": "C" 
			},
			{
				"x": 1.819501274,
				"y": -0.8926315074,
				"z": 1.9884058908,
				"element": "O" 
			},
			{
				"x": 0.45116313,
				"y": 0.0114998435,
				"z": 0.2553548273,
				"element": "C" 
			},
			{
				"x": 1.0349852221,
				"y": 1.2819440398,
				"z": 0.3712926992,
				"element": "C" 
			},
			{
				"x": 0.7398596917,
				"y": 2.2953267068,
				"z": -0.528518717,
				"element": "C" 
			},
			{
				"x": -0.14853368,
				"y": 2.0673871863,
				"z": -1.5972131322,
				"element": "C" 
			},
			{
				"x": -0.4057211969,
				"y": 3.0622799645,
				"z": -2.5325211415,
				"element": "N" 
			},
			{
				"x": -0.7202638201,
				"y": 0.7886698288,
				"z": -1.7309587825,
				"element": "C" 
			},
			{
				"x": -0.4215943894,
				"y": -0.2173257292,
				"z": -0.8190963735,
				"element": "C" 
			},
			{
				"x": 1.2643629628,
				"y": -3.1037950918,
				"z": 2.6581081662,
				"element": "H" 
			},
			{
				"x": -0.0157214394,
				"y": -4.1276447904,
				"z": 1.9531332518,
				"element": "H" 
			},
			{
				"x": -0.3964596882,
				"y": -2.9850651581,
				"z": 3.2663770195,
				"element": "H" 
			},
			{
				"x": -0.9125591268,
				"y": -2.0547821663,
				"z": 0.9375805358,
				"element": "H" 
			},
			{
				"x": 1.7268775652,
				"y": 1.4507591621,
				"z": 1.1896382254,
				"element": "H" 
			},
			{
				"x": 1.2006083258,
				"y": 3.2738602159,
				"z": -0.4164982097,
				"element": "H" 
			},
			{
				"x": -1.2629209189,
				"y": 2.9685123015,
				"z": -3.0581016282,
				"element": "H" 
			},
			{
				"x": -0.2338936239,
				"y": 4.0101765891,
				"z": -2.2294071259,
				"element": "H" 
			},
			{
				"x": -1.3872357394,
				"y": 0.5849366835,
				"z": -2.5650120528,
				"element": "H" 
			},
			{
				"x": -0.8549248195,
				"y": -1.2011748872,
				"z": -0.9784337516,
				"element": "H" 
			}
		],
		 "valence_orbital": [ 
			{
				"type": "occ",
				"energy": -0.30652,
				"method": "rhf"
			},
			{
				"type": "occ",
				"energy": -0.25252,
				"method": "rhf"
			},
			{
				"type": "occ",
				"energy": -0.24554,
				"method": "rhf"
			},
			{
				"type": "occ",
				"energy": -0.23389,
				"method": "rhf"
			},
			{
				"type": "occ",
				"energy": -0.2069,
				"method": "rhf"
			},
			{
				"type": "unocc",
				"energy": -0.01569,
				"method": "rhf"
			},
			{
				"type": "unocc",
				"energy": -0.00112,
				"method": "rhf"
			},
			{
				"type": "unocc",
				"energy": 0.06976,
				"method": "rhf"
			},
			{
				"type": "unocc",
				"energy": 0.08084,
				"method": "rhf"
			},
			{
				"type": "unocc",
				"energy": 0.08786,
				"method": "rhf"
			}
		],
		"cosmo_sigma_profile": { 
			"-0.025": 0.0,
			"-0.024": 0.0,
			"-0.023": 0.0,
			"-0.022": 0.0,
			"-0.021": 0.0,
			"-0.02": 0.0,
			"-0.019": 0.0,
			"-0.018": 0.0,
			"-0.017": 0.0,
			"-0.016": 0.0,
			"-0.015": 0.0,
			"-0.014": 0.454412666835,
			"-0.013": 2.47766410642,
			"-0.012": 4.20177662951,
			"-0.011": 3.87110338411,
			"-0.01": 4.2868600682,
			"-0.009": 4.68146162766,
			"-0.008": 3.70471864123,
			"-0.007": 5.73772830167,
			"-0.006": 6.37461310613,
			"-0.005": 9.36594603737,
			"-0.004": 13.8225167719,
			"-0.003": 13.81350953,
			"-0.002": 13.9225283632,
			"-0.001": 12.3127818405,
			"0.0": 9.73025679231,
			"0.001": 8.88763418028,
			"0.002": 9.14455752086,
			"0.003": 10.3922246739,
			"0.004": 10.4622182619,
			"0.005": 14.6870776461,
			"0.006": 9.85400890756,
			"0.007": 3.10244746531,
			"0.008": 2.22846397789,
			"0.009": 2.3640903109,
			"0.01": 2.19364857302,
			"0.011": 2.3508777892,
			"0.012": 2.08823143751,
			"0.013": 2.7082595309,
			"0.014": 5.06769401944,
			"0.015": 2.18836134914,
			"0.016": 0.0,
			"0.017": 0.0,
			"0.018": 0.0,
			"0.019": 0.0,
			"0.02": 0.0,
			"0.021": 0.0,
			"0.022": 0.0,
			"0.023": 0.0,
			"0.024": 0.0,
			"0.025": 0.0
		}
	}
}
