{
	 "smiles": "OC(=O)CSC1=NN=CN1C1CC1", 
	 "Tm": 477.15, 
	 "num_atms": 22, 
	 "gaussian": { 
		 "optdone": 1, 
		 "sigma_profile": "yes", 
		 "theory": "DFT", 
		 "functional": "B3LYP", 
		 "basiset": "6-31G**", 
		 "properties": { 
			 "R2extent": 3035.1793, 
			 "electric_dipole_moment_norm": 4.05735605906, 
			 "electric_quadrupole_moment_norm": 17.8761625197, 
			 "total_energy": -985.004865331, 
			 "HOMO_LUMO_gap": 0.22148, 
			 "cosmo_polarized_energy": -19.25, 
			 "cosmo_cavitation_energy": 27.82, 
			 "cosmo_dispersion_energy": -20.11, 
			 "cosmo_repulsion_energy": 1.56, 
			 "cosmo_total_nonelectrostatic_energy": 9.27, 
			 "SMD_solvation_energy": 3.6 
		},
		"coords": [
			{
				"x": 0.4511642057,
				"y": -2.2259278799,
				"z": 2.5145886059,
				"element": "O" 
			},
			{
				"x": -0.1594292191,
				"y": -1.6054879856,
				"z": 1.4808267304,
				"element": "C" 
			},
			{
				"x": 0.3198147071,
				"y": -1.5459179766,
				"z": 0.3718360398,
				"element": "O" 
			},
			{
				"x": -1.4792994355,
				"y": -1.0105673251,
				"z": 1.9459792196,
				"element": "C" 
			},
			{
				"x": -2.4948714165,
				"y": -0.3026775535,
				"z": 0.608738974,
				"element": "S" 
			},
			{
				"x": -1.5539678753,
				"y": 1.1690852814,
				"z": 0.3390608454,
				"element": "C" 
			},
			{
				"x": -1.0428271068,
				"y": 1.929281868,
				"z": 1.2819367772,
				"element": "N" 
			},
			{
				"x": -0.3895509827,
				"y": 2.9756855722,
				"z": 0.6608628549,
				"element": "N" 
			},
			{
				"x": -0.5465225691,
				"y": 2.814847859,
				"z": -0.6292330012,
				"element": "C" 
			},
			{
				"x": -1.2633951883,
				"y": 1.6776466172,
				"z": -0.9064692336,
				"element": "N" 
			},
			{
				"x": -1.6192186517,
				"y": 1.1600253003,
				"z": -2.2040608096,
				"element": "C" 
			},
			{
				"x": -0.5354541426,
				"y": 1.033663935,
				"z": -3.2475596265,
				"element": "C" 
			},
			{
				"x": -1.1109988979,
				"y": -0.2007113014,
				"z": -2.6056311168,
				"element": "C" 
			},
			{
				"x": 1.298846514,
				"y": -2.5597404892,
				"z": 2.1750988051,
				"element": "H" 
			},
			{
				"x": -1.2740146691,
				"y": -0.2296925572,
				"z": 2.6829935088,
				"element": "H" 
			},
			{
				"x": -2.0783870647,
				"y": -1.7839100677,
				"z": 2.434218387,
				"element": "H" 
			},
			{
				"x": -0.1731728556,
				"y": 3.4720061428,
				"z": -1.4011995765,
				"element": "H" 
			},
			{
				"x": -2.610303917,
				"y": 1.457743495,
				"z": -2.536675394,
				"element": "H" 
			},
			{
				"x": 0.4710644054,
				"y": 1.3223896057,
				"z": -2.9625777713,
				"element": "H" 
			},
			{
				"x": -0.8029372637,
				"y": 1.2737110983,
				"z": -4.2715880488,
				"element": "H" 
			},
			{
				"x": -0.5041851116,
				"y": -0.7279805655,
				"z": -1.8772117134,
				"element": "H" 
			},
			{
				"x": -1.784153465,
				"y": -0.8260730733,
				"z": -3.1829344564,
				"element": "H" 
			}
		],
		 "valence_orbital": [ 
			{
				"type": "occ",
				"energy": -0.29258,
				"method": "rhf"
			},
			{
				"type": "occ",
				"energy": -0.2866,
				"method": "rhf"
			},
			{
				"type": "occ",
				"energy": -0.2824,
				"method": "rhf"
			},
			{
				"type": "occ",
				"energy": -0.25095,
				"method": "rhf"
			},
			{
				"type": "occ",
				"energy": -0.22979,
				"method": "rhf"
			},
			{
				"type": "unocc",
				"energy": -0.00831,
				"method": "rhf"
			},
			{
				"type": "unocc",
				"energy": 0.00178,
				"method": "rhf"
			},
			{
				"type": "unocc",
				"energy": 0.02584,
				"method": "rhf"
			},
			{
				"type": "unocc",
				"energy": 0.04544,
				"method": "rhf"
			},
			{
				"type": "unocc",
				"energy": 0.06487,
				"method": "rhf"
			}
		],
		"cosmo_sigma_profile": { 
			"-0.025": 0.0,
			"-0.024": 0.0,
			"-0.023": 0.0,
			"-0.022": 0.0,
			"-0.021": 0.0,
			"-0.02": 0.0,
			"-0.019": 0.525980454876,
			"-0.018": 0.660395898477,
			"-0.017": 1.1775213179,
			"-0.016": 1.10878054819,
			"-0.015": 0.865638520301,
			"-0.014": 0.538193421289,
			"-0.013": 0.0440538559604,
			"-0.012": 0.590908473103,
			"-0.011": 1.16276549278,
			"-0.01": 3.08536419253,
			"-0.009": 4.88562015529,
			"-0.008": 6.15542583127,
			"-0.007": 9.69050072323,
			"-0.006": 14.8487495172,
			"-0.005": 15.7770458986,
			"-0.004": 14.6810552907,
			"-0.003": 12.4104315572,
			"-0.002": 12.264850206,
			"-0.001": 13.9623172068,
			"0.0": 12.5041940582,
			"0.001": 10.6898884905,
			"0.002": 10.7215190734,
			"0.003": 10.0557081615,
			"0.004": 11.2810527449,
			"0.005": 7.48180339612,
			"0.006": 7.73437243789,
			"0.007": 6.72532107367,
			"0.008": 6.16620426394,
			"0.009": 4.64572943456,
			"0.01": 3.98643230206,
			"0.011": 3.86358756462,
			"0.012": 2.51930731929,
			"0.013": 3.48435150215,
			"0.014": 3.24243646406,
			"0.015": 2.2984036693,
			"0.016": 1.20830436838,
			"0.017": 0.359662616843,
			"0.018": 0.0,
			"0.019": 0.0,
			"0.02": 0.0,
			"0.021": 0.0,
			"0.022": 0.0,
			"0.023": 0.0,
			"0.024": 0.0,
			"0.025": 0.0
		}
	}
}
