{
	 "smiles": "OC(=O)C1=NC(OC2=CC(Cl)=C(Cl)C=C2)=CC=C1", 
	 "Tm": 412.15, 
	 "num_atms": 25, 
	 "gaussian": { 
		 "optdone": 1, 
		 "sigma_profile": "yes", 
		 "theory": "DFT", 
		 "functional": "B3LYP", 
		 "basiset": "6-31G**", 
		 "properties": { 
			 "R2extent": 8595.4269, 
			 "electric_dipole_moment_norm": 4.6398945516, 
			 "electric_quadrupole_moment_norm": 34.0379540137, 
			 "total_energy": -1662.30643413, 
			 "HOMO_LUMO_gap": 0.18458, 
			 "cosmo_polarized_energy": -14.86, 
			 "cosmo_cavitation_energy": 34.84, 
			 "cosmo_dispersion_energy": -25.48, 
			 "cosmo_repulsion_energy": 1.98, 
			 "cosmo_total_nonelectrostatic_energy": 11.34, 
			 "SMD_solvation_energy": 6.06 
		},
		"coords": [
			{
				"x": 3.4318492878,
				"y": -0.3129723283,
				"z": -3.5698462456,
				"element": "O" 
			},
			{
				"x": 4.0617605303,
				"y": -0.4385130639,
				"z": -2.3927291007,
				"element": "C" 
			},
			{
				"x": 5.2664628042,
				"y": -0.4374381121,
				"z": -2.2793502797,
				"element": "O" 
			},
			{
				"x": 3.1280488669,
				"y": -0.5815838413,
				"z": -1.2139249723,
				"element": "C" 
			},
			{
				"x": 1.8187016233,
				"y": -0.5554619683,
				"z": -1.5097709841,
				"element": "N" 
			},
			{
				"x": 0.9482494201,
				"y": -0.677698528,
				"z": -0.5162128175,
				"element": "C" 
			},
			{
				"x": -0.3548217354,
				"y": -0.6691635996,
				"z": -0.9345908716,
				"element": "O" 
			},
			{
				"x": -1.3820966169,
				"y": -0.5257262443,
				"z": -0.0161107434,
				"element": "C" 
			},
			{
				"x": -2.2447190386,
				"y": -1.6016563041,
				"z": 0.1710893826,
				"element": "C" 
			},
			{
				"x": -3.3435717885,
				"y": -1.4651628553,
				"z": 1.0225575797,
				"element": "C" 
			},
			{
				"x": -4.4074953961,
				"y": -2.830211174,
				"z": 1.2324287421,
				"element": "Cl" 
			},
			{
				"x": -3.5680462355,
				"y": -0.2513161991,
				"z": 1.6877157397,
				"element": "C" 
			},
			{
				"x": -4.9241347748,
				"y": -0.0365767286,
				"z": 2.7631298468,
				"element": "Cl" 
			},
			{
				"x": -2.6910688464,
				"y": 0.8186270193,
				"z": 1.4851362995,
				"element": "C" 
			},
			{
				"x": -1.5989574,
				"y": 0.6911970394,
				"z": 0.6323702215,
				"element": "C" 
			},
			{
				"x": 1.3339726569,
				"y": -0.8371930262,
				"z": 0.8243318692,
				"element": "C" 
			},
			{
				"x": 2.6960487558,
				"y": -0.8579272326,
				"z": 1.1101600232,
				"element": "C" 
			},
			{
				"x": 3.6255450974,
				"y": -0.725941107,
				"z": 0.0768601387,
				"element": "C" 
			},
			{
				"x": 2.4717884333,
				"y": -0.3450732999,
				"z": -3.3771674727,
				"element": "H" 
			},
			{
				"x": -2.0668964927,
				"y": -2.5343200912,
				"z": -0.3506821974,
				"element": "H" 
			},
			{
				"x": -2.8800286323,
				"y": 1.7557589087,
				"z": 1.9964747933,
				"element": "H" 
			},
			{
				"x": -0.9288432171,
				"y": 1.5266040862,
				"z": 0.4615047623,
				"element": "H" 
			},
			{
				"x": 0.5931248959,
				"y": -0.9466597984,
				"z": 1.6063015776,
				"element": "H" 
			},
			{
				"x": 3.0271994681,
				"y": -0.9824513209,
				"z": 2.1367750495,
				"element": "H" 
			},
			{
				"x": 4.6960283342,
				"y": -0.7349402305,
				"z": 0.2399496596,
				"element": "H" 
			}
		],
		 "valence_orbital": [ 
			{
				"type": "occ",
				"energy": -0.31249,
				"method": "rhf"
			},
			{
				"type": "occ",
				"energy": -0.28181,
				"method": "rhf"
			},
			{
				"type": "occ",
				"energy": -0.27435,
				"method": "rhf"
			},
			{
				"type": "occ",
				"energy": -0.27127,
				"method": "rhf"
			},
			{
				"type": "occ",
				"energy": -0.25795,
				"method": "rhf"
			},
			{
				"type": "unocc",
				"energy": -0.07337,
				"method": "rhf"
			},
			{
				"type": "unocc",
				"energy": -0.0464,
				"method": "rhf"
			},
			{
				"type": "unocc",
				"energy": -0.04266,
				"method": "rhf"
			},
			{
				"type": "unocc",
				"energy": -0.03298,
				"method": "rhf"
			},
			{
				"type": "unocc",
				"energy": -0.01259,
				"method": "rhf"
			}
		],
		"cosmo_sigma_profile": { 
			"-0.025": 0.0,
			"-0.024": 0.0,
			"-0.023": 0.0,
			"-0.022": 0.0,
			"-0.021": 0.0,
			"-0.02": 0.0,
			"-0.019": 0.0,
			"-0.018": 0.0,
			"-0.017": 0.0,
			"-0.016": 0.0,
			"-0.015": 0.0,
			"-0.014": 0.0,
			"-0.013": 0.369253437818,
			"-0.012": 0.638111184241,
			"-0.011": 0.750515829159,
			"-0.01": 0.482146402653,
			"-0.009": 3.06758084049,
			"-0.008": 10.7931806182,
			"-0.007": 11.8995155732,
			"-0.006": 13.3602226615,
			"-0.005": 12.3444343816,
			"-0.004": 15.0877087655,
			"-0.003": 15.3901625922,
			"-0.002": 20.2457974819,
			"-0.001": 25.1765376424,
			"0.0": 34.9036407108,
			"0.001": 27.7734945587,
			"0.002": 15.2861003029,
			"0.003": 18.7853276248,
			"0.004": 18.1927814501,
			"0.005": 7.35202281748,
			"0.006": 3.95638365622,
			"0.007": 4.21879763397,
			"0.008": 4.54520842231,
			"0.009": 5.74694053747,
			"0.01": 5.65492136094,
			"0.011": 5.12650510776,
			"0.012": 3.63261711219,
			"0.013": 1.01220885843,
			"0.014": 0.0,
			"0.015": 0.0,
			"0.016": 0.0,
			"0.017": 0.0,
			"0.018": 0.0,
			"0.019": 0.0,
			"0.02": 0.0,
			"0.021": 0.0,
			"0.022": 0.0,
			"0.023": 0.0,
			"0.024": 0.0,
			"0.025": 0.0
		}
	}
}
