{
	 "smiles": "CC(=O)NCCNC(=O)CCC(O)=O", 
	 "Tm": 440.15, 
	 "num_atms": 28, 
	 "gaussian": { 
		 "optdone": 1, 
		 "sigma_profile": "yes", 
		 "theory": "DFT", 
		 "functional": "B3LYP", 
		 "basiset": "6-31G**", 
		 "properties": { 
			 "R2extent": 3212.9341, 
			 "electric_dipole_moment_norm": 4.37061265614, 
			 "electric_quadrupole_moment_norm": 19.755742859, 
			 "total_energy": -723.73297695, 
			 "HOMO_LUMO_gap": 0.24243, 
			 "cosmo_polarized_energy": -22.44, 
			 "cosmo_cavitation_energy": 29.49, 
			 "cosmo_dispersion_energy": -20.93, 
			 "cosmo_repulsion_energy": 1.64, 
			 "cosmo_total_nonelectrostatic_energy": 10.19, 
			 "SMD_solvation_energy": 6.27 
		},
		"coords": [
			{
				"x": 1.6292356591,
				"y": 0.5019455615,
				"z": -3.6675376485,
				"element": "C" 
			},
			{
				"x": 0.5477734068,
				"y": -0.2078214109,
				"z": -2.8789870597,
				"element": "C" 
			},
			{
				"x": -0.6111402352,
				"y": 0.226107723,
				"z": -2.8321471404,
				"element": "O" 
			},
			{
				"x": 0.8739778447,
				"y": -1.3445883616,
				"z": -2.2006188613,
				"element": "N" 
			},
			{
				"x": 2.1795470342,
				"y": -1.7709918898,
				"z": -1.7194014185,
				"element": "C" 
			},
			{
				"x": 2.3083661699,
				"y": -1.559529502,
				"z": -0.1948059551,
				"element": "C" 
			},
			{
				"x": 1.2347074576,
				"y": -2.2298052405,
				"z": 0.5217697866,
				"element": "N" 
			},
			{
				"x": 0.3281691947,
				"y": -1.7372989581,
				"z": 1.4435009856,
				"element": "C" 
			},
			{
				"x": -0.4185562604,
				"y": -2.5135603156,
				"z": 2.0240332637,
				"element": "O" 
			},
			{
				"x": 0.2754898985,
				"y": -0.2348115398,
				"z": 1.7088965378,
				"element": "C" 
			},
			{
				"x": -0.3250320211,
				"y": 0.6247525689,
				"z": 0.5711408048,
				"element": "C" 
			},
			{
				"x": 0.6629268845,
				"y": 1.6415534359,
				"z": -0.0017775063,
				"element": "C" 
			},
			{
				"x": 0.2911391023,
				"y": 2.249363145,
				"z": -1.1449447421,
				"element": "O" 
			},
			{
				"x": 1.7072193195,
				"y": 1.9405782708,
				"z": 0.5364253141,
				"element": "O" 
			},
			{
				"x": 2.1636216866,
				"y": 1.1976772114,
				"z": -3.0115685929,
				"element": "H" 
			},
			{
				"x": 1.1403371038,
				"y": 1.088874761,
				"z": -4.4456014879,
				"element": "H" 
			},
			{
				"x": 2.3492736679,
				"y": -0.1824870052,
				"z": -4.1219120661,
				"element": "H" 
			},
			{
				"x": 0.0890396446,
				"y": -1.7348319694,
				"z": -1.6901506703,
				"element": "H" 
			},
			{
				"x": 2.3258683652,
				"y": -2.8326785659,
				"z": -1.9574727318,
				"element": "H" 
			},
			{
				"x": 2.9646998187,
				"y": -1.2136084534,
				"z": -2.2336310713,
				"element": "H" 
			},
			{
				"x": 3.2865617209,
				"y": -1.9395350039,
				"z": 0.1311207472,
				"element": "H" 
			},
			{
				"x": 2.2853977543,
				"y": -0.493171714,
				"z": 0.0364416513,
				"element": "H" 
			},
			{
				"x": 1.2270290262,
				"y": -3.2434033665,
				"z": 0.5043034645,
				"element": "H" 
			},
			{
				"x": -0.3348647778,
				"y": -0.1441177346,
				"z": 2.6077058242,
				"element": "H" 
			},
			{
				"x": 1.2690922218,
				"y": 0.1599142356,
				"z": 1.9451167096,
				"element": "H" 
			},
			{
				"x": -0.7467159578,
				"y": 0.0264167321,
				"z": -0.2429052344,
				"element": "H" 
			},
			{
				"x": -1.1669344958,
				"y": 1.2133065168,
				"z": 0.9561019006,
				"element": "H" 
			},
			{
				"x": -0.3880292338,
				"y": 1.733450869,
				"z": -1.6260948033,
				"element": "H" 
			}
		],
		 "valence_orbital": [ 
			{
				"type": "occ",
				"energy": -0.28481,
				"method": "rhf"
			},
			{
				"type": "occ",
				"energy": -0.27519,
				"method": "rhf"
			},
			{
				"type": "occ",
				"energy": -0.27088,
				"method": "rhf"
			},
			{
				"type": "occ",
				"energy": -0.26137,
				"method": "rhf"
			},
			{
				"type": "occ",
				"energy": -0.25238,
				"method": "rhf"
			},
			{
				"type": "unocc",
				"energy": -0.00995,
				"method": "rhf"
			},
			{
				"type": "unocc",
				"energy": 0.0064,
				"method": "rhf"
			},
			{
				"type": "unocc",
				"energy": 0.01832,
				"method": "rhf"
			},
			{
				"type": "unocc",
				"energy": 0.05912,
				"method": "rhf"
			},
			{
				"type": "unocc",
				"energy": 0.07914,
				"method": "rhf"
			}
		],
		"cosmo_sigma_profile": { 
			"-0.025": 0.0,
			"-0.024": 0.0,
			"-0.023": 0.0,
			"-0.022": 0.0,
			"-0.021": 0.0,
			"-0.02": 0.0,
			"-0.019": 0.0,
			"-0.018": 0.0,
			"-0.017": 0.0,
			"-0.016": 0.00150746501216,
			"-0.015": 0.00407205601453,
			"-0.014": 0.274933935796,
			"-0.013": 1.07164832112,
			"-0.012": 1.58949258054,
			"-0.011": 2.06032548472,
			"-0.01": 3.36421552706,
			"-0.009": 3.83714970931,
			"-0.008": 6.25809672576,
			"-0.007": 12.6945342269,
			"-0.006": 17.9063543183,
			"-0.005": 22.4579715506,
			"-0.004": 19.175318282,
			"-0.003": 18.0092250175,
			"-0.002": 17.5614634418,
			"-0.001": 11.8764502693,
			"0.0": 7.89184978033,
			"0.001": 7.66271416535,
			"0.002": 6.87888085926,
			"0.003": 6.21680033801,
			"0.004": 4.78569009886,
			"0.005": 4.57992801566,
			"0.006": 4.52179309689,
			"0.007": 4.69001174373,
			"0.008": 4.83713333486,
			"0.009": 4.34102283745,
			"0.01": 5.7855018692,
			"0.011": 6.32557833622,
			"0.012": 8.09665109405,
			"0.013": 8.77011917673,
			"0.014": 6.24060071518,
			"0.015": 1.21134559217,
			"0.016": 0.000405888264415,
			"0.017": 0.0,
			"0.018": 0.0,
			"0.019": 0.0,
			"0.02": 0.0,
			"0.021": 0.0,
			"0.022": 0.0,
			"0.023": 0.0,
			"0.024": 0.0,
			"0.025": 0.0
		}
	}
}
