{
	 "smiles": "[O-][N+](=O)C1=CC=C(C=CC2=CC=CC3=C2C=CC=C3)C(=C1)[N+]([O-])=O", 
	 "Tm": 501.15, 
	 "num_atms": 36, 
	 "gaussian": { 
		 "optdone": 1, 
		 "sigma_profile": "yes", 
		 "theory": "DFT", 
		 "functional": "B3LYP", 
		 "basiset": "6-31G**", 
		 "properties": { 
			 "R2extent": 8819.0318, 
			 "electric_dipole_moment_norm": 5.25881071251, 
			 "electric_quadrupole_moment_norm": 29.3760426738, 
			 "total_energy": -1103.3330545, 
			 "HOMO_LUMO_gap": 0.11102, 
			 "cosmo_polarized_energy": -13.67, 
			 "cosmo_cavitation_energy": 41.62, 
			 "cosmo_dispersion_energy": -28.15, 
			 "cosmo_repulsion_energy": 2.12, 
			 "cosmo_total_nonelectrostatic_energy": 15.58, 
			 "SMD_solvation_energy": 10.93 
		},
		"coords": [
			{
				"x": 1.2948316833,
				"y": -1.1573190682,
				"z": -6.0730229767,
				"element": "O" 
			},
			{
				"x": 1.845820153,
				"y": -1.4230477935,
				"z": -5.0068174957,
				"element": "N" 
			},
			{
				"x": 3.0545967541,
				"y": -1.5952470382,
				"z": -4.8575139933,
				"element": "O" 
			},
			{
				"x": 0.9949439899,
				"y": -1.545670924,
				"z": -3.8130134582,
				"element": "C" 
			},
			{
				"x": 1.5799609377,
				"y": -1.8404038072,
				"z": -2.5814597749,
				"element": "C" 
			},
			{
				"x": 0.7658546694,
				"y": -1.9625514231,
				"z": -1.4644634858,
				"element": "C" 
			},
			{
				"x": -0.630688706,
				"y": -1.7773252123,
				"z": -1.5281179876,
				"element": "C" 
			},
			{
				"x": -1.4535349787,
				"y": -2.0153752325,
				"z": -0.3279547304,
				"element": "C" 
			},
			{
				"x": -1.1626773775,
				"y": -1.6549978475,
				"z": 0.9361788777,
				"element": "C" 
			},
			{
				"x": -0.0475468534,
				"y": -0.8175787879,
				"z": 1.437722288,
				"element": "C" 
			},
			{
				"x": 0.7435522078,
				"y": -1.3323265586,
				"z": 2.4547981583,
				"element": "C" 
			},
			{
				"x": 1.8444420015,
				"y": -0.6161495006,
				"z": 2.9723921897,
				"element": "C" 
			},
			{
				"x": 2.1420485571,
				"y": 0.6350368487,
				"z": 2.4839521664,
				"element": "C" 
			},
			{
				"x": 1.3351764753,
				"y": 1.2312221197,
				"z": 1.478994265,
				"element": "C" 
			},
			{
				"x": 0.2120460451,
				"y": 0.510212178,
				"z": 0.9480856616,
				"element": "C" 
			},
			{
				"x": -0.6142144123,
				"y": 1.1631941051,
				"z": -0.0093403471,
				"element": "C" 
			},
			{
				"x": -0.3258586254,
				"y": 2.4385063154,
				"z": -0.4425109574,
				"element": "C" 
			},
			{
				"x": 0.8025106253,
				"y": 3.1327068389,
				"z": 0.0551357843,
				"element": "C" 
			},
			{
				"x": 1.6091790072,
				"y": 2.5410982256,
				"z": 0.9987881311,
				"element": "C" 
			},
			{
				"x": -1.1630000626,
				"y": -1.4752751071,
				"z": -2.8018588901,
				"element": "C" 
			},
			{
				"x": -0.3737056333,
				"y": -1.3680322423,
				"z": -3.9433068474,
				"element": "C" 
			},
			{
				"x": -2.6021718077,
				"y": -1.2127923186,
				"z": -2.9888192514,
				"element": "N" 
			},
			{
				"x": -3.0538271148,
				"y": -1.3140427607,
				"z": -4.1268630714,
				"element": "O" 
			},
			{
				"x": -3.2633330706,
				"y": -0.890277495,
				"z": -2.0001999708,
				"element": "O" 
			},
			{
				"x": 2.6518396864,
				"y": -1.9816999493,
				"z": -2.5210109952,
				"element": "H" 
			},
			{
				"x": 1.2060086922,
				"y": -2.2218544871,
				"z": -0.509366016,
				"element": "H" 
			},
			{
				"x": -2.374421134,
				"y": -2.5665616287,
				"z": -0.4902115549,
				"element": "H" 
			},
			{
				"x": -1.8370494797,
				"y": -2.0302395068,
				"z": 1.705414718,
				"element": "H" 
			},
			{
				"x": 0.5231870694,
				"y": -2.3225703402,
				"z": 2.8453175813,
				"element": "H" 
			},
			{
				"x": 2.4535538684,
				"y": -1.0612602017,
				"z": 3.7534352586,
				"element": "H" 
			},
			{
				"x": 2.990247476,
				"y": 1.1927940611,
				"z": 2.8721138478,
				"element": "H" 
			},
			{
				"x": -1.4927670624,
				"y": 0.6538764375,
				"z": -0.3887446917,
				"element": "H" 
			},
			{
				"x": -0.9753235461,
				"y": 2.9197418277,
				"z": -1.1679955087,
				"element": "H" 
			},
			{
				"x": 1.020480067,
				"y": 4.1354310363,
				"z": -0.3005001975,
				"element": "H" 
			},
			{
				"x": 2.4677180743,
				"y": 3.0718610824,
				"z": 1.4020949986,
				"element": "H" 
			},
			{
				"x": -0.8181781757,
				"y": -1.1429818452,
				"z": -4.9029317247,
				"element": "H" 
			}
		],
		 "valence_orbital": [ 
			{
				"type": "occ",
				"energy": -0.3008,
				"method": "rhf"
			},
			{
				"type": "occ",
				"energy": -0.2957,
				"method": "rhf"
			},
			{
				"type": "occ",
				"energy": -0.26365,
				"method": "rhf"
			},
			{
				"type": "occ",
				"energy": -0.25451,
				"method": "rhf"
			},
			{
				"type": "occ",
				"energy": -0.22192,
				"method": "rhf"
			},
			{
				"type": "unocc",
				"energy": -0.1109,
				"method": "rhf"
			},
			{
				"type": "unocc",
				"energy": -0.09874,
				"method": "rhf"
			},
			{
				"type": "unocc",
				"energy": -0.05704,
				"method": "rhf"
			},
			{
				"type": "unocc",
				"energy": -0.03811,
				"method": "rhf"
			},
			{
				"type": "unocc",
				"energy": -0.02425,
				"method": "rhf"
			}
		],
		"cosmo_sigma_profile": { 
			"-0.025": 0.0,
			"-0.024": 0.0,
			"-0.023": 0.0,
			"-0.022": 0.0,
			"-0.021": 0.0,
			"-0.02": 0.0,
			"-0.019": 0.0,
			"-0.018": 0.0,
			"-0.017": 0.0,
			"-0.016": 0.0,
			"-0.015": 0.0,
			"-0.014": 0.0,
			"-0.013": 0.0,
			"-0.012": 0.0,
			"-0.011": 0.0117846420273,
			"-0.01": 0.402235296798,
			"-0.009": 2.10670029061,
			"-0.008": 3.56980314971,
			"-0.007": 8.91152429081,
			"-0.006": 23.1899941421,
			"-0.005": 25.315530823,
			"-0.004": 26.0669975124,
			"-0.003": 28.0275800521,
			"-0.002": 27.4623545774,
			"-0.001": 23.5998561115,
			"0.0": 21.0954942002,
			"0.001": 17.4193962903,
			"0.002": 18.354918055,
			"0.003": 21.760292884,
			"0.004": 24.0227027327,
			"0.005": 17.4449746664,
			"0.006": 10.2686058745,
			"0.007": 17.238830064,
			"0.008": 10.3419562704,
			"0.009": 7.005926728,
			"0.01": 1.60470666409,
			"0.011": 0.0,
			"0.012": 0.0,
			"0.013": 0.0,
			"0.014": 0.0,
			"0.015": 0.0,
			"0.016": 0.0,
			"0.017": 0.0,
			"0.018": 0.0,
			"0.019": 0.0,
			"0.02": 0.0,
			"0.021": 0.0,
			"0.022": 0.0,
			"0.023": 0.0,
			"0.024": 0.0,
			"0.025": 0.0
		}
	}
}
