{
	 "smiles": "CCCCC(C)CC", 
	 "Tm": 173.15, 
	 "num_atms": 26, 
	 "gaussian": { 
		 "optdone": 1, 
		 "sigma_profile": "yes", 
		 "theory": "DFT", 
		 "functional": "B3LYP", 
		 "basiset": "6-31G**", 
		 "properties": { 
			 "R2extent": 1579.5085, 
			 "electric_dipole_moment_norm": 0.0459717304438, 
			 "electric_quadrupole_moment_norm": 0.655184989144, 
			 "total_energy": -315.724532087, 
			 "HOMO_LUMO_gap": 0.37818, 
			 "cosmo_polarized_energy": -0.66, 
			 "cosmo_cavitation_energy": 25.75, 
			 "cosmo_dispersion_energy": -18.37, 
			 "cosmo_repulsion_energy": 1.54, 
			 "cosmo_total_nonelectrostatic_energy": 8.92, 
			 "SMD_solvation_energy": 4.18 
		},
		"coords": [
			{
				"x": 3.1892555586,
				"y": 1.9495712294,
				"z": -0.9761358791,
				"element": "C" 
			},
			{
				"x": 2.1525589536,
				"y": 0.9499363789,
				"z": -0.4529115702,
				"element": "C" 
			},
			{
				"x": 1.1389854425,
				"y": 1.5897423398,
				"z": 0.5087094408,
				"element": "C" 
			},
			{
				"x": 0.0820737472,
				"y": 0.6307358674,
				"z": 1.1024873942,
				"element": "C" 
			},
			{
				"x": -1.2764649283,
				"y": 0.570006498,
				"z": 0.3679868322,
				"element": "C" 
			},
			{
				"x": -2.2932442457,
				"y": -0.235770785,
				"z": 1.1935875987,
				"element": "C" 
			},
			{
				"x": -1.2052614109,
				"y": 0.071788556,
				"z": -1.0938505935,
				"element": "C" 
			},
			{
				"x": -0.7502932257,
				"y": -1.380585486,
				"z": -1.2896865323,
				"element": "C" 
			},
			{
				"x": 3.7522142718,
				"y": 2.4043573777,
				"z": -0.1527184589,
				"element": "H" 
			},
			{
				"x": 3.9099388032,
				"y": 1.4677117503,
				"z": -1.6451327239,
				"element": "H" 
			},
			{
				"x": 2.7099460217,
				"y": 2.7621812387,
				"z": -1.5343131433,
				"element": "H" 
			},
			{
				"x": 1.6339719676,
				"y": 0.4892922594,
				"z": -1.3017647923,
				"element": "H" 
			},
			{
				"x": 2.6665605025,
				"y": 0.1304696473,
				"z": 0.0680743317,
				"element": "H" 
			},
			{
				"x": 0.6331436756,
				"y": 2.4249842952,
				"z": 0.0029573222,
				"element": "H" 
			},
			{
				"x": 1.7054029141,
				"y": 2.0458246929,
				"z": 1.3316799695,
				"element": "H" 
			},
			{
				"x": 0.5066594801,
				"y": -0.3794458827,
				"z": 1.1863445291,
				"element": "H" 
			},
			{
				"x": -0.1295900507,
				"y": 0.9416453763,
				"z": 2.1335559659,
				"element": "H" 
			},
			{
				"x": -1.649168219,
				"y": 1.6046241136,
				"z": 0.317784773,
				"element": "H" 
			},
			{
				"x": -3.2668743627,
				"y": -0.2807630791,
				"z": 0.6925290407,
				"element": "H" 
			},
			{
				"x": -1.9566421205,
				"y": -1.2655059918,
				"z": 1.3577656477,
				"element": "H" 
			},
			{
				"x": -2.4458473358,
				"y": 0.2175423056,
				"z": 2.1791136364,
				"element": "H" 
			},
			{
				"x": -2.202749242,
				"y": 0.1898247241,
				"z": -1.5384574105,
				"element": "H" 
			},
			{
				"x": -0.5476440391,
				"y": 0.7367894139,
				"z": -1.6669807548,
				"element": "H" 
			},
			{
				"x": -1.4271861602,
				"y": -2.0881710344,
				"z": -0.8002688867,
				"element": "H" 
			},
			{
				"x": -0.7270517595,
				"y": -1.6356426601,
				"z": -2.3544742172,
				"element": "H" 
			},
			{
				"x": 0.2543057617,
				"y": -1.5540431454,
				"z": -0.8905815193,
				"element": "H" 
			}
		],
		 "valence_orbital": [ 
			{
				"type": "occ",
				"energy": -0.32403,
				"method": "rhf"
			},
			{
				"type": "occ",
				"energy": -0.32048,
				"method": "rhf"
			},
			{
				"type": "occ",
				"energy": -0.30617,
				"method": "rhf"
			},
			{
				"type": "occ",
				"energy": -0.30008,
				"method": "rhf"
			},
			{
				"type": "occ",
				"energy": -0.29804,
				"method": "rhf"
			},
			{
				"type": "unocc",
				"energy": 0.08014,
				"method": "rhf"
			},
			{
				"type": "unocc",
				"energy": 0.09965,
				"method": "rhf"
			},
			{
				"type": "unocc",
				"energy": 0.10891,
				"method": "rhf"
			},
			{
				"type": "unocc",
				"energy": 0.12182,
				"method": "rhf"
			},
			{
				"type": "unocc",
				"energy": 0.13284,
				"method": "rhf"
			}
		],
		"cosmo_sigma_profile": { 
			"-0.025": 0.0,
			"-0.024": 0.0,
			"-0.023": 0.0,
			"-0.022": 0.0,
			"-0.021": 0.0,
			"-0.02": 0.0,
			"-0.019": 0.0,
			"-0.018": 0.0,
			"-0.017": 0.0,
			"-0.016": 0.0,
			"-0.015": 0.0,
			"-0.014": 0.0,
			"-0.013": 0.0,
			"-0.012": 0.0,
			"-0.011": 0.0,
			"-0.01": 0.0,
			"-0.009": 0.0,
			"-0.008": 0.0,
			"-0.007": 0.0,
			"-0.006": 0.0,
			"-0.005": 0.0,
			"-0.004": 0.0,
			"-0.003": 2.56717767595,
			"-0.002": 24.1503062586,
			"-0.001": 47.6227826898,
			"0.0": 49.7205264452,
			"0.001": 43.680896954,
			"0.002": 27.3207465112,
			"0.003": 1.75489572819,
			"0.004": 0.0,
			"0.005": 0.0,
			"0.006": 0.0,
			"0.007": 0.0,
			"0.008": 0.0,
			"0.009": 0.0,
			"0.01": 0.0,
			"0.011": 0.0,
			"0.012": 0.0,
			"0.013": 0.0,
			"0.014": 0.0,
			"0.015": 0.0,
			"0.016": 0.0,
			"0.017": 0.0,
			"0.018": 0.0,
			"0.019": 0.0,
			"0.02": 0.0,
			"0.021": 0.0,
			"0.022": 0.0,
			"0.023": 0.0,
			"0.024": 0.0,
			"0.025": 0.0
		}
	}
}
