{
	 "smiles": "CC(CO)(CO)C(O)=O", 
	 "Tm": 463.15, 
	 "num_atms": 19, 
	 "gaussian": { 
		 "optdone": 1, 
		 "sigma_profile": "yes", 
		 "theory": "DFT", 
		 "functional": "B3LYP", 
		 "basiset": "6-31G**", 
		 "properties": { 
			 "R2extent": 1264.5205, 
			 "electric_dipole_moment_norm": 3.09383971627, 
			 "electric_quadrupole_moment_norm": 9.72660758641, 
			 "total_energy": -497.447666514, 
			 "HOMO_LUMO_gap": 0.27811, 
			 "cosmo_polarized_energy": -17.24, 
			 "cosmo_cavitation_energy": 21.87, 
			 "cosmo_dispersion_energy": -15.75, 
			 "cosmo_repulsion_energy": 1.32, 
			 "cosmo_total_nonelectrostatic_energy": 7.43, 
			 "SMD_solvation_energy": 5.1 
		},
		"coords": [
			{
				"x": 0.4491038309,
				"y": -0.9756339781,
				"z": -1.3196507993,
				"element": "C" 
			},
			{
				"x": -0.4118350706,
				"y": -0.1184462394,
				"z": -0.3806506919,
				"element": "C" 
			},
			{
				"x": 0.354447397,
				"y": 1.1428899271,
				"z": 0.0543069034,
				"element": "C" 
			},
			{
				"x": 1.5364832489,
				"y": 0.7354489961,
				"z": 0.7290599918,
				"element": "O" 
			},
			{
				"x": -1.7230887854,
				"y": 0.3280185887,
				"z": -1.079448469,
				"element": "C" 
			},
			{
				"x": -2.5915414847,
				"y": -0.7468896514,
				"z": -1.3861166268,
				"element": "O" 
			},
			{
				"x": -0.7853922817,
				"y": -0.9445766343,
				"z": 0.8535017637,
				"element": "C" 
			},
			{
				"x": -1.4570754068,
				"y": -0.2075897244,
				"z": 1.7738395874,
				"element": "O" 
			},
			{
				"x": -0.5494162835,
				"y": -2.1195439217,
				"z": 1.01590893,
				"element": "O" 
			},
			{
				"x": -0.0539143343,
				"y": -1.9122657881,
				"z": -1.5743214266,
				"element": "H" 
			},
			{
				"x": 0.6678251303,
				"y": -0.4223671174,
				"z": -2.239794554,
				"element": "H" 
			},
			{
				"x": 1.3927218031,
				"y": -1.2360578802,
				"z": -0.8387408573,
				"element": "H" 
			},
			{
				"x": -0.286725103,
				"y": 1.7513391534,
				"z": 0.7061895298,
				"element": "H" 
			},
			{
				"x": 0.5905952083,
				"y": 1.7377483854,
				"z": -0.8433621129,
				"element": "H" 
			},
			{
				"x": 1.9659732751,
				"y": 1.5204688511,
				"z": 1.0895088563,
				"element": "H" 
			},
			{
				"x": -2.2909721397,
				"y": 0.983839285,
				"z": -0.4139217347,
				"element": "H" 
			},
			{
				"x": -1.4579075489,
				"y": 0.9062832387,
				"z": -1.9795392189,
				"element": "H" 
			},
			{
				"x": -2.1433702744,
				"y": -1.3306957024,
				"z": -2.0113123006,
				"element": "H" 
			},
			{
				"x": -1.6713111804,
				"y": -0.8192697883,
				"z": 2.4976432297,
				"element": "H" 
			}
		],
		 "valence_orbital": [ 
			{
				"type": "occ",
				"energy": -0.32842,
				"method": "rhf"
			},
			{
				"type": "occ",
				"energy": -0.31154,
				"method": "rhf"
			},
			{
				"type": "occ",
				"energy": -0.28571,
				"method": "rhf"
			},
			{
				"type": "occ",
				"energy": -0.2715,
				"method": "rhf"
			},
			{
				"type": "occ",
				"energy": -0.26314,
				"method": "rhf"
			},
			{
				"type": "unocc",
				"energy": 0.01497,
				"method": "rhf"
			},
			{
				"type": "unocc",
				"energy": 0.05964,
				"method": "rhf"
			},
			{
				"type": "unocc",
				"energy": 0.08085,
				"method": "rhf"
			},
			{
				"type": "unocc",
				"energy": 0.08428,
				"method": "rhf"
			},
			{
				"type": "unocc",
				"energy": 0.10166,
				"method": "rhf"
			}
		],
		"cosmo_sigma_profile": { 
			"-0.025": 0.0,
			"-0.024": 0.0,
			"-0.023": 0.0,
			"-0.022": 0.0,
			"-0.021": 0.0,
			"-0.02": 0.0,
			"-0.019": 0.0,
			"-0.018": 0.639662078004,
			"-0.017": 1.126677538,
			"-0.016": 1.67846982631,
			"-0.015": 1.98286643859,
			"-0.014": 2.80189041641,
			"-0.013": 2.92302962737,
			"-0.012": 2.8543036528,
			"-0.011": 1.86549896847,
			"-0.01": 2.54237035826,
			"-0.009": 2.44144574428,
			"-0.008": 2.72300855912,
			"-0.007": 3.2910877907,
			"-0.006": 4.30639232287,
			"-0.005": 10.892887038,
			"-0.004": 15.8423662012,
			"-0.003": 11.7024464551,
			"-0.002": 8.43556603899,
			"-0.001": 8.02667078671,
			"0.0": 7.41867407787,
			"0.001": 7.78803496612,
			"0.002": 5.10512240789,
			"0.003": 5.4515722673,
			"0.004": 4.26981501378,
			"0.005": 5.35192089185,
			"0.006": 7.49192333762,
			"0.007": 7.95793871084,
			"0.008": 5.24959074366,
			"0.009": 4.30935212469,
			"0.01": 5.55423974268,
			"0.011": 6.61675491958,
			"0.012": 7.04007994515,
			"0.013": 2.23441261861,
			"0.014": 1.04812741618,
			"0.015": 0.0,
			"0.016": 0.0,
			"0.017": 0.0,
			"0.018": 0.0,
			"0.019": 0.0,
			"0.02": 0.0,
			"0.021": 0.0,
			"0.022": 0.0,
			"0.023": 0.0,
			"0.024": 0.0,
			"0.025": 0.0
		}
	}
}
