{
	 "smiles": "CC1=C(SC2=C1C(=O)N1CCCC1=N2)C(O)=O", 
	 "Tm": 555.15, 
	 "num_atms": 27, 
	 "gaussian": { 
		 "optdone": 1, 
		 "sigma_profile": "yes", 
		 "theory": "DFT", 
		 "functional": "B3LYP", 
		 "basiset": "6-31G**", 
		 "properties": { 
			 "R2extent": 5441.6477, 
			 "electric_dipole_moment_norm": 7.78115884236, 
			 "electric_quadrupole_moment_norm": 15.3782807137, 
			 "total_energy": -1158.59913926, 
			 "HOMO_LUMO_gap": 0.16394, 
			 "cosmo_polarized_energy": -18.72, 
			 "cosmo_cavitation_energy": 31.89, 
			 "cosmo_dispersion_energy": -24.45, 
			 "cosmo_repulsion_energy": 1.83, 
			 "cosmo_total_nonelectrostatic_energy": 9.27, 
			 "SMD_solvation_energy": 4.21 
		},
		"coords": [
			{
				"x": -2.626525962,
				"y": -0.20851802,
				"z": 1.3246267534,
				"element": "C" 
			},
			{
				"x": -1.5793948924,
				"y": 0.7548683445,
				"z": 0.8426830585,
				"element": "C" 
			},
			{
				"x": -1.15868244,
				"y": 1.8910205595,
				"z": 1.504706328,
				"element": "C" 
			},
			{
				"x": 0.0882534697,
				"y": 2.7764225622,
				"z": 0.6122233972,
				"element": "S" 
			},
			{
				"x": 0.0703609254,
				"y": 1.5849542355,
				"z": -0.6549488859,
				"element": "C" 
			},
			{
				"x": -0.8664885009,
				"y": 0.5819151372,
				"z": -0.3932324724,
				"element": "C" 
			},
			{
				"x": -1.0198483275,
				"y": -0.4922676372,
				"z": -1.3649276382,
				"element": "C" 
			},
			{
				"x": -1.7799283495,
				"y": -1.4516377001,
				"z": -1.3271104935,
				"element": "O" 
			},
			{
				"x": -0.1342848727,
				"y": -0.3252220102,
				"z": -2.4565096919,
				"element": "N" 
			},
			{
				"x": -0.0941528578,
				"y": -1.2664028709,
				"z": -3.5859429685,
				"element": "C" 
			},
			{
				"x": 1.2286047008,
				"y": -0.8996291372,
				"z": -4.289299494,
				"element": "C" 
			},
			{
				"x": 1.4663440026,
				"y": 0.5789142679,
				"z": -3.9116681126,
				"element": "C" 
			},
			{
				"x": 0.7338505268,
				"y": 0.7227211345,
				"z": -2.6019336049,
				"element": "C" 
			},
			{
				"x": 0.8793858587,
				"y": 1.6934853481,
				"z": -1.7438747404,
				"element": "N" 
			},
			{
				"x": -1.6372114088,
				"y": 2.3953794907,
				"z": 2.8128694531,
				"element": "C" 
			},
			{
				"x": -0.8206287424,
				"y": 3.2767908165,
				"z": 3.4581908553,
				"element": "O" 
			},
			{
				"x": -2.6915759758,
				"y": 2.0834124261,
				"z": 3.3189442617,
				"element": "O" 
			},
			{
				"x": -2.2599085681,
				"y": -1.2350749493,
				"z": 1.2493687033,
				"element": "H" 
			},
			{
				"x": -2.9335870475,
				"y": 0.0222584936,
				"z": 2.3423469713,
				"element": "H" 
			},
			{
				"x": -3.5078167591,
				"y": -0.1524007072,
				"z": 0.6760711355,
				"element": "H" 
			},
			{
				"x": -0.1379081105,
				"y": -2.2899120799,
				"z": -3.2106675328,
				"element": "H" 
			},
			{
				"x": -0.9718073678,
				"y": -1.1058673073,
				"z": -4.222355361,
				"element": "H" 
			},
			{
				"x": 1.1787269844,
				"y": -1.0624608236,
				"z": -5.36755969,
				"element": "H" 
			},
			{
				"x": 2.0396556102,
				"y": -1.5191369437,
				"z": -3.8944218705,
				"element": "H" 
			},
			{
				"x": 2.5179727522,
				"y": 0.8548731292,
				"z": -3.811141854,
				"element": "H" 
			},
			{
				"x": 1.0184543353,
				"y": 1.2634393629,
				"z": -4.6434860892,
				"element": "H" 
			},
			{
				"x": 0.0614410167,
				"y": 3.2958748784,
				"z": 3.0587495826,
				"element": "H" 
			}
		],
		 "valence_orbital": [ 
			{
				"type": "occ",
				"energy": -0.29546,
				"method": "rhf"
			},
			{
				"type": "occ",
				"energy": -0.27607,
				"method": "rhf"
			},
			{
				"type": "occ",
				"energy": -0.26892,
				"method": "rhf"
			},
			{
				"type": "occ",
				"energy": -0.26867,
				"method": "rhf"
			},
			{
				"type": "occ",
				"energy": -0.2314,
				"method": "rhf"
			},
			{
				"type": "unocc",
				"energy": -0.06746,
				"method": "rhf"
			},
			{
				"type": "unocc",
				"energy": -0.02935,
				"method": "rhf"
			},
			{
				"type": "unocc",
				"energy": -0.00761,
				"method": "rhf"
			},
			{
				"type": "unocc",
				"energy": -0.00281,
				"method": "rhf"
			},
			{
				"type": "unocc",
				"energy": 0.05931,
				"method": "rhf"
			}
		],
		"cosmo_sigma_profile": { 
			"-0.025": 0.0,
			"-0.024": 0.0,
			"-0.023": 0.0,
			"-0.022": 0.0,
			"-0.021": 0.0,
			"-0.02": 0.0,
			"-0.019": 0.0,
			"-0.018": 0.301282598041,
			"-0.017": 0.623242397318,
			"-0.016": 0.970650483051,
			"-0.015": 0.665338410404,
			"-0.014": 0.796935621123,
			"-0.013": 1.11179988804,
			"-0.012": 1.24078992025,
			"-0.011": 0.799609123316,
			"-0.01": 0.790334893862,
			"-0.009": 0.41808261861,
			"-0.008": 1.24697073395,
			"-0.007": 5.63951064087,
			"-0.006": 14.6281282181,
			"-0.005": 25.9078736838,
			"-0.004": 23.0142215143,
			"-0.003": 19.132959676,
			"-0.002": 21.0009832914,
			"-0.001": 23.2871859103,
			"0.0": 22.2756956381,
			"0.001": 14.7666443184,
			"0.002": 10.4288613112,
			"0.003": 7.29909725546,
			"0.004": 5.46039181287,
			"0.005": 5.61905063159,
			"0.006": 5.01177445678,
			"0.007": 5.19093286273,
			"0.008": 5.43742295489,
			"0.009": 6.30993724692,
			"0.01": 6.80267604687,
			"0.011": 7.98221318206,
			"0.012": 7.88987758071,
			"0.013": 4.08041824029,
			"0.014": 0.32239864835,
			"0.015": 0.0,
			"0.016": 0.0,
			"0.017": 0.0,
			"0.018": 0.0,
			"0.019": 0.0,
			"0.02": 0.0,
			"0.021": 0.0,
			"0.022": 0.0,
			"0.023": 0.0,
			"0.024": 0.0,
			"0.025": 0.0
		}
	}
}
