{
	 "smiles": "CC(=O)C1=CC=C(OC2CCOCC2)C=C1", 
	 "Tm": 346.15, 
	 "num_atms": 32, 
	 "gaussian": { 
		 "optdone": 1, 
		 "sigma_profile": "yes", 
		 "theory": "DFT", 
		 "functional": "B3LYP", 
		 "basiset": "6-31G**", 
		 "properties": { 
			 "R2extent": 4477.4331, 
			 "electric_dipole_moment_norm": 3.04080964712, 
			 "electric_quadrupole_moment_norm": 19.1085734525, 
			 "total_energy": -730.677022196, 
			 "HOMO_LUMO_gap": 0.18978, 
			 "cosmo_polarized_energy": -12.4, 
			 "cosmo_cavitation_energy": 33.32, 
			 "cosmo_dispersion_energy": -24.04, 
			 "cosmo_repulsion_energy": 1.87, 
			 "cosmo_total_nonelectrostatic_energy": 11.14, 
			 "SMD_solvation_energy": 5.89 
		},
		"coords": [
			{
				"x": -4.4616605249,
				"y": -2.6566752323,
				"z": 0.9635177611,
				"element": "C" 
			},
			{
				"x": -3.0583765057,
				"y": -3.0598104107,
				"z": 0.5397472212,
				"element": "C" 
			},
			{
				"x": -2.6709640172,
				"y": -4.2091235096,
				"z": 0.6937951939,
				"element": "O" 
			},
			{
				"x": -2.1614967563,
				"y": -2.0266031443,
				"z": -0.0670501135,
				"element": "C" 
			},
			{
				"x": -2.555357849,
				"y": -0.6953372169,
				"z": -0.272468339,
				"element": "C" 
			},
			{
				"x": -1.6802082058,
				"y": 0.2268544654,
				"z": -0.8416694045,
				"element": "C" 
			},
			{
				"x": -0.3852855858,
				"y": -0.1656812285,
				"z": -1.2058421862,
				"element": "C" 
			},
			{
				"x": 0.4437464037,
				"y": 0.716177256,
				"z": -1.8508458569,
				"element": "O" 
			},
			{
				"x": 1.4037714693,
				"y": 1.5650383945,
				"z": -1.168444999,
				"element": "C" 
			},
			{
				"x": 2.4945948191,
				"y": 0.8027819425,
				"z": -0.3920748183,
				"element": "C" 
			},
			{
				"x": 2.1165737175,
				"y": 0.4898357316,
				"z": 1.0614063911,
				"element": "C" 
			},
			{
				"x": 1.6945536935,
				"y": 1.6631287337,
				"z": 1.7467273131,
				"element": "O" 
			},
			{
				"x": 0.5149041289,
				"y": 2.2026488971,
				"z": 1.1639133573,
				"element": "C" 
			},
			{
				"x": 0.7657588259,
				"y": 2.6516383325,
				"z": -0.2812293158,
				"element": "C" 
			},
			{
				"x": 0.007334002,
				"y": -1.5017413549,
				"z": -1.0307072474,
				"element": "C" 
			},
			{
				"x": -0.8704697881,
				"y": -2.4153516925,
				"z": -0.4612379297,
				"element": "C" 
			},
			{
				"x": -5.0389661419,
				"y": -2.284033048,
				"z": 0.1100824798,
				"element": "H" 
			},
			{
				"x": -4.9619474841,
				"y": -3.5291713434,
				"z": 1.3844021882,
				"element": "H" 
			},
			{
				"x": -4.4332874545,
				"y": -1.857654705,
				"z": 1.7126391894,
				"element": "H" 
			},
			{
				"x": -3.5530680909,
				"y": -0.3699972099,
				"z": 0.0044976252,
				"element": "H" 
			},
			{
				"x": -1.9919063636,
				"y": 1.250007938,
				"z": -1.0233249905,
				"element": "H" 
			},
			{
				"x": 1.875312653,
				"y": 2.0580707631,
				"z": -2.0231908817,
				"element": "H" 
			},
			{
				"x": 3.3828754937,
				"y": 1.4463544803,
				"z": -0.3749528736,
				"element": "H" 
			},
			{
				"x": 2.7704997328,
				"y": -0.1088362113,
				"z": -0.9327750727,
				"element": "H" 
			},
			{
				"x": 2.987090234,
				"y": 0.1126372333,
				"z": 1.6065641477,
				"element": "H" 
			},
			{
				"x": 1.3310725436,
				"y": -0.2787534807,
				"z": 1.1098877009,
				"element": "H" 
			},
			{
				"x": 0.2305998003,
				"y": 3.0588818952,
				"z": 1.7832886029,
				"element": "H" 
			},
			{
				"x": -0.3009360963,
				"y": 1.466064839,
				"z": 1.2131516252,
				"element": "H" 
			},
			{
				"x": 1.4670362322,
				"y": 3.4948673213,
				"z": -0.252122966,
				"element": "H" 
			},
			{
				"x": -0.1559095184,
				"y": 3.0168910844,
				"z": -0.7472014561,
				"element": "H" 
			},
			{
				"x": 0.9948516031,
				"y": -1.8082800407,
				"z": -1.3595234255,
				"element": "H" 
			},
			{
				"x": -0.5832349701,
				"y": -3.4513294793,
				"z": -0.3147589207,
				"element": "H" 
			}
		],
		 "valence_orbital": [ 
			{
				"type": "occ",
				"energy": -0.2737,
				"method": "rhf"
			},
			{
				"type": "occ",
				"energy": -0.26445,
				"method": "rhf"
			},
			{
				"type": "occ",
				"energy": -0.25257,
				"method": "rhf"
			},
			{
				"type": "occ",
				"energy": -0.24653,
				"method": "rhf"
			},
			{
				"type": "occ",
				"energy": -0.24328,
				"method": "rhf"
			},
			{
				"type": "unocc",
				"energy": -0.0535,
				"method": "rhf"
			},
			{
				"type": "unocc",
				"energy": -0.01465,
				"method": "rhf"
			},
			{
				"type": "unocc",
				"energy": 0.03897,
				"method": "rhf"
			},
			{
				"type": "unocc",
				"energy": 0.07257,
				"method": "rhf"
			},
			{
				"type": "unocc",
				"energy": 0.07447,
				"method": "rhf"
			}
		],
		"cosmo_sigma_profile": { 
			"-0.025": 0.0,
			"-0.024": 0.0,
			"-0.023": 0.0,
			"-0.022": 0.0,
			"-0.021": 0.0,
			"-0.02": 0.0,
			"-0.019": 0.0,
			"-0.018": 0.0,
			"-0.017": 0.0,
			"-0.016": 0.0,
			"-0.015": 0.0,
			"-0.014": 0.0,
			"-0.013": 0.0,
			"-0.012": 0.0,
			"-0.011": 0.0,
			"-0.01": 0.0,
			"-0.009": 0.0,
			"-0.008": 0.0,
			"-0.007": 1.76648372566,
			"-0.006": 13.2254030257,
			"-0.005": 23.0170169296,
			"-0.004": 30.8096227757,
			"-0.003": 27.2395800855,
			"-0.002": 31.6753701743,
			"-0.001": 27.9522792049,
			"0.0": 16.218381298,
			"0.001": 11.7786545864,
			"0.002": 12.7168047826,
			"0.003": 16.0177220119,
			"0.004": 8.17305955695,
			"0.005": 4.55433218941,
			"0.006": 4.5085043853,
			"0.007": 3.2132358952,
			"0.008": 3.98789670732,
			"0.009": 4.7572711948,
			"0.01": 3.36200239842,
			"0.011": 6.20907333733,
			"0.012": 5.55588661489,
			"0.013": 3.83386188656,
			"0.014": 1.2903131525,
			"0.015": 0.0,
			"0.016": 0.0,
			"0.017": 0.0,
			"0.018": 0.0,
			"0.019": 0.0,
			"0.02": 0.0,
			"0.021": 0.0,
			"0.022": 0.0,
			"0.023": 0.0,
			"0.024": 0.0,
			"0.025": 0.0
		}
	}
}
