{
	 "smiles": "ClCCCCI", 
	 "Tm": 366.15, 
	 "num_atms": 14, 
	 "gaussian": { 
		 "optdone": 1, 
		 "sigma_profile": "no", 
		 "theory": "DFT", 
		 "functional": "B3LYP", 
		 "basiset": "6-31G**", 
		 "properties": { 
			 "R2extent": 1331.2722, 
			 "electric_dipole_moment_norm": 3.07843605423, 
			 "electric_quadrupole_moment_norm": 8.16764079524, 
			 "total_energy": -628.84310754, 
			 "HOMO_LUMO_gap": 0.21297, 
			 "cosmo_polarized_energy": -108010.02, 
			 "cosmo_cavitation_energy": 21.49, 
			 "cosmo_dispersion_energy": -17.29, 
			 "cosmo_repulsion_energy": 1.46, 
			 "cosmo_total_nonelectrostatic_energy": 5.66, 
			 "SMD_solvation_energy": 2.14 
		},
		"coords": [
			{
				"x": 0.6096426359,
				"y": -1.1978857444,
				"z": 1.3780703241,
				"element": "Cl" 
			},
			{
				"x": 1.603883043,
				"y": -0.5696866144,
				"z": -0.0119348546,
				"element": "C" 
			},
			{
				"x": 1.2838302988,
				"y": -1.2764363949,
				"z": -1.3253476543,
				"element": "C" 
			},
			{
				"x": -0.1626536791,
				"y": -1.1390331391,
				"z": -1.8382585679,
				"element": "C" 
			},
			{
				"x": -0.5401292561,
				"y": 0.3038640745,
				"z": -2.1528137141,
				"element": "C" 
			},
			{
				"x": -2.5406717864,
				"y": 0.4659848844,
				"z": -3.0219394856,
				"element": "I" 
			},
			{
				"x": 1.4134413119,
				"y": 0.5038885398,
				"z": -0.0559849852,
				"element": "H" 
			},
			{
				"x": 2.6456586864,
				"y": -0.7267471462,
				"z": 0.2707398142,
				"element": "H" 
			},
			{
				"x": 1.982132477,
				"y": -0.8775208184,
				"z": -2.0753580001,
				"element": "H" 
			},
			{
				"x": 1.516117933,
				"y": -2.3417749365,
				"z": -1.2193214658,
				"element": "H" 
			},
			{
				"x": -0.8550768498,
				"y": -1.5506136156,
				"z": -1.0979904711,
				"element": "H" 
			},
			{
				"x": -0.2649208788,
				"y": -1.7477962826,
				"z": -2.7422075977,
				"element": "H" 
			},
			{
				"x": -0.5839032648,
				"y": 0.9373800412,
				"z": -1.2678022448,
				"element": "H" 
			},
			{
				"x": 0.1181493291,
				"y": 0.7581771522,
				"z": -2.8941510972,
				"element": "H" 
			}
		],
		 "valence_orbital": [ 
			{
				"type": "occ",
				"energy": -0.33465,
				"method": "rhf"
			},
			{
				"type": "occ",
				"energy": -0.30188,
				"method": "rhf"
			},
			{
				"type": "occ",
				"energy": -0.30022,
				"method": "rhf"
			},
			{
				"type": "occ",
				"energy": -0.25987,
				"method": "rhf"
			},
			{
				"type": "occ",
				"energy": -0.25902,
				"method": "rhf"
			},
			{
				"type": "unocc",
				"energy": -0.04605,
				"method": "rhf"
			},
			{
				"type": "unocc",
				"energy": 0.02001,
				"method": "rhf"
			},
			{
				"type": "unocc",
				"energy": 0.03871,
				"method": "rhf"
			},
			{
				"type": "unocc",
				"energy": 0.04143,
				"method": "rhf"
			},
			{
				"type": "unocc",
				"energy": 0.05736,
				"method": "rhf"
			}
		],
		"cosmo_sigma_profile": { 
			"0.0": 0.0,
			"0.0": 0.0,
			"0.0": 0.0,
			"0.0": 0.0,
			"0.0": 0.0,
			"0.0": 0.0,
			"0.0": 0.0,
			"0.0": 0.0,
			"0.0": 0.0,
			"0.0": 0.0,
			"0.0": 0.0,
			"0.0": 0.0,
			"0.0": 0.0,
			"0.0": 0.0,
			"0.0": 0.0,
			"0.0": 0.0,
			"0.0": 0.0,
			"0.0": 0.0,
			"0.0": 0.0,
			"0.0": 0.0,
			"0.0": 0.0,
			"0.0": 0.0,
			"0.0": 0.0,
			"0.0": 0.0,
			"0.0": 0.0,
			"0.0": 0.0,
			"0.0": 0.0,
			"0.0": 0.0,
			"0.0": 0.0,
			"0.0": 0.0,
			"0.0": 0.0,
			"0.0": 0.0,
			"0.0": 0.0,
			"0.0": 0.0,
			"0.0": 0.0,
			"0.0": 0.0,
			"0.0": 0.0,
			"0.0": 0.0,
			"0.0": 0.0,
			"0.0": 0.0,
			"0.0": 0.0,
			"0.0": 0.0,
			"0.0": 0.0,
			"0.0": 0.0,
			"0.0": 0.0,
			"0.0": 0.0,
			"0.0": 0.0,
			"0.0": 0.0,
			"0.0": 0.0,
			"0.0": 0.0,
			"0.0": 0.0
		}
	}
}
