{
	 "smiles": "CCOC(=O)C1=C(C)OC(NC(=O)NC2=CC=CC=C2)=C1C(=O)OCC", 
	 "Tm": 384.15, 
	 "num_atms": 46, 
	 "gaussian": { 
		 "optdone": 1, 
		 "sigma_profile": "yes", 
		 "theory": "DFT", 
		 "functional": "B3LYP", 
		 "basiset": "6-31G**", 
		 "properties": { 
			 "R2extent": 15317.7021, 
			 "electric_dipole_moment_norm": 4.13711607766, 
			 "electric_quadrupole_moment_norm": 9.85789462056, 
			 "total_energy": -1258.86692216, 
			 "HOMO_LUMO_gap": 0.17235, 
			 "cosmo_polarized_energy": -20.65, 
			 "cosmo_cavitation_energy": 51.42, 
			 "cosmo_dispersion_energy": -35.55, 
			 "cosmo_repulsion_energy": 2.74, 
			 "cosmo_total_nonelectrostatic_energy": 18.6, 
			 "SMD_solvation_energy": 11.67 
		},
		"coords": [
			{
				"x": 4.4159889809,
				"y": 3.0987742925,
				"z": 2.0908112009,
				"element": "C" 
			},
			{
				"x": 3.0788662576,
				"y": 3.7410306633,
				"z": 2.4078715638,
				"element": "C" 
			},
			{
				"x": 2.0817587701,
				"y": 3.0904875015,
				"z": 1.5897402962,
				"element": "O" 
			},
			{
				"x": 0.8222236644,
				"y": 3.5439364282,
				"z": 1.733957815,
				"element": "C" 
			},
			{
				"x": 0.5255795281,
				"y": 4.4727349538,
				"z": 2.4653758245,
				"element": "O" 
			},
			{
				"x": -0.1346854882,
				"y": 2.8361519884,
				"z": 0.8545251404,
				"element": "C" 
			},
			{
				"x": -1.2071229946,
				"y": 3.4697649228,
				"z": 0.2920668692,
				"element": "C" 
			},
			{
				"x": -1.7826287882,
				"y": 4.8339753998,
				"z": 0.3919249443,
				"element": "C" 
			},
			{
				"x": -1.8489898007,
				"y": 2.6143999934,
				"z": -0.5835407703,
				"element": "O" 
			},
			{
				"x": -1.1954038081,
				"y": 1.4410407563,
				"z": -0.5582974657,
				"element": "C" 
			},
			{
				"x": -1.5955834266,
				"y": 0.3949268519,
				"z": -1.3422448398,
				"element": "N" 
			},
			{
				"x": -2.8526112786,
				"y": 0.2364914692,
				"z": -1.9526540963,
				"element": "C" 
			},
			{
				"x": -3.7513267112,
				"y": 1.0529978526,
				"z": -1.8661068425,
				"element": "O" 
			},
			{
				"x": -2.9076159845,
				"y": -0.9507569046,
				"z": -2.6573205652,
				"element": "N" 
			},
			{
				"x": -3.9968051106,
				"y": -1.4826524265,
				"z": -3.3801091913,
				"element": "C" 
			},
			{
				"x": -3.7929380307,
				"y": -2.7145274536,
				"z": -4.0229647815,
				"element": "C" 
			},
			{
				"x": -4.8183406162,
				"y": -3.3076660755,
				"z": -4.7538176143,
				"element": "C" 
			},
			{
				"x": -6.063176944,
				"y": -2.6838207912,
				"z": -4.8545040625,
				"element": "C" 
			},
			{
				"x": -6.2624066797,
				"y": -1.4602766515,
				"z": -4.2141291478,
				"element": "C" 
			},
			{
				"x": -5.2458097623,
				"y": -0.8503882341,
				"z": -3.4784238742,
				"element": "C" 
			},
			{
				"x": -0.1152546172,
				"y": 1.4860629349,
				"z": 0.3068679725,
				"element": "C" 
			},
			{
				"x": 0.6377055041,
				"y": 0.2744408447,
				"z": 0.5979917125,
				"element": "C" 
			},
			{
				"x": 0.5234997743,
				"y": -0.7565688831,
				"z": -0.0747887088,
				"element": "O" 
			},
			{
				"x": 1.4291285798,
				"y": 0.3503655208,
				"z": 1.6781287381,
				"element": "O" 
			},
			{
				"x": 2.1795530215,
				"y": -0.8380573379,
				"z": 2.0242311177,
				"element": "C" 
			},
			{
				"x": 1.3547021027,
				"y": -1.783387914,
				"z": 2.8847539625,
				"element": "C" 
			},
			{
				"x": 5.2037925852,
				"y": 3.5645544455,
				"z": 2.6910729733,
				"element": "H" 
			},
			{
				"x": 4.6689085954,
				"y": 3.2232313278,
				"z": 1.0339949187,
				"element": "H" 
			},
			{
				"x": 4.3980740762,
				"y": 2.0284841209,
				"z": 2.3155011197,
				"element": "H" 
			},
			{
				"x": 2.8044871716,
				"y": 3.6238443196,
				"z": 3.4611937622,
				"element": "H" 
			},
			{
				"x": 3.0751226319,
				"y": 4.813038752,
				"z": 2.1865487575,
				"element": "H" 
			},
			{
				"x": -1.7961131016,
				"y": 5.3279121068,
				"z": -0.5862359375,
				"element": "H" 
			},
			{
				"x": -1.1965316181,
				"y": 5.4218603603,
				"z": 1.0974135734,
				"element": "H" 
			},
			{
				"x": -2.8173822632,
				"y": 4.7867744006,
				"z": 0.7499467381,
				"element": "H" 
			},
			{
				"x": -0.9498892163,
				"y": -0.389622304,
				"z": -1.2214313491,
				"element": "H" 
			},
			{
				"x": -2.0606566818,
				"y": -1.499028244,
				"z": -2.7033585182,
				"element": "H" 
			},
			{
				"x": -2.826227922,
				"y": -3.2083701984,
				"z": -3.9475523952,
				"element": "H" 
			},
			{
				"x": -4.6405449402,
				"y": -4.2604679691,
				"z": -5.2441095861,
				"element": "H" 
			},
			{
				"x": -6.8644130928,
				"y": -3.1447926349,
				"z": -5.4237671692,
				"element": "H" 
			},
			{
				"x": -7.2256479686,
				"y": -0.9627709117,
				"z": -4.2845441481,
				"element": "H" 
			},
			{
				"x": -5.4026195011,
				"y": 0.0992268648,
				"z": -2.9874964337,
				"element": "H" 
			},
			{
				"x": 3.0469818023,
				"y": -0.4569869009,
				"z": 2.5686006627,
				"element": "H" 
			},
			{
				"x": 2.5134136592,
				"y": -1.3274105305,
				"z": 1.1066116239,
				"element": "H" 
			},
			{
				"x": 0.9853994136,
				"y": -1.2735821118,
				"z": 3.7793129102,
				"element": "H" 
			},
			{
				"x": 0.5030610486,
				"y": -2.1711225764,
				"z": 2.3208035766,
				"element": "H" 
			},
			{
				"x": 1.9721791793,
				"y": -2.6305520187,
				"z": 3.2016497234,
				"element": "H" 
			}
		],
		 "valence_orbital": [ 
			{
				"type": "occ",
				"energy": -0.26986,
				"method": "rhf"
			},
			{
				"type": "occ",
				"energy": -0.26883,
				"method": "rhf"
			},
			{
				"type": "occ",
				"energy": -0.24995,
				"method": "rhf"
			},
			{
				"type": "occ",
				"energy": -0.2255,
				"method": "rhf"
			},
			{
				"type": "occ",
				"energy": -0.20794,
				"method": "rhf"
			},
			{
				"type": "unocc",
				"energy": -0.03559,
				"method": "rhf"
			},
			{
				"type": "unocc",
				"energy": -0.02111,
				"method": "rhf"
			},
			{
				"type": "unocc",
				"energy": -0.00031,
				"method": "rhf"
			},
			{
				"type": "unocc",
				"energy": 0.00506,
				"method": "rhf"
			},
			{
				"type": "unocc",
				"energy": 0.04673,
				"method": "rhf"
			}
		],
		"cosmo_sigma_profile": { 
			"-0.025": 0.0,
			"-0.024": 0.0,
			"-0.023": 0.0,
			"-0.022": 0.0,
			"-0.021": 0.0,
			"-0.02": 0.0,
			"-0.019": 0.0,
			"-0.018": 0.43344522396,
			"-0.017": 1.22116206337,
			"-0.016": 1.79472437141,
			"-0.015": 1.33061551958,
			"-0.014": 0.845761161199,
			"-0.013": 1.17393788732,
			"-0.012": 0.766901827003,
			"-0.011": 2.16179904485,
			"-0.01": 1.16221679501,
			"-0.009": 0.977394214584,
			"-0.008": 1.05518832087,
			"-0.007": 2.03873250573,
			"-0.006": 10.2712120246,
			"-0.005": 24.2672557276,
			"-0.004": 36.8473162838,
			"-0.003": 42.7378765559,
			"-0.002": 46.0135726647,
			"-0.001": 41.5476055952,
			"0.0": 36.503092102,
			"0.001": 26.1684802968,
			"0.002": 19.4833124441,
			"0.003": 19.134497307,
			"0.004": 17.9598568348,
			"0.005": 18.059396423,
			"0.006": 14.9333644398,
			"0.007": 7.25810213159,
			"0.008": 5.40225900712,
			"0.009": 5.40939841135,
			"0.01": 4.21756074098,
			"0.011": 6.84597060155,
			"0.012": 7.33692309217,
			"0.013": 2.87895792692,
			"0.014": 0.760986817226,
			"0.015": 0.0,
			"0.016": 0.0,
			"0.017": 0.0,
			"0.018": 0.0,
			"0.019": 0.0,
			"0.02": 0.0,
			"0.021": 0.0,
			"0.022": 0.0,
			"0.023": 0.0,
			"0.024": 0.0,
			"0.025": 0.0
		}
	}
}
