{
	 "smiles": "OC(=O)CCSCC1=CN2C=CC=CC2=N1", 
	 "Tm": 369.65, 
	 "num_atms": 28, 
	 "gaussian": { 
		 "optdone": 1, 
		 "sigma_profile": "yes", 
		 "theory": "DFT", 
		 "functional": "B3LYP", 
		 "basiset": "6-31G**", 
		 "properties": { 
			 "R2extent": 6155.3288, 
			 "electric_dipole_moment_norm": 3.6474516186, 
			 "electric_quadrupole_moment_norm": 14.9007217459, 
			 "total_energy": -1084.55436982, 
			 "HOMO_LUMO_gap": 0.17267, 
			 "cosmo_polarized_energy": -17.85, 
			 "cosmo_cavitation_energy": 34.37, 
			 "cosmo_dispersion_energy": -24.97, 
			 "cosmo_repulsion_energy": 1.94, 
			 "cosmo_total_nonelectrostatic_energy": 11.33, 
			 "SMD_solvation_energy": 5.64 
		},
		"coords": [
			{
				"x": -2.6615096603,
				"y": 4.7281983901,
				"z": 1.3451428932,
				"element": "O" 
			},
			{
				"x": -1.3885060576,
				"y": 4.3057683061,
				"z": 1.1434999404,
				"element": "C" 
			},
			{
				"x": -0.6431972282,
				"y": 4.8390172189,
				"z": 0.3519067463,
				"element": "O" 
			},
			{
				"x": -1.0559499813,
				"y": 3.1239257343,
				"z": 2.0287982853,
				"element": "C" 
			},
			{
				"x": 0.3305925956,
				"y": 2.5567599938,
				"z": 1.7365780779,
				"element": "C" 
			},
			{
				"x": 0.6892350687,
				"y": 1.2050854191,
				"z": 2.9302909711,
				"element": "S" 
			},
			{
				"x": 2.2224346611,
				"y": 0.4993305532,
				"z": 2.1733180819,
				"element": "C" 
			},
			{
				"x": 1.9884283649,
				"y": -0.3068236508,
				"z": 0.9378819645,
				"element": "C" 
			},
			{
				"x": 1.9342980945,
				"y": -1.6863332508,
				"z": 0.8365541052,
				"element": "C" 
			},
			{
				"x": 1.6776780602,
				"y": -1.9529324205,
				"z": -0.4912176897,
				"element": "N" 
			},
			{
				"x": 1.5238619057,
				"y": -3.1378469662,
				"z": -1.1689546446,
				"element": "C" 
			},
			{
				"x": 1.275416976,
				"y": -3.1127834204,
				"z": -2.5128585116,
				"element": "C" 
			},
			{
				"x": 1.1782477626,
				"y": -1.8716992349,
				"z": -3.2043538442,
				"element": "C" 
			},
			{
				"x": 1.3333380726,
				"y": -0.6857689533,
				"z": -2.527409752,
				"element": "C" 
			},
			{
				"x": 1.5892730052,
				"y": -0.7029436206,
				"z": -1.1368909752,
				"element": "C" 
			},
			{
				"x": 1.7796123156,
				"y": 0.292011427,
				"z": -0.2739344761,
				"element": "N" 
			},
			{
				"x": -2.7884106267,
				"y": 5.4876947206,
				"z": 0.7520489452,
				"element": "H" 
			},
			{
				"x": -1.8343002138,
				"y": 2.3640996792,
				"z": 1.8962774798,
				"element": "H" 
			},
			{
				"x": -1.1409354062,
				"y": 3.4589529407,
				"z": 3.0707696987,
				"element": "H" 
			},
			{
				"x": 1.0880601126,
				"y": 3.3391994948,
				"z": 1.8326063814,
				"element": "H" 
			},
			{
				"x": 0.3870610817,
				"y": 2.1548819132,
				"z": 0.7228596906,
				"element": "H" 
			},
			{
				"x": 2.908498704,
				"y": 1.3247188869,
				"z": 1.9636968415,
				"element": "H" 
			},
			{
				"x": 2.6630297847,
				"y": -0.1161165317,
				"z": 2.9617580614,
				"element": "H" 
			},
			{
				"x": 2.0444212811,
				"y": -2.4717762181,
				"z": 1.5679277953,
				"element": "H" 
			},
			{
				"x": 1.6090259145,
				"y": -4.0451199534,
				"z": -0.5830436668,
				"element": "H" 
			},
			{
				"x": 1.1535761686,
				"y": -4.0509422589,
				"z": -3.0419237697,
				"element": "H" 
			},
			{
				"x": 0.980876542,
				"y": -1.8691822469,
				"z": -4.2712037118,
				"element": "H" 
			},
			{
				"x": 1.2667427021,
				"y": 0.2779240485,
				"z": -3.0189249178,
				"element": "H" 
			}
		],
		 "valence_orbital": [ 
			{
				"type": "occ",
				"energy": -0.27335,
				"method": "rhf"
			},
			{
				"type": "occ",
				"energy": -0.2723,
				"method": "rhf"
			},
			{
				"type": "occ",
				"energy": -0.24121,
				"method": "rhf"
			},
			{
				"type": "occ",
				"energy": -0.21709,
				"method": "rhf"
			},
			{
				"type": "occ",
				"energy": -0.20897,
				"method": "rhf"
			},
			{
				"type": "unocc",
				"energy": -0.0363,
				"method": "rhf"
			},
			{
				"type": "unocc",
				"energy": -0.00059,
				"method": "rhf"
			},
			{
				"type": "unocc",
				"energy": 0.0137,
				"method": "rhf"
			},
			{
				"type": "unocc",
				"energy": 0.0343,
				"method": "rhf"
			},
			{
				"type": "unocc",
				"energy": 0.06162,
				"method": "rhf"
			}
		],
		"cosmo_sigma_profile": { 
			"-0.025": 0.0,
			"-0.024": 0.0,
			"-0.023": 0.0,
			"-0.022": 0.0,
			"-0.021": 0.0,
			"-0.02": 0.0,
			"-0.019": 0.0,
			"-0.018": 0.817026183729,
			"-0.017": 0.843418625105,
			"-0.016": 0.847003655666,
			"-0.015": 0.58480718735,
			"-0.014": 0.458154654912,
			"-0.013": 1.00750504202,
			"-0.012": 0.726702154936,
			"-0.011": 0.57281199579,
			"-0.01": 1.43057067615,
			"-0.009": 4.7060367981,
			"-0.008": 5.00237948418,
			"-0.007": 12.1205924588,
			"-0.006": 19.0477962052,
			"-0.005": 20.3677040868,
			"-0.004": 20.0102012371,
			"-0.003": 15.6793675627,
			"-0.002": 16.957656248,
			"-0.001": 12.2686970479,
			"0.0": 17.0891696743,
			"0.001": 16.1755155186,
			"0.002": 17.6023860161,
			"0.003": 17.8523744285,
			"0.004": 15.4278383732,
			"0.005": 8.39145803713,
			"0.006": 7.85336238566,
			"0.007": 8.49110942636,
			"0.008": 7.25532251223,
			"0.009": 6.3867760896,
			"0.01": 5.60117304038,
			"0.011": 5.92609058481,
			"0.012": 5.05201547502,
			"0.013": 0.902507278051,
			"0.014": 0.469872842052,
			"0.015": 0.677298995151,
			"0.016": 0.711780652362,
			"0.017": 0.0724670341513,
			"0.018": 0.0,
			"0.019": 0.0,
			"0.02": 0.0,
			"0.021": 0.0,
			"0.022": 0.0,
			"0.023": 0.0,
			"0.024": 0.0,
			"0.025": 0.0
		}
	}
}
