{
	 "smiles": "CC(C)(C)OC(=O)N1CC(=C)C[C@H]1C(O)=O", 
	 "Tm": 385.15, 
	 "num_atms": 33, 
	 "gaussian": { 
		 "optdone": 1, 
		 "sigma_profile": "yes", 
		 "theory": "DFT", 
		 "functional": "B3LYP", 
		 "basiset": "6-31G**", 
		 "properties": { 
			 "R2extent": 4325.9323, 
			 "electric_dipole_moment_norm": 1.28926753236, 
			 "electric_quadrupole_moment_norm": 13.5683082943, 
			 "total_energy": -785.089305397, 
			 "HOMO_LUMO_gap": 0.23829, 
			 "cosmo_polarized_energy": -14.23, 
			 "cosmo_cavitation_energy": 35.62, 
			 "cosmo_dispersion_energy": -23.59, 
			 "cosmo_repulsion_energy": 1.85, 
			 "cosmo_total_nonelectrostatic_energy": 13.88, 
			 "SMD_solvation_energy": 8.21 
		},
		"coords": [
			{
				"x": -1.4014520167,
				"y": -0.0951449925,
				"z": 2.5251222861,
				"element": "C" 
			},
			{
				"x": -0.7108084267,
				"y": -1.2804749888,
				"z": 1.8429687007,
				"element": "C" 
			},
			{
				"x": 0.3086651477,
				"y": -1.9660802193,
				"z": 2.7583412868,
				"element": "C" 
			},
			{
				"x": -1.7407522341,
				"y": -2.2844257833,
				"z": 1.3191075382,
				"element": "C" 
			},
			{
				"x": -0.0453192262,
				"y": -0.8327853935,
				"z": 0.6082449176,
				"element": "O" 
			},
			{
				"x": 0.9737146984,
				"y": 0.0608471446,
				"z": 0.6439832395,
				"element": "C" 
			},
			{
				"x": 1.394800085,
				"y": 0.6489720246,
				"z": 1.6285536057,
				"element": "O" 
			},
			{
				"x": 1.4873824529,
				"y": 0.2315918005,
				"z": -0.6110351913,
				"element": "N" 
			},
			{
				"x": 2.5095481479,
				"y": 1.2512767296,
				"z": -0.8625019606,
				"element": "C" 
			},
			{
				"x": 2.4862771611,
				"y": 1.3874922254,
				"z": -2.3679956932,
				"element": "C" 
			},
			{
				"x": 2.8378287284,
				"y": 2.4652298392,
				"z": -3.0657302295,
				"element": "C" 
			},
			{
				"x": 1.9433191896,
				"y": 0.0903965442,
				"z": -2.9249673679,
				"element": "C" 
			},
			{
				"x": 0.9807508803,
				"y": -0.4196685543,
				"z": -1.8173248619,
				"element": "C" 
			},
			{
				"x": 0.9780513412,
				"y": -1.9428463052,
				"z": -1.7573405387,
				"element": "C" 
			},
			{
				"x": 2.0585768943,
				"y": -2.4427440876,
				"z": -1.1155317534,
				"element": "O" 
			},
			{
				"x": 0.142863028,
				"y": -2.6386640223,
				"z": -2.2887106182,
				"element": "O" 
			},
			{
				"x": -0.6703186394,
				"y": 0.6327323458,
				"z": 2.877141306,
				"element": "H" 
			},
			{
				"x": -1.986636296,
				"y": -0.4536085374,
				"z": 3.3783803176,
				"element": "H" 
			},
			{
				"x": -2.0862409092,
				"y": 0.3973806956,
				"z": 1.8274944044,
				"element": "H" 
			},
			{
				"x": 1.0537776692,
				"y": -1.2541628567,
				"z": 3.1149829178,
				"element": "H" 
			},
			{
				"x": 0.8177540914,
				"y": -2.7717443789,
				"z": 2.2199040381,
				"element": "H" 
			},
			{
				"x": -0.2053091347,
				"y": -2.4026965595,
				"z": 3.6207252973,
				"element": "H" 
			},
			{
				"x": -1.2495343722,
				"y": -3.0981663355,
				"z": 0.778252772,
				"element": "H" 
			},
			{
				"x": -2.4420734506,
				"y": -1.7969457073,
				"z": 0.6359644199,
				"element": "H" 
			},
			{
				"x": -2.30698979,
				"y": -2.7102434719,
				"z": 2.1528405691,
				"element": "H" 
			},
			{
				"x": 3.4901578079,
				"y": 0.915279261,
				"z": -0.4952806969,
				"element": "H" 
			},
			{
				"x": 2.2659728242,
				"y": 2.1808137912,
				"z": -0.3402915143,
				"element": "H" 
			},
			{
				"x": 3.2081996801,
				"y": 3.3630816554,
				"z": -2.5793743448,
				"element": "H" 
			},
			{
				"x": 2.776994417,
				"y": 2.4847191075,
				"z": -4.1499737077,
				"element": "H" 
			},
			{
				"x": 1.4421743967,
				"y": 0.2029200484,
				"z": -3.8883743355,
				"element": "H" 
			},
			{
				"x": 2.7631011967,
				"y": -0.6286764906,
				"z": -3.050936737,
				"element": "H" 
			},
			{
				"x": -0.0530489161,
				"y": -0.1271581955,
				"z": -2.028663696,
				"element": "H" 
			},
			{
				"x": 1.9796735736,
				"y": -3.4094963328,
				"z": -1.1750743699,
				"element": "H" 
			}
		],
		 "valence_orbital": [ 
			{
				"type": "occ",
				"energy": -0.28756,
				"method": "rhf"
			},
			{
				"type": "occ",
				"energy": -0.28279,
				"method": "rhf"
			},
			{
				"type": "occ",
				"energy": -0.26272,
				"method": "rhf"
			},
			{
				"type": "occ",
				"energy": -0.26054,
				"method": "rhf"
			},
			{
				"type": "occ",
				"energy": -0.24064,
				"method": "rhf"
			},
			{
				"type": "unocc",
				"energy": -0.00235,
				"method": "rhf"
			},
			{
				"type": "unocc",
				"energy": 0.00725,
				"method": "rhf"
			},
			{
				"type": "unocc",
				"energy": 0.05379,
				"method": "rhf"
			},
			{
				"type": "unocc",
				"energy": 0.06427,
				"method": "rhf"
			},
			{
				"type": "unocc",
				"energy": 0.09177,
				"method": "rhf"
			}
		],
		"cosmo_sigma_profile": { 
			"-0.025": 0.0,
			"-0.024": 0.0,
			"-0.023": 0.0,
			"-0.022": 0.0,
			"-0.021": 0.0,
			"-0.02": 0.0,
			"-0.019": 0.150000439708,
			"-0.018": 1.05692792116,
			"-0.017": 0.37516093945,
			"-0.016": 1.15250786458,
			"-0.015": 1.08632833718,
			"-0.014": 0.492058715286,
			"-0.013": 0.289697776036,
			"-0.012": 0.577464217409,
			"-0.011": 0.957893733544,
			"-0.01": 0.699675346077,
			"-0.009": 0.522016795306,
			"-0.008": 0.701802387575,
			"-0.007": 1.46933404205,
			"-0.006": 8.07446071141,
			"-0.005": 16.724844849,
			"-0.004": 25.9137343272,
			"-0.003": 30.1165217965,
			"-0.002": 27.0446752167,
			"-0.001": 25.7260359049,
			"0.0": 32.8734770523,
			"0.001": 22.6150527276,
			"0.002": 11.1576314186,
			"0.003": 11.509995704,
			"0.004": 9.94633302308,
			"0.005": 8.29822588997,
			"0.006": 7.28550194633,
			"0.007": 4.60737340441,
			"0.008": 3.27877218565,
			"0.009": 3.67924224644,
			"0.01": 3.45841303998,
			"0.011": 6.11739366377,
			"0.012": 5.58008671227,
			"0.013": 3.67281847716,
			"0.014": 0.954391854398,
			"0.015": 0.0,
			"0.016": 0.0,
			"0.017": 0.0,
			"0.018": 0.0,
			"0.019": 0.0,
			"0.02": 0.0,
			"0.021": 0.0,
			"0.022": 0.0,
			"0.023": 0.0,
			"0.024": 0.0,
			"0.025": 0.0
		}
	}
}
