{
	 "smiles": "O=C1[C@H]2CC3=C(CC=CC3)C[C@H]2C(=O)[C@H]2CC3=C(CC=CC3)C[C@@H]12", 
	 "Tm": 574.15, 
	 "num_atms": 48, 
	 "gaussian": { 
		 "optdone": 1, 
		 "sigma_profile": "yes", 
		 "theory": "DFT", 
		 "functional": "B3LYP", 
		 "basiset": "6-31G**", 
		 "properties": { 
			 "R2extent": 9507.4407, 
			 "electric_dipole_moment_norm": 1.42270786179, 
			 "electric_quadrupole_moment_norm": 15.6754506063, 
			 "total_energy": -1003.21474864, 
			 "HOMO_LUMO_gap": 0.19272, 
			 "cosmo_polarized_energy": -14.13, 
			 "cosmo_cavitation_energy": 45.44, 
			 "cosmo_dispersion_energy": -32.46, 
			 "cosmo_repulsion_energy": 2.45, 
			 "cosmo_total_nonelectrostatic_energy": 15.43, 
			 "SMD_solvation_energy": 6.48 
		},
		"coords": [
			{
				"x": 2.0745649067,
				"y": -2.2232416524,
				"z": 1.1747932448,
				"element": "O" 
			},
			{
				"x": 1.1634830745,
				"y": -1.4399030781,
				"z": 1.3635166122,
				"element": "C" 
			},
			{
				"x": 1.3151246104,
				"y": 0.0437493286,
				"z": 1.0031938066,
				"element": "C" 
			},
			{
				"x": 1.6441391831,
				"y": 0.1905135479,
				"z": -0.4968094018,
				"element": "C" 
			},
			{
				"x": 1.5980023079,
				"y": 1.6166268791,
				"z": -0.9935278032,
				"element": "C" 
			},
			{
				"x": 0.9622428651,
				"y": 2.592267917,
				"z": -0.3272428932,
				"element": "C" 
			},
			{
				"x": 0.9047828744,
				"y": 4.0161688378,
				"z": -0.8327687086,
				"element": "C" 
			},
			{
				"x": 1.6154037093,
				"y": 4.2405873606,
				"z": -2.13733263,
				"element": "C" 
			},
			{
				"x": 2.2334484369,
				"y": 3.2670066629,
				"z": -2.806007693,
				"element": "C" 
			},
			{
				"x": 2.2935295075,
				"y": 1.8479921834,
				"z": -2.3162322807,
				"element": "C" 
			},
			{
				"x": 0.2520639815,
				"y": 2.3692662891,
				"z": 0.9896714895,
				"element": "C" 
			},
			{
				"x": 0.093685059,
				"y": 0.9019834877,
				"z": 1.4050224388,
				"element": "C" 
			},
			{
				"x": -1.19973077,
				"y": 0.2568642336,
				"z": 0.9010441465,
				"element": "C" 
			},
			{
				"x": -2.0791369952,
				"y": 0.878880259,
				"z": 0.3362129205,
				"element": "O" 
			},
			{
				"x": -1.3475137485,
				"y": -1.2468335871,
				"z": 1.1678386599,
				"element": "C" 
			},
			{
				"x": -1.5580536875,
				"y": -1.9995775663,
				"z": -0.1621062321,
				"element": "C" 
			},
			{
				"x": -1.4983000671,
				"y": -3.5031464249,
				"z": -0.0264793859,
				"element": "C" 
			},
			{
				"x": -0.9343562634,
				"y": -4.110158339,
				"z": 1.0287404906,
				"element": "C" 
			},
			{
				"x": -0.862080992,
				"y": -5.615084659,
				"z": 1.1563881049,
				"element": "C" 
			},
			{
				"x": -1.4714878032,
				"y": -6.3653161386,
				"z": 0.0061804889,
				"element": "C" 
			},
			{
				"x": -2.0179234237,
				"y": -5.7608810554,
				"z": -1.0488303003,
				"element": "C" 
			},
			{
				"x": -2.0915641962,
				"y": -4.2668871745,
				"z": -1.1890380133,
				"element": "C" 
			},
			{
				"x": -0.3264755728,
				"y": -3.3563827552,
				"z": 2.1908610743,
				"element": "C" 
			},
			{
				"x": -0.1770642196,
				"y": -1.8449175764,
				"z": 1.9817001272,
				"element": "C" 
			},
			{
				"x": 2.1858205074,
				"y": 0.4072340463,
				"z": 1.5647078236,
				"element": "H" 
			},
			{
				"x": 2.6343955916,
				"y": -0.2458585758,
				"z": -0.6717434316,
				"element": "H" 
			},
			{
				"x": 0.9545236108,
				"y": -0.4199664443,
				"z": -1.1002529629,
				"element": "H" 
			},
			{
				"x": 1.3123846929,
				"y": 4.6943011867,
				"z": -0.0634246556,
				"element": "H" 
			},
			{
				"x": -0.1505680156,
				"y": 4.3215268301,
				"z": -0.9278884732,
				"element": "H" 
			},
			{
				"x": 1.604000932,
				"y": 5.253166695,
				"z": -2.5361750137,
				"element": "H" 
			},
			{
				"x": 2.7282085201,
				"y": 3.4832280164,
				"z": -3.7509512433,
				"element": "H" 
			},
			{
				"x": 3.3457666831,
				"y": 1.5273438173,
				"z": -2.2341788996,
				"element": "H" 
			},
			{
				"x": 1.8665447737,
				"y": 1.1718153316,
				"z": -3.0767248277,
				"element": "H" 
			},
			{
				"x": 0.7905979433,
				"y": 2.9159202924,
				"z": 1.7779771892,
				"element": "H" 
			},
			{
				"x": -0.7463878176,
				"y": 2.8200977631,
				"z": 0.9361920035,
				"element": "H" 
			},
			{
				"x": 0.0062460436,
				"y": 0.8613151726,
				"z": 2.5022889666,
				"element": "H" 
			},
			{
				"x": -2.2664733015,
				"y": -1.3637491137,
				"z": 1.7572390266,
				"element": "H" 
			},
			{
				"x": -0.8111190418,
				"y": -1.6783367209,
				"z": -0.9045813198,
				"element": "H" 
			},
			{
				"x": -2.5229516138,
				"y": -1.6889808127,
				"z": -0.57934924,
				"element": "H" 
			},
			{
				"x": -1.3407702193,
				"y": -5.9256093726,
				"z": 2.1010150837,
				"element": "H" 
			},
			{
				"x": 0.1920021954,
				"y": -5.9152837427,
				"z": 1.2782720337,
				"element": "H" 
			},
			{
				"x": -1.4463711794,
				"y": -7.4521081711,
				"z": 0.0588453499,
				"element": "H" 
			},
			{
				"x": -2.4404503842,
				"y": -6.3529401842,
				"z": -1.8583934895,
				"element": "H" 
			},
			{
				"x": -1.5943833482,
				"y": -3.9543076544,
				"z": -2.1233731664,
				"element": "H" 
			},
			{
				"x": -3.1412365884,
				"y": -3.9579008821,
				"z": -1.3285998381,
				"element": "H" 
			},
			{
				"x": 0.6655567956,
				"y": -3.7724215416,
				"z": 2.4048888839,
				"element": "H" 
			},
			{
				"x": -0.9343071203,
				"y": -3.5425965532,
				"z": 3.0887096861,
				"element": "H" 
			},
			{
				"x": -0.1771124365,
				"y": -1.3579663621,
				"z": 2.9697122518,
				"element": "H" 
			}
		],
		 "valence_orbital": [ 
			{
				"type": "occ",
				"energy": -0.24622,
				"method": "rhf"
			},
			{
				"type": "occ",
				"energy": -0.24499,
				"method": "rhf"
			},
			{
				"type": "occ",
				"energy": -0.24138,
				"method": "rhf"
			},
			{
				"type": "occ",
				"energy": -0.22321,
				"method": "rhf"
			},
			{
				"type": "occ",
				"energy": -0.22195,
				"method": "rhf"
			},
			{
				"type": "unocc",
				"energy": -0.02923,
				"method": "rhf"
			},
			{
				"type": "unocc",
				"energy": -0.01692,
				"method": "rhf"
			},
			{
				"type": "unocc",
				"energy": 0.02173,
				"method": "rhf"
			},
			{
				"type": "unocc",
				"energy": 0.02683,
				"method": "rhf"
			},
			{
				"type": "unocc",
				"energy": 0.03429,
				"method": "rhf"
			}
		],
		"cosmo_sigma_profile": { 
			"-0.025": 0.0,
			"-0.024": 0.0,
			"-0.023": 0.0,
			"-0.022": 0.0,
			"-0.021": 0.0,
			"-0.02": 0.0,
			"-0.019": 0.0,
			"-0.018": 0.0,
			"-0.017": 0.0,
			"-0.016": 0.0,
			"-0.015": 0.0,
			"-0.014": 0.0,
			"-0.013": 0.0,
			"-0.012": 0.0,
			"-0.011": 0.0,
			"-0.01": 0.0265911796353,
			"-0.009": 1.64930751539,
			"-0.008": 3.36224451695,
			"-0.007": 4.30916444513,
			"-0.006": 9.76698132396,
			"-0.005": 14.2046222553,
			"-0.004": 29.9387744077,
			"-0.003": 54.2934425101,
			"-0.002": 48.3821754395,
			"-0.001": 46.024110714,
			"0.0": 25.1125386355,
			"0.001": 14.7826895645,
			"0.002": 13.2109170684,
			"0.003": 11.7325584548,
			"0.004": 14.0747440526,
			"0.005": 15.9650667813,
			"0.006": 12.2710261121,
			"0.007": 7.56515009714,
			"0.008": 4.99227652265,
			"0.009": 3.27051197252,
			"0.01": 4.45757682543,
			"0.011": 6.24384737674,
			"0.012": 7.46978182965,
			"0.013": 1.34430273904,
			"0.014": 0.0,
			"0.015": 0.0,
			"0.016": 0.0,
			"0.017": 0.0,
			"0.018": 0.0,
			"0.019": 0.0,
			"0.02": 0.0,
			"0.021": 0.0,
			"0.022": 0.0,
			"0.023": 0.0,
			"0.024": 0.0,
			"0.025": 0.0
		}
	}
}
