{
	 "smiles": "CC(C)CCCC(C)C1CCC2C3CC(O)C4(O)CC(O)CCC4(C)C3CCC12C", 
	 "Tm": 511.15, 
	 "num_atms": 78, 
	 "gaussian": { 
		 "optdone": 1, 
		 "sigma_profile": "yes", 
		 "theory": "DFT", 
		 "functional": "B3LYP", 
		 "basiset": "6-31G**", 
		 "properties": { 
			 "R2extent": 20979.4531, 
			 "electric_dipole_moment_norm": 1.60294964051, 
			 "electric_quadrupole_moment_norm": 14.6954467149, 
			 "total_energy": -1283.4969302, 
			 "HOMO_LUMO_gap": 0.29665, 
			 "cosmo_polarized_energy": -11.99, 
			 "cosmo_cavitation_energy": 63.69, 
			 "cosmo_dispersion_energy": -44.03, 
			 "cosmo_repulsion_energy": 3.24, 
			 "cosmo_total_nonelectrostatic_energy": 22.9, 
			 "SMD_solvation_energy": 8.74 
		},
		"coords": [
			{
				"x": 0.1995030768,
				"y": -7.9950875458,
				"z": 0.3763791844,
				"element": "C" 
			},
			{
				"x": -0.7334308779,
				"y": -7.0010508615,
				"z": -0.331995503,
				"element": "C" 
			},
			{
				"x": -2.1749327601,
				"y": -7.1671691965,
				"z": 0.1736048525,
				"element": "C" 
			},
			{
				"x": -0.2089190102,
				"y": -5.5590690676,
				"z": -0.1701083516,
				"element": "C" 
			},
			{
				"x": -0.939033293,
				"y": -4.5024824399,
				"z": -1.011989484,
				"element": "C" 
			},
			{
				"x": -0.42523608,
				"y": -3.0612551252,
				"z": -0.8230306322,
				"element": "C" 
			},
			{
				"x": 1.0364125272,
				"y": -2.7921798399,
				"z": -1.2466016955,
				"element": "C" 
			},
			{
				"x": 1.2599659297,
				"y": -3.0940385157,
				"z": -2.7414424333,
				"element": "C" 
			},
			{
				"x": 1.5665698219,
				"y": -1.4231185515,
				"z": -0.7227192737,
				"element": "C" 
			},
			{
				"x": 3.0766100916,
				"y": -1.2154932251,
				"z": -0.9426322024,
				"element": "C" 
			},
			{
				"x": 3.3144684382,
				"y": 0.1943273049,
				"z": -0.3996107827,
				"element": "C" 
			},
			{
				"x": 2.1087142179,
				"y": 1.0044984517,
				"z": -0.9237321026,
				"element": "C" 
			},
			{
				"x": 1.7296167792,
				"y": 2.2222140135,
				"z": -0.0579872215,
				"element": "C" 
			},
			{
				"x": 2.8367046024,
				"y": 3.2794342755,
				"z": -0.0138174683,
				"element": "C" 
			},
			{
				"x": 2.4889469582,
				"y": 4.4731780825,
				"z": 0.9015698089,
				"element": "C" 
			},
			{
				"x": 3.0674434073,
				"y": 5.6842082007,
				"z": 0.3993168197,
				"element": "O" 
			},
			{
				"x": 0.9588162526,
				"y": 4.6803109178,
				"z": 1.0975515997,
				"element": "C" 
			},
			{
				"x": 0.6081210047,
				"y": 3.745209263,
				"z": 2.1350742487,
				"element": "O" 
			},
			{
				"x": 0.6799079192,
				"y": 6.1148445627,
				"z": 1.5984900761,
				"element": "C" 
			},
			{
				"x": -0.8079979227,
				"y": 6.4003636544,
				"z": 1.8157765351,
				"element": "C" 
			},
			{
				"x": -1.2216247285,
				"y": 5.6158319461,
				"z": 2.9586945241,
				"element": "O" 
			},
			{
				"x": -1.6343796194,
				"y": 6.0486770371,
				"z": 0.574272465,
				"element": "C" 
			},
			{
				"x": -1.3642666447,
				"y": 4.6131219548,
				"z": 0.0967809906,
				"element": "C" 
			},
			{
				"x": 0.1355278695,
				"y": 4.3248607603,
				"z": -0.188631351,
				"element": "C" 
			},
			{
				"x": 0.5600546525,
				"y": 5.2014090175,
				"z": -1.3956245344,
				"element": "C" 
			},
			{
				"x": 0.3886715825,
				"y": 2.8062323335,
				"z": -0.5764896911,
				"element": "C" 
			},
			{
				"x": -0.7322815876,
				"y": 1.7942486489,
				"z": -0.2255317759,
				"element": "C" 
			},
			{
				"x": -0.2315794982,
				"y": 0.3305556108,
				"z": -0.1433061048,
				"element": "C" 
			},
			{
				"x": 0.9181555895,
				"y": -0.0341043572,
				"z": -1.112294843,
				"element": "C" 
			},
			{
				"x": 0.4154391551,
				"y": 0.0185586544,
				"z": -2.5680878647,
				"element": "C" 
			},
			{
				"x": 0.2337056982,
				"y": -7.7984090989,
				"z": 1.4551859815,
				"element": "H" 
			},
			{
				"x": 1.2239168054,
				"y": -7.9251270366,
				"z": -0.0058384153,
				"element": "H" 
			},
			{
				"x": -0.1398006224,
				"y": -9.0277772949,
				"z": 0.2396015217,
				"element": "H" 
			},
			{
				"x": -0.723221029,
				"y": -7.2394098037,
				"z": -1.4067327212,
				"element": "H" 
			},
			{
				"x": -2.8792205842,
				"y": -6.5250199276,
				"z": -0.3637204234,
				"element": "H" 
			},
			{
				"x": -2.5153269991,
				"y": -8.2014663881,
				"z": 0.0525282592,
				"element": "H" 
			},
			{
				"x": -2.2435660671,
				"y": -6.9190585424,
				"z": 1.2403087782,
				"element": "H" 
			},
			{
				"x": 0.8580712357,
				"y": -5.5553769287,
				"z": -0.4282774375,
				"element": "H" 
			},
			{
				"x": -0.2628267423,
				"y": -5.2778756568,
				"z": 0.8928058214,
				"element": "H" 
			},
			{
				"x": -2.005612575,
				"y": -4.5075209417,
				"z": -0.7562141576,
				"element": "H" 
			},
			{
				"x": -0.88655005,
				"y": -4.7851334425,
				"z": -2.0718853677,
				"element": "H" 
			},
			{
				"x": -1.0907233896,
				"y": -2.3896370452,
				"z": -1.3799734194,
				"element": "H" 
			},
			{
				"x": -0.5390483073,
				"y": -2.790657873,
				"z": 0.2357632411,
				"element": "H" 
			},
			{
				"x": 1.6597077281,
				"y": -3.5168429353,
				"z": -0.7017763362,
				"element": "H" 
			},
			{
				"x": 1.1499503018,
				"y": -4.1663305205,
				"z": -2.9329843651,
				"element": "H" 
			},
			{
				"x": 2.2663282378,
				"y": -2.8161930891,
				"z": -3.0679533821,
				"element": "H" 
			},
			{
				"x": 0.5450096981,
				"y": -2.5754475756,
				"z": -3.3854318789,
				"element": "H" 
			},
			{
				"x": 1.4433228319,
				"y": -1.4920546043,
				"z": 0.3692410849,
				"element": "H" 
			},
			{
				"x": 3.6801569736,
				"y": -1.9834463323,
				"z": -0.4450532612,
				"element": "H" 
			},
			{
				"x": 3.3279941829,
				"y": -1.2489981114,
				"z": -2.0104997757,
				"element": "H" 
			},
			{
				"x": 4.2751859378,
				"y": 0.6196187322,
				"z": -0.7080372444,
				"element": "H" 
			},
			{
				"x": 3.307774177,
				"y": 0.1737283288,
				"z": 0.6990221083,
				"element": "H" 
			},
			{
				"x": 2.3722806529,
				"y": 1.3865206126,
				"z": -1.9214192986,
				"element": "H" 
			},
			{
				"x": 1.5722304834,
				"y": 1.8830643032,
				"z": 0.9720236211,
				"element": "H" 
			},
			{
				"x": 3.0203182599,
				"y": 3.660183148,
				"z": -1.0267068137,
				"element": "H" 
			},
			{
				"x": 3.7794018273,
				"y": 2.8298897282,
				"z": 0.3220630055,
				"element": "H" 
			},
			{
				"x": 2.8653423905,
				"y": 4.2764639742,
				"z": 1.9153330295,
				"element": "H" 
			},
			{
				"x": 4.010926452,
				"y": 5.5202121145,
				"z": 0.2765656613,
				"element": "H" 
			},
			{
				"x": -0.1325274374,
				"y": 4.1350858824,
				"z": 2.6297625218,
				"element": "H" 
			},
			{
				"x": 1.2147317519,
				"y": 6.2624518049,
				"z": 2.5433586152,
				"element": "H" 
			},
			{
				"x": 1.082354593,
				"y": 6.8440342595,
				"z": 0.8932259468,
				"element": "H" 
			},
			{
				"x": -0.9396133978,
				"y": 7.4651233389,
				"z": 2.0597937678,
				"element": "H" 
			},
			{
				"x": -2.1851721903,
				"y": 5.6508633221,
				"z": 3.0208658728,
				"element": "H" 
			},
			{
				"x": -1.4079534049,
				"y": 6.7785723415,
				"z": -0.2112442823,
				"element": "H" 
			},
			{
				"x": -2.7041023127,
				"y": 6.1739048738,
				"z": 0.7975638123,
				"element": "H" 
			},
			{
				"x": -1.729275074,
				"y": 3.9331149022,
				"z": 0.8694499316,
				"element": "H" 
			},
			{
				"x": -1.9559751785,
				"y": 4.4077640497,
				"z": -0.803168335,
				"element": "H" 
			},
			{
				"x": 1.5962688771,
				"y": 5.0335766167,
				"z": -1.6889136947,
				"element": "H" 
			},
			{
				"x": -0.0760434897,
				"y": 4.9666594978,
				"z": -2.257188866,
				"element": "H" 
			},
			{
				"x": 0.464672677,
				"y": 6.2718582238,
				"z": -1.1982941557,
				"element": "H" 
			},
			{
				"x": 0.4726060056,
				"y": 2.8117431251,
				"z": -1.6717251943,
				"element": "H" 
			},
			{
				"x": -1.1596964847,
				"y": 2.0349855273,
				"z": 0.7507416698,
				"element": "H" 
			},
			{
				"x": -1.5476635752,
				"y": 1.876392631,
				"z": -0.9538866286,
				"element": "H" 
			},
			{
				"x": -1.0799731431,
				"y": -0.3462893074,
				"z": -0.2922455564,
				"element": "H" 
			},
			{
				"x": 0.1187694602,
				"y": 0.1438531503,
				"z": 0.8786046302,
				"element": "H" 
			},
			{
				"x": 0.0843139107,
				"y": 1.028613744,
				"z": -2.8289997792,
				"element": "H" 
			},
			{
				"x": -0.4339265459,
				"y": -0.6520045312,
				"z": -2.7313937589,
				"element": "H" 
			},
			{
				"x": 1.2032095965,
				"y": -0.2543372096,
				"z": -3.2774221219,
				"element": "H" 
			}
		],
		 "valence_orbital": [ 
			{
				"type": "occ",
				"energy": -0.27399,
				"method": "rhf"
			},
			{
				"type": "occ",
				"energy": -0.27028,
				"method": "rhf"
			},
			{
				"type": "occ",
				"energy": -0.25642,
				"method": "rhf"
			},
			{
				"type": "occ",
				"energy": -0.24929,
				"method": "rhf"
			},
			{
				"type": "occ",
				"energy": -0.23764,
				"method": "rhf"
			},
			{
				"type": "unocc",
				"energy": 0.05901,
				"method": "rhf"
			},
			{
				"type": "unocc",
				"energy": 0.07448,
				"method": "rhf"
			},
			{
				"type": "unocc",
				"energy": 0.0799,
				"method": "rhf"
			},
			{
				"type": "unocc",
				"energy": 0.08908,
				"method": "rhf"
			},
			{
				"type": "unocc",
				"energy": 0.09158,
				"method": "rhf"
			}
		],
		"cosmo_sigma_profile": { 
			"-0.025": 0.0,
			"-0.024": 0.0,
			"-0.023": 0.0,
			"-0.022": 0.0,
			"-0.021": 0.0,
			"-0.02": 0.0,
			"-0.019": 0.0,
			"-0.018": 0.0,
			"-0.017": 0.0,
			"-0.016": 0.272265391751,
			"-0.015": 1.60381478407,
			"-0.014": 1.66252792318,
			"-0.013": 1.89224622619,
			"-0.012": 1.69487142278,
			"-0.011": 1.93179404789,
			"-0.01": 2.11814204798,
			"-0.009": 1.59559619345,
			"-0.008": 1.29025977777,
			"-0.007": 2.36043162237,
			"-0.006": 2.17009706544,
			"-0.005": 2.92324212352,
			"-0.004": 6.81752028002,
			"-0.003": 19.2463988081,
			"-0.002": 58.8934171361,
			"-0.001": 100.898865469,
			"0.0": 101.531078017,
			"0.001": 77.2888827549,
			"0.002": 50.5811371957,
			"0.003": 10.1520879084,
			"0.004": 3.99365143408,
			"0.005": 4.26629485429,
			"0.006": 4.55950658098,
			"0.007": 3.41268715995,
			"0.008": 4.12653621672,
			"0.009": 3.8915546817,
			"0.01": 2.82096214176,
			"0.011": 2.84398932134,
			"0.012": 3.9940661032,
			"0.013": 2.09980819769,
			"0.014": 0.509436962104,
			"0.015": 0.314009796674,
			"0.016": 0.0,
			"0.017": 0.0,
			"0.018": 0.0,
			"0.019": 0.0,
			"0.02": 0.0,
			"0.021": 0.0,
			"0.022": 0.0,
			"0.023": 0.0,
			"0.024": 0.0,
			"0.025": 0.0
		}
	}
}
