{
	 "smiles": "CN1CCN(CC2=CC=C(CO)C=C2)CC1", 
	 "Tm": 370.15, 
	 "num_atms": 36, 
	 "gaussian": { 
		 "optdone": 1, 
		 "sigma_profile": "yes", 
		 "theory": "DFT", 
		 "functional": "B3LYP", 
		 "basiset": "6-31G**", 
		 "properties": { 
			 "R2extent": 6041.3434, 
			 "electric_dipole_moment_norm": 1.34197921742, 
			 "electric_quadrupole_moment_norm": 13.9898275961, 
			 "total_energy": -692.126924464, 
			 "HOMO_LUMO_gap": 0.18422, 
			 "cosmo_polarized_energy": -10.95, 
			 "cosmo_cavitation_energy": 36.4, 
			 "cosmo_dispersion_energy": -26.09, 
			 "cosmo_repulsion_energy": 2.05, 
			 "cosmo_total_nonelectrostatic_energy": 12.36, 
			 "SMD_solvation_energy": 1.16 
		},
		"coords": [
			{
				"x": -3.4379627803,
				"y": -2.6725500033,
				"z": -0.9327291854,
				"element": "C" 
			},
			{
				"x": -2.516989114,
				"y": -1.7121986835,
				"z": -0.3565360402,
				"element": "N" 
			},
			{
				"x": -2.4962155095,
				"y": -0.429757143,
				"z": -1.0416562225,
				"element": "C" 
			},
			{
				"x": -1.7743715587,
				"y": 0.6193264645,
				"z": -0.1746338193,
				"element": "C" 
			},
			{
				"x": -0.69414916,
				"y": 0.0011788712,
				"z": 0.5971346534,
				"element": "N" 
			},
			{
				"x": 0.2435144154,
				"y": 0.9474527063,
				"z": 1.2015543638,
				"element": "C" 
			},
			{
				"x": 1.1212099646,
				"y": 1.7523176846,
				"z": 0.2495501721,
				"element": "C" 
			},
			{
				"x": 2.3231405214,
				"y": 1.2256094181,
				"z": -0.2459063028,
				"element": "C" 
			},
			{
				"x": 3.1103608875,
				"y": 1.9431325243,
				"z": -1.144987951,
				"element": "C" 
			},
			{
				"x": 2.7171980879,
				"y": 3.2154368363,
				"z": -1.5789762042,
				"element": "C" 
			},
			{
				"x": 3.5914481013,
				"y": 4.0083177759,
				"z": -2.5316524284,
				"element": "C" 
			},
			{
				"x": 4.3344031736,
				"y": 3.1999448308,
				"z": -3.4337469413,
				"element": "O" 
			},
			{
				"x": 1.5203967824,
				"y": 3.7481652249,
				"z": -1.0886529437,
				"element": "C" 
			},
			{
				"x": 0.7389695173,
				"y": 3.0296434633,
				"z": -0.1829289138,
				"element": "C" 
			},
			{
				"x": -0.1104756134,
				"y": -1.1454753137,
				"z": -0.079799802,
				"element": "C" 
			},
			{
				"x": -1.1660134316,
				"y": -2.2640065912,
				"z": -0.2120650866,
				"element": "C" 
			},
			{
				"x": -4.4532512866,
				"y": -2.2618776158,
				"z": -0.9375531054,
				"element": "H" 
			},
			{
				"x": -3.1814319487,
				"y": -2.9667966873,
				"z": -1.9705276139,
				"element": "H" 
			},
			{
				"x": -3.4468393611,
				"y": -3.5836157179,
				"z": -0.3240291902,
				"element": "H" 
			},
			{
				"x": -2.0185373008,
				"y": -0.4946436474,
				"z": -2.0403897511,
				"element": "H" 
			},
			{
				"x": -3.5267956868,
				"y": -0.1024402167,
				"z": -1.2158653113,
				"element": "H" 
			},
			{
				"x": -1.4156815178,
				"y": 1.4238426087,
				"z": -0.8402713898,
				"element": "H" 
			},
			{
				"x": -2.4811690334,
				"y": 1.0715723374,
				"z": 0.5342597117,
				"element": "H" 
			},
			{
				"x": 0.8833737485,
				"y": 0.3789848864,
				"z": 1.8879956075,
				"element": "H" 
			},
			{
				"x": -0.3465093792,
				"y": 1.6404992737,
				"z": 1.8152387916,
				"element": "H" 
			},
			{
				"x": 2.6545537624,
				"y": 0.2450254695,
				"z": 0.0878566602,
				"element": "H" 
			},
			{
				"x": 4.0400244236,
				"y": 1.5249114473,
				"z": -1.519303903,
				"element": "H" 
			},
			{
				"x": 2.9757448178,
				"y": 4.7500629207,
				"z": -3.0652653852,
				"element": "H" 
			},
			{
				"x": 4.3457348123,
				"y": 4.5725549164,
				"z": -1.9695772567,
				"element": "H" 
			},
			{
				"x": 3.7016578409,
				"y": 2.6543609877,
				"z": -3.9199774803,
				"element": "H" 
			},
			{
				"x": 1.1970628511,
				"y": 4.7347337058,
				"z": -1.4142531274,
				"element": "H" 
			},
			{
				"x": -0.1801899255,
				"y": 3.4691789184,
				"z": 0.197616987,
				"element": "H" 
			},
			{
				"x": 0.3028262017,
				"y": -0.8958906169,
				"z": -1.0745494238,
				"element": "H" 
			},
			{
				"x": 0.7304922632,
				"y": -1.5165190541,
				"z": 0.5164309622,
				"element": "H" 
			},
			{
				"x": -1.1526748866,
				"y": -2.90694598,
				"z": 0.6771561279,
				"element": "H" 
			},
			{
				"x": -0.8891546789,
				"y": -2.8979360016,
				"z": -1.0772592581,
				"element": "H" 
			}
		],
		 "valence_orbital": [ 
			{
				"type": "occ",
				"energy": -0.27667,
				"method": "rhf"
			},
			{
				"type": "occ",
				"energy": -0.24997,
				"method": "rhf"
			},
			{
				"type": "occ",
				"energy": -0.2386,
				"method": "rhf"
			},
			{
				"type": "occ",
				"energy": -0.21103,
				"method": "rhf"
			},
			{
				"type": "occ",
				"energy": -0.19062,
				"method": "rhf"
			},
			{
				"type": "unocc",
				"energy": -0.0064,
				"method": "rhf"
			},
			{
				"type": "unocc",
				"energy": -0.00349,
				"method": "rhf"
			},
			{
				"type": "unocc",
				"energy": 0.07897,
				"method": "rhf"
			},
			{
				"type": "unocc",
				"energy": 0.08728,
				"method": "rhf"
			},
			{
				"type": "unocc",
				"energy": 0.09779,
				"method": "rhf"
			}
		],
		"cosmo_sigma_profile": { 
			"-0.025": 0.0,
			"-0.024": 0.0,
			"-0.023": 0.0,
			"-0.022": 0.0,
			"-0.021": 0.0,
			"-0.02": 0.0,
			"-0.019": 0.0,
			"-0.018": 0.0,
			"-0.017": 0.0,
			"-0.016": 0.00970677323105,
			"-0.015": 0.744167037707,
			"-0.014": 1.02928704667,
			"-0.013": 0.63311080265,
			"-0.012": 1.08628434181,
			"-0.011": 0.804398988256,
			"-0.01": 0.601947157382,
			"-0.009": 1.01116789595,
			"-0.008": 0.734167443096,
			"-0.007": 0.662846430163,
			"-0.006": 1.52122080037,
			"-0.005": 11.9012709145,
			"-0.004": 26.8924530208,
			"-0.003": 29.9434845171,
			"-0.002": 36.9034701226,
			"-0.001": 47.4772189251,
			"0.0": 34.8675032813,
			"0.001": 15.232201851,
			"0.002": 10.0810030433,
			"0.003": 10.0238362659,
			"0.004": 9.4345737611,
			"0.005": 8.93146795984,
			"0.006": 9.40616602541,
			"0.007": 3.40606035874,
			"0.008": 1.82372798958,
			"0.009": 1.70353631783,
			"0.01": 2.8319374575,
			"0.011": 1.42090539317,
			"0.012": 2.14515223418,
			"0.013": 2.08312584376,
			"0.014": 3.70566191498,
			"0.015": 1.13828454953,
			"0.016": 0.930748676539,
			"0.017": 1.1771916878,
			"0.018": 0.487349946188,
			"0.019": 0.0,
			"0.02": 0.0,
			"0.021": 0.0,
			"0.022": 0.0,
			"0.023": 0.0,
			"0.024": 0.0,
			"0.025": 0.0
		}
	}
}
