{
	 "smiles": "NC1=C(C=C2OCCCOC2=C1)[N+]([O-])=O", 
	 "Tm": 348.15, 
	 "num_atms": 25, 
	 "gaussian": { 
		 "optdone": 1, 
		 "sigma_profile": "yes", 
		 "theory": "DFT", 
		 "functional": "B3LYP", 
		 "basiset": "6-31G**", 
		 "properties": { 
			 "R2extent": 4476.528, 
			 "electric_dipole_moment_norm": 6.14312558068, 
			 "electric_quadrupole_moment_norm": 24.9078264001, 
			 "total_energy": -759.267770209, 
			 "HOMO_LUMO_gap": 0.13499, 
			 "cosmo_polarized_energy": -14.18, 
			 "cosmo_cavitation_energy": 28.13, 
			 "cosmo_dispersion_energy": -21.67, 
			 "cosmo_repulsion_energy": 1.69, 
			 "cosmo_total_nonelectrostatic_energy": 8.16, 
			 "SMD_solvation_energy": 6.87 
		},
		"coords": [
			{
				"x": -0.6507467634,
				"y": 1.1463399038,
				"z": 4.6027183067,
				"element": "N" 
			},
			{
				"x": -0.5021918332,
				"y": 1.0051807829,
				"z": 3.2579917152,
				"element": "C" 
			},
			{
				"x": -0.421476673,
				"y": 2.0993620493,
				"z": 2.349858295,
				"element": "C" 
			},
			{
				"x": -0.256142458,
				"y": 1.8795415498,
				"z": 0.9717210102,
				"element": "C" 
			},
			{
				"x": -0.1365626293,
				"y": 0.6100235197,
				"z": 0.4483997829,
				"element": "C" 
			},
			{
				"x": 0.0269592835,
				"y": 0.4802604048,
				"z": -0.9145353685,
				"element": "O" 
			},
			{
				"x": -0.7491273264,
				"y": -0.5555405935,
				"z": -1.5323069465,
				"element": "C" 
			},
			{
				"x": -0.0014847616,
				"y": -1.8937452917,
				"z": -1.5183057827,
				"element": "C" 
			},
			{
				"x": 0.7514996015,
				"y": -2.0783570985,
				"z": -0.202904222,
				"element": "C" 
			},
			{
				"x": -0.0747889722,
				"y": -1.7974611421,
				"z": 0.9427879225,
				"element": "O" 
			},
			{
				"x": -0.180133613,
				"y": -0.4975716217,
				"z": 1.3419544746,
				"element": "C" 
			},
			{
				"x": -0.3699974002,
				"y": -0.2842495206,
				"z": 2.6994112101,
				"element": "C" 
			},
			{
				"x": -0.5480861096,
				"y": 3.4686561189,
				"z": 2.7824217523,
				"element": "N" 
			},
			{
				"x": -0.7431208268,
				"y": 3.7040965867,
				"z": 3.9930309405,
				"element": "O" 
			},
			{
				"x": -0.4625552092,
				"y": 4.3658926125,
				"z": 1.9403908463,
				"element": "O" 
			},
			{
				"x": -0.8363912604,
				"y": 0.3321207417,
				"z": 5.1637294692,
				"element": "H" 
			},
			{
				"x": -0.8310671799,
				"y": 2.0746858772,
				"z": 4.957479808,
				"element": "H" 
			},
			{
				"x": -0.2340867979,
				"y": 2.7338258221,
				"z": 0.3082547426,
				"element": "H" 
			},
			{
				"x": -1.7139646663,
				"y": -0.6448802422,
				"z": -1.0193765453,
				"element": "H" 
			},
			{
				"x": -0.9403687088,
				"y": -0.2213763046,
				"z": -2.5558123981,
				"element": "H" 
			},
			{
				"x": -0.7185633218,
				"y": -2.7079513784,
				"z": -1.6738972883,
				"element": "H" 
			},
			{
				"x": 0.7286079582,
				"y": -1.9397854951,
				"z": -2.3350776291,
				"element": "H" 
			},
			{
				"x": 1.6383233596,
				"y": -1.4372135924,
				"z": -0.1738636971,
				"element": "H" 
			},
			{
				"x": 1.0730107871,
				"y": -3.1149944849,
				"z": -0.0752015717,
				"element": "H" 
			},
			{
				"x": -0.3907444789,
				"y": -1.1543592039,
				"z": 3.3477311731,
				"element": "H" 
			}
		],
		 "valence_orbital": [ 
			{
				"type": "occ",
				"energy": -0.29403,
				"method": "rhf"
			},
			{
				"type": "occ",
				"energy": -0.28364,
				"method": "rhf"
			},
			{
				"type": "occ",
				"energy": -0.27455,
				"method": "rhf"
			},
			{
				"type": "occ",
				"energy": -0.24526,
				"method": "rhf"
			},
			{
				"type": "occ",
				"energy": -0.20698,
				"method": "rhf"
			},
			{
				"type": "unocc",
				"energy": -0.07199,
				"method": "rhf"
			},
			{
				"type": "unocc",
				"energy": 0.00068,
				"method": "rhf"
			},
			{
				"type": "unocc",
				"energy": 0.02299,
				"method": "rhf"
			},
			{
				"type": "unocc",
				"energy": 0.06507,
				"method": "rhf"
			},
			{
				"type": "unocc",
				"energy": 0.08573,
				"method": "rhf"
			}
		],
		"cosmo_sigma_profile": { 
			"-0.025": 0.0,
			"-0.024": 0.0,
			"-0.023": 0.0,
			"-0.022": 0.0,
			"-0.021": 0.0,
			"-0.02": 0.0,
			"-0.019": 0.0,
			"-0.018": 0.0,
			"-0.017": 0.0,
			"-0.016": 0.0,
			"-0.015": 0.20330049486,
			"-0.014": 1.30329151297,
			"-0.013": 1.88876468207,
			"-0.012": 1.03866298621,
			"-0.011": 1.34970994207,
			"-0.01": 2.01243160268,
			"-0.009": 2.92446942036,
			"-0.008": 2.26727695759,
			"-0.007": 2.60316648538,
			"-0.006": 8.82120773705,
			"-0.005": 18.516519946,
			"-0.004": 23.7018505112,
			"-0.003": 17.9112698142,
			"-0.002": 14.0502889885,
			"-0.001": 13.2128222763,
			"0.0": 11.3979675049,
			"0.001": 18.6548289157,
			"0.002": 18.1267191421,
			"0.003": 10.095748375,
			"0.004": 6.60645505767,
			"0.005": 5.86898215863,
			"0.006": 6.68171785199,
			"0.007": 5.51273488629,
			"0.008": 6.94736145299,
			"0.009": 9.04065540811,
			"0.01": 5.9454527783,
			"0.011": 5.03637592521,
			"0.012": 1.35529036942,
			"0.013": 0.0,
			"0.014": 0.0,
			"0.015": 0.0,
			"0.016": 0.0,
			"0.017": 0.0,
			"0.018": 0.0,
			"0.019": 0.0,
			"0.02": 0.0,
			"0.021": 0.0,
			"0.022": 0.0,
			"0.023": 0.0,
			"0.024": 0.0,
			"0.025": 0.0
		}
	}
}
