{
	 "smiles": "CC1(C)C2CCC1(C)C(=O)C2CC(N)=O", 
	 "Tm": 374.15, 
	 "num_atms": 34, 
	 "gaussian": { 
		 "optdone": 1, 
		 "sigma_profile": "yes", 
		 "theory": "DFT", 
		 "functional": "B3LYP", 
		 "basiset": "6-31G**", 
		 "properties": { 
			 "R2extent": 3330.194, 
			 "electric_dipole_moment_norm": 4.79331286377, 
			 "electric_quadrupole_moment_norm": 16.9508212509, 
			 "total_energy": -673.956754183, 
			 "HOMO_LUMO_gap": 0.19914, 
			 "cosmo_polarized_energy": -13.46, 
			 "cosmo_cavitation_energy": 32.62, 
			 "cosmo_dispersion_energy": -23.18, 
			 "cosmo_repulsion_energy": 1.78, 
			 "cosmo_total_nonelectrostatic_energy": 11.22, 
			 "SMD_solvation_energy": 6.3 
		},
		"coords": [
			{
				"x": -2.6089919657,
				"y": -0.0281354884,
				"z": 1.910010755,
				"element": "C" 
			},
			{
				"x": -1.5171503885,
				"y": -0.029973062,
				"z": 0.8256106897,
				"element": "C" 
			},
			{
				"x": -2.2368701787,
				"y": -0.02039882,
				"z": -0.5380901251,
				"element": "C" 
			},
			{
				"x": -0.4590632718,
				"y": -1.1723648979,
				"z": 0.9988427045,
				"element": "C" 
			},
			{
				"x": 0.1903863207,
				"y": -0.8275898787,
				"z": 2.3604026399,
				"element": "C" 
			},
			{
				"x": 0.245538318,
				"y": 0.7290968373,
				"z": 2.3307334012,
				"element": "C" 
			},
			{
				"x": -0.4519098221,
				"y": 1.1156980774,
				"z": 0.9784119735,
				"element": "C" 
			},
			{
				"x": -0.8801778178,
				"y": 2.5685394801,
				"z": 0.8687771145,
				"element": "C" 
			},
			{
				"x": 0.5852320668,
				"y": 0.6825245091,
				"z": -0.0571971366,
				"element": "C" 
			},
			{
				"x": 1.3234683813,
				"y": 1.4270743567,
				"z": -0.6816441672,
				"element": "O" 
			},
			{
				"x": 0.5682923489,
				"y": -0.8548556284,
				"z": -0.122051283,
				"element": "C" 
			},
			{
				"x": 1.9498518221,
				"y": -1.5403434746,
				"z": -0.0237208706,
				"element": "C" 
			},
			{
				"x": 2.6959799181,
				"y": -1.725284047,
				"z": -1.3527117361,
				"element": "C" 
			},
			{
				"x": 2.7819648228,
				"y": -0.6139921342,
				"z": -2.1326831527,
				"element": "N" 
			},
			{
				"x": 3.1823066664,
				"y": -2.8059314054,
				"z": -1.6629300125,
				"element": "O" 
			},
			{
				"x": -2.2213789519,
				"y": -0.013386115,
				"z": 2.930060389,
				"element": "H" 
			},
			{
				"x": -3.2632733211,
				"y": 0.8423218079,
				"z": 1.7939190499,
				"element": "H" 
			},
			{
				"x": -3.2359377322,
				"y": -0.9213816814,
				"z": 1.8093302681,
				"element": "H" 
			},
			{
				"x": -2.968220245,
				"y": 0.7935362479,
				"z": -0.5742261342,
				"element": "H" 
			},
			{
				"x": -2.7854029949,
				"y": -0.9569003698,
				"z": -0.6884561165,
				"element": "H" 
			},
			{
				"x": -1.5707069163,
				"y": 0.1143186534,
				"z": -1.3940649893,
				"element": "H" 
			},
			{
				"x": -0.8599957041,
				"y": -2.1884684486,
				"z": 0.9364024364,
				"element": "H" 
			},
			{
				"x": 1.1777072812,
				"y": -1.2809758845,
				"z": 2.4750050967,
				"element": "H" 
			},
			{
				"x": -0.4179048177,
				"y": -1.1926976811,
				"z": 3.1916733807,
				"element": "H" 
			},
			{
				"x": 1.2649843728,
				"y": 1.1243442507,
				"z": 2.3813935963,
				"element": "H" 
			},
			{
				"x": -0.3070576294,
				"y": 1.1778475596,
				"z": 3.1618424157,
				"element": "H" 
			},
			{
				"x": -0.0071196947,
				"y": 3.2264367676,
				"z": 0.9123756346,
				"element": "H" 
			},
			{
				"x": -1.3870972031,
				"y": 2.7660147809,
				"z": -0.0809837245,
				"element": "H" 
			},
			{
				"x": -1.5580193389,
				"y": 2.843073333,
				"z": 1.6832688511,
				"element": "H" 
			},
			{
				"x": 0.1301132344,
				"y": -1.1312860019,
				"z": -1.088495703,
				"element": "H" 
			},
			{
				"x": 1.8317899363,
				"y": -2.5472315706,
				"z": 0.383869942,
				"element": "H" 
			},
			{
				"x": 2.6082576607,
				"y": -0.9889203381,
				"z": 0.6590754636,
				"element": "H" 
			},
			{
				"x": 3.3109051853,
				"y": -0.6870344981,
				"z": -2.9883680027,
				"element": "H" 
			},
			{
				"x": 2.4285996582,
				"y": 0.2849247642,
				"z": -1.8168826483,
				"element": "H" 
			}
		],
		 "valence_orbital": [ 
			{
				"type": "occ",
				"energy": -0.31734,
				"method": "rhf"
			},
			{
				"type": "occ",
				"energy": -0.30341,
				"method": "rhf"
			},
			{
				"type": "occ",
				"energy": -0.25468,
				"method": "rhf"
			},
			{
				"type": "occ",
				"energy": -0.24934,
				"method": "rhf"
			},
			{
				"type": "occ",
				"energy": -0.22949,
				"method": "rhf"
			},
			{
				"type": "unocc",
				"energy": -0.03035,
				"method": "rhf"
			},
			{
				"type": "unocc",
				"energy": 0.04028,
				"method": "rhf"
			},
			{
				"type": "unocc",
				"energy": 0.06351,
				"method": "rhf"
			},
			{
				"type": "unocc",
				"energy": 0.09317,
				"method": "rhf"
			},
			{
				"type": "unocc",
				"energy": 0.09689,
				"method": "rhf"
			}
		],
		"cosmo_sigma_profile": { 
			"-0.025": 0.0,
			"-0.024": 0.0,
			"-0.023": 0.0,
			"-0.022": 0.0,
			"-0.021": 0.0,
			"-0.02": 0.0,
			"-0.019": 0.0,
			"-0.018": 0.0,
			"-0.017": 0.0,
			"-0.016": 0.0,
			"-0.015": 0.0,
			"-0.014": 0.110589695269,
			"-0.013": 0.824167670203,
			"-0.012": 1.16795979053,
			"-0.011": 0.884466240381,
			"-0.01": 0.945785585757,
			"-0.009": 1.11082497314,
			"-0.008": 0.840484759828,
			"-0.007": 1.76669618914,
			"-0.006": 6.05600800679,
			"-0.005": 8.85643346314,
			"-0.004": 18.2829776346,
			"-0.003": 37.6967416798,
			"-0.002": 39.0321043528,
			"-0.001": 31.1569562186,
			"0.0": 29.1855964822,
			"0.001": 21.3315701996,
			"0.002": 6.32823736884,
			"0.003": 4.65623985703,
			"0.004": 5.10340147478,
			"0.005": 4.11208619267,
			"0.006": 2.74288853009,
			"0.007": 2.42098977709,
			"0.008": 3.16223125916,
			"0.009": 3.6862871068,
			"0.01": 2.71271009608,
			"0.011": 3.11173137152,
			"0.012": 2.03002696401,
			"0.013": 2.63145496866,
			"0.014": 5.59118861621,
			"0.015": 4.12748545168,
			"0.016": 0.492409791598,
			"0.017": 0.0,
			"0.018": 0.0,
			"0.019": 0.0,
			"0.02": 0.0,
			"0.021": 0.0,
			"0.022": 0.0,
			"0.023": 0.0,
			"0.024": 0.0,
			"0.025": 0.0
		}
	}
}
