{
	 "smiles": "CC(C)(C)OC1=NC=C(Br)C=N1", 
	 "Tm": 335.15, 
	 "num_atms": 23, 
	 "gaussian": { 
		 "optdone": 1, 
		 "sigma_profile": "yes", 
		 "theory": "DFT", 
		 "functional": "B3LYP", 
		 "basiset": "6-31G**", 
		 "properties": { 
			 "R2extent": 6343.7061, 
			 "electric_dipole_moment_norm": 1.71951544628, 
			 "electric_quadrupole_moment_norm": 3.30933670544, 
			 "total_energy": -3067.61640117, 
			 "HOMO_LUMO_gap": 0.19276, 
			 "cosmo_polarized_energy": -6.92, 
			 "cosmo_cavitation_energy": 28.38, 
			 "cosmo_dispersion_energy": -20.96, 
			 "cosmo_repulsion_energy": 1.68, 
			 "cosmo_total_nonelectrostatic_energy": 9.1, 
			 "SMD_solvation_energy": 2.52 
		},
		"coords": [
			{
				"x": 1.8998807812,
				"y": 0.0660981349,
				"z": 0.6647053621,
				"element": "C" 
			},
			{
				"x": 0.8041206527,
				"y": -0.7359204765,
				"z": -0.0455776807,
				"element": "C" 
			},
			{
				"x": 1.4236938978,
				"y": -1.7981158591,
				"z": -0.9593342486,
				"element": "C" 
			},
			{
				"x": -0.1824795511,
				"y": -1.380166976,
				"z": 0.9342496897,
				"element": "C" 
			},
			{
				"x": 0.0889007665,
				"y": 0.1133055702,
				"z": -1.0126928038,
				"element": "O" 
			},
			{
				"x": -0.6215451737,
				"y": 1.1969028718,
				"z": -0.6945787456,
				"element": "C" 
			},
			{
				"x": -0.7372582739,
				"y": 1.6015053993,
				"z": 0.5779337755,
				"element": "N" 
			},
			{
				"x": -1.4692525922,
				"y": 2.6984175299,
				"z": 0.7942863702,
				"element": "C" 
			},
			{
				"x": -2.0817370784,
				"y": 3.3883525987,
				"z": -0.2445508497,
				"element": "C" 
			},
			{
				"x": -3.1204410739,
				"y": 4.9473166551,
				"z": 0.0706596812,
				"element": "Br" 
			},
			{
				"x": -1.8978134713,
				"y": 2.8816756782,
				"z": -1.5341547733,
				"element": "C" 
			},
			{
				"x": -1.1739235418,
				"y": 1.7932681645,
				"z": -1.767783957,
				"element": "N" 
			},
			{
				"x": 2.5151882801,
				"y": -0.6129358865,
				"z": 1.2637837992,
				"element": "H" 
			},
			{
				"x": 1.4757033992,
				"y": 0.8240044875,
				"z": 1.3235686023,
				"element": "H" 
			},
			{
				"x": 2.5492341084,
				"y": 0.5535922817,
				"z": -0.0690495031,
				"element": "H" 
			},
			{
				"x": 2.092007373,
				"y": -1.3339499203,
				"z": -1.6898580214,
				"element": "H" 
			},
			{
				"x": 1.9985587586,
				"y": -2.5151418445,
				"z": -0.3660183634,
				"element": "H" 
			},
			{
				"x": 0.6443187333,
				"y": -2.3395991854,
				"z": -1.5025922139,
				"element": "H" 
			},
			{
				"x": 0.3447203988,
				"y": -2.1198033205,
				"z": 1.5454690872,
				"element": "H" 
			},
			{
				"x": -0.6300219255,
				"y": -0.6378259327,
				"z": 1.5954336702,
				"element": "H" 
			},
			{
				"x": -0.9772520463,
				"y": -1.8969050183,
				"z": 0.3874246387,
				"element": "H" 
			},
			{
				"x": -1.5668981964,
				"y": 3.0318853341,
				"z": 1.8247342079,
				"element": "H" 
			},
			{
				"x": -2.3489042251,
				"y": 3.3717397139,
				"z": -2.3944577237,
				"element": "H" 
			}
		],
		 "valence_orbital": [ 
			{
				"type": "occ",
				"energy": -0.31512,
				"method": "rhf"
			},
			{
				"type": "occ",
				"energy": -0.30641,
				"method": "rhf"
			},
			{
				"type": "occ",
				"energy": -0.30406,
				"method": "rhf"
			},
			{
				"type": "occ",
				"energy": -0.25756,
				"method": "rhf"
			},
			{
				"type": "occ",
				"energy": -0.24257,
				"method": "rhf"
			},
			{
				"type": "unocc",
				"energy": -0.04981,
				"method": "rhf"
			},
			{
				"type": "unocc",
				"energy": -0.01907,
				"method": "rhf"
			},
			{
				"type": "unocc",
				"energy": -0.00013,
				"method": "rhf"
			},
			{
				"type": "unocc",
				"energy": 0.08631,
				"method": "rhf"
			},
			{
				"type": "unocc",
				"energy": 0.09842,
				"method": "rhf"
			}
		],
		"cosmo_sigma_profile": { 
			"-0.025": 0.0,
			"-0.024": 0.0,
			"-0.023": 0.0,
			"-0.022": 0.0,
			"-0.021": 0.0,
			"-0.02": 0.0,
			"-0.019": 0.0,
			"-0.018": 0.0,
			"-0.017": 0.0,
			"-0.016": 0.0,
			"-0.015": 0.0,
			"-0.014": 0.0,
			"-0.013": 0.0,
			"-0.012": 0.0,
			"-0.011": 0.0,
			"-0.01": 0.0,
			"-0.009": 1.37557109597,
			"-0.008": 3.35600624975,
			"-0.007": 3.32160252856,
			"-0.006": 3.57982942991,
			"-0.005": 5.68184732587,
			"-0.004": 17.1903167745,
			"-0.003": 23.1089329891,
			"-0.002": 24.4392813444,
			"-0.001": 30.5358301117,
			"0.0": 32.4480738451,
			"0.001": 23.3744319961,
			"0.002": 12.3646803786,
			"0.003": 12.9014984678,
			"0.004": 12.5898369328,
			"0.005": 3.75115929378,
			"0.006": 3.25110392207,
			"0.007": 2.18616594537,
			"0.008": 1.95831140973,
			"0.009": 1.70526054541,
			"0.01": 1.44526728683,
			"0.011": 1.82819301556,
			"0.012": 1.95046793638,
			"0.013": 1.11427850559,
			"0.014": 1.57833411591,
			"0.015": 0.831647984452,
			"0.016": 0.0951505856362,
			"0.017": 0.0,
			"0.018": 0.0,
			"0.019": 0.0,
			"0.02": 0.0,
			"0.021": 0.0,
			"0.022": 0.0,
			"0.023": 0.0,
			"0.024": 0.0,
			"0.025": 0.0
		}
	}
}
