{
	 "smiles": "NC(COC1=CC=CC=C1)=NO", 
	 "Tm": 366.65, 
	 "num_atms": 22, 
	 "gaussian": { 
		 "optdone": 1, 
		 "sigma_profile": "yes", 
		 "theory": "DFT", 
		 "functional": "B3LYP", 
		 "basiset": "6-31G**", 
		 "properties": { 
			 "R2extent": 3415.5212, 
			 "electric_dipole_moment_norm": 0.707123963673, 
			 "electric_quadrupole_moment_norm": 9.30085929686, 
			 "total_energy": -570.765420663, 
			 "HOMO_LUMO_gap": 0.21206, 
			 "cosmo_polarized_energy": -11.85, 
			 "cosmo_cavitation_energy": 26.43, 
			 "cosmo_dispersion_energy": -19.64, 
			 "cosmo_repulsion_energy": 1.59, 
			 "cosmo_total_nonelectrostatic_energy": 8.39, 
			 "SMD_solvation_energy": 4.68 
		},
		"coords": [
			{
				"x": -3.3638308449,
				"y": -1.0784387833,
				"z": -0.4313145792,
				"element": "N" 
			},
			{
				"x": -2.4810206794,
				"y": -0.1844084137,
				"z": -0.9859120941,
				"element": "C" 
			},
			{
				"x": -1.078196415,
				"y": -0.1829347241,
				"z": -0.4450703214,
				"element": "C" 
			},
			{
				"x": -1.1680431898,
				"y": -0.1244390928,
				"z": 0.9789725449,
				"element": "O" 
			},
			{
				"x": -0.0101343874,
				"y": -0.1863352191,
				"z": 1.7090807099,
				"element": "C" 
			},
			{
				"x": 1.2728831207,
				"y": -0.237872597,
				"z": 1.153515937,
				"element": "C" 
			},
			{
				"x": 2.3845723956,
				"y": -0.296518236,
				"z": 2.0007948505,
				"element": "C" 
			},
			{
				"x": 2.2311154968,
				"y": -0.3021106279,
				"z": 3.3851085398,
				"element": "C" 
			},
			{
				"x": 0.9435301024,
				"y": -0.2467358599,
				"z": 3.9300849046,
				"element": "C" 
			},
			{
				"x": -0.1719643043,
				"y": -0.1893243026,
				"z": 3.1019247626,
				"element": "C" 
			},
			{
				"x": -2.7110587404,
				"y": 0.5918663627,
				"z": -1.9884255273,
				"element": "N" 
			},
			{
				"x": -4.0579294809,
				"y": 0.4133754675,
				"z": -2.4193279105,
				"element": "O" 
			},
			{
				"x": -3.1977706379,
				"y": -1.282533068,
				"z": 0.544248074,
				"element": "H" 
			},
			{
				"x": -4.3292783352,
				"y": -0.9200366651,
				"z": -0.6853777653,
				"element": "H" 
			},
			{
				"x": -0.5405647118,
				"y": 0.6782098603,
				"z": -0.8544998195,
				"element": "H" 
			},
			{
				"x": -0.5592801934,
				"y": -1.1054025648,
				"z": -0.7438939053,
				"element": "H" 
			},
			{
				"x": 1.4191246322,
				"y": -0.2283753683,
				"z": 0.0800022936,
				"element": "H" 
			},
			{
				"x": 3.3780332032,
				"y": -0.3363241604,
				"z": 1.5629772689,
				"element": "H" 
			},
			{
				"x": 3.1003088612,
				"y": -0.3472987802,
				"z": 4.0337402133,
				"element": "H" 
			},
			{
				"x": 0.8072445957,
				"y": -0.2484723376,
				"z": 5.0078372989,
				"element": "H" 
			},
			{
				"x": -1.1774637477,
				"y": -0.1445243032,
				"z": 3.5079296767,
				"element": "H" 
			},
			{
				"x": -4.1327767396,
				"y": 1.0757334133,
				"z": -3.1165951524,
				"element": "H" 
			}
		],
		 "valence_orbital": [ 
			{
				"type": "occ",
				"energy": -0.31188,
				"method": "rhf"
			},
			{
				"type": "occ",
				"energy": -0.27446,
				"method": "rhf"
			},
			{
				"type": "occ",
				"energy": -0.25254,
				"method": "rhf"
			},
			{
				"type": "occ",
				"energy": -0.22348,
				"method": "rhf"
			},
			{
				"type": "occ",
				"energy": -0.21557,
				"method": "rhf"
			},
			{
				"type": "unocc",
				"energy": -0.00351,
				"method": "rhf"
			},
			{
				"type": "unocc",
				"energy": 0.01015,
				"method": "rhf"
			},
			{
				"type": "unocc",
				"energy": 0.03026,
				"method": "rhf"
			},
			{
				"type": "unocc",
				"energy": 0.0702,
				"method": "rhf"
			},
			{
				"type": "unocc",
				"energy": 0.09017,
				"method": "rhf"
			}
		],
		"cosmo_sigma_profile": { 
			"-0.025": 0.0,
			"-0.024": 0.0,
			"-0.023": 0.0,
			"-0.022": 0.0,
			"-0.021": 0.0,
			"-0.02": 0.0,
			"-0.019": 0.0,
			"-0.018": 0.0,
			"-0.017": 0.365105492936,
			"-0.016": 1.06974017693,
			"-0.015": 1.0238337936,
			"-0.014": 0.77323804505,
			"-0.013": 0.330210126314,
			"-0.012": 1.78347979614,
			"-0.011": 2.4643479158,
			"-0.01": 2.47242443116,
			"-0.009": 2.59193884434,
			"-0.008": 2.46790060844,
			"-0.007": 6.39852426307,
			"-0.006": 12.6729578324,
			"-0.005": 15.2988087731,
			"-0.004": 15.4793441586,
			"-0.003": 13.0635679642,
			"-0.002": 10.3118137354,
			"-0.001": 11.5258186025,
			"0.0": 9.66452407854,
			"0.001": 9.82521054882,
			"0.002": 11.9485370346,
			"0.003": 13.9879173914,
			"0.004": 13.6542358668,
			"0.005": 13.1394936566,
			"0.006": 12.4491560256,
			"0.007": 6.524148579,
			"0.008": 4.92991137966,
			"0.009": 4.70983117893,
			"0.01": 2.37480667086,
			"0.011": 2.4903649761,
			"0.012": 1.69262874821,
			"0.013": 0.834536826619,
			"0.014": 0.956337102255,
			"0.015": 0.318300273956,
			"0.016": 0.0,
			"0.017": 0.0,
			"0.018": 0.0,
			"0.019": 0.0,
			"0.02": 0.0,
			"0.021": 0.0,
			"0.022": 0.0,
			"0.023": 0.0,
			"0.024": 0.0,
			"0.025": 0.0
		}
	}
}
