{
	 "smiles": "OC(=O)C1=CC(Cl)=C(Cl)N=C1", 
	 "Tm": 439.15, 
	 "num_atms": 14, 
	 "gaussian": { 
		 "optdone": 1, 
		 "sigma_profile": "yes", 
		 "theory": "DFT", 
		 "functional": "B3LYP", 
		 "basiset": "6-31G**", 
		 "properties": { 
			 "R2extent": 3837.4519, 
			 "electric_dipole_moment_norm": 2.31355510416, 
			 "electric_quadrupole_moment_norm": 7.74304940317, 
			 "total_energy": -1356.03627703, 
			 "HOMO_LUMO_gap": 0.19343, 
			 "cosmo_polarized_energy": -9.72, 
			 "cosmo_cavitation_energy": 23.19, 
			 "cosmo_dispersion_energy": -17.53, 
			 "cosmo_repulsion_energy": 1.41, 
			 "cosmo_total_nonelectrostatic_energy": 7.07, 
			 "SMD_solvation_energy": 3.47 
		},
		"coords": [
			{
				"x": -1.4751964454,
				"y": -1.2779945395,
				"z": 0.1016819153,
				"element": "O" 
			},
			{
				"x": -0.5065277539,
				"y": -0.9111196879,
				"z": -0.7675393115,
				"element": "C" 
			},
			{
				"x": -0.173180122,
				"y": -1.5943975065,
				"z": -1.7131843681,
				"element": "O" 
			},
			{
				"x": 0.0933740412,
				"y": 0.4083403257,
				"z": -0.4326937511,
				"element": "C" 
			},
			{
				"x": 1.1098310883,
				"y": 0.9060123653,
				"z": -1.2544676537,
				"element": "C" 
			},
			{
				"x": 1.6811931818,
				"y": 2.1362895797,
				"z": -0.9566937279,
				"element": "C" 
			},
			{
				"x": 2.9467745501,
				"y": 2.7671978662,
				"z": -1.9709164314,
				"element": "Cl" 
			},
			{
				"x": 1.2010588433,
				"y": 2.8289984311,
				"z": 0.173034155,
				"element": "C" 
			},
			{
				"x": 1.8705820578,
				"y": 4.3806174109,
				"z": 0.6097897881,
				"element": "Cl" 
			},
			{
				"x": 0.2406216645,
				"y": 2.3613149645,
				"z": 0.9516686446,
				"element": "N" 
			},
			{
				"x": -0.307774448,
				"y": 1.1778037586,
				"z": 0.6636948443,
				"element": "C" 
			},
			{
				"x": -1.7998107515,
				"y": -2.1429126741,
				"z": -0.199836382,
				"element": "H" 
			},
			{
				"x": 1.4389669816,
				"y": 0.3284331954,
				"z": -2.1109791495,
				"element": "H" 
			},
			{
				"x": -1.0926128879,
				"y": 0.8312165106,
				"z": 1.328441428,
				"element": "H" 
			}
		],
		 "valence_orbital": [ 
			{
				"type": "occ",
				"energy": -0.32346,
				"method": "rhf"
			},
			{
				"type": "occ",
				"energy": -0.30809,
				"method": "rhf"
			},
			{
				"type": "occ",
				"energy": -0.30549,
				"method": "rhf"
			},
			{
				"type": "occ",
				"energy": -0.28764,
				"method": "rhf"
			},
			{
				"type": "occ",
				"energy": -0.27311,
				"method": "rhf"
			},
			{
				"type": "unocc",
				"energy": -0.07968,
				"method": "rhf"
			},
			{
				"type": "unocc",
				"energy": -0.05553,
				"method": "rhf"
			},
			{
				"type": "unocc",
				"energy": -0.00291,
				"method": "rhf"
			},
			{
				"type": "unocc",
				"energy": 0.02319,
				"method": "rhf"
			},
			{
				"type": "unocc",
				"energy": 0.04502,
				"method": "rhf"
			}
		],
		"cosmo_sigma_profile": { 
			"-0.025": 0.0,
			"-0.024": 0.0,
			"-0.023": 0.0,
			"-0.022": 0.0,
			"-0.021": 0.0,
			"-0.02": 0.00609385893921,
			"-0.019": 0.661993411842,
			"-0.018": 0.778551922263,
			"-0.017": 1.04910688733,
			"-0.016": 1.07832724025,
			"-0.015": 0.840066599568,
			"-0.014": 0.336219957776,
			"-0.013": 0.301195780266,
			"-0.012": 0.997533311499,
			"-0.011": 1.03078730145,
			"-0.01": 0.232278594708,
			"-0.009": 1.48671515791,
			"-0.008": 3.3800340228,
			"-0.007": 3.33653405637,
			"-0.006": 3.66241132503,
			"-0.005": 4.55691582616,
			"-0.004": 11.6171071732,
			"-0.003": 22.5159443245,
			"-0.002": 21.0856489325,
			"-0.001": 12.4193589531,
			"0.0": 11.9048758303,
			"0.001": 13.5000023035,
			"0.002": 14.702022492,
			"0.003": 19.9498978038,
			"0.004": 11.6300180473,
			"0.005": 5.04140426356,
			"0.006": 4.08073719519,
			"0.007": 3.21852123602,
			"0.008": 2.7993663798,
			"0.009": 2.54037750997,
			"0.01": 4.13548094386,
			"0.011": 5.25056159323,
			"0.012": 1.07867508407,
			"0.013": 0.464791920853,
			"0.014": 0.0,
			"0.015": 0.0,
			"0.016": 0.0,
			"0.017": 0.0,
			"0.018": 0.0,
			"0.019": 0.0,
			"0.02": 0.0,
			"0.021": 0.0,
			"0.022": 0.0,
			"0.023": 0.0,
			"0.024": 0.0,
			"0.025": 0.0
		}
	}
}
