{
	 "smiles": "FC1=C(NC(=O)C2CCC3=C(N2)C=CC=C3)C=CC=C1", 
	 "Tm": 370.15, 
	 "num_atms": 35, 
	 "gaussian": { 
		 "optdone": 1, 
		 "sigma_profile": "yes", 
		 "theory": "DFT", 
		 "functional": "B3LYP", 
		 "basiset": "6-31G**", 
		 "properties": { 
			 "R2extent": 7336.111, 
			 "electric_dipole_moment_norm": 3.01366327747, 
			 "electric_quadrupole_moment_norm": 14.0431722848, 
			 "total_energy": -903.329728649, 
			 "HOMO_LUMO_gap": 0.18711, 
			 "cosmo_polarized_energy": -16.02, 
			 "cosmo_cavitation_energy": 38.29, 
			 "cosmo_dispersion_energy": -27.07, 
			 "cosmo_repulsion_energy": 2.06, 
			 "cosmo_total_nonelectrostatic_energy": 13.28, 
			 "SMD_solvation_energy": 6.57 
		},
		"coords": [
			{
				"x": 0.0816656534,
				"y": 0.559332263,
				"z": -4.9117027663,
				"element": "F" 
			},
			{
				"x": 0.9610494832,
				"y": -0.3981442299,
				"z": -4.5722264362,
				"element": "C" 
			},
			{
				"x": 1.1604311684,
				"y": -0.7000963554,
				"z": -3.2187605433,
				"element": "C" 
			},
			{
				"x": 0.434785792,
				"y": -0.0369623538,
				"z": -2.2056758015,
				"element": "N" 
			},
			{
				"x": -0.9315691075,
				"y": 0.0526432857,
				"z": -2.147444887,
				"element": "C" 
			},
			{
				"x": -1.6974456258,
				"y": -0.4029881638,
				"z": -2.9816871772,
				"element": "O" 
			},
			{
				"x": -1.4673273725,
				"y": 0.8249178702,
				"z": -0.9132968131,
				"element": "C" 
			},
			{
				"x": -2.5889208209,
				"y": 0.0139430555,
				"z": -0.2459522497,
				"element": "C" 
			},
			{
				"x": -1.9947304201,
				"y": -1.1207648279,
				"z": 0.5986435206,
				"element": "C" 
			},
			{
				"x": -1.0324940005,
				"y": -0.5611756712,
				"z": 1.6217549851,
				"element": "C" 
			},
			{
				"x": -0.3102137044,
				"y": 0.6079620722,
				"z": 1.3088173309,
				"element": "C" 
			},
			{
				"x": -0.4092581037,
				"y": 1.198051521,
				"z": 0.034663715,
				"element": "N" 
			},
			{
				"x": 0.5517346926,
				"y": 1.1708803259,
				"z": 2.2643873954,
				"element": "C" 
			},
			{
				"x": 0.7069430676,
				"y": 0.5765406792,
				"z": 3.5131844144,
				"element": "C" 
			},
			{
				"x": 0.0026810336,
				"y": -0.5873627464,
				"z": 3.8305769283,
				"element": "C" 
			},
			{
				"x": -0.8622431595,
				"y": -1.1363652701,
				"z": 2.884387263,
				"element": "C" 
			},
			{
				"x": 2.136316518,
				"y": -1.6499711432,
				"z": -2.8936630052,
				"element": "C" 
			},
			{
				"x": 2.8789875681,
				"y": -2.283861625,
				"z": -3.8892449889,
				"element": "C" 
			},
			{
				"x": 2.6403978014,
				"y": -1.9878937599,
				"z": -5.2325836116,
				"element": "C" 
			},
			{
				"x": 1.674803218,
				"y": -1.0409520051,
				"z": -5.5758796666,
				"element": "C" 
			},
			{
				"x": 0.9151871788,
				"y": 0.2737138997,
				"z": -1.3685208531,
				"element": "H" 
			},
			{
				"x": -1.8996434936,
				"y": 1.7437077355,
				"z": -1.3277755324,
				"element": "H" 
			},
			{
				"x": -3.180451112,
				"y": 0.6779735253,
				"z": 0.3940686726,
				"element": "H" 
			},
			{
				"x": -3.2373018712,
				"y": -0.3726220437,
				"z": -1.0346889591,
				"element": "H" 
			},
			{
				"x": -1.4868218273,
				"y": -1.8349174951,
				"z": -0.065652251,
				"element": "H" 
			},
			{
				"x": -2.7907747907,
				"y": -1.6818202667,
				"z": 1.0995126189,
				"element": "H" 
			},
			{
				"x": -0.1726268562,
				"y": 2.1806125777,
				"z": 0.0282198964,
				"element": "H" 
			},
			{
				"x": 1.1029974806,
				"y": 2.0759979172,
				"z": 2.017795516,
				"element": "H" 
			},
			{
				"x": 1.3781218639,
				"y": 1.0264125184,
				"z": 4.2393512743,
				"element": "H" 
			},
			{
				"x": 0.1181343532,
				"y": -1.0539561459,
				"z": 4.8038687241,
				"element": "H" 
			},
			{
				"x": -1.4313517395,
				"y": -2.0310473974,
				"z": 3.1272963927,
				"element": "H" 
			},
			{
				"x": 2.2979287651,
				"y": -1.892208129,
				"z": -1.8469485999,
				"element": "H" 
			},
			{
				"x": 3.6313115444,
				"y": -3.0166087437,
				"z": -3.6149443792,
				"element": "H" 
			},
			{
				"x": 3.2055763757,
				"y": -2.4868967731,
				"z": -6.013585515,
				"element": "H" 
			},
			{
				"x": 1.4745204473,
				"y": -0.7744741002,
				"z": -6.6080946115,
				"element": "H" 
			}
		],
		 "valence_orbital": [ 
			{
				"type": "occ",
				"energy": -0.25144,
				"method": "rhf"
			},
			{
				"type": "occ",
				"energy": -0.24797,
				"method": "rhf"
			},
			{
				"type": "occ",
				"energy": -0.24126,
				"method": "rhf"
			},
			{
				"type": "occ",
				"energy": -0.22955,
				"method": "rhf"
			},
			{
				"type": "occ",
				"energy": -0.20209,
				"method": "rhf"
			},
			{
				"type": "unocc",
				"energy": -0.01498,
				"method": "rhf"
			},
			{
				"type": "unocc",
				"energy": -0.00038,
				"method": "rhf"
			},
			{
				"type": "unocc",
				"energy": 0.0016,
				"method": "rhf"
			},
			{
				"type": "unocc",
				"energy": 0.01457,
				"method": "rhf"
			},
			{
				"type": "unocc",
				"energy": 0.03325,
				"method": "rhf"
			}
		],
		"cosmo_sigma_profile": { 
			"-0.025": 0.0,
			"-0.024": 0.0,
			"-0.023": 0.0,
			"-0.022": 0.0,
			"-0.021": 0.0,
			"-0.02": 0.0,
			"-0.019": 0.0,
			"-0.018": 0.0,
			"-0.017": 0.0,
			"-0.016": 0.0,
			"-0.015": 0.0,
			"-0.014": 0.14398778927,
			"-0.013": 1.21030781758,
			"-0.012": 1.52778579396,
			"-0.011": 2.13358025558,
			"-0.01": 2.41589585781,
			"-0.009": 3.06377308612,
			"-0.008": 3.51509103732,
			"-0.007": 8.69973850791,
			"-0.006": 12.4855088691,
			"-0.005": 17.9229266094,
			"-0.004": 25.1776207377,
			"-0.003": 26.4443839541,
			"-0.002": 24.4310044754,
			"-0.001": 23.1664829954,
			"0.0": 21.7479857703,
			"0.001": 16.3699554194,
			"0.002": 18.1484471264,
			"0.003": 18.3089092313,
			"0.004": 24.7424982891,
			"0.005": 15.2801143552,
			"0.006": 9.26456976566,
			"0.007": 9.16806230436,
			"0.008": 3.73911576927,
			"0.009": 1.85113558465,
			"0.01": 1.76440007221,
			"0.011": 1.95608766764,
			"0.012": 2.59388025719,
			"0.013": 4.27833574857,
			"0.014": 2.91612050959,
			"0.015": 0.0281432875339,
			"0.016": 0.0,
			"0.017": 0.0,
			"0.018": 0.0,
			"0.019": 0.0,
			"0.02": 0.0,
			"0.021": 0.0,
			"0.022": 0.0,
			"0.023": 0.0,
			"0.024": 0.0,
			"0.025": 0.0
		}
	}
}
