{
	 "smiles": "CC(=O)NCCC1=CC=C(S1)S(Cl)(=O)=O", 
	 "Tm": 361.15, 
	 "num_atms": 25, 
	 "gaussian": { 
		 "optdone": 1, 
		 "sigma_profile": "yes", 
		 "theory": "DFT", 
		 "functional": "B3LYP", 
		 "basiset": "6-31G**", 
		 "properties": { 
			 "R2extent": 7375.972, 
			 "electric_dipole_moment_norm": 4.16663100718, 
			 "electric_quadrupole_moment_norm": 38.1354568448, 
			 "total_energy": -1847.80386153, 
			 "HOMO_LUMO_gap": 0.16208, 
			 "cosmo_polarized_energy": -18.4, 
			 "cosmo_cavitation_energy": 34.96, 
			 "cosmo_dispersion_energy": -24.83, 
			 "cosmo_repulsion_energy": 1.91, 
			 "cosmo_total_nonelectrostatic_energy": 12.04, 
			 "SMD_solvation_energy": 4.56 
		},
		"coords": [
			{
				"x": -2.6424534359,
				"y": 1.4213970148,
				"z": -2.2462336631,
				"element": "C" 
			},
			{
				"x": -2.4149200125,
				"y": 0.2288842535,
				"z": -1.3314536521,
				"element": "C" 
			},
			{
				"x": -3.3193905204,
				"y": -0.2793233329,
				"z": -0.6782926718,
				"element": "O" 
			},
			{
				"x": -1.1363930432,
				"y": -0.2606674083,
				"z": -1.2955288839,
				"element": "N" 
			},
			{
				"x": -0.7953290023,
				"y": -1.4063078838,
				"z": -0.4702810871,
				"element": "C" 
			},
			{
				"x": -0.6766430867,
				"y": -1.0745999683,
				"z": 1.0375626974,
				"element": "C" 
			},
			{
				"x": 0.3780434983,
				"y": -0.0563994383,
				"z": 1.3573531761,
				"element": "C" 
			},
			{
				"x": 0.2027302957,
				"y": 1.2806497838,
				"z": 1.63765372,
				"element": "C" 
			},
			{
				"x": 1.4166632076,
				"y": 1.9811550613,
				"z": 1.8581824395,
				"element": "C" 
			},
			{
				"x": 2.5073221701,
				"y": 1.1537443243,
				"z": 1.7468267527,
				"element": "C" 
			},
			{
				"x": 2.0689924198,
				"y": -0.4873220431,
				"z": 1.3674695058,
				"element": "S" 
			},
			{
				"x": 4.1744772299,
				"y": 1.6548348073,
				"z": 1.9359645756,
				"element": "S" 
			},
			{
				"x": 4.7360084179,
				"y": 2.1235574069,
				"z": -0.0753307717,
				"element": "Cl" 
			},
			{
				"x": 4.2071348796,
				"y": 2.9188838643,
				"z": 2.6584589669,
				"element": "O" 
			},
			{
				"x": 4.9834343231,
				"y": 0.5026383715,
				"z": 2.3099114949,
				"element": "O" 
			},
			{
				"x": -3.1455561064,
				"y": 2.2092923926,
				"z": -1.6803652647,
				"element": "H" 
			},
			{
				"x": -1.7256813422,
				"y": 1.8233274209,
				"z": -2.6862888406,
				"element": "H" 
			},
			{
				"x": -3.3170838096,
				"y": 1.1197587948,
				"z": -3.0527919951,
				"element": "H" 
			},
			{
				"x": -0.4019052309,
				"y": 0.2285523893,
				"z": -1.7825183525,
				"element": "H" 
			},
			{
				"x": -1.582317146,
				"y": -2.1564248637,
				"z": -0.5879331103,
				"element": "H" 
			},
			{
				"x": 0.1416010268,
				"y": -1.8294113326,
				"z": -0.844624784,
				"element": "H" 
			},
			{
				"x": -1.6456845306,
				"y": -0.6941891662,
				"z": 1.3720995648,
				"element": "H" 
			},
			{
				"x": -0.4885993904,
				"y": -2.0084586544,
				"z": 1.5805935885,
				"element": "H" 
			},
			{
				"x": -0.777655037,
				"y": 1.7396367108,
				"z": 1.6949261131,
				"element": "H" 
			},
			{
				"x": 1.4965042252,
				"y": 3.0352914955,
				"z": 2.0940404818,
				"element": "H" 
			}
		],
		 "valence_orbital": [ 
			{
				"type": "occ",
				"energy": -0.31442,
				"method": "rhf"
			},
			{
				"type": "occ",
				"energy": -0.28984,
				"method": "rhf"
			},
			{
				"type": "occ",
				"energy": -0.27461,
				"method": "rhf"
			},
			{
				"type": "occ",
				"energy": -0.2657,
				"method": "rhf"
			},
			{
				"type": "occ",
				"energy": -0.25873,
				"method": "rhf"
			},
			{
				"type": "unocc",
				"energy": -0.09665,
				"method": "rhf"
			},
			{
				"type": "unocc",
				"energy": -0.05123,
				"method": "rhf"
			},
			{
				"type": "unocc",
				"energy": -0.0095,
				"method": "rhf"
			},
			{
				"type": "unocc",
				"energy": 0.01498,
				"method": "rhf"
			},
			{
				"type": "unocc",
				"energy": 0.01993,
				"method": "rhf"
			}
		],
		"cosmo_sigma_profile": { 
			"-0.025": 0.0,
			"-0.024": 0.0,
			"-0.023": 0.0,
			"-0.022": 0.0,
			"-0.021": 0.0,
			"-0.02": 0.0,
			"-0.019": 0.0,
			"-0.018": 0.0,
			"-0.017": 0.0,
			"-0.016": 0.0,
			"-0.015": 0.0205948286139,
			"-0.014": 1.09193525897,
			"-0.013": 1.23845936717,
			"-0.012": 1.41312392404,
			"-0.011": 1.3783988266,
			"-0.01": 1.7362568022,
			"-0.009": 3.03229173269,
			"-0.008": 4.45454008421,
			"-0.007": 8.91194968119,
			"-0.006": 14.8632571701,
			"-0.005": 17.7737071315,
			"-0.004": 19.0891890202,
			"-0.003": 18.5641255079,
			"-0.002": 23.8088655483,
			"-0.001": 24.01706567,
			"0.0": 24.6997254736,
			"0.001": 20.7157722046,
			"0.002": 17.2844128473,
			"0.003": 16.8252053021,
			"0.004": 13.7793973689,
			"0.005": 4.57731171978,
			"0.006": 4.36997272861,
			"0.007": 8.45419309217,
			"0.008": 12.0946461738,
			"0.009": 5.32257339228,
			"0.01": 0.730904673196,
			"0.011": 1.48563429778,
			"0.012": 1.06162847732,
			"0.013": 2.78625446581,
			"0.014": 4.49142104686,
			"0.015": 2.17554123399,
			"0.016": 0.257355246173,
			"0.017": 0.0,
			"0.018": 0.0,
			"0.019": 0.0,
			"0.02": 0.0,
			"0.021": 0.0,
			"0.022": 0.0,
			"0.023": 0.0,
			"0.024": 0.0,
			"0.025": 0.0
		}
	}
}
