{
	 "smiles": "COC1=C(CBr)C=C(C=C1)C#N", 
	 "Tm": 397.15, 
	 "num_atms": 20, 
	 "gaussian": { 
		 "optdone": 1, 
		 "sigma_profile": "yes", 
		 "theory": "DFT", 
		 "functional": "B3LYP", 
		 "basiset": "6-31G**", 
		 "properties": { 
			 "R2extent": 4276.9737, 
			 "electric_dipole_moment_norm": 5.80775167771, 
			 "electric_quadrupole_moment_norm": 15.8092694097, 
			 "total_energy": -3049.13716354, 
			 "HOMO_LUMO_gap": 0.18945, 
			 "cosmo_polarized_energy": -13.55, 
			 "cosmo_cavitation_energy": 27.65, 
			 "cosmo_dispersion_energy": -19.55, 
			 "cosmo_repulsion_energy": 1.58, 
			 "cosmo_total_nonelectrostatic_energy": 9.68, 
			 "SMD_solvation_energy": 5.74 
		},
		"coords": [
			{
				"x": 2.2510083692,
				"y": -1.2912566437,
				"z": 2.4952270271,
				"element": "C" 
			},
			{
				"x": 1.8130332584,
				"y": -0.0273017154,
				"z": 2.0077846027,
				"element": "O" 
			},
			{
				"x": 0.9299399219,
				"y": 0.0130576426,
				"z": 0.9822616602,
				"element": "C" 
			},
			{
				"x": 0.569131,
				"y": 1.3088877662,
				"z": 0.5392405921,
				"element": "C" 
			},
			{
				"x": 1.1506312286,
				"y": 2.5161959664,
				"z": 1.1930620873,
				"element": "C" 
			},
			{
				"x": 2.9618680004,
				"y": 2.9720280893,
				"z": 0.4621732699,
				"element": "Br" 
			},
			{
				"x": -0.3378678799,
				"y": 1.4306901869,
				"z": -0.508675632,
				"element": "C" 
			},
			{
				"x": -0.8982463408,
				"y": 0.2976182107,
				"z": -1.1233658141,
				"element": "C" 
			},
			{
				"x": -0.5300136667,
				"y": -0.9781933481,
				"z": -0.6723192975,
				"element": "C" 
			},
			{
				"x": 0.376630365,
				"y": -1.12107959,
				"z": 0.3736817659,
				"element": "C" 
			},
			{
				"x": -1.8364213855,
				"y": 0.4456415287,
				"z": -2.1948928098,
				"element": "C" 
			},
			{
				"x": -2.6010587428,
				"y": 0.5647107658,
				"z": -3.0640265272,
				"element": "N" 
			},
			{
				"x": 1.4159457402,
				"y": -1.8754607149,
				"z": 2.900055244,
				"element": "H" 
			},
			{
				"x": 2.7546399673,
				"y": -1.8672511786,
				"z": 1.7103571955,
				"element": "H" 
			},
			{
				"x": 2.9600421665,
				"y": -1.0713232702,
				"z": 3.2935323825,
				"element": "H" 
			},
			{
				"x": 0.5526848457,
				"y": 3.4071514449,
				"z": 1.0146833836,
				"element": "H" 
			},
			{
				"x": 1.3236559419,
				"y": 2.3737543885,
				"z": 2.2564887252,
				"element": "H" 
			},
			{
				"x": -0.6165307521,
				"y": 2.4192881682,
				"z": -0.8600148721,
				"element": "H" 
			},
			{
				"x": -0.9574018951,
				"y": -1.8578246182,
				"z": -1.1417249352,
				"element": "H" 
			},
			{
				"x": 0.6466298576,
				"y": -2.1149330791,
				"z": 0.7080719521,
				"element": "H" 
			}
		],
		 "valence_orbital": [ 
			{
				"type": "occ",
				"energy": -0.32466,
				"method": "rhf"
			},
			{
				"type": "occ",
				"energy": -0.28303,
				"method": "rhf"
			},
			{
				"type": "occ",
				"energy": -0.27249,
				"method": "rhf"
			},
			{
				"type": "occ",
				"energy": -0.27053,
				"method": "rhf"
			},
			{
				"type": "occ",
				"energy": -0.24349,
				"method": "rhf"
			},
			{
				"type": "unocc",
				"energy": -0.05404,
				"method": "rhf"
			},
			{
				"type": "unocc",
				"energy": -0.04085,
				"method": "rhf"
			},
			{
				"type": "unocc",
				"energy": 0.01037,
				"method": "rhf"
			},
			{
				"type": "unocc",
				"energy": 0.03741,
				"method": "rhf"
			},
			{
				"type": "unocc",
				"energy": 0.07228,
				"method": "rhf"
			}
		],
		"cosmo_sigma_profile": { 
			"-0.025": 0.0,
			"-0.024": 0.0,
			"-0.023": 0.0,
			"-0.022": 0.0,
			"-0.021": 0.0,
			"-0.02": 0.0,
			"-0.019": 0.0,
			"-0.018": 0.0,
			"-0.017": 0.0,
			"-0.016": 0.0,
			"-0.015": 0.0,
			"-0.014": 0.0,
			"-0.013": 0.0,
			"-0.012": 0.0,
			"-0.011": 0.0,
			"-0.01": 0.0535870654036,
			"-0.009": 1.94760403481,
			"-0.008": 8.38464394502,
			"-0.007": 12.7130004194,
			"-0.006": 18.048742008,
			"-0.005": 15.2077674899,
			"-0.004": 16.2472532136,
			"-0.003": 12.5627382829,
			"-0.002": 10.2855528039,
			"-0.001": 12.8567557756,
			"0.0": 15.8348230254,
			"0.001": 16.6040838985,
			"0.002": 16.0055431615,
			"0.003": 8.86198230861,
			"0.004": 8.24682089995,
			"0.005": 10.4419429578,
			"0.006": 14.1977365323,
			"0.007": 7.66149580726,
			"0.008": 4.50435944274,
			"0.009": 3.44904963202,
			"0.01": 3.36192433982,
			"0.011": 3.02130704799,
			"0.012": 2.5355254756,
			"0.013": 1.95057191689,
			"0.014": 0.293974815192,
			"0.015": 0.0,
			"0.016": 0.0,
			"0.017": 0.0,
			"0.018": 0.0,
			"0.019": 0.0,
			"0.02": 0.0,
			"0.021": 0.0,
			"0.022": 0.0,
			"0.023": 0.0,
			"0.024": 0.0,
			"0.025": 0.0
		}
	}
}
