{
	 "smiles": "OC(=O)C1CCN(C1=O)C1=CC(Cl)=CC=C1", 
	 "Tm": 387.15, 
	 "num_atms": 26, 
	 "gaussian": { 
		 "optdone": 1, 
		 "sigma_profile": "yes", 
		 "theory": "DFT", 
		 "functional": "B3LYP", 
		 "basiset": "6-31G**", 
		 "properties": { 
			 "R2extent": 5954.9639, 
			 "electric_dipole_moment_norm": 6.31025038251, 
			 "electric_quadrupole_moment_norm": 22.484043947, 
			 "total_energy": -1165.84964324, 
			 "HOMO_LUMO_gap": 0.20247, 
			 "cosmo_polarized_energy": -16.7, 
			 "cosmo_cavitation_energy": 31.28, 
			 "cosmo_dispersion_energy": -23.42, 
			 "cosmo_repulsion_energy": 1.81, 
			 "cosmo_total_nonelectrostatic_energy": 9.66, 
			 "SMD_solvation_energy": 6.03 
		},
		"coords": [
			{
				"x": -1.8294661433,
				"y": -4.9591214673,
				"z": 0.1782830144,
				"element": "O" 
			},
			{
				"x": -0.6759181701,
				"y": -4.7250767219,
				"z": -0.4561125192,
				"element": "C" 
			},
			{
				"x": -0.2301674894,
				"y": -5.4590248313,
				"z": -1.3059256885,
				"element": "O" 
			},
			{
				"x": 0.0917800238,
				"y": -3.4785837629,
				"z": 0.0144724744,
				"element": "C" 
			},
			{
				"x": 1.0751203361,
				"y": -2.9039911216,
				"z": -1.0070329942,
				"element": "C" 
			},
			{
				"x": 1.0997445994,
				"y": -1.4002704934,
				"z": -0.6833167733,
				"element": "C" 
			},
			{
				"x": -0.2029294492,
				"y": -1.1412950818,
				"z": -0.0394450156,
				"element": "N" 
			},
			{
				"x": -0.8006726042,
				"y": -2.2983380282,
				"z": 0.385043996,
				"element": "C" 
			},
			{
				"x": -1.8729937175,
				"y": -2.4089804166,
				"z": 0.983970663,
				"element": "O" 
			},
			{
				"x": -0.6651768247,
				"y": 0.1804172048,
				"z": 0.1953360793,
				"element": "C" 
			},
			{
				"x": -1.9870048312,
				"y": 0.4280766053,
				"z": 0.6042534675,
				"element": "C" 
			},
			{
				"x": -2.3919677479,
				"y": 1.7438901308,
				"z": 0.8064546302,
				"element": "C" 
			},
			{
				"x": -4.0466039777,
				"y": 2.0442825925,
				"z": 1.3159090183,
				"element": "Cl" 
			},
			{
				"x": -1.5345578041,
				"y": 2.8267525964,
				"z": 0.6150621503,
				"element": "C" 
			},
			{
				"x": -0.2280007022,
				"y": 2.5646854033,
				"z": 0.2094745707,
				"element": "C" 
			},
			{
				"x": 0.2125336081,
				"y": 1.259090423,
				"z": -0.0001200306,
				"element": "C" 
			},
			{
				"x": -2.0738286863,
				"y": -4.1610478149,
				"z": 0.7065280649,
				"element": "H" 
			},
			{
				"x": 0.6050768866,
				"y": -3.7754757887,
				"z": 0.9417171228,
				"element": "H" 
			},
			{
				"x": 0.6921230037,
				"y": -3.0804674229,
				"z": -2.0152066731,
				"element": "H" 
			},
			{
				"x": 2.0672569597,
				"y": -3.3531046869,
				"z": -0.9495652458,
				"element": "H" 
			},
			{
				"x": 1.2022522411,
				"y": -0.780738379,
				"z": -1.577838877,
				"element": "H" 
			},
			{
				"x": 1.9141119528,
				"y": -1.142141758,
				"z": 0.0057070965,
				"element": "H" 
			},
			{
				"x": -2.6725244413,
				"y": -0.3893960793,
				"z": 0.7681213171,
				"element": "H" 
			},
			{
				"x": -1.882395617,
				"y": 3.8396641315,
				"z": 0.7803959302,
				"element": "H" 
			},
			{
				"x": 0.4614853242,
				"y": 3.389140676,
				"z": 0.0559595059,
				"element": "H" 
			},
			{
				"x": 1.2379232707,
				"y": 1.0916540912,
				"z": -0.3048252841,
				"element": "H" 
			}
		],
		 "valence_orbital": [ 
			{
				"type": "occ",
				"energy": -0.30948,
				"method": "rhf"
			},
			{
				"type": "occ",
				"energy": -0.2926,
				"method": "rhf"
			},
			{
				"type": "occ",
				"energy": -0.27229,
				"method": "rhf"
			},
			{
				"type": "occ",
				"energy": -0.26144,
				"method": "rhf"
			},
			{
				"type": "occ",
				"energy": -0.24594,
				"method": "rhf"
			},
			{
				"type": "unocc",
				"energy": -0.04347,
				"method": "rhf"
			},
			{
				"type": "unocc",
				"energy": -0.02558,
				"method": "rhf"
			},
			{
				"type": "unocc",
				"energy": 0.00555,
				"method": "rhf"
			},
			{
				"type": "unocc",
				"energy": 0.01718,
				"method": "rhf"
			},
			{
				"type": "unocc",
				"energy": 0.02334,
				"method": "rhf"
			}
		],
		"cosmo_sigma_profile": { 
			"-0.025": 0.0,
			"-0.024": 0.0,
			"-0.023": 0.0,
			"-0.022": 0.0,
			"-0.021": 0.0,
			"-0.02": 0.0,
			"-0.019": 0.0,
			"-0.018": 0.0,
			"-0.017": 0.0,
			"-0.016": 0.0,
			"-0.015": 0.0,
			"-0.014": 0.0,
			"-0.013": 0.0,
			"-0.012": 0.0,
			"-0.011": 0.0,
			"-0.01": 1.1974857267,
			"-0.009": 5.51392325883,
			"-0.008": 6.38944814894,
			"-0.007": 13.5978687758,
			"-0.006": 21.4294522782,
			"-0.005": 19.9657339969,
			"-0.004": 14.925635682,
			"-0.003": 12.9855503903,
			"-0.002": 11.9025350245,
			"-0.001": 12.829022961,
			"0.0": 13.2487112794,
			"0.001": 15.7574997691,
			"0.002": 19.2736248429,
			"0.003": 21.075735544,
			"0.004": 16.7965263653,
			"0.005": 9.92034883411,
			"0.006": 3.1261132535,
			"0.007": 4.36619241055,
			"0.008": 4.8551724622,
			"0.009": 4.16392675158,
			"0.01": 6.44896048538,
			"0.011": 5.36030579113,
			"0.012": 5.3189578575,
			"0.013": 1.54527333355,
			"0.014": 0.0529778434322,
			"0.015": 0.0,
			"0.016": 0.0,
			"0.017": 0.0,
			"0.018": 0.0,
			"0.019": 0.0,
			"0.02": 0.0,
			"0.021": 0.0,
			"0.022": 0.0,
			"0.023": 0.0,
			"0.024": 0.0,
			"0.025": 0.0
		}
	}
}
