{
	 "smiles": "CC1=C(SCC(O)=O)C=CC(Br)=C1", 
	 "Tm": 399.15, 
	 "num_atms": 22, 
	 "gaussian": { 
		 "optdone": 1, 
		 "sigma_profile": "yes", 
		 "theory": "DFT", 
		 "functional": "B3LYP", 
		 "basiset": "6-31G**", 
		 "properties": { 
			 "R2extent": 5080.7241, 
			 "electric_dipole_moment_norm": 1.05943734595, 
			 "electric_quadrupole_moment_norm": 14.3709689249, 
			 "total_energy": -3468.43526814, 
			 "HOMO_LUMO_gap": 0.19182, 
			 "cosmo_polarized_energy": -11.67, 
			 "cosmo_cavitation_energy": 30.27, 
			 "cosmo_dispersion_energy": -21.98, 
			 "cosmo_repulsion_energy": 1.72, 
			 "cosmo_total_nonelectrostatic_energy": 10.01, 
			 "SMD_solvation_energy": 4.94 
		},
		"coords": [
			{
				"x": -2.8039458603,
				"y": -0.6260410927,
				"z": 0.2265743958,
				"element": "C" 
			},
			{
				"x": -1.3427401538,
				"y": -0.4937313937,
				"z": -0.1276546885,
				"element": "C" 
			},
			{
				"x": -0.6007383487,
				"y": 0.6771162782,
				"z": 0.1357106468,
				"element": "C" 
			},
			{
				"x": -1.380338916,
				"y": 2.1318658268,
				"z": 0.8501736284,
				"element": "S" 
			},
			{
				"x": -0.671113219,
				"y": 2.1611530666,
				"z": 2.5586861868,
				"element": "C" 
			},
			{
				"x": -1.4668079132,
				"y": 1.334212968,
				"z": 3.5439425552,
				"element": "C" 
			},
			{
				"x": -1.2381912451,
				"y": 0.0064044103,
				"z": 3.3922271647,
				"element": "O" 
			},
			{
				"x": -2.2260047673,
				"y": 1.7800443024,
				"z": 4.3737751397,
				"element": "O" 
			},
			{
				"x": 0.7514252105,
				"y": 0.7496145233,
				"z": -0.223747631,
				"element": "C" 
			},
			{
				"x": 1.401508858,
				"y": -0.3304236828,
				"z": -0.8163619526,
				"element": "C" 
			},
			{
				"x": 0.6664896521,
				"y": -1.4855236019,
				"z": -1.0689847471,
				"element": "C" 
			},
			{
				"x": 1.5221066549,
				"y": -2.9822474723,
				"z": -1.8925771791,
				"element": "Br" 
			},
			{
				"x": -0.6835162568,
				"y": -1.5691489775,
				"z": -0.7392010572,
				"element": "C" 
			},
			{
				"x": -3.412849195,
				"y": 0.1278149607,
				"z": -0.2816253935,
				"element": "H" 
			},
			{
				"x": -2.9547289159,
				"y": -0.487412325,
				"z": 1.3008076441,
				"element": "H" 
			},
			{
				"x": -3.1810919575,
				"y": -1.6133744212,
				"z": -0.0517565981,
				"element": "H" 
			},
			{
				"x": -0.7117900849,
				"y": 3.2017345508,
				"z": 2.881859199,
				"element": "H" 
			},
			{
				"x": 0.3669103683,
				"y": 1.8252877525,
				"z": 2.5150387505,
				"element": "H" 
			},
			{
				"x": -1.7968685982,
				"y": -0.4406745294,
				"z": 4.0503758079,
				"element": "H" 
			},
			{
				"x": 1.3003818528,
				"y": 1.6689464072,
				"z": -0.043198706,
				"element": "H" 
			},
			{
				"x": 2.4489871904,
				"y": -0.2696027626,
				"z": -1.0875684301,
				"element": "H" 
			},
			{
				"x": -1.2310843553,
				"y": -2.4807147877,
				"z": -0.9522947357,
				"element": "H" 
			}
		],
		 "valence_orbital": [ 
			{
				"type": "occ",
				"energy": -0.29188,
				"method": "rhf"
			},
			{
				"type": "occ",
				"energy": -0.28977,
				"method": "rhf"
			},
			{
				"type": "occ",
				"energy": -0.26391,
				"method": "rhf"
			},
			{
				"type": "occ",
				"energy": -0.25442,
				"method": "rhf"
			},
			{
				"type": "occ",
				"energy": -0.23502,
				"method": "rhf"
			},
			{
				"type": "unocc",
				"energy": -0.0432,
				"method": "rhf"
			},
			{
				"type": "unocc",
				"energy": -0.01886,
				"method": "rhf"
			},
			{
				"type": "unocc",
				"energy": -0.00417,
				"method": "rhf"
			},
			{
				"type": "unocc",
				"energy": 0.00191,
				"method": "rhf"
			},
			{
				"type": "unocc",
				"energy": 0.04275,
				"method": "rhf"
			}
		],
		"cosmo_sigma_profile": { 
			"-0.025": 0.0,
			"-0.024": 0.0,
			"-0.023": 0.0,
			"-0.022": 0.0,
			"-0.021": 0.0,
			"-0.02": 0.0,
			"-0.019": 0.156730363529,
			"-0.018": 0.768733422483,
			"-0.017": 0.94058696852,
			"-0.016": 0.95943870475,
			"-0.015": 0.807150003188,
			"-0.014": 0.759227299526,
			"-0.013": 0.21078991727,
			"-0.012": 0.494637353104,
			"-0.011": 1.15859795634,
			"-0.01": 0.810132302857,
			"-0.009": 0.478691193796,
			"-0.008": 3.22477773477,
			"-0.007": 9.9670482303,
			"-0.006": 12.1637484595,
			"-0.005": 12.5545012718,
			"-0.004": 16.270368207,
			"-0.003": 15.0030512739,
			"-0.002": 15.0400816787,
			"-0.001": 16.8261364503,
			"0.0": 18.5817383265,
			"0.001": 18.9805329022,
			"0.002": 21.1528361296,
			"0.003": 22.3783798148,
			"0.004": 19.3814343108,
			"0.005": 10.330249695,
			"0.006": 5.35574025609,
			"0.007": 4.09586600469,
			"0.008": 3.89216004612,
			"0.009": 2.63399300479,
			"0.01": 2.50690564293,
			"0.011": 4.97383289229,
			"0.012": 2.92433580274,
			"0.013": 0.234389494581,
			"0.014": 0.0,
			"0.015": 0.0,
			"0.016": 0.0,
			"0.017": 0.0,
			"0.018": 0.0,
			"0.019": 0.0,
			"0.02": 0.0,
			"0.021": 0.0,
			"0.022": 0.0,
			"0.023": 0.0,
			"0.024": 0.0,
			"0.0": 0.0
		}
	}
}
