{
	 "smiles": "CNCC1=CC(O)=CC=C1", 
	 "Tm": 418.15, 
	 "num_atms": 21, 
	 "gaussian": { 
		 "optdone": 1, 
		 "sigma_profile": "yes", 
		 "theory": "DFT", 
		 "functional": "B3LYP", 
		 "basiset": "6-31G**", 
		 "properties": { 
			 "R2extent": 2221.0368, 
			 "electric_dipole_moment_norm": 1.84754772875, 
			 "electric_quadrupole_moment_norm": 6.22831159946, 
			 "total_energy": -441.445911315, 
			 "HOMO_LUMO_gap": 0.21676, 
			 "cosmo_polarized_energy": -9.11, 
			 "cosmo_cavitation_energy": 24.22, 
			 "cosmo_dispersion_energy": -17.93, 
			 "cosmo_repulsion_energy": 1.48, 
			 "cosmo_total_nonelectrostatic_energy": 7.76, 
			 "SMD_solvation_energy": 3.25 
		},
		"coords": [
			{
				"x": 3.2100305253,
				"y": -1.1147838428,
				"z": -0.4841346782,
				"element": "C" 
			},
			{
				"x": 1.8027895198,
				"y": -1.0484635001,
				"z": -0.8586066707,
				"element": "N" 
			},
			{
				"x": 1.0128338964,
				"y": -0.1940596247,
				"z": 0.0247035152,
				"element": "C" 
			},
			{
				"x": -0.4489404219,
				"y": -0.1521932082,
				"z": -0.3751146554,
				"element": "C" 
			},
			{
				"x": -1.0779584676,
				"y": -1.3067749686,
				"z": -0.8562330238,
				"element": "C" 
			},
			{
				"x": -2.4328831529,
				"y": -1.2840144217,
				"z": -1.1961694323,
				"element": "C" 
			},
			{
				"x": -3.0855175692,
				"y": -2.3878762287,
				"z": -1.6722602394,
				"element": "O" 
			},
			{
				"x": -3.1769406749,
				"y": -0.1065729726,
				"z": -1.0564109903,
				"element": "C" 
			},
			{
				"x": -2.5479619859,
				"y": 1.0400102347,
				"z": -0.5792817904,
				"element": "C" 
			},
			{
				"x": -1.1916058902,
				"y": 1.0257763027,
				"z": -0.2430101555,
				"element": "C" 
			},
			{
				"x": 3.7555670998,
				"y": -1.7215928479,
				"z": -1.2130606917,
				"element": "H" 
			},
			{
				"x": 3.7105057774,
				"y": -0.1317533722,
				"z": -0.4113484242,
				"element": "H" 
			},
			{
				"x": 3.3047652085,
				"y": -1.6034262726,
				"z": 0.4925363779,
				"element": "H" 
			},
			{
				"x": 1.7169650663,
				"y": -0.7031531498,
				"z": -1.8116623033,
				"element": "H" 
			},
			{
				"x": 1.1016075648,
				"y": -0.6094572403,
				"z": 1.0399465329,
				"element": "H" 
			},
			{
				"x": 1.3997877743,
				"y": 0.8406110128,
				"z": 0.0893299454,
				"element": "H" 
			},
			{
				"x": -0.4909422703,
				"y": -2.2150427692,
				"z": -0.9715971304,
				"element": "H" 
			},
			{
				"x": -2.4615357391,
				"y": -3.1242386628,
				"z": -1.7133233722,
				"element": "H" 
			},
			{
				"x": -4.227574055,
				"y": -0.1107077638,
				"z": -1.3270569412,
				"element": "H" 
			},
			{
				"x": -3.12000778,
				"y": 1.9578556784,
				"z": -0.475252931,
				"element": "H" 
			},
			{
				"x": -0.7102844256,
				"y": 1.9296576173,
				"z": 0.1204070586,
				"element": "H" 
			}
		],
		 "valence_orbital": [ 
			{
				"type": "occ",
				"energy": -0.32701,
				"method": "rhf"
			},
			{
				"type": "occ",
				"energy": -0.32126,
				"method": "rhf"
			},
			{
				"type": "occ",
				"energy": -0.24226,
				"method": "rhf"
			},
			{
				"type": "occ",
				"energy": -0.22303,
				"method": "rhf"
			},
			{
				"type": "occ",
				"energy": -0.21469,
				"method": "rhf"
			},
			{
				"type": "unocc",
				"energy": 0.00207,
				"method": "rhf"
			},
			{
				"type": "unocc",
				"energy": 0.01868,
				"method": "rhf"
			},
			{
				"type": "unocc",
				"energy": 0.07806,
				"method": "rhf"
			},
			{
				"type": "unocc",
				"energy": 0.09113,
				"method": "rhf"
			},
			{
				"type": "unocc",
				"energy": 0.10688,
				"method": "rhf"
			}
		],
		"cosmo_sigma_profile": { 
			"-0.025": 0.0,
			"-0.024": 0.0,
			"-0.023": 0.0,
			"-0.022": 0.0,
			"-0.021": 0.0,
			"-0.02": 0.0,
			"-0.019": 0.0,
			"-0.018": 0.220610092031,
			"-0.017": 0.824857528994,
			"-0.016": 1.12658389511,
			"-0.015": 1.00508893458,
			"-0.014": 0.94781302201,
			"-0.013": 0.714820018403,
			"-0.012": 0.342763260513,
			"-0.011": 0.946818503685,
			"-0.01": 2.06287485396,
			"-0.009": 2.65811817822,
			"-0.008": 1.97262063933,
			"-0.007": 1.70262548202,
			"-0.006": 2.93018248607,
			"-0.005": 7.36249857971,
			"-0.004": 12.9691036862,
			"-0.003": 17.4293640786,
			"-0.002": 20.9662605156,
			"-0.001": 19.8218522125,
			"0.0": 18.5552736417,
			"0.001": 7.54966628907,
			"0.002": 9.32954929976,
			"0.003": 9.44740819936,
			"0.004": 10.3971287774,
			"0.005": 11.6814441402,
			"0.006": 9.78020281761,
			"0.007": 4.84766232837,
			"0.008": 2.41872743305,
			"0.009": 2.25888267522,
			"0.01": 2.18183595794,
			"0.011": 2.88457687041,
			"0.012": 1.56733922233,
			"0.013": 0.584227435808,
			"0.014": 0.429038776676,
			"0.015": 0.390704270971,
			"0.016": 0.00286599950693,
			"0.017": 0.0,
			"0.018": 0.0,
			"0.019": 0.0,
			"0.02": 0.0,
			"0.021": 0.0,
			"0.022": 0.0,
			"0.023": 0.0,
			"0.024": 0.0,
			"0.025": 0.0
		}
	}
}
