{
	 "smiles": "CN(C(=S)OC1=CC=C2CCCC2=C1)C1=CC=CC(C)=C1", 
	 "Tm": 367.15, 
	 "num_atms": 40, 
	 "gaussian": { 
		 "optdone": 1, 
		 "sigma_profile": "yes", 
		 "theory": "DFT", 
		 "functional": "B3LYP", 
		 "basiset": "6-31G**", 
		 "properties": { 
			 "R2extent": 9618.4119, 
			 "electric_dipole_moment_norm": 3.71071689839, 
			 "electric_quadrupole_moment_norm": 22.8722116593, 
			 "total_energy": -1225.54242886, 
			 "HOMO_LUMO_gap": 0.18317, 
			 "cosmo_polarized_energy": -12.82, 
			 "cosmo_cavitation_energy": 44.74, 
			 "cosmo_dispersion_energy": -30.91, 
			 "cosmo_repulsion_energy": 2.39, 
			 "cosmo_total_nonelectrostatic_energy": 16.22, 
			 "SMD_solvation_energy": 6.56 
		},
		"coords": [
			{
				"x": -2.7406219472,
				"y": -1.8300972427,
				"z": -2.7887706885,
				"element": "C" 
			},
			{
				"x": -1.7335515632,
				"y": -1.3204865217,
				"z": -1.8514348741,
				"element": "N" 
			},
			{
				"x": -1.9034252197,
				"y": -1.5248324858,
				"z": -0.5179594352,
				"element": "C" 
			},
			{
				"x": -3.1744272538,
				"y": -2.3619587486,
				"z": 0.1603168927,
				"element": "S" 
			},
			{
				"x": -0.8948916067,
				"y": -0.9343661271,
				"z": 0.177322709,
				"element": "O" 
			},
			{
				"x": -0.8434819576,
				"y": -1.0092537981,
				"z": 1.5734282122,
				"element": "C" 
			},
			{
				"x": -1.3068657913,
				"y": 0.0774897404,
				"z": 2.3107823908,
				"element": "C" 
			},
			{
				"x": -1.173380262,
				"y": 0.0682383826,
				"z": 3.701798509,
				"element": "C" 
			},
			{
				"x": -0.5827524197,
				"y": -1.0288680141,
				"z": 4.3257898619,
				"element": "C" 
			},
			{
				"x": -0.3155903653,
				"y": -1.2651773879,
				"z": 5.7980744953,
				"element": "C" 
			},
			{
				"x": -0.0449239193,
				"y": -2.7899737626,
				"z": 5.8641981466,
				"element": "C" 
			},
			{
				"x": 0.4983390559,
				"y": -3.1650394236,
				"z": 4.4617489061,
				"element": "C" 
			},
			{
				"x": -0.1181474374,
				"y": -2.112022514,
				"z": 3.5645030482,
				"element": "C" 
			},
			{
				"x": -0.2387012015,
				"y": -2.109970786,
				"z": 2.1775497943,
				"element": "C" 
			},
			{
				"x": -0.6105711469,
				"y": -0.5965098179,
				"z": -2.3914533792,
				"element": "C" 
			},
			{
				"x": 0.6770453187,
				"y": -1.1317547492,
				"z": -2.328305003,
				"element": "C" 
			},
			{
				"x": 1.7363648004,
				"y": -0.4278926197,
				"z": -2.9011290605,
				"element": "C" 
			},
			{
				"x": 1.5126666585,
				"y": 0.7904419788,
				"z": -3.5408302223,
				"element": "C" 
			},
			{
				"x": 0.2229728018,
				"y": 1.3357987496,
				"z": -3.6157030086,
				"element": "C" 
			},
			{
				"x": -0.0162445717,
				"y": 2.6592451376,
				"z": -4.3047756829,
				"element": "C" 
			},
			{
				"x": -0.8320608106,
				"y": 0.6280722903,
				"z": -3.0301550842,
				"element": "C" 
			},
			{
				"x": -2.4128432397,
				"y": -1.5872141919,
				"z": -3.7996624455,
				"element": "H" 
			},
			{
				"x": -3.7190879758,
				"y": -1.3814960937,
				"z": -2.5944011578,
				"element": "H" 
			},
			{
				"x": -2.8427233132,
				"y": -2.9135832618,
				"z": -2.6835813281,
				"element": "H" 
			},
			{
				"x": -1.7687255079,
				"y": 0.9111778706,
				"z": 1.7930113833,
				"element": "H" 
			},
			{
				"x": -1.536667834,
				"y": 0.9109243527,
				"z": 4.2840218343,
				"element": "H" 
			},
			{
				"x": 0.5680925396,
				"y": -0.6960527327,
				"z": 6.1211676712,
				"element": "H" 
			},
			{
				"x": -1.1440637655,
				"y": -0.9533986055,
				"z": 6.4429471401,
				"element": "H" 
			},
			{
				"x": 0.6361767965,
				"y": -3.0679157918,
				"z": 6.6735046676,
				"element": "H" 
			},
			{
				"x": -0.9908373841,
				"y": -3.3157871494,
				"z": 6.0347856986,
				"element": "H" 
			},
			{
				"x": 1.5951716222,
				"y": -3.0924811907,
				"z": 4.4336772829,
				"element": "H" 
			},
			{
				"x": 0.2414741476,
				"y": -4.1875397374,
				"z": 4.1658952059,
				"element": "H" 
			},
			{
				"x": 0.1091259723,
				"y": -2.9375911359,
				"z": 1.5676602357,
				"element": "H" 
			},
			{
				"x": 0.8409260274,
				"y": -2.0836549583,
				"z": -1.8350671189,
				"element": "H" 
			},
			{
				"x": 2.7411298252,
				"y": -0.8376854099,
				"z": -2.853588329,
				"element": "H" 
			},
			{
				"x": 2.3468452941,
				"y": 1.3260824872,
				"z": -3.987148091,
				"element": "H" 
			},
			{
				"x": -1.070718912,
				"y": 2.9455557156,
				"z": -4.2682647461,
				"element": "H" 
			},
			{
				"x": 0.2834151675,
				"y": 2.619058341,
				"z": -5.3582928517,
				"element": "H" 
			},
			{
				"x": 0.5644664176,
				"y": 3.4617394567,
				"z": -3.8360202252,
				"element": "H" 
			},
			{
				"x": -1.8397070394,
				"y": 1.0335797548,
				"z": -3.0617413539,
				"element": "H" 
			}
		],
		 "valence_orbital": [ 
			{
				"type": "occ",
				"energy": -0.24998,
				"method": "rhf"
			},
			{
				"type": "occ",
				"energy": -0.24189,
				"method": "rhf"
			},
			{
				"type": "occ",
				"energy": -0.2272,
				"method": "rhf"
			},
			{
				"type": "occ",
				"energy": -0.21639,
				"method": "rhf"
			},
			{
				"type": "occ",
				"energy": -0.20311,
				"method": "rhf"
			},
			{
				"type": "unocc",
				"energy": -0.01994,
				"method": "rhf"
			},
			{
				"type": "unocc",
				"energy": -0.00683,
				"method": "rhf"
			},
			{
				"type": "unocc",
				"energy": -0.00161,
				"method": "rhf"
			},
			{
				"type": "unocc",
				"energy": 0.00552,
				"method": "rhf"
			},
			{
				"type": "unocc",
				"energy": 0.00918,
				"method": "rhf"
			}
		],
		"cosmo_sigma_profile": { 
			"-0.025": 0.0,
			"-0.024": 0.0,
			"-0.023": 0.0,
			"-0.022": 0.0,
			"-0.021": 0.0,
			"-0.02": 0.0,
			"-0.019": 0.0,
			"-0.018": 0.0,
			"-0.017": 0.0,
			"-0.016": 0.0,
			"-0.015": 0.0,
			"-0.014": 0.0,
			"-0.013": 0.0,
			"-0.012": 0.0,
			"-0.011": 0.0,
			"-0.01": 0.0,
			"-0.009": 0.0,
			"-0.008": 0.0,
			"-0.007": 1.36150115616,
			"-0.006": 12.2492851929,
			"-0.005": 20.8918854034,
			"-0.004": 33.894334504,
			"-0.003": 42.9154546885,
			"-0.002": 43.7693167025,
			"-0.001": 39.036897362,
			"0.0": 33.6678196113,
			"0.001": 20.1454049508,
			"0.002": 15.6265994183,
			"0.003": 18.4269894848,
			"0.004": 18.8898620513,
			"0.005": 16.8052236235,
			"0.006": 9.09115315267,
			"0.007": 7.5517963527,
			"0.008": 6.54209189888,
			"0.009": 9.29910371489,
			"0.01": 4.21108523163,
			"0.011": 2.20988889441,
			"0.012": 0.445202434443,
			"0.013": 0.0,
			"0.014": 0.0,
			"0.015": 0.0,
			"0.016": 0.0,
			"0.017": 0.0,
			"0.018": 0.0,
			"0.019": 0.0,
			"0.02": 0.0,
			"0.021": 0.0,
			"0.022": 0.0,
			"0.023": 0.0,
			"0.024": 0.0,
			"0.025": 0.0
		}
	}
}
