{
	 "smiles": "[O-][N+](=O)C1=C2C=NC=CC2=C(Br)C=C1", 
	 "Tm": 408.15, 
	 "num_atms": 19, 
	 "gaussian": { 
		 "optdone": 1, 
		 "sigma_profile": "yes", 
		 "theory": "DFT", 
		 "functional": "B3LYP", 
		 "basiset": "6-31G**", 
		 "properties": { 
			 "R2extent": 3900.5844, 
			 "electric_dipole_moment_norm": 4.16799088651, 
			 "electric_quadrupole_moment_norm": 7.7613371741, 
			 "total_energy": -3177.21661639, 
			 "HOMO_LUMO_gap": 0.14502, 
			 "cosmo_polarized_energy": -9.72, 
			 "cosmo_cavitation_energy": 26.21, 
			 "cosmo_dispersion_energy": -20.06, 
			 "cosmo_repulsion_energy": 1.53, 
			 "cosmo_total_nonelectrostatic_energy": 7.68, 
			 "SMD_solvation_energy": 4.0 
		},
		"coords": [
			{
				"x": 1.023737694,
				"y": 3.8428166001,
				"z": -0.8736896594,
				"element": "O" 
			},
			{
				"x": 1.4098257075,
				"y": 2.6908156324,
				"z": -0.6806852549,
				"element": "N" 
			},
			{
				"x": 2.5867313376,
				"y": 2.334033435,
				"z": -0.7304571417,
				"element": "O" 
			},
			{
				"x": 0.3777049192,
				"y": 1.6724146543,
				"z": -0.4070909377,
				"element": "C" 
			},
			{
				"x": 0.6558389955,
				"y": 0.4652501695,
				"z": 0.3051854146,
				"element": "C" 
			},
			{
				"x": 1.9086477153,
				"y": 0.1248950767,
				"z": 0.9056624554,
				"element": "C" 
			},
			{
				"x": 2.1269241383,
				"y": -0.9822294736,
				"z": 1.5852342321,
				"element": "N" 
			},
			{
				"x": 1.1044378691,
				"y": -1.8640724334,
				"z": 1.7186186629,
				"element": "C" 
			},
			{
				"x": -0.1516606015,
				"y": -1.656976835,
				"z": 1.2025736847,
				"element": "C" 
			},
			{
				"x": -0.4218259396,
				"y": -0.4690191915,
				"z": 0.4801207002,
				"element": "C" 
			},
			{
				"x": -1.7006036092,
				"y": -0.1534934719,
				"z": -0.0697696761,
				"element": "C" 
			},
			{
				"x": -3.1548481789,
				"y": -1.3703871013,
				"z": 0.1111601518,
				"element": "Br" 
			},
			{
				"x": -1.926530186,
				"y": 1.0282045113,
				"z": -0.735905363,
				"element": "C" 
			},
			{
				"x": -0.8781757899,
				"y": 1.9527963345,
				"z": -0.8959618676,
				"element": "C" 
			},
			{
				"x": 2.7430896545,
				"y": 0.8073211818,
				"z": 0.8082474225,
				"element": "H" 
			},
			{
				"x": 1.3295122024,
				"y": -2.7686845097,
				"z": 2.2781089781,
				"element": "H" 
			},
			{
				"x": -0.9373646711,
				"y": -2.387562094,
				"z": 1.3499491705,
				"element": "H" 
			},
			{
				"x": -2.9067145562,
				"y": 1.2495675192,
				"z": -1.1407012326,
				"element": "H" 
			},
			{
				"x": -1.0451267007,
				"y": 2.8897099958,
				"z": -1.4120997399,
				"element": "H" 
			}
		],
		 "valence_orbital": [ 
			{
				"type": "occ",
				"energy": -0.30843,
				"method": "rhf"
			},
			{
				"type": "occ",
				"energy": -0.30145,
				"method": "rhf"
			},
			{
				"type": "occ",
				"energy": -0.29213,
				"method": "rhf"
			},
			{
				"type": "occ",
				"energy": -0.27115,
				"method": "rhf"
			},
			{
				"type": "occ",
				"energy": -0.25517,
				"method": "rhf"
			},
			{
				"type": "unocc",
				"energy": -0.11015,
				"method": "rhf"
			},
			{
				"type": "unocc",
				"energy": -0.05981,
				"method": "rhf"
			},
			{
				"type": "unocc",
				"energy": -0.05336,
				"method": "rhf"
			},
			{
				"type": "unocc",
				"energy": -0.01791,
				"method": "rhf"
			},
			{
				"type": "unocc",
				"energy": 0.00374,
				"method": "rhf"
			}
		],
		"cosmo_sigma_profile": { 
			"-0.025": 0.0,
			"-0.024": 0.0,
			"-0.023": 0.0,
			"-0.022": 0.0,
			"-0.021": 0.0,
			"-0.02": 0.0,
			"-0.019": 0.0,
			"-0.018": 0.0,
			"-0.017": 0.0,
			"-0.016": 0.0,
			"-0.015": 0.0,
			"-0.014": 0.0,
			"-0.013": 0.0,
			"-0.012": 0.0,
			"-0.011": 0.0,
			"-0.01": 0.125521794691,
			"-0.009": 3.3385999498,
			"-0.008": 5.32763382997,
			"-0.007": 8.08500965688,
			"-0.006": 9.68539582522,
			"-0.005": 10.7914968648,
			"-0.004": 10.7059792647,
			"-0.003": 12.7180028528,
			"-0.002": 23.9016290465,
			"-0.001": 26.79758304,
			"0.0": 19.6653976474,
			"0.001": 16.6742113251,
			"0.002": 12.473175943,
			"0.003": 13.2187983935,
			"0.004": 4.90345718741,
			"0.005": 4.98168998963,
			"0.006": 5.33235728658,
			"0.007": 9.93244638949,
			"0.008": 5.98152731836,
			"0.009": 4.43109025074,
			"0.01": 2.09067439774,
			"0.011": 0.761956477345,
			"0.012": 1.04840211759,
			"0.013": 0.890024232532,
			"0.014": 0.925368967234,
			"0.015": 0.678148251724,
			"0.016": 0.301870225347,
			"0.017": 0.0,
			"0.018": 0.0,
			"0.019": 0.0,
			"0.02": 0.0,
			"0.021": 0.0,
			"0.022": 0.0,
			"0.023": 0.0,
			"0.024": 0.0,
			"0.025": 0.0
		}
	}
}
