{
	 "smiles": "COC(=O)C(Br)CN1C(=O)C2=C(C=CC=C2)C1=O", 
	 "Tm": 373.15, 
	 "num_atms": 28, 
	 "gaussian": { 
		 "optdone": 1, 
		 "sigma_profile": "yes", 
		 "theory": "DFT", 
		 "functional": "B3LYP", 
		 "basiset": "6-31G**", 
		 "properties": { 
			 "R2extent": 7417.9352, 
			 "electric_dipole_moment_norm": 3.24509657329, 
			 "electric_quadrupole_moment_norm": 32.3205699184, 
			 "total_energy": -3390.39095374, 
			 "HOMO_LUMO_gap": 0.18381, 
			 "cosmo_polarized_energy": -15.3, 
			 "cosmo_cavitation_energy": 36.05, 
			 "cosmo_dispersion_energy": -25.05, 
			 "cosmo_repulsion_energy": 1.95, 
			 "cosmo_total_nonelectrostatic_energy": 12.95, 
			 "SMD_solvation_energy": 7.66 
		},
		"coords": [
			{
				"x": 1.0144277356,
				"y": 0.9471402804,
				"z": -4.0542801591,
				"element": "C" 
			},
			{
				"x": 0.7989803816,
				"y": 0.4143558564,
				"z": -2.7345056049,
				"element": "O" 
			},
			{
				"x": 1.2290053265,
				"y": -0.8463830779,
				"z": -2.5446228543,
				"element": "C" 
			},
			{
				"x": 1.7311658449,
				"y": -1.5363003307,
				"z": -3.4019123862,
				"element": "O" 
			},
			{
				"x": 0.9897457194,
				"y": -1.3100665198,
				"z": -1.1151683584,
				"element": "C" 
			},
			{
				"x": 2.4513480675,
				"y": -0.5678001665,
				"z": 0.0107206191,
				"element": "Br" 
			},
			{
				"x": -0.3813662054,
				"y": -0.9021846807,
				"z": -0.5691233596,
				"element": "C" 
			},
			{
				"x": -0.6348557416,
				"y": -1.3876381155,
				"z": 0.7719646452,
				"element": "N" 
			},
			{
				"x": -0.7233329276,
				"y": -2.7459604571,
				"z": 1.1155961304,
				"element": "C" 
			},
			{
				"x": -0.59056397,
				"y": -3.6715101586,
				"z": 0.3375926967,
				"element": "O" 
			},
			{
				"x": -1.0055607771,
				"y": -2.7728953539,
				"z": 2.5801128648,
				"element": "C" 
			},
			{
				"x": -1.0797825036,
				"y": -1.4547349722,
				"z": 3.036797109,
				"element": "C" 
			},
			{
				"x": -1.3346621336,
				"y": -1.1617477574,
				"z": 4.3686050305,
				"element": "C" 
			},
			{
				"x": -1.5130712866,
				"y": -2.2420505446,
				"z": 5.2430726228,
				"element": "C" 
			},
			{
				"x": -1.4382236075,
				"y": -3.5639481773,
				"z": 4.7850432119,
				"element": "C" 
			},
			{
				"x": -1.1819923412,
				"y": -3.8493699991,
				"z": 3.437344619,
				"element": "C" 
			},
			{
				"x": -0.8538045251,
				"y": -0.540499426,
				"z": 1.8792134989,
				"element": "C" 
			},
			{
				"x": -0.8660007763,
				"y": 0.6716389045,
				"z": 1.8427826918,
				"element": "O" 
			},
			{
				"x": 2.0823002327,
				"y": 0.9690110835,
				"z": -4.2837716694,
				"element": "H" 
			},
			{
				"x": 0.5020739225,
				"y": 0.33683114,
				"z": -4.8016954289,
				"element": "H" 
			},
			{
				"x": 0.6051756046,
				"y": 1.9564351826,
				"z": -4.0324502915,
				"element": "H" 
			},
			{
				"x": 1.1286113834,
				"y": -2.3877149054,
				"z": -1.0819504055,
				"element": "H" 
			},
			{
				"x": -0.4811660928,
				"y": 0.1832636594,
				"z": -0.5422395434,
				"element": "H" 
			},
			{
				"x": -1.1406964288,
				"y": -1.309895835,
				"z": -1.2487208956,
				"element": "H" 
			},
			{
				"x": -1.390754831,
				"y": -0.1339553156,
				"z": 4.7121253097,
				"element": "H" 
			},
			{
				"x": -1.7128232887,
				"y": -2.0537571147,
				"z": 6.2936630136,
				"element": "H" 
			},
			{
				"x": -1.5811822154,
				"y": -4.3792965049,
				"z": 5.4877909204,
				"element": "H" 
			},
			{
				"x": -1.1220945665,
				"y": -4.8691666939,
				"z": 3.0713159729,
				"element": "H" 
			}
		],
		 "valence_orbital": [ 
			{
				"type": "occ",
				"energy": -0.28175,
				"method": "rhf"
			},
			{
				"type": "occ",
				"energy": -0.28031,
				"method": "rhf"
			},
			{
				"type": "occ",
				"energy": -0.27535,
				"method": "rhf"
			},
			{
				"type": "occ",
				"energy": -0.27375,
				"method": "rhf"
			},
			{
				"type": "occ",
				"energy": -0.27027,
				"method": "rhf"
			},
			{
				"type": "unocc",
				"energy": -0.08646,
				"method": "rhf"
			},
			{
				"type": "unocc",
				"energy": -0.04533,
				"method": "rhf"
			},
			{
				"type": "unocc",
				"energy": -0.0422,
				"method": "rhf"
			},
			{
				"type": "unocc",
				"energy": 0.02393,
				"method": "rhf"
			},
			{
				"type": "unocc",
				"energy": 0.03544,
				"method": "rhf"
			}
		],
		"cosmo_sigma_profile": { 
			"-0.025": 0.0,
			"-0.024": 0.0,
			"-0.023": 0.0,
			"-0.022": 0.0,
			"-0.021": 0.0,
			"-0.02": 0.0,
			"-0.019": 0.0,
			"-0.018": 0.0,
			"-0.017": 0.0,
			"-0.016": 0.0,
			"-0.015": 0.0,
			"-0.014": 0.0,
			"-0.013": 0.0,
			"-0.012": 0.0,
			"-0.011": 0.01000419136,
			"-0.01": 0.872613207913,
			"-0.009": 1.30500887699,
			"-0.008": 4.9290072309,
			"-0.007": 13.9395500487,
			"-0.006": 20.8525321521,
			"-0.005": 21.7006128082,
			"-0.004": 23.4049979754,
			"-0.003": 22.1795536826,
			"-0.002": 18.2302779271,
			"-0.001": 21.2096601456,
			"0.0": 18.3024232656,
			"0.001": 22.6415583872,
			"0.002": 21.7351063184,
			"0.003": 13.5066034186,
			"0.004": 14.2640237171,
			"0.005": 9.69464319967,
			"0.006": 5.41857579184,
			"0.007": 3.83668732518,
			"0.008": 3.99185147384,
			"0.009": 6.71996232916,
			"0.01": 9.00782947807,
			"0.011": 12.1099578169,
			"0.012": 1.85084567664,
			"0.013": 0.0,
			"0.014": 0.0,
			"0.015": 0.0,
			"0.016": 0.0,
			"0.017": 0.0,
			"0.018": 0.0,
			"0.019": 0.0,
			"0.02": 0.0,
			"0.021": 0.0,
			"0.022": 0.0,
			"0.023": 0.0,
			"0.024": 0.0,
			"0.025": 0.0
		}
	}
}
