{
	 "smiles": "OC(=O)C1=CC(=CC=C1)C1=CC=CN=C1", 
	 "Tm": 477.15, 
	 "num_atms": 24, 
	 "gaussian": { 
		 "optdone": 1, 
		 "sigma_profile": "yes", 
		 "theory": "DFT", 
		 "functional": "B3LYP", 
		 "basiset": "6-31G**", 
		 "properties": { 
			 "R2extent": 3857.1853, 
			 "electric_dipole_moment_norm": 1.72517184651, 
			 "electric_quadrupole_moment_norm": 15.022838127, 
			 "total_energy": -667.919441865, 
			 "HOMO_LUMO_gap": 0.1859, 
			 "cosmo_polarized_energy": -12.63, 
			 "cosmo_cavitation_energy": 29.13, 
			 "cosmo_dispersion_energy": -21.28, 
			 "cosmo_repulsion_energy": 1.64, 
			 "cosmo_total_nonelectrostatic_energy": 9.49, 
			 "SMD_solvation_energy": 4.64 
		},
		"coords": [
			{
				"x": -1.1524004613,
				"y": 0.8205047822,
				"z": -3.4277120516,
				"element": "O" 
			},
			{
				"x": -1.3354830591,
				"y": 1.8881030102,
				"z": -2.6101007706,
				"element": "C" 
			},
			{
				"x": -1.8342881798,
				"y": 2.9234036857,
				"z": -3.0045522105,
				"element": "O" 
			},
			{
				"x": -0.8694811057,
				"y": 1.6457011553,
				"z": -1.217941083,
				"element": "C" 
			},
			{
				"x": -0.2958280228,
				"y": 0.4298658882,
				"z": -0.829750067,
				"element": "C" 
			},
			{
				"x": 0.1377732744,
				"y": 0.2304589081,
				"z": 0.4891550651,
				"element": "C" 
			},
			{
				"x": -0.017140983,
				"y": 1.2826647881,
				"z": 1.4086632614,
				"element": "C" 
			},
			{
				"x": -0.5843667513,
				"y": 2.4973643358,
				"z": 1.0219693308,
				"element": "C" 
			},
			{
				"x": -1.0131601934,
				"y": 2.6845488421,
				"z": -0.288975229,
				"element": "C" 
			},
			{
				"x": 0.7454841507,
				"y": -1.0583764841,
				"z": 0.9005482762,
				"element": "C" 
			},
			{
				"x": 0.2757108071,
				"y": -2.2894127741,
				"z": 0.4196083636,
				"element": "C" 
			},
			{
				"x": 0.8868414306,
				"y": -3.4668205401,
				"z": 0.8410734109,
				"element": "C" 
			},
			{
				"x": 1.9510839414,
				"y": -3.3829404222,
				"z": 1.7399938843,
				"element": "C" 
			},
			{
				"x": 2.4241554839,
				"y": -2.2224287655,
				"z": 2.211059948,
				"element": "N" 
			},
			{
				"x": 1.8319656088,
				"y": -1.1008260616,
				"z": 1.792212587,
				"element": "C" 
			},
			{
				"x": -1.4871107719,
				"y": 1.0949446273,
				"z": -4.2972009976,
				"element": "H" 
			},
			{
				"x": -0.1683056981,
				"y": -0.3539527825,
				"z": -1.5675616982,
				"element": "H" 
			},
			{
				"x": 0.2888553833,
				"y": 1.1382105594,
				"z": 2.4404905283,
				"element": "H" 
			},
			{
				"x": -0.6993999404,
				"y": 3.2943378168,
				"z": 1.7503718727,
				"element": "H" 
			},
			{
				"x": -1.4594644322,
				"y": 3.6179378854,
				"z": -0.6140489796,
				"element": "H" 
			},
			{
				"x": -0.57174168,
				"y": -2.3213338227,
				"z": -0.2592293058,
				"element": "H" 
			},
			{
				"x": 0.5392778369,
				"y": -4.4334787288,
				"z": 0.4900334182,
				"element": "H" 
			},
			{
				"x": 2.4452737951,
				"y": -4.284573268,
				"z": 2.0972349858,
				"element": "H" 
			},
			{
				"x": 2.2548495668,
				"y": -0.171002635,
				"z": 2.1693574607,
				"element": "H" 
			}
		],
		 "valence_orbital": [ 
			{
				"type": "occ",
				"energy": -0.28188,
				"method": "rhf"
			},
			{
				"type": "occ",
				"energy": -0.28055,
				"method": "rhf"
			},
			{
				"type": "occ",
				"energy": -0.26907,
				"method": "rhf"
			},
			{
				"type": "occ",
				"energy": -0.25753,
				"method": "rhf"
			},
			{
				"type": "occ",
				"energy": -0.24196,
				"method": "rhf"
			},
			{
				"type": "unocc",
				"energy": -0.05606,
				"method": "rhf"
			},
			{
				"type": "unocc",
				"energy": -0.04111,
				"method": "rhf"
			},
			{
				"type": "unocc",
				"energy": -0.02591,
				"method": "rhf"
			},
			{
				"type": "unocc",
				"energy": 0.00656,
				"method": "rhf"
			},
			{
				"type": "unocc",
				"energy": 0.05461,
				"method": "rhf"
			}
		],
		"cosmo_sigma_profile": { 
			"-0.025": 0.0,
			"-0.024": 0.0,
			"-0.023": 0.0,
			"-0.022": 0.0,
			"-0.021": 0.0,
			"-0.02": 0.0,
			"-0.019": 0.138322661015,
			"-0.018": 0.607328449283,
			"-0.017": 0.986695557494,
			"-0.016": 0.988605396409,
			"-0.015": 0.587218793807,
			"-0.014": 0.459152719046,
			"-0.013": 0.996252709394,
			"-0.012": 0.643150362919,
			"-0.011": 0.878972325782,
			"-0.01": 0.52488188352,
			"-0.009": 0.224811472721,
			"-0.008": 0.621111347974,
			"-0.007": 9.2900827214,
			"-0.006": 17.7257076964,
			"-0.005": 17.1082245395,
			"-0.004": 12.6259882231,
			"-0.003": 12.618450386,
			"-0.002": 13.7948019711,
			"-0.001": 13.6262829821,
			"0.0": 18.602678771,
			"0.001": 22.7472351488,
			"0.002": 26.3192257913,
			"0.003": 19.5008544301,
			"0.004": 7.00940266887,
			"0.005": 4.64170372054,
			"0.006": 4.05154759477,
			"0.007": 4.62736930425,
			"0.008": 2.63330320084,
			"0.009": 3.29894770533,
			"0.01": 3.37564755999,
			"0.011": 4.59101739698,
			"0.012": 4.91494092837,
			"0.013": 0.753666836923,
			"0.014": 0.65180359519,
			"0.015": 1.09268342175,
			"0.016": 0.880619417155,
			"0.017": 0.172097632904,
			"0.018": 0.0,
			"0.019": 0.0,
			"0.02": 0.0,
			"0.021": 0.0,
			"0.022": 0.0,
			"0.023": 0.0,
			"0.024": 0.0,
			"0.025": 0.0
		}
	}
}
