{
	 "smiles": "CC(C)C1=NC(N)=CC(C)=N1", 
	 "Tm": 470.15, 
	 "num_atms": 24, 
	 "gaussian": { 
		 "optdone": 1, 
		 "sigma_profile": "yes", 
		 "theory": "DFT", 
		 "functional": "B3LYP", 
		 "basiset": "6-31G**", 
		 "properties": { 
			 "R2extent": 2215.6853, 
			 "electric_dipole_moment_norm": 3.24034675459, 
			 "electric_quadrupole_moment_norm": 12.3264297438, 
			 "total_energy": -476.954236273, 
			 "HOMO_LUMO_gap": 0.21558, 
			 "cosmo_polarized_energy": -13.09, 
			 "cosmo_cavitation_energy": 27.02, 
			 "cosmo_dispersion_energy": -19.42, 
			 "cosmo_repulsion_energy": 1.62, 
			 "cosmo_total_nonelectrostatic_energy": 9.22, 
			 "SMD_solvation_energy": 2.37 
		},
		"coords": [
			{
				"x": -0.8720643864,
				"y": 1.087396218,
				"z": -1.7272837506,
				"element": "C" 
			},
			{
				"x": -1.3751521165,
				"y": 0.2798578046,
				"z": -0.516986276,
				"element": "C" 
			},
			{
				"x": -2.4349683765,
				"y": -0.7526062334,
				"z": -0.9421777201,
				"element": "C" 
			},
			{
				"x": -0.2178444197,
				"y": -0.4010772164,
				"z": 0.190904331,
				"element": "C" 
			},
			{
				"x": 0.4823426817,
				"y": -1.2998259744,
				"z": -0.5192860467,
				"element": "N" 
			},
			{
				"x": 1.5014712638,
				"y": -1.9031850282,
				"z": 0.0955166623,
				"element": "C" 
			},
			{
				"x": 2.2362719116,
				"y": -2.8608143643,
				"z": -0.6837997204,
				"element": "N" 
			},
			{
				"x": 1.8226650087,
				"y": -1.6082155343,
				"z": 1.4240849508,
				"element": "C" 
			},
			{
				"x": 1.0405868096,
				"y": -0.6595381252,
				"z": 2.0877779483,
				"element": "C" 
			},
			{
				"x": 1.3058566273,
				"y": -0.2724461834,
				"z": 3.5201240987,
				"element": "C" 
			},
			{
				"x": 0.0155532256,
				"y": -0.054073012,
				"z": 1.4660265672,
				"element": "N" 
			},
			{
				"x": -0.3774543565,
				"y": 0.4270854597,
				"z": -2.4456714993,
				"element": "H" 
			},
			{
				"x": -0.1560426874,
				"y": 1.857972364,
				"z": -1.4226600763,
				"element": "H" 
			},
			{
				"x": -1.7091004537,
				"y": 1.583661676,
				"z": -2.2297783352,
				"element": "H" 
			},
			{
				"x": -1.8166450133,
				"y": 0.9663121618,
				"z": 0.2128083011,
				"element": "H" 
			},
			{
				"x": -3.2716692619,
				"y": -0.2560238904,
				"z": -1.4449146985,
				"element": "H" 
			},
			{
				"x": -1.999506323,
				"y": -1.4826610278,
				"z": -1.6307329683,
				"element": "H" 
			},
			{
				"x": -2.8334776539,
				"y": -1.2940452811,
				"z": -0.0777111323,
				"element": "H" 
			},
			{
				"x": 2.214505598,
				"y": -3.767432576,
				"z": -0.2215722038,
				"element": "H" 
			},
			{
				"x": 3.2163260367,
				"y": -2.5889919377,
				"z": -0.7249345899,
				"element": "H" 
			},
			{
				"x": 2.6527171348,
				"y": -2.100785701,
				"z": 1.9222948142,
				"element": "H" 
			},
			{
				"x": 0.5818508667,
				"y": 0.4789131956,
				"z": 3.8381116008,
				"element": "H" 
			},
			{
				"x": 2.3161909569,
				"y": 0.1356111402,
				"z": 3.6365093408,
				"element": "H" 
			},
			{
				"x": 1.2303869275,
				"y": -1.1418879343,
				"z": 4.1828504023,
				"element": "H" 
			}
		],
		 "valence_orbital": [ 
			{
				"type": "occ",
				"energy": -0.29641,
				"method": "rhf"
			},
			{
				"type": "occ",
				"energy": -0.28535,
				"method": "rhf"
			},
			{
				"type": "occ",
				"energy": -0.26298,
				"method": "rhf"
			},
			{
				"type": "occ",
				"energy": -0.26008,
				"method": "rhf"
			},
			{
				"type": "occ",
				"energy": -0.24113,
				"method": "rhf"
			},
			{
				"type": "unocc",
				"energy": -0.02555,
				"method": "rhf"
			},
			{
				"type": "unocc",
				"energy": -0.02111,
				"method": "rhf"
			},
			{
				"type": "unocc",
				"energy": 0.08322,
				"method": "rhf"
			},
			{
				"type": "unocc",
				"energy": 0.10999,
				"method": "rhf"
			},
			{
				"type": "unocc",
				"energy": 0.11441,
				"method": "rhf"
			}
		],
		"cosmo_sigma_profile": { 
			"-0.025": 0.0,
			"-0.024": 0.0,
			"-0.023": 0.0,
			"-0.022": 0.0,
			"-0.021": 0.0,
			"-0.02": 0.0,
			"-0.019": 0.0,
			"-0.018": 0.0,
			"-0.017": 0.0,
			"-0.016": 0.0,
			"-0.015": 0.0,
			"-0.014": 0.0,
			"-0.013": 0.0,
			"-0.012": 1.39773404834,
			"-0.011": 3.3466267667,
			"-0.01": 2.50844989314,
			"-0.009": 2.89471921127,
			"-0.008": 3.27599167069,
			"-0.007": 4.16448397553,
			"-0.006": 6.2149783692,
			"-0.005": 7.33961778746,
			"-0.004": 10.6898602566,
			"-0.003": 18.4198543885,
			"-0.002": 21.7541218663,
			"-0.001": 25.755454794,
			"0.0": 27.3770807515,
			"0.001": 26.8108425726,
			"0.002": 10.1931377978,
			"0.003": 4.13928118963,
			"0.004": 3.15252120082,
			"0.005": 4.68595901032,
			"0.006": 3.08800802981,
			"0.007": 3.42997380767,
			"0.008": 3.09082985079,
			"0.009": 1.5503097999,
			"0.01": 2.45669564337,
			"0.011": 2.04293681661,
			"0.012": 1.99786031783,
			"0.013": 1.76848520066,
			"0.014": 1.47283301942,
			"0.015": 1.98395201452,
			"0.016": 1.20088222044,
			"0.017": 0.729383753955,
			"0.018": 1.15682270478,
			"0.019": 1.00219842372,
			"0.02": 0.435191495264,
			"0.021": 0.0,
			"0.022": 0.0,
			"0.023": 0.0,
			"0.024": 0.0,
			"0.025": 0.0
		}
	}
}
