{
	 "smiles": "CCOC(C)=C(/C#N)C(=O)OCC", 
	 "Tm": 345.15, 
	 "num_atms": 26, 
	 "gaussian": { 
		 "optdone": 1, 
		 "sigma_profile": "yes", 
		 "theory": "DFT", 
		 "functional": "B3LYP", 
		 "basiset": "6-31G**", 
		 "properties": { 
			 "R2extent": 4461.8199, 
			 "electric_dipole_moment_norm": 4.90076020225, 
			 "electric_quadrupole_moment_norm": 19.856192418, 
			 "total_energy": -631.199514606, 
			 "HOMO_LUMO_gap": 0.19142, 
			 "cosmo_polarized_energy": -16.41, 
			 "cosmo_cavitation_energy": 30.77, 
			 "cosmo_dispersion_energy": -21.32, 
			 "cosmo_repulsion_energy": 1.75, 
			 "cosmo_total_nonelectrostatic_energy": 11.21, 
			 "SMD_solvation_energy": 8.37 
		},
		"coords": [
			{
				"x": -0.3335267929,
				"y": -3.2376709933,
				"z": -1.086168571,
				"element": "C" 
			},
			{
				"x": -0.0009572942,
				"y": -1.7751163867,
				"z": -1.315818182,
				"element": "C" 
			},
			{
				"x": -0.7985237873,
				"y": -1.0151080942,
				"z": -0.3871739392,
				"element": "O" 
			},
			{
				"x": -0.7442721043,
				"y": 0.3240835464,
				"z": -0.3324417344,
				"element": "C" 
			},
			{
				"x": 0.1706359272,
				"y": 1.0538380408,
				"z": -1.264783251,
				"element": "C" 
			},
			{
				"x": -1.5638406935,
				"y": 0.9089097489,
				"z": 0.6064471722,
				"element": "C" 
			},
			{
				"x": -2.3766781636,
				"y": 0.0551379766,
				"z": 1.4180547857,
				"element": "C" 
			},
			{
				"x": -3.0316654498,
				"y": -0.6504824335,
				"z": 2.0717591389,
				"element": "N" 
			},
			{
				"x": -1.6556509572,
				"y": 2.3727936609,
				"z": 0.8308031907,
				"element": "C" 
			},
			{
				"x": -1.0397791818,
				"y": 3.2418471947,
				"z": 0.2334079735,
				"element": "O" 
			},
			{
				"x": -2.5417380175,
				"y": 2.6395832259,
				"z": 1.8117879741,
				"element": "O" 
			},
			{
				"x": -2.7405094135,
				"y": 4.0313911043,
				"z": 2.1532329879,
				"element": "C" 
			},
			{
				"x": -1.7065009796,
				"y": 4.505616994,
				"z": 3.1633615022,
				"element": "C" 
			},
			{
				"x": 0.2497030758,
				"y": -3.8608308333,
				"z": -1.7708258659,
				"element": "H" 
			},
			{
				"x": -1.3959692615,
				"y": -3.4239199569,
				"z": -1.2622899956,
				"element": "H" 
			},
			{
				"x": -0.098021944,
				"y": -3.5302858579,
				"z": -0.0598131196,
				"element": "H" 
			},
			{
				"x": 1.0621557008,
				"y": -1.5782705749,
				"z": -1.1360228077,
				"element": "H" 
			},
			{
				"x": -0.2393496361,
				"y": -1.4715659714,
				"z": -2.3415911786,
				"element": "H" 
			},
			{
				"x": 0.103091356,
				"y": 2.124895088,
				"z": -1.0932389803,
				"element": "H" 
			},
			{
				"x": -0.0951800975,
				"y": 0.8340738258,
				"z": -2.3051817102,
				"element": "H" 
			},
			{
				"x": 1.2051918315,
				"y": 0.7239141227,
				"z": -1.1163472068,
				"element": "H" 
			},
			{
				"x": -2.7043390496,
				"y": 4.628667913,
				"z": 1.2391824028,
				"element": "H" 
			},
			{
				"x": -3.7500320984,
				"y": 4.0616347055,
				"z": 2.5691654289,
				"element": "H" 
			},
			{
				"x": -0.7050063966,
				"y": 4.4865530838,
				"z": 2.7266187353,
				"element": "H" 
			},
			{
				"x": -1.9294604012,
				"y": 5.5340698118,
				"z": 3.4666180282,
				"element": "H" 
			},
			{
				"x": -1.7174761713,
				"y": 3.8734410593,
				"z": 4.0558572221,
				"element": "H" 
			}
		],
		 "valence_orbital": [ 
			{
				"type": "occ",
				"energy": -0.33171,
				"method": "rhf"
			},
			{
				"type": "occ",
				"energy": -0.31554,
				"method": "rhf"
			},
			{
				"type": "occ",
				"energy": -0.29801,
				"method": "rhf"
			},
			{
				"type": "occ",
				"energy": -0.27213,
				"method": "rhf"
			},
			{
				"type": "occ",
				"energy": -0.2404,
				"method": "rhf"
			},
			{
				"type": "unocc",
				"energy": -0.04898,
				"method": "rhf"
			},
			{
				"type": "unocc",
				"energy": 0.03336,
				"method": "rhf"
			},
			{
				"type": "unocc",
				"energy": 0.04923,
				"method": "rhf"
			},
			{
				"type": "unocc",
				"energy": 0.06859,
				"method": "rhf"
			},
			{
				"type": "unocc",
				"energy": 0.10084,
				"method": "rhf"
			}
		],
		"cosmo_sigma_profile": { 
			"-0.025": 0.0,
			"-0.024": 0.0,
			"-0.023": 0.0,
			"-0.022": 0.0,
			"-0.021": 0.0,
			"-0.02": 0.0,
			"-0.019": 0.0,
			"-0.018": 0.0,
			"-0.017": 0.0,
			"-0.016": 0.0,
			"-0.015": 0.0,
			"-0.014": 0.0,
			"-0.013": 0.0,
			"-0.012": 0.0,
			"-0.011": 0.0,
			"-0.01": 0.00975061277547,
			"-0.009": 1.39509296969,
			"-0.008": 5.45789625189,
			"-0.007": 7.05376846939,
			"-0.006": 10.5623153952,
			"-0.005": 17.5398294311,
			"-0.004": 24.6780189057,
			"-0.003": 25.1577472344,
			"-0.002": 26.4893991283,
			"-0.001": 25.135286518,
			"0.0": 21.7632553201,
			"0.001": 10.2895516647,
			"0.002": 5.98531923067,
			"0.003": 5.95221921079,
			"0.004": 4.82265273956,
			"0.005": 5.52142749173,
			"0.006": 5.6703291511,
			"0.007": 4.95082699028,
			"0.008": 7.79093418519,
			"0.009": 8.02533897015,
			"0.01": 6.09798787203,
			"0.011": 5.69665711013,
			"0.012": 3.84601340891,
			"0.013": 2.4611270249,
			"0.014": 1.27349541974,
			"0.015": 0.0152252496443,
			"0.016": 0.0,
			"0.017": 0.0,
			"0.018": 0.0,
			"0.019": 0.0,
			"0.02": 0.0,
			"0.021": 0.0,
			"0.022": 0.0,
			"0.023": 0.0,
			"0.024": 0.0,
			"0.025": 0.0
		}
	}
}
