{
	 "smiles": "NC1=CC=C(C=C1)S(=O)(=O)NC1=CN=CC=C1", 
	 "Tm": 530.15, 
	 "num_atms": 28, 
	 "gaussian": { 
		 "optdone": 1, 
		 "sigma_profile": "yes", 
		 "theory": "DFT", 
		 "functional": "B3LYP", 
		 "basiset": "6-31G**", 
		 "properties": { 
			 "R2extent": 4551.9195, 
			 "electric_dipole_moment_norm": 8.61654976542, 
			 "electric_quadrupole_moment_norm": 14.0392092188, 
			 "total_energy": -1138.61574445, 
			 "HOMO_LUMO_gap": 0.19045, 
			 "cosmo_polarized_energy": -24.23, 
			 "cosmo_cavitation_energy": 33.91, 
			 "cosmo_dispersion_energy": -24.3, 
			 "cosmo_repulsion_energy": 1.85, 
			 "cosmo_total_nonelectrostatic_energy": 11.46, 
			 "SMD_solvation_energy": 3.46 
		},
		"coords": [
			{
				"x": -4.3902810886,
				"y": -0.7965137151,
				"z": -0.8514060107,
				"element": "N" 
			},
			{
				"x": -3.1236454172,
				"y": -0.8641585432,
				"z": -0.3042814454,
				"element": "C" 
			},
			{
				"x": -2.5135824937,
				"y": 0.2853743257,
				"z": 0.2378872216,
				"element": "C" 
			},
			{
				"x": -1.2627827767,
				"y": 0.2091244864,
				"z": 0.8342855598,
				"element": "C" 
			},
			{
				"x": -0.5959620907,
				"y": -1.0200109593,
				"z": 0.8957090029,
				"element": "C" 
			},
			{
				"x": -1.1888958425,
				"y": -2.1728771013,
				"z": 0.3680736954,
				"element": "C" 
			},
			{
				"x": -2.4407220753,
				"y": -2.0958167888,
				"z": -0.2251741066,
				"element": "C" 
			},
			{
				"x": 1.0249147428,
				"y": -1.1186860119,
				"z": 1.6241142952,
				"element": "S" 
			},
			{
				"x": 1.2808401863,
				"y": -2.5088586625,
				"z": 2.0041045174,
				"element": "O" 
			},
			{
				"x": 1.1660770397,
				"y": -0.0038390786,
				"z": 2.5595567497,
				"element": "O" 
			},
			{
				"x": 2.1569017853,
				"y": -0.8506228124,
				"z": 0.3679400863,
				"element": "N" 
			},
			{
				"x": 2.1813860193,
				"y": 0.3211345966,
				"z": -0.4252263368,
				"element": "C" 
			},
			{
				"x": 2.2603636325,
				"y": 1.5998645719,
				"z": 0.1560197319,
				"element": "C" 
			},
			{
				"x": 2.3134636396,
				"y": 2.7249465677,
				"z": -0.5618469498,
				"element": "N" 
			},
			{
				"x": 2.3232783657,
				"y": 2.6248183676,
				"z": -1.8969297762,
				"element": "C" 
			},
			{
				"x": 2.2722851037,
				"y": 1.4041263825,
				"z": -2.5700456172,
				"element": "C" 
			},
			{
				"x": 2.1858344028,
				"y": 0.2334593958,
				"z": -1.8219875341,
				"element": "C" 
			},
			{
				"x": -4.6729265872,
				"y": -1.5485590796,
				"z": -1.4615112837,
				"element": "H" 
			},
			{
				"x": -4.723522155,
				"y": 0.1118371356,
				"z": -1.1371385572,
				"element": "H" 
			},
			{
				"x": -3.0356855376,
				"y": 1.2375693323,
				"z": 0.1991609524,
				"element": "H" 
			},
			{
				"x": -0.8076954279,
				"y": 1.0923481368,
				"z": 1.2680470828,
				"element": "H" 
			},
			{
				"x": -0.6758893235,
				"y": -3.1256400746,
				"z": 0.4463534849,
				"element": "H" 
			},
			{
				"x": -2.9084460265,
				"y": -2.9936616936,
				"z": -0.6203198952,
				"element": "H" 
			},
			{
				"x": 2.2924613138,
				"y": -1.7171747292,
				"z": -0.1433418007,
				"element": "H" 
			},
			{
				"x": 2.2769879239,
				"y": 1.6978527405,
				"z": 1.2371283688,
				"element": "H" 
			},
			{
				"x": 2.3818665685,
				"y": 3.5598194884,
				"z": -2.4505630264,
				"element": "H" 
			},
			{
				"x": 2.288239612,
				"y": 1.3704489042,
				"z": -3.6550011744,
				"element": "H" 
			},
			{
				"x": 2.1270365064,
				"y": -0.736805182,
				"z": -2.3095072347,
				"element": "H" 
			}
		],
		 "valence_orbital": [ 
			{
				"type": "occ",
				"energy": -0.28526,
				"method": "rhf"
			},
			{
				"type": "occ",
				"energy": -0.27201,
				"method": "rhf"
			},
			{
				"type": "occ",
				"energy": -0.2551,
				"method": "rhf"
			},
			{
				"type": "occ",
				"energy": -0.24161,
				"method": "rhf"
			},
			{
				"type": "occ",
				"energy": -0.22389,
				"method": "rhf"
			},
			{
				"type": "unocc",
				"energy": -0.03344,
				"method": "rhf"
			},
			{
				"type": "unocc",
				"energy": -0.02686,
				"method": "rhf"
			},
			{
				"type": "unocc",
				"energy": -0.01948,
				"method": "rhf"
			},
			{
				"type": "unocc",
				"energy": -0.01095,
				"method": "rhf"
			},
			{
				"type": "unocc",
				"energy": 0.05558,
				"method": "rhf"
			}
		],
		"cosmo_sigma_profile": { 
			"-0.025": 0.0,
			"-0.024": 0.0,
			"-0.023": 0.0,
			"-0.022": 0.0,
			"-0.021": 0.0,
			"-0.02": 0.0,
			"-0.019": 0.0,
			"-0.018": 0.0,
			"-0.017": 0.0,
			"-0.016": 0.278933890129,
			"-0.015": 1.23863673724,
			"-0.014": 1.87196467066,
			"-0.013": 4.56311786144,
			"-0.012": 3.49629333405,
			"-0.011": 4.39177457205,
			"-0.01": 5.12639203748,
			"-0.009": 4.33338090003,
			"-0.008": 6.31905899017,
			"-0.007": 10.3321020438,
			"-0.006": 13.7938936715,
			"-0.005": 16.9547634503,
			"-0.004": 11.5878576674,
			"-0.003": 12.0998095736,
			"-0.002": 12.9794579947,
			"-0.001": 11.4701108599,
			"0.0": 13.9781633807,
			"0.001": 18.2169020447,
			"0.002": 23.663545118,
			"0.003": 20.7823993999,
			"0.004": 17.8371339392,
			"0.005": 7.65768027407,
			"0.006": 4.84579212169,
			"0.007": 6.86970079937,
			"0.008": 6.50346430185,
			"0.009": 5.55406081563,
			"0.01": 8.24996363471,
			"0.011": 9.53384609016,
			"0.012": 3.20376252106,
			"0.013": 0.661534265242,
			"0.014": 1.04332132896,
			"0.015": 1.01188096662,
			"0.016": 0.673739720342,
			"0.017": 0.252486066203,
			"0.018": 0.0,
			"0.019": 0.0,
			"0.02": 0.0,
			"0.021": 0.0,
			"0.022": 0.0,
			"0.023": 0.0,
			"0.024": 0.0,
			"0.025": 0.0
		}
	}
}
