{
	 "smiles": "OC(=O)C1=CC(=CC(Br)=C1)S(Cl)(=O)=O", 
	 "Tm": 428.15, 
	 "num_atms": 18, 
	 "gaussian": { 
		 "optdone": 1, 
		 "sigma_profile": "yes", 
		 "theory": "DFT", 
		 "functional": "B3LYP", 
		 "basiset": "6-31G**", 
		 "properties": { 
			 "R2extent": 6551.2354, 
			 "electric_dipole_moment_norm": 5.14538392056, 
			 "electric_quadrupole_moment_norm": 6.11499256255, 
			 "total_energy": -3999.77749485, 
			 "HOMO_LUMO_gap": 0.17866, 
			 "cosmo_polarized_energy": -13.05, 
			 "cosmo_cavitation_energy": 29.78, 
			 "cosmo_dispersion_energy": -22.36, 
			 "cosmo_repulsion_energy": 1.74, 
			 "cosmo_total_nonelectrostatic_energy": 9.16, 
			 "SMD_solvation_energy": 3.95 
		},
		"coords": [
			{
				"x": 1.9440740765,
				"y": -2.0325154735,
				"z": 0.2021887625,
				"element": "O" 
			},
			{
				"x": 1.4868730962,
				"y": -0.8239846703,
				"z": 0.5979057104,
				"element": "C" 
			},
			{
				"x": 2.1103243983,
				"y": -0.0854932797,
				"z": 1.3293459729,
				"element": "O" 
			},
			{
				"x": 0.1397200887,
				"y": -0.5054201279,
				"z": 0.0359815209,
				"element": "C" 
			},
			{
				"x": -0.4314557505,
				"y": 0.7238101678,
				"z": 0.3812403826,
				"element": "C" 
			},
			{
				"x": -1.6860114642,
				"y": 1.0305898534,
				"z": -0.1328296953,
				"element": "C" 
			},
			{
				"x": -2.394674212,
				"y": 0.1653001049,
				"z": -0.9681062975,
				"element": "C" 
			},
			{
				"x": -1.8011058046,
				"y": -1.0523168106,
				"z": -1.2949316547,
				"element": "C" 
			},
			{
				"x": -2.7300337935,
				"y": -2.2677103817,
				"z": -2.4265018132,
				"element": "Br" 
			},
			{
				"x": -0.5419081165,
				"y": -1.3955013246,
				"z": -0.803138846,
				"element": "C" 
			},
			{
				"x": -2.447691117,
				"y": 2.5920893713,
				"z": 0.3132183541,
				"element": "S" 
			},
			{
				"x": -1.7117023319,
				"y": 3.8568356168,
				"z": -1.2301675207,
				"element": "Cl" 
			},
			{
				"x": -1.86049815,
				"y": 3.0711094896,
				"z": 1.5563671291,
				"element": "O" 
			},
			{
				"x": -3.8868873735,
				"y": 2.4903600163,
				"z": 0.1111156287,
				"element": "O" 
			},
			{
				"x": 2.8164137996,
				"y": -2.1450309189,
				"z": 0.615087394,
				"element": "H" 
			},
			{
				"x": 0.0999339955,
				"y": 1.4023785515,
				"z": 1.0383420575,
				"element": "H" 
			},
			{
				"x": -3.3766201594,
				"y": 0.4330871877,
				"z": -1.338690671,
				"element": "H" 
			},
			{
				"x": -0.0922511819,
				"y": -2.3448873719,
				"z": -1.0645264143,
				"element": "H" 
			}
		],
		 "valence_orbital": [ 
			{
				"type": "occ",
				"energy": -0.32255,
				"method": "rhf"
			},
			{
				"type": "occ",
				"energy": -0.31711,
				"method": "rhf"
			},
			{
				"type": "occ",
				"energy": -0.30913,
				"method": "rhf"
			},
			{
				"type": "occ",
				"energy": -0.30578,
				"method": "rhf"
			},
			{
				"type": "occ",
				"energy": -0.28134,
				"method": "rhf"
			},
			{
				"type": "unocc",
				"energy": -0.10268,
				"method": "rhf"
			},
			{
				"type": "unocc",
				"energy": -0.08556,
				"method": "rhf"
			},
			{
				"type": "unocc",
				"energy": -0.05982,
				"method": "rhf"
			},
			{
				"type": "unocc",
				"energy": -0.02306,
				"method": "rhf"
			},
			{
				"type": "unocc",
				"energy": 0.00898,
				"method": "rhf"
			}
		],
		"cosmo_sigma_profile": { 
			"-0.025": 0.0,
			"-0.024": 0.0,
			"-0.023": 0.0,
			"-0.022": 0.0,
			"-0.021": 0.0,
			"-0.02": 0.011617384817,
			"-0.019": 0.77796794203,
			"-0.018": 1.17529931744,
			"-0.017": 0.458781299547,
			"-0.016": 1.14941048582,
			"-0.015": 0.658826387147,
			"-0.014": 0.610687992197,
			"-0.013": 0.482148151347,
			"-0.012": 0.807030006295,
			"-0.011": 1.06934247828,
			"-0.01": 0.438840284545,
			"-0.009": 1.91194682787,
			"-0.008": 4.89663870845,
			"-0.007": 5.29513009722,
			"-0.006": 7.42418502275,
			"-0.005": 9.72031022408,
			"-0.004": 13.7225907056,
			"-0.003": 20.7814462794,
			"-0.002": 29.6207988314,
			"-0.001": 18.0966158856,
			"0.0": 13.8519596525,
			"0.001": 16.2993463111,
			"0.002": 18.8171852709,
			"0.003": 26.6540837856,
			"0.004": 9.42159732977,
			"0.005": 5.92272886213,
			"0.006": 5.6337182679,
			"0.007": 9.41996448203,
			"0.008": 9.65419011822,
			"0.009": 3.91064367154,
			"0.01": 3.24486832362,
			"0.011": 3.80018744693,
			"0.012": 0.213025950012,
			"0.013": 0.0,
			"0.014": 0.0,
			"0.015": 0.0,
			"0.016": 0.0,
			"0.017": 0.0,
			"0.018": 0.0,
			"0.019": 0.0,
			"0.02": 0.0,
			"0.021": 0.0,
			"0.022": 0.0,
			"0.023": 0.0,
			"0.024": 0.0,
			"0.025": 0.0
		}
	}
}
