{
	 "smiles": "OC(=O)C1=C(NC(=O)C2=CN=CC=C2)SC2=C1CCCC2", 
	 "Tm": 513.15, 
	 "num_atms": 35, 
	 "gaussian": { 
		 "optdone": 1, 
		 "sigma_profile": "yes", 
		 "theory": "DFT", 
		 "functional": "B3LYP", 
		 "basiset": "6-31G**", 
		 "properties": { 
			 "R2extent": 7903.8962, 
			 "electric_dipole_moment_norm": 5.94993233155, 
			 "electric_quadrupole_moment_norm": 20.9133957664, 
			 "total_energy": -1313.42323716, 
			 "HOMO_LUMO_gap": 0.14802, 
			 "cosmo_polarized_energy": -15.85, 
			 "cosmo_cavitation_energy": 39.51, 
			 "cosmo_dispersion_energy": -28.83, 
			 "cosmo_repulsion_energy": 2.18, 
			 "cosmo_total_nonelectrostatic_energy": 12.85, 
			 "SMD_solvation_energy": 5.79 
		},
		"coords": [
			{
				"x": 2.7468130065,
				"y": 2.8021903194,
				"z": 1.0975781898,
				"element": "O" 
			},
			{
				"x": 2.5568531864,
				"y": 1.4981288312,
				"z": 1.4101159501,
				"element": "C" 
			},
			{
				"x": 3.12533003,
				"y": 1.0083156821,
				"z": 2.3844549038,
				"element": "O" 
			},
			{
				"x": 1.6513908124,
				"y": 0.7816770756,
				"z": 0.5149827647,
				"element": "C" 
			},
			{
				"x": 1.2768054154,
				"y": -0.5321743454,
				"z": 0.8080621695,
				"element": "C" 
			},
			{
				"x": 1.7408171129,
				"y": -1.244610914,
				"z": 1.8946495417,
				"element": "N" 
			},
			{
				"x": 1.53894152,
				"y": -2.5561805155,
				"z": 2.3230063832,
				"element": "C" 
			},
			{
				"x": 2.3962290337,
				"y": -3.101255975,
				"z": 3.0014439943,
				"element": "O" 
			},
			{
				"x": 0.2480993745,
				"y": -3.2453105994,
				"z": 2.0151326839,
				"element": "C" 
			},
			{
				"x": 0.2765111367,
				"y": -4.610323469,
				"z": 1.6899407406,
				"element": "C" 
			},
			{
				"x": -0.8171030215,
				"y": -5.3484707602,
				"z": 1.4879753958,
				"element": "N" 
			},
			{
				"x": -2.0032486897,
				"y": -4.7429760153,
				"z": 1.6419880953,
				"element": "C" 
			},
			{
				"x": -2.1480719084,
				"y": -3.4002968035,
				"z": 1.9941078429,
				"element": "C" 
			},
			{
				"x": -1.0000992535,
				"y": -2.6336795249,
				"z": 2.1783397499,
				"element": "C" 
			},
			{
				"x": 0.2303902173,
				"y": -1.1792014443,
				"z": -0.4287351094,
				"element": "S" 
			},
			{
				"x": 0.2899471451,
				"y": 0.3266119221,
				"z": -1.3347576865,
				"element": "C" 
			},
			{
				"x": 1.0742929535,
				"y": 1.2620635462,
				"z": -0.72860611,
				"element": "C" 
			},
			{
				"x": 1.2697333905,
				"y": 2.6300371099,
				"z": -1.3464226457,
				"element": "C" 
			},
			{
				"x": 0.7768252544,
				"y": 2.6774942357,
				"z": -2.8029440927,
				"element": "C" 
			},
			{
				"x": -0.582720957,
				"y": 1.9875704313,
				"z": -2.9714887909,
				"element": "C" 
			},
			{
				"x": -0.4826283283,
				"y": 0.4942495273,
				"z": -2.6146044538,
				"element": "C" 
			},
			{
				"x": 3.3700192953,
				"y": 3.1373608686,
				"z": 1.7639156039,
				"element": "H" 
			},
			{
				"x": 2.5225398752,
				"y": -0.7689524966,
				"z": 2.3567945675,
				"element": "H" 
			},
			{
				"x": 1.2355634192,
				"y": -5.1134333768,
				"z": 1.5910716258,
				"element": "H" 
			},
			{
				"x": -2.8815666985,
				"y": -5.3662882933,
				"z": 1.483659087,
				"element": "H" 
			},
			{
				"x": -3.1357978814,
				"y": -2.969688082,
				"z": 2.1231546418,
				"element": "H" 
			},
			{
				"x": -1.0685027228,
				"y": -1.5874056435,
				"z": 2.4597105751,
				"element": "H" 
			},
			{
				"x": 2.3241397658,
				"y": 2.9149464337,
				"z": -1.2976669541,
				"element": "H" 
			},
			{
				"x": 0.7388047715,
				"y": 3.3781628142,
				"z": -0.7423166435,
				"element": "H" 
			},
			{
				"x": 1.5113224653,
				"y": 2.1815375044,
				"z": -3.4514584224,
				"element": "H" 
			},
			{
				"x": 0.7203888228,
				"y": 3.7203595709,
				"z": -3.1336908379,
				"element": "H" 
			},
			{
				"x": -0.9481705099,
				"y": 2.0969564801,
				"z": -3.9983822864,
				"element": "H" 
			},
			{
				"x": -1.3203345827,
				"y": 2.4686943114,
				"z": -2.3162505854,
				"element": "H" 
			},
			{
				"x": 0.0145888617,
				"y": -0.0505105228,
				"z": -3.4303725953,
				"element": "H" 
			},
			{
				"x": -1.4845023125,
				"y": 0.0569021174,
				"z": -2.5223872928,
				"element": "H" 
			}
		],
		 "valence_orbital": [ 
			{
				"type": "occ",
				"energy": -0.2828,
				"method": "rhf"
			},
			{
				"type": "occ",
				"energy": -0.26483,
				"method": "rhf"
			},
			{
				"type": "occ",
				"energy": -0.25998,
				"method": "rhf"
			},
			{
				"type": "occ",
				"energy": -0.25686,
				"method": "rhf"
			},
			{
				"type": "occ",
				"energy": -0.21174,
				"method": "rhf"
			},
			{
				"type": "unocc",
				"energy": -0.06372,
				"method": "rhf"
			},
			{
				"type": "unocc",
				"energy": -0.0343,
				"method": "rhf"
			},
			{
				"type": "unocc",
				"energy": -0.03079,
				"method": "rhf"
			},
			{
				"type": "unocc",
				"energy": 0.00606,
				"method": "rhf"
			},
			{
				"type": "unocc",
				"energy": 0.0177,
				"method": "rhf"
			}
		],
		"cosmo_sigma_profile": { 
			"-0.025": 0.0,
			"-0.024": 0.0,
			"-0.023": 0.0,
			"-0.022": 0.0,
			"-0.021": 0.0,
			"-0.02": 0.0,
			"-0.019": 0.0437657127604,
			"-0.018": 0.632595905249,
			"-0.017": 0.892675996267,
			"-0.016": 1.11357520093,
			"-0.015": 0.460789292057,
			"-0.014": 1.19194834866,
			"-0.013": 0.374241669923,
			"-0.012": 0.266202903313,
			"-0.011": 0.652530886623,
			"-0.01": 0.911308047662,
			"-0.009": 0.814300759495,
			"-0.008": 3.09489439782,
			"-0.007": 8.47024136405,
			"-0.006": 10.1792189287,
			"-0.005": 12.511444838,
			"-0.004": 17.4908484085,
			"-0.003": 27.7794522549,
			"-0.002": 35.483508981,
			"-0.001": 38.7463838649,
			"0.0": 34.8428339303,
			"0.001": 29.5580364388,
			"0.002": 19.9442026476,
			"0.003": 15.5827487656,
			"0.004": 9.17809247747,
			"0.005": 5.39331237087,
			"0.006": 5.04510090168,
			"0.007": 5.48908189993,
			"0.008": 3.6632015753,
			"0.009": 4.18269402673,
			"0.01": 4.25188034067,
			"0.011": 6.42003381514,
			"0.012": 7.19943174346,
			"0.013": 1.57489724813,
			"0.014": 0.844095516677,
			"0.015": 0.895307793995,
			"0.016": 0.544388319955,
			"0.017": 0.0,
			"0.018": 0.0,
			"0.019": 0.0,
			"0.02": 0.0,
			"0.021": 0.0,
			"0.022": 0.0,
			"0.023": 0.0,
			"0.024": 0.0,
			"0.025": 0.0
		}
	}
}
