{
	 "smiles": "COC1=C(C)C(C)=C(C(C)=C1)S(Cl)(=O)=O", 
	 "Tm": 331.15, 
	 "num_atms": 28, 
	 "gaussian": { 
		 "optdone": 1, 
		 "sigma_profile": "yes", 
		 "theory": "DFT", 
		 "functional": "B3LYP", 
		 "basiset": "6-31G**", 
		 "properties": { 
			 "R2extent": 5808.8182, 
			 "electric_dipole_moment_norm": 6.82251636055, 
			 "electric_quadrupole_moment_norm": 24.9005692329, 
			 "total_energy": -1472.88331205, 
			 "HOMO_LUMO_gap": 0.16495, 
			 "cosmo_polarized_energy": -10.39, 
			 "cosmo_cavitation_energy": 32.82, 
			 "cosmo_dispersion_energy": -24.38, 
			 "cosmo_repulsion_energy": 1.85, 
			 "cosmo_total_nonelectrostatic_energy": 10.29, 
			 "SMD_solvation_energy": 5.29 
		},
		"coords": [
			{
				"x": 2.666320086,
				"y": -1.2091997963,
				"z": 0.5118353344,
				"element": "C" 
			},
			{
				"x": 1.8588739995,
				"y": -0.0386074963,
				"z": 0.4812115959,
				"element": "O" 
			},
			{
				"x": 0.5176861629,
				"y": -0.16053294,
				"z": 0.3011457154,
				"element": "C" 
			},
			{
				"x": -0.218071637,
				"y": 1.0437488724,
				"z": 0.2847442355,
				"element": "C" 
			},
			{
				"x": 0.5106431185,
				"y": 2.3565292817,
				"z": 0.4704395961,
				"element": "C" 
			},
			{
				"x": -1.606758607,
				"y": 0.9859883763,
				"z": 0.0920047833,
				"element": "C" 
			},
			{
				"x": -2.367162322,
				"y": 2.2928132933,
				"z": -0.0089250842,
				"element": "C" 
			},
			{
				"x": -2.2329829067,
				"y": -0.2868112513,
				"z": -0.0165854816,
				"element": "C" 
			},
			{
				"x": -1.4977885533,
				"y": -1.4930676596,
				"z": -0.0446500676,
				"element": "C" 
			},
			{
				"x": -2.0598199432,
				"y": -2.884091483,
				"z": -0.246003792,
				"element": "C" 
			},
			{
				"x": -0.1148957206,
				"y": -1.390858988,
				"z": 0.1222612957,
				"element": "C" 
			},
			{
				"x": -4.0230893663,
				"y": -0.3536299606,
				"z": -0.0967056419,
				"element": "S" 
			},
			{
				"x": -4.4058685551,
				"y": 0.1183966773,
				"z": -2.1759091278,
				"element": "Cl" 
			},
			{
				"x": -4.6152932467,
				"y": 0.734061224,
				"z": 0.6730507618,
				"element": "O" 
			},
			{
				"x": -4.5133511173,
				"y": -1.7158442365,
				"z": 0.0716114057,
				"element": "O" 
			},
			{
				"x": 2.3722320214,
				"y": -1.8794713847,
				"z": 1.3283236507,
				"element": "H" 
			},
			{
				"x": 2.6224791552,
				"y": -1.7530173037,
				"z": -0.4393172517,
				"element": "H" 
			},
			{
				"x": 3.6859947462,
				"y": -0.8611171991,
				"z": 0.6803997496,
				"element": "H" 
			},
			{
				"x": 0.5713724599,
				"y": 2.9211513659,
				"z": -0.4679831043,
				"element": "H" 
			},
			{
				"x": 1.5292616802,
				"y": 2.1818096717,
				"z": 0.8142643398,
				"element": "H" 
			},
			{
				"x": 0.0069833015,
				"y": 2.9936096928,
				"z": 1.2028827006,
				"element": "H" 
			},
			{
				"x": -1.7010042114,
				"y": 3.0918405251,
				"z": -0.3336689777,
				"element": "H" 
			},
			{
				"x": -2.7982900765,
				"y": 2.5773173053,
				"z": 0.9561223645,
				"element": "H" 
			},
			{
				"x": -3.1919424617,
				"y": 2.2403999021,
				"z": -0.7183565822,
				"element": "H" 
			},
			{
				"x": -1.2350758582,
				"y": -3.5923272739,
				"z": -0.3553757432,
				"element": "H" 
			},
			{
				"x": -2.6787714435,
				"y": -3.1984354693,
				"z": 0.5972596807,
				"element": "H" 
			},
			{
				"x": -2.6915546534,
				"y": -2.9492183451,
				"z": -1.1342698892,
				"element": "H" 
			},
			{
				"x": 0.4652739485,
				"y": -2.3046354006,
				"z": 0.1094935338,
				"element": "H" 
			}
		],
		 "valence_orbital": [ 
			{
				"type": "occ",
				"energy": -0.31847,
				"method": "rhf"
			},
			{
				"type": "occ",
				"energy": -0.31476,
				"method": "rhf"
			},
			{
				"type": "occ",
				"energy": -0.30151,
				"method": "rhf"
			},
			{
				"type": "occ",
				"energy": -0.2588,
				"method": "rhf"
			},
			{
				"type": "occ",
				"energy": -0.2438,
				"method": "rhf"
			},
			{
				"type": "unocc",
				"energy": -0.07885,
				"method": "rhf"
			},
			{
				"type": "unocc",
				"energy": -0.02938,
				"method": "rhf"
			},
			{
				"type": "unocc",
				"energy": -0.02175,
				"method": "rhf"
			},
			{
				"type": "unocc",
				"energy": 0.06554,
				"method": "rhf"
			},
			{
				"type": "unocc",
				"energy": 0.07757,
				"method": "rhf"
			}
		],
		"cosmo_sigma_profile": { 
			"-0.025": 0.0,
			"-0.024": 0.0,
			"-0.023": 0.0,
			"-0.022": 0.0,
			"-0.021": 0.0,
			"-0.02": 0.0,
			"-0.019": 0.0,
			"-0.018": 0.0,
			"-0.017": 0.0,
			"-0.016": 0.0,
			"-0.015": 0.0,
			"-0.014": 0.0,
			"-0.013": 0.0,
			"-0.012": 0.0,
			"-0.011": 0.0,
			"-0.01": 0.0,
			"-0.009": 0.0,
			"-0.008": 0.462052173437,
			"-0.007": 4.50739098165,
			"-0.006": 10.9866810779,
			"-0.005": 16.0508822592,
			"-0.004": 23.3349873667,
			"-0.003": 25.7486327724,
			"-0.002": 18.994861649,
			"-0.001": 27.4166127257,
			"0.0": 27.4182493326,
			"0.001": 20.8630100643,
			"0.002": 20.9603765012,
			"0.003": 14.9567930928,
			"0.004": 14.7835021891,
			"0.005": 10.9483568735,
			"0.006": 5.54199472802,
			"0.007": 4.92377878197,
			"0.008": 6.15796763576,
			"0.009": 7.18446156292,
			"0.01": 1.25770499796,
			"0.011": 0.0,
			"0.012": 0.0,
			"0.013": 0.0,
			"0.014": 0.0,
			"0.015": 0.0,
			"0.016": 0.0,
			"0.017": 0.0,
			"0.018": 0.0,
			"0.019": 0.0,
			"0.02": 0.0,
			"0.021": 0.0,
			"0.022": 0.0,
			"0.023": 0.0,
			"0.024": 0.0,
			"0.025": 0.0
		}
	}
}
