{
	 "smiles": "NCCO", 
	 "Tm": 283.65, 
	 "num_atms": 11, 
	 "gaussian": { 
		 "optdone": 1, 
		 "sigma_profile": "yes", 
		 "theory": "DFT", 
		 "functional": "B3LYP", 
		 "basiset": "6-31G**", 
		 "properties": { 
			 "R2extent": 649.0388, 
			 "electric_dipole_moment_norm": 1.39155812671, 
			 "electric_quadrupole_moment_norm": 8.71740267281, 
			 "total_energy": -210.387651743, 
			 "HOMO_LUMO_gap": 0.3044, 
			 "cosmo_polarized_energy": -9.97, 
			 "cosmo_cavitation_energy": 13.83, 
			 "cosmo_dispersion_energy": -10.48, 
			 "cosmo_repulsion_energy": 0.99, 
			 "cosmo_total_nonelectrostatic_energy": 4.34, 
			 "SMD_solvation_energy": 1.26 
		},
		"coords": [
			{
				"x": 0.2795669274,
				"y": 2.3202439113,
				"z": -1.0262065951,
				"element": "N" 
			},
			{
				"x": 0.5038937875,
				"y": 0.9666520692,
				"z": -0.5197880448,
				"element": "C" 
			},
			{
				"x": 1.9510879112,
				"y": 0.4612315153,
				"z": -0.6053308975,
				"element": "C" 
			},
			{
				"x": 2.1197842586,
				"y": -0.8374050921,
				"z": -0.0556686956,
				"element": "O" 
			},
			{
				"x": 0.8393117753,
				"y": 2.9868007155,
				"z": -0.4990598115,
				"element": "H" 
			},
			{
				"x": 0.5877484123,
				"y": 2.3895635122,
				"z": -1.9937744397,
				"element": "H" 
			},
			{
				"x": -0.1498071893,
				"y": 0.2806250815,
				"z": -1.0774023022,
				"element": "H" 
			},
			{
				"x": 0.1777923146,
				"y": 0.9224940361,
				"z": 0.5255255357,
				"element": "H" 
			},
			{
				"x": 2.6068952215,
				"y": 1.1200611568,
				"z": -0.0238404042,
				"element": "H" 
			},
			{
				"x": 2.2965689926,
				"y": 0.5080094042,
				"z": -1.6533448279,
				"element": "H" 
			},
			{
				"x": 1.5795575882,
				"y": -1.44877631,
				"z": -0.5730095173,
				"element": "H" 
			}
		],
		 "valence_orbital": [ 
			{
				"type": "occ",
				"energy": -0.38627,
				"method": "rhf"
			},
			{
				"type": "occ",
				"energy": -0.36187,
				"method": "rhf"
			},
			{
				"type": "occ",
				"energy": -0.33067,
				"method": "rhf"
			},
			{
				"type": "occ",
				"energy": -0.2799,
				"method": "rhf"
			},
			{
				"type": "occ",
				"energy": -0.23115,
				"method": "rhf"
			},
			{
				"type": "unocc",
				"energy": 0.07325,
				"method": "rhf"
			},
			{
				"type": "unocc",
				"energy": 0.07768,
				"method": "rhf"
			},
			{
				"type": "unocc",
				"energy": 0.12772,
				"method": "rhf"
			},
			{
				"type": "unocc",
				"energy": 0.14464,
				"method": "rhf"
			},
			{
				"type": "unocc",
				"energy": 0.15758,
				"method": "rhf"
			}
		],
		"cosmo_sigma_profile": { 
			"-0.025": 0.0,
			"-0.024": 0.0,
			"-0.023": 0.0,
			"-0.022": 0.0,
			"-0.021": 0.0,
			"-0.02": 0.0,
			"-0.019": 0.0,
			"-0.018": 0.0,
			"-0.017": 0.0,
			"-0.016": 0.0332716102153,
			"-0.015": 0.955691846612,
			"-0.014": 0.837362046683,
			"-0.013": 0.914996300786,
			"-0.012": 1.24039387761,
			"-0.011": 1.05200437791,
			"-0.01": 1.13628736985,
			"-0.009": 3.35570716661,
			"-0.008": 3.9054690573,
			"-0.007": 4.29998771972,
			"-0.006": 5.75542536488,
			"-0.005": 5.33407900299,
			"-0.004": 7.44357584978,
			"-0.003": 11.3868938322,
			"-0.002": 8.43063583534,
			"-0.001": 6.92932067472,
			"0.0": 5.26194459493,
			"0.001": 3.47777053387,
			"0.002": 3.22344721222,
			"0.003": 2.86756925777,
			"0.004": 2.46557977187,
			"0.005": 2.83308275802,
			"0.006": 1.17949044887,
			"0.007": 1.16343930883,
			"0.008": 1.5533263931,
			"0.009": 2.60652427043,
			"0.01": 2.79917493317,
			"0.011": 1.62540399402,
			"0.012": 2.31006699313,
			"0.013": 1.45643362922,
			"0.014": 3.55685361131,
			"0.015": 1.57963345214,
			"0.016": 0.892426272798,
			"0.017": 0.797674936101,
			"0.018": 0.371074293373,
			"0.019": 0.826858976628,
			"0.02": 0.287475645977,
			"0.021": 0.0,
			"0.022": 0.0,
			"0.023": 0.0,
			"0.024": 0.0,
			"0.025": 0.0
		}
	}
}
