{
	 "smiles": "ClC1=CC=C(C=O)C=C1Cl", 
	 "Tm": 316.65, 
	 "num_atms": 14, 
	 "gaussian": { 
		 "optdone": 1, 
		 "sigma_profile": "yes", 
		 "theory": "DFT", 
		 "functional": "B3LYP", 
		 "basiset": "6-31G**", 
		 "properties": { 
			 "R2extent": 2376.8672, 
			 "electric_dipole_moment_norm": 0.604681114307, 
			 "electric_quadrupole_moment_norm": 14.1741928652, 
			 "total_energy": -1264.7507067, 
			 "HOMO_LUMO_gap": 0.18343, 
			 "cosmo_polarized_energy": -7.28, 
			 "cosmo_cavitation_energy": 22.59, 
			 "cosmo_dispersion_energy": -16.81, 
			 "cosmo_repulsion_energy": 1.35, 
			 "cosmo_total_nonelectrostatic_energy": 7.14, 
			 "SMD_solvation_energy": 4.47 
		},
		"coords": [
			{
				"x": -1.5664274698,
				"y": 0.7176217736,
				"z": 2.9483509924,
				"element": "Cl" 
			},
			{
				"x": -1.1828420651,
				"y": 0.5758715384,
				"z": 1.2557771713,
				"element": "C" 
			},
			{
				"x": -2.0738197136,
				"y": 1.1146643452,
				"z": 0.3175152364,
				"element": "C" 
			},
			{
				"x": -1.800432549,
				"y": 1.0200784298,
				"z": -1.0391300065,
				"element": "C" 
			},
			{
				"x": -0.6292307159,
				"y": 0.3836159192,
				"z": -1.4742242756,
				"element": "C" 
			},
			{
				"x": -0.3271292431,
				"y": 0.2768438043,
				"z": -2.9219191472,
				"element": "C" 
			},
			{
				"x": -1.0419792156,
				"y": 0.7145361875,
				"z": -3.8016033449,
				"element": "O" 
			},
			{
				"x": 0.2600991791,
				"y": -0.154058077,
				"z": -0.5399567265,
				"element": "C" 
			},
			{
				"x": -0.009303911,
				"y": -0.0620817959,
				"z": 0.825074773,
				"element": "C" 
			},
			{
				"x": 1.1269721792,
				"y": -0.7464787484,
				"z": 1.9587799932,
				"element": "Cl" 
			},
			{
				"x": -2.9743745412,
				"y": 1.6031711979,
				"z": 0.6726889455,
				"element": "H" 
			},
			{
				"x": -2.4783485828,
				"y": 1.4311272518,
				"z": -1.779694954,
				"element": "H" 
			},
			{
				"x": 0.6250437048,
				"y": -0.2455385805,
				"z": -3.1612747055,
				"element": "H" 
			},
			{
				"x": 1.1692729441,
				"y": -0.6484732458,
				"z": -0.8690839517,
				"element": "H" 
			}
		],
		 "valence_orbital": [ 
			{
				"type": "occ",
				"energy": -0.34207,
				"method": "rhf"
			},
			{
				"type": "occ",
				"energy": -0.3225,
				"method": "rhf"
			},
			{
				"type": "occ",
				"energy": -0.28069,
				"method": "rhf"
			},
			{
				"type": "occ",
				"energy": -0.27037,
				"method": "rhf"
			},
			{
				"type": "occ",
				"energy": -0.26529,
				"method": "rhf"
			},
			{
				"type": "unocc",
				"energy": -0.08186,
				"method": "rhf"
			},
			{
				"type": "unocc",
				"energy": -0.039,
				"method": "rhf"
			},
			{
				"type": "unocc",
				"energy": -0.0092,
				"method": "rhf"
			},
			{
				"type": "unocc",
				"energy": 0.01632,
				"method": "rhf"
			},
			{
				"type": "unocc",
				"energy": 0.04941,
				"method": "rhf"
			}
		],
		"cosmo_sigma_profile": { 
			"-0.025": 0.0,
			"-0.024": 0.0,
			"-0.023": 0.0,
			"-0.022": 0.0,
			"-0.021": 0.0,
			"-0.02": 0.0,
			"-0.019": 0.0,
			"-0.018": 0.0,
			"-0.017": 0.0,
			"-0.016": 0.0,
			"-0.015": 0.0,
			"-0.014": 0.0,
			"-0.013": 0.0,
			"-0.012": 0.0,
			"-0.011": 0.0,
			"-0.01": 0.510976461713,
			"-0.009": 3.56614499293,
			"-0.008": 5.19471177191,
			"-0.007": 7.84390714437,
			"-0.006": 7.29479292879,
			"-0.005": 7.234817266,
			"-0.004": 7.72321904114,
			"-0.003": 9.07579574766,
			"-0.002": 12.1772018884,
			"-0.001": 21.1373127203,
			"0.0": 24.6044861933,
			"0.001": 17.3323953552,
			"0.002": 13.3941270221,
			"0.003": 17.2406220378,
			"0.004": 12.8422836932,
			"0.005": 3.88584971272,
			"0.006": 1.12451335719,
			"0.007": 1.27023172501,
			"0.008": 2.1475000641,
			"0.009": 2.27424602932,
			"0.01": 2.7969347447,
			"0.011": 4.27055539168,
			"0.012": 1.57723616941,
			"0.013": 0.191467827059,
			"0.014": 0.0,
			"0.015": 0.0,
			"0.016": 0.0,
			"0.017": 0.0,
			"0.018": 0.0,
			"0.019": 0.0,
			"0.02": 0.0,
			"0.021": 0.0,
			"0.022": 0.0,
			"0.023": 0.0,
			"0.024": 0.0,
			"0.025": 0.0
		}
	}
}
