{
	 "smiles": "CC(C)C1=CC(C(C)C)=C(C(Cl)=O)C(=C1)C(C)C", 
	 "Tm": 353.15, 
	 "num_atms": 41, 
	 "gaussian": { 
		 "optdone": 1, 
		 "sigma_profile": "yes", 
		 "theory": "DFT", 
		 "functional": "B3LYP", 
		 "basiset": "6-31G**", 
		 "properties": { 
			 "R2extent": 5911.2467, 
			 "electric_dipole_moment_norm": 3.51322564177, 
			 "electric_quadrupole_moment_norm": 10.5907760207, 
			 "total_energy": -1159.02146238, 
			 "HOMO_LUMO_gap": 0.20262, 
			 "cosmo_polarized_energy": -5.98, 
			 "cosmo_cavitation_energy": 43.45, 
			 "cosmo_dispersion_energy": -27.85, 
			 "cosmo_repulsion_energy": 2.23, 
			 "cosmo_total_nonelectrostatic_energy": 17.83, 
			 "SMD_solvation_energy": 7.78 
		},
		"coords": [
			{
				"x": 3.3202336228,
				"y": 1.3425550659,
				"z": -0.3472846229,
				"element": "C" 
			},
			{
				"x": 1.9871372621,
				"y": 2.0282313898,
				"z": 0.0076329422,
				"element": "C" 
			},
			{
				"x": 2.1448920926,
				"y": 2.9467785986,
				"z": 1.2342119161,
				"element": "C" 
			},
			{
				"x": 0.8642025252,
				"y": 1.0168021455,
				"z": 0.1973495654,
				"element": "C" 
			},
			{
				"x": -0.2476979987,
				"y": 1.0243496766,
				"z": -0.6467364824,
				"element": "C" 
			},
			{
				"x": -1.2976076352,
				"y": 0.1089584307,
				"z": -0.5076217203,
				"element": "C" 
			},
			{
				"x": -2.4999258565,
				"y": 0.1747587847,
				"z": -1.4457329489,
				"element": "C" 
			},
			{
				"x": -3.2382745035,
				"y": 1.5217761127,
				"z": -1.3231200016,
				"element": "C" 
			},
			{
				"x": -2.0975246786,
				"y": -0.114832382,
				"z": -2.903962639,
				"element": "C" 
			},
			{
				"x": -1.2033062991,
				"y": -0.8389033276,
				"z": 0.526170084,
				"element": "C" 
			},
			{
				"x": -2.3161300945,
				"y": -1.812600672,
				"z": 0.7412706298,
				"element": "C" 
			},
			{
				"x": -2.2322771811,
				"y": -3.2589894764,
				"z": -0.4108888007,
				"element": "Cl" 
			},
			{
				"x": -3.1874659747,
				"y": -1.7732288348,
				"z": 1.5495658462,
				"element": "O" 
			},
			{
				"x": -0.1003691565,
				"y": -0.880540741,
				"z": 1.4066984376,
				"element": "C" 
			},
			{
				"x": 0.9160822421,
				"y": 0.0577113947,
				"z": 1.2172230278,
				"element": "C" 
			},
			{
				"x": -0.0394372326,
				"y": -1.8908745243,
				"z": 2.5508915554,
				"element": "C" 
			},
			{
				"x": 1.3688851083,
				"y": -2.4619547044,
				"z": 2.7868028349,
				"element": "C" 
			},
			{
				"x": -0.613724866,
				"y": -1.2758435221,
				"z": 3.8441014954,
				"element": "C" 
			},
			{
				"x": 4.0977027278,
				"y": 2.0896074246,
				"z": -0.5403228019,
				"element": "H" 
			},
			{
				"x": 3.6698410976,
				"y": 0.7036692695,
				"z": 0.4710257435,
				"element": "H" 
			},
			{
				"x": 3.2195187462,
				"y": 0.7166203964,
				"z": -1.2392751044,
				"element": "H" 
			},
			{
				"x": 1.7063123478,
				"y": 2.6619510395,
				"z": -0.8437080183,
				"element": "H" 
			},
			{
				"x": 2.9142704686,
				"y": 3.7045285407,
				"z": 1.050833832,
				"element": "H" 
			},
			{
				"x": 2.4441944004,
				"y": 2.3787791946,
				"z": 2.1218335869,
				"element": "H" 
			},
			{
				"x": 1.2079209048,
				"y": 3.4616523058,
				"z": 1.4679617288,
				"element": "H" 
			},
			{
				"x": -0.2994982119,
				"y": 1.7684565177,
				"z": -1.4374089143,
				"element": "H" 
			},
			{
				"x": -3.210483866,
				"y": -0.6044109139,
				"z": -1.1488826678,
				"element": "H" 
			},
			{
				"x": -2.6040458228,
				"y": 2.3575297731,
				"z": -1.6373099213,
				"element": "H" 
			},
			{
				"x": -3.5534958636,
				"y": 1.708826655,
				"z": -0.2920901168,
				"element": "H" 
			},
			{
				"x": -4.1304133997,
				"y": 1.5247495056,
				"z": -1.9582281188,
				"element": "H" 
			},
			{
				"x": -1.3995650308,
				"y": 0.6397510372,
				"z": -3.282562559,
				"element": "H" 
			},
			{
				"x": -2.9805924521,
				"y": -0.1066832633,
				"z": -3.551613893,
				"element": "H" 
			},
			{
				"x": -1.6182413004,
				"y": -1.0939199536,
				"z": -2.9932020786,
				"element": "H" 
			},
			{
				"x": 1.7737372816,
				"y": 0.0400425027,
				"z": 1.8821597025,
				"element": "H" 
			},
			{
				"x": -0.6790724061,
				"y": -2.7403069215,
				"z": 2.2825922121,
				"element": "H" 
			},
			{
				"x": 1.3238235393,
				"y": -3.2669218276,
				"z": 3.5272761351,
				"element": "H" 
			},
			{
				"x": 1.7962614021,
				"y": -2.8705477549,
				"z": 1.8660829628,
				"element": "H" 
			},
			{
				"x": 2.0589875107,
				"y": -1.7056393699,
				"z": 3.1754816729,
				"element": "H" 
			},
			{
				"x": -1.6453307775,
				"y": -0.9446975344,
				"z": 3.6974368543,
				"element": "H" 
			},
			{
				"x": -0.019123016,
				"y": -0.4112316243,
				"z": 4.1594301313,
				"element": "H" 
			},
			{
				"x": -0.602099656,
				"y": -2.0102584132,
				"z": 4.6567185129,
				"element": "H" 
			}
		],
		 "valence_orbital": [ 
			{
				"type": "occ",
				"energy": -0.31386,
				"method": "rhf"
			},
			{
				"type": "occ",
				"energy": -0.31063,
				"method": "rhf"
			},
			{
				"type": "occ",
				"energy": -0.29131,
				"method": "rhf"
			},
			{
				"type": "occ",
				"energy": -0.24734,
				"method": "rhf"
			},
			{
				"type": "occ",
				"energy": -0.24672,
				"method": "rhf"
			},
			{
				"type": "unocc",
				"energy": -0.0441,
				"method": "rhf"
			},
			{
				"type": "unocc",
				"energy": -0.02058,
				"method": "rhf"
			},
			{
				"type": "unocc",
				"energy": -0.01167,
				"method": "rhf"
			},
			{
				"type": "unocc",
				"energy": 0.02909,
				"method": "rhf"
			},
			{
				"type": "unocc",
				"energy": 0.07689,
				"method": "rhf"
			}
		],
		"cosmo_sigma_profile": { 
			"-0.025": 0.0,
			"-0.024": 0.0,
			"-0.023": 0.0,
			"-0.022": 0.0,
			"-0.021": 0.0,
			"-0.02": 0.0,
			"-0.019": 0.0,
			"-0.018": 0.0,
			"-0.017": 0.0,
			"-0.016": 0.0,
			"-0.015": 0.0,
			"-0.014": 0.0,
			"-0.013": 0.0,
			"-0.012": 0.0,
			"-0.011": 0.0,
			"-0.01": 0.0,
			"-0.009": 0.0,
			"-0.008": 0.0,
			"-0.007": 0.0314604261502,
			"-0.006": 1.74923674368,
			"-0.005": 7.87675252887,
			"-0.004": 15.0624748596,
			"-0.003": 38.7694045947,
			"-0.002": 45.5725293887,
			"-0.001": 46.8589729011,
			"0.0": 49.0292735918,
			"0.001": 55.2642263996,
			"0.002": 23.5949304212,
			"0.003": 16.202963256,
			"0.004": 16.7050897105,
			"0.005": 11.7223427214,
			"0.006": 4.231265216,
			"0.007": 3.41236926005,
			"0.008": 4.22740444049,
			"0.009": 0.649412596098,
			"0.01": 0.0,
			"0.011": 0.0,
			"0.012": 0.0,
			"0.013": 0.0,
			"0.014": 0.0,
			"0.015": 0.0,
			"0.016": 0.0,
			"0.017": 0.0,
			"0.018": 0.0,
			"0.019": 0.0,
			"0.02": 0.0,
			"0.021": 0.0,
			"0.022": 0.0,
			"0.023": 0.0,
			"0.024": 0.0,
			"0.025": 0.0
		}
	}
}
