{
	 "smiles": "CC[C@]1(O)C[C@H]2C[N@@](C1)CCC1=C(NC3=C1C=CC=C3)[C@@](C2)(C(=O)OC)C1=CC2=C(C=C1OC)N(C=O)[C@@H]1[C@]22CCN3CC=C[C@](CC)([C@@H]23)[C@@H](OC(C)=O)[C@]1(O)C(=O)OC", 
	 "Tm": 492.15, 
	 "num_atms": 116, 
	 "gaussian": { 
		 "optdone": 1, 
		 "sigma_profile": "yes", 
		 "theory": "DFT", 
		 "functional": "B3LYP", 
		 "basiset": "6-31G**", 
		 "properties": { 
			 "R2extent": 39328.9869, 
			 "electric_dipole_moment_norm": 1.86695586182, 
			 "electric_quadrupole_moment_norm": 68.5628136761, 
			 "total_energy": -2757.82677431, 
			 "HOMO_LUMO_gap": 0.1564, 
			 "cosmo_polarized_energy": -37.87, 
			 "cosmo_cavitation_energy": 100.96, 
			 "cosmo_dispersion_energy": -56.01, 
			 "cosmo_repulsion_energy": 4.03, 
			 "cosmo_total_nonelectrostatic_energy": 48.98, 
			 "SMD_solvation_energy": 16.66 
		},
		"coords": [
			{
				"x": 0.4229646528,
				"y": 0.6056139187,
				"z": -4.3539978162,
				"element": "C" 
			},
			{
				"x": 0.7411894149,
				"y": -0.8816561937,
				"z": -4.1693694367,
				"element": "C" 
			},
			{
				"x": 1.8595561143,
				"y": -1.24602787,
				"z": -3.1694119869,
				"element": "C" 
			},
			{
				"x": 1.825466664,
				"y": -2.6790471233,
				"z": -2.9967859309,
				"element": "O" 
			},
			{
				"x": 1.6175768764,
				"y": -0.671663767,
				"z": -1.7615471405,
				"element": "C" 
			},
			{
				"x": 2.6870994575,
				"y": -1.169430898,
				"z": -0.7594004851,
				"element": "C" 
			},
			{
				"x": 4.040541224,
				"y": -1.3457992229,
				"z": -1.5113924563,
				"element": "C" 
			},
			{
				"x": 4.241425853,
				"y": -0.465290253,
				"z": -2.6590319822,
				"element": "N" 
			},
			{
				"x": 3.2670661192,
				"y": -0.8079390577,
				"z": -3.6989104222,
				"element": "C" 
			},
			{
				"x": 4.2848832746,
				"y": 0.9878944932,
				"z": -2.4069296656,
				"element": "C" 
			},
			{
				"x": 4.9791104051,
				"y": 1.4035106082,
				"z": -1.082181985,
				"element": "C" 
			},
			{
				"x": 4.1687808732,
				"y": 2.3883666447,
				"z": -0.2846325065,
				"element": "C" 
			},
			{
				"x": 3.0570497136,
				"y": 2.1947729921,
				"z": 0.5200967661,
				"element": "C" 
			},
			{
				"x": 2.6431583068,
				"y": 3.4363243557,
				"z": 1.0003942951,
				"element": "N" 
			},
			{
				"x": 3.436413174,
				"y": 4.4348682848,
				"z": 0.5002330764,
				"element": "C" 
			},
			{
				"x": 4.4113024019,
				"y": 3.8103196566,
				"z": -0.320828961,
				"element": "C" 
			},
			{
				"x": 5.3664716104,
				"y": 4.6156717841,
				"z": -0.9676256895,
				"element": "C" 
			},
			{
				"x": 5.3289055004,
				"y": 5.99197454,
				"z": -0.7815326508,
				"element": "C" 
			},
			{
				"x": 4.3518319864,
				"y": 6.5891362071,
				"z": 0.0427738395,
				"element": "C" 
			},
			{
				"x": 3.3942447092,
				"y": 5.8209556725,
				"z": 0.6949546701,
				"element": "C" 
			},
			{
				"x": 2.2775797651,
				"y": 0.9716968597,
				"z": 1.0242401781,
				"element": "C" 
			},
			{
				"x": 2.8228425393,
				"y": -0.4512261537,
				"z": 0.6298053325,
				"element": "C" 
			},
			{
				"x": 2.5584904289,
				"y": 1.0420815318,
				"z": 2.569957211,
				"element": "C" 
			},
			{
				"x": 3.3891452865,
				"y": 0.3868096949,
				"z": 3.156871314,
				"element": "O" 
			},
			{
				"x": 1.7940256637,
				"y": 1.9695001099,
				"z": 3.2016161408,
				"element": "O" 
			},
			{
				"x": 2.0988665271,
				"y": 2.1647924328,
				"z": 4.5951498445,
				"element": "C" 
			},
			{
				"x": 0.7433780266,
				"y": 1.0482843353,
				"z": 0.8064437716,
				"element": "C" 
			},
			{
				"x": -0.0627066224,
				"y": 0.2553068318,
				"z": 1.6444361905,
				"element": "C" 
			},
			{
				"x": -1.4455600474,
				"y": 0.2449691852,
				"z": 1.543796296,
				"element": "C" 
			},
			{
				"x": -2.0582651325,
				"y": 1.0683580255,
				"z": 0.596483068,
				"element": "C" 
			},
			{
				"x": -1.3192146489,
				"y": 1.8696728681,
				"z": -0.2637885377,
				"element": "C" 
			},
			{
				"x": 0.0833486208,
				"y": 1.8366864651,
				"z": -0.167757579,
				"element": "C" 
			},
			{
				"x": 0.8568029289,
				"y": 2.535167247,
				"z": -1.048035896,
				"element": "O" 
			},
			{
				"x": 0.2786707153,
				"y": 3.6097492348,
				"z": -1.7822443051,
				"element": "C" 
			},
			{
				"x": -3.4597388766,
				"y": 0.9478191383,
				"z": 0.7034437889,
				"element": "N" 
			},
			{
				"x": -4.3806850722,
				"y": 1.8325401474,
				"z": 0.1993429085,
				"element": "C" 
			},
			{
				"x": -4.1175374873,
				"y": 2.7634266538,
				"z": -0.5478228033,
				"element": "O" 
			},
			{
				"x": -3.8097615494,
				"y": -0.1999645055,
				"z": 1.5681019254,
				"element": "C" 
			},
			{
				"x": -2.5009412773,
				"y": -0.4182922771,
				"z": 2.4092051,
				"element": "C" 
			},
			{
				"x": -2.628474475,
				"y": 0.272209206,
				"z": 3.8045469502,
				"element": "C" 
			},
			{
				"x": -3.1384622716,
				"y": -0.8371529675,
				"z": 4.7567431068,
				"element": "C" 
			},
			{
				"x": -3.2764965032,
				"y": -2.0035906602,
				"z": 3.8981346034,
				"element": "N" 
			},
			{
				"x": -3.4125053764,
				"y": -3.2805973278,
				"z": 4.5537995437,
				"element": "C" 
			},
			{
				"x": -3.4721492792,
				"y": -4.3870788013,
				"z": 3.5407922314,
				"element": "C" 
			},
			{
				"x": -3.0816670862,
				"y": -4.2247935934,
				"z": 2.2768468574,
				"element": "C" 
			},
			{
				"x": -2.402723991,
				"y": -2.9841315794,
				"z": 1.7320054015,
				"element": "C" 
			},
			{
				"x": -0.9716720781,
				"y": -3.4013611756,
				"z": 1.2404543077,
				"element": "C" 
			},
			{
				"x": -0.1010387036,
				"y": -4.17577552,
				"z": 2.2357942431,
				"element": "C" 
			},
			{
				"x": -2.2837831759,
				"y": -1.889354365,
				"z": 2.8359958716,
				"element": "C" 
			},
			{
				"x": -3.1209788685,
				"y": -2.392092591,
				"z": 0.480289867,
				"element": "C" 
			},
			{
				"x": -3.3192739293,
				"y": -3.4512711812,
				"z": -0.5138582753,
				"element": "O" 
			},
			{
				"x": -4.4249540609,
				"y": -4.1864322771,
				"z": -0.6917926205,
				"element": "C" 
			},
			{
				"x": -4.2065813403,
				"y": -5.2023007721,
				"z": -1.7883882125,
				"element": "C" 
			},
			{
				"x": -5.4743699813,
				"y": -4.0704501061,
				"z": -0.0829789744,
				"element": "O" 
			},
			{
				"x": -4.332261839,
				"y": -1.4758477874,
				"z": 0.7836644613,
				"element": "C" 
			},
			{
				"x": -5.2938832739,
				"y": -2.0238160867,
				"z": 1.6337943352,
				"element": "O" 
			},
			{
				"x": -5.015973435,
				"y": -0.9920689871,
				"z": -0.5254893331,
				"element": "C" 
			},
			{
				"x": -6.1862161857,
				"y": -0.6970300986,
				"z": -0.5968129798,
				"element": "O" 
			},
			{
				"x": -4.1504692375,
				"y": -0.887159256,
				"z": -1.5549626432,
				"element": "O" 
			},
			{
				"x": -4.6884713956,
				"y": -0.3160736977,
				"z": -2.7644036442,
				"element": "C" 
			},
			{
				"x": 0.0550172135,
				"y": 1.0514947058,
				"z": -3.426086132,
				"element": "H" 
			},
			{
				"x": -0.3512019762,
				"y": 0.7376889171,
				"z": -5.1169999095,
				"element": "H" 
			},
			{
				"x": 1.2975930012,
				"y": 1.1814293203,
				"z": -4.6746599691,
				"element": "H" 
			},
			{
				"x": -0.1609731828,
				"y": -1.4111764288,
				"z": -3.8407060679,
				"element": "H" 
			},
			{
				"x": 1.0126706443,
				"y": -1.3156098758,
				"z": -5.1444696915,
				"element": "H" 
			},
			{
				"x": 2.0242018863,
				"y": -3.0791585451,
				"z": -3.8543548261,
				"element": "H" 
			},
			{
				"x": 0.6157274927,
				"y": -0.9652524417,
				"z": -1.4298794772,
				"element": "H" 
			},
			{
				"x": 1.6225485178,
				"y": 0.415694941,
				"z": -1.8275237513,
				"element": "H" 
			},
			{
				"x": 2.3891220747,
				"y": -2.1890211954,
				"z": -0.4929863097,
				"element": "H" 
			},
			{
				"x": 4.0643537632,
				"y": -2.3625960572,
				"z": -1.9146767363,
				"element": "H" 
			},
			{
				"x": 4.8841458653,
				"y": -1.277691476,
				"z": -0.8194337245,
				"element": "H" 
			},
			{
				"x": 3.6566836932,
				"y": -1.6390418851,
				"z": -4.3092202602,
				"element": "H" 
			},
			{
				"x": 3.1697357561,
				"y": 0.0494472915,
				"z": -4.3724682621,
				"element": "H" 
			},
			{
				"x": 3.2806549519,
				"y": 1.435448813,
				"z": -2.4081387209,
				"element": "H" 
			},
			{
				"x": 4.8157262686,
				"y": 1.4438339911,
				"z": -3.2533969511,
				"element": "H" 
			},
			{
				"x": 5.9514758463,
				"y": 1.8538473161,
				"z": -1.3034707941,
				"element": "H" 
			},
			{
				"x": 5.2095201726,
				"y": 0.527575482,
				"z": -0.4778582187,
				"element": "H" 
			},
			{
				"x": 1.8827325049,
				"y": 3.5497114031,
				"z": 1.6509724556,
				"element": "H" 
			},
			{
				"x": 6.1245428674,
				"y": 4.170942325,
				"z": -1.6068105197,
				"element": "H" 
			},
			{
				"x": 6.0619944259,
				"y": 6.6218383161,
				"z": -1.2772037941,
				"element": "H" 
			},
			{
				"x": 4.3474724058,
				"y": 7.6679527346,
				"z": 0.1696145922,
				"element": "H" 
			},
			{
				"x": 2.640986511,
				"y": 6.2797150351,
				"z": 1.3297616183,
				"element": "H" 
			},
			{
				"x": 3.8736346394,
				"y": -0.4742505285,
				"z": 0.9277271589,
				"element": "H" 
			},
			{
				"x": 2.3339846653,
				"y": -1.1072096103,
				"z": 1.354654951,
				"element": "H" 
			},
			{
				"x": 1.3920855569,
				"y": 2.91626852,
				"z": 4.9469830176,
				"element": "H" 
			},
			{
				"x": 3.1267515003,
				"y": 2.5149135286,
				"z": 4.716995146,
				"element": "H" 
			},
			{
				"x": 1.9758090563,
				"y": 1.2312014816,
				"z": 5.1484876939,
				"element": "H" 
			},
			{
				"x": 0.4150942373,
				"y": -0.3516215868,
				"z": 2.4090823365,
				"element": "H" 
			},
			{
				"x": -1.8276643234,
				"y": 2.4926012166,
				"z": -0.9833205895,
				"element": "H" 
			},
			{
				"x": 1.1153467026,
				"y": 4.1258190217,
				"z": -2.2541736868,
				"element": "H" 
			},
			{
				"x": -0.2538946612,
				"y": 4.3021936031,
				"z": -1.1206127586,
				"element": "H" 
			},
			{
				"x": -0.4097052701,
				"y": 3.2513469486,
				"z": -2.5567182349,
				"element": "H" 
			},
			{
				"x": -5.4051414748,
				"y": 1.6066164207,
				"z": 0.5393403805,
				"element": "H" 
			},
			{
				"x": -4.6563198311,
				"y": 0.0636660853,
				"z": 2.2027522146,
				"element": "H" 
			},
			{
				"x": -1.6450036101,
				"y": 0.6322345919,
				"z": 4.1183523825,
				"element": "H" 
			},
			{
				"x": -3.2896962431,
				"y": 1.1420489387,
				"z": 3.7608709238,
				"element": "H" 
			},
			{
				"x": -4.0989272447,
				"y": -0.59631858,
				"z": 5.2282229845,
				"element": "H" 
			},
			{
				"x": -2.4077693827,
				"y": -1.0012258954,
				"z": 5.572583721,
				"element": "H" 
			},
			{
				"x": -4.3379632267,
				"y": -3.2716460012,
				"z": 5.1462908302,
				"element": "H" 
			},
			{
				"x": -2.5914097184,
				"y": -3.4818216068,
				"z": 5.2787123535,
				"element": "H" 
			},
			{
				"x": -3.8620601063,
				"y": -5.3454578509,
				"z": 3.8750221577,
				"element": "H" 
			},
			{
				"x": -3.1448519313,
				"y": -5.0669676378,
				"z": 1.5912168937,
				"element": "H" 
			},
			{
				"x": -1.0973717541,
				"y": -4.0081673456,
				"z": 0.3376579215,
				"element": "H" 
			},
			{
				"x": -0.4449744534,
				"y": -2.4929712397,
				"z": 0.9246840087,
				"element": "H" 
			},
			{
				"x": 0.0941246351,
				"y": -3.6102817166,
				"z": 3.152895481,
				"element": "H" 
			},
			{
				"x": 0.8688066484,
				"y": -4.4009354751,
				"z": 1.7806403591,
				"element": "H" 
			},
			{
				"x": -0.5638390423,
				"y": -5.1222442574,
				"z": 2.5280988361,
				"element": "H" 
			},
			{
				"x": -1.2563915004,
				"y": -1.9546384065,
				"z": 3.2482496761,
				"element": "H" 
			},
			{
				"x": -2.3977114785,
				"y": -1.7650414729,
				"z": -0.0441134433,
				"element": "H" 
			},
			{
				"x": -5.1213894886,
				"y": -5.7736651393,
				"z": -1.9407734286,
				"element": "H" 
			},
			{
				"x": -3.3858548116,
				"y": -5.8737756402,
				"z": -1.5194856951,
				"element": "H" 
			},
			{
				"x": -3.9202677965,
				"y": -4.6942724039,
				"z": -2.713456498,
				"element": "H" 
			},
			{
				"x": -5.6175016081,
				"y": -2.8338806683,
				"z": 1.1944421318,
				"element": "H" 
			},
			{
				"x": -4.9200897658,
				"y": 0.740285665,
				"z": -2.6074902409,
				"element": "H" 
			},
			{
				"x": -3.9039586076,
				"y": -0.4252867111,
				"z": -3.5128660075,
				"element": "H" 
			},
			{
				"x": -5.5943826472,
				"y": -0.8444519061,
				"z": -3.0680501044,
				"element": "H" 
			}
		],
		 "valence_orbital": [ 
			{
				"type": "occ",
				"energy": -0.21364,
				"method": "rhf"
			},
			{
				"type": "occ",
				"energy": -0.20799,
				"method": "rhf"
			},
			{
				"type": "occ",
				"energy": -0.20594,
				"method": "rhf"
			},
			{
				"type": "occ",
				"energy": -0.19378,
				"method": "rhf"
			},
			{
				"type": "occ",
				"energy": -0.18475,
				"method": "rhf"
			},
			{
				"type": "unocc",
				"energy": -0.02835,
				"method": "rhf"
			},
			{
				"type": "unocc",
				"energy": -0.01727,
				"method": "rhf"
			},
			{
				"type": "unocc",
				"energy": -0.00714,
				"method": "rhf"
			},
			{
				"type": "unocc",
				"energy": -0.00519,
				"method": "rhf"
			},
			{
				"type": "unocc",
				"energy": 0.00223,
				"method": "rhf"
			}
		],
		"cosmo_sigma_profile": { 
			"-0.025": 0.0,
			"-0.024": 0.0,
			"-0.023": 0.0,
			"-0.022": 0.0,
			"-0.021": 0.0,
			"-0.02": 0.0,
			"-0.019": 0.0,
			"-0.018": 0.0,
			"-0.017": 0.0,
			"-0.016": 0.0,
			"-0.015": 0.0481708204514,
			"-0.014": 0.622598452373,
			"-0.013": 1.27474260026,
			"-0.012": 1.2824476471,
			"-0.011": 1.59708002662,
			"-0.01": 2.17035980638,
			"-0.009": 3.01372207064,
			"-0.008": 4.16803697733,
			"-0.007": 10.8990866614,
			"-0.006": 32.01555115,
			"-0.005": 46.6706824691,
			"-0.004": 69.4575787081,
			"-0.003": 84.6817535428,
			"-0.002": 95.1602507289,
			"-0.001": 82.8989674712,
			"0.0": 69.9682702513,
			"0.001": 52.7583075212,
			"0.002": 36.6799049661,
			"0.003": 32.7531169185,
			"0.004": 27.7429128041,
			"0.005": 23.5084956394,
			"0.006": 22.4157087784,
			"0.007": 18.3746860813,
			"0.008": 11.5692487057,
			"0.009": 9.56438316186,
			"0.01": 11.0518374564,
			"0.011": 13.212900417,
			"0.012": 9.91663461673,
			"0.013": 6.09638422902,
			"0.014": 3.62581024726,
			"0.015": 1.68884228268,
			"0.016": 1.00183367411,
			"0.017": 0.674780830269,
			"0.018": 0.0,
			"0.019": 0.0,
			"0.02": 0.0,
			"0.021": 0.0,
			"0.022": 0.0,
			"0.023": 0.0,
			"0.024": 0.0,
			"0.025": 0.0
		}
	}
}
