{
	 "smiles": "ClCC(=O)C1=CC2=C(NC(=O)CC2)C=C1", 
	 "Tm": 486.15, 
	 "num_atms": 25, 
	 "gaussian": { 
		 "optdone": 1, 
		 "sigma_profile": "yes", 
		 "theory": "DFT", 
		 "functional": "B3LYP", 
		 "basiset": "6-31G**", 
		 "properties": { 
			 "R2extent": 5294.0186, 
			 "electric_dipole_moment_norm": 2.88049498871, 
			 "electric_quadrupole_moment_norm": 29.9301421336, 
			 "total_energy": -1090.61860009, 
			 "HOMO_LUMO_gap": 0.1705, 
			 "cosmo_polarized_energy": -19.73, 
			 "cosmo_cavitation_energy": 30.75, 
			 "cosmo_dispersion_energy": -22.87, 
			 "cosmo_repulsion_energy": 1.79, 
			 "cosmo_total_nonelectrostatic_energy": 9.67, 
			 "SMD_solvation_energy": 5.58 
		},
		"coords": [
			{
				"x": 4.3438541068,
				"y": 3.2346251523,
				"z": -0.6511603526,
				"element": "Cl" 
			},
			{
				"x": 3.0680564571,
				"y": 2.2617846521,
				"z": 0.1414333225,
				"element": "C" 
			},
			{
				"x": 1.9931887215,
				"y": 1.7624713383,
				"z": -0.8345566702,
				"element": "C" 
			},
			{
				"x": 2.0380789065,
				"y": 2.0219081852,
				"z": -2.0224122665,
				"element": "O" 
			},
			{
				"x": 0.8902571899,
				"y": 0.9434563964,
				"z": -0.2510149721,
				"element": "C" 
			},
			{
				"x": -0.1138654271,
				"y": 0.4872822342,
				"z": -1.1239468484,
				"element": "C" 
			},
			{
				"x": -1.1811711683,
				"y": -0.2772914085,
				"z": -0.6763281682,
				"element": "C" 
			},
			{
				"x": -1.2412468799,
				"y": -0.6172095073,
				"z": 0.6927800856,
				"element": "C" 
			},
			{
				"x": -2.3067171609,
				"y": -1.3956297237,
				"z": 1.151365832,
				"element": "N" 
			},
			{
				"x": -3.1539173226,
				"y": -2.1601868201,
				"z": 0.3592680329,
				"element": "C" 
			},
			{
				"x": -4.0311724119,
				"y": -2.8421465438,
				"z": 0.8582285783,
				"element": "O" 
			},
			{
				"x": -2.8511009755,
				"y": -2.099730542,
				"z": -1.1292979195,
				"element": "C" 
			},
			{
				"x": -2.3151778312,
				"y": -0.7288581967,
				"z": -1.5675978834,
				"element": "C" 
			},
			{
				"x": -0.2536810435,
				"y": -0.1672786407,
				"z": 1.5788350009,
				"element": "C" 
			},
			{
				"x": 0.7994573758,
				"y": 0.6097719608,
				"z": 1.1095902959,
				"element": "C" 
			},
			{
				"x": 2.6109538467,
				"y": 2.8827011326,
				"z": 0.9161293755,
				"element": "H" 
			},
			{
				"x": 3.5539164048,
				"y": 1.4128123167,
				"z": 0.6292072511,
				"element": "H" 
			},
			{
				"x": -0.0366414943,
				"y": 0.7608863489,
				"z": -2.1718397958,
				"element": "H" 
			},
			{
				"x": -2.4364982592,
				"y": -1.5191714512,
				"z": 2.1479253743,
				"element": "H" 
			},
			{
				"x": -3.7623516854,
				"y": -2.3777997548,
				"z": -1.6621638773,
				"element": "H" 
			},
			{
				"x": -2.1035303537,
				"y": -2.8784016565,
				"z": -1.3342106743,
				"element": "H" 
			},
			{
				"x": -1.9930911398,
				"y": -0.7595164403,
				"z": -2.612549592,
				"element": "H" 
			},
			{
				"x": -3.1292701329,
				"y": 0.0082583476,
				"z": -1.5133571751,
				"element": "H" 
			},
			{
				"x": -0.3103768123,
				"y": -0.4350083877,
				"z": 2.6303481272,
				"element": "H" 
			},
			{
				"x": 1.5515470895,
				"y": 0.9420710083,
				"z": 1.8176249194,
				"element": "H" 
			}
		],
		 "valence_orbital": [ 
			{
				"type": "occ",
				"energy": -0.29843,
				"method": "rhf"
			},
			{
				"type": "occ",
				"energy": -0.27233,
				"method": "rhf"
			},
			{
				"type": "occ",
				"energy": -0.2682,
				"method": "rhf"
			},
			{
				"type": "occ",
				"energy": -0.26408,
				"method": "rhf"
			},
			{
				"type": "occ",
				"energy": -0.2382,
				"method": "rhf"
			},
			{
				"type": "unocc",
				"energy": -0.0677,
				"method": "rhf"
			},
			{
				"type": "unocc",
				"energy": -0.02737,
				"method": "rhf"
			},
			{
				"type": "unocc",
				"energy": -0.00131,
				"method": "rhf"
			},
			{
				"type": "unocc",
				"energy": 0.02358,
				"method": "rhf"
			},
			{
				"type": "unocc",
				"energy": 0.03975,
				"method": "rhf"
			}
		],
		"cosmo_sigma_profile": { 
			"-0.025": 0.0,
			"-0.024": 0.0,
			"-0.023": 0.0,
			"-0.022": 0.0,
			"-0.021": 0.0,
			"-0.02": 0.0,
			"-0.019": 0.0,
			"-0.018": 0.0,
			"-0.017": 0.0,
			"-0.016": 0.0916064707411,
			"-0.015": 1.12461384286,
			"-0.014": 0.982260243188,
			"-0.013": 1.03929766011,
			"-0.012": 1.49242774859,
			"-0.011": 1.17890700872,
			"-0.01": 1.4340014799,
			"-0.009": 8.53786691142,
			"-0.008": 8.90068578539,
			"-0.007": 7.97189878858,
			"-0.006": 12.2849498212,
			"-0.005": 18.8862711778,
			"-0.004": 17.5903490782,
			"-0.003": 15.593845115,
			"-0.002": 15.6906057663,
			"-0.001": 12.8005438644,
			"0.0": 12.6259188682,
			"0.001": 13.1541855775,
			"0.002": 14.8256681046,
			"0.003": 15.539893123,
			"0.004": 9.91841206268,
			"0.005": 7.95765357775,
			"0.006": 10.3281419119,
			"0.007": 4.28695487107,
			"0.008": 3.54609684063,
			"0.009": 3.94451125331,
			"0.01": 4.03055640448,
			"0.011": 5.64681339803,
			"0.012": 7.45693245595,
			"0.013": 6.56604891976,
			"0.014": 1.42236348083,
			"0.015": 0.0,
			"0.016": 0.0,
			"0.017": 0.0,
			"0.018": 0.0,
			"0.019": 0.0,
			"0.02": 0.0,
			"0.021": 0.0,
			"0.022": 0.0,
			"0.023": 0.0,
			"0.024": 0.0,
			"0.025": 0.0
		}
	}
}
