{
	 "smiles": "CCC(=O)N(C)C", 
	 "Tm": 228.15, 
	 "num_atms": 18, 
	 "gaussian": { 
		 "optdone": 1, 
		 "sigma_profile": "yes", 
		 "theory": "DFT", 
		 "functional": "B3LYP", 
		 "basiset": "6-31G**", 
		 "properties": { 
			 "R2extent": 889.5275, 
			 "electric_dipole_moment_norm": 3.5684878324, 
			 "electric_quadrupole_moment_norm": 6.72789930365, 
			 "total_energy": -327.150923277, 
			 "HOMO_LUMO_gap": 0.26474, 
			 "cosmo_polarized_energy": -9.16, 
			 "cosmo_cavitation_energy": 20.2, 
			 "cosmo_dispersion_energy": -14.77, 
			 "cosmo_repulsion_energy": 1.26, 
			 "cosmo_total_nonelectrostatic_energy": 6.69, 
			 "SMD_solvation_energy": 4.35 
		},
		"coords": [
			{
				"x": -0.7061912358,
				"y": 0.5186582293,
				"z": -2.0014966367,
				"element": "C" 
			},
			{
				"x": 0.6309991113,
				"y": 0.1375932562,
				"z": -1.3427326205,
				"element": "C" 
			},
			{
				"x": 0.4317519416,
				"y": -0.5824111261,
				"z": -0.0087134925,
				"element": "C" 
			},
			{
				"x": 0.3923599877,
				"y": -1.8100138657,
				"z": 0.0203041847,
				"element": "O" 
			},
			{
				"x": 0.2690864175,
				"y": 0.1728163419,
				"z": 1.1329386021,
				"element": "N" 
			},
			{
				"x": 0.0624033303,
				"y": -0.5107180073,
				"z": 2.4017728042,
				"element": "C" 
			},
			{
				"x": 0.2533487237,
				"y": 1.6226917817,
				"z": 1.2051354162,
				"element": "C" 
			},
			{
				"x": -1.3423265044,
				"y": -0.3653636279,
				"z": -2.1035006767,
				"element": "H" 
			},
			{
				"x": -0.5401053835,
				"y": 0.9348369774,
				"z": -2.9998605026,
				"element": "H" 
			},
			{
				"x": -1.2566303275,
				"y": 1.2620966155,
				"z": -1.4155191898,
				"element": "H" 
			},
			{
				"x": 1.153105763,
				"y": -0.5846752117,
				"z": -1.9743087335,
				"element": "H" 
			},
			{
				"x": 1.2790591623,
				"y": 1.015106429,
				"z": -1.2502977266,
				"element": "H" 
			},
			{
				"x": 0.835593277,
				"y": -0.2200655011,
				"z": 3.1245726943,
				"element": "H" 
			},
			{
				"x": 0.1108762808,
				"y": -1.5834593464,
				"z": 2.2239647065,
				"element": "H" 
			},
			{
				"x": -0.917029848,
				"y": -0.2537218001,
				"z": 2.8262874993,
				"element": "H" 
			},
			{
				"x": 0.364472345,
				"y": 2.0738373018,
				"z": 0.2217187598,
				"element": "H" 
			},
			{
				"x": -0.6943190441,
				"y": 1.9755098006,
				"z": 1.6342298036,
				"element": "H" 
			},
			{
				"x": 1.066046003,
				"y": 1.9906817532,
				"z": 1.8465051082,
				"element": "H" 
			}
		],
		 "valence_orbital": [ 
			{
				"type": "occ",
				"energy": -0.36174,
				"method": "rhf"
			},
			{
				"type": "occ",
				"energy": -0.34928,
				"method": "rhf"
			},
			{
				"type": "occ",
				"energy": -0.33972,
				"method": "rhf"
			},
			{
				"type": "occ",
				"energy": -0.23648,
				"method": "rhf"
			},
			{
				"type": "occ",
				"energy": -0.23272,
				"method": "rhf"
			},
			{
				"type": "unocc",
				"energy": 0.03202,
				"method": "rhf"
			},
			{
				"type": "unocc",
				"energy": 0.08064,
				"method": "rhf"
			},
			{
				"type": "unocc",
				"energy": 0.11175,
				"method": "rhf"
			},
			{
				"type": "unocc",
				"energy": 0.13216,
				"method": "rhf"
			},
			{
				"type": "unocc",
				"energy": 0.14127,
				"method": "rhf"
			}
		],
		"cosmo_sigma_profile": { 
			"-0.025": 0.0,
			"-0.024": 0.0,
			"-0.023": 0.0,
			"-0.022": 0.0,
			"-0.021": 0.0,
			"-0.02": 0.0,
			"-0.019": 0.0,
			"-0.018": 0.0,
			"-0.017": 0.0,
			"-0.016": 0.0,
			"-0.015": 0.0,
			"-0.014": 0.0,
			"-0.013": 0.0,
			"-0.012": 0.0,
			"-0.011": 0.0,
			"-0.01": 0.0,
			"-0.009": 0.0,
			"-0.008": 0.0,
			"-0.007": 0.77139349023,
			"-0.006": 2.23601838029,
			"-0.005": 6.77951698311,
			"-0.004": 20.2490817382,
			"-0.003": 22.9536761234,
			"-0.002": 27.3664300261,
			"-0.001": 22.6891781181,
			"0.0": 14.5791967966,
			"0.001": 8.79281816367,
			"0.002": 4.77353667273,
			"0.003": 2.06392687334,
			"0.004": 1.71457232279,
			"0.005": 1.87092508851,
			"0.006": 1.55898891861,
			"0.007": 1.65495170078,
			"0.008": 1.46016983935,
			"0.009": 1.76012078976,
			"0.01": 0.907638403264,
			"0.011": 1.08302124416,
			"0.012": 1.78550191438,
			"0.013": 2.27717450707,
			"0.014": 4.10335046265,
			"0.015": 3.27039532543,
			"0.016": 0.712577311414,
			"0.017": 0.0,
			"0.018": 0.0,
			"0.019": 0.0,
			"0.02": 0.0,
			"0.021": 0.0,
			"0.022": 0.0,
			"0.023": 0.0,
			"0.024": 0.0,
			"0.025": 0.0
		}
	}
}
