{
	 "smiles": "SC1=NN=C(C2CC2)N1CC1=CC=CO1", 
	 "Tm": 534.15, 
	 "num_atms": 26, 
	 "gaussian": { 
		 "optdone": 1, 
		 "sigma_profile": "yes", 
		 "theory": "DFT", 
		 "functional": "B3LYP", 
		 "basiset": "6-31G**", 
		 "properties": { 
			 "R2extent": 5284.5404, 
			 "electric_dipole_moment_norm": 5.43636392638, 
			 "electric_quadrupole_moment_norm": 26.5096296711, 
			 "total_energy": -1025.26719282, 
			 "HOMO_LUMO_gap": 0.20775, 
			 "cosmo_polarized_energy": -17.69, 
			 "cosmo_cavitation_energy": 31.06, 
			 "cosmo_dispersion_energy": -22.56, 
			 "cosmo_repulsion_energy": 1.71, 
			 "cosmo_total_nonelectrostatic_energy": 10.2, 
			 "SMD_solvation_energy": 3.3 
		},
		"coords": [
			{
				"x": -0.9496652907,
				"y": 3.8270314816,
				"z": -1.9494167106,
				"element": "S" 
			},
			{
				"x": 0.6420975527,
				"y": 3.2322717452,
				"z": -1.4499143379,
				"element": "C" 
			},
			{
				"x": 1.7875720997,
				"y": 3.8097009481,
				"z": -1.7063878811,
				"element": "N" 
			},
			{
				"x": 2.7686344596,
				"y": 3.0034457745,
				"z": -1.1658238427,
				"element": "N" 
			},
			{
				"x": 2.1921108473,
				"y": 1.969619337,
				"z": -0.5911430884,
				"element": "C" 
			},
			{
				"x": 3.0020818853,
				"y": 0.9301646981,
				"z": 0.0794916878,
				"element": "C" 
			},
			{
				"x": 2.5912409966,
				"y": 0.1495471942,
				"z": 1.3113132119,
				"element": "C" 
			},
			{
				"x": 2.7530199758,
				"y": -0.5650977471,
				"z": -0.003407729,
				"element": "C" 
			},
			{
				"x": 0.816462988,
				"y": 2.0590819214,
				"z": -0.7473511924,
				"element": "N" 
			},
			{
				"x": -0.2631405426,
				"y": 1.1560919307,
				"z": -0.3240389932,
				"element": "C" 
			},
			{
				"x": -1.0613760658,
				"y": 1.6472262274,
				"z": 0.8379161664,
				"element": "C" 
			},
			{
				"x": -2.3510841493,
				"y": 2.0726447094,
				"z": 0.967727622,
				"element": "C" 
			},
			{
				"x": -2.5367813771,
				"y": 2.39469738,
				"z": 2.3524615612,
				"element": "C" 
			},
			{
				"x": -1.3468973652,
				"y": 2.1416174834,
				"z": 2.9610049579,
				"element": "C" 
			},
			{
				"x": -0.436340835,
				"y": 1.6817338076,
				"z": 2.055096339,
				"element": "O" 
			},
			{
				"x": -0.4350035663,
				"y": 4.5821462761,
				"z": -2.9381927854,
				"element": "H" 
			},
			{
				"x": 4.0438974063,
				"y": 1.2307662103,
				"z": 0.034675348,
				"element": "H" 
			},
			{
				"x": 3.3513160746,
				"y": 0.0015293809,
				"z": 2.0723360185,
				"element": "H" 
			},
			{
				"x": 1.595709792,
				"y": 0.3040554616,
				"z": 1.7122790769,
				"element": "H" 
			},
			{
				"x": 3.6214428552,
				"y": -1.2007381886,
				"z": -0.1459802881,
				"element": "H" 
			},
			{
				"x": 1.8691206538,
				"y": -0.9206350803,
				"z": -0.524219425,
				"element": "H" 
			},
			{
				"x": 0.1814105232,
				"y": 0.1855761292,
				"z": -0.1021911134,
				"element": "H" 
			},
			{
				"x": -0.9404675624,
				"y": 1.0181235955,
				"z": -1.1721426588,
				"element": "H" 
			},
			{
				"x": -3.0794422842,
				"y": 2.1515016992,
				"z": 0.1734370878,
				"element": "H" 
			},
			{
				"x": -3.4344268418,
				"y": 2.7677397657,
				"z": 2.8235057244,
				"element": "H" 
			},
			{
				"x": -0.99399223,
				"y": 2.2317578589,
				"z": 3.9764652442,
				"element": "H" 
			}
		],
		 "valence_orbital": [ 
			{
				"type": "occ",
				"energy": -0.28995,
				"method": "rhf"
			},
			{
				"type": "occ",
				"energy": -0.28471,
				"method": "rhf"
			},
			{
				"type": "occ",
				"energy": -0.24671,
				"method": "rhf"
			},
			{
				"type": "occ",
				"energy": -0.24167,
				"method": "rhf"
			},
			{
				"type": "occ",
				"energy": -0.21919,
				"method": "rhf"
			},
			{
				"type": "unocc",
				"energy": -0.01144,
				"method": "rhf"
			},
			{
				"type": "unocc",
				"energy": 0.01037,
				"method": "rhf"
			},
			{
				"type": "unocc",
				"energy": 0.02125,
				"method": "rhf"
			},
			{
				"type": "unocc",
				"energy": 0.04711,
				"method": "rhf"
			},
			{
				"type": "unocc",
				"energy": 0.05453,
				"method": "rhf"
			}
		],
		"cosmo_sigma_profile": { 
			"-0.025": 0.0,
			"-0.024": 0.0,
			"-0.023": 0.0,
			"-0.022": 0.0,
			"-0.021": 0.0,
			"-0.02": 0.0,
			"-0.019": 0.0,
			"-0.018": 0.0,
			"-0.017": 0.0,
			"-0.016": 0.0,
			"-0.015": 0.0,
			"-0.014": 0.0,
			"-0.013": 0.014744515471,
			"-0.012": 1.11888468318,
			"-0.011": 1.45966906941,
			"-0.01": 1.65258000291,
			"-0.009": 3.78899319961,
			"-0.008": 8.89453738891,
			"-0.007": 11.2613715914,
			"-0.006": 14.2257134697,
			"-0.005": 18.1839575776,
			"-0.004": 16.7212146248,
			"-0.003": 13.1893839721,
			"-0.002": 15.3505795197,
			"-0.001": 17.247036884,
			"0.0": 16.5832780017,
			"0.001": 18.6150057127,
			"0.002": 18.8860221487,
			"0.003": 18.2993415305,
			"0.004": 13.9265599102,
			"0.005": 11.1340522267,
			"0.006": 4.38349652714,
			"0.007": 3.14172453852,
			"0.008": 1.8814486261,
			"0.009": 1.67951807289,
			"0.01": 2.024109197,
			"0.011": 2.21409375597,
			"0.012": 2.21092637992,
			"0.013": 3.6684208904,
			"0.014": 3.48228883543,
			"0.015": 2.18343061096,
			"0.016": 2.45533634358,
			"0.017": 1.05895487623,
			"0.018": 0.110896208582,
			"0.019": 0.0,
			"0.02": 0.0,
			"0.021": 0.0,
			"0.022": 0.0,
			"0.023": 0.0,
			"0.024": 0.0,
			"0.025": 0.0
		}
	}
}
