{
	 "smiles": "OC(=O)C1=CC=C(OC(F)F)C=C1", 
	 "Tm": 442.65, 
	 "num_atms": 19, 
	 "gaussian": { 
		 "optdone": 1, 
		 "sigma_profile": "yes", 
		 "theory": "DFT", 
		 "functional": "B3LYP", 
		 "basiset": "6-31G**", 
		 "properties": { 
			 "R2extent": 3378.641, 
			 "electric_dipole_moment_norm": 3.25086195031, 
			 "electric_quadrupole_moment_norm": 20.3099289922, 
			 "total_energy": -733.818236463, 
			 "HOMO_LUMO_gap": 0.20647, 
			 "cosmo_polarized_energy": -15.81, 
			 "cosmo_cavitation_energy": 25.07, 
			 "cosmo_dispersion_energy": -18.35, 
			 "cosmo_repulsion_energy": 1.41, 
			 "cosmo_total_nonelectrostatic_energy": 8.13, 
			 "SMD_solvation_energy": 6.8 
		},
		"coords": [
			{
				"x": -1.7930309201,
				"y": -0.7773361849,
				"z": 3.0382058237,
				"element": "O" 
			},
			{
				"x": -2.0921991598,
				"y": -0.0317878159,
				"z": 1.9399331522,
				"element": "C" 
			},
			{
				"x": -3.1715413669,
				"y": 0.5045642166,
				"z": 1.8508813945,
				"element": "O" 
			},
			{
				"x": -1.0331578069,
				"y": 0.0782452486,
				"z": 0.886558425,
				"element": "C" 
			},
			{
				"x": 0.3247910142,
				"y": -0.1571725696,
				"z": 1.1312943236,
				"element": "C" 
			},
			{
				"x": 1.2739541507,
				"y": -0.0250189146,
				"z": 0.1173719023,
				"element": "C" 
			},
			{
				"x": 0.8517067355,
				"y": 0.3640052316,
				"z": -1.1569524677,
				"element": "C" 
			},
			{
				"x": 1.7055802448,
				"y": 0.514930653,
				"z": -2.2306345612,
				"element": "O" 
			},
			{
				"x": 3.0272095351,
				"y": 0.8142088926,
				"z": -1.9861174818,
				"element": "C" 
			},
			{
				"x": 3.5473758153,
				"y": 1.2282731311,
				"z": -3.1509831191,
				"element": "F" 
			},
			{
				"x": 3.7107644176,
				"y": -0.3004951407,
				"z": -1.5985537428,
				"element": "F" 
			},
			{
				"x": -0.5008453014,
				"y": 0.6104959506,
				"z": -1.4190666675,
				"element": "C" 
			},
			{
				"x": -1.4318974064,
				"y": 0.4737466434,
				"z": -0.4003745171,
				"element": "C" 
			},
			{
				"x": -0.9827745673,
				"y": -1.283820206,
				"z": 2.8901178968,
				"element": "H" 
			},
			{
				"x": 0.6743169821,
				"y": -0.4222288312,
				"z": 2.1260935017,
				"element": "H" 
			},
			{
				"x": 2.3159235044,
				"y": -0.2449952544,
				"z": 0.3131612169,
				"element": "H" 
			},
			{
				"x": 3.1517239754,
				"y": 1.5830636202,
				"z": -1.2141148727,
				"element": "H" 
			},
			{
				"x": -0.7934776951,
				"y": 0.9136537217,
				"z": -2.4184315165,
				"element": "H" 
			},
			{
				"x": -2.4828221513,
				"y": 0.6755676079,
				"z": -0.5759886903,
				"element": "H" 
			}
		],
		 "valence_orbital": [ 
			{
				"type": "occ",
				"energy": -0.35774,
				"method": "rhf"
			},
			{
				"type": "occ",
				"energy": -0.32014,
				"method": "rhf"
			},
			{
				"type": "occ",
				"energy": -0.28503,
				"method": "rhf"
			},
			{
				"type": "occ",
				"energy": -0.27891,
				"method": "rhf"
			},
			{
				"type": "occ",
				"energy": -0.26219,
				"method": "rhf"
			},
			{
				"type": "unocc",
				"energy": -0.05572,
				"method": "rhf"
			},
			{
				"type": "unocc",
				"energy": -0.03498,
				"method": "rhf"
			},
			{
				"type": "unocc",
				"energy": 0.04154,
				"method": "rhf"
			},
			{
				"type": "unocc",
				"energy": 0.05209,
				"method": "rhf"
			},
			{
				"type": "unocc",
				"energy": 0.09056,
				"method": "rhf"
			}
		],
		"cosmo_sigma_profile": { 
			"-0.025": 0.0,
			"-0.024": 0.0,
			"-0.023": 0.0,
			"-0.022": 0.0,
			"-0.021": 0.0,
			"-0.02": 0.0,
			"-0.019": 0.221878582072,
			"-0.018": 1.08215454355,
			"-0.017": 0.930862034808,
			"-0.016": 1.04138202601,
			"-0.015": 1.19946768849,
			"-0.014": 0.466180207624,
			"-0.013": 1.0854436069,
			"-0.012": 1.67392794835,
			"-0.011": 2.39557202349,
			"-0.01": 4.23759879307,
			"-0.009": 3.67662008471,
			"-0.008": 5.39704599603,
			"-0.007": 7.97933062793,
			"-0.006": 8.58097152162,
			"-0.005": 7.7940222407,
			"-0.004": 6.93566936789,
			"-0.003": 8.06139852941,
			"-0.002": 9.43948935876,
			"-0.001": 8.534526791,
			"0.0": 13.0684384154,
			"0.001": 16.4610299321,
			"0.002": 22.4555257565,
			"0.003": 23.527638199,
			"0.004": 10.8089150718,
			"0.005": 4.16008531184,
			"0.006": 4.14591561869,
			"0.007": 3.66381829351,
			"0.008": 2.71539261944,
			"0.009": 3.11653023951,
			"0.01": 4.92266668748,
			"0.011": 5.29272155479,
			"0.012": 4.85948511906,
			"0.013": 1.44254727471,
			"0.014": 0.0451527357222,
			"0.015": 0.0,
			"0.016": 0.0,
			"0.017": 0.0,
			"0.018": 0.0,
			"0.019": 0.0,
			"0.02": 0.0,
			"0.021": 0.0,
			"0.022": 0.0,
			"0.023": 0.0,
			"0.024": 0.0,
			"0.025": 0.0
		}
	}
}
