{
	 "smiles": "CC(=O)OC1CCC2(C)C(CCC3C4CCC(OC(C)=O)(C#CC5=CC=CC=C5)C4(C)CCC23)C1", 
	 "Tm": 439.15, 
	 "num_atms": 75, 
	 "gaussian": { 
		 "optdone": 1, 
		 "sigma_profile": "yes", 
		 "theory": "DFT", 
		 "functional": "B3LYP", 
		 "basiset": "6-31G**", 
		 "properties": { 
			 "R2extent": 18550.6242, 
			 "electric_dipole_moment_norm": 3.00908776874, 
			 "electric_quadrupole_moment_norm": 21.7126799643, 
			 "total_energy": -1506.2865887, 
			 "HOMO_LUMO_gap": 0.19601, 
			 "cosmo_polarized_energy": -15.72, 
			 "cosmo_cavitation_energy": 69.0, 
			 "cosmo_dispersion_energy": -43.21, 
			 "cosmo_repulsion_energy": 3.29, 
			 "cosmo_total_nonelectrostatic_energy": 29.08, 
			 "SMD_solvation_energy": 12.04 
		},
		"coords": [
			{
				"x": 1.5429013032,
				"y": 2.4407800072,
				"z": -6.2986494124,
				"element": "C" 
			},
			{
				"x": 1.5829083009,
				"y": 3.326543842,
				"z": -5.0738467719,
				"element": "C" 
			},
			{
				"x": 2.1201679917,
				"y": 4.4123148878,
				"z": -5.0153870309,
				"element": "O" 
			},
			{
				"x": 0.9302117303,
				"y": 2.7443624253,
				"z": -4.0430343477,
				"element": "O" 
			},
			{
				"x": 0.8665188446,
				"y": 3.4912310798,
				"z": -2.793244815,
				"element": "C" 
			},
			{
				"x": -0.3992598514,
				"y": 3.0022574681,
				"z": -2.0778564469,
				"element": "C" 
			},
			{
				"x": -0.3262076769,
				"y": 3.2989603348,
				"z": -0.5740758196,
				"element": "C" 
			},
			{
				"x": 0.8554206113,
				"y": 2.5755963152,
				"z": 0.1600707332,
				"element": "C" 
			},
			{
				"x": 1.4114200652,
				"y": 3.5700478699,
				"z": 1.2044328488,
				"element": "C" 
			},
			{
				"x": 1.9204097706,
				"y": 2.1622896865,
				"z": -0.9002871391,
				"element": "C" 
			},
			{
				"x": 3.2140631017,
				"y": 1.6527393445,
				"z": -0.2495678475,
				"element": "C" 
			},
			{
				"x": 2.9332377811,
				"y": 0.766687145,
				"z": 0.9869993257,
				"element": "C" 
			},
			{
				"x": 1.5025752287,
				"y": 0.1769440443,
				"z": 1.047400469,
				"element": "C" 
			},
			{
				"x": 1.3789915059,
				"y": -0.6171765646,
				"z": 2.3819788685,
				"element": "C" 
			},
			{
				"x": 2.1466769177,
				"y": -1.9767906371,
				"z": 2.304575261,
				"element": "C" 
			},
			{
				"x": 1.1541881671,
				"y": -3.077301749,
				"z": 2.7148066359,
				"element": "C" 
			},
			{
				"x": -0.2431970073,
				"y": -2.4669618927,
				"z": 2.4590589983,
				"element": "C" 
			},
			{
				"x": -1.1489995458,
				"y": -3.2487409101,
				"z": 3.30261029,
				"element": "O" 
			},
			{
				"x": -2.4949875366,
				"y": -3.1258099103,
				"z": 3.2006415349,
				"element": "C" 
			},
			{
				"x": -3.1717648522,
				"y": -4.1457185659,
				"z": 4.0902742176,
				"element": "C" 
			},
			{
				"x": -3.071044269,
				"y": -2.3258086801,
				"z": 2.4995200034,
				"element": "O" 
			},
			{
				"x": -0.6007804327,
				"y": -2.6118915828,
				"z": 1.0452584367,
				"element": "C" 
			},
			{
				"x": -0.8413121661,
				"y": -2.7773601453,
				"z": -0.1322827929,
				"element": "C" 
			},
			{
				"x": -1.1942824432,
				"y": -2.949424683,
				"z": -1.5063449425,
				"element": "C" 
			},
			{
				"x": -2.5291174236,
				"y": -2.7642441168,
				"z": -1.9177395402,
				"element": "C" 
			},
			{
				"x": -2.881022667,
				"y": -2.934506405,
				"z": -3.2542218445,
				"element": "C" 
			},
			{
				"x": -1.9132669801,
				"y": -3.2862319638,
				"z": -4.1989107118,
				"element": "C" 
			},
			{
				"x": -0.5871802327,
				"y": -3.4703975422,
				"z": -3.8000520175,
				"element": "C" 
			},
			{
				"x": -0.226630977,
				"y": -3.3065616616,
				"z": -2.4646138276,
				"element": "C" 
			},
			{
				"x": -0.0644876516,
				"y": -0.9626196016,
				"z": 2.9078020844,
				"element": "C" 
			},
			{
				"x": -0.039994708,
				"y": -0.8865482873,
				"z": 4.4514983984,
				"element": "C" 
			},
			{
				"x": -1.1394365693,
				"y": 0.0263773652,
				"z": 2.3943006129,
				"element": "C" 
			},
			{
				"x": -0.5300814952,
				"y": 1.3906553603,
				"z": 2.0472731467,
				"element": "C" 
			},
			{
				"x": 0.3620823842,
				"y": 1.2396370028,
				"z": 0.8065446444,
				"element": "C" 
			},
			{
				"x": 2.1403972015,
				"y": 3.2557740393,
				"z": -1.9507042067,
				"element": "C" 
			},
			{
				"x": 1.9963074039,
				"y": 1.4705012001,
				"z": -6.0752827576,
				"element": "H" 
			},
			{
				"x": 0.5058036963,
				"y": 2.254125693,
				"z": -6.5928548338,
				"element": "H" 
			},
			{
				"x": 2.0799777481,
				"y": 2.9241983599,
				"z": -7.1141557655,
				"element": "H" 
			},
			{
				"x": 0.7895782134,
				"y": 4.5495905894,
				"z": -3.0536743918,
				"element": "H" 
			},
			{
				"x": -1.2824790439,
				"y": 3.4743328106,
				"z": -2.5213133412,
				"element": "H" 
			},
			{
				"x": -0.5057931048,
				"y": 1.9254297753,
				"z": -2.2508519304,
				"element": "H" 
			},
			{
				"x": -1.2800211188,
				"y": 3.038898855,
				"z": -0.1029866031,
				"element": "H" 
			},
			{
				"x": -0.2196973048,
				"y": 4.3839536653,
				"z": -0.4438265443,
				"element": "H" 
			},
			{
				"x": 0.6004224385,
				"y": 3.9487665657,
				"z": 1.8351610134,
				"element": "H" 
			},
			{
				"x": 1.8654248013,
				"y": 4.4387122486,
				"z": 0.7150004031,
				"element": "H" 
			},
			{
				"x": 2.1617349645,
				"y": 3.1353631912,
				"z": 1.8677131233,
				"element": "H" 
			},
			{
				"x": 1.4914817858,
				"y": 1.3043857916,
				"z": -1.4374311454,
				"element": "H" 
			},
			{
				"x": 3.7836939052,
				"y": 1.0935358438,
				"z": -1.002008673,
				"element": "H" 
			},
			{
				"x": 3.8504309979,
				"y": 2.4980882775,
				"z": 0.0415148796,
				"element": "H" 
			},
			{
				"x": 3.1054405907,
				"y": 1.344684326,
				"z": 1.9024334678,
				"element": "H" 
			},
			{
				"x": 3.6575291612,
				"y": -0.0551277072,
				"z": 1.0267880364,
				"element": "H" 
			},
			{
				"x": 1.4194254407,
				"y": -0.5533259549,
				"z": 0.2334715592,
				"element": "H" 
			},
			{
				"x": 1.8411964279,
				"y": 0.0107025374,
				"z": 3.1529953742,
				"element": "H" 
			},
			{
				"x": 3.0368372491,
				"y": -1.990218807,
				"z": 2.9401857897,
				"element": "H" 
			},
			{
				"x": 2.4919663603,
				"y": -2.1479465906,
				"z": 1.2798644222,
				"element": "H" 
			},
			{
				"x": 1.2891312678,
				"y": -4.0124093309,
				"z": 2.1664701489,
				"element": "H" 
			},
			{
				"x": 1.2227796576,
				"y": -3.3102052903,
				"z": 3.7807527166,
				"element": "H" 
			},
			{
				"x": -2.7723315148,
				"y": -4.0935597487,
				"z": 5.1067331272,
				"element": "H" 
			},
			{
				"x": -2.9722511259,
				"y": -5.1533790195,
				"z": 3.7123431205,
				"element": "H" 
			},
			{
				"x": -4.245959968,
				"y": -3.9629669648,
				"z": 4.0966379546,
				"element": "H" 
			},
			{
				"x": -3.2734048962,
				"y": -2.4902825122,
				"z": -1.1769642131,
				"element": "H" 
			},
			{
				"x": -3.9132334605,
				"y": -2.7908110277,
				"z": -3.5603828575,
				"element": "H" 
			},
			{
				"x": -2.1913883709,
				"y": -3.4166461237,
				"z": -5.2407149671,
				"element": "H" 
			},
			{
				"x": 0.1679495003,
				"y": -3.7447134407,
				"z": -4.5311001128,
				"element": "H" 
			},
			{
				"x": 0.8019471391,
				"y": -3.4522833278,
				"z": -2.1500441724,
				"element": "H" 
			},
			{
				"x": 0.7775379246,
				"y": -1.4618196085,
				"z": 4.8959262985,
				"element": "H" 
			},
			{
				"x": 0.0919265778,
				"y": 0.1572379737,
				"z": 4.7553662959,
				"element": "H" 
			},
			{
				"x": -0.9786977422,
				"y": -1.242534398,
				"z": 4.8839680964,
				"element": "H" 
			},
			{
				"x": -1.6309266787,
				"y": -0.3741284136,
				"z": 1.5039222355,
				"element": "H" 
			},
			{
				"x": -1.9268454221,
				"y": 0.131115243,
				"z": 3.1472644294,
				"element": "H" 
			},
			{
				"x": -1.3363749669,
				"y": 2.1069398948,
				"z": 1.8508568225,
				"element": "H" 
			},
			{
				"x": 0.0345107115,
				"y": 1.7927169031,
				"z": 2.8990366589,
				"element": "H" 
			},
			{
				"x": -0.2902451642,
				"y": 0.7907297064,
				"z": 0.0433470152,
				"element": "H" 
			},
			{
				"x": 2.4287692727,
				"y": 4.1959916213,
				"z": -1.4649549486,
				"element": "H" 
			},
			{
				"x": 2.968830226,
				"y": 2.9980538741,
				"z": -2.6183327268,
				"element": "H" 
			}
		],
		 "valence_orbital": [ 
			{
				"type": "occ",
				"energy": -0.26459,
				"method": "rhf"
			},
			{
				"type": "occ",
				"energy": -0.25977,
				"method": "rhf"
			},
			{
				"type": "occ",
				"energy": -0.2556,
				"method": "rhf"
			},
			{
				"type": "occ",
				"energy": -0.25086,
				"method": "rhf"
			},
			{
				"type": "occ",
				"energy": -0.22702,
				"method": "rhf"
			},
			{
				"type": "unocc",
				"energy": -0.03101,
				"method": "rhf"
			},
			{
				"type": "unocc",
				"energy": -0.00463,
				"method": "rhf"
			},
			{
				"type": "unocc",
				"energy": 0.01343,
				"method": "rhf"
			},
			{
				"type": "unocc",
				"energy": 0.0204,
				"method": "rhf"
			},
			{
				"type": "unocc",
				"energy": 0.03752,
				"method": "rhf"
			}
		],
		"cosmo_sigma_profile": { 
			"-0.025": 0.0,
			"-0.024": 0.0,
			"-0.023": 0.0,
			"-0.022": 0.0,
			"-0.021": 0.0,
			"-0.02": 0.0,
			"-0.019": 0.0,
			"-0.018": 0.0,
			"-0.017": 0.0,
			"-0.016": 0.0,
			"-0.015": 0.0,
			"-0.014": 0.0,
			"-0.013": 0.0,
			"-0.012": 0.0,
			"-0.011": 0.0,
			"-0.01": 0.0,
			"-0.009": 0.0,
			"-0.008": 0.0,
			"-0.007": 1.60103516091,
			"-0.006": 16.0166783724,
			"-0.005": 22.1112026153,
			"-0.004": 33.6659267541,
			"-0.003": 54.4324066527,
			"-0.002": 77.5670875652,
			"-0.001": 80.3239078842,
			"0.0": 65.7132777761,
			"0.001": 47.0959596505,
			"0.002": 31.4849393995,
			"0.003": 25.5864057965,
			"0.004": 21.5505275951,
			"0.005": 17.3453306115,
			"0.006": 6.2359790891,
			"0.007": 6.28630768728,
			"0.008": 5.67088693862,
			"0.009": 4.61008756853,
			"0.01": 4.20239875946,
			"0.011": 4.32403521096,
			"0.012": 6.77547950697,
			"0.013": 4.0066474877,
			"0.014": 0.18338481453,
			"0.015": 0.0,
			"0.016": 0.0,
			"0.017": 0.0,
			"0.018": 0.0,
			"0.019": 0.0,
			"0.02": 0.0,
			"0.021": 0.0,
			"0.022": 0.0,
			"0.023": 0.0,
			"0.024": 0.0,
			"0.025": 0.0
		}
	}
}
