{
	 "smiles": "CC(C)(C)C(=O)N1CCC(CC1)C(O)=O", 
	 "Tm": 394.15, 
	 "num_atms": 34, 
	 "gaussian": { 
		 "optdone": 1, 
		 "sigma_profile": "yes", 
		 "theory": "DFT", 
		 "functional": "B3LYP", 
		 "basiset": "6-31G**", 
		 "properties": { 
			 "R2extent": 4178.7333, 
			 "electric_dipole_moment_norm": 3.14547189782, 
			 "electric_quadrupole_moment_norm": 26.0612120549, 
			 "total_energy": -711.076590313, 
			 "HOMO_LUMO_gap": 0.23217, 
			 "cosmo_polarized_energy": -19.13, 
			 "cosmo_cavitation_energy": 33.47, 
			 "cosmo_dispersion_energy": -23.61, 
			 "cosmo_repulsion_energy": 1.82, 
			 "cosmo_total_nonelectrostatic_energy": 11.68, 
			 "SMD_solvation_energy": 6.44 
		},
		"coords": [
			{
				"x": 3.0401669645,
				"y": 0.2617215688,
				"z": 1.593806961,
				"element": "C" 
			},
			{
				"x": 2.1973099213,
				"y": -0.2595332734,
				"z": 0.4105394103,
				"element": "C" 
			},
			{
				"x": 2.9605260413,
				"y": 0.0840126814,
				"z": -0.8904992864,
				"element": "C" 
			},
			{
				"x": 2.0406188234,
				"y": -1.7882584672,
				"z": 0.595475288,
				"element": "C" 
			},
			{
				"x": 0.8220776315,
				"y": 0.4715378717,
				"z": 0.4771870059,
				"element": "C" 
			},
			{
				"x": 0.6048004583,
				"y": 1.2540191438,
				"z": 1.401775547,
				"element": "O" 
			},
			{
				"x": -0.1433386021,
				"y": 0.2780589852,
				"z": -0.4946150191,
				"element": "N" 
			},
			{
				"x": -0.1762312648,
				"y": -0.6800375572,
				"z": -1.601165173,
				"element": "C" 
			},
			{
				"x": -1.3277859475,
				"y": -1.6864282873,
				"z": -1.4298897988,
				"element": "C" 
			},
			{
				"x": -2.6891315534,
				"y": -0.9987484601,
				"z": -1.2217804161,
				"element": "C" 
			},
			{
				"x": -2.5770908373,
				"y": 0.0886725084,
				"z": -0.1208881787,
				"element": "C" 
			},
			{
				"x": -1.3945398268,
				"y": 1.0321909626,
				"z": -0.3754657939,
				"element": "C" 
			},
			{
				"x": -3.231070367,
				"y": -0.4197114748,
				"z": -2.532879704,
				"element": "C" 
			},
			{
				"x": -4.503104114,
				"y": 0.0609916573,
				"z": -2.4780862244,
				"element": "O" 
			},
			{
				"x": -2.6204478264,
				"y": -0.3671485456,
				"z": -3.5729010486,
				"element": "O" 
			},
			{
				"x": 3.1843505083,
				"y": 1.3423460391,
				"z": 1.5313883377,
				"element": "H" 
			},
			{
				"x": 4.0213528078,
				"y": -0.2252886553,
				"z": 1.583432413,
				"element": "H" 
			},
			{
				"x": 2.5541455791,
				"y": 0.0534204078,
				"z": 2.5490710306,
				"element": "H" 
			},
			{
				"x": 3.0749814811,
				"y": 1.1679948381,
				"z": -0.9927611983,
				"element": "H" 
			},
			{
				"x": 3.9643625754,
				"y": -0.3528026473,
				"z": -0.8499813371,
				"element": "H" 
			},
			{
				"x": 2.481739233,
				"y": -0.2850471074,
				"z": -1.7995811496,
				"element": "H" 
			},
			{
				"x": 3.0315405436,
				"y": -2.2475752909,
				"z": 0.6797419041,
				"element": "H" 
			},
			{
				"x": 1.5232557294,
				"y": -2.2868716357,
				"z": -0.226988336,
				"element": "H" 
			},
			{
				"x": 1.4947379152,
				"y": -2.0100791951,
				"z": 1.5185688348,
				"element": "H" 
			},
			{
				"x": -0.3174026474,
				"y": -0.1325867588,
				"z": -2.5402074516,
				"element": "H" 
			},
			{
				"x": 0.7643662067,
				"y": -1.2151115882,
				"z": -1.6741884319,
				"element": "H" 
			},
			{
				"x": -1.1222134968,
				"y": -2.3175927021,
				"z": -0.55716465,
				"element": "H" 
			},
			{
				"x": -1.3695207287,
				"y": -2.3342084621,
				"z": -2.3105309436,
				"element": "H" 
			},
			{
				"x": -3.4204685081,
				"y": -1.7518290504,
				"z": -0.8931415297,
				"element": "H" 
			},
			{
				"x": -3.5008418702,
				"y": 0.675603608,
				"z": -0.0426314182,
				"element": "H" 
			},
			{
				"x": -2.4320943745,
				"y": -0.4053146467,
				"z": 0.8462856696,
				"element": "H" 
			},
			{
				"x": -1.5539020098,
				"y": 1.5959352542,
				"z": -1.3056908167,
				"element": "H" 
			},
			{
				"x": -1.278032994,
				"y": 1.7383897501,
				"z": 0.4446806428,
				"element": "H" 
			},
			{
				"x": -4.875215451,
				"y": -0.0693214709,
				"z": -1.5943151392,
				"element": "H" 
			}
		],
		 "valence_orbital": [ 
			{
				"type": "occ",
				"energy": -0.32424,
				"method": "rhf"
			},
			{
				"type": "occ",
				"energy": -0.31989,
				"method": "rhf"
			},
			{
				"type": "occ",
				"energy": -0.27683,
				"method": "rhf"
			},
			{
				"type": "occ",
				"energy": -0.23958,
				"method": "rhf"
			},
			{
				"type": "occ",
				"energy": -0.23337,
				"method": "rhf"
			},
			{
				"type": "unocc",
				"energy": -0.0012,
				"method": "rhf"
			},
			{
				"type": "unocc",
				"energy": 0.02633,
				"method": "rhf"
			},
			{
				"type": "unocc",
				"energy": 0.04345,
				"method": "rhf"
			},
			{
				"type": "unocc",
				"energy": 0.07449,
				"method": "rhf"
			},
			{
				"type": "unocc",
				"energy": 0.09805,
				"method": "rhf"
			}
		],
		"cosmo_sigma_profile": { 
			"-0.025": 0.0,
			"-0.024": 0.0,
			"-0.023": 0.0,
			"-0.022": 0.0,
			"-0.021": 0.0,
			"-0.02": 0.0,
			"-0.019": 0.209097366178,
			"-0.018": 1.05255968434,
			"-0.017": 1.20957129126,
			"-0.016": 0.883656683248,
			"-0.015": 1.2550691359,
			"-0.014": 1.19329969319,
			"-0.013": 0.967838505989,
			"-0.012": 0.71378314542,
			"-0.011": 1.17963093281,
			"-0.01": 1.3345403244,
			"-0.009": 1.19419425232,
			"-0.008": 1.92787538847,
			"-0.007": 3.48310981251,
			"-0.006": 5.35130303905,
			"-0.005": 8.98279655693,
			"-0.004": 19.6910346074,
			"-0.003": 35.7678167095,
			"-0.002": 33.8989178044,
			"-0.001": 27.6910298978,
			"0.0": 23.5029592707,
			"0.001": 20.4840556093,
			"0.002": 10.1920720615,
			"0.003": 5.26751250655,
			"0.004": 3.35515070041,
			"0.005": 4.00686029752,
			"0.006": 4.04972773598,
			"0.007": 3.93921010638,
			"0.008": 4.40646561033,
			"0.009": 4.19496534471,
			"0.01": 6.25897130108,
			"0.011": 6.35094513176,
			"0.012": 6.04904262711,
			"0.013": 3.53311428847,
			"0.014": 4.11920727757,
			"0.015": 1.65202659867,
			"0.016": 0.0,
			"0.017": 0.0,
			"0.018": 0.0,
			"0.019": 0.0,
			"0.02": 0.0,
			"0.021": 0.0,
			"0.022": 0.0,
			"0.023": 0.0,
			"0.024": 0.0,
			"0.025": 0.0
		}
	}
}
