{
	 "smiles": "CC1=NNC(N)=C1C1=CC2=C(OCCO2)C=C1", 
	 "Tm": 394.15, 
	 "num_atms": 30, 
	 "gaussian": { 
		 "optdone": 1, 
		 "sigma_profile": "yes", 
		 "theory": "DFT", 
		 "functional": "B3LYP", 
		 "basiset": "6-31G**", 
		 "properties": { 
			 "R2extent": 4959.1599, 
			 "electric_dipole_moment_norm": 3.31562576447, 
			 "electric_quadrupole_moment_norm": 18.7102193934, 
			 "total_energy": -779.784657996, 
			 "HOMO_LUMO_gap": 0.18744, 
			 "cosmo_polarized_energy": -18.08, 
			 "cosmo_cavitation_energy": 32.99, 
			 "cosmo_dispersion_energy": -24.6, 
			 "cosmo_repulsion_energy": 1.92, 
			 "cosmo_total_nonelectrostatic_energy": 10.3, 
			 "SMD_solvation_energy": 4.64 
		},
		"coords": [
			{
				"x": -2.193843615,
				"y": -2.3804050525,
				"z": -0.1579612717,
				"element": "C" 
			},
			{
				"x": -1.0001469573,
				"y": -2.4951983929,
				"z": -1.0576588731,
				"element": "C" 
			},
			{
				"x": -0.9533849818,
				"y": -3.4633878329,
				"z": -1.965251639,
				"element": "N" 
			},
			{
				"x": 0.2429493019,
				"y": -3.2781299216,
				"z": -2.5989326113,
				"element": "N" 
			},
			{
				"x": 0.9340546716,
				"y": -2.211171383,
				"z": -2.1251424025,
				"element": "C" 
			},
			{
				"x": 2.161766041,
				"y": -1.8279664417,
				"z": -2.6682756326,
				"element": "N" 
			},
			{
				"x": 0.1625413042,
				"y": -1.6592952944,
				"z": -1.1027125389,
				"element": "C" 
			},
			{
				"x": 0.5092668033,
				"y": -0.486492561,
				"z": -0.2859551409,
				"element": "C" 
			},
			{
				"x": 0.2810698824,
				"y": -0.4705154305,
				"z": 1.099719305,
				"element": "C" 
			},
			{
				"x": 0.6159637463,
				"y": 0.637846867,
				"z": 1.8744237855,
				"element": "C" 
			},
			{
				"x": 1.2003459322,
				"y": 1.7676000984,
				"z": 1.2759794075,
				"element": "C" 
			},
			{
				"x": 1.5402276416,
				"y": 2.8847185946,
				"z": 2.0035694393,
				"element": "O" 
			},
			{
				"x": 0.9289382514,
				"y": 2.9346872427,
				"z": 3.2916645921,
				"element": "C" 
			},
			{
				"x": 1.0483128578,
				"y": 1.5843288698,
				"z": 3.9802028532,
				"element": "C" 
			},
			{
				"x": 0.366103939,
				"y": 0.5836109009,
				"z": 3.2256696717,
				"element": "O" 
			},
			{
				"x": 1.4449713581,
				"y": 1.760658465,
				"z": -0.0961061625,
				"element": "C" 
			},
			{
				"x": 1.1018324261,
				"y": 0.6530290501,
				"z": -0.8683446981,
				"element": "C" 
			},
			{
				"x": -1.9812479962,
				"y": -2.7374852706,
				"z": 0.8567381329,
				"element": "H" 
			},
			{
				"x": -2.5285193567,
				"y": -1.3416622313,
				"z": -0.0726343072,
				"element": "H" 
			},
			{
				"x": -3.010625394,
				"y": -2.9844015925,
				"z": -0.5597952275,
				"element": "H" 
			},
			{
				"x": 0.4662076124,
				"y": -3.8434964435,
				"z": -3.4021940128,
				"element": "H" 
			},
			{
				"x": 2.7908729263,
				"y": -2.608116516,
				"z": -2.8279602122,
				"element": "H" 
			},
			{
				"x": 2.6179447285,
				"y": -1.1331933337,
				"z": -2.087600216,
				"element": "H" 
			},
			{
				"x": -0.1417518139,
				"y": -1.3314298855,
				"z": 1.6055298487,
				"element": "H" 
			},
			{
				"x": 1.44956153,
				"y": 3.7145566511,
				"z": 3.853516436,
				"element": "H" 
			},
			{
				"x": -0.1303475888,
				"y": 3.2105696432,
				"z": 3.1942299431,
				"element": "H" 
			},
			{
				"x": 2.1080665279,
				"y": 1.3146612945,
				"z": 4.0890437023,
				"element": "H" 
			},
			{
				"x": 0.5821443578,
				"y": 1.5995169365,
				"z": 4.9688359757,
				"element": "H" 
			},
			{
				"x": 1.8843844655,
				"y": 2.6461619934,
				"z": -0.5446819727,
				"element": "H" 
			},
			{
				"x": 1.2491413985,
				"y": 0.6907009765,
				"z": -1.9436161739,
				"element": "H" 
			}
		],
		 "valence_orbital": [ 
			{
				"type": "occ",
				"energy": -0.27137,
				"method": "rhf"
			},
			{
				"type": "occ",
				"energy": -0.24669,
				"method": "rhf"
			},
			{
				"type": "occ",
				"energy": -0.22648,
				"method": "rhf"
			},
			{
				"type": "occ",
				"energy": -0.21296,
				"method": "rhf"
			},
			{
				"type": "occ",
				"energy": -0.18647,
				"method": "rhf"
			},
			{
				"type": "unocc",
				"energy": 0.00097,
				"method": "rhf"
			},
			{
				"type": "unocc",
				"energy": 0.0097,
				"method": "rhf"
			},
			{
				"type": "unocc",
				"energy": 0.04173,
				"method": "rhf"
			},
			{
				"type": "unocc",
				"energy": 0.07557,
				"method": "rhf"
			},
			{
				"type": "unocc",
				"energy": 0.0854,
				"method": "rhf"
			}
		],
		"cosmo_sigma_profile": { 
			"-0.025": 0.0,
			"-0.024": 0.0,
			"-0.023": 0.0,
			"-0.022": 0.0,
			"-0.021": 0.0,
			"-0.02": 0.0,
			"-0.019": 0.0,
			"-0.018": 0.0,
			"-0.017": 0.0,
			"-0.016": 0.792949577448,
			"-0.015": 1.74400212238,
			"-0.014": 1.70941018998,
			"-0.013": 3.25731160495,
			"-0.012": 2.33546578183,
			"-0.011": 3.35284933377,
			"-0.01": 3.4210784531,
			"-0.009": 2.48691058137,
			"-0.008": 2.76606681669,
			"-0.007": 6.93019978755,
			"-0.006": 15.3229366052,
			"-0.005": 19.3359870625,
			"-0.004": 17.0505542752,
			"-0.003": 17.4515960138,
			"-0.002": 13.2982740183,
			"-0.001": 15.4471772826,
			"0.0": 15.0076556784,
			"0.001": 13.6829307564,
			"0.002": 12.5923339198,
			"0.003": 12.949568024,
			"0.004": 17.9759792062,
			"0.005": 20.234868931,
			"0.006": 9.65316883724,
			"0.007": 5.57268915147,
			"0.008": 5.07571844785,
			"0.009": 5.42671184508,
			"0.01": 3.90049042117,
			"0.011": 3.52225081739,
			"0.012": 2.15388419992,
			"0.013": 1.98312590016,
			"0.014": 1.54793823791,
			"0.015": 1.22350431752,
			"0.016": 1.06114115989,
			"0.017": 0.94142095267,
			"0.018": 0.0995149923209,
			"0.019": 0.0,
			"0.02": 0.0,
			"0.021": 0.0,
			"0.022": 0.0,
			"0.023": 0.0,
			"0.024": 0.0,
			"0.025": 0.0
		}
	}
}
