{
	 "smiles": "CN1N=C(C=C1CO)C1=CC=CS1", 
	 "Tm": 368.65, 
	 "num_atms": 23, 
	 "gaussian": { 
		 "optdone": 1, 
		 "sigma_profile": "yes", 
		 "theory": "DFT", 
		 "functional": "B3LYP", 
		 "basiset": "6-31G**", 
		 "properties": { 
			 "R2extent": 3567.1556, 
			 "electric_dipole_moment_norm": 1.17752070895, 
			 "electric_quadrupole_moment_norm": 4.55115636515, 
			 "total_energy": -931.858981841, 
			 "HOMO_LUMO_gap": 0.17773, 
			 "cosmo_polarized_energy": -11.76, 
			 "cosmo_cavitation_energy": 28.61, 
			 "cosmo_dispersion_energy": -21.49, 
			 "cosmo_repulsion_energy": 1.66, 
			 "cosmo_total_nonelectrostatic_energy": 8.78, 
			 "SMD_solvation_energy": 4.1 
		},
		"coords": [
			{
				"x": -2.8662572367,
				"y": 1.2985498298,
				"z": 1.9559394707,
				"element": "C" 
			},
			{
				"x": -1.8299678233,
				"y": 1.0895538953,
				"z": 0.958250454,
				"element": "N" 
			},
			{
				"x": -1.4307668972,
				"y": -0.1642152176,
				"z": 0.6693484538,
				"element": "N" 
			},
			{
				"x": -0.5191007835,
				"y": -0.029999031,
				"z": -0.3061645793,
				"element": "C" 
			},
			{
				"x": -0.3386914639,
				"y": 1.3363141218,
				"z": -0.6385252786,
				"element": "C" 
			},
			{
				"x": -1.2024878896,
				"y": 2.0305971888,
				"z": 0.1904015875,
				"element": "C" 
			},
			{
				"x": -1.4598861085,
				"y": 3.5020302309,
				"z": 0.3126657654,
				"element": "C" 
			},
			{
				"x": -1.2081425302,
				"y": 4.0186662552,
				"z": 1.6203873426,
				"element": "O" 
			},
			{
				"x": 0.138642454,
				"y": -1.2059248421,
				"z": -0.8613126803,
				"element": "C" 
			},
			{
				"x": -0.0415894853,
				"y": -2.5238139832,
				"z": -0.5120350835,
				"element": "C" 
			},
			{
				"x": 0.7692262722,
				"y": -3.4224532745,
				"z": -1.2637137373,
				"element": "C" 
			},
			{
				"x": 1.5619112064,
				"y": -2.7874353805,
				"z": -2.1803074938,
				"element": "C" 
			},
			{
				"x": 1.3273792594,
				"y": -1.0683161675,
				"z": -2.1387779166,
				"element": "S" 
			},
			{
				"x": -3.863458238,
				"y": 1.2466608349,
				"z": 1.5047760961,
				"element": "H" 
			},
			{
				"x": -2.777090628,
				"y": 0.5116594642,
				"z": 2.7055230357,
				"element": "H" 
			},
			{
				"x": -2.7188138225,
				"y": 2.2752408236,
				"z": 2.4181502967,
				"element": "H" 
			},
			{
				"x": 0.329128492,
				"y": 1.761028837,
				"z": -1.3742142466,
				"element": "H" 
			},
			{
				"x": -2.5109801052,
				"y": 3.7378638549,
				"z": 0.1126101626,
				"element": "H" 
			},
			{
				"x": -0.8622701088,
				"y": 4.020107657,
				"z": -0.4500343206,
				"element": "H" 
			},
			{
				"x": -0.2990513617,
				"y": 3.7854483892,
				"z": 1.8531525871,
				"element": "H" 
			},
			{
				"x": -0.7378709126,
				"y": -2.8221938461,
				"z": 0.2620860015,
				"element": "H" 
			},
			{
				"x": 0.7622570126,
				"y": -4.4980930028,
				"z": -1.1272601463,
				"element": "H" 
			},
			{
				"x": 2.2672806986,
				"y": -3.2183766373,
				"z": -2.8768457707,
				"element": "H" 
			}
		],
		 "valence_orbital": [ 
			{
				"type": "occ",
				"energy": -0.28303,
				"method": "rhf"
			},
			{
				"type": "occ",
				"energy": -0.27564,
				"method": "rhf"
			},
			{
				"type": "occ",
				"energy": -0.24829,
				"method": "rhf"
			},
			{
				"type": "occ",
				"energy": -0.24181,
				"method": "rhf"
			},
			{
				"type": "occ",
				"energy": -0.20137,
				"method": "rhf"
			},
			{
				"type": "unocc",
				"energy": -0.02364,
				"method": "rhf"
			},
			{
				"type": "unocc",
				"energy": 0.00954,
				"method": "rhf"
			},
			{
				"type": "unocc",
				"energy": 0.03574,
				"method": "rhf"
			},
			{
				"type": "unocc",
				"energy": 0.05971,
				"method": "rhf"
			},
			{
				"type": "unocc",
				"energy": 0.08379,
				"method": "rhf"
			}
		],
		"cosmo_sigma_profile": { 
			"-0.025": 0.0,
			"-0.024": 0.0,
			"-0.023": 0.0,
			"-0.022": 0.0,
			"-0.021": 0.0,
			"-0.02": 0.0,
			"-0.019": 0.0,
			"-0.018": 0.0,
			"-0.017": 0.0,
			"-0.016": 0.543009613178,
			"-0.015": 0.850771401623,
			"-0.014": 1.20417770688,
			"-0.013": 0.662410110082,
			"-0.012": 0.436557206765,
			"-0.011": 1.1555992303,
			"-0.01": 0.913388688462,
			"-0.009": 1.09281381562,
			"-0.008": 2.47977941157,
			"-0.007": 5.07513930281,
			"-0.006": 14.4304033893,
			"-0.005": 19.5504685029,
			"-0.004": 19.1556213565,
			"-0.003": 20.5122812732,
			"-0.002": 14.1461294386,
			"-0.001": 11.0950615609,
			"0.0": 10.4785518917,
			"0.001": 11.2345395905,
			"0.002": 12.9924047127,
			"0.003": 15.3408777499,
			"0.004": 21.3673192276,
			"0.005": 19.2973366214,
			"0.006": 7.70430969247,
			"0.007": 2.30193414049,
			"0.008": 2.51116058809,
			"0.009": 2.99639086201,
			"0.01": 2.62145317672,
			"0.011": 2.30384882732,
			"0.012": 1.94722500913,
			"0.013": 2.41939718363,
			"0.014": 1.26697731468,
			"0.015": 0.0,
			"0.016": 0.0,
			"0.017": 0.0,
			"0.018": 0.0,
			"0.019": 0.0,
			"0.02": 0.0,
			"0.021": 0.0,
			"0.022": 0.0,
			"0.023": 0.0,
			"0.024": 0.0,
			"0.025": 0.0
		}
	}
}
