{
	 "smiles": "OC(=O)C1(CCCC1)NC(=O)C1=CC2=C(NN=C2)C=C1", 
	 "Tm": 559.15, 
	 "num_atms": 35, 
	 "gaussian": { 
		 "optdone": 1, 
		 "sigma_profile": "yes", 
		 "theory": "DFT", 
		 "functional": "B3LYP", 
		 "basiset": "6-31G**", 
		 "properties": { 
			 "R2extent": 6288.4484, 
			 "electric_dipole_moment_norm": 3.49579387407, 
			 "electric_quadrupole_moment_norm": 23.1772634364, 
			 "total_energy": -932.466628842, 
			 "HOMO_LUMO_gap": 0.18373, 
			 "cosmo_polarized_energy": -21.69, 
			 "cosmo_cavitation_energy": 37.01, 
			 "cosmo_dispersion_energy": -25.97, 
			 "cosmo_repulsion_energy": 1.97, 
			 "cosmo_total_nonelectrostatic_energy": 13.0, 
			 "SMD_solvation_energy": 6.39 
		},
		"coords": [
			{
				"x": 3.9604020767,
				"y": 1.1569877032,
				"z": -0.4529239591,
				"element": "O" 
			},
			{
				"x": 3.1940883739,
				"y": 1.2256213184,
				"z": -1.5616800314,
				"element": "C" 
			},
			{
				"x": 3.5697944125,
				"y": 0.7981609632,
				"z": -2.6271523742,
				"element": "O" 
			},
			{
				"x": 1.8431915397,
				"y": 1.9476719313,
				"z": -1.3744733939,
				"element": "C" 
			},
			{
				"x": 0.7002577984,
				"y": 1.3084472376,
				"z": -2.1923757794,
				"element": "C" 
			},
			{
				"x": -0.3365638926,
				"y": 2.4373826564,
				"z": -2.3869532175,
				"element": "C" 
			},
			{
				"x": 0.459548828,
				"y": 3.7692967704,
				"z": -2.2714048377,
				"element": "C" 
			},
			{
				"x": 1.9279103028,
				"y": 3.3495791788,
				"z": -2.0406562223,
				"element": "C" 
			},
			{
				"x": 1.5465829517,
				"y": 2.1497283654,
				"z": 0.0739701454,
				"element": "N" 
			},
			{
				"x": 0.575616078,
				"y": 1.5126841726,
				"z": 0.8748395622,
				"element": "C" 
			},
			{
				"x": -0.0758508508,
				"y": 2.2033403992,
				"z": 1.6493703685,
				"element": "O" 
			},
			{
				"x": 0.4035860934,
				"y": 0.0302909514,
				"z": 0.8356921997,
				"element": "C" 
			},
			{
				"x": 1.426299297,
				"y": -0.8571181777,
				"z": 0.5057177521,
				"element": "C" 
			},
			{
				"x": 1.1696999537,
				"y": -2.2348121884,
				"z": 0.5759160211,
				"element": "C" 
			},
			{
				"x": -0.1120271632,
				"y": -2.696495361,
				"z": 0.973115238,
				"element": "C" 
			},
			{
				"x": -0.0387688891,
				"y": -4.0571682556,
				"z": 0.934868296,
				"element": "N" 
			},
			{
				"x": 1.1880582624,
				"y": -4.5091145898,
				"z": 0.5481909501,
				"element": "N" 
			},
			{
				"x": 1.9171271487,
				"y": -3.4308279703,
				"z": 0.3331332126,
				"element": "C" 
			},
			{
				"x": -1.147617747,
				"y": -1.8106209765,
				"z": 1.3198331344,
				"element": "C" 
			},
			{
				"x": -0.865887901,
				"y": -0.4603065641,
				"z": 1.2556813099,
				"element": "C" 
			},
			{
				"x": 3.4260853792,
				"y": 1.5506052715,
				"z": 0.2677565216,
				"element": "H" 
			},
			{
				"x": 1.139641993,
				"y": 1.0063931957,
				"z": -3.1467393578,
				"element": "H" 
			},
			{
				"x": 0.2856207507,
				"y": 0.4136704204,
				"z": -1.7276223294,
				"element": "H" 
			},
			{
				"x": -0.8448024489,
				"y": 2.3396273995,
				"z": -3.3503753323,
				"element": "H" 
			},
			{
				"x": -1.1111786542,
				"y": 2.3894047718,
				"z": -1.6154424191,
				"element": "H" 
			},
			{
				"x": 0.0880070369,
				"y": 4.3666316395,
				"z": -1.432538414,
				"element": "H" 
			},
			{
				"x": 0.3682853322,
				"y": 4.3932481979,
				"z": -3.1647996023,
				"element": "H" 
			},
			{
				"x": 2.4517748614,
				"y": 3.2254687676,
				"z": -2.9925266959,
				"element": "H" 
			},
			{
				"x": 2.5065711342,
				"y": 4.0614059308,
				"z": -1.4406914655,
				"element": "H" 
			},
			{
				"x": 1.4973699635,
				"y": 3.1350644434,
				"z": 0.3168505926,
				"element": "H" 
			},
			{
				"x": 2.4134099504,
				"y": -0.5067582109,
				"z": 0.2296470991,
				"element": "H" 
			},
			{
				"x": -0.7548823692,
				"y": -4.7298448952,
				"z": 1.1575458094,
				"element": "H" 
			},
			{
				"x": 2.9442798095,
				"y": -3.5290391254,
				"z": 0.0085904258,
				"element": "H" 
			},
			{
				"x": -2.1237758577,
				"y": -2.1666823079,
				"z": 1.6336284463,
				"element": "H" 
			},
			{
				"x": -1.6168535542,
				"y": 0.2697769369,
				"z": 1.5358083469,
				"element": "H" 
			}
		],
		 "valence_orbital": [ 
			{
				"type": "occ",
				"energy": -0.29991,
				"method": "rhf"
			},
			{
				"type": "occ",
				"energy": -0.27632,
				"method": "rhf"
			},
			{
				"type": "occ",
				"energy": -0.25811,
				"method": "rhf"
			},
			{
				"type": "occ",
				"energy": -0.25089,
				"method": "rhf"
			},
			{
				"type": "occ",
				"energy": -0.23745,
				"method": "rhf"
			},
			{
				"type": "unocc",
				"energy": -0.05372,
				"method": "rhf"
			},
			{
				"type": "unocc",
				"energy": -0.03195,
				"method": "rhf"
			},
			{
				"type": "unocc",
				"energy": 0.00461,
				"method": "rhf"
			},
			{
				"type": "unocc",
				"energy": 0.03855,
				"method": "rhf"
			},
			{
				"type": "unocc",
				"energy": 0.05197,
				"method": "rhf"
			}
		],
		"cosmo_sigma_profile": { 
			"-0.025": 0.0,
			"-0.024": 0.0,
			"-0.023": 0.0,
			"-0.022": 0.0,
			"-0.021": 0.0,
			"-0.02": 0.0,
			"-0.019": 0.0,
			"-0.018": 0.0,
			"-0.017": 0.793159868718,
			"-0.016": 1.8176530781,
			"-0.015": 1.05503187933,
			"-0.014": 0.937107138877,
			"-0.013": 2.23935907621,
			"-0.012": 2.61859225749,
			"-0.011": 4.39482766413,
			"-0.01": 4.93769125926,
			"-0.009": 3.26163808453,
			"-0.008": 6.11841842853,
			"-0.007": 7.73577671114,
			"-0.006": 8.98764403647,
			"-0.005": 10.5441533628,
			"-0.004": 17.3451462947,
			"-0.003": 27.3915807488,
			"-0.002": 28.7596396928,
			"-0.001": 24.787717885,
			"0.0": 19.8790842393,
			"0.001": 19.3243233213,
			"0.002": 18.0122083407,
			"0.003": 14.3312759411,
			"0.004": 7.8181692657,
			"0.005": 6.12042246023,
			"0.006": 6.12508021974,
			"0.007": 4.37802660964,
			"0.008": 5.1144624655,
			"0.009": 6.42818861425,
			"0.01": 7.54410919733,
			"0.011": 7.13411739133,
			"0.012": 9.9019135926,
			"0.013": 5.91253648017,
			"0.014": 0.87704560828,
			"0.015": 0.700600061956,
			"0.016": 0.0,
			"0.017": 0.0,
			"0.018": 0.0,
			"0.019": 0.0,
			"0.02": 0.0,
			"0.021": 0.0,
			"0.022": 0.0,
			"0.023": 0.0,
			"0.024": 0.0,
			"0.025": 0.0
		}
	}
}
