{
	 "smiles": "CC(=O)C(C(C)=O)=C1SCCS1", 
	 "Tm": 364.15, 
	 "num_atms": 22, 
	 "gaussian": { 
		 "optdone": 1, 
		 "sigma_profile": "yes", 
		 "theory": "DFT", 
		 "functional": "B3LYP", 
		 "basiset": "6-31G**", 
		 "properties": { 
			 "R2extent": 3022.6945, 
			 "electric_dipole_moment_norm": 4.76543980132, 
			 "electric_quadrupole_moment_norm": 8.44769091646, 
			 "total_energy": -1257.68522189, 
			 "HOMO_LUMO_gap": 0.16778, 
			 "cosmo_polarized_energy": -13.66, 
			 "cosmo_cavitation_energy": 27.69, 
			 "cosmo_dispersion_energy": -21.31, 
			 "cosmo_repulsion_energy": 1.62, 
			 "cosmo_total_nonelectrostatic_energy": 7.99, 
			 "SMD_solvation_energy": 5.37 
		},
		"coords": [
			{
				"x": 0.2010045393,
				"y": 0.6446529552,
				"z": -4.2256334102,
				"element": "C" 
			},
			{
				"x": 0.4403552534,
				"y": -0.108969714,
				"z": -2.9338249713,
				"element": "C" 
			},
			{
				"x": 0.7436200979,
				"y": -1.3015402529,
				"z": -2.9780291493,
				"element": "O" 
			},
			{
				"x": 0.3489692939,
				"y": 0.5728137396,
				"z": -1.6151974175,
				"element": "C" 
			},
			{
				"x": 0.132889636,
				"y": 2.0577781788,
				"z": -1.5834180294,
				"element": "C" 
			},
			{
				"x": 0.9555176379,
				"y": 2.9446872896,
				"z": -0.653657863,
				"element": "C" 
			},
			{
				"x": -0.6519355271,
				"y": 2.5818997979,
				"z": -2.3605865987,
				"element": "O" 
			},
			{
				"x": 0.4250816277,
				"y": -0.2020165683,
				"z": -0.4801058172,
				"element": "C" 
			},
			{
				"x": 0.6768705599,
				"y": -1.9538330774,
				"z": -0.5084720025,
				"element": "S" 
			},
			{
				"x": 0.3381545796,
				"y": -2.2128761025,
				"z": 1.2886640026,
				"element": "C" 
			},
			{
				"x": 0.7952193148,
				"y": -0.9883704453,
				"z": 2.0586452931,
				"element": "C" 
			},
			{
				"x": 0.1787732726,
				"y": 0.4734037862,
				"z": 1.1411329728,
				"element": "S" 
			},
			{
				"x": -0.8302266277,
				"y": 1.0005378346,
				"z": -4.2781687301,
				"element": "H" 
			},
			{
				"x": 0.8349459844,
				"y": 1.5335925671,
				"z": -4.2966328385,
				"element": "H" 
			},
			{
				"x": 0.4161636696,
				"y": -0.0339297313,
				"z": -5.0519796589,
				"element": "H" 
			},
			{
				"x": 1.2747774503,
				"y": 3.8102262473,
				"z": -1.2409954766,
				"element": "H" 
			},
			{
				"x": 1.8234932546,
				"y": 2.4432853107,
				"z": -0.2235377862,
				"element": "H" 
			},
			{
				"x": 0.3300914154,
				"y": 3.3225097434,
				"z": 0.1613980415,
				"element": "H" 
			},
			{
				"x": 0.8919045617,
				"y": -3.1073193205,
				"z": 1.5881521798,
				"element": "H" 
			},
			{
				"x": -0.731376008,
				"y": -2.3934140561,
				"z": 1.4291713218,
				"element": "H" 
			},
			{
				"x": 1.8848307516,
				"y": -0.934977188,
				"z": 2.130078282,
				"element": "H" 
			},
			{
				"x": 0.3651752623,
				"y": -0.9419409941,
				"z": 3.0626976562,
				"element": "H" 
			}
		],
		 "valence_orbital": [ 
			{
				"type": "occ",
				"energy": -0.32061,
				"method": "rhf"
			},
			{
				"type": "occ",
				"energy": -0.25787,
				"method": "rhf"
			},
			{
				"type": "occ",
				"energy": -0.2533,
				"method": "rhf"
			},
			{
				"type": "occ",
				"energy": -0.2408,
				"method": "rhf"
			},
			{
				"type": "occ",
				"energy": -0.23137,
				"method": "rhf"
			},
			{
				"type": "unocc",
				"energy": -0.06359,
				"method": "rhf"
			},
			{
				"type": "unocc",
				"energy": -0.0265,
				"method": "rhf"
			},
			{
				"type": "unocc",
				"energy": -0.00118,
				"method": "rhf"
			},
			{
				"type": "unocc",
				"energy": 0.051,
				"method": "rhf"
			},
			{
				"type": "unocc",
				"energy": 0.05817,
				"method": "rhf"
			}
		],
		"cosmo_sigma_profile": { 
			"-0.025": 0.0,
			"-0.024": 0.0,
			"-0.023": 0.0,
			"-0.022": 0.0,
			"-0.021": 0.0,
			"-0.02": 0.0,
			"-0.019": 0.0,
			"-0.018": 0.0,
			"-0.017": 0.0,
			"-0.016": 0.0,
			"-0.015": 0.0,
			"-0.014": 0.0,
			"-0.013": 0.0,
			"-0.012": 0.0,
			"-0.011": 0.0,
			"-0.01": 0.0,
			"-0.009": 0.204728302909,
			"-0.008": 3.84161861143,
			"-0.007": 8.42226784564,
			"-0.006": 14.8616753935,
			"-0.005": 18.5192406729,
			"-0.004": 20.9351318221,
			"-0.003": 20.3655516705,
			"-0.002": 17.8201608298,
			"-0.001": 18.777690073,
			"0.0": 16.9833976251,
			"0.001": 12.8990156992,
			"0.002": 9.52840025101,
			"0.003": 7.67310555946,
			"0.004": 7.49642786831,
			"0.005": 6.14832529639,
			"0.006": 6.46371646014,
			"0.007": 4.45562504918,
			"0.008": 4.11346327312,
			"0.009": 3.82456845482,
			"0.01": 4.67473693433,
			"0.011": 5.76518535242,
			"0.012": 5.3544421031,
			"0.013": 3.09308208557,
			"0.014": 0.296973390104,
			"0.015": 0.0,
			"0.016": 0.0,
			"0.017": 0.0,
			"0.018": 0.0,
			"0.019": 0.0,
			"0.02": 0.0,
			"0.021": 0.0,
			"0.022": 0.0,
			"0.023": 0.0,
			"0.024": 0.0,
			"0.025": 0.0
		}
	}
}
