{
	 "smiles": "NCC1=CC=C(OCCOC2=CC=C(Cl)C=C2)C=C1", 
	 "Tm": 404.15, 
	 "num_atms": 35, 
	 "gaussian": { 
		 "optdone": 1, 
		 "sigma_profile": "yes", 
		 "theory": "DFT", 
		 "functional": "B3LYP", 
		 "basiset": "6-31G**", 
		 "properties": { 
			 "R2extent": 11283.7074, 
			 "electric_dipole_moment_norm": 1.34363623425, 
			 "electric_quadrupole_moment_norm": 22.5731876936, 
			 "total_energy": -1246.60690335, 
			 "HOMO_LUMO_gap": 0.19868, 
			 "cosmo_polarized_energy": -12.85, 
			 "cosmo_cavitation_energy": 41.14, 
			 "cosmo_dispersion_energy": -29.7, 
			 "cosmo_repulsion_energy": 2.32, 
			 "cosmo_total_nonelectrostatic_energy": 13.76, 
			 "SMD_solvation_energy": 5.36 
		},
		"coords": [
			{
				"x": 3.5667688686,
				"y": -0.954139125,
				"z": 5.9760906828,
				"element": "N" 
			},
			{
				"x": 2.1040813861,
				"y": -1.0418532156,
				"z": 6.1320174587,
				"element": "C" 
			},
			{
				"x": 1.2833779082,
				"y": -0.6047188958,
				"z": 4.9315512778,
				"element": "C" 
			},
			{
				"x": 0.8697341003,
				"y": -1.5223520834,
				"z": 3.9620809691,
				"element": "C" 
			},
			{
				"x": 0.1624743019,
				"y": -1.1247204804,
				"z": 2.8230852571,
				"element": "C" 
			},
			{
				"x": -0.1449080436,
				"y": 0.2274858405,
				"z": 2.6438347495,
				"element": "C" 
			},
			{
				"x": -0.8322843681,
				"y": 0.7329301979,
				"z": 1.5722219025,
				"element": "O" 
			},
			{
				"x": -1.2764334375,
				"y": -0.162346408,
				"z": 0.5641016921,
				"element": "C" 
			},
			{
				"x": -2.0183713931,
				"y": 0.6925547719,
				"z": -0.4624800339,
				"element": "C" 
			},
			{
				"x": -2.5422409539,
				"y": -0.1072898606,
				"z": -1.5161434698,
				"element": "O" 
			},
			{
				"x": -1.7443567277,
				"y": -0.4594645815,
				"z": -2.5711106228,
				"element": "C" 
			},
			{
				"x": -0.4007375957,
				"y": -0.0983279321,
				"z": -2.7255923673,
				"element": "C" 
			},
			{
				"x": 0.3054492598,
				"y": -0.5098712668,
				"z": -3.8596706888,
				"element": "C" 
			},
			{
				"x": -0.3265570179,
				"y": -1.2798076911,
				"z": -4.8302782695,
				"element": "C" 
			},
			{
				"x": 0.5679826544,
				"y": -1.7984863337,
				"z": -6.2538279283,
				"element": "Cl" 
			},
			{
				"x": -1.6661347653,
				"y": -1.6476298914,
				"z": -4.6835606743,
				"element": "C" 
			},
			{
				"x": -2.3690866051,
				"y": -1.2369419528,
				"z": -3.5573804215,
				"element": "C" 
			},
			{
				"x": 0.255051753,
				"y": 1.1643182927,
				"z": 3.6072675333,
				"element": "C" 
			},
			{
				"x": 0.9567381004,
				"y": 0.746869724,
				"z": 4.7312186863,
				"element": "C" 
			},
			{
				"x": 3.8466064075,
				"y": -1.500825672,
				"z": 5.1634372943,
				"element": "H" 
			},
			{
				"x": 3.8208933842,
				"y": 0.0069922998,
				"z": 5.7544162431,
				"element": "H" 
			},
			{
				"x": 1.8614464757,
				"y": -2.0806925769,
				"z": 6.3836655413,
				"element": "H" 
			},
			{
				"x": 1.8312921806,
				"y": -0.4378884593,
				"z": 7.0053331919,
				"element": "H" 
			},
			{
				"x": 1.0967314394,
				"y": -2.5781510435,
				"z": 4.0943460623,
				"element": "H" 
			},
			{
				"x": -0.1438156628,
				"y": -1.8696629077,
				"z": 2.0978611357,
				"element": "H" 
			},
			{
				"x": -1.9584277302,
				"y": -0.918711665,
				"z": 0.9750412632,
				"element": "H" 
			},
			{
				"x": -0.4284455167,
				"y": -0.6843657641,
				"z": 0.1008675441,
				"element": "H" 
			},
			{
				"x": -1.3700424064,
				"y": 1.4905367965,
				"z": -0.8414799745,
				"element": "H" 
			},
			{
				"x": -2.8833625859,
				"y": 1.1619915459,
				"z": 0.012114399,
				"element": "H" 
			},
			{
				"x": 0.113667872,
				"y": 0.4969113112,
				"z": -1.9806491512,
				"element": "H" 
			},
			{
				"x": 1.3464227708,
				"y": -0.2307083352,
				"z": -3.98007457,
				"element": "H" 
			},
			{
				"x": -2.1522719317,
				"y": -2.2474603742,
				"z": -5.4450217551,
				"element": "H" 
			},
			{
				"x": -3.4112910855,
				"y": -1.5061158131,
				"z": -3.4222463045,
				"element": "H" 
			},
			{
				"x": -0.0024521987,
				"y": 2.2076454866,
				"z": 3.4553982469,
				"element": "H" 
			},
			{
				"x": 1.2527011628,
				"y": 1.4847960622,
				"z": 5.4740651007,
				"element": "H" 
			}
		],
		 "valence_orbital": [ 
			{
				"type": "occ",
				"energy": -0.26739,
				"method": "rhf"
			},
			{
				"type": "occ",
				"energy": -0.25623,
				"method": "rhf"
			},
			{
				"type": "occ",
				"energy": -0.24353,
				"method": "rhf"
			},
			{
				"type": "occ",
				"energy": -0.22539,
				"method": "rhf"
			},
			{
				"type": "occ",
				"energy": -0.21715,
				"method": "rhf"
			},
			{
				"type": "unocc",
				"energy": -0.01847,
				"method": "rhf"
			},
			{
				"type": "unocc",
				"energy": -0.008,
				"method": "rhf"
			},
			{
				"type": "unocc",
				"energy": -0.00297,
				"method": "rhf"
			},
			{
				"type": "unocc",
				"energy": 0.00479,
				"method": "rhf"
			},
			{
				"type": "unocc",
				"energy": 0.03007,
				"method": "rhf"
			}
		],
		"cosmo_sigma_profile": { 
			"-0.025": 0.0,
			"-0.024": 0.0,
			"-0.023": 0.0,
			"-0.022": 0.0,
			"-0.021": 0.0,
			"-0.02": 0.0,
			"-0.019": 0.0,
			"-0.018": 0.0,
			"-0.017": 0.0,
			"-0.016": 0.0,
			"-0.015": 0.0,
			"-0.014": 0.0,
			"-0.013": 0.0,
			"-0.012": 0.0,
			"-0.011": 0.0,
			"-0.01": 0.0733459826148,
			"-0.009": 2.24227161267,
			"-0.008": 4.63235432049,
			"-0.007": 10.4267666188,
			"-0.006": 20.6229315705,
			"-0.005": 29.6006590956,
			"-0.004": 28.012195019,
			"-0.003": 23.9986672019,
			"-0.002": 18.3493067667,
			"-0.001": 19.1523821351,
			"0.0": 20.1873267345,
			"0.001": 18.0801893788,
			"0.002": 23.760134035,
			"0.003": 30.1163604968,
			"0.004": 27.9406815446,
			"0.005": 21.9803598368,
			"0.006": 12.0878938365,
			"0.007": 2.83940209608,
			"0.008": 4.07104602755,
			"0.009": 2.75072336304,
			"0.01": 1.22844187864,
			"0.011": 0.701354977513,
			"0.012": 0.526932182525,
			"0.013": 0.871194045221,
			"0.014": 0.449692955918,
			"0.015": 0.813028421555,
			"0.016": 0.55574025138,
			"0.017": 0.71647653803,
			"0.018": 0.868789694798,
			"0.019": 0.469057099041,
			"0.02": 0.436758269907,
			"0.021": 0.00513453012022,
			"0.022": 0.0,
			"0.023": 0.0,
			"0.024": 0.0,
			"0.025": 0.0
		}
	}
}
