{
	 "smiles": "CCOC(=O)CCC(NC(=O)C1=CC=C(N)C=C1)C(=O)OCC", 
	 "Tm": 414.15, 
	 "num_atms": 45, 
	 "gaussian": { 
		 "optdone": 1, 
		 "sigma_profile": "yes", 
		 "theory": "DFT", 
		 "functional": "B3LYP", 
		 "basiset": "6-31G**", 
		 "properties": { 
			 "R2extent": 9760.33, 
			 "electric_dipole_moment_norm": 4.28349707716, 
			 "electric_quadrupole_moment_norm": 24.173870023, 
			 "total_energy": -1108.65060396, 
			 "HOMO_LUMO_gap": 0.18899, 
			 "cosmo_polarized_energy": -21.61, 
			 "cosmo_cavitation_energy": 48.29, 
			 "cosmo_dispersion_energy": -31.79, 
			 "cosmo_repulsion_energy": 2.5, 
			 "cosmo_total_nonelectrostatic_energy": 19.0, 
			 "SMD_solvation_energy": 10.02 
		},
		"coords": [
			{
				"x": -0.3112757691,
				"y": -5.3737531991,
				"z": 1.3088161362,
				"element": "C" 
			},
			{
				"x": -1.145157772,
				"y": -4.4157934751,
				"z": 2.1451511265,
				"element": "C" 
			},
			{
				"x": -2.1868771763,
				"y": -3.8258421006,
				"z": 1.3230327306,
				"element": "O" 
			},
			{
				"x": -1.9890832182,
				"y": -2.5827986152,
				"z": 0.8597048374,
				"element": "C" 
			},
			{
				"x": -1.0334623069,
				"y": -1.8824012861,
				"z": 1.1603276449,
				"element": "O" 
			},
			{
				"x": -3.0837201872,
				"y": -2.1426410407,
				"z": -0.0876569634,
				"element": "C" 
			},
			{
				"x": -2.6363408347,
				"y": -2.1107829726,
				"z": -1.5680808599,
				"element": "C" 
			},
			{
				"x": -1.3562000834,
				"y": -1.2970760048,
				"z": -1.8528282359,
				"element": "C" 
			},
			{
				"x": -1.3019105351,
				"y": -0.0396852345,
				"z": -1.1362452766,
				"element": "N" 
			},
			{
				"x": -1.2419846344,
				"y": 1.1592476964,
				"z": -1.8043947473,
				"element": "C" 
			},
			{
				"x": -1.3515841375,
				"y": 1.2245696827,
				"z": -3.0294816286,
				"element": "O" 
			},
			{
				"x": -1.0599179195,
				"y": 2.3822979333,
				"z": -0.9643570234,
				"element": "C" 
			},
			{
				"x": -1.1461373783,
				"y": 2.4058892928,
				"z": 0.4364360932,
				"element": "C" 
			},
			{
				"x": -0.9681349348,
				"y": 3.5872156003,
				"z": 1.1463994974,
				"element": "C" 
			},
			{
				"x": -0.6950691463,
				"y": 4.7931171054,
				"z": 0.4744960121,
				"element": "C" 
			},
			{
				"x": -0.4608027067,
				"y": 5.9648912666,
				"z": 1.1836036743,
				"element": "N" 
			},
			{
				"x": -0.6161534892,
				"y": 4.7735173414,
				"z": -0.9312315409,
				"element": "C" 
			},
			{
				"x": -0.800000593,
				"y": 3.5899149495,
				"z": -1.6300539156,
				"element": "C" 
			},
			{
				"x": -0.0936882681,
				"y": -2.1438842006,
				"z": -1.6354479181,
				"element": "C" 
			},
			{
				"x": -0.0809907504,
				"y": -3.3602868877,
				"z": -1.632712138,
				"element": "O" 
			},
			{
				"x": 1.003416829,
				"y": -1.3841865516,
				"z": -1.5083647291,
				"element": "O" 
			},
			{
				"x": 2.2536978002,
				"y": -2.0915539189,
				"z": -1.3371393093,
				"element": "C" 
			},
			{
				"x": 3.3595359899,
				"y": -1.0543782734,
				"z": -1.2984737917,
				"element": "C" 
			},
			{
				"x": -0.934366551,
				"y": -6.1708882039,
				"z": 0.8931500538,
				"element": "H" 
			},
			{
				"x": 0.1679497338,
				"y": -4.8466800089,
				"z": 0.4798199332,
				"element": "H" 
			},
			{
				"x": 0.4628555159,
				"y": -5.8325420136,
				"z": 1.9333786378,
				"element": "H" 
			},
			{
				"x": -0.5393648433,
				"y": -3.613985783,
				"z": 2.5709078647,
				"element": "H" 
			},
			{
				"x": -1.6778848798,
				"y": -4.9348096198,
				"z": 2.9462732815,
				"element": "H" 
			},
			{
				"x": -3.9478299915,
				"y": -2.8025864622,
				"z": 0.0157912321,
				"element": "H" 
			},
			{
				"x": -3.3778792991,
				"y": -1.132724295,
				"z": 0.2136850578,
				"element": "H" 
			},
			{
				"x": -2.4805924781,
				"y": -3.1291244358,
				"z": -1.9328701154,
				"element": "H" 
			},
			{
				"x": -3.4567663905,
				"y": -1.6703388536,
				"z": -2.1429373497,
				"element": "H" 
			},
			{
				"x": -1.3512621269,
				"y": -1.0240499427,
				"z": -2.9160660358,
				"element": "H" 
			},
			{
				"x": -1.007921122,
				"y": -0.1057815281,
				"z": -0.1708998587,
				"element": "H" 
			},
			{
				"x": -1.3778730101,
				"y": 1.5043255551,
				"z": 0.9965992762,
				"element": "H" 
			},
			{
				"x": -1.0413889908,
				"y": 3.5834106781,
				"z": 2.2311230824,
				"element": "H" 
			},
			{
				"x": -0.8405528266,
				"y": 6.001272655,
				"z": 2.118764588,
				"element": "H" 
			},
			{
				"x": -0.5971778146,
				"y": 6.8254943418,
				"z": 0.672789905,
				"element": "H" 
			},
			{
				"x": -0.4071686588,
				"y": 5.6959585366,
				"z": -1.4677337163,
				"element": "H" 
			},
			{
				"x": -0.7494663113,
				"y": 3.5708860192,
				"z": -2.7134547297,
				"element": "H" 
			},
			{
				"x": 2.2009373326,
				"y": -2.6708686353,
				"z": -0.4097992818,
				"element": "H" 
			},
			{
				"x": 2.3762172716,
				"y": -2.7979058324,
				"z": -2.1639433856,
				"element": "H" 
			},
			{
				"x": 3.2114514161,
				"y": -0.3564191662,
				"z": -0.4696926066,
				"element": "H" 
			},
			{
				"x": 4.327013315,
				"y": -1.5487616109,
				"z": -1.1654341431,
				"element": "H" 
			},
			{
				"x": 3.3895119315,
				"y": -0.4813785019,
				"z": -2.2294513645,
				"element": "H" 
			}
		],
		 "valence_orbital": [ 
			{
				"type": "occ",
				"energy": -0.27757,
				"method": "rhf"
			},
			{
				"type": "occ",
				"energy": -0.25007,
				"method": "rhf"
			},
			{
				"type": "occ",
				"energy": -0.24152,
				"method": "rhf"
			},
			{
				"type": "occ",
				"energy": -0.23425,
				"method": "rhf"
			},
			{
				"type": "occ",
				"energy": -0.20524,
				"method": "rhf"
			},
			{
				"type": "unocc",
				"energy": -0.01625,
				"method": "rhf"
			},
			{
				"type": "unocc",
				"energy": 0.00206,
				"method": "rhf"
			},
			{
				"type": "unocc",
				"energy": 0.00413,
				"method": "rhf"
			},
			{
				"type": "unocc",
				"energy": 0.01573,
				"method": "rhf"
			},
			{
				"type": "unocc",
				"energy": 0.07195,
				"method": "rhf"
			}
		],
		"cosmo_sigma_profile": { 
			"-0.025": 0.0,
			"-0.024": 0.0,
			"-0.023": 0.0,
			"-0.022": 0.0,
			"-0.021": 0.0,
			"-0.02": 0.0,
			"-0.019": 0.0,
			"-0.018": 0.0,
			"-0.017": 0.0,
			"-0.016": 0.0,
			"-0.015": 0.0,
			"-0.014": 0.0691532145193,
			"-0.013": 1.55085408041,
			"-0.012": 3.09475346994,
			"-0.011": 2.37400638105,
			"-0.01": 3.35451770765,
			"-0.009": 3.47459878341,
			"-0.008": 2.76445771243,
			"-0.007": 5.01558711191,
			"-0.006": 11.7555342889,
			"-0.005": 26.2441813167,
			"-0.004": 41.670581706,
			"-0.003": 41.940202346,
			"-0.002": 32.0302968273,
			"-0.001": 26.6348614857,
			"0.0": 24.8482942301,
			"0.001": 20.2040164673,
			"0.002": 18.6024913424,
			"0.003": 18.1917069007,
			"0.004": 19.7609922692,
			"0.005": 22.7463702392,
			"0.006": 12.1086117661,
			"0.007": 7.83252796295,
			"0.008": 6.46295494581,
			"0.009": 4.50399304854,
			"0.01": 5.38259185483,
			"0.011": 5.93279784253,
			"0.012": 3.40502444332,
			"0.013": 3.96678605691,
			"0.014": 4.02325990421,
			"0.015": 0.0857560360985,
			"0.016": 0.0,
			"0.017": 0.0,
			"0.018": 0.0,
			"0.019": 0.0,
			"0.02": 0.0,
			"0.021": 0.0,
			"0.022": 0.0,
			"0.023": 0.0,
			"0.024": 0.0,
			"0.025": 0.0
		}
	}
}
