{
	 "smiles": "CC1=C(NC2CCCCC2)N=CC=C1", 
	 "Tm": 355.15, 
	 "num_atms": 32, 
	 "gaussian": { 
		 "optdone": 1, 
		 "sigma_profile": "yes", 
		 "theory": "DFT", 
		 "functional": "B3LYP", 
		 "basiset": "6-31G**", 
		 "properties": { 
			 "R2extent": 3835.7558, 
			 "electric_dipole_moment_norm": 1.72126599048, 
			 "electric_quadrupole_moment_norm": 7.02390925625, 
			 "total_energy": -577.642999487, 
			 "HOMO_LUMO_gap": 0.19526, 
			 "cosmo_polarized_energy": -6.81, 
			 "cosmo_cavitation_energy": 32.21, 
			 "cosmo_dispersion_energy": -23.13, 
			 "cosmo_repulsion_energy": 1.82, 
			 "cosmo_total_nonelectrostatic_energy": 10.9, 
			 "SMD_solvation_energy": 2.44 
		},
		"coords": [
			{
				"x": -2.9553585714,
				"y": 1.5641720691,
				"z": -1.142749185,
				"element": "C" 
			},
			{
				"x": -2.5528249771,
				"y": 1.9323103434,
				"z": 0.2631166722,
				"element": "C" 
			},
			{
				"x": -1.2530064597,
				"y": 1.6876128694,
				"z": 0.779334905,
				"element": "C" 
			},
			{
				"x": -0.2466394837,
				"y": 1.056114353,
				"z": 0.0346591571,
				"element": "N" 
			},
			{
				"x": -0.4043922041,
				"y": -0.3108327648,
				"z": -0.5023137339,
				"element": "C" 
			},
			{
				"x": -0.7981236055,
				"y": -1.344823363,
				"z": 0.5856383198,
				"element": "C" 
			},
			{
				"x": -0.4053960497,
				"y": -2.7672682188,
				"z": 0.1649254508,
				"element": "C" 
			},
			{
				"x": 1.1329564768,
				"y": -2.9114645689,
				"z": 0.0564255456,
				"element": "C" 
			},
			{
				"x": 1.8154507711,
				"y": -1.5728091246,
				"z": -0.3123725846,
				"element": "C" 
			},
			{
				"x": 0.9110425636,
				"y": -0.7228611508,
				"z": -1.2151976546,
				"element": "C" 
			},
			{
				"x": -0.8601979367,
				"y": 2.1268260234,
				"z": 1.988244291,
				"element": "N" 
			},
			{
				"x": -1.7335512484,
				"y": 2.7930593206,
				"z": 2.7495755334,
				"element": "C" 
			},
			{
				"x": -3.0484474533,
				"y": 3.0382791208,
				"z": 2.3689423671,
				"element": "C" 
			},
			{
				"x": -3.4416521834,
				"y": 2.6032929403,
				"z": 1.101958787,
				"element": "C" 
			},
			{
				"x": -3.2116177346,
				"y": 0.5023128216,
				"z": -1.2459240926,
				"element": "H" 
			},
			{
				"x": -2.1439663052,
				"y": 1.7741566175,
				"z": -1.8473586041,
				"element": "H" 
			},
			{
				"x": -3.833697133,
				"y": 2.1386592397,
				"z": -1.4513784061,
				"element": "H" 
			},
			{
				"x": 0.6055510591,
				"y": 1.1189851895,
				"z": 0.5865524558,
				"element": "H" 
			},
			{
				"x": -1.1956228156,
				"y": -0.2848676286,
				"z": -1.255366006,
				"element": "H" 
			},
			{
				"x": -1.8719934854,
				"y": -1.2751611564,
				"z": 0.7923933658,
				"element": "H" 
			},
			{
				"x": -0.2905151869,
				"y": -1.0863056273,
				"z": 1.5241406752,
				"element": "H" 
			},
			{
				"x": -0.8066708031,
				"y": -3.5023261283,
				"z": 0.8711190163,
				"element": "H" 
			},
			{
				"x": -0.8719719456,
				"y": -2.9931268217,
				"z": -0.8033340858,
				"element": "H" 
			},
			{
				"x": 1.5417604052,
				"y": -3.2766351921,
				"z": 1.0058668681,
				"element": "H" 
			},
			{
				"x": 1.3759846629,
				"y": -3.6721414256,
				"z": -0.6949709138,
				"element": "H" 
			},
			{
				"x": 2.7778750033,
				"y": -1.7580699047,
				"z": -0.8017969417,
				"element": "H" 
			},
			{
				"x": 2.0476718398,
				"y": -1.0106968594,
				"z": 0.6018508747,
				"element": "H" 
			},
			{
				"x": 0.6677206457,
				"y": -1.2997942922,
				"z": -2.1156737768,
				"element": "H" 
			},
			{
				"x": 1.4227067421,
				"y": 0.1825466512,
				"z": -1.5581918675,
				"element": "H" 
			},
			{
				"x": -1.3588324696,
				"y": 3.1377609177,
				"z": 3.7123079446,
				"element": "H" 
			},
			{
				"x": -3.7318015709,
				"y": 3.5676397834,
				"z": 3.024502361,
				"element": "H" 
			},
			{
				"x": -4.4471405468,
				"y": 2.8111559666,
				"z": 0.7426732623,
				"element": "H" 
			}
		],
		 "valence_orbital": [ 
			{
				"type": "occ",
				"energy": -0.30031,
				"method": "rhf"
			},
			{
				"type": "occ",
				"energy": -0.28264,
				"method": "rhf"
			},
			{
				"type": "occ",
				"energy": -0.26093,
				"method": "rhf"
			},
			{
				"type": "occ",
				"energy": -0.24719,
				"method": "rhf"
			},
			{
				"type": "occ",
				"energy": -0.20332,
				"method": "rhf"
			},
			{
				"type": "unocc",
				"energy": -0.00806,
				"method": "rhf"
			},
			{
				"type": "unocc",
				"energy": 0.0089,
				"method": "rhf"
			},
			{
				"type": "unocc",
				"energy": 0.07334,
				"method": "rhf"
			},
			{
				"type": "unocc",
				"energy": 0.09284,
				"method": "rhf"
			},
			{
				"type": "unocc",
				"energy": 0.10537,
				"method": "rhf"
			}
		],
		"cosmo_sigma_profile": { 
			"-0.025": 0.0,
			"-0.024": 0.0,
			"-0.023": 0.0,
			"-0.022": 0.0,
			"-0.021": 0.0,
			"-0.02": 0.0,
			"-0.019": 0.0,
			"-0.018": 0.0,
			"-0.017": 0.0,
			"-0.016": 0.0,
			"-0.015": 0.0,
			"-0.014": 0.0,
			"-0.013": 0.0,
			"-0.012": 0.0,
			"-0.011": 0.0,
			"-0.01": 0.0,
			"-0.009": 0.312704429234,
			"-0.008": 0.868911884502,
			"-0.007": 1.6514603096,
			"-0.006": 4.72718599014,
			"-0.005": 9.9154626376,
			"-0.004": 14.1405602204,
			"-0.003": 21.2373073754,
			"-0.002": 37.5796443524,
			"-0.001": 35.2739892401,
			"0.0": 36.9339017046,
			"0.001": 28.859842806,
			"0.002": 12.2491942038,
			"0.003": 10.0301628387,
			"0.004": 12.9981720678,
			"0.005": 7.3566297662,
			"0.006": 3.1570933272,
			"0.007": 2.5628423607,
			"0.008": 2.26800695542,
			"0.009": 1.36844647073,
			"0.01": 1.18796007592,
			"0.011": 1.81087392371,
			"0.012": 1.19730650934,
			"0.013": 1.38661997996,
			"0.014": 0.785658901173,
			"0.015": 0.508802590782,
			"0.016": 0.446134747606,
			"0.017": 0.0,
			"0.018": 0.0,
			"0.019": 0.0,
			"0.02": 0.0,
			"0.021": 0.0,
			"0.022": 0.0,
			"0.023": 0.0,
			"0.024": 0.0,
			"0.025": 0.0
		}
	}
}
