{
	 "smiles": "OC1(CC(=O)C2=CC=CC=C2)CC2=CC=CC=C12", 
	 "Tm": 356.35, 
	 "num_atms": 32, 
	 "gaussian": { 
		 "optdone": 1, 
		 "sigma_profile": "yes", 
		 "theory": "DFT", 
		 "functional": "B3LYP", 
		 "basiset": "6-31G**", 
		 "properties": { 
			 "R2extent": 5563.5591, 
			 "electric_dipole_moment_norm": 4.15212017288, 
			 "electric_quadrupole_moment_norm": 11.4290776758, 
			 "total_energy": -768.55299465, 
			 "HOMO_LUMO_gap": 0.16408, 
			 "cosmo_polarized_energy": -11.32, 
			 "cosmo_cavitation_energy": 35.51, 
			 "cosmo_dispersion_energy": -25.33, 
			 "cosmo_repulsion_energy": 1.94, 
			 "cosmo_total_nonelectrostatic_energy": 12.12, 
			 "SMD_solvation_energy": 5.67 
		},
		"coords": [
			{
				"x": 0.9987741139,
				"y": 1.9445634218,
				"z": -1.471504828,
				"element": "O" 
			},
			{
				"x": 1.0483964349,
				"y": 0.5940089639,
				"z": -1.0650800274,
				"element": "C" 
			},
			{
				"x": -0.3414461704,
				"y": 0.091893065,
				"z": -0.6449133012,
				"element": "C" 
			},
			{
				"x": -0.9182813364,
				"y": 0.8550429547,
				"z": 0.541317973,
				"element": "C" 
			},
			{
				"x": -0.3725315809,
				"y": 1.8788779506,
				"z": 0.9489705263,
				"element": "O" 
			},
			{
				"x": -2.1653230004,
				"y": 0.3583923757,
				"z": 1.2000983214,
				"element": "C" 
			},
			{
				"x": -2.8598934287,
				"y": -0.7766774144,
				"z": 0.7525774733,
				"element": "C" 
			},
			{
				"x": -4.0248697034,
				"y": -1.1889449721,
				"z": 1.3984219281,
				"element": "C" 
			},
			{
				"x": -4.5047568165,
				"y": -0.4746052811,
				"z": 2.4979797133,
				"element": "C" 
			},
			{
				"x": -3.8197045363,
				"y": 0.6574327159,
				"z": 2.9506134003,
				"element": "C" 
			},
			{
				"x": -2.6597432433,
				"y": 1.0722104165,
				"z": 2.3047052637,
				"element": "C" 
			},
			{
				"x": 1.7651576984,
				"y": -0.2990232254,
				"z": -2.1534197083,
				"element": "C" 
			},
			{
				"x": 2.7997737251,
				"y": -0.6175263217,
				"z": -1.0841429872,
				"element": "C" 
			},
			{
				"x": 3.9575233906,
				"y": -1.3373282123,
				"z": -0.8213603099,
				"element": "C" 
			},
			{
				"x": 4.4965211865,
				"y": -1.1855948158,
				"z": 0.4665242453,
				"element": "C" 
			},
			{
				"x": 3.8961104476,
				"y": -0.3575094652,
				"z": 1.427047394,
				"element": "C" 
			},
			{
				"x": 2.7200316724,
				"y": 0.3578485442,
				"z": 1.1512337729,
				"element": "C" 
			},
			{
				"x": 2.1990382241,
				"y": 0.1948232067,
				"z": -0.1251477122,
				"element": "C" 
			},
			{
				"x": 0.7108752343,
				"y": 2.4325381032,
				"z": -0.6823413139,
				"element": "H" 
			},
			{
				"x": -1.0339838829,
				"y": 0.205818645,
				"z": -1.4911725216,
				"element": "H" 
			},
			{
				"x": -0.3037076776,
				"y": -0.9776945269,
				"z": -0.4080250092,
				"element": "H" 
			},
			{
				"x": -2.4994917068,
				"y": -1.3401556567,
				"z": -0.1014962516,
				"element": "H" 
			},
			{
				"x": -4.5569689259,
				"y": -2.0669417661,
				"z": 1.0446822805,
				"element": "H" 
			},
			{
				"x": -5.4112082395,
				"y": -0.7986488863,
				"z": 3.0013319452,
				"element": "H" 
			},
			{
				"x": -4.1933275732,
				"y": 1.213777154,
				"z": 3.8051949296,
				"element": "H" 
			},
			{
				"x": -2.1133952561,
				"y": 1.9490977965,
				"z": 2.6350142865,
				"element": "H" 
			},
			{
				"x": 1.1784875854,
				"y": -1.1398810443,
				"z": -2.5417559278,
				"element": "H" 
			},
			{
				"x": 2.1255906644,
				"y": 0.305126635,
				"z": -2.9910518352,
				"element": "H" 
			},
			{
				"x": 4.4384437196,
				"y": -1.9793132903,
				"z": -1.5545167236,
				"element": "H" 
			},
			{
				"x": 5.4058307506,
				"y": -1.719843951,
				"z": 0.7293157119,
				"element": "H" 
			},
			{
				"x": 4.3562341204,
				"y": -0.2719848012,
				"z": 2.4079371135,
				"element": "H" 
			},
			{
				"x": 2.2578441099,
				"y": 0.9956216822,
				"z": 1.8987621783,
				"element": "H" 
			}
		],
		 "valence_orbital": [ 
			{
				"type": "occ",
				"energy": -0.26612,
				"method": "rhf"
			},
			{
				"type": "occ",
				"energy": -0.26125,
				"method": "rhf"
			},
			{
				"type": "occ",
				"energy": -0.25241,
				"method": "rhf"
			},
			{
				"type": "occ",
				"energy": -0.24287,
				"method": "rhf"
			},
			{
				"type": "occ",
				"energy": -0.23205,
				"method": "rhf"
			},
			{
				"type": "unocc",
				"energy": -0.06797,
				"method": "rhf"
			},
			{
				"type": "unocc",
				"energy": -0.01681,
				"method": "rhf"
			},
			{
				"type": "unocc",
				"energy": -0.00083,
				"method": "rhf"
			},
			{
				"type": "unocc",
				"energy": 0.00974,
				"method": "rhf"
			},
			{
				"type": "unocc",
				"energy": 0.02993,
				"method": "rhf"
			}
		],
		"cosmo_sigma_profile": { 
			"-0.025": 0.0,
			"-0.024": 0.0,
			"-0.023": 0.0,
			"-0.022": 0.0,
			"-0.021": 0.0,
			"-0.02": 0.0,
			"-0.019": 0.0,
			"-0.018": 0.0,
			"-0.017": 0.0,
			"-0.016": 0.0,
			"-0.015": 0.0,
			"-0.014": 0.0,
			"-0.013": 0.0,
			"-0.012": 0.0,
			"-0.011": 0.0,
			"-0.01": 0.0,
			"-0.009": 0.155154079316,
			"-0.008": 0.805364626054,
			"-0.007": 6.09672764092,
			"-0.006": 17.5840028327,
			"-0.005": 24.1245261205,
			"-0.004": 27.8809568508,
			"-0.003": 22.8532520937,
			"-0.002": 19.9536183811,
			"-0.001": 19.7068288731,
			"0.0": 23.4373058077,
			"0.001": 17.7814553503,
			"0.002": 19.5475754399,
			"0.003": 20.6109273682,
			"0.004": 21.5463205582,
			"0.005": 11.4974377034,
			"0.006": 10.1637044262,
			"0.007": 4.16370412962,
			"0.008": 2.99202365838,
			"0.009": 2.39854171728,
			"0.01": 2.42954603057,
			"0.011": 2.35379099216,
			"0.012": 1.3752232014,
			"0.013": 1.83809670284,
			"0.014": 1.87429514522,
			"0.015": 0.0849609244502,
			"0.016": 0.0,
			"0.017": 0.0,
			"0.018": 0.0,
			"0.019": 0.0,
			"0.02": 0.0,
			"0.021": 0.0,
			"0.022": 0.0,
			"0.023": 0.0,
			"0.024": 0.0,
			"0.025": 0.0
		}
	}
}
