{
	 "smiles": "FC1=C(C#N)C(Cl)=CC=C1", 
	 "Tm": 331.15, 
	 "num_atms": 13, 
	 "gaussian": { 
		 "optdone": 1, 
		 "sigma_profile": "yes", 
		 "theory": "DFT", 
		 "functional": "B3LYP", 
		 "basiset": "6-31G**", 
		 "properties": { 
			 "R2extent": 2056.9109, 
			 "electric_dipole_moment_norm": 5.55115765944, 
			 "electric_quadrupole_moment_norm": 12.2446822127, 
			 "total_energy": -883.306179721, 
			 "HOMO_LUMO_gap": 0.20374, 
			 "cosmo_polarized_energy": -8.86, 
			 "cosmo_cavitation_energy": 21.01, 
			 "cosmo_dispersion_energy": -14.97, 
			 "cosmo_repulsion_energy": 1.19, 
			 "cosmo_total_nonelectrostatic_energy": 7.23, 
			 "SMD_solvation_energy": 5.16 
		},
		"coords": [
			{
				"x": 2.2694613197,
				"y": -0.2110274311,
				"z": 2.137618431,
				"element": "F" 
			},
			{
				"x": 1.1286270115,
				"y": -0.2500630188,
				"z": 1.4382907825,
				"element": "C" 
			},
			{
				"x": 0.9254643821,
				"y": -1.3309763846,
				"z": 0.5639825642,
				"element": "C" 
			},
			{
				"x": 1.9278176601,
				"y": -2.3419595508,
				"z": 0.4486941194,
				"element": "C" 
			},
			{
				"x": 2.7539587865,
				"y": -3.1557023338,
				"z": 0.3672878369,
				"element": "N" 
			},
			{
				"x": -0.2798346606,
				"y": -1.3613290856,
				"z": -0.1672675761,
				"element": "C" 
			},
			{
				"x": -0.5883010416,
				"y": -2.6769237758,
				"z": -1.2674805887,
				"element": "Cl" 
			},
			{
				"x": -1.2295139006,
				"y": -0.3528702251,
				"z": -0.0226681319,
				"element": "C" 
			},
			{
				"x": -0.9851279886,
				"y": 0.7023046342,
				"z": 0.8579759726,
				"element": "C" 
			},
			{
				"x": 0.1961282297,
				"y": 0.7638078986,
				"z": 1.5967806277,
				"element": "C" 
			},
			{
				"x": -2.1479243111,
				"y": -0.3985809586,
				"z": -0.5956366976,
				"element": "H" 
			},
			{
				"x": -1.7271416468,
				"y": 1.4865673192,
				"z": 0.9683879997,
				"element": "H" 
			},
			{
				"x": 0.4051861596,
				"y": 1.5739529123,
				"z": 2.2855346603,
				"element": "H" 
			}
		],
		 "valence_orbital": [ 
			{
				"type": "occ",
				"energy": -0.35472,
				"method": "rhf"
			},
			{
				"type": "occ",
				"energy": -0.34463,
				"method": "rhf"
			},
			{
				"type": "occ",
				"energy": -0.3321,
				"method": "rhf"
			},
			{
				"type": "occ",
				"energy": -0.27874,
				"method": "rhf"
			},
			{
				"type": "occ",
				"energy": -0.27369,
				"method": "rhf"
			},
			{
				"type": "unocc",
				"energy": -0.06995,
				"method": "rhf"
			},
			{
				"type": "unocc",
				"energy": -0.03665,
				"method": "rhf"
			},
			{
				"type": "unocc",
				"energy": 0.00371,
				"method": "rhf"
			},
			{
				"type": "unocc",
				"energy": 0.02493,
				"method": "rhf"
			},
			{
				"type": "unocc",
				"energy": 0.06049,
				"method": "rhf"
			}
		],
		"cosmo_sigma_profile": { 
			"-0.025": 0.0,
			"-0.024": 0.0,
			"-0.023": 0.0,
			"-0.022": 0.0,
			"-0.021": 0.0,
			"-0.02": 0.0,
			"-0.019": 0.0,
			"-0.018": 0.0,
			"-0.017": 0.0,
			"-0.016": 0.0,
			"-0.015": 0.0,
			"-0.014": 0.0,
			"-0.013": 0.0,
			"-0.012": 0.0,
			"-0.011": 0.0,
			"-0.01": 0.0411869271879,
			"-0.009": 2.93750932205,
			"-0.008": 7.1483024426,
			"-0.007": 6.72654855885,
			"-0.006": 5.67201110725,
			"-0.005": 4.20406521028,
			"-0.004": 7.68575130279,
			"-0.003": 13.4564749548,
			"-0.002": 17.6166555552,
			"-0.001": 16.7776724978,
			"0.0": 14.3052736817,
			"0.001": 16.8674349972,
			"0.002": 14.9940232473,
			"0.003": 17.9455690583,
			"0.004": 3.89131128223,
			"0.005": 3.01205384127,
			"0.006": 3.01249494691,
			"0.007": 3.25655568349,
			"0.008": 3.23659757058,
			"0.009": 3.22628420413,
			"0.01": 2.80772767933,
			"0.011": 2.45739514239,
			"0.012": 1.89095953063,
			"0.013": 0.243267877658,
			"0.014": 0.0,
			"0.015": 0.0,
			"0.016": 0.0,
			"0.017": 0.0,
			"0.018": 0.0,
			"0.019": 0.0,
			"0.02": 0.0,
			"0.021": 0.0,
			"0.022": 0.0,
			"0.023": 0.0,
			"0.024": 0.0,
			"0.025": 0.0
		}
	}
}
