{
	 "smiles": "CN1CCN(CC1)S(=O)(=O)C1=CC=C(N)C=C1", 
	 "Tm": 505.15, 
	 "num_atms": 34, 
	 "gaussian": { 
		 "optdone": 1, 
		 "sigma_profile": "yes", 
		 "theory": "DFT", 
		 "functional": "B3LYP", 
		 "basiset": "6-31G**", 
		 "properties": { 
			 "R2extent": 5776.1711, 
			 "electric_dipole_moment_norm": 7.10991985749, 
			 "electric_quadrupole_moment_norm": 30.1079859816, 
			 "total_energy": -1142.21822984, 
			 "HOMO_LUMO_gap": 0.18799, 
			 "cosmo_polarized_energy": -20.28, 
			 "cosmo_cavitation_energy": 36.8, 
			 "cosmo_dispersion_energy": -26.55, 
			 "cosmo_repulsion_energy": 2.01, 
			 "cosmo_total_nonelectrostatic_energy": 12.26, 
			 "SMD_solvation_energy": 1.79 
		},
		"coords": [
			{
				"x": -3.1158951904,
				"y": -2.8126261458,
				"z": -1.3321126259,
				"element": "C" 
			},
			{
				"x": -2.3835222207,
				"y": -2.5495682413,
				"z": -0.1043630147,
				"element": "N" 
			},
			{
				"x": -2.6980368377,
				"y": -1.2567597303,
				"z": 0.5270965853,
				"element": "C" 
			},
			{
				"x": -1.6454819993,
				"y": -0.1784162648,
				"z": 0.2451339915,
				"element": "C" 
			},
			{
				"x": -0.3084002059,
				"y": -0.6213569462,
				"z": 0.7115397772,
				"element": "N" 
			},
			{
				"x": -0.1470614556,
				"y": -2.0923406272,
				"z": 0.8345701535,
				"element": "C" 
			},
			{
				"x": -0.9427991989,
				"y": -2.7559749608,
				"z": -0.2835185552,
				"element": "C" 
			},
			{
				"x": 0.3628240933,
				"y": 0.2673332902,
				"z": 1.9891007019,
				"element": "S" 
			},
			{
				"x": -0.6541923143,
				"y": 0.6082626764,
				"z": 2.999072957,
				"element": "O" 
			},
			{
				"x": 1.5642458444,
				"y": -0.4778799549,
				"z": 2.382894053,
				"element": "O" 
			},
			{
				"x": 0.8253011682,
				"y": 1.7858870709,
				"z": 1.1774883301,
				"element": "C" 
			},
			{
				"x": 0.2901308459,
				"y": 2.99764782,
				"z": 1.6205249019,
				"element": "C" 
			},
			{
				"x": 0.684618991,
				"y": 4.1889186894,
				"z": 1.023014425,
				"element": "C" 
			},
			{
				"x": 1.627364305,
				"y": 4.1883869958,
				"z": -0.0226366294,
				"element": "C" 
			},
			{
				"x": 2.0599982703,
				"y": 5.3766262783,
				"z": -0.5855995263,
				"element": "N" 
			},
			{
				"x": 2.1633156429,
				"y": 2.9558291134,
				"z": -0.4525703638,
				"element": "C" 
			},
			{
				"x": 1.7697339689,
				"y": 1.7678870641,
				"z": 0.1444738371,
				"element": "C" 
			},
			{
				"x": -4.1928043994,
				"y": -2.7493322764,
				"z": -1.1481726093,
				"element": "H" 
			},
			{
				"x": -2.8978563877,
				"y": -3.8304839763,
				"z": -1.6744479516,
				"element": "H" 
			},
			{
				"x": -2.8653981457,
				"y": -2.1242086953,
				"z": -2.1637155335,
				"element": "H" 
			},
			{
				"x": -3.6767499593,
				"y": -0.9152442506,
				"z": 0.1751770833,
				"element": "H" 
			},
			{
				"x": -2.7764718532,
				"y": -1.3824010814,
				"z": 1.6144176853,
				"element": "H" 
			},
			{
				"x": -1.5885154749,
				"y": 0.0363165341,
				"z": -0.8291798715,
				"element": "H" 
			},
			{
				"x": -1.9211668743,
				"y": 0.7486528521,
				"z": 0.7534287839,
				"element": "H" 
			},
			{
				"x": 0.9131540585,
				"y": -2.3332169398,
				"z": 0.7468476362,
				"element": "H" 
			},
			{
				"x": -0.497584637,
				"y": -2.4700711473,
				"z": 1.804537246,
				"element": "H" 
			},
			{
				"x": -0.5829519073,
				"y": -2.3558945537,
				"z": -1.2515312681,
				"element": "H" 
			},
			{
				"x": -0.7288901167,
				"y": -3.8323824351,
				"z": -0.2865375858,
				"element": "H" 
			},
			{
				"x": -0.4310207719,
				"y": 2.9945524038,
				"z": 2.4305035233,
				"element": "H" 
			},
			{
				"x": 0.2692544704,
				"y": 5.131531977,
				"z": 1.3696450929,
				"element": "H" 
			},
			{
				"x": 2.4876721185,
				"y": 5.3213015444,
				"z": -1.4979686588,
				"element": "H" 
			},
			{
				"x": 1.4636495323,
				"y": 6.1820468106,
				"z": -0.4667984205,
				"element": "H" 
			},
			{
				"x": 2.8976795991,
				"y": 2.9424596379,
				"z": -1.2537038463,
				"element": "H" 
			},
			{
				"x": 2.1881570414,
				"y": 0.8246174689,
				"z": -0.1901103036,
				"element": "H" 
			}
		],
		 "valence_orbital": [ 
			{
				"type": "occ",
				"energy": -0.28339,
				"method": "rhf"
			},
			{
				"type": "occ",
				"energy": -0.26415,
				"method": "rhf"
			},
			{
				"type": "occ",
				"energy": -0.24219,
				"method": "rhf"
			},
			{
				"type": "occ",
				"energy": -0.21775,
				"method": "rhf"
			},
			{
				"type": "occ",
				"energy": -0.20602,
				"method": "rhf"
			},
			{
				"type": "unocc",
				"energy": -0.01803,
				"method": "rhf"
			},
			{
				"type": "unocc",
				"energy": -0.01237,
				"method": "rhf"
			},
			{
				"type": "unocc",
				"energy": 0.06126,
				"method": "rhf"
			},
			{
				"type": "unocc",
				"energy": 0.07121,
				"method": "rhf"
			},
			{
				"type": "unocc",
				"energy": 0.08481,
				"method": "rhf"
			}
		],
		"cosmo_sigma_profile": { 
			"-0.025": 0.0,
			"-0.024": 0.0,
			"-0.023": 0.0,
			"-0.022": 0.0,
			"-0.021": 0.0,
			"-0.02": 0.0,
			"-0.019": 0.0,
			"-0.018": 0.0,
			"-0.017": 0.0,
			"-0.016": 0.0,
			"-0.015": 0.0,
			"-0.014": 0.275715609536,
			"-0.013": 2.37055350976,
			"-0.012": 3.46563216487,
			"-0.011": 3.08754300299,
			"-0.01": 2.9609747341,
			"-0.009": 3.14530909118,
			"-0.008": 3.23312103458,
			"-0.007": 5.35429055894,
			"-0.006": 6.97587414311,
			"-0.005": 16.3468156481,
			"-0.004": 27.5824583322,
			"-0.003": 29.5919472722,
			"-0.002": 28.8794876761,
			"-0.001": 24.4024100521,
			"0.0": 19.5835566937,
			"0.001": 12.8756503899,
			"0.002": 12.9629743358,
			"0.003": 14.177247124,
			"0.004": 18.8557113714,
			"0.005": 7.67647272607,
			"0.006": 5.00018549116,
			"0.007": 4.41515555283,
			"0.008": 3.77355814119,
			"0.009": 4.65417167823,
			"0.01": 5.73268606564,
			"0.011": 9.7456235201,
			"0.012": 8.30608575635,
			"0.013": 1.61936841782,
			"0.014": 0.40797409035,
			"0.015": 0.816912930157,
			"0.016": 0.265539132546,
			"0.017": 0.0,
			"0.018": 0.0,
			"0.019": 0.0,
			"0.02": 0.0,
			"0.021": 0.0,
			"0.022": 0.0,
			"0.023": 0.0,
			"0.024": 0.0,
			"0.025": 0.0
		}
	}
}
