{
	 "smiles": "FC1=CC2=C(C=C1)C1=CC=CC=C1C2", 
	 "Tm": 371.15, 
	 "num_atms": 23, 
	 "gaussian": { 
		 "optdone": 1, 
		 "sigma_profile": "yes", 
		 "theory": "DFT", 
		 "functional": "B3LYP", 
		 "basiset": "6-31G**", 
		 "properties": { 
			 "R2extent": 3777.2329, 
			 "electric_dipole_moment_norm": 1.39425688092, 
			 "electric_quadrupole_moment_norm": 10.3511886124, 
			 "total_energy": -600.658997066, 
			 "HOMO_LUMO_gap": 0.18349, 
			 "cosmo_polarized_energy": -5.36, 
			 "cosmo_cavitation_energy": 27.02, 
			 "cosmo_dispersion_energy": -19.98, 
			 "cosmo_repulsion_energy": 1.51, 
			 "cosmo_total_nonelectrostatic_energy": 8.55, 
			 "SMD_solvation_energy": 4.37 
		},
		"coords": [
			{
				"x": 2.6455101996,
				"y": 4.6159836095,
				"z": 1.7841867347,
				"element": "F" 
			},
			{
				"x": 1.8926503788,
				"y": 3.6572633023,
				"z": 1.2011624844,
				"element": "C" 
			},
			{
				"x": 2.5125638361,
				"y": 2.7556482742,
				"z": 0.3382497426,
				"element": "C" 
			},
			{
				"x": 1.718281057,
				"y": 1.778173682,
				"z": -0.2498581954,
				"element": "C" 
			},
			{
				"x": 0.3351134682,
				"y": 1.708082754,
				"z": 0.0222125129,
				"element": "C" 
			},
			{
				"x": -0.2586798457,
				"y": 2.626298287,
				"z": 0.8921086211,
				"element": "C" 
			},
			{
				"x": 0.5298324346,
				"y": 3.61185293,
				"z": 1.48796985,
				"element": "C" 
			},
			{
				"x": -0.2345569516,
				"y": 0.5849142207,
				"z": -0.7347036641,
				"element": "C" 
			},
			{
				"x": -1.5421053715,
				"y": 0.0993728748,
				"z": -0.8104264126,
				"element": "C" 
			},
			{
				"x": -1.8055005897,
				"y": -1.0044635258,
				"z": -1.6245315406,
				"element": "C" 
			},
			{
				"x": -0.7793110176,
				"y": -1.6158166787,
				"z": -2.3531631148,
				"element": "C" 
			},
			{
				"x": 0.531659484,
				"y": -1.1307277901,
				"z": -2.2786326026,
				"element": "C" 
			},
			{
				"x": 0.7995369236,
				"y": -0.0322580802,
				"z": -1.4698393706,
				"element": "C" 
			},
			{
				"x": 2.1136641457,
				"y": 0.6798640489,
				"z": -1.2157889207,
				"element": "C" 
			},
			{
				"x": 3.5784767871,
				"y": 2.837360034,
				"z": 0.1506226482,
				"element": "H" 
			},
			{
				"x": -1.3220347627,
				"y": 2.582466207,
				"z": 1.1092670169,
				"element": "H" 
			},
			{
				"x": 0.1088946038,
				"y": 4.3436504895,
				"z": 2.1688548361,
				"element": "H" 
			},
			{
				"x": -2.3444202297,
				"y": 0.568690185,
				"z": -0.2476228158,
				"element": "H" 
			},
			{
				"x": -2.8178978238,
				"y": -1.3924648159,
				"z": -1.6927331157,
				"element": "H" 
			},
			{
				"x": -1.0016276822,
				"y": -2.4734406642,
				"z": -2.9814923031,
				"element": "H" 
			},
			{
				"x": 1.3251268779,
				"y": -1.6096142815,
				"z": -2.8469565416,
				"element": "H" 
			},
			{
				"x": 2.869544203,
				"y": 0.0097409047,
				"z": -0.7851542721,
				"element": "H" 
			},
			{
				"x": 2.548579875,
				"y": 1.0850240328,
				"z": -2.1391315771,
				"element": "H" 
			}
		],
		 "valence_orbital": [ 
			{
				"type": "occ",
				"energy": -0.33203,
				"method": "rhf"
			},
			{
				"type": "occ",
				"energy": -0.27671,
				"method": "rhf"
			},
			{
				"type": "occ",
				"energy": -0.25632,
				"method": "rhf"
			},
			{
				"type": "occ",
				"energy": -0.24502,
				"method": "rhf"
			},
			{
				"type": "occ",
				"energy": -0.2121,
				"method": "rhf"
			},
			{
				"type": "unocc",
				"energy": -0.02861,
				"method": "rhf"
			},
			{
				"type": "unocc",
				"energy": -0.01546,
				"method": "rhf"
			},
			{
				"type": "unocc",
				"energy": 0.00554,
				"method": "rhf"
			},
			{
				"type": "unocc",
				"energy": 0.04308,
				"method": "rhf"
			},
			{
				"type": "unocc",
				"energy": 0.09456,
				"method": "rhf"
			}
		],
		"cosmo_sigma_profile": { 
			"-0.025": 0.0,
			"-0.024": 0.0,
			"-0.023": 0.0,
			"-0.022": 0.0,
			"-0.021": 0.0,
			"-0.02": 0.0,
			"-0.019": 0.0,
			"-0.018": 0.0,
			"-0.017": 0.0,
			"-0.016": 0.0,
			"-0.015": 0.0,
			"-0.014": 0.0,
			"-0.013": 0.0,
			"-0.012": 0.0,
			"-0.011": 0.0,
			"-0.01": 0.0,
			"-0.009": 0.0,
			"-0.008": 0.0572863185228,
			"-0.007": 2.74027954385,
			"-0.006": 11.2638086792,
			"-0.005": 17.8939247865,
			"-0.004": 19.8814638209,
			"-0.003": 19.1995982531,
			"-0.002": 15.3294627103,
			"-0.001": 11.9459998616,
			"0.0": 12.2048409487,
			"0.001": 16.5694743818,
			"0.002": 17.5062775142,
			"0.003": 20.6260070764,
			"0.004": 27.0182643074,
			"0.005": 16.8086472221,
			"0.006": 7.44986529695,
			"0.007": 0.748431929637,
			"0.008": 0.0,
			"0.009": 0.0,
			"0.01": 0.0,
			"0.011": 0.0,
			"0.012": 0.0,
			"0.013": 0.0,
			"0.014": 0.0,
			"0.015": 0.0,
			"0.016": 0.0,
			"0.017": 0.0,
			"0.018": 0.0,
			"0.019": 0.0,
			"0.02": 0.0,
			"0.021": 0.0,
			"0.022": 0.0,
			"0.023": 0.0,
			"0.024": 0.0,
			"0.025": 0.0
		}
	}
}
