{
	 "smiles": "CCCOC(=O)CCCCC(=O)OCCC", 
	 "Tm": 257.45, 
	 "num_atms": 38, 
	 "gaussian": { 
		 "optdone": 1, 
		 "sigma_profile": "yes", 
		 "theory": "DFT", 
		 "functional": "B3LYP", 
		 "basiset": "6-31G**", 
		 "properties": { 
			 "R2extent": 8539.3865, 
			 "electric_dipole_moment_norm": 1.14820204233, 
			 "electric_quadrupole_moment_norm": 13.7731487736, 
			 "total_energy": -771.48517857, 
			 "HOMO_LUMO_gap": 0.28098, 
			 "cosmo_polarized_energy": -11.61, 
			 "cosmo_cavitation_energy": 41.15, 
			 "cosmo_dispersion_energy": -28.6, 
			 "cosmo_repulsion_energy": 2.36, 
			 "cosmo_total_nonelectrostatic_energy": 14.9, 
			 "SMD_solvation_energy": 8.34 
		},
		"coords": [
			{
				"x": 5.4239448806,
				"y": -1.7029091354,
				"z": 2.9600012148,
				"element": "C" 
			},
			{
				"x": 4.044735925,
				"y": -2.3677764599,
				"z": 2.9105208646,
				"element": "C" 
			},
			{
				"x": 3.2616883585,
				"y": -2.0544841126,
				"z": 1.6444650031,
				"element": "C" 
			},
			{
				"x": 3.0013079537,
				"y": -0.6310252522,
				"z": 1.6233565365,
				"element": "O" 
			},
			{
				"x": 2.3451842886,
				"y": -0.1633264335,
				"z": 0.5395974963,
				"element": "C" 
			},
			{
				"x": 1.9728730473,
				"y": -0.8693992951,
				"z": -0.3744284274,
				"element": "O" 
			},
			{
				"x": 2.1733370241,
				"y": 1.3436322186,
				"z": 0.6160857838,
				"element": "C" 
			},
			{
				"x": 1.1605159532,
				"y": 1.8877097887,
				"z": -0.3961177827,
				"element": "C" 
			},
			{
				"x": -0.2899920474,
				"y": 1.5201696052,
				"z": -0.0601809114,
				"element": "C" 
			},
			{
				"x": -1.2805357578,
				"y": 2.0540373067,
				"z": -1.0957424795,
				"element": "C" 
			},
			{
				"x": -2.7261380691,
				"y": 1.7631402302,
				"z": -0.7418975509,
				"element": "C" 
			},
			{
				"x": -3.1130335446,
				"y": 1.3042530938,
				"z": 0.3121521823,
				"element": "O" 
			},
			{
				"x": -3.5463214177,
				"y": 2.1052576825,
				"z": -1.764103373,
				"element": "O" 
			},
			{
				"x": -4.9648985965,
				"y": 1.9016470979,
				"z": -1.5547886316,
				"element": "C" 
			},
			{
				"x": -5.3967117388,
				"y": 0.4886383953,
				"z": -1.9367123119,
				"element": "C" 
			},
			{
				"x": -5.1246790491,
				"y": 0.1368092537,
				"z": -3.4022346963,
				"element": "C" 
			},
			{
				"x": 5.3335052255,
				"y": -0.6143871752,
				"z": 2.9067735004,
				"element": "H" 
			},
			{
				"x": 6.0498111259,
				"y": -2.0292443417,
				"z": 2.1214697745,
				"element": "H" 
			},
			{
				"x": 5.949148566,
				"y": -1.9548333708,
				"z": 3.8863909727,
				"element": "H" 
			},
			{
				"x": 3.4479563727,
				"y": -2.0642518366,
				"z": 3.7791325999,
				"element": "H" 
			},
			{
				"x": 4.1496107953,
				"y": -3.4585813946,
				"z": 2.9694524315,
				"element": "H" 
			},
			{
				"x": 2.3056294521,
				"y": -2.586785937,
				"z": 1.6138038507,
				"element": "H" 
			},
			{
				"x": 3.8202718987,
				"y": -2.3250232355,
				"z": 0.7416153508,
				"element": "H" 
			},
			{
				"x": 3.1649551527,
				"y": 1.7826582197,
				"z": 0.4436036383,
				"element": "H" 
			},
			{
				"x": 1.9037504429,
				"y": 1.6114474703,
				"z": 1.6440122835,
				"element": "H" 
			},
			{
				"x": 1.2628681876,
				"y": 2.9795800642,
				"z": -0.4400703384,
				"element": "H" 
			},
			{
				"x": 1.4177840261,
				"y": 1.5028772,
				"z": -1.3895360735,
				"element": "H" 
			},
			{
				"x": -0.387387917,
				"y": 0.4315304926,
				"z": 0.0012945246,
				"element": "H" 
			},
			{
				"x": -0.5590400475,
				"y": 1.9117551859,
				"z": 0.9278471537,
				"element": "H" 
			},
			{
				"x": -1.1852676322,
				"y": 3.1428301233,
				"z": -1.2093711671,
				"element": "H" 
			},
			{
				"x": -1.0823015927,
				"y": 1.637961602,
				"z": -2.0907185303,
				"element": "H" 
			},
			{
				"x": -5.4441775402,
				"y": 2.6480491998,
				"z": -2.195234604,
				"element": "H" 
			},
			{
				"x": -5.2005648158,
				"y": 2.1112527862,
				"z": -0.5087497361,
				"element": "H" 
			},
			{
				"x": -6.4705749587,
				"y": 0.4062064175,
				"z": -1.7225608045,
				"element": "H" 
			},
			{
				"x": -4.8924620919,
				"y": -0.2200916924,
				"z": -1.2707036969,
				"element": "H" 
			},
			{
				"x": -4.0589560766,
				"y": 0.2202945976,
				"z": -3.6344421799,
				"element": "H" 
			},
			{
				"x": -5.6659889109,
				"y": 0.8081081521,
				"z": -4.0790152642,
				"element": "H" 
			},
			{
				"x": -5.4393468721,
				"y": -0.8872265112,
				"z": -3.6257666026,
				"element": "H" 
			}
		],
		 "valence_orbital": [ 
			{
				"type": "occ",
				"energy": -0.32512,
				"method": "rhf"
			},
			{
				"type": "occ",
				"energy": -0.29599,
				"method": "rhf"
			},
			{
				"type": "occ",
				"energy": -0.29026,
				"method": "rhf"
			},
			{
				"type": "occ",
				"energy": -0.26754,
				"method": "rhf"
			},
			{
				"type": "occ",
				"energy": -0.26531,
				"method": "rhf"
			},
			{
				"type": "unocc",
				"energy": 0.01567,
				"method": "rhf"
			},
			{
				"type": "unocc",
				"energy": 0.01867,
				"method": "rhf"
			},
			{
				"type": "unocc",
				"energy": 0.08952,
				"method": "rhf"
			},
			{
				"type": "unocc",
				"energy": 0.09503,
				"method": "rhf"
			},
			{
				"type": "unocc",
				"energy": 0.10329,
				"method": "rhf"
			}
		],
		"cosmo_sigma_profile": { 
			"-0.025": 0.0,
			"-0.024": 0.0,
			"-0.023": 0.0,
			"-0.022": 0.0,
			"-0.021": 0.0,
			"-0.02": 0.0,
			"-0.019": 0.0,
			"-0.018": 0.0,
			"-0.017": 0.0,
			"-0.016": 0.0,
			"-0.015": 0.0,
			"-0.014": 0.0,
			"-0.013": 0.0,
			"-0.012": 0.0,
			"-0.011": 0.0,
			"-0.01": 0.0,
			"-0.009": 0.0,
			"-0.008": 0.0,
			"-0.007": 0.104883118965,
			"-0.006": 4.03431369997,
			"-0.005": 14.983301877,
			"-0.004": 28.4315856666,
			"-0.003": 49.4691971851,
			"-0.002": 49.2888860419,
			"-0.001": 40.6614485549,
			"0.0": 33.4603435795,
			"0.001": 24.8675436152,
			"0.002": 13.4262834013,
			"0.003": 6.9863852265,
			"0.004": 7.34964941109,
			"0.005": 7.37627898187,
			"0.006": 5.05676249783,
			"0.007": 5.18131274119,
			"0.008": 4.86446850089,
			"0.009": 4.28536195505,
			"0.01": 3.62396925622,
			"0.011": 4.5120296086,
			"0.012": 8.30991555695,
			"0.013": 2.87632267038,
			"0.014": 0.0,
			"0.015": 0.0,
			"0.016": 0.0,
			"0.017": 0.0,
			"0.018": 0.0,
			"0.019": 0.0,
			"0.02": 0.0,
			"0.021": 0.0,
			"0.022": 0.0,
			"0.023": 0.0,
			"0.024": 0.0,
			"0.025": 0.0
		}
	}
}
