{
	 "smiles": "CC(C)CC(=O)NCCC1=CC=C(S1)S(N)(=O)=O", 
	 "Tm": 387.15, 
	 "num_atms": 36, 
	 "gaussian": { 
		 "optdone": 1, 
		 "sigma_profile": "yes", 
		 "theory": "DFT", 
		 "functional": "B3LYP", 
		 "basiset": "6-31G**", 
		 "properties": { 
			 "R2extent": 9336.9857, 
			 "electric_dipole_moment_norm": 1.412455794, 
			 "electric_quadrupole_moment_norm": 36.6384064441, 
			 "total_energy": -1561.51977642, 
			 "HOMO_LUMO_gap": 0.19597, 
			 "cosmo_polarized_energy": -23.16, 
			 "cosmo_cavitation_energy": 42.53, 
			 "cosmo_dispersion_energy": -29.29, 
			 "cosmo_repulsion_energy": 2.25, 
			 "cosmo_total_nonelectrostatic_energy": 15.48, 
			 "SMD_solvation_energy": 6.51 
		},
		"coords": [
			{
				"x": 4.3835073191,
				"y": -1.6735728575,
				"z": -0.8308063717,
				"element": "C" 
			},
			{
				"x": 2.9544570631,
				"y": -1.9664742416,
				"z": -0.3550131171,
				"element": "C" 
			},
			{
				"x": 2.8499063587,
				"y": -1.8884353312,
				"z": 1.1746547892,
				"element": "C" 
			},
			{
				"x": 1.951079589,
				"y": -1.0199569763,
				"z": -1.0375695949,
				"element": "C" 
			},
			{
				"x": 0.4984916184,
				"y": -1.4317458295,
				"z": -0.8157293869,
				"element": "C" 
			},
			{
				"x": 0.1407800485,
				"y": -2.6040313787,
				"z": -0.7568839508,
				"element": "O" 
			},
			{
				"x": -0.4011242803,
				"y": -0.4008219125,
				"z": -0.7244001351,
				"element": "N" 
			},
			{
				"x": -1.825959107,
				"y": -0.6507761752,
				"z": -0.5810044607,
				"element": "C" 
			},
			{
				"x": -2.2696914829,
				"y": -0.9132854549,
				"z": 0.8780061777,
				"element": "C" 
			},
			{
				"x": -2.1599018747,
				"y": 0.276079258,
				"z": 1.7879013766,
				"element": "C" 
			},
			{
				"x": -3.1811632346,
				"y": 1.0498904803,
				"z": 2.2865219441,
				"element": "C" 
			},
			{
				"x": -2.7377268354,
				"y": 2.1293580714,
				"z": 3.1000261976,
				"element": "C" 
			},
			{
				"x": -1.3727053176,
				"y": 2.1593585796,
				"z": 3.2182967301,
				"element": "C" 
			},
			{
				"x": -0.6075940364,
				"y": 0.875620599,
				"z": 2.3238095091,
				"element": "S" 
			},
			{
				"x": -0.4636252389,
				"y": 3.3940497715,
				"z": 4.0934339326,
				"element": "S" 
			},
			{
				"x": 0.2326942053,
				"y": 2.5161544463,
				"z": 5.3614603213,
				"element": "N" 
			},
			{
				"x": -1.4535702685,
				"y": 4.3374238949,
				"z": 4.6210407717,
				"element": "O" 
			},
			{
				"x": 0.6657575774,
				"y": 3.8367448237,
				"z": 3.2736592985,
				"element": "O" 
			},
			{
				"x": 4.4732953102,
				"y": -1.7692376491,
				"z": -1.9186720799,
				"element": "H" 
			},
			{
				"x": 4.6924605401,
				"y": -0.6565887094,
				"z": -0.5587475112,
				"element": "H" 
			},
			{
				"x": 5.0974272853,
				"y": -2.3673870731,
				"z": -0.3744939019,
				"element": "H" 
			},
			{
				"x": 2.6805243625,
				"y": -2.982970373,
				"z": -0.6615569681,
				"element": "H" 
			},
			{
				"x": 3.5517011683,
				"y": -2.5820737346,
				"z": 1.6497783579,
				"element": "H" 
			},
			{
				"x": 3.0852337135,
				"y": -0.8794970876,
				"z": 1.536445646,
				"element": "H" 
			},
			{
				"x": 1.8441823535,
				"y": -2.1494583643,
				"z": 1.5177483728,
				"element": "H" 
			},
			{
				"x": 2.1162774947,
				"y": 0.0150075662,
				"z": -0.708839852,
				"element": "H" 
			},
			{
				"x": 2.1188227776,
				"y": -1.0325016731,
				"z": -2.1234131262,
				"element": "H" 
			},
			{
				"x": -0.0652915116,
				"y": 0.5501299009,
				"z": -0.7254921142,
				"element": "H" 
			},
			{
				"x": -2.0653833355,
				"y": -1.5375128182,
				"z": -1.173651229,
				"element": "H" 
			},
			{
				"x": -2.3717605088,
				"y": 0.2033264201,
				"z": -0.9927447702,
				"element": "H" 
			},
			{
				"x": -3.3188080259,
				"y": -1.2304948291,
				"z": 0.8660958723,
				"element": "H" 
			},
			{
				"x": -1.684725841,
				"y": -1.758304794,
				"z": 1.2557945941,
				"element": "H" 
			},
			{
				"x": -4.2253414022,
				"y": 0.84565218,
				"z": 2.0759214846,
				"element": "H" 
			},
			{
				"x": -3.3805526705,
				"y": 2.8589579897,
				"z": 3.5766658022,
				"element": "H" 
			},
			{
				"x": 1.1719359858,
				"y": 2.8733128646,
				"z": 5.5198046882,
				"element": "H" 
			},
			{
				"x": -0.3362097995,
				"y": 2.5873604169,
				"z": 6.2015527032,
				"element": "H" 
			}
		],
		 "valence_orbital": [ 
			{
				"type": "occ",
				"energy": -0.29729,
				"method": "rhf"
			},
			{
				"type": "occ",
				"energy": -0.27199,
				"method": "rhf"
			},
			{
				"type": "occ",
				"energy": -0.26268,
				"method": "rhf"
			},
			{
				"type": "occ",
				"energy": -0.25198,
				"method": "rhf"
			},
			{
				"type": "occ",
				"energy": -0.24383,
				"method": "rhf"
			},
			{
				"type": "unocc",
				"energy": -0.04786,
				"method": "rhf"
			},
			{
				"type": "unocc",
				"energy": 0.01259,
				"method": "rhf"
			},
			{
				"type": "unocc",
				"energy": 0.02369,
				"method": "rhf"
			},
			{
				"type": "unocc",
				"energy": 0.0388,
				"method": "rhf"
			},
			{
				"type": "unocc",
				"energy": 0.04904,
				"method": "rhf"
			}
		],
		"cosmo_sigma_profile": { 
			"-0.025": 0.0,
			"-0.024": 0.0,
			"-0.023": 0.0,
			"-0.022": 0.0,
			"-0.021": 0.0,
			"-0.02": 0.0,
			"-0.019": 0.0,
			"-0.018": 0.0,
			"-0.017": 0.0,
			"-0.016": 0.0126141501822,
			"-0.015": 1.62465131354,
			"-0.014": 2.41736626805,
			"-0.013": 3.69857632757,
			"-0.012": 4.21367192169,
			"-0.011": 3.17926362588,
			"-0.01": 3.21405822947,
			"-0.009": 3.28813743721,
			"-0.008": 4.26772635074,
			"-0.007": 8.08940232354,
			"-0.006": 10.3624166605,
			"-0.005": 16.0552695073,
			"-0.004": 19.3883885577,
			"-0.003": 24.6239042066,
			"-0.002": 31.7961074381,
			"-0.001": 30.3793769029,
			"0.0": 29.2522307846,
			"0.001": 30.9637705509,
			"0.002": 23.8489148297,
			"0.003": 13.6068332633,
			"0.004": 9.50803562426,
			"0.005": 6.17940007349,
			"0.006": 5.85729882696,
			"0.007": 5.51539364543,
			"0.008": 5.58629872873,
			"0.009": 5.28195809925,
			"0.01": 10.1456158545,
			"0.011": 11.8859622698,
			"0.012": 3.98575236422,
			"0.013": 2.41638783367,
			"0.014": 4.15873903348,
			"0.015": 0.636340970907,
			"0.016": 0.0,
			"0.017": 0.0,
			"0.018": 0.0,
			"0.019": 0.0,
			"0.02": 0.0,
			"0.021": 0.0,
			"0.022": 0.0,
			"0.023": 0.0,
			"0.024": 0.0,
			"0.025": 0.0
		}
	}
}
