{
	 "smiles": "CC1=CC=C(C=C1)C(=O)N1CCCC(C1)C(O)=O", 
	 "Tm": 420.15, 
	 "num_atms": 35, 
	 "gaussian": { 
		 "optdone": 1, 
		 "sigma_profile": "yes", 
		 "theory": "DFT", 
		 "functional": "B3LYP", 
		 "basiset": "6-31G**", 
		 "properties": { 
			 "R2extent": 6257.251, 
			 "electric_dipole_moment_norm": 4.0197812341, 
			 "electric_quadrupole_moment_norm": 18.7461919608, 
			 "total_energy": -824.202123634, 
			 "HOMO_LUMO_gap": 0.20603, 
			 "cosmo_polarized_energy": -15.62, 
			 "cosmo_cavitation_energy": 36.29, 
			 "cosmo_dispersion_energy": -26.13, 
			 "cosmo_repulsion_energy": 2.01, 
			 "cosmo_total_nonelectrostatic_energy": 12.18, 
			 "SMD_solvation_energy": 6.72 
		},
		"coords": [
			{
				"x": -3.4333992955,
				"y": -1.9506935936,
				"z": -1.6885345021,
				"element": "C" 
			},
			{
				"x": -2.331291226,
				"y": -0.9239256685,
				"z": -1.5812198817,
				"element": "C" 
			},
			{
				"x": -1.9555565563,
				"y": -0.39089212,
				"z": -0.3425023851,
				"element": "C" 
			},
			{
				"x": -0.9139404039,
				"y": 0.5316742456,
				"z": -0.2328122263,
				"element": "C" 
			},
			{
				"x": -0.223617373,
				"y": 0.9525124655,
				"z": -1.3773556265,
				"element": "C" 
			},
			{
				"x": -0.6169584675,
				"y": 0.4480022981,
				"z": -2.6264428491,
				"element": "C" 
			},
			{
				"x": -1.6438582893,
				"y": -0.4847069599,
				"z": -2.7229883854,
				"element": "C" 
			},
			{
				"x": 0.8376935297,
				"y": 2.0178247332,
				"z": -1.3820620422,
				"element": "C" 
			},
			{
				"x": 0.8433841456,
				"y": 2.8559341351,
				"z": -2.2818315731,
				"element": "O" 
			},
			{
				"x": 1.78532359,
				"y": 2.060994408,
				"z": -0.3641976652,
				"element": "N" 
			},
			{
				"x": 2.8031337344,
				"y": 3.1147498066,
				"z": -0.4896142375,
				"element": "C" 
			},
			{
				"x": 3.3570991505,
				"y": 3.5132288485,
				"z": 0.8793860644,
				"element": "C" 
			},
			{
				"x": 3.8950580838,
				"y": 2.2938417085,
				"z": 1.6359503843,
				"element": "C" 
			},
			{
				"x": 2.8103985319,
				"y": 1.2040732698,
				"z": 1.7374219273,
				"element": "C" 
			},
			{
				"x": 2.2461487158,
				"y": 0.8628252662,
				"z": 0.346295986,
				"element": "C" 
			},
			{
				"x": 1.6988166148,
				"y": 1.530737135,
				"z": 2.7296425592,
				"element": "C" 
			},
			{
				"x": 2.1377500031,
				"y": 2.2565429121,
				"z": 3.784366836,
				"element": "O" 
			},
			{
				"x": 0.5494119774,
				"y": 1.1498693472,
				"z": 2.6553628111,
				"element": "O" 
			},
			{
				"x": -4.0359254405,
				"y": -1.7987571675,
				"z": -2.5897672507,
				"element": "H" 
			},
			{
				"x": -4.1011183216,
				"y": -1.9136423904,
				"z": -0.8229826952,
				"element": "H" 
			},
			{
				"x": -3.0232627994,
				"y": -2.9671906893,
				"z": -1.7423867722,
				"element": "H" 
			},
			{
				"x": -2.488622701,
				"y": -0.6963091379,
				"z": 0.5545969383,
				"element": "H" 
			},
			{
				"x": -0.6536603423,
				"y": 0.9288878062,
				"z": 0.7421295013,
				"element": "H" 
			},
			{
				"x": -0.1136217966,
				"y": 0.8104829967,
				"z": -3.516654477,
				"element": "H" 
			},
			{
				"x": -1.927166529,
				"y": -0.8705318663,
				"z": -3.6994666712,
				"element": "H" 
			},
			{
				"x": 2.341105082,
				"y": 3.9578360019,
				"z": -1.0011139451,
				"element": "H" 
			},
			{
				"x": 3.624342624,
				"y": 2.759530032,
				"z": -1.1347269323,
				"element": "H" 
			},
			{
				"x": 4.1510275492,
				"y": 4.2557075492,
				"z": 0.7409511274,
				"element": "H" 
			},
			{
				"x": 2.5668512594,
				"y": 3.9959904335,
				"z": 1.467507047,
				"element": "H" 
			},
			{
				"x": 4.7473339842,
				"y": 1.8717445899,
				"z": 1.0875893406,
				"element": "H" 
			},
			{
				"x": 4.2545352643,
				"y": 2.5698803941,
				"z": 2.6297415332,
				"element": "H" 
			},
			{
				"x": 3.2693902675,
				"y": 0.2868067825,
				"z": 2.1354860668,
				"element": "H" 
			},
			{
				"x": 3.0539587308,
				"y": 0.3808059539,
				"z": -0.2286909038,
				"element": "H" 
			},
			{
				"x": 1.4307194459,
				"y": 0.1495994448,
				"z": 0.4342746428,
				"element": "H" 
			},
			{
				"x": 1.3699172574,
				"y": 2.3673670293,
				"z": 4.370648256,
				"element": "H" 
			}
		],
		 "valence_orbital": [ 
			{
				"type": "occ",
				"energy": -0.28408,
				"method": "rhf"
			},
			{
				"type": "occ",
				"energy": -0.25383,
				"method": "rhf"
			},
			{
				"type": "occ",
				"energy": -0.2441,
				"method": "rhf"
			},
			{
				"type": "occ",
				"energy": -0.23503,
				"method": "rhf"
			},
			{
				"type": "occ",
				"energy": -0.22753,
				"method": "rhf"
			},
			{
				"type": "unocc",
				"energy": -0.0215,
				"method": "rhf"
			},
			{
				"type": "unocc",
				"energy": -0.00418,
				"method": "rhf"
			},
			{
				"type": "unocc",
				"energy": 0.00428,
				"method": "rhf"
			},
			{
				"type": "unocc",
				"energy": 0.05247,
				"method": "rhf"
			},
			{
				"type": "unocc",
				"energy": 0.06587,
				"method": "rhf"
			}
		],
		"cosmo_sigma_profile": { 
			"-0.025": 0.0,
			"-0.024": 0.0,
			"-0.023": 0.0,
			"-0.022": 0.0,
			"-0.021": 0.0,
			"-0.02": 0.0,
			"-0.019": 0.0126994982599,
			"-0.018": 0.638147481554,
			"-0.017": 1.05351911636,
			"-0.016": 0.835820045726,
			"-0.015": 0.682755911641,
			"-0.014": 1.15188350321,
			"-0.013": 0.414433240437,
			"-0.012": 0.519848403127,
			"-0.011": 0.847882698963,
			"-0.01": 0.658318880198,
			"-0.009": 0.454628679433,
			"-0.008": 0.943266580351,
			"-0.007": 3.89487740587,
			"-0.006": 5.65699734888,
			"-0.005": 15.2830195019,
			"-0.004": 30.6321893228,
			"-0.003": 31.8235472308,
			"-0.002": 30.5014631659,
			"-0.001": 29.3945216337,
			"0.0": 23.4008988262,
			"0.001": 14.93910093,
			"0.002": 14.5133787629,
			"0.003": 12.9857076006,
			"0.004": 14.7978016992,
			"0.005": 13.8375967002,
			"0.006": 5.97787299636,
			"0.007": 4.70034043877,
			"0.008": 3.72964510667,
			"0.009": 3.28404329678,
			"0.01": 3.67574447877,
			"0.011": 3.99081543733,
			"0.012": 2.48091388266,
			"0.013": 3.96876036847,
			"0.014": 3.3256585516,
			"0.015": 0.48768713831,
			"0.016": 0.0,
			"0.017": 0.0,
			"0.018": 0.0,
			"0.019": 0.0,
			"0.02": 0.0,
			"0.021": 0.0,
			"0.022": 0.0,
			"0.023": 0.0,
			"0.024": 0.0,
			"0.025": 0.0
		}
	}
}
