{
	 "smiles": "CC1=C(C=CC=C1)C(=O)CC1=CC=CC=C1C(=O)OC(C)(C)C", 
	 "Tm": 306.15, 
	 "num_atms": 45, 
	 "gaussian": { 
		 "optdone": 1, 
		 "sigma_profile": "yes", 
		 "theory": "DFT", 
		 "functional": "B3LYP", 
		 "basiset": "6-31G**", 
		 "properties": { 
			 "R2extent": 8521.3695, 
			 "electric_dipole_moment_norm": 2.82747041187, 
			 "electric_quadrupole_moment_norm": 14.8480810625, 
			 "total_energy": -1001.09366623, 
			 "HOMO_LUMO_gap": 0.18323, 
			 "cosmo_polarized_energy": -12.47, 
			 "cosmo_cavitation_energy": 45.93, 
			 "cosmo_dispersion_energy": -30.21, 
			 "cosmo_repulsion_energy": 2.27, 
			 "cosmo_total_nonelectrostatic_energy": 17.99, 
			 "SMD_solvation_energy": 8.61 
		},
		"coords": [
			{
				"x": -0.4911725468,
				"y": 2.5874062186,
				"z": -3.1261738053,
				"element": "C" 
			},
			{
				"x": 0.9908733162,
				"y": 2.4656755286,
				"z": -3.3935142279,
				"element": "C" 
			},
			{
				"x": 1.9463049807,
				"y": 2.1946880656,
				"z": -2.3801195026,
				"element": "C" 
			},
			{
				"x": 3.3056566373,
				"y": 2.0988502075,
				"z": -2.7212108069,
				"element": "C" 
			},
			{
				"x": 3.7420186369,
				"y": 2.2732840203,
				"z": -4.0315012833,
				"element": "C" 
			},
			{
				"x": 2.8049107619,
				"y": 2.5231608127,
				"z": -5.0323128815,
				"element": "C" 
			},
			{
				"x": 1.4512297899,
				"y": 2.6093143813,
				"z": -4.7083021823,
				"element": "C" 
			},
			{
				"x": 1.5310909705,
				"y": 2.0653108421,
				"z": -0.9443617578,
				"element": "C" 
			},
			{
				"x": 0.5707348097,
				"y": 2.685643484,
				"z": -0.5110142324,
				"element": "O" 
			},
			{
				"x": 2.3259170846,
				"y": 1.136874563,
				"z": -0.004081118,
				"element": "C" 
			},
			{
				"x": 2.303964929,
				"y": -0.3285889343,
				"z": -0.4167397523,
				"element": "C" 
			},
			{
				"x": 3.4858254115,
				"y": -0.8922271592,
				"z": -0.919711899,
				"element": "C" 
			},
			{
				"x": 3.5496629957,
				"y": -2.2097638997,
				"z": -1.3685289845,
				"element": "C" 
			},
			{
				"x": 2.4047604963,
				"y": -3.0046149862,
				"z": -1.3418549903,
				"element": "C" 
			},
			{
				"x": 1.2207104739,
				"y": -2.4703812037,
				"z": -0.8460206969,
				"element": "C" 
			},
			{
				"x": 1.1536018715,
				"y": -1.1531094335,
				"z": -0.3637160432,
				"element": "C" 
			},
			{
				"x": -0.1959269234,
				"y": -0.7729665902,
				"z": 0.1891823089,
				"element": "C" 
			},
			{
				"x": -1.2207593875,
				"y": -1.323687862,
				"z": -0.1736898233,
				"element": "O" 
			},
			{
				"x": -0.1229178054,
				"y": 0.1646577525,
				"z": 1.1438092701,
				"element": "O" 
			},
			{
				"x": -1.3306018451,
				"y": 0.6797507521,
				"z": 1.8310135171,
				"element": "C" 
			},
			{
				"x": -2.3056483781,
				"y": 1.2876944936,
				"z": 0.817932759,
				"element": "C" 
			},
			{
				"x": -1.9631080503,
				"y": -0.4497068635,
				"z": 2.6495437755,
				"element": "C" 
			},
			{
				"x": -0.7521178804,
				"y": 1.767414586,
				"z": 2.7388536328,
				"element": "C" 
			},
			{
				"x": -0.7198166257,
				"y": 3.5065755081,
				"z": -2.5806646788,
				"element": "H" 
			},
			{
				"x": -0.865746894,
				"y": 1.7638771396,
				"z": -2.5118019961,
				"element": "H" 
			},
			{
				"x": -1.0443520328,
				"y": 2.5919628714,
				"z": -4.0695030276,
				"element": "H" 
			},
			{
				"x": 4.0400438171,
				"y": 1.9095067379,
				"z": -1.9466087412,
				"element": "H" 
			},
			{
				"x": 4.8000937988,
				"y": 2.210072422,
				"z": -4.2669248027,
				"element": "H" 
			},
			{
				"x": 3.1235246418,
				"y": 2.650212477,
				"z": -6.0631122965,
				"element": "H" 
			},
			{
				"x": 0.7257919052,
				"y": 2.7980539909,
				"z": -5.4952544668,
				"element": "H" 
			},
			{
				"x": 3.3685324936,
				"y": 1.4704907567,
				"z": 0.0280254096,
				"element": "H" 
			},
			{
				"x": 1.8975231397,
				"y": 1.2746737199,
				"z": 0.9865565227,
				"element": "H" 
			},
			{
				"x": 4.3814496938,
				"y": -0.2787889412,
				"z": -0.9591470169,
				"element": "H" 
			},
			{
				"x": 4.4888711919,
				"y": -2.6077268286,
				"z": -1.7421032524,
				"element": "H" 
			},
			{
				"x": 2.4339103064,
				"y": -4.0299101682,
				"z": -1.6979763452,
				"element": "H" 
			},
			{
				"x": 0.3138476796,
				"y": -3.0640047758,
				"z": -0.8141974015,
				"element": "H" 
			},
			{
				"x": -3.1202678072,
				"y": 1.7808700566,
				"z": 1.35892324,
				"element": "H" 
			},
			{
				"x": -1.7920646855,
				"y": 2.0365153699,
				"z": 0.2101580311,
				"element": "H" 
			},
			{
				"x": -2.7311871465,
				"y": 0.5227488752,
				"z": 0.1682027837,
				"element": "H" 
			},
			{
				"x": -2.3561352143,
				"y": -1.2328682022,
				"z": 2.0002224964,
				"element": "H" 
			},
			{
				"x": -1.2263188361,
				"y": -0.887677542,
				"z": 3.330426575,
				"element": "H" 
			},
			{
				"x": -2.7843988176,
				"y": -0.0473606007,
				"z": 3.2516279554,
				"element": "H" 
			},
			{
				"x": -1.5534887198,
				"y": 2.2350703043,
				"z": 3.3189545646,
				"element": "H" 
			},
			{
				"x": -0.024555778,
				"y": 1.342722833,
				"z": 3.4375754112,
				"element": "H" 
			},
			{
				"x": -0.2587664588,
				"y": 2.5340052207,
				"z": 2.1360397596,
				"element": "H" 
			}
		],
		 "valence_orbital": [ 
			{
				"type": "occ",
				"energy": -0.26373,
				"method": "rhf"
			},
			{
				"type": "occ",
				"energy": -0.25819,
				"method": "rhf"
			},
			{
				"type": "occ",
				"energy": -0.2511,
				"method": "rhf"
			},
			{
				"type": "occ",
				"energy": -0.24708,
				"method": "rhf"
			},
			{
				"type": "occ",
				"energy": -0.23697,
				"method": "rhf"
			},
			{
				"type": "unocc",
				"energy": -0.05374,
				"method": "rhf"
			},
			{
				"type": "unocc",
				"energy": -0.03973,
				"method": "rhf"
			},
			{
				"type": "unocc",
				"energy": -0.0072,
				"method": "rhf"
			},
			{
				"type": "unocc",
				"energy": -0.00313,
				"method": "rhf"
			},
			{
				"type": "unocc",
				"energy": 0.02854,
				"method": "rhf"
			}
		],
		"cosmo_sigma_profile": { 
			"-0.025": 0.0,
			"-0.024": 0.0,
			"-0.023": 0.0,
			"-0.022": 0.0,
			"-0.021": 0.0,
			"-0.02": 0.0,
			"-0.019": 0.0,
			"-0.018": 0.0,
			"-0.017": 0.00956358803254,
			"-0.016": 0.0254310006215,
			"-0.015": 0.0818751764319,
			"-0.014": 0.0592566004221,
			"-0.013": 0.23435803456,
			"-0.012": 0.172362239932,
			"-0.011": 0.439790419556,
			"-0.01": 1.08157303302,
			"-0.009": 1.58596961813,
			"-0.008": 2.68747682197,
			"-0.007": 5.04564597262,
			"-0.006": 12.5995491906,
			"-0.005": 18.0936056563,
			"-0.004": 28.756629327,
			"-0.003": 30.0167048112,
			"-0.002": 30.9959242018,
			"-0.001": 33.9762360332,
			"0.0": 44.8495688663,
			"0.001": 38.7225577739,
			"0.002": 22.5937994145,
			"0.003": 23.6348804093,
			"0.004": 27.5491244458,
			"0.005": 15.4406464691,
			"0.006": 5.24589726674,
			"0.007": 4.09424320115,
			"0.008": 2.63339677156,
			"0.009": 3.45690998688,
			"0.01": 3.05974965879,
			"0.011": 2.57951017523,
			"0.012": 2.83368575286,
			"0.013": 0.732576719379,
			"0.014": 0.0,
			"0.015": 0.0,
			"0.016": 0.0,
			"0.017": 0.0,
			"0.018": 0.0,
			"0.019": 0.0,
			"0.02": 0.0,
			"0.021": 0.0,
			"0.022": 0.0,
			"0.023": 0.0,
			"0.024": 0.0,
			"0.025": 0.0
		}
	}
}
