{
	 "smiles": "ClCC1=C(ON=C1)C1=CC=C(Cl)C=C1", 
	 "Tm": 352.15, 
	 "num_atms": 21, 
	 "gaussian": { 
		 "optdone": 1, 
		 "sigma_profile": "yes", 
		 "theory": "DFT", 
		 "functional": "B3LYP", 
		 "basiset": "6-31G**", 
		 "properties": { 
			 "R2extent": 4799.8566, 
			 "electric_dipole_moment_norm": 2.25712012308, 
			 "electric_quadrupole_moment_norm": 8.83435662513, 
			 "total_energy": -1435.59782134, 
			 "HOMO_LUMO_gap": 0.17817, 
			 "cosmo_polarized_energy": -10.1, 
			 "cosmo_cavitation_energy": 29.34, 
			 "cosmo_dispersion_energy": -21.52, 
			 "cosmo_repulsion_energy": 1.69, 
			 "cosmo_total_nonelectrostatic_energy": 9.51, 
			 "SMD_solvation_energy": 4.19 
		},
		"coords": [
			{
				"x": -0.6139516437,
				"y": 0.5842847091,
				"z": 3.7598233519,
				"element": "Cl" 
			},
			{
				"x": -0.3885244379,
				"y": 1.4329752533,
				"z": 2.1372726727,
				"element": "C" 
			},
			{
				"x": 0.8779171641,
				"y": 1.0752751324,
				"z": 1.4573259392,
				"element": "C" 
			},
			{
				"x": 1.1322393933,
				"y": 0.0770222016,
				"z": 0.5403452546,
				"element": "C" 
			},
			{
				"x": 2.4134623009,
				"y": 0.1790039857,
				"z": 0.1225367099,
				"element": "O" 
			},
			{
				"x": 3.0426153265,
				"y": 1.2504544581,
				"z": 0.7657257859,
				"element": "N" 
			},
			{
				"x": 2.1246074575,
				"y": 1.7585759054,
				"z": 1.5488440642,
				"element": "C" 
			},
			{
				"x": 0.3267149043,
				"y": -0.9840624214,
				"z": -0.061159433,
				"element": "C" 
			},
			{
				"x": -0.7736016797,
				"y": -1.5343212611,
				"z": 0.6187316773,
				"element": "C" 
			},
			{
				"x": -1.5436198528,
				"y": -2.533968445,
				"z": 0.0290254712,
				"element": "C" 
			},
			{
				"x": -1.2080974376,
				"y": -2.9944377862,
				"z": -1.2440776256,
				"element": "C" 
			},
			{
				"x": -2.1755120669,
				"y": -4.2520747557,
				"z": -1.989876146,
				"element": "Cl" 
			},
			{
				"x": -0.1092925933,
				"y": -2.4749364466,
				"z": -1.9313599285,
				"element": "C" 
			},
			{
				"x": 0.6528266076,
				"y": -1.4740850567,
				"z": -1.3385943708,
				"element": "C" 
			},
			{
				"x": -0.4297465208,
				"y": 2.4965740463,
				"z": 2.3703644371,
				"element": "H" 
			},
			{
				"x": -1.2629188806,
				"y": 1.1610485318,
				"z": 1.5464308901,
				"element": "H" 
			},
			{
				"x": 2.3712454066,
				"y": 2.6164654984,
				"z": 2.1627254097,
				"element": "H" 
			},
			{
				"x": -1.0101836865,
				"y": -1.2126311511,
				"z": 1.6273263181,
				"element": "H" 
			},
			{
				"x": -2.3879286716,
				"y": -2.9618534222,
				"z": 0.5575991696,
				"element": "H" 
			},
			{
				"x": 0.140911317,
				"y": -2.8480281843,
				"z": -2.9180718403,
				"element": "H" 
			},
			{
				"x": 1.5051375937,
				"y": -1.0617807918,
				"z": -1.8673378071,
				"element": "H" 
			}
		],
		 "valence_orbital": [ 
			{
				"type": "occ",
				"energy": -0.30971,
				"method": "rhf"
			},
			{
				"type": "occ",
				"energy": -0.3057,
				"method": "rhf"
			},
			{
				"type": "occ",
				"energy": -0.2902,
				"method": "rhf"
			},
			{
				"type": "occ",
				"energy": -0.28044,
				"method": "rhf"
			},
			{
				"type": "occ",
				"energy": -0.24421,
				"method": "rhf"
			},
			{
				"type": "unocc",
				"energy": -0.06604,
				"method": "rhf"
			},
			{
				"type": "unocc",
				"energy": -0.03054,
				"method": "rhf"
			},
			{
				"type": "unocc",
				"energy": -0.00813,
				"method": "rhf"
			},
			{
				"type": "unocc",
				"energy": 0.00348,
				"method": "rhf"
			},
			{
				"type": "unocc",
				"energy": 0.01923,
				"method": "rhf"
			}
		],
		"cosmo_sigma_profile": { 
			"-0.025": 0.0,
			"-0.024": 0.0,
			"-0.023": 0.0,
			"-0.022": 0.0,
			"-0.021": 0.0,
			"-0.02": 0.0,
			"-0.019": 0.0,
			"-0.018": 0.0,
			"-0.017": 0.0,
			"-0.016": 0.0,
			"-0.015": 0.0,
			"-0.014": 0.0,
			"-0.013": 0.0,
			"-0.012": 0.0,
			"-0.011": 0.0,
			"-0.01": 1.52131838114,
			"-0.009": 4.44116824771,
			"-0.008": 8.36227712074,
			"-0.007": 11.8697394134,
			"-0.006": 12.0368115577,
			"-0.005": 11.5169839555,
			"-0.004": 9.55147965142,
			"-0.003": 10.1511203129,
			"-0.002": 14.439345538,
			"-0.001": 18.6013627517,
			"0.0": 19.8008468285,
			"0.001": 23.2759898029,
			"0.002": 26.5210314818,
			"0.003": 14.943291199,
			"0.004": 17.3970142722,
			"0.005": 10.0725187426,
			"0.006": 11.0329109484,
			"0.007": 5.38084714756,
			"0.008": 2.48276022194,
			"0.009": 1.66937847697,
			"0.01": 1.35244880895,
			"0.011": 1.68715696198,
			"0.012": 1.28340173558,
			"0.013": 1.34636554498,
			"0.014": 0.315588570454,
			"0.015": 0.0,
			"0.016": 0.0,
			"0.017": 0.0,
			"0.018": 0.0,
			"0.019": 0.0,
			"0.02": 0.0,
			"0.021": 0.0,
			"0.022": 0.0,
			"0.023": 0.0,
			"0.024": 0.0,
			"0.025": 0.0
		}
	}
}
