{
	 "smiles": "BrC1=C(NC2=NCCN2)C=CC2=C1N=CC=N2", 
	 "Tm": 480.65, 
	 "num_atms": 27, 
	 "gaussian": { 
		 "optdone": 1, 
		 "sigma_profile": "yes", 
		 "theory": "DFT", 
		 "functional": "B3LYP", 
		 "basiset": "6-31G**", 
		 "properties": { 
			 "R2extent": 7027.1335, 
			 "electric_dipole_moment_norm": 2.90428856349, 
			 "electric_quadrupole_moment_norm": 12.2215987817, 
			 "total_energy": -3270.35084821, 
			 "HOMO_LUMO_gap": 0.14256, 
			 "cosmo_polarized_energy": -14.49, 
			 "cosmo_cavitation_energy": 32.84, 
			 "cosmo_dispersion_energy": -25.32, 
			 "cosmo_repulsion_energy": 1.95, 
			 "cosmo_total_nonelectrostatic_energy": 9.46, 
			 "SMD_solvation_energy": -2.02 
		},
		"coords": [
			{
				"x": -0.9040941233,
				"y": 2.5306240147,
				"z": -1.733785968,
				"element": "Br" 
			},
			{
				"x": -1.6831258286,
				"y": 1.4916647473,
				"z": -0.3277764988,
				"element": "C" 
			},
			{
				"x": -1.1697425036,
				"y": 0.2307260601,
				"z": -0.0253339376,
				"element": "C" 
			},
			{
				"x": -0.1008631442,
				"y": -0.2680919109,
				"z": -0.7602516411,
				"element": "N" 
			},
			{
				"x": 0.5861268243,
				"y": -1.4578836528,
				"z": -0.6152765096,
				"element": "C" 
			},
			{
				"x": 0.4022491104,
				"y": -2.3579983334,
				"z": 0.2825875482,
				"element": "N" 
			},
			{
				"x": 1.4076046566,
				"y": -3.3985448459,
				"z": 0.0286442099,
				"element": "C" 
			},
			{
				"x": 2.0007273725,
				"y": -3.0861544742,
				"z": -1.37326145,
				"element": "C" 
			},
			{
				"x": 1.6279965893,
				"y": -1.6697311293,
				"z": -1.5342946988,
				"element": "N" 
			},
			{
				"x": -1.7707615334,
				"y": -0.5200225252,
				"z": 1.0320802949,
				"element": "C" 
			},
			{
				"x": -2.834424119,
				"y": -0.0174321364,
				"z": 1.7357639296,
				"element": "C" 
			},
			{
				"x": -3.3681202933,
				"y": 1.2611856741,
				"z": 1.4375327629,
				"element": "C" 
			},
			{
				"x": -2.7814629287,
				"y": 2.0363216601,
				"z": 0.3838056219,
				"element": "C" 
			},
			{
				"x": -3.2696471375,
				"y": 3.2683143468,
				"z": 0.0733731064,
				"element": "N" 
			},
			{
				"x": -4.2917856557,
				"y": 3.6950238526,
				"z": 0.7855893238,
				"element": "C" 
			},
			{
				"x": -4.8727323066,
				"y": 2.9293262531,
				"z": 1.8284955792,
				"element": "C" 
			},
			{
				"x": -4.4233616059,
				"y": 1.7335222657,
				"z": 2.1530667353,
				"element": "N" 
			},
			{
				"x": 0.2791399386,
				"y": 0.3829185303,
				"z": -1.4355818551,
				"element": "H" 
			},
			{
				"x": 2.1841283069,
				"y": -3.3499604501,
				"z": 0.8038985419,
				"element": "H" 
			},
			{
				"x": 0.9609030935,
				"y": -4.3967073699,
				"z": 0.0795480232,
				"element": "H" 
			},
			{
				"x": 3.0850334592,
				"y": -3.2186646058,
				"z": -1.4204606721,
				"element": "H" 
			},
			{
				"x": 1.5409475093,
				"y": -3.7104200689,
				"z": -2.1518230393,
				"element": "H" 
			},
			{
				"x": 1.4434509888,
				"y": -1.3687805489,
				"z": -2.4847664616,
				"element": "H" 
			},
			{
				"x": -1.3437902419,
				"y": -1.4894465396,
				"z": 1.2564220723,
				"element": "H" 
			},
			{
				"x": -3.2922346363,
				"y": -0.5836419864,
				"z": 2.5399500869,
				"element": "H" 
			},
			{
				"x": -4.6890206449,
				"y": 4.6799165985,
				"z": 0.5440656299,
				"element": "H" 
			},
			{
				"x": -5.7173411464,
				"y": 3.3206365743,
				"z": 2.3928892657,
				"element": "H" 
			}
		],
		 "valence_orbital": [ 
			{
				"type": "occ",
				"energy": -0.26823,
				"method": "rhf"
			},
			{
				"type": "occ",
				"energy": -0.24871,
				"method": "rhf"
			},
			{
				"type": "occ",
				"energy": -0.24653,
				"method": "rhf"
			},
			{
				"type": "occ",
				"energy": -0.23428,
				"method": "rhf"
			},
			{
				"type": "occ",
				"energy": -0.21354,
				"method": "rhf"
			},
			{
				"type": "unocc",
				"energy": -0.07098,
				"method": "rhf"
			},
			{
				"type": "unocc",
				"energy": -0.02433,
				"method": "rhf"
			},
			{
				"type": "unocc",
				"energy": 0.005,
				"method": "rhf"
			},
			{
				"type": "unocc",
				"energy": 0.00616,
				"method": "rhf"
			},
			{
				"type": "unocc",
				"energy": 0.04575,
				"method": "rhf"
			}
		],
		"cosmo_sigma_profile": { 
			"-0.025": 0.0,
			"-0.024": 0.0,
			"-0.023": 0.0,
			"-0.022": 0.0,
			"-0.021": 0.0,
			"-0.02": 0.0,
			"-0.019": 0.0,
			"-0.018": 0.0,
			"-0.017": 0.0,
			"-0.016": 0.212197342935,
			"-0.015": 0.962588074273,
			"-0.014": 1.76316985292,
			"-0.013": 1.70335171908,
			"-0.012": 2.11181821526,
			"-0.011": 0.98477849796,
			"-0.01": 1.50360831484,
			"-0.009": 1.77987051606,
			"-0.008": 4.2619507823,
			"-0.007": 8.83962142801,
			"-0.006": 7.38507043826,
			"-0.005": 9.77669655228,
			"-0.004": 18.6431712082,
			"-0.003": 22.7474341934,
			"-0.002": 21.8509012482,
			"-0.001": 22.6097858297,
			"0.0": 23.8529085986,
			"0.001": 25.8380770699,
			"0.002": 19.3090328893,
			"0.003": 14.9576860367,
			"0.004": 11.745633266,
			"0.005": 7.71861859217,
			"0.006": 5.55614690684,
			"0.007": 6.29206550716,
			"0.008": 3.90327795,
			"0.009": 3.86426507153,
			"0.01": 5.15636657128,
			"0.011": 3.7568659585,
			"0.012": 3.16249460895,
			"0.013": 3.12401736078,
			"0.014": 0.997927272448,
			"0.015": 0.300727332092,
			"0.016": 0.0,
			"0.017": 0.0,
			"0.018": 0.0,
			"0.019": 0.0,
			"0.02": 0.0,
			"0.021": 0.0,
			"0.022": 0.0,
			"0.023": 0.0,
			"0.024": 0.0,
			"0.025": 0.0
		}
	}
}
