{
	 "smiles": "ClC1=CC(NC(=O)C=C)=CC=C1", 
	 "Tm": 380.15, 
	 "num_atms": 20, 
	 "gaussian": { 
		 "optdone": 1, 
		 "sigma_profile": "yes", 
		 "theory": "DFT", 
		 "functional": "B3LYP", 
		 "basiset": "6-31G**", 
		 "properties": { 
			 "R2extent": 3261.583, 
			 "electric_dipole_moment_norm": 2.6395223924, 
			 "electric_quadrupole_moment_norm": 13.0371006623, 
			 "total_energy": -937.930436809, 
			 "HOMO_LUMO_gap": 0.18896, 
			 "cosmo_polarized_energy": -11.11, 
			 "cosmo_cavitation_energy": 26.62, 
			 "cosmo_dispersion_energy": -19.03, 
			 "cosmo_repulsion_energy": 1.54, 
			 "cosmo_total_nonelectrostatic_energy": 9.13, 
			 "SMD_solvation_energy": 5.59 
		},
		"coords": [
			{
				"x": 3.7461028728,
				"y": 0.6626533933,
				"z": -2.6557123214,
				"element": "Cl" 
			},
			{
				"x": 2.4160679021,
				"y": -0.2632983151,
				"z": -1.9740556259,
				"element": "C" 
			},
			{
				"x": 1.8849920896,
				"y": 0.1259194255,
				"z": -0.7469737195,
				"element": "C" 
			},
			{
				"x": 0.8285113802,
				"y": -0.6077989683,
				"z": -0.1879725057,
				"element": "C" 
			},
			{
				"x": 0.3550723139,
				"y": -0.2165657116,
				"z": 1.0861544325,
				"element": "N" 
			},
			{
				"x": -0.8946617658,
				"y": -0.330595623,
				"z": 1.6794590558,
				"element": "C" 
			},
			{
				"x": -0.9941351654,
				"y": -0.2759494014,
				"z": 2.8988262733,
				"element": "O" 
			},
			{
				"x": -2.1240389098,
				"y": -0.4172233272,
				"z": 0.8376309374,
				"element": "C" 
			},
			{
				"x": -2.3167492952,
				"y": 0.2115754654,
				"z": -0.3243448445,
				"element": "C" 
			},
			{
				"x": 0.3238050925,
				"y": -1.7234934709,
				"z": -0.8718366984,
				"element": "C" 
			},
			{
				"x": 0.8572471341,
				"y": -2.0756057312,
				"z": -2.1095400456,
				"element": "C" 
			},
			{
				"x": 1.910857428,
				"y": -1.3558819221,
				"z": -2.6761471393,
				"element": "C" 
			},
			{
				"x": 2.2800219269,
				"y": 0.9939580683,
				"z": -0.2304114281,
				"element": "H" 
			},
			{
				"x": 1.0614799618,
				"y": 0.023678094,
				"z": 1.7718136796,
				"element": "H" 
			},
			{
				"x": -2.9410767757,
				"y": -0.9308592461,
				"z": 1.3369101939,
				"element": "H" 
			},
			{
				"x": -3.2854901225,
				"y": 0.1956604883,
				"z": -0.8147576179,
				"element": "H" 
			},
			{
				"x": -1.5295538477,
				"y": 0.7718626133,
				"z": -0.8185301976,
				"element": "H" 
			},
			{
				"x": -0.4741531437,
				"y": -2.3107128986,
				"z": -0.4342944214,
				"element": "H" 
			},
			{
				"x": 0.4602169397,
				"y": -2.9394549782,
				"z": -2.6341997717,
				"element": "H" 
			},
			{
				"x": 2.3355839842,
				"y": -1.6375679544,
				"z": -3.6325182352,
				"element": "H" 
			}
		],
		 "valence_orbital": [ 
			{
				"type": "occ",
				"energy": -0.30511,
				"method": "rhf"
			},
			{
				"type": "occ",
				"energy": -0.28878,
				"method": "rhf"
			},
			{
				"type": "occ",
				"energy": -0.2617,
				"method": "rhf"
			},
			{
				"type": "occ",
				"energy": -0.25821,
				"method": "rhf"
			},
			{
				"type": "occ",
				"energy": -0.23692,
				"method": "rhf"
			},
			{
				"type": "unocc",
				"energy": -0.04796,
				"method": "rhf"
			},
			{
				"type": "unocc",
				"energy": -0.02341,
				"method": "rhf"
			},
			{
				"type": "unocc",
				"energy": -0.0147,
				"method": "rhf"
			},
			{
				"type": "unocc",
				"energy": 0.02236,
				"method": "rhf"
			},
			{
				"type": "unocc",
				"energy": 0.06336,
				"method": "rhf"
			}
		],
		"cosmo_sigma_profile": { 
			"-0.025": 0.0,
			"-0.024": 0.0,
			"-0.023": 0.0,
			"-0.022": 0.0,
			"-0.021": 0.0,
			"-0.02": 0.0,
			"-0.019": 0.0,
			"-0.018": 0.0,
			"-0.017": 0.0,
			"-0.016": 0.0,
			"-0.015": 0.262422990196,
			"-0.014": 1.24965108585,
			"-0.013": 0.668721763244,
			"-0.012": 0.960968326671,
			"-0.011": 1.37330813282,
			"-0.01": 1.15464219203,
			"-0.009": 1.22543477372,
			"-0.008": 2.48428141987,
			"-0.007": 7.99860275625,
			"-0.006": 12.9953364751,
			"-0.005": 14.4686600899,
			"-0.004": 12.8331611793,
			"-0.003": 12.8494486227,
			"-0.002": 13.7201442171,
			"-0.001": 13.7109543382,
			"0.0": 15.8149019223,
			"0.001": 18.0991785695,
			"0.002": 21.0639382662,
			"0.003": 19.251325995,
			"0.004": 15.9837348856,
			"0.005": 7.89322740734,
			"0.006": 1.46044040565,
			"0.007": 1.71862384593,
			"0.008": 1.08771845044,
			"0.009": 0.973987811287,
			"0.01": 1.57652934876,
			"0.011": 1.65679391881,
			"0.012": 3.29786335337,
			"0.013": 5.65549165184,
			"0.014": 1.82849402571,
			"0.015": 0.118342578347,
			"0.016": 0.0,
			"0.017": 0.0,
			"0.018": 0.0,
			"0.019": 0.0,
			"0.02": 0.0,
			"0.021": 0.0,
			"0.022": 0.0,
			"0.023": 0.0,
			"0.024": 0.0,
			"0.025": 0.0
		}
	}
}
