{
	 "smiles": "COC1=C(OCC(F)F)C=C(C(C=O)=C1)[N+]([O-])=O", 
	 "Tm": 413.15, 
	 "num_atms": 27, 
	 "gaussian": { 
		 "optdone": 1, 
		 "sigma_profile": "yes", 
		 "theory": "DFT", 
		 "functional": "B3LYP", 
		 "basiset": "6-31G**", 
		 "properties": { 
			 "R2extent": 5614.1602, 
			 "electric_dipole_moment_norm": 6.73294809203, 
			 "electric_quadrupole_moment_norm": 15.9068086567, 
			 "total_energy": -1016.87972117, 
			 "HOMO_LUMO_gap": 0.16217, 
			 "cosmo_polarized_energy": -14.99, 
			 "cosmo_cavitation_energy": 33.44, 
			 "cosmo_dispersion_energy": -22.9, 
			 "cosmo_repulsion_energy": 1.75, 
			 "cosmo_total_nonelectrostatic_energy": 12.3, 
			 "SMD_solvation_energy": 10.64 
		},
		"coords": [
			{
				"x": 2.2616105621,
				"y": -0.8279393106,
				"z": -2.5446761665,
				"element": "C" 
			},
			{
				"x": 0.8515130937,
				"y": -0.5720572956,
				"z": -2.4301514168,
				"element": "O" 
			},
			{
				"x": 0.5271826907,
				"y": 0.5591851068,
				"z": -1.726506782,
				"element": "C" 
			},
			{
				"x": 0.6299825818,
				"y": 0.5948193818,
				"z": -0.320114927,
				"element": "C" 
			},
			{
				"x": 1.13178098,
				"y": -0.460700748,
				"z": 0.3964436705,
				"element": "O" 
			},
			{
				"x": 0.4038759488,
				"y": -1.691405209,
				"z": 0.3634611318,
				"element": "C" 
			},
			{
				"x": -0.7187999307,
				"y": -1.6916002511,
				"z": 1.3862648997,
				"element": "C" 
			},
			{
				"x": -0.2245279783,
				"y": -1.4284044441,
				"z": 2.6278860939,
				"element": "F" 
			},
			{
				"x": -1.6250554015,
				"y": -0.7138299548,
				"z": 1.0801702807,
				"element": "F" 
			},
			{
				"x": 0.2882350419,
				"y": 1.7574662891,
				"z": 0.365289276,
				"element": "C" 
			},
			{
				"x": -0.1823077035,
				"y": 2.8628258805,
				"z": -0.3366046446,
				"element": "C" 
			},
			{
				"x": -0.3147366571,
				"y": 2.8527341165,
				"z": -1.7387839277,
				"element": "C" 
			},
			{
				"x": -0.7137068889,
				"y": 4.0115578751,
				"z": -2.6047075866,
				"element": "C" 
			},
			{
				"x": -0.8989092871,
				"y": 3.877402058,
				"z": -3.7994285099,
				"element": "O" 
			},
			{
				"x": 0.0549427518,
				"y": 1.6776396393,
				"z": -2.405349367,
				"element": "C" 
			},
			{
				"x": -0.5849210975,
				"y": 4.0231778762,
				"z": 0.477705422,
				"element": "N" 
			},
			{
				"x": -0.0643178487,
				"y": 4.1467316067,
				"z": 1.5839133639,
				"element": "O" 
			},
			{
				"x": -1.4313023055,
				"y": 4.7874481686,
				"z": 0.0110079214,
				"element": "O" 
			},
			{
				"x": 2.7285145535,
				"y": -0.9329587053,
				"z": -1.5601907109,
				"element": "H" 
			},
			{
				"x": 2.3556285627,
				"y": -1.7614398158,
				"z": -3.1014022312,
				"element": "H" 
			},
			{
				"x": 2.7534890541,
				"y": -0.0211459231,
				"z": -3.0999279548,
				"element": "H" 
			},
			{
				"x": -0.0000681204,
				"y": -1.8924687676,
				"z": -0.6328147246,
				"element": "H" 
			},
			{
				"x": 1.1197397719,
				"y": -2.4748807001,
				"z": 0.625695148,
				"element": "H" 
			},
			{
				"x": -1.2449079987,
				"y": -2.6554838025,
				"z": 1.4129684999,
				"element": "H" 
			},
			{
				"x": 0.3637407081,
				"y": 1.78455633,
				"z": 1.4444208225,
				"element": "H" 
			},
			{
				"x": -0.8027814627,
				"y": 4.9915819099,
				"z": -2.1155307372,
				"element": "H" 
			},
			{
				"x": -0.0177936204,
				"y": 1.656688689,
				"z": -3.4874368433,
				"element": "H" 
			}
		],
		 "valence_orbital": [ 
			{
				"type": "occ",
				"energy": -0.30471,
				"method": "rhf"
			},
			{
				"type": "occ",
				"energy": -0.29996,
				"method": "rhf"
			},
			{
				"type": "occ",
				"energy": -0.27966,
				"method": "rhf"
			},
			{
				"type": "occ",
				"energy": -0.26589,
				"method": "rhf"
			},
			{
				"type": "occ",
				"energy": -0.26442,
				"method": "rhf"
			},
			{
				"type": "unocc",
				"energy": -0.10225,
				"method": "rhf"
			},
			{
				"type": "unocc",
				"energy": -0.06719,
				"method": "rhf"
			},
			{
				"type": "unocc",
				"energy": -0.01708,
				"method": "rhf"
			},
			{
				"type": "unocc",
				"energy": 0.01904,
				"method": "rhf"
			},
			{
				"type": "unocc",
				"energy": 0.05319,
				"method": "rhf"
			}
		],
		"cosmo_sigma_profile": { 
			"-0.025": 0.0,
			"-0.024": 0.0,
			"-0.023": 0.0,
			"-0.022": 0.0,
			"-0.021": 0.0,
			"-0.02": 0.0,
			"-0.019": 0.0,
			"-0.018": 0.0,
			"-0.017": 0.0,
			"-0.016": 0.0,
			"-0.015": 0.0,
			"-0.014": 0.0,
			"-0.013": 0.0,
			"-0.012": 0.0,
			"-0.011": 0.232813001195,
			"-0.01": 3.09398681487,
			"-0.009": 7.09959919498,
			"-0.008": 6.86626410398,
			"-0.007": 10.1590633168,
			"-0.006": 11.4100323095,
			"-0.005": 16.6779257399,
			"-0.004": 19.9304679956,
			"-0.003": 22.5064411179,
			"-0.002": 20.4042979267,
			"-0.001": 20.2721601631,
			"0.0": 15.250067251,
			"0.001": 11.4039186744,
			"0.002": 10.5083985622,
			"0.003": 12.0347163943,
			"0.004": 19.8863140492,
			"0.005": 13.7292956304,
			"0.006": 8.91318970413,
			"0.007": 12.6915244191,
			"0.008": 7.99659680036,
			"0.009": 7.14433243431,
			"0.01": 5.47176770959,
			"0.011": 2.78770275469,
			"0.012": 0.981145670074,
			"0.013": 0.021702561812,
			"0.014": 0.0,
			"0.015": 0.0,
			"0.016": 0.0,
			"0.017": 0.0,
			"0.018": 0.0,
			"0.019": 0.0,
			"0.02": 0.0,
			"0.021": 0.0,
			"0.022": 0.0,
			"0.023": 0.0,
			"0.024": 0.0,
			"0.025": 0.0
		}
	}
}
