{
	 "smiles": "CC1=NN(C(F)F)C(C)=C1CO", 
	 "Tm": 360.15, 
	 "num_atms": 22, 
	 "gaussian": { 
		 "optdone": 1, 
		 "sigma_profile": "yes", 
		 "theory": "DFT", 
		 "functional": "B3LYP", 
		 "basiset": "6-31G**", 
		 "properties": { 
			 "R2extent": 3080.4377, 
			 "electric_dipole_moment_norm": 1.01210943084, 
			 "electric_quadrupole_moment_norm": 4.82600992021, 
			 "total_energy": -657.157880253, 
			 "HOMO_LUMO_gap": 0.23983, 
			 "cosmo_polarized_energy": -9.12, 
			 "cosmo_cavitation_energy": 26.14, 
			 "cosmo_dispersion_energy": -18.55, 
			 "cosmo_repulsion_energy": 1.47, 
			 "cosmo_total_nonelectrostatic_energy": 9.07, 
			 "SMD_solvation_energy": 4.42 
		},
		"coords": [
			{
				"x": 1.0681493603,
				"y": 1.0561882349,
				"z": -0.5280927369,
				"element": "C" 
			},
			{
				"x": -0.0083812817,
				"y": 0.1145071551,
				"z": -0.0795321443,
				"element": "C" 
			},
			{
				"x": -0.543875158,
				"y": -0.7421971116,
				"z": -0.9389322113,
				"element": "N" 
			},
			{
				"x": -1.4775937987,
				"y": -1.4219728577,
				"z": -0.2099210171,
				"element": "N" 
			},
			{
				"x": -2.2007151973,
				"y": -2.4633850811,
				"z": -0.8531225144,
				"element": "C" 
			},
			{
				"x": -3.5413225893,
				"y": -2.2708412146,
				"z": -0.711695016,
				"element": "F" 
			},
			{
				"x": -1.925763872,
				"y": -3.6717535461,
				"z": -0.2812681085,
				"element": "F" 
			},
			{
				"x": -1.5407693624,
				"y": -1.0143547559,
				"z": 1.0990060742,
				"element": "C" 
			},
			{
				"x": -2.4912382498,
				"y": -1.5972451454,
				"z": 2.096466644,
				"element": "C" 
			},
			{
				"x": -0.5956639863,
				"y": -0.0090353981,
				"z": 1.2179257451,
				"element": "C" 
			},
			{
				"x": -0.2637036476,
				"y": 0.7768586633,
				"z": 2.455379392,
				"element": "C" 
			},
			{
				"x": -0.0664575314,
				"y": -0.0351077796,
				"z": 3.6143792612,
				"element": "O" 
			},
			{
				"x": 1.3301827911,
				"y": 0.8452364696,
				"z": -1.5669383826,
				"element": "H" 
			},
			{
				"x": 0.7448009566,
				"y": 2.1010619737,
				"z": -0.4613695934,
				"element": "H" 
			},
			{
				"x": 1.9720486572,
				"y": 0.9553872537,
				"z": 0.0831979201,
				"element": "H" 
			},
			{
				"x": -1.9253941465,
				"y": -2.477577609,
				"z": -1.9089653226,
				"element": "H" 
			},
			{
				"x": -3.5159380406,
				"y": -1.2546688525,
				"z": 1.9150841887,
				"element": "H" 
			},
			{
				"x": -2.4986772518,
				"y": -2.6895546528,
				"z": 2.0433327463,
				"element": "H" 
			},
			{
				"x": -2.1856196302,
				"y": -1.2929585628,
				"z": 3.0980433386,
				"element": "H" 
			},
			{
				"x": 0.6165743512,
				"y": 1.4079624327,
				"z": 2.2600952448,
				"element": "H" 
			},
			{
				"x": -1.0814093721,
				"y": 1.4548615897,
				"z": 2.725138659,
				"element": "H" 
			},
			{
				"x": 0.5811669994,
				"y": -0.7133112056,
				"z": 3.3797878331,
				"element": "H" 
			}
		],
		 "valence_orbital": [ 
			{
				"type": "occ",
				"energy": -0.34522,
				"method": "rhf"
			},
			{
				"type": "occ",
				"energy": -0.29452,
				"method": "rhf"
			},
			{
				"type": "occ",
				"energy": -0.28,
				"method": "rhf"
			},
			{
				"type": "occ",
				"energy": -0.25414,
				"method": "rhf"
			},
			{
				"type": "occ",
				"energy": -0.24117,
				"method": "rhf"
			},
			{
				"type": "unocc",
				"energy": -0.00134,
				"method": "rhf"
			},
			{
				"type": "unocc",
				"energy": 0.04352,
				"method": "rhf"
			},
			{
				"type": "unocc",
				"energy": 0.0871,
				"method": "rhf"
			},
			{
				"type": "unocc",
				"energy": 0.10141,
				"method": "rhf"
			},
			{
				"type": "unocc",
				"energy": 0.11112,
				"method": "rhf"
			}
		],
		"cosmo_sigma_profile": { 
			"-0.025": 0.0,
			"-0.024": 0.0,
			"-0.023": 0.0,
			"-0.022": 0.0,
			"-0.021": 0.0,
			"-0.02": 0.0,
			"-0.019": 0.0,
			"-0.018": 0.0,
			"-0.017": 0.0,
			"-0.016": 0.033124381716,
			"-0.015": 0.625584505432,
			"-0.014": 1.14038883468,
			"-0.013": 0.787112999989,
			"-0.012": 0.551686846296,
			"-0.011": 1.87595939763,
			"-0.01": 2.64725207991,
			"-0.009": 2.47834249735,
			"-0.008": 1.72283856812,
			"-0.007": 1.73901623838,
			"-0.006": 2.6195872242,
			"-0.005": 8.72911776217,
			"-0.004": 18.26999784,
			"-0.003": 18.8517045222,
			"-0.002": 18.4983508781,
			"-0.001": 23.3128656365,
			"0.0": 17.4116332997,
			"0.001": 13.7122358462,
			"0.002": 12.2164740748,
			"0.003": 18.4937354033,
			"0.004": 15.4686721507,
			"0.005": 3.74702901683,
			"0.006": 2.97787411239,
			"0.007": 2.65627481626,
			"0.008": 1.99705954724,
			"0.009": 2.26534613142,
			"0.01": 1.99182353376,
			"0.011": 2.19724772127,
			"0.012": 2.10885449388,
			"0.013": 2.15797072471,
			"0.014": 2.61906375635,
			"0.015": 0.33508187244,
			"0.016": 0.0,
			"0.017": 0.0,
			"0.018": 0.0,
			"0.019": 0.0,
			"0.02": 0.0,
			"0.021": 0.0,
			"0.022": 0.0,
			"0.023": 0.0,
			"0.024": 0.0,
			"0.025": 0.0
		}
	}
}
