{
	 "smiles": "COC1=CC=C(NN=C(C#N)C2=NC(=CS2)C2=CC=C(C)C=C2)C=C1", 
	 "Tm": 418.15, 
	 "num_atms": 41, 
	 "gaussian": { 
		 "optdone": 1, 
		 "sigma_profile": "yes", 
		 "theory": "DFT", 
		 "functional": "B3LYP", 
		 "basiset": "6-31G**", 
		 "properties": { 
			 "R2extent": 14269.8335, 
			 "electric_dipole_moment_norm": 8.06557325551, 
			 "electric_quadrupole_moment_norm": 32.9348701186, 
			 "total_energy": -1426.03181363, 
			 "HOMO_LUMO_gap": 0.12046, 
			 "cosmo_polarized_energy": -15.66, 
			 "cosmo_cavitation_energy": 49.15, 
			 "cosmo_dispersion_energy": -34.39, 
			 "cosmo_repulsion_energy": 2.54, 
			 "cosmo_total_nonelectrostatic_energy": 17.29, 
			 "SMD_solvation_energy": 8.87 
		},
		"coords": [
			{
				"x": -5.4900711382,
				"y": -0.4225754112,
				"z": -2.9719248528,
				"element": "C" 
			},
			{
				"x": -4.719553609,
				"y": -1.6110699693,
				"z": -3.0487888609,
				"element": "O" 
			},
			{
				"x": -3.4362840012,
				"y": -1.5792188826,
				"z": -2.5875292262,
				"element": "C" 
			},
			{
				"x": -2.8111101755,
				"y": -0.4535013464,
				"z": -2.0395484341,
				"element": "C" 
			},
			{
				"x": -1.4894751757,
				"y": -0.5406020805,
				"z": -1.5988747851,
				"element": "C" 
			},
			{
				"x": -0.7831489427,
				"y": -1.7418246326,
				"z": -1.700298851,
				"element": "C" 
			},
			{
				"x": 0.5457427455,
				"y": -1.7750746379,
				"z": -1.245054218,
				"element": "N" 
			},
			{
				"x": 1.2463903101,
				"y": -2.8806171181,
				"z": -1.2794768233,
				"element": "N" 
			},
			{
				"x": 2.4892592874,
				"y": -2.8904362499,
				"z": -0.8330766559,
				"element": "C" 
			},
			{
				"x": 3.1658387115,
				"y": -4.1505910461,
				"z": -0.9078442062,
				"element": "C" 
			},
			{
				"x": 3.7581149191,
				"y": -5.152368359,
				"z": -0.946153817,
				"element": "N" 
			},
			{
				"x": 3.2088252185,
				"y": -1.7554388359,
				"z": -0.2763335071,
				"element": "C" 
			},
			{
				"x": 2.708832148,
				"y": -0.5400012686,
				"z": -0.188582739,
				"element": "N" 
			},
			{
				"x": 3.5869958203,
				"y": 0.3476134142,
				"z": 0.4011205104,
				"element": "C" 
			},
			{
				"x": 4.7877953112,
				"y": -0.2143659572,
				"z": 0.7638253291,
				"element": "C" 
			},
			{
				"x": 4.8397950591,
				"y": -1.8972392644,
				"z": 0.3739415565,
				"element": "S" 
			},
			{
				"x": 3.1994464322,
				"y": 1.7602099284,
				"z": 0.5723879003,
				"element": "C" 
			},
			{
				"x": 2.2287212527,
				"y": 2.3391367808,
				"z": -0.2594226849,
				"element": "C" 
			},
			{
				"x": 1.8731925364,
				"y": 3.6778626147,
				"z": -0.1140550424,
				"element": "C" 
			},
			{
				"x": 2.46633502,
				"y": 4.4864416628,
				"z": 0.8643667399,
				"element": "C" 
			},
			{
				"x": 2.0561148472,
				"y": 5.9287496919,
				"z": 1.0410588938,
				"element": "C" 
			},
			{
				"x": 3.4354218403,
				"y": 3.9041477934,
				"z": 1.6935985724,
				"element": "C" 
			},
			{
				"x": 3.7941774307,
				"y": 2.5665227272,
				"z": 1.5559628749,
				"element": "C" 
			},
			{
				"x": -1.4101291421,
				"y": -2.8719997103,
				"z": -2.2498880873,
				"element": "C" 
			},
			{
				"x": -2.7220757261,
				"y": -2.7853960559,
				"z": -2.6866360136,
				"element": "C" 
			},
			{
				"x": -6.4679801143,
				"y": -0.669436525,
				"z": -3.3877427165,
				"element": "H" 
			},
			{
				"x": -5.0427618697,
				"y": 0.3891099034,
				"z": -3.5604501562,
				"element": "H" 
			},
			{
				"x": -5.6141068396,
				"y": -0.086564703,
				"z": -1.9341696273,
				"element": "H" 
			},
			{
				"x": -3.3354566709,
				"y": 0.4898447048,
				"z": -1.9477899838,
				"element": "H" 
			},
			{
				"x": -1.0100496357,
				"y": 0.3351021178,
				"z": -1.1689736239,
				"element": "H" 
			},
			{
				"x": 0.9895453478,
				"y": -0.9301183829,
				"z": -0.8620373067,
				"element": "H" 
			},
			{
				"x": 5.6458092196,
				"y": 0.2740764037,
				"z": 1.2013480189,
				"element": "H" 
			},
			{
				"x": 1.7706780513,
				"y": 1.7369932327,
				"z": -1.0372209621,
				"element": "H" 
			},
			{
				"x": 1.1258300095,
				"y": 4.1054871187,
				"z": -0.778058558,
				"element": "H" 
			},
			{
				"x": 1.2709048294,
				"y": 6.0271006695,
				"z": 1.8013737896,
				"element": "H" 
			},
			{
				"x": 1.6628130512,
				"y": 6.3497719467,
				"z": 0.1111121022,
				"element": "H" 
			},
			{
				"x": 2.898236832,
				"y": 6.5482294246,
				"z": 1.3645504085,
				"element": "H" 
			},
			{
				"x": 3.9100307644,
				"y": 4.5058377012,
				"z": 2.4648477428,
				"element": "H" 
			},
			{
				"x": 4.5292773449,
				"y": 2.1396321925,
				"z": 2.2321220823,
				"element": "H" 
			},
			{
				"x": -0.8588000496,
				"y": -3.8013946428,
				"z": -2.3261461116,
				"element": "H" 
			},
			{
				"x": -3.22332125,
				"y": -3.6474349494,
				"z": -3.1141386704,
				"element": "H" 
			}
		],
		 "valence_orbital": [ 
			{
				"type": "occ",
				"energy": -0.26314,
				"method": "rhf"
			},
			{
				"type": "occ",
				"energy": -0.26072,
				"method": "rhf"
			},
			{
				"type": "occ",
				"energy": -0.25905,
				"method": "rhf"
			},
			{
				"type": "occ",
				"energy": -0.23008,
				"method": "rhf"
			},
			{
				"type": "occ",
				"energy": -0.19751,
				"method": "rhf"
			},
			{
				"type": "unocc",
				"energy": -0.07705,
				"method": "rhf"
			},
			{
				"type": "unocc",
				"energy": -0.03768,
				"method": "rhf"
			},
			{
				"type": "unocc",
				"energy": -0.01304,
				"method": "rhf"
			},
			{
				"type": "unocc",
				"energy": -0.01217,
				"method": "rhf"
			},
			{
				"type": "unocc",
				"energy": -0.00012,
				"method": "rhf"
			}
		],
		"cosmo_sigma_profile": { 
			"-0.025": 0.0,
			"-0.024": 0.0,
			"-0.023": 0.0,
			"-0.022": 0.0,
			"-0.021": 0.0,
			"-0.02": 0.0,
			"-0.019": 0.0,
			"-0.018": 0.0,
			"-0.017": 0.0,
			"-0.016": 0.0,
			"-0.015": 0.0,
			"-0.014": 0.0,
			"-0.013": 0.0,
			"-0.012": 0.0,
			"-0.011": 0.00241501413457,
			"-0.01": 1.2947100582,
			"-0.009": 3.40483670152,
			"-0.008": 3.83736440085,
			"-0.007": 6.2599238882,
			"-0.006": 17.4304510004,
			"-0.005": 27.4573412294,
			"-0.004": 32.1221437673,
			"-0.003": 32.8795770572,
			"-0.002": 28.0236979804,
			"-0.001": 33.0177859359,
			"0.0": 35.3789487449,
			"0.001": 36.0966936091,
			"0.002": 32.9054965643,
			"0.003": 27.5180130608,
			"0.004": 29.1294276635,
			"0.005": 18.9318597549,
			"0.006": 8.22246471701,
			"0.007": 3.39314717102,
			"0.008": 4.82058348667,
			"0.009": 4.27097442755,
			"0.01": 4.67737686293,
			"0.011": 2.74980936731,
			"0.012": 2.52295283222,
			"0.013": 1.20950125627,
			"0.014": 0.0,
			"0.015": 0.0,
			"0.016": 0.0,
			"0.017": 0.0,
			"0.018": 0.0,
			"0.019": 0.0,
			"0.02": 0.0,
			"0.021": 0.0,
			"0.022": 0.0,
			"0.023": 0.0,
			"0.024": 0.0,
			"0.025": 0.0
		}
	}
}
