{
	 "smiles": "CC1=C(CC(O)=O)C=CC(Cl)=N1", 
	 "Tm": 408.15, 
	 "num_atms": 20, 
	 "gaussian": { 
		 "optdone": 1, 
		 "sigma_profile": "yes", 
		 "theory": "DFT", 
		 "functional": "B3LYP", 
		 "basiset": "6-31G**", 
		 "properties": { 
			 "R2extent": 3273.425, 
			 "electric_dipole_moment_norm": 4.61976893253, 
			 "electric_quadrupole_moment_norm": 8.55871533467, 
			 "total_energy": -975.086772141, 
			 "HOMO_LUMO_gap": 0.21776, 
			 "cosmo_polarized_energy": -14.14, 
			 "cosmo_cavitation_energy": 26.31, 
			 "cosmo_dispersion_energy": -19.19, 
			 "cosmo_repulsion_energy": 1.55, 
			 "cosmo_total_nonelectrostatic_energy": 8.67, 
			 "SMD_solvation_energy": 4.1 
		},
		"coords": [
			{
				"x": 1.6026076516,
				"y": 0.1619787464,
				"z": 1.018065771,
				"element": "C" 
			},
			{
				"x": 0.8470497871,
				"y": 0.5465911647,
				"z": -0.2281787083,
				"element": "C" 
			},
			{
				"x": -0.3326585864,
				"y": -0.1132209058,
				"z": -0.6284871302,
				"element": "C" 
			},
			{
				"x": -0.9348239905,
				"y": -1.2429947842,
				"z": 0.1702379241,
				"element": "C" 
			},
			{
				"x": -0.2173124358,
				"y": -2.5766103815,
				"z": 0.0098994073,
				"element": "C" 
			},
			{
				"x": -0.9697579166,
				"y": -3.5854307553,
				"z": 0.5098482328,
				"element": "O" 
			},
			{
				"x": 0.8789234738,
				"y": -2.7516459689,
				"z": -0.4706678453,
				"element": "O" 
			},
			{
				"x": -0.952290912,
				"y": 0.3209387124,
				"z": -1.8035344096,
				"element": "C" 
			},
			{
				"x": -0.4109801001,
				"y": 1.3655592292,
				"z": -2.5460924912,
				"element": "C" 
			},
			{
				"x": 0.7572246746,
				"y": 1.9385567914,
				"z": -2.0481030931,
				"element": "C" 
			},
			{
				"x": 1.4904371495,
				"y": 3.2755158638,
				"z": -2.9379049621,
				"element": "Cl" 
			},
			{
				"x": 1.367370061,
				"y": 1.560267876,
				"z": -0.9419529177,
				"element": "N" 
			},
			{
				"x": 1.98294561,
				"y": -0.8609763803,
				"z": 0.9366203185,
				"element": "H" 
			},
			{
				"x": 2.4418796575,
				"y": 0.8446774474,
				"z": 1.1535314336,
				"element": "H" 
			},
			{
				"x": 0.9650508589,
				"y": 0.2104167825,
				"z": 1.9093330052,
				"element": "H" 
			},
			{
				"x": -0.9350385066,
				"y": -1.0193731476,
				"z": 1.2449109523,
				"element": "H" 
			},
			{
				"x": -1.9846412508,
				"y": -1.3953135186,
				"z": -0.0992136545,
				"element": "H" 
			},
			{
				"x": -0.4449440145,
				"y": -4.3965775623,
				"z": 0.4006629665,
				"element": "H" 
			},
			{
				"x": -1.8662683119,
				"y": -0.1610747464,
				"z": -2.1417216887,
				"element": "H" 
			},
			{
				"x": -0.8692728989,
				"y": 1.7222155372,
				"z": -3.4602531107,
				"element": "H" 
			}
		],
		 "valence_orbital": [ 
			{
				"type": "occ",
				"energy": -0.30914,
				"method": "rhf"
			},
			{
				"type": "occ",
				"energy": -0.29425,
				"method": "rhf"
			},
			{
				"type": "occ",
				"energy": -0.28792,
				"method": "rhf"
			},
			{
				"type": "occ",
				"energy": -0.26955,
				"method": "rhf"
			},
			{
				"type": "occ",
				"energy": -0.24936,
				"method": "rhf"
			},
			{
				"type": "unocc",
				"energy": -0.0316,
				"method": "rhf"
			},
			{
				"type": "unocc",
				"energy": -0.02379,
				"method": "rhf"
			},
			{
				"type": "unocc",
				"energy": -0.00286,
				"method": "rhf"
			},
			{
				"type": "unocc",
				"energy": 0.03662,
				"method": "rhf"
			},
			{
				"type": "unocc",
				"energy": 0.06767,
				"method": "rhf"
			}
		],
		"cosmo_sigma_profile": { 
			"-0.025": 0.0,
			"-0.024": 0.0,
			"-0.023": 0.0,
			"-0.022": 0.0,
			"-0.021": 0.0,
			"-0.02": 0.0,
			"-0.019": 0.164250646419,
			"-0.018": 0.693101017964,
			"-0.017": 0.909401373559,
			"-0.016": 1.07729570247,
			"-0.015": 0.599243295414,
			"-0.014": 0.898401560007,
			"-0.013": 0.657675339898,
			"-0.012": 0.647954638079,
			"-0.011": 0.893088717307,
			"-0.01": 0.312980010259,
			"-0.009": 0.898112479169,
			"-0.008": 7.58251871298,
			"-0.007": 11.454059016,
			"-0.006": 10.5272994744,
			"-0.005": 8.25449304081,
			"-0.004": 11.0631759048,
			"-0.003": 11.9355202212,
			"-0.002": 12.1939953952,
			"-0.001": 14.5839480472,
			"0.0": 19.8683530954,
			"0.001": 16.6371926694,
			"0.002": 13.7604917324,
			"0.003": 9.86947922659,
			"0.004": 12.6346024671,
			"0.005": 10.6350478878,
			"0.006": 6.08776318998,
			"0.007": 5.00396157964,
			"0.008": 4.2815414156,
			"0.009": 4.91656964507,
			"0.01": 3.58548875164,
			"0.011": 4.79621555991,
			"0.012": 2.84229925471,
			"0.013": 1.00315287175,
			"0.014": 0.369414983531,
			"0.015": 0.0608343904687,
			"0.016": 0.0,
			"0.017": 0.0,
			"0.018": 0.0,
			"0.019": 0.0,
			"0.02": 0.0,
			"0.021": 0.0,
			"0.022": 0.0,
			"0.023": 0.0,
			"0.024": 0.0,
			"0.025": 0.0
		}
	}
}
