{
	 "smiles": "NCC1=CC=C(C=C1)C(=O)NCC(N)=O", 
	 "Tm": 473.15, 
	 "num_atms": 28, 
	 "gaussian": { 
		 "optdone": 1, 
		 "sigma_profile": "yes", 
		 "theory": "DFT", 
		 "functional": "B3LYP", 
		 "basiset": "6-31G**", 
		 "properties": { 
			 "R2extent": 5414.85, 
			 "electric_dipole_moment_norm": 5.52576816198, 
			 "electric_quadrupole_moment_norm": 20.2717352365, 
			 "total_energy": -703.636820859, 
			 "HOMO_LUMO_gap": 0.18951, 
			 "cosmo_polarized_energy": -19.82, 
			 "cosmo_cavitation_energy": 31.97, 
			 "cosmo_dispersion_energy": -23.52, 
			 "cosmo_repulsion_energy": 1.89, 
			 "cosmo_total_nonelectrostatic_energy": 10.33, 
			 "SMD_solvation_energy": 5.19 
		},
		"coords": [
			{
				"x": -4.8471129661,
				"y": -0.3787623624,
				"z": -2.5697182493,
				"element": "N" 
			},
			{
				"x": -3.7866715486,
				"y": -1.3488566704,
				"z": -2.2889522093,
				"element": "C" 
			},
			{
				"x": -2.6134077574,
				"y": -0.7162867981,
				"z": -1.5632602573,
				"element": "C" 
			},
			{
				"x": -1.8243788598,
				"y": -1.4779433475,
				"z": -0.6910258491,
				"element": "C" 
			},
			{
				"x": -0.7248700034,
				"y": -0.9185241268,
				"z": -0.0477280089,
				"element": "C" 
			},
			{
				"x": -0.3808841014,
				"y": 0.4220703529,
				"z": -0.2667739161,
				"element": "C" 
			},
			{
				"x": -1.1807247634,
				"y": 1.1927584537,
				"z": -1.1235313021,
				"element": "C" 
			},
			{
				"x": -2.282990347,
				"y": 0.6300257269,
				"z": -1.7633486704,
				"element": "C" 
			},
			{
				"x": 0.8152240065,
				"y": 0.9544679985,
				"z": 0.4613611547,
				"element": "C" 
			},
			{
				"x": 1.2695333225,
				"y": 0.3869557936,
				"z": 1.4633189791,
				"element": "O" 
			},
			{
				"x": 1.3936213401,
				"y": 2.0835278601,
				"z": -0.0351182988,
				"element": "N" 
			},
			{
				"x": 2.6073621867,
				"y": 2.6509899046,
				"z": 0.5437648814,
				"element": "C" 
			},
			{
				"x": 2.3465525798,
				"y": 3.5431014661,
				"z": 1.7753357464,
				"element": "C" 
			},
			{
				"x": 1.896659888,
				"y": 2.8598939723,
				"z": 2.8603224679,
				"element": "N" 
			},
			{
				"x": 2.5523694199,
				"y": 4.7486283832,
				"z": 1.751733612,
				"element": "O" 
			},
			{
				"x": -5.3061043292,
				"y": -0.1044135023,
				"z": -1.7043587132,
				"element": "H" 
			},
			{
				"x": -5.5582363534,
				"y": -0.8009578217,
				"z": -3.1599308911,
				"element": "H" 
			},
			{
				"x": -4.1163861943,
				"y": -2.2326997451,
				"z": -1.7158883218,
				"element": "H" 
			},
			{
				"x": -3.4335641967,
				"y": -1.7325137097,
				"z": -3.2564424364,
				"element": "H" 
			},
			{
				"x": -2.0786108658,
				"y": -2.5197079668,
				"z": -0.5098180708,
				"element": "H" 
			},
			{
				"x": -0.1190775701,
				"y": -1.5002022397,
				"z": 0.6385824375,
				"element": "H" 
			},
			{
				"x": -0.9772814054,
				"y": 2.2501316381,
				"z": -1.2728613342,
				"element": "H" 
			},
			{
				"x": -2.9117785475,
				"y": 1.2289993201,
				"z": -2.4134638982,
				"element": "H" 
			},
			{
				"x": 1.0382987448,
				"y": 2.4904758359,
				"z": -0.8853079632,
				"element": "H" 
			},
			{
				"x": 3.2737534936,
				"y": 1.8276731914,
				"z": 0.8226022115,
				"element": "H" 
			},
			{
				"x": 3.093574531,
				"y": 3.2760088891,
				"z": -0.2050616682,
				"element": "H" 
			},
			{
				"x": 1.6404118598,
				"y": 3.3869388458,
				"z": 3.6813849422,
				"element": "H" 
			},
			{
				"x": 1.677618437,
				"y": 1.8717206582,
				"z": 2.7840836257,
				"element": "H" 
			}
		],
		 "valence_orbital": [ 
			{
				"type": "occ",
				"energy": -0.26126,
				"method": "rhf"
			},
			{
				"type": "occ",
				"energy": -0.25764,
				"method": "rhf"
			},
			{
				"type": "occ",
				"energy": -0.25457,
				"method": "rhf"
			},
			{
				"type": "occ",
				"energy": -0.24396,
				"method": "rhf"
			},
			{
				"type": "occ",
				"energy": -0.23144,
				"method": "rhf"
			},
			{
				"type": "unocc",
				"energy": -0.04193,
				"method": "rhf"
			},
			{
				"type": "unocc",
				"energy": -0.01183,
				"method": "rhf"
			},
			{
				"type": "unocc",
				"energy": 0.03101,
				"method": "rhf"
			},
			{
				"type": "unocc",
				"energy": 0.04877,
				"method": "rhf"
			},
			{
				"type": "unocc",
				"energy": 0.07261,
				"method": "rhf"
			}
		],
		"cosmo_sigma_profile": { 
			"-0.025": 0.0,
			"-0.024": 0.0,
			"-0.023": 0.0,
			"-0.022": 0.0,
			"-0.021": 0.0,
			"-0.02": 0.0,
			"-0.019": 0.0,
			"-0.018": 0.0,
			"-0.017": 0.0,
			"-0.016": 0.141275533248,
			"-0.015": 1.06566328667,
			"-0.014": 1.34581813539,
			"-0.013": 2.97988395583,
			"-0.012": 2.06203665908,
			"-0.011": 2.40227614849,
			"-0.01": 4.9316465202,
			"-0.009": 5.66326612976,
			"-0.008": 6.31421339199,
			"-0.007": 7.10546586803,
			"-0.006": 10.5569718838,
			"-0.005": 14.4335230657,
			"-0.004": 19.2195877469,
			"-0.003": 18.390633859,
			"-0.002": 16.4752784613,
			"-0.001": 17.4126509292,
			"0.0": 13.7703146842,
			"0.001": 13.1794983399,
			"0.002": 14.0641643679,
			"0.003": 13.6509589345,
			"0.004": 16.0708043924,
			"0.005": 9.90769787102,
			"0.006": 3.73207298234,
			"0.007": 3.9300441207,
			"0.008": 3.33987199575,
			"0.009": 3.01347896674,
			"0.01": 3.87265255006,
			"0.011": 3.19462183454,
			"0.012": 4.57089291857,
			"0.013": 6.8370936949,
			"0.014": 6.28822273746,
			"0.015": 1.97771211661,
			"0.016": 0.405433380595,
			"0.017": 0.104011730186,
			"0.018": 0.0,
			"0.019": 0.0,
			"0.02": 0.0,
			"0.021": 0.0,
			"0.022": 0.0,
			"0.023": 0.0,
			"0.024": 0.0,
			"0.025": 0.0
		}
	}
}
