{
	 "smiles": "ClCCCC(=O)C1=CC=C(Cl)C=C1", 
	 "Tm": 303.15, 
	 "num_atms": 23, 
	 "gaussian": { 
		 "optdone": 1, 
		 "sigma_profile": "yes", 
		 "theory": "DFT", 
		 "functional": "B3LYP", 
		 "basiset": "6-31G**", 
		 "properties": { 
			 "R2extent": 5652.2205, 
			 "electric_dipole_moment_norm": 3.07394825265, 
			 "electric_quadrupole_moment_norm": 21.7354872368, 
			 "total_energy": -1382.71038033, 
			 "HOMO_LUMO_gap": 0.18579, 
			 "cosmo_polarized_energy": -10.51, 
			 "cosmo_cavitation_energy": 30.37, 
			 "cosmo_dispersion_energy": -22.12, 
			 "cosmo_repulsion_energy": 1.76, 
			 "cosmo_total_nonelectrostatic_energy": 10.01, 
			 "SMD_solvation_energy": 4.79 
		},
		"coords": [
			{
				"x": 0.2388566752,
				"y": -4.8993051558,
				"z": 3.1433455058,
				"element": "Cl" 
			},
			{
				"x": 0.7653470464,
				"y": -3.1664520534,
				"z": 3.3450971458,
				"element": "C" 
			},
			{
				"x": -0.2939865923,
				"y": -2.1921279157,
				"z": 2.8413212392,
				"element": "C" 
			},
			{
				"x": -0.4674293148,
				"y": -2.1828686795,
				"z": 1.3036929801,
				"element": "C" 
			},
			{
				"x": 0.7345159344,
				"y": -1.5483080167,
				"z": 0.6167978885,
				"element": "C" 
			},
			{
				"x": 1.761683937,
				"y": -2.2000174725,
				"z": 0.4710165782,
				"element": "O" 
			},
			{
				"x": 0.686747653,
				"y": -0.1178409722,
				"z": 0.1664546786,
				"element": "C" 
			},
			{
				"x": -0.4106332845,
				"y": 0.7306782039,
				"z": 0.3784948432,
				"element": "C" 
			},
			{
				"x": -0.3839146925,
				"y": 2.0564088996,
				"z": -0.0517377619,
				"element": "C" 
			},
			{
				"x": 0.7509597246,
				"y": 2.5343275876,
				"z": -0.7062789912,
				"element": "C" 
			},
			{
				"x": 0.7894889708,
				"y": 4.1984404052,
				"z": -1.2561366311,
				"element": "Cl" 
			},
			{
				"x": 1.8579561281,
				"y": 1.7114168306,
				"z": -0.93172491,
				"element": "C" 
			},
			{
				"x": 1.8185132939,
				"y": 0.3947214623,
				"z": -0.4905994786,
				"element": "C" 
			},
			{
				"x": 0.9480260053,
				"y": -3.0333860515,
				"z": 4.412167039,
				"element": "H" 
			},
			{
				"x": 1.700053727,
				"y": -3.0704875934,
				"z": 2.7927045374,
				"element": "H" 
			},
			{
				"x": -1.2541365067,
				"y": -2.428045868,
				"z": 3.3113333229,
				"element": "H" 
			},
			{
				"x": -0.0107803844,
				"y": -1.1893002387,
				"z": 3.1902585236,
				"element": "H" 
			},
			{
				"x": -0.5388233744,
				"y": -3.2145690619,
				"z": 0.9473808067,
				"element": "H" 
			},
			{
				"x": -1.4004130788,
				"y": -1.6778433101,
				"z": 1.0440398161,
				"element": "H" 
			},
			{
				"x": -1.2986088749,
				"y": 0.3722327323,
				"z": 0.8874326432,
				"element": "H" 
			},
			{
				"x": -1.2313113047,
				"y": 2.7116985636,
				"z": 0.1153927385,
				"element": "H" 
			},
			{
				"x": 2.7304421756,
				"y": 2.1033237811,
				"z": -1.4425787062,
				"element": "H" 
			},
			{
				"x": 2.6630461368,
				"y": -0.2680960769,
				"z": -0.6454738074,
				"element": "H" 
			}
		],
		 "valence_orbital": [ 
			{
				"type": "occ",
				"energy": -0.29482,
				"method": "rhf"
			},
			{
				"type": "occ",
				"energy": -0.29136,
				"method": "rhf"
			},
			{
				"type": "occ",
				"energy": -0.2795,
				"method": "rhf"
			},
			{
				"type": "occ",
				"energy": -0.26176,
				"method": "rhf"
			},
			{
				"type": "occ",
				"energy": -0.25778,
				"method": "rhf"
			},
			{
				"type": "unocc",
				"energy": -0.07199,
				"method": "rhf"
			},
			{
				"type": "unocc",
				"energy": -0.0286,
				"method": "rhf"
			},
			{
				"type": "unocc",
				"energy": 0.01786,
				"method": "rhf"
			},
			{
				"type": "unocc",
				"energy": 0.02014,
				"method": "rhf"
			},
			{
				"type": "unocc",
				"energy": 0.0294,
				"method": "rhf"
			}
		],
		"cosmo_sigma_profile": { 
			"-0.025": 0.0,
			"-0.024": 0.0,
			"-0.023": 0.0,
			"-0.022": 0.0,
			"-0.021": 0.0,
			"-0.02": 0.0,
			"-0.019": 0.0,
			"-0.018": 0.0,
			"-0.017": 0.0,
			"-0.016": 0.0,
			"-0.015": 0.0,
			"-0.014": 0.0,
			"-0.013": 0.0,
			"-0.012": 0.0,
			"-0.011": 0.0,
			"-0.01": 0.0,
			"-0.009": 0.711057666176,
			"-0.008": 3.68798896692,
			"-0.007": 8.69263716533,
			"-0.006": 13.0239157536,
			"-0.005": 19.5901688595,
			"-0.004": 20.956035568,
			"-0.003": 17.4135518458,
			"-0.002": 15.0344916717,
			"-0.001": 14.0016014695,
			"0.0": 16.6673685323,
			"0.001": 21.9268222773,
			"0.002": 24.8686413039,
			"0.003": 16.4501419764,
			"0.004": 16.7187401774,
			"0.005": 10.0259581807,
			"0.006": 8.96565509221,
			"0.007": 7.30064918184,
			"0.008": 1.39434724656,
			"0.009": 1.46521179088,
			"0.01": 2.12348452539,
			"0.011": 2.50114240416,
			"0.012": 2.76167401242,
			"0.013": 0.100643396169,
			"0.014": 0.0,
			"0.015": 0.0,
			"0.016": 0.0,
			"0.017": 0.0,
			"0.018": 0.0,
			"0.019": 0.0,
			"0.02": 0.0,
			"0.021": 0.0,
			"0.022": 0.0,
			"0.023": 0.0,
			"0.024": 0.0,
			"0.025": 0.0
		}
	}
}
