{
	 "smiles": "O=C1OCCC2=C1N1N=CN=C1N=C2", 
	 "Tm": 545.15, 
	 "num_atms": 20, 
	 "gaussian": { 
		 "optdone": 1, 
		 "sigma_profile": "yes", 
		 "theory": "DFT", 
		 "functional": "B3LYP", 
		 "basiset": "6-31G**", 
		 "properties": { 
			 "R2extent": 2799.8907, 
			 "electric_dipole_moment_norm": 5.69005753749, 
			 "electric_quadrupole_moment_norm": 14.3690416378, 
			 "total_energy": -677.888914377, 
			 "HOMO_LUMO_gap": 0.166, 
			 "cosmo_polarized_energy": -21.79, 
			 "cosmo_cavitation_energy": 24.49, 
			 "cosmo_dispersion_energy": -18.78, 
			 "cosmo_repulsion_energy": 1.44, 
			 "cosmo_total_nonelectrostatic_energy": 7.15, 
			 "SMD_solvation_energy": 1.04 
		},
		"coords": [
			{
				"x": 0.7848704546,
				"y": 2.5596013996,
				"z": 0.8502697691,
				"element": "O" 
			},
			{
				"x": 0.5308655444,
				"y": 1.6188536222,
				"z": 0.1440663754,
				"element": "C" 
			},
			{
				"x": 1.2954962344,
				"y": 1.3523769792,
				"z": -0.9477212009,
				"element": "O" 
			},
			{
				"x": 0.8815821793,
				"y": 0.3355197303,
				"z": -1.8824534073,
				"element": "C" 
			},
			{
				"x": 0.5109511983,
				"y": -0.9528007204,
				"z": -1.1619069266,
				"element": "C" 
			},
			{
				"x": -0.5478655126,
				"y": -0.6415671749,
				"z": -0.136226227,
				"element": "C" 
			},
			{
				"x": -0.555029718,
				"y": 0.6215406214,
				"z": 0.42552423,
				"element": "C" 
			},
			{
				"x": -1.5457072553,
				"y": 0.8914278835,
				"z": 1.3309705325,
				"element": "N" 
			},
			{
				"x": -1.8078923983,
				"y": 2.0369950376,
				"z": 1.9938579862,
				"element": "N" 
			},
			{
				"x": -2.8886748352,
				"y": 1.6934217234,
				"z": 2.7061164537,
				"element": "C" 
			},
			{
				"x": -3.3482641409,
				"y": 0.4348861692,
				"z": 2.5615436212,
				"element": "N" 
			},
			{
				"x": -2.5000296361,
				"y": -0.0901238535,
				"z": 1.6818381286,
				"element": "C" 
			},
			{
				"x": -2.4825928456,
				"y": -1.323895328,
				"z": 1.1527932769,
				"element": "N" 
			},
			{
				"x": -1.536484793,
				"y": -1.5782205515,
				"z": 0.2717767733,
				"element": "C" 
			},
			{
				"x": 0.0308811261,
				"y": 0.7106963047,
				"z": -2.4647923529,
				"element": "H" 
			},
			{
				"x": 1.7327797639,
				"y": 0.2038291915,
				"z": -2.5523103764,
				"element": "H" 
			},
			{
				"x": 1.4009063343,
				"y": -1.3829719325,
				"z": -0.6838312861,
				"element": "H" 
			},
			{
				"x": 0.1443788263,
				"y": -1.6907921413,
				"z": -1.8834619826,
				"element": "H" 
			},
			{
				"x": -3.3556236817,
				"y": 2.4169677415,
				"z": 3.3610357821,
				"element": "H" 
			},
			{
				"x": -1.5321468449,
				"y": -2.5761447022,
				"z": -0.1645891691,
				"element": "H" 
			}
		],
		 "valence_orbital": [ 
			{
				"type": "occ",
				"energy": -0.30568,
				"method": "rhf"
			},
			{
				"type": "occ",
				"energy": -0.29271,
				"method": "rhf"
			},
			{
				"type": "occ",
				"energy": -0.28053,
				"method": "rhf"
			},
			{
				"type": "occ",
				"energy": -0.27629,
				"method": "rhf"
			},
			{
				"type": "occ",
				"energy": -0.2671,
				"method": "rhf"
			},
			{
				"type": "unocc",
				"energy": -0.1011,
				"method": "rhf"
			},
			{
				"type": "unocc",
				"energy": -0.03757,
				"method": "rhf"
			},
			{
				"type": "unocc",
				"energy": 0.01011,
				"method": "rhf"
			},
			{
				"type": "unocc",
				"energy": 0.0523,
				"method": "rhf"
			},
			{
				"type": "unocc",
				"energy": 0.07314,
				"method": "rhf"
			}
		],
		"cosmo_sigma_profile": { 
			"-0.025": 0.0,
			"-0.024": 0.0,
			"-0.023": 0.0,
			"-0.022": 0.0,
			"-0.021": 0.0,
			"-0.02": 0.0,
			"-0.019": 0.0,
			"-0.018": 0.0,
			"-0.017": 0.0,
			"-0.016": 0.0,
			"-0.015": 0.0,
			"-0.014": 0.0,
			"-0.013": 0.0,
			"-0.012": 0.0,
			"-0.011": 0.0,
			"-0.01": 0.750522480907,
			"-0.009": 6.20686009719,
			"-0.008": 10.7155860771,
			"-0.007": 22.0429199705,
			"-0.006": 20.4341602979,
			"-0.005": 16.5740253634,
			"-0.004": 12.5940146297,
			"-0.003": 8.79739685298,
			"-0.002": 6.21665795668,
			"-0.001": 7.1945057756,
			"0.0": 7.4323989926,
			"0.001": 5.99844303846,
			"0.002": 5.3089232251,
			"0.003": 5.0403367346,
			"0.004": 4.51458020196,
			"0.005": 5.5863060489,
			"0.006": 4.89990074853,
			"0.007": 4.90610424812,
			"0.008": 4.99655648084,
			"0.009": 7.01648362877,
			"0.01": 7.8898783342,
			"0.011": 8.13970762251,
			"0.012": 4.80631918919,
			"0.013": 3.65443780143,
			"0.014": 2.5930793527,
			"0.015": 2.3974307139,
			"0.016": 0.885978629115,
			"0.017": 0.00254923612743,
			"0.018": 0.0,
			"0.019": 0.0,
			"0.02": 0.0,
			"0.021": 0.0,
			"0.022": 0.0,
			"0.023": 0.0,
			"0.024": 0.0,
			"0.025": 0.0
		}
	}
}
