{
	 "smiles": "ON=CC1=CC(Br)=C(O)C(Br)=C1", 
	 "Tm": 473.15, 
	 "num_atms": 17, 
	 "gaussian": { 
		 "optdone": 1, 
		 "sigma_profile": "yes", 
		 "theory": "DFT", 
		 "functional": "B3LYP", 
		 "basiset": "6-31G**", 
		 "properties": { 
			 "R2extent": 5958.5259, 
			 "electric_dipole_moment_norm": 1.71093490817, 
			 "electric_quadrupole_moment_norm": 4.82966087836, 
			 "total_energy": -5617.69787864, 
			 "HOMO_LUMO_gap": 0.17877, 
			 "cosmo_polarized_energy": -10.27, 
			 "cosmo_cavitation_energy": 26.47, 
			 "cosmo_dispersion_energy": -20.57, 
			 "cosmo_repulsion_energy": 1.65, 
			 "cosmo_total_nonelectrostatic_energy": 7.55, 
			 "SMD_solvation_energy": 2.85 
		},
		"coords": [
			{
				"x": 1.9272035053,
				"y": 1.7510115056,
				"z": -0.5593827857,
				"element": "O" 
			},
			{
				"x": 1.8786774607,
				"y": 2.1815628024,
				"z": 0.7723243269,
				"element": "N" 
			},
			{
				"x": 0.9213319896,
				"y": 1.6584440057,
				"z": 1.4522382778,
				"element": "C" 
			},
			{
				"x": -0.1372608952,
				"y": 0.6985432283,
				"z": 1.1215324587,
				"element": "C" 
			},
			{
				"x": -0.327040033,
				"y": 0.10324394,
				"z": -0.1398441284,
				"element": "C" 
			},
			{
				"x": -1.3698770086,
				"y": -0.7920558564,
				"z": -0.3232205766,
				"element": "C" 
			},
			{
				"x": -1.6292689271,
				"y": -1.6039651132,
				"z": -2.0420850811,
				"element": "Br" 
			},
			{
				"x": -2.2650501921,
				"y": -1.144237888,
				"z": 0.7020951111,
				"element": "C" 
			},
			{
				"x": -3.2811147608,
				"y": -2.0103507551,
				"z": 0.5405926909,
				"element": "O" 
			},
			{
				"x": -2.0628056734,
				"y": -0.5419008068,
				"z": 1.9557249688,
				"element": "C" 
			},
			{
				"x": -3.2358892021,
				"y": -0.9717372768,
				"z": 3.3905291542,
				"element": "Br" 
			},
			{
				"x": -1.0259544443,
				"y": 0.3555207901,
				"z": 2.1583566909,
				"element": "C" 
			},
			{
				"x": 2.6885539037,
				"y": 2.2367174946,
				"z": -0.9024976093,
				"element": "H" 
			},
			{
				"x": 0.9181626293,
				"y": 2.0184670978,
				"z": 2.4805132433,
				"element": "H" 
			},
			{
				"x": 0.3332464655,
				"y": 0.3409005259,
				"z": -0.9590989224,
				"element": "H" 
			},
			{
				"x": -3.273192716,
				"y": -2.3277815029,
				"z": -0.3782297488,
				"element": "H" 
			},
			{
				"x": -0.9046221017,
				"y": 0.7982178088,
				"z": 3.1410519297,
				"element": "H" 
			}
		],
		 "valence_orbital": [ 
			{
				"type": "occ",
				"energy": -0.29107,
				"method": "rhf"
			},
			{
				"type": "occ",
				"energy": -0.28012,
				"method": "rhf"
			},
			{
				"type": "occ",
				"energy": -0.27929,
				"method": "rhf"
			},
			{
				"type": "occ",
				"energy": -0.25329,
				"method": "rhf"
			},
			{
				"type": "occ",
				"energy": -0.22993,
				"method": "rhf"
			},
			{
				"type": "unocc",
				"energy": -0.05116,
				"method": "rhf"
			},
			{
				"type": "unocc",
				"energy": -0.02966,
				"method": "rhf"
			},
			{
				"type": "unocc",
				"energy": -0.02601,
				"method": "rhf"
			},
			{
				"type": "unocc",
				"energy": 0.01769,
				"method": "rhf"
			},
			{
				"type": "unocc",
				"energy": 0.04458,
				"method": "rhf"
			}
		],
		"cosmo_sigma_profile": { 
			"-0.025": 0.0,
			"-0.024": 0.0,
			"-0.023": 0.0,
			"-0.022": 0.0,
			"-0.021": 0.0,
			"-0.02": 0.0,
			"-0.019": 0.0,
			"-0.018": 0.275378138944,
			"-0.017": 0.978227210645,
			"-0.016": 1.16203104089,
			"-0.015": 1.53765314359,
			"-0.014": 1.24402289296,
			"-0.013": 1.0982012856,
			"-0.012": 1.58347681598,
			"-0.011": 1.92838541489,
			"-0.01": 1.63071312261,
			"-0.009": 3.40763880849,
			"-0.008": 5.38947314207,
			"-0.007": 4.24847373568,
			"-0.006": 5.01509896368,
			"-0.005": 7.53760207207,
			"-0.004": 9.34224301207,
			"-0.003": 8.70903338845,
			"-0.002": 11.1810131011,
			"-0.001": 14.2803857118,
			"0.0": 22.565936828,
			"0.001": 28.2914516391,
			"0.002": 22.161882922,
			"0.003": 19.2044902855,
			"0.004": 15.6018747983,
			"0.005": 8.22642092601,
			"0.006": 4.79460248368,
			"0.007": 5.27944007946,
			"0.008": 4.14820580037,
			"0.009": 3.41677522119,
			"0.01": 2.07054797141,
			"0.011": 0.743731567777,
			"0.012": 1.12733470594,
			"0.013": 0.869660007639,
			"0.014": 0.0619352222168,
			"0.015": 0.0,
			"0.016": 0.0,
			"0.017": 0.0,
			"0.018": 0.0,
			"0.019": 0.0,
			"0.02": 0.0,
			"0.021": 0.0,
			"0.022": 0.0,
			"0.023": 0.0,
			"0.024": 0.0,
			"0.025": 0.0
		}
	}
}
