{
	 "smiles": "CC1=CC=C(C=C1)C(O)(C1=CC=C(C)C=C1)C1(C)CCC(C(O)=O)C(C)(C)O1", 
	 "Tm": 425.15, 
	 "num_atms": 58, 
	 "gaussian": { 
		 "optdone": 1, 
		 "sigma_profile": "yes", 
		 "theory": "DFT", 
		 "functional": "B3LYP", 
		 "basiset": "6-31G**", 
		 "properties": { 
			 "R2extent": 12373.4883, 
			 "electric_dipole_moment_norm": 4.3686485828, 
			 "electric_quadrupole_moment_norm": 24.8484172196, 
			 "total_energy": -1233.54907301, 
			 "HOMO_LUMO_gap": 0.22138, 
			 "cosmo_polarized_energy": -19.45, 
			 "cosmo_cavitation_energy": 54.38, 
			 "cosmo_dispersion_energy": -36.35, 
			 "cosmo_repulsion_energy": 2.71, 
			 "cosmo_total_nonelectrostatic_energy": 20.74, 
			 "SMD_solvation_energy": 9.93 
		},
		"coords": [
			{
				"x": 3.9683501793,
				"y": 4.0800916262,
				"z": 0.8220163259,
				"element": "C" 
			},
			{
				"x": 2.832366461,
				"y": 3.0979648994,
				"z": 0.6587493019,
				"element": "C" 
			},
			{
				"x": 2.2482140723,
				"y": 2.862004114,
				"z": -0.5904696727,
				"element": "C" 
			},
			{
				"x": 1.1806491184,
				"y": 1.974796046,
				"z": -0.7389592741,
				"element": "C" 
			},
			{
				"x": 0.6609312882,
				"y": 1.2840573123,
				"z": 0.3623734228,
				"element": "C" 
			},
			{
				"x": 1.2300306752,
				"y": 1.5362816542,
				"z": 1.6200646184,
				"element": "C" 
			},
			{
				"x": 2.2997247858,
				"y": 2.4178945108,
				"z": 1.7622817049,
				"element": "C" 
			},
			{
				"x": -0.49544313,
				"y": 0.2872854204,
				"z": 0.1900835952,
				"element": "C" 
			},
			{
				"x": -1.0704410739,
				"y": 0.5474347323,
				"z": -1.0953768265,
				"element": "O" 
			},
			{
				"x": -1.6024787824,
				"y": 0.5548977438,
				"z": 1.2416167042,
				"element": "C" 
			},
			{
				"x": -1.9541919394,
				"y": 1.8960729115,
				"z": 1.4800271328,
				"element": "C" 
			},
			{
				"x": -2.9953324478,
				"y": 2.2360649566,
				"z": 2.3367051953,
				"element": "C" 
			},
			{
				"x": -3.7427028999,
				"y": 1.2509696819,
				"z": 2.9984894737,
				"element": "C" 
			},
			{
				"x": -4.8520231002,
				"y": 1.6241281031,
				"z": 3.9527119217,
				"element": "C" 
			},
			{
				"x": -3.4137021518,
				"y": -0.082163291,
				"z": 2.7443743323,
				"element": "C" 
			},
			{
				"x": -2.3720886697,
				"y": -0.427653249,
				"z": 1.8778419275,
				"element": "C" 
			},
			{
				"x": 0.0713369367,
				"y": -1.2080000475,
				"z": 0.1371140753,
				"element": "C" 
			},
			{
				"x": 0.6302261785,
				"y": -1.6912065065,
				"z": 1.4845044056,
				"element": "C" 
			},
			{
				"x": 1.1571278829,
				"y": -1.3047621642,
				"z": -0.9557303939,
				"element": "C" 
			},
			{
				"x": 1.3748627116,
				"y": -2.7427690871,
				"z": -1.4344436002,
				"element": "C" 
			},
			{
				"x": 0.0566768979,
				"y": -3.3224652831,
				"z": -1.969649647,
				"element": "C" 
			},
			{
				"x": 0.1662880083,
				"y": -4.7155057998,
				"z": -2.5965956908,
				"element": "C" 
			},
			{
				"x": 1.1670144512,
				"y": -5.521922494,
				"z": -2.1533095965,
				"element": "O" 
			},
			{
				"x": -0.5966572649,
				"y": -5.1232029777,
				"z": -3.4389343802,
				"element": "O" 
			},
			{
				"x": -1.0597542168,
				"y": -3.2786005931,
				"z": -0.8769005049,
				"element": "C" 
			},
			{
				"x": -0.8810501231,
				"y": -4.3755000397,
				"z": 0.1891994418,
				"element": "C" 
			},
			{
				"x": -2.4479866455,
				"y": -3.4158951899,
				"z": -1.5128555316,
				"element": "C" 
			},
			{
				"x": -1.0994427913,
				"y": -1.9629271172,
				"z": -0.272726017,
				"element": "O" 
			},
			{
				"x": 3.5978510078,
				"y": 5.0715312991,
				"z": 1.1118324364,
				"element": "H" 
			},
			{
				"x": 4.6686849123,
				"y": 3.7579952842,
				"z": 1.5991857219,
				"element": "H" 
			},
			{
				"x": 4.5287492033,
				"y": 4.2023746355,
				"z": -0.1096106914,
				"element": "H" 
			},
			{
				"x": 2.6299564698,
				"y": 3.3832580931,
				"z": -1.465445402,
				"element": "H" 
			},
			{
				"x": 0.7349410889,
				"y": 1.8218806295,
				"z": -1.7142357135,
				"element": "H" 
			},
			{
				"x": 0.8185730723,
				"y": 1.059648871,
				"z": 2.5039959684,
				"element": "H" 
			},
			{
				"x": 2.7200028839,
				"y": 2.5886299374,
				"z": 2.7507497749,
				"element": "H" 
			},
			{
				"x": -1.6782469002,
				"y": -0.1947795893,
				"z": -1.2391074109,
				"element": "H" 
			},
			{
				"x": -1.4048209336,
				"y": 2.6855300944,
				"z": 0.9783084431,
				"element": "H" 
			},
			{
				"x": -3.2345012633,
				"y": 3.2857263374,
				"z": 2.4924725361,
				"element": "H" 
			},
			{
				"x": -5.4988001077,
				"y": 0.7688953936,
				"z": 4.1688192291,
				"element": "H" 
			},
			{
				"x": -5.4769498307,
				"y": 2.4263907804,
				"z": 3.5460780248,
				"element": "H" 
			},
			{
				"x": -4.4510019397,
				"y": 1.983182105,
				"z": 4.9088645998,
				"element": "H" 
			},
			{
				"x": -3.9851811508,
				"y": -0.874205565,
				"z": 3.2231154516,
				"element": "H" 
			},
			{
				"x": -2.189381049,
				"y": -1.4739460325,
				"z": 1.6770923606,
				"element": "H" 
			},
			{
				"x": 1.0548297267,
				"y": -2.6936492593,
				"z": 1.3998786956,
				"element": "H" 
			},
			{
				"x": -0.1310611142,
				"y": -1.7122875369,
				"z": 2.2640105181,
				"element": "H" 
			},
			{
				"x": 1.4353411068,
				"y": -1.0294232445,
				"z": 1.8097970475,
				"element": "H" 
			},
			{
				"x": 0.8457840751,
				"y": -0.6965659309,
				"z": -1.80900937,
				"element": "H" 
			},
			{
				"x": 2.0935393108,
				"y": -0.8849199004,
				"z": -0.579615122,
				"element": "H" 
			},
			{
				"x": 2.1364688101,
				"y": -2.7540335391,
				"z": -2.2225130884,
				"element": "H" 
			},
			{
				"x": 1.7707536196,
				"y": -3.3489156164,
				"z": -0.605497792,
				"element": "H" 
			},
			{
				"x": -0.2854970752,
				"y": -2.6781640102,
				"z": -2.7868409354,
				"element": "H" 
			},
			{
				"x": 1.7059836073,
				"y": -5.0607462478,
				"z": -1.4957302954,
				"element": "H" 
			},
			{
				"x": -1.5877801474,
				"y": -4.2062070564,
				"z": 1.0055972531,
				"element": "H" 
			},
			{
				"x": -1.0889939181,
				"y": -5.3601020552,
				"z": -0.2402379244,
				"element": "H" 
			},
			{
				"x": 0.1231200016,
				"y": -4.404254407,
				"z": 0.6181302999,
				"element": "H" 
			},
			{
				"x": -2.6186026053,
				"y": -2.6055111979,
				"z": -2.2275110753,
				"element": "H" 
			},
			{
				"x": -2.5418393961,
				"y": -4.3634296513,
				"z": -2.0460338738,
				"element": "H" 
			},
			{
				"x": -3.217425876,
				"y": -3.3582724929,
				"z": -0.7377421103,
				"element": "H" 
			}
		],
		 "valence_orbital": [ 
			{
				"type": "occ",
				"energy": -0.26074,
				"method": "rhf"
			},
			{
				"type": "occ",
				"energy": -0.24803,
				"method": "rhf"
			},
			{
				"type": "occ",
				"energy": -0.24131,
				"method": "rhf"
			},
			{
				"type": "occ",
				"energy": -0.23497,
				"method": "rhf"
			},
			{
				"type": "occ",
				"energy": -0.22626,
				"method": "rhf"
			},
			{
				"type": "unocc",
				"energy": -0.00488,
				"method": "rhf"
			},
			{
				"type": "unocc",
				"energy": -0.00331,
				"method": "rhf"
			},
			{
				"type": "unocc",
				"energy": 0.00019,
				"method": "rhf"
			},
			{
				"type": "unocc",
				"energy": 0.00326,
				"method": "rhf"
			},
			{
				"type": "unocc",
				"energy": 0.0106,
				"method": "rhf"
			}
		],
		"cosmo_sigma_profile": { 
			"-0.025": 0.0,
			"-0.024": 0.0,
			"-0.023": 0.0,
			"-0.022": 0.0,
			"-0.021": 0.0,
			"-0.02": 0.0,
			"-0.019": 0.0,
			"-0.018": 0.0088613359431,
			"-0.017": 0.733915433535,
			"-0.016": 0.822965137573,
			"-0.015": 0.799372504534,
			"-0.014": 0.917072482556,
			"-0.013": 1.14979974466,
			"-0.012": 1.30940461467,
			"-0.011": 1.48157587893,
			"-0.01": 1.17965988294,
			"-0.009": 1.81970002484,
			"-0.008": 2.08309576898,
			"-0.007": 3.85471058182,
			"-0.006": 5.94407334031,
			"-0.005": 17.7976246002,
			"-0.004": 39.3817818084,
			"-0.003": 47.79219693,
			"-0.002": 48.5203049255,
			"-0.001": 44.4411637388,
			"0.0": 50.2252359893,
			"0.001": 31.5745202416,
			"0.002": 19.2757986113,
			"0.003": 15.6446395867,
			"0.004": 18.4425704861,
			"0.005": 18.5116524614,
			"0.006": 15.5066460906,
			"0.007": 7.12747422468,
			"0.008": 4.1974252731,
			"0.009": 5.02589152157,
			"0.01": 4.91612226831,
			"0.011": 6.34177224593,
			"0.012": 5.82532349017,
			"0.013": 2.69539720233,
			"0.014": 0.200061069632,
			"0.015": 0.0,
			"0.016": 0.0,
			"0.017": 0.0,
			"0.018": 0.0,
			"0.019": 0.0,
			"0.02": 0.0,
			"0.021": 0.0,
			"0.022": 0.0,
			"0.023": 0.0,
			"0.024": 0.0,
			"0.025": 0.0
		}
	}
}
