{
	 "smiles": "OC(=O)CCN1C(=O)CCC2=C1C=CC=C2", 
	 "Tm": 431.15, 
	 "num_atms": 29, 
	 "gaussian": { 
		 "optdone": 1, 
		 "sigma_profile": "yes", 
		 "theory": "DFT", 
		 "functional": "B3LYP", 
		 "basiset": "6-31G**", 
		 "properties": { 
			 "R2extent": 3685.9019, 
			 "electric_dipole_moment_norm": 3.11367532508, 
			 "electric_quadrupole_moment_norm": 12.0481836706, 
			 "total_energy": -745.577650563, 
			 "HOMO_LUMO_gap": 0.20306, 
			 "cosmo_polarized_energy": -15.09, 
			 "cosmo_cavitation_energy": 31.48, 
			 "cosmo_dispersion_energy": -22.4, 
			 "cosmo_repulsion_energy": 1.74, 
			 "cosmo_total_nonelectrostatic_energy": 10.81, 
			 "SMD_solvation_energy": 6.37 
		},
		"coords": [
			{
				"x": -2.8434232147,
				"y": 2.5464012677,
				"z": -1.2672442512,
				"element": "O" 
			},
			{
				"x": -1.6273594145,
				"y": 2.149455896,
				"z": -1.7409715179,
				"element": "C" 
			},
			{
				"x": -1.5197122358,
				"y": 1.3639029947,
				"z": -2.6541820181,
				"element": "O" 
			},
			{
				"x": -0.4936267673,
				"y": 2.8067246999,
				"z": -0.9903431489,
				"element": "C" 
			},
			{
				"x": -0.3028109587,
				"y": 2.310496145,
				"z": 0.4592638666,
				"element": "C" 
			},
			{
				"x": 0.0970053233,
				"y": 0.9012218542,
				"z": 0.5700197209,
				"element": "N" 
			},
			{
				"x": 1.4159826918,
				"y": 0.623366144,
				"z": 0.2293781702,
				"element": "C" 
			},
			{
				"x": 2.1736269122,
				"y": 1.5109390888,
				"z": -0.1428585904,
				"element": "O" 
			},
			{
				"x": 1.8380710071,
				"y": -0.8300293747,
				"z": 0.333877481,
				"element": "C" 
			},
			{
				"x": 1.2239141211,
				"y": -1.4946188239,
				"z": 1.5677938606,
				"element": "C" 
			},
			{
				"x": -0.2732199168,
				"y": -1.3083019505,
				"z": 1.5508768942,
				"element": "C" 
			},
			{
				"x": -0.7987543465,
				"y": -0.1016971381,
				"z": 1.0400859394,
				"element": "C" 
			},
			{
				"x": -2.1879705051,
				"y": 0.0896923829,
				"z": 1.0236856157,
				"element": "C" 
			},
			{
				"x": -3.0416145562,
				"y": -0.8962360983,
				"z": 1.5201893572,
				"element": "C" 
			},
			{
				"x": -2.5293647272,
				"y": -2.0886371431,
				"z": 2.0259454134,
				"element": "C" 
			},
			{
				"x": -1.1476851717,
				"y": -2.2839767146,
				"z": 2.0287260764,
				"element": "C" 
			},
			{
				"x": -3.5038212619,
				"y": 2.0689939685,
				"z": -1.7977398148,
				"element": "H" 
			},
			{
				"x": 0.4276014046,
				"y": 2.6381356672,
				"z": -1.5473181413,
				"element": "H" 
			},
			{
				"x": -0.6888111279,
				"y": 3.8841699256,
				"z": -0.9468579689,
				"element": "H" 
			},
			{
				"x": -1.2039463124,
				"y": 2.465355637,
				"z": 1.052254512,
				"element": "H" 
			},
			{
				"x": 0.5015556053,
				"y": 2.9066367553,
				"z": 0.8964129126,
				"element": "H" 
			},
			{
				"x": 1.5012998036,
				"y": -1.3459579541,
				"z": -0.5754813302,
				"element": "H" 
			},
			{
				"x": 2.929420936,
				"y": -0.8477857056,
				"z": 0.3417772736,
				"element": "H" 
			},
			{
				"x": 1.6479050801,
				"y": -1.0382216614,
				"z": 2.4745071176,
				"element": "H" 
			},
			{
				"x": 1.4784091582,
				"y": -2.5583542685,
				"z": 1.6048262934,
				"element": "H" 
			},
			{
				"x": -2.6160159013,
				"y": 0.9937134575,
				"z": 0.6086605883,
				"element": "H" 
			},
			{
				"x": -4.1142440749,
				"y": -0.7268479209,
				"z": 1.4974386842,
				"element": "H" 
			},
			{
				"x": -3.192737991,
				"y": -2.8592175941,
				"z": 2.4060420632,
				"element": "H" 
			},
			{
				"x": -0.7311735591,
				"y": -3.2112235366,
				"z": 2.414734941,
				"element": "H" 
			}
		],
		 "valence_orbital": [ 
			{
				"type": "occ",
				"energy": -0.29943,
				"method": "rhf"
			},
			{
				"type": "occ",
				"energy": -0.27603,
				"method": "rhf"
			},
			{
				"type": "occ",
				"energy": -0.254,
				"method": "rhf"
			},
			{
				"type": "occ",
				"energy": -0.25107,
				"method": "rhf"
			},
			{
				"type": "occ",
				"energy": -0.21749,
				"method": "rhf"
			},
			{
				"type": "unocc",
				"energy": -0.01443,
				"method": "rhf"
			},
			{
				"type": "unocc",
				"energy": -0.00848,
				"method": "rhf"
			},
			{
				"type": "unocc",
				"energy": 0.00204,
				"method": "rhf"
			},
			{
				"type": "unocc",
				"energy": 0.03046,
				"method": "rhf"
			},
			{
				"type": "unocc",
				"energy": 0.06953,
				"method": "rhf"
			}
		],
		"cosmo_sigma_profile": { 
			"-0.025": 0.0,
			"-0.024": 0.0,
			"-0.023": 0.0,
			"-0.022": 0.0,
			"-0.021": 0.0,
			"-0.02": 0.0,
			"-0.019": 0.0223080300192,
			"-0.018": 0.73123838995,
			"-0.017": 0.871171119171,
			"-0.016": 1.04673104621,
			"-0.015": 0.740859776646,
			"-0.014": 0.0,
			"-0.013": 0.221444098647,
			"-0.012": 1.44046188809,
			"-0.011": 1.21895780495,
			"-0.01": 0.653202144521,
			"-0.009": 0.166168300167,
			"-0.008": 0.401388562346,
			"-0.007": 3.28304033189,
			"-0.006": 11.8553816521,
			"-0.005": 24.4306027273,
			"-0.004": 25.8844317515,
			"-0.003": 27.7714418366,
			"-0.002": 20.625504932,
			"-0.001": 18.330936589,
			"0.0": 13.8692423258,
			"0.001": 10.3098010002,
			"0.002": 10.4903837602,
			"0.003": 10.3828917244,
			"0.004": 11.3328307532,
			"0.005": 11.3438975815,
			"0.006": 8.55518514733,
			"0.007": 3.3094834566,
			"0.008": 3.55542254592,
			"0.009": 4.41216488225,
			"0.01": 3.75803604592,
			"0.011": 5.56514404048,
			"0.012": 6.2242789612,
			"0.013": 4.41855208202,
			"0.014": 1.56626763326,
			"0.015": 0.184431331689,
			"0.016": 0.0,
			"0.017": 0.0,
			"0.018": 0.0,
			"0.019": 0.0,
			"0.02": 0.0,
			"0.021": 0.0,
			"0.022": 0.0,
			"0.023": 0.0,
			"0.024": 0.0,
			"0.025": 0.0
		}
	}
}
