{
	 "smiles": "CC(C)(C)C1=NN=C(CCl)O1", 
	 "Tm": 316.15, 
	 "num_atms": 22, 
	 "gaussian": { 
		 "optdone": 1, 
		 "sigma_profile": "yes", 
		 "theory": "DFT", 
		 "functional": "B3LYP", 
		 "basiset": "6-31G**", 
		 "properties": { 
			 "R2extent": 2943.8007, 
			 "electric_dipole_moment_norm": 3.21237316325, 
			 "electric_quadrupole_moment_norm": 12.3632953317, 
			 "total_energy": -918.279341159, 
			 "HOMO_LUMO_gap": 0.23747, 
			 "cosmo_polarized_energy": -10.59, 
			 "cosmo_cavitation_energy": 27.24, 
			 "cosmo_dispersion_energy": -19.19, 
			 "cosmo_repulsion_energy": 1.58, 
			 "cosmo_total_nonelectrostatic_energy": 9.63, 
			 "SMD_solvation_energy": 2.98 
		},
		"coords": [
			{
				"x": 1.1522096922,
				"y": -1.0756983014,
				"z": 0.5323593109,
				"element": "C" 
			},
			{
				"x": 1.5797498649,
				"y": -0.1277634261,
				"z": -0.6130170043,
				"element": "C" 
			},
			{
				"x": 1.5049538809,
				"y": -0.8764038176,
				"z": -1.9644298297,
				"element": "C" 
			},
			{
				"x": 3.0092606101,
				"y": 0.3879533802,
				"z": -0.3700477114,
				"element": "C" 
			},
			{
				"x": 0.6381353779,
				"y": 1.0448337956,
				"z": -0.6504495249,
				"element": "C" 
			},
			{
				"x": 0.8865424,
				"y": 2.3094476386,
				"z": -0.4992013924,
				"element": "N" 
			},
			{
				"x": -0.3357901475,
				"y": 2.9760803043,
				"z": -0.6111204339,
				"element": "N" 
			},
			{
				"x": -1.2267151713,
				"y": 2.0617587661,
				"z": -0.8260593199,
				"element": "C" 
			},
			{
				"x": -2.679454894,
				"y": 2.2495510455,
				"z": -1.0324466292,
				"element": "C" 
			},
			{
				"x": -3.6646440167,
				"y": 1.6011875026,
				"z": 0.3565435494,
				"element": "Cl" 
			},
			{
				"x": -0.6933886551,
				"y": 0.8097456778,
				"z": -0.8691278313,
				"element": "O" 
			},
			{
				"x": 1.8234736643,
				"y": -1.93979558,
				"z": 0.5645831267,
				"element": "H" 
			},
			{
				"x": 0.1313455681,
				"y": -1.4408718035,
				"z": 0.3883764084,
				"element": "H" 
			},
			{
				"x": 1.2020788771,
				"y": -0.5697684239,
				"z": 1.501481054,
				"element": "H" 
			},
			{
				"x": 2.1801566569,
				"y": -1.7377429294,
				"z": -1.9458168909,
				"element": "H" 
			},
			{
				"x": 0.4930837267,
				"y": -1.2412121803,
				"z": -2.1632093328,
				"element": "H" 
			},
			{
				"x": 1.8060649389,
				"y": -0.2270060847,
				"z": -2.7925138013,
				"element": "H" 
			},
			{
				"x": 3.0796835869,
				"y": 0.9297033193,
				"z": 0.5765504837,
				"element": "H" 
			},
			{
				"x": 3.3267946912,
				"y": 1.0672951336,
				"z": -1.1653219073,
				"element": "H" 
			},
			{
				"x": 3.7011175695,
				"y": -0.4596012552,
				"z": -0.3389498058,
				"element": "H" 
			},
			{
				"x": -3.0302674912,
				"y": 1.726889297,
				"z": -1.9228885015,
				"element": "H" 
			},
			{
				"x": -2.8865907295,
				"y": 3.3152179415,
				"z": -1.1105940165,
				"element": "H" 
			}
		],
		 "valence_orbital": [ 
			{
				"type": "occ",
				"energy": -0.32649,
				"method": "rhf"
			},
			{
				"type": "occ",
				"energy": -0.31329,
				"method": "rhf"
			},
			{
				"type": "occ",
				"energy": -0.30923,
				"method": "rhf"
			},
			{
				"type": "occ",
				"energy": -0.28248,
				"method": "rhf"
			},
			{
				"type": "occ",
				"energy": -0.27729,
				"method": "rhf"
			},
			{
				"type": "unocc",
				"energy": -0.03982,
				"method": "rhf"
			},
			{
				"type": "unocc",
				"energy": 0.01314,
				"method": "rhf"
			},
			{
				"type": "unocc",
				"energy": 0.04673,
				"method": "rhf"
			},
			{
				"type": "unocc",
				"energy": 0.07501,
				"method": "rhf"
			},
			{
				"type": "unocc",
				"energy": 0.10555,
				"method": "rhf"
			}
		],
		"cosmo_sigma_profile": { 
			"-0.025": 0.0,
			"-0.024": 0.0,
			"-0.023": 0.0,
			"-0.022": 0.0,
			"-0.021": 0.0,
			"-0.02": 0.0,
			"-0.019": 0.0,
			"-0.018": 0.0,
			"-0.017": 0.0,
			"-0.016": 0.0,
			"-0.015": 0.0,
			"-0.014": 0.0,
			"-0.013": 0.0,
			"-0.012": 0.0,
			"-0.011": 0.00896043813134,
			"-0.01": 2.66588101729,
			"-0.009": 4.46479509779,
			"-0.008": 3.75173209032,
			"-0.007": 4.40740856259,
			"-0.006": 4.25427449568,
			"-0.005": 4.18461129669,
			"-0.004": 21.2546597002,
			"-0.003": 24.6763921249,
			"-0.002": 19.9836057278,
			"-0.001": 22.7264456774,
			"0.0": 28.2831401172,
			"0.001": 14.8721253632,
			"0.002": 6.68289559193,
			"0.003": 8.23031755365,
			"0.004": 8.77780606949,
			"0.005": 11.9082923371,
			"0.006": 5.34710916243,
			"0.007": 1.78698517704,
			"0.008": 1.8072199892,
			"0.009": 2.61240480589,
			"0.01": 2.80592333917,
			"0.011": 3.16983432309,
			"0.012": 2.61601293051,
			"0.013": 2.16940753656,
			"0.014": 2.36872603544,
			"0.015": 0.657959898372,
			"0.016": 0.0,
			"0.017": 0.0,
			"0.018": 0.0,
			"0.019": 0.0,
			"0.02": 0.0,
			"0.021": 0.0,
			"0.022": 0.0,
			"0.023": 0.0,
			"0.024": 0.0,
			"0.025": 0.0
		}
	}
}
