{
	 "smiles": "CC1=CC(=CC(C)=C1)C(=O)N(NC(=O)C1=CC=CC=C1)C(C)(C)C", 
	 "Tm": 479.15, 
	 "num_atms": 48, 
	 "gaussian": { 
		 "optdone": 1, 
		 "sigma_profile": "yes", 
		 "theory": "DFT", 
		 "functional": "B3LYP", 
		 "basiset": "6-31G**", 
		 "properties": { 
			 "R2extent": 8242.4638, 
			 "electric_dipole_moment_norm": 6.018295301, 
			 "electric_quadrupole_moment_norm": 19.0880798738, 
			 "total_energy": -1036.55070411, 
			 "HOMO_LUMO_gap": 0.19228, 
			 "cosmo_polarized_energy": -15.82, 
			 "cosmo_cavitation_energy": 49.0, 
			 "cosmo_dispersion_energy": -31.19, 
			 "cosmo_repulsion_energy": 2.37, 
			 "cosmo_total_nonelectrostatic_energy": 20.18, 
			 "SMD_solvation_energy": 9.83 
		},
		"coords": [
			{
				"x": -1.4880163652,
				"y": 4.6252325649,
				"z": 0.8699689178,
				"element": "C" 
			},
			{
				"x": -1.1835707203,
				"y": 3.2232919342,
				"z": 0.3954753984,
				"element": "C" 
			},
			{
				"x": -0.5717758409,
				"y": 2.2946131592,
				"z": 1.2387163618,
				"element": "C" 
			},
			{
				"x": -0.3369248463,
				"y": 0.9816941769,
				"z": 0.8064390764,
				"element": "C" 
			},
			{
				"x": -0.6764103608,
				"y": 0.6048451477,
				"z": -0.498252727,
				"element": "C" 
			},
			{
				"x": -1.2646679278,
				"y": 1.5260514033,
				"z": -1.3728291137,
				"element": "C" 
			},
			{
				"x": -1.5807140607,
				"y": 1.1432635103,
				"z": -2.8003211144,
				"element": "C" 
			},
			{
				"x": -1.5217776094,
				"y": 2.8195923965,
				"z": -0.9048407061,
				"element": "C" 
			},
			{
				"x": 0.3878771686,
				"y": 0.058174996,
				"z": 1.7272463842,
				"element": "C" 
			},
			{
				"x": 1.2302484106,
				"y": 0.4754161758,
				"z": 2.5067174546,
				"element": "O" 
			},
			{
				"x": 0.153864527,
				"y": -1.355664218,
				"z": 1.581019845,
				"element": "N" 
			},
			{
				"x": 1.2646695248,
				"y": -2.0882194916,
				"z": 2.0657570737,
				"element": "N" 
			},
			{
				"x": 2.4323482285,
				"y": -2.2306136584,
				"z": 1.3105413319,
				"element": "C" 
			},
			{
				"x": 3.4896886762,
				"y": -2.3842711298,
				"z": 1.9068556712,
				"element": "O" 
			},
			{
				"x": 2.3836887163,
				"y": -2.2443296169,
				"z": -0.1882168196,
				"element": "C" 
			},
			{
				"x": 3.5499905029,
				"y": -1.8301584911,
				"z": -0.8488095303,
				"element": "C" 
			},
			{
				"x": 3.6219409045,
				"y": -1.8553398747,
				"z": -2.2395647279,
				"element": "C" 
			},
			{
				"x": 2.5382106242,
				"y": -2.3221040713,
				"z": -2.987260579,
				"element": "C" 
			},
			{
				"x": 1.3837538651,
				"y": -2.7615513902,
				"z": -2.3361545614,
				"element": "C" 
			},
			{
				"x": 1.3017778918,
				"y": -2.7167044001,
				"z": -0.9437514166,
				"element": "C" 
			},
			{
				"x": -1.1404836076,
				"y": -1.9353455915,
				"z": 2.1414602694,
				"element": "C" 
			},
			{
				"x": -1.2888998178,
				"y": -3.3752454801,
				"z": 1.6278060448,
				"element": "C" 
			},
			{
				"x": -2.3670422828,
				"y": -1.1258341285,
				"z": 1.6939544377,
				"element": "C" 
			},
			{
				"x": -1.0828726663,
				"y": -1.9319086132,
				"z": 3.6856905948,
				"element": "C" 
			},
			{
				"x": -0.8918773291,
				"y": 4.8863108242,
				"z": 1.7485617907,
				"element": "H" 
			},
			{
				"x": -1.2835832994,
				"y": 5.3648575031,
				"z": 0.0892473116,
				"element": "H" 
			},
			{
				"x": -2.5447234169,
				"y": 4.7298814771,
				"z": 1.1457588729,
				"element": "H" 
			},
			{
				"x": -0.2666853257,
				"y": 2.5759497696,
				"z": 2.2419539407,
				"element": "H" 
			},
			{
				"x": -0.447007475,
				"y": -0.3997247413,
				"z": -0.8380234939,
				"element": "H" 
			},
			{
				"x": -1.7741045644,
				"y": 0.0707044511,
				"z": -2.8938870325,
				"element": "H" 
			},
			{
				"x": -0.742543227,
				"y": 1.3814238986,
				"z": -3.4668052037,
				"element": "H" 
			},
			{
				"x": -2.4570384342,
				"y": 1.6811075208,
				"z": -3.1748062306,
				"element": "H" 
			},
			{
				"x": -1.9889887784,
				"y": 3.5392407925,
				"z": -1.5748325133,
				"element": "H" 
			},
			{
				"x": 1.5319965555,
				"y": -1.8467072023,
				"z": 3.0186750079,
				"element": "H" 
			},
			{
				"x": 4.3908969518,
				"y": -1.496478709,
				"z": -0.2506767041,
				"element": "H" 
			},
			{
				"x": 4.5255117265,
				"y": -1.5195998563,
				"z": -2.7400464113,
				"element": "H" 
			},
			{
				"x": 2.595875341,
				"y": -2.3509098701,
				"z": -4.0717766436,
				"element": "H" 
			},
			{
				"x": 0.5465405637,
				"y": -3.1453196489,
				"z": -2.9125222408,
				"element": "H" 
			},
			{
				"x": 0.4083819168,
				"y": -3.0664618829,
				"z": -0.4448961305,
				"element": "H" 
			},
			{
				"x": -1.4776352165,
				"y": -3.3909300207,
				"z": 0.5500554399,
				"element": "H" 
			},
			{
				"x": -2.1415465422,
				"y": -3.8528449415,
				"z": 2.1206347678,
				"element": "H" 
			},
			{
				"x": -0.3959634143,
				"y": -3.9660242702,
				"z": 1.8410756113,
				"element": "H" 
			},
			{
				"x": -2.3752153435,
				"y": -0.1106324035,
				"z": 2.0967297021,
				"element": "H" 
			},
			{
				"x": -2.4404104953,
				"y": -1.0623382839,
				"z": 0.6068332262,
				"element": "H" 
			},
			{
				"x": -3.2605423671,
				"y": -1.6366877914,
				"z": 2.0657935117,
				"element": "H" 
			},
			{
				"x": -0.3090648505,
				"y": -2.6048317857,
				"z": 4.0647462029,
				"element": "H" 
			},
			{
				"x": -0.889859947,
				"y": -0.9263387828,
				"z": 4.0731272708,
				"element": "H" 
			},
			{
				"x": -2.0395159635,
				"y": -2.2727313559,
				"z": 4.0931323819,
				"element": "H" 
			}
		],
		 "valence_orbital": [ 
			{
				"type": "occ",
				"energy": -0.25542,
				"method": "rhf"
			},
			{
				"type": "occ",
				"energy": -0.25041,
				"method": "rhf"
			},
			{
				"type": "occ",
				"energy": -0.24484,
				"method": "rhf"
			},
			{
				"type": "occ",
				"energy": -0.24413,
				"method": "rhf"
			},
			{
				"type": "occ",
				"energy": -0.24141,
				"method": "rhf"
			},
			{
				"type": "unocc",
				"energy": -0.04913,
				"method": "rhf"
			},
			{
				"type": "unocc",
				"energy": -0.03468,
				"method": "rhf"
			},
			{
				"type": "unocc",
				"energy": -0.00635,
				"method": "rhf"
			},
			{
				"type": "unocc",
				"energy": -0.00302,
				"method": "rhf"
			},
			{
				"type": "unocc",
				"energy": 0.02906,
				"method": "rhf"
			}
		],
		"cosmo_sigma_profile": { 
			"-0.025": 0.0,
			"-0.024": 0.0,
			"-0.023": 0.0,
			"-0.022": 0.0,
			"-0.021": 0.0,
			"-0.02": 0.0,
			"-0.019": 0.0,
			"-0.018": 0.0,
			"-0.017": 0.0,
			"-0.016": 0.0,
			"-0.015": 0.0,
			"-0.014": 0.0,
			"-0.013": 0.0,
			"-0.012": 0.0,
			"-0.011": 0.202499423235,
			"-0.01": 0.929258003672,
			"-0.009": 0.300350256936,
			"-0.008": 0.833865886706,
			"-0.007": 1.56116438683,
			"-0.006": 8.71524392943,
			"-0.005": 18.9317132985,
			"-0.004": 42.5309836696,
			"-0.003": 38.9695429806,
			"-0.002": 45.4082906409,
			"-0.001": 43.8921843921,
			"0.0": 49.9898928966,
			"0.001": 30.2971812569,
			"0.002": 18.9352529451,
			"0.003": 18.9047209356,
			"0.004": 22.5184298541,
			"0.005": 10.2800750685,
			"0.006": 2.91351343621,
			"0.007": 4.12238345991,
			"0.008": 3.1788687566,
			"0.009": 2.60905481345,
			"0.01": 3.62540237708,
			"0.011": 5.24047328931,
			"0.012": 6.29774558052,
			"0.013": 4.776474523,
			"0.014": 0.369738650554,
			"0.015": 0.0,
			"0.016": 0.0,
			"0.017": 0.0,
			"0.018": 0.0,
			"0.019": 0.0,
			"0.02": 0.0,
			"0.021": 0.0,
			"0.022": 0.0,
			"0.023": 0.0,
			"0.024": 0.0,
			"0.025": 0.0
		}
	}
}
