{
	 "smiles": "OC1CCSC2=C1C=CC=C2", 
	 "Tm": 341.15, 
	 "num_atms": 21, 
	 "gaussian": { 
		 "optdone": 1, 
		 "sigma_profile": "yes", 
		 "theory": "DFT", 
		 "functional": "B3LYP", 
		 "basiset": "6-31G**", 
		 "properties": { 
			 "R2extent": 2031.9656, 
			 "electric_dipole_moment_norm": 1.4719722314, 
			 "electric_quadrupole_moment_norm": 6.80342683065, 
			 "total_energy": -822.39501076, 
			 "HOMO_LUMO_gap": 0.1957, 
			 "cosmo_polarized_energy": -8.22, 
			 "cosmo_cavitation_energy": 24.43, 
			 "cosmo_dispersion_energy": -18.99, 
			 "cosmo_repulsion_energy": 1.46, 
			 "cosmo_total_nonelectrostatic_energy": 6.9, 
			 "SMD_solvation_energy": 3.29 
		},
		"coords": [
			{
				"x": -1.2010146812,
				"y": -1.7554120243,
				"z": 0.717442803,
				"element": "O" 
			},
			{
				"x": -0.3153135336,
				"y": -0.6331687691,
				"z": 0.8514702592,
				"element": "C" 
			},
			{
				"x": 1.0799779611,
				"y": -1.1533877985,
				"z": 0.510421937,
				"element": "C" 
			},
			{
				"x": 1.1553171166,
				"y": -1.6285572523,
				"z": -0.9372036464,
				"element": "C" 
			},
			{
				"x": 0.9225461427,
				"y": -0.2581367412,
				"z": -2.1348696863,
				"element": "S" 
			},
			{
				"x": -0.315733151,
				"y": 0.737440924,
				"z": -1.331085818,
				"element": "C" 
			},
			{
				"x": -0.7667281894,
				"y": 0.5314035842,
				"z": -0.0122845795,
				"element": "C" 
			},
			{
				"x": -1.7112345153,
				"y": 1.4229982109,
				"z": 0.5190037951,
				"element": "C" 
			},
			{
				"x": -2.2155731048,
				"y": 2.4895730911,
				"z": -0.2202898661,
				"element": "C" 
			},
			{
				"x": -1.7617658166,
				"y": 2.6829996994,
				"z": -1.5272903457,
				"element": "C" 
			},
			{
				"x": -0.8198612131,
				"y": 1.8177963419,
				"z": -2.0745431087,
				"element": "C" 
			},
			{
				"x": -2.0987209922,
				"y": -1.4110155346,
				"z": 0.6252377759,
				"element": "H" 
			},
			{
				"x": -0.3158655882,
				"y": -0.2920579537,
				"z": 1.8986654783,
				"element": "H" 
			},
			{
				"x": 1.2989227794,
				"y": -1.9987450446,
				"z": 1.1726827565,
				"element": "H" 
			},
			{
				"x": 1.8232158071,
				"y": -0.3722202901,
				"z": 0.7038205964,
				"element": "H" 
			},
			{
				"x": 2.1383399246,
				"y": -2.0438584794,
				"z": -1.1728772189,
				"element": "H" 
			},
			{
				"x": 0.3961597563,
				"y": -2.3930481971,
				"z": -1.1142183079,
				"element": "H" 
			},
			{
				"x": -2.0445615216,
				"y": 1.2732572722,
				"z": 1.5444886952,
				"element": "H" 
			},
			{
				"x": -2.9447111223,
				"y": 3.1643808594,
				"z": 0.2173822192,
				"element": "H" 
			},
			{
				"x": -2.1387513978,
				"y": 3.5101335811,
				"z": -2.1220447046,
				"element": "H" 
			},
			{
				"x": -0.4673446607,
				"y": 1.9741245206,
				"z": -3.0904090337,
				"element": "H" 
			}
		],
		 "valence_orbital": [ 
			{
				"type": "occ",
				"energy": -0.31001,
				"method": "rhf"
			},
			{
				"type": "occ",
				"energy": -0.2859,
				"method": "rhf"
			},
			{
				"type": "occ",
				"energy": -0.27297,
				"method": "rhf"
			},
			{
				"type": "occ",
				"energy": -0.25268,
				"method": "rhf"
			},
			{
				"type": "occ",
				"energy": -0.20673,
				"method": "rhf"
			},
			{
				"type": "unocc",
				"energy": -0.01103,
				"method": "rhf"
			},
			{
				"type": "unocc",
				"energy": -0.00609,
				"method": "rhf"
			},
			{
				"type": "unocc",
				"energy": 0.03865,
				"method": "rhf"
			},
			{
				"type": "unocc",
				"energy": 0.07701,
				"method": "rhf"
			},
			{
				"type": "unocc",
				"energy": 0.08865,
				"method": "rhf"
			}
		],
		"cosmo_sigma_profile": { 
			"-0.025": 0.0,
			"-0.024": 0.0,
			"-0.023": 0.0,
			"-0.022": 0.0,
			"-0.021": 0.0,
			"-0.02": 0.0,
			"-0.019": 0.0,
			"-0.018": 0.0,
			"-0.017": 0.0,
			"-0.016": 0.0,
			"-0.015": 0.183715679375,
			"-0.014": 0.659978181587,
			"-0.013": 1.07041173051,
			"-0.012": 0.406536988115,
			"-0.011": 0.828312290158,
			"-0.01": 0.309636184055,
			"-0.009": 1.08049342148,
			"-0.008": 1.81030143122,
			"-0.007": 1.43797945424,
			"-0.006": 10.0694643946,
			"-0.005": 13.5074997504,
			"-0.004": 20.1657366835,
			"-0.003": 20.368705174,
			"-0.002": 16.2711881378,
			"-0.001": 13.6791384776,
			"0.0": 10.7801283886,
			"0.001": 7.80850049052,
			"0.002": 10.4003163104,
			"0.003": 11.5543899406,
			"0.004": 12.5856635442,
			"0.005": 15.7607013132,
			"0.006": 7.23971081129,
			"0.007": 4.57619553828,
			"0.008": 3.52805363149,
			"0.009": 3.20841251456,
			"0.01": 1.22898375354,
			"0.011": 1.01176406693,
			"0.012": 1.05210019568,
			"0.013": 1.33264911911,
			"0.014": 0.893844551945,
			"0.015": 0.0402622838711,
			"0.016": 0.0,
			"0.017": 0.0,
			"0.018": 0.0,
			"0.019": 0.0,
			"0.02": 0.0,
			"0.021": 0.0,
			"0.022": 0.0,
			"0.023": 0.0,
			"0.024": 0.0,
			"0.025": 0.0
		}
	}
}
