{
	 "smiles": "OC(=O)C1=NN(C=C1OC(F)F)C1=CC=CC=C1", 
	 "Tm": 408.15, 
	 "num_atms": 26, 
	 "gaussian": { 
		 "optdone": 1, 
		 "sigma_profile": "yes", 
		 "theory": "DFT", 
		 "functional": "B3LYP", 
		 "basiset": "6-31G**", 
		 "properties": { 
			 "R2extent": 5596.4893, 
			 "electric_dipole_moment_norm": 2.89190320896, 
			 "electric_quadrupole_moment_norm": 8.43187878945, 
			 "total_energy": -958.82231389, 
			 "HOMO_LUMO_gap": 0.18425, 
			 "cosmo_polarized_energy": -15.85, 
			 "cosmo_cavitation_energy": 32.87, 
			 "cosmo_dispersion_energy": -23.52, 
			 "cosmo_repulsion_energy": 1.79, 
			 "cosmo_total_nonelectrostatic_energy": 11.14, 
			 "SMD_solvation_energy": 7.79 
		},
		"coords": [
			{
				"x": 3.6765881483,
				"y": -1.2853935484,
				"z": 0.2122179115,
				"element": "O" 
			},
			{
				"x": 2.7449793032,
				"y": -1.9374323683,
				"z": 0.9443846259,
				"element": "C" 
			},
			{
				"x": 2.9920363202,
				"y": -2.9349163927,
				"z": 1.5920674354,
				"element": "O" 
			},
			{
				"x": 1.4138167047,
				"y": -1.307983452,
				"z": 0.8664465139,
				"element": "C" 
			},
			{
				"x": 1.1822336636,
				"y": -0.2120746951,
				"z": 0.1346432163,
				"element": "N" 
			},
			{
				"x": -0.1201530803,
				"y": 0.0601594448,
				"z": 0.2965665332,
				"element": "N" 
			},
			{
				"x": -0.7472815584,
				"y": -0.830125388,
				"z": 1.132002565,
				"element": "C" 
			},
			{
				"x": 0.2225077034,
				"y": -1.7324994153,
				"z": 1.5111965248,
				"element": "C" 
			},
			{
				"x": 0.1463567391,
				"y": -2.810756353,
				"z": 2.3563790663,
				"element": "O" 
			},
			{
				"x": -1.0771966497,
				"y": -3.3838529685,
				"z": 2.5717914395,
				"element": "C" 
			},
			{
				"x": -1.9469214966,
				"y": -2.5014891039,
				"z": 3.1475211518,
				"element": "F" 
			},
			{
				"x": -1.6523326215,
				"y": -3.783910783,
				"z": 1.4104436614,
				"element": "F" 
			},
			{
				"x": -0.6998975515,
				"y": 1.1857744533,
				"z": -0.3558835905,
				"element": "C" 
			},
			{
				"x": -2.0811344109,
				"y": 1.2429417796,
				"z": -0.5655867572,
				"element": "C" 
			},
			{
				"x": -2.6333723392,
				"y": 2.3602066476,
				"z": -1.1916287633,
				"element": "C" 
			},
			{
				"x": -1.8164238266,
				"y": 3.4072415192,
				"z": -1.6197408687,
				"element": "C" 
			},
			{
				"x": -0.4361490115,
				"y": 3.3317424308,
				"z": -1.4176758528,
				"element": "C" 
			},
			{
				"x": 0.1290963224,
				"y": 2.2279585753,
				"z": -0.7834424482,
				"element": "C" 
			},
			{
				"x": 4.4986123241,
				"y": -1.7876818664,
				"z": 0.3388287848,
				"element": "H" 
			},
			{
				"x": -1.7829593845,
				"y": -0.7464618088,
				"z": 1.4094712232,
				"element": "H" 
			},
			{
				"x": -0.9296498759,
				"y": -4.2369553793,
				"z": 3.2360768552,
				"element": "H" 
			},
			{
				"x": -2.7199464212,
				"y": 0.4191078304,
				"z": -0.2665669886,
				"element": "H" 
			},
			{
				"x": -3.7061075048,
				"y": 2.402086237,
				"z": -1.3540769548,
				"element": "H" 
			},
			{
				"x": -2.2507751303,
				"y": 4.272760856,
				"z": -2.1103852901,
				"element": "H" 
			},
			{
				"x": 0.2079235061,
				"y": 4.1405849545,
				"z": -1.749394169,
				"element": "H" 
			},
			{
				"x": 1.1966501275,
				"y": 2.1549687941,
				"z": -0.6161558249,
				"element": "H" 
			}
		],
		 "valence_orbital": [ 
			{
				"type": "occ",
				"energy": -0.29587,
				"method": "rhf"
			},
			{
				"type": "occ",
				"energy": -0.27316,
				"method": "rhf"
			},
			{
				"type": "occ",
				"energy": -0.26688,
				"method": "rhf"
			},
			{
				"type": "occ",
				"energy": -0.25932,
				"method": "rhf"
			},
			{
				"type": "occ",
				"energy": -0.23379,
				"method": "rhf"
			},
			{
				"type": "unocc",
				"energy": -0.04954,
				"method": "rhf"
			},
			{
				"type": "unocc",
				"energy": -0.01778,
				"method": "rhf"
			},
			{
				"type": "unocc",
				"energy": -0.00611,
				"method": "rhf"
			},
			{
				"type": "unocc",
				"energy": 0.0304,
				"method": "rhf"
			},
			{
				"type": "unocc",
				"energy": 0.07846,
				"method": "rhf"
			}
		],
		"cosmo_sigma_profile": { 
			"-0.025": 0.0,
			"-0.024": 0.0,
			"-0.023": 0.0,
			"-0.022": 0.0,
			"-0.021": 0.0,
			"-0.02": 0.0,
			"-0.019": 0.184579068024,
			"-0.018": 0.811175033595,
			"-0.017": 0.942588795336,
			"-0.016": 0.754158410163,
			"-0.015": 0.885394819034,
			"-0.014": 0.802539247151,
			"-0.013": 0.201414989777,
			"-0.012": 1.2705709767,
			"-0.011": 6.20011246446,
			"-0.01": 3.36596692285,
			"-0.009": 3.97962751425,
			"-0.008": 3.91995840647,
			"-0.007": 6.1229040927,
			"-0.006": 11.2361496816,
			"-0.005": 14.3380870028,
			"-0.004": 13.3464957238,
			"-0.003": 13.5321048966,
			"-0.002": 15.2194968878,
			"-0.001": 17.8350431219,
			"0.0": 21.0349597038,
			"0.001": 19.2455216534,
			"0.002": 19.985729061,
			"0.003": 29.7030995269,
			"0.004": 19.6734944543,
			"0.005": 6.51051575902,
			"0.006": 4.05670921408,
			"0.007": 3.26308326202,
			"0.008": 3.84722671862,
			"0.009": 3.97779351346,
			"0.01": 3.44832627333,
			"0.011": 6.67970894678,
			"0.012": 5.74967095067,
			"0.013": 2.33918384085,
			"0.014": 0.146390659723,
			"0.015": 0.0,
			"0.016": 0.0,
			"0.017": 0.0,
			"0.018": 0.0,
			"0.019": 0.0,
			"0.02": 0.0,
			"0.021": 0.0,
			"0.022": 0.0,
			"0.023": 0.0,
			"0.024": 0.0,
			"0.025": 0.0
		}
	}
}
