{
	 "smiles": "CCC1=NN=NN1", 
	 "Tm": 367.15, 
	 "num_atms": 13, 
	 "gaussian": { 
		 "optdone": 1, 
		 "sigma_profile": "yes", 
		 "theory": "DFT", 
		 "functional": "B3LYP", 
		 "basiset": "6-31G**", 
		 "properties": { 
			 "R2extent": 978.2997, 
			 "electric_dipole_moment_norm": 5.79200669975, 
			 "electric_quadrupole_moment_norm": 10.4139188027, 
			 "total_energy": -336.891597491, 
			 "HOMO_LUMO_gap": 0.26673, 
			 "cosmo_polarized_energy": -17.23, 
			 "cosmo_cavitation_energy": 17.19, 
			 "cosmo_dispersion_energy": -12.79, 
			 "cosmo_repulsion_energy": 1.1, 
			 "cosmo_total_nonelectrostatic_energy": 5.51, 
			 "SMD_solvation_energy": 1.27 
		},
		"coords": [
			{
				"x": 1.3464922815,
				"y": 0.8351471773,
				"z": -1.3666753009,
				"element": "C" 
			},
			{
				"x": -0.1814357625,
				"y": 0.7002739012,
				"z": -1.2354084603,
				"element": "C" 
			},
			{
				"x": -0.6757747498,
				"y": 0.918282908,
				"z": 0.1586026842,
				"element": "C" 
			},
			{
				"x": -1.336432023,
				"y": 1.9706415013,
				"z": 0.6067069654,
				"element": "N" 
			},
			{
				"x": -1.5590535008,
				"y": 1.7508913152,
				"z": 1.9334372826,
				"element": "N" 
			},
			{
				"x": -1.0662208801,
				"y": 0.6190414495,
				"z": 2.3108505056,
				"element": "N" 
			},
			{
				"x": -0.5020376128,
				"y": 0.0772482202,
				"z": 1.2042815713,
				"element": "N" 
			},
			{
				"x": 1.6777058779,
				"y": 1.8268632228,
				"z": -1.0466388859,
				"element": "H" 
			},
			{
				"x": 1.6507846042,
				"y": 0.6916980984,
				"z": -2.4072814689,
				"element": "H" 
			},
			{
				"x": 1.8722890954,
				"y": 0.0913339764,
				"z": -0.7589003465,
				"element": "H" 
			},
			{
				"x": -0.6805782179,
				"y": 1.4421557206,
				"z": -1.8638322081,
				"element": "H" 
			},
			{
				"x": -0.5022543188,
				"y": -0.2878558458,
				"z": -1.5875249233,
				"element": "H" 
			},
			{
				"x": -0.0524847935,
				"y": -0.825321645,
				"z": 1.2555825848,
				"element": "H" 
			}
		],
		 "valence_orbital": [ 
			{
				"type": "occ",
				"energy": -0.36367,
				"method": "rhf"
			},
			{
				"type": "occ",
				"energy": -0.32297,
				"method": "rhf"
			},
			{
				"type": "occ",
				"energy": -0.29356,
				"method": "rhf"
			},
			{
				"type": "occ",
				"energy": -0.29213,
				"method": "rhf"
			},
			{
				"type": "occ",
				"energy": -0.28155,
				"method": "rhf"
			},
			{
				"type": "unocc",
				"energy": -0.01482,
				"method": "rhf"
			},
			{
				"type": "unocc",
				"energy": 0.02387,
				"method": "rhf"
			},
			{
				"type": "unocc",
				"energy": 0.05196,
				"method": "rhf"
			},
			{
				"type": "unocc",
				"energy": 0.10004,
				"method": "rhf"
			},
			{
				"type": "unocc",
				"energy": 0.12494,
				"method": "rhf"
			}
		],
		"cosmo_sigma_profile": { 
			"-0.025": 0.0,
			"-0.024": 0.0,
			"-0.023": 0.0,
			"-0.022": 0.0,
			"-0.021": 0.0,
			"-0.02": 0.0,
			"-0.019": 0.698322281684,
			"-0.018": 1.92854596816,
			"-0.017": 1.29195759664,
			"-0.016": 0.893171683068,
			"-0.015": 0.980899493657,
			"-0.014": 1.59101628169,
			"-0.013": 1.12080576051,
			"-0.012": 0.845446737981,
			"-0.011": 0.979032346255,
			"-0.01": 1.14253285615,
			"-0.009": 2.04255532092,
			"-0.008": 1.00039456151,
			"-0.007": 2.30669094614,
			"-0.006": 4.72520435593,
			"-0.005": 6.78357427189,
			"-0.004": 10.7796378504,
			"-0.003": 16.3781292488,
			"-0.002": 13.7977603099,
			"-0.001": 9.57663310783,
			"0.0": 8.25735959775,
			"0.001": 3.37617195697,
			"0.002": 2.83072683424,
			"0.003": 1.87529425788,
			"0.004": 2.58290252579,
			"0.005": 3.13315158017,
			"0.006": 2.82865656607,
			"0.007": 2.48482016714,
			"0.008": 4.76970821434,
			"0.009": 4.74992268029,
			"0.01": 4.70148307561,
			"0.011": 5.20857503781,
			"0.012": 4.21563795455,
			"0.013": 2.46700828125,
			"0.014": 2.27676403713,
			"0.015": 1.24181420037,
			"0.016": 0.382885833618,
			"0.017": 0.0,
			"0.018": 0.0,
			"0.019": 0.0,
			"0.02": 0.0,
			"0.021": 0.0,
			"0.022": 0.0,
			"0.023": 0.0,
			"0.024": 0.0,
			"0.025": 0.0
		}
	}
}
