{
	 "smiles": "CC(C)(C)OC(=O)NC(CCC(=O)OCC1=CC=CC=C1)C(O)=O", 
	 "Tm": 339.65, 
	 "num_atms": 47, 
	 "gaussian": { 
		 "optdone": 1, 
		 "sigma_profile": "yes", 
		 "theory": "DFT", 
		 "functional": "B3LYP", 
		 "basiset": "6-31G**", 
		 "properties": { 
			 "R2extent": 8247.3201, 
			 "electric_dipole_moment_norm": 2.70611841204, 
			 "electric_quadrupole_moment_norm": 16.777467884, 
			 "total_energy": -1167.83832659, 
			 "HOMO_LUMO_gap": 0.23622, 
			 "cosmo_polarized_energy": -19.29, 
			 "cosmo_cavitation_energy": 49.61, 
			 "cosmo_dispersion_energy": -30.36, 
			 "cosmo_repulsion_energy": 2.3, 
			 "cosmo_total_nonelectrostatic_energy": 21.55, 
			 "SMD_solvation_energy": 10.34 
		},
		"coords": [
			{
				"x": 1.1900499561,
				"y": 2.8637877696,
				"z": 0.2048195058,
				"element": "C" 
			},
			{
				"x": 1.5333399493,
				"y": 1.5478352414,
				"z": 0.9105337293,
				"element": "C" 
			},
			{
				"x": 1.4368619784,
				"y": 1.6586909555,
				"z": 2.4355713373,
				"element": "C" 
			},
			{
				"x": 2.9149144216,
				"y": 1.0445838226,
				"z": 0.4848511462,
				"element": "C" 
			},
			{
				"x": 0.6468795069,
				"y": 0.4728895608,
				"z": 0.4316722969,
				"element": "O" 
			},
			{
				"x": -0.6907000321,
				"y": 0.5785411077,
				"z": 0.5396352724,
				"element": "C" 
			},
			{
				"x": -1.3133357223,
				"y": 1.4463704614,
				"z": 1.1364518726,
				"element": "O" 
			},
			{
				"x": -1.288057536,
				"y": -0.4504407404,
				"z": -0.1449929151,
				"element": "N" 
			},
			{
				"x": -2.7117366934,
				"y": -0.6739324885,
				"z": -0.0366166882,
				"element": "C" 
			},
			{
				"x": -3.5181327891,
				"y": -0.2088618933,
				"z": -1.2856522825,
				"element": "C" 
			},
			{
				"x": -3.0282889738,
				"y": 1.1384325577,
				"z": -1.8372838068,
				"element": "C" 
			},
			{
				"x": -1.7373110182,
				"y": 1.080302753,
				"z": -2.6370385396,
				"element": "C" 
			},
			{
				"x": -0.8714552272,
				"y": 1.9270568916,
				"z": -2.6223600515,
				"element": "O" 
			},
			{
				"x": -1.7069957808,
				"y": -0.0112227207,
				"z": -3.447076126,
				"element": "O" 
			},
			{
				"x": -0.5239595798,
				"y": -0.1839524577,
				"z": -4.2605936712,
				"element": "C" 
			},
			{
				"x": 0.5431724559,
				"y": -0.9834433825,
				"z": -3.5482740726,
				"element": "C" 
			},
			{
				"x": 0.2161604549,
				"y": -2.1646291572,
				"z": -2.8667420067,
				"element": "C" 
			},
			{
				"x": 1.2071350029,
				"y": -2.9131738102,
				"z": -2.2311699956,
				"element": "C" 
			},
			{
				"x": 2.540983547,
				"y": -2.4992223113,
				"z": -2.2848945109,
				"element": "C" 
			},
			{
				"x": 2.875053992,
				"y": -1.3299298847,
				"z": -2.9686853927,
				"element": "C" 
			},
			{
				"x": 1.8788134715,
				"y": -0.5720882634,
				"z": -3.5893199156,
				"element": "C" 
			},
			{
				"x": -2.970584327,
				"y": -2.1543470656,
				"z": 0.1957922658,
				"element": "C" 
			},
			{
				"x": -4.2321771575,
				"y": -2.3786673097,
				"z": 0.6199019941,
				"element": "O" 
			},
			{
				"x": -2.1750558135,
				"y": -3.044926364,
				"z": -0.0155127867,
				"element": "O" 
			},
			{
				"x": 1.1502283157,
				"y": 2.7153991005,
				"z": -0.8777573652,
				"element": "H" 
			},
			{
				"x": 0.223691611,
				"y": 3.245850561,
				"z": 0.5347583859,
				"element": "H" 
			},
			{
				"x": 1.9601072295,
				"y": 3.6092897152,
				"z": 0.4296167529,
				"element": "H" 
			},
			{
				"x": 2.1709753021,
				"y": 2.3855794068,
				"z": 2.7988160862,
				"element": "H" 
			},
			{
				"x": 0.4406725854,
				"y": 1.9820682459,
				"z": 2.7388541409,
				"element": "H" 
			},
			{
				"x": 1.6550956246,
				"y": 0.692926992,
				"z": 2.9027223438,
				"element": "H" 
			},
			{
				"x": 3.6844459356,
				"y": 1.7622150712,
				"z": 0.7849989555,
				"element": "H" 
			},
			{
				"x": 2.9579190737,
				"y": 0.9146917082,
				"z": -0.5999406611,
				"element": "H" 
			},
			{
				"x": 3.1357924218,
				"y": 0.0813360801,
				"z": 0.9542575326,
				"element": "H" 
			},
			{
				"x": -0.7044580312,
				"y": -1.191928786,
				"z": -0.5102023807,
				"element": "H" 
			},
			{
				"x": -3.0631073674,
				"y": -0.1042213895,
				"z": 0.8285924627,
				"element": "H" 
			},
			{
				"x": -3.4548839821,
				"y": -0.9611000699,
				"z": -2.0774229373,
				"element": "H" 
			},
			{
				"x": -4.570661177,
				"y": -0.1325336098,
				"z": -0.9966085123,
				"element": "H" 
			},
			{
				"x": -2.8790402348,
				"y": 1.870466551,
				"z": -1.0405580312,
				"element": "H" 
			},
			{
				"x": -3.7928511078,
				"y": 1.5381782065,
				"z": -2.5161939184,
				"element": "H" 
			},
			{
				"x": -0.8861225963,
				"y": -0.7139697876,
				"z": -5.1468196868,
				"element": "H" 
			},
			{
				"x": -0.1430229692,
				"y": 0.7958047914,
				"z": -4.5553720455,
				"element": "H" 
			},
			{
				"x": -0.8184030044,
				"y": -2.4925406082,
				"z": -2.8216566831,
				"element": "H" 
			},
			{
				"x": 0.9359133315,
				"y": -3.8188914998,
				"z": -1.6966743331,
				"element": "H" 
			},
			{
				"x": 3.3133621835,
				"y": -3.0839995489,
				"z": -1.7938021247,
				"element": "H" 
			},
			{
				"x": 3.9091461806,
				"y": -0.9997978986,
				"z": -3.0114304565,
				"element": "H" 
			},
			{
				"x": 2.1403735245,
				"y": 0.3485047162,
				"z": -4.1046222044,
				"element": "H" 
			},
			{
				"x": -4.3315469346,
				"y": -3.3429812198,
				"z": 0.696228021,
				"element": "H" 
			}
		],
		 "valence_orbital": [ 
			{
				"type": "occ",
				"energy": -0.26835,
				"method": "rhf"
			},
			{
				"type": "occ",
				"energy": -0.25917,
				"method": "rhf"
			},
			{
				"type": "occ",
				"energy": -0.25389,
				"method": "rhf"
			},
			{
				"type": "occ",
				"energy": -0.2513,
				"method": "rhf"
			},
			{
				"type": "occ",
				"energy": -0.24768,
				"method": "rhf"
			},
			{
				"type": "unocc",
				"energy": -0.01146,
				"method": "rhf"
			},
			{
				"type": "unocc",
				"energy": -0.0039,
				"method": "rhf"
			},
			{
				"type": "unocc",
				"energy": -0.00299,
				"method": "rhf"
			},
			{
				"type": "unocc",
				"energy": 0.01498,
				"method": "rhf"
			},
			{
				"type": "unocc",
				"energy": 0.05733,
				"method": "rhf"
			}
		],
		"cosmo_sigma_profile": { 
			"-0.025": 0.0,
			"-0.024": 0.0,
			"-0.023": 0.0,
			"-0.022": 0.0,
			"-0.021": 0.0,
			"-0.02": 0.0,
			"-0.019": 0.539297904161,
			"-0.018": 0.690310768216,
			"-0.017": 1.11869644343,
			"-0.016": 0.906815124268,
			"-0.015": 0.760886176798,
			"-0.014": 0.576545963366,
			"-0.013": 0.242562097019,
			"-0.012": 0.850470792201,
			"-0.011": 0.853461258065,
			"-0.01": 0.929353844603,
			"-0.009": 0.51811187273,
			"-0.008": 0.744836333187,
			"-0.007": 4.83570462899,
			"-0.006": 14.8074728555,
			"-0.005": 23.5556339372,
			"-0.004": 36.5652993395,
			"-0.003": 35.9244510544,
			"-0.002": 34.7841996128,
			"-0.001": 35.4561951484,
			"0.0": 37.5730685086,
			"0.001": 30.9445469732,
			"0.002": 20.2294085033,
			"0.003": 17.3796367863,
			"0.004": 17.6748023747,
			"0.005": 19.3273099936,
			"0.006": 14.054049258,
			"0.007": 9.14361806055,
			"0.008": 6.56552511924,
			"0.009": 5.24613035349,
			"0.01": 4.76688436751,
			"0.011": 5.94166502454,
			"0.012": 4.01029917026,
			"0.013": 1.9673899056,
			"0.014": 0.02585415815,
			"0.015": 0.0,
			"0.016": 0.0,
			"0.017": 0.0,
			"0.018": 0.0,
			"0.019": 0.0,
			"0.02": 0.0,
			"0.021": 0.0,
			"0.022": 0.0,
			"0.023": 0.0,
			"0.024": 0.0,
			"0.025": 0.0
		}
	}
}
