{
	 "smiles": "CCC1=CC2=C(S1)N=C(NC2=O)N1CCCC1", 
	 "Tm": 527.15, 
	 "num_atms": 32, 
	 "gaussian": { 
		 "optdone": 1, 
		 "sigma_profile": "yes", 
		 "theory": "DFT", 
		 "functional": "B3LYP", 
		 "basiset": "6-31G**", 
		 "properties": { 
			 "R2extent": 5996.1877, 
			 "electric_dipole_moment_norm": 4.82734457233, 
			 "electric_quadrupole_moment_norm": 27.9267917441, 
			 "total_energy": -1104.02125959, 
			 "HOMO_LUMO_gap": 0.17239, 
			 "cosmo_polarized_energy": -15.53, 
			 "cosmo_cavitation_energy": 35.88, 
			 "cosmo_dispersion_energy": -26.96, 
			 "cosmo_repulsion_energy": 2.07, 
			 "cosmo_total_nonelectrostatic_energy": 10.99, 
			 "SMD_solvation_energy": 3.66 
		},
		"coords": [
			{
				"x": 1.3284623755,
				"y": 0.5695218661,
				"z": -5.1492145587,
				"element": "C" 
			},
			{
				"x": 2.2255699643,
				"y": 1.0482591228,
				"z": -3.9937859868,
				"element": "C" 
			},
			{
				"x": 1.6917281837,
				"y": 0.7307065804,
				"z": -2.6256759629,
				"element": "C" 
			},
			{
				"x": 2.1938057317,
				"y": -0.1360321501,
				"z": -1.7016217799,
				"element": "C" 
			},
			{
				"x": 1.4191984045,
				"y": -0.200594634,
				"z": -0.4998966023,
				"element": "C" 
			},
			{
				"x": 0.3044185512,
				"y": 0.6366243776,
				"z": -0.5147821521,
				"element": "C" 
			},
			{
				"x": 0.2148116705,
				"y": 1.5116567262,
				"z": -2.0310256423,
				"element": "S" 
			},
			{
				"x": -0.6149998374,
				"y": 0.8046309764,
				"z": 0.4658667777,
				"element": "N" 
			},
			{
				"x": -0.4114694625,
				"y": 0.0734419756,
				"z": 1.5449617948,
				"element": "C" 
			},
			{
				"x": 0.6541260509,
				"y": -0.7912323597,
				"z": 1.6644719985,
				"element": "N" 
			},
			{
				"x": 1.6523374796,
				"y": -1.00578224,
				"z": 0.6741935163,
				"element": "C" 
			},
			{
				"x": 2.5554479819,
				"y": -1.8038367142,
				"z": 0.8923279379,
				"element": "O" 
			},
			{
				"x": -1.2773184307,
				"y": 0.1627184497,
				"z": 2.5879094843,
				"element": "N" 
			},
			{
				"x": -1.1446372194,
				"y": -0.546017442,
				"z": 3.8622233258,
				"element": "C" 
			},
			{
				"x": -2.2257055408,
				"y": 0.1039268149,
				"z": 4.7427797433,
				"element": "C" 
			},
			{
				"x": -3.2959932552,
				"y": 0.5439559341,
				"z": 3.7295592021,
				"element": "C" 
			},
			{
				"x": -2.4730489991,
				"y": 1.0151265084,
				"z": 2.5229085461,
				"element": "C" 
			},
			{
				"x": 0.3424676534,
				"y": 1.0434715772,
				"z": -5.1098106702,
				"element": "H" 
			},
			{
				"x": 1.7803759339,
				"y": 0.8139922409,
				"z": -6.1161521508,
				"element": "H" 
			},
			{
				"x": 1.1797410233,
				"y": -0.5135807691,
				"z": -5.1031594591,
				"element": "H" 
			},
			{
				"x": 3.2122796736,
				"y": 0.5780323657,
				"z": -4.0768967294,
				"element": "H" 
			},
			{
				"x": 2.3918745566,
				"y": 2.129574312,
				"z": -4.0906205079,
				"element": "H" 
			},
			{
				"x": 3.0939896545,
				"y": -0.7203675521,
				"z": -1.8547015213,
				"element": "H" 
			},
			{
				"x": 0.7767229661,
				"y": -1.3560893175,
				"z": 2.4942328188,
				"element": "H" 
			},
			{
				"x": -1.3269012176,
				"y": -1.6244586732,
				"z": 3.7367755395,
				"element": "H" 
			},
			{
				"x": -0.141364469,
				"y": -0.4206542216,
				"z": 4.2890543549,
				"element": "H" 
			},
			{
				"x": -1.8080487823,
				"y": 0.9780778429,
				"z": 5.2538840091,
				"element": "H" 
			},
			{
				"x": -2.6027601024,
				"y": -0.5819111484,
				"z": 5.5054513562,
				"element": "H" 
			},
			{
				"x": -3.9533699022,
				"y": 1.327011567,
				"z": 4.1156626584,
				"element": "H" 
			},
			{
				"x": -3.92163492,
				"y": -0.3099418466,
				"z": 3.4463192507,
				"element": "H" 
			},
			{
				"x": -2.9795527738,
				"y": 0.8835687848,
				"z": 1.5641520495,
				"element": "H" 
			},
			{
				"x": -2.1929529427,
				"y": 2.073701046,
				"z": 2.6029093597,
				"element": "H" 
			}
		],
		 "valence_orbital": [ 
			{
				"type": "occ",
				"energy": -0.27532,
				"method": "rhf"
			},
			{
				"type": "occ",
				"energy": -0.25945,
				"method": "rhf"
			},
			{
				"type": "occ",
				"energy": -0.24923,
				"method": "rhf"
			},
			{
				"type": "occ",
				"energy": -0.24242,
				"method": "rhf"
			},
			{
				"type": "occ",
				"energy": -0.18847,
				"method": "rhf"
			},
			{
				"type": "unocc",
				"energy": -0.01608,
				"method": "rhf"
			},
			{
				"type": "unocc",
				"energy": 0.00991,
				"method": "rhf"
			},
			{
				"type": "unocc",
				"energy": 0.03281,
				"method": "rhf"
			},
			{
				"type": "unocc",
				"energy": 0.0483,
				"method": "rhf"
			},
			{
				"type": "unocc",
				"energy": 0.06277,
				"method": "rhf"
			}
		],
		"cosmo_sigma_profile": { 
			"-0.025": 0.0,
			"-0.024": 0.0,
			"-0.023": 0.0,
			"-0.022": 0.0,
			"-0.021": 0.0,
			"-0.02": 0.0,
			"-0.019": 0.0,
			"-0.018": 0.0,
			"-0.017": 0.0,
			"-0.016": 0.0,
			"-0.015": 0.243044966357,
			"-0.014": 0.8146350055,
			"-0.013": 1.23438597007,
			"-0.012": 0.983347414026,
			"-0.011": 1.2673448263,
			"-0.01": 1.25138680373,
			"-0.009": 1.39029516162,
			"-0.008": 1.48616194615,
			"-0.007": 2.77234031215,
			"-0.006": 4.912025536,
			"-0.005": 9.68921727571,
			"-0.004": 30.3615600105,
			"-0.003": 36.5398969184,
			"-0.002": 32.2047968879,
			"-0.001": 31.5046400125,
			"0.0": 24.4928154009,
			"0.001": 18.2022293457,
			"0.002": 13.693796168,
			"0.003": 18.3931783442,
			"0.004": 14.453373758,
			"0.005": 9.19757990388,
			"0.006": 3.89866343727,
			"0.007": 2.43835221038,
			"0.008": 3.07428555106,
			"0.009": 2.36699260528,
			"0.01": 2.9944337981,
			"0.011": 2.73959482569,
			"0.012": 2.37542877922,
			"0.013": 4.96077164433,
			"0.014": 4.96294219864,
			"0.015": 0.206280905421,
			"0.016": 0.0,
			"0.017": 0.0,
			"0.018": 0.0,
			"0.019": 0.0,
			"0.02": 0.0,
			"0.021": 0.0,
			"0.022": 0.0,
			"0.023": 0.0,
			"0.024": 0.0,
			"0.025": 0.0
		}
	}
}
