{
	 "smiles": "COC1=CC=C(CC(=O)C(O)=O)C=C1", 
	 "Tm": 467.15, 
	 "num_atms": 24, 
	 "gaussian": { 
		 "optdone": 1, 
		 "sigma_profile": "yes", 
		 "theory": "DFT", 
		 "functional": "B3LYP", 
		 "basiset": "6-31G**", 
		 "properties": { 
			 "R2extent": 4401.8254, 
			 "electric_dipole_moment_norm": 3.45170428339, 
			 "electric_quadrupole_moment_norm": 16.3335206248, 
			 "total_energy": -687.97635538, 
			 "HOMO_LUMO_gap": 0.13539, 
			 "cosmo_polarized_energy": -13.86, 
			 "cosmo_cavitation_energy": 29.26, 
			 "cosmo_dispersion_energy": -21.1, 
			 "cosmo_repulsion_energy": 1.67, 
			 "cosmo_total_nonelectrostatic_energy": 9.83, 
			 "SMD_solvation_energy": 7.63 
		},
		"coords": [
			{
				"x": -4.1728247481,
				"y": -0.4522029844,
				"z": 1.3485150844,
				"element": "C" 
			},
			{
				"x": -2.9080224624,
				"y": -0.0256105789,
				"z": 1.8293013709,
				"element": "O" 
			},
			{
				"x": -1.8772654789,
				"y": 0.0664413582,
				"z": 0.9407208174,
				"element": "C" 
			},
			{
				"x": -0.6497608527,
				"y": 0.4903839388,
				"z": 1.4741167955,
				"element": "C" 
			},
			{
				"x": 0.460627777,
				"y": 0.6191378808,
				"z": 0.6525484943,
				"element": "C" 
			},
			{
				"x": 0.3846674261,
				"y": 0.3321759941,
				"z": -0.7202632207,
				"element": "C" 
			},
			{
				"x": 1.5889443203,
				"y": 0.4730332381,
				"z": -1.617273967,
				"element": "C" 
			},
			{
				"x": 2.694199337,
				"y": -0.5279379178,
				"z": -1.3763021384,
				"element": "C" 
			},
			{
				"x": 2.8034541185,
				"y": -1.258085206,
				"z": -0.4072525626,
				"element": "O" 
			},
			{
				"x": 3.8071219304,
				"y": -0.6035049627,
				"z": -2.4539733224,
				"element": "C" 
			},
			{
				"x": 4.7552921212,
				"y": -1.4903740595,
				"z": -2.1367282223,
				"element": "O" 
			},
			{
				"x": 3.8049252382,
				"y": 0.0675649941,
				"z": -3.4578126972,
				"element": "O" 
			},
			{
				"x": -0.841627202,
				"y": -0.0885869987,
				"z": -1.2362362103,
				"element": "C" 
			},
			{
				"x": -1.9718890623,
				"y": -0.2238935043,
				"z": -0.4242044775,
				"element": "C" 
			},
			{
				"x": -4.8381699819,
				"y": -0.4571224578,
				"z": 2.2131661093,
				"element": "H" 
			},
			{
				"x": -4.1251826423,
				"y": -1.4636155342,
				"z": 0.9246163093,
				"element": "H" 
			},
			{
				"x": -4.5715064906,
				"y": 0.2350346959,
				"z": 0.5910187152,
				"element": "H" 
			},
			{
				"x": -0.5956517292,
				"y": 0.7123886572,
				"z": 2.5347879344,
				"element": "H" 
			},
			{
				"x": 1.4026867082,
				"y": 0.9462514378,
				"z": 1.083688797,
				"element": "H" 
			},
			{
				"x": 2.0623198623,
				"y": 1.4623189777,
				"z": -1.5117993163,
				"element": "H" 
			},
			{
				"x": 1.3221167533,
				"y": 0.4181026228,
				"z": -2.6782532374,
				"element": "H" 
			},
			{
				"x": 4.4870064004,
				"y": -1.8753239467,
				"z": -1.2769226545,
				"element": "H" 
			},
			{
				"x": -0.9287267149,
				"y": -0.315293979,
				"z": -2.2961436416,
				"element": "H" 
			},
			{
				"x": -2.9064346277,
				"y": -0.5503816656,
				"z": -0.8644147595,
				"element": "H" 
			}
		],
		 "valence_orbital": [ 
			{
				"type": "occ",
				"energy": -0.3295,
				"method": "rhf"
			},
			{
				"type": "occ",
				"energy": -0.32093,
				"method": "rhf"
			},
			{
				"type": "occ",
				"energy": -0.26847,
				"method": "rhf"
			},
			{
				"type": "occ",
				"energy": -0.25574,
				"method": "rhf"
			},
			{
				"type": "occ",
				"energy": -0.2219,
				"method": "rhf"
			},
			{
				"type": "unocc",
				"energy": -0.08651,
				"method": "rhf"
			},
			{
				"type": "unocc",
				"energy": -0.00695,
				"method": "rhf"
			},
			{
				"type": "unocc",
				"energy": 0.00313,
				"method": "rhf"
			},
			{
				"type": "unocc",
				"energy": 0.0525,
				"method": "rhf"
			},
			{
				"type": "unocc",
				"energy": 0.07961,
				"method": "rhf"
			}
		],
		"cosmo_sigma_profile": { 
			"-0.025": 0.0,
			"-0.024": 0.0,
			"-0.023": 0.0,
			"-0.022": 0.0,
			"-0.021": 0.0,
			"-0.02": 0.0,
			"-0.019": 0.0,
			"-0.018": 0.0,
			"-0.017": 0.0,
			"-0.016": 0.117016444729,
			"-0.015": 0.635105461901,
			"-0.014": 0.627096219129,
			"-0.013": 0.617875609108,
			"-0.012": 0.756533870699,
			"-0.011": 0.842582419678,
			"-0.01": 1.19356654765,
			"-0.009": 4.16568811306,
			"-0.008": 6.726947605,
			"-0.007": 8.39215165158,
			"-0.006": 15.2309593234,
			"-0.005": 20.6531229889,
			"-0.004": 18.8227819745,
			"-0.003": 20.0609366568,
			"-0.002": 11.3327699223,
			"-0.001": 9.92526732535,
			"0.0": 9.16326143588,
			"0.001": 8.64101488975,
			"0.002": 9.83056820981,
			"0.003": 11.7465933896,
			"0.004": 12.4745937537,
			"0.005": 14.6332371099,
			"0.006": 10.3638930118,
			"0.007": 6.76727756359,
			"0.008": 7.62938456156,
			"0.009": 9.21695124472,
			"0.01": 7.7186321291,
			"0.011": 4.02875900942,
			"0.012": 0.646793131287,
			"0.013": 0.0,
			"0.014": 0.0,
			"0.015": 0.0,
			"0.016": 0.0,
			"0.017": 0.0,
			"0.018": 0.0,
			"0.019": 0.0,
			"0.02": 0.0,
			"0.021": 0.0,
			"0.022": 0.0,
			"0.023": 0.0,
			"0.024": 0.0,
			"0.025": 0.0
		}
	}
}
