{
	 "smiles": "OC(=O)C=CC1=CC=NC=C1", 
	 "Tm": 538.15, 
	 "num_atms": 18, 
	 "gaussian": { 
		 "optdone": 1, 
		 "sigma_profile": "yes", 
		 "theory": "DFT", 
		 "functional": "B3LYP", 
		 "basiset": "6-31G**", 
		 "properties": { 
			 "R2extent": 2956.3388, 
			 "electric_dipole_moment_norm": 3.02999588449, 
			 "electric_quadrupole_moment_norm": 22.000428229, 
			 "total_energy": -514.252899294, 
			 "HOMO_LUMO_gap": 0.17761, 
			 "cosmo_polarized_energy": -18.21, 
			 "cosmo_cavitation_energy": 23.49, 
			 "cosmo_dispersion_energy": -17.19, 
			 "cosmo_repulsion_energy": 1.37, 
			 "cosmo_total_nonelectrostatic_energy": 7.67, 
			 "SMD_solvation_energy": 4.09 
		},
		"coords": [
			{
				"x": -3.4512363014,
				"y": 2.0564234642,
				"z": -0.031886568,
				"element": "O" 
			},
			{
				"x": -2.4399808403,
				"y": 2.1181847773,
				"z": 0.8768361793,
				"element": "C" 
			},
			{
				"x": -2.5216003442,
				"y": 2.8714881279,
				"z": 1.8197042272,
				"element": "O" 
			},
			{
				"x": -1.2815556485,
				"y": 1.2192589846,
				"z": 0.6182815714,
				"element": "C" 
			},
			{
				"x": -0.2399264581,
				"y": 1.2181380584,
				"z": 1.4671991849,
				"element": "C" 
			},
			{
				"x": 0.9800296056,
				"y": 0.4118409757,
				"z": 1.3828491139,
				"element": "C" 
			},
			{
				"x": 1.963316911,
				"y": 0.5533973503,
				"z": 2.3745567289,
				"element": "C" 
			},
			{
				"x": 3.1273612085,
				"y": -0.2109189081,
				"z": 2.3006730251,
				"element": "C" 
			},
			{
				"x": 3.3768687843,
				"y": -1.0915847949,
				"z": 1.3249204825,
				"element": "N" 
			},
			{
				"x": 2.4372276623,
				"y": -1.2268554329,
				"z": 0.3772647777,
				"element": "C" 
			},
			{
				"x": 1.2427238992,
				"y": -0.5136936435,
				"z": 0.3578241884,
				"element": "C" 
			},
			{
				"x": -3.2473223666,
				"y": 1.4143857424,
				"z": -0.7258315153,
				"element": "H" 
			},
			{
				"x": -1.3019548274,
				"y": 0.5765293581,
				"z": -0.2595145763,
				"element": "H" 
			},
			{
				"x": -0.313669626,
				"y": 1.8964388554,
				"z": 2.3157224091,
				"element": "H" 
			},
			{
				"x": 1.8197870944,
				"y": 1.252341069,
				"z": 3.1933747538,
				"element": "H" 
			},
			{
				"x": 3.8962015035,
				"y": -0.1089808512,
				"z": 3.0643176191,
				"element": "H" 
			},
			{
				"x": 2.653438559,
				"y": -1.9466039025,
				"z": -0.4100819915,
				"element": "H" 
			},
			{
				"x": 0.533091185,
				"y": -0.6815892301,
				"z": -0.4458096102,
				"element": "H" 
			}
		],
		 "valence_orbital": [ 
			{
				"type": "occ",
				"energy": -0.31799,
				"method": "rhf"
			},
			{
				"type": "occ",
				"energy": -0.27925,
				"method": "rhf"
			},
			{
				"type": "occ",
				"energy": -0.27748,
				"method": "rhf"
			},
			{
				"type": "occ",
				"energy": -0.26766,
				"method": "rhf"
			},
			{
				"type": "occ",
				"energy": -0.26647,
				"method": "rhf"
			},
			{
				"type": "unocc",
				"energy": -0.08886,
				"method": "rhf"
			},
			{
				"type": "unocc",
				"energy": -0.02497,
				"method": "rhf"
			},
			{
				"type": "unocc",
				"energy": 0.00101,
				"method": "rhf"
			},
			{
				"type": "unocc",
				"energy": 0.04875,
				"method": "rhf"
			},
			{
				"type": "unocc",
				"energy": 0.07922,
				"method": "rhf"
			}
		],
		"cosmo_sigma_profile": { 
			"-0.025": 0.0,
			"-0.024": 0.0,
			"-0.023": 0.0,
			"-0.022": 0.0,
			"-0.021": 0.0,
			"-0.02": 0.158754441305,
			"-0.019": 1.1904118101,
			"-0.018": 1.56146778979,
			"-0.017": 0.760810117997,
			"-0.016": 1.11192764234,
			"-0.015": 1.33717160042,
			"-0.014": 0.834241996493,
			"-0.013": 1.00018478747,
			"-0.012": 0.749172400675,
			"-0.011": 1.9097046389,
			"-0.01": 1.90127096141,
			"-0.009": 2.45525834531,
			"-0.008": 5.29366013027,
			"-0.007": 8.52006263278,
			"-0.006": 11.0112838238,
			"-0.005": 9.57321468051,
			"-0.004": 8.69795537092,
			"-0.003": 8.37222292035,
			"-0.002": 8.74876570947,
			"-0.001": 10.9580337494,
			"0.0": 13.5277836121,
			"0.001": 19.6205692575,
			"0.002": 17.0181629829,
			"0.003": 5.04819244016,
			"0.004": 4.58588269696,
			"0.005": 3.80900488443,
			"0.006": 3.56036244861,
			"0.007": 3.67708864976,
			"0.008": 3.87820257711,
			"0.009": 4.11042905446,
			"0.01": 5.36833836145,
			"0.011": 5.84500988784,
			"0.012": 6.40329279647,
			"0.013": 3.43807370957,
			"0.014": 0.852447970704,
			"0.015": 0.609506936266,
			"0.016": 1.04563577504,
			"0.017": 0.11491188199,
			"0.018": 0.0,
			"0.019": 0.0,
			"0.02": 0.0,
			"0.021": 0.0,
			"0.022": 0.0,
			"0.023": 0.0,
			"0.024": 0.0,
			"0.025": 0.0
		}
	}
}
