{
	 "smiles": "CCOC1=C2OCC(=CC2=CC=C1)C(O)=O", 
	 "Tm": 493.15, 
	 "num_atms": 28, 
	 "gaussian": { 
		 "optdone": 1, 
		 "sigma_profile": "yes", 
		 "theory": "DFT", 
		 "functional": "B3LYP", 
		 "basiset": "6-31G**", 
		 "properties": { 
			 "R2extent": 4871.4057, 
			 "electric_dipole_moment_norm": 3.68060912622, 
			 "electric_quadrupole_moment_norm": 26.6354746254, 
			 "total_energy": -765.382306484, 
			 "HOMO_LUMO_gap": 0.14839, 
			 "cosmo_polarized_energy": -16.13, 
			 "cosmo_cavitation_energy": 31.95, 
			 "cosmo_dispersion_energy": -23.25, 
			 "cosmo_repulsion_energy": 1.82, 
			 "cosmo_total_nonelectrostatic_energy": 10.52, 
			 "SMD_solvation_energy": 6.94 
		},
		"coords": [
			{
				"x": 2.7129381996,
				"y": 2.9393754307,
				"z": 0.7891115134,
				"element": "C" 
			},
			{
				"x": 1.4632031738,
				"y": 2.137092083,
				"z": 0.4722579963,
				"element": "C" 
			},
			{
				"x": 1.5246617644,
				"y": 0.9292666253,
				"z": 1.2562525643,
				"element": "O" 
			},
			{
				"x": 0.7841249241,
				"y": -0.1532883076,
				"z": 0.8817708084,
				"element": "C" 
			},
			{
				"x": -0.573903478,
				"y": -0.0991521998,
				"z": 0.5185179434,
				"element": "C" 
			},
			{
				"x": -1.2274413947,
				"y": 1.1005787042,
				"z": 0.5613722309,
				"element": "O" 
			},
			{
				"x": -2.3532104382,
				"y": 1.2485564457,
				"z": -0.3195845786,
				"element": "C" 
			},
			{
				"x": -3.2570557169,
				"y": 0.0388231443,
				"z": -0.2807326039,
				"element": "C" 
			},
			{
				"x": -2.6917395204,
				"y": -1.1689529387,
				"z": -0.0756539335,
				"element": "C" 
			},
			{
				"x": -1.2720433998,
				"y": -1.2873368462,
				"z": 0.2095225458,
				"element": "C" 
			},
			{
				"x": -0.6099476648,
				"y": -2.5233924044,
				"z": 0.2630179415,
				"element": "C" 
			},
			{
				"x": 0.7325397284,
				"y": -2.5787130735,
				"z": 0.6216602413,
				"element": "C" 
			},
			{
				"x": 1.4178033383,
				"y": -1.401413845,
				"z": 0.9253511841,
				"element": "C" 
			},
			{
				"x": -4.6776329422,
				"y": 0.2726592449,
				"z": -0.6333385745,
				"element": "C" 
			},
			{
				"x": -5.569555228,
				"y": -0.7206984973,
				"z": -0.3725895335,
				"element": "O" 
			},
			{
				"x": -5.0485341439,
				"y": 1.3033343241,
				"z": -1.1529501228,
				"element": "O" 
			},
			{
				"x": 2.7013471115,
				"y": 3.8850416172,
				"z": 0.2377175722,
				"element": "H" 
			},
			{
				"x": 3.6147398008,
				"y": 2.3854509099,
				"z": 0.5131384772,
				"element": "H" 
			},
			{
				"x": 2.7618752613,
				"y": 3.1655177077,
				"z": 1.8582530215,
				"element": "H" 
			},
			{
				"x": 0.5572512483,
				"y": 2.6960363453,
				"z": 0.7208118444,
				"element": "H" 
			},
			{
				"x": 1.4207877386,
				"y": 1.877540358,
				"z": -0.5939388547,
				"element": "H" 
			},
			{
				"x": -1.9951412262,
				"y": 1.4274679973,
				"z": -1.3460351569,
				"element": "H" 
			},
			{
				"x": -2.8786549182,
				"y": 2.1447743397,
				"z": 0.0108348094,
				"element": "H" 
			},
			{
				"x": -3.2689186531,
				"y": -2.0908321861,
				"z": -0.1250174628,
				"element": "H" 
			},
			{
				"x": -1.1597856741,
				"y": -3.430317427,
				"z": 0.0272548542,
				"element": "H" 
			},
			{
				"x": 1.2515304762,
				"y": -3.5309607838,
				"z": 0.6610325314,
				"element": "H" 
			},
			{
				"x": 2.4668748985,
				"y": -1.4164063398,
				"z": 1.2024453023,
				"element": "H" 
			},
			{
				"x": -5.163913265,
				"y": -1.3883504282,
				"z": 0.1976174393,
				"element": "H" 
			}
		],
		 "valence_orbital": [ 
			{
				"type": "occ",
				"energy": -0.31045,
				"method": "rhf"
			},
			{
				"type": "occ",
				"energy": -0.28959,
				"method": "rhf"
			},
			{
				"type": "occ",
				"energy": -0.27572,
				"method": "rhf"
			},
			{
				"type": "occ",
				"energy": -0.23383,
				"method": "rhf"
			},
			{
				"type": "occ",
				"energy": -0.22253,
				"method": "rhf"
			},
			{
				"type": "unocc",
				"energy": -0.07414,
				"method": "rhf"
			},
			{
				"type": "unocc",
				"energy": -0.00137,
				"method": "rhf"
			},
			{
				"type": "unocc",
				"energy": 0.01317,
				"method": "rhf"
			},
			{
				"type": "unocc",
				"energy": 0.05399,
				"method": "rhf"
			},
			{
				"type": "unocc",
				"energy": 0.06585,
				"method": "rhf"
			}
		],
		"cosmo_sigma_profile": { 
			"-0.025": 0.0,
			"-0.024": 0.0,
			"-0.023": 0.0,
			"-0.022": 0.0,
			"-0.021": 0.0,
			"-0.02": 0.0,
			"-0.019": 0.459653324958,
			"-0.018": 1.13703190297,
			"-0.017": 0.73692249315,
			"-0.016": 0.66059299464,
			"-0.015": 0.950636499285,
			"-0.014": 0.675279312753,
			"-0.013": 1.43067370601,
			"-0.012": 1.70755884384,
			"-0.011": 1.22015996999,
			"-0.01": 1.25389535576,
			"-0.009": 1.66039023735,
			"-0.008": 2.72179653054,
			"-0.007": 4.20586685361,
			"-0.006": 9.95773994042,
			"-0.005": 13.4889344727,
			"-0.004": 19.5138484769,
			"-0.003": 23.19905564,
			"-0.002": 23.5458620729,
			"-0.001": 18.5412251516,
			"0.0": 19.334758681,
			"0.001": 17.6635506783,
			"0.002": 14.7108864193,
			"0.003": 14.746062235,
			"0.004": 12.7337836342,
			"0.005": 9.2760851955,
			"0.006": 4.9163267722,
			"0.007": 4.56877564384,
			"0.008": 4.38198662601,
			"0.009": 5.87769854699,
			"0.01": 5.40510708709,
			"0.011": 6.16117010699,
			"0.012": 5.23921556335,
			"0.013": 1.70229581576,
			"0.014": 0.120179466152,
			"0.015": 0.0,
			"0.016": 0.0,
			"0.017": 0.0,
			"0.018": 0.0,
			"0.019": 0.0,
			"0.02": 0.0,
			"0.021": 0.0,
			"0.022": 0.0,
			"0.023": 0.0,
			"0.024": 0.0,
			"0.025": 0.0
		}
	}
}
