{
	 "smiles": "CN1C=CC(=N1)N1CCC(N)C1=O", 
	 "Tm": 415.15, 
	 "num_atms": 25, 
	 "gaussian": { 
		 "optdone": 1, 
		 "sigma_profile": "yes", 
		 "theory": "DFT", 
		 "functional": "B3LYP", 
		 "basiset": "6-31G**", 
		 "properties": { 
			 "R2extent": 3546.7644, 
			 "electric_dipole_moment_norm": 2.27668857115, 
			 "electric_quadrupole_moment_norm": 25.5299698905, 
			 "total_energy": -606.304495552, 
			 "HOMO_LUMO_gap": 0.2145, 
			 "cosmo_polarized_energy": -14.9, 
			 "cosmo_cavitation_energy": 28.0, 
			 "cosmo_dispersion_energy": -20.75, 
			 "cosmo_repulsion_energy": 1.66, 
			 "cosmo_total_nonelectrostatic_energy": 8.91, 
			 "SMD_solvation_energy": 3.57 
		},
		"coords": [
			{
				"x": 3.7161460889,
				"y": -0.8325671703,
				"z": 0.3858968623,
				"element": "C" 
			},
			{
				"x": 2.5109936146,
				"y": -1.1978038827,
				"z": -0.3281154597,
				"element": "N" 
			},
			{
				"x": 2.3951163961,
				"y": -1.8813817507,
				"z": -1.4965048972,
				"element": "C" 
			},
			{
				"x": 1.0487583501,
				"y": -1.9957890529,
				"z": -1.780475212,
				"element": "C" 
			},
			{
				"x": 0.4231269898,
				"y": -1.3317958832,
				"z": -0.6964335289,
				"element": "C" 
			},
			{
				"x": 1.3062006126,
				"y": -0.8493278494,
				"z": 0.1827616802,
				"element": "N" 
			},
			{
				"x": -0.9392128514,
				"y": -1.1302150518,
				"z": -0.4636150533,
				"element": "N" 
			},
			{
				"x": -1.4174136133,
				"y": -0.4830007347,
				"z": 0.7633874346,
				"element": "C" 
			},
			{
				"x": -2.9050143003,
				"y": -0.226186103,
				"z": 0.4617273884,
				"element": "C" 
			},
			{
				"x": -3.2858997679,
				"y": -1.3161953404,
				"z": -0.5509199425,
				"element": "C" 
			},
			{
				"x": -3.7413305745,
				"y": -2.5411790298,
				"z": 0.1201682296,
				"element": "N" 
			},
			{
				"x": -1.9514065678,
				"y": -1.6584511674,
				"z": -1.2307512738,
				"element": "C" 
			},
			{
				"x": -1.8274586072,
				"y": -2.3247939966,
				"z": -2.2482537453,
				"element": "O" 
			},
			{
				"x": 3.7841012005,
				"y": 0.2544711082,
				"z": 0.4872013895,
				"element": "H" 
			},
			{
				"x": 3.7178687324,
				"y": -1.2804717704,
				"z": 1.3838287751,
				"element": "H" 
			},
			{
				"x": 4.5804302948,
				"y": -1.1960719631,
				"z": -0.1726985718,
				"element": "H" 
			},
			{
				"x": 3.2654293915,
				"y": -2.23222978,
				"z": -2.0324566811,
				"element": "H" 
			},
			{
				"x": 0.5677973487,
				"y": -2.474088206,
				"z": -2.6156017731,
				"element": "H" 
			},
			{
				"x": -0.8469435377,
				"y": 0.4287177646,
				"z": 0.9530009702,
				"element": "H" 
			},
			{
				"x": -1.2766183061,
				"y": -1.1553217962,
				"z": 1.6171135834,
				"element": "H" 
			},
			{
				"x": -3.0272137475,
				"y": 0.7609930528,
				"z": 0.0040452347,
				"element": "H" 
			},
			{
				"x": -3.5189983852,
				"y": -0.2616854152,
				"z": 1.3653799663,
				"element": "H" 
			},
			{
				"x": -3.9815742288,
				"y": -0.94251449,
				"z": -1.3177988396,
				"element": "H" 
			},
			{
				"x": -4.6911771663,
				"y": -2.4125489318,
				"z": 0.461258375,
				"element": "H" 
			},
			{
				"x": -3.7744073663,
				"y": -3.2950625601,
				"z": -0.5633449107,
				"element": "H" 
			}
		],
		 "valence_orbital": [ 
			{
				"type": "occ",
				"energy": -0.28776,
				"method": "rhf"
			},
			{
				"type": "occ",
				"energy": -0.24762,
				"method": "rhf"
			},
			{
				"type": "occ",
				"energy": -0.23887,
				"method": "rhf"
			},
			{
				"type": "occ",
				"energy": -0.23707,
				"method": "rhf"
			},
			{
				"type": "occ",
				"energy": -0.20735,
				"method": "rhf"
			},
			{
				"type": "unocc",
				"energy": 0.00715,
				"method": "rhf"
			},
			{
				"type": "unocc",
				"energy": 0.03524,
				"method": "rhf"
			},
			{
				"type": "unocc",
				"energy": 0.08725,
				"method": "rhf"
			},
			{
				"type": "unocc",
				"energy": 0.09681,
				"method": "rhf"
			},
			{
				"type": "unocc",
				"energy": 0.10415,
				"method": "rhf"
			}
		],
		"cosmo_sigma_profile": { 
			"-0.025": 0.0,
			"-0.024": 0.0,
			"-0.023": 0.0,
			"-0.022": 0.0,
			"-0.021": 0.0,
			"-0.02": 0.0,
			"-0.019": 0.0,
			"-0.018": 0.0,
			"-0.017": 0.0,
			"-0.016": 0.0,
			"-0.015": 0.0,
			"-0.014": 0.0,
			"-0.013": 0.0,
			"-0.012": 0.0,
			"-0.011": 0.401305813888,
			"-0.01": 1.76717875416,
			"-0.009": 4.55835255708,
			"-0.008": 5.71687944269,
			"-0.007": 7.16395701967,
			"-0.006": 8.81254702587,
			"-0.005": 15.1720996857,
			"-0.004": 27.2561491233,
			"-0.003": 26.1202263819,
			"-0.002": 18.4643898105,
			"-0.001": 10.8534108471,
			"0.0": 8.55794342187,
			"0.001": 8.8442338238,
			"0.002": 8.35043715792,
			"0.003": 9.27877233356,
			"0.004": 11.7518148588,
			"0.005": 10.1647914213,
			"0.006": 5.7396251091,
			"0.007": 4.36821135937,
			"0.008": 3.25043558987,
			"0.009": 4.08303612759,
			"0.01": 3.9574638821,
			"0.011": 2.93074650307,
			"0.012": 4.51378298836,
			"0.013": 4.4099576221,
			"0.014": 2.23382782116,
			"0.015": 0.444252619611,
			"0.016": 0.702987025751,
			"0.017": 0.46429275616,
			"0.018": 0.186800371729,
			"0.019": 0.0,
			"0.02": 0.0,
			"0.021": 0.0,
			"0.022": 0.0,
			"0.023": 0.0,
			"0.024": 0.0,
			"0.025": 0.0
		}
	}
}
