{
	 "smiles": "NS(=O)(=O)C1=CC(Cl)=C(Cl)C=C1Cl", 
	 "Tm": 462.15, 
	 "num_atms": 17, 
	 "gaussian": { 
		 "optdone": 1, 
		 "sigma_profile": "yes", 
		 "theory": "DFT", 
		 "functional": "B3LYP", 
		 "basiset": "6-31G**", 
		 "properties": { 
			 "R2extent": 4793.9632, 
			 "electric_dipole_moment_norm": 3.08308249971, 
			 "electric_quadrupole_moment_norm": 11.1546370187, 
			 "total_energy": -2214.92970634, 
			 "HOMO_LUMO_gap": 0.20318, 
			 "cosmo_polarized_energy": -13.41, 
			 "cosmo_cavitation_energy": 28.28, 
			 "cosmo_dispersion_energy": -21.74, 
			 "cosmo_repulsion_energy": 1.68, 
			 "cosmo_total_nonelectrostatic_energy": 8.22, 
			 "SMD_solvation_energy": 3.71 
		},
		"coords": [
			{
				"x": -0.6056961745,
				"y": -0.2085101981,
				"z": -2.4687725157,
				"element": "N" 
			},
			{
				"x": 0.7260752802,
				"y": -0.2737665328,
				"z": -1.4418169434,
				"element": "S" 
			},
			{
				"x": 1.7869725963,
				"y": 0.5057500083,
				"z": -2.083470617,
				"element": "O" 
			},
			{
				"x": 0.9354939229,
				"y": -1.6533674613,
				"z": -1.0081317983,
				"element": "O" 
			},
			{
				"x": 0.1816508621,
				"y": 0.6867726842,
				"z": -0.0127438858,
				"element": "C" 
			},
			{
				"x": 0.9490797587,
				"y": 1.8051836847,
				"z": 0.3075585938,
				"element": "C" 
			},
			{
				"x": 0.6429180444,
				"y": 2.5871437914,
				"z": 1.4206744208,
				"element": "C" 
			},
			{
				"x": 1.6337620824,
				"y": 3.9736351939,
				"z": 1.7736066439,
				"element": "Cl" 
			},
			{
				"x": -0.4519166646,
				"y": 2.2404206072,
				"z": 2.224327979,
				"element": "C" 
			},
			{
				"x": -0.8875204037,
				"y": 3.1758267758,
				"z": 3.6245494682,
				"element": "Cl" 
			},
			{
				"x": -1.2238749665,
				"y": 1.1212527573,
				"z": 1.906212205,
				"element": "C" 
			},
			{
				"x": -0.9098392483,
				"y": 0.3420469767,
				"z": 0.7958469675,
				"element": "C" 
			},
			{
				"x": -1.9266874106,
				"y": -1.0366343578,
				"z": 0.4585188998,
				"element": "Cl" 
			},
			{
				"x": -0.3153303863,
				"y": 0.1554944717,
				"z": -3.3720527296,
				"element": "H" 
			},
			{
				"x": -1.054599145,
				"y": -1.1169350594,
				"z": -2.5389340629,
				"element": "H" 
			},
			{
				"x": 1.7909951941,
				"y": 2.0623162438,
				"z": -0.3240709227,
				"element": "H" 
			},
			{
				"x": -2.0705833415,
				"y": 0.8594704143,
				"z": 2.5286982973,
				"element": "H" 
			}
		],
		 "valence_orbital": [ 
			{
				"type": "occ",
				"energy": -0.32569,
				"method": "rhf"
			},
			{
				"type": "occ",
				"energy": -0.31843,
				"method": "rhf"
			},
			{
				"type": "occ",
				"energy": -0.30909,
				"method": "rhf"
			},
			{
				"type": "occ",
				"energy": -0.28421,
				"method": "rhf"
			},
			{
				"type": "occ",
				"energy": -0.26688,
				"method": "rhf"
			},
			{
				"type": "unocc",
				"energy": -0.0637,
				"method": "rhf"
			},
			{
				"type": "unocc",
				"energy": -0.05064,
				"method": "rhf"
			},
			{
				"type": "unocc",
				"energy": -0.02503,
				"method": "rhf"
			},
			{
				"type": "unocc",
				"energy": 0.01204,
				"method": "rhf"
			},
			{
				"type": "unocc",
				"energy": 0.0364,
				"method": "rhf"
			}
		],
		"cosmo_sigma_profile": { 
			"-0.025": 0.0,
			"-0.024": 0.0,
			"-0.023": 0.0,
			"-0.022": 0.0,
			"-0.021": 0.0,
			"-0.02": 0.0,
			"-0.019": 0.0,
			"-0.018": 0.0,
			"-0.017": 0.0,
			"-0.016": 0.39394528853,
			"-0.015": 2.11550801717,
			"-0.014": 2.0681437875,
			"-0.013": 2.28757773277,
			"-0.012": 2.71838969822,
			"-0.011": 1.51783781435,
			"-0.01": 2.38504820075,
			"-0.009": 2.51269011813,
			"-0.008": 4.71340698324,
			"-0.007": 4.27400634468,
			"-0.006": 5.06188551351,
			"-0.005": 6.14038364017,
			"-0.004": 9.16140111166,
			"-0.003": 14.1569552632,
			"-0.002": 27.7004913395,
			"-0.001": 25.7121570818,
			"0.0": 14.2114989118,
			"0.001": 16.397154773,
			"0.002": 20.2626686018,
			"0.003": 23.7090339516,
			"0.004": 8.79187236904,
			"0.005": 3.97014941685,
			"0.006": 4.68032380956,
			"0.007": 3.65810548665,
			"0.008": 4.23426842134,
			"0.009": 5.67049744509,
			"0.01": 10.3969212238,
			"0.011": 5.01012994317,
			"0.012": 0.0,
			"0.013": 0.0,
			"0.014": 0.0,
			"0.015": 0.0,
			"0.016": 0.0,
			"0.017": 0.0,
			"0.018": 0.0,
			"0.019": 0.0,
			"0.02": 0.0,
			"0.021": 0.0,
			"0.022": 0.0,
			"0.023": 0.0,
			"0.024": 0.0,
			"0.025": 0.0
		}
	}
}
