{
	 "smiles": "OC(=O)C1=CC(=NC=C1)C1CC1", 
	 "Tm": 531.15, 
	 "num_atms": 21, 
	 "gaussian": { 
		 "optdone": 1, 
		 "sigma_profile": "yes", 
		 "theory": "DFT", 
		 "functional": "B3LYP", 
		 "basiset": "6-31G**", 
		 "properties": { 
			 "R2extent": 2798.8653, 
			 "electric_dipole_moment_norm": 0.980384159399, 
			 "electric_quadrupole_moment_norm": 11.3543147926, 
			 "total_energy": -553.569946198, 
			 "HOMO_LUMO_gap": 0.18047, 
			 "cosmo_polarized_energy": -9.8, 
			 "cosmo_cavitation_energy": 25.43, 
			 "cosmo_dispersion_energy": -18.73, 
			 "cosmo_repulsion_energy": 1.5, 
			 "cosmo_total_nonelectrostatic_energy": 8.2, 
			 "SMD_solvation_energy": 4.48 
		},
		"coords": [
			{
				"x": -0.72724226,
				"y": -2.7601659685,
				"z": -1.3483009057,
				"element": "O" 
			},
			{
				"x": -0.4473711691,
				"y": -1.4405674583,
				"z": -1.2291602671,
				"element": "C" 
			},
			{
				"x": -0.5103723322,
				"y": -0.6736795809,
				"z": -2.1679280448,
				"element": "O" 
			},
			{
				"x": -0.0620156548,
				"y": -1.0528603812,
				"z": 0.1594322952,
				"element": "C" 
			},
			{
				"x": 0.2507519611,
				"y": 0.2836180188,
				"z": 0.4100188729,
				"element": "C" 
			},
			{
				"x": 0.6151760358,
				"y": 0.6695543052,
				"z": 1.7071268986,
				"element": "C" 
			},
			{
				"x": 0.6714752552,
				"y": -0.2161258653,
				"z": 2.7191513181,
				"element": "N" 
			},
			{
				"x": 0.3698936914,
				"y": -1.4931108436,
				"z": 2.4672441221,
				"element": "C" 
			},
			{
				"x": -0.0029327034,
				"y": -1.9719415964,
				"z": 1.211922654,
				"element": "C" 
			},
			{
				"x": 0.9554091821,
				"y": 2.0830611992,
				"z": 2.014235456,
				"element": "C" 
			},
			{
				"x": 0.5898988726,
				"y": 2.667947903,
				"z": 3.3684281286,
				"element": "C" 
			},
			{
				"x": 2.0249542665,
				"y": 2.3917509639,
				"z": 3.048993166,
				"element": "C" 
			},
			{
				"x": -0.9628922243,
				"y": -2.900349823,
				"z": -2.2803046965,
				"element": "H" 
			},
			{
				"x": 0.2071275719,
				"y": 1.0020201103,
				"z": -0.4012978497,
				"element": "H" 
			},
			{
				"x": 0.4289314711,
				"y": -2.1735769705,
				"z": 3.3149870078,
				"element": "H" 
			},
			{
				"x": -0.2382918029,
				"y": -3.0178461061,
				"z": 1.0576752985,
				"element": "H" 
			},
			{
				"x": 0.895018237,
				"y": 2.7536922371,
				"z": 1.161881562,
				"element": "H" 
			},
			{
				"x": 0.2438103472,
				"y": 3.6967994134,
				"z": 3.3912958532,
				"element": "H" 
			},
			{
				"x": 0.0948486149,
				"y": 1.9932175087,
				"z": 4.0591622933,
				"element": "H" 
			},
			{
				"x": 2.4858288467,
				"y": 1.5337132365,
				"z": 3.5273313723,
				"element": "H" 
			},
			{
				"x": 2.6893937931,
				"y": 3.2262496976,
				"z": 2.8464054653,
				"element": "H" 
			}
		],
		 "valence_orbital": [ 
			{
				"type": "occ",
				"energy": -0.30057,
				"method": "rhf"
			},
			{
				"type": "occ",
				"energy": -0.28964,
				"method": "rhf"
			},
			{
				"type": "occ",
				"energy": -0.2875,
				"method": "rhf"
			},
			{
				"type": "occ",
				"energy": -0.26162,
				"method": "rhf"
			},
			{
				"type": "occ",
				"energy": -0.24524,
				"method": "rhf"
			},
			{
				"type": "unocc",
				"energy": -0.06477,
				"method": "rhf"
			},
			{
				"type": "unocc",
				"energy": -0.01389,
				"method": "rhf"
			},
			{
				"type": "unocc",
				"energy": 0.04254,
				"method": "rhf"
			},
			{
				"type": "unocc",
				"energy": 0.07106,
				"method": "rhf"
			},
			{
				"type": "unocc",
				"energy": 0.09515,
				"method": "rhf"
			}
		],
		"cosmo_sigma_profile": { 
			"-0.025": 0.0,
			"-0.024": 0.0,
			"-0.023": 0.0,
			"-0.022": 0.0,
			"-0.021": 0.0,
			"-0.02": 0.0,
			"-0.019": 0.300080305858,
			"-0.018": 0.957210744,
			"-0.017": 0.715368108402,
			"-0.016": 0.962813826458,
			"-0.015": 1.20457969264,
			"-0.014": 0.611060414283,
			"-0.013": 0.252914245903,
			"-0.012": 0.169475112148,
			"-0.011": 0.859495933988,
			"-0.01": 0.681613633838,
			"-0.009": 0.665197454392,
			"-0.008": 0.986390799807,
			"-0.007": 4.71798633557,
			"-0.006": 8.82945791613,
			"-0.005": 9.80008533308,
			"-0.004": 14.0119532372,
			"-0.003": 14.8448631739,
			"-0.002": 13.6182614855,
			"-0.001": 15.2123518429,
			"0.0": 18.8516417157,
			"0.001": 23.2301790634,
			"0.002": 17.5495003511,
			"0.003": 13.0182346965,
			"0.004": 9.16036543586,
			"0.005": 5.89990909185,
			"0.006": 4.35703475401,
			"0.007": 4.86437143665,
			"0.008": 2.43339363784,
			"0.009": 2.71729651529,
			"0.01": 3.15249802544,
			"0.011": 5.55645928724,
			"0.012": 2.06890164977,
			"0.013": 0.44317962293,
			"0.014": 0.0250174975226,
			"0.015": 0.0,
			"0.016": 0.0,
			"0.017": 0.0,
			"0.018": 0.0,
			"0.019": 0.0,
			"0.02": 0.0,
			"0.021": 0.0,
			"0.022": 0.0,
			"0.023": 0.0,
			"0.024": 0.0,
			"0.025": 0.0
		}
	}
}
