{
	 "smiles": "OC(=O)C1CCCN(C1)C(=O)C1=CNC2=C1C=CC=C2", 
	 "Tm": 505.15, 
	 "num_atms": 36, 
	 "gaussian": { 
		 "optdone": 1, 
		 "sigma_profile": "yes", 
		 "theory": "DFT", 
		 "functional": "B3LYP", 
		 "basiset": "6-31G**", 
		 "properties": { 
			 "R2extent": 7488.2385, 
			 "electric_dipole_moment_norm": 4.60806143405, 
			 "electric_quadrupole_moment_norm": 22.7935370213, 
			 "total_energy": -916.449157214, 
			 "HOMO_LUMO_gap": 0.18841, 
			 "cosmo_polarized_energy": -22.52, 
			 "cosmo_cavitation_energy": 38.31, 
			 "cosmo_dispersion_energy": -27.58, 
			 "cosmo_repulsion_energy": 2.1, 
			 "cosmo_total_nonelectrostatic_energy": 12.83, 
			 "SMD_solvation_energy": 6.45 
		},
		"coords": [
			{
				"x": 2.5365344297,
				"y": -1.3019094501,
				"z": -3.9549385948,
				"element": "O" 
			},
			{
				"x": 2.6073313145,
				"y": -1.395198507,
				"z": -2.605083766,
				"element": "C" 
			},
			{
				"x": 3.589433112,
				"y": -1.8316262196,
				"z": -2.0395774966,
				"element": "O" 
			},
			{
				"x": 1.3201052699,
				"y": -0.9482465591,
				"z": -1.9401639379,
				"element": "C" 
			},
			{
				"x": 0.3304288029,
				"y": -2.1531978726,
				"z": -1.8697601537,
				"element": "C" 
			},
			{
				"x": 0.5394563763,
				"y": -2.9307706275,
				"z": -0.5660024226,
				"element": "C" 
			},
			{
				"x": 0.1678999785,
				"y": -2.0461894549,
				"z": 0.6489483784,
				"element": "C" 
			},
			{
				"x": 0.4612034346,
				"y": -0.633748538,
				"z": 0.3730383307,
				"element": "N" 
			},
			{
				"x": 1.6025936068,
				"y": -0.4192930767,
				"z": -0.5132395096,
				"element": "C" 
			},
			{
				"x": -0.4500955578,
				"y": 0.4046858952,
				"z": 0.4905031909,
				"element": "C" 
			},
			{
				"x": -0.323191765,
				"y": 1.4335712562,
				"z": -0.1794921312,
				"element": "O" 
			},
			{
				"x": -1.5518344256,
				"y": 0.2874682888,
				"z": 1.4715582806,
				"element": "C" 
			},
			{
				"x": -1.6055353369,
				"y": -0.4378312279,
				"z": 2.6452988276,
				"element": "C" 
			},
			{
				"x": -2.7809521589,
				"y": -0.1724365485,
				"z": 3.3034918598,
				"element": "N" 
			},
			{
				"x": -3.5252495296,
				"y": 0.7407384562,
				"z": 2.5736602375,
				"element": "C" 
			},
			{
				"x": -2.7726443064,
				"y": 1.0650584888,
				"z": 1.4164920519,
				"element": "C" 
			},
			{
				"x": -3.2966603271,
				"y": 1.9944474828,
				"z": 0.5017913421,
				"element": "C" 
			},
			{
				"x": -4.542209091,
				"y": 2.5530595926,
				"z": 0.7594252632,
				"element": "C" 
			},
			{
				"x": -5.2772205486,
				"y": 2.2093699468,
				"z": 1.9130457293,
				"element": "C" 
			},
			{
				"x": -4.7797210571,
				"y": 1.2994706896,
				"z": 2.838539006,
				"element": "C" 
			},
			{
				"x": 3.3802409129,
				"y": -1.6466013852,
				"z": -4.2940692241,
				"element": "H" 
			},
			{
				"x": 0.8741654085,
				"y": -0.1628273846,
				"z": -2.5552646109,
				"element": "H" 
			},
			{
				"x": -0.6929296035,
				"y": -1.7638361414,
				"z": -1.9077576586,
				"element": "H" 
			},
			{
				"x": 0.4516930242,
				"y": -2.8004145436,
				"z": -2.7439833924,
				"element": "H" 
			},
			{
				"x": 1.5840653892,
				"y": -3.2549574777,
				"z": -0.5019265354,
				"element": "H" 
			},
			{
				"x": -0.0740291914,
				"y": -3.8377973699,
				"z": -0.5470587402,
				"element": "H" 
			},
			{
				"x": 0.7082668763,
				"y": -2.3925525177,
				"z": 1.5424030369,
				"element": "H" 
			},
			{
				"x": -0.9002505476,
				"y": -2.1364927209,
				"z": 0.8537222978,
				"element": "H" 
			},
			{
				"x": 2.4674952696,
				"y": -0.9477888488,
				"z": -0.1011177768,
				"element": "H" 
			},
			{
				"x": 1.8197519717,
				"y": 0.6473608953,
				"z": -0.5351856502,
				"element": "H" 
			},
			{
				"x": -0.8756969155,
				"y": -1.1032763436,
				"z": 3.0822587228,
				"element": "H" 
			},
			{
				"x": -3.0443162302,
				"y": -0.5600523363,
				"z": 4.1951187017,
				"element": "H" 
			},
			{
				"x": -2.7171757025,
				"y": 2.2695149439,
				"z": -0.3714029918,
				"element": "H" 
			},
			{
				"x": -4.9590262901,
				"y": 3.2749521145,
				"z": 0.0631219098,
				"element": "H" 
			},
			{
				"x": -6.2472322613,
				"y": 2.6668773391,
				"z": 2.0845729111,
				"element": "H" 
			},
			{
				"x": -5.3414943315,
				"y": 1.0360697621,
				"z": 3.7303345147,
				"element": "H" 
			}
		],
		 "valence_orbital": [ 
			{
				"type": "occ",
				"energy": -0.27357,
				"method": "rhf"
			},
			{
				"type": "occ",
				"energy": -0.24333,
				"method": "rhf"
			},
			{
				"type": "occ",
				"energy": -0.22697,
				"method": "rhf"
			},
			{
				"type": "occ",
				"energy": -0.22385,
				"method": "rhf"
			},
			{
				"type": "occ",
				"energy": -0.20822,
				"method": "rhf"
			},
			{
				"type": "unocc",
				"energy": -0.01981,
				"method": "rhf"
			},
			{
				"type": "unocc",
				"energy": 0.00614,
				"method": "rhf"
			},
			{
				"type": "unocc",
				"energy": 0.01261,
				"method": "rhf"
			},
			{
				"type": "unocc",
				"energy": 0.02832,
				"method": "rhf"
			},
			{
				"type": "unocc",
				"energy": 0.07033,
				"method": "rhf"
			}
		],
		"cosmo_sigma_profile": { 
			"-0.025": 0.0,
			"-0.024": 0.0,
			"-0.023": 0.0,
			"-0.022": 0.0,
			"-0.021": 0.0,
			"-0.02": 0.0,
			"-0.019": 0.0,
			"-0.018": 0.602654461293,
			"-0.017": 0.826538894446,
			"-0.016": 2.41999168314,
			"-0.015": 2.34707351263,
			"-0.014": 2.41622709789,
			"-0.013": 1.93558723924,
			"-0.012": 1.68678930859,
			"-0.011": 2.06296218745,
			"-0.01": 2.40080039882,
			"-0.009": 3.1266106688,
			"-0.008": 3.10829990347,
			"-0.007": 5.040907126,
			"-0.006": 6.44374874614,
			"-0.005": 13.0627327235,
			"-0.004": 29.4201879103,
			"-0.003": 31.9569988837,
			"-0.002": 26.6964070128,
			"-0.001": 22.4231721846,
			"0.0": 15.5469557977,
			"0.001": 13.6590941211,
			"0.002": 15.965984514,
			"0.003": 16.9861253912,
			"0.004": 15.5089266494,
			"0.005": 13.8003880003,
			"0.006": 14.0293678793,
			"0.007": 8.74884915195,
			"0.008": 4.822292956,
			"0.009": 4.54362148364,
			"0.01": 3.94003986453,
			"0.011": 5.02458635558,
			"0.012": 5.43935443382,
			"0.013": 2.16800637436,
			"0.014": 3.40967355999,
			"0.015": 1.13488243031,
			"0.016": 0.0,
			"0.017": 0.0,
			"0.018": 0.0,
			"0.019": 0.0,
			"0.02": 0.0,
			"0.021": 0.0,
			"0.022": 0.0,
			"0.023": 0.0,
			"0.024": 0.0,
			"0.025": 0.0
		}
	}
}
