{
	 "smiles": "COC(=O)C(Cl)Cl", 
	 "Tm": 221.15, 
	 "num_atms": 11, 
	 "gaussian": { 
		 "optdone": 1, 
		 "sigma_profile": "yes", 
		 "theory": "DFT", 
		 "functional": "B3LYP", 
		 "basiset": "6-31G**", 
		 "properties": { 
			 "R2extent": 2386.3181, 
			 "electric_dipole_moment_norm": 1.73794587373, 
			 "electric_quadrupole_moment_norm": 7.88245001697, 
			 "total_energy": -1187.55376881, 
			 "HOMO_LUMO_gap": 0.25036, 
			 "cosmo_polarized_energy": -6.71, 
			 "cosmo_cavitation_energy": 19.2, 
			 "cosmo_dispersion_energy": -14.17, 
			 "cosmo_repulsion_energy": 1.24, 
			 "cosmo_total_nonelectrostatic_energy": 6.28, 
			 "SMD_solvation_energy": 4.48 
		},
		"coords": [
			{
				"x": -0.6723491399,
				"y": 0.0524239211,
				"z": 1.5642009766,
				"element": "C" 
			},
			{
				"x": -1.3391816379,
				"y": -0.6548779091,
				"z": 0.4997481409,
				"element": "O" 
			},
			{
				"x": -0.5399845765,
				"y": -1.3145469712,
				"z": -0.3368095426,
				"element": "C" 
			},
			{
				"x": 0.6670211793,
				"y": -1.3658539071,
				"z": -0.2762236362,
				"element": "O" 
			},
			{
				"x": -1.3160897637,
				"y": -2.0417330665,
				"z": -1.4390980241,
				"element": "C" 
			},
			{
				"x": -2.2137927487,
				"y": -0.8747759392,
				"z": -2.4699023077,
				"element": "Cl" 
			},
			{
				"x": -2.3998489224,
				"y": -3.2945485683,
				"z": -0.7417627235,
				"element": "Cl" 
			},
			{
				"x": 0.0081794474,
				"y": 0.8013947262,
				"z": 1.1529640469,
				"element": "H" 
			},
			{
				"x": -1.4666590215,
				"y": 0.5258388453,
				"z": 2.1390076227,
				"element": "H" 
			},
			{
				"x": -0.1065299592,
				"y": -0.6451073122,
				"z": 2.1859032439,
				"element": "H" 
			},
			{
				"x": -0.5976648568,
				"y": -2.551313819,
				"z": -2.0752277969,
				"element": "H" 
			}
		],
		 "valence_orbital": [ 
			{
				"type": "occ",
				"energy": -0.33745,
				"method": "rhf"
			},
			{
				"type": "occ",
				"energy": -0.32299,
				"method": "rhf"
			},
			{
				"type": "occ",
				"energy": -0.32099,
				"method": "rhf"
			},
			{
				"type": "occ",
				"energy": -0.31742,
				"method": "rhf"
			},
			{
				"type": "occ",
				"energy": -0.29335,
				"method": "rhf"
			},
			{
				"type": "unocc",
				"energy": -0.04299,
				"method": "rhf"
			},
			{
				"type": "unocc",
				"energy": -0.02163,
				"method": "rhf"
			},
			{
				"type": "unocc",
				"energy": 0.06205,
				"method": "rhf"
			},
			{
				"type": "unocc",
				"energy": 0.0853,
				"method": "rhf"
			},
			{
				"type": "unocc",
				"energy": 0.10066,
				"method": "rhf"
			}
		],
		"cosmo_sigma_profile": { 
			"-0.025": 0.0,
			"-0.024": 0.0,
			"-0.023": 0.0,
			"-0.022": 0.0,
			"-0.021": 0.0,
			"-0.02": 0.0,
			"-0.019": 0.0,
			"-0.018": 0.0,
			"-0.017": 0.0,
			"-0.016": 0.0,
			"-0.015": 0.0,
			"-0.014": 0.0,
			"-0.013": 0.0,
			"-0.012": 0.447444254323,
			"-0.011": 1.93855408628,
			"-0.01": 1.46666443026,
			"-0.009": 1.65333881374,
			"-0.008": 1.27827112638,
			"-0.007": 5.65963478047,
			"-0.006": 9.31675566966,
			"-0.005": 9.98302721356,
			"-0.004": 13.1358020192,
			"-0.003": 9.89002038112,
			"-0.002": 9.08852320644,
			"-0.001": 7.56834484957,
			"0.0": 8.9418535379,
			"0.001": 8.22237546569,
			"0.002": 11.9530752767,
			"0.003": 20.2734606773,
			"0.004": 14.4590425536,
			"0.005": 4.72914520098,
			"0.006": 3.90684261372,
			"0.007": 2.77246774733,
			"0.008": 2.10492267629,
			"0.009": 2.36294532014,
			"0.01": 4.63691638126,
			"0.011": 1.53763038596,
			"0.012": 0.0,
			"0.013": 0.0,
			"0.014": 0.0,
			"0.015": 0.0,
			"0.016": 0.0,
			"0.017": 0.0,
			"0.018": 0.0,
			"0.019": 0.0,
			"0.02": 0.0,
			"0.021": 0.0,
			"0.022": 0.0,
			"0.023": 0.0,
			"0.024": 0.0,
			"0.025": 0.0
		}
	}
}
