{
	 "smiles": "ClCC(=O)NCC(=O)N1CCCC1", 
	 "Tm": 399.15, 
	 "num_atms": 26, 
	 "gaussian": { 
		 "optdone": 1, 
		 "sigma_profile": "yes", 
		 "theory": "DFT", 
		 "functional": "B3LYP", 
		 "basiset": "6-31G**", 
		 "properties": { 
			 "R2extent": 5649.2963, 
			 "electric_dipole_moment_norm": 7.45196385794, 
			 "electric_quadrupole_moment_norm": 20.6660750807, 
			 "total_energy": -1032.85636034, 
			 "HOMO_LUMO_gap": 0.23233, 
			 "cosmo_polarized_energy": -17.81, 
			 "cosmo_cavitation_energy": 30.44, 
			 "cosmo_dispersion_energy": -22.25, 
			 "cosmo_repulsion_energy": 1.81, 
			 "cosmo_total_nonelectrostatic_energy": 10.0, 
			 "SMD_solvation_energy": 4.32 
		},
		"coords": [
			{
				"x": 4.0545731547,
				"y": -3.4705676768,
				"z": 0.4070839102,
				"element": "Cl" 
			},
			{
				"x": 4.603810124,
				"y": -1.7371409064,
				"z": 0.5005858566,
				"element": "C" 
			},
			{
				"x": 4.1389339172,
				"y": -1.0299447967,
				"z": 1.777389908,
				"element": "C" 
			},
			{
				"x": 4.9629801204,
				"y": -0.6947112048,
				"z": 2.6176349992,
				"element": "O" 
			},
			{
				"x": 2.8105046746,
				"y": -0.7679566831,
				"z": 1.9013588113,
				"element": "N" 
			},
			{
				"x": 1.7368242063,
				"y": -1.0715263628,
				"z": 0.9855997161,
				"element": "C" 
			},
			{
				"x": 0.4392295259,
				"y": -0.506910575,
				"z": 1.5842671314,
				"element": "C" 
			},
			{
				"x": 0.4381091006,
				"y": 0.0564070095,
				"z": 2.6780425749,
				"element": "O" 
			},
			{
				"x": -0.6835808405,
				"y": -0.6692377855,
				"z": 0.8434383194,
				"element": "N" 
			},
			{
				"x": -0.7851011982,
				"y": -1.3120134642,
				"z": -0.4750791435,
				"element": "C" 
			},
			{
				"x": -2.3023572196,
				"y": -1.4387586522,
				"z": -0.6876023486,
				"element": "C" 
			},
			{
				"x": -2.8700555241,
				"y": -0.2285955138,
				"z": 0.0741099782,
				"element": "C" 
			},
			{
				"x": -1.9734424291,
				"y": -0.137657432,
				"z": 1.3163747714,
				"element": "C" 
			},
			{
				"x": 4.2405727348,
				"y": -1.2463100683,
				"z": -0.4052454671,
				"element": "H" 
			},
			{
				"x": 5.6909046825,
				"y": -1.7509442187,
				"z": 0.513712495,
				"element": "H" 
			},
			{
				"x": 2.5116975896,
				"y": -0.2890306638,
				"z": 2.7472044788,
				"element": "H" 
			},
			{
				"x": 1.6262555926,
				"y": -2.1521328542,
				"z": 0.8278881446,
				"element": "H" 
			},
			{
				"x": 1.8976654277,
				"y": -0.6221781971,
				"z": -0.0058334103,
				"element": "H" 
			},
			{
				"x": -0.3282316062,
				"y": -0.6839998682,
				"z": -1.2534845643,
				"element": "H" 
			},
			{
				"x": -0.2793983006,
				"y": -2.2829282024,
				"z": -0.4884576814,
				"element": "H" 
			},
			{
				"x": -2.5713072997,
				"y": -1.4525277603,
				"z": -1.7468193963,
				"element": "H" 
			},
			{
				"x": -2.6622601844,
				"y": -2.3705192252,
				"z": -0.2374430526,
				"element": "H" 
			},
			{
				"x": -3.9263666537,
				"y": -0.3412397538,
				"z": 0.3304896908,
				"element": "H" 
			},
			{
				"x": -2.767709898,
				"y": 0.6793340596,
				"z": -0.5310461779,
				"element": "H" 
			},
			{
				"x": -1.8430487479,
				"y": 0.8778679441,
				"z": 1.6978385462,
				"element": "H" 
			},
			{
				"x": -2.352000949,
				"y": -0.7525771478,
				"z": 2.1425919101,
				"element": "H" 
			}
		],
		 "valence_orbital": [ 
			{
				"type": "occ",
				"energy": -0.3051,
				"method": "rhf"
			},
			{
				"type": "occ",
				"energy": -0.26892,
				"method": "rhf"
			},
			{
				"type": "occ",
				"energy": -0.25835,
				"method": "rhf"
			},
			{
				"type": "occ",
				"energy": -0.24908,
				"method": "rhf"
			},
			{
				"type": "occ",
				"energy": -0.24795,
				"method": "rhf"
			},
			{
				"type": "unocc",
				"energy": -0.01562,
				"method": "rhf"
			},
			{
				"type": "unocc",
				"energy": 0.01239,
				"method": "rhf"
			},
			{
				"type": "unocc",
				"energy": 0.05248,
				"method": "rhf"
			},
			{
				"type": "unocc",
				"energy": 0.06278,
				"method": "rhf"
			},
			{
				"type": "unocc",
				"energy": 0.08215,
				"method": "rhf"
			}
		],
		"cosmo_sigma_profile": { 
			"-0.025": 0.0,
			"-0.024": 0.0,
			"-0.023": 0.0,
			"-0.022": 0.0,
			"-0.021": 0.0,
			"-0.02": 0.0,
			"-0.019": 0.0,
			"-0.018": 0.0,
			"-0.017": 0.0,
			"-0.016": 0.0,
			"-0.015": 0.0,
			"-0.014": 0.0,
			"-0.013": 0.0,
			"-0.012": 0.0,
			"-0.011": 0.0,
			"-0.01": 0.575788385182,
			"-0.009": 3.91281645773,
			"-0.008": 5.81758032777,
			"-0.007": 8.72514716673,
			"-0.006": 10.8066061878,
			"-0.005": 13.8433474907,
			"-0.004": 24.8420048022,
			"-0.003": 29.2632888742,
			"-0.002": 23.2887343087,
			"-0.001": 19.0338816409,
			"0.0": 16.1601714826,
			"0.001": 10.8205725314,
			"0.002": 10.4847762536,
			"0.003": 8.01095509227,
			"0.004": 7.27041827077,
			"0.005": 9.23200081153,
			"0.006": 6.19056780397,
			"0.007": 3.31259087446,
			"0.008": 1.90539084484,
			"0.009": 2.64184895541,
			"0.01": 2.824628402,
			"0.011": 3.64575688665,
			"0.012": 4.12677571095,
			"0.013": 9.69366883706,
			"0.014": 4.27346735761,
			"0.015": 0.0365142709733,
			"0.016": 0.0,
			"0.017": 0.0,
			"0.018": 0.0,
			"0.019": 0.0,
			"0.02": 0.0,
			"0.021": 0.0,
			"0.022": 0.0,
			"0.023": 0.0,
			"0.024": 0.0,
			"0.025": 0.0
		}
	}
}
