{
	 "smiles": "CCCCCCCCCCCCOC1=C(OCCCCCCCCCCCC)C=C(C=O)C=C1", 
	 "Tm": 344.65, 
	 "num_atms": 88, 
	 "gaussian": { 
		 "optdone": 1, 
		 "sigma_profile": "yes", 
		 "theory": "DFT", 
		 "functional": "B3LYP", 
		 "basiset": "6-31G**", 
		 "properties": { 
			 "R2extent": 43968.2507, 
			 "electric_dipole_moment_norm": 6.41867221472, 
			 "electric_quadrupole_moment_norm": 18.0034581642, 
			 "total_energy": -1439.55498722, 
			 "HOMO_LUMO_gap": 0.17361, 
			 "cosmo_polarized_energy": -12.55, 
			 "cosmo_cavitation_energy": 85.63, 
			 "cosmo_dispersion_energy": -55.2, 
			 "cosmo_repulsion_energy": 4.32, 
			 "cosmo_total_nonelectrostatic_energy": 34.74, 
			 "SMD_solvation_energy": 12.61 
		},
		"coords": [
			{
				"x": 1.5701415169,
				"y": -6.9883153862,
				"z": -6.1391024531,
				"element": "C" 
			},
			{
				"x": 2.7098904915,
				"y": -7.9078834112,
				"z": -5.6841687618,
				"element": "C" 
			},
			{
				"x": 2.4147950475,
				"y": -8.7022192467,
				"z": -4.4010017599,
				"element": "C" 
			},
			{
				"x": 2.2599039719,
				"y": -7.846209746,
				"z": -3.1357666657,
				"element": "C" 
			},
			{
				"x": 2.0295204989,
				"y": -8.6861378033,
				"z": -1.8707461432,
				"element": "C" 
			},
			{
				"x": 1.7973528685,
				"y": -7.8718376027,
				"z": -0.5869017088,
				"element": "C" 
			},
			{
				"x": 3.0279593726,
				"y": -7.0840651757,
				"z": -0.1060599557,
				"element": "C" 
			},
			{
				"x": 2.8583527083,
				"y": -6.3485362958,
				"z": 1.2418848494,
				"element": "C" 
			},
			{
				"x": 2.3296281726,
				"y": -4.9038833302,
				"z": 1.1724527989,
				"element": "C" 
			},
			{
				"x": 0.8842667091,
				"y": -4.7408039805,
				"z": 0.6748997494,
				"element": "C" 
			},
			{
				"x": 0.312018896,
				"y": -3.3233162571,
				"z": 0.8433812368,
				"element": "C" 
			},
			{
				"x": 1.0152117967,
				"y": -2.2764494914,
				"z": -0.0116513643,
				"element": "C" 
			},
			{
				"x": 0.3191742406,
				"y": -1.0384442944,
				"z": 0.1672451742,
				"element": "O" 
			},
			{
				"x": 0.7454095469,
				"y": 0.0613729364,
				"z": -0.5028994394,
				"element": "C" 
			},
			{
				"x": -0.0061850461,
				"y": 1.2480873778,
				"z": -0.2829988997,
				"element": "C" 
			},
			{
				"x": -1.1127413889,
				"y": 1.2581894182,
				"z": 0.5198282758,
				"element": "O" 
			},
			{
				"x": -0.9434317696,
				"y": 0.9533866266,
				"z": 1.920361972,
				"element": "C" 
			},
			{
				"x": -1.9339984249,
				"y": 1.8011004643,
				"z": 2.7104466638,
				"element": "C" 
			},
			{
				"x": -1.666108014,
				"y": 3.3061228394,
				"z": 2.5920481996,
				"element": "C" 
			},
			{
				"x": -2.689930707,
				"y": 4.1773087758,
				"z": 3.3288729612,
				"element": "C" 
			},
			{
				"x": -2.4303500325,
				"y": 5.6944410968,
				"z": 3.2637682844,
				"element": "C" 
			},
			{
				"x": -2.4601922348,
				"y": 6.3185592188,
				"z": 1.8483364987,
				"element": "C" 
			},
			{
				"x": -1.0880024489,
				"y": 6.4245706797,
				"z": 1.1568698781,
				"element": "C" 
			},
			{
				"x": -1.123390999,
				"y": 6.9781604498,
				"z": -0.2876442069,
				"element": "C" 
			},
			{
				"x": -0.8681204416,
				"y": 8.4893777183,
				"z": -0.4318984965,
				"element": "C" 
			},
			{
				"x": -1.9202233804,
				"y": 9.4065448554,
				"z": 0.2090430091,
				"element": "C" 
			},
			{
				"x": -1.72401217,
				"y": 10.9024510038,
				"z": -0.0921114881,
				"element": "C" 
			},
			{
				"x": -0.4482714069,
				"y": 11.5087247641,
				"z": 0.5053533281,
				"element": "C" 
			},
			{
				"x": 0.3462285963,
				"y": 2.4095593455,
				"z": -0.9500014271,
				"element": "C" 
			},
			{
				"x": 1.4380323864,
				"y": 2.4331809562,
				"z": -1.8352207092,
				"element": "C" 
			},
			{
				"x": 1.8102130077,
				"y": 3.6779714398,
				"z": -2.5286622952,
				"element": "C" 
			},
			{
				"x": 1.2457602336,
				"y": 4.7508778834,
				"z": -2.4004277188,
				"element": "O" 
			},
			{
				"x": 2.1803022073,
				"y": 1.266240215,
				"z": -2.0374903936,
				"element": "C" 
			},
			{
				"x": 1.840703989,
				"y": 0.0862670561,
				"z": -1.3766824444,
				"element": "C" 
			},
			{
				"x": 1.3563985011,
				"y": -6.2059815518,
				"z": -5.4035270684,
				"element": "H" 
			},
			{
				"x": 0.6451901405,
				"y": -7.5556107928,
				"z": -6.2962877023,
				"element": "H" 
			},
			{
				"x": 1.817808996,
				"y": -6.4908560074,
				"z": -7.0826254593,
				"element": "H" 
			},
			{
				"x": 2.9367332686,
				"y": -8.61708256,
				"z": -6.4904654677,
				"element": "H" 
			},
			{
				"x": 3.623031672,
				"y": -7.3140672574,
				"z": -5.5388413917,
				"element": "H" 
			},
			{
				"x": 3.2263372771,
				"y": -9.4248138102,
				"z": -4.2388209775,
				"element": "H" 
			},
			{
				"x": 1.5032593611,
				"y": -9.2997254775,
				"z": -4.5476393026,
				"element": "H" 
			},
			{
				"x": 3.1580641138,
				"y": -7.2251176743,
				"z": -3.0163555056,
				"element": "H" 
			},
			{
				"x": 1.4196899665,
				"y": -7.1488431497,
				"z": -3.255971529,
				"element": "H" 
			},
			{
				"x": 2.885492381,
				"y": -9.3604134624,
				"z": -1.7221871492,
				"element": "H" 
			},
			{
				"x": 1.1595760858,
				"y": -9.3362332319,
				"z": -2.0359382158,
				"element": "H" 
			},
			{
				"x": 1.495120104,
				"y": -8.559091168,
				"z": 0.2150497144,
				"element": "H" 
			},
			{
				"x": 0.9454258786,
				"y": -7.1977785776,
				"z": -0.7407945407,
				"element": "H" 
			},
			{
				"x": 3.3412001112,
				"y": -6.3617357406,
				"z": -0.8718509386,
				"element": "H" 
			},
			{
				"x": 3.8596229567,
				"y": -7.7955531509,
				"z": -0.0129137509,
				"element": "H" 
			},
			{
				"x": 2.2108936,
				"y": -6.9419765819,
				"z": 1.9031251991,
				"element": "H" 
			},
			{
				"x": 3.8350597059,
				"y": -6.309586908,
				"z": 1.7400019853,
				"element": "H" 
			},
			{
				"x": 3.0104601059,
				"y": -4.3159004756,
				"z": 0.5413126212,
				"element": "H" 
			},
			{
				"x": 2.3993658143,
				"y": -4.4662620308,
				"z": 2.1783941422,
				"element": "H" 
			},
			{
				"x": 0.8133531472,
				"y": -5.0324124663,
				"z": -0.3806249204,
				"element": "H" 
			},
			{
				"x": 0.2379847371,
				"y": -5.436322957,
				"z": 1.2251593316,
				"element": "H" 
			},
			{
				"x": 0.3705440512,
				"y": -3.0171264159,
				"z": 1.8953933274,
				"element": "H" 
			},
			{
				"x": -0.7499315728,
				"y": -3.3196691402,
				"z": 0.5722904585,
				"element": "H" 
			},
			{
				"x": 2.0652238826,
				"y": -2.1530244909,
				"z": 0.2833723868,
				"element": "H" 
			},
			{
				"x": 0.9915335525,
				"y": -2.5636695272,
				"z": -1.0726949325,
				"element": "H" 
			},
			{
				"x": 0.0869990088,
				"y": 1.1832066233,
				"z": 2.2223747149,
				"element": "H" 
			},
			{
				"x": -1.1151683916,
				"y": -0.1160230514,
				"z": 2.079758529,
				"element": "H" 
			},
			{
				"x": -2.9481771074,
				"y": 1.5719163402,
				"z": 2.3583280622,
				"element": "H" 
			},
			{
				"x": -1.8884937092,
				"y": 1.4840969906,
				"z": 3.7615534048,
				"element": "H" 
			},
			{
				"x": -1.6586572134,
				"y": 3.5640062292,
				"z": 1.5288148839,
				"element": "H" 
			},
			{
				"x": -0.6577358822,
				"y": 3.524792798,
				"z": 2.9730984915,
				"element": "H" 
			},
			{
				"x": -3.690452149,
				"y": 3.9722136994,
				"z": 2.9213678102,
				"element": "H" 
			},
			{
				"x": -2.7267431108,
				"y": 3.8735180062,
				"z": 4.3848083114,
				"element": "H" 
			},
			{
				"x": -1.4663395756,
				"y": 5.9201437891,
				"z": 3.7416844629,
				"element": "H" 
			},
			{
				"x": -3.190512057,
				"y": 6.1836147539,
				"z": 3.8856524481,
				"element": "H" 
			},
			{
				"x": -2.9027645818,
				"y": 7.3192080626,
				"z": 1.9090507197,
				"element": "H" 
			},
			{
				"x": -3.1395899442,
				"y": 5.7355252734,
				"z": 1.2099408931,
				"element": "H" 
			},
			{
				"x": -0.4244946356,
				"y": 7.048507185,
				"z": 1.7732659526,
				"element": "H" 
			},
			{
				"x": -0.6224533983,
				"y": 5.4332543245,
				"z": 1.141824355,
				"element": "H" 
			},
			{
				"x": -0.3683666079,
				"y": 6.4551386734,
				"z": -0.8857752271,
				"element": "H" 
			},
			{
				"x": -2.0907621833,
				"y": 6.7293223666,
				"z": -0.7476592316,
				"element": "H" 
			},
			{
				"x": -0.8057373036,
				"y": 8.7267966434,
				"z": -1.5034174664,
				"element": "H" 
			},
			{
				"x": 0.1228973696,
				"y": 8.7161844608,
				"z": -0.0163305983,
				"element": "H" 
			},
			{
				"x": -1.9269400559,
				"y": 9.2638459451,
				"z": 1.2982947081,
				"element": "H" 
			},
			{
				"x": -2.9157116467,
				"y": 9.103890765,
				"z": -0.1444444312,
				"element": "H" 
			},
			{
				"x": -2.5921703072,
				"y": 11.455438078,
				"z": 0.2897361021,
				"element": "H" 
			},
			{
				"x": -1.7238089636,
				"y": 11.0530236334,
				"z": -1.1806379645,
				"element": "H" 
			},
			{
				"x": -0.3895827636,
				"y": 12.5834881159,
				"z": 0.3028817147,
				"element": "H" 
			},
			{
				"x": 0.4547996107,
				"y": 11.0476413104,
				"z": 0.092853001,
				"element": "H" 
			},
			{
				"x": -0.4205878436,
				"y": 11.3742354166,
				"z": 1.5933260701,
				"element": "H" 
			},
			{
				"x": -0.2327512038,
				"y": 3.3127278815,
				"z": -0.7905363437,
				"element": "H" 
			},
			{
				"x": 2.6844250152,
				"y": 3.5782236034,
				"z": -3.2112313652,
				"element": "H" 
			},
			{
				"x": 3.029314958,
				"y": 1.2770106722,
				"z": -2.7166234162,
				"element": "H" 
			},
			{
				"x": 2.4206190414,
				"y": -0.8117870838,
				"z": -1.5508754535,
				"element": "H" 
			}
		],
		 "valence_orbital": [ 
			{
				"type": "occ",
				"energy": -0.28406,
				"method": "rhf"
			},
			{
				"type": "occ",
				"energy": -0.27684,
				"method": "rhf"
			},
			{
				"type": "occ",
				"energy": -0.24951,
				"method": "rhf"
			},
			{
				"type": "occ",
				"energy": -0.24576,
				"method": "rhf"
			},
			{
				"type": "occ",
				"energy": -0.22437,
				"method": "rhf"
			},
			{
				"type": "unocc",
				"energy": -0.05076,
				"method": "rhf"
			},
			{
				"type": "unocc",
				"energy": -0.00604,
				"method": "rhf"
			},
			{
				"type": "unocc",
				"energy": 0.0525,
				"method": "rhf"
			},
			{
				"type": "unocc",
				"energy": 0.06864,
				"method": "rhf"
			},
			{
				"type": "unocc",
				"energy": 0.08236,
				"method": "rhf"
			}
		],
		"cosmo_sigma_profile": { 
			"-0.025": 0.0,
			"-0.024": 0.0,
			"-0.023": 0.0,
			"-0.022": 0.0,
			"-0.021": 0.0,
			"-0.02": 0.0,
			"-0.019": 0.0,
			"-0.018": 0.0,
			"-0.017": 0.0,
			"-0.016": 0.0,
			"-0.015": 0.0,
			"-0.014": 0.0,
			"-0.013": 0.0,
			"-0.012": 0.0,
			"-0.011": 0.0,
			"-0.01": 0.0,
			"-0.009": 0.0,
			"-0.008": 0.137879370385,
			"-0.007": 5.38441327454,
			"-0.006": 8.97879645333,
			"-0.005": 12.3838778314,
			"-0.004": 15.6598026589,
			"-0.003": 31.4938011273,
			"-0.002": 84.5121069189,
			"-0.001": 131.817068128,
			"0.0": 135.702491325,
			"0.001": 112.994249782,
			"0.002": 55.9256318795,
			"0.003": 18.7847723087,
			"0.004": 11.1402571078,
			"0.005": 5.46178740597,
			"0.006": 4.87181937037,
			"0.007": 5.48129463805,
			"0.008": 4.91659699606,
			"0.009": 3.83984777594,
			"0.01": 3.54876080371,
			"0.011": 3.14064659554,
			"0.012": 1.93035090545,
			"0.013": 1.36037909603,
			"0.014": 0.295920363841,
			"0.015": 0.0,
			"0.016": 0.0,
			"0.017": 0.0,
			"0.018": 0.0,
			"0.019": 0.0,
			"0.02": 0.0,
			"0.021": 0.0,
			"0.022": 0.0,
			"0.023": 0.0,
			"0.024": 0.0,
			"0.025": 0.0
		}
	}
}
