{
	 "smiles": "CC1=CC(NN)=NC2=C(C)C=CC=C12", 
	 "Tm": 442.15, 
	 "num_atms": 27, 
	 "gaussian": { 
		 "optdone": 1, 
		 "sigma_profile": "yes", 
		 "theory": "DFT", 
		 "functional": "B3LYP", 
		 "basiset": "6-31G**", 
		 "properties": { 
			 "R2extent": 3013.3607, 
			 "electric_dipole_moment_norm": 2.6072071686, 
			 "electric_quadrupole_moment_norm": 13.2691652729, 
			 "total_energy": -591.25760145, 
			 "HOMO_LUMO_gap": 0.16478, 
			 "cosmo_polarized_energy": -11.49, 
			 "cosmo_cavitation_energy": 29.81, 
			 "cosmo_dispersion_energy": -22.04, 
			 "cosmo_repulsion_energy": 1.75, 
			 "cosmo_total_nonelectrostatic_energy": 9.53, 
			 "SMD_solvation_energy": 4.48 
		},
		"coords": [
			{
				"x": -0.2795809121,
				"y": -1.5938403457,
				"z": -2.6419199957,
				"element": "C" 
			},
			{
				"x": 0.2163133732,
				"y": -0.7243830989,
				"z": -1.5139136677,
				"element": "C" 
			},
			{
				"x": 1.2063763474,
				"y": 0.2015141623,
				"z": -1.7337372213,
				"element": "C" 
			},
			{
				"x": 1.6564660418,
				"y": 1.0107772561,
				"z": -0.65132486,
				"element": "C" 
			},
			{
				"x": 2.6966422832,
				"y": 1.916352613,
				"z": -0.8218971976,
				"element": "N" 
			},
			{
				"x": 2.9750645261,
				"y": 2.4005142251,
				"z": -2.1108679417,
				"element": "N" 
			},
			{
				"x": 1.1675577039,
				"y": 0.9374626996,
				"z": 0.5728893158,
				"element": "N" 
			},
			{
				"x": 0.1921763683,
				"y": 0.0176839532,
				"z": 0.8225162724,
				"element": "C" 
			},
			{
				"x": -0.3220329864,
				"y": -0.0634350042,
				"z": 2.1551830452,
				"element": "C" 
			},
			{
				"x": 0.2286120434,
				"y": 0.8479447832,
				"z": 3.2208339266,
				"element": "C" 
			},
			{
				"x": -1.3170455245,
				"y": -0.9837010531,
				"z": 2.4299491963,
				"element": "C" 
			},
			{
				"x": -1.8345035564,
				"y": -1.8389850137,
				"z": 1.4325821115,
				"element": "C" 
			},
			{
				"x": -1.3503125287,
				"y": -1.7718079736,
				"z": 0.1440608525,
				"element": "C" 
			},
			{
				"x": -0.3297462179,
				"y": -0.8469580585,
				"z": -0.1917922595,
				"element": "C" 
			},
			{
				"x": -1.3520897487,
				"y": -1.4491525936,
				"z": -2.8156597029,
				"element": "H" 
			},
			{
				"x": -0.1316362924,
				"y": -2.6570917014,
				"z": -2.42077612,
				"element": "H" 
			},
			{
				"x": 0.2475437151,
				"y": -1.3653410358,
				"z": -3.5712502574,
				"element": "H" 
			},
			{
				"x": 1.65487156,
				"y": 0.3365269826,
				"z": -2.7104900968,
				"element": "H" 
			},
			{
				"x": 2.7814177892,
				"y": 2.5515766327,
				"z": -0.0333752216,
				"element": "H" 
			},
			{
				"x": 2.5469244342,
				"y": 3.3124242277,
				"z": -2.2672722794,
				"element": "H" 
			},
			{
				"x": 3.9801892793,
				"y": 2.4895827342,
				"z": -2.2215788739,
				"element": "H" 
			},
			{
				"x": -0.2593727024,
				"y": 0.664624253,
				"z": 4.1823666643,
				"element": "H" 
			},
			{
				"x": 1.3075279338,
				"y": 0.7063827743,
				"z": 3.3430606316,
				"element": "H" 
			},
			{
				"x": 0.0876675102,
				"y": 1.9002731152,
				"z": 2.9524006071,
				"element": "H" 
			},
			{
				"x": -1.7100629951,
				"y": -1.0499103027,
				"z": 3.4417026438,
				"element": "H" 
			},
			{
				"x": -2.6157451859,
				"y": -2.5497268871,
				"z": 1.6862822114,
				"element": "H" 
			},
			{
				"x": -1.7506222585,
				"y": -2.4310073443,
				"z": -0.619571783,
				"element": "H" 
			}
		],
		 "valence_orbital": [ 
			{
				"type": "occ",
				"energy": -0.27111,
				"method": "rhf"
			},
			{
				"type": "occ",
				"energy": -0.27031,
				"method": "rhf"
			},
			{
				"type": "occ",
				"energy": -0.24474,
				"method": "rhf"
			},
			{
				"type": "occ",
				"energy": -0.21816,
				"method": "rhf"
			},
			{
				"type": "occ",
				"energy": -0.19518,
				"method": "rhf"
			},
			{
				"type": "unocc",
				"energy": -0.0304,
				"method": "rhf"
			},
			{
				"type": "unocc",
				"energy": 0.00772,
				"method": "rhf"
			},
			{
				"type": "unocc",
				"energy": 0.04257,
				"method": "rhf"
			},
			{
				"type": "unocc",
				"energy": 0.07201,
				"method": "rhf"
			},
			{
				"type": "unocc",
				"energy": 0.10256,
				"method": "rhf"
			}
		],
		"cosmo_sigma_profile": { 
			"-0.025": 0.0,
			"-0.024": 0.0,
			"-0.023": 0.0,
			"-0.022": 0.0,
			"-0.021": 0.0,
			"-0.02": 0.0,
			"-0.019": 0.0,
			"-0.018": 0.0,
			"-0.017": 0.0,
			"-0.016": 0.0,
			"-0.015": 0.0,
			"-0.014": 0.0,
			"-0.013": 0.0,
			"-0.012": 1.64899356342,
			"-0.011": 3.99358716688,
			"-0.01": 5.49519952293,
			"-0.009": 4.17872801677,
			"-0.008": 3.28273895127,
			"-0.007": 4.01831618593,
			"-0.006": 2.96538487719,
			"-0.005": 10.8305453671,
			"-0.004": 18.9924814672,
			"-0.003": 17.7589419108,
			"-0.002": 16.8171143687,
			"-0.001": 17.7089206618,
			"0.0": 19.0155637799,
			"0.001": 16.4847086364,
			"0.002": 12.7547499641,
			"0.003": 18.2211651934,
			"0.004": 18.0654080354,
			"0.005": 13.944105777,
			"0.006": 11.6522330857,
			"0.007": 4.81278038604,
			"0.008": 3.42075585485,
			"0.009": 2.7660138724,
			"0.01": 2.70633776027,
			"0.011": 2.35073719046,
			"0.012": 1.27203903517,
			"0.013": 0.204066286979,
			"0.014": 0.0,
			"0.015": 0.0,
			"0.016": 0.0,
			"0.017": 0.0,
			"0.018": 0.0,
			"0.019": 0.0,
			"0.02": 0.0,
			"0.021": 0.0,
			"0.022": 0.0,
			"0.023": 0.0,
			"0.024": 0.0,
			"0.025": 0.0
		}
	}
}
