{
	 "smiles": "CC1=CC=C(C)N1CC(O)=O", 
	 "Tm": 373.15, 
	 "num_atms": 22, 
	 "gaussian": { 
		 "optdone": 1, 
		 "sigma_profile": "yes", 
		 "theory": "DFT", 
		 "functional": "B3LYP", 
		 "basiset": "6-31G**", 
		 "properties": { 
			 "R2extent": 2155.6294, 
			 "electric_dipole_moment_norm": 4.4298385851, 
			 "electric_quadrupole_moment_norm": 18.1851876435, 
			 "total_energy": -516.679194675, 
			 "HOMO_LUMO_gap": 0.18954, 
			 "cosmo_polarized_energy": -19.56, 
			 "cosmo_cavitation_energy": 25.64, 
			 "cosmo_dispersion_energy": -17.93, 
			 "cosmo_repulsion_energy": 1.46, 
			 "cosmo_total_nonelectrostatic_energy": 9.17, 
			 "SMD_solvation_energy": 5.57 
		},
		"coords": [
			{
				"x": 0.6799700364,
				"y": -0.0820366426,
				"z": -2.2857966981,
				"element": "C" 
			},
			{
				"x": -0.1314410177,
				"y": -0.2139696359,
				"z": -1.0373762514,
				"element": "C" 
			},
			{
				"x": -1.1621076583,
				"y": -1.0730210661,
				"z": -0.7331445121,
				"element": "C" 
			},
			{
				"x": -1.6157028639,
				"y": -0.7677677672,
				"z": 0.5826492385,
				"element": "C" 
			},
			{
				"x": -0.8556077811,
				"y": 0.2733915582,
				"z": 1.0632707455,
				"element": "C" 
			},
			{
				"x": -0.925452237,
				"y": 1.000150186,
				"z": 2.3675225706,
				"element": "C" 
			},
			{
				"x": 0.0650595362,
				"y": 0.6017510237,
				"z": 0.0728758775,
				"element": "N" 
			},
			{
				"x": 1.0144500897,
				"y": 1.6753443193,
				"z": 0.1516684642,
				"element": "C" 
			},
			{
				"x": 0.4683435756,
				"y": 3.0319171634,
				"z": -0.3272208158,
				"element": "C" 
			},
			{
				"x": 1.3714973908,
				"y": 4.0479266886,
				"z": -0.2629887957,
				"element": "O" 
			},
			{
				"x": -0.6474610447,
				"y": 3.2220326254,
				"z": -0.7267198983,
				"element": "O" 
			},
			{
				"x": 0.3428050504,
				"y": -0.8241219071,
				"z": -3.0132145928,
				"element": "H" 
			},
			{
				"x": 0.5721202036,
				"y": 0.9058840862,
				"z": -2.7520129827,
				"element": "H" 
			},
			{
				"x": 1.75267467,
				"y": -0.2558373287,
				"z": -2.1212847932,
				"element": "H" 
			},
			{
				"x": -1.5489743903,
				"y": -1.8379797378,
				"z": -1.3925804195,
				"element": "H" 
			},
			{
				"x": -2.4165535838,
				"y": -1.2539969458,
				"z": 1.1229104205,
				"element": "H" 
			},
			{
				"x": -1.151647783,
				"y": 2.0664123173,
				"z": 2.2385881519,
				"element": "H" 
			},
			{
				"x": -1.7227436495,
				"y": 0.5686552549,
				"z": 2.9771397706,
				"element": "H" 
			},
			{
				"x": 0.0030510018,
				"y": 0.9257101176,
				"z": 2.9508664632,
				"element": "H" 
			},
			{
				"x": 1.3588456238,
				"y": 1.7914895783,
				"z": 1.1863796374,
				"element": "H" 
			},
			{
				"x": 1.9002160641,
				"y": 1.4306552443,
				"z": -0.4463923228,
				"element": "H" 
			},
			{
				"x": 2.2214587671,
				"y": 3.7332108681,
				"z": 0.0782607424,
				"element": "H" 
			}
		],
		 "valence_orbital": [ 
			{
				"type": "occ",
				"energy": -0.34908,
				"method": "rhf"
			},
			{
				"type": "occ",
				"energy": -0.32733,
				"method": "rhf"
			},
			{
				"type": "occ",
				"energy": -0.28466,
				"method": "rhf"
			},
			{
				"type": "occ",
				"energy": -0.22782,
				"method": "rhf"
			},
			{
				"type": "occ",
				"energy": -0.18987,
				"method": "rhf"
			},
			{
				"type": "unocc",
				"energy": -0.00033,
				"method": "rhf"
			},
			{
				"type": "unocc",
				"energy": 0.0338,
				"method": "rhf"
			},
			{
				"type": "unocc",
				"energy": 0.04562,
				"method": "rhf"
			},
			{
				"type": "unocc",
				"energy": 0.07873,
				"method": "rhf"
			},
			{
				"type": "unocc",
				"energy": 0.097,
				"method": "rhf"
			}
		],
		"cosmo_sigma_profile": { 
			"-0.025": 0.0,
			"-0.024": 0.0,
			"-0.023": 0.0,
			"-0.022": 0.0,
			"-0.021": 0.0,
			"-0.02": 0.345314421506,
			"-0.019": 1.40785658198,
			"-0.018": 1.22071908314,
			"-0.017": 1.27976823923,
			"-0.016": 1.33628146842,
			"-0.015": 1.35480572202,
			"-0.014": 1.14859629073,
			"-0.013": 0.571385962535,
			"-0.012": 1.7490025903,
			"-0.011": 1.77761790277,
			"-0.01": 1.33658539107,
			"-0.009": 2.51585192792,
			"-0.008": 4.36244900082,
			"-0.007": 5.40993844964,
			"-0.006": 5.20702981567,
			"-0.005": 8.58771159078,
			"-0.004": 16.8237785883,
			"-0.003": 14.4656601449,
			"-0.002": 16.2986109946,
			"-0.001": 16.4963568097,
			"0.0": 16.355231253,
			"0.001": 8.24973606064,
			"0.002": 7.34580387446,
			"0.003": 6.98860449281,
			"0.004": 6.08342796159,
			"0.005": 6.07355839045,
			"0.006": 5.84354917295,
			"0.007": 6.75496765035,
			"0.008": 7.44365605047,
			"0.009": 7.82069293058,
			"0.01": 8.28834943326,
			"0.011": 6.11901935481,
			"0.012": 4.42156113045,
			"0.013": 0.559036043053,
			"0.014": 0.0,
			"0.015": 0.0,
			"0.016": 0.0,
			"0.017": 0.0,
			"0.018": 0.0,
			"0.019": 0.0,
			"0.02": 0.0,
			"0.021": 0.0,
			"0.022": 0.0,
			"0.023": 0.0,
			"0.024": 0.0,
			"0.025": 0.0
		}
	}
}
