{
	 "smiles": "CCOC1=CC=CC2=C1OC(=O)C(=C2)C(O)=O", 
	 "Tm": 464.15, 
	 "num_atms": 27, 
	 "gaussian": { 
		 "optdone": 1, 
		 "sigma_profile": "yes", 
		 "theory": "DFT", 
		 "functional": "B3LYP", 
		 "basiset": "6-31G**", 
		 "properties": { 
			 "R2extent": 4632.3937, 
			 "electric_dipole_moment_norm": 6.55442428364, 
			 "electric_quadrupole_moment_norm": 15.7971355087, 
			 "total_energy": -839.436552421, 
			 "HOMO_LUMO_gap": 0.14991, 
			 "cosmo_polarized_energy": -14.64, 
			 "cosmo_cavitation_energy": 31.8, 
			 "cosmo_dispersion_energy": -23.34, 
			 "cosmo_repulsion_energy": 1.8, 
			 "cosmo_total_nonelectrostatic_energy": 10.25, 
			 "SMD_solvation_energy": 7.97 
		},
		"coords": [
			{
				"x": -3.8313877904,
				"y": -2.5740122191,
				"z": -2.5902328346,
				"element": "C" 
			},
			{
				"x": -2.8037681196,
				"y": -1.6715040072,
				"z": -1.9328551482,
				"element": "C" 
			},
			{
				"x": -1.5168670677,
				"y": -2.3182627944,
				"z": -2.0815416905,
				"element": "O" 
			},
			{
				"x": -0.3719434037,
				"y": -1.5941184448,
				"z": -2.0013844948,
				"element": "C" 
			},
			{
				"x": 0.6408029556,
				"y": -1.8878168473,
				"z": -2.9194500165,
				"element": "C" 
			},
			{
				"x": 1.8798776297,
				"y": -1.2366189002,
				"z": -2.885317771,
				"element": "C" 
			},
			{
				"x": 2.1302202875,
				"y": -0.2608732979,
				"z": -1.9333865605,
				"element": "C" 
			},
			{
				"x": 1.1364176832,
				"y": 0.057784271,
				"z": -0.9871620587,
				"element": "C" 
			},
			{
				"x": -0.1002627701,
				"y": -0.6185232756,
				"z": -1.0225708781,
				"element": "C" 
			},
			{
				"x": -1.0682525107,
				"y": -0.3548602098,
				"z": -0.0898424588,
				"element": "O" 
			},
			{
				"x": -0.9188525535,
				"y": 0.5797376217,
				"z": 0.9051219196,
				"element": "C" 
			},
			{
				"x": -1.8617007467,
				"y": 0.7319974485,
				"z": 1.6705206495,
				"element": "O" 
			},
			{
				"x": 0.3456974459,
				"y": 1.3020928352,
				"z": 0.9591161597,
				"element": "C" 
			},
			{
				"x": 1.3172238796,
				"y": 1.0350906284,
				"z": 0.0442251224,
				"element": "C" 
			},
			{
				"x": 0.6020725491,
				"y": 2.3465503038,
				"z": 2.0182267337,
				"element": "C" 
			},
			{
				"x": -0.3858666538,
				"y": 2.5640018159,
				"z": 2.8911736753,
				"element": "O" 
			},
			{
				"x": 1.6541039608,
				"y": 2.948314948,
				"z": 2.0611903032,
				"element": "O" 
			},
			{
				"x": -4.830518416,
				"y": -2.1413253867,
				"z": -2.4787788648,
				"element": "H" 
			},
			{
				"x": -3.8307014988,
				"y": -3.5617948483,
				"z": -2.1206701754,
				"element": "H" 
			},
			{
				"x": -3.6212674416,
				"y": -2.6976448639,
				"z": -3.6562835065,
				"element": "H" 
			},
			{
				"x": -3.0227273654,
				"y": -1.5233085702,
				"z": -0.8727759111,
				"element": "H" 
			},
			{
				"x": -2.7710147049,
				"y": -0.6877195442,
				"z": -2.4172786535,
				"element": "H" 
			},
			{
				"x": 0.4285016628,
				"y": -2.6470886446,
				"z": -3.6648030692,
				"element": "H" 
			},
			{
				"x": 2.6383983197,
				"y": -1.4943661985,
				"z": -3.6171635358,
				"element": "H" 
			},
			{
				"x": 3.0811907643,
				"y": 0.260839926,
				"z": -1.8975104108,
				"element": "H" 
			},
			{
				"x": 2.2494555203,
				"y": 1.5890790584,
				"z": 0.116501127,
				"element": "H" 
			},
			{
				"x": -1.1447316156,
				"y": 1.9710491959,
				"z": 2.6753323484,
				"element": "H" 
			}
		],
		 "valence_orbital": [ 
			{
				"type": "occ",
				"energy": -0.30525,
				"method": "rhf"
			},
			{
				"type": "occ",
				"energy": -0.30208,
				"method": "rhf"
			},
			{
				"type": "occ",
				"energy": -0.27268,
				"method": "rhf"
			},
			{
				"type": "occ",
				"energy": -0.2612,
				"method": "rhf"
			},
			{
				"type": "occ",
				"energy": -0.24871,
				"method": "rhf"
			},
			{
				"type": "unocc",
				"energy": -0.0988,
				"method": "rhf"
			},
			{
				"type": "unocc",
				"energy": -0.03423,
				"method": "rhf"
			},
			{
				"type": "unocc",
				"energy": -0.01409,
				"method": "rhf"
			},
			{
				"type": "unocc",
				"energy": 0.01176,
				"method": "rhf"
			},
			{
				"type": "unocc",
				"energy": 0.06496,
				"method": "rhf"
			}
		],
		"cosmo_sigma_profile": { 
			"-0.025": 0.0,
			"-0.024": 0.0,
			"-0.023": 0.0,
			"-0.022": 0.0,
			"-0.021": 0.0,
			"-0.02": 0.0,
			"-0.019": 0.0,
			"-0.018": 0.0,
			"-0.017": 0.0,
			"-0.016": 0.0,
			"-0.015": 0.0,
			"-0.014": 0.0,
			"-0.013": 0.0,
			"-0.012": 0.0,
			"-0.011": 0.0,
			"-0.01": 0.545067874901,
			"-0.009": 2.15423270363,
			"-0.008": 4.9092364184,
			"-0.007": 10.6580184513,
			"-0.006": 12.8861553524,
			"-0.005": 18.2866267539,
			"-0.004": 21.4626740251,
			"-0.003": 23.6065388631,
			"-0.002": 23.5365468272,
			"-0.001": 21.6862302527,
			"0.0": 19.1374660597,
			"0.001": 17.1622936215,
			"0.002": 14.7689436078,
			"0.003": 10.0589496159,
			"0.004": 4.23982625166,
			"0.005": 5.28619278695,
			"0.006": 6.28975572354,
			"0.007": 4.52481508883,
			"0.008": 4.86430936772,
			"0.009": 6.86902221565,
			"0.01": 7.73040221977,
			"0.011": 7.27972555757,
			"0.012": 4.91574020328,
			"0.013": 1.83741338074,
			"0.014": 0.14111279584,
			"0.015": 0.0,
			"0.016": 0.0,
			"0.017": 0.0,
			"0.018": 0.0,
			"0.019": 0.0,
			"0.02": 0.0,
			"0.021": 0.0,
			"0.022": 0.0,
			"0.023": 0.0,
			"0.024": 0.0,
			"0.025": 0.0
		}
	}
}
