{
	 "smiles": "ClCC(=O)NC1=CC(=NN1C1=CC=CC=C1)C1CC1", 
	 "Tm": 394.15, 
	 "num_atms": 33, 
	 "gaussian": { 
		 "optdone": 1, 
		 "sigma_profile": "yes", 
		 "theory": "DFT", 
		 "functional": "B3LYP", 
		 "basiset": "6-31G**", 
		 "properties": { 
			 "R2extent": 6718.6686, 
			 "electric_dipole_moment_norm": 2.37360536526, 
			 "electric_quadrupole_moment_norm": 7.24564890883, 
			 "total_energy": -1241.5661765, 
			 "HOMO_LUMO_gap": 0.18581, 
			 "cosmo_polarized_energy": -13.56, 
			 "cosmo_cavitation_energy": 38.96, 
			 "cosmo_dispersion_energy": -27.3, 
			 "cosmo_repulsion_energy": 2.12, 
			 "cosmo_total_nonelectrostatic_energy": 13.78, 
			 "SMD_solvation_energy": 5.83 
		},
		"coords": [
			{
				"x": -3.1397032486,
				"y": -0.2999809174,
				"z": -3.1214544843,
				"element": "Cl" 
			},
			{
				"x": -2.3077281634,
				"y": -1.8474972993,
				"z": -2.6664116891,
				"element": "C" 
			},
			{
				"x": -1.3081345652,
				"y": -1.7843603919,
				"z": -1.5088294105,
				"element": "C" 
			},
			{
				"x": -0.790125784,
				"y": -2.8326629501,
				"z": -1.1573277209,
				"element": "O" 
			},
			{
				"x": -1.0642838392,
				"y": -0.5585510039,
				"z": -0.9585004354,
				"element": "N" 
			},
			{
				"x": -0.1460401476,
				"y": -0.3265609199,
				"z": 0.0679342195,
				"element": "C" 
			},
			{
				"x": 0.7686308989,
				"y": -1.1597198591,
				"z": 0.6813854212,
				"element": "C" 
			},
			{
				"x": 1.4690020444,
				"y": -0.3167706751,
				"z": 1.5812305999,
				"element": "C" 
			},
			{
				"x": 1.0255835911,
				"y": 0.9371946623,
				"z": 1.5323868502,
				"element": "N" 
			},
			{
				"x": 0.0141421939,
				"y": 0.9265782528,
				"z": 0.6096182173,
				"element": "N" 
			},
			{
				"x": -0.6554252104,
				"y": 2.1376381124,
				"z": 0.2933704796,
				"element": "C" 
			},
			{
				"x": 0.0954696558,
				"y": 3.3119966033,
				"z": 0.1578467564,
				"element": "C" 
			},
			{
				"x": -0.5484549514,
				"y": 4.5087576839,
				"z": -0.1450031645,
				"element": "C" 
			},
			{
				"x": -1.9341469413,
				"y": 4.5435317758,
				"z": -0.3276025872,
				"element": "C" 
			},
			{
				"x": -2.6787906202,
				"y": 3.3735142087,
				"z": -0.1815721464,
				"element": "C" 
			},
			{
				"x": -2.0478543887,
				"y": 2.1709111461,
				"z": 0.1437765306,
				"element": "C" 
			},
			{
				"x": 2.5603687935,
				"y": -0.7123279414,
				"z": 2.5006171623,
				"element": "C" 
			},
			{
				"x": 2.6498233263,
				"y": -0.0977395547,
				"z": 3.8862833416,
				"element": "C" 
			},
			{
				"x": 3.6635664724,
				"y": 0.2709718857,
				"z": 2.8432587144,
				"element": "C" 
			},
			{
				"x": -1.7829086149,
				"y": -2.2029007582,
				"z": -3.553931895,
				"element": "H" 
			},
			{
				"x": -3.0832490128,
				"y": -2.5673246303,
				"z": -2.4046553577,
				"element": "H" 
			},
			{
				"x": -1.5350329826,
				"y": 0.2421148883,
				"z": -1.3626751177,
				"element": "H" 
			},
			{
				"x": 0.9030076471,
				"y": -2.2102238285,
				"z": 0.4890577239,
				"element": "H" 
			},
			{
				"x": 1.1683327327,
				"y": 3.2658657043,
				"z": 0.3024618835,
				"element": "H" 
			},
			{
				"x": 0.0363952268,
				"y": 5.4180556246,
				"z": -0.2477615632,
				"element": "H" 
			},
			{
				"x": -2.4291886799,
				"y": 5.4782463364,
				"z": -0.5724520794,
				"element": "H" 
			},
			{
				"x": -3.7580903797,
				"y": 3.393701131,
				"z": -0.2988724382,
				"element": "H" 
			},
			{
				"x": -2.6368935734,
				"y": 1.2759762797,
				"z": 0.3162147183,
				"element": "H" 
			},
			{
				"x": 2.847384086,
				"y": -1.7561754398,
				"z": 2.4133317446,
				"element": "H" 
			},
			{
				"x": 1.8918967003,
				"y": 0.6382612832,
				"z": 4.134401107,
				"element": "H" 
			},
			{
				"x": 2.9546204,
				"y": -0.7406309996,
				"z": 4.7068312002,
				"element": "H" 
			},
			{
				"x": 3.5867945148,
				"y": 1.2551959703,
				"z": 2.3925994351,
				"element": "H" 
			},
			{
				"x": 4.6743328193,
				"y": -0.1148843796,
				"z": 2.9375439841,
				"element": "H" 
			}
		],
		 "valence_orbital": [ 
			{
				"type": "occ",
				"energy": -0.27397,
				"method": "rhf"
			},
			{
				"type": "occ",
				"energy": -0.26992,
				"method": "rhf"
			},
			{
				"type": "occ",
				"energy": -0.26434,
				"method": "rhf"
			},
			{
				"type": "occ",
				"energy": -0.22687,
				"method": "rhf"
			},
			{
				"type": "occ",
				"energy": -0.21533,
				"method": "rhf"
			},
			{
				"type": "unocc",
				"energy": -0.02952,
				"method": "rhf"
			},
			{
				"type": "unocc",
				"energy": -0.01758,
				"method": "rhf"
			},
			{
				"type": "unocc",
				"energy": -0.00526,
				"method": "rhf"
			},
			{
				"type": "unocc",
				"energy": 0.00465,
				"method": "rhf"
			},
			{
				"type": "unocc",
				"energy": 0.04097,
				"method": "rhf"
			}
		],
		"cosmo_sigma_profile": { 
			"-0.025": 0.0,
			"-0.024": 0.0,
			"-0.023": 0.0,
			"-0.022": 0.0,
			"-0.021": 0.0,
			"-0.02": 0.0,
			"-0.019": 0.0,
			"-0.018": 0.0,
			"-0.017": 0.0,
			"-0.016": 0.0,
			"-0.015": 0.0,
			"-0.014": 0.0,
			"-0.013": 0.0,
			"-0.012": 0.0,
			"-0.011": 0.0611665847108,
			"-0.01": 1.8624456491,
			"-0.009": 4.93084829606,
			"-0.008": 4.61939589106,
			"-0.007": 9.69012728835,
			"-0.006": 15.6568589953,
			"-0.005": 23.6266079554,
			"-0.004": 25.0117444056,
			"-0.003": 20.4942455377,
			"-0.002": 19.7084882427,
			"-0.001": 19.6165874629,
			"0.0": 24.4323158529,
			"0.001": 20.3112176064,
			"0.002": 21.0690387034,
			"0.003": 23.6652310937,
			"0.004": 30.6517028089,
			"0.005": 21.0927980848,
			"0.006": 6.67162501991,
			"0.007": 3.16121471691,
			"0.008": 3.05925890509,
			"0.009": 2.71992794977,
			"0.01": 2.88251793658,
			"0.011": 3.39802127443,
			"0.012": 3.81040821234,
			"0.013": 1.29913886544,
			"0.014": 0.195601119701,
			"0.015": 0.0,
			"0.016": 0.0,
			"0.017": 0.0,
			"0.018": 0.0,
			"0.019": 0.0,
			"0.02": 0.0,
			"0.021": 0.0,
			"0.022": 0.0,
			"0.023": 0.0,
			"0.024": 0.0,
			"0.025": 0.0
		}
	}
}
