{
	 "smiles": "CC1=C(COC2=CC=C(C=O)C=C2)C(C)=NO1", 
	 "Tm": 381.15, 
	 "num_atms": 30, 
	 "gaussian": { 
		 "optdone": 1, 
		 "sigma_profile": "yes", 
		 "theory": "DFT", 
		 "functional": "B3LYP", 
		 "basiset": "6-31G**", 
		 "properties": { 
			 "R2extent": 5151.0796, 
			 "electric_dipole_moment_norm": 4.32870551204, 
			 "electric_quadrupole_moment_norm": 21.678487104, 
			 "total_energy": -783.585752389, 
			 "HOMO_LUMO_gap": 0.18268, 
			 "cosmo_polarized_energy": -16.32, 
			 "cosmo_cavitation_energy": 34.76, 
			 "cosmo_dispersion_energy": -23.97, 
			 "cosmo_repulsion_energy": 1.86, 
			 "cosmo_total_nonelectrostatic_energy": 12.64, 
			 "SMD_solvation_energy": 7.27 
		},
		"coords": [
			{
				"x": 3.0256771912,
				"y": 2.0021289036,
				"z": 1.9417993213,
				"element": "C" 
			},
			{
				"x": 2.6259149382,
				"y": 0.571574704,
				"z": 2.0670900729,
				"element": "C" 
			},
			{
				"x": 2.2754049429,
				"y": -0.4016979006,
				"z": 1.1726423862,
				"element": "C" 
			},
			{
				"x": 2.1968200627,
				"y": -0.336681591,
				"z": -0.3202534078,
				"element": "C" 
			},
			{
				"x": 0.9408845857,
				"y": -0.796282154,
				"z": -0.8487807519,
				"element": "O" 
			},
			{
				"x": -0.1604093715,
				"y": 0.0026990928,
				"z": -0.8116761764,
				"element": "C" 
			},
			{
				"x": -1.3228510607,
				"y": -0.5627452288,
				"z": -1.3639554946,
				"element": "C" 
			},
			{
				"x": -2.4982597357,
				"y": 0.1712165444,
				"z": -1.3998782074,
				"element": "C" 
			},
			{
				"x": -2.5426238938,
				"y": 1.4784044021,
				"z": -0.8885828347,
				"element": "C" 
			},
			{
				"x": -3.7937909417,
				"y": 2.256176121,
				"z": -0.9307833644,
				"element": "C" 
			},
			{
				"x": -3.9209846215,
				"y": 3.3941669587,
				"z": -0.5147622095,
				"element": "O" 
			},
			{
				"x": -1.3792345741,
				"y": 2.03172977,
				"z": -0.3364256868,
				"element": "C" 
			},
			{
				"x": -0.1937412286,
				"y": 1.3076286687,
				"z": -0.2911797678,
				"element": "C" 
			},
			{
				"x": 2.0337720226,
				"y": -1.5524581466,
				"z": 1.9983361125,
				"element": "C" 
			},
			{
				"x": 1.6212221962,
				"y": -2.9272735655,
				"z": 1.5736062764,
				"element": "C" 
			},
			{
				"x": 2.2174965803,
				"y": -1.2817570347,
				"z": 3.2685747111,
				"element": "N" 
			},
			{
				"x": 2.5998272923,
				"y": 0.0682556156,
				"z": 3.316901475,
				"element": "O" 
			},
			{
				"x": 3.0194684385,
				"y": 2.3201778859,
				"z": 0.8968993997,
				"element": "H" 
			},
			{
				"x": 4.0336995633,
				"y": 2.1591091624,
				"z": 2.3395533759,
				"element": "H" 
			},
			{
				"x": 2.344335481,
				"y": 2.6461139016,
				"z": 2.507533522,
				"element": "H" 
			},
			{
				"x": 2.9214539474,
				"y": -1.0181703366,
				"z": -0.7763402501,
				"element": "H" 
			},
			{
				"x": 2.4204893156,
				"y": 0.6716805658,
				"z": -0.6876665925,
				"element": "H" 
			},
			{
				"x": -1.2686043712,
				"y": -1.5714744015,
				"z": -1.7594607288,
				"element": "H" 
			},
			{
				"x": -3.3959711536,
				"y": -0.2673456259,
				"z": -1.8298000245,
				"element": "H" 
			},
			{
				"x": -4.655544492,
				"y": 1.7179827463,
				"z": -1.3870746124,
				"element": "H" 
			},
			{
				"x": -1.4279398458,
				"y": 3.0412520152,
				"z": 0.0599560991,
				"element": "H" 
			},
			{
				"x": 0.6865937095,
				"y": 1.7519482385,
				"z": 0.1538696127,
				"element": "H" 
			},
			{
				"x": 0.6746488445,
				"y": -2.8973633304,
				"z": 1.0269410388,
				"element": "H" 
			},
			{
				"x": 1.5119011487,
				"y": -3.5698479829,
				"z": 2.4492261618,
				"element": "H" 
			},
			{
				"x": 2.3690450295,
				"y": -3.3702479983,
				"z": 0.9062905442,
				"element": "H" 
			}
		],
		 "valence_orbital": [ 
			{
				"type": "occ",
				"energy": -0.28799,
				"method": "rhf"
			},
			{
				"type": "occ",
				"energy": -0.26991,
				"method": "rhf"
			},
			{
				"type": "occ",
				"energy": -0.25943,
				"method": "rhf"
			},
			{
				"type": "occ",
				"energy": -0.24932,
				"method": "rhf"
			},
			{
				"type": "occ",
				"energy": -0.23736,
				"method": "rhf"
			},
			{
				"type": "unocc",
				"energy": -0.05468,
				"method": "rhf"
			},
			{
				"type": "unocc",
				"energy": -0.01683,
				"method": "rhf"
			},
			{
				"type": "unocc",
				"energy": -0.01431,
				"method": "rhf"
			},
			{
				"type": "unocc",
				"energy": 0.0345,
				"method": "rhf"
			},
			{
				"type": "unocc",
				"energy": 0.04742,
				"method": "rhf"
			}
		],
		"cosmo_sigma_profile": { 
			"-0.025": 0.0,
			"-0.024": 0.0,
			"-0.023": 0.0,
			"-0.022": 0.0,
			"-0.021": 0.0,
			"-0.02": 0.0,
			"-0.019": 0.0,
			"-0.018": 0.0,
			"-0.017": 0.0,
			"-0.016": 0.0,
			"-0.015": 0.0,
			"-0.014": 0.0,
			"-0.013": 0.0275191049365,
			"-0.012": 0.175038042019,
			"-0.011": 0.31488530504,
			"-0.01": 0.472720687379,
			"-0.009": 1.42905051887,
			"-0.008": 2.70355963221,
			"-0.007": 10.1817864417,
			"-0.006": 21.0966167244,
			"-0.005": 24.1174602107,
			"-0.004": 22.685293959,
			"-0.003": 22.118996731,
			"-0.002": 21.4107015825,
			"-0.001": 20.0729812557,
			"0.0": 18.1250616133,
			"0.001": 18.4118141909,
			"0.002": 17.6199010115,
			"0.003": 18.0923417251,
			"0.004": 10.1232631533,
			"0.005": 5.63976344347,
			"0.006": 4.31426651483,
			"0.007": 5.263293431,
			"0.008": 7.26174091497,
			"0.009": 5.86972662437,
			"0.01": 4.04299708385,
			"0.011": 5.15384004593,
			"0.012": 5.35133421325,
			"0.013": 3.10001914426,
			"0.014": 1.48221157768,
			"0.015": 0.595479458891,
			"0.016": 0.0,
			"0.017": 0.0,
			"0.018": 0.0,
			"0.019": 0.0,
			"0.02": 0.0,
			"0.021": 0.0,
			"0.022": 0.0,
			"0.023": 0.0,
			"0.024": 0.0,
			"0.025": 0.0
		}
	}
}
