{
	 "smiles": "S=C=NC1=CC(OCC2=CC=CC=C2)=CC=C1", 
	 "Tm": 323.15, 
	 "num_atms": 28, 
	 "gaussian": { 
		 "optdone": 1, 
		 "sigma_profile": "yes", 
		 "theory": "DFT", 
		 "functional": "B3LYP", 
		 "basiset": "6-31G**", 
		 "properties": { 
			 "R2extent": 6267.7332, 
			 "electric_dipole_moment_norm": 3.56900376156, 
			 "electric_quadrupole_moment_norm": 21.1546454645, 
			 "total_energy": -1068.26862449, 
			 "HOMO_LUMO_gap": 0.17912, 
			 "cosmo_polarized_energy": -8.41, 
			 "cosmo_cavitation_energy": 35.71, 
			 "cosmo_dispersion_energy": -25.3, 
			 "cosmo_repulsion_energy": 1.97, 
			 "cosmo_total_nonelectrostatic_energy": 12.37, 
			 "SMD_solvation_energy": 6.76 
		},
		"coords": [
			{
				"x": 1.1323083863,
				"y": -3.3084920135,
				"z": -5.0809404511,
				"element": "S" 
			},
			{
				"x": 0.6806013899,
				"y": -2.0360085782,
				"z": -4.2310176785,
				"element": "C" 
			},
			{
				"x": 0.3445776146,
				"y": -1.0899947537,
				"z": -3.5996112959,
				"element": "N" 
			},
			{
				"x": -0.0360901465,
				"y": 0.0096627831,
				"z": -2.8681486882,
				"element": "C" 
			},
			{
				"x": 0.5004140259,
				"y": 0.1883488496,
				"z": -1.5802614617,
				"element": "C" 
			},
			{
				"x": 0.1151108981,
				"y": 1.3053828778,
				"z": -0.8356557152,
				"element": "C" 
			},
			{
				"x": 0.5755526274,
				"y": 1.5977766258,
				"z": 0.4158593676,
				"element": "O" 
			},
			{
				"x": 1.6117448812,
				"y": 0.7975879295,
				"z": 0.9894831923,
				"element": "C" 
			},
			{
				"x": 1.1371658234,
				"y": -0.5344055014,
				"z": 1.5368471669,
				"element": "C" 
			},
			{
				"x": 1.9921219951,
				"y": -1.642440375,
				"z": 1.5240441565,
				"element": "C" 
			},
			{
				"x": 1.586752197,
				"y": -2.8577313398,
				"z": 2.0789943136,
				"element": "C" 
			},
			{
				"x": 0.3168168828,
				"y": -2.9775654311,
				"z": 2.6450185681,
				"element": "C" 
			},
			{
				"x": -0.5429383321,
				"y": -1.8766048019,
				"z": 2.6559587478,
				"element": "C" 
			},
			{
				"x": -0.1343658742,
				"y": -0.660420882,
				"z": 2.1089420336,
				"element": "C" 
			},
			{
				"x": -0.8021465278,
				"y": 2.2253711656,
				"z": -1.3687310997,
				"element": "C" 
			},
			{
				"x": -1.3229239372,
				"y": 2.0274845333,
				"z": -2.6426506275,
				"element": "C" 
			},
			{
				"x": -0.9484212914,
				"y": 0.9240207907,
				"z": -3.4100041668,
				"element": "C" 
			},
			{
				"x": 1.1784001415,
				"y": -0.5571331193,
				"z": -1.1877392989,
				"element": "H" 
			},
			{
				"x": 2.4256438153,
				"y": 0.6531640381,
				"z": 0.2669657425,
				"element": "H" 
			},
			{
				"x": 2.0015989938,
				"y": 1.4215459038,
				"z": 1.8007715573,
				"element": "H" 
			},
			{
				"x": 2.9802487744,
				"y": -1.5566199223,
				"z": 1.0769380561,
				"element": "H" 
			},
			{
				"x": 2.2587898382,
				"y": -3.7108154752,
				"z": 2.0599274641,
				"element": "H" 
			},
			{
				"x": -0.0032328996,
				"y": -3.923991507,
				"z": 3.0709237926,
				"element": "H" 
			},
			{
				"x": -1.5339706848,
				"y": -1.9653282104,
				"z": 3.0919072959,
				"element": "H" 
			},
			{
				"x": -0.8023629313,
				"y": 0.1954316424,
				"z": 2.1131894973,
				"element": "H" 
			},
			{
				"x": -1.0826257259,
				"y": 3.083788527,
				"z": -0.7681255931,
				"element": "H" 
			},
			{
				"x": -2.0294493975,
				"y": 2.7449805766,
				"z": -3.0486033521,
				"element": "H" 
			},
			{
				"x": -1.3473205367,
				"y": 0.7615056678,
				"z": -4.4044815234,
				"element": "H" 
			}
		],
		 "valence_orbital": [ 
			{
				"type": "occ",
				"energy": -0.2583,
				"method": "rhf"
			},
			{
				"type": "occ",
				"energy": -0.25382,
				"method": "rhf"
			},
			{
				"type": "occ",
				"energy": -0.24811,
				"method": "rhf"
			},
			{
				"type": "occ",
				"energy": -0.2439,
				"method": "rhf"
			},
			{
				"type": "occ",
				"energy": -0.22322,
				"method": "rhf"
			},
			{
				"type": "unocc",
				"energy": -0.0441,
				"method": "rhf"
			},
			{
				"type": "unocc",
				"energy": -0.01305,
				"method": "rhf"
			},
			{
				"type": "unocc",
				"energy": -0.01067,
				"method": "rhf"
			},
			{
				"type": "unocc",
				"energy": -0.00565,
				"method": "rhf"
			},
			{
				"type": "unocc",
				"energy": 0.00883,
				"method": "rhf"
			}
		],
		"cosmo_sigma_profile": { 
			"-0.025": 0.0,
			"-0.024": 0.0,
			"-0.023": 0.0,
			"-0.022": 0.0,
			"-0.021": 0.0,
			"-0.02": 0.0,
			"-0.019": 0.0,
			"-0.018": 0.0,
			"-0.017": 0.0,
			"-0.016": 0.0,
			"-0.015": 0.0,
			"-0.014": 0.0,
			"-0.013": 0.0,
			"-0.012": 0.0,
			"-0.011": 0.0,
			"-0.01": 0.0,
			"-0.009": 0.00126425203986,
			"-0.008": 0.624931939151,
			"-0.007": 6.96917027565,
			"-0.006": 17.8211822852,
			"-0.005": 23.3157295942,
			"-0.004": 22.3345393753,
			"-0.003": 19.7504002153,
			"-0.002": 17.3502115257,
			"-0.001": 25.246836308,
			"0.0": 20.721189736,
			"0.001": 22.6937167495,
			"0.002": 22.5275982471,
			"0.003": 28.2462054908,
			"0.004": 19.7056069701,
			"0.005": 17.8991703768,
			"0.006": 19.3281075469,
			"0.007": 3.51542897625,
			"0.008": 1.3791774073,
			"0.009": 0.972995822394,
			"0.01": 0.31231689134,
			"0.011": 0.0,
			"0.012": 0.0,
			"0.013": 0.0,
			"0.014": 0.0,
			"0.015": 0.0,
			"0.016": 0.0,
			"0.017": 0.0,
			"0.018": 0.0,
			"0.019": 0.0,
			"0.02": 0.0,
			"0.021": 0.0,
			"0.022": 0.0,
			"0.023": 0.0,
			"0.024": 0.0,
			"0.025": 0.0
		}
	}
}
