{
	 "smiles": "CC1=C(C=NN1C1=NC=CC=C1)S(Cl)(=O)=O", 
	 "Tm": 327.15, 
	 "num_atms": 24, 
	 "gaussian": { 
		 "optdone": 1, 
		 "sigma_profile": "yes", 
		 "theory": "DFT", 
		 "functional": "B3LYP", 
		 "basiset": "6-31G**", 
		 "properties": { 
			 "R2extent": 6533.1312, 
			 "electric_dipole_moment_norm": 7.43138104123, 
			 "electric_quadrupole_moment_norm": 15.4946243368, 
			 "total_energy": -1520.77438821, 
			 "HOMO_LUMO_gap": 0.17953, 
			 "cosmo_polarized_energy": -10.4, 
			 "cosmo_cavitation_energy": 32.0, 
			 "cosmo_dispersion_energy": -23.77, 
			 "cosmo_repulsion_energy": 1.79, 
			 "cosmo_total_nonelectrostatic_energy": 10.02, 
			 "SMD_solvation_energy": 3.34 
		},
		"coords": [
			{
				"x": -1.5704371339,
				"y": -0.9982122791,
				"z": -0.6477868416,
				"element": "C" 
			},
			{
				"x": -1.5199712253,
				"y": -0.115842389,
				"z": 0.5558049877,
				"element": "C" 
			},
			{
				"x": -2.520031859,
				"y": 0.1744770574,
				"z": 1.4834034529,
				"element": "C" 
			},
			{
				"x": -1.9583104877,
				"y": 1.0610143757,
				"z": 2.4346573712,
				"element": "C" 
			},
			{
				"x": -0.7072403247,
				"y": 1.3292884888,
				"z": 2.1316025399,
				"element": "N" 
			},
			{
				"x": -0.4417429357,
				"y": 0.6099758038,
				"z": 0.9936036126,
				"element": "N" 
			},
			{
				"x": 0.8685349478,
				"y": 0.7215339882,
				"z": 0.4370496105,
				"element": "C" 
			},
			{
				"x": 1.1572602336,
				"y": -0.0930747857,
				"z": -0.5721153822,
				"element": "N" 
			},
			{
				"x": 2.3819036295,
				"y": -0.0073687328,
				"z": -1.1082338785,
				"element": "C" 
			},
			{
				"x": 3.3551661199,
				"y": 0.8799274164,
				"z": -0.6579502449,
				"element": "C" 
			},
			{
				"x": 3.0298733517,
				"y": 1.725261178,
				"z": 0.4059097272,
				"element": "C" 
			},
			{
				"x": 1.7630696677,
				"y": 1.6573785663,
				"z": 0.9740062867,
				"element": "C" 
			},
			{
				"x": -4.1636958238,
				"y": -0.408467825,
				"z": 1.5366990295,
				"element": "S" 
			},
			{
				"x": -3.9292121904,
				"y": -2.3584609781,
				"z": 2.389762199,
				"element": "Cl" 
			},
			{
				"x": -4.8914624748,
				"y": 0.377359864,
				"z": 2.5246434985,
				"element": "O" 
			},
			{
				"x": -4.6794141619,
				"y": -0.63550606,
				"z": 0.1912925584,
				"element": "O" 
			},
			{
				"x": -0.8800623077,
				"y": -1.8383069925,
				"z": -0.5432355288,
				"element": "H" 
			},
			{
				"x": -2.5872302747,
				"y": -1.3674372165,
				"z": -0.7787238881,
				"element": "H" 
			},
			{
				"x": -1.2653304678,
				"y": -0.4536983553,
				"z": -1.5439391457,
				"element": "H" 
			},
			{
				"x": -2.4355807917,
				"y": 1.500459974,
				"z": 3.2986510798,
				"element": "H" 
			},
			{
				"x": 2.5856544283,
				"y": -0.6862487514,
				"z": -1.9332878108,
				"element": "H" 
			},
			{
				"x": 4.333767266,
				"y": 0.9075201856,
				"z": -1.1248270034,
				"element": "H" 
			},
			{
				"x": 3.7558751406,
				"y": 2.4351105969,
				"z": 0.7905455638,
				"element": "H" 
			},
			{
				"x": 1.460817674,
				"y": 2.2885168704,
				"z": 1.7981682061,
				"element": "H" 
			}
		],
		 "valence_orbital": [ 
			{
				"type": "occ",
				"energy": -0.30855,
				"method": "rhf"
			},
			{
				"type": "occ",
				"energy": -0.30827,
				"method": "rhf"
			},
			{
				"type": "occ",
				"energy": -0.28969,
				"method": "rhf"
			},
			{
				"type": "occ",
				"energy": -0.27831,
				"method": "rhf"
			},
			{
				"type": "occ",
				"energy": -0.26291,
				"method": "rhf"
			},
			{
				"type": "unocc",
				"energy": -0.08338,
				"method": "rhf"
			},
			{
				"type": "unocc",
				"energy": -0.0561,
				"method": "rhf"
			},
			{
				"type": "unocc",
				"energy": -0.04622,
				"method": "rhf"
			},
			{
				"type": "unocc",
				"energy": 0.00415,
				"method": "rhf"
			},
			{
				"type": "unocc",
				"energy": 0.01166,
				"method": "rhf"
			}
		],
		"cosmo_sigma_profile": { 
			"-0.025": 0.0,
			"-0.024": 0.0,
			"-0.023": 0.0,
			"-0.022": 0.0,
			"-0.021": 0.0,
			"-0.02": 0.0,
			"-0.019": 0.0,
			"-0.018": 0.0,
			"-0.017": 0.0,
			"-0.016": 0.0,
			"-0.015": 0.0,
			"-0.014": 0.0,
			"-0.013": 0.0,
			"-0.012": 0.0,
			"-0.011": 0.0,
			"-0.01": 0.593321788451,
			"-0.009": 1.56828199751,
			"-0.008": 3.20251625009,
			"-0.007": 9.17445258028,
			"-0.006": 12.2673214317,
			"-0.005": 14.7891778875,
			"-0.004": 16.9318022365,
			"-0.003": 18.2582695492,
			"-0.002": 23.2953527205,
			"-0.001": 22.5893876689,
			"0.0": 21.3459386173,
			"0.001": 24.2394662791,
			"0.002": 20.4325940179,
			"0.003": 17.9103170467,
			"0.004": 14.8089019269,
			"0.005": 8.49177060628,
			"0.006": 5.87164108919,
			"0.007": 7.78267561153,
			"0.008": 10.5771213217,
			"0.009": 5.92577493907,
			"0.01": 0.428032703703,
			"0.011": 0.0,
			"0.012": 0.0,
			"0.013": 0.0,
			"0.014": 0.0,
			"0.015": 0.0,
			"0.016": 0.0,
			"0.017": 0.0,
			"0.018": 0.0,
			"0.019": 0.0,
			"0.02": 0.0,
			"0.021": 0.0,
			"0.022": 0.0,
			"0.023": 0.0,
			"0.024": 0.0,
			"0.025": 0.0
		}
	}
}
