{
	 "smiles": "CCN1C(=O)C(=O)NC2=C1C=CC(=C2)C(O)=O", 
	 "Tm": 551.15, 
	 "num_atms": 27, 
	 "gaussian": { 
		 "optdone": 1, 
		 "sigma_profile": "yes", 
		 "theory": "DFT", 
		 "functional": "B3LYP", 
		 "basiset": "6-31G**", 
		 "properties": { 
			 "R2extent": 4991.2662, 
			 "electric_dipole_moment_norm": 5.66181471262, 
			 "electric_quadrupole_moment_norm": 11.1131506703, 
			 "total_energy": -835.648992185, 
			 "HOMO_LUMO_gap": 0.16512, 
			 "cosmo_polarized_energy": -23.41, 
			 "cosmo_cavitation_energy": 31.69, 
			 "cosmo_dispersion_energy": -23.12, 
			 "cosmo_repulsion_energy": 1.76, 
			 "cosmo_total_nonelectrostatic_energy": 10.33, 
			 "SMD_solvation_energy": 7.85 
		},
		"coords": [
			{
				"x": -2.8128310232,
				"y": -0.4311506358,
				"z": -0.5724552943,
				"element": "C" 
			},
			{
				"x": -2.0863509295,
				"y": 0.8907275129,
				"z": -0.317446546,
				"element": "C" 
			},
			{
				"x": -0.8782957447,
				"y": 0.7305061913,
				"z": 0.5161671936,
				"element": "N" 
			},
			{
				"x": -1.0618621023,
				"y": 0.9054282624,
				"z": 1.8882417328,
				"element": "C" 
			},
			{
				"x": -2.1503035497,
				"y": 1.1515052125,
				"z": 2.3737847542,
				"element": "O" 
			},
			{
				"x": 0.1726190933,
				"y": 0.798876558,
				"z": 2.7871591279,
				"element": "C" 
			},
			{
				"x": 0.105065262,
				"y": 0.9779613772,
				"z": 3.9869126756,
				"element": "O" 
			},
			{
				"x": 1.3472549632,
				"y": 0.4916703023,
				"z": 2.1416638286,
				"element": "N" 
			},
			{
				"x": 1.4894383042,
				"y": 0.2615704048,
				"z": 0.7756662817,
				"element": "C" 
			},
			{
				"x": 0.3507123546,
				"y": 0.3745987257,
				"z": -0.0563675632,
				"element": "C" 
			},
			{
				"x": 0.5041280159,
				"y": 0.1249669152,
				"z": -1.4309262828,
				"element": "C" 
			},
			{
				"x": 1.7430562518,
				"y": -0.2094679233,
				"z": -1.9649355556,
				"element": "C" 
			},
			{
				"x": 2.8658976653,
				"y": -0.3083838293,
				"z": -1.1337961562,
				"element": "C" 
			},
			{
				"x": 2.7277717171,
				"y": -0.0731483348,
				"z": 0.2361864639,
				"element": "C" 
			},
			{
				"x": 4.2148046484,
				"y": -0.6605224789,
				"z": -1.6409954654,
				"element": "C" 
			},
			{
				"x": 4.2398003418,
				"y": -0.8699756058,
				"z": -2.9806487918,
				"element": "O" 
			},
			{
				"x": 5.2112622758,
				"y": -0.757090867,
				"z": -0.9509686078,
				"element": "O" 
			},
			{
				"x": -3.6948338624,
				"y": -0.2553264824,
				"z": -1.1962885689,
				"element": "H" 
			},
			{
				"x": -2.1737125483,
				"y": -1.1584559863,
				"z": -1.081797139,
				"element": "H" 
			},
			{
				"x": -3.1464607103,
				"y": -0.8651672711,
				"z": 0.3735575073,
				"element": "H" 
			},
			{
				"x": -2.7380194762,
				"y": 1.5719027963,
				"z": 0.2293940602,
				"element": "H" 
			},
			{
				"x": -1.7931218008,
				"y": 1.3804389925,
				"z": -1.2488717466,
				"element": "H" 
			},
			{
				"x": 2.1613485444,
				"y": 0.4199286537,
				"z": 2.7408644536,
				"element": "H" 
			},
			{
				"x": -0.3506153819,
				"y": 0.1832163981,
				"z": -2.0915051478,
				"element": "H" 
			},
			{
				"x": 1.8399473447,
				"y": -0.3974339602,
				"z": -3.0273220183,
				"element": "H" 
			},
			{
				"x": 3.6029085708,
				"y": -0.1559331363,
				"z": 0.8731605151,
				"element": "H" 
			},
			{
				"x": 5.1606917762,
				"y": -1.0901417914,
				"z": -3.1970337109,
				"element": "H" 
			}
		],
		 "valence_orbital": [ 
			{
				"type": "occ",
				"energy": -0.29279,
				"method": "rhf"
			},
			{
				"type": "occ",
				"energy": -0.28707,
				"method": "rhf"
			},
			{
				"type": "occ",
				"energy": -0.26556,
				"method": "rhf"
			},
			{
				"type": "occ",
				"energy": -0.26009,
				"method": "rhf"
			},
			{
				"type": "occ",
				"energy": -0.23113,
				"method": "rhf"
			},
			{
				"type": "unocc",
				"energy": -0.06601,
				"method": "rhf"
			},
			{
				"type": "unocc",
				"energy": -0.04888,
				"method": "rhf"
			},
			{
				"type": "unocc",
				"energy": -0.01949,
				"method": "rhf"
			},
			{
				"type": "unocc",
				"energy": 0.03682,
				"method": "rhf"
			},
			{
				"type": "unocc",
				"energy": 0.067,
				"method": "rhf"
			}
		],
		"cosmo_sigma_profile": { 
			"-0.025": 0.0,
			"-0.024": 0.0,
			"-0.023": 0.0,
			"-0.022": 0.0,
			"-0.021": 0.0,
			"-0.02": 0.0,
			"-0.019": 0.132587003714,
			"-0.018": 1.07349596577,
			"-0.017": 1.03415263877,
			"-0.016": 1.97985146353,
			"-0.015": 2.33899420141,
			"-0.014": 2.24335743879,
			"-0.013": 1.58029115249,
			"-0.012": 1.51418668552,
			"-0.011": 1.75533217801,
			"-0.01": 1.84081698933,
			"-0.009": 3.09185931942,
			"-0.008": 4.66040715046,
			"-0.007": 8.56973895368,
			"-0.006": 10.0510557532,
			"-0.005": 11.3894419071,
			"-0.004": 17.3604306811,
			"-0.003": 22.1997669633,
			"-0.002": 21.7330117971,
			"-0.001": 19.272737486,
			"0.0": 18.4510572961,
			"0.001": 16.9416395618,
			"0.002": 13.2375260976,
			"0.003": 8.07352458275,
			"0.004": 4.37062792347,
			"0.005": 5.94973078764,
			"0.006": 4.4424349648,
			"0.007": 4.34784897614,
			"0.008": 4.44573529062,
			"0.009": 4.10651675693,
			"0.01": 5.29050344181,
			"0.011": 9.81347906812,
			"0.012": 12.4220445861,
			"0.013": 3.47699313749,
			"0.014": 1.93851315005,
			"0.015": 1.55970991521,
			"0.016": 0.209897755656,
			"0.017": 0.0,
			"0.018": 0.0,
			"0.019": 0.0,
			"0.02": 0.0,
			"0.021": 0.0,
			"0.022": 0.0,
			"0.023": 0.0,
			"0.024": 0.0,
			"0.025": 0.0
		}
	}
}
