{
	 "smiles": "OC1CCNCC2=C1C=CC=C2", 
	 "Tm": 413.15, 
	 "num_atms": 25, 
	 "gaussian": { 
		 "optdone": 1, 
		 "sigma_profile": "yes", 
		 "theory": "DFT", 
		 "functional": "B3LYP", 
		 "basiset": "6-31G**", 
		 "properties": { 
			 "R2extent": 2001.5041, 
			 "electric_dipole_moment_norm": 1.59961726985, 
			 "electric_quadrupole_moment_norm": 9.0707366735, 
			 "total_energy": -518.853148576, 
			 "HOMO_LUMO_gap": 0.20875, 
			 "cosmo_polarized_energy": -10.86, 
			 "cosmo_cavitation_energy": 25.85, 
			 "cosmo_dispersion_energy": -19.42, 
			 "cosmo_repulsion_energy": 1.54, 
			 "cosmo_total_nonelectrostatic_energy": 7.98, 
			 "SMD_solvation_energy": 1.53 
		},
		"coords": [
			{
				"x": 1.0461504912,
				"y": 1.8356274727,
				"z": -1.2909007039,
				"element": "O" 
			},
			{
				"x": 1.2247708654,
				"y": 1.188265004,
				"z": -0.0211252284,
				"element": "C" 
			},
			{
				"x": 1.0478455858,
				"y": 2.192748664,
				"z": 1.1665651179,
				"element": "C" 
			},
			{
				"x": -0.0559854327,
				"y": 1.8721780618,
				"z": 2.1807149136,
				"element": "C" 
			},
			{
				"x": -1.3986147977,
				"y": 2.1426667823,
				"z": 1.6535062304,
				"element": "N" 
			},
			{
				"x": -1.6572488108,
				"y": 1.5809501881,
				"z": 0.3114449131,
				"element": "C" 
			},
			{
				"x": -1.1132751179,
				"y": 0.1810383536,
				"z": 0.1017190943,
				"element": "C" 
			},
			{
				"x": 0.2810436265,
				"y": -0.0037787097,
				"z": -0.0066426573,
				"element": "C" 
			},
			{
				"x": 0.7917884393,
				"y": -1.2973532833,
				"z": -0.1401797467,
				"element": "C" 
			},
			{
				"x": -0.0550184672,
				"y": -2.4077450578,
				"z": -0.1694459043,
				"element": "C" 
			},
			{
				"x": -1.4329309402,
				"y": -2.2258182942,
				"z": -0.0646617634,
				"element": "C" 
			},
			{
				"x": -1.9519254441,
				"y": -0.9363979354,
				"z": 0.0746749362,
				"element": "C" 
			},
			{
				"x": 1.63599711,
				"y": 2.6014048549,
				"z": -1.3109811849,
				"element": "H" 
			},
			{
				"x": 2.2487810312,
				"y": 0.7884553729,
				"z": 0.0290404821,
				"element": "H" 
			},
			{
				"x": 1.9940515843,
				"y": 2.2565733031,
				"z": 1.7158745519,
				"element": "H" 
			},
			{
				"x": 0.8540558322,
				"y": 3.1883161849,
				"z": 0.7481247401,
				"element": "H" 
			},
			{
				"x": 0.0832150504,
				"y": 2.5032080806,
				"z": 3.0669951731,
				"element": "H" 
			},
			{
				"x": 0.0779389888,
				"y": 0.8276885989,
				"z": 2.5118619229,
				"element": "H" 
			},
			{
				"x": -2.0766110101,
				"y": 1.7549398392,
				"z": 2.3050593095,
				"element": "H" 
			},
			{
				"x": -1.2096767822,
				"y": 2.247257257,
				"z": -0.4318299562,
				"element": "H" 
			},
			{
				"x": -2.7394953832,
				"y": 1.5986809277,
				"z": 0.1498911057,
				"element": "H" 
			},
			{
				"x": 1.8665385667,
				"y": -1.4373330521,
				"z": -0.2293464823,
				"element": "H" 
			},
			{
				"x": 0.3605379351,
				"y": -3.4054207655,
				"z": -0.2783211263,
				"element": "H" 
			},
			{
				"x": -2.10212421,
				"y": -3.0813742279,
				"z": -0.0911501425,
				"element": "H" 
			},
			{
				"x": -3.027208711,
				"y": -0.79337762,
				"z": 0.1583124054,
				"element": "H" 
			}
		],
		 "valence_orbital": [ 
			{
				"type": "occ",
				"energy": -0.31022,
				"method": "rhf"
			},
			{
				"type": "occ",
				"energy": -0.26371,
				"method": "rhf"
			},
			{
				"type": "occ",
				"energy": -0.24585,
				"method": "rhf"
			},
			{
				"type": "occ",
				"energy": -0.23856,
				"method": "rhf"
			},
			{
				"type": "occ",
				"energy": -0.21301,
				"method": "rhf"
			},
			{
				"type": "unocc",
				"energy": -0.00426,
				"method": "rhf"
			},
			{
				"type": "unocc",
				"energy": 0.00431,
				"method": "rhf"
			},
			{
				"type": "unocc",
				"energy": 0.07839,
				"method": "rhf"
			},
			{
				"type": "unocc",
				"energy": 0.09109,
				"method": "rhf"
			},
			{
				"type": "unocc",
				"energy": 0.10583,
				"method": "rhf"
			}
		],
		"cosmo_sigma_profile": { 
			"-0.025": 0.0,
			"-0.024": 0.0,
			"-0.023": 0.0,
			"-0.022": 0.0,
			"-0.021": 0.0,
			"-0.02": 0.0,
			"-0.019": 0.0,
			"-0.018": 0.0,
			"-0.017": 0.0,
			"-0.016": 0.0314669385163,
			"-0.015": 1.13219676913,
			"-0.014": 0.570571173269,
			"-0.013": 0.715592373188,
			"-0.012": 1.08943802102,
			"-0.011": 0.839467300845,
			"-0.01": 1.42235228638,
			"-0.009": 2.36340917325,
			"-0.008": 2.04080728449,
			"-0.007": 2.0646350297,
			"-0.006": 4.70112497246,
			"-0.005": 14.0485766562,
			"-0.004": 20.4750014757,
			"-0.003": 21.5935478734,
			"-0.002": 17.8871417174,
			"-0.001": 19.6924903097,
			"0.0": 14.4481356906,
			"0.001": 10.4691328815,
			"0.002": 9.74849213109,
			"0.003": 8.21737995494,
			"0.004": 8.46727574072,
			"0.005": 8.99993077917,
			"0.006": 9.99088712562,
			"0.007": 3.81459198815,
			"0.008": 2.59130162433,
			"0.009": 2.423505712,
			"0.01": 2.04069262263,
			"0.011": 1.25056788133,
			"0.012": 1.96299844451,
			"0.013": 2.67759264928,
			"0.014": 1.74569027752,
			"0.015": 1.14707744079,
			"0.016": 0.205252576046,
			"0.017": 0.578155239856,
			"0.018": 0.627958363396,
			"0.019": 0.0874771007012,
			"0.02": 0.0,
			"0.021": 0.0,
			"0.022": 0.0,
			"0.023": 0.0,
			"0.024": 0.0,
			"0.025": 0.0
		}
	}
}
