{
	 "smiles": "ClCC1=CSC(=N1)C1=NC=CC=C1", 
	 "Tm": 359.15, 
	 "num_atms": 20, 
	 "gaussian": { 
		 "optdone": 1, 
		 "sigma_profile": "yes", 
		 "theory": "DFT", 
		 "functional": "B3LYP", 
		 "basiset": "6-31G**", 
		 "properties": { 
			 "R2extent": 4197.3796, 
			 "electric_dipole_moment_norm": 2.68633775985, 
			 "electric_quadrupole_moment_norm": 14.5930497988, 
			 "total_energy": -1315.05902867, 
			 "HOMO_LUMO_gap": 0.16839, 
			 "cosmo_polarized_energy": -10.28, 
			 "cosmo_cavitation_energy": 28.32, 
			 "cosmo_dispersion_energy": -21.43, 
			 "cosmo_repulsion_energy": 1.67, 
			 "cosmo_total_nonelectrostatic_energy": 8.56, 
			 "SMD_solvation_energy": 1.99 
		},
		"coords": [
			{
				"x": -0.9093557321,
				"y": 0.7363383542,
				"z": 4.5413586886,
				"element": "Cl" 
			},
			{
				"x": 0.4549590646,
				"y": -0.3984478577,
				"z": 4.0733913808,
				"element": "C" 
			},
			{
				"x": 0.8409559856,
				"y": -0.2672467704,
				"z": 2.639873338,
				"element": "C" 
			},
			{
				"x": 1.9085320286,
				"y": 0.4538759615,
				"z": 2.1664874938,
				"element": "C" 
			},
			{
				"x": 2.0076142884,
				"y": 0.3412430732,
				"z": 0.4463721263,
				"element": "S" 
			},
			{
				"x": 0.5786911259,
				"y": -0.6871867819,
				"z": 0.482904735,
				"element": "C" 
			},
			{
				"x": 0.0989929938,
				"y": -0.9086055513,
				"z": 1.6762564287,
				"element": "N" 
			},
			{
				"x": 0.0217947631,
				"y": -1.2268031288,
				"z": -0.7639305851,
				"element": "C" 
			},
			{
				"x": 0.6726051126,
				"y": -0.8988454741,
				"z": -1.8927928727,
				"element": "N" 
			},
			{
				"x": 0.1948488902,
				"y": -1.3693786069,
				"z": -3.0469585229,
				"element": "C" 
			},
			{
				"x": -0.9393219208,
				"y": -2.1797165437,
				"z": -3.1371337828,
				"element": "C" 
			},
			{
				"x": -1.6090816296,
				"y": -2.5145097811,
				"z": -1.9591059576,
				"element": "C" 
			},
			{
				"x": -1.1257943513,
				"y": -2.0327758342,
				"z": -0.7465679057,
				"element": "C" 
			},
			{
				"x": 0.0837602801,
				"y": -1.4006214174,
				"z": 4.2851482804,
				"element": "H" 
			},
			{
				"x": 1.2829596234,
				"y": -0.1573014188,
				"z": 4.7388486855,
				"element": "H" 
			},
			{
				"x": 2.619336374,
				"y": 1.0373542965,
				"z": 2.7351232128,
				"element": "H" 
			},
			{
				"x": 0.7437261011,
				"y": -1.0857308041,
				"z": -3.9428419635,
				"element": "H" 
			},
			{
				"x": -1.2836928421,
				"y": -2.5342146794,
				"z": -4.1031834833,
				"element": "H" 
			},
			{
				"x": -2.4958537593,
				"y": -3.141048719,
				"z": -1.9853300905,
				"element": "H" 
			},
			{
				"x": -1.6049763961,
				"y": -2.2572783166,
				"z": 0.1992807941,
				"element": "H" 
			}
		],
		 "valence_orbital": [ 
			{
				"type": "occ",
				"energy": -0.29112,
				"method": "rhf"
			},
			{
				"type": "occ",
				"energy": -0.28562,
				"method": "rhf"
			},
			{
				"type": "occ",
				"energy": -0.27838,
				"method": "rhf"
			},
			{
				"type": "occ",
				"energy": -0.26944,
				"method": "rhf"
			},
			{
				"type": "occ",
				"energy": -0.2346,
				"method": "rhf"
			},
			{
				"type": "unocc",
				"energy": -0.06621,
				"method": "rhf"
			},
			{
				"type": "unocc",
				"energy": -0.02948,
				"method": "rhf"
			},
			{
				"type": "unocc",
				"energy": -0.01569,
				"method": "rhf"
			},
			{
				"type": "unocc",
				"energy": 0.02419,
				"method": "rhf"
			},
			{
				"type": "unocc",
				"energy": 0.03259,
				"method": "rhf"
			}
		],
		"cosmo_sigma_profile": { 
			"-0.025": 0.0,
			"-0.024": 0.0,
			"-0.023": 0.0,
			"-0.022": 0.0,
			"-0.021": 0.0,
			"-0.02": 0.0,
			"-0.019": 0.0,
			"-0.018": 0.0,
			"-0.017": 0.0,
			"-0.016": 0.0,
			"-0.015": 0.0,
			"-0.014": 0.0,
			"-0.013": 0.0,
			"-0.012": 0.0,
			"-0.011": 0.0,
			"-0.01": 0.926427212174,
			"-0.009": 3.85206409374,
			"-0.008": 6.87481454441,
			"-0.007": 11.8961424449,
			"-0.006": 14.5971805263,
			"-0.005": 13.3572807623,
			"-0.004": 10.7345600486,
			"-0.003": 10.0085972475,
			"-0.002": 8.55772178667,
			"-0.001": 12.1838194614,
			"0.0": 21.1085372563,
			"0.001": 28.7754266236,
			"0.002": 26.1767907995,
			"0.003": 13.2021599033,
			"0.004": 8.49804412879,
			"0.005": 9.74451363191,
			"0.006": 13.0879274265,
			"0.007": 8.98872175048,
			"0.008": 2.82791034846,
			"0.009": 2.83267327617,
			"0.01": 2.48793617878,
			"0.011": 1.31584477589,
			"0.012": 0.58211506732,
			"0.013": 0.0,
			"0.014": 0.0,
			"0.015": 0.0,
			"0.016": 0.0,
			"0.017": 0.0,
			"0.018": 0.0,
			"0.019": 0.0,
			"0.02": 0.0,
			"0.021": 0.0,
			"0.022": 0.0,
			"0.023": 0.0,
			"0.024": 0.0,
			"0.025": 0.0
		}
	}
}
