{
	 "smiles": "CSC1=NC2=C(N1)C=CC(=C2)[N+]([O-])=O", 
	 "Tm": 485.15, 
	 "num_atms": 21, 
	 "gaussian": { 
		 "optdone": 1, 
		 "sigma_profile": "yes", 
		 "theory": "DFT", 
		 "functional": "B3LYP", 
		 "basiset": "6-31G**", 
		 "properties": { 
			 "R2extent": 4101.8574, 
			 "electric_dipole_moment_norm": 6.89498087815, 
			 "electric_quadrupole_moment_norm": 19.7634993002, 
			 "total_energy": -1021.8731935, 
			 "HOMO_LUMO_gap": 0.15423, 
			 "cosmo_polarized_energy": -16.55, 
			 "cosmo_cavitation_energy": 28.04, 
			 "cosmo_dispersion_energy": -21.39, 
			 "cosmo_repulsion_energy": 1.62, 
			 "cosmo_total_nonelectrostatic_energy": 8.28, 
			 "SMD_solvation_energy": 5.31 
		},
		"coords": [
			{
				"x": -1.7635833157,
				"y": -3.5175574805,
				"z": 1.7655005007,
				"element": "C" 
			},
			{
				"x": -1.5421740297,
				"y": -1.9397355901,
				"z": 2.658722745,
				"element": "S" 
			},
			{
				"x": -0.7293760272,
				"y": -1.0172826662,
				"z": 1.4017839181,
				"element": "C" 
			},
			{
				"x": -0.4191602055,
				"y": -1.4382866742,
				"z": 0.2018021231,
				"element": "N" 
			},
			{
				"x": 0.2018337989,
				"y": -0.3530566279,
				"z": -0.4041698225,
				"element": "C" 
			},
			{
				"x": 0.2548878803,
				"y": 0.7511063905,
				"z": 0.4863275162,
				"element": "C" 
			},
			{
				"x": -0.3515919686,
				"y": 0.294002839,
				"z": 1.6395795816,
				"element": "N" 
			},
			{
				"x": 0.8271796314,
				"y": 1.9760729739,
				"z": 0.1374763051,
				"element": "C" 
			},
			{
				"x": 1.3572769076,
				"y": 2.0831905432,
				"z": -1.1428558078,
				"element": "C" 
			},
			{
				"x": 1.3029586741,
				"y": 0.9876513914,
				"z": -2.0220185711,
				"element": "C" 
			},
			{
				"x": 0.7351079808,
				"y": -0.2395349002,
				"z": -1.6868696525,
				"element": "C" 
			},
			{
				"x": 1.8757588389,
				"y": 1.1471408901,
				"z": -3.3646360644,
				"element": "N" 
			},
			{
				"x": 1.824604475,
				"y": 0.1828619881,
				"z": -4.1290246056,
				"element": "O" 
			},
			{
				"x": 2.3760858174,
				"y": 2.2363483699,
				"z": -3.6512129626,
				"element": "O" 
			},
			{
				"x": -2.2707293773,
				"y": -4.1843229279,
				"z": 2.464959935,
				"element": "H" 
			},
			{
				"x": -0.7945214506,
				"y": -3.9278380555,
				"z": 1.4827579987,
				"element": "H" 
			},
			{
				"x": -2.3739554958,
				"y": -3.3628158628,
				"z": 0.8762011465,
				"element": "H" 
			},
			{
				"x": -0.4951711654,
				"y": 0.810090051,
				"z": 2.4942325014,
				"element": "H" 
			},
			{
				"x": 0.8622150793,
				"y": 2.813560906,
				"z": 0.826488581,
				"element": "H" 
			},
			{
				"x": 1.8174075795,
				"y": 3.0003180089,
				"z": -1.4864465191,
				"element": "H" 
			},
			{
				"x": 0.7156463723,
				"y": -1.0558135667,
				"z": -2.3966988468,
				"element": "H" 
			}
		],
		 "valence_orbital": [ 
			{
				"type": "occ",
				"energy": -0.29654,
				"method": "rhf"
			},
			{
				"type": "occ",
				"energy": -0.29034,
				"method": "rhf"
			},
			{
				"type": "occ",
				"energy": -0.28001,
				"method": "rhf"
			},
			{
				"type": "occ",
				"energy": -0.25478,
				"method": "rhf"
			},
			{
				"type": "occ",
				"energy": -0.23104,
				"method": "rhf"
			},
			{
				"type": "unocc",
				"energy": -0.07681,
				"method": "rhf"
			},
			{
				"type": "unocc",
				"energy": -0.03343,
				"method": "rhf"
			},
			{
				"type": "unocc",
				"energy": 0.00086,
				"method": "rhf"
			},
			{
				"type": "unocc",
				"energy": 0.01994,
				"method": "rhf"
			},
			{
				"type": "unocc",
				"energy": 0.03611,
				"method": "rhf"
			}
		],
		"cosmo_sigma_profile": { 
			"-0.025": 0.0,
			"-0.024": 0.0,
			"-0.023": 0.0,
			"-0.022": 0.0,
			"-0.021": 0.0,
			"-0.02": 0.0,
			"-0.019": 0.0,
			"-0.018": 0.512653600611,
			"-0.017": 1.53338576791,
			"-0.016": 1.60419418757,
			"-0.015": 1.16249783918,
			"-0.014": 1.45260569646,
			"-0.013": 1.25366857259,
			"-0.012": 1.46241017362,
			"-0.011": 1.13736027571,
			"-0.01": 1.25557983785,
			"-0.009": 1.55083072579,
			"-0.008": 4.17180758044,
			"-0.007": 7.59102787612,
			"-0.006": 9.61626925582,
			"-0.005": 10.9034552225,
			"-0.004": 12.5193334548,
			"-0.003": 12.9227045429,
			"-0.002": 14.775926395,
			"-0.001": 15.9415311907,
			"0.0": 20.5781154778,
			"0.001": 20.3487748969,
			"0.002": 17.0141357155,
			"0.003": 11.1564826174,
			"0.004": 7.56920458695,
			"0.005": 7.34225309782,
			"0.006": 7.34427641332,
			"0.007": 8.05369078575,
			"0.008": 11.1508184042,
			"0.009": 5.40379327203,
			"0.01": 5.48807336898,
			"0.011": 1.70279614771,
			"0.012": 1.47325272393,
			"0.013": 0.463972227025,
			"0.014": 0.70033270398,
			"0.015": 0.0589017451756,
			"0.016": 0.0,
			"0.017": 0.0,
			"0.018": 0.0,
			"0.019": 0.0,
			"0.02": 0.0,
			"0.021": 0.0,
			"0.022": 0.0,
			"0.023": 0.0,
			"0.024": 0.0,
			"0.025": 0.0
		}
	}
}
