{
	 "smiles": "[O-][N+](=O)C1=CC2=[N+]([O-])C3(CCCC3)[N+]([O-])=C2C=C1", 
	 "Tm": 422.15, 
	 "num_atms": 29, 
	 "gaussian": { 
		 "optdone": 1, 
		 "sigma_profile": "yes", 
		 "theory": "DFT", 
		 "functional": "B3LYP", 
		 "basiset": "6-31G**", 
		 "properties": { 
			 "R2extent": 5350.338, 
			 "electric_dipole_moment_norm": 4.24526728487, 
			 "electric_quadrupole_moment_norm": 14.7103098414, 
			 "total_energy": -890.711469099, 
			 "HOMO_LUMO_gap": 0.07139, 
			 "cosmo_polarized_energy": -14.82, 
			 "cosmo_cavitation_energy": 33.16, 
			 "cosmo_dispersion_energy": -23.66, 
			 "cosmo_repulsion_energy": 1.79, 
			 "cosmo_total_nonelectrostatic_energy": 11.29, 
			 "SMD_solvation_energy": 8.77 
		},
		"coords": [
			{
				"x": -3.34840807,
				"y": 3.8884879453,
				"z": 0.1008285553,
				"element": "O" 
			},
			{
				"x": -2.883371203,
				"y": 3.6310634137,
				"z": 1.2108561862,
				"element": "N" 
			},
			{
				"x": -3.1100178782,
				"y": 4.2748153966,
				"z": 2.2365966616,
				"element": "O" 
			},
			{
				"x": -1.9901772598,
				"y": 2.4709979207,
				"z": 1.3296163796,
				"element": "C" 
			},
			{
				"x": -1.7243734303,
				"y": 1.7420645439,
				"z": 0.2024400485,
				"element": "C" 
			},
			{
				"x": -0.8595512531,
				"y": 0.6346376943,
				"z": 0.369945882,
				"element": "C" 
			},
			{
				"x": -0.4285067445,
				"y": -0.2494382012,
				"z": -0.5411718104,
				"element": "N" 
			},
			{
				"x": -0.6909886667,
				"y": -0.3235445727,
				"z": -1.7758222914,
				"element": "O" 
			},
			{
				"x": 0.473568463,
				"y": -1.2374125382,
				"z": 0.1274736666,
				"element": "C" 
			},
			{
				"x": -0.0594030805,
				"y": -2.6843843111,
				"z": -0.0313310718,
				"element": "C" 
			},
			{
				"x": 1.172716293,
				"y": -3.5183801068,
				"z": -0.4266485001,
				"element": "C" 
			},
			{
				"x": 2.0066553477,
				"y": -2.5378883936,
				"z": -1.2637589319,
				"element": "C" 
			},
			{
				"x": 1.9052801278,
				"y": -1.227805185,
				"z": -0.4643833693,
				"element": "C" 
			},
			{
				"x": 0.4719975942,
				"y": -0.7718261054,
				"z": 1.5486134726,
				"element": "N" 
			},
			{
				"x": 1.148136351,
				"y": -1.3776305912,
				"z": 2.4351151679,
				"element": "O" 
			},
			{
				"x": -0.302380664,
				"y": 0.3096836562,
				"z": 1.6603620328,
				"element": "C" 
			},
			{
				"x": -0.6105499187,
				"y": 1.1023118459,
				"z": 2.8033725555,
				"element": "C" 
			},
			{
				"x": -1.4448788654,
				"y": 2.1686560617,
				"z": 2.6313164887,
				"element": "C" 
			},
			{
				"x": -2.1493625734,
				"y": 1.9947369509,
				"z": -0.7600244314,
				"element": "H" 
			},
			{
				"x": -0.5559336581,
				"y": -3.0247345582,
				"z": 0.8795542155,
				"element": "H" 
			},
			{
				"x": -0.7837732088,
				"y": -2.6615676675,
				"z": -0.8516292043,
				"element": "H" 
			},
			{
				"x": 1.7250068605,
				"y": -3.8117157126,
				"z": 0.4725592581,
				"element": "H" 
			},
			{
				"x": 0.8952161515,
				"y": -4.427696611,
				"z": -0.9672707903,
				"element": "H" 
			},
			{
				"x": 3.0444238058,
				"y": -2.8545725501,
				"z": -1.4017783411,
				"element": "H" 
			},
			{
				"x": 1.5559641353,
				"y": -2.404919792,
				"z": -2.2531221337,
				"element": "H" 
			},
			{
				"x": 2.5865973346,
				"y": -1.2499578022,
				"z": 0.3925808194,
				"element": "H" 
			},
			{
				"x": 2.09207955,
				"y": -0.3254606861,
				"z": -1.050393061,
				"element": "H" 
			},
			{
				"x": -0.1826576165,
				"y": 0.8455765866,
				"z": 3.7649482631,
				"element": "H" 
			},
			{
				"x": -1.7208079235,
				"y": 2.8138033688,
				"z": 3.4547542833,
				"element": "H" 
			}
		],
		 "valence_orbital": [ 
			{
				"type": "occ",
				"energy": -0.29882,
				"method": "rhf"
			},
			{
				"type": "occ",
				"energy": -0.29833,
				"method": "rhf"
			},
			{
				"type": "occ",
				"energy": -0.29244,
				"method": "rhf"
			},
			{
				"type": "occ",
				"energy": -0.27167,
				"method": "rhf"
			},
			{
				"type": "occ",
				"energy": -0.20115,
				"method": "rhf"
			},
			{
				"type": "unocc",
				"energy": -0.12976,
				"method": "rhf"
			},
			{
				"type": "unocc",
				"energy": -0.08163,
				"method": "rhf"
			},
			{
				"type": "unocc",
				"energy": -0.01785,
				"method": "rhf"
			},
			{
				"type": "unocc",
				"energy": 0.00693,
				"method": "rhf"
			},
			{
				"type": "unocc",
				"energy": 0.05511,
				"method": "rhf"
			}
		],
		"cosmo_sigma_profile": { 
			"-0.025": 0.0,
			"-0.024": 0.0,
			"-0.023": 0.0,
			"-0.022": 0.0,
			"-0.021": 0.0,
			"-0.02": 0.0,
			"-0.019": 0.0,
			"-0.018": 0.0,
			"-0.017": 0.0,
			"-0.016": 0.0,
			"-0.015": 0.0,
			"-0.014": 0.0,
			"-0.013": 0.0,
			"-0.012": 0.0,
			"-0.011": 0.0,
			"-0.01": 0.0205811004919,
			"-0.009": 2.18893793838,
			"-0.008": 4.46780889701,
			"-0.007": 8.19789070422,
			"-0.006": 11.9513869261,
			"-0.005": 15.7415958846,
			"-0.004": 28.9795067819,
			"-0.003": 35.8431701943,
			"-0.002": 31.4903061392,
			"-0.001": 20.6904334405,
			"0.0": 15.7634197862,
			"0.001": 8.99789858145,
			"0.002": 6.38515066965,
			"0.003": 6.87683887765,
			"0.004": 5.4082944176,
			"0.005": 4.94603836719,
			"0.006": 7.29247366741,
			"0.007": 11.2067572276,
			"0.008": 8.5764493495,
			"0.009": 7.84952102453,
			"0.01": 8.11848593838,
			"0.011": 8.37216089404,
			"0.012": 4.05101048719,
			"0.013": 0.150341144833,
			"0.014": 0.0,
			"0.015": 0.0,
			"0.016": 0.0,
			"0.017": 0.0,
			"0.018": 0.0,
			"0.019": 0.0,
			"0.02": 0.0,
			"0.021": 0.0,
			"0.022": 0.0,
			"0.023": 0.0,
			"0.024": 0.0,
			"0.025": 0.0
		}
	}
}
