{
	 "smiles": "OC(=O)C1(CCCC1)C1=CC=C(Br)C=C1", 
	 "Tm": 450.15, 
	 "num_atms": 28, 
	 "gaussian": { 
		 "optdone": 1, 
		 "sigma_profile": "yes", 
		 "theory": "DFT", 
		 "functional": "B3LYP", 
		 "basiset": "6-31G**", 
		 "properties": { 
			 "R2extent": 7077.6078, 
			 "electric_dipole_moment_norm": 3.17571243818, 
			 "electric_quadrupole_moment_norm": 14.4462255548, 
			 "total_energy": -3186.97856675, 
			 "HOMO_LUMO_gap": 0.21499, 
			 "cosmo_polarized_energy": -12.48, 
			 "cosmo_cavitation_energy": 32.1, 
			 "cosmo_dispersion_energy": -23.46, 
			 "cosmo_repulsion_energy": 1.83, 
			 "cosmo_total_nonelectrostatic_energy": 10.47, 
			 "SMD_solvation_energy": 4.59 
		},
		"coords": [
			{
				"x": 2.2105222822,
				"y": 0.1572260999,
				"z": 1.2328969536,
				"element": "O" 
			},
			{
				"x": 0.9619635194,
				"y": 0.6523924297,
				"z": 1.4207803929,
				"element": "C" 
			},
			{
				"x": 0.7216779744,
				"y": 1.3342094068,
				"z": 2.3879299985,
				"element": "O" 
			},
			{
				"x": -0.0971187909,
				"y": 0.2262104506,
				"z": 0.374398994,
				"element": "C" 
			},
			{
				"x": -0.5738205153,
				"y": -1.2059292354,
				"z": 0.7596720864,
				"element": "C" 
			},
			{
				"x": -1.4876342375,
				"y": -0.9890703472,
				"z": 1.9769020207,
				"element": "C" 
			},
			{
				"x": -2.1909966912,
				"y": 0.3689770436,
				"z": 1.7165497268,
				"element": "C" 
			},
			{
				"x": -1.3903350661,
				"y": 1.0630608219,
				"z": 0.5820042216,
				"element": "C" 
			},
			{
				"x": 0.4914853247,
				"y": 0.3555865148,
				"z": -1.0294146261,
				"element": "C" 
			},
			{
				"x": 0.8669051525,
				"y": -0.7571376609,
				"z": -1.7968039588,
				"element": "C" 
			},
			{
				"x": 1.4250829899,
				"y": -0.609500862,
				"z": -3.070260033,
				"element": "C" 
			},
			{
				"x": 1.6137182078,
				"y": 0.6681691118,
				"z": -3.5866431206,
				"element": "C" 
			},
			{
				"x": 2.3713428591,
				"y": 0.8825816526,
				"z": -5.3260564119,
				"element": "Br" 
			},
			{
				"x": 1.2571130546,
				"y": 1.7962308432,
				"z": -2.8464094846,
				"element": "C" 
			},
			{
				"x": 0.7052452166,
				"y": 1.632259224,
				"z": -1.5788717422,
				"element": "C" 
			},
			{
				"x": 2.2635590643,
				"y": -0.2738078587,
				"z": 0.3653254294,
				"element": "H" 
			},
			{
				"x": -1.1501439793,
				"y": -1.6114215315,
				"z": -0.0805547121,
				"element": "H" 
			},
			{
				"x": 0.2503354187,
				"y": -1.8985216162,
				"z": 0.9611002609,
				"element": "H" 
			},
			{
				"x": -0.8856079751,
				"y": -0.9306442671,
				"z": 2.8883725095,
				"element": "H" 
			},
			{
				"x": -2.1921688471,
				"y": -1.8156918233,
				"z": 2.1070248773,
				"element": "H" 
			},
			{
				"x": -3.2324850713,
				"y": 0.2240892371,
				"z": 1.4129142833,
				"element": "H" 
			},
			{
				"x": -2.1980041745,
				"y": 0.9801323942,
				"z": 2.6213420971,
				"element": "H" 
			},
			{
				"x": -1.9576984412,
				"y": 1.0527192447,
				"z": -0.3539753841,
				"element": "H" 
			},
			{
				"x": -1.1580771684,
				"y": 2.1023306157,
				"z": 0.8226229375,
				"element": "H" 
			},
			{
				"x": 0.7157096725,
				"y": -1.7613773295,
				"z": -1.414280616,
				"element": "H" 
			},
			{
				"x": 1.7040807599,
				"y": -1.4809254125,
				"z": -3.651710254,
				"element": "H" 
			},
			{
				"x": 1.4113348936,
				"y": 2.7881474618,
				"z": -3.2557520968,
				"element": "H" 
			},
			{
				"x": 0.4364145676,
				"y": 2.515305392,
				"z": -1.0067043494,
				"element": "H" 
			}
		],
		 "valence_orbital": [ 
			{
				"type": "occ",
				"energy": -0.31367,
				"method": "rhf"
			},
			{
				"type": "occ",
				"energy": -0.29587,
				"method": "rhf"
			},
			{
				"type": "occ",
				"energy": -0.27796,
				"method": "rhf"
			},
			{
				"type": "occ",
				"energy": -0.27322,
				"method": "rhf"
			},
			{
				"type": "occ",
				"energy": -0.24782,
				"method": "rhf"
			},
			{
				"type": "unocc",
				"energy": -0.03283,
				"method": "rhf"
			},
			{
				"type": "unocc",
				"energy": -0.03097,
				"method": "rhf"
			},
			{
				"type": "unocc",
				"energy": -0.00238,
				"method": "rhf"
			},
			{
				"type": "unocc",
				"energy": 0.01059,
				"method": "rhf"
			},
			{
				"type": "unocc",
				"energy": 0.06863,
				"method": "rhf"
			}
		],
		"cosmo_sigma_profile": { 
			"-0.025": 0.0,
			"-0.024": 0.0,
			"-0.023": 0.0,
			"-0.022": 0.0,
			"-0.021": 0.0,
			"-0.02": 0.0,
			"-0.019": 0.0,
			"-0.018": 0.0,
			"-0.017": 0.0,
			"-0.016": 0.0,
			"-0.015": 0.0940224604695,
			"-0.014": 0.758204385065,
			"-0.013": 0.808094988356,
			"-0.012": 1.27624231264,
			"-0.011": 1.27764642881,
			"-0.01": 1.17799717601,
			"-0.009": 1.03224169466,
			"-0.008": 1.25425608324,
			"-0.007": 7.60913532924,
			"-0.006": 10.9940205268,
			"-0.005": 11.3508758951,
			"-0.004": 14.6550880838,
			"-0.003": 24.0386246797,
			"-0.002": 25.7798646418,
			"-0.001": 23.3519218746,
			"0.0": 24.5156916803,
			"0.001": 22.2716727457,
			"0.002": 18.6649607806,
			"0.003": 17.3579875928,
			"0.004": 13.6711326521,
			"0.005": 8.07136079798,
			"0.006": 2.18052466991,
			"0.007": 2.5451654253,
			"0.008": 3.33795646022,
			"0.009": 2.95514131143,
			"0.01": 4.71318733968,
			"0.011": 4.62441917947,
			"0.012": 4.44742182283,
			"0.013": 1.53653849181,
			"0.014": 0.0190821595481,
			"0.015": 0.0,
			"0.016": 0.0,
			"0.017": 0.0,
			"0.018": 0.0,
			"0.019": 0.0,
			"0.02": 0.0,
			"0.021": 0.0,
			"0.022": 0.0,
			"0.023": 0.0,
			"0.024": 0.0,
			"0.025": 0.0
		}
	}
}
