{
	 "smiles": "CC1=C(C)C(=CC(=C1)S(Cl)(=O)=O)C(O)=O", 
	 "Tm": 453.15, 
	 "num_atms": 24, 
	 "gaussian": { 
		 "optdone": 1, 
		 "sigma_profile": "yes", 
		 "theory": "DFT", 
		 "functional": "B3LYP", 
		 "basiset": "6-31G**", 
		 "properties": { 
			 "R2extent": 7082.6748, 
			 "electric_dipole_moment_norm": 7.61742577187, 
			 "electric_quadrupole_moment_norm": 20.2489408834, 
			 "total_energy": -1507.60322591, 
			 "HOMO_LUMO_gap": 0.18719, 
			 "cosmo_polarized_energy": -19.38, 
			 "cosmo_cavitation_energy": 31.66, 
			 "cosmo_dispersion_energy": -23.09, 
			 "cosmo_repulsion_energy": 1.77, 
			 "cosmo_total_nonelectrostatic_energy": 10.34, 
			 "SMD_solvation_energy": 5.18 
		},
		"coords": [
			{
				"x": -0.7123596028,
				"y": -3.5317044718,
				"z": 0.6675657391,
				"element": "C" 
			},
			{
				"x": -0.1184291742,
				"y": -2.4698715505,
				"z": -0.2271621923,
				"element": "C" 
			},
			{
				"x": 0.1835463161,
				"y": -1.1788158789,
				"z": 0.2741125837,
				"element": "C" 
			},
			{
				"x": -0.0510051008,
				"y": -0.9029572292,
				"z": 1.7440185632,
				"element": "C" 
			},
			{
				"x": 0.7316528485,
				"y": -0.2140648284,
				"z": -0.5991765556,
				"element": "C" 
			},
			{
				"x": 1.0309334666,
				"y": -0.5370807983,
				"z": -1.9292228285,
				"element": "C" 
			},
			{
				"x": 0.716757929,
				"y": -1.8055660602,
				"z": -2.3911762485,
				"element": "C" 
			},
			{
				"x": 0.1402763837,
				"y": -2.7694907361,
				"z": -1.5649056007,
				"element": "C" 
			},
			{
				"x": 1.0386219474,
				"y": -2.2153412482,
				"z": -4.1013859373,
				"element": "S" 
			},
			{
				"x": 3.0084664866,
				"y": -3.0186724102,
				"z": -3.9759845226,
				"element": "Cl" 
			},
			{
				"x": 0.1745091028,
				"y": -3.321126039,
				"z": -4.4965485412,
				"element": "O" 
			},
			{
				"x": 1.1436746049,
				"y": -0.9890927993,
				"z": -4.880640144,
				"element": "O" 
			},
			{
				"x": 1.0809712866,
				"y": 1.1999360118,
				"z": -0.2024914995,
				"element": "C" 
			},
			{
				"x": 0.1649624749,
				"y": 1.8761904257,
				"z": 0.5418660631,
				"element": "O" 
			},
			{
				"x": 2.099693775,
				"y": 1.7433458227,
				"z": -0.5484627555,
				"element": "O" 
			},
			{
				"x": -1.6363309194,
				"y": -3.1892957619,
				"z": 1.1465331382,
				"element": "H" 
			},
			{
				"x": -0.0214295775,
				"y": -3.8126131073,
				"z": 1.4712226917,
				"element": "H" 
			},
			{
				"x": -0.9440226702,
				"y": -4.435024033,
				"z": 0.0992761175,
				"element": "H" 
			},
			{
				"x": 0.3830873459,
				"y": 0.0402175782,
				"z": 2.0736635573,
				"element": "H" 
			},
			{
				"x": 0.3878744234,
				"y": -1.6986174053,
				"z": 2.3538411897,
				"element": "H" 
			},
			{
				"x": -1.1225174529,
				"y": -0.8893187307,
				"z": 1.9838446851,
				"element": "H" 
			},
			{
				"x": 1.4876005226,
				"y": 0.2030745567,
				"z": -2.5758407021,
				"element": "H" 
			},
			{
				"x": -0.1025881466,
				"y": -3.7476197417,
				"z": -1.9660129703,
				"element": "H" 
			},
			{
				"x": -0.6525462696,
				"y": 1.3638084349,
				"z": 0.6145661696,
				"element": "H" 
			}
		],
		 "valence_orbital": [ 
			{
				"type": "occ",
				"energy": -0.33234,
				"method": "rhf"
			},
			{
				"type": "occ",
				"energy": -0.31567,
				"method": "rhf"
			},
			{
				"type": "occ",
				"energy": -0.30304,
				"method": "rhf"
			},
			{
				"type": "occ",
				"energy": -0.28789,
				"method": "rhf"
			},
			{
				"type": "occ",
				"energy": -0.28115,
				"method": "rhf"
			},
			{
				"type": "unocc",
				"energy": -0.09396,
				"method": "rhf"
			},
			{
				"type": "unocc",
				"energy": -0.06625,
				"method": "rhf"
			},
			{
				"type": "unocc",
				"energy": -0.05046,
				"method": "rhf"
			},
			{
				"type": "unocc",
				"energy": 0.00903,
				"method": "rhf"
			},
			{
				"type": "unocc",
				"energy": 0.04275,
				"method": "rhf"
			}
		],
		"cosmo_sigma_profile": { 
			"-0.025": 0.0,
			"-0.024": 0.0,
			"-0.023": 0.0,
			"-0.022": 0.0,
			"-0.021": 0.0,
			"-0.02": 0.0117673740515,
			"-0.019": 0.509525833571,
			"-0.018": 0.987615321335,
			"-0.017": 0.363474754388,
			"-0.016": 1.04722724314,
			"-0.015": 0.874204859401,
			"-0.014": 0.919437589301,
			"-0.013": 0.723559395962,
			"-0.012": 1.34775834951,
			"-0.011": 0.87454742204,
			"-0.01": 0.518688488853,
			"-0.009": 0.922665085247,
			"-0.008": 4.15109082295,
			"-0.007": 5.53900172157,
			"-0.006": 15.5559938704,
			"-0.005": 18.4495035316,
			"-0.004": 15.2820956471,
			"-0.003": 18.2752302139,
			"-0.002": 22.2227373557,
			"-0.001": 23.4030564971,
			"0.0": 20.3424527783,
			"0.001": 11.8242619263,
			"0.002": 10.6899189447,
			"0.003": 16.6242457048,
			"0.004": 10.3542717905,
			"0.005": 5.12493824476,
			"0.006": 5.03146726254,
			"0.007": 9.36651018992,
			"0.008": 12.5199854087,
			"0.009": 7.83063691749,
			"0.01": 5.0033611626,
			"0.011": 5.63274292061,
			"0.012": 2.56916123691,
			"0.013": 0.21751281762,
			"0.014": 0.0,
			"0.015": 0.0,
			"0.016": 0.0,
			"0.017": 0.0,
			"0.018": 0.0,
			"0.019": 0.0,
			"0.02": 0.0,
			"0.021": 0.0,
			"0.022": 0.0,
			"0.023": 0.0,
			"0.024": 0.0,
			"0.025": 0.0
		}
	}
}
