{
	 "smiles": "CC(Cl)C(=O)C1=C(C)N(C(C)=C1)C1=CC=C(OC(F)F)C=C1", 
	 "Tm": 367.15, 
	 "num_atms": 38, 
	 "gaussian": { 
		 "optdone": 1, 
		 "sigma_profile": "yes", 
		 "theory": "DFT", 
		 "functional": "B3LYP", 
		 "basiset": "6-31G**", 
		 "properties": { 
			 "R2extent": 12226.285, 
			 "electric_dipole_moment_norm": 4.39878731584, 
			 "electric_quadrupole_moment_norm": 22.1286387195, 
			 "total_energy": -1484.42221498, 
			 "HOMO_LUMO_gap": 0.17014, 
			 "cosmo_polarized_energy": -13.72, 
			 "cosmo_cavitation_energy": 44.25, 
			 "cosmo_dispersion_energy": -30.12, 
			 "cosmo_repulsion_energy": 2.3, 
			 "cosmo_total_nonelectrostatic_energy": 16.43, 
			 "SMD_solvation_energy": 9.16 
		},
		"coords": [
			{
				"x": -1.5887755956,
				"y": 5.1301276228,
				"z": 2.9161583412,
				"element": "C" 
			},
			{
				"x": -2.3714292067,
				"y": 3.9484699081,
				"z": 3.4805964571,
				"element": "C" 
			},
			{
				"x": -1.4929818343,
				"y": 3.2217085824,
				"z": 4.9217102863,
				"element": "Cl" 
			},
			{
				"x": -2.7362078787,
				"y": 2.8858036884,
				"z": 2.4216459415,
				"element": "C" 
			},
			{
				"x": -3.9290300886,
				"y": 2.8186246035,
				"z": 2.1308859085,
				"element": "O" 
			},
			{
				"x": -1.6969643558,
				"y": 2.0900005728,
				"z": 1.7676345461,
				"element": "C" 
			},
			{
				"x": -1.9253874077,
				"y": 1.213536549,
				"z": 0.6997786908,
				"element": "C" 
			},
			{
				"x": -3.1833129911,
				"y": 0.849341557,
				"z": -0.0208232266,
				"element": "C" 
			},
			{
				"x": -0.7062417473,
				"y": 0.6852282084,
				"z": 0.3379743765,
				"element": "N" 
			},
			{
				"x": 0.3082424927,
				"y": 1.2023970283,
				"z": 1.1556167127,
				"element": "C" 
			},
			{
				"x": 1.7359901031,
				"y": 0.7825762544,
				"z": 1.0185088337,
				"element": "C" 
			},
			{
				"x": -0.2836759826,
				"y": 2.0646867386,
				"z": 2.0364241064,
				"element": "C" 
			},
			{
				"x": -0.5002322793,
				"y": -0.2629413498,
				"z": -0.7137304176,
				"element": "C" 
			},
			{
				"x": -0.8041688733,
				"y": -1.6144048892,
				"z": -0.5107222755,
				"element": "C" 
			},
			{
				"x": -0.595516028,
				"y": -2.5385235544,
				"z": -1.5288476736,
				"element": "C" 
			},
			{
				"x": -0.0826258921,
				"y": -2.1108160618,
				"z": -2.7564264817,
				"element": "C" 
			},
			{
				"x": 0.0784735005,
				"y": -3.0943564175,
				"z": -3.715495051,
				"element": "O" 
			},
			{
				"x": 1.0458849293,
				"y": -2.9180186993,
				"z": -4.6770368222,
				"element": "C" 
			},
			{
				"x": 1.2487907255,
				"y": -4.1176707998,
				"z": -5.2435364367,
				"element": "F" 
			},
			{
				"x": 0.6097928683,
				"y": -2.0687373876,
				"z": -5.6519752034,
				"element": "F" 
			},
			{
				"x": 0.2118709647,
				"y": -0.7626434304,
				"z": -2.9775498708,
				"element": "C" 
			},
			{
				"x": 0.0049750932,
				"y": 0.1550961341,
				"z": -1.9462913195,
				"element": "C" 
			},
			{
				"x": -1.4330632113,
				"y": 5.8885667092,
				"z": 3.6874347212,
				"element": "H" 
			},
			{
				"x": -2.1678940182,
				"y": 5.579179515,
				"z": 2.1012818646,
				"element": "H" 
			},
			{
				"x": -0.6186344295,
				"y": 4.8242662695,
				"z": 2.5199830702,
				"element": "H" 
			},
			{
				"x": -3.3260103017,
				"y": 4.2803591915,
				"z": 3.8875625383,
				"element": "H" 
			},
			{
				"x": -3.0579648083,
				"y": 0.9278616023,
				"z": -1.1065145856,
				"element": "H" 
			},
			{
				"x": -3.4873338779,
				"y": -0.1826284356,
				"z": 0.1942985456,
				"element": "H" 
			},
			{
				"x": -3.9828165977,
				"y": 1.5107747868,
				"z": 0.307230226,
				"element": "H" 
			},
			{
				"x": 2.1624449768,
				"y": 1.0503117676,
				"z": 0.0444047168,
				"element": "H" 
			},
			{
				"x": 2.33116043,
				"y": 1.2757898544,
				"z": 1.7903574817,
				"element": "H" 
			},
			{
				"x": 1.8614681555,
				"y": -0.3002719582,
				"z": 1.1381407199,
				"element": "H" 
			},
			{
				"x": 0.2324605104,
				"y": 2.5948112694,
				"z": 2.8217019633,
				"element": "H" 
			},
			{
				"x": -1.1926457676,
				"y": -1.9356665745,
				"z": 0.45026089,
				"element": "H" 
			},
			{
				"x": -0.8159880604,
				"y": -3.5911793681,
				"z": -1.389537938,
				"element": "H" 
			},
			{
				"x": 1.9836813227,
				"y": -2.5221556353,
				"z": -4.2686306222,
				"element": "H" 
			},
			{
				"x": 0.5613249455,
				"y": -0.4251168413,
				"z": -3.9454481297,
				"element": "H" 
			},
			{
				"x": 0.2197402156,
				"y": 1.2070129891,
				"z": -2.1052248843,
				"element": "H" 
			}
		],
		 "valence_orbital": [ 
			{
				"type": "occ",
				"energy": -0.28387,
				"method": "rhf"
			},
			{
				"type": "occ",
				"energy": -0.26457,
				"method": "rhf"
			},
			{
				"type": "occ",
				"energy": -0.24696,
				"method": "rhf"
			},
			{
				"type": "occ",
				"energy": -0.23959,
				"method": "rhf"
			},
			{
				"type": "occ",
				"energy": -0.21103,
				"method": "rhf"
			},
			{
				"type": "unocc",
				"energy": -0.04089,
				"method": "rhf"
			},
			{
				"type": "unocc",
				"energy": -0.03531,
				"method": "rhf"
			},
			{
				"type": "unocc",
				"energy": -0.02746,
				"method": "rhf"
			},
			{
				"type": "unocc",
				"energy": 0.02672,
				"method": "rhf"
			},
			{
				"type": "unocc",
				"energy": 0.03912,
				"method": "rhf"
			}
		],
		"cosmo_sigma_profile": { 
			"-0.025": 0.0,
			"-0.024": 0.0,
			"-0.023": 0.0,
			"-0.022": 0.0,
			"-0.021": 0.0,
			"-0.02": 0.0,
			"-0.019": 0.0,
			"-0.018": 0.0,
			"-0.017": 0.0,
			"-0.016": 0.0,
			"-0.015": 0.0,
			"-0.014": 0.0,
			"-0.013": 0.0,
			"-0.012": 0.0,
			"-0.011": 0.634530022315,
			"-0.01": 3.07064960171,
			"-0.009": 2.20190093784,
			"-0.008": 3.40490964334,
			"-0.007": 9.44336541393,
			"-0.006": 11.9069567165,
			"-0.005": 20.5063637038,
			"-0.004": 28.1931276904,
			"-0.003": 28.3867496435,
			"-0.002": 26.7276746533,
			"-0.001": 31.4245454168,
			"0.0": 30.1223854198,
			"0.001": 26.6462095118,
			"0.002": 27.6031808559,
			"0.003": 33.6842221294,
			"0.004": 23.844990487,
			"0.005": 12.4228900757,
			"0.006": 15.4098635091,
			"0.007": 5.7722283191,
			"0.008": 1.9590301066,
			"0.009": 2.16741568586,
			"0.01": 1.6383260725,
			"0.011": 2.03851381988,
			"0.012": 2.96518340438,
			"0.013": 1.64820879547,
			"0.014": 0.050385907949,
			"0.015": 0.0,
			"0.016": 0.0,
			"0.017": 0.0,
			"0.018": 0.0,
			"0.019": 0.0,
			"0.02": 0.0,
			"0.021": 0.0,
			"0.022": 0.0,
			"0.023": 0.0,
			"0.024": 0.0,
			"0.025": 0.0
		}
	}
}
