{
	 "smiles": "[O-][N+](=O)C1=CC=CC(=C1)C(F)(F)F", 
	 "Tm": 269.45, 
	 "num_atms": 17, 
	 "gaussian": { 
		 "optdone": 1, 
		 "sigma_profile": "yes", 
		 "theory": "DFT", 
		 "functional": "B3LYP", 
		 "basiset": "6-31G**", 
		 "properties": { 
			 "R2extent": 3201.1856, 
			 "electric_dipole_moment_norm": 3.73728077217, 
			 "electric_quadrupole_moment_norm": 7.49884019766, 
			 "total_energy": -773.779634957, 
			 "HOMO_LUMO_gap": 0.195, 
			 "cosmo_polarized_energy": -7.75, 
			 "cosmo_cavitation_energy": 23.96, 
			 "cosmo_dispersion_energy": -17.06, 
			 "cosmo_repulsion_energy": 1.29, 
			 "cosmo_total_nonelectrostatic_energy": 8.18, 
			 "SMD_solvation_energy": 7.63 
		},
		"coords": [
			{
				"x": 1.5163498478,
				"y": 1.2585409989,
				"z": 2.2934691337,
				"element": "O" 
			},
			{
				"x": 1.4757726259,
				"y": 0.2056669342,
				"z": 1.6604809179,
				"element": "N" 
			},
			{
				"x": 1.9069261763,
				"y": -0.8747250479,
				"z": 2.058622008,
				"element": "O" 
			},
			{
				"x": 0.8616423712,
				"y": 0.24009906,
				"z": 0.319739741,
				"element": "C" 
			},
			{
				"x": 0.8057668272,
				"y": -0.9352302154,
				"z": -0.4253938266,
				"element": "C" 
			},
			{
				"x": 0.2290885584,
				"y": -0.892113378,
				"z": -1.6937488152,
				"element": "C" 
			},
			{
				"x": -0.2784226623,
				"y": 0.3069746805,
				"z": -2.1944070904,
				"element": "C" 
			},
			{
				"x": -0.211074855,
				"y": 1.47354896,
				"z": -1.4245321968,
				"element": "C" 
			},
			{
				"x": 0.3633996156,
				"y": 1.4496738897,
				"z": -0.1551949661,
				"element": "C" 
			},
			{
				"x": -0.8114049807,
				"y": 2.7514955913,
				"z": -1.9549113224,
				"element": "C" 
			},
			{
				"x": -2.142244986,
				"y": 2.7993773041,
				"z": -1.7258301594,
				"element": "F" 
			},
			{
				"x": -0.6365376056,
				"y": 2.8606290399,
				"z": -3.2896719198,
				"element": "F" 
			},
			{
				"x": -0.2655719214,
				"y": 3.8398734448,
				"z": -1.3767178169,
				"element": "F" 
			},
			{
				"x": 1.2105809497,
				"y": -1.8487541491,
				"z": -0.0083397203,
				"element": "H" 
			},
			{
				"x": 0.1788119138,
				"y": -1.7945776258,
				"z": -2.2938834338,
				"element": "H" 
			},
			{
				"x": -0.7193839202,
				"y": 0.3436418156,
				"z": -3.1847722536,
				"element": "H" 
			},
			{
				"x": 0.4347020452,
				"y": 2.339878697,
				"z": 0.4557917206,
				"element": "H" 
			}
		],
		 "valence_orbital": [ 
			{
				"type": "occ",
				"energy": -0.32125,
				"method": "rhf"
			},
			{
				"type": "occ",
				"energy": -0.31841,
				"method": "rhf"
			},
			{
				"type": "occ",
				"energy": -0.30274,
				"method": "rhf"
			},
			{
				"type": "occ",
				"energy": -0.30029,
				"method": "rhf"
			},
			{
				"type": "occ",
				"energy": -0.29704,
				"method": "rhf"
			},
			{
				"type": "unocc",
				"energy": -0.10204,
				"method": "rhf"
			},
			{
				"type": "unocc",
				"energy": -0.05251,
				"method": "rhf"
			},
			{
				"type": "unocc",
				"energy": -0.01781,
				"method": "rhf"
			},
			{
				"type": "unocc",
				"energy": 0.07053,
				"method": "rhf"
			},
			{
				"type": "unocc",
				"energy": 0.10876,
				"method": "rhf"
			}
		],
		"cosmo_sigma_profile": { 
			"-0.025": 0.0,
			"-0.024": 0.0,
			"-0.023": 0.0,
			"-0.022": 0.0,
			"-0.021": 0.0,
			"-0.02": 0.0,
			"-0.019": 0.0,
			"-0.018": 0.0,
			"-0.017": 0.0,
			"-0.016": 0.0,
			"-0.015": 0.0,
			"-0.014": 0.0,
			"-0.013": 0.0,
			"-0.012": 0.0,
			"-0.011": 0.0,
			"-0.01": 0.0,
			"-0.009": 0.963999526855,
			"-0.008": 5.74619481845,
			"-0.007": 9.29836894822,
			"-0.006": 8.71482598941,
			"-0.005": 8.59552613843,
			"-0.004": 8.70041080002,
			"-0.003": 11.323587305,
			"-0.002": 14.553431088,
			"-0.001": 19.3646492952,
			"0.0": 18.3517280824,
			"0.001": 13.5507139019,
			"0.002": 25.4166214865,
			"0.003": 18.5605790344,
			"0.004": 2.3408070433,
			"0.005": 3.41901533736,
			"0.006": 4.16703670532,
			"0.007": 9.48677996921,
			"0.008": 5.57652886404,
			"0.009": 4.01179168621,
			"0.01": 1.17689660883,
			"0.011": 0.0,
			"0.012": 0.0,
			"0.013": 0.0,
			"0.014": 0.0,
			"0.015": 0.0,
			"0.016": 0.0,
			"0.017": 0.0,
			"0.018": 0.0,
			"0.019": 0.0,
			"0.02": 0.0,
			"0.021": 0.0,
			"0.022": 0.0,
			"0.023": 0.0,
			"0.024": 0.0,
			"0.025": 0.0
		}
	}
}
