{
	 "smiles": "FC(F)(F)C1=NC2=C(C=C(Cl)C(Cl)=C2)N1C(=O)OC1=CC=CC=C1", 
	 "Tm": 376.15, 
	 "num_atms": 31, 
	 "gaussian": { 
		 "optdone": 1, 
		 "sigma_profile": "yes", 
		 "theory": "DFT", 
		 "functional": "B3LYP", 
		 "basiset": "6-31G**", 
		 "properties": { 
			 "R2extent": 10965.3944, 
			 "electric_dipole_moment_norm": 4.21977944092, 
			 "electric_quadrupole_moment_norm": 18.5527054445, 
			 "total_energy": -2055.67379331, 
			 "HOMO_LUMO_gap": 0.18385, 
			 "cosmo_polarized_energy": -11.46, 
			 "cosmo_cavitation_energy": 42.26, 
			 "cosmo_dispersion_energy": -29.64, 
			 "cosmo_repulsion_energy": 2.19, 
			 "cosmo_total_nonelectrostatic_energy": 14.81, 
			 "SMD_solvation_energy": 6.9 
		},
		"coords": [
			{
				"x": 1.8660530047,
				"y": -2.1644467037,
				"z": 2.8455834397,
				"element": "F" 
			},
			{
				"x": 1.6740899322,
				"y": -0.9116097981,
				"z": 3.2929001777,
				"element": "C" 
			},
			{
				"x": 0.4930064661,
				"y": -0.8561961732,
				"z": 3.9320492971,
				"element": "F" 
			},
			{
				"x": 2.636260871,
				"y": -0.6413501024,
				"z": 4.1834104468,
				"element": "F" 
			},
			{
				"x": 1.7449689068,
				"y": 0.1005470154,
				"z": 2.1637468474,
				"element": "C" 
			},
			{
				"x": 2.6381619206,
				"y": 1.0403681179,
				"z": 2.1609183487,
				"element": "N" 
			},
			{
				"x": 2.4133933888,
				"y": 1.7677390149,
				"z": 1.0013360741,
				"element": "C" 
			},
			{
				"x": 1.3306932217,
				"y": 1.23397046,
				"z": 0.2759177897,
				"element": "C" 
			},
			{
				"x": 0.9141610804,
				"y": 1.7975812258,
				"z": -0.928695944,
				"element": "C" 
			},
			{
				"x": 1.6152640484,
				"y": 2.9135994268,
				"z": -1.3863089235,
				"element": "C" 
			},
			{
				"x": 1.1021871125,
				"y": 3.6282118204,
				"z": -2.8946222688,
				"element": "Cl" 
			},
			{
				"x": 2.7040381409,
				"y": 3.4559029382,
				"z": -0.6636522081,
				"element": "C" 
			},
			{
				"x": 3.5674196253,
				"y": 4.8534341402,
				"z": -1.2553466269,
				"element": "Cl" 
			},
			{
				"x": 3.1094743856,
				"y": 2.8841960999,
				"z": 0.536785787,
				"element": "C" 
			},
			{
				"x": 0.8909583574,
				"y": 0.1358718427,
				"z": 1.0420738386,
				"element": "N" 
			},
			{
				"x": -0.1692968318,
				"y": -0.7608952807,
				"z": 0.7819382272,
				"element": "C" 
			},
			{
				"x": -0.4733647266,
				"y": -1.6747530422,
				"z": 1.498424806,
				"element": "O" 
			},
			{
				"x": -0.7687319831,
				"y": -0.4229919587,
				"z": -0.3827522051,
				"element": "O" 
			},
			{
				"x": -1.8580836333,
				"y": -1.2193424112,
				"z": -0.7980890445,
				"element": "C" 
			},
			{
				"x": -3.1428959562,
				"y": -0.8440631968,
				"z": -0.4238862199,
				"element": "C" 
			},
			{
				"x": -4.2217689929,
				"y": -1.5898705035,
				"z": -0.9014089407,
				"element": "C" 
			},
			{
				"x": -4.0036624431,
				"y": -2.6867085184,
				"z": -1.7378071792,
				"element": "C" 
			},
			{
				"x": -2.7030084961,
				"y": -3.0421031345,
				"z": -2.1013836698,
				"element": "C" 
			},
			{
				"x": -1.6150180446,
				"y": -2.3049988973,
				"z": -1.6310756941,
				"element": "C" 
			},
			{
				"x": 0.0875005268,
				"y": 1.405451434,
				"z": -1.5009775261,
				"element": "H" 
			},
			{
				"x": 3.9416458301,
				"y": 3.2914061443,
				"z": 1.0979210333,
				"element": "H" 
			},
			{
				"x": -3.2892815887,
				"y": 0.0133385608,
				"z": 0.2243662851,
				"element": "H" 
			},
			{
				"x": -5.2320252604,
				"y": -1.3112155823,
				"z": -0.6182118147,
				"element": "H" 
			},
			{
				"x": -4.8463458352,
				"y": -3.2630352585,
				"z": -2.1068609823,
				"element": "H" 
			},
			{
				"x": -2.5311467825,
				"y": -3.8937942857,
				"z": -2.7521914877,
				"element": "H" 
			},
			{
				"x": -0.5966462449,
				"y": -2.5613433942,
				"z": -1.9031016631,
				"element": "H" 
			}
		],
		 "valence_orbital": [ 
			{
				"type": "occ",
				"energy": -0.31238,
				"method": "rhf"
			},
			{
				"type": "occ",
				"energy": -0.27488,
				"method": "rhf"
			},
			{
				"type": "occ",
				"energy": -0.2701,
				"method": "rhf"
			},
			{
				"type": "occ",
				"energy": -0.26114,
				"method": "rhf"
			},
			{
				"type": "occ",
				"energy": -0.25418,
				"method": "rhf"
			},
			{
				"type": "unocc",
				"energy": -0.07033,
				"method": "rhf"
			},
			{
				"type": "unocc",
				"energy": -0.04005,
				"method": "rhf"
			},
			{
				"type": "unocc",
				"energy": -0.02552,
				"method": "rhf"
			},
			{
				"type": "unocc",
				"energy": -0.02301,
				"method": "rhf"
			},
			{
				"type": "unocc",
				"energy": -0.00644,
				"method": "rhf"
			}
		],
		"cosmo_sigma_profile": { 
			"-0.025": 0.0,
			"-0.024": 0.0,
			"-0.023": 0.0,
			"-0.022": 0.0,
			"-0.021": 0.0,
			"-0.02": 0.0,
			"-0.019": 0.0,
			"-0.018": 0.0,
			"-0.017": 0.0,
			"-0.016": 0.0,
			"-0.015": 0.0,
			"-0.014": 0.0,
			"-0.013": 0.0,
			"-0.012": 0.0,
			"-0.011": 0.0,
			"-0.01": 0.0842218613982,
			"-0.009": 1.32134907552,
			"-0.008": 3.11428129757,
			"-0.007": 13.8812090853,
			"-0.006": 19.6230685255,
			"-0.005": 19.8275671646,
			"-0.004": 18.6562931715,
			"-0.003": 18.1125452751,
			"-0.002": 22.2889447612,
			"-0.001": 30.3909255058,
			"0.0": 38.2247654672,
			"0.001": 27.5154999378,
			"0.002": 42.543675946,
			"0.003": 31.413247671,
			"0.004": 27.1777435727,
			"0.005": 9.24731161281,
			"0.006": 4.16267606277,
			"0.007": 4.52464933016,
			"0.008": 4.35064942946,
			"0.009": 3.99196623537,
			"0.01": 3.80785501204,
			"0.011": 1.12820140927,
			"0.012": 0.741512199869,
			"0.013": 0.671600481316,
			"0.014": 0.0175537437795,
			"0.015": 0.0,
			"0.016": 0.0,
			"0.017": 0.0,
			"0.018": 0.0,
			"0.019": 0.0,
			"0.02": 0.0,
			"0.021": 0.0,
			"0.022": 0.0,
			"0.023": 0.0,
			"0.024": 0.0,
			"0.025": 0.0
		}
	}
}
