{
	 "smiles": "CC(O)CC1=C(Br)C=CC(F)=C1", 
	 "Tm": 330.15, 
	 "num_atms": 22, 
	 "gaussian": { 
		 "optdone": 1, 
		 "sigma_profile": "yes", 
		 "theory": "DFT", 
		 "functional": "B3LYP", 
		 "basiset": "6-31G**", 
		 "properties": { 
			 "R2extent": 3319.918, 
			 "electric_dipole_moment_norm": 1.48041671836, 
			 "electric_quadrupole_moment_norm": 8.64364978409, 
			 "total_energy": -3095.4477251, 
			 "HOMO_LUMO_gap": 0.21154, 
			 "cosmo_polarized_energy": -8.1, 
			 "cosmo_cavitation_energy": 27.72, 
			 "cosmo_dispersion_energy": -20.05, 
			 "cosmo_repulsion_energy": 1.58, 
			 "cosmo_total_nonelectrostatic_energy": 9.24, 
			 "SMD_solvation_energy": 4.03 
		},
		"coords": [
			{
				"x": 0.5386423873,
				"y": -2.7155036467,
				"z": 2.7360541107,
				"element": "C" 
			},
			{
				"x": 0.431046317,
				"y": -1.8363062395,
				"z": 1.4957740598,
				"element": "C" 
			},
			{
				"x": -0.8582373941,
				"y": -2.0685007865,
				"z": 0.9460934042,
				"element": "O" 
			},
			{
				"x": 0.6544463897,
				"y": -0.3426331926,
				"z": 1.835589886,
				"element": "C" 
			},
			{
				"x": 0.6300839925,
				"y": 0.5529616218,
				"z": 0.6168667679,
				"element": "C" 
			},
			{
				"x": -0.4833301742,
				"y": 1.3071053218,
				"z": 0.2088160628,
				"element": "C" 
			},
			{
				"x": -2.1114005364,
				"y": 1.3136172017,
				"z": 1.224487311,
				"element": "Br" 
			},
			{
				"x": -0.4563313077,
				"y": 2.096932999,
				"z": -0.9441650712,
				"element": "C" 
			},
			{
				"x": 0.6901070977,
				"y": 2.1523235344,
				"z": -1.7313852922,
				"element": "C" 
			},
			{
				"x": 1.7948401373,
				"y": 1.4071508298,
				"z": -1.3349501064,
				"element": "C" 
			},
			{
				"x": 2.9171233974,
				"y": 1.4496873003,
				"z": -2.079937989,
				"element": "F" 
			},
			{
				"x": 1.7776127927,
				"y": 0.6235492192,
				"z": -0.1911693256,
				"element": "C" 
			},
			{
				"x": 1.5332689883,
				"y": -2.6396367955,
				"z": 3.1862430196,
				"element": "H" 
			},
			{
				"x": -0.2079780475,
				"y": -2.4169019952,
				"z": 3.4787545277,
				"element": "H" 
			},
			{
				"x": 0.3544992622,
				"y": -3.7596255735,
				"z": 2.4694344992,
				"element": "H" 
			},
			{
				"x": 1.2109056163,
				"y": -2.1395878458,
				"z": 0.7749962834,
				"element": "H" 
			},
			{
				"x": -0.9767114579,
				"y": -1.4835706907,
				"z": 0.1859449076,
				"element": "H" 
			},
			{
				"x": 1.6310384344,
				"y": -0.2440597828,
				"z": 2.3237211239,
				"element": "H" 
			},
			{
				"x": -0.1084412227,
				"y": -0.0327137015,
				"z": 2.5540330249,
				"element": "H" 
			},
			{
				"x": -1.3342089869,
				"y": 2.6690146437,
				"z": -1.220883454,
				"element": "H" 
			},
			{
				"x": 0.7347119331,
				"y": 2.7595689868,
				"z": -2.6284437317,
				"element": "H" 
			},
			{
				"x": 2.6698123816,
				"y": 0.0668285918,
				"z": 0.0778259814,
				"element": "H" 
			}
		],
		 "valence_orbital": [ 
			{
				"type": "occ",
				"energy": -0.31217,
				"method": "rhf"
			},
			{
				"type": "occ",
				"energy": -0.29235,
				"method": "rhf"
			},
			{
				"type": "occ",
				"energy": -0.27529,
				"method": "rhf"
			},
			{
				"type": "occ",
				"energy": -0.26109,
				"method": "rhf"
			},
			{
				"type": "occ",
				"energy": -0.24164,
				"method": "rhf"
			},
			{
				"type": "unocc",
				"energy": -0.0301,
				"method": "rhf"
			},
			{
				"type": "unocc",
				"energy": -0.01616,
				"method": "rhf"
			},
			{
				"type": "unocc",
				"energy": 0.00101,
				"method": "rhf"
			},
			{
				"type": "unocc",
				"energy": 0.08303,
				"method": "rhf"
			},
			{
				"type": "unocc",
				"energy": 0.09596,
				"method": "rhf"
			}
		],
		"cosmo_sigma_profile": { 
			"-0.025": 0.0,
			"-0.024": 0.0,
			"-0.023": 0.0,
			"-0.022": 0.0,
			"-0.021": 0.0,
			"-0.02": 0.0,
			"-0.019": 0.0,
			"-0.018": 0.0,
			"-0.017": 0.0,
			"-0.016": 0.0,
			"-0.015": 0.0,
			"-0.014": 0.0307035770357,
			"-0.013": 0.391920117108,
			"-0.012": 0.569920276287,
			"-0.011": 0.855277551861,
			"-0.01": 0.613977376867,
			"-0.009": 0.963178979812,
			"-0.008": 2.39359503751,
			"-0.007": 7.80330804106,
			"-0.006": 7.63107410165,
			"-0.005": 9.44375322161,
			"-0.004": 13.2036108473,
			"-0.003": 18.7298450726,
			"-0.002": 17.2456459271,
			"-0.001": 19.594336445,
			"0.0": 24.6704090158,
			"0.001": 22.7751983329,
			"0.002": 20.1133110058,
			"0.003": 15.0092812107,
			"0.004": 19.1447647782,
			"0.005": 6.97157068365,
			"0.006": 1.61110404631,
			"0.007": 1.62782978993,
			"0.008": 1.57804543892,
			"0.009": 1.43743726505,
			"0.01": 1.34050053964,
			"0.011": 1.23801361306,
			"0.012": 1.46816040441,
			"0.013": 1.68048484127,
			"0.014": 1.88158973033,
			"0.015": 0.40141570115,
			"0.016": 0.0,
			"0.017": 0.0,
			"0.018": 0.0,
			"0.019": 0.0,
			"0.02": 0.0,
			"0.021": 0.0,
			"0.022": 0.0,
			"0.023": 0.0,
			"0.024": 0.0,
			"0.025": 0.0
		}
	}
}
