{
	 "smiles": "COC1=CC(Br)=CC(C=O)=C1O", 
	 "Tm": 403.15, 
	 "num_atms": 19, 
	 "gaussian": { 
		 "optdone": 1, 
		 "sigma_profile": "yes", 
		 "theory": "DFT", 
		 "functional": "B3LYP", 
		 "basiset": "6-31G**", 
		 "properties": { 
			 "R2extent": 4419.6728, 
			 "electric_dipole_moment_norm": 6.24869891978, 
			 "electric_quadrupole_moment_norm": 5.90625181989, 
			 "total_energy": -3106.11998142, 
			 "HOMO_LUMO_gap": 0.1617, 
			 "cosmo_polarized_energy": -11.36, 
			 "cosmo_cavitation_energy": 26.09, 
			 "cosmo_dispersion_energy": -19.58, 
			 "cosmo_repulsion_energy": 1.56, 
			 "cosmo_total_nonelectrostatic_energy": 8.07, 
			 "SMD_solvation_energy": 5.53 
		},
		"coords": [
			{
				"x": 1.1428759318,
				"y": 0.3444180638,
				"z": 2.4555200336,
				"element": "C" 
			},
			{
				"x": 0.717906226,
				"y": -0.4207270189,
				"z": 1.3335485192,
				"element": "O" 
			},
			{
				"x": -0.1516925938,
				"y": 0.1541210377,
				"z": 0.4450115648,
				"element": "C" 
			},
			{
				"x": -0.674490161,
				"y": 1.4375776289,
				"z": 0.528258074,
				"element": "C" 
			},
			{
				"x": -1.5586754567,
				"y": 1.8783875838,
				"z": -0.4700748916,
				"element": "C" 
			},
			{
				"x": -2.2685498607,
				"y": 3.6490364409,
				"z": -0.338640084,
				"element": "Br" 
			},
			{
				"x": -1.9155737298,
				"y": 1.0645304296,
				"z": -1.5261388664,
				"element": "C" 
			},
			{
				"x": -1.3863404294,
				"y": -0.2383008642,
				"z": -1.6127189997,
				"element": "C" 
			},
			{
				"x": -1.7758413723,
				"y": -1.1038688775,
				"z": -2.7504397473,
				"element": "C" 
			},
			{
				"x": -2.5400742694,
				"y": -0.7503123651,
				"z": -3.6310068516,
				"element": "O" 
			},
			{
				"x": -0.5036787644,
				"y": -0.6966328324,
				"z": -0.6281373533,
				"element": "C" 
			},
			{
				"x": 0.0193766834,
				"y": -1.9460036205,
				"z": -0.6886221996,
				"element": "O" 
			},
			{
				"x": 0.2923686931,
				"y": 0.6241805194,
				"z": 3.0885389192,
				"element": "H" 
			},
			{
				"x": 1.6752710916,
				"y": 1.2490679893,
				"z": 2.138502736,
				"element": "H" 
			},
			{
				"x": 1.8204516641,
				"y": -0.2965103237,
				"z": 3.0202911973,
				"element": "H" 
			},
			{
				"x": -0.4126106107,
				"y": 2.0978065222,
				"z": 1.344680944,
				"element": "H" 
			},
			{
				"x": -2.5963787566,
				"y": 1.3921865598,
				"z": -2.3025952185,
				"element": "H" 
			},
			{
				"x": -1.3238784076,
				"y": -2.1134135409,
				"z": -2.7559703284,
				"element": "H" 
			},
			{
				"x": 0.5977341224,
				"y": -2.0532433321,
				"z": 0.0833925524,
				"element": "H" 
			}
		],
		 "valence_orbital": [ 
			{
				"type": "occ",
				"energy": -0.29469,
				"method": "rhf"
			},
			{
				"type": "occ",
				"energy": -0.29033,
				"method": "rhf"
			},
			{
				"type": "occ",
				"energy": -0.25957,
				"method": "rhf"
			},
			{
				"type": "occ",
				"energy": -0.25163,
				"method": "rhf"
			},
			{
				"type": "occ",
				"energy": -0.22522,
				"method": "rhf"
			},
			{
				"type": "unocc",
				"energy": -0.06352,
				"method": "rhf"
			},
			{
				"type": "unocc",
				"energy": -0.00808,
				"method": "rhf"
			},
			{
				"type": "unocc",
				"energy": 0.00182,
				"method": "rhf"
			},
			{
				"type": "unocc",
				"energy": 0.03741,
				"method": "rhf"
			},
			{
				"type": "unocc",
				"energy": 0.0604,
				"method": "rhf"
			}
		],
		"cosmo_sigma_profile": { 
			"-0.025": 0.0,
			"-0.024": 0.0,
			"-0.023": 0.0,
			"-0.022": 0.0,
			"-0.021": 0.0,
			"-0.02": 0.0,
			"-0.019": 0.0,
			"-0.018": 0.0,
			"-0.017": 0.0,
			"-0.016": 0.114420373267,
			"-0.015": 0.506310709163,
			"-0.014": 0.74618618246,
			"-0.013": 0.18199885311,
			"-0.012": 0.845627901547,
			"-0.011": 0.935131387586,
			"-0.01": 0.347766749359,
			"-0.009": 0.825563503853,
			"-0.008": 2.7008434954,
			"-0.007": 5.99728973436,
			"-0.006": 13.2891390865,
			"-0.005": 12.9687111266,
			"-0.004": 16.5660856858,
			"-0.003": 13.2741723295,
			"-0.002": 12.1479374945,
			"-0.001": 12.8971726355,
			"0.0": 18.1131436754,
			"0.001": 21.2388069044,
			"0.002": 21.0332611949,
			"0.003": 12.852379344,
			"0.004": 14.1760784155,
			"0.005": 8.62428755846,
			"0.006": 2.41647208257,
			"0.007": 3.71204693589,
			"0.008": 3.08448708991,
			"0.009": 2.38659693256,
			"0.01": 2.62638898639,
			"0.011": 4.14782061717,
			"0.012": 2.63436353583,
			"0.013": 0.828075329507,
			"0.014": 0.0,
			"0.015": 0.0,
			"0.016": 0.0,
			"0.017": 0.0,
			"0.018": 0.0,
			"0.019": 0.0,
			"0.02": 0.0,
			"0.021": 0.0,
			"0.022": 0.0,
			"0.023": 0.0,
			"0.024": 0.0,
			"0.025": 0.0
		}
	}
}
