{
	 "smiles": "OC(=O)COC1=CC=C(C=C1)C#N", 
	 "Tm": 451.15, 
	 "num_atms": 20, 
	 "gaussian": { 
		 "optdone": 1, 
		 "sigma_profile": "yes", 
		 "theory": "DFT", 
		 "functional": "B3LYP", 
		 "basiset": "6-31G**", 
		 "properties": { 
			 "R2extent": 3749.0618, 
			 "electric_dipole_moment_norm": 6.43881316704, 
			 "electric_quadrupole_moment_norm": 28.1091071596, 
			 "total_energy": -627.580243322, 
			 "HOMO_LUMO_gap": 0.2006, 
			 "cosmo_polarized_energy": -18.0, 
			 "cosmo_cavitation_energy": 26.51, 
			 "cosmo_dispersion_energy": -18.65, 
			 "cosmo_repulsion_energy": 1.5, 
			 "cosmo_total_nonelectrostatic_energy": 9.35, 
			 "SMD_solvation_energy": 7.49 
		},
		"coords": [
			{
				"x": -2.9814018751,
				"y": 0.0175413966,
				"z": 1.2960153521,
				"element": "O" 
			},
			{
				"x": -1.7491004872,
				"y": -0.2157937896,
				"z": 0.7898323321,
				"element": "C" 
			},
			{
				"x": -0.9467771698,
				"y": -0.9721270075,
				"z": 1.2771951771,
				"element": "O" 
			},
			{
				"x": -1.5483001058,
				"y": 0.6081603333,
				"z": -0.4781329575,
				"element": "C" 
			},
			{
				"x": -0.2962690134,
				"y": 0.3812597751,
				"z": -1.0800364525,
				"element": "O" 
			},
			{
				"x": 0.8236237942,
				"y": 0.9639773384,
				"z": -0.5607738878,
				"element": "C" 
			},
			{
				"x": 2.0072658514,
				"y": 0.7104708134,
				"z": -1.2707698631,
				"element": "C" 
			},
			{
				"x": 3.203758706,
				"y": 1.2701346607,
				"z": -0.853793352,
				"element": "C" 
			},
			{
				"x": 3.2403810604,
				"y": 2.0989197332,
				"z": 0.2842428912,
				"element": "C" 
			},
			{
				"x": 2.0538120371,
				"y": 2.34406415,
				"z": 0.9908979193,
				"element": "C" 
			},
			{
				"x": 0.8497866083,
				"y": 1.7811251217,
				"z": 0.5762282407,
				"element": "C" 
			},
			{
				"x": 4.4740137996,
				"y": 2.6829196903,
				"z": 0.7167847468,
				"element": "C" 
			},
			{
				"x": 5.4765896431,
				"y": 3.1592910836,
				"z": 1.0667365774,
				"element": "N" 
			},
			{
				"x": -3.0686984748,
				"y": -0.5392019299,
				"z": 2.0883101355,
				"element": "H" 
			},
			{
				"x": -1.7251502935,
				"y": 1.6689004258,
				"z": -0.2586794784,
				"element": "H" 
			},
			{
				"x": -2.3004072965,
				"y": 0.2985154908,
				"z": -1.2096237662,
				"element": "H" 
			},
			{
				"x": 1.959419746,
				"y": 0.0717809851,
				"z": -2.1458539477,
				"element": "H" 
			},
			{
				"x": 4.117856971,
				"y": 1.073808167,
				"z": -1.403864362,
				"element": "H" 
			},
			{
				"x": 2.0770077344,
				"y": 2.9753837471,
				"z": 1.872791245,
				"element": "H" 
			},
			{
				"x": -0.0458112353,
				"y": 1.9760698148,
				"z": 1.1530934499,
				"element": "H" 
			}
		],
		 "valence_orbital": [ 
			{
				"type": "occ",
				"energy": -0.32499,
				"method": "rhf"
			},
			{
				"type": "occ",
				"energy": -0.32392,
				"method": "rhf"
			},
			{
				"type": "occ",
				"energy": -0.30041,
				"method": "rhf"
			},
			{
				"type": "occ",
				"energy": -0.27635,
				"method": "rhf"
			},
			{
				"type": "occ",
				"energy": -0.24077,
				"method": "rhf"
			},
			{
				"type": "unocc",
				"energy": -0.04017,
				"method": "rhf"
			},
			{
				"type": "unocc",
				"energy": -0.02562,
				"method": "rhf"
			},
			{
				"type": "unocc",
				"energy": -0.01287,
				"method": "rhf"
			},
			{
				"type": "unocc",
				"energy": 0.04186,
				"method": "rhf"
			},
			{
				"type": "unocc",
				"energy": 0.05324,
				"method": "rhf"
			}
		],
		"cosmo_sigma_profile": { 
			"-0.025": 0.0,
			"-0.024": 0.0,
			"-0.023": 0.0,
			"-0.022": 0.0,
			"-0.021": 0.0,
			"-0.02": 0.0,
			"-0.019": 0.707045761043,
			"-0.018": 0.945195801674,
			"-0.017": 0.748887844207,
			"-0.016": 0.726428430089,
			"-0.015": 0.971996336255,
			"-0.014": 0.595961533464,
			"-0.013": 0.446299211622,
			"-0.012": 0.643606865889,
			"-0.011": 1.61330669831,
			"-0.01": 2.32332460224,
			"-0.009": 5.83273088684,
			"-0.008": 9.77648418371,
			"-0.007": 14.3200805867,
			"-0.006": 11.8614754129,
			"-0.005": 9.67894498276,
			"-0.004": 9.73931523608,
			"-0.003": 7.48562480539,
			"-0.002": 9.6221437564,
			"-0.001": 11.004376536,
			"0.0": 13.2429526173,
			"0.001": 12.3911030298,
			"0.002": 17.3293159125,
			"0.003": 11.2925530405,
			"0.004": 5.45501850972,
			"0.005": 4.92036988683,
			"0.006": 7.74980546067,
			"0.007": 6.43768485525,
			"0.008": 8.71709166576,
			"0.009": 6.73358089595,
			"0.01": 6.86633349344,
			"0.011": 7.58649003937,
			"0.012": 3.28465909731,
			"0.013": 1.91326933192,
			"0.014": 0.318619889083,
			"0.015": 0.0,
			"0.016": 0.0,
			"0.017": 0.0,
			"0.018": 0.0,
			"0.019": 0.0,
			"0.02": 0.0,
			"0.021": 0.0,
			"0.022": 0.0,
			"0.023": 0.0,
			"0.024": 0.0,
			"0.0": 0.0
		}
	}
}
