{
	 "smiles": "NC1C2CN(CC12)C1=C(F)C=C2C(=O)C(=CN(C3=C(F)C=C(F)C=C3)C2=N1)C(O)=O", 
	 "Tm": 519.15, 
	 "num_atms": 45, 
	 "gaussian": { 
		 "optdone": 1, 
		 "sigma_profile": "yes", 
		 "theory": "DFT", 
		 "functional": "B3LYP", 
		 "basiset": "6-31G**", 
		 "properties": { 
			 "R2extent": 14569.0753, 
			 "electric_dipole_moment_norm": 10.4678131417, 
			 "electric_quadrupole_moment_norm": 52.6413029933, 
			 "total_energy": -1515.3488296, 
			 "HOMO_LUMO_gap": 0.15791, 
			 "cosmo_polarized_energy": -22.57, 
			 "cosmo_cavitation_energy": 50.51, 
			 "cosmo_dispersion_energy": -34.46, 
			 "cosmo_repulsion_energy": 2.52, 
			 "cosmo_total_nonelectrostatic_energy": 18.57, 
			 "SMD_solvation_energy": 8.87 
		},
		"coords": [
			{
				"x": 4.8931897746,
				"y": -2.6556033132,
				"z": -2.627858511,
				"element": "N" 
			},
			{
				"x": 3.7690944306,
				"y": -2.2063990422,
				"z": -1.8468362177,
				"element": "C" 
			},
			{
				"x": 3.3490691705,
				"y": -0.7712498743,
				"z": -2.0550434162,
				"element": "C" 
			},
			{
				"x": 1.9260664011,
				"y": -0.4061225084,
				"z": -1.689194475,
				"element": "C" 
			},
			{
				"x": 1.7953601635,
				"y": -0.8186480737,
				"z": -0.2784557634,
				"element": "N" 
			},
			{
				"x": 3.1020922738,
				"y": -1.0578854422,
				"z": 0.3693535866,
				"element": "C" 
			},
			{
				"x": 4.071836047,
				"y": -1.1721147669,
				"z": -0.789597277,
				"element": "C" 
			},
			{
				"x": 0.5924693141,
				"y": -0.7134719762,
				"z": 0.3460448905,
				"element": "C" 
			},
			{
				"x": 0.3704661905,
				"y": -1.0524837045,
				"z": 1.7209146535,
				"element": "C" 
			},
			{
				"x": 1.4043265651,
				"y": -1.4786122225,
				"z": 2.4850672101,
				"element": "F" 
			},
			{
				"x": -0.8732665092,
				"y": -0.9493133192,
				"z": 2.272402469,
				"element": "C" 
			},
			{
				"x": -1.9555255423,
				"y": -0.5114066044,
				"z": 1.4783556568,
				"element": "C" 
			},
			{
				"x": -3.2996723907,
				"y": -0.3788733914,
				"z": 2.0281173537,
				"element": "C" 
			},
			{
				"x": -3.5608524481,
				"y": -0.6599471695,
				"z": 3.2204894089,
				"element": "O" 
			},
			{
				"x": -4.299040514,
				"y": 0.1029312815,
				"z": 1.0890417537,
				"element": "C" 
			},
			{
				"x": -3.9511573532,
				"y": 0.388165973,
				"z": -0.200639867,
				"element": "C" 
			},
			{
				"x": -2.6854000426,
				"y": 0.2563596036,
				"z": -0.6965594848,
				"element": "N" 
			},
			{
				"x": -2.4230813838,
				"y": 0.6309783289,
				"z": -2.0562509792,
				"element": "C" 
			},
			{
				"x": -2.0167951873,
				"y": -0.32190661,
				"z": -2.9958324633,
				"element": "C" 
			},
			{
				"x": -1.8429476731,
				"y": -1.593882922,
				"z": -2.6105005537,
				"element": "F" 
			},
			{
				"x": -1.7914308248,
				"y": 0.0124646368,
				"z": -4.3237063044,
				"element": "C" 
			},
			{
				"x": -1.9993030928,
				"y": 1.3340468306,
				"z": -4.7068916493,
				"element": "C" 
			},
			{
				"x": -1.7906025599,
				"y": 1.6687716826,
				"z": -5.9913431348,
				"element": "F" 
			},
			{
				"x": -2.413095039,
				"y": 2.3116611635,
				"z": -3.8091219046,
				"element": "C" 
			},
			{
				"x": -2.6162532572,
				"y": 1.9479006123,
				"z": -2.4785463685,
				"element": "C" 
			},
			{
				"x": -1.653895612,
				"y": -0.1959252884,
				"z": 0.1413138123,
				"element": "C" 
			},
			{
				"x": -0.4372734746,
				"y": -0.2777244654,
				"z": -0.3962927297,
				"element": "N" 
			},
			{
				"x": -5.7364685726,
				"y": 0.3027144884,
				"z": 1.4759978432,
				"element": "C" 
			},
			{
				"x": -6.0284822094,
				"y": 0.0043909148,
				"z": 2.7433679007,
				"element": "O" 
			},
			{
				"x": -6.5673575218,
				"y": 0.7097717195,
				"z": 0.6862528987,
				"element": "O" 
			},
			{
				"x": 4.5852533288,
				"y": -2.9949718273,
				"z": -3.5355656273,
				"element": "H" 
			},
			{
				"x": 5.3657855563,
				"y": -3.4271524332,
				"z": -2.1638267311,
				"element": "H" 
			},
			{
				"x": 2.9652282764,
				"y": -2.9144523814,
				"z": -1.6138576832,
				"element": "H" 
			},
			{
				"x": 3.8548407142,
				"y": -0.2010751282,
				"z": -2.8262903426,
				"element": "H" 
			},
			{
				"x": 1.1668226562,
				"y": -0.9200119461,
				"z": -2.2870913908,
				"element": "H" 
			},
			{
				"x": 1.7495407078,
				"y": 0.6724639738,
				"z": -1.7979557323,
				"element": "H" 
			},
			{
				"x": 3.0621347066,
				"y": -1.9607252872,
				"z": 0.9819083822,
				"element": "H" 
			},
			{
				"x": 3.3779226923,
				"y": -0.2196982285,
				"z": 1.0233270221,
				"element": "H" 
			},
			{
				"x": 5.1092337487,
				"y": -0.9001920904,
				"z": -0.6295824643,
				"element": "H" 
			},
			{
				"x": -1.0453300054,
				"y": -1.2027175829,
				"z": 3.3125828631,
				"element": "H" 
			},
			{
				"x": -4.7098189883,
				"y": 0.7342976305,
				"z": -0.8933059456,
				"element": "H" 
			},
			{
				"x": -1.479392504,
				"y": -0.7387727104,
				"z": -5.0387734272,
				"element": "H" 
			},
			{
				"x": -2.5629868527,
				"y": 3.3294258655,
				"z": -4.1491754946,
				"element": "H" 
			},
			{
				"x": -2.9251531236,
				"y": 2.6917903781,
				"z": -1.7514644976,
				"element": "H" 
			},
			{
				"x": -5.1919500358,
				"y": -0.3042947733,
				"z": 3.1924227309,
				"element": "H" 
			}
		],
		 "valence_orbital": [ 
			{
				"type": "occ",
				"energy": -0.26199,
				"method": "rhf"
			},
			{
				"type": "occ",
				"energy": -0.25465,
				"method": "rhf"
			},
			{
				"type": "occ",
				"energy": -0.25101,
				"method": "rhf"
			},
			{
				"type": "occ",
				"energy": -0.24145,
				"method": "rhf"
			},
			{
				"type": "occ",
				"energy": -0.22364,
				"method": "rhf"
			},
			{
				"type": "unocc",
				"energy": -0.06573,
				"method": "rhf"
			},
			{
				"type": "unocc",
				"energy": -0.04454,
				"method": "rhf"
			},
			{
				"type": "unocc",
				"energy": -0.03786,
				"method": "rhf"
			},
			{
				"type": "unocc",
				"energy": -0.03036,
				"method": "rhf"
			},
			{
				"type": "unocc",
				"energy": -0.00824,
				"method": "rhf"
			}
		],
		"cosmo_sigma_profile": { 
			"-0.025": 0.0,
			"-0.024": 0.0,
			"-0.023": 0.0,
			"-0.022": 0.0,
			"-0.021": 0.0,
			"-0.02": 0.0,
			"-0.019": 0.0,
			"-0.018": 0.0,
			"-0.017": 0.0,
			"-0.016": 0.0,
			"-0.015": 0.0,
			"-0.014": 0.0,
			"-0.013": 0.0,
			"-0.012": 0.0,
			"-0.011": 0.0957790138806,
			"-0.01": 2.35870654599,
			"-0.009": 5.6799747107,
			"-0.008": 11.6530295108,
			"-0.007": 11.7932051012,
			"-0.006": 12.132668881,
			"-0.005": 19.2445570908,
			"-0.004": 27.3690219398,
			"-0.003": 35.8729854501,
			"-0.002": 43.9996627061,
			"-0.001": 43.3797865596,
			"0.0": 38.9129921234,
			"0.001": 29.5066861237,
			"0.002": 19.987313293,
			"0.003": 27.0878491483,
			"0.004": 19.1274064818,
			"0.005": 6.21759167413,
			"0.006": 4.58647385883,
			"0.007": 5.41296864887,
			"0.008": 5.01200514757,
			"0.009": 5.22570404511,
			"0.01": 4.84610671801,
			"0.011": 7.89245150745,
			"0.012": 8.41443612902,
			"0.013": 4.26557531612,
			"0.014": 2.13576903822,
			"0.015": 0.528095701114,
			"0.016": 0.668144954722,
			"0.017": 0.424617316718,
			"0.018": 0.408503318201,
			"0.019": 0.0296797397995,
			"0.02": 0.0,
			"0.021": 0.0,
			"0.022": 0.0,
			"0.023": 0.0,
			"0.024": 0.0,
			"0.025": 0.0
		}
	}
}
