{
	 "smiles": "OCC1=NN(N=C1)C1=CC=CC=C1", 
	 "Tm": 344.15, 
	 "num_atms": 22, 
	 "gaussian": { 
		 "optdone": 1, 
		 "sigma_profile": "yes", 
		 "theory": "DFT", 
		 "functional": "B3LYP", 
		 "basiset": "6-31G**", 
		 "properties": { 
			 "R2extent": 2908.3064, 
			 "electric_dipole_moment_norm": 1.67326211336, 
			 "electric_quadrupole_moment_norm": 11.6564204741, 
			 "total_energy": -587.815565885, 
			 "HOMO_LUMO_gap": 0.18924, 
			 "cosmo_polarized_energy": -9.04, 
			 "cosmo_cavitation_energy": 26.44, 
			 "cosmo_dispersion_energy": -19.82, 
			 "cosmo_repulsion_energy": 1.57, 
			 "cosmo_total_nonelectrostatic_energy": 8.19, 
			 "SMD_solvation_energy": 3.45 
		},
		"coords": [
			{
				"x": -3.8277771951,
				"y": 0.6074522776,
				"z": -0.9107799021,
				"element": "O" 
			},
			{
				"x": -3.5811161327,
				"y": -0.634886284,
				"z": -0.2835518774,
				"element": "C" 
			},
			{
				"x": -2.1238886802,
				"y": -1.0084397156,
				"z": -0.2889619683,
				"element": "C" 
			},
			{
				"x": -1.1889847185,
				"y": -0.0582783456,
				"z": -0.2831593049,
				"element": "N" 
			},
			{
				"x": -0.0323062837,
				"y": -0.7315231988,
				"z": -0.2503156908,
				"element": "N" 
			},
			{
				"x": -0.1567119339,
				"y": -2.0607345093,
				"z": -0.2305563618,
				"element": "N" 
			},
			{
				"x": -1.4741329202,
				"y": -2.2586333766,
				"z": -0.2538107449,
				"element": "C" 
			},
			{
				"x": 1.2338243936,
				"y": -0.0823471185,
				"z": -0.2488210473,
				"element": "C" 
			},
			{
				"x": 2.400251452,
				"y": -0.8523478352,
				"z": -0.2132161545,
				"element": "C" 
			},
			{
				"x": 3.6362693299,
				"y": -0.2089746997,
				"z": -0.2107149306,
				"element": "C" 
			},
			{
				"x": 3.7132073187,
				"y": 1.1851361793,
				"z": -0.2431777874,
				"element": "C" 
			},
			{
				"x": 2.5387280132,
				"y": 1.9393852007,
				"z": -0.2785577613,
				"element": "C" 
			},
			{
				"x": 1.2932917963,
				"y": 1.3137091923,
				"z": -0.2815901119,
				"element": "C" 
			},
			{
				"x": -3.0908795547,
				"y": 1.1899024798,
				"z": -0.679153507,
				"element": "H" 
			},
			{
				"x": -4.1604461954,
				"y": -1.3952275074,
				"z": -0.8187518487,
				"element": "H" 
			},
			{
				"x": -3.9450825551,
				"y": -0.6348818093,
				"z": 0.7588928978,
				"element": "H" 
			},
			{
				"x": -1.886283875,
				"y": -3.2571806529,
				"z": -0.2496684409,
				"element": "H" 
			},
			{
				"x": 2.3251442839,
				"y": -1.9323083038,
				"z": -0.1885910197,
				"element": "H" 
			},
			{
				"x": 4.5437863558,
				"y": -0.8046695853,
				"z": -0.1833395587,
				"element": "H" 
			},
			{
				"x": 4.6799294426,
				"y": 1.6792306689,
				"z": -0.2411199251,
				"element": "H" 
			},
			{
				"x": 2.5873597761,
				"y": 3.0238860703,
				"z": -0.3044290027,
				"element": "H" 
			},
			{
				"x": 0.3753178825,
				"y": 1.8871308732,
				"z": -0.309425952,
				"element": "H" 
			}
		],
		 "valence_orbital": [ 
			{
				"type": "occ",
				"energy": -0.30135,
				"method": "rhf"
			},
			{
				"type": "occ",
				"energy": -0.29396,
				"method": "rhf"
			},
			{
				"type": "occ",
				"energy": -0.27076,
				"method": "rhf"
			},
			{
				"type": "occ",
				"energy": -0.26081,
				"method": "rhf"
			},
			{
				"type": "occ",
				"energy": -0.23251,
				"method": "rhf"
			},
			{
				"type": "unocc",
				"energy": -0.04327,
				"method": "rhf"
			},
			{
				"type": "unocc",
				"energy": -0.01131,
				"method": "rhf"
			},
			{
				"type": "unocc",
				"energy": 0.02677,
				"method": "rhf"
			},
			{
				"type": "unocc",
				"energy": 0.04469,
				"method": "rhf"
			},
			{
				"type": "unocc",
				"energy": 0.08409,
				"method": "rhf"
			}
		],
		"cosmo_sigma_profile": { 
			"-0.025": 0.0,
			"-0.024": 0.0,
			"-0.023": 0.0,
			"-0.022": 0.0,
			"-0.021": 0.0,
			"-0.02": 0.0,
			"-0.019": 0.0,
			"-0.018": 0.0,
			"-0.017": 0.0,
			"-0.016": 0.0,
			"-0.015": 0.0,
			"-0.014": 0.0,
			"-0.013": 0.222908228555,
			"-0.012": 0.696723173036,
			"-0.011": 0.383834900354,
			"-0.01": 0.362100542508,
			"-0.009": 2.44521105105,
			"-0.008": 2.98393888479,
			"-0.007": 4.77166362296,
			"-0.006": 13.2425491927,
			"-0.005": 17.5682921664,
			"-0.004": 18.3836134094,
			"-0.003": 12.6830159024,
			"-0.002": 11.309299615,
			"-0.001": 14.184631247,
			"0.0": 13.287458986,
			"0.001": 19.1647731825,
			"0.002": 17.945439067,
			"0.003": 14.9056506522,
			"0.004": 16.6269678846,
			"0.005": 9.24103325201,
			"0.006": 3.3626108403,
			"0.007": 3.38079847971,
			"0.008": 2.40492069099,
			"0.009": 2.65116122301,
			"0.01": 2.44778272726,
			"0.011": 1.71325172605,
			"0.012": 1.75458682122,
			"0.013": 2.13521763816,
			"0.014": 1.68016789187,
			"0.015": 0.0,
			"0.016": 0.0,
			"0.017": 0.0,
			"0.018": 0.0,
			"0.019": 0.0,
			"0.02": 0.0,
			"0.021": 0.0,
			"0.022": 0.0,
			"0.023": 0.0,
			"0.024": 0.0,
			"0.025": 0.0
		}
	}
}
