{
	 "smiles": "OCC1=CC=CC(=C1)C1=CN=CN=C1", 
	 "Tm": 338.65, 
	 "num_atms": 24, 
	 "gaussian": { 
		 "optdone": 1, 
		 "sigma_profile": "yes", 
		 "theory": "DFT", 
		 "functional": "B3LYP", 
		 "basiset": "6-31G**", 
		 "properties": { 
			 "R2extent": 3962.4074, 
			 "electric_dipole_moment_norm": 3.53045553576, 
			 "electric_quadrupole_moment_norm": 6.13700170686, 
			 "total_energy": -609.909377939, 
			 "HOMO_LUMO_gap": 0.19417, 
			 "cosmo_polarized_energy": -12.23, 
			 "cosmo_cavitation_energy": 28.39, 
			 "cosmo_dispersion_energy": -20.75, 
			 "cosmo_repulsion_energy": 1.62, 
			 "cosmo_total_nonelectrostatic_energy": 9.26, 
			 "SMD_solvation_energy": 1.86 
		},
		"coords": [
			{
				"x": 3.558360878,
				"y": 0.6944767532,
				"z": 0.5892679123,
				"element": "O" 
			},
			{
				"x": 2.54465033,
				"y": 1.6862448678,
				"z": 0.6345041554,
				"element": "C" 
			},
			{
				"x": 1.175983112,
				"y": 1.1885856833,
				"z": 0.2032408472,
				"element": "C" 
			},
			{
				"x": 0.0112122308,
				"y": 1.805919182,
				"z": 0.673915053,
				"element": "C" 
			},
			{
				"x": -1.24112092,
				"y": 1.3609354202,
				"z": 0.2503430156,
				"element": "C" 
			},
			{
				"x": -1.3441498457,
				"y": 0.2921418584,
				"z": -0.6384053898,
				"element": "C" 
			},
			{
				"x": -0.1883136783,
				"y": -0.3482449665,
				"z": -1.1152908709,
				"element": "C" 
			},
			{
				"x": 1.0652182797,
				"y": 0.1153453497,
				"z": -0.6844187064,
				"element": "C" 
			},
			{
				"x": -0.2877959803,
				"y": -1.4884589108,
				"z": -2.0536864925,
				"element": "C" 
			},
			{
				"x": 0.6184916636,
				"y": -1.6827489324,
				"z": -3.1073877921,
				"element": "C" 
			},
			{
				"x": 0.5415802831,
				"y": -2.709892511,
				"z": -3.958088323,
				"element": "N" 
			},
			{
				"x": -0.4707315887,
				"y": -3.5608891163,
				"z": -3.7602073588,
				"element": "C" 
			},
			{
				"x": -1.4012113257,
				"y": -3.4904572496,
				"z": -2.8023784705,
				"element": "N" 
			},
			{
				"x": -1.2957247453,
				"y": -2.4598512197,
				"z": -1.9589227596,
				"element": "C" 
			},
			{
				"x": 3.3026168698,
				"y": -0.0135013806,
				"z": 1.1958001417,
				"element": "H" 
			},
			{
				"x": 2.4703389671,
				"y": 2.1461679392,
				"z": 1.6325282005,
				"element": "H" 
			},
			{
				"x": 2.8843826832,
				"y": 2.4737806684,
				"z": -0.0490681998,
				"element": "H" 
			},
			{
				"x": 0.0841476888,
				"y": 2.6338771447,
				"z": 1.3752427636,
				"element": "H" 
			},
			{
				"x": -2.1411893882,
				"y": 1.8482956381,
				"z": 0.6138808296,
				"element": "H" 
			},
			{
				"x": -2.3221741058,
				"y": -0.0333915642,
				"z": -0.9799385919,
				"element": "H" 
			},
			{
				"x": 1.9745216127,
				"y": -0.3755861325,
				"z": -1.0168828159,
				"element": "H" 
			},
			{
				"x": 1.4253630914,
				"y": -0.9715459721,
				"z": -3.277308527,
				"element": "H" 
			},
			{
				"x": -0.5450154198,
				"y": -4.3985368897,
				"z": -4.4508045345,
				"element": "H" 
			},
			{
				"x": -2.0339406924,
				"y": -2.4105656597,
				"z": -1.159734086,
				"element": "H" 
			}
		],
		 "valence_orbital": [ 
			{
				"type": "occ",
				"energy": -0.30098,
				"method": "rhf"
			},
			{
				"type": "occ",
				"energy": -0.28571,
				"method": "rhf"
			},
			{
				"type": "occ",
				"energy": -0.2569,
				"method": "rhf"
			},
			{
				"type": "occ",
				"energy": -0.25336,
				"method": "rhf"
			},
			{
				"type": "occ",
				"energy": -0.24238,
				"method": "rhf"
			},
			{
				"type": "unocc",
				"energy": -0.04821,
				"method": "rhf"
			},
			{
				"type": "unocc",
				"energy": -0.04163,
				"method": "rhf"
			},
			{
				"type": "unocc",
				"energy": -0.01612,
				"method": "rhf"
			},
			{
				"type": "unocc",
				"energy": 0.00632,
				"method": "rhf"
			},
			{
				"type": "unocc",
				"energy": 0.07654,
				"method": "rhf"
			}
		],
		"cosmo_sigma_profile": { 
			"-0.025": 0.0,
			"-0.024": 0.0,
			"-0.023": 0.0,
			"-0.022": 0.0,
			"-0.021": 0.0,
			"-0.02": 0.0,
			"-0.019": 0.0,
			"-0.018": 0.0,
			"-0.017": 0.0,
			"-0.016": 0.23338156934,
			"-0.015": 0.985576703264,
			"-0.014": 1.21000165326,
			"-0.013": 0.563055245008,
			"-0.012": 0.629273571048,
			"-0.011": 0.966069509684,
			"-0.01": 0.868892452995,
			"-0.009": 0.864421559537,
			"-0.008": 1.91802146459,
			"-0.007": 8.22634893525,
			"-0.006": 14.4840154803,
			"-0.005": 17.7085372055,
			"-0.004": 17.9306882944,
			"-0.003": 15.8333045758,
			"-0.002": 16.3891119673,
			"-0.001": 19.7821824613,
			"0.0": 18.5097226305,
			"0.001": 13.2395709949,
			"0.002": 10.214454844,
			"0.003": 13.0203279183,
			"0.004": 11.2760285758,
			"0.005": 10.3599388372,
			"0.006": 4.14622160567,
			"0.007": 4.55357375374,
			"0.008": 3.30087106175,
			"0.009": 2.48312308741,
			"0.01": 1.96846939626,
			"0.011": 2.98696497596,
			"0.012": 4.06007386362,
			"0.013": 3.05609263687,
			"0.014": 3.21260204688,
			"0.015": 1.71499523484,
			"0.016": 0.441746252754,
			"0.017": 0.0,
			"0.018": 0.0,
			"0.019": 0.0,
			"0.02": 0.0,
			"0.021": 0.0,
			"0.022": 0.0,
			"0.023": 0.0,
			"0.024": 0.0,
			"0.025": 0.0
		}
	}
}
