{
	 "smiles": "CC1=CC=CC2=C1C=CC1=C2C=CC=C1", 
	 "Tm": 396.15, 
	 "num_atms": 27, 
	 "gaussian": { 
		 "optdone": 1, 
		 "sigma_profile": "yes", 
		 "theory": "DFT", 
		 "functional": "B3LYP", 
		 "basiset": "6-31G**", 
		 "properties": { 
			 "R2extent": 3316.5894, 
			 "electric_dipole_moment_norm": 0.320421534857, 
			 "electric_quadrupole_moment_norm": 12.1297112571, 
			 "total_energy": -578.860910279, 
			 "HOMO_LUMO_gap": 0.17027, 
			 "cosmo_polarized_energy": -5.86, 
			 "cosmo_cavitation_energy": 29.3, 
			 "cosmo_dispersion_energy": -22.02, 
			 "cosmo_repulsion_energy": 1.65, 
			 "cosmo_total_nonelectrostatic_energy": 8.93, 
			 "SMD_solvation_energy": 4.4 
		},
		"coords": [
			{
				"x": -4.0769299527,
				"y": -0.5986588165,
				"z": -1.1503565684,
				"element": "C" 
			},
			{
				"x": -2.7470419478,
				"y": -1.2697904028,
				"z": -0.8945498613,
				"element": "C" 
			},
			{
				"x": -2.6607185956,
				"y": -2.652454523,
				"z": -0.8977250249,
				"element": "C" 
			},
			{
				"x": -1.437630208,
				"y": -3.3043839631,
				"z": -0.6628644994,
				"element": "C" 
			},
			{
				"x": -0.2926406954,
				"y": -2.5721037018,
				"z": -0.42314026,
				"element": "C" 
			},
			{
				"x": -0.322089321,
				"y": -1.1576387088,
				"z": -0.4081135135,
				"element": "C" 
			},
			{
				"x": -1.5689407846,
				"y": -0.5011967642,
				"z": -0.6477127027,
				"element": "C" 
			},
			{
				"x": -1.6119233766,
				"y": 0.9349489094,
				"z": -0.6350956538,
				"element": "C" 
			},
			{
				"x": -0.4974863721,
				"y": 1.67995685,
				"z": -0.4013661321,
				"element": "C" 
			},
			{
				"x": 0.7725195156,
				"y": 1.0643091973,
				"z": -0.1565148717,
				"element": "C" 
			},
			{
				"x": 0.8722873591,
				"y": -0.3587409812,
				"z": -0.157491041,
				"element": "C" 
			},
			{
				"x": 2.1446006725,
				"y": -0.9291410348,
				"z": 0.0886217992,
				"element": "C" 
			},
			{
				"x": 3.2571606709,
				"y": -0.141623882,
				"z": 0.3227104133,
				"element": "C" 
			},
			{
				"x": 3.1504843572,
				"y": 1.2622605937,
				"z": 0.3219937053,
				"element": "C" 
			},
			{
				"x": 1.9241891948,
				"y": 1.8499459344,
				"z": 0.0853605768,
				"element": "C" 
			},
			{
				"x": -4.3896645635,
				"y": 0.0250465792,
				"z": -0.3046313748,
				"element": "H" 
			},
			{
				"x": -4.0444103402,
				"y": 0.0504155206,
				"z": -2.0333710315,
				"element": "H" 
			},
			{
				"x": -4.8582150625,
				"y": -1.3444776814,
				"z": -1.3173403622,
				"element": "H" 
			},
			{
				"x": -3.5546497754,
				"y": -3.2416834006,
				"z": -1.0851148199,
				"element": "H" 
			},
			{
				"x": -1.3952982862,
				"y": -4.3897997789,
				"z": -0.6704797873,
				"element": "H" 
			},
			{
				"x": 0.6375258451,
				"y": -3.0990301107,
				"z": -0.2449998295,
				"element": "H" 
			},
			{
				"x": -2.5575205998,
				"y": 1.4336180303,
				"z": -0.8166884904,
				"element": "H" 
			},
			{
				"x": -0.553884821,
				"y": 2.7656006673,
				"z": -0.3966128432,
				"element": "H" 
			},
			{
				"x": 2.2629282939,
				"y": -2.0066722063,
				"z": 0.0964899413,
				"element": "H" 
			},
			{
				"x": 4.2188880607,
				"y": -0.6112952986,
				"z": 0.508166409,
				"element": "H" 
			},
			{
				"x": 4.0273144751,
				"y": 1.8760339203,
				"z": 0.5063905138,
				"element": "H" 
			},
			{
				"x": 1.8243462576,
				"y": 2.9325550523,
				"z": 0.0813353088,
				"element": "H" 
			}
		],
		 "valence_orbital": [ 
			{
				"type": "occ",
				"energy": -0.31005,
				"method": "rhf"
			},
			{
				"type": "occ",
				"energy": -0.27617,
				"method": "rhf"
			},
			{
				"type": "occ",
				"energy": -0.25492,
				"method": "rhf"
			},
			{
				"type": "occ",
				"energy": -0.21955,
				"method": "rhf"
			},
			{
				"type": "occ",
				"energy": -0.20777,
				"method": "rhf"
			},
			{
				"type": "unocc",
				"energy": -0.0375,
				"method": "rhf"
			},
			{
				"type": "unocc",
				"energy": -0.02808,
				"method": "rhf"
			},
			{
				"type": "unocc",
				"energy": 0.01002,
				"method": "rhf"
			},
			{
				"type": "unocc",
				"energy": 0.04023,
				"method": "rhf"
			},
			{
				"type": "unocc",
				"energy": 0.08318,
				"method": "rhf"
			}
		],
		"cosmo_sigma_profile": { 
			"-0.025": 0.0,
			"-0.024": 0.0,
			"-0.023": 0.0,
			"-0.022": 0.0,
			"-0.021": 0.0,
			"-0.02": 0.0,
			"-0.019": 0.0,
			"-0.018": 0.0,
			"-0.017": 0.0,
			"-0.016": 0.0,
			"-0.015": 0.0,
			"-0.014": 0.0,
			"-0.013": 0.0,
			"-0.012": 0.0,
			"-0.011": 0.0,
			"-0.01": 0.0,
			"-0.009": 5.7602921502e-05,
			"-0.008": 0.879345042814,
			"-0.007": 1.78041489238,
			"-0.006": 8.93336598043,
			"-0.005": 18.1325633818,
			"-0.004": 24.7086020953,
			"-0.003": 22.4167411921,
			"-0.002": 17.2335032864,
			"-0.001": 15.3673340796,
			"0.0": 17.4951380215,
			"0.001": 14.9175416702,
			"0.002": 13.8116981997,
			"0.003": 19.4677335773,
			"0.004": 28.7777883179,
			"0.005": 23.9337908361,
			"0.006": 6.96067935857,
			"0.007": 0.0,
			"0.008": 0.0,
			"0.009": 0.0,
			"0.01": 0.0,
			"0.011": 0.0,
			"0.012": 0.0,
			"0.013": 0.0,
			"0.014": 0.0,
			"0.015": 0.0,
			"0.016": 0.0,
			"0.017": 0.0,
			"0.018": 0.0,
			"0.019": 0.0,
			"0.02": 0.0,
			"0.021": 0.0,
			"0.022": 0.0,
			"0.023": 0.0,
			"0.024": 0.0,
			"0.025": 0.0
		}
	}
}
