{
	 "smiles": "CC(C)NS(=O)(=O)C1=CC=C(N)C=C1", 
	 "Tm": 386.15, 
	 "num_atms": 28, 
	 "gaussian": { 
		 "optdone": 1, 
		 "sigma_profile": "yes", 
		 "theory": "DFT", 
		 "functional": "B3LYP", 
		 "basiset": "6-31G**", 
		 "properties": { 
			 "R2extent": 4171.4364, 
			 "electric_dipole_moment_norm": 5.45943160686, 
			 "electric_quadrupole_moment_norm": 26.1306235096, 
			 "total_energy": -1009.48086442, 
			 "HOMO_LUMO_gap": 0.20096, 
			 "cosmo_polarized_energy": -19.01, 
			 "cosmo_cavitation_energy": 32.38, 
			 "cosmo_dispersion_energy": -23.2, 
			 "cosmo_repulsion_energy": 1.81, 
			 "cosmo_total_nonelectrostatic_energy": 10.98, 
			 "SMD_solvation_energy": 4.63 
		},
		"coords": [
			{
				"x": -1.3325389883,
				"y": 1.365736749,
				"z": 2.6274202201,
				"element": "C" 
			},
			{
				"x": 0.114191579,
				"y": 1.3008596126,
				"z": 2.1217995083,
				"element": "C" 
			},
			{
				"x": 1.0939078216,
				"y": 1.9968395285,
				"z": 3.0723570916,
				"element": "C" 
			},
			{
				"x": 0.5872119917,
				"y": -0.0858925696,
				"z": 1.9073136676,
				"element": "N" 
			},
			{
				"x": 0.1650869037,
				"y": -0.9051950496,
				"z": 0.4912612539,
				"element": "S" 
			},
			{
				"x": 0.3757347417,
				"y": -2.319637788,
				"z": 0.8235555887,
				"element": "O" 
			},
			{
				"x": -1.1295452456,
				"y": -0.4475174116,
				"z": -0.0375866715,
				"element": "O" 
			},
			{
				"x": 1.4151123121,
				"y": -0.3548042983,
				"z": -0.6534901944,
				"element": "C" 
			},
			{
				"x": 1.041412709,
				"y": 0.3373438848,
				"z": -1.8074101875,
				"element": "C" 
			},
			{
				"x": 2.010322993,
				"y": 0.7276118744,
				"z": -2.7246629198,
				"element": "C" 
			},
			{
				"x": 3.3677023335,
				"y": 0.4274625839,
				"z": -2.5043139208,
				"element": "C" 
			},
			{
				"x": 4.3410075226,
				"y": 0.8578083267,
				"z": -3.3912971623,
				"element": "N" 
			},
			{
				"x": 3.7263319965,
				"y": -0.2774775956,
				"z": -1.3356929866,
				"element": "C" 
			},
			{
				"x": 2.7597293091,
				"y": -0.6671284025,
				"z": -0.4213871594,
				"element": "C" 
			},
			{
				"x": -1.651653145,
				"y": 2.4062509854,
				"z": 2.7506971639,
				"element": "H" 
			},
			{
				"x": -2.0078965598,
				"y": 0.8731037185,
				"z": 1.9252483438,
				"element": "H" 
			},
			{
				"x": -1.4206645731,
				"y": 0.8737520623,
				"z": 3.6042172095,
				"element": "H" 
			},
			{
				"x": 0.1713988307,
				"y": 1.7924386793,
				"z": 1.1438014703,
				"element": "H" 
			},
			{
				"x": 1.0961864227,
				"y": 1.5092315393,
				"z": 4.054450623,
				"element": "H" 
			},
			{
				"x": 0.8058588782,
				"y": 3.0424276426,
				"z": 3.2215500802,
				"element": "H" 
			},
			{
				"x": 2.1113676237,
				"y": 1.965042841,
				"z": 2.6743154785,
				"element": "H" 
			},
			{
				"x": 0.4027666553,
				"y": -0.714647875,
				"z": 2.6869758352,
				"element": "H" 
			},
			{
				"x": -0.0066545888,
				"y": 0.5565274883,
				"z": -1.9787309807,
				"element": "H" 
			},
			{
				"x": 1.7196039904,
				"y": 1.2689673627,
				"z": -3.6210968921,
				"element": "H" 
			},
			{
				"x": 5.2238515128,
				"y": 0.3688246996,
				"z": -3.3653598506,
				"element": "H" 
			},
			{
				"x": 4.0334618016,
				"y": 1.0753060073,
				"z": -4.3279657249,
				"element": "H" 
			},
			{
				"x": 4.7711424108,
				"y": -0.515751867,
				"z": -1.1544107877,
				"element": "H" 
			},
			{
				"x": 3.0420627609,
				"y": -1.2152827289,
				"z": 0.4711419037,
				"element": "H" 
			}
		],
		 "valence_orbital": [ 
			{
				"type": "occ",
				"energy": -0.29668,
				"method": "rhf"
			},
			{
				"type": "occ",
				"energy": -0.2859,
				"method": "rhf"
			},
			{
				"type": "occ",
				"energy": -0.26426,
				"method": "rhf"
			},
			{
				"type": "occ",
				"energy": -0.25758,
				"method": "rhf"
			},
			{
				"type": "occ",
				"energy": -0.2188,
				"method": "rhf"
			},
			{
				"type": "unocc",
				"energy": -0.01784,
				"method": "rhf"
			},
			{
				"type": "unocc",
				"energy": -0.01169,
				"method": "rhf"
			},
			{
				"type": "unocc",
				"energy": 0.06254,
				"method": "rhf"
			},
			{
				"type": "unocc",
				"energy": 0.07058,
				"method": "rhf"
			},
			{
				"type": "unocc",
				"energy": 0.09411,
				"method": "rhf"
			}
		],
		"cosmo_sigma_profile": { 
			"-0.025": 0.0,
			"-0.024": 0.0,
			"-0.023": 0.0,
			"-0.022": 0.0,
			"-0.021": 0.0,
			"-0.02": 0.0,
			"-0.019": 0.0,
			"-0.018": 0.0,
			"-0.017": 0.0,
			"-0.016": 0.0,
			"-0.015": 0.0,
			"-0.014": 0.40399429867,
			"-0.013": 3.14215971392,
			"-0.012": 4.34511983617,
			"-0.011": 3.2417182728,
			"-0.01": 4.82777715532,
			"-0.009": 4.99246014116,
			"-0.008": 4.07265049706,
			"-0.007": 6.63110368497,
			"-0.006": 8.44468403213,
			"-0.005": 10.031406042,
			"-0.004": 15.575097227,
			"-0.003": 19.76781708,
			"-0.002": 17.8362972212,
			"-0.001": 17.471544403,
			"0.0": 24.4274077713,
			"0.001": 18.7991999809,
			"0.002": 11.3988653858,
			"0.003": 12.9869691579,
			"0.004": 18.3009170122,
			"0.005": 7.86790407976,
			"0.006": 4.55162428441,
			"0.007": 3.74722212865,
			"0.008": 4.37846369037,
			"0.009": 4.40701379699,
			"0.01": 5.05526848469,
			"0.011": 9.01913801739,
			"0.012": 7.87355275031,
			"0.013": 1.18414243007,
			"0.014": 0.0,
			"0.015": 0.0,
			"0.016": 0.0,
			"0.017": 0.0,
			"0.018": 0.0,
			"0.019": 0.0,
			"0.02": 0.0,
			"0.021": 0.0,
			"0.022": 0.0,
			"0.023": 0.0,
			"0.024": 0.0,
			"0.025": 0.0
		}
	}
}
