{
	 "smiles": "CCCCCCCOS(O)(=O)=O", 
	 "Tm": 473.65, 
	 "num_atms": 28, 
	 "gaussian": { 
		 "optdone": 1, 
		 "sigma_profile": "yes", 
		 "theory": "DFT", 
		 "functional": "B3LYP", 
		 "basiset": "6-31G**", 
		 "properties": { 
			 "R2extent": 5162.7991, 
			 "electric_dipole_moment_norm": 3.92641578542, 
			 "electric_quadrupole_moment_norm": 18.5625296258, 
			 "total_energy": -975.410151817, 
			 "HOMO_LUMO_gap": 0.32762, 
			 "cosmo_polarized_energy": -12.41, 
			 "cosmo_cavitation_energy": 31.72, 
			 "cosmo_dispersion_energy": -22.55, 
			 "cosmo_repulsion_energy": 1.81, 
			 "cosmo_total_nonelectrostatic_energy": 10.98, 
			 "SMD_solvation_energy": 3.69 
		},
		"coords": [
			{
				"x": 1.4793414494,
				"y": 0.877771642,
				"z": -2.6846169256,
				"element": "C" 
			},
			{
				"x": 0.4579049487,
				"y": 1.2842823968,
				"z": -1.6170107553,
				"element": "C" 
			},
			{
				"x": 1.030098039,
				"y": 1.2284895757,
				"z": -0.1934858924,
				"element": "C" 
			},
			{
				"x": 0.0762147185,
				"y": 1.7255642627,
				"z": 0.9059497363,
				"element": "C" 
			},
			{
				"x": -1.241616674,
				"y": 0.9432625846,
				"z": 1.0608618553,
				"element": "C" 
			},
			{
				"x": -1.1286615867,
				"y": -0.5548310374,
				"z": 1.3959209074,
				"element": "C" 
			},
			{
				"x": -0.5301264774,
				"y": -0.8931515991,
				"z": 2.754005133,
				"element": "C" 
			},
			{
				"x": 0.9244226792,
				"y": -0.7273454626,
				"z": 2.6653607173,
				"element": "O" 
			},
			{
				"x": 1.7742028035,
				"y": -0.9816262437,
				"z": 4.0148651457,
				"element": "S" 
			},
			{
				"x": 1.4333738522,
				"y": 0.3667403384,
				"z": 4.8724030788,
				"element": "O" 
			},
			{
				"x": 1.1966968954,
				"y": -2.0751881577,
				"z": 4.76710557,
				"element": "O" 
			},
			{
				"x": 3.1648411214,
				"y": -0.9253409645,
				"z": 3.6119419668,
				"element": "O" 
			},
			{
				"x": 1.04870497,
				"y": 0.9227888843,
				"z": -3.6903294942,
				"element": "H" 
			},
			{
				"x": 2.3541144705,
				"y": 1.5377674801,
				"z": -2.6668510995,
				"element": "H" 
			},
			{
				"x": 1.8368800599,
				"y": -0.1452599019,
				"z": -2.5210936265,
				"element": "H" 
			},
			{
				"x": -0.4210411865,
				"y": 0.6311196164,
				"z": -1.6951272361,
				"element": "H" 
			},
			{
				"x": 0.0974850864,
				"y": 2.3019601296,
				"z": -1.8229621625,
				"element": "H" 
			},
			{
				"x": 1.9406486399,
				"y": 1.8419605181,
				"z": -0.1576103544,
				"element": "H" 
			},
			{
				"x": 1.356639769,
				"y": 0.2054029945,
				"z": 0.03188446,
				"element": "H" 
			},
			{
				"x": 0.611461592,
				"y": 1.7235028716,
				"z": 1.8624771728,
				"element": "H" 
			},
			{
				"x": -0.1811241651,
				"y": 2.7744689374,
				"z": 0.7038634598,
				"element": "H" 
			},
			{
				"x": -1.8429380663,
				"y": 1.4270328917,
				"z": 1.8428546705,
				"element": "H" 
			},
			{
				"x": -1.828360272,
				"y": 1.0354101665,
				"z": 0.1388876673,
				"element": "H" 
			},
			{
				"x": -0.5679694767,
				"y": -1.0949431038,
				"z": 0.6244350979,
				"element": "H" 
			},
			{
				"x": -2.1384495553,
				"y": -0.9853562489,
				"z": 1.3933914831,
				"element": "H" 
			},
			{
				"x": -0.7275266274,
				"y": -1.9300337581,
				"z": 3.0356897523,
				"element": "H" 
			},
			{
				"x": -0.9093575081,
				"y": -0.2303884917,
				"z": 3.5396982528,
				"element": "H" 
			},
			{
				"x": 2.0715405004,
				"y": 1.049039679,
				"z": 4.6033914191,
				"element": "H" 
			}
		],
		 "valence_orbital": [ 
			{
				"type": "occ",
				"energy": -0.32701,
				"method": "rhf"
			},
			{
				"type": "occ",
				"energy": -0.32109,
				"method": "rhf"
			},
			{
				"type": "occ",
				"energy": -0.31955,
				"method": "rhf"
			},
			{
				"type": "occ",
				"energy": -0.31554,
				"method": "rhf"
			},
			{
				"type": "occ",
				"energy": -0.31087,
				"method": "rhf"
			},
			{
				"type": "unocc",
				"energy": 0.01675,
				"method": "rhf"
			},
			{
				"type": "unocc",
				"energy": 0.05842,
				"method": "rhf"
			},
			{
				"type": "unocc",
				"energy": 0.07293,
				"method": "rhf"
			},
			{
				"type": "unocc",
				"energy": 0.08187,
				"method": "rhf"
			},
			{
				"type": "unocc",
				"energy": 0.09214,
				"method": "rhf"
			}
		],
		"cosmo_sigma_profile": { 
			"-0.025": 0.0,
			"-0.024": 0.0,
			"-0.023": 0.0,
			"-0.022": 0.0,
			"-0.021": 0.203370563021,
			"-0.02": 0.931047079038,
			"-0.019": 1.05846158012,
			"-0.018": 0.782024798316,
			"-0.017": 0.663378656606,
			"-0.016": 0.910594659735,
			"-0.015": 0.699569008861,
			"-0.014": 0.891598294708,
			"-0.013": 0.386776738002,
			"-0.012": 0.734147256149,
			"-0.011": 0.863668875754,
			"-0.01": 0.962083935163,
			"-0.009": 0.684411830914,
			"-0.008": 0.986841015971,
			"-0.007": 0.800751072879,
			"-0.006": 4.46249763029,
			"-0.005": 9.35046786758,
			"-0.004": 10.5893699234,
			"-0.003": 15.3982922896,
			"-0.002": 32.2024909108,
			"-0.001": 34.9884822052,
			"0.0": 31.7819508717,
			"0.001": 27.9196916484,
			"0.002": 15.455500589,
			"0.003": 5.00168685387,
			"0.004": 5.99730271606,
			"0.005": 5.48647613801,
			"0.006": 5.62552769715,
			"0.007": 5.84858943775,
			"0.008": 7.59160807262,
			"0.009": 13.5024870181,
			"0.01": 3.40868804724,
			"0.011": 0.0,
			"0.012": 0.0,
			"0.013": 0.0,
			"0.014": 0.0,
			"0.015": 0.0,
			"0.016": 0.0,
			"0.017": 0.0,
			"0.018": 0.0,
			"0.019": 0.0,
			"0.02": 0.0,
			"0.021": 0.0,
			"0.022": 0.0,
			"0.023": 0.0,
			"0.024": 0.0,
			"0.025": 0.0
		}
	}
}
