{
	 "smiles": "CC1=NC=CN1", 
	 "Tm": 417.15, 
	 "num_atms": 12, 
	 "gaussian": { 
		 "optdone": 1, 
		 "sigma_profile": "yes", 
		 "theory": "DFT", 
		 "functional": "B3LYP", 
		 "basiset": "6-31G**", 
		 "properties": { 
			 "R2extent": 1515.8721, 
			 "electric_dipole_moment_norm": 3.56665288611, 
			 "electric_quadrupole_moment_norm": 14.3522249843, 
			 "total_energy": -265.542688488, 
			 "HOMO_LUMO_gap": 0.24915, 
			 "cosmo_polarized_energy": -11.63, 
			 "cosmo_cavitation_energy": 15.56, 
			 "cosmo_dispersion_energy": -11.88, 
			 "cosmo_repulsion_energy": 1.03, 
			 "cosmo_total_nonelectrostatic_energy": 4.71, 
			 "SMD_solvation_energy": 1.63 
		},
		"coords": [
			{
				"x": 1.5786884991,
				"y": 0.6437402378,
				"z": -3.5494480275,
				"element": "C" 
			},
			{
				"x": 0.3408578774,
				"y": 0.703415611,
				"z": -2.7134815814,
				"element": "C" 
			},
			{
				"x": 0.2227133335,
				"y": 0.2681533643,
				"z": -1.4745834047,
				"element": "N" 
			},
			{
				"x": -1.0812953633,
				"y": 0.5264209288,
				"z": -1.1081861323,
				"element": "C" 
			},
			{
				"x": -1.7645709541,
				"y": 1.125332358,
				"z": -2.1341382751,
				"element": "C" 
			},
			{
				"x": -0.8434697961,
				"y": 1.2344793656,
				"z": -3.1595076507,
				"element": "N" 
			},
			{
				"x": 1.9179722546,
				"y": 1.6410426826,
				"z": -3.8541721881,
				"element": "H" 
			},
			{
				"x": 2.3691459266,
				"y": 0.1780244711,
				"z": -2.9592583217,
				"element": "H" 
			},
			{
				"x": 1.4323911953,
				"y": 0.0496729115,
				"z": -4.4595439687,
				"element": "H" 
			},
			{
				"x": -1.4523774043,
				"y": 0.2660914679,
				"z": -0.1265788222,
				"element": "H" 
			},
			{
				"x": -2.7811268955,
				"y": 1.4732682941,
				"z": -2.2334288793,
				"element": "H" 
			},
			{
				"x": -1.013628673,
				"y": 1.6328583074,
				"z": -4.0700727481,
				"element": "H" 
			}
		],
		 "valence_orbital": [ 
			{
				"type": "occ",
				"energy": -0.39003,
				"method": "rhf"
			},
			{
				"type": "occ",
				"energy": -0.38011,
				"method": "rhf"
			},
			{
				"type": "occ",
				"energy": -0.27107,
				"method": "rhf"
			},
			{
				"type": "occ",
				"energy": -0.25648,
				"method": "rhf"
			},
			{
				"type": "occ",
				"energy": -0.21457,
				"method": "rhf"
			},
			{
				"type": "unocc",
				"energy": 0.03458,
				"method": "rhf"
			},
			{
				"type": "unocc",
				"energy": 0.07529,
				"method": "rhf"
			},
			{
				"type": "unocc",
				"energy": 0.08018,
				"method": "rhf"
			},
			{
				"type": "unocc",
				"energy": 0.1233,
				"method": "rhf"
			},
			{
				"type": "unocc",
				"energy": 0.14306,
				"method": "rhf"
			}
		],
		"cosmo_sigma_profile": { 
			"-0.025": 0.0,
			"-0.024": 0.0,
			"-0.023": 0.0,
			"-0.022": 0.0,
			"-0.021": 0.0,
			"-0.02": 0.0,
			"-0.019": 0.0,
			"-0.018": 0.0,
			"-0.017": 0.0,
			"-0.016": 1.05208903067,
			"-0.015": 1.24339743952,
			"-0.014": 1.23651232788,
			"-0.013": 1.61937063196,
			"-0.012": 0.944375750232,
			"-0.011": 1.14269976956,
			"-0.01": 1.16126889414,
			"-0.009": 1.5157950048,
			"-0.008": 2.58259176504,
			"-0.007": 3.36285857381,
			"-0.006": 3.49505920884,
			"-0.005": 9.46988036714,
			"-0.004": 9.00258452728,
			"-0.003": 9.68161145693,
			"-0.002": 9.06716482519,
			"-0.001": 9.36627847831,
			"0.0": 8.47743854408,
			"0.001": 4.44856882879,
			"0.002": 4.56242964493,
			"0.003": 4.47772124356,
			"0.004": 5.42736584424,
			"0.005": 5.34781217539,
			"0.006": 5.95477665847,
			"0.007": 3.85251249995,
			"0.008": 2.21105095644,
			"0.009": 1.55056512176,
			"0.01": 1.80719176535,
			"0.011": 1.65451169426,
			"0.012": 0.987060266299,
			"0.013": 1.0861204596,
			"0.014": 1.07762782049,
			"0.015": 1.00588607459,
			"0.016": 1.47889796256,
			"0.017": 0.683715026738,
			"0.018": 1.05306864104,
			"0.019": 0.552096340182,
			"0.02": 0.0,
			"0.021": 0.0,
			"0.022": 0.0,
			"0.023": 0.0,
			"0.024": 0.0,
			"0.025": 0.0
		}
	}
}
