{
	 "smiles": "CCOC(=O)C1=C(C)C(C(=O)CCl)=C(C)N1", 
	 "Tm": 433.15, 
	 "num_atms": 30, 
	 "gaussian": { 
		 "optdone": 1, 
		 "sigma_profile": "yes", 
		 "theory": "DFT", 
		 "functional": "B3LYP", 
		 "basiset": "6-31G**", 
		 "properties": { 
			 "R2extent": 6077.9988, 
			 "electric_dipole_moment_norm": 5.9192848166, 
			 "electric_quadrupole_moment_norm": 10.5357889083, 
			 "total_energy": -1168.25363984, 
			 "HOMO_LUMO_gap": 0.17895, 
			 "cosmo_polarized_energy": -16.16, 
			 "cosmo_cavitation_energy": 35.03, 
			 "cosmo_dispersion_energy": -25.14, 
			 "cosmo_repulsion_energy": 1.99, 
			 "cosmo_total_nonelectrostatic_energy": 11.88, 
			 "SMD_solvation_energy": 7.16 
		},
		"coords": [
			{
				"x": -1.7565396605,
				"y": 1.7819765476,
				"z": 3.454717332,
				"element": "C" 
			},
			{
				"x": -0.3371777439,
				"y": 2.2356366311,
				"z": 3.1480466708,
				"element": "C" 
			},
			{
				"x": 0.1092519323,
				"y": 1.7416561392,
				"z": 1.8631735279,
				"element": "O" 
			},
			{
				"x": 0.6498121284,
				"y": 0.4853317617,
				"z": 1.8513887688,
				"element": "C" 
			},
			{
				"x": 0.7739414563,
				"y": -0.199912244,
				"z": 2.8495309427,
				"element": "O" 
			},
			{
				"x": 1.0446864587,
				"y": 0.1148142693,
				"z": 0.496027944,
				"element": "C" 
			},
			{
				"x": 1.622873702,
				"y": -1.0398838247,
				"z": -0.0092292963,
				"element": "C" 
			},
			{
				"x": 2.0029562705,
				"y": -2.2564608807,
				"z": 0.7765315751,
				"element": "C" 
			},
			{
				"x": 1.7702131409,
				"y": -0.8353741779,
				"z": -1.4273652136,
				"element": "C" 
			},
			{
				"x": 2.3610311958,
				"y": -1.8307153845,
				"z": -2.3255953451,
				"element": "C" 
			},
			{
				"x": 2.8934945774,
				"y": -2.8531718223,
				"z": -1.9094602021,
				"element": "O" 
			},
			{
				"x": 2.3437727038,
				"y": -1.6279863482,
				"z": -3.8471350767,
				"element": "C" 
			},
			{
				"x": 0.683981437,
				"y": -1.9075666136,
				"z": -4.5393917177,
				"element": "Cl" 
			},
			{
				"x": 1.2749242878,
				"y": 0.4518640303,
				"z": -1.7281585111,
				"element": "C" 
			},
			{
				"x": 1.1778706376,
				"y": 1.2511145421,
				"z": -2.9917471524,
				"element": "C" 
			},
			{
				"x": 0.8527856392,
				"y": 0.991524396,
				"z": -0.5642556259,
				"element": "N" 
			},
			{
				"x": -2.0936097372,
				"y": 2.2281209175,
				"z": 4.3963532832,
				"element": "H" 
			},
			{
				"x": -2.4460508957,
				"y": 2.0900642383,
				"z": 2.6629896579,
				"element": "H" 
			},
			{
				"x": -1.7968450613,
				"y": 0.6949298477,
				"z": 3.5567316894,
				"element": "H" 
			},
			{
				"x": 0.3597443583,
				"y": 1.892541954,
				"z": 3.9159950317,
				"element": "H" 
			},
			{
				"x": -0.2730780837,
				"y": 3.3231321759,
				"z": 3.0597361625,
				"element": "H" 
			},
			{
				"x": 3.081196253,
				"y": -2.432367142,
				"z": 0.7174782156,
				"element": "H" 
			},
			{
				"x": 1.7091606114,
				"y": -2.1398885832,
				"z": 1.819448427,
				"element": "H" 
			},
			{
				"x": 1.5325812501,
				"y": -3.1506206533,
				"z": 0.3566153558,
				"element": "H" 
			},
			{
				"x": 2.996483727,
				"y": -2.3798784034,
				"z": -4.2863278804,
				"element": "H" 
			},
			{
				"x": 2.6504549255,
				"y": -0.628395038,
				"z": -4.1563439971,
				"element": "H" 
			},
			{
				"x": 0.6495753121,
				"y": 2.1907669718,
				"z": -2.8053222698,
				"element": "H" 
			},
			{
				"x": 0.634104187,
				"y": 0.7101290325,
				"z": -3.7703508951,
				"element": "H" 
			},
			{
				"x": 2.1674254715,
				"y": 1.5085220888,
				"z": -3.3864394439,
				"element": "H" 
			},
			{
				"x": 0.4468795187,
				"y": 1.908195572,
				"z": -0.4476419571,
				"element": "H" 
			}
		],
		 "valence_orbital": [ 
			{
				"type": "occ",
				"energy": -0.30208,
				"method": "rhf"
			},
			{
				"type": "occ",
				"energy": -0.2761,
				"method": "rhf"
			},
			{
				"type": "occ",
				"energy": -0.25579,
				"method": "rhf"
			},
			{
				"type": "occ",
				"energy": -0.2487,
				"method": "rhf"
			},
			{
				"type": "occ",
				"energy": -0.23021,
				"method": "rhf"
			},
			{
				"type": "unocc",
				"energy": -0.05126,
				"method": "rhf"
			},
			{
				"type": "unocc",
				"energy": -0.03031,
				"method": "rhf"
			},
			{
				"type": "unocc",
				"energy": 0.02217,
				"method": "rhf"
			},
			{
				"type": "unocc",
				"energy": 0.06287,
				"method": "rhf"
			},
			{
				"type": "unocc",
				"energy": 0.07871,
				"method": "rhf"
			}
		],
		"cosmo_sigma_profile": { 
			"-0.025": 0.0,
			"-0.024": 0.0,
			"-0.023": 0.0,
			"-0.022": 0.0,
			"-0.021": 0.0,
			"-0.02": 0.0,
			"-0.019": 0.0,
			"-0.018": 0.0,
			"-0.017": 0.0,
			"-0.016": 0.00546006374185,
			"-0.015": 0.914923193082,
			"-0.014": 0.99409001645,
			"-0.013": 1.25214529236,
			"-0.012": 1.08433040613,
			"-0.011": 0.93777994533,
			"-0.01": 1.45902110531,
			"-0.009": 2.78022718758,
			"-0.008": 4.7250610806,
			"-0.007": 6.41290534944,
			"-0.006": 8.79959014881,
			"-0.005": 12.0621723881,
			"-0.004": 19.1630514445,
			"-0.003": 23.4161870142,
			"-0.002": 24.4782154512,
			"-0.001": 24.9911520539,
			"0.0": 27.1529802393,
			"0.001": 23.9894244743,
			"0.002": 20.617647622,
			"0.003": 18.3373574708,
			"0.004": 11.5132647789,
			"0.005": 11.2427756366,
			"0.006": 6.8509079409,
			"0.007": 3.09589781828,
			"0.008": 4.09115185598,
			"0.009": 2.97825379412,
			"0.01": 3.71404320961,
			"0.011": 4.72012429017,
			"0.012": 5.95431129236,
			"0.013": 1.38602457141,
			"0.014": 0.0163080346419,
			"0.015": 0.0,
			"0.016": 0.0,
			"0.017": 0.0,
			"0.018": 0.0,
			"0.019": 0.0,
			"0.02": 0.0,
			"0.021": 0.0,
			"0.022": 0.0,
			"0.023": 0.0,
			"0.024": 0.0,
			"0.025": 0.0
		}
	}
}
