{
	 "smiles": "[O-][N+](=O)C1=CC=C(C=C1)C1=C(N=O)N2C=CC=NC2=N1", 
	 "Tm": 464.15, 
	 "num_atms": 27, 
	 "gaussian": { 
		 "optdone": 1, 
		 "sigma_profile": "yes", 
		 "theory": "DFT", 
		 "functional": "B3LYP", 
		 "basiset": "6-31G**", 
		 "properties": { 
			 "R2extent": 7279.6788, 
			 "electric_dipole_moment_norm": 7.73911531701, 
			 "electric_quadrupole_moment_norm": 9.39367489218, 
			 "total_energy": -960.742915595, 
			 "HOMO_LUMO_gap": 0.11134, 
			 "cosmo_polarized_energy": -17.01, 
			 "cosmo_cavitation_energy": 33.63, 
			 "cosmo_dispersion_energy": -25.0, 
			 "cosmo_repulsion_energy": 1.84, 
			 "cosmo_total_nonelectrostatic_energy": 10.47, 
			 "SMD_solvation_energy": 5.71 
		},
		"coords": [
			{
				"x": 3.677109058,
				"y": -0.9733483193,
				"z": -3.850847451,
				"element": "O" 
			},
			{
				"x": 3.7805253394,
				"y": -1.3402746895,
				"z": -2.6810591854,
				"element": "N" 
			},
			{
				"x": 4.7338757691,
				"y": -1.9691292341,
				"z": -2.2232390971,
				"element": "O" 
			},
			{
				"x": 2.6818334146,
				"y": -1.0018516328,
				"z": -1.7601877448,
				"element": "C" 
			},
			{
				"x": 1.5874798273,
				"y": -0.2901752052,
				"z": -2.2476701462,
				"element": "C" 
			},
			{
				"x": 0.5507125248,
				"y": 0.0290070753,
				"z": -1.3778541285,
				"element": "C" 
			},
			{
				"x": 0.6107892002,
				"y": -0.3630247617,
				"z": -0.0272816697,
				"element": "C" 
			},
			{
				"x": 1.7306861944,
				"y": -1.0815031594,
				"z": 0.4349399105,
				"element": "C" 
			},
			{
				"x": 2.7697661404,
				"y": -1.403776937,
				"z": -0.4280413968,
				"element": "C" 
			},
			{
				"x": -0.4572396415,
				"y": -0.0514056643,
				"z": 0.933999174,
				"element": "C" 
			},
			{
				"x": -1.6765719633,
				"y": 0.6541752719,
				"z": 0.7194147815,
				"element": "C" 
			},
			{
				"x": -2.141229901,
				"y": 1.2090515617,
				"z": -0.4364420197,
				"element": "N" 
			},
			{
				"x": -3.2482906697,
				"y": 1.7809335111,
				"z": -0.3731907973,
				"element": "O" 
			},
			{
				"x": -2.3121399651,
				"y": 0.6595055094,
				"z": 1.9684356129,
				"element": "N" 
			},
			{
				"x": -3.4983416918,
				"y": 1.1747316143,
				"z": 2.4035762859,
				"element": "C" 
			},
			{
				"x": -3.8165492353,
				"y": 0.9914614248,
				"z": 3.7275401181,
				"element": "C" 
			},
			{
				"x": -2.910649915,
				"y": 0.2890416238,
				"z": 4.5558894882,
				"element": "C" 
			},
			{
				"x": -1.7587058621,
				"y": -0.2117819422,
				"z": 4.1346844981,
				"element": "N" 
			},
			{
				"x": -1.4561798837,
				"y": -0.0294736805,
				"z": 2.8455784018,
				"element": "C" 
			},
			{
				"x": -0.3504772343,
				"y": -0.4496004533,
				"z": 2.2157375429,
				"element": "N" 
			},
			{
				"x": 1.5624909309,
				"y": 0.0011329593,
				"z": -3.2900486559,
				"element": "H" 
			},
			{
				"x": -0.3092786226,
				"y": 0.5818577635,
				"z": -1.736445042,
				"element": "H" 
			},
			{
				"x": 1.7664747439,
				"y": -1.3781641961,
				"z": 1.4765009013,
				"element": "H" 
			},
			{
				"x": 3.6390735174,
				"y": -1.9551610863,
				"z": -0.0928981833,
				"element": "H" 
			},
			{
				"x": -4.095059488,
				"y": 1.6889408138,
				"z": 1.6646659107,
				"element": "H" 
			},
			{
				"x": -4.7468212995,
				"y": 1.3815195876,
				"z": 4.1212357581,
				"element": "H" 
			},
			{
				"x": -3.1461812877,
				"y": 0.1344122453,
				"z": 5.6067071337,
				"element": "H" 
			}
		],
		 "valence_orbital": [ 
			{
				"type": "occ",
				"energy": -0.29226,
				"method": "rhf"
			},
			{
				"type": "occ",
				"energy": -0.28163,
				"method": "rhf"
			},
			{
				"type": "occ",
				"energy": -0.27262,
				"method": "rhf"
			},
			{
				"type": "occ",
				"energy": -0.25936,
				"method": "rhf"
			},
			{
				"type": "occ",
				"energy": -0.23207,
				"method": "rhf"
			},
			{
				"type": "unocc",
				"energy": -0.12073,
				"method": "rhf"
			},
			{
				"type": "unocc",
				"energy": -0.09737,
				"method": "rhf"
			},
			{
				"type": "unocc",
				"energy": -0.07464,
				"method": "rhf"
			},
			{
				"type": "unocc",
				"energy": -0.03076,
				"method": "rhf"
			},
			{
				"type": "unocc",
				"energy": -0.02201,
				"method": "rhf"
			}
		],
		"cosmo_sigma_profile": { 
			"-0.025": 0.0,
			"-0.024": 0.0,
			"-0.023": 0.0,
			"-0.022": 0.0,
			"-0.021": 0.0,
			"-0.02": 0.0,
			"-0.019": 0.0,
			"-0.018": 0.0,
			"-0.017": 0.0,
			"-0.016": 0.0,
			"-0.015": 0.0,
			"-0.014": 0.0,
			"-0.013": 0.0,
			"-0.012": 0.0,
			"-0.011": 0.0133938931279,
			"-0.01": 1.82244634621,
			"-0.009": 7.0670449086,
			"-0.008": 8.95001107011,
			"-0.007": 11.9705944553,
			"-0.006": 15.7235475121,
			"-0.005": 15.0237797445,
			"-0.004": 17.3746614363,
			"-0.003": 21.9736595668,
			"-0.002": 22.5546890455,
			"-0.001": 22.9468277502,
			"0.0": 23.1299336298,
			"0.001": 17.8368581034,
			"0.002": 8.28414523945,
			"0.003": 6.94451948386,
			"0.004": 6.70344047872,
			"0.005": 7.2415084981,
			"0.006": 8.96721666618,
			"0.007": 13.1931289723,
			"0.008": 11.4884523882,
			"0.009": 8.08061566617,
			"0.01": 6.84655144136,
			"0.011": 3.8615769544,
			"0.012": 3.88838272289,
			"0.013": 1.43554138912,
			"0.014": 0.387541114274,
			"0.015": 0.0,
			"0.016": 0.0,
			"0.017": 0.0,
			"0.018": 0.0,
			"0.019": 0.0,
			"0.02": 0.0,
			"0.021": 0.0,
			"0.022": 0.0,
			"0.023": 0.0,
			"0.024": 0.0,
			"0.025": 0.0
		}
	}
}
