{
	 "smiles": "BrC1=CC=C(C=C1)C(=O)NC1=NC=CN=C1", 
	 "Tm": 469.15, 
	 "num_atms": 24, 
	 "gaussian": { 
		 "optdone": 1, 
		 "sigma_profile": "yes", 
		 "theory": "DFT", 
		 "functional": "B3LYP", 
		 "basiset": "6-31G**", 
		 "properties": { 
			 "R2extent": 8915.3406, 
			 "electric_dipole_moment_norm": 2.38266558711, 
			 "electric_quadrupole_moment_norm": 7.07146105766, 
			 "total_energy": -3234.87223755, 
			 "HOMO_LUMO_gap": 0.18251, 
			 "cosmo_polarized_energy": -18.56, 
			 "cosmo_cavitation_energy": 32.2, 
			 "cosmo_dispersion_energy": -23.99, 
			 "cosmo_repulsion_energy": 1.85, 
			 "cosmo_total_nonelectrostatic_energy": 10.06, 
			 "SMD_solvation_energy": 2.47 
		},
		"coords": [
			{
				"x": 1.6609491186,
				"y": -3.3429807741,
				"z": -4.8911325,
				"element": "Br" 
			},
			{
				"x": 1.2591389386,
				"y": -2.4845023482,
				"z": -3.2354436982,
				"element": "C" 
			},
			{
				"x": 0.6132776848,
				"y": -1.249088911,
				"z": -3.2455876346,
				"element": "C" 
			},
			{
				"x": 0.3153094855,
				"y": -0.6295084194,
				"z": -2.0323342111,
				"element": "C" 
			},
			{
				"x": 0.6589646547,
				"y": -1.2355403001,
				"z": -0.8158082502,
				"element": "C" 
			},
			{
				"x": 1.3285374798,
				"y": -2.4667436331,
				"z": -0.8335222022,
				"element": "C" 
			},
			{
				"x": 1.6244648649,
				"y": -3.099640725,
				"z": -2.0367074922,
				"element": "C" 
			},
			{
				"x": 0.3858525891,
				"y": -0.6231498949,
				"z": 0.5297097049,
				"element": "C" 
			},
			{
				"x": 1.0190106692,
				"y": -0.9343423992,
				"z": 1.5207794332,
				"element": "O" 
			},
			{
				"x": -0.6654224281,
				"y": 0.2981598904,
				"z": 0.5378766486,
				"element": "N" 
			},
			{
				"x": -1.1038669535,
				"y": 1.0610735857,
				"z": 1.628253611,
				"element": "C" 
			},
			{
				"x": -0.2205822997,
				"y": 1.4628929372,
				"z": 2.5421440896,
				"element": "N" 
			},
			{
				"x": -0.7054031466,
				"y": 2.2066585908,
				"z": 3.5417709316,
				"element": "C" 
			},
			{
				"x": -2.0482286029,
				"y": 2.5718608438,
				"z": 3.6212392678,
				"element": "C" 
			},
			{
				"x": -2.932609593,
				"y": 2.1841405694,
				"z": 2.6906609609,
				"element": "N" 
			},
			{
				"x": -2.4632355571,
				"y": 1.4257464588,
				"z": 1.7056178002,
				"element": "C" 
			},
			{
				"x": 0.3565920722,
				"y": -0.7750555677,
				"z": -4.1858725956,
				"element": "H" 
			},
			{
				"x": -0.1518935354,
				"y": 0.3509766946,
				"z": -2.0499521018,
				"element": "H" 
			},
			{
				"x": 1.6125851102,
				"y": -2.9134966168,
				"z": 0.1132321007,
				"element": "H" 
			},
			{
				"x": 2.1338155413,
				"y": -4.0563689728,
				"z": -2.0485723839,
				"element": "H" 
			},
			{
				"x": -1.3100066577,
				"y": 0.2414677759,
				"z": -0.237344555,
				"element": "H" 
			},
			{
				"x": 0.0080226974,
				"y": 2.5313067978,
				"z": 4.2964535477,
				"element": "H" 
			},
			{
				"x": -2.4201486629,
				"y": 3.1848595284,
				"z": 4.4382014729,
				"element": "H" 
			},
			{
				"x": -3.1750234692,
				"y": 1.0916748894,
				"z": 0.9505380557,
				"element": "H" 
			}
		],
		 "valence_orbital": [ 
			{
				"type": "occ",
				"energy": -0.27976,
				"method": "rhf"
			},
			{
				"type": "occ",
				"energy": -0.27649,
				"method": "rhf"
			},
			{
				"type": "occ",
				"energy": -0.25597,
				"method": "rhf"
			},
			{
				"type": "occ",
				"energy": -0.24933,
				"method": "rhf"
			},
			{
				"type": "occ",
				"energy": -0.24566,
				"method": "rhf"
			},
			{
				"type": "unocc",
				"energy": -0.06315,
				"method": "rhf"
			},
			{
				"type": "unocc",
				"energy": -0.04861,
				"method": "rhf"
			},
			{
				"type": "unocc",
				"energy": -0.02974,
				"method": "rhf"
			},
			{
				"type": "unocc",
				"energy": -0.01938,
				"method": "rhf"
			},
			{
				"type": "unocc",
				"energy": -0.00318,
				"method": "rhf"
			}
		],
		"cosmo_sigma_profile": { 
			"-0.025": 0.0,
			"-0.024": 0.0,
			"-0.023": 0.0,
			"-0.022": 0.0,
			"-0.021": 0.0,
			"-0.02": 0.0,
			"-0.019": 0.0,
			"-0.018": 0.0,
			"-0.017": 0.0670679989806,
			"-0.016": 0.926016277004,
			"-0.015": 1.21867598755,
			"-0.014": 1.83163919755,
			"-0.013": 1.43505410764,
			"-0.012": 1.81670458652,
			"-0.011": 1.2466429663,
			"-0.01": 1.80572657825,
			"-0.009": 2.44592615556,
			"-0.008": 6.30078390512,
			"-0.007": 13.3981636719,
			"-0.006": 12.5708045507,
			"-0.005": 12.8594924451,
			"-0.004": 12.1578824404,
			"-0.003": 13.6038277847,
			"-0.002": 17.4724777284,
			"-0.001": 19.7819024436,
			"0.0": 21.8804442183,
			"0.001": 23.5933909674,
			"0.002": 26.4885963412,
			"0.003": 15.5858868754,
			"0.004": 14.1869448513,
			"0.005": 6.29164000534,
			"0.006": 3.65204482698,
			"0.007": 3.31523414536,
			"0.008": 1.83424784107,
			"0.009": 3.36673147327,
			"0.01": 3.70851603606,
			"0.011": 3.29405289114,
			"0.012": 4.86010304383,
			"0.013": 4.17751594283,
			"0.014": 2.22620930984,
			"0.015": 2.23552588867,
			"0.016": 0.901425514174,
			"0.017": 0.760749829566,
			"0.018": 0.0,
			"0.019": 0.0,
			"0.02": 0.0,
			"0.021": 0.0,
			"0.022": 0.0,
			"0.023": 0.0,
			"0.024": 0.0,
			"0.025": 0.0
		}
	}
}
