{
	 "smiles": "C#CC1=CC(=CC(=C1)C#C)C#C", 
	 "Tm": 379.15, 
	 "num_atms": 18, 
	 "gaussian": { 
		 "optdone": 1, 
		 "sigma_profile": "yes", 
		 "theory": "DFT", 
		 "functional": "B3LYP", 
		 "basiset": "6-31G**", 
		 "properties": { 
			 "R2extent": 2504.5037, 
			 "electric_dipole_moment_norm": 0.000877496438739, 
			 "electric_quadrupole_moment_norm": 9.52763286499, 
			 "total_energy": -460.681075623, 
			 "HOMO_LUMO_gap": 0.19174, 
			 "cosmo_polarized_energy": -7.42, 
			 "cosmo_cavitation_energy": 26.51, 
			 "cosmo_dispersion_energy": -17.09, 
			 "cosmo_repulsion_energy": 1.32, 
			 "cosmo_total_nonelectrostatic_energy": 10.74, 
			 "SMD_solvation_energy": 8.56 
		},
		"coords": [
			{
				"x": 0.9234498293,
				"y": 1.1729008428,
				"z": -4.3261877228,
				"element": "C" 
			},
			{
				"x": 0.6182515558,
				"y": 1.0354393292,
				"z": -3.1638362835,
				"element": "C" 
			},
			{
				"x": 0.2574441983,
				"y": 0.873568459,
				"z": -1.7893800867,
				"element": "C" 
			},
			{
				"x": -0.8863218492,
				"y": 1.508645707,
				"z": -1.2789416536,
				"element": "C" 
			},
			{
				"x": -1.2452274615,
				"y": 1.3531105097,
				"z": 0.0697865699,
				"element": "C" 
			},
			{
				"x": -0.4510675081,
				"y": 0.5556632695,
				"z": 0.9097060796,
				"element": "C" 
			},
			{
				"x": 0.6947986754,
				"y": -0.0839727776,
				"z": 0.4097847594,
				"element": "C" 
			},
			{
				"x": 1.044411701,
				"y": 0.0784013627,
				"z": -0.9405779124,
				"element": "C" 
			},
			{
				"x": 1.4999690892,
				"y": -0.8949317401,
				"z": 1.2697606946,
				"element": "C" 
			},
			{
				"x": 2.1809438524,
				"y": -1.5807661944,
				"z": 1.997088859,
				"element": "C" 
			},
			{
				"x": -2.4112211044,
				"y": 2.0021640564,
				"z": 0.584277781,
				"element": "C" 
			},
			{
				"x": -3.3973642364,
				"y": 2.5510512112,
				"z": 1.0194179384,
				"element": "C" 
			},
			{
				"x": 1.1929058182,
				"y": 1.2940444176,
				"z": -5.3498046339,
				"element": "H" 
			},
			{
				"x": -1.4964808104,
				"y": 2.1232390275,
				"z": -1.9306358199,
				"element": "H" 
			},
			{
				"x": -0.7244915527,
				"y": 0.4329739343,
				"z": 1.9512958374,
				"element": "H" 
			},
			{
				"x": 1.9279960875,
				"y": -0.4135125753,
				"z": -1.3304799911,
				"element": "H" 
			},
			{
				"x": 2.7809269466,
				"y": -2.1848920934,
				"z": 2.637498104,
				"element": "H" 
			},
			{
				"x": -4.2659232308,
				"y": 3.0343732539,
				"z": 1.4029274806,
				"element": "H" 
			}
		],
		 "valence_orbital": [ 
			{
				"type": "occ",
				"energy": -0.28428,
				"method": "rhf"
			},
			{
				"type": "occ",
				"energy": -0.27496,
				"method": "rhf"
			},
			{
				"type": "occ",
				"energy": -0.27385,
				"method": "rhf"
			},
			{
				"type": "occ",
				"energy": -0.23861,
				"method": "rhf"
			},
			{
				"type": "occ",
				"energy": -0.23861,
				"method": "rhf"
			},
			{
				"type": "unocc",
				"energy": -0.04687,
				"method": "rhf"
			},
			{
				"type": "unocc",
				"energy": -0.04687,
				"method": "rhf"
			},
			{
				"type": "unocc",
				"energy": 0.02794,
				"method": "rhf"
			},
			{
				"type": "unocc",
				"energy": 0.04069,
				"method": "rhf"
			},
			{
				"type": "unocc",
				"energy": 0.0407,
				"method": "rhf"
			}
		],
		"cosmo_sigma_profile": { 
			"-0.025": 0.0,
			"-0.024": 0.0,
			"-0.023": 0.0,
			"-0.022": 0.0,
			"-0.021": 0.0,
			"-0.02": 0.0,
			"-0.019": 0.0,
			"-0.018": 0.0,
			"-0.017": 0.0,
			"-0.016": 0.0,
			"-0.015": 0.0,
			"-0.014": 0.0,
			"-0.013": 0.147281112648,
			"-0.012": 3.15694094353,
			"-0.011": 3.63561246166,
			"-0.01": 3.42947155139,
			"-0.009": 3.33753354434,
			"-0.008": 5.72749299293,
			"-0.007": 5.68442277738,
			"-0.006": 8.73192228318,
			"-0.005": 8.11908935355,
			"-0.004": 6.7407501764,
			"-0.003": 7.54198197108,
			"-0.002": 10.6896966387,
			"-0.001": 10.8086150768,
			"0.0": 15.7631687777,
			"0.001": 29.7784972267,
			"0.002": 23.9111262908,
			"0.003": 16.2568987228,
			"0.004": 14.4905527811,
			"0.005": 23.8966647319,
			"0.006": 16.291492966,
			"0.007": 0.0467965334783,
			"0.008": 0.0,
			"0.009": 0.0,
			"0.01": 0.0,
			"0.011": 0.0,
			"0.012": 0.0,
			"0.013": 0.0,
			"0.014": 0.0,
			"0.015": 0.0,
			"0.016": 0.0,
			"0.017": 0.0,
			"0.018": 0.0,
			"0.019": 0.0,
			"0.02": 0.0,
			"0.021": 0.0,
			"0.022": 0.0,
			"0.023": 0.0,
			"0.024": 0.0,
			"0.025": 0.0
		}
	}
}
