{
	 "smiles": "NC1=CC(=CC=C1)C(=O)N1CCOCC1", 
	 "Tm": 356.15, 
	 "num_atms": 29, 
	 "gaussian": { 
		 "optdone": 1, 
		 "sigma_profile": "yes", 
		 "theory": "DFT", 
		 "functional": "B3LYP", 
		 "basiset": "6-31G**", 
		 "properties": { 
			 "R2extent": 4266.0157, 
			 "electric_dipole_moment_norm": 3.6794949436, 
			 "electric_quadrupole_moment_norm": 15.6303756388, 
			 "total_energy": -687.558845021, 
			 "HOMO_LUMO_gap": 0.18368, 
			 "cosmo_polarized_energy": -16.46, 
			 "cosmo_cavitation_energy": 31.3, 
			 "cosmo_dispersion_energy": -22.93, 
			 "cosmo_repulsion_energy": 1.8, 
			 "cosmo_total_nonelectrostatic_energy": 10.17, 
			 "SMD_solvation_energy": 5.13 
		},
		"coords": [
			{
				"x": -0.3866588888,
				"y": 1.833992236,
				"z": -4.2723812219,
				"element": "N" 
			},
			{
				"x": 0.1743518405,
				"y": 1.2698011997,
				"z": -3.1286233994,
				"element": "C" 
			},
			{
				"x": -0.3838165271,
				"y": 0.1189906886,
				"z": -2.5507663935,
				"element": "C" 
			},
			{
				"x": 0.1963032216,
				"y": -0.4739760086,
				"z": -1.4270841529,
				"element": "C" 
			},
			{
				"x": 1.3745398872,
				"y": 0.0576681414,
				"z": -0.8824266738,
				"element": "C" 
			},
			{
				"x": 1.9418787213,
				"y": 1.1920658849,
				"z": -1.4648032916,
				"element": "C" 
			},
			{
				"x": 1.3490492544,
				"y": 1.802742142,
				"z": -2.5663609034,
				"element": "C" 
			},
			{
				"x": -0.4315972105,
				"y": -1.7454259637,
				"z": -0.9205590703,
				"element": "C" 
			},
			{
				"x": -0.8116245146,
				"y": -2.6052268751,
				"z": -1.712057942,
				"element": "O" 
			},
			{
				"x": -0.5178047584,
				"y": -1.9349336051,
				"z": 0.4465840475,
				"element": "N" 
			},
			{
				"x": -0.6411443942,
				"y": -0.8639029507,
				"z": 1.4397698053,
				"element": "C" 
			},
			{
				"x": 0.010740421,
				"y": -1.307467108,
				"z": 2.7495865649,
				"element": "C" 
			},
			{
				"x": -0.546541838,
				"y": -2.5276299794,
				"z": 3.2153231157,
				"element": "O" 
			},
			{
				"x": -0.3878307463,
				"y": -3.5658986331,
				"z": 2.2541439422,
				"element": "C" 
			},
			{
				"x": -1.0533847684,
				"y": -3.2113270325,
				"z": 0.9258708703,
				"element": "C" 
			},
			{
				"x": -0.1772482417,
				"y": 2.8096948754,
				"z": -4.4286666973,
				"element": "H" 
			},
			{
				"x": -1.3600051922,
				"y": 1.6175873056,
				"z": -4.4337212854,
				"element": "H" 
			},
			{
				"x": -1.2685120789,
				"y": -0.3380404392,
				"z": -2.9844348789,
				"element": "H" 
			},
			{
				"x": 1.8566822137,
				"y": -0.4280195031,
				"z": -0.0405369351,
				"element": "H" 
			},
			{
				"x": 2.8608378457,
				"y": 1.6052851596,
				"z": -1.0583425284,
				"element": "H" 
			},
			{
				"x": 1.8013290147,
				"y": 2.6867813446,
				"z": -3.0091966183,
				"element": "H" 
			},
			{
				"x": -0.1803474099,
				"y": 0.0510965057,
				"z": 1.0692510073,
				"element": "H" 
			},
			{
				"x": -1.7071043715,
				"y": -0.660162447,
				"z": 1.6279314338,
				"element": "H" 
			},
			{
				"x": 1.0987112903,
				"y": -1.4150460668,
				"z": 2.6025135785,
				"element": "H" 
			},
			{
				"x": -0.1638902686,
				"y": -0.5643591169,
				"z": 3.5333504561,
				"element": "H" 
			},
			{
				"x": -0.8465136374,
				"y": -4.4602399507,
				"z": 2.6855095632,
				"element": "H" 
			},
			{
				"x": 0.6832488054,
				"y": -3.7661579047,
				"z": 2.0868104116,
				"element": "H" 
			},
			{
				"x": -2.1424147426,
				"y": -3.1367309089,
				"z": 1.0657208675,
				"element": "H" 
			},
			{
				"x": -0.8635329267,
				"y": -3.97076099,
				"z": 0.1664963285,
				"element": "H" 
			}
		],
		 "valence_orbital": [ 
			{
				"type": "occ",
				"energy": -0.26856,
				"method": "rhf"
			},
			{
				"type": "occ",
				"energy": -0.26011,
				"method": "rhf"
			},
			{
				"type": "occ",
				"energy": -0.24036,
				"method": "rhf"
			},
			{
				"type": "occ",
				"energy": -0.22981,
				"method": "rhf"
			},
			{
				"type": "occ",
				"energy": -0.20732,
				"method": "rhf"
			},
			{
				"type": "unocc",
				"energy": -0.02364,
				"method": "rhf"
			},
			{
				"type": "unocc",
				"energy": 0.00786,
				"method": "rhf"
			},
			{
				"type": "unocc",
				"energy": 0.05086,
				"method": "rhf"
			},
			{
				"type": "unocc",
				"energy": 0.07736,
				"method": "rhf"
			},
			{
				"type": "unocc",
				"energy": 0.09231,
				"method": "rhf"
			}
		],
		"cosmo_sigma_profile": { 
			"-0.025": 0.0,
			"-0.024": 0.0,
			"-0.023": 0.0,
			"-0.022": 0.0,
			"-0.021": 0.0,
			"-0.02": 0.0,
			"-0.019": 0.0,
			"-0.018": 0.0,
			"-0.017": 0.0,
			"-0.016": 0.0,
			"-0.015": 0.0,
			"-0.014": 0.0,
			"-0.013": 0.836323579331,
			"-0.012": 2.04100103856,
			"-0.011": 3.28141306095,
			"-0.01": 2.62275831502,
			"-0.009": 3.26804774952,
			"-0.008": 3.11896640299,
			"-0.007": 3.09926683747,
			"-0.006": 8.05159533401,
			"-0.005": 20.261394689,
			"-0.004": 32.5675250103,
			"-0.003": 26.5801632447,
			"-0.002": 20.5092555637,
			"-0.001": 13.8039833469,
			"0.0": 10.4892991209,
			"0.001": 10.006488939,
			"0.002": 10.8601353273,
			"0.003": 8.56631248287,
			"0.004": 10.6878334306,
			"0.005": 12.1698729336,
			"0.006": 9.72289347006,
			"0.007": 4.00335632903,
			"0.008": 4.16990585355,
			"0.009": 2.97424904688,
			"0.01": 3.04502367059,
			"0.011": 4.12317851189,
			"0.012": 4.08257982134,
			"0.013": 6.43254802205,
			"0.014": 4.17489654556,
			"0.015": 0.735720088282,
			"0.016": 0.0,
			"0.017": 0.0,
			"0.018": 0.0,
			"0.019": 0.0,
			"0.02": 0.0,
			"0.021": 0.0,
			"0.022": 0.0,
			"0.023": 0.0,
			"0.024": 0.0,
			"0.025": 0.0
		}
	}
}
