{
	 "smiles": "CNC1CCCCNC1=O", 
	 "Tm": 508.15, 
	 "num_atms": 24, 
	 "gaussian": { 
		 "optdone": 1, 
		 "sigma_profile": "yes", 
		 "theory": "DFT", 
		 "functional": "B3LYP", 
		 "basiset": "6-31G**", 
		 "properties": { 
			 "R2extent": 1579.3287, 
			 "electric_dipole_moment_norm": 3.14480980188, 
			 "electric_quadrupole_moment_norm": 14.5891372295, 
			 "total_energy": -459.918930992, 
			 "HOMO_LUMO_gap": 0.25562, 
			 "cosmo_polarized_energy": -10.93, 
			 "cosmo_cavitation_energy": 24.42, 
			 "cosmo_dispersion_energy": -18.21, 
			 "cosmo_repulsion_energy": 1.49, 
			 "cosmo_total_nonelectrostatic_energy": 7.7, 
			 "SMD_solvation_energy": 3.36 
		},
		"coords": [
			{
				"x": 0.9855005961,
				"y": 1.1045966382,
				"z": -1.8619848288,
				"element": "C" 
			},
			{
				"x": 1.0718469542,
				"y": 0.0646532187,
				"z": -0.8381394774,
				"element": "N" 
			},
			{
				"x": -0.132239121,
				"y": -0.7750090651,
				"z": -0.7434953016,
				"element": "C" 
			},
			{
				"x": -1.3494795369,
				"y": 0.0032829003,
				"z": -0.1907388007,
				"element": "C" 
			},
			{
				"x": -1.1014237753,
				"y": 0.8549344501,
				"z": 1.0632644043,
				"element": "C" 
			},
			{
				"x": -0.6762898519,
				"y": 0.0819364268,
				"z": 2.3198553975,
				"element": "C" 
			},
			{
				"x": 0.6553182157,
				"y": -0.6678226403,
				"z": 2.1741933155,
				"element": "C" 
			},
			{
				"x": 0.5707980333,
				"y": -1.8897958701,
				"z": 1.3734942949,
				"element": "N" 
			},
			{
				"x": 0.1752613336,
				"y": -2.0396486349,
				"z": 0.0746555677,
				"element": "C" 
			},
			{
				"x": 0.0703152578,
				"y": -3.1525167767,
				"z": -0.4330644989,
				"element": "O" 
			},
			{
				"x": 0.2818349513,
				"y": 1.8843612015,
				"z": -1.5536864975,
				"element": "H" 
			},
			{
				"x": 1.9655570918,
				"y": 1.5766818474,
				"z": -1.9771655395,
				"element": "H" 
			},
			{
				"x": 0.6616759651,
				"y": 0.733519769,
				"z": -2.8506151488,
				"element": "H" 
			},
			{
				"x": 1.8597636104,
				"y": -0.538974063,
				"z": -1.059891282,
				"element": "H" 
			},
			{
				"x": -0.4252384308,
				"y": -1.1771954556,
				"z": -1.7270780606,
				"element": "H" 
			},
			{
				"x": -1.7240447102,
				"y": 0.65943946,
				"z": -0.9856229115,
				"element": "H" 
			},
			{
				"x": -2.1510695165,
				"y": -0.7231915025,
				"z": -0.0049122129,
				"element": "H" 
			},
			{
				"x": -0.3328227995,
				"y": 1.6040239717,
				"z": 0.8392438293,
				"element": "H" 
			},
			{
				"x": -2.0216172463,
				"y": 1.4094216172,
				"z": 1.2859291607,
				"element": "H" 
			},
			{
				"x": -1.4569076137,
				"y": -0.6325254031,
				"z": 2.6135640395,
				"element": "H" 
			},
			{
				"x": -0.5738183472,
				"y": 0.7950549578,
				"z": 3.1481961284,
				"element": "H" 
			},
			{
				"x": 1.4078639376,
				"y": 0.0024601465,
				"z": 1.7457955051,
				"element": "H" 
			},
			{
				"x": 1.0095455436,
				"y": -0.9786868349,
				"z": 3.1615355574,
				"element": "H" 
			},
			{
				"x": 0.7203694589,
				"y": -2.775800359,
				"z": 1.8373673602,
				"element": "H" 
			}
		],
		 "valence_orbital": [ 
			{
				"type": "occ",
				"energy": -0.32449,
				"method": "rhf"
			},
			{
				"type": "occ",
				"energy": -0.32167,
				"method": "rhf"
			},
			{
				"type": "occ",
				"energy": -0.24022,
				"method": "rhf"
			},
			{
				"type": "occ",
				"energy": -0.23657,
				"method": "rhf"
			},
			{
				"type": "occ",
				"energy": -0.22786,
				"method": "rhf"
			},
			{
				"type": "unocc",
				"energy": 0.02776,
				"method": "rhf"
			},
			{
				"type": "unocc",
				"energy": 0.06989,
				"method": "rhf"
			},
			{
				"type": "unocc",
				"energy": 0.09149,
				"method": "rhf"
			},
			{
				"type": "unocc",
				"energy": 0.11084,
				"method": "rhf"
			},
			{
				"type": "unocc",
				"energy": 0.12331,
				"method": "rhf"
			}
		],
		"cosmo_sigma_profile": { 
			"-0.025": 0.0,
			"-0.024": 0.0,
			"-0.023": 0.0,
			"-0.022": 0.0,
			"-0.021": 0.0,
			"-0.02": 0.0,
			"-0.019": 0.0,
			"-0.018": 0.0,
			"-0.017": 0.0,
			"-0.016": 0.0,
			"-0.015": 0.0,
			"-0.014": 0.0,
			"-0.013": 0.744717604934,
			"-0.012": 1.31044478621,
			"-0.011": 1.24209444548,
			"-0.01": 2.08255992273,
			"-0.009": 2.26104185452,
			"-0.008": 2.21667145987,
			"-0.007": 2.79954817316,
			"-0.006": 2.55433528413,
			"-0.005": 4.33810138426,
			"-0.004": 8.11175045973,
			"-0.003": 19.5345659813,
			"-0.002": 34.16213569,
			"-0.001": 33.0108054551,
			"0.0": 24.0799567166,
			"0.001": 10.1134047943,
			"0.002": 4.50995850429,
			"0.003": 3.91458100282,
			"0.004": 3.26279590208,
			"0.005": 2.55478991962,
			"0.006": 1.84185071434,
			"0.007": 1.91153760242,
			"0.008": 2.46754619315,
			"0.009": 1.77590792809,
			"0.01": 1.7648071171,
			"0.011": 1.6877707203,
			"0.012": 1.79145466908,
			"0.013": 2.63063084804,
			"0.014": 5.2057383279,
			"0.015": 3.80191296554,
			"0.016": 0.474712304836,
			"0.017": 0.0,
			"0.018": 0.0,
			"0.019": 0.0,
			"0.02": 0.0,
			"0.021": 0.0,
			"0.022": 0.0,
			"0.023": 0.0,
			"0.024": 0.0,
			"0.025": 0.0
		}
	}
}
