{
	 "smiles": "NN1C(N)=C(C#N)C(C2=CC(O)=CC=C2)=C(C#N)C1=O", 
	 "Tm": 596.15, 
	 "num_atms": 29, 
	 "gaussian": { 
		 "optdone": 1, 
		 "sigma_profile": "yes", 
		 "theory": "DFT", 
		 "functional": "B3LYP", 
		 "basiset": "6-31G**", 
		 "properties": { 
			 "R2extent": 5543.9701, 
			 "electric_dipole_moment_norm": 4.77228071366, 
			 "electric_quadrupole_moment_norm": 48.8646432056, 
			 "total_energy": -924.965736018, 
			 "HOMO_LUMO_gap": 0.15686, 
			 "cosmo_polarized_energy": -31.78, 
			 "cosmo_cavitation_energy": 35.92, 
			 "cosmo_dispersion_energy": -24.48, 
			 "cosmo_repulsion_energy": 1.88, 
			 "cosmo_total_nonelectrostatic_energy": 13.32, 
			 "SMD_solvation_energy": 9.52 
		},
		"coords": [
			{
				"x": -1.0101423046,
				"y": 3.9774615608,
				"z": 2.1012867122,
				"element": "N" 
			},
			{
				"x": -0.5611977181,
				"y": 2.7714832781,
				"z": 1.5179455866,
				"element": "N" 
			},
			{
				"x": -1.4362791207,
				"y": 2.1010517232,
				"z": 0.7148891935,
				"element": "C" 
			},
			{
				"x": -2.6555386159,
				"y": 2.6308903051,
				"z": 0.5391780329,
				"element": "N" 
			},
			{
				"x": -1.0149706024,
				"y": 0.8951567713,
				"z": 0.1122760552,
				"element": "C" 
			},
			{
				"x": -1.955616048,
				"y": 0.2789326551,
				"z": -0.758530376,
				"element": "C" 
			},
			{
				"x": -2.8116969545,
				"y": -0.1179751613,
				"z": -1.4440564482,
				"element": "N" 
			},
			{
				"x": 0.2976502657,
				"y": 0.3956845203,
				"z": 0.3465941113,
				"element": "C" 
			},
			{
				"x": 0.7147217818,
				"y": -0.8813455066,
				"z": -0.2935328722,
				"element": "C" 
			},
			{
				"x": -0.0574793056,
				"y": -2.0342814714,
				"z": -0.1111110986,
				"element": "C" 
			},
			{
				"x": 0.3312786239,
				"y": -3.2375810023,
				"z": -0.7069840718,
				"element": "C" 
			},
			{
				"x": -0.4536034109,
				"y": -4.3275725819,
				"z": -0.4722896691,
				"element": "O" 
			},
			{
				"x": 1.4821511663,
				"y": -3.2864769662,
				"z": -1.5005284001,
				"element": "C" 
			},
			{
				"x": 2.2433898167,
				"y": -2.1326118491,
				"z": -1.6849973277,
				"element": "C" 
			},
			{
				"x": 1.8745791422,
				"y": -0.9321628997,
				"z": -1.0836221742,
				"element": "C" 
			},
			{
				"x": 1.1707165247,
				"y": 1.1094492015,
				"z": 1.1670968017,
				"element": "C" 
			},
			{
				"x": 2.4832207635,
				"y": 0.647059792,
				"z": 1.4837870898,
				"element": "C" 
			},
			{
				"x": 3.5563629065,
				"y": 0.2891004097,
				"z": 1.7574983483,
				"element": "N" 
			},
			{
				"x": 0.7806139817,
				"y": 2.3579979479,
				"z": 1.7956084619,
				"element": "C" 
			},
			{
				"x": 1.4561438125,
				"y": 3.0712140933,
				"z": 2.5241492807,
				"element": "O" 
			},
			{
				"x": -0.3124725772,
				"y": 4.684221964,
				"z": 1.865235067,
				"element": "H" 
			},
			{
				"x": -0.9246792043,
				"y": 3.8601962989,
				"z": 3.1118568092,
				"element": "H" 
			},
			{
				"x": -2.8520764549,
				"y": 3.5184589973,
				"z": 0.9789591501,
				"element": "H" 
			},
			{
				"x": -3.3139814239,
				"y": 2.1776097276,
				"z": -0.0758451613,
				"element": "H" 
			},
			{
				"x": -0.9514473272,
				"y": -2.0251800512,
				"z": 0.5021479463,
				"element": "H" 
			},
			{
				"x": -0.0862397973,
				"y": -5.0921314364,
				"z": -0.9344371108,
				"element": "H" 
			},
			{
				"x": 1.7816025287,
				"y": -4.2220411916,
				"z": -1.9679014936,
				"element": "H" 
			},
			{
				"x": 3.1355424719,
				"y": -2.1736944593,
				"z": -2.3021532126,
				"element": "H" 
			},
			{
				"x": 2.4734470792,
				"y": -0.0409146692,
				"z": -1.2304192307,
				"element": "H" 
			}
		],
		 "valence_orbital": [ 
			{
				"type": "occ",
				"energy": -0.30073,
				"method": "rhf"
			},
			{
				"type": "occ",
				"energy": -0.28718,
				"method": "rhf"
			},
			{
				"type": "occ",
				"energy": -0.25983,
				"method": "rhf"
			},
			{
				"type": "occ",
				"energy": -0.23131,
				"method": "rhf"
			},
			{
				"type": "occ",
				"energy": -0.22766,
				"method": "rhf"
			},
			{
				"type": "unocc",
				"energy": -0.0708,
				"method": "rhf"
			},
			{
				"type": "unocc",
				"energy": -0.03516,
				"method": "rhf"
			},
			{
				"type": "unocc",
				"energy": -0.01105,
				"method": "rhf"
			},
			{
				"type": "unocc",
				"energy": 0.00011,
				"method": "rhf"
			},
			{
				"type": "unocc",
				"energy": 0.01859,
				"method": "rhf"
			}
		],
		"cosmo_sigma_profile": { 
			"-0.025": 0.0,
			"-0.024": 0.0,
			"-0.023": 0.0,
			"-0.022": 0.0,
			"-0.021": 0.0,
			"-0.02": 0.0,
			"-0.019": 0.0,
			"-0.018": 0.944760314578,
			"-0.017": 1.06392148376,
			"-0.016": 1.13289157845,
			"-0.015": 2.03045299605,
			"-0.014": 3.23499995258,
			"-0.013": 5.63741723597,
			"-0.012": 5.2806359585,
			"-0.011": 5.61115047178,
			"-0.01": 5.53734125113,
			"-0.009": 4.54546567059,
			"-0.008": 4.86057506179,
			"-0.007": 8.57556956471,
			"-0.006": 15.2514995231,
			"-0.005": 15.9205044512,
			"-0.004": 14.2521995095,
			"-0.003": 16.6500804357,
			"-0.002": 18.5281462535,
			"-0.001": 14.8125454259,
			"0.0": 11.3018925364,
			"0.001": 11.4065048433,
			"0.002": 13.1223680005,
			"0.003": 16.9218334576,
			"0.004": 14.0894123368,
			"0.005": 8.78725825725,
			"0.006": 7.65125665851,
			"0.007": 8.42334510353,
			"0.008": 9.88431956439,
			"0.009": 9.48478622668,
			"0.01": 10.0025535855,
			"0.011": 9.77388887134,
			"0.012": 9.46805708304,
			"0.013": 4.6983593771,
			"0.014": 0.464709078323,
			"0.015": 0.0,
			"0.016": 0.0,
			"0.017": 0.0,
			"0.018": 0.0,
			"0.019": 0.0,
			"0.02": 0.0,
			"0.021": 0.0,
			"0.022": 0.0,
			"0.023": 0.0,
			"0.024": 0.0,
			"0.025": 0.0
		}
	}
}
