{
	 "smiles": "NC1=NC(=CS1)C1=CC2=C(OCCO2)C=C1", 
	 "Tm": 454.15, 
	 "num_atms": 26, 
	 "gaussian": { 
		 "optdone": 1, 
		 "sigma_profile": "yes", 
		 "theory": "DFT", 
		 "functional": "B3LYP", 
		 "basiset": "6-31G**", 
		 "properties": { 
			 "R2extent": 5468.7061, 
			 "electric_dipole_moment_norm": 1.59220369614, 
			 "electric_quadrupole_moment_norm": 17.0869190909, 
			 "total_energy": -1083.31632299, 
			 "HOMO_LUMO_gap": 0.16829, 
			 "cosmo_polarized_energy": -15.09, 
			 "cosmo_cavitation_energy": 31.39, 
			 "cosmo_dispersion_energy": -24.51, 
			 "cosmo_repulsion_energy": 1.85, 
			 "cosmo_total_nonelectrostatic_energy": 8.74, 
			 "SMD_solvation_energy": 4.17 
		},
		"coords": [
			{
				"x": -1.3932334265,
				"y": -1.179469647,
				"z": 4.5002625633,
				"element": "N" 
			},
			{
				"x": -1.6114340841,
				"y": -1.173737247,
				"z": 3.1396431236,
				"element": "C" 
			},
			{
				"x": -0.9376073984,
				"y": -0.4506485408,
				"z": 2.2985790566,
				"element": "N" 
			},
			{
				"x": -1.4255959451,
				"y": -0.5851704597,
				"z": 1.003839904,
				"element": "C" 
			},
			{
				"x": -2.4871398473,
				"y": -1.4399292332,
				"z": 0.874340581,
				"element": "C" 
			},
			{
				"x": -2.9343357799,
				"y": -2.1064327985,
				"z": 2.4245407497,
				"element": "S" 
			},
			{
				"x": -0.7709580309,
				"y": 0.1699195004,
				"z": -0.0809187178,
				"element": "C" 
			},
			{
				"x": 0.3102541803,
				"y": 1.0097168912,
				"z": 0.2197994281,
				"element": "C" 
			},
			{
				"x": 0.9510202407,
				"y": 1.7361933365,
				"z": -0.7803535752,
				"element": "C" 
			},
			{
				"x": 0.5247902272,
				"y": 1.6259669006,
				"z": -2.1140393295,
				"element": "C" 
			},
			{
				"x": 1.1375319271,
				"y": 2.3096781448,
				"z": -3.1364214863,
				"element": "O" 
			},
			{
				"x": 2.4144922271,
				"y": 2.8428872034,
				"z": -2.7871002946,
				"element": "C" 
			},
			{
				"x": 2.3498704692,
				"y": 3.5070594661,
				"z": -1.4206744404,
				"element": "C" 
			},
			{
				"x": 2.0029317439,
				"y": 2.5488170364,
				"z": -0.4233567354,
				"element": "O" 
			},
			{
				"x": -0.5596981695,
				"y": 0.8006605444,
				"z": -2.4191733576,
				"element": "C" 
			},
			{
				"x": -1.2029223364,
				"y": 0.0845843768,
				"z": -1.4172693211,
				"element": "C" 
			},
			{
				"x": -0.5055242891,
				"y": -0.7647836097,
				"z": 4.7533065558,
				"element": "H" 
			},
			{
				"x": -1.5924278391,
				"y": -2.0415440324,
				"z": 4.9876470975,
				"element": "H" 
			},
			{
				"x": -3.0301238921,
				"y": -1.7274076159,
				"z": -0.0128097856,
				"element": "H" 
			},
			{
				"x": 0.6545374037,
				"y": 1.1048842278,
				"z": 1.2424973708,
				"element": "H" 
			},
			{
				"x": 3.1645440634,
				"y": 2.039948872,
				"z": -2.7753529733,
				"element": "H" 
			},
			{
				"x": 2.6751402497,
				"y": 3.5622854314,
				"z": -3.5678150957,
				"element": "H" 
			},
			{
				"x": 3.3212375115,
				"y": 3.9180492897,
				"z": -1.133371701,
				"element": "H" 
			},
			{
				"x": 1.6090498822,
				"y": 4.3187208698,
				"z": -1.4363808145,
				"element": "H" 
			},
			{
				"x": -0.8777796175,
				"y": 0.7322278778,
				"z": -3.4545767483,
				"element": "H" 
			},
			{
				"x": -2.0421194702,
				"y": -0.549576785,
				"z": -1.6833420541,
				"element": "H" 
			}
		],
		 "valence_orbital": [ 
			{
				"type": "occ",
				"energy": -0.27243,
				"method": "rhf"
			},
			{
				"type": "occ",
				"energy": -0.2689,
				"method": "rhf"
			},
			{
				"type": "occ",
				"energy": -0.23159,
				"method": "rhf"
			},
			{
				"type": "occ",
				"energy": -0.21879,
				"method": "rhf"
			},
			{
				"type": "occ",
				"energy": -0.1875,
				"method": "rhf"
			},
			{
				"type": "unocc",
				"energy": -0.01921,
				"method": "rhf"
			},
			{
				"type": "unocc",
				"energy": 0.00751,
				"method": "rhf"
			},
			{
				"type": "unocc",
				"energy": 0.01384,
				"method": "rhf"
			},
			{
				"type": "unocc",
				"energy": 0.02682,
				"method": "rhf"
			},
			{
				"type": "unocc",
				"energy": 0.07313,
				"method": "rhf"
			}
		],
		"cosmo_sigma_profile": { 
			"-0.025": 0.0,
			"-0.024": 0.0,
			"-0.023": 0.0,
			"-0.022": 0.0,
			"-0.021": 0.0,
			"-0.02": 0.0,
			"-0.019": 0.0,
			"-0.018": 0.0,
			"-0.017": 0.0,
			"-0.016": 0.0,
			"-0.015": 0.243466193011,
			"-0.014": 1.89198273907,
			"-0.013": 2.70892781572,
			"-0.012": 2.38020816761,
			"-0.011": 2.90621042208,
			"-0.01": 2.29937540071,
			"-0.009": 3.08481886408,
			"-0.008": 5.00530213755,
			"-0.007": 9.13547568294,
			"-0.006": 16.0431531401,
			"-0.005": 17.2228466552,
			"-0.004": 14.9441967239,
			"-0.003": 12.4207579243,
			"-0.002": 10.5549538786,
			"-0.001": 10.2328596255,
			"0.0": 11.9595852784,
			"0.001": 11.3413721504,
			"0.002": 16.7433519681,
			"0.003": 20.7712133298,
			"0.004": 28.8645124181,
			"0.005": 20.6225955745,
			"0.006": 6.79470475144,
			"0.007": 6.50159609459,
			"0.008": 4.25877783933,
			"0.009": 4.99733489433,
			"0.01": 5.16956733586,
			"0.011": 3.36403138292,
			"0.012": 0.500648987821,
			"0.013": 0.0,
			"0.014": 0.0,
			"0.015": 0.0,
			"0.016": 0.0,
			"0.017": 0.0,
			"0.018": 0.0,
			"0.019": 0.0,
			"0.02": 0.0,
			"0.021": 0.0,
			"0.022": 0.0,
			"0.023": 0.0,
			"0.024": 0.0,
			"0.025": 0.0
		}
	}
}
