{
	 "smiles": "CC1=CC=CC=C1C(C)(C)C", 
	 "Tm": 223.15, 
	 "num_atms": 27, 
	 "gaussian": { 
		 "optdone": 1, 
		 "sigma_profile": "yes", 
		 "theory": "DFT", 
		 "functional": "B3LYP", 
		 "basiset": "6-31G**", 
		 "properties": { 
			 "R2extent": 1863.733, 
			 "electric_dipole_moment_norm": 0.480197459385, 
			 "electric_quadrupole_moment_norm": 3.99548110745, 
			 "total_energy": -428.825380638, 
			 "HOMO_LUMO_gap": 0.23473, 
			 "cosmo_polarized_energy": -3.29, 
			 "cosmo_cavitation_energy": 26.9, 
			 "cosmo_dispersion_energy": -19.59, 
			 "cosmo_repulsion_energy": 1.54, 
			 "cosmo_total_nonelectrostatic_energy": 8.85, 
			 "SMD_solvation_energy": 4.81 
		},
		"coords": [
			{
				"x": 1.9014966162,
				"y": -0.058176169,
				"z": 0.9601190054,
				"element": "C" 
			},
			{
				"x": 0.4361379221,
				"y": -0.4520866352,
				"z": 0.8934250141,
				"element": "C" 
			},
			{
				"x": -0.0527764583,
				"y": -1.1449724344,
				"z": 2.0120914847,
				"element": "C" 
			},
			{
				"x": -1.3621752703,
				"y": -1.6093444506,
				"z": 2.0966206864,
				"element": "C" 
			},
			{
				"x": -2.2221091749,
				"y": -1.3730558932,
				"z": 1.0307157113,
				"element": "C" 
			},
			{
				"x": -1.7566245678,
				"y": -0.6813688007,
				"z": -0.0869816091,
				"element": "C" 
			},
			{
				"x": -0.4389739041,
				"y": -0.203395123,
				"z": -0.2007451031,
				"element": "C" 
			},
			{
				"x": -0.0305230069,
				"y": 0.5829681471,
				"z": -1.4758627636,
				"element": "C" 
			},
			{
				"x": -1.1338132262,
				"y": 0.549410708,
				"z": -2.5590775271,
				"element": "C" 
			},
			{
				"x": 1.2350508476,
				"y": -0.0154937231,
				"z": -2.1379920646,
				"element": "C" 
			},
			{
				"x": 0.1956259777,
				"y": 2.075907559,
				"z": -1.1270604915,
				"element": "C" 
			},
			{
				"x": 2.111950815,
				"y": 0.9303849198,
				"z": 0.5504370871,
				"element": "H" 
			},
			{
				"x": 2.5346249386,
				"y": -0.7733361539,
				"z": 0.4220574811,
				"element": "H" 
			},
			{
				"x": 2.2377599035,
				"y": -0.0566489764,
				"z": 2.0008733551,
				"element": "H" 
			},
			{
				"x": 0.6263810059,
				"y": -1.3238147888,
				"z": 2.8423828764,
				"element": "H" 
			},
			{
				"x": -1.699444993,
				"y": -2.1417476193,
				"z": 2.981390454,
				"element": "H" 
			},
			{
				"x": -3.2518359336,
				"y": -1.7183740532,
				"z": 1.0597854706,
				"element": "H" 
			},
			{
				"x": -2.4562361957,
				"y": -0.5142661049,
				"z": -0.8954484431,
				"element": "H" 
			},
			{
				"x": -1.3738902386,
				"y": -0.4729042576,
				"z": -2.8688344913,
				"element": "H" 
			},
			{
				"x": -2.0569461967,
				"y": 1.0359282164,
				"z": -2.2298412897,
				"element": "H" 
			},
			{
				"x": -0.7826765836,
				"y": 1.0895134,
				"z": -3.4440879638,
				"element": "H" 
			},
			{
				"x": 2.1310613018,
				"y": 0.0865244736,
				"z": -1.5266848838,
				"element": "H" 
			},
			{
				"x": 1.4316130645,
				"y": 0.4943559952,
				"z": -3.0878001695,
				"element": "H" 
			},
			{
				"x": 1.0926870528,
				"y": -1.0798614799,
				"z": -2.353516258,
				"element": "H" 
			},
			{
				"x": -0.721863298,
				"y": 2.5176559971,
				"z": -0.7249382249,
				"element": "H" 
			},
			{
				"x": 0.9844026796,
				"y": 2.2271467879,
				"z": -0.3874584696,
				"element": "H" 
			},
			{
				"x": 0.4744969223,
				"y": 2.6367504592,
				"z": -2.0267688735,
				"element": "H" 
			}
		],
		 "valence_orbital": [ 
			{
				"type": "occ",
				"energy": -0.32596,
				"method": "rhf"
			},
			{
				"type": "occ",
				"energy": -0.3111,
				"method": "rhf"
			},
			{
				"type": "occ",
				"energy": -0.30878,
				"method": "rhf"
			},
			{
				"type": "occ",
				"energy": -0.23695,
				"method": "rhf"
			},
			{
				"type": "occ",
				"energy": -0.22983,
				"method": "rhf"
			},
			{
				"type": "unocc",
				"energy": 0.0049,
				"method": "rhf"
			},
			{
				"type": "unocc",
				"energy": 0.00917,
				"method": "rhf"
			},
			{
				"type": "unocc",
				"energy": 0.08614,
				"method": "rhf"
			},
			{
				"type": "unocc",
				"energy": 0.10457,
				"method": "rhf"
			},
			{
				"type": "unocc",
				"energy": 0.11896,
				"method": "rhf"
			}
		],
		"cosmo_sigma_profile": { 
			"-0.025": 0.0,
			"-0.024": 0.0,
			"-0.023": 0.0,
			"-0.022": 0.0,
			"-0.021": 0.0,
			"-0.02": 0.0,
			"-0.019": 0.0,
			"-0.018": 0.0,
			"-0.017": 0.0,
			"-0.016": 0.0,
			"-0.015": 0.0,
			"-0.014": 0.0,
			"-0.013": 0.0,
			"-0.012": 0.0,
			"-0.011": 0.0,
			"-0.01": 0.0,
			"-0.009": 0.0,
			"-0.008": 0.0,
			"-0.007": 0.0,
			"-0.006": 0.26898107509,
			"-0.005": 5.59690447509,
			"-0.004": 13.2361718898,
			"-0.003": 24.1418448969,
			"-0.002": 32.1015138042,
			"-0.001": 25.6422892174,
			"0.0": 27.5058565973,
			"0.001": 29.1385889524,
			"0.002": 16.6918349017,
			"0.003": 7.44677755836,
			"0.004": 7.18888552669,
			"0.005": 6.81327219409,
			"0.006": 6.93530166662,
			"0.007": 6.62399470998,
			"0.008": 0.921716807356,
			"0.009": 0.0,
			"0.01": 0.0,
			"0.011": 0.0,
			"0.012": 0.0,
			"0.013": 0.0,
			"0.014": 0.0,
			"0.015": 0.0,
			"0.016": 0.0,
			"0.017": 0.0,
			"0.018": 0.0,
			"0.019": 0.0,
			"0.02": 0.0,
			"0.021": 0.0,
			"0.022": 0.0,
			"0.023": 0.0,
			"0.024": 0.0,
			"0.025": 0.0
		}
	}
}
