{
	 "smiles": "CN(CC1=NNN=N1)C(=O)C1=CC=CC=C1", 
	 "Tm": 410.15, 
	 "num_atms": 27, 
	 "gaussian": { 
		 "optdone": 1, 
		 "sigma_profile": "yes", 
		 "theory": "DFT", 
		 "functional": "B3LYP", 
		 "basiset": "6-31G**", 
		 "properties": { 
			 "R2extent": 4812.6669, 
			 "electric_dipole_moment_norm": 1.87391495538, 
			 "electric_quadrupole_moment_norm": 21.9697712639, 
			 "total_energy": -736.627434688, 
			 "HOMO_LUMO_gap": 0.20524, 
			 "cosmo_polarized_energy": -18.18, 
			 "cosmo_cavitation_energy": 31.73, 
			 "cosmo_dispersion_energy": -22.63, 
			 "cosmo_repulsion_energy": 1.77, 
			 "cosmo_total_nonelectrostatic_energy": 10.87, 
			 "SMD_solvation_energy": 3.55 
		},
		"coords": [
			{
				"x": -1.8330464287,
				"y": 0.4738005867,
				"z": -0.2171535258,
				"element": "C" 
			},
			{
				"x": -0.4426496919,
				"y": 0.5145942383,
				"z": 0.2302948096,
				"element": "N" 
			},
			{
				"x": 0.077034218,
				"y": 1.8410833103,
				"z": 0.5681382861,
				"element": "C" 
			},
			{
				"x": -0.3995737802,
				"y": 2.3183134311,
				"z": 1.9084225551,
				"element": "C" 
			},
			{
				"x": 0.3669750049,
				"y": 2.3597398499,
				"z": 2.9970989156,
				"element": "N" 
			},
			{
				"x": -0.4934930084,
				"y": 2.8238512951,
				"z": 3.8958515653,
				"element": "N" 
			},
			{
				"x": -1.7149794916,
				"y": 3.0652375942,
				"z": 3.4304931652,
				"element": "N" 
			},
			{
				"x": -1.6685048221,
				"y": 2.7486459166,
				"z": 2.1613202662,
				"element": "N" 
			},
			{
				"x": 0.4795863341,
				"y": -0.5033855053,
				"z": 0.0640255094,
				"element": "C" 
			},
			{
				"x": 1.6903493948,
				"y": -0.2975457104,
				"z": 0.1086666957,
				"element": "O" 
			},
			{
				"x": -0.0274762351,
				"y": -1.9068102543,
				"z": -0.1351009725,
				"element": "C" 
			},
			{
				"x": -1.0516007077,
				"y": -2.4623015248,
				"z": 0.6447631106,
				"element": "C" 
			},
			{
				"x": -1.4054721979,
				"y": -3.8034277037,
				"z": 0.4901805614,
				"element": "C" 
			},
			{
				"x": -0.7469026229,
				"y": -4.5971841567,
				"z": -0.4504545461,
				"element": "C" 
			},
			{
				"x": 0.2828735188,
				"y": -4.052104696,
				"z": -1.2220409745,
				"element": "C" 
			},
			{
				"x": 0.6513591588,
				"y": -2.7191366869,
				"z": -1.0537752572,
				"element": "C" 
			},
			{
				"x": -2.5192204508,
				"y": 0.7167026147,
				"z": 0.6001942037,
				"element": "H" 
			},
			{
				"x": -2.0761161397,
				"y": -0.5097393348,
				"z": -0.6124552501,
				"element": "H" 
			},
			{
				"x": -1.9863500883,
				"y": 1.2148207887,
				"z": -1.0128942094,
				"element": "H" 
			},
			{
				"x": -0.2361847034,
				"y": 2.5608137629,
				"z": -0.1984429936,
				"element": "H" 
			},
			{
				"x": 1.1646232788,
				"y": 1.7739867208,
				"z": 0.5724082704,
				"element": "H" 
			},
			{
				"x": -0.2399841809,
				"y": 2.9934156291,
				"z": 4.860034609,
				"element": "H" 
			},
			{
				"x": -1.5564281043,
				"y": -1.852760792,
				"z": 1.3882796315,
				"element": "H" 
			},
			{
				"x": -2.1919516873,
				"y": -4.2281024976,
				"z": 1.1073490269,
				"element": "H" 
			},
			{
				"x": -1.0280236307,
				"y": -5.6389873286,
				"z": -0.5752235772,
				"element": "H" 
			},
			{
				"x": 0.8053413602,
				"y": -4.669726524,
				"z": -1.9468184934,
				"element": "H" 
			},
			{
				"x": 1.4720157033,
				"y": -2.2922930233,
				"z": -1.6208613819,
				"element": "H" 
			}
		],
		 "valence_orbital": [ 
			{
				"type": "occ",
				"energy": -0.29945,
				"method": "rhf"
			},
			{
				"type": "occ",
				"energy": -0.26583,
				"method": "rhf"
			},
			{
				"type": "occ",
				"energy": -0.25716,
				"method": "rhf"
			},
			{
				"type": "occ",
				"energy": -0.24602,
				"method": "rhf"
			},
			{
				"type": "occ",
				"energy": -0.24024,
				"method": "rhf"
			},
			{
				"type": "unocc",
				"energy": -0.035,
				"method": "rhf"
			},
			{
				"type": "unocc",
				"energy": -0.02944,
				"method": "rhf"
			},
			{
				"type": "unocc",
				"energy": -0.00762,
				"method": "rhf"
			},
			{
				"type": "unocc",
				"energy": 0.01745,
				"method": "rhf"
			},
			{
				"type": "unocc",
				"energy": 0.04907,
				"method": "rhf"
			}
		],
		"cosmo_sigma_profile": { 
			"-0.025": 0.0,
			"-0.024": 0.0,
			"-0.023": 0.0,
			"-0.022": 0.0,
			"-0.021": 0.0,
			"-0.02": 0.628499023807,
			"-0.019": 2.03733634125,
			"-0.018": 1.28420801416,
			"-0.017": 1.00444637675,
			"-0.016": 0.931398897503,
			"-0.015": 1.25901871215,
			"-0.014": 0.85555365533,
			"-0.013": 0.470905232878,
			"-0.012": 0.616021758638,
			"-0.011": 0.327539671735,
			"-0.01": 1.28423613596,
			"-0.009": 0.795050569239,
			"-0.008": 0.969393589296,
			"-0.007": 3.55874375161,
			"-0.006": 12.895199876,
			"-0.005": 19.3398304201,
			"-0.004": 23.297050955,
			"-0.003": 24.2866099841,
			"-0.002": 23.6272711306,
			"-0.001": 14.5029705478,
			"0.0": 14.0335676847,
			"0.001": 11.3110109665,
			"0.002": 12.763632906,
			"0.003": 13.4787731519,
			"0.004": 14.0443065859,
			"0.005": 11.0034912948,
			"0.006": 5.38904362923,
			"0.007": 4.50416565525,
			"0.008": 5.1796735035,
			"0.009": 6.51801141762,
			"0.01": 5.10877779127,
			"0.011": 4.42106521303,
			"0.012": 4.55232116306,
			"0.013": 5.07263462421,
			"0.014": 2.24331480115,
			"0.015": 0.165151091055,
			"0.016": 0.0,
			"0.017": 0.0,
			"0.018": 0.0,
			"0.019": 0.0,
			"0.02": 0.0,
			"0.021": 0.0,
			"0.022": 0.0,
			"0.023": 0.0,
			"0.024": 0.0,
			"0.025": 0.0
		}
	}
}
