{
	 "smiles": "NC1=NC(=O)N(C=C1)[C@@H]1CS[C@H](CO)O1", 
	 "Tm": 434.15, 
	 "num_atms": 26, 
	 "gaussian": { 
		 "optdone": 1, 
		 "sigma_profile": "yes", 
		 "theory": "DFT", 
		 "functional": "B3LYP", 
		 "basiset": "6-31G**", 
		 "properties": { 
			 "R2extent": 4724.4361, 
			 "electric_dipole_moment_norm": 5.79915620845, 
			 "electric_quadrupole_moment_norm": 32.508475623, 
			 "total_energy": -1099.5885814, 
			 "HOMO_LUMO_gap": 0.19465, 
			 "cosmo_polarized_energy": -24.81, 
			 "cosmo_cavitation_energy": 31.18, 
			 "cosmo_dispersion_energy": -23.18, 
			 "cosmo_repulsion_energy": 1.79, 
			 "cosmo_total_nonelectrostatic_energy": 9.79, 
			 "SMD_solvation_energy": 3.82 
		},
		"coords": [
			{
				"x": -3.0743736115,
				"y": 4.4566222732,
				"z": 0.2309950619,
				"element": "N" 
			},
			{
				"x": -2.6109496497,
				"y": 3.1819251691,
				"z": 0.1285007834,
				"element": "C" 
			},
			{
				"x": -3.4270771305,
				"y": 2.288292384,
				"z": -0.4003889615,
				"element": "N" 
			},
			{
				"x": -3.0527504463,
				"y": 0.9795481365,
				"z": -0.5020817475,
				"element": "C" 
			},
			{
				"x": -3.7636207194,
				"y": 0.0722049641,
				"z": -0.9145580102,
				"element": "O" 
			},
			{
				"x": -1.7102502566,
				"y": 0.6499793558,
				"z": -0.0877660069,
				"element": "N" 
			},
			{
				"x": -0.8893264772,
				"y": 1.5789411356,
				"z": 0.4727506736,
				"element": "C" 
			},
			{
				"x": -1.2934989024,
				"y": 2.8691224616,
				"z": 0.6104709654,
				"element": "C" 
			},
			{
				"x": -1.311414989,
				"y": -0.7447728093,
				"z": -0.2321437958,
				"element": "C" 
			},
			{
				"x": -1.6703687893,
				"y": -1.6107546116,
				"z": 0.9889193939,
				"element": "C" 
			},
			{
				"x": -0.5348156711,
				"y": -3.0469763732,
				"z": 0.8877540517,
				"element": "S" 
			},
			{
				"x": 0.5432428391,
				"y": -2.1399510748,
				"z": -0.3479746572,
				"element": "C" 
			},
			{
				"x": 2.0163817548,
				"y": -2.140705663,
				"z": 0.0322723621,
				"element": "C" 
			},
			{
				"x": 2.8031056894,
				"y": -1.5067128643,
				"z": -0.9583681325,
				"element": "O" 
			},
			{
				"x": 0.1004163088,
				"y": -0.7946112434,
				"z": -0.3747330713,
				"element": "O" 
			},
			{
				"x": -2.4530571151,
				"y": 5.2183953406,
				"z": 0.4452283331,
				"element": "H" 
			},
			{
				"x": -3.9550476183,
				"y": 4.6607964714,
				"z": -0.2166000783,
				"element": "H" 
			},
			{
				"x": 0.0888043705,
				"y": 1.2259945955,
				"z": 0.775657699,
				"element": "H" 
			},
			{
				"x": -0.6458550993,
				"y": 3.6155749697,
				"z": 1.0526696218,
				"element": "H" 
			},
			{
				"x": -1.8204157281,
				"y": -1.1269831534,
				"z": -1.1219315955,
				"element": "H" 
			},
			{
				"x": -1.5045500673,
				"y": -1.0546453622,
				"z": 1.9150613858,
				"element": "H" 
			},
			{
				"x": -2.7102271656,
				"y": -1.9345293309,
				"z": 0.9338178894,
				"element": "H" 
			},
			{
				"x": 0.3991381195,
				"y": -2.6010834016,
				"z": -1.3324578163,
				"element": "H" 
			},
			{
				"x": 2.1208788054,
				"y": -1.6684785045,
				"z": 1.0207423395,
				"element": "H" 
			},
			{
				"x": 2.373778158,
				"y": -3.1718285182,
				"z": 0.1098651621,
				"element": "H" 
			},
			{
				"x": 2.4554533911,
				"y": -0.6108643468,
				"z": -1.0648018497,
				"element": "H" 
			}
		],
		 "valence_orbital": [ 
			{
				"type": "occ",
				"energy": -0.27092,
				"method": "rhf"
			},
			{
				"type": "occ",
				"energy": -0.2599,
				"method": "rhf"
			},
			{
				"type": "occ",
				"energy": -0.25314,
				"method": "rhf"
			},
			{
				"type": "occ",
				"energy": -0.23604,
				"method": "rhf"
			},
			{
				"type": "occ",
				"energy": -0.23458,
				"method": "rhf"
			},
			{
				"type": "unocc",
				"energy": -0.03993,
				"method": "rhf"
			},
			{
				"type": "unocc",
				"energy": 0.00914,
				"method": "rhf"
			},
			{
				"type": "unocc",
				"energy": 0.01462,
				"method": "rhf"
			},
			{
				"type": "unocc",
				"energy": 0.04772,
				"method": "rhf"
			},
			{
				"type": "unocc",
				"energy": 0.06727,
				"method": "rhf"
			}
		],
		"cosmo_sigma_profile": { 
			"-0.025": 0.0,
			"-0.024": 0.0,
			"-0.023": 0.0,
			"-0.022": 0.0,
			"-0.021": 0.0,
			"-0.02": 0.0,
			"-0.019": 0.0,
			"-0.018": 0.0,
			"-0.017": 0.0,
			"-0.016": 0.0113453709392,
			"-0.015": 1.01527667619,
			"-0.014": 3.16726553897,
			"-0.013": 2.97005924155,
			"-0.012": 2.68606241131,
			"-0.011": 3.25052595154,
			"-0.01": 3.07774523065,
			"-0.009": 4.39729799356,
			"-0.008": 5.66886187027,
			"-0.007": 10.4705354629,
			"-0.006": 18.0045378039,
			"-0.005": 13.2737112738,
			"-0.004": 16.3756765267,
			"-0.003": 16.6304519161,
			"-0.002": 15.5087281006,
			"-0.001": 14.6107052861,
			"0.0": 14.0181992891,
			"0.001": 13.3382658445,
			"0.002": 13.1493522424,
			"0.003": 9.25236466012,
			"0.004": 6.84593408271,
			"0.005": 8.68181985809,
			"0.006": 7.27098256743,
			"0.007": 5.48772668857,
			"0.008": 4.06270770506,
			"0.009": 5.32157689458,
			"0.01": 3.86114644477,
			"0.011": 4.07366456616,
			"0.012": 3.51614149392,
			"0.013": 5.37784739567,
			"0.014": 5.98412073897,
			"0.015": 3.16999110431,
			"0.016": 2.8665631965,
			"0.017": 0.933743116073,
			"0.018": 0.0,
			"0.019": 0.0,
			"0.02": 0.0,
			"0.021": 0.0,
			"0.022": 0.0,
			"0.023": 0.0,
			"0.024": 0.0,
			"0.025": 0.0
		}
	}
}
