{
	 "smiles": "ClS(Cl)(=O)=O", 
	 "Tm": 219.15, 
	 "num_atms": 5, 
	 "gaussian": { 
		 "optdone": 1, 
		 "sigma_profile": "yes", 
		 "theory": "DFT", 
		 "functional": "B3LYP", 
		 "basiset": "6-31G**", 
		 "properties": { 
			 "R2extent": 1526.9888, 
			 "electric_dipole_moment_norm": 1.24197779368, 
			 "electric_quadrupole_moment_norm": 4.80874430907, 
			 "total_energy": -1468.92936952, 
			 "HOMO_LUMO_gap": 0.20122, 
			 "cosmo_polarized_energy": -3.15, 
			 "cosmo_cavitation_energy": 14.72, 
			 "cosmo_dispersion_energy": -12.14, 
			 "cosmo_repulsion_energy": 1.02, 
			 "cosmo_total_nonelectrostatic_energy": 3.6, 
			 "SMD_solvation_energy": 0.73 
		},
		"coords": [
			{
				"x": -1.0120621916,
				"y": 0.6374184413,
				"z": -3.4255938586,
				"element": "Cl" 
			},
			{
				"x": -0.6695001256,
				"y": 1.0036061281,
				"z": -1.4044014043,
				"element": "S" 
			},
			{
				"x": 0.6056578859,
				"y": -0.5765577722,
				"z": -0.9411568029,
				"element": "Cl" 
			},
			{
				"x": -1.9157122058,
				"y": 0.7806407938,
				"z": -0.7022056999,
				"element": "O" 
			},
			{
				"x": 0.0969166371,
				"y": 2.2277924089,
				"z": -1.3053422343,
				"element": "O" 
			}
		],
		 "valence_orbital": [ 
			{
				"type": "occ",
				"energy": -0.3949,
				"method": "rhf"
			},
			{
				"type": "occ",
				"energy": -0.38594,
				"method": "rhf"
			},
			{
				"type": "occ",
				"energy": -0.35604,
				"method": "rhf"
			},
			{
				"type": "occ",
				"energy": -0.35392,
				"method": "rhf"
			},
			{
				"type": "occ",
				"energy": -0.35258,
				"method": "rhf"
			},
			{
				"type": "unocc",
				"energy": -0.15136,
				"method": "rhf"
			},
			{
				"type": "unocc",
				"energy": -0.06173,
				"method": "rhf"
			},
			{
				"type": "unocc",
				"energy": 0.02053,
				"method": "rhf"
			},
			{
				"type": "unocc",
				"energy": 0.06385,
				"method": "rhf"
			},
			{
				"type": "unocc",
				"energy": 0.26595,
				"method": "rhf"
			}
		],
		"cosmo_sigma_profile": { 
			"-0.025": 0.0,
			"-0.024": 0.0,
			"-0.023": 0.0,
			"-0.022": 0.0,
			"-0.021": 0.0,
			"-0.02": 0.0,
			"-0.019": 0.0,
			"-0.018": 0.0,
			"-0.017": 0.0,
			"-0.016": 0.0,
			"-0.015": 0.0,
			"-0.014": 0.0,
			"-0.013": 0.0,
			"-0.012": 0.0,
			"-0.011": 0.0,
			"-0.01": 0.0,
			"-0.009": 0.156382570621,
			"-0.008": 1.484439324,
			"-0.007": 2.43119009733,
			"-0.006": 3.84543154639,
			"-0.005": 4.99392732127,
			"-0.004": 6.47721198754,
			"-0.003": 9.18573451626,
			"-0.002": 10.3050138704,
			"-0.001": 15.8012561578,
			"0.0": 21.5169508989,
			"0.001": 17.0767989393,
			"0.002": 3.14890884047,
			"0.003": 2.97575593538,
			"0.004": 3.66927222188,
			"0.005": 8.12535633406,
			"0.006": 12.582333952,
			"0.007": 0.143812160384,
			"0.008": 0.0,
			"0.009": 0.0,
			"0.01": 0.0,
			"0.011": 0.0,
			"0.012": 0.0,
			"0.013": 0.0,
			"0.014": 0.0,
			"0.015": 0.0,
			"0.016": 0.0,
			"0.017": 0.0,
			"0.018": 0.0,
			"0.019": 0.0,
			"0.02": 0.0,
			"0.021": 0.0,
			"0.022": 0.0,
			"0.023": 0.0,
			"0.024": 0.0,
			"0.025": 0.0
		}
	}
}
