{
	 "smiles": "CN1N=CC=C1C(O)=O", 
	 "Tm": 497.15, 
	 "num_atms": 15, 
	 "gaussian": { 
		 "optdone": 1, 
		 "sigma_profile": "yes", 
		 "theory": "DFT", 
		 "functional": "B3LYP", 
		 "basiset": "6-31G**", 
		 "properties": { 
			 "R2extent": 1711.6368, 
			 "electric_dipole_moment_norm": 1.1923919406, 
			 "electric_quadrupole_moment_norm": 2.28211894957, 
			 "total_energy": -454.091439552, 
			 "HOMO_LUMO_gap": 0.21408, 
			 "cosmo_polarized_energy": -9.62, 
			 "cosmo_cavitation_energy": 19.61, 
			 "cosmo_dispersion_energy": -14.57, 
			 "cosmo_repulsion_energy": 1.19, 
			 "cosmo_total_nonelectrostatic_energy": 6.22, 
			 "SMD_solvation_energy": 4.08 
		},
		"coords": [
			{
				"x": 0.3198265151,
				"y": 3.5415969383,
				"z": -0.2308720145,
				"element": "C" 
			},
			{
				"x": 0.4955054583,
				"y": 2.1154443651,
				"z": 0.0167743604,
				"element": "N" 
			},
			{
				"x": 1.6973272078,
				"y": 1.5600785219,
				"z": -0.1847969057,
				"element": "N" 
			},
			{
				"x": 1.5508779219,
				"y": 0.2632752356,
				"z": 0.1209396834,
				"element": "C" 
			},
			{
				"x": 0.2408864564,
				"y": -0.0255615515,
				"z": 0.5249149405,
				"element": "C" 
			},
			{
				"x": -0.424168477,
				"y": 1.194511676,
				"z": 0.4482087147,
				"element": "C" 
			},
			{
				"x": -1.8146965628,
				"y": 1.5434036339,
				"z": 0.7417340328,
				"element": "C" 
			},
			{
				"x": -2.5263785395,
				"y": 0.4662057083,
				"z": 1.152027959,
				"element": "O" 
			},
			{
				"x": -2.304510603,
				"y": 2.6543798947,
				"z": 0.6427107597,
				"element": "O" 
			},
			{
				"x": -0.4387891575,
				"y": 3.7066051062,
				"z": -0.9980454923,
				"element": "H" 
			},
			{
				"x": 0.00241821,
				"y": 4.0523286547,
				"z": 0.6799998769,
				"element": "H" 
			},
			{
				"x": 1.2867337847,
				"y": 3.917017493,
				"z": -0.5624538216,
				"element": "H" 
			},
			{
				"x": 2.3980522319,
				"y": -0.4030711086,
				"z": 0.0355173779,
				"element": "H" 
			},
			{
				"x": -0.1841412391,
				"y": -0.9688311843,
				"z": 0.8310793821,
				"element": "H" 
			},
			{
				"x": -3.4256432072,
				"y": 0.7921166166,
				"z": 1.3221611467,
				"element": "H" 
			}
		],
		 "valence_orbital": [ 
			{
				"type": "occ",
				"energy": -0.32662,
				"method": "rhf"
			},
			{
				"type": "occ",
				"energy": -0.29666,
				"method": "rhf"
			},
			{
				"type": "occ",
				"energy": -0.2867,
				"method": "rhf"
			},
			{
				"type": "occ",
				"energy": -0.25936,
				"method": "rhf"
			},
			{
				"type": "occ",
				"energy": -0.25787,
				"method": "rhf"
			},
			{
				"type": "unocc",
				"energy": -0.04379,
				"method": "rhf"
			},
			{
				"type": "unocc",
				"energy": 0.0445,
				"method": "rhf"
			},
			{
				"type": "unocc",
				"energy": 0.07441,
				"method": "rhf"
			},
			{
				"type": "unocc",
				"energy": 0.10005,
				"method": "rhf"
			},
			{
				"type": "unocc",
				"energy": 0.11936,
				"method": "rhf"
			}
		],
		"cosmo_sigma_profile": { 
			"-0.025": 0.0,
			"-0.024": 0.0,
			"-0.023": 0.0,
			"-0.022": 0.0,
			"-0.021": 0.0,
			"-0.02": 0.0,
			"-0.019": 0.270267978595,
			"-0.018": 0.774947598302,
			"-0.017": 1.21868230725,
			"-0.016": 0.594649868955,
			"-0.015": 0.593934255818,
			"-0.014": 1.00729548178,
			"-0.013": 0.367840359387,
			"-0.012": 0.673987156979,
			"-0.011": 1.15090760927,
			"-0.01": 0.621045012803,
			"-0.009": 0.211835402258,
			"-0.008": 2.25328069058,
			"-0.007": 3.96839260686,
			"-0.006": 9.01978946666,
			"-0.005": 9.39900688785,
			"-0.004": 10.26669282,
			"-0.003": 16.91827225,
			"-0.002": 10.669743225,
			"-0.001": 7.35583566205,
			"0.0": 8.96306350234,
			"0.001": 9.62542324347,
			"0.002": 9.06972698774,
			"0.003": 10.2662129491,
			"0.004": 8.4008346736,
			"0.005": 4.83520839879,
			"0.006": 3.67927661015,
			"0.007": 4.12953784878,
			"0.008": 5.03129935895,
			"0.009": 2.9224916458,
			"0.01": 2.69088571895,
			"0.011": 4.68194844447,
			"0.012": 2.84529344777,
			"0.013": 0.838876910053,
			"0.014": 0.965305364006,
			"0.015": 0.160484822617,
			"0.016": 0.0,
			"0.017": 0.0,
			"0.018": 0.0,
			"0.019": 0.0,
			"0.02": 0.0,
			"0.021": 0.0,
			"0.022": 0.0,
			"0.023": 0.0,
			"0.024": 0.0,
			"0.025": 0.0
		}
	}
}
