{
	 "smiles": "CS(=O)(=O)C1=CC(=CC=C1)C(=O)C1=CC(F)=C(F)C=C1", 
	 "Tm": 396.15, 
	 "num_atms": 30, 
	 "gaussian": { 
		 "optdone": 1, 
		 "sigma_profile": "yes", 
		 "theory": "DFT", 
		 "functional": "B3LYP", 
		 "basiset": "6-31G**", 
		 "properties": { 
			 "R2extent": 9105.3598, 
			 "electric_dipole_moment_norm": 4.92820165781, 
			 "electric_quadrupole_moment_norm": 29.3869497975, 
			 "total_energy": -1362.97171265, 
			 "HOMO_LUMO_gap": 0.17536, 
			 "cosmo_polarized_energy": -19.92, 
			 "cosmo_cavitation_energy": 37.86, 
			 "cosmo_dispersion_energy": -26.92, 
			 "cosmo_repulsion_energy": 1.96, 
			 "cosmo_total_nonelectrostatic_energy": 12.91, 
			 "SMD_solvation_energy": 7.58 
		},
		"coords": [
			{
				"x": -2.3626185203,
				"y": -3.4829783565,
				"z": -0.4890615998,
				"element": "C" 
			},
			{
				"x": -1.0703012388,
				"y": -3.2272523856,
				"z": -1.7289395593,
				"element": "S" 
			},
			{
				"x": -1.7265892858,
				"y": -3.1392132748,
				"z": -3.0426410341,
				"element": "O" 
			},
			{
				"x": -0.0064149999,
				"y": -4.2067455043,
				"z": -1.4678981882,
				"element": "O" 
			},
			{
				"x": -0.4275660613,
				"y": -1.5867398643,
				"z": -1.3338657532,
				"element": "C" 
			},
			{
				"x": 0.5733386853,
				"y": -1.4573447764,
				"z": -0.3767068727,
				"element": "C" 
			},
			{
				"x": 1.0569319467,
				"y": -0.1804601104,
				"z": -0.0533994338,
				"element": "C" 
			},
			{
				"x": 0.5549756079,
				"y": 0.9358189144,
				"z": -0.740659694,
				"element": "C" 
			},
			{
				"x": -0.4245036539,
				"y": 0.7855674183,
				"z": -1.7243610761,
				"element": "C" 
			},
			{
				"x": -0.9311735405,
				"y": -0.4788321844,
				"z": -2.0215346173,
				"element": "C" 
			},
			{
				"x": 2.1712418705,
				"y": -0.0982428028,
				"z": 0.9532336351,
				"element": "C" 
			},
			{
				"x": 2.9323160772,
				"y": -1.0477468068,
				"z": 1.0878130502,
				"element": "O" 
			},
			{
				"x": 2.3566452405,
				"y": 1.1309547548,
				"z": 1.7911303129,
				"element": "C" 
			},
			{
				"x": 1.2961937788,
				"y": 1.9843344093,
				"z": 2.1392851307,
				"element": "C" 
			},
			{
				"x": 1.5323131934,
				"y": 3.0639826565,
				"z": 2.9759265473,
				"element": "C" 
			},
			{
				"x": 0.5281696607,
				"y": 3.8821968189,
				"z": 3.3307529146,
				"element": "F" 
			},
			{
				"x": 2.8146997507,
				"y": 3.3146484226,
				"z": 3.4659281307,
				"element": "C" 
			},
			{
				"x": 3.0088690349,
				"y": 4.3728181076,
				"z": 4.2639518631,
				"element": "F" 
			},
			{
				"x": 3.8717063328,
				"y": 2.4741817806,
				"z": 3.1347161004,
				"element": "C" 
			},
			{
				"x": 3.637657989,
				"y": 1.3784136853,
				"z": 2.3092640265,
				"element": "C" 
			},
			{
				"x": -3.1262256108,
				"y": -2.7118749034,
				"z": -0.600062382,
				"element": "H" 
			},
			{
				"x": -1.916454705,
				"y": -3.4594112215,
				"z": 0.5060500327,
				"element": "H" 
			},
			{
				"x": -2.7860137703,
				"y": -4.4689704021,
				"z": -0.6916780862,
				"element": "H" 
			},
			{
				"x": 1.0009294625,
				"y": -2.3289199061,
				"z": 0.1074271664,
				"element": "H" 
			},
			{
				"x": 0.9530507575,
				"y": 1.9227684879,
				"z": -0.5307029529,
				"element": "H" 
			},
			{
				"x": -0.7857501825,
				"y": 1.6546362743,
				"z": -2.2653187389,
				"element": "H" 
			},
			{
				"x": -1.684388844,
				"y": -0.6216928827,
				"z": -2.7891284144,
				"element": "H" 
			},
			{
				"x": 0.283315448,
				"y": 1.8103393209,
				"z": 1.7955164107,
				"element": "H" 
			},
			{
				"x": 4.8570447447,
				"y": 2.6897891554,
				"z": 3.5335496531,
				"element": "H" 
			},
			{
				"x": 4.4399008319,
				"y": 0.6953751754,
				"z": 2.0545134289,
				"element": "H" 
			}
		],
		 "valence_orbital": [ 
			{
				"type": "occ",
				"energy": -0.28843,
				"method": "rhf"
			},
			{
				"type": "occ",
				"energy": -0.28554,
				"method": "rhf"
			},
			{
				"type": "occ",
				"energy": -0.28272,
				"method": "rhf"
			},
			{
				"type": "occ",
				"energy": -0.27191,
				"method": "rhf"
			},
			{
				"type": "occ",
				"energy": -0.261,
				"method": "rhf"
			},
			{
				"type": "unocc",
				"energy": -0.08564,
				"method": "rhf"
			},
			{
				"type": "unocc",
				"energy": -0.05292,
				"method": "rhf"
			},
			{
				"type": "unocc",
				"energy": -0.03561,
				"method": "rhf"
			},
			{
				"type": "unocc",
				"energy": -0.02795,
				"method": "rhf"
			},
			{
				"type": "unocc",
				"energy": 0.03094,
				"method": "rhf"
			}
		],
		"cosmo_sigma_profile": { 
			"-0.025": 0.0,
			"-0.024": 0.0,
			"-0.023": 0.0,
			"-0.022": 0.0,
			"-0.021": 0.0,
			"-0.02": 0.0,
			"-0.019": 0.0,
			"-0.018": 0.0,
			"-0.017": 0.0,
			"-0.016": 0.0,
			"-0.015": 0.0,
			"-0.014": 0.0,
			"-0.013": 0.0,
			"-0.012": 0.0,
			"-0.011": 0.0,
			"-0.01": 0.0592516684976,
			"-0.009": 3.72658874003,
			"-0.008": 12.4552851804,
			"-0.007": 16.8752351073,
			"-0.006": 20.397413798,
			"-0.005": 19.3434584719,
			"-0.004": 18.9283980202,
			"-0.003": 17.6535873055,
			"-0.002": 18.7159333452,
			"-0.001": 23.6104233691,
			"0.0": 24.497533945,
			"0.001": 24.7524666818,
			"0.002": 17.72136308,
			"0.003": 23.6964858831,
			"0.004": 11.5382905891,
			"0.005": 3.68193598968,
			"0.006": 3.92634796759,
			"0.007": 3.65162461964,
			"0.008": 4.57718780348,
			"0.009": 5.44548228563,
			"0.01": 7.62428790527,
			"0.011": 13.0355719673,
			"0.012": 8.81345261563,
			"0.013": 0.227286380492,
			"0.014": 0.0,
			"0.015": 0.0,
			"0.016": 0.0,
			"0.017": 0.0,
			"0.018": 0.0,
			"0.019": 0.0,
			"0.02": 0.0,
			"0.021": 0.0,
			"0.022": 0.0,
			"0.023": 0.0,
			"0.024": 0.0,
			"0.025": 0.0
		}
	}
}
