{
	 "smiles": "NNC(=O)COC1=C(O)C=CC=C1", 
	 "Tm": 426.15, 
	 "num_atms": 23, 
	 "gaussian": { 
		 "optdone": 1, 
		 "sigma_profile": "yes", 
		 "theory": "DFT", 
		 "functional": "B3LYP", 
		 "basiset": "6-31G**", 
		 "properties": { 
			 "R2extent": 3633.7375, 
			 "electric_dipole_moment_norm": 5.39443851944, 
			 "electric_quadrupole_moment_norm": 16.3345458376, 
			 "total_energy": -646.003939232, 
			 "HOMO_LUMO_gap": 0.22088, 
			 "cosmo_polarized_energy": -17.42, 
			 "cosmo_cavitation_energy": 27.16, 
			 "cosmo_dispersion_energy": -19.81, 
			 "cosmo_repulsion_energy": 1.58, 
			 "cosmo_total_nonelectrostatic_energy": 8.94, 
			 "SMD_solvation_energy": 6.27 
		},
		"coords": [
			{
				"x": 3.2395293894,
				"y": 1.8892258943,
				"z": -0.4760090911,
				"element": "N" 
			},
			{
				"x": 2.9801627786,
				"y": 2.9356978238,
				"z": -1.3830965713,
				"element": "N" 
			},
			{
				"x": 1.7951359101,
				"y": 3.247133726,
				"z": -1.9868816493,
				"element": "C" 
			},
			{
				"x": 1.6876153348,
				"y": 4.1869756617,
				"z": -2.7636096499,
				"element": "O" 
			},
			{
				"x": 0.5874708414,
				"y": 2.3869439777,
				"z": -1.608806547,
				"element": "C" 
			},
			{
				"x": 0.873339033,
				"y": 1.0027729308,
				"z": -1.8782045769,
				"element": "O" 
			},
			{
				"x": -0.0985447167,
				"y": 0.1147327779,
				"z": -1.462345881,
				"element": "C" 
			},
			{
				"x": -0.2548507485,
				"y": -0.1899950849,
				"z": -0.0974691832,
				"element": "C" 
			},
			{
				"x": 0.5569847721,
				"y": 0.4636019851,
				"z": 0.7954701046,
				"element": "O" 
			},
			{
				"x": -1.2071760264,
				"y": -1.1325474821,
				"z": 0.293139606,
				"element": "C" 
			},
			{
				"x": -1.993644091,
				"y": -1.7781693015,
				"z": -0.6637676397,
				"element": "C" 
			},
			{
				"x": -1.8327716629,
				"y": -1.4845442393,
				"z": -2.0170772866,
				"element": "C" 
			},
			{
				"x": -0.8865338139,
				"y": -0.5346072896,
				"z": -2.4094066905,
				"element": "C" 
			},
			{
				"x": 2.7165498045,
				"y": 2.05107564,
				"z": 0.3825579541,
				"element": "H" 
			},
			{
				"x": 2.8754670366,
				"y": 1.0267278262,
				"z": -0.8730873656,
				"element": "H" 
			},
			{
				"x": 3.7820341536,
				"y": 3.4814197364,
				"z": -1.6695885812,
				"element": "H" 
			},
			{
				"x": -0.2526039701,
				"y": 2.7284405681,
				"z": -2.2200233204,
				"element": "H" 
			},
			{
				"x": 0.3453698151,
				"y": 2.5261659661,
				"z": -0.5473653946,
				"element": "H" 
			},
			{
				"x": 0.3466250436,
				"y": 0.1585981786,
				"z": 1.6877960569,
				"element": "H" 
			},
			{
				"x": -1.3264578875,
				"y": -1.3659202454,
				"z": 1.3494908198,
				"element": "H" 
			},
			{
				"x": -2.727252573,
				"y": -2.5118612056,
				"z": -0.3442644496,
				"element": "H" 
			},
			{
				"x": -2.4389031114,
				"y": -1.9863863483,
				"z": -2.7643461448,
				"element": "H" 
			},
			{
				"x": -0.7338453115,
				"y": -0.285081496,
				"z": -3.4546045188,
				"element": "H" 
			}
		],
		 "valence_orbital": [ 
			{
				"type": "occ",
				"energy": -0.27597,
				"method": "rhf"
			},
			{
				"type": "occ",
				"energy": -0.2554,
				"method": "rhf"
			},
			{
				"type": "occ",
				"energy": -0.24964,
				"method": "rhf"
			},
			{
				"type": "occ",
				"energy": -0.23908,
				"method": "rhf"
			},
			{
				"type": "occ",
				"energy": -0.23232,
				"method": "rhf"
			},
			{
				"type": "unocc",
				"energy": -0.01144,
				"method": "rhf"
			},
			{
				"type": "unocc",
				"energy": -0.00117,
				"method": "rhf"
			},
			{
				"type": "unocc",
				"energy": 0.01645,
				"method": "rhf"
			},
			{
				"type": "unocc",
				"energy": 0.04802,
				"method": "rhf"
			},
			{
				"type": "unocc",
				"energy": 0.07952,
				"method": "rhf"
			}
		],
		"cosmo_sigma_profile": { 
			"-0.025": 0.0,
			"-0.024": 0.0,
			"-0.023": 0.0,
			"-0.022": 0.0,
			"-0.021": 0.0,
			"-0.02": 0.0,
			"-0.019": 0.00815934461337,
			"-0.018": 0.685771352095,
			"-0.017": 0.960053443752,
			"-0.016": 1.46383020494,
			"-0.015": 1.02928808362,
			"-0.014": 1.42148185634,
			"-0.013": 1.83745119031,
			"-0.012": 1.80831266096,
			"-0.011": 1.41077207862,
			"-0.01": 2.85536578389,
			"-0.009": 3.19942040566,
			"-0.008": 3.03899576043,
			"-0.007": 5.94804592637,
			"-0.006": 10.0918902685,
			"-0.005": 13.7160469631,
			"-0.004": 15.745190919,
			"-0.003": 12.7858138014,
			"-0.002": 12.9431887933,
			"-0.001": 12.0875710833,
			"0.0": 12.7433144102,
			"0.001": 13.279240053,
			"0.002": 14.3756338577,
			"0.003": 14.2525544867,
			"0.004": 12.4278541651,
			"0.005": 11.3444355661,
			"0.006": 6.29937903172,
			"0.007": 2.44924949357,
			"0.008": 3.05714909823,
			"0.009": 2.52556346708,
			"0.01": 2.14757383349,
			"0.011": 1.98610075607,
			"0.012": 2.85898949667,
			"0.013": 5.79884075509,
			"0.014": 4.97118204309,
			"0.015": 0.895195812201,
			"0.016": 0.474363089402,
			"0.017": 0.102792086256,
			"0.018": 0.0,
			"0.019": 0.0,
			"0.02": 0.0,
			"0.021": 0.0,
			"0.022": 0.0,
			"0.023": 0.0,
			"0.024": 0.0,
			"0.025": 0.0
		}
	}
}
