{
	 "smiles": "NCC(=O)NC1=C(C=CC=C1)N1C=NC=N1", 
	 "Tm": 392.15, 
	 "num_atms": 27, 
	 "gaussian": { 
		 "optdone": 1, 
		 "sigma_profile": "yes", 
		 "theory": "DFT", 
		 "functional": "B3LYP", 
		 "basiset": "6-31G**", 
		 "properties": { 
			 "R2extent": 4032.0691, 
			 "electric_dipole_moment_norm": 2.47626593281, 
			 "electric_quadrupole_moment_norm": 10.7789474458, 
			 "total_energy": -736.669618629, 
			 "HOMO_LUMO_gap": 0.17802, 
			 "cosmo_polarized_energy": -15.55, 
			 "cosmo_cavitation_energy": 31.12, 
			 "cosmo_dispersion_energy": -22.89, 
			 "cosmo_repulsion_energy": 1.75, 
			 "cosmo_total_nonelectrostatic_energy": 9.98, 
			 "SMD_solvation_energy": 2.78 
		},
		"coords": [
			{
				"x": 2.2132796423,
				"y": 3.6599307048,
				"z": 2.010884445,
				"element": "N" 
			},
			{
				"x": 1.1629924256,
				"y": 2.7185153088,
				"z": 1.671781909,
				"element": "C" 
			},
			{
				"x": 1.6107038761,
				"y": 1.5482175784,
				"z": 0.7723028224,
				"element": "C" 
			},
			{
				"x": 2.7697403379,
				"y": 1.4483335058,
				"z": 0.3899362848,
				"element": "O" 
			},
			{
				"x": 0.5866573858,
				"y": 0.6783356074,
				"z": 0.4711243286,
				"element": "N" 
			},
			{
				"x": 0.6174641777,
				"y": -0.4840766964,
				"z": -0.3118148871,
				"element": "C" 
			},
			{
				"x": -0.5581213088,
				"y": -1.2591162754,
				"z": -0.5098107648,
				"element": "C" 
			},
			{
				"x": -0.4994294194,
				"y": -2.4169979572,
				"z": -1.2972818362,
				"element": "C" 
			},
			{
				"x": 0.6857638267,
				"y": -2.8283847217,
				"z": -1.8925426034,
				"element": "C" 
			},
			{
				"x": 1.8418234943,
				"y": -2.0722645521,
				"z": -1.7018887702,
				"element": "C" 
			},
			{
				"x": 1.8079088099,
				"y": -0.921400577,
				"z": -0.9257624963,
				"element": "C" 
			},
			{
				"x": -1.8284046527,
				"y": -0.9156528679,
				"z": 0.0632581722,
				"element": "N" 
			},
			{
				"x": -3.0219434185,
				"y": -1.5640501895,
				"z": -0.0462294831,
				"element": "C" 
			},
			{
				"x": -3.9680306417,
				"y": -0.9365477914,
				"z": 0.62863392,
				"element": "N" 
			},
			{
				"x": -3.3073741456,
				"y": 0.1235884338,
				"z": 1.157057865,
				"element": "C" 
			},
			{
				"x": -2.0217636577,
				"y": 0.1854692342,
				"z": 0.8504042581,
				"element": "N" 
			},
			{
				"x": 2.6185225196,
				"y": 4.0173373295,
				"z": 1.1481444772,
				"element": "H" 
			},
			{
				"x": 2.9746193268,
				"y": 3.1496687093,
				"z": 2.4539122151,
				"element": "H" 
			},
			{
				"x": 0.3442029888,
				"y": 3.2507182921,
				"z": 1.1695307843,
				"element": "H" 
			},
			{
				"x": 0.7324593706,
				"y": 2.3047314394,
				"z": 2.5933748713,
				"element": "H" 
			},
			{
				"x": -0.3343244661,
				"y": 0.8863107636,
				"z": 0.8596506128,
				"element": "H" 
			},
			{
				"x": -1.391292704,
				"y": -3.0114621513,
				"z": -1.4517097903,
				"element": "H" 
			},
			{
				"x": 0.6995017811,
				"y": -3.7294814101,
				"z": -2.4967012372,
				"element": "H" 
			},
			{
				"x": 2.7787160713,
				"y": -2.3764228969,
				"z": -2.1583769213,
				"element": "H" 
			},
			{
				"x": 2.6962539124,
				"y": -0.3265368259,
				"z": -0.7700313039,
				"element": "H" 
			},
			{
				"x": -3.1629591674,
				"y": -2.4700686607,
				"z": -0.6126141058,
				"element": "H" 
			},
			{
				"x": -3.775066365,
				"y": 0.8711066666,
				"z": 1.7824672339,
				"element": "H" 
			}
		],
		 "valence_orbital": [ 
			{
				"type": "occ",
				"energy": -0.29639,
				"method": "rhf"
			},
			{
				"type": "occ",
				"energy": -0.2636,
				"method": "rhf"
			},
			{
				"type": "occ",
				"energy": -0.25292,
				"method": "rhf"
			},
			{
				"type": "occ",
				"energy": -0.24,
				"method": "rhf"
			},
			{
				"type": "occ",
				"energy": -0.22527,
				"method": "rhf"
			},
			{
				"type": "unocc",
				"energy": -0.04725,
				"method": "rhf"
			},
			{
				"type": "unocc",
				"energy": -0.0214,
				"method": "rhf"
			},
			{
				"type": "unocc",
				"energy": 0.01904,
				"method": "rhf"
			},
			{
				"type": "unocc",
				"energy": 0.03712,
				"method": "rhf"
			},
			{
				"type": "unocc",
				"energy": 0.0383,
				"method": "rhf"
			}
		],
		"cosmo_sigma_profile": { 
			"-0.025": 0.0,
			"-0.024": 0.0,
			"-0.023": 0.0,
			"-0.022": 0.0,
			"-0.021": 0.0,
			"-0.02": 0.0,
			"-0.019": 0.0,
			"-0.018": 0.0,
			"-0.017": 0.0,
			"-0.016": 0.0,
			"-0.015": 0.0,
			"-0.014": 0.0,
			"-0.013": 0.594027738819,
			"-0.012": 1.72381342459,
			"-0.011": 1.93590322982,
			"-0.01": 2.83693714337,
			"-0.009": 5.95606348457,
			"-0.008": 5.66747200184,
			"-0.007": 9.17777265323,
			"-0.006": 19.2853439851,
			"-0.005": 14.474899376,
			"-0.004": 15.0741523399,
			"-0.003": 14.9800867108,
			"-0.002": 16.642095284,
			"-0.001": 16.2754731562,
			"0.0": 15.0031689162,
			"0.001": 17.1533726184,
			"0.002": 15.7802656377,
			"0.003": 19.6015940807,
			"0.004": 14.8286128051,
			"0.005": 7.03699193036,
			"0.006": 4.17474030263,
			"0.007": 3.06721489342,
			"0.008": 2.90156160378,
			"0.009": 3.88244025594,
			"0.01": 3.21506159528,
			"0.011": 4.28223100972,
			"0.012": 3.84063129192,
			"0.013": 4.09730559444,
			"0.014": 1.52164977011,
			"0.015": 1.49621508412,
			"0.016": 1.16406151304,
			"0.017": 0.765238684059,
			"0.018": 0.641973376772,
			"0.019": 0.444984025075,
			"0.02": 0.0400093380086,
			"0.021": 0.0,
			"0.022": 0.0,
			"0.023": 0.0,
			"0.024": 0.0,
			"0.025": 0.0
		}
	}
}
