{
	 "smiles": "O=C1NC(=O)C(N1)=CC1=CC=CC=C1", 
	 "Tm": 495.15, 
	 "num_atms": 22, 
	 "gaussian": { 
		 "optdone": 1, 
		 "sigma_profile": "yes", 
		 "theory": "DFT", 
		 "functional": "B3LYP", 
		 "basiset": "6-31G**", 
		 "properties": { 
			 "R2extent": 4144.9067, 
			 "electric_dipole_moment_norm": 3.15505185377, 
			 "electric_quadrupole_moment_norm": 7.10468740692, 
			 "total_energy": -645.868483257, 
			 "HOMO_LUMO_gap": 0.15178, 
			 "cosmo_polarized_energy": -15.73, 
			 "cosmo_cavitation_energy": 27.32, 
			 "cosmo_dispersion_energy": -20.2, 
			 "cosmo_repulsion_energy": 1.58, 
			 "cosmo_total_nonelectrostatic_energy": 8.7, 
			 "SMD_solvation_energy": 6.19 
		},
		"coords": [
			{
				"x": -4.191403347,
				"y": 2.9716960865,
				"z": -1.1442107993,
				"element": "O" 
			},
			{
				"x": -3.0819958632,
				"y": 2.6627165839,
				"z": -1.5207795255,
				"element": "C" 
			},
			{
				"x": -2.4360213123,
				"y": 3.0673154549,
				"z": -2.6955556185,
				"element": "N" 
			},
			{
				"x": -1.1873335112,
				"y": 2.4737713178,
				"z": -2.8615864222,
				"element": "C" 
			},
			{
				"x": -0.423427864,
				"y": 2.6264678219,
				"z": -3.793461021,
				"element": "O" 
			},
			{
				"x": -1.0175455519,
				"y": 1.6239492578,
				"z": -1.6399748511,
				"element": "C" 
			},
			{
				"x": -2.1705845746,
				"y": 1.830232763,
				"z": -0.8781653405,
				"element": "N" 
			},
			{
				"x": 0.0627429512,
				"y": 0.843639074,
				"z": -1.4330848908,
				"element": "C" 
			},
			{
				"x": 0.3735147274,
				"y": -0.0206438829,
				"z": -0.297780995,
				"element": "C" 
			},
			{
				"x": -0.1699951257,
				"y": 0.1636096112,
				"z": 0.9903044852,
				"element": "C" 
			},
			{
				"x": 0.1579789111,
				"y": -0.6995338451,
				"z": 2.0334059961,
				"element": "C" 
			},
			{
				"x": 1.0356555862,
				"y": -1.7647655453,
				"z": 1.8192039304,
				"element": "C" 
			},
			{
				"x": 1.5993670311,
				"y": -1.9495200833,
				"z": 0.5543262707,
				"element": "C" 
			},
			{
				"x": 1.2785625863,
				"y": -1.0841291282,
				"z": -0.4875633493,
				"element": "C" 
			},
			{
				"x": -2.860872082,
				"y": 3.6984064455,
				"z": -3.3586196987,
				"element": "H" 
			},
			{
				"x": -2.4649491747,
				"y": 1.2658195111,
				"z": -0.0965585498,
				"element": "H" 
			},
			{
				"x": 0.7723326877,
				"y": 0.8542674157,
				"z": -2.2567696956,
				"element": "H" 
			},
			{
				"x": -0.8079403106,
				"y": 1.0177506446,
				"z": 1.194224526,
				"element": "H" 
			},
			{
				"x": -0.2649744642,
				"y": -0.5333052204,
				"z": 3.0199562334,
				"element": "H" 
			},
			{
				"x": 1.287317173,
				"y": -2.4373256749,
				"z": 2.6337040289,
				"element": "H" 
			},
			{
				"x": 2.2929386871,
				"y": -2.7671921712,
				"z": 0.3811720327,
				"element": "H" 
			},
			{
				"x": 1.7207328402,
				"y": -1.2307264366,
				"z": -1.4692867459,
				"element": "H" 
			}
		],
		 "valence_orbital": [ 
			{
				"type": "occ",
				"energy": -0.29427,
				"method": "rhf"
			},
			{
				"type": "occ",
				"energy": -0.28931,
				"method": "rhf"
			},
			{
				"type": "occ",
				"energy": -0.27136,
				"method": "rhf"
			},
			{
				"type": "occ",
				"energy": -0.26635,
				"method": "rhf"
			},
			{
				"type": "occ",
				"energy": -0.22498,
				"method": "rhf"
			},
			{
				"type": "unocc",
				"energy": -0.0732,
				"method": "rhf"
			},
			{
				"type": "unocc",
				"energy": -0.01746,
				"method": "rhf"
			},
			{
				"type": "unocc",
				"energy": 0.00373,
				"method": "rhf"
			},
			{
				"type": "unocc",
				"energy": 0.05135,
				"method": "rhf"
			},
			{
				"type": "unocc",
				"energy": 0.0654,
				"method": "rhf"
			}
		],
		"cosmo_sigma_profile": { 
			"-0.025": 0.0,
			"-0.024": 0.0,
			"-0.023": 0.0,
			"-0.022": 0.0,
			"-0.021": 0.0,
			"-0.02": 0.0,
			"-0.019": 0.0,
			"-0.018": 0.0,
			"-0.017": 0.720343345013,
			"-0.016": 1.877355304,
			"-0.015": 2.01996299224,
			"-0.014": 1.58327323084,
			"-0.013": 1.34787664394,
			"-0.012": 2.47070239356,
			"-0.011": 2.27047332137,
			"-0.01": 2.16982250166,
			"-0.009": 1.60644804685,
			"-0.008": 2.18077060154,
			"-0.007": 5.38125203755,
			"-0.006": 11.9413826412,
			"-0.005": 13.7356461041,
			"-0.004": 16.6586078276,
			"-0.003": 13.6680010752,
			"-0.002": 16.2627201465,
			"-0.001": 12.4986394996,
			"0.0": 11.4365307434,
			"0.001": 13.6326621259,
			"0.002": 15.6502566209,
			"0.003": 12.497057899,
			"0.004": 12.0156060465,
			"0.005": 10.7309158442,
			"0.006": 2.67587197198,
			"0.007": 2.35792688199,
			"0.008": 2.20115125076,
			"0.009": 3.24916306687,
			"0.01": 3.64812801644,
			"0.011": 6.70466960722,
			"0.012": 11.7423320924,
			"0.013": 2.54993658166,
			"0.014": 0.0,
			"0.015": 0.0,
			"0.016": 0.0,
			"0.017": 0.0,
			"0.018": 0.0,
			"0.019": 0.0,
			"0.02": 0.0,
			"0.021": 0.0,
			"0.022": 0.0,
			"0.023": 0.0,
			"0.024": 0.0,
			"0.025": 0.0
		}
	}
}
