{
	 "smiles": "NCCC1=CC=C(O)C=C1", 
	 "Tm": 437.15, 
	 "num_atms": 21, 
	 "gaussian": { 
		 "optdone": 1, 
		 "sigma_profile": "yes", 
		 "theory": "DFT", 
		 "functional": "B3LYP", 
		 "basiset": "6-31G**", 
		 "properties": { 
			 "R2extent": 2118.5836, 
			 "electric_dipole_moment_norm": 1.85155300491, 
			 "electric_quadrupole_moment_norm": 12.3091533113, 
			 "total_energy": -441.452124679, 
			 "HOMO_LUMO_gap": 0.2092, 
			 "cosmo_polarized_energy": -12.05, 
			 "cosmo_cavitation_energy": 24.45, 
			 "cosmo_dispersion_energy": -17.82, 
			 "cosmo_repulsion_energy": 1.47, 
			 "cosmo_total_nonelectrostatic_energy": 8.11, 
			 "SMD_solvation_energy": 2.95 
		},
		"coords": [
			{
				"x": 2.5521236556,
				"y": 0.8093039623,
				"z": 2.3926232761,
				"element": "N" 
			},
			{
				"x": 1.4381982058,
				"y": 0.274631112,
				"z": 1.6100321819,
				"element": "C" 
			},
			{
				"x": 1.1806025757,
				"y": 0.9566904651,
				"z": 0.2441726762,
				"element": "C" 
			},
			{
				"x": 0.0146089783,
				"y": 0.3570558108,
				"z": -0.5093967721,
				"element": "C" 
			},
			{
				"x": -1.2949600723,
				"y": 0.8197331475,
				"z": -0.3078189104,
				"element": "C" 
			},
			{
				"x": -2.3826671422,
				"y": 0.2439146516,
				"z": -0.9579528974,
				"element": "C" 
			},
			{
				"x": -2.1788066502,
				"y": -0.8256842983,
				"z": -1.8362641026,
				"element": "C" 
			},
			{
				"x": -3.2784118138,
				"y": -1.3554975868,
				"z": -2.4539867049,
				"element": "O" 
			},
			{
				"x": -0.8831527975,
				"y": -1.3039791403,
				"z": -2.053181689,
				"element": "C" 
			},
			{
				"x": 0.1950735301,
				"y": -0.7142246627,
				"z": -1.3925096683,
				"element": "C" 
			},
			{
				"x": 3.4143582118,
				"y": 0.7484259869,
				"z": 1.8549331601,
				"element": "H" 
			},
			{
				"x": 2.403777493,
				"y": 1.7997444991,
				"z": 2.5750190347,
				"element": "H" 
			},
			{
				"x": 1.6167341715,
				"y": -0.7951187809,
				"z": 1.4465569197,
				"element": "H" 
			},
			{
				"x": 0.5287912732,
				"y": 0.3407209603,
				"z": 2.2195028387,
				"element": "H" 
			},
			{
				"x": 1.0043965048,
				"y": 2.0270302417,
				"z": 0.4159210067,
				"element": "H" 
			},
			{
				"x": 2.0944227071,
				"y": 0.8842349012,
				"z": -0.360639753,
				"element": "H" 
			},
			{
				"x": -1.4668653988,
				"y": 1.6537795507,
				"z": 0.3687735968,
				"element": "H" 
			},
			{
				"x": -3.3922910713,
				"y": 0.6099815168,
				"z": -0.8023987161,
				"element": "H" 
			},
			{
				"x": -2.998459679,
				"y": -2.0807579139,
				"z": -3.0271083686,
				"element": "H" 
			},
			{
				"x": -0.7157308647,
				"y": -2.1318130356,
				"z": -2.7397329877,
				"element": "H" 
			},
			{
				"x": 1.1973581829,
				"y": -1.0947713874,
				"z": -1.5753441207,
				"element": "H" 
			}
		],
		 "valence_orbital": [ 
			{
				"type": "occ",
				"energy": -0.32889,
				"method": "rhf"
			},
			{
				"type": "occ",
				"energy": -0.32345,
				"method": "rhf"
			},
			{
				"type": "occ",
				"energy": -0.24909,
				"method": "rhf"
			},
			{
				"type": "occ",
				"energy": -0.23666,
				"method": "rhf"
			},
			{
				"type": "occ",
				"energy": -0.20976,
				"method": "rhf"
			},
			{
				"type": "unocc",
				"energy": -0.00056,
				"method": "rhf"
			},
			{
				"type": "unocc",
				"energy": 0.01522,
				"method": "rhf"
			},
			{
				"type": "unocc",
				"energy": 0.07188,
				"method": "rhf"
			},
			{
				"type": "unocc",
				"energy": 0.0832,
				"method": "rhf"
			},
			{
				"type": "unocc",
				"energy": 0.09736,
				"method": "rhf"
			}
		],
		"cosmo_sigma_profile": { 
			"-0.025": 0.0,
			"-0.024": 0.0,
			"-0.023": 0.0,
			"-0.022": 0.0,
			"-0.021": 0.0,
			"-0.02": 0.0,
			"-0.019": 0.0,
			"-0.018": 0.15541608184,
			"-0.017": 0.927923456622,
			"-0.016": 1.22339290897,
			"-0.015": 1.08322016963,
			"-0.014": 0.785784105374,
			"-0.013": 1.01080796598,
			"-0.012": 1.01526507801,
			"-0.011": 0.801014733206,
			"-0.01": 1.29799204244,
			"-0.009": 3.49291131643,
			"-0.008": 3.93151517925,
			"-0.007": 4.11219460099,
			"-0.006": 5.0107814673,
			"-0.005": 11.7158348668,
			"-0.004": 13.1767421597,
			"-0.003": 19.2411329649,
			"-0.002": 16.8238905019,
			"-0.001": 11.6735340658,
			"0.0": 12.1127347847,
			"0.001": 10.1633961709,
			"0.002": 8.82525006656,
			"0.003": 9.29076379,
			"0.004": 10.9322842532,
			"0.005": 10.9598587852,
			"0.006": 11.231691609,
			"0.007": 4.30778220022,
			"0.008": 2.20629570294,
			"0.009": 1.52887986669,
			"0.01": 2.93086587524,
			"0.011": 2.6636276067,
			"0.012": 1.97320838861,
			"0.013": 0.621780670204,
			"0.014": 0.818635545794,
			"0.015": 0.466019375131,
			"0.016": 0.330251652246,
			"0.017": 1.02994296995,
			"0.018": 0.672025301174,
			"0.019": 0.602730285516,
			"0.02": 0.392200898364,
			"0.021": 0.0234209316342,
			"0.022": 0.0,
			"0.023": 0.0,
			"0.024": 0.0,
			"0.025": 0.0
		}
	}
}
