{
	 "smiles": "ClC1=CC=C(Cl)C(=C1)N1C(=O)C2ON=C(C2C1=O)C(=O)C1=CC=CC=C1", 
	 "Tm": 458.15, 
	 "num_atms": 36, 
	 "gaussian": { 
		 "optdone": 1, 
		 "sigma_profile": "yes", 
		 "theory": "DFT", 
		 "functional": "B3LYP", 
		 "basiset": "6-31G**", 
		 "properties": { 
			 "R2extent": 13229.362, 
			 "electric_dipole_moment_norm": 0.903210241306, 
			 "electric_quadrupole_moment_norm": 30.5216647139, 
			 "total_energy": -2022.6694479, 
			 "HOMO_LUMO_gap": 0.16828, 
			 "cosmo_polarized_energy": -19.76, 
			 "cosmo_cavitation_energy": 46.53, 
			 "cosmo_dispersion_energy": -31.84, 
			 "cosmo_repulsion_energy": 2.42, 
			 "cosmo_total_nonelectrostatic_energy": 17.11, 
			 "SMD_solvation_energy": 9.08 
		},
		"coords": [
			{
				"x": -4.071138487,
				"y": 3.1477627804,
				"z": 2.899326068,
				"element": "Cl" 
			},
			{
				"x": -2.5941142218,
				"y": 3.7666541059,
				"z": 2.1909450126,
				"element": "C" 
			},
			{
				"x": -2.4467844918,
				"y": 5.1382942163,
				"z": 1.9860377231,
				"element": "C" 
			},
			{
				"x": -1.2705123483,
				"y": 5.6237713805,
				"z": 1.4193133122,
				"element": "C" 
			},
			{
				"x": -0.2498207498,
				"y": 4.7442376728,
				"z": 1.0599398489,
				"element": "C" 
			},
			{
				"x": 1.2035473293,
				"y": 5.3755823027,
				"z": 0.3243968205,
				"element": "Cl" 
			},
			{
				"x": -0.400049052,
				"y": 3.3681639907,
				"z": 1.2781289602,
				"element": "C" 
			},
			{
				"x": -1.5789737089,
				"y": 2.8796926282,
				"z": 1.8434948767,
				"element": "C" 
			},
			{
				"x": 0.6328881202,
				"y": 2.4510203816,
				"z": 0.9238508693,
				"element": "N" 
			},
			{
				"x": 1.7897731732,
				"y": 2.2642755896,
				"z": 1.6986576284,
				"element": "C" 
			},
			{
				"x": 2.046973584,
				"y": 2.8331243153,
				"z": 2.7297545231,
				"element": "O" 
			},
			{
				"x": 2.637685953,
				"y": 1.1988394194,
				"z": 0.9921040211,
				"element": "C" 
			},
			{
				"x": 2.6316066377,
				"y": -0.0257047166,
				"z": 1.7911869317,
				"element": "O" 
			},
			{
				"x": 2.0394490791,
				"y": -1.0479155547,
				"z": 1.0748586016,
				"element": "N" 
			},
			{
				"x": 1.6381401736,
				"y": -0.6299686489,
				"z": -0.0728687855,
				"element": "C" 
			},
			{
				"x": 1.8919737143,
				"y": 0.8468814094,
				"z": -0.2918300248,
				"element": "C" 
			},
			{
				"x": 0.5938051118,
				"y": 1.6740055779,
				"z": -0.2506931573,
				"element": "C" 
			},
			{
				"x": -0.3075378293,
				"y": 1.6698907698,
				"z": -1.0501160358,
				"element": "O" 
			},
			{
				"x": 1.1233531779,
				"y": -1.5065771322,
				"z": -1.1755474812,
				"element": "C" 
			},
			{
				"x": 1.2650394587,
				"y": -1.0667139972,
				"z": -2.3113245726,
				"element": "O" 
			},
			{
				"x": 0.4985099919,
				"y": -2.8324030831,
				"z": -0.9148688739,
				"element": "C" 
			},
			{
				"x": 0.1945338781,
				"y": -3.6190901405,
				"z": -2.0406576263,
				"element": "C" 
			},
			{
				"x": -0.4084567757,
				"y": -4.8621605821,
				"z": -1.8885428939,
				"element": "C" 
			},
			{
				"x": -0.7225963421,
				"y": -5.3335676317,
				"z": -0.6096558429,
				"element": "C" 
			},
			{
				"x": -0.4305092639,
				"y": -4.5567178875,
				"z": 0.5126968455,
				"element": "C" 
			},
			{
				"x": 0.1765671269,
				"y": -3.3100420192,
				"z": 0.3663313129,
				"element": "C" 
			},
			{
				"x": -3.2426768031,
				"y": 5.8197770233,
				"z": 2.2638964245,
				"element": "H" 
			},
			{
				"x": -1.1431524552,
				"y": 6.6868260168,
				"z": 1.2501980982,
				"element": "H" 
			},
			{
				"x": -1.6927462581,
				"y": 1.8149531501,
				"z": 2.008057189,
				"element": "H" 
			},
			{
				"x": 3.673160192,
				"y": 1.5310312027,
				"z": 0.8938597649,
				"element": "H" 
			},
			{
				"x": 2.405773332,
				"y": 1.0318060589,
				"z": -1.237261802,
				"element": "H" 
			},
			{
				"x": 0.4418459951,
				"y": -3.2301637471,
				"z": -3.0223267711,
				"element": "H" 
			},
			{
				"x": -0.6365965956,
				"y": -5.464549512,
				"z": -2.7627660855,
				"element": "H" 
			},
			{
				"x": -1.1957844007,
				"y": -6.30405515,
				"z": -0.4896867892,
				"element": "H" 
			},
			{
				"x": -0.6767783132,
				"y": -4.9204877631,
				"z": 1.505685563,
				"element": "H" 
			},
			{
				"x": 0.4068020674,
				"y": -2.7171724264,
				"z": 1.2423263465,
				"element": "H" 
			}
		],
		 "valence_orbital": [ 
			{
				"type": "occ",
				"energy": -0.27536,
				"method": "rhf"
			},
			{
				"type": "occ",
				"energy": -0.26899,
				"method": "rhf"
			},
			{
				"type": "occ",
				"energy": -0.26544,
				"method": "rhf"
			},
			{
				"type": "occ",
				"energy": -0.26428,
				"method": "rhf"
			},
			{
				"type": "occ",
				"energy": -0.25851,
				"method": "rhf"
			},
			{
				"type": "unocc",
				"energy": -0.09023,
				"method": "rhf"
			},
			{
				"type": "unocc",
				"energy": -0.05068,
				"method": "rhf"
			},
			{
				"type": "unocc",
				"energy": -0.04737,
				"method": "rhf"
			},
			{
				"type": "unocc",
				"energy": -0.039,
				"method": "rhf"
			},
			{
				"type": "unocc",
				"energy": -0.03031,
				"method": "rhf"
			}
		],
		"cosmo_sigma_profile": { 
			"-0.025": 0.0,
			"-0.024": 0.0,
			"-0.023": 0.0,
			"-0.022": 0.0,
			"-0.021": 0.0,
			"-0.02": 0.0,
			"-0.019": 0.0,
			"-0.018": 0.0,
			"-0.017": 0.0,
			"-0.016": 0.0,
			"-0.015": 0.0,
			"-0.014": 0.000190390989891,
			"-0.013": 0.0544935173608,
			"-0.012": 0.322614562816,
			"-0.011": 1.78772604255,
			"-0.01": 10.5092216759,
			"-0.009": 10.5301182362,
			"-0.008": 9.53982620335,
			"-0.007": 12.1909895294,
			"-0.006": 16.1124781394,
			"-0.005": 19.2474378807,
			"-0.004": 20.2075126421,
			"-0.003": 19.3371526292,
			"-0.002": 22.1457602573,
			"-0.001": 22.5655513711,
			"0.0": 35.8463456742,
			"0.001": 31.3465731709,
			"0.002": 25.8411887116,
			"0.003": 35.9172141645,
			"0.004": 23.652111638,
			"0.005": 8.22381772178,
			"0.006": 8.65751607399,
			"0.007": 9.21988944619,
			"0.008": 9.90550442136,
			"0.009": 9.11720011649,
			"0.01": 13.5841928925,
			"0.011": 4.21902654506,
			"0.012": 0.0,
			"0.013": 0.0,
			"0.014": 0.0,
			"0.015": 0.0,
			"0.016": 0.0,
			"0.017": 0.0,
			"0.018": 0.0,
			"0.019": 0.0,
			"0.02": 0.0,
			"0.021": 0.0,
			"0.022": 0.0,
			"0.023": 0.0,
			"0.024": 0.0,
			"0.025": 0.0
		}
	}
}
