{
	 "smiles": "CC1=C(OC(CCC(O)=O)=N1)C1=CC=CC=C1", 
	 "Tm": 436.15, 
	 "num_atms": 30, 
	 "gaussian": { 
		 "optdone": 1, 
		 "sigma_profile": "yes", 
		 "theory": "DFT", 
		 "functional": "B3LYP", 
		 "basiset": "6-31G**", 
		 "properties": { 
			 "R2extent": 5019.1333, 
			 "electric_dipole_moment_norm": 1.5283573077, 
			 "electric_quadrupole_moment_norm": 11.3332292768, 
			 "total_energy": -783.665780631, 
			 "HOMO_LUMO_gap": 0.17565, 
			 "cosmo_polarized_energy": -13.98, 
			 "cosmo_cavitation_energy": 34.69, 
			 "cosmo_dispersion_energy": -24.3, 
			 "cosmo_repulsion_energy": 1.91, 
			 "cosmo_total_nonelectrostatic_energy": 12.3, 
			 "SMD_solvation_energy": 5.28 
		},
		"coords": [
			{
				"x": 1.0461923313,
				"y": 0.2272514216,
				"z": 3.9768694061,
				"element": "C" 
			},
			{
				"x": 0.7054396776,
				"y": 0.5215824241,
				"z": 2.5499100552,
				"element": "C" 
			},
			{
				"x": -0.3339397467,
				"y": 0.080269259,
				"z": 1.7692631525,
				"element": "C" 
			},
			{
				"x": -0.1904604072,
				"y": 0.6878015153,
				"z": 0.5350955424,
				"element": "O" 
			},
			{
				"x": 0.9248562399,
				"y": 1.4535111717,
				"z": 0.6357653354,
				"element": "C" 
			},
			{
				"x": 1.3406375202,
				"y": 2.250251956,
				"z": -0.5562518119,
				"element": "C" 
			},
			{
				"x": 1.4883460214,
				"y": 1.4157666393,
				"z": -1.8394752838,
				"element": "C" 
			},
			{
				"x": 0.1563593901,
				"y": 1.0849338272,
				"z": -2.4851059633,
				"element": "C" 
			},
			{
				"x": 0.2469412369,
				"y": -0.0096894817,
				"z": -3.275242846,
				"element": "O" 
			},
			{
				"x": -0.8655521198,
				"y": 1.7237753764,
				"z": -2.3643515256,
				"element": "O" 
			},
			{
				"x": 1.4958384187,
				"y": 1.3890543812,
				"z": 1.8008751126,
				"element": "N" 
			},
			{
				"x": -1.4862309054,
				"y": -0.7945654343,
				"z": 1.9408655216,
				"element": "C" 
			},
			{
				"x": -1.5741525175,
				"y": -1.6857185002,
				"z": 3.0268071892,
				"element": "C" 
			},
			{
				"x": -2.6919297942,
				"y": -2.5027497598,
				"z": 3.1836487022,
				"element": "C" 
			},
			{
				"x": -3.7370686254,
				"y": -2.4573126585,
				"z": 2.2591822339,
				"element": "C" 
			},
			{
				"x": -3.6532645944,
				"y": -1.5853506033,
				"z": 1.1708057041,
				"element": "C" 
			},
			{
				"x": -2.543143983,
				"y": -0.7608304999,
				"z": 1.0100359443,
				"element": "C" 
			},
			{
				"x": 0.1526636009,
				"y": 0.1866447711,
				"z": 4.6072903582,
				"element": "H" 
			},
			{
				"x": 1.5738014773,
				"y": -0.7287432084,
				"z": 4.0853007694,
				"element": "H" 
			},
			{
				"x": 1.7048766756,
				"y": 1.0119055359,
				"z": 4.3557402992,
				"element": "H" 
			},
			{
				"x": 2.2908571464,
				"y": 2.7234866212,
				"z": -0.3009781685,
				"element": "H" 
			},
			{
				"x": 0.6062223249,
				"y": 3.0422288561,
				"z": -0.7444385084,
				"element": "H" 
			},
			{
				"x": 2.05651197,
				"y": 1.9891997189,
				"z": -2.5832632421,
				"element": "H" 
			},
			{
				"x": 2.0484307314,
				"y": 0.4927638346,
				"z": -1.6666710142,
				"element": "H" 
			},
			{
				"x": -0.6307379515,
				"y": -0.1277721887,
				"z": -3.6764847644,
				"element": "H" 
			},
			{
				"x": -0.7603401621,
				"y": -1.7537927278,
				"z": 3.7396895141,
				"element": "H" 
			},
			{
				"x": -2.7409724157,
				"y": -3.1846586765,
				"z": 4.027885717,
				"element": "H" 
			},
			{
				"x": -4.6056840586,
				"y": -3.0972835768,
				"z": 2.3830766573,
				"element": "H" 
			},
			{
				"x": -4.4597531429,
				"y": -1.5434307946,
				"z": 0.4441323914,
				"element": "H" 
			},
			{
				"x": -2.4843443384,
				"y": -0.0810291991,
				"z": 0.1667235221,
				"element": "H" 
			}
		],
		 "valence_orbital": [ 
			{
				"type": "occ",
				"energy": -0.28174,
				"method": "rhf"
			},
			{
				"type": "occ",
				"energy": -0.28011,
				"method": "rhf"
			},
			{
				"type": "occ",
				"energy": -0.2773,
				"method": "rhf"
			},
			{
				"type": "occ",
				"energy": -0.25162,
				"method": "rhf"
			},
			{
				"type": "occ",
				"energy": -0.20699,
				"method": "rhf"
			},
			{
				"type": "unocc",
				"energy": -0.03134,
				"method": "rhf"
			},
			{
				"type": "unocc",
				"energy": -0.00186,
				"method": "rhf"
			},
			{
				"type": "unocc",
				"energy": 0.0054,
				"method": "rhf"
			},
			{
				"type": "unocc",
				"energy": 0.03031,
				"method": "rhf"
			},
			{
				"type": "unocc",
				"energy": 0.07451,
				"method": "rhf"
			}
		],
		"cosmo_sigma_profile": { 
			"-0.025": 0.0,
			"-0.024": 0.0,
			"-0.023": 0.0,
			"-0.022": 0.0,
			"-0.021": 0.0,
			"-0.02": 0.0,
			"-0.019": 0.0,
			"-0.018": 0.552322262017,
			"-0.017": 1.30487954679,
			"-0.016": 0.607946714282,
			"-0.015": 0.868982454516,
			"-0.014": 0.581626949202,
			"-0.013": 0.615687838234,
			"-0.012": 0.729398678772,
			"-0.011": 0.978655453348,
			"-0.01": 0.77369810125,
			"-0.009": 0.454521227435,
			"-0.008": 1.69526928197,
			"-0.007": 4.30345150783,
			"-0.006": 12.7941009712,
			"-0.005": 24.1499794666,
			"-0.004": 26.4442608782,
			"-0.003": 24.8300491366,
			"-0.002": 17.369782064,
			"-0.001": 19.0104572451,
			"0.0": 17.045262341,
			"0.001": 18.1965573077,
			"0.002": 20.965878211,
			"0.003": 15.6451868559,
			"0.004": 14.7821747587,
			"0.005": 15.535600873,
			"0.006": 6.95297046812,
			"0.007": 3.67212643773,
			"0.008": 5.45568094879,
			"0.009": 4.38007042403,
			"0.01": 3.21974787332,
			"0.011": 3.88242696091,
			"0.012": 4.5913673251,
			"0.013": 1.02137826515,
			"0.014": 0.898401096814,
			"0.015": 0.881123389479,
			"0.016": 0.672056365661,
			"0.017": 0.0692221820616,
			"0.018": 0.0,
			"0.019": 0.0,
			"0.02": 0.0,
			"0.021": 0.0,
			"0.022": 0.0,
			"0.023": 0.0,
			"0.024": 0.0,
			"0.025": 0.0
		}
	}
}
