{
	 "smiles": "O=P(OC1=CC=CC=C1)(OC1=CC=CC=C1)OC1=CC=CC=C1", 
	 "Tm": 323.35, 
	 "num_atms": 38, 
	 "gaussian": { 
		 "optdone": 1, 
		 "sigma_profile": "yes", 
		 "theory": "DFT", 
		 "functional": "B3LYP", 
		 "basiset": "6-31G**", 
		 "properties": { 
			 "R2extent": 8169.7695, 
			 "electric_dipole_moment_norm": 3.55374799472, 
			 "electric_quadrupole_moment_norm": 13.6604614563, 
			 "total_energy": -1337.27339754, 
			 "HOMO_LUMO_gap": 0.22709, 
			 "cosmo_polarized_energy": -12.32, 
			 "cosmo_cavitation_energy": 44.78, 
			 "cosmo_dispersion_energy": -30.24, 
			 "cosmo_repulsion_energy": 2.3, 
			 "cosmo_total_nonelectrostatic_energy": 16.84, 
			 "SMD_solvation_energy": 9.12 
		},
		"coords": [
			{
				"x": 0.4299929309,
				"y": -2.4206182716,
				"z": -1.1688687347,
				"element": "O" 
			},
			{
				"x": 0.7265305526,
				"y": -1.0136282642,
				"z": -0.842575828,
				"element": "P" 
			},
			{
				"x": 1.2964111791,
				"y": -0.6811717193,
				"z": 0.6278558894,
				"element": "O" 
			},
			{
				"x": 0.6052715718,
				"y": -1.0016131517,
				"z": 1.8059328214,
				"element": "C" 
			},
			{
				"x": 0.4423568555,
				"y": 0.0202250453,
				"z": 2.7378364275,
				"element": "C" 
			},
			{
				"x": -0.1813390214,
				"y": -0.2666203418,
				"z": 3.9524144727,
				"element": "C" 
			},
			{
				"x": -0.6371081905,
				"y": -1.5589251096,
				"z": 4.2224816274,
				"element": "C" 
			},
			{
				"x": -0.4633170696,
				"y": -2.5683492175,
				"z": 3.2736623104,
				"element": "C" 
			},
			{
				"x": 0.1659893647,
				"y": -2.3007728198,
				"z": 2.0562981144,
				"element": "C" 
			},
			{
				"x": 1.8838052024,
				"y": -0.4023317439,
				"z": -1.7762586182,
				"element": "O" 
			},
			{
				"x": 2.3350533518,
				"y": 0.9239425211,
				"z": -1.7324148473,
				"element": "C" 
			},
			{
				"x": 3.3231283034,
				"y": 1.2829661015,
				"z": -0.8184226003,
				"element": "C" 
			},
			{
				"x": 3.8154051101,
				"y": 2.5887894293,
				"z": -0.838125576,
				"element": "C" 
			},
			{
				"x": 3.3268058133,
				"y": 3.5150389057,
				"z": -1.7623206837,
				"element": "C" 
			},
			{
				"x": 2.3404893993,
				"y": 3.1331463897,
				"z": -2.6741243816,
				"element": "C" 
			},
			{
				"x": 1.8382237465,
				"y": 1.8306796284,
				"z": -2.6655738185,
				"element": "C" 
			},
			{
				"x": -0.5074355828,
				"y": 0.0337142134,
				"z": -0.8966779446,
				"element": "O" 
			},
			{
				"x": -1.4646909824,
				"y": 0.1165345272,
				"z": -1.9159234435,
				"element": "C" 
			},
			{
				"x": -1.944013947,
				"y": 1.3975696927,
				"z": -2.1893205642,
				"element": "C" 
			},
			{
				"x": -2.9349345623,
				"y": 1.5607353087,
				"z": -3.1570216979,
				"element": "C" 
			},
			{
				"x": -3.4368034234,
				"y": 0.4536943343,
				"z": -3.845074744,
				"element": "C" 
			},
			{
				"x": -2.9443967814,
				"y": -0.8197270503,
				"z": -3.5556332256,
				"element": "C" 
			},
			{
				"x": -1.9569998871,
				"y": -1.0043782115,
				"z": -2.584924914,
				"element": "C" 
			},
			{
				"x": 0.802799367,
				"y": 1.0157598993,
				"z": 2.5023294218,
				"element": "H" 
			},
			{
				"x": -0.3125130932,
				"y": 0.5234880857,
				"z": 4.6858349492,
				"element": "H" 
			},
			{
				"x": -1.1238894948,
				"y": -1.778074526,
				"z": 5.1679151182,
				"element": "H" 
			},
			{
				"x": -0.8133902522,
				"y": -3.5755602542,
				"z": 3.479448724,
				"element": "H" 
			},
			{
				"x": 0.3119926509,
				"y": -3.0729667166,
				"z": 1.3097884511,
				"element": "H" 
			},
			{
				"x": 3.690396881,
				"y": 0.547620428,
				"z": -0.1119414401,
				"element": "H" 
			},
			{
				"x": 4.5861341729,
				"y": 2.8793026964,
				"z": -0.1303467466,
				"element": "H" 
			},
			{
				"x": 3.7158777462,
				"y": 4.5286317742,
				"z": -1.7743637175,
				"element": "H" 
			},
			{
				"x": 1.9606797733,
				"y": 3.8473976109,
				"z": -3.398644307,
				"element": "H" 
			},
			{
				"x": 1.0763281043,
				"y": 1.5123464477,
				"z": -3.3687192421,
				"element": "H" 
			},
			{
				"x": -1.5379467717,
				"y": 2.2413317844,
				"z": -1.6418362074,
				"element": "H" 
			},
			{
				"x": -3.3129295087,
				"y": 2.556012211,
				"z": -3.3717962928,
				"element": "H" 
			},
			{
				"x": -4.2069297834,
				"y": 0.5829921591,
				"z": -4.5993507649,
				"element": "H" 
			},
			{
				"x": -3.3319163722,
				"y": -1.6857917785,
				"z": -4.084156365,
				"element": "H" 
			},
			{
				"x": -1.5717173526,
				"y": -1.9891900175,
				"z": -2.3497816223,
				"element": "H" 
			}
		],
		 "valence_orbital": [ 
			{
				"type": "occ",
				"energy": -0.25744,
				"method": "rhf"
			},
			{
				"type": "occ",
				"energy": -0.25678,
				"method": "rhf"
			},
			{
				"type": "occ",
				"energy": -0.25345,
				"method": "rhf"
			},
			{
				"type": "occ",
				"energy": -0.24556,
				"method": "rhf"
			},
			{
				"type": "occ",
				"energy": -0.24059,
				"method": "rhf"
			},
			{
				"type": "unocc",
				"energy": -0.0135,
				"method": "rhf"
			},
			{
				"type": "unocc",
				"energy": -0.00973,
				"method": "rhf"
			},
			{
				"type": "unocc",
				"energy": -0.00887,
				"method": "rhf"
			},
			{
				"type": "unocc",
				"energy": -0.00736,
				"method": "rhf"
			},
			{
				"type": "unocc",
				"energy": -0.00403,
				"method": "rhf"
			}
		],
		"cosmo_sigma_profile": { 
			"-0.025": 0.0,
			"-0.024": 0.0,
			"-0.023": 0.0,
			"-0.022": 0.0,
			"-0.021": 0.0,
			"-0.02": 0.0,
			"-0.019": 0.0,
			"-0.018": 0.0,
			"-0.017": 0.0,
			"-0.016": 0.0,
			"-0.015": 0.0,
			"-0.014": 0.0,
			"-0.013": 0.0,
			"-0.012": 0.0,
			"-0.011": 0.0,
			"-0.01": 0.0,
			"-0.009": 0.0,
			"-0.008": 0.0,
			"-0.007": 5.21302081301,
			"-0.006": 25.602840935,
			"-0.005": 31.8538846826,
			"-0.004": 30.9090640589,
			"-0.003": 23.2281744153,
			"-0.002": 22.4027609371,
			"-0.001": 23.7829932269,
			"0.0": 22.760285006,
			"0.001": 28.5427356815,
			"0.002": 34.5468821395,
			"0.003": 36.82607031,
			"0.004": 36.6292752643,
			"0.005": 16.6677985707,
			"0.006": 3.53617125761,
			"0.007": 2.5435967843,
			"0.008": 2.24926423163,
			"0.009": 1.65590334512,
			"0.01": 2.08675236733,
			"0.011": 1.44075961071,
			"0.012": 2.85497560711,
			"0.013": 2.53584829571,
			"0.014": 0.136972596677,
			"0.015": 0.0,
			"0.016": 0.0,
			"0.017": 0.0,
			"0.018": 0.0,
			"0.019": 0.0,
			"0.02": 0.0,
			"0.021": 0.0,
			"0.022": 0.0,
			"0.023": 0.0,
			"0.024": 0.0,
			"0.025": 0.0
		}
	}
}
