{
	 "smiles": "ClC1=CC=CC=C1NN=C(C#N)C1=NC(=CS1)C1=CC=CC=C1", 
	 "Tm": 433.15, 
	 "num_atms": 34, 
	 "gaussian": { 
		 "optdone": 1, 
		 "sigma_profile": "yes", 
		 "theory": "DFT", 
		 "functional": "B3LYP", 
		 "basiset": "6-31G**", 
		 "properties": { 
			 "R2extent": 12231.0675, 
			 "electric_dipole_moment_norm": 3.24075290326, 
			 "electric_quadrupole_moment_norm": 23.9091935201, 
			 "total_energy": -1731.76861207, 
			 "HOMO_LUMO_gap": 0.12306, 
			 "cosmo_polarized_energy": -13.33, 
			 "cosmo_cavitation_energy": 44.46, 
			 "cosmo_dispersion_energy": -31.66, 
			 "cosmo_repulsion_energy": 2.34, 
			 "cosmo_total_nonelectrostatic_energy": 15.13, 
			 "SMD_solvation_energy": 6.39 
		},
		"coords": [
			{
				"x": 1.7203103499,
				"y": -3.3209012757,
				"z": -3.927079437,
				"element": "Cl" 
			},
			{
				"x": 2.6444040057,
				"y": -2.4935577087,
				"z": -2.6762041991,
				"element": "C" 
			},
			{
				"x": 4.0343790959,
				"y": -2.5696352887,
				"z": -2.6966209049,
				"element": "C" 
			},
			{
				"x": 4.7779228665,
				"y": -1.919814728,
				"z": -1.7128633317,
				"element": "C" 
			},
			{
				"x": 4.1203786401,
				"y": -1.1969763054,
				"z": -0.7137354877,
				"element": "C" 
			},
			{
				"x": 2.7325397519,
				"y": -1.1191150464,
				"z": -0.6905811182,
				"element": "C" 
			},
			{
				"x": 1.9734258029,
				"y": -1.7692465057,
				"z": -1.6759290795,
				"element": "C" 
			},
			{
				"x": 0.5757252301,
				"y": -1.7081135224,
				"z": -1.6775872505,
				"element": "N" 
			},
			{
				"x": -0.0699013601,
				"y": -1.0324022155,
				"z": -0.7475340209,
				"element": "N" 
			},
			{
				"x": -1.3763984132,
				"y": -0.982005276,
				"z": -0.7582570555,
				"element": "C" 
			},
			{
				"x": -2.1373551805,
				"y": -1.6557574208,
				"z": -1.7745227921,
				"element": "C" 
			},
			{
				"x": -2.6622384949,
				"y": -2.2343046913,
				"z": -2.6389635402,
				"element": "N" 
			},
			{
				"x": -2.0776318957,
				"y": -0.2271566076,
				"z": 0.281245408,
				"element": "C" 
			},
			{
				"x": -1.5010310844,
				"y": 0.4236567639,
				"z": 1.2511375985,
				"element": "N" 
			},
			{
				"x": -2.4168872449,
				"y": 1.0390061838,
				"z": 2.0772475048,
				"element": "C" 
			},
			{
				"x": -3.7309421655,
				"y": 0.8418556865,
				"z": 1.7121739526,
				"element": "C" 
			},
			{
				"x": -3.8403080214,
				"y": -0.1392197385,
				"z": 0.2974232254,
				"element": "S" 
			},
			{
				"x": -1.9322718329,
				"y": 1.8225952515,
				"z": 3.2316485363,
				"element": "C" 
			},
			{
				"x": -0.5517117307,
				"y": 1.9335237613,
				"z": 3.4650562898,
				"element": "C" 
			},
			{
				"x": -0.0723337182,
				"y": 2.6681240304,
				"z": 4.5479685736,
				"element": "C" 
			},
			{
				"x": -0.9596207444,
				"y": 3.3049678316,
				"z": 5.4173068242,
				"element": "C" 
			},
			{
				"x": -2.3347457867,
				"y": 3.2005926247,
				"z": 5.1940052301,
				"element": "C" 
			},
			{
				"x": -2.8166946543,
				"y": 2.4671497561,
				"z": 4.1126867299,
				"element": "C" 
			},
			{
				"x": 4.520226168,
				"y": -3.1369624452,
				"z": -3.4826831857,
				"element": "H" 
			},
			{
				"x": 5.8611744868,
				"y": -1.9797407005,
				"z": -1.7297010207,
				"element": "H" 
			},
			{
				"x": 4.6921795756,
				"y": -0.6881546301,
				"z": 0.0560258222,
				"element": "H" 
			},
			{
				"x": 2.2085845888,
				"y": -0.5628950688,
				"z": 0.0772169459,
				"element": "H" 
			},
			{
				"x": 0.0721389115,
				"y": -2.1997552735,
				"z": -2.4165136359,
				"element": "H" 
			},
			{
				"x": -4.62822727,
				"y": 1.2114580517,
				"z": 2.1854337038,
				"element": "H" 
			},
			{
				"x": 0.1311233958,
				"y": 1.4361961733,
				"z": 2.7857508382,
				"element": "H" 
			},
			{
				"x": 0.9988472131,
				"y": 2.7430568792,
				"z": 4.7129006091,
				"element": "H" 
			},
			{
				"x": -0.5850887252,
				"y": 3.8772500957,
				"z": 6.2610267431,
				"element": "H" 
			},
			{
				"x": -3.0346030759,
				"y": 3.6917144644,
				"z": 5.8640367718,
				"element": "H" 
			},
			{
				"x": -3.8892686838,
				"y": 2.3983668946,
				"z": 3.9576847523,
				"element": "H" 
			}
		],
		 "valence_orbital": [ 
			{
				"type": "occ",
				"energy": -0.2792,
				"method": "rhf"
			},
			{
				"type": "occ",
				"energy": -0.26304,
				"method": "rhf"
			},
			{
				"type": "occ",
				"energy": -0.2526,
				"method": "rhf"
			},
			{
				"type": "occ",
				"energy": -0.23665,
				"method": "rhf"
			},
			{
				"type": "occ",
				"energy": -0.21133,
				"method": "rhf"
			},
			{
				"type": "unocc",
				"energy": -0.08827,
				"method": "rhf"
			},
			{
				"type": "unocc",
				"energy": -0.03969,
				"method": "rhf"
			},
			{
				"type": "unocc",
				"energy": -0.02317,
				"method": "rhf"
			},
			{
				"type": "unocc",
				"energy": -0.01038,
				"method": "rhf"
			},
			{
				"type": "unocc",
				"energy": -0.00657,
				"method": "rhf"
			}
		],
		"cosmo_sigma_profile": { 
			"-0.025": 0.0,
			"-0.024": 0.0,
			"-0.023": 0.0,
			"-0.022": 0.0,
			"-0.021": 0.0,
			"-0.02": 0.0,
			"-0.019": 0.0,
			"-0.018": 0.0,
			"-0.017": 0.0,
			"-0.016": 0.0,
			"-0.015": 0.0,
			"-0.014": 0.0,
			"-0.013": 0.0,
			"-0.012": 0.0,
			"-0.011": 0.240113353429,
			"-0.01": 3.03091608571,
			"-0.009": 4.45620685122,
			"-0.008": 5.57862156305,
			"-0.007": 9.23261202553,
			"-0.006": 17.0723403174,
			"-0.005": 21.6270958157,
			"-0.004": 24.8363161648,
			"-0.003": 23.2682660985,
			"-0.002": 21.8809899466,
			"-0.001": 28.4645410947,
			"0.0": 32.2359715419,
			"0.001": 35.0097849226,
			"0.002": 35.1984132895,
			"0.003": 32.0545161986,
			"0.004": 24.8958833186,
			"0.005": 15.8742382864,
			"0.006": 7.98983483233,
			"0.007": 4.58927170599,
			"0.008": 4.05735373467,
			"0.009": 3.74717389316,
			"0.01": 3.75290896361,
			"0.011": 3.77557267746,
			"0.012": 1.75748290745,
			"0.013": 0.264707889137,
			"0.014": 0.0,
			"0.015": 0.0,
			"0.016": 0.0,
			"0.017": 0.0,
			"0.018": 0.0,
			"0.019": 0.0,
			"0.02": 0.0,
			"0.021": 0.0,
			"0.022": 0.0,
			"0.023": 0.0,
			"0.024": 0.0,
			"0.025": 0.0
		}
	}
}
