{
	 "smiles": "CC1=CC(N)=NN1C1=CC(Cl)=CC=C1", 
	 "Tm": 332.15, 
	 "num_atms": 24, 
	 "gaussian": { 
		 "optdone": 1, 
		 "sigma_profile": "yes", 
		 "theory": "DFT", 
		 "functional": "B3LYP", 
		 "basiset": "6-31G**", 
		 "properties": { 
			 "R2extent": 4016.9627, 
			 "electric_dipole_moment_norm": 3.78698482833, 
			 "electric_quadrupole_moment_norm": 10.6765938852, 
			 "total_energy": -1011.52553795, 
			 "HOMO_LUMO_gap": 0.17777, 
			 "cosmo_polarized_energy": -11.94, 
			 "cosmo_cavitation_energy": 29.74, 
			 "cosmo_dispersion_energy": -21.98, 
			 "cosmo_repulsion_energy": 1.74, 
			 "cosmo_total_nonelectrostatic_energy": 9.5, 
			 "SMD_solvation_energy": 4.04 
		},
		"coords": [
			{
				"x": -0.1588758584,
				"y": -2.6637791723,
				"z": -0.1542694369,
				"element": "C" 
			},
			{
				"x": -0.9415039003,
				"y": -1.4644514533,
				"z": 0.2827005571,
				"element": "C" 
			},
			{
				"x": -2.1674616208,
				"y": -1.4262721251,
				"z": 0.913777122,
				"element": "C" 
			},
			{
				"x": -2.4886508673,
				"y": -0.0475726821,
				"z": 1.0304548759,
				"element": "C" 
			},
			{
				"x": -3.6581840605,
				"y": 0.5058446982,
				"z": 1.5433755663,
				"element": "N" 
			},
			{
				"x": -1.538018504,
				"y": 0.7229631242,
				"z": 0.5189393254,
				"element": "N" 
			},
			{
				"x": -0.5804080051,
				"y": -0.1540180014,
				"z": 0.0616049792,
				"element": "N" 
			},
			{
				"x": 0.5367024874,
				"y": 0.3778562152,
				"z": -0.6218998464,
				"element": "C" 
			},
			{
				"x": 0.3625448978,
				"y": 1.5533183343,
				"z": -1.3676261332,
				"element": "C" 
			},
			{
				"x": 1.4536325611,
				"y": 2.0930350435,
				"z": -2.0379874877,
				"element": "C" 
			},
			{
				"x": 1.2320226164,
				"y": 3.5664002757,
				"z": -2.9738306355,
				"element": "Cl" 
			},
			{
				"x": 2.7147160069,
				"y": 1.4961496143,
				"z": -1.9990668938,
				"element": "C" 
			},
			{
				"x": 2.8716261712,
				"y": 0.3340923057,
				"z": -1.2452982321,
				"element": "C" 
			},
			{
				"x": 1.8002444051,
				"y": -0.2227459548,
				"z": -0.5471742065,
				"element": "C" 
			},
			{
				"x": 0.273909003,
				"y": -2.5281919462,
				"z": -1.1497319711,
				"element": "H" 
			},
			{
				"x": -0.8238373643,
				"y": -3.5300401088,
				"z": -0.1875454032,
				"element": "H" 
			},
			{
				"x": 0.6600354267,
				"y": -2.9062265971,
				"z": 0.5332820692,
				"element": "H" 
			},
			{
				"x": -2.7611072335,
				"y": -2.2759063281,
				"z": 1.218369311,
				"element": "H" 
			},
			{
				"x": -3.5696379092,
				"y": 1.5020349188,
				"z": 1.7034463012,
				"element": "H" 
			},
			{
				"x": -4.0114144168,
				"y": 0.0305177373,
				"z": 2.3635060909,
				"element": "H" 
			},
			{
				"x": -0.6112442345,
				"y": 2.0230160775,
				"z": -1.4009141623,
				"element": "H" 
			},
			{
				"x": 3.5470672515,
				"y": 1.9370545235,
				"z": -2.5350798006,
				"element": "H" 
			},
			{
				"x": 3.848928516,
				"y": -0.1352000995,
				"z": -1.1841587104,
				"element": "H" 
			},
			{
				"x": 1.9563146317,
				"y": -1.0963783995,
				"z": 0.0722267213,
				"element": "H" 
			}
		],
		 "valence_orbital": [ 
			{
				"type": "occ",
				"energy": -0.28463,
				"method": "rhf"
			},
			{
				"type": "occ",
				"energy": -0.26615,
				"method": "rhf"
			},
			{
				"type": "occ",
				"energy": -0.24833,
				"method": "rhf"
			},
			{
				"type": "occ",
				"energy": -0.23418,
				"method": "rhf"
			},
			{
				"type": "occ",
				"energy": -0.20016,
				"method": "rhf"
			},
			{
				"type": "unocc",
				"energy": -0.02239,
				"method": "rhf"
			},
			{
				"type": "unocc",
				"energy": -0.01328,
				"method": "rhf"
			},
			{
				"type": "unocc",
				"energy": 0.02842,
				"method": "rhf"
			},
			{
				"type": "unocc",
				"energy": 0.04017,
				"method": "rhf"
			},
			{
				"type": "unocc",
				"energy": 0.07541,
				"method": "rhf"
			}
		],
		"cosmo_sigma_profile": { 
			"-0.025": 0.0,
			"-0.024": 0.0,
			"-0.023": 0.0,
			"-0.022": 0.0,
			"-0.021": 0.0,
			"-0.02": 0.0,
			"-0.019": 0.0,
			"-0.018": 0.0,
			"-0.017": 0.0,
			"-0.016": 0.0,
			"-0.015": 0.0,
			"-0.014": 0.0,
			"-0.013": 0.356167186684,
			"-0.012": 2.23250632212,
			"-0.011": 1.90384902213,
			"-0.01": 3.07726246212,
			"-0.009": 2.47305773598,
			"-0.008": 2.50165130288,
			"-0.007": 8.19040734427,
			"-0.006": 12.4580893697,
			"-0.005": 15.7181359435,
			"-0.004": 14.0982076126,
			"-0.003": 15.6823327834,
			"-0.002": 15.5739418517,
			"-0.001": 15.7832519374,
			"0.0": 14.1437904335,
			"0.001": 16.2929471212,
			"0.002": 19.9371036546,
			"0.003": 23.5718221452,
			"0.004": 19.0411722067,
			"0.005": 13.0905062247,
			"0.006": 5.41229703623,
			"0.007": 3.2563174804,
			"0.008": 2.90735484043,
			"0.009": 2.93586086985,
			"0.01": 2.4579372608,
			"0.011": 0.935272215944,
			"0.012": 1.54211139297,
			"0.013": 1.74641206654,
			"0.014": 1.39161316261,
			"0.015": 0.846883647522,
			"0.016": 0.0636261563058,
			"0.017": 0.0,
			"0.018": 0.0,
			"0.019": 0.0,
			"0.02": 0.0,
			"0.021": 0.0,
			"0.022": 0.0,
			"0.023": 0.0,
			"0.024": 0.0,
			"0.025": 0.0
		}
	}
}
