{
	 "smiles": "CC1(C)C2CCC1(C)C(O)C2=C/CC(O)=O", 
	 "Tm": 324.65, 
	 "num_atms": 36, 
	 "gaussian": { 
		 "optdone": 1, 
		 "sigma_profile": "yes", 
		 "theory": "DFT", 
		 "functional": "B3LYP", 
		 "basiset": "6-31G**", 
		 "properties": { 
			 "R2extent": 4781.6675, 
			 "electric_dipole_moment_norm": 1.28247568398, 
			 "electric_quadrupole_moment_norm": 8.85928008644, 
			 "total_energy": -733.106534158, 
			 "HOMO_LUMO_gap": 0.24447, 
			 "cosmo_polarized_energy": -12.54, 
			 "cosmo_cavitation_energy": 35.36, 
			 "cosmo_dispersion_energy": -24.46, 
			 "cosmo_repulsion_energy": 1.9, 
			 "cosmo_total_nonelectrostatic_energy": 12.8, 
			 "SMD_solvation_energy": 6.93 
		},
		"coords": [
			{
				"x": -2.083052356,
				"y": -3.080232785,
				"z": -0.6015644413,
				"element": "C" 
			},
			{
				"x": -1.1690387568,
				"y": -1.913631849,
				"z": -1.0165153495,
				"element": "C" 
			},
			{
				"x": -1.9823136645,
				"y": -1.0213467487,
				"z": -1.9740047143,
				"element": "C" 
			},
			{
				"x": -0.5530949956,
				"y": -1.1208610381,
				"z": 0.1836016509,
				"element": "C" 
			},
			{
				"x": 0.3112724466,
				"y": -2.2009848053,
				"z": 0.892534945,
				"element": "C" 
			},
			{
				"x": 0.8694590469,
				"y": -3.0322209332,
				"z": -0.3032413791,
				"element": "C" 
			},
			{
				"x": 0.2416883588,
				"y": -2.3644300255,
				"z": -1.5579700917,
				"element": "C" 
			},
			{
				"x": 0.2954104447,
				"y": -3.2215971816,
				"z": -2.8142083081,
				"element": "C" 
			},
			{
				"x": 0.9484657275,
				"y": -0.9812658194,
				"z": -1.725457515,
				"element": "C" 
			},
			{
				"x": 2.3680392967,
				"y": -1.0289669271,
				"z": -1.8538408929,
				"element": "O" 
			},
			{
				"x": 0.4201780885,
				"y": -0.1947166267,
				"z": -0.5211804243,
				"element": "C" 
			},
			{
				"x": 0.7583052408,
				"y": 1.0438185286,
				"z": -0.151186871,
				"element": "C" 
			},
			{
				"x": 1.7518643933,
				"y": 1.923236069,
				"z": -0.8593675883,
				"element": "C" 
			},
			{
				"x": 1.2106975133,
				"y": 3.312942779,
				"z": -1.1354925127,
				"element": "C" 
			},
			{
				"x": 2.0655599064,
				"y": 4.0259566808,
				"z": -1.910560416,
				"element": "O" 
			},
			{
				"x": 0.1703455409,
				"y": 3.7743170851,
				"z": -0.7213275926,
				"element": "O" 
			},
			{
				"x": -2.9637234451,
				"y": -2.6994322834,
				"z": -0.0718883201,
				"element": "H" 
			},
			{
				"x": -1.6002114204,
				"y": -3.8130359052,
				"z": 0.0476796126,
				"element": "H" 
			},
			{
				"x": -2.4443098528,
				"y": -3.6148664686,
				"z": -1.4870348967,
				"element": "H" 
			},
			{
				"x": -1.4810575684,
				"y": -0.0863867042,
				"z": -2.2322446502,
				"element": "H" 
			},
			{
				"x": -2.9373131958,
				"y": -0.7523890324,
				"z": -1.5090981115,
				"element": "H" 
			},
			{
				"x": -2.2136939266,
				"y": -1.552654962,
				"z": -2.903920835,
				"element": "H" 
			},
			{
				"x": -1.2638944751,
				"y": -0.6120219009,
				"z": 0.8410908482,
				"element": "H" 
			},
			{
				"x": -0.2978494037,
				"y": -2.8156547135,
				"z": 1.5623113671,
				"element": "H" 
			},
			{
				"x": 1.0975520051,
				"y": -1.7456307997,
				"z": 1.5017621709,
				"element": "H" 
			},
			{
				"x": 1.962685402,
				"y": -3.0261589403,
				"z": -0.3600840384,
				"element": "H" 
			},
			{
				"x": 0.5781819771,
				"y": -4.0845324586,
				"z": -0.2376579667,
				"element": "H" 
			},
			{
				"x": -0.207344552,
				"y": -2.7340961233,
				"z": -3.6571902459,
				"element": "H" 
			},
			{
				"x": 1.3361459741,
				"y": -3.3938062688,
				"z": -3.1086549057,
				"element": "H" 
			},
			{
				"x": -0.1764028307,
				"y": -4.1977065514,
				"z": -2.6582376703,
				"element": "H" 
			},
			{
				"x": 0.6183827473,
				"y": -0.5245388978,
				"z": -2.6655290873,
				"element": "H" 
			},
			{
				"x": 2.7396693657,
				"y": -1.1546222261,
				"z": -0.9710585468,
				"element": "H" 
			},
			{
				"x": 0.2826884021,
				"y": 1.4825589073,
				"z": 0.7241101474,
				"element": "H" 
			},
			{
				"x": 2.6554484947,
				"y": 2.0681081882,
				"z": -0.2467358964,
				"element": "H" 
			},
			{
				"x": 2.1085093588,
				"y": 1.4782252093,
				"z": -1.7921077871,
				"element": "H" 
			},
			{
				"x": 1.657550712,
				"y": 4.9009255287,
				"z": -2.0234296873,
				"element": "H" 
			}
		],
		 "valence_orbital": [ 
			{
				"type": "occ",
				"energy": -0.3003,
				"method": "rhf"
			},
			{
				"type": "occ",
				"energy": -0.28895,
				"method": "rhf"
			},
			{
				"type": "occ",
				"energy": -0.27405,
				"method": "rhf"
			},
			{
				"type": "occ",
				"energy": -0.26325,
				"method": "rhf"
			},
			{
				"type": "occ",
				"energy": -0.23614,
				"method": "rhf"
			},
			{
				"type": "unocc",
				"energy": 0.00833,
				"method": "rhf"
			},
			{
				"type": "unocc",
				"energy": 0.01427,
				"method": "rhf"
			},
			{
				"type": "unocc",
				"energy": 0.06843,
				"method": "rhf"
			},
			{
				"type": "unocc",
				"energy": 0.08222,
				"method": "rhf"
			},
			{
				"type": "unocc",
				"energy": 0.08416,
				"method": "rhf"
			}
		],
		"cosmo_sigma_profile": { 
			"-0.025": 0.0,
			"-0.024": 0.0,
			"-0.023": 0.0,
			"-0.022": 0.0,
			"-0.021": 0.0,
			"-0.02": 0.0,
			"-0.019": 0.0,
			"-0.018": 0.463102223264,
			"-0.017": 0.993118516982,
			"-0.016": 1.08093115728,
			"-0.015": 0.643310805649,
			"-0.014": 1.2373318536,
			"-0.013": 0.939647316259,
			"-0.012": 1.11125498038,
			"-0.011": 2.00920868716,
			"-0.01": 2.08002492401,
			"-0.009": 1.46551545512,
			"-0.008": 1.41011032757,
			"-0.007": 3.60109871573,
			"-0.006": 4.32373581724,
			"-0.005": 4.42448400381,
			"-0.004": 10.1362065352,
			"-0.003": 26.6317814758,
			"-0.002": 40.2877647679,
			"-0.001": 34.0266503244,
			"0.0": 32.0293617785,
			"0.001": 33.7304013081,
			"0.002": 19.2916422627,
			"0.003": 6.87471604395,
			"0.004": 4.98222583038,
			"0.005": 4.50375569646,
			"0.006": 4.88137754701,
			"0.007": 3.5551742957,
			"0.008": 3.60258607911,
			"0.009": 4.60167326074,
			"0.01": 4.99047464024,
			"0.011": 4.33929711696,
			"0.012": 5.87711545519,
			"0.013": 1.94489086765,
			"0.014": 1.19311157992,
			"0.015": 0.0594683939078,
			"0.016": 0.0,
			"0.017": 0.0,
			"0.018": 0.0,
			"0.019": 0.0,
			"0.02": 0.0,
			"0.021": 0.0,
			"0.022": 0.0,
			"0.023": 0.0,
			"0.024": 0.0,
			"0.025": 0.0
		}
	}
}
