{
	 "smiles": "CC1(C)C2CCC1(C)C(=O)C=C2O", 
	 "Tm": 494.15, 
	 "num_atms": 29, 
	 "gaussian": { 
		 "optdone": 1, 
		 "sigma_profile": "yes", 
		 "theory": "DFT", 
		 "functional": "B3LYP", 
		 "basiset": "6-31G**", 
		 "properties": { 
			 "R2extent": 3465.4531, 
			 "electric_dipole_moment_norm": 3.2708604984, 
			 "electric_quadrupole_moment_norm": 17.5383764776, 
			 "total_energy": -579.259983948, 
			 "HOMO_LUMO_gap": 0.19829, 
			 "cosmo_polarized_energy": -12.86, 
			 "cosmo_cavitation_energy": 28.13, 
			 "cosmo_dispersion_energy": -20.34, 
			 "cosmo_repulsion_energy": 1.57, 
			 "cosmo_total_nonelectrostatic_energy": 9.36, 
			 "SMD_solvation_energy": 5.52 
		},
		"coords": [
			{
				"x": 1.0797936558,
				"y": 1.6189562332,
				"z": 0.795601524,
				"element": "C" 
			},
			{
				"x": 0.5117190116,
				"y": 0.9460760516,
				"z": -0.4673189332,
				"element": "C" 
			},
			{
				"x": -0.9203505757,
				"y": 0.4817365525,
				"z": -0.1249002552,
				"element": "C" 
			},
			{
				"x": 0.4843846566,
				"y": 1.86605413,
				"z": -1.7256979374,
				"element": "C" 
			},
			{
				"x": 0.1138186961,
				"y": 0.8844626511,
				"z": -2.8781943001,
				"element": "C" 
			},
			{
				"x": 0.7651910599,
				"y": -0.460651166,
				"z": -2.457523403,
				"element": "C" 
			},
			{
				"x": 1.3934069798,
				"y": -0.2243580525,
				"z": -1.0378729419,
				"element": "C" 
			},
			{
				"x": 1.4391138133,
				"y": -1.4961074466,
				"z": -0.1923412877,
				"element": "C" 
			},
			{
				"x": 2.8362553484,
				"y": 0.2914899749,
				"z": -1.2791953181,
				"element": "C" 
			},
			{
				"x": 3.8156924831,
				"y": -0.4135690986,
				"z": -1.0622291366,
				"element": "O" 
			},
			{
				"x": 2.9642760068,
				"y": 1.6432003298,
				"z": -1.8306072138,
				"element": "C" 
			},
			{
				"x": 1.8604427722,
				"y": 2.4038537209,
				"z": -2.0091840829,
				"element": "C" 
			},
			{
				"x": 1.8584497062,
				"y": 3.6634494068,
				"z": -2.5013241978,
				"element": "O" 
			},
			{
				"x": 1.1151181625,
				"y": 0.9037585756,
				"z": 1.623843262,
				"element": "H" 
			},
			{
				"x": 0.4325034663,
				"y": 2.4461048686,
				"z": 1.1088334027,
				"element": "H" 
			},
			{
				"x": 2.0863426559,
				"y": 2.0159850547,
				"z": 0.6551666059,
				"element": "H" 
			},
			{
				"x": -1.3948984848,
				"y": -0.0951317443,
				"z": -0.9220655237,
				"element": "H" 
			},
			{
				"x": -1.5556421047,
				"y": 1.351167,
				"z": 0.0799780943,
				"element": "H" 
			},
			{
				"x": -0.919567493,
				"y": -0.1400390279,
				"z": 0.7750253962,
				"element": "H" 
			},
			{
				"x": -0.2164979307,
				"y": 2.7017285073,
				"z": -1.6367714521,
				"element": "H" 
			},
			{
				"x": 0.4723602015,
				"y": 1.2477169388,
				"z": -3.8448820501,
				"element": "H" 
			},
			{
				"x": -0.9733843321,
				"y": 0.7941482279,
				"z": -2.9563801483,
				"element": "H" 
			},
			{
				"x": 0.0156836904,
				"y": -1.2559129971,
				"z": -2.3960449955,
				"element": "H" 
			},
			{
				"x": 1.5211752466,
				"y": -0.8013356265,
				"z": -3.1708074803,
				"element": "H" 
			},
			{
				"x": 1.8328520146,
				"y": -1.2972947016,
				"z": 0.8091617226,
				"element": "H" 
			},
			{
				"x": 0.4446177449,
				"y": -1.9405444625,
				"z": -0.0934512002,
				"element": "H" 
			},
			{
				"x": 2.1056846338,
				"y": -2.2283249152,
				"z": -0.6532882709,
				"element": "H" 
			},
			{
				"x": 3.9670602952,
				"y": 2.0001831972,
				"z": -2.0529446122,
				"element": "H" 
			},
			{
				"x": 2.7674986197,
				"y": 3.9265978182,
				"z": -2.7095852669,
				"element": "H" 
			}
		],
		 "valence_orbital": [ 
			{
				"type": "occ",
				"energy": -0.32347,
				"method": "rhf"
			},
			{
				"type": "occ",
				"energy": -0.31821,
				"method": "rhf"
			},
			{
				"type": "occ",
				"energy": -0.30004,
				"method": "rhf"
			},
			{
				"type": "occ",
				"energy": -0.23737,
				"method": "rhf"
			},
			{
				"type": "occ",
				"energy": -0.22501,
				"method": "rhf"
			},
			{
				"type": "unocc",
				"energy": -0.02672,
				"method": "rhf"
			},
			{
				"type": "unocc",
				"energy": 0.05763,
				"method": "rhf"
			},
			{
				"type": "unocc",
				"energy": 0.06888,
				"method": "rhf"
			},
			{
				"type": "unocc",
				"energy": 0.07268,
				"method": "rhf"
			},
			{
				"type": "unocc",
				"energy": 0.10698,
				"method": "rhf"
			}
		],
		"cosmo_sigma_profile": { 
			"-0.025": 0.0,
			"-0.024": 0.0,
			"-0.023": 0.0,
			"-0.022": 0.0,
			"-0.021": 0.0,
			"-0.02": 0.0,
			"-0.019": 0.182065602768,
			"-0.018": 1.09066469029,
			"-0.017": 0.982658925153,
			"-0.016": 1.02458793098,
			"-0.015": 1.46141480164,
			"-0.014": 0.676946538889,
			"-0.013": 0.567370803929,
			"-0.012": 0.599720339364,
			"-0.011": 1.24736012486,
			"-0.01": 1.329040478,
			"-0.009": 0.566201101056,
			"-0.008": 0.981794599516,
			"-0.007": 1.22330868946,
			"-0.006": 1.93794968344,
			"-0.005": 2.39051425992,
			"-0.004": 10.2204504514,
			"-0.003": 25.7461376365,
			"-0.002": 32.7417961429,
			"-0.001": 27.7261349004,
			"0.0": 30.7598424017,
			"0.001": 22.7510623819,
			"0.002": 12.1242272238,
			"0.003": 4.55488795038,
			"0.004": 3.17554911709,
			"0.005": 3.63516856065,
			"0.006": 2.29911291355,
			"0.007": 3.31034731759,
			"0.008": 2.78507540064,
			"0.009": 3.01815604675,
			"0.01": 3.11055205166,
			"0.011": 1.41842018958,
			"0.012": 2.33343611567,
			"0.013": 3.89290502239,
			"0.014": 4.51220910679,
			"0.015": 1.12531290068,
			"0.016": 0.0235698086877,
			"0.017": 0.0,
			"0.018": 0.0,
			"0.019": 0.0,
			"0.02": 0.0,
			"0.021": 0.0,
			"0.022": 0.0,
			"0.023": 0.0,
			"0.024": 0.0,
			"0.025": 0.0
		}
	}
}
