{
	 "smiles": "OC1=NN(CC2=CC=CC=C2)C2=C1C=CC=C2", 
	 "Tm": 438.15, 
	 "num_atms": 29, 
	 "gaussian": { 
		 "optdone": 1, 
		 "sigma_profile": "yes", 
		 "theory": "DFT", 
		 "functional": "B3LYP", 
		 "basiset": "6-31G**", 
		 "properties": { 
			 "R2extent": 4693.0261, 
			 "electric_dipole_moment_norm": 1.53346938346, 
			 "electric_quadrupole_moment_norm": 5.89026307562, 
			 "total_energy": -725.435450051, 
			 "HOMO_LUMO_gap": 0.17635, 
			 "cosmo_polarized_energy": -10.9, 
			 "cosmo_cavitation_energy": 33.48, 
			 "cosmo_dispersion_energy": -23.64, 
			 "cosmo_repulsion_energy": 1.83, 
			 "cosmo_total_nonelectrostatic_energy": 11.67, 
			 "SMD_solvation_energy": 4.84 
		},
		"coords": [
			{
				"x": 0.9779934828,
				"y": -2.7504413573,
				"z": 2.1066233345,
				"element": "O" 
			},
			{
				"x": 0.662342526,
				"y": -1.636122211,
				"z": 1.409217795,
				"element": "C" 
			},
			{
				"x": 0.0078853889,
				"y": -1.6762652495,
				"z": 0.2684680107,
				"element": "N" 
			},
			{
				"x": -0.1069858008,
				"y": -0.3659299675,
				"z": -0.1465163103,
				"element": "N" 
			},
			{
				"x": -0.8678419304,
				"y": -0.0541990574,
				"z": -1.3415382004,
				"element": "C" 
			},
			{
				"x": -2.3014734962,
				"y": 0.3844042374,
				"z": -1.0841803763,
				"element": "C" 
			},
			{
				"x": -3.1197405844,
				"y": -0.3329680228,
				"z": -0.2015109358,
				"element": "C" 
			},
			{
				"x": -4.4415494529,
				"y": 0.0571317253,
				"z": 0.0085516472,
				"element": "C" 
			},
			{
				"x": -4.9641827036,
				"y": 1.1658110412,
				"z": -0.6632401258,
				"element": "C" 
			},
			{
				"x": -4.155800188,
				"y": 1.8837707542,
				"z": -1.5444305504,
				"element": "C" 
			},
			{
				"x": -2.8298715567,
				"y": 1.4949261867,
				"z": -1.749858423,
				"element": "C" 
			},
			{
				"x": 0.4559401611,
				"y": 0.492633878,
				"z": 0.7582447433,
				"element": "C" 
			},
			{
				"x": 0.9938969083,
				"y": -0.3036038326,
				"z": 1.8014220044,
				"element": "C" 
			},
			{
				"x": 1.6669375919,
				"y": 0.2932405028,
				"z": 2.879955364,
				"element": "C" 
			},
			{
				"x": 1.7808550442,
				"y": 1.6742874057,
				"z": 2.8948792404,
				"element": "C" 
			},
			{
				"x": 1.2320361544,
				"y": 2.460593073,
				"z": 1.8533271758,
				"element": "C" 
			},
			{
				"x": 0.5651439839,
				"y": 1.8946759459,
				"z": 0.7774170853,
				"element": "C" 
			},
			{
				"x": 0.6436346078,
				"y": -3.5072438607,
				"z": 1.6026971189,
				"element": "H" 
			},
			{
				"x": -0.3352282266,
				"y": 0.7233461798,
				"z": -1.9007246023,
				"element": "H" 
			},
			{
				"x": -0.8464191987,
				"y": -0.9631942688,
				"z": -1.9503249685,
				"element": "H" 
			},
			{
				"x": -2.7113782994,
				"y": -1.1936639798,
				"z": 0.3203113524,
				"element": "H" 
			},
			{
				"x": -5.0662318078,
				"y": -0.5049521679,
				"z": 0.6971203697,
				"element": "H" 
			},
			{
				"x": -5.9942107075,
				"y": 1.468348,
				"z": -0.4977162256,
				"element": "H" 
			},
			{
				"x": -4.5521332364,
				"y": 2.7499129434,
				"z": -2.0668672648,
				"element": "H" 
			},
			{
				"x": -2.2015275913,
				"y": 2.0606198901,
				"z": -2.4345234511,
				"element": "H" 
			},
			{
				"x": 2.0820320976,
				"y": -0.3159813977,
				"z": 3.676603278,
				"element": "H" 
			},
			{
				"x": 2.2936632228,
				"y": 2.1663336922,
				"z": 3.7155097493,
				"element": "H" 
			},
			{
				"x": 1.3331282874,
				"y": 3.5411846564,
				"z": 1.9014096893,
				"element": "H" 
			},
			{
				"x": 0.1366853233,
				"y": 2.5098452608,
				"z": -0.0067265237,
				"element": "H" 
			}
		],
		 "valence_orbital": [ 
			{
				"type": "occ",
				"energy": -0.26712,
				"method": "rhf"
			},
			{
				"type": "occ",
				"energy": -0.25162,
				"method": "rhf"
			},
			{
				"type": "occ",
				"energy": -0.24714,
				"method": "rhf"
			},
			{
				"type": "occ",
				"energy": -0.23736,
				"method": "rhf"
			},
			{
				"type": "occ",
				"energy": -0.19864,
				"method": "rhf"
			},
			{
				"type": "unocc",
				"energy": -0.02229,
				"method": "rhf"
			},
			{
				"type": "unocc",
				"energy": -0.00646,
				"method": "rhf"
			},
			{
				"type": "unocc",
				"energy": -0.00258,
				"method": "rhf"
			},
			{
				"type": "unocc",
				"energy": 0.02068,
				"method": "rhf"
			},
			{
				"type": "unocc",
				"energy": 0.07554,
				"method": "rhf"
			}
		],
		"cosmo_sigma_profile": { 
			"-0.025": 0.0,
			"-0.024": 0.0,
			"-0.023": 0.0,
			"-0.022": 0.0,
			"-0.021": 0.0,
			"-0.02": 0.0,
			"-0.019": 0.0,
			"-0.018": 0.273112326221,
			"-0.017": 0.870728055119,
			"-0.016": 0.950816674967,
			"-0.015": 0.449211093107,
			"-0.014": 0.960780860699,
			"-0.013": 0.957772170562,
			"-0.012": 0.439705643325,
			"-0.011": 0.317976137174,
			"-0.01": 0.932783516502,
			"-0.009": 0.761409448795,
			"-0.008": 0.651297572822,
			"-0.007": 3.10279714482,
			"-0.006": 16.0109239664,
			"-0.005": 21.8504309281,
			"-0.004": 22.7712969859,
			"-0.003": 21.8004520342,
			"-0.002": 14.535242796,
			"-0.001": 14.362916763,
			"0.0": 13.5354118852,
			"0.001": 17.8921692603,
			"0.002": 25.0917008125,
			"0.003": 22.8618588022,
			"0.004": 21.0151098143,
			"0.005": 19.4882055846,
			"0.006": 12.6056353609,
			"0.007": 2.07334343357,
			"0.008": 2.56329095522,
			"0.009": 2.887733067,
			"0.01": 2.83175337787,
			"0.011": 1.49059991952,
			"0.012": 0.688005559967,
			"0.013": 0.501535002476,
			"0.014": 0.510287000882,
			"0.015": 0.0206711128687,
			"0.016": 0.0,
			"0.017": 0.0,
			"0.018": 0.0,
			"0.019": 0.0,
			"0.02": 0.0,
			"0.021": 0.0,
			"0.022": 0.0,
			"0.023": 0.0,
			"0.024": 0.0,
			"0.025": 0.0
		}
	}
}
