{
	 "smiles": "NNC(=O)NC1=C(Cl)C=C(Br)C=C1", 
	 "Tm": 437.15, 
	 "num_atms": 20, 
	 "gaussian": { 
		 "optdone": 1, 
		 "sigma_profile": "yes", 
		 "theory": "DFT", 
		 "functional": "B3LYP", 
		 "basiset": "6-31G**", 
		 "properties": { 
			 "R2extent": 4565.4388, 
			 "electric_dipole_moment_norm": 3.63235807844, 
			 "electric_quadrupole_moment_norm": 14.7866518174, 
			 "total_energy": -3542.01385941, 
			 "HOMO_LUMO_gap": 0.20547, 
			 "cosmo_polarized_energy": -15.89, 
			 "cosmo_cavitation_energy": 28.72, 
			 "cosmo_dispersion_energy": -20.85, 
			 "cosmo_repulsion_energy": 1.67, 
			 "cosmo_total_nonelectrostatic_energy": 9.55, 
			 "SMD_solvation_energy": 4.55 
		},
		"coords": [
			{
				"x": -0.6261427274,
				"y": 1.5380353682,
				"z": 2.4473057969,
				"element": "N" 
			},
			{
				"x": -1.9717729393,
				"y": 1.4431826294,
				"z": 2.0398506375,
				"element": "N" 
			},
			{
				"x": -2.4571554137,
				"y": 1.7541532545,
				"z": 0.7819788803,
				"element": "C" 
			},
			{
				"x": -3.5965923368,
				"y": 2.1598858362,
				"z": 0.6121462716,
				"element": "O" 
			},
			{
				"x": -1.5672065258,
				"y": 1.6172658655,
				"z": -0.2936453833,
				"element": "N" 
			},
			{
				"x": -0.5408394775,
				"y": 0.6382784001,
				"z": -0.4361552826,
				"element": "C" 
			},
			{
				"x": -0.7747423815,
				"y": -0.7487019878,
				"z": -0.3642031841,
				"element": "C" 
			},
			{
				"x": -2.3847092412,
				"y": -1.3674937419,
				"z": -0.0852008113,
				"element": "Cl" 
			},
			{
				"x": 0.2631552824,
				"y": -1.6674162238,
				"z": -0.5380243663,
				"element": "C" 
			},
			{
				"x": 1.5444201924,
				"y": -1.2001425262,
				"z": -0.8181409545,
				"element": "C" 
			},
			{
				"x": 2.9584894577,
				"y": -2.4549410104,
				"z": -1.0629735077,
				"element": "Br" 
			},
			{
				"x": 1.8056728558,
				"y": 0.1650736543,
				"z": -0.9274995116,
				"element": "C" 
			},
			{
				"x": 0.7616390555,
				"y": 1.0646084346,
				"z": -0.731013968,
				"element": "C" 
			},
			{
				"x": -0.172179203,
				"y": 2.3312135933,
				"z": 1.9994308781,
				"element": "H" 
			},
			{
				"x": -0.1278509933,
				"y": 0.6939972997,
				"z": 2.1828633125,
				"element": "H" 
			},
			{
				"x": -2.6321231025,
				"y": 1.6947027133,
				"z": 2.7638293072,
				"element": "H" 
			},
			{
				"x": -2.0483245961,
				"y": 1.8667143977,
				"z": -1.1505341389,
				"element": "H" 
			},
			{
				"x": 0.0618973889,
				"y": -2.7291644254,
				"z": -0.4707175538,
				"element": "H" 
			},
			{
				"x": 2.8050244251,
				"y": 0.5169050071,
				"z": -1.154419551,
				"element": "H" 
			},
			{
				"x": 0.9414402805,
				"y": 2.1329434616,
				"z": -0.800076871,
				"element": "H" 
			}
		],
		 "valence_orbital": [ 
			{
				"type": "occ",
				"energy": -0.28649,
				"method": "rhf"
			},
			{
				"type": "occ",
				"energy": -0.27548,
				"method": "rhf"
			},
			{
				"type": "occ",
				"energy": -0.26193,
				"method": "rhf"
			},
			{
				"type": "occ",
				"energy": -0.25384,
				"method": "rhf"
			},
			{
				"type": "occ",
				"energy": -0.24953,
				"method": "rhf"
			},
			{
				"type": "unocc",
				"energy": -0.04406,
				"method": "rhf"
			},
			{
				"type": "unocc",
				"energy": -0.04124,
				"method": "rhf"
			},
			{
				"type": "unocc",
				"energy": -0.01898,
				"method": "rhf"
			},
			{
				"type": "unocc",
				"energy": 0.02866,
				"method": "rhf"
			},
			{
				"type": "unocc",
				"energy": 0.04187,
				"method": "rhf"
			}
		],
		"cosmo_sigma_profile": { 
			"-0.025": 0.0,
			"-0.024": 0.0,
			"-0.023": 0.0,
			"-0.022": 0.0,
			"-0.021": 0.0,
			"-0.02": 0.0,
			"-0.019": 0.0,
			"-0.018": 0.0,
			"-0.017": 0.0,
			"-0.016": 0.0,
			"-0.015": 0.102474692776,
			"-0.014": 0.814424369427,
			"-0.013": 1.74405438289,
			"-0.012": 2.35365253894,
			"-0.011": 2.31200778509,
			"-0.01": 3.22452922531,
			"-0.009": 3.88717670831,
			"-0.008": 7.71349530928,
			"-0.007": 11.1477405718,
			"-0.006": 10.5323578996,
			"-0.005": 9.70161105963,
			"-0.004": 11.5258629237,
			"-0.003": 12.1554910887,
			"-0.002": 12.5774360521,
			"-0.001": 15.811299932,
			"0.0": 18.5467123786,
			"0.001": 21.675947151,
			"0.002": 16.6679341281,
			"0.003": 17.4550291703,
			"0.004": 19.607480216,
			"0.005": 5.72878201738,
			"0.006": 3.37479388483,
			"0.007": 3.05886529225,
			"0.008": 2.15773209405,
			"0.009": 1.84263775048,
			"0.01": 1.29991640384,
			"0.011": 2.05177522231,
			"0.012": 2.57991680376,
			"0.013": 5.03175399199,
			"0.014": 6.00615506205,
			"0.015": 0.948369530526,
			"0.016": 0.40636385062,
			"0.017": 0.0341860024746,
			"0.018": 0.0,
			"0.019": 0.0,
			"0.02": 0.0,
			"0.021": 0.0,
			"0.022": 0.0,
			"0.023": 0.0,
			"0.024": 0.0,
			"0.025": 0.0
		}
	}
}
