{
	 "smiles": "COC1=CC2=C(NC(C)=N2)C=C1", 
	 "Tm": 393.15, 
	 "num_atms": 22, 
	 "gaussian": { 
		 "optdone": 1, 
		 "sigma_profile": "yes", 
		 "theory": "DFT", 
		 "functional": "B3LYP", 
		 "basiset": "6-31G**", 
		 "properties": { 
			 "R2extent": 3495.9384, 
			 "electric_dipole_moment_norm": 2.56883466381, 
			 "electric_quadrupole_moment_norm": 20.4852345173, 
			 "total_energy": -533.717085878, 
			 "HOMO_LUMO_gap": 0.18973, 
			 "cosmo_polarized_energy": -14.22, 
			 "cosmo_cavitation_energy": 25.68, 
			 "cosmo_dispersion_energy": -19.39, 
			 "cosmo_repulsion_energy": 1.54, 
			 "cosmo_total_nonelectrostatic_energy": 7.82, 
			 "SMD_solvation_energy": 3.05 
		},
		"coords": [
			{
				"x": -1.623732239,
				"y": 0.746470202,
				"z": 2.8085028708,
				"element": "C" 
			},
			{
				"x": -2.3513184374,
				"y": -0.3361632958,
				"z": 2.2571649084,
				"element": "O" 
			},
			{
				"x": -1.7389844942,
				"y": -1.0939045356,
				"z": 1.2924155927,
				"element": "C" 
			},
			{
				"x": -0.4476937967,
				"y": -0.8690707508,
				"z": 0.8179186415,
				"element": "C" 
			},
			{
				"x": 0.0408369999,
				"y": -1.7337295357,
				"z": -0.1740660681,
				"element": "C" 
			},
			{
				"x": -0.7603605338,
				"y": -2.788561619,
				"z": -0.662732351,
				"element": "C" 
			},
			{
				"x": 0.0353849217,
				"y": -3.4164121336,
				"z": -1.6106469417,
				"element": "N" 
			},
			{
				"x": 1.2364052071,
				"y": -2.7373005297,
				"z": -1.649767702,
				"element": "C" 
			},
			{
				"x": 2.3458731953,
				"y": -3.1388276623,
				"z": -2.565930856,
				"element": "C" 
			},
			{
				"x": 1.2756324728,
				"y": -1.7293571533,
				"z": -0.8078324763,
				"element": "N" 
			},
			{
				"x": -2.0542288102,
				"y": -3.0154497623,
				"z": -0.1887345294,
				"element": "C" 
			},
			{
				"x": -2.5299945083,
				"y": -2.1558087872,
				"z": 0.7923711368,
				"element": "C" 
			},
			{
				"x": -2.2814079181,
				"y": 1.2104038888,
				"z": 3.5457394853,
				"element": "H" 
			},
			{
				"x": -0.7054538414,
				"y": 0.4076958424,
				"z": 3.3067216793,
				"element": "H" 
			},
			{
				"x": -1.3578035456,
				"y": 1.489115596,
				"z": 2.0443099918,
				"element": "H" 
			},
			{
				"x": 0.1789496483,
				"y": -0.0650434606,
				"z": 1.1822567246,
				"element": "H" 
			},
			{
				"x": -0.2122906414,
				"y": -4.2182664829,
				"z": -2.1686096907,
				"element": "H" 
			},
			{
				"x": 2.6855945142,
				"y": -4.1617716363,
				"z": -2.3652847401,
				"element": "H" 
			},
			{
				"x": 2.0392124758,
				"y": -3.0907766308,
				"z": -3.6174691343,
				"element": "H" 
			},
			{
				"x": 3.1846617014,
				"y": -2.458295332,
				"z": -2.4168567996,
				"element": "H" 
			},
			{
				"x": -2.673134101,
				"y": -3.825841098,
				"z": -0.5623844183,
				"element": "H" 
			},
			{
				"x": -3.5266482692,
				"y": -2.2778051232,
				"z": 1.2027146764,
				"element": "H" 
			}
		],
		 "valence_orbital": [ 
			{
				"type": "occ",
				"energy": -0.29608,
				"method": "rhf"
			},
			{
				"type": "occ",
				"energy": -0.29031,
				"method": "rhf"
			},
			{
				"type": "occ",
				"energy": -0.26196,
				"method": "rhf"
			},
			{
				"type": "occ",
				"energy": -0.21696,
				"method": "rhf"
			},
			{
				"type": "occ",
				"energy": -0.1969,
				"method": "rhf"
			},
			{
				"type": "unocc",
				"energy": -0.00717,
				"method": "rhf"
			},
			{
				"type": "unocc",
				"energy": 0.0393,
				"method": "rhf"
			},
			{
				"type": "unocc",
				"energy": 0.06151,
				"method": "rhf"
			},
			{
				"type": "unocc",
				"energy": 0.07643,
				"method": "rhf"
			},
			{
				"type": "unocc",
				"energy": 0.1065,
				"method": "rhf"
			}
		],
		"cosmo_sigma_profile": { 
			"-0.025": 0.0,
			"-0.024": 0.0,
			"-0.023": 0.0,
			"-0.022": 0.0,
			"-0.021": 0.0,
			"-0.02": 0.0,
			"-0.019": 0.0,
			"-0.018": 0.0,
			"-0.017": 0.0,
			"-0.016": 1.00387493641,
			"-0.015": 1.65528051902,
			"-0.014": 1.24078723473,
			"-0.013": 1.01119435432,
			"-0.012": 1.31295438273,
			"-0.011": 1.43664733573,
			"-0.01": 1.03085254987,
			"-0.009": 1.4979354306,
			"-0.008": 1.51112970109,
			"-0.007": 2.6824836673,
			"-0.006": 8.60452350971,
			"-0.005": 19.1130499037,
			"-0.004": 18.1169588197,
			"-0.003": 19.5687014317,
			"-0.002": 15.3006113909,
			"-0.001": 13.465965637,
			"0.0": 7.79546074778,
			"0.001": 8.2820284337,
			"0.002": 10.020297541,
			"0.003": 9.88324047403,
			"0.004": 12.1107100904,
			"0.005": 16.2769136908,
			"0.006": 9.63330760132,
			"0.007": 3.91193374909,
			"0.008": 3.02536475366,
			"0.009": 2.76710326823,
			"0.01": 2.92984040304,
			"0.011": 2.19731426182,
			"0.012": 0.999827713359,
			"0.013": 1.06104646071,
			"0.014": 1.02655590537,
			"0.015": 1.11180681065,
			"0.016": 0.708933525958,
			"0.017": 1.16043639603,
			"0.018": 0.544514010435,
			"0.019": 0.220639422014,
			"0.02": 0.0,
			"0.021": 0.0,
			"0.022": 0.0,
			"0.023": 0.0,
			"0.024": 0.0,
			"0.025": 0.0
		}
	}
}
