{
	 "smiles": "ClC1(Cl)CC1S(=O)(=O)C1=CC=CC=C1", 
	 "Tm": 358.65, 
	 "num_atms": 22, 
	 "gaussian": { 
		 "optdone": 1, 
		 "sigma_profile": "yes", 
		 "theory": "DFT", 
		 "functional": "B3LYP", 
		 "basiset": "6-31G**", 
		 "properties": { 
			 "R2extent": 4110.2827, 
			 "electric_dipole_moment_norm": 3.33867617627, 
			 "electric_quadrupole_moment_norm": 18.3696243854, 
			 "total_energy": -1816.68514219, 
			 "HOMO_LUMO_gap": 0.22686, 
			 "cosmo_polarized_energy": -13.13, 
			 "cosmo_cavitation_energy": 30.61, 
			 "cosmo_dispersion_energy": -22.12, 
			 "cosmo_repulsion_energy": 1.7, 
			 "cosmo_total_nonelectrostatic_energy": 10.18, 
			 "SMD_solvation_energy": 3.72 
		},
		"coords": [
			{
				"x": 1.8131689014,
				"y": 3.5535863211,
				"z": 1.1304629062,
				"element": "Cl" 
			},
			{
				"x": 0.2964676412,
				"y": 2.9721974023,
				"z": 0.3911392133,
				"element": "C" 
			},
			{
				"x": 0.4596067167,
				"y": 2.7327556151,
				"z": -1.356211046,
				"element": "Cl" 
			},
			{
				"x": -0.9886573269,
				"y": 3.4824175448,
				"z": 0.9540643556,
				"element": "C" 
			},
			{
				"x": -0.533449443,
				"y": 2.0661921183,
				"z": 1.2620128852,
				"element": "C" 
			},
			{
				"x": -1.5941914048,
				"y": 0.6993653722,
				"z": 0.7130051703,
				"element": "S" 
			},
			{
				"x": -2.3320739461,
				"y": 0.3033789223,
				"z": 1.9215134606,
				"element": "O" 
			},
			{
				"x": -2.2948752611,
				"y": 1.1250922209,
				"z": -0.5063757324,
				"element": "O" 
			},
			{
				"x": -0.4599092034,
				"y": -0.6270275021,
				"z": 0.2942376162,
				"element": "C" 
			},
			{
				"x": 0.037015385,
				"y": -1.435586935,
				"z": 1.3200877509,
				"element": "C" 
			},
			{
				"x": 0.9133062733,
				"y": -2.4705200318,
				"z": 0.9955330787,
				"element": "C" 
			},
			{
				"x": 1.272288956,
				"y": -2.6916485179,
				"z": -0.3368110686,
				"element": "C" 
			},
			{
				"x": 0.7539013777,
				"y": -1.88503037,
				"z": -1.352542711,
				"element": "C" 
			},
			{
				"x": -0.1196915092,
				"y": -0.8424188572,
				"z": -1.0423694031,
				"element": "C" 
			},
			{
				"x": -1.8124640695,
				"y": 3.5678268877,
				"z": 0.2506041927,
				"element": "H" 
			},
			{
				"x": -0.9579170988,
				"y": 4.2198892512,
				"z": 1.7489425677,
				"element": "H" 
			},
			{
				"x": -0.1332846829,
				"y": 1.8511281992,
				"z": 2.2476563861,
				"element": "H" 
			},
			{
				"x": -0.2774727699,
				"y": -1.2677940965,
				"z": 2.3446181094,
				"element": "H" 
			},
			{
				"x": 1.3074474976,
				"y": -3.1089473887,
				"z": 1.7801915415,
				"element": "H" 
			},
			{
				"x": 1.9524493415,
				"y": -3.5012104592,
				"z": -0.5847269395,
				"element": "H" 
			},
			{
				"x": 1.0256782214,
				"y": -2.069103541,
				"z": -2.3873498314,
				"element": "H" 
			},
			{
				"x": -0.5447435962,
				"y": -0.2111421554,
				"z": -1.8138825026,
				"element": "H" 
			}
		],
		 "valence_orbital": [ 
			{
				"type": "occ",
				"energy": -0.30776,
				"method": "rhf"
			},
			{
				"type": "occ",
				"energy": -0.30348,
				"method": "rhf"
			},
			{
				"type": "occ",
				"energy": -0.287,
				"method": "rhf"
			},
			{
				"type": "occ",
				"energy": -0.27939,
				"method": "rhf"
			},
			{
				"type": "occ",
				"energy": -0.27537,
				"method": "rhf"
			},
			{
				"type": "unocc",
				"energy": -0.04851,
				"method": "rhf"
			},
			{
				"type": "unocc",
				"energy": -0.02648,
				"method": "rhf"
			},
			{
				"type": "unocc",
				"energy": -0.02106,
				"method": "rhf"
			},
			{
				"type": "unocc",
				"energy": -0.00553,
				"method": "rhf"
			},
			{
				"type": "unocc",
				"energy": 0.05722,
				"method": "rhf"
			}
		],
		"cosmo_sigma_profile": { 
			"-0.025": 0.0,
			"-0.024": 0.0,
			"-0.023": 0.0,
			"-0.022": 0.0,
			"-0.021": 0.0,
			"-0.02": 0.0,
			"-0.019": 0.0,
			"-0.018": 0.0,
			"-0.017": 0.0,
			"-0.016": 0.0,
			"-0.015": 0.0,
			"-0.014": 0.0,
			"-0.013": 0.0,
			"-0.012": 0.0,
			"-0.011": 0.269927255997,
			"-0.01": 1.72395871477,
			"-0.009": 3.17630482934,
			"-0.008": 5.53733413927,
			"-0.007": 14.4387521947,
			"-0.006": 15.1713619523,
			"-0.005": 15.0096184399,
			"-0.004": 12.5078831779,
			"-0.003": 15.8286039159,
			"-0.002": 16.4482271253,
			"-0.001": 15.1433996219,
			"0.0": 16.5630288925,
			"0.001": 17.6194627998,
			"0.002": 24.5659569269,
			"0.003": 28.5207267813,
			"0.004": 13.6033455523,
			"0.005": 2.65375056464,
			"0.006": 2.76317820282,
			"0.007": 3.29180180827,
			"0.008": 3.80990919934,
			"0.009": 3.47962941781,
			"0.01": 7.79121956405,
			"0.011": 7.70936840079,
			"0.012": 1.84884726832,
			"0.013": 0.0,
			"0.014": 0.0,
			"0.015": 0.0,
			"0.016": 0.0,
			"0.017": 0.0,
			"0.018": 0.0,
			"0.019": 0.0,
			"0.02": 0.0,
			"0.021": 0.0,
			"0.022": 0.0,
			"0.023": 0.0,
			"0.024": 0.0,
			"0.025": 0.0
		}
	}
}
