{
	 "smiles": "CSC(=NC#N)N1CCOCC1", 
	 "Tm": 400.15, 
	 "num_atms": 23, 
	 "gaussian": { 
		 "optdone": 1, 
		 "sigma_profile": "yes", 
		 "theory": "DFT", 
		 "functional": "B3LYP", 
		 "basiset": "6-31G**", 
		 "properties": { 
			 "R2extent": 2786.8582, 
			 "electric_dipole_moment_norm": 5.60489440579, 
			 "electric_quadrupole_moment_norm": 26.3213444165, 
			 "total_energy": -910.995086865, 
			 "HOMO_LUMO_gap": 0.19853, 
			 "cosmo_polarized_energy": -16.21, 
			 "cosmo_cavitation_energy": 27.46, 
			 "cosmo_dispersion_energy": -20.26, 
			 "cosmo_repulsion_energy": 1.58, 
			 "cosmo_total_nonelectrostatic_energy": 8.78, 
			 "SMD_solvation_energy": 5.79 
		},
		"coords": [
			{
				"x": 3.0044738749,
				"y": -1.6557121515,
				"z": 1.2668326208,
				"element": "C" 
			},
			{
				"x": 1.6672972348,
				"y": -1.7918651301,
				"z": 0.019960254,
				"element": "S" 
			},
			{
				"x": 0.3106931898,
				"y": -0.8731813353,
				"z": 0.7669581196,
				"element": "C" 
			},
			{
				"x": 0.0067883964,
				"y": -0.854253461,
				"z": 2.0371533977,
				"element": "N" 
			},
			{
				"x": 0.5042051832,
				"y": -1.6790240768,
				"z": 2.9421904065,
				"element": "C" 
			},
			{
				"x": 0.875133228,
				"y": -2.3630859004,
				"z": 3.8185224655,
				"element": "N" 
			},
			{
				"x": -0.4815179121,
				"y": -0.1896647811,
				"z": -0.1005473314,
				"element": "N" 
			},
			{
				"x": -0.1744527648,
				"y": 0.1233554289,
				"z": -1.4998658965,
				"element": "C" 
			},
			{
				"x": -0.3073405127,
				"y": 1.6336079212,
				"z": -1.7292899102,
				"element": "C" 
			},
			{
				"x": -1.5839565511,
				"y": 2.1129544009,
				"z": -1.3422680942,
				"element": "O" 
			},
			{
				"x": -1.829738018,
				"y": 1.8570874897,
				"z": 0.0350525636,
				"element": "C" 
			},
			{
				"x": -1.7761555137,
				"y": 0.3600456529,
				"z": 0.3356548955,
				"element": "C" 
			},
			{
				"x": 3.1409031575,
				"y": -0.6155739713,
				"z": 1.5650577159,
				"element": "H" 
			},
			{
				"x": 2.811356671,
				"y": -2.2797492299,
				"z": 2.1371789246,
				"element": "H" 
			},
			{
				"x": 3.8988795431,
				"y": -1.9992085808,
				"z": 0.7427006967,
				"element": "H" 
			},
			{
				"x": 0.8345979217,
				"y": -0.2076898255,
				"z": -1.7428262535,
				"element": "H" 
			},
			{
				"x": -0.8833904688,
				"y": -0.4095075506,
				"z": -2.1470946822,
				"element": "H" 
			},
			{
				"x": -0.1932595108,
				"y": 1.8593930941,
				"z": -2.7934334416,
				"element": "H" 
			},
			{
				"x": 0.4862518447,
				"y": 2.1576659136,
				"z": -1.1715509168,
				"element": "H" 
			},
			{
				"x": -2.8258577224,
				"y": 2.2508360369,
				"z": 0.2547850618,
				"element": "H" 
			},
			{
				"x": -1.0949023393,
				"y": 2.3878892783,
				"z": 0.6611993071,
				"element": "H" 
			},
			{
				"x": -2.5703013912,
				"y": -0.1521066869,
				"z": -0.2237969631,
				"element": "H" 
			},
			{
				"x": -1.8982075401,
				"y": 0.1640874648,
				"z": 1.3995270602,
				"element": "H" 
			}
		],
		 "valence_orbital": [ 
			{
				"type": "occ",
				"energy": -0.32408,
				"method": "rhf"
			},
			{
				"type": "occ",
				"energy": -0.28681,
				"method": "rhf"
			},
			{
				"type": "occ",
				"energy": -0.26161,
				"method": "rhf"
			},
			{
				"type": "occ",
				"energy": -0.2527,
				"method": "rhf"
			},
			{
				"type": "occ",
				"energy": -0.23622,
				"method": "rhf"
			},
			{
				"type": "unocc",
				"energy": -0.03769,
				"method": "rhf"
			},
			{
				"type": "unocc",
				"energy": 0.01964,
				"method": "rhf"
			},
			{
				"type": "unocc",
				"energy": 0.04476,
				"method": "rhf"
			},
			{
				"type": "unocc",
				"energy": 0.07616,
				"method": "rhf"
			},
			{
				"type": "unocc",
				"energy": 0.09083,
				"method": "rhf"
			}
		],
		"cosmo_sigma_profile": { 
			"-0.025": 0.0,
			"-0.024": 0.0,
			"-0.023": 0.0,
			"-0.022": 0.0,
			"-0.021": 0.0,
			"-0.02": 0.0,
			"-0.019": 0.0,
			"-0.018": 0.0,
			"-0.017": 0.0,
			"-0.016": 0.0,
			"-0.015": 0.0,
			"-0.014": 0.0,
			"-0.013": 0.0,
			"-0.012": 0.0,
			"-0.011": 0.0,
			"-0.01": 0.0,
			"-0.009": 0.0,
			"-0.008": 1.62426717929,
			"-0.007": 5.20349702415,
			"-0.006": 19.4718405039,
			"-0.005": 27.5092707942,
			"-0.004": 26.3980521232,
			"-0.003": 22.7649702636,
			"-0.002": 16.2774529244,
			"-0.001": 10.4117490596,
			"0.0": 8.50259651518,
			"0.001": 7.21013896043,
			"0.002": 9.40195546253,
			"0.003": 11.8820171233,
			"0.004": 7.34274875158,
			"0.005": 6.72689393924,
			"0.006": 5.67898816549,
			"0.007": 4.03475285766,
			"0.008": 3.16326014108,
			"0.009": 3.39575218972,
			"0.01": 4.09843064642,
			"0.011": 4.37283813844,
			"0.012": 4.36159284014,
			"0.013": 4.24242858459,
			"0.014": 2.82273174781,
			"0.015": 2.27374278553,
			"0.016": 0.31947139158,
			"0.017": 0.0,
			"0.018": 0.0,
			"0.019": 0.0,
			"0.02": 0.0,
			"0.021": 0.0,
			"0.022": 0.0,
			"0.023": 0.0,
			"0.024": 0.0,
			"0.025": 0.0
		}
	}
}
