{
	 "smiles": "CCCCC1=C(C)N=C(NCC)N=C1OS(=O)(=O)N(C)C", 
	 "Tm": 323.65, 
	 "num_atms": 45, 
	 "gaussian": { 
		 "optdone": 1, 
		 "sigma_profile": "yes", 
		 "theory": "DFT", 
		 "functional": "B3LYP", 
		 "basiset": "6-31G**", 
		 "properties": { 
			 "R2extent": 7358.8367, 
			 "electric_dipole_moment_norm": 3.21114546696, 
			 "electric_quadrupole_moment_norm": 14.9108767485, 
			 "total_energy": -1352.67632402, 
			 "HOMO_LUMO_gap": 0.19044, 
			 "cosmo_polarized_energy": -16.24, 
			 "cosmo_cavitation_energy": 47.6, 
			 "cosmo_dispersion_energy": -30.89, 
			 "cosmo_repulsion_energy": 2.37, 
			 "cosmo_total_nonelectrostatic_energy": 19.07, 
			 "SMD_solvation_energy": 4.27 
		},
		"coords": [
			{
				"x": -1.5650956798,
				"y": -2.2428158369,
				"z": -0.6340826254,
				"element": "C" 
			},
			{
				"x": -1.2810148952,
				"y": -2.5456626245,
				"z": 0.8425442253,
				"element": "C" 
			},
			{
				"x": -1.7488266726,
				"y": -1.4787159169,
				"z": 1.8504067847,
				"element": "C" 
			},
			{
				"x": -0.850252908,
				"y": -0.2279229916,
				"z": 2.0187105045,
				"element": "C" 
			},
			{
				"x": -0.812330971,
				"y": 0.7623394269,
				"z": 0.8756705531,
				"element": "C" 
			},
			{
				"x": -1.8012130683,
				"y": 1.7475663631,
				"z": 0.6616088739,
				"element": "C" 
			},
			{
				"x": -2.9887607259,
				"y": 1.883097369,
				"z": 1.5832725785,
				"element": "C" 
			},
			{
				"x": -1.7484368806,
				"y": 2.6309695056,
				"z": -0.3415759064,
				"element": "N" 
			},
			{
				"x": -0.6855122477,
				"y": 2.5528831793,
				"z": -1.1668447632,
				"element": "C" 
			},
			{
				"x": -0.6526949731,
				"y": 3.4235512148,
				"z": -2.2089204726,
				"element": "N" 
			},
			{
				"x": 0.4699969752,
				"y": 3.5599204986,
				"z": -3.1286383599,
				"element": "C" 
			},
			{
				"x": 1.6342817764,
				"y": 4.3863475334,
				"z": -2.571447846,
				"element": "C" 
			},
			{
				"x": 0.3322079284,
				"y": 1.6814887179,
				"z": -1.0459002981,
				"element": "N" 
			},
			{
				"x": 0.2426016466,
				"y": 0.8298795331,
				"z": -0.0442041717,
				"element": "C" 
			},
			{
				"x": 1.2753201383,
				"y": -0.0767626815,
				"z": 0.1139135985,
				"element": "O" 
			},
			{
				"x": 2.6766821225,
				"y": 0.0638925743,
				"z": -0.8410270978,
				"element": "S" 
			},
			{
				"x": 2.3495321857,
				"y": -0.3335421535,
				"z": -2.1983456763,
				"element": "O" 
			},
			{
				"x": 3.3213028431,
				"y": 1.3240037829,
				"z": -0.5141354553,
				"element": "O" 
			},
			{
				"x": 3.5472440466,
				"y": -1.1622009656,
				"z": -0.1373768702,
				"element": "N" 
			},
			{
				"x": 3.1032173627,
				"y": -2.5319093391,
				"z": -0.4201902562,
				"element": "C" 
			},
			{
				"x": 4.0245945225,
				"y": -0.9270360536,
				"z": 1.2300654274,
				"element": "C" 
			},
			{
				"x": -2.6308233136,
				"y": -2.0415924215,
				"z": -0.7933943853,
				"element": "H" 
			},
			{
				"x": -1.0061395061,
				"y": -1.3787760314,
				"z": -0.998775229,
				"element": "H" 
			},
			{
				"x": -1.294303711,
				"y": -3.097804586,
				"z": -1.2630547433,
				"element": "H" 
			},
			{
				"x": -0.2066758425,
				"y": -2.7273670553,
				"z": 0.9838782984,
				"element": "H" 
			},
			{
				"x": -1.7796659385,
				"y": -3.4891039022,
				"z": 1.1006913139,
				"element": "H" 
			},
			{
				"x": -2.7722669327,
				"y": -1.1716201236,
				"z": 1.5980620365,
				"element": "H" 
			},
			{
				"x": -1.8136191353,
				"y": -1.9502897562,
				"z": 2.839776592,
				"element": "H" 
			},
			{
				"x": 0.1706224248,
				"y": -0.5626832501,
				"z": 2.229478527,
				"element": "H" 
			},
			{
				"x": -1.1861630309,
				"y": 0.2981845272,
				"z": 2.9210063463,
				"element": "H" 
			},
			{
				"x": -3.6028241937,
				"y": 2.7219555474,
				"z": 1.2543303559,
				"element": "H" 
			},
			{
				"x": -2.6706326455,
				"y": 2.0605554673,
				"z": 2.6171009954,
				"element": "H" 
			},
			{
				"x": -3.6017793445,
				"y": 0.9760194544,
				"z": 1.5882980838,
				"element": "H" 
			},
			{
				"x": -1.3787616063,
				"y": 4.1236784177,
				"z": -2.1939060671,
				"element": "H" 
			},
			{
				"x": 0.8191003583,
				"y": 2.5554515091,
				"z": -3.3817649566,
				"element": "H" 
			},
			{
				"x": 0.0798321482,
				"y": 4.0145858493,
				"z": -4.0455419038,
				"element": "H" 
			},
			{
				"x": 2.4220211664,
				"y": 4.4849528542,
				"z": -3.3261630487,
				"element": "H" 
			},
			{
				"x": 2.0646174086,
				"y": 3.8941714267,
				"z": -1.6955714913,
				"element": "H" 
			},
			{
				"x": 1.3064263515,
				"y": 5.3921711805,
				"z": -2.2871663086,
				"element": "H" 
			},
			{
				"x": 2.2632074094,
				"y": -2.8351045991,
				"z": 0.219320915,
				"element": "H" 
			},
			{
				"x": 2.811747551,
				"y": -2.6095048881,
				"z": -1.4666724222,
				"element": "H" 
			},
			{
				"x": 3.9488089962,
				"y": -3.2012502551,
				"z": -0.2392015321,
				"element": "H" 
			},
			{
				"x": 3.2437388871,
				"y": -1.1162165929,
				"z": 1.9789830967,
				"element": "H" 
			},
			{
				"x": 4.8645492678,
				"y": -1.6030915503,
				"z": 1.4119110955,
				"element": "H" 
			},
			{
				"x": 4.3758407057,
				"y": 0.1001076421,
				"z": 1.3195716846,
				"element": "H" 
			}
		],
		 "valence_orbital": [ 
			{
				"type": "occ",
				"energy": -0.28689,
				"method": "rhf"
			},
			{
				"type": "occ",
				"energy": -0.27536,
				"method": "rhf"
			},
			{
				"type": "occ",
				"energy": -0.27081,
				"method": "rhf"
			},
			{
				"type": "occ",
				"energy": -0.24477,
				"method": "rhf"
			},
			{
				"type": "occ",
				"energy": -0.20553,
				"method": "rhf"
			},
			{
				"type": "unocc",
				"energy": -0.01509,
				"method": "rhf"
			},
			{
				"type": "unocc",
				"energy": 0.00884,
				"method": "rhf"
			},
			{
				"type": "unocc",
				"energy": 0.025,
				"method": "rhf"
			},
			{
				"type": "unocc",
				"energy": 0.06531,
				"method": "rhf"
			},
			{
				"type": "unocc",
				"energy": 0.07747,
				"method": "rhf"
			}
		],
		"cosmo_sigma_profile": { 
			"-0.025": 0.0,
			"-0.024": 0.0,
			"-0.023": 0.0,
			"-0.022": 0.0,
			"-0.021": 0.0,
			"-0.02": 0.0,
			"-0.019": 0.0,
			"-0.018": 0.0,
			"-0.017": 0.0,
			"-0.016": 0.0,
			"-0.015": 0.0,
			"-0.014": 0.128826893338,
			"-0.013": 0.938331903109,
			"-0.012": 1.08243122483,
			"-0.011": 0.817885620599,
			"-0.01": 1.23619977113,
			"-0.009": 0.746379196424,
			"-0.008": 1.0753462046,
			"-0.007": 3.73899012441,
			"-0.006": 7.74920931939,
			"-0.005": 17.2669650636,
			"-0.004": 26.6237323344,
			"-0.003": 38.714351517,
			"-0.002": 43.7831493031,
			"-0.001": 44.2602544211,
			"0.0": 46.5644642009,
			"0.001": 42.2557747522,
			"0.002": 21.3492146237,
			"0.003": 11.0865312753,
			"0.004": 7.94114529957,
			"0.005": 8.90427349503,
			"0.006": 8.84374171965,
			"0.007": 8.12406768244,
			"0.008": 8.77901390065,
			"0.009": 10.4441241456,
			"0.01": 6.07587661103,
			"0.011": 1.42977471331,
			"0.012": 0.856300619602,
			"0.013": 1.0218987104,
			"0.014": 0.489968341588,
			"0.015": 0.0135741860288,
			"0.016": 0.0,
			"0.017": 0.0,
			"0.018": 0.0,
			"0.019": 0.0,
			"0.02": 0.0,
			"0.021": 0.0,
			"0.022": 0.0,
			"0.023": 0.0,
			"0.024": 0.0,
			"0.025": 0.0
		}
	}
}
