{
	 "smiles": "CC1=NN=C(S1)N1CCC(=O)CC1", 
	 "Tm": 369.15, 
	 "num_atms": 24, 
	 "gaussian": { 
		 "optdone": 1, 
		 "sigma_profile": "yes", 
		 "theory": "DFT", 
		 "functional": "B3LYP", 
		 "basiset": "6-31G**", 
		 "properties": { 
			 "R2extent": 3167.7008, 
			 "electric_dipole_moment_norm": 3.20153040123, 
			 "electric_quadrupole_moment_norm": 14.2483070833, 
			 "total_energy": -949.117744747, 
			 "HOMO_LUMO_gap": 0.1953, 
			 "cosmo_polarized_energy": -15.26, 
			 "cosmo_cavitation_energy": 28.3, 
			 "cosmo_dispersion_energy": -21.27, 
			 "cosmo_repulsion_energy": 1.64, 
			 "cosmo_total_nonelectrostatic_energy": 8.66, 
			 "SMD_solvation_energy": 1.96 
		},
		"coords": [
			{
				"x": 1.2152470447,
				"y": -2.6843935871,
				"z": 2.4659778919,
				"element": "C" 
			},
			{
				"x": 0.8033297015,
				"y": -1.4523856816,
				"z": 1.7261489897,
				"element": "C" 
			},
			{
				"x": 0.0605980239,
				"y": -0.5154590814,
				"z": 2.2230168685,
				"element": "N" 
			},
			{
				"x": -0.2086998929,
				"y": 0.5123053603,
				"z": 1.359108171,
				"element": "N" 
			},
			{
				"x": 0.3609282804,
				"y": 0.3613246929,
				"z": 0.1893641232,
				"element": "C" 
			},
			{
				"x": 1.2913533167,
				"y": -1.1392212027,
				"z": 0.0475804656,
				"element": "S" 
			},
			{
				"x": 0.3089075443,
				"y": 1.3037057004,
				"z": -0.8087681047,
				"element": "N" 
			},
			{
				"x": 0.4118062789,
				"y": 0.9054657996,
				"z": -2.2118283445,
				"element": "C" 
			},
			{
				"x": -0.966328448,
				"y": 0.5096671798,
				"z": -2.7909119874,
				"element": "C" 
			},
			{
				"x": -2.0193741724,
				"y": 1.579256981,
				"z": -2.5099143092,
				"element": "C" 
			},
			{
				"x": -2.7950558481,
				"y": 1.9625324211,
				"z": -3.3637580576,
				"element": "O" 
			},
			{
				"x": -2.0211878662,
				"y": 2.1256516571,
				"z": -1.0889126515,
				"element": "C" 
			},
			{
				"x": -0.5898886167,
				"y": 2.4460416103,
				"z": -0.6036198881,
				"element": "C" 
			},
			{
				"x": 0.7843459855,
				"y": -2.6382927532,
				"z": 3.468110298,
				"element": "H" 
			},
			{
				"x": 0.8566376893,
				"y": -3.5921360647,
				"z": 1.9688671906,
				"element": "H" 
			},
			{
				"x": 2.3044313803,
				"y": -2.7584476433,
				"z": 2.5531200932,
				"element": "H" 
			},
			{
				"x": 0.8203904503,
				"y": 1.7561135519,
				"z": -2.7692505299,
				"element": "H" 
			},
			{
				"x": 1.1270044953,
				"y": 0.0855571698,
				"z": -2.3134159418,
				"element": "H" 
			},
			{
				"x": -0.9162341988,
				"y": 0.3386527707,
				"z": -3.8695720157,
				"element": "H" 
			},
			{
				"x": -1.2920948222,
				"y": -0.4239604011,
				"z": -2.311882472,
				"element": "H" 
			},
			{
				"x": -2.4412624391,
				"y": 1.3627467322,
				"z": -0.419893135,
				"element": "H" 
			},
			{
				"x": -2.6665561356,
				"y": 3.0070833443,
				"z": -1.0495641677,
				"element": "H" 
			},
			{
				"x": -0.1779283026,
				"y": 3.2908158408,
				"z": -1.1676868158,
				"element": "H" 
			},
			{
				"x": -0.5901694487,
				"y": 2.7006756029,
				"z": 0.4555843292,
				"element": "H" 
			}
		],
		 "valence_orbital": [ 
			{
				"type": "occ",
				"energy": -0.29891,
				"method": "rhf"
			},
			{
				"type": "occ",
				"energy": -0.28902,
				"method": "rhf"
			},
			{
				"type": "occ",
				"energy": -0.25881,
				"method": "rhf"
			},
			{
				"type": "occ",
				"energy": -0.24827,
				"method": "rhf"
			},
			{
				"type": "occ",
				"energy": -0.22242,
				"method": "rhf"
			},
			{
				"type": "unocc",
				"energy": -0.02712,
				"method": "rhf"
			},
			{
				"type": "unocc",
				"energy": -0.01938,
				"method": "rhf"
			},
			{
				"type": "unocc",
				"energy": -0.00023,
				"method": "rhf"
			},
			{
				"type": "unocc",
				"energy": 0.04266,
				"method": "rhf"
			},
			{
				"type": "unocc",
				"energy": 0.07265,
				"method": "rhf"
			}
		],
		"cosmo_sigma_profile": { 
			"-0.025": 0.0,
			"-0.024": 0.0,
			"-0.023": 0.0,
			"-0.022": 0.0,
			"-0.021": 0.0,
			"-0.02": 0.0,
			"-0.019": 0.0,
			"-0.018": 0.0,
			"-0.017": 0.0,
			"-0.016": 0.0,
			"-0.015": 0.0,
			"-0.014": 0.0,
			"-0.013": 0.0,
			"-0.012": 0.0,
			"-0.011": 0.0,
			"-0.01": 0.0,
			"-0.009": 0.415410165319,
			"-0.008": 2.02419602183,
			"-0.007": 7.20567361104,
			"-0.006": 17.2708105984,
			"-0.005": 26.6692206667,
			"-0.004": 25.9028867683,
			"-0.003": 20.407253465,
			"-0.002": 19.0991146447,
			"-0.001": 14.0032922279,
			"0.0": 12.2618469193,
			"0.001": 11.4309935058,
			"0.002": 10.3803708919,
			"0.003": 8.08927129111,
			"0.004": 4.85100891877,
			"0.005": 5.09648051047,
			"0.006": 4.1374312332,
			"0.007": 3.3040090071,
			"0.008": 3.09456945835,
			"0.009": 3.37730855361,
			"0.01": 5.20119684957,
			"0.011": 5.68179742285,
			"0.012": 7.22983257282,
			"0.013": 5.28464103436,
			"0.014": 1.95085975697,
			"0.015": 1.14126616024,
			"0.016": 0.206498620375,
			"0.017": 0.0,
			"0.018": 0.0,
			"0.019": 0.0,
			"0.02": 0.0,
			"0.021": 0.0,
			"0.022": 0.0,
			"0.023": 0.0,
			"0.024": 0.0,
			"0.025": 0.0
		}
	}
}
