{
	 "smiles": "CC1=CC=C(C)C(CNC2=CC(=O)C3=CC=CC=C3C2=O)=C1", 
	 "Tm": 437.15, 
	 "num_atms": 39, 
	 "gaussian": { 
		 "optdone": 1, 
		 "sigma_profile": "yes", 
		 "theory": "DFT", 
		 "functional": "B3LYP", 
		 "basiset": "6-31G**", 
		 "properties": { 
			 "R2extent": 9764.8555, 
			 "electric_dipole_moment_norm": 3.02181122673, 
			 "electric_quadrupole_moment_norm": 18.9448530076, 
			 "total_energy": -939.490463367, 
			 "HOMO_LUMO_gap": 0.12216, 
			 "cosmo_polarized_energy": -13.51, 
			 "cosmo_cavitation_energy": 42.96, 
			 "cosmo_dispersion_energy": -30.25, 
			 "cosmo_repulsion_energy": 2.27, 
			 "cosmo_total_nonelectrostatic_energy": 14.98, 
			 "SMD_solvation_energy": 7.64 
		},
		"coords": [
			{
				"x": 2.1513925101,
				"y": 3.2287696079,
				"z": 4.4970707218,
				"element": "C" 
			},
			{
				"x": 1.4676360647,
				"y": 1.947233319,
				"z": 4.0824708379,
				"element": "C" 
			},
			{
				"x": 0.7585369432,
				"y": 1.1693708044,
				"z": 5.0029650574,
				"element": "C" 
			},
			{
				"x": 0.1574130834,
				"y": -0.0277516116,
				"z": 4.6147671649,
				"element": "C" 
			},
			{
				"x": 0.2350718631,
				"y": -0.4964190822,
				"z": 3.2987767349,
				"element": "C" 
			},
			{
				"x": -0.4189375146,
				"y": -1.8039790095,
				"z": 2.9144635779,
				"element": "C" 
			},
			{
				"x": 0.9438316229,
				"y": 0.2843024813,
				"z": 2.3612484617,
				"element": "C" 
			},
			{
				"x": 1.0511552319,
				"y": -0.1398994957,
				"z": 0.9122504773,
				"element": "C" 
			},
			{
				"x": -0.1817750806,
				"y": 0.1403282614,
				"z": 0.1892486387,
				"element": "N" 
			},
			{
				"x": -0.4085365315,
				"y": -0.20418503,
				"z": -1.0966252787,
				"element": "C" 
			},
			{
				"x": 0.4353279885,
				"y": -0.9209857102,
				"z": -1.9033393862,
				"element": "C" 
			},
			{
				"x": 0.0951887314,
				"y": -1.2684362329,
				"z": -3.271440187,
				"element": "C" 
			},
			{
				"x": 0.8553600888,
				"y": -1.9183177113,
				"z": -3.9922112229,
				"element": "O" 
			},
			{
				"x": -1.2341962737,
				"y": -0.8052551808,
				"z": -3.8018087809,
				"element": "C" 
			},
			{
				"x": -1.6001050204,
				"y": -1.1207726054,
				"z": -5.1109771973,
				"element": "C" 
			},
			{
				"x": -2.8290231129,
				"y": -0.6951186276,
				"z": -5.6163590811,
				"element": "C" 
			},
			{
				"x": -3.7021517754,
				"y": 0.0508433203,
				"z": -4.8167683409,
				"element": "C" 
			},
			{
				"x": -3.3454101997,
				"y": 0.3715138054,
				"z": -3.5091183889,
				"element": "C" 
			},
			{
				"x": -2.1131136615,
				"y": -0.0552522069,
				"z": -2.9982538767,
				"element": "C" 
			},
			{
				"x": -1.7405463773,
				"y": 0.2880481226,
				"z": -1.6089467416,
				"element": "C" 
			},
			{
				"x": -2.4602530428,
				"y": 0.9510759486,
				"z": -0.8674764984,
				"element": "O" 
			},
			{
				"x": 1.5418637083,
				"y": 1.4825989513,
				"z": 2.7638821702,
				"element": "C" 
			},
			{
				"x": 3.181808362,
				"y": 3.0413673507,
				"z": 4.8245486715,
				"element": "H" 
			},
			{
				"x": 1.628870228,
				"y": 3.7091100143,
				"z": 5.3297540347,
				"element": "H" 
			},
			{
				"x": 2.1992578378,
				"y": 3.9437978589,
				"z": 3.6701768125,
				"element": "H" 
			},
			{
				"x": 0.6736759524,
				"y": 1.5013227261,
				"z": 6.0349268036,
				"element": "H" 
			},
			{
				"x": -0.3875926116,
				"y": -0.613276822,
				"z": 5.3510195153,
				"element": "H" 
			},
			{
				"x": -1.1197103001,
				"y": -1.6811070326,
				"z": 2.0821985004,
				"element": "H" 
			},
			{
				"x": 0.3225222352,
				"y": -2.5488228593,
				"z": 2.5993933194,
				"element": "H" 
			},
			{
				"x": -0.9691506762,
				"y": -2.226600571,
				"z": 3.7589388779,
				"element": "H" 
			},
			{
				"x": 1.8924007785,
				"y": 0.3794457066,
				"z": 0.430834038,
				"element": "H" 
			},
			{
				"x": 1.2630082151,
				"y": -1.2149613378,
				"z": 0.8366780232,
				"element": "H" 
			},
			{
				"x": -0.883981184,
				"y": 0.7400291565,
				"z": 0.6066325077,
				"element": "H" 
			},
			{
				"x": 1.4021893627,
				"y": -1.2664505007,
				"z": -1.5545708702,
				"element": "H" 
			},
			{
				"x": -0.9043588013,
				"y": -1.6987607691,
				"z": -5.7099634236,
				"element": "H" 
			},
			{
				"x": -3.1089394385,
				"y": -0.9438575947,
				"z": -6.636099869,
				"element": "H" 
			},
			{
				"x": -4.6574600304,
				"y": 0.3800854305,
				"z": -5.2146218109,
				"element": "H" 
			},
			{
				"x": -4.0025106894,
				"y": 0.948936868,
				"z": -2.8672669797,
				"element": "H" 
			},
			{
				"x": 2.0825415141,
				"y": 2.0713302575,
				"z": 2.0252029869,
				"element": "H" 
			}
		],
		 "valence_orbital": [ 
			{
				"type": "occ",
				"energy": -0.26111,
				"method": "rhf"
			},
			{
				"type": "occ",
				"energy": -0.25509,
				"method": "rhf"
			},
			{
				"type": "occ",
				"energy": -0.24141,
				"method": "rhf"
			},
			{
				"type": "occ",
				"energy": -0.2389,
				"method": "rhf"
			},
			{
				"type": "occ",
				"energy": -0.21996,
				"method": "rhf"
			},
			{
				"type": "unocc",
				"energy": -0.0978,
				"method": "rhf"
			},
			{
				"type": "unocc",
				"energy": -0.03121,
				"method": "rhf"
			},
			{
				"type": "unocc",
				"energy": -0.01346,
				"method": "rhf"
			},
			{
				"type": "unocc",
				"energy": -0.00589,
				"method": "rhf"
			},
			{
				"type": "unocc",
				"energy": -0.00072,
				"method": "rhf"
			}
		],
		"cosmo_sigma_profile": { 
			"-0.025": 0.0,
			"-0.024": 0.0,
			"-0.023": 0.0,
			"-0.022": 0.0,
			"-0.021": 0.0,
			"-0.02": 0.0,
			"-0.019": 0.0,
			"-0.018": 0.0,
			"-0.017": 0.0,
			"-0.016": 0.0,
			"-0.015": 0.0,
			"-0.014": 0.0,
			"-0.013": 0.0,
			"-0.012": 0.0,
			"-0.011": 0.0,
			"-0.01": 0.305057198877,
			"-0.009": 0.697476512913,
			"-0.008": 0.841965525635,
			"-0.007": 4.72653144297,
			"-0.006": 13.1336904751,
			"-0.005": 27.4983434494,
			"-0.004": 33.3280313352,
			"-0.003": 31.6735213937,
			"-0.002": 29.7956373417,
			"-0.001": 31.173609099,
			"0.0": 35.9325325109,
			"0.001": 28.3679041236,
			"0.002": 25.8293866131,
			"0.003": 20.980520709,
			"0.004": 10.9038268861,
			"0.005": 9.94584815421,
			"0.006": 8.9286125447,
			"0.007": 3.92467053746,
			"0.008": 3.68889722044,
			"0.009": 3.52380749607,
			"0.01": 4.20216664368,
			"0.011": 3.22146298902,
			"0.012": 3.10828503972,
			"0.013": 4.51923584115,
			"0.014": 1.83463955285,
			"0.015": 0.273079642692,
			"0.016": 0.0,
			"0.017": 0.0,
			"0.018": 0.0,
			"0.019": 0.0,
			"0.02": 0.0,
			"0.021": 0.0,
			"0.022": 0.0,
			"0.023": 0.0,
			"0.024": 0.0,
			"0.025": 0.0
		}
	}
}
