{
	 "smiles": "CCCCC(=O)CC", 
	 "Tm": 235.15, 
	 "num_atms": 22, 
	 "gaussian": { 
		 "optdone": 1, 
		 "sigma_profile": "yes", 
		 "theory": "DFT", 
		 "functional": "B3LYP", 
		 "basiset": "6-31G**", 
		 "properties": { 
			 "R2extent": 2035.7174, 
			 "electric_dipole_moment_norm": 2.99056237353, 
			 "electric_quadrupole_moment_norm": 13.5400331798, 
			 "total_energy": -350.419297588, 
			 "HOMO_LUMO_gap": 0.22551, 
			 "cosmo_polarized_energy": -6.77, 
			 "cosmo_cavitation_energy": 24.05, 
			 "cosmo_dispersion_energy": -16.89, 
			 "cosmo_repulsion_energy": 1.44, 
			 "cosmo_total_nonelectrostatic_energy": 8.61, 
			 "SMD_solvation_energy": 4.62 
		},
		"coords": [
			{
				"x": 0.8788290468,
				"y": 2.798049551,
				"z": -0.770577197,
				"element": "C" 
			},
			{
				"x": -0.5001116145,
				"y": 2.2707074168,
				"z": -1.1832048378,
				"element": "C" 
			},
			{
				"x": -1.0292475316,
				"y": 1.1194040339,
				"z": -0.3116639971,
				"element": "C" 
			},
			{
				"x": -1.3107850285,
				"y": 1.5272104543,
				"z": 1.1491468834,
				"element": "C" 
			},
			{
				"x": -1.9741478586,
				"y": 0.4302048366,
				"z": 1.9762443517,
				"element": "C" 
			},
			{
				"x": -3.0674150673,
				"y": 0.6056018285,
				"z": 2.4838756457,
				"element": "O" 
			},
			{
				"x": -1.2412855919,
				"y": -0.8993586784,
				"z": 2.1439917822,
				"element": "C" 
			},
			{
				"x": 0.1807756959,
				"y": -0.7746528224,
				"z": 2.7153788672,
				"element": "C" 
			},
			{
				"x": 1.6269422588,
				"y": 1.9964244345,
				"z": -0.7766922359,
				"element": "H" 
			},
			{
				"x": 1.2227349863,
				"y": 3.5762697573,
				"z": -1.4594335954,
				"element": "H" 
			},
			{
				"x": 0.8676636229,
				"y": 3.2345629589,
				"z": 0.2335757697,
				"element": "H" 
			},
			{
				"x": -1.2271459274,
				"y": 3.0935632591,
				"z": -1.1709380186,
				"element": "H" 
			},
			{
				"x": -0.4532027876,
				"y": 1.9222786411,
				"z": -2.2226821146,
				"element": "H" 
			},
			{
				"x": -1.9568743756,
				"y": 0.7368168455,
				"z": -0.7560553215,
				"element": "H" 
			},
			{
				"x": -0.308850599,
				"y": 0.2908988209,
				"z": -0.3364885955,
				"element": "H" 
			},
			{
				"x": -1.980300688,
				"y": 2.3924154298,
				"z": 1.180014614,
				"element": "H" 
			},
			{
				"x": -0.3723293019,
				"y": 1.8167368651,
				"z": 1.6393333017,
				"element": "H" 
			},
			{
				"x": -1.1951438774,
				"y": -1.3922785727,
				"z": 1.1631552233,
				"element": "H" 
			},
			{
				"x": -1.8673134533,
				"y": -1.5204881921,
				"z": 2.7903658113,
				"element": "H" 
			},
			{
				"x": 0.6179887534,
				"y": -1.7662397945,
				"z": 2.8657467645,
				"element": "H" 
			},
			{
				"x": 0.8450131778,
				"y": -0.2199751704,
				"z": 2.0453659906,
				"element": "H" 
			},
			{
				"x": 0.1754061605,
				"y": -0.2639519028,
				"z": 3.683840908,
				"element": "H" 
			}
		],
		 "valence_orbital": [ 
			{
				"type": "occ",
				"energy": -0.3472,
				"method": "rhf"
			},
			{
				"type": "occ",
				"energy": -0.33817,
				"method": "rhf"
			},
			{
				"type": "occ",
				"energy": -0.33254,
				"method": "rhf"
			},
			{
				"type": "occ",
				"energy": -0.32354,
				"method": "rhf"
			},
			{
				"type": "occ",
				"energy": -0.23449,
				"method": "rhf"
			},
			{
				"type": "unocc",
				"energy": -0.00898,
				"method": "rhf"
			},
			{
				"type": "unocc",
				"energy": 0.06951,
				"method": "rhf"
			},
			{
				"type": "unocc",
				"energy": 0.10543,
				"method": "rhf"
			},
			{
				"type": "unocc",
				"energy": 0.11514,
				"method": "rhf"
			},
			{
				"type": "unocc",
				"energy": 0.12354,
				"method": "rhf"
			}
		],
		"cosmo_sigma_profile": { 
			"-0.025": 0.0,
			"-0.024": 0.0,
			"-0.023": 0.0,
			"-0.022": 0.0,
			"-0.021": 0.0,
			"-0.02": 0.0,
			"-0.019": 0.0,
			"-0.018": 0.0,
			"-0.017": 0.0,
			"-0.016": 0.0,
			"-0.015": 0.0,
			"-0.014": 0.0,
			"-0.013": 0.0,
			"-0.012": 0.0,
			"-0.011": 0.0,
			"-0.01": 0.0,
			"-0.009": 0.0,
			"-0.008": 0.0,
			"-0.007": 0.0,
			"-0.006": 0.0,
			"-0.005": 2.01201426881,
			"-0.004": 16.2080494099,
			"-0.003": 27.4594573094,
			"-0.002": 32.5676929846,
			"-0.001": 32.7572611608,
			"0.0": 27.2753168981,
			"0.001": 17.5684476996,
			"0.002": 5.58485089796,
			"0.003": 1.93312259476,
			"0.004": 1.29968472202,
			"0.005": 1.3554705614,
			"0.006": 1.70980899218,
			"0.007": 1.62659006838,
			"0.008": 1.41459811846,
			"0.009": 1.73121164002,
			"0.01": 1.68567921791,
			"0.011": 2.75982470164,
			"0.012": 4.14660859082,
			"0.013": 3.79511292273,
			"0.014": 0.964634617509,
			"0.015": 0.0,
			"0.016": 0.0,
			"0.017": 0.0,
			"0.018": 0.0,
			"0.019": 0.0,
			"0.02": 0.0,
			"0.021": 0.0,
			"0.022": 0.0,
			"0.023": 0.0,
			"0.024": 0.0,
			"0.025": 0.0
		}
	}
}
