{
	 "smiles": "COC1=C(OC)C=C(C=C1)C1=NN(CC(O)=O)N=N1", 
	 "Tm": 533.15, 
	 "num_atms": 31, 
	 "gaussian": { 
		 "optdone": 1, 
		 "sigma_profile": "yes", 
		 "theory": "DFT", 
		 "functional": "B3LYP", 
		 "basiset": "6-31G**", 
		 "properties": { 
			 "R2extent": 7528.5885, 
			 "electric_dipole_moment_norm": 4.70433321311, 
			 "electric_quadrupole_moment_norm": 13.935461565, 
			 "total_energy": -946.234394724, 
			 "HOMO_LUMO_gap": 0.17858, 
			 "cosmo_polarized_energy": -17.14, 
			 "cosmo_cavitation_energy": 36.43, 
			 "cosmo_dispersion_energy": -26.14, 
			 "cosmo_repulsion_energy": 2.02, 
			 "cosmo_total_nonelectrostatic_energy": 12.31, 
			 "SMD_solvation_energy": 6.84 
		},
		"coords": [
			{
				"x": 2.9618756615,
				"y": 3.5582961516,
				"z": -1.9456570514,
				"element": "C" 
			},
			{
				"x": 2.102834882,
				"y": 2.5821640369,
				"z": -2.5539504757,
				"element": "O" 
			},
			{
				"x": 1.1071882308,
				"y": 2.0900254524,
				"z": -1.7485496467,
				"element": "C" 
			},
			{
				"x": 1.390016641,
				"y": 1.2901061387,
				"z": -0.6208877772,
				"element": "C" 
			},
			{
				"x": 2.6827659738,
				"y": 1.0078905273,
				"z": -0.2449706436,
				"element": "O" 
			},
			{
				"x": 3.385950852,
				"y": 0.1211349763,
				"z": -1.1268779269,
				"element": "C" 
			},
			{
				"x": 0.3451974748,
				"y": 0.8042192639,
				"z": 0.1594016951,
				"element": "C" 
			},
			{
				"x": -0.9880539481,
				"y": 1.0848668113,
				"z": -0.1751477771,
				"element": "C" 
			},
			{
				"x": -1.2668608768,
				"y": 1.85341557,
				"z": -1.3147170687,
				"element": "C" 
			},
			{
				"x": -0.2225820677,
				"y": 2.3518895078,
				"z": -2.0875998087,
				"element": "C" 
			},
			{
				"x": -2.0877511823,
				"y": 0.5744582084,
				"z": 0.6434801407,
				"element": "C" 
			},
			{
				"x": -1.9445991484,
				"y": -0.20547445,
				"z": 1.7219648906,
				"element": "N" 
			},
			{
				"x": -3.2109792737,
				"y": -0.4011106877,
				"z": 2.0982764465,
				"element": "N" 
			},
			{
				"x": -3.5804967311,
				"y": -1.1802949189,
				"z": 3.2730340011,
				"element": "C" 
			},
			{
				"x": -2.8690716748,
				"y": -2.5421534691,
				"z": 3.4192520604,
				"element": "C" 
			},
			{
				"x": -1.6405486989,
				"y": -2.6532259586,
				"z": 2.9054974131,
				"element": "O" 
			},
			{
				"x": -3.4058475495,
				"y": -3.4253066923,
				"z": 4.0394158751,
				"element": "O" 
			},
			{
				"x": -4.0943140081,
				"y": 0.2137088706,
				"z": 1.322272371,
				"element": "N" 
			},
			{
				"x": -3.4030145959,
				"y": 0.8346355869,
				"z": 0.4008921699,
				"element": "N" 
			},
			{
				"x": 3.4705608692,
				"y": 3.1511857603,
				"z": -1.0673518082,
				"element": "H" 
			},
			{
				"x": 2.3882711234,
				"y": 4.4477414845,
				"z": -1.6581226761,
				"element": "H" 
			},
			{
				"x": 3.6945939582,
				"y": 3.8318824174,
				"z": -2.7068896607,
				"element": "H" 
			},
			{
				"x": 4.3848839076,
				"y": 0.0006273942,
				"z": -0.7037415383,
				"element": "H" 
			},
			{
				"x": 2.8892248011,
				"y": -0.8558866155,
				"z": -1.168360289,
				"element": "H" 
			},
			{
				"x": 3.4580444077,
				"y": 0.537093221,
				"z": -2.1364540032,
				"element": "H" 
			},
			{
				"x": 0.590122626,
				"y": 0.2049149129,
				"z": 1.0295113774,
				"element": "H" 
			},
			{
				"x": -2.2975190494,
				"y": 2.063421144,
				"z": -1.5775150756,
				"element": "H" 
			},
			{
				"x": -0.4157940031,
				"y": 2.9580807598,
				"z": -2.9666216642,
				"element": "H" 
			},
			{
				"x": -3.3635828461,
				"y": -0.5933434034,
				"z": 4.1731279413,
				"element": "H" 
			},
			{
				"x": -4.6538132064,
				"y": -1.3531060058,
				"z": 3.2192881835,
				"element": "H" 
			},
			{
				"x": -1.3796025489,
				"y": -1.8238559948,
				"z": 2.4468003256,
				"element": "H" 
			}
		],
		 "valence_orbital": [ 
			{
				"type": "occ",
				"energy": -0.30367,
				"method": "rhf"
			},
			{
				"type": "occ",
				"energy": -0.28238,
				"method": "rhf"
			},
			{
				"type": "occ",
				"energy": -0.27788,
				"method": "rhf"
			},
			{
				"type": "occ",
				"energy": -0.25829,
				"method": "rhf"
			},
			{
				"type": "occ",
				"energy": -0.23849,
				"method": "rhf"
			},
			{
				"type": "unocc",
				"energy": -0.05991,
				"method": "rhf"
			},
			{
				"type": "unocc",
				"energy": -0.03748,
				"method": "rhf"
			},
			{
				"type": "unocc",
				"energy": -0.01401,
				"method": "rhf"
			},
			{
				"type": "unocc",
				"energy": -0.00349,
				"method": "rhf"
			},
			{
				"type": "unocc",
				"energy": 0.04975,
				"method": "rhf"
			}
		],
		"cosmo_sigma_profile": { 
			"-0.025": 0.0,
			"-0.024": 0.0,
			"-0.023": 0.0,
			"-0.022": 0.0,
			"-0.021": 0.0,
			"-0.02": 0.0,
			"-0.019": 0.0,
			"-0.018": 0.0,
			"-0.017": 0.0,
			"-0.016": 0.0,
			"-0.015": 0.0,
			"-0.014": 0.0,
			"-0.013": 0.0,
			"-0.012": 0.124089204186,
			"-0.011": 3.39712724931,
			"-0.01": 5.38670939508,
			"-0.009": 6.91363348796,
			"-0.008": 5.98078049229,
			"-0.007": 7.95477236044,
			"-0.006": 12.6256035864,
			"-0.005": 18.1018956015,
			"-0.004": 21.6717936341,
			"-0.003": 27.4526985527,
			"-0.002": 22.0939110674,
			"-0.001": 20.3731089195,
			"0.0": 18.2160033783,
			"0.001": 16.6720308699,
			"0.002": 18.3661506165,
			"0.003": 16.4168462825,
			"0.004": 8.99172014552,
			"0.005": 6.94734442966,
			"0.006": 6.23138786764,
			"0.007": 7.87145687649,
			"0.008": 8.71732004917,
			"0.009": 8.14057927544,
			"0.01": 8.90977124977,
			"0.011": 9.31575255455,
			"0.012": 4.20055096471,
			"0.013": 0.417537486883,
			"0.014": 0.0,
			"0.015": 0.0,
			"0.016": 0.0,
			"0.017": 0.0,
			"0.018": 0.0,
			"0.019": 0.0,
			"0.02": 0.0,
			"0.021": 0.0,
			"0.022": 0.0,
			"0.023": 0.0,
			"0.024": 0.0,
			"0.025": 0.0
		}
	}
}
