{
	 "smiles": "CC1=C(C)C(C)=C(C=O)C(C)=C1C", 
	 "Tm": 420.15, 
	 "num_atms": 29, 
	 "gaussian": { 
		 "optdone": 1, 
		 "sigma_profile": "yes", 
		 "theory": "DFT", 
		 "functional": "B3LYP", 
		 "basiset": "6-31G**", 
		 "properties": { 
			 "R2extent": 2692.9404, 
			 "electric_dipole_moment_norm": 3.71099489356, 
			 "electric_quadrupole_moment_norm": 9.21912265837, 
			 "total_energy": -542.151538585, 
			 "HOMO_LUMO_gap": 0.17872, 
			 "cosmo_polarized_energy": -7.34, 
			 "cosmo_cavitation_energy": 29.33, 
			 "cosmo_dispersion_energy": -21.61, 
			 "cosmo_repulsion_energy": 1.67, 
			 "cosmo_total_nonelectrostatic_energy": 9.4, 
			 "SMD_solvation_energy": 5.79 
		},
		"coords": [
			{
				"x": -1.0647322637,
				"y": -3.0883036536,
				"z": 1.3958772291,
				"element": "C" 
			},
			{
				"x": -0.489531829,
				"y": -1.8432607438,
				"z": 0.7500496041,
				"element": "C" 
			},
			{
				"x": -1.3076966949,
				"y": -1.0733575615,
				"z": -0.1014307456,
				"element": "C" 
			},
			{
				"x": -2.7202083543,
				"y": -1.5339817579,
				"z": -0.4083693424,
				"element": "C" 
			},
			{
				"x": -0.8210824258,
				"y": 0.1221433786,
				"z": -0.6618729791,
				"element": "C" 
			},
			{
				"x": -1.7602745267,
				"y": 0.9944192723,
				"z": -1.4693900396,
				"element": "C" 
			},
			{
				"x": 0.5281419315,
				"y": 0.4905700917,
				"z": -0.4282794302,
				"element": "C" 
			},
			{
				"x": 1.0694705315,
				"y": 1.7613313684,
				"z": -0.9745741853,
				"element": "C" 
			},
			{
				"x": 0.6415983718,
				"y": 2.37581029,
				"z": -1.9384132943,
				"element": "O" 
			},
			{
				"x": 1.3743404945,
				"y": -0.321208018,
				"z": 0.3698861307,
				"element": "C" 
			},
			{
				"x": 2.8532207497,
				"y": -0.0007234788,
				"z": 0.5311330288,
				"element": "C" 
			},
			{
				"x": 0.8504471617,
				"y": -1.4705781851,
				"z": 0.9889943188,
				"element": "C" 
			},
			{
				"x": 1.7093586434,
				"y": -2.3214553424,
				"z": 1.9070036537,
				"element": "C" 
			},
			{
				"x": -1.17804925,
				"y": -3.9006909633,
				"z": 0.6660517283,
				"element": "H" 
			},
			{
				"x": -0.4385118837,
				"y": -3.4681263416,
				"z": 2.2017413915,
				"element": "H" 
			},
			{
				"x": -2.0572837566,
				"y": -2.8985256711,
				"z": 1.8152196692,
				"element": "H" 
			},
			{
				"x": -3.0177107316,
				"y": -1.2642399323,
				"z": -1.4236142689,
				"element": "H" 
			},
			{
				"x": -3.4576735519,
				"y": -1.0878886072,
				"z": 0.2730019268,
				"element": "H" 
			},
			{
				"x": -2.8198158193,
				"y": -2.6171200392,
				"z": -0.3231952888,
				"element": "H" 
			},
			{
				"x": -2.7892150952,
				"y": 0.889314618,
				"z": -1.1193618323,
				"element": "H" 
			},
			{
				"x": -1.4815082746,
				"y": 2.0448789329,
				"z": -1.4239300957,
				"element": "H" 
			},
			{
				"x": -1.7410016353,
				"y": 0.7242900781,
				"z": -2.5326167,
				"element": "H" 
			},
			{
				"x": 1.9296664285,
				"y": 2.1799992653,
				"z": -0.4157287186,
				"element": "H" 
			},
			{
				"x": 3.2131807396,
				"y": 0.7272675843,
				"z": -0.1934843787,
				"element": "H" 
			},
			{
				"x": 3.0861773829,
				"y": 0.3854851867,
				"z": 1.531329193,
				"element": "H" 
			},
			{
				"x": 3.4592137724,
				"y": -0.8992503705,
				"z": 0.3854326404,
				"element": "H" 
			},
			{
				"x": 1.2650960012,
				"y": -2.3978957349,
				"z": 2.9057251277,
				"element": "H" 
			},
			{
				"x": 2.7092736383,
				"y": -1.9128486652,
				"z": 2.0412592436,
				"element": "H" 
			},
			{
				"x": 1.8230102456,
				"y": -3.344555,
				"z": 1.5295564138,
				"element": "H" 
			}
		],
		 "valence_orbital": [ 
			{
				"type": "occ",
				"energy": -0.32799,
				"method": "rhf"
			},
			{
				"type": "occ",
				"energy": -0.32033,
				"method": "rhf"
			},
			{
				"type": "occ",
				"energy": -0.23785,
				"method": "rhf"
			},
			{
				"type": "occ",
				"energy": -0.2361,
				"method": "rhf"
			},
			{
				"type": "occ",
				"energy": -0.22724,
				"method": "rhf"
			},
			{
				"type": "unocc",
				"energy": -0.04852,
				"method": "rhf"
			},
			{
				"type": "unocc",
				"energy": 0.00019,
				"method": "rhf"
			},
			{
				"type": "unocc",
				"energy": 0.03877,
				"method": "rhf"
			},
			{
				"type": "unocc",
				"energy": 0.0859,
				"method": "rhf"
			},
			{
				"type": "unocc",
				"energy": 0.10499,
				"method": "rhf"
			}
		],
		"cosmo_sigma_profile": { 
			"-0.025": 0.0,
			"-0.024": 0.0,
			"-0.023": 0.0,
			"-0.022": 0.0,
			"-0.021": 0.0,
			"-0.02": 0.0,
			"-0.019": 0.0,
			"-0.018": 0.0,
			"-0.017": 0.0,
			"-0.016": 0.0,
			"-0.015": 0.0,
			"-0.014": 0.0,
			"-0.013": 0.0,
			"-0.012": 0.0,
			"-0.011": 0.0,
			"-0.01": 0.0,
			"-0.009": 0.0,
			"-0.008": 0.0,
			"-0.007": 0.311962142824,
			"-0.006": 2.58649858834,
			"-0.005": 5.5741141452,
			"-0.004": 21.4887157707,
			"-0.003": 31.5587545392,
			"-0.002": 34.8558630678,
			"-0.001": 30.2443298649,
			"0.0": 30.518879435,
			"0.001": 20.5637894914,
			"0.002": 8.54993592095,
			"0.003": 8.44461041486,
			"0.004": 7.66764910151,
			"0.005": 9.08695632589,
			"0.006": 3.3349606766,
			"0.007": 1.86509058391,
			"0.008": 1.22275691793,
			"0.009": 2.30367370752,
			"0.01": 1.97421874443,
			"0.011": 2.48952972037,
			"0.012": 3.88641767298,
			"0.013": 1.73023812899,
			"0.014": 0.369734960811,
			"0.015": 0.0,
			"0.016": 0.0,
			"0.017": 0.0,
			"0.018": 0.0,
			"0.019": 0.0,
			"0.02": 0.0,
			"0.021": 0.0,
			"0.022": 0.0,
			"0.023": 0.0,
			"0.024": 0.0,
			"0.025": 0.0
		}
	}
}
