{
	 "smiles": "CC1=C(O)C=C(O)C=C1", 
	 "Tm": 379.15, 
	 "num_atms": 17, 
	 "gaussian": { 
		 "optdone": 1, 
		 "sigma_profile": "yes", 
		 "theory": "DFT", 
		 "functional": "B3LYP", 
		 "basiset": "6-31G**", 
		 "properties": { 
			 "R2extent": 1361.1357, 
			 "electric_dipole_moment_norm": 2.466418606, 
			 "electric_quadrupole_moment_norm": 9.60372704579, 
			 "total_energy": -422.011188165, 
			 "HOMO_LUMO_gap": 0.21731, 
			 "cosmo_polarized_energy": -11.81, 
			 "cosmo_cavitation_energy": 20.49, 
			 "cosmo_dispersion_energy": -15.52, 
			 "cosmo_repulsion_energy": 1.27, 
			 "cosmo_total_nonelectrostatic_energy": 6.24, 
			 "SMD_solvation_energy": 4.14 
		},
		"coords": [
			{
				"x": 2.2912991274,
				"y": 0.4978572532,
				"z": -2.2538409871,
				"element": "C" 
			},
			{
				"x": 1.2248531252,
				"y": 0.3905225074,
				"z": -1.1897444701,
				"element": "C" 
			},
			{
				"x": 0.402493044,
				"y": 1.4928109843,
				"z": -0.8807888291,
				"element": "C" 
			},
			{
				"x": 0.5315307862,
				"y": 2.6941571644,
				"z": -1.5225752737,
				"element": "O" 
			},
			{
				"x": -0.5870360735,
				"y": 1.412594422,
				"z": 0.0982051374,
				"element": "C" 
			},
			{
				"x": -0.773869185,
				"y": 0.2168358746,
				"z": 0.7927197305,
				"element": "C" 
			},
			{
				"x": -1.7579003311,
				"y": 0.193559987,
				"z": 1.7419015814,
				"element": "O" 
			},
			{
				"x": 0.0266381322,
				"y": -0.895128134,
				"z": 0.5087616722,
				"element": "C" 
			},
			{
				"x": 1.0095651692,
				"y": -0.7900145052,
				"z": -0.4746579126,
				"element": "C" 
			},
			{
				"x": 1.8736117543,
				"y": 0.7381947549,
				"z": -3.2418647574,
				"element": "H" 
			},
			{
				"x": 3.0412475918,
				"y": 1.2663332487,
				"z": -2.0183902024,
				"element": "H" 
			},
			{
				"x": 2.8290873298,
				"y": -0.4477030626,
				"z": -2.3589059216,
				"element": "H" 
			},
			{
				"x": 1.2412145089,
				"y": 2.6335306966,
				"z": -2.1738495021,
				"element": "H" 
			},
			{
				"x": -1.2054051535,
				"y": 2.2755456119,
				"z": 0.3158231986,
				"element": "H" 
			},
			{
				"x": -1.7825153463,
				"y": -0.6839660218,
				"z": 2.1443519359,
				"element": "H" 
			},
			{
				"x": -0.1158051277,
				"y": -1.8287136835,
				"z": 1.0477130203,
				"element": "H" 
			},
			{
				"x": 1.6310906479,
				"y": -1.6546170979,
				"z": -0.6945584203,
				"element": "H" 
			}
		],
		 "valence_orbital": [ 
			{
				"type": "occ",
				"energy": -0.3605,
				"method": "rhf"
			},
			{
				"type": "occ",
				"energy": -0.33393,
				"method": "rhf"
			},
			{
				"type": "occ",
				"energy": -0.30546,
				"method": "rhf"
			},
			{
				"type": "occ",
				"energy": -0.22592,
				"method": "rhf"
			},
			{
				"type": "occ",
				"energy": -0.20716,
				"method": "rhf"
			},
			{
				"type": "unocc",
				"energy": 0.01015,
				"method": "rhf"
			},
			{
				"type": "unocc",
				"energy": 0.02408,
				"method": "rhf"
			},
			{
				"type": "unocc",
				"energy": 0.06718,
				"method": "rhf"
			},
			{
				"type": "unocc",
				"energy": 0.07624,
				"method": "rhf"
			},
			{
				"type": "unocc",
				"energy": 0.10356,
				"method": "rhf"
			}
		],
		"cosmo_sigma_profile": { 
			"-0.025": 0.0,
			"-0.024": 0.0,
			"-0.023": 0.0,
			"-0.022": 0.0,
			"-0.021": 0.0,
			"-0.02": 0.0,
			"-0.019": 0.0,
			"-0.018": 0.191853402368,
			"-0.017": 0.931309553242,
			"-0.016": 1.29494310522,
			"-0.015": 1.7184911319,
			"-0.014": 1.70206005542,
			"-0.013": 2.24370898979,
			"-0.012": 1.7274011132,
			"-0.011": 1.37765165299,
			"-0.01": 1.90434277012,
			"-0.009": 3.29234621405,
			"-0.008": 2.30809897961,
			"-0.007": 2.75504285807,
			"-0.006": 4.15950803486,
			"-0.005": 10.0313121361,
			"-0.004": 10.5594856774,
			"-0.003": 8.90946712222,
			"-0.002": 10.0168812742,
			"-0.001": 9.57278761308,
			"0.0": 9.950385153,
			"0.001": 7.04209108616,
			"0.002": 6.24481362016,
			"0.003": 7.65138480591,
			"0.004": 10.8777399175,
			"0.005": 15.2210616289,
			"0.006": 10.6560262494,
			"0.007": 3.77912419049,
			"0.008": 3.17009607079,
			"0.009": 3.54165313338,
			"0.01": 2.91793670975,
			"0.011": 4.01628535688,
			"0.012": 2.24628859493,
			"0.013": 0.0,
			"0.014": 0.0,
			"0.015": 0.0,
			"0.016": 0.0,
			"0.017": 0.0,
			"0.018": 0.0,
			"0.019": 0.0,
			"0.02": 0.0,
			"0.021": 0.0,
			"0.022": 0.0,
			"0.023": 0.0,
			"0.024": 0.0,
			"0.025": 0.0
		}
	}
}
