{
	 "smiles": "SC1=NN=C(COC2=CC=C(Cl)C=C2)N1CC1=CC=CC=C1", 
	 "Tm": 485.15, 
	 "num_atms": 36, 
	 "gaussian": { 
		 "optdone": 1, 
		 "sigma_profile": "yes", 
		 "theory": "DFT", 
		 "functional": "B3LYP", 
		 "basiset": "6-31G**", 
		 "properties": { 
			 "R2extent": 9446.57, 
			 "electric_dipole_moment_norm": 5.09924049737, 
			 "electric_quadrupole_moment_norm": 9.33815448041, 
			 "total_energy": -1715.96216815, 
			 "HOMO_LUMO_gap": 0.20302, 
			 "cosmo_polarized_energy": -17.82, 
			 "cosmo_cavitation_energy": 43.71, 
			 "cosmo_dispersion_energy": -29.85, 
			 "cosmo_repulsion_energy": 2.25, 
			 "cosmo_total_nonelectrostatic_energy": 16.11, 
			 "SMD_solvation_energy": 4.72 
		},
		"coords": [
			{
				"x": 2.8913083405,
				"y": -2.4112982878,
				"z": 0.7911245615,
				"element": "S" 
			},
			{
				"x": 2.5435880626,
				"y": -0.714142281,
				"z": 0.447758525,
				"element": "C" 
			},
			{
				"x": 3.2152297671,
				"y": 0.3137207515,
				"z": 0.9198864296,
				"element": "N" 
			},
			{
				"x": 2.6325832955,
				"y": 1.4459011423,
				"z": 0.3929602422,
				"element": "N" 
			},
			{
				"x": 1.6372954218,
				"y": 1.0697459817,
				"z": -0.3750643699,
				"element": "C" 
			},
			{
				"x": 0.7805998912,
				"y": 2.0125090285,
				"z": -1.159726068,
				"element": "C" 
			},
			{
				"x": -0.6131300165,
				"y": 1.9357193519,
				"z": -0.85083193,
				"element": "O" 
			},
			{
				"x": -1.0849972631,
				"y": 2.5618005348,
				"z": 0.2796062967,
				"element": "C" 
			},
			{
				"x": -0.2815526049,
				"y": 3.1302611551,
				"z": 1.2744554058,
				"element": "C" 
			},
			{
				"x": -0.8842134319,
				"y": 3.7488362776,
				"z": 2.3739704784,
				"element": "C" 
			},
			{
				"x": -2.2710304133,
				"y": 3.7909844042,
				"z": 2.4774022763,
				"element": "C" 
			},
			{
				"x": -3.0207125091,
				"y": 4.5697290815,
				"z": 3.8658029807,
				"element": "Cl" 
			},
			{
				"x": -3.0768771543,
				"y": 3.216473856,
				"z": 1.4920641615,
				"element": "C" 
			},
			{
				"x": -2.4812146066,
				"y": 2.6037658022,
				"z": 0.39528654,
				"element": "C" 
			},
			{
				"x": 1.5275228539,
				"y": -0.305524704,
				"z": -0.3801535949,
				"element": "N" 
			},
			{
				"x": 0.5800633748,
				"y": -1.1403531563,
				"z": -1.1294058259,
				"element": "C" 
			},
			{
				"x": -0.347561683,
				"y": -1.9644029853,
				"z": -0.2546890622,
				"element": "C" 
			},
			{
				"x": -1.1160229949,
				"y": -1.3603522131,
				"z": 0.7494768662,
				"element": "C" 
			},
			{
				"x": -1.9916593432,
				"y": -2.1245696576,
				"z": 1.5187152913,
				"element": "C" 
			},
			{
				"x": -2.1160036407,
				"y": -3.4975396125,
				"z": 1.2891726084,
				"element": "C" 
			},
			{
				"x": -1.3569740863,
				"y": -4.1039233472,
				"z": 0.288719687,
				"element": "C" 
			},
			{
				"x": -0.4740459863,
				"y": -3.3396142535,
				"z": -0.477234041,
				"element": "C" 
			},
			{
				"x": 4.0903180224,
				"y": -2.1153175332,
				"z": 1.3291789213,
				"element": "H" 
			},
			{
				"x": 1.1745891457,
				"y": 3.0215967691,
				"z": -1.0019888428,
				"element": "H" 
			},
			{
				"x": 0.8322356122,
				"y": 1.7910345475,
				"z": -2.2305008487,
				"element": "H" 
			},
			{
				"x": 0.7997712194,
				"y": 3.0794766713,
				"z": 1.2266176346,
				"element": "H" 
			},
			{
				"x": -0.2672461395,
				"y": 4.1888507732,
				"z": 3.1495770319,
				"element": "H" 
			},
			{
				"x": -4.156967483,
				"y": 3.253952899,
				"z": 1.5807947736,
				"element": "H" 
			},
			{
				"x": -3.0839569023,
				"y": 2.1574976939,
				"z": -0.3886918683,
				"element": "H" 
			},
			{
				"x": 1.1514190752,
				"y": -1.7977451012,
				"z": -1.7931255765,
				"element": "H" 
			},
			{
				"x": -0.0018599374,
				"y": -0.4594932756,
				"z": -1.7552190457,
				"element": "H" 
			},
			{
				"x": -1.0271598787,
				"y": -0.2939547335,
				"z": 0.9322686868,
				"element": "H" 
			},
			{
				"x": -2.579489317,
				"y": -1.6469417694,
				"z": 2.2970241512,
				"element": "H" 
			},
			{
				"x": -2.7994146641,
				"y": -4.0903713712,
				"z": 1.8900403947,
				"element": "H" 
			},
			{
				"x": -1.4439618962,
				"y": -5.1711159832,
				"z": 0.1070780048,
				"element": "H" 
			},
			{
				"x": 0.1221278699,
				"y": -3.8166964557,
				"z": -1.2512508758,
				"element": "H" 
			}
		],
		 "valence_orbital": [ 
			{
				"type": "occ",
				"energy": -0.26347,
				"method": "rhf"
			},
			{
				"type": "occ",
				"energy": -0.26213,
				"method": "rhf"
			},
			{
				"type": "occ",
				"energy": -0.25864,
				"method": "rhf"
			},
			{
				"type": "occ",
				"energy": -0.2362,
				"method": "rhf"
			},
			{
				"type": "occ",
				"energy": -0.22677,
				"method": "rhf"
			},
			{
				"type": "unocc",
				"energy": -0.02375,
				"method": "rhf"
			},
			{
				"type": "unocc",
				"energy": -0.01602,
				"method": "rhf"
			},
			{
				"type": "unocc",
				"energy": -0.0142,
				"method": "rhf"
			},
			{
				"type": "unocc",
				"energy": -0.00292,
				"method": "rhf"
			},
			{
				"type": "unocc",
				"energy": -0.00118,
				"method": "rhf"
			}
		],
		"cosmo_sigma_profile": { 
			"-0.025": 0.0,
			"-0.024": 0.0,
			"-0.023": 0.0,
			"-0.022": 0.0,
			"-0.021": 0.0,
			"-0.02": 0.0,
			"-0.019": 0.0,
			"-0.018": 0.0,
			"-0.017": 0.0,
			"-0.016": 0.0,
			"-0.015": 0.0,
			"-0.014": 0.0,
			"-0.013": 0.017004872441,
			"-0.012": 1.18812878963,
			"-0.011": 1.54917471716,
			"-0.01": 2.19759704572,
			"-0.009": 3.27557737568,
			"-0.008": 6.90737346659,
			"-0.007": 14.9468259484,
			"-0.006": 22.5224015141,
			"-0.005": 26.7617066162,
			"-0.004": 22.233875844,
			"-0.003": 20.3764186711,
			"-0.002": 19.7616840815,
			"-0.001": 20.2535650475,
			"0.0": 23.6302802034,
			"0.001": 24.3270223873,
			"0.002": 31.3186160109,
			"0.003": 31.2444114968,
			"0.004": 27.6269408726,
			"0.005": 23.7347854617,
			"0.006": 7.89401585187,
			"0.007": 3.91943446783,
			"0.008": 2.01125853068,
			"0.009": 1.28485186717,
			"0.01": 1.63646254629,
			"0.011": 2.62670391848,
			"0.012": 2.8287752612,
			"0.013": 3.09478999589,
			"0.014": 2.99512930631,
			"0.015": 1.67011104666,
			"0.016": 1.13182395329,
			"0.017": 0.135867497506,
			"0.018": 0.0,
			"0.019": 0.0,
			"0.02": 0.0,
			"0.021": 0.0,
			"0.022": 0.0,
			"0.023": 0.0,
			"0.024": 0.0,
			"0.025": 0.0
		}
	}
}
