{
	 "smiles": "CCCCCCCCCCC(=O)CCCCC", 
	 "Tm": 310.15, 
	 "num_atms": 49, 
	 "gaussian": { 
		 "optdone": 1, 
		 "sigma_profile": "yes", 
		 "theory": "DFT", 
		 "functional": "B3LYP", 
		 "basiset": "6-31G**", 
		 "properties": { 
			 "R2extent": 9285.6452, 
			 "electric_dipole_moment_norm": 2.41191956748, 
			 "electric_quadrupole_moment_norm": 4.74571360177, 
			 "total_energy": -704.255602599, 
			 "HOMO_LUMO_gap": 0.22702, 
			 "cosmo_polarized_energy": -6.92, 
			 "cosmo_cavitation_energy": 48.07, 
			 "cosmo_dispersion_energy": -32.17, 
			 "cosmo_repulsion_energy": 2.63, 
			 "cosmo_total_nonelectrostatic_energy": 18.54, 
			 "SMD_solvation_energy": 6.94 
		},
		"coords": [
			{
				"x": 4.4908735533,
				"y": 3.504107271,
				"z": -2.025472012,
				"element": "C" 
			},
			{
				"x": 4.3606181248,
				"y": 1.9815892553,
				"z": -1.8990924477,
				"element": "C" 
			},
			{
				"x": 5.1019625978,
				"y": 1.3796114108,
				"z": -0.6919763085,
				"element": "C" 
			},
			{
				"x": 4.6174627418,
				"y": 1.8396321522,
				"z": 0.6943817789,
				"element": "C" 
			},
			{
				"x": 3.1718271635,
				"y": 1.4468668381,
				"z": 1.030536298,
				"element": "C" 
			},
			{
				"x": 2.7599128674,
				"y": 1.8483563302,
				"z": 2.4545422196,
				"element": "C" 
			},
			{
				"x": 1.3538107008,
				"y": 1.385238271,
				"z": 2.8710965643,
				"element": "C" 
			},
			{
				"x": 0.2144312933,
				"y": 2.0213070931,
				"z": 2.0608345692,
				"element": "C" 
			},
			{
				"x": -1.1925820843,
				"y": 1.7418027325,
				"z": 2.6153877267,
				"element": "C" 
			},
			{
				"x": -1.588921561,
				"y": 0.2461323255,
				"z": 2.7088532776,
				"element": "C" 
			},
			{
				"x": -1.5220625516,
				"y": -0.4567011921,
				"z": 1.3588929082,
				"element": "C" 
			},
			{
				"x": -0.4958369614,
				"y": -0.9957319185,
				"z": 0.9792541565,
				"element": "O" 
			},
			{
				"x": -2.7818622842,
				"y": -0.4324785906,
				"z": 0.5030334547,
				"element": "C" 
			},
			{
				"x": -2.5783305273,
				"y": -0.9619455707,
				"z": -0.9196638136,
				"element": "C" 
			},
			{
				"x": -3.8435970671,
				"y": -0.9521996253,
				"z": -1.8041145032,
				"element": "C" 
			},
			{
				"x": -4.6999527226,
				"y": -2.2313676473,
				"z": -1.7741542593,
				"element": "C" 
			},
			{
				"x": -5.3404783838,
				"y": -2.5805684355,
				"z": -0.4255801442,
				"element": "C" 
			},
			{
				"x": 4.0362605436,
				"y": 4.0255897718,
				"z": -1.1765706855,
				"element": "H" 
			},
			{
				"x": 3.9993027813,
				"y": 3.8681990791,
				"z": -2.9338655474,
				"element": "H" 
			},
			{
				"x": 5.5433720068,
				"y": 3.8079022479,
				"z": -2.0730600095,
				"element": "H" 
			},
			{
				"x": 4.7536945057,
				"y": 1.5139381319,
				"z": -2.8110331686,
				"element": "H" 
			},
			{
				"x": 3.2988280211,
				"y": 1.7074641875,
				"z": -1.8588123819,
				"element": "H" 
			},
			{
				"x": 6.1712626539,
				"y": 1.6153022773,
				"z": -0.78578715,
				"element": "H" 
			},
			{
				"x": 5.0272856845,
				"y": 0.2847958143,
				"z": -0.7443878743,
				"element": "H" 
			},
			{
				"x": 4.7292464369,
				"y": 2.9285869816,
				"z": 0.7872056622,
				"element": "H" 
			},
			{
				"x": 5.2852788605,
				"y": 1.4083713479,
				"z": 1.4528291806,
				"element": "H" 
			},
			{
				"x": 2.4873120122,
				"y": 1.9056912984,
				"z": 0.3067448882,
				"element": "H" 
			},
			{
				"x": 3.0520600331,
				"y": 0.3603647423,
				"z": 0.9131645296,
				"element": "H" 
			},
			{
				"x": 3.4893077223,
				"y": 1.4313594275,
				"z": 3.1624885032,
				"element": "H" 
			},
			{
				"x": 2.8298484072,
				"y": 2.9412173162,
				"z": 2.5586462897,
				"element": "H" 
			},
			{
				"x": 1.2952703474,
				"y": 0.2941581483,
				"z": 2.7773261736,
				"element": "H" 
			},
			{
				"x": 1.2075672749,
				"y": 1.6188408824,
				"z": 3.935546375,
				"element": "H" 
			},
			{
				"x": 0.3548643983,
				"y": 3.110989379,
				"z": 2.034571154,
				"element": "H" 
			},
			{
				"x": 0.2704296386,
				"y": 1.6795683182,
				"z": 1.0210540101,
				"element": "H" 
			},
			{
				"x": -1.2770887688,
				"y": 2.1681644867,
				"z": 3.6233094254,
				"element": "H" 
			},
			{
				"x": -1.9324428691,
				"y": 2.2703476128,
				"z": 1.9999667644,
				"element": "H" 
			},
			{
				"x": -2.6038491006,
				"y": 0.1779926188,
				"z": 3.1185618654,
				"element": "H" 
			},
			{
				"x": -0.9118270993,
				"y": -0.2778257129,
				"z": 3.3893169444,
				"element": "H" 
			},
			{
				"x": -3.1656575611,
				"y": 0.5984759259,
				"z": 0.4853575495,
				"element": "H" 
			},
			{
				"x": -3.548132934,
				"y": -1.0036958763,
				"z": 1.0450239901,
				"element": "H" 
			},
			{
				"x": -1.7996369797,
				"y": -0.3518522513,
				"z": -1.3911854006,
				"element": "H" 
			},
			{
				"x": -2.158579077,
				"y": -1.973459653,
				"z": -0.870052516,
				"element": "H" 
			},
			{
				"x": -4.4709243963,
				"y": -0.0870367571,
				"z": -1.5444727013,
				"element": "H" 
			},
			{
				"x": -3.5353342104,
				"y": -0.7913950095,
				"z": -2.8446011964,
				"element": "H" 
			},
			{
				"x": -5.4946841809,
				"y": -2.126190099,
				"z": -2.5242172927,
				"element": "H" 
			},
			{
				"x": -4.0820110282,
				"y": -3.0763211918,
				"z": -2.107247147,
				"element": "H" 
			},
			{
				"x": -5.9367592046,
				"y": -1.7460046574,
				"z": -0.0379576776,
				"element": "H" 
			},
			{
				"x": -6.00657088,
				"y": -3.4445195214,
				"z": -0.5227437579,
				"element": "H" 
			},
			{
				"x": -4.5902679377,
				"y": -2.8365699662,
				"z": 0.3296217361,
				"element": "H" 
			}
		],
		 "valence_orbital": [ 
			{
				"type": "occ",
				"energy": -0.30827,
				"method": "rhf"
			},
			{
				"type": "occ",
				"energy": -0.30629,
				"method": "rhf"
			},
			{
				"type": "occ",
				"energy": -0.29894,
				"method": "rhf"
			},
			{
				"type": "occ",
				"energy": -0.29468,
				"method": "rhf"
			},
			{
				"type": "occ",
				"energy": -0.23758,
				"method": "rhf"
			},
			{
				"type": "unocc",
				"energy": -0.01056,
				"method": "rhf"
			},
			{
				"type": "unocc",
				"energy": 0.07598,
				"method": "rhf"
			},
			{
				"type": "unocc",
				"energy": 0.08662,
				"method": "rhf"
			},
			{
				"type": "unocc",
				"energy": 0.09116,
				"method": "rhf"
			},
			{
				"type": "unocc",
				"energy": 0.11052,
				"method": "rhf"
			}
		],
		"cosmo_sigma_profile": { 
			"-0.025": 0.0,
			"-0.024": 0.0,
			"-0.023": 0.0,
			"-0.022": 0.0,
			"-0.021": 0.0,
			"-0.02": 0.0,
			"-0.019": 0.0,
			"-0.018": 0.0,
			"-0.017": 0.0,
			"-0.016": 0.0,
			"-0.015": 0.0,
			"-0.014": 0.0,
			"-0.013": 0.0,
			"-0.012": 0.0,
			"-0.011": 0.0,
			"-0.01": 0.0,
			"-0.009": 0.0,
			"-0.008": 0.0,
			"-0.007": 0.0,
			"-0.006": 0.311353718781,
			"-0.005": 5.21546759311,
			"-0.004": 12.1885257747,
			"-0.003": 19.2161474727,
			"-0.002": 55.5296459437,
			"-0.001": 79.5983301717,
			"0.0": 79.934481392,
			"0.001": 63.4966120141,
			"0.002": 25.6793006214,
			"0.003": 3.74180584512,
			"0.004": 2.5491128612,
			"0.005": 2.20462484353,
			"0.006": 2.07813257437,
			"0.007": 1.96293579376,
			"0.008": 2.56468157278,
			"0.009": 1.62953557943,
			"0.01": 2.01391434261,
			"0.011": 2.29418131946,
			"0.012": 3.16503574712,
			"0.013": 2.42280386566,
			"0.014": 0.23900073175,
			"0.015": 0.0,
			"0.016": 0.0,
			"0.017": 0.0,
			"0.018": 0.0,
			"0.019": 0.0,
			"0.02": 0.0,
			"0.021": 0.0,
			"0.022": 0.0,
			"0.023": 0.0,
			"0.024": 0.0,
			"0.025": 0.0
		}
	}
}
