{
	 "smiles": "CC1=CC2=C(C(C3=CC=CC=C3)C(C#N)=C(N)O2)C(=O)N1CC1=CC=CC=C1", 
	 "Tm": 549.15, 
	 "num_atms": 47, 
	 "gaussian": { 
		 "optdone": 1, 
		 "sigma_profile": "yes", 
		 "theory": "DFT", 
		 "functional": "B3LYP", 
		 "basiset": "6-31G**", 
		 "properties": { 
			 "R2extent": 11995.5066, 
			 "electric_dipole_moment_norm": 7.99854496893, 
			 "electric_quadrupole_moment_norm": 25.1099485282, 
			 "total_energy": -1202.59707685, 
			 "HOMO_LUMO_gap": 0.16888, 
			 "cosmo_polarized_energy": -24.35, 
			 "cosmo_cavitation_energy": 50.7, 
			 "cosmo_dispersion_energy": -34.2, 
			 "cosmo_repulsion_energy": 2.58, 
			 "cosmo_total_nonelectrostatic_energy": 19.08, 
			 "SMD_solvation_energy": 9.94 
		},
		"coords": [
			{
				"x": 1.6365655139,
				"y": -0.5684507681,
				"z": -2.6715135972,
				"element": "C" 
			},
			{
				"x": 0.9428596251,
				"y": -0.0521861398,
				"z": -1.4413971455,
				"element": "C" 
			},
			{
				"x": 0.6734787782,
				"y": 1.2825406702,
				"z": -1.2935287774,
				"element": "C" 
			},
			{
				"x": 0.041474067,
				"y": 1.7305578218,
				"z": -0.1093975807,
				"element": "C" 
			},
			{
				"x": -0.3016321088,
				"y": 0.8859596769,
				"z": 0.9074271167,
				"element": "C" 
			},
			{
				"x": -0.9165911041,
				"y": 1.373797389,
				"z": 2.2024650175,
				"element": "C" 
			},
			{
				"x": 0.066166846,
				"y": 1.2451992361,
				"z": 3.3761647186,
				"element": "C" 
			},
			{
				"x": -0.0860265711,
				"y": 0.2156781629,
				"z": 4.3111669429,
				"element": "C" 
			},
			{
				"x": 0.8083210195,
				"y": 0.0842449321,
				"z": 5.3748489854,
				"element": "C" 
			},
			{
				"x": 1.869844198,
				"y": 0.9792258205,
				"z": 5.5144810033,
				"element": "C" 
			},
			{
				"x": 2.0324291108,
				"y": 2.0067492424,
				"z": 4.5825669367,
				"element": "C" 
			},
			{
				"x": 1.1359335874,
				"y": 2.1370897145,
				"z": 3.5222863708,
				"element": "C" 
			},
			{
				"x": -1.4059292349,
				"y": 2.8004586265,
				"z": 1.9974534196,
				"element": "C" 
			},
			{
				"x": -2.2533880202,
				"y": 3.4080609038,
				"z": 2.9583810765,
				"element": "C" 
			},
			{
				"x": -2.951296195,
				"y": 3.9445451203,
				"z": 3.725226454,
				"element": "N" 
			},
			{
				"x": -1.0255958511,
				"y": 3.5557841465,
				"z": 0.9280477791,
				"element": "C" 
			},
			{
				"x": -1.415249257,
				"y": 4.8373120825,
				"z": 0.655997398,
				"element": "N" 
			},
			{
				"x": -0.2172633518,
				"y": 3.0843995507,
				"z": -0.0668928536,
				"element": "O" 
			},
			{
				"x": -0.0900746152,
				"y": -0.5350237156,
				"z": 0.7390825017,
				"element": "C" 
			},
			{
				"x": -0.4608005378,
				"y": -1.3842413992,
				"z": 1.5560061872,
				"element": "O" 
			},
			{
				"x": 0.5758967619,
				"y": -0.9394741663,
				"z": -0.4530218892,
				"element": "N" 
			},
			{
				"x": 0.8469465432,
				"y": -2.391539191,
				"z": -0.5678408178,
				"element": "C" 
			},
			{
				"x": -0.1778446956,
				"y": -3.1622054934,
				"z": -1.3811113662,
				"element": "C" 
			},
			{
				"x": -1.529997417,
				"y": -3.1681245087,
				"z": -1.0065593826,
				"element": "C" 
			},
			{
				"x": -2.4605366941,
				"y": -3.8990826278,
				"z": -1.7437180695,
				"element": "C" 
			},
			{
				"x": -2.0557840502,
				"y": -4.6418062099,
				"z": -2.8564372376,
				"element": "C" 
			},
			{
				"x": -0.7114066982,
				"y": -4.6530078623,
				"z": -3.2267334793,
				"element": "C" 
			},
			{
				"x": 0.2202688945,
				"y": -3.9149226082,
				"z": -2.4924552401,
				"element": "C" 
			},
			{
				"x": 1.0506882982,
				"y": -1.346580067,
				"z": -3.1687811118,
				"element": "H" 
			},
			{
				"x": 1.7917222064,
				"y": 0.2515849007,
				"z": -3.3744436299,
				"element": "H" 
			},
			{
				"x": 2.6179795366,
				"y": -0.9943265413,
				"z": -2.4323970435,
				"element": "H" 
			},
			{
				"x": 0.9333176368,
				"y": 1.9909612459,
				"z": -2.06875441,
				"element": "H" 
			},
			{
				"x": -1.771102124,
				"y": 0.7260544714,
				"z": 2.4296021751,
				"element": "H" 
			},
			{
				"x": -0.8992051189,
				"y": -0.4930578645,
				"z": 4.1916717974,
				"element": "H" 
			},
			{
				"x": 0.6740015705,
				"y": -0.7185323872,
				"z": 6.0944846483,
				"element": "H" 
			},
			{
				"x": 2.5643520595,
				"y": 0.8791833292,
				"z": 6.3438793234,
				"element": "H" 
			},
			{
				"x": 2.8545417447,
				"y": 2.7099978282,
				"z": 4.6843169846,
				"element": "H" 
			},
			{
				"x": 1.2625178334,
				"y": 2.9462275866,
				"z": 2.8077422728,
				"element": "H" 
			},
			{
				"x": -1.8110806574,
				"y": 5.3627037056,
				"z": 1.4224475042,
				"element": "H" 
			},
			{
				"x": -0.8348349929,
				"y": 5.352291444,
				"z": 0.0110419583,
				"element": "H" 
			},
			{
				"x": 1.8446765089,
				"y": -2.5255272121,
				"z": -0.9895314094,
				"element": "H" 
			},
			{
				"x": 0.8540743238,
				"y": -2.757271451,
				"z": 0.4603471046,
				"element": "H" 
			},
			{
				"x": -1.8379919548,
				"y": -2.612763008,
				"z": -0.1264177144,
				"element": "H" 
			},
			{
				"x": -3.5045832829,
				"y": -3.8962247182,
				"z": -1.4435552177,
				"element": "H" 
			},
			{
				"x": -2.7837388319,
				"y": -5.211870605,
				"z": -3.4264647852,
				"element": "H" 
			},
			{
				"x": -0.3852748582,
				"y": -5.23261516,
				"z": -4.085681793,
				"element": "H" 
			},
			{
				"x": 1.2684715592,
				"y": -3.9320739038,
				"z": -2.7830011252,
				"element": "H" 
			}
		],
		 "valence_orbital": [ 
			{
				"type": "occ",
				"energy": -0.2496,
				"method": "rhf"
			},
			{
				"type": "occ",
				"energy": -0.24042,
				"method": "rhf"
			},
			{
				"type": "occ",
				"energy": -0.23529,
				"method": "rhf"
			},
			{
				"type": "occ",
				"energy": -0.21738,
				"method": "rhf"
			},
			{
				"type": "occ",
				"energy": -0.21394,
				"method": "rhf"
			},
			{
				"type": "unocc",
				"energy": -0.04506,
				"method": "rhf"
			},
			{
				"type": "unocc",
				"energy": -0.01175,
				"method": "rhf"
			},
			{
				"type": "unocc",
				"energy": -0.00757,
				"method": "rhf"
			},
			{
				"type": "unocc",
				"energy": 0.0001,
				"method": "rhf"
			},
			{
				"type": "unocc",
				"energy": 0.00709,
				"method": "rhf"
			}
		],
		"cosmo_sigma_profile": { 
			"-0.025": 0.0,
			"-0.024": 0.0,
			"-0.023": 0.0,
			"-0.022": 0.0,
			"-0.021": 0.0,
			"-0.02": 0.0,
			"-0.019": 0.0,
			"-0.018": 0.0,
			"-0.017": 0.0,
			"-0.016": 0.0,
			"-0.015": 0.905355813015,
			"-0.014": 1.98315926146,
			"-0.013": 2.53247608608,
			"-0.012": 1.86000043422,
			"-0.011": 2.4626694305,
			"-0.01": 1.41587403747,
			"-0.009": 2.32945235153,
			"-0.008": 3.6829366828,
			"-0.007": 8.52815902122,
			"-0.006": 15.6066684075,
			"-0.005": 29.3375481026,
			"-0.004": 34.2943106194,
			"-0.003": 37.4409832458,
			"-0.002": 31.1591138632,
			"-0.001": 31.3417340741,
			"0.0": 28.0459012968,
			"0.001": 27.5209723333,
			"0.002": 23.9290764475,
			"0.003": 23.643862625,
			"0.004": 21.0200913247,
			"0.005": 21.7661298914,
			"0.006": 16.9537322941,
			"0.007": 5.57429187531,
			"0.008": 5.91777812041,
			"0.009": 4.51019433302,
			"0.01": 5.50211735699,
			"0.011": 4.6341982991,
			"0.012": 4.83311797757,
			"0.013": 4.57546541118,
			"0.014": 2.52091422215,
			"0.015": 0.134816185499,
			"0.016": 0.0,
			"0.017": 0.0,
			"0.018": 0.0,
			"0.019": 0.0,
			"0.02": 0.0,
			"0.021": 0.0,
			"0.022": 0.0,
			"0.023": 0.0,
			"0.024": 0.0,
			"0.025": 0.0
		}
	}
}
