{
	 "smiles": "COC1=C(CC=C(C)CCC(=O)OCCN2CCOCC2)C(O)=C2C(=O)OCC2=C1C", 
	 "Tm": 366.65, 
	 "num_atms": 62, 
	 "gaussian": { 
		 "optdone": 1, 
		 "sigma_profile": "yes", 
		 "theory": "DFT", 
		 "functional": "B3LYP", 
		 "basiset": "6-31G**", 
		 "properties": { 
			 "R2extent": 14029.212, 
			 "electric_dipole_moment_norm": 7.01276824371, 
			 "electric_quadrupole_moment_norm": 20.6717667634, 
			 "total_energy": -1476.41698348, 
			 "HOMO_LUMO_gap": 0.14355, 
			 "cosmo_polarized_energy": -28.42, 
			 "cosmo_cavitation_energy": 60.12, 
			 "cosmo_dispersion_energy": -37.71, 
			 "cosmo_repulsion_energy": 2.79, 
			 "cosmo_total_nonelectrostatic_energy": 25.21, 
			 "SMD_solvation_energy": 8.9 
		},
		"coords": [
			{
				"x": -2.9615239584,
				"y": -2.7618966086,
				"z": 3.1931990611,
				"element": "C" 
			},
			{
				"x": -3.1757344057,
				"y": -3.0491087207,
				"z": 1.8062771626,
				"element": "O" 
			},
			{
				"x": -3.1514020136,
				"y": -1.9709769847,
				"z": 0.9481404086,
				"element": "C" 
			},
			{
				"x": -2.0381432312,
				"y": -1.8775804565,
				"z": 0.08088486,
				"element": "C" 
			},
			{
				"x": -0.9301067224,
				"y": -2.9145973732,
				"z": 0.1840959947,
				"element": "C" 
			},
			{
				"x": -0.0505624632,
				"y": -2.8563085603,
				"z": 1.4269945414,
				"element": "C" 
			},
			{
				"x": 0.7345587929,
				"y": -1.8541338179,
				"z": 1.8561331476,
				"element": "C" 
			},
			{
				"x": 1.5723689867,
				"y": -2.0245853922,
				"z": 3.1029145397,
				"element": "C" 
			},
			{
				"x": 0.8697322879,
				"y": -0.5114265052,
				"z": 1.1657046123,
				"element": "C" 
			},
			{
				"x": 0.084315469,
				"y": 0.610059331,
				"z": 1.8913213792,
				"element": "C" 
			},
			{
				"x": 0.3114173711,
				"y": 1.9910681073,
				"z": 1.3023050821,
				"element": "C" 
			},
			{
				"x": 0.8053173322,
				"y": 2.9204560422,
				"z": 1.9068914389,
				"element": "O" 
			},
			{
				"x": -0.1198177713,
				"y": 2.0618067548,
				"z": 0.0238715523,
				"element": "O" 
			},
			{
				"x": -0.0042587775,
				"y": 3.3580478291,
				"z": -0.6263314563,
				"element": "C" 
			},
			{
				"x": 1.3751176171,
				"y": 3.5842665033,
				"z": -1.2523212022,
				"element": "C" 
			},
			{
				"x": 1.4356255522,
				"y": 3.2154722816,
				"z": -2.6675172001,
				"element": "N" 
			},
			{
				"x": 1.1421962287,
				"y": 1.8108225672,
				"z": -2.9886719341,
				"element": "C" 
			},
			{
				"x": 2.3261218863,
				"y": 0.8819654198,
				"z": -2.7056094391,
				"element": "C" 
			},
			{
				"x": 3.5002925473,
				"y": 1.3169335635,
				"z": -3.3891152088,
				"element": "O" 
			},
			{
				"x": 3.8470974145,
				"y": 2.6510995362,
				"z": -3.0309119016,
				"element": "C" 
			},
			{
				"x": 2.6874898992,
				"y": 3.613029565,
				"z": -3.3200999255,
				"element": "C" 
			},
			{
				"x": -2.0131979934,
				"y": -0.8460511789,
				"z": -0.8758689162,
				"element": "C" 
			},
			{
				"x": -1.0287140529,
				"y": -0.6998301052,
				"z": -1.7992774176,
				"element": "O" 
			},
			{
				"x": -3.0531035768,
				"y": 0.09253302,
				"z": -0.8763533211,
				"element": "C" 
			},
			{
				"x": -3.2421777927,
				"y": 1.3054363364,
				"z": -1.6976008086,
				"element": "C" 
			},
			{
				"x": -2.5412501434,
				"y": 1.8159463388,
				"z": -2.5363712322,
				"element": "O" 
			},
			{
				"x": -4.4530035857,
				"y": 1.8616562424,
				"z": -1.3312314843,
				"element": "O" 
			},
			{
				"x": -5.0813719822,
				"y": 1.0945779923,
				"z": -0.2963625208,
				"element": "C" 
			},
			{
				"x": -4.1324544499,
				"y": -0.040364297,
				"z": -0.0115128964,
				"element": "C" 
			},
			{
				"x": -4.2420928815,
				"y": -1.0799692111,
				"z": 0.909418844,
				"element": "C" 
			},
			{
				"x": -5.4691750869,
				"y": -1.2636474834,
				"z": 1.7679994601,
				"element": "C" 
			},
			{
				"x": -1.977494571,
				"y": -2.307443609,
				"z": 3.3467869428,
				"element": "H" 
			},
			{
				"x": -3.7361246298,
				"y": -2.1030130731,
				"z": 3.5994373248,
				"element": "H" 
			},
			{
				"x": -3.0038238374,
				"y": -3.7223585492,
				"z": 3.7106369619,
				"element": "H" 
			},
			{
				"x": -0.2867314971,
				"y": -2.8806415387,
				"z": -0.7078300026,
				"element": "H" 
			},
			{
				"x": -1.3931938781,
				"y": -3.9045154914,
				"z": 0.153993952,
				"element": "H" 
			},
			{
				"x": -0.051769271,
				"y": -3.7718438359,
				"z": 2.0160705292,
				"element": "H" 
			},
			{
				"x": 1.3565862169,
				"y": -1.247929439,
				"z": 3.847167991,
				"element": "H" 
			},
			{
				"x": 2.6408180608,
				"y": -1.9368882082,
				"z": 2.8667976343,
				"element": "H" 
			},
			{
				"x": 1.4082814216,
				"y": -2.9971636229,
				"z": 3.57447996,
				"element": "H" 
			},
			{
				"x": 1.9320946892,
				"y": -0.2335370174,
				"z": 1.1426339775,
				"element": "H" 
			},
			{
				"x": 0.5339848159,
				"y": -0.5540563162,
				"z": 0.1289115957,
				"element": "H" 
			},
			{
				"x": -0.9856562848,
				"y": 0.382169719,
				"z": 1.8399520036,
				"element": "H" 
			},
			{
				"x": 0.3739618179,
				"y": 0.6712687859,
				"z": 2.9423772848,
				"element": "H" 
			},
			{
				"x": -0.7835210639,
				"y": 3.3595502042,
				"z": -1.389659876,
				"element": "H" 
			},
			{
				"x": -0.2032206204,
				"y": 4.1246699433,
				"z": 0.1245441635,
				"element": "H" 
			},
			{
				"x": 2.1255517089,
				"y": 3.0944281742,
				"z": -0.6076083583,
				"element": "H" 
			},
			{
				"x": 1.5923666182,
				"y": 4.6585672862,
				"z": -1.2006477121,
				"element": "H" 
			},
			{
				"x": 0.9177551087,
				"y": 1.762637939,
				"z": -4.0621993811,
				"element": "H" 
			},
			{
				"x": 0.2470129209,
				"y": 1.4773642977,
				"z": -2.4602335223,
				"element": "H" 
			},
			{
				"x": 2.1214559163,
				"y": -0.1319377341,
				"z": -3.0669662442,
				"element": "H" 
			},
			{
				"x": 2.5239881942,
				"y": 0.8228537302,
				"z": -1.6210908436,
				"element": "H" 
			},
			{
				"x": 4.7301713889,
				"y": 2.9113742124,
				"z": -3.6240474253,
				"element": "H" 
			},
			{
				"x": 4.1308559526,
				"y": 2.6944756595,
				"z": -1.9651542702,
				"element": "H" 
			},
			{
				"x": 2.5132293292,
				"y": 3.624230541,
				"z": -4.4043777668,
				"element": "H" 
			},
			{
				"x": 2.9510769506,
				"y": 4.6330055589,
				"z": -3.0146177684,
				"element": "H" 
			},
			{
				"x": -0.421513198,
				"y": -1.4494480234,
				"z": -1.7478868938,
				"element": "H" 
			},
			{
				"x": -6.0607906305,
				"y": 0.7526237436,
				"z": -0.6543959657,
				"element": "H" 
			},
			{
				"x": -5.2451308678,
				"y": 1.7448339165,
				"z": 0.5716418049,
				"element": "H" 
			},
			{
				"x": -5.5898122187,
				"y": -2.311814269,
				"z": 2.0506122025,
				"element": "H" 
			},
			{
				"x": -6.3705173921,
				"y": -0.9558328495,
				"z": 1.2281898589,
				"element": "H" 
			},
			{
				"x": -5.4296516463,
				"y": -0.6691308706,
				"z": 2.6897866232,
				"element": "H" 
			}
		],
		 "valence_orbital": [ 
			{
				"type": "occ",
				"energy": -0.25753,
				"method": "rhf"
			},
			{
				"type": "occ",
				"energy": -0.25503,
				"method": "rhf"
			},
			{
				"type": "occ",
				"energy": -0.24491,
				"method": "rhf"
			},
			{
				"type": "occ",
				"energy": -0.23462,
				"method": "rhf"
			},
			{
				"type": "occ",
				"energy": -0.18644,
				"method": "rhf"
			},
			{
				"type": "unocc",
				"energy": -0.04289,
				"method": "rhf"
			},
			{
				"type": "unocc",
				"energy": -0.01411,
				"method": "rhf"
			},
			{
				"type": "unocc",
				"energy": 0.00041,
				"method": "rhf"
			},
			{
				"type": "unocc",
				"energy": 0.01626,
				"method": "rhf"
			},
			{
				"type": "unocc",
				"energy": 0.04028,
				"method": "rhf"
			}
		],
		"cosmo_sigma_profile": { 
			"-0.025": 0.0,
			"-0.024": 0.0,
			"-0.023": 0.0,
			"-0.022": 0.0,
			"-0.021": 0.0,
			"-0.02": 0.0,
			"-0.019": 0.0,
			"-0.018": 0.0318827002188,
			"-0.017": 0.617420652389,
			"-0.016": 0.873737031359,
			"-0.015": 0.71703177685,
			"-0.014": 1.00959004956,
			"-0.013": 0.95024960899,
			"-0.012": 0.844765856058,
			"-0.011": 1.21428644107,
			"-0.01": 1.12830092676,
			"-0.009": 1.07308249116,
			"-0.008": 2.29448075961,
			"-0.007": 7.39204496847,
			"-0.006": 10.5115335086,
			"-0.005": 27.4660236196,
			"-0.004": 49.0861584919,
			"-0.003": 63.7543709657,
			"-0.002": 56.6662497506,
			"-0.001": 48.5730805273,
			"0.0": 37.9645700966,
			"0.001": 26.5542399002,
			"0.002": 21.1678087207,
			"0.003": 13.699747646,
			"0.004": 10.4474596719,
			"0.005": 11.1212683201,
			"0.006": 9.87813603441,
			"0.007": 9.77813095057,
			"0.008": 8.23967391479,
			"0.009": 9.99518803631,
			"0.01": 9.98525490493,
			"0.011": 9.87418412945,
			"0.012": 9.76873194534,
			"0.013": 6.13459449097,
			"0.014": 1.6024847868,
			"0.015": 0.400666926797,
			"0.016": 0.081440624067,
			"0.017": 0.0,
			"0.018": 0.0,
			"0.019": 0.0,
			"0.02": 0.0,
			"0.021": 0.0,
			"0.022": 0.0,
			"0.023": 0.0,
			"0.024": 0.0,
			"0.025": 0.0
		}
	}
}
