{
	 "smiles": "COC1=C(F)C=C(CCCC(O)=O)C=C1", 
	 "Tm": 337.15, 
	 "num_atms": 28, 
	 "gaussian": { 
		 "optdone": 1, 
		 "sigma_profile": "yes", 
		 "theory": "DFT", 
		 "functional": "B3LYP", 
		 "basiset": "6-31G**", 
		 "properties": { 
			 "R2extent": 5439.6735, 
			 "electric_dipole_moment_norm": 5.04333301696, 
			 "electric_quadrupole_moment_norm": 24.2286083886, 
			 "total_energy": -752.507891198, 
			 "HOMO_LUMO_gap": 0.21356, 
			 "cosmo_polarized_energy": -16.3, 
			 "cosmo_cavitation_energy": 32.51, 
			 "cosmo_dispersion_energy": -22.64, 
			 "cosmo_repulsion_energy": 1.79, 
			 "cosmo_total_nonelectrostatic_energy": 11.66, 
			 "SMD_solvation_energy": 7.52 
		},
		"coords": [
			{
				"x": -2.4437896667,
				"y": -0.9609208988,
				"z": -3.0006273595,
				"element": "C" 
			},
			{
				"x": -1.1033511837,
				"y": -0.9890968413,
				"z": -2.5024207968,
				"element": "O" 
			},
			{
				"x": -0.8697872579,
				"y": -1.2971157653,
				"z": -1.1969248239,
				"element": "C" 
			},
			{
				"x": -1.7347071806,
				"y": -1.0556451216,
				"z": -0.1213007693,
				"element": "C" 
			},
			{
				"x": -2.9416475506,
				"y": -0.473571044,
				"z": -0.3346849433,
				"element": "F" 
			},
			{
				"x": -1.394227639,
				"y": -1.388456483,
				"z": 1.1849352387,
				"element": "C" 
			},
			{
				"x": -0.1539170617,
				"y": -1.9641885162,
				"z": 1.4781722754,
				"element": "C" 
			},
			{
				"x": 0.2431923944,
				"y": -2.3024564307,
				"z": 2.9001627086,
				"element": "C" 
			},
			{
				"x": 1.2625955462,
				"y": -1.3186342861,
				"z": 3.5138205713,
				"element": "C" 
			},
			{
				"x": 0.6945953632,
				"y": 0.1005642825,
				"z": 3.7135089392,
				"element": "C" 
			},
			{
				"x": 1.7344074252,
				"y": 1.0694352164,
				"z": 4.2565102259,
				"element": "C" 
			},
			{
				"x": 2.7257705105,
				"y": 1.4123786436,
				"z": 3.3838691648,
				"element": "O" 
			},
			{
				"x": 1.7423988524,
				"y": 1.5105534894,
				"z": 5.3777618504,
				"element": "O" 
			},
			{
				"x": 0.7252048324,
				"y": -2.1966226605,
				"z": 0.4087808994,
				"element": "C" 
			},
			{
				"x": 0.3722895398,
				"y": -1.8755847897,
				"z": -0.8976341486,
				"element": "C" 
			},
			{
				"x": -2.3484406658,
				"y": -0.9563340455,
				"z": -4.0879486511,
				"element": "H" 
			},
			{
				"x": -3.0022597737,
				"y": -1.8506188605,
				"z": -2.6893096099,
				"element": "H" 
			},
			{
				"x": -2.9803948888,
				"y": -0.0670229077,
				"z": -2.6744443351,
				"element": "H" 
			},
			{
				"x": -2.1197500596,
				"y": -1.1814343253,
				"z": 1.9659588118,
				"element": "H" 
			},
			{
				"x": -0.6493563271,
				"y": -2.3376831993,
				"z": 3.53585966,
				"element": "H" 
			},
			{
				"x": 0.6819000501,
				"y": -3.3073264852,
				"z": 2.9258988895,
				"element": "H" 
			},
			{
				"x": 1.5990012038,
				"y": -1.7054960147,
				"z": 4.4826018881,
				"element": "H" 
			},
			{
				"x": 2.1517443924,
				"y": -1.2807065973,
				"z": 2.8710494624,
				"element": "H" 
			},
			{
				"x": -0.1305889536,
				"y": 0.0798538443,
				"z": 4.4294012202,
				"element": "H" 
			},
			{
				"x": 0.3015864836,
				"y": 0.4798515138,
				"z": 2.7612407702,
				"element": "H" 
			},
			{
				"x": 2.5645774379,
				"y": 1.0090279891,
				"z": 2.5191625615,
				"element": "H" 
			},
			{
				"x": 1.6928836524,
				"y": -2.6547426779,
				"z": 0.5975128142,
				"element": "H" 
			},
			{
				"x": 1.0451705243,
				"y": -2.0698070282,
				"z": -1.726612514,
				"element": "H" 
			}
		],
		 "valence_orbital": [ 
			{
				"type": "occ",
				"energy": -0.31375,
				"method": "rhf"
			},
			{
				"type": "occ",
				"energy": -0.31017,
				"method": "rhf"
			},
			{
				"type": "occ",
				"energy": -0.265,
				"method": "rhf"
			},
			{
				"type": "occ",
				"energy": -0.25867,
				"method": "rhf"
			},
			{
				"type": "occ",
				"energy": -0.22775,
				"method": "rhf"
			},
			{
				"type": "unocc",
				"energy": -0.01419,
				"method": "rhf"
			},
			{
				"type": "unocc",
				"energy": -0.00756,
				"method": "rhf"
			},
			{
				"type": "unocc",
				"energy": 0.01455,
				"method": "rhf"
			},
			{
				"type": "unocc",
				"energy": 0.05146,
				"method": "rhf"
			},
			{
				"type": "unocc",
				"energy": 0.06735,
				"method": "rhf"
			}
		],
		"cosmo_sigma_profile": { 
			"-0.025": 0.0,
			"-0.024": 0.0,
			"-0.023": 0.0,
			"-0.022": 0.0,
			"-0.021": 0.0,
			"-0.02": 0.0,
			"-0.019": 0.0451839031386,
			"-0.018": 0.612000739081,
			"-0.017": 0.82322773896,
			"-0.016": 0.872726122675,
			"-0.015": 1.27641981255,
			"-0.014": 0.708895994194,
			"-0.013": 0.934562476374,
			"-0.012": 1.2872851256,
			"-0.011": 1.72850156773,
			"-0.01": 0.877489539126,
			"-0.009": 1.10444610762,
			"-0.008": 0.896703866765,
			"-0.007": 2.53844787534,
			"-0.006": 8.65480830746,
			"-0.005": 17.3125695012,
			"-0.004": 29.2350494915,
			"-0.003": 29.0517106911,
			"-0.002": 22.8193035971,
			"-0.001": 16.8467188568,
			"0.0": 13.434960132,
			"0.001": 13.7780328379,
			"0.002": 12.7225269912,
			"0.003": 16.5291584843,
			"0.004": 15.4215951452,
			"0.005": 9.9789654987,
			"0.006": 3.90227698416,
			"0.007": 4.03159700483,
			"0.008": 3.00929173659,
			"0.009": 4.77331458614,
			"0.01": 5.28586864984,
			"0.011": 6.63117584692,
			"0.012": 5.74274713531,
			"0.013": 3.43747346054,
			"0.014": 0.240170018946,
			"0.015": 0.0,
			"0.016": 0.0,
			"0.017": 0.0,
			"0.018": 0.0,
			"0.019": 0.0,
			"0.02": 0.0,
			"0.021": 0.0,
			"0.022": 0.0,
			"0.023": 0.0,
			"0.024": 0.0,
			"0.025": 0.0
		}
	}
}
