{
	 "smiles": "CC1=C(C)C(C)=C(N)C(C)=C1C", 
	 "Tm": 425.15, 
	 "num_atms": 29, 
	 "gaussian": { 
		 "optdone": 1, 
		 "sigma_profile": "yes", 
		 "theory": "DFT", 
		 "functional": "B3LYP", 
		 "basiset": "6-31G**", 
		 "properties": { 
			 "R2extent": 2479.159, 
			 "electric_dipole_moment_norm": 1.27784687659, 
			 "electric_quadrupole_moment_norm": 7.85923681155, 
			 "total_energy": -484.192618325, 
			 "HOMO_LUMO_gap": 0.20268, 
			 "cosmo_polarized_energy": -6.97, 
			 "cosmo_cavitation_energy": 28.54, 
			 "cosmo_dispersion_energy": -21.38, 
			 "cosmo_repulsion_energy": 1.68, 
			 "cosmo_total_nonelectrostatic_energy": 8.84, 
			 "SMD_solvation_energy": 4.59 
		},
		"coords": [
			{
				"x": -1.1869698521,
				"y": -0.5317082841,
				"z": 2.0265711013,
				"element": "C" 
			},
			{
				"x": -0.479425095,
				"y": -0.5372022039,
				"z": 0.6833650341,
				"element": "C" 
			},
			{
				"x": -1.0189692611,
				"y": 0.1861031745,
				"z": -0.4009203361,
				"element": "C" 
			},
			{
				"x": -2.2529715742,
				"y": 1.0432654804,
				"z": -0.1829659903,
				"element": "C" 
			},
			{
				"x": -0.4077728648,
				"y": 0.1244211294,
				"z": -1.6660386934,
				"element": "C" 
			},
			{
				"x": -0.9770703348,
				"y": 0.8062629492,
				"z": -2.8925172069,
				"element": "C" 
			},
			{
				"x": 0.773577565,
				"y": -0.6284163945,
				"z": -1.8221323221,
				"element": "C" 
			},
			{
				"x": 1.3771669344,
				"y": -0.7114310769,
				"z": -3.0913107937,
				"element": "N" 
			},
			{
				"x": 1.3292045346,
				"y": -1.3462653023,
				"z": -0.7438482224,
				"element": "C" 
			},
			{
				"x": 2.5587300466,
				"y": -2.1876704731,
				"z": -1.0150494742,
				"element": "C" 
			},
			{
				"x": 0.7097027924,
				"y": -1.2775700272,
				"z": 0.5167959747,
				"element": "C" 
			},
			{
				"x": 1.3204374025,
				"y": -1.9827893966,
				"z": 1.7144938393,
				"element": "C" 
			},
			{
				"x": -2.2665476834,
				"y": -0.4110625877,
				"z": 1.9138840818,
				"element": "H" 
			},
			{
				"x": -0.8407994348,
				"y": 0.2792424169,
				"z": 2.6839266548,
				"element": "H" 
			},
			{
				"x": -1.0325668628,
				"y": -1.4677146738,
				"z": 2.5679134711,
				"element": "H" 
			},
			{
				"x": -2.317507379,
				"y": 1.8611874561,
				"z": -0.9021496426,
				"element": "H" 
			},
			{
				"x": -2.249972798,
				"y": 1.4995330992,
				"z": 0.8098474574,
				"element": "H" 
			},
			{
				"x": -3.1821537893,
				"y": 0.4629280886,
				"z": -0.2661839677,
				"element": "H" 
			},
			{
				"x": -2.0006161153,
				"y": 1.1497209144,
				"z": -2.7465475495,
				"element": "H" 
			},
			{
				"x": -0.9927944281,
				"y": 0.1154192696,
				"z": -3.7440316713,
				"element": "H" 
			},
			{
				"x": -0.3850336401,
				"y": 1.6820165399,
				"z": -3.1993601662,
				"element": "H" 
			},
			{
				"x": 2.3664550974,
				"y": -0.9149163131,
				"z": -3.069379877,
				"element": "H" 
			},
			{
				"x": 1.1929259368,
				"y": 0.0791975055,
				"z": -3.6925953281,
				"element": "H" 
			},
			{
				"x": 2.772218731,
				"y": -2.8923798958,
				"z": -0.212094365,
				"element": "H" 
			},
			{
				"x": 3.4635315054,
				"y": -1.5767250193,
				"z": -1.1553267514,
				"element": "H" 
			},
			{
				"x": 2.4261211623,
				"y": -2.779028,
				"z": -1.9289952865,
				"element": "H" 
			},
			{
				"x": 2.3956027818,
				"y": -2.1294464208,
				"z": 1.6008857307,
				"element": "H" 
			},
			{
				"x": 0.8736521986,
				"y": -2.9716172828,
				"z": 1.886899122,
				"element": "H" 
			},
			{
				"x": 1.1787444241,
				"y": -1.4049546718,
				"z": 2.6309651774,
				"element": "H" 
			}
		],
		 "valence_orbital": [ 
			{
				"type": "occ",
				"energy": -0.31766,
				"method": "rhf"
			},
			{
				"type": "occ",
				"energy": -0.30902,
				"method": "rhf"
			},
			{
				"type": "occ",
				"energy": -0.27741,
				"method": "rhf"
			},
			{
				"type": "occ",
				"energy": -0.21021,
				"method": "rhf"
			},
			{
				"type": "occ",
				"energy": -0.18208,
				"method": "rhf"
			},
			{
				"type": "unocc",
				"energy": 0.0206,
				"method": "rhf"
			},
			{
				"type": "unocc",
				"energy": 0.03053,
				"method": "rhf"
			},
			{
				"type": "unocc",
				"energy": 0.07874,
				"method": "rhf"
			},
			{
				"type": "unocc",
				"energy": 0.1078,
				"method": "rhf"
			},
			{
				"type": "unocc",
				"energy": 0.11027,
				"method": "rhf"
			}
		],
		"cosmo_sigma_profile": { 
			"-0.025": 0.0,
			"-0.024": 0.0,
			"-0.023": 0.0,
			"-0.022": 0.0,
			"-0.021": 0.0,
			"-0.02": 0.0,
			"-0.019": 0.0,
			"-0.018": 0.0,
			"-0.017": 0.0,
			"-0.016": 0.0,
			"-0.015": 0.0,
			"-0.014": 0.0,
			"-0.013": 0.0,
			"-0.012": 0.0,
			"-0.011": 0.787596719571,
			"-0.01": 2.28307418208,
			"-0.009": 2.31846032275,
			"-0.008": 3.14952375041,
			"-0.007": 2.6394349253,
			"-0.006": 2.68197001751,
			"-0.005": 3.23786573025,
			"-0.004": 10.370947406,
			"-0.003": 22.468459165,
			"-0.002": 29.2587800176,
			"-0.001": 32.0401043437,
			"0.0": 29.9191451053,
			"0.001": 25.4370914723,
			"0.002": 12.4060464062,
			"0.003": 8.08705063235,
			"0.004": 5.68709167975,
			"0.005": 5.30917108632,
			"0.006": 5.94486669107,
			"0.007": 5.94486402401,
			"0.008": 6.09089444889,
			"0.009": 2.74139624611,
			"0.01": 0.963697433145,
			"0.011": 0.591635703206,
			"0.012": 0.292909477156,
			"0.013": 0.729511038665,
			"0.014": 0.781456953476,
			"0.015": 0.293803701755,
			"0.016": 0.307467270076,
			"0.017": 0.0,
			"0.018": 0.0,
			"0.019": 0.0,
			"0.02": 0.0,
			"0.021": 0.0,
			"0.022": 0.0,
			"0.023": 0.0,
			"0.024": 0.0,
			"0.025": 0.0
		}
	}
}
