{
	 "smiles": "C(N(CC1=CC=CC=C1)CC1=CC=CC=C1)C1=CC=CC=C1", 
	 "Tm": 365.35, 
	 "num_atms": 43, 
	 "gaussian": { 
		 "optdone": 1, 
		 "sigma_profile": "yes", 
		 "theory": "DFT", 
		 "functional": "B3LYP", 
		 "basiset": "6-31G**", 
		 "properties": { 
			 "R2extent": 7483.9076, 
			 "electric_dipole_moment_norm": 0.78332114104, 
			 "electric_quadrupole_moment_norm": 10.5025678755, 
			 "total_energy": -867.634926313, 
			 "HOMO_LUMO_gap": 0.20752, 
			 "cosmo_polarized_energy": -9.63, 
			 "cosmo_cavitation_energy": 45.33, 
			 "cosmo_dispersion_energy": -29.44, 
			 "cosmo_repulsion_energy": 2.27, 
			 "cosmo_total_nonelectrostatic_energy": 18.16, 
			 "SMD_solvation_energy": 6.68 
		},
		"coords": [
			{
				"x": -1.2758658674,
				"y": -1.2005883479,
				"z": -1.20441569,
				"element": "C" 
			},
			{
				"x": -0.6458963165,
				"y": -1.4038550721,
				"z": 0.1073224978,
				"element": "N" 
			},
			{
				"x": -1.3957342733,
				"y": -2.3942250699,
				"z": 0.8974500662,
				"element": "C" 
			},
			{
				"x": -1.0338487686,
				"y": -2.3873377093,
				"z": 2.3701088262,
				"element": "C" 
			},
			{
				"x": -1.0779411057,
				"y": -1.1925606175,
				"z": 3.1039441176,
				"element": "C" 
			},
			{
				"x": -0.7865753552,
				"y": -1.1840032052,
				"z": 4.4670114885,
				"element": "C" 
			},
			{
				"x": -0.4472867914,
				"y": -2.3724258837,
				"z": 5.1207894697,
				"element": "C" 
			},
			{
				"x": -0.4002194014,
				"y": -3.5658365328,
				"z": 4.4008903095,
				"element": "C" 
			},
			{
				"x": -0.690250851,
				"y": -3.5700149539,
				"z": 3.0337342319,
				"element": "C" 
			},
			{
				"x": 0.7771162385,
				"y": -1.7794424276,
				"z": 0.0038378334,
				"element": "C" 
			},
			{
				"x": 1.7473804934,
				"y": -0.6246383595,
				"z": -0.1612058263,
				"element": "C" 
			},
			{
				"x": 2.624489452,
				"y": -0.5702664154,
				"z": -1.2484258961,
				"element": "C" 
			},
			{
				"x": 3.5624514182,
				"y": 0.4588392508,
				"z": -1.3618615992,
				"element": "C" 
			},
			{
				"x": 3.634479877,
				"y": 1.448656521,
				"z": -0.3823693743,
				"element": "C" 
			},
			{
				"x": 2.7648571946,
				"y": 1.4014702461,
				"z": 0.7112379781,
				"element": "C" 
			},
			{
				"x": 1.8317501281,
				"y": 0.3724683668,
				"z": 0.820718033,
				"element": "C" 
			},
			{
				"x": -0.8935501561,
				"y": 0.0797554314,
				"z": -1.9235447533,
				"element": "C" 
			},
			{
				"x": -0.953879424,
				"y": 1.3163985036,
				"z": -1.2677439736,
				"element": "C" 
			},
			{
				"x": -0.6794498267,
				"y": 2.4978167923,
				"z": -1.9534035299,
				"element": "C" 
			},
			{
				"x": -0.3468608388,
				"y": 2.4631816085,
				"z": -3.3107176754,
				"element": "C" 
			},
			{
				"x": -0.2876602102,
				"y": 1.237851079,
				"z": -3.9737261939,
				"element": "C" 
			},
			{
				"x": -0.5585929734,
				"y": 0.0552349351,
				"z": -3.2811800211,
				"element": "C" 
			},
			{
				"x": -1.0886501825,
				"y": -2.0597638176,
				"z": -1.8770664941,
				"element": "H" 
			},
			{
				"x": -2.3601858087,
				"y": -1.1786721141,
				"z": -1.0353614555,
				"element": "H" 
			},
			{
				"x": -2.4593495497,
				"y": -2.145482405,
				"z": 0.7976754961,
				"element": "H" 
			},
			{
				"x": -1.2810001142,
				"y": -3.4203347274,
				"z": 0.4989429913,
				"element": "H" 
			},
			{
				"x": -1.3376367276,
				"y": -0.2707807261,
				"z": 2.5916352432,
				"element": "H" 
			},
			{
				"x": -0.8263542767,
				"y": -0.2508879591,
				"z": 5.0223563869,
				"element": "H" 
			},
			{
				"x": -0.220095854,
				"y": -2.3654718445,
				"z": 6.1830225174,
				"element": "H" 
			},
			{
				"x": -0.1336069699,
				"y": -4.4936468754,
				"z": 4.8993118882,
				"element": "H" 
			},
			{
				"x": -0.6495813756,
				"y": -4.5026084411,
				"z": 2.4756755561,
				"element": "H" 
			},
			{
				"x": 0.9295751108,
				"y": -2.5078565986,
				"z": -0.8136266002,
				"element": "H" 
			},
			{
				"x": 1.0350801279,
				"y": -2.2988864908,
				"z": 0.9327387075,
				"element": "H" 
			},
			{
				"x": 2.5701428882,
				"y": -1.3376179584,
				"z": -2.016941761,
				"element": "H" 
			},
			{
				"x": 4.232532805,
				"y": 0.4871045342,
				"z": -2.2167113616,
				"element": "H" 
			},
			{
				"x": 4.3622107532,
				"y": 2.2508233863,
				"z": -0.4677302146,
				"element": "H" 
			},
			{
				"x": 2.8187344274,
				"y": 2.1663985177,
				"z": 1.4813696126,
				"element": "H" 
			},
			{
				"x": 1.1590925225,
				"y": 0.3329362996,
				"z": 1.6727349435,
				"element": "H" 
			},
			{
				"x": -1.2012873339,
				"y": 1.3397266696,
				"z": -0.2109196588,
				"element": "H" 
			},
			{
				"x": -0.7243374845,
				"y": 3.4487356115,
				"z": -1.4295374567,
				"element": "H" 
			},
			{
				"x": -0.1334168617,
				"y": 3.3849571749,
				"z": -3.8445765596,
				"element": "H" 
			},
			{
				"x": -0.026659831,
				"y": 1.1992872616,
				"z": -5.0277978609,
				"element": "H" 
			},
			{
				"x": -0.5092189067,
				"y": -0.8984376372,
				"z": -3.8020442385,
				"element": "H" 
			}
		],
		 "valence_orbital": [ 
			{
				"type": "occ",
				"energy": -0.24453,
				"method": "rhf"
			},
			{
				"type": "occ",
				"energy": -0.23937,
				"method": "rhf"
			},
			{
				"type": "occ",
				"energy": -0.23483,
				"method": "rhf"
			},
			{
				"type": "occ",
				"energy": -0.22293,
				"method": "rhf"
			},
			{
				"type": "occ",
				"energy": -0.21872,
				"method": "rhf"
			},
			{
				"type": "unocc",
				"energy": -0.0112,
				"method": "rhf"
			},
			{
				"type": "unocc",
				"energy": -0.00129,
				"method": "rhf"
			},
			{
				"type": "unocc",
				"energy": 0.00258,
				"method": "rhf"
			},
			{
				"type": "unocc",
				"energy": 0.00559,
				"method": "rhf"
			},
			{
				"type": "unocc",
				"energy": 0.01462,
				"method": "rhf"
			}
		],
		"cosmo_sigma_profile": { 
			"-0.025": 0.0,
			"-0.024": 0.0,
			"-0.023": 0.0,
			"-0.022": 0.0,
			"-0.021": 0.0,
			"-0.02": 0.0,
			"-0.019": 0.0,
			"-0.018": 0.0,
			"-0.017": 0.0,
			"-0.016": 0.0,
			"-0.015": 0.0,
			"-0.014": 0.0,
			"-0.013": 0.0,
			"-0.012": 0.0,
			"-0.011": 0.0,
			"-0.01": 0.0,
			"-0.009": 0.0,
			"-0.008": 0.0,
			"-0.007": 0.286667278457,
			"-0.006": 5.74067694757,
			"-0.005": 25.9943031952,
			"-0.004": 34.4726687299,
			"-0.003": 47.3415438679,
			"-0.002": 40.7026467699,
			"-0.001": 34.9645235037,
			"0.0": 25.2797936534,
			"0.001": 20.7866853629,
			"0.002": 23.0953744828,
			"0.003": 21.1017631246,
			"0.004": 21.4122131502,
			"0.005": 22.208009893,
			"0.006": 22.3350639955,
			"0.007": 8.93888687894,
			"0.008": 3.31578832958,
			"0.009": 1.45457965184,
			"0.01": 0.0734679705704,
			"0.011": 0.0,
			"0.012": 0.0,
			"0.013": 0.0,
			"0.014": 0.0,
			"0.015": 0.0,
			"0.016": 0.0,
			"0.017": 0.0,
			"0.018": 0.0,
			"0.019": 0.0,
			"0.02": 0.0,
			"0.021": 0.0,
			"0.022": 0.0,
			"0.023": 0.0,
			"0.024": 0.0,
			"0.025": 0.0
		}
	}
}
