{
	 "smiles": "CC(=O)N1N=C(C[C@@H]1C1=CC=C(Cl)C(Cl)=C1)C1=CC=C2C=CC=CC2=C1", 
	 "Tm": 515.5, 
	 "num_atms": 42, 
	 "gaussian": { 
		 "optdone": 1, 
		 "sigma_profile": "yes", 
		 "theory": "DFT", 
		 "functional": "B3LYP", 
		 "basiset": "6-31G**", 
		 "properties": { 
			 "R2extent": 16717.4395, 
			 "electric_dipole_moment_norm": 4.83087049816, 
			 "electric_quadrupole_moment_norm": 25.9125255118, 
			 "total_energy": -1914.99607233, 
			 "HOMO_LUMO_gap": 0.14478, 
			 "cosmo_polarized_energy": -15.59, 
			 "cosmo_cavitation_energy": 49.95, 
			 "cosmo_dispersion_energy": -34.78, 
			 "cosmo_repulsion_energy": 2.63, 
			 "cosmo_total_nonelectrostatic_energy": 17.8, 
			 "SMD_solvation_energy": 7.13 
		},
		"coords": [
			{
				"x": -0.8310336541,
				"y": -0.3861975006,
				"z": 3.7649484873,
				"element": "C" 
			},
			{
				"x": -0.1670845965,
				"y": 0.8691008424,
				"z": 3.240798359,
				"element": "C" 
			},
			{
				"x": 0.0201713425,
				"y": 1.8775752067,
				"z": 3.9100751508,
				"element": "O" 
			},
			{
				"x": 0.2408966976,
				"y": 0.8411989601,
				"z": 1.9217493231,
				"element": "N" 
			},
			{
				"x": -0.0680967554,
				"y": -0.187767023,
				"z": 1.065268226,
				"element": "N" 
			},
			{
				"x": 0.218669916,
				"y": 0.1659007989,
				"z": -0.1452116007,
				"element": "C" 
			},
			{
				"x": 0.7670826451,
				"y": 1.5814885607,
				"z": -0.2374974145,
				"element": "C" 
			},
			{
				"x": 0.8579854162,
				"y": 2.0123803943,
				"z": 1.2506441465,
				"element": "C" 
			},
			{
				"x": 2.2670587286,
				"y": 2.2815978055,
				"z": 1.7516167036,
				"element": "C" 
			},
			{
				"x": 2.57687,
				"y": 3.4852674361,
				"z": 2.3894709842,
				"element": "C" 
			},
			{
				"x": 3.8711891082,
				"y": 3.7413778054,
				"z": 2.8337137551,
				"element": "C" 
			},
			{
				"x": 4.8784685723,
				"y": 2.7916378444,
				"z": 2.6554460013,
				"element": "C" 
			},
			{
				"x": 6.4900335682,
				"y": 3.1497248142,
				"z": 3.2249913026,
				"element": "Cl" 
			},
			{
				"x": 4.5743091287,
				"y": 1.5747209968,
				"z": 2.0293251833,
				"element": "C" 
			},
			{
				"x": 5.7921364296,
				"y": 0.3441953475,
				"z": 1.7875098104,
				"element": "Cl" 
			},
			{
				"x": 3.276112857,
				"y": 1.3282623292,
				"z": 1.5828218144,
				"element": "C" 
			},
			{
				"x": 0.0097030236,
				"y": -0.7239202603,
				"z": -1.2910456927,
				"element": "C" 
			},
			{
				"x": 0.2989456088,
				"y": -0.2699094375,
				"z": -2.6108574766,
				"element": "C" 
			},
			{
				"x": 0.1035407559,
				"y": -1.0885572907,
				"z": -3.6977389947,
				"element": "C" 
			},
			{
				"x": -0.3902183807,
				"y": -2.4105274252,
				"z": -3.5405699872,
				"element": "C" 
			},
			{
				"x": -0.6024378973,
				"y": -3.2823843918,
				"z": -4.6414190169,
				"element": "C" 
			},
			{
				"x": -1.0819450334,
				"y": -4.5580920693,
				"z": -4.4461593843,
				"element": "C" 
			},
			{
				"x": -1.3718653933,
				"y": -5.0225172286,
				"z": -3.1379065148,
				"element": "C" 
			},
			{
				"x": -1.1770741051,
				"y": -4.2032633656,
				"z": -2.0502867121,
				"element": "C" 
			},
			{
				"x": -0.6830733851,
				"y": -2.8783695543,
				"z": -2.2161474367,
				"element": "C" 
			},
			{
				"x": -0.4727914005,
				"y": -2.0143813981,
				"z": -1.1169399688,
				"element": "C" 
			},
			{
				"x": -1.761320133,
				"y": -0.5873609528,
				"z": 3.2258249093,
				"element": "H" 
			},
			{
				"x": -0.1860878222,
				"y": -1.2582075768,
				"z": 3.6266842033,
				"element": "H" 
			},
			{
				"x": -1.0406267768,
				"y": -0.2372022356,
				"z": 4.824019566,
				"element": "H" 
			},
			{
				"x": 0.0918952826,
				"y": 2.2253798703,
				"z": -0.8120520488,
				"element": "H" 
			},
			{
				"x": 1.7424463812,
				"y": 1.615211655,
				"z": -0.7319268941,
				"element": "H" 
			},
			{
				"x": 0.24274359,
				"y": 2.8907718068,
				"z": 1.4606524115,
				"element": "H" 
			},
			{
				"x": 1.7982912018,
				"y": 4.2228718244,
				"z": 2.5557752505,
				"element": "H" 
			},
			{
				"x": 4.1106832327,
				"y": 4.6755140879,
				"z": 3.3294044943,
				"element": "H" 
			},
			{
				"x": 3.0638157438,
				"y": 0.374881292,
				"z": 1.1098496784,
				"element": "H" 
			},
			{
				"x": 0.677943499,
				"y": 0.7359085179,
				"z": -2.7623187006,
				"element": "H" 
			},
			{
				"x": 0.3282897435,
				"y": -0.7282478036,
				"z": -4.6981809523,
				"element": "H" 
			},
			{
				"x": -0.3792074859,
				"y": -2.9247223559,
				"z": -5.6433110314,
				"element": "H" 
			},
			{
				"x": -1.240299787,
				"y": -5.2160208926,
				"z": -5.2956533248,
				"element": "H" 
			},
			{
				"x": -1.7492515044,
				"y": -6.0313926991,
				"z": -2.999023819,
				"element": "H" 
			},
			{
				"x": -1.3978731178,
				"y": -4.5560947272,
				"z": -1.0463391965,
				"element": "H" 
			},
			{
				"x": -0.6917952446,
				"y": -2.3661320076,
				"z": -0.1135035933,
				"element": "H" 
			}
		],
		 "valence_orbital": [ 
			{
				"type": "occ",
				"energy": -0.26153,
				"method": "rhf"
			},
			{
				"type": "occ",
				"energy": -0.25956,
				"method": "rhf"
			},
			{
				"type": "occ",
				"energy": -0.24377,
				"method": "rhf"
			},
			{
				"type": "occ",
				"energy": -0.23516,
				"method": "rhf"
			},
			{
				"type": "occ",
				"energy": -0.21021,
				"method": "rhf"
			},
			{
				"type": "unocc",
				"energy": -0.06543,
				"method": "rhf"
			},
			{
				"type": "unocc",
				"energy": -0.03535,
				"method": "rhf"
			},
			{
				"type": "unocc",
				"energy": -0.02844,
				"method": "rhf"
			},
			{
				"type": "unocc",
				"energy": -0.02179,
				"method": "rhf"
			},
			{
				"type": "unocc",
				"energy": 0.00316,
				"method": "rhf"
			}
		],
		"cosmo_sigma_profile": { 
			"-0.025": 0.0,
			"-0.024": 0.0,
			"-0.023": 0.0,
			"-0.022": 0.0,
			"-0.021": 0.0,
			"-0.02": 0.0,
			"-0.019": 0.0,
			"-0.018": 0.0,
			"-0.017": 0.0,
			"-0.016": 0.0,
			"-0.015": 0.0,
			"-0.014": 0.0,
			"-0.013": 0.0,
			"-0.012": 0.0,
			"-0.011": 0.0,
			"-0.01": 0.0,
			"-0.009": 0.0194108022639,
			"-0.008": 1.91780365336,
			"-0.007": 12.959738801,
			"-0.006": 30.7568742648,
			"-0.005": 29.4666111828,
			"-0.004": 27.7798346956,
			"-0.003": 28.1191223666,
			"-0.002": 25.0575203243,
			"-0.001": 27.9195805396,
			"0.0": 30.8085076826,
			"0.001": 32.2918489849,
			"0.002": 31.8589917526,
			"0.003": 41.5000378582,
			"0.004": 41.8344538973,
			"0.005": 17.4917419989,
			"0.006": 3.81234018205,
			"0.007": 3.9437797377,
			"0.008": 2.83589472679,
			"0.009": 2.13993285182,
			"0.01": 1.96333111163,
			"0.011": 1.62285818655,
			"0.012": 2.64674416643,
			"0.013": 3.375652884,
			"0.014": 1.89230133993,
			"0.015": 0.373998199366,
			"0.016": 0.0,
			"0.017": 0.0,
			"0.018": 0.0,
			"0.019": 0.0,
			"0.02": 0.0,
			"0.021": 0.0,
			"0.022": 0.0,
			"0.023": 0.0,
			"0.024": 0.0,
			"0.025": 0.0
		}
	}
}
