{
	 "smiles": "CC1=C(C)C(=CC(=C1)C(O)=O)S(N)(=O)=O", 
	 "Tm": 540.15, 
	 "num_atms": 26, 
	 "gaussian": { 
		 "optdone": 1, 
		 "sigma_profile": "yes", 
		 "theory": "DFT", 
		 "functional": "B3LYP", 
		 "basiset": "6-31G**", 
		 "properties": { 
			 "R2extent": 4267.0614, 
			 "electric_dipole_moment_norm": 2.08989914589, 
			 "electric_quadrupole_moment_norm": 30.7756945306, 
			 "total_energy": -1103.37086366, 
			 "HOMO_LUMO_gap": 0.20426, 
			 "cosmo_polarized_energy": -23.12, 
			 "cosmo_cavitation_energy": 30.89, 
			 "cosmo_dispersion_energy": -22.96, 
			 "cosmo_repulsion_energy": 1.74, 
			 "cosmo_total_nonelectrostatic_energy": 9.68, 
			 "SMD_solvation_energy": 6.22 
		},
		"coords": [
			{
				"x": -1.7302919008,
				"y": 1.3095120543,
				"z": -2.5992815594,
				"element": "C" 
			},
			{
				"x": -0.84535157,
				"y": 1.2863234468,
				"z": -1.3730105543,
				"element": "C" 
			},
			{
				"x": 0.2293233079,
				"y": 0.3738765888,
				"z": -1.2579298472,
				"element": "C" 
			},
			{
				"x": 0.53346225,
				"y": -0.6109751389,
				"z": -2.3627671416,
				"element": "C" 
			},
			{
				"x": 0.9853460293,
				"y": 0.4016870121,
				"z": -0.0673767605,
				"element": "C" 
			},
			{
				"x": 0.7257187101,
				"y": 1.3057349925,
				"z": 0.9606259795,
				"element": "C" 
			},
			{
				"x": -0.3227104004,
				"y": 2.2187976242,
				"z": 0.8232920654,
				"element": "C" 
			},
			{
				"x": -1.1044753706,
				"y": 2.1823874905,
				"z": -0.3338044496,
				"element": "C" 
			},
			{
				"x": -0.6817746059,
				"y": 3.2177949414,
				"z": 1.8824434878,
				"element": "C" 
			},
			{
				"x": 0.2744800443,
				"y": 3.5046218118,
				"z": 2.8050348121,
				"element": "O" 
			},
			{
				"x": -1.7604326196,
				"y": 3.7594117705,
				"z": 1.9405448081,
				"element": "O" 
			},
			{
				"x": 2.3238184979,
				"y": -0.7934087498,
				"z": 0.1243728117,
				"element": "S" 
			},
			{
				"x": 2.8867782428,
				"y": -0.5001674802,
				"z": 1.6959719735,
				"element": "N" 
			},
			{
				"x": 1.7383048637,
				"y": -2.1377858889,
				"z": 0.1011691408,
				"element": "O" 
			},
			{
				"x": 3.4162464059,
				"y": -0.4272776702,
				"z": -0.7848918912,
				"element": "O" 
			},
			{
				"x": -2.1890497505,
				"y": 0.3331614674,
				"z": -2.7874805185,
				"element": "H" 
			},
			{
				"x": -2.5347693445,
				"y": 2.0381503213,
				"z": -2.4767594966,
				"element": "H" 
			},
			{
				"x": -1.1696519767,
				"y": 1.5831370512,
				"z": -3.5004042557,
				"element": "H" 
			},
			{
				"x": 0.1666817192,
				"y": -1.6091606553,
				"z": -2.099816787,
				"element": "H" 
			},
			{
				"x": 0.0689911606,
				"y": -0.3129148715,
				"z": -3.3023506191,
				"element": "H" 
			},
			{
				"x": 1.6094199666,
				"y": -0.6978360011,
				"z": -2.529131304,
				"element": "H" 
			},
			{
				"x": 1.3261542277,
				"y": 1.2456091345,
				"z": 1.8612644619,
				"element": "H" 
			},
			{
				"x": -1.9327460047,
				"y": 2.8797237063,
				"z": -0.407451944,
				"element": "H" 
			},
			{
				"x": 1.1241981836,
				"y": 3.1276826065,
				"z": 2.5381947547,
				"element": "H" 
			},
			{
				"x": 3.8840708878,
				"y": -0.3076425547,
				"z": 1.646999894,
				"element": "H" 
			},
			{
				"x": 2.6934590462,
				"y": -1.3126430092,
				"z": 2.2762429396,
				"element": "H" 
			}
		],
		 "valence_orbital": [ 
			{
				"type": "occ",
				"energy": -0.31659,
				"method": "rhf"
			},
			{
				"type": "occ",
				"energy": -0.30366,
				"method": "rhf"
			},
			{
				"type": "occ",
				"energy": -0.28117,
				"method": "rhf"
			},
			{
				"type": "occ",
				"energy": -0.27327,
				"method": "rhf"
			},
			{
				"type": "occ",
				"energy": -0.26675,
				"method": "rhf"
			},
			{
				"type": "unocc",
				"energy": -0.06249,
				"method": "rhf"
			},
			{
				"type": "unocc",
				"energy": -0.04019,
				"method": "rhf"
			},
			{
				"type": "unocc",
				"energy": 0.02906,
				"method": "rhf"
			},
			{
				"type": "unocc",
				"energy": 0.03631,
				"method": "rhf"
			},
			{
				"type": "unocc",
				"energy": 0.05414,
				"method": "rhf"
			}
		],
		"cosmo_sigma_profile": { 
			"-0.025": 0.0,
			"-0.024": 0.0,
			"-0.023": 0.0,
			"-0.022": 0.0,
			"-0.021": 0.0,
			"-0.02": 0.0,
			"-0.019": 0.340011418363,
			"-0.018": 1.04111937565,
			"-0.017": 0.996624235279,
			"-0.016": 1.04039775436,
			"-0.015": 2.70029899385,
			"-0.014": 3.19042697617,
			"-0.013": 3.29637841975,
			"-0.012": 3.94175325592,
			"-0.011": 2.85935612209,
			"-0.01": 2.50846706711,
			"-0.009": 1.98657840011,
			"-0.008": 3.3598092058,
			"-0.007": 4.57084276589,
			"-0.006": 6.8549097692,
			"-0.005": 12.5041379312,
			"-0.004": 16.7501268488,
			"-0.003": 18.5353378605,
			"-0.002": 19.186008903,
			"-0.001": 22.7750861505,
			"0.0": 14.734812765,
			"0.001": 17.6009555291,
			"0.002": 10.0791211828,
			"0.003": 6.13793508964,
			"0.004": 5.65285170775,
			"0.005": 5.45977863728,
			"0.006": 4.75473818089,
			"0.007": 4.68956076708,
			"0.008": 6.55610116643,
			"0.009": 7.09758174607,
			"0.01": 13.494046999,
			"0.011": 13.8970477639,
			"0.012": 5.53482620263,
			"0.013": 1.04875860193,
			"0.014": 0.0,
			"0.015": 0.0,
			"0.016": 0.0,
			"0.017": 0.0,
			"0.018": 0.0,
			"0.019": 0.0,
			"0.02": 0.0,
			"0.021": 0.0,
			"0.022": 0.0,
			"0.023": 0.0,
			"0.024": 0.0,
			"0.025": 0.0
		}
	}
}
