{
	 "smiles": "CN(C)C1=CC=C(C=C(C#N)C(O)=O)C=C1", 
	 "Tm": 498.15, 
	 "num_atms": 28, 
	 "gaussian": { 
		 "optdone": 1, 
		 "sigma_profile": "yes", 
		 "theory": "DFT", 
		 "functional": "B3LYP", 
		 "basiset": "6-31G**", 
		 "properties": { 
			 "R2extent": 5807.1232, 
			 "electric_dipole_moment_norm": 9.28571808909, 
			 "electric_quadrupole_moment_norm": 18.9976896122, 
			 "total_energy": -724.441720867, 
			 "HOMO_LUMO_gap": 0.13016, 
			 "cosmo_polarized_energy": -20.01, 
			 "cosmo_cavitation_energy": 33.13, 
			 "cosmo_dispersion_energy": -23.52, 
			 "cosmo_repulsion_energy": 1.81, 
			 "cosmo_total_nonelectrostatic_energy": 11.42, 
			 "SMD_solvation_energy": 7.97 
		},
		"coords": [
			{
				"x": -0.2792768417,
				"y": -0.1582551443,
				"z": -5.175384488,
				"element": "C" 
			},
			{
				"x": -0.0981982189,
				"y": -0.974464396,
				"z": -3.9841325367,
				"element": "N" 
			},
			{
				"x": 0.4561802514,
				"y": -2.3150613081,
				"z": -4.1111358188,
				"element": "C" 
			},
			{
				"x": -0.4461970615,
				"y": -0.4828068617,
				"z": -2.7507329643,
				"element": "C" 
			},
			{
				"x": -0.2790245772,
				"y": -1.2593242688,
				"z": -1.5723899308,
				"element": "C" 
			},
			{
				"x": -0.6280890628,
				"y": -0.7682256577,
				"z": -0.3293526399,
				"element": "C" 
			},
			{
				"x": -1.1683634895,
				"y": 0.531038892,
				"z": -0.1720367994,
				"element": "C" 
			},
			{
				"x": -1.563220921,
				"y": 1.1352785168,
				"z": 1.0754465777,
				"element": "C" 
			},
			{
				"x": -1.5380469989,
				"y": 0.6771418813,
				"z": 2.3668259945,
				"element": "C" 
			},
			{
				"x": -1.0678113913,
				"y": -0.6160906551,
				"z": 2.7517192818,
				"element": "C" 
			},
			{
				"x": -0.680003472,
				"y": -1.6746277929,
				"z": 3.0435227328,
				"element": "N" 
			},
			{
				"x": -2.0112354655,
				"y": 1.5149899646,
				"z": 3.4946989539,
				"element": "C" 
			},
			{
				"x": -2.4547497869,
				"y": 2.7410103275,
				"z": 3.104295775,
				"element": "O" 
			},
			{
				"x": -2.014322461,
				"y": 1.1685714843,
				"z": 4.6584917821,
				"element": "O" 
			},
			{
				"x": -1.3315973144,
				"y": 1.2977136792,
				"z": -1.3496156946,
				"element": "C" 
			},
			{
				"x": -0.9872618511,
				"y": 0.8205306615,
				"z": -2.5997000375,
				"element": "C" 
			},
			{
				"x": 0.0517578651,
				"y": -0.720159791,
				"z": -6.048736045,
				"element": "H" 
			},
			{
				"x": -1.3322996633,
				"y": 0.112589014,
				"z": -5.3267613695,
				"element": "H" 
			},
			{
				"x": 0.3074654725,
				"y": 0.7683528706,
				"z": -5.1269877639,
				"element": "H" 
			},
			{
				"x": -0.2440740115,
				"y": -3.0804074352,
				"z": -3.752840472,
				"element": "H" 
			},
			{
				"x": 0.6664388957,
				"y": -2.517054047,
				"z": -5.1614288431,
				"element": "H" 
			},
			{
				"x": 1.3941931167,
				"y": -2.4220327839,
				"z": -3.5515088004,
				"element": "H" 
			},
			{
				"x": 0.1297269941,
				"y": -2.2599577032,
				"z": -1.633945087,
				"element": "H" 
			},
			{
				"x": -0.4792271152,
				"y": -1.4031841413,
				"z": 0.534853208,
				"element": "H" 
			},
			{
				"x": -1.955076419,
				"y": 2.1440748711,
				"z": 0.9765453469,
				"element": "H" 
			},
			{
				"x": -2.7314509085,
				"y": 3.1832740336,
				"z": 3.922873726,
				"element": "H" 
			},
			{
				"x": -1.7435537788,
				"y": 2.30064433,
				"z": -1.2689139964,
				"element": "H" 
			},
			{
				"x": -1.1365817856,
				"y": 1.4566414595,
				"z": -3.4628700914,
				"element": "H" 
			}
		],
		 "valence_orbital": [ 
			{
				"type": "occ",
				"energy": -0.31303,
				"method": "rhf"
			},
			{
				"type": "occ",
				"energy": -0.27302,
				"method": "rhf"
			},
			{
				"type": "occ",
				"energy": -0.2682,
				"method": "rhf"
			},
			{
				"type": "occ",
				"energy": -0.26629,
				"method": "rhf"
			},
			{
				"type": "occ",
				"energy": -0.20615,
				"method": "rhf"
			},
			{
				"type": "unocc",
				"energy": -0.07599,
				"method": "rhf"
			},
			{
				"type": "unocc",
				"energy": -0.01228,
				"method": "rhf"
			},
			{
				"type": "unocc",
				"energy": 0.02407,
				"method": "rhf"
			},
			{
				"type": "unocc",
				"energy": 0.03719,
				"method": "rhf"
			},
			{
				"type": "unocc",
				"energy": 0.04039,
				"method": "rhf"
			}
		],
		"cosmo_sigma_profile": { 
			"-0.025": 0.0,
			"-0.024": 0.0,
			"-0.023": 0.0,
			"-0.022": 0.0,
			"-0.021": 0.0,
			"-0.02": 0.0,
			"-0.019": 0.052425299577,
			"-0.018": 0.616439651686,
			"-0.017": 1.30510684162,
			"-0.016": 0.714460447762,
			"-0.015": 0.471693682275,
			"-0.014": 0.722556732084,
			"-0.013": 0.4128778813,
			"-0.012": 0.822419558746,
			"-0.011": 1.11235679774,
			"-0.01": 0.835214325188,
			"-0.009": 0.757566239404,
			"-0.008": 3.79190314064,
			"-0.007": 6.4636275204,
			"-0.006": 12.8920634811,
			"-0.005": 22.2135825095,
			"-0.004": 19.6642379592,
			"-0.003": 21.7265908414,
			"-0.002": 23.8593039504,
			"-0.001": 21.0225273077,
			"0.0": 18.3853525408,
			"0.001": 16.7024292335,
			"0.002": 13.8835345198,
			"0.003": 13.7598368388,
			"0.004": 14.3800652233,
			"0.005": 5.79388794794,
			"0.006": 4.87565646868,
			"0.007": 5.58887510783,
			"0.008": 5.37075502158,
			"0.009": 5.048002395,
			"0.01": 5.34760874131,
			"0.011": 6.04758201975,
			"0.012": 7.83412846116,
			"0.013": 2.3194525229,
			"0.014": 0.226188103818,
			"0.015": 0.0,
			"0.016": 0.0,
			"0.017": 0.0,
			"0.018": 0.0,
			"0.019": 0.0,
			"0.02": 0.0,
			"0.021": 0.0,
			"0.022": 0.0,
			"0.023": 0.0,
			"0.024": 0.0,
			"0.025": 0.0
		}
	}
}
