{
	 "smiles": "NNC(=O)C1=C(O)C=C(O)C=C1", 
	 "Tm": 514.15, 
	 "num_atms": 20, 
	 "gaussian": { 
		 "optdone": 1, 
		 "sigma_profile": "yes", 
		 "theory": "DFT", 
		 "functional": "B3LYP", 
		 "basiset": "6-31G**", 
		 "properties": { 
			 "R2extent": 2679.972, 
			 "electric_dipole_moment_norm": 4.9469107077, 
			 "electric_quadrupole_moment_norm": 21.3933134953, 
			 "total_energy": -606.715676441, 
			 "HOMO_LUMO_gap": 0.18654, 
			 "cosmo_polarized_energy": -22.2, 
			 "cosmo_cavitation_energy": 24.07, 
			 "cosmo_dispersion_energy": -18.37, 
			 "cosmo_repulsion_energy": 1.47, 
			 "cosmo_total_nonelectrostatic_energy": 7.17, 
			 "SMD_solvation_energy": 6.11 
		},
		"coords": [
			{
				"x": 3.2120184587,
				"y": 1.9215120104,
				"z": -1.7906954305,
				"element": "N" 
			},
			{
				"x": 2.8181456921,
				"y": 0.5750794976,
				"z": -1.9491273033,
				"element": "N" 
			},
			{
				"x": 1.9568908427,
				"y": -0.0874046565,
				"z": -1.0600585425,
				"element": "C" 
			},
			{
				"x": 2.1105844717,
				"y": -1.3054327463,
				"z": -1.0013956677,
				"element": "O" 
			},
			{
				"x": 0.8934046424,
				"y": 0.5992226758,
				"z": -0.2696978198,
				"element": "C" 
			},
			{
				"x": 0.3398678769,
				"y": 1.8994964163,
				"z": -0.4363451871,
				"element": "C" 
			},
			{
				"x": 0.7753827879,
				"y": 2.8215532721,
				"z": -1.3131661115,
				"element": "O" 
			},
			{
				"x": -0.7649128193,
				"y": 2.2877627653,
				"z": 0.3392360928,
				"element": "C" 
			},
			{
				"x": -1.3215342676,
				"y": 1.4320811807,
				"z": 1.2823843216,
				"element": "C" 
			},
			{
				"x": -2.3877504163,
				"y": 1.7860969561,
				"z": 2.0507226562,
				"element": "O" 
			},
			{
				"x": -0.7777649053,
				"y": 0.1520503875,
				"z": 1.4799571886,
				"element": "C" 
			},
			{
				"x": 0.2956328338,
				"y": -0.2360655057,
				"z": 0.7050569112,
				"element": "C" 
			},
			{
				"x": 3.5073905882,
				"y": 2.2816636328,
				"z": -2.6945668843,
				"element": "H" 
			},
			{
				"x": 3.9839871089,
				"y": 2.0220907793,
				"z": -1.1298339958,
				"element": "H" 
			},
			{
				"x": 3.5390896909,
				"y": -0.0746027019,
				"z": -2.2506433994,
				"element": "H" 
			},
			{
				"x": 1.7218105111,
				"y": 2.6185922394,
				"z": -1.5384775335,
				"element": "H" 
			},
			{
				"x": -1.1606855795,
				"y": 3.286880656,
				"z": 0.1783291977,
				"element": "H" 
			},
			{
				"x": -2.6687111593,
				"y": 2.6789572776,
				"z": 1.8102376577,
				"element": "H" 
			},
			{
				"x": -1.2153644134,
				"y": -0.5064953729,
				"z": 2.2214906142,
				"element": "H" 
			},
			{
				"x": 0.7117180554,
				"y": -1.2307387636,
				"z": 0.8143932356,
				"element": "H" 
			}
		],
		 "valence_orbital": [ 
			{
				"type": "occ",
				"energy": -0.29992,
				"method": "rhf"
			},
			{
				"type": "occ",
				"energy": -0.27146,
				"method": "rhf"
			},
			{
				"type": "occ",
				"energy": -0.25233,
				"method": "rhf"
			},
			{
				"type": "occ",
				"energy": -0.22832,
				"method": "rhf"
			},
			{
				"type": "occ",
				"energy": -0.2124,
				"method": "rhf"
			},
			{
				"type": "unocc",
				"energy": -0.02586,
				"method": "rhf"
			},
			{
				"type": "unocc",
				"energy": 0.01558,
				"method": "rhf"
			},
			{
				"type": "unocc",
				"energy": 0.04232,
				"method": "rhf"
			},
			{
				"type": "unocc",
				"energy": 0.06742,
				"method": "rhf"
			},
			{
				"type": "unocc",
				"energy": 0.07307,
				"method": "rhf"
			}
		],
		"cosmo_sigma_profile": { 
			"-0.025": 0.0,
			"-0.024": 0.0,
			"-0.023": 0.0,
			"-0.022": 0.0,
			"-0.021": 0.0,
			"-0.02": 0.0,
			"-0.019": 0.00580651103882,
			"-0.018": 0.685657876169,
			"-0.017": 1.2589389129,
			"-0.016": 0.919437347604,
			"-0.015": 1.29676020023,
			"-0.014": 3.12913281911,
			"-0.013": 6.81936915866,
			"-0.012": 7.38937638144,
			"-0.011": 6.66651523491,
			"-0.01": 4.01198986099,
			"-0.009": 3.40646771923,
			"-0.008": 3.01441703619,
			"-0.007": 3.42123877688,
			"-0.006": 4.2864239866,
			"-0.005": 6.9779013073,
			"-0.004": 5.78842766939,
			"-0.003": 6.30347415491,
			"-0.002": 5.67071223435,
			"-0.001": 7.60070169715,
			"0.0": 7.93979361934,
			"0.001": 8.10571794944,
			"0.002": 10.830087597,
			"0.003": 15.7408015552,
			"0.004": 18.1615177022,
			"0.005": 11.0409405755,
			"0.006": 5.39464774565,
			"0.007": 4.32370666316,
			"0.008": 4.9573702773,
			"0.009": 4.53696277633,
			"0.01": 5.06738644692,
			"0.011": 4.64363499232,
			"0.012": 3.87736108432,
			"0.013": 5.02053121768,
			"0.014": 2.71451223453,
			"0.015": 0.0,
			"0.016": 0.0,
			"0.017": 0.0,
			"0.018": 0.0,
			"0.019": 0.0,
			"0.02": 0.0,
			"0.021": 0.0,
			"0.022": 0.0,
			"0.023": 0.0,
			"0.024": 0.0,
			"0.025": 0.0
		}
	}
}
