{
	 "smiles": "NC1CCC2SCCSC12", 
	 "Tm": 323.15, 
	 "num_atms": 23, 
	 "gaussian": { 
		 "optdone": 1, 
		 "sigma_profile": "yes", 
		 "theory": "DFT", 
		 "functional": "B3LYP", 
		 "basiset": "6-31G**", 
		 "properties": { 
			 "R2extent": 2855.1332, 
			 "electric_dipole_moment_norm": 2.39354677832, 
			 "electric_quadrupole_moment_norm": 11.1075128359, 
			 "total_energy": -1125.69843264, 
			 "HOMO_LUMO_gap": 0.25207, 
			 "cosmo_polarized_energy": -8.21, 
			 "cosmo_cavitation_energy": 24.92, 
			 "cosmo_dispersion_energy": -20.12, 
			 "cosmo_repulsion_energy": 1.52, 
			 "cosmo_total_nonelectrostatic_energy": 6.33, 
			 "SMD_solvation_energy": 2.28 
		},
		"coords": [
			{
				"x": -1.8114979501,
				"y": 0.0735648193,
				"z": -0.6118401085,
				"element": "N" 
			},
			{
				"x": -2.438650882,
				"y": -0.6634145332,
				"z": 0.4857432491,
				"element": "C" 
			},
			{
				"x": -2.3092905002,
				"y": 0.1092566748,
				"z": 1.8217314545,
				"element": "C" 
			},
			{
				"x": -1.9687111315,
				"y": -0.9487140359,
				"z": 2.884834139,
				"element": "C" 
			},
			{
				"x": -1.0581654681,
				"y": -1.9449267361,
				"z": 2.1445107387,
				"element": "C" 
			},
			{
				"x": 0.7091792742,
				"y": -1.3674573878,
				"z": 2.1273990185,
				"element": "S" 
			},
			{
				"x": 1.0235703926,
				"y": -1.0140073713,
				"z": 0.3555860433,
				"element": "C" 
			},
			{
				"x": 0.8503269317,
				"y": -2.2284774826,
				"z": -0.5456301184,
				"element": "C" 
			},
			{
				"x": -0.8766608952,
				"y": -2.8959581398,
				"z": -0.6025040199,
				"element": "S" 
			},
			{
				"x": -1.7620668465,
				"y": -2.0572525048,
				"z": 0.7711102539,
				"element": "C" 
			},
			{
				"x": -2.309848086,
				"y": 0.9478318674,
				"z": -0.7620444382,
				"element": "H" 
			},
			{
				"x": -1.8878529472,
				"y": -0.4692746205,
				"z": -1.4699440937,
				"element": "H" 
			},
			{
				"x": -3.5030824529,
				"y": -0.8699002087,
				"z": 0.2846795281,
				"element": "H" 
			},
			{
				"x": -1.4763835743,
				"y": 0.8139489033,
				"z": 1.7283557933,
				"element": "H" 
			},
			{
				"x": -3.2091779105,
				"y": 0.6814143819,
				"z": 2.0684621978,
				"element": "H" 
			},
			{
				"x": -1.4972018942,
				"y": -0.5249788277,
				"z": 3.7754383789,
				"element": "H" 
			},
			{
				"x": -2.8769795245,
				"y": -1.4759292207,
				"z": 3.2086570576,
				"element": "H" 
			},
			{
				"x": -1.0295324023,
				"y": -2.9218891128,
				"z": 2.6322083303,
				"element": "H" 
			},
			{
				"x": 0.387446062,
				"y": -0.1935882935,
				"z": 0.014925822,
				"element": "H" 
			},
			{
				"x": 2.0701230096,
				"y": -0.6921653773,
				"z": 0.3335874547,
				"element": "H" 
			},
			{
				"x": 1.5048363997,
				"y": -3.0415632673,
				"z": -0.222069779,
				"element": "H" 
			},
			{
				"x": 1.1043277823,
				"y": -1.9611682339,
				"z": -1.5765688769,
				"element": "H" 
			},
			{
				"x": -2.5839073865,
				"y": -2.7631512927,
				"z": 0.9341719749,
				"element": "H" 
			}
		],
		 "valence_orbital": [ 
			{
				"type": "occ",
				"energy": -0.30641,
				"method": "rhf"
			},
			{
				"type": "occ",
				"energy": -0.28558,
				"method": "rhf"
			},
			{
				"type": "occ",
				"energy": -0.24147,
				"method": "rhf"
			},
			{
				"type": "occ",
				"energy": -0.21979,
				"method": "rhf"
			},
			{
				"type": "occ",
				"energy": -0.21304,
				"method": "rhf"
			},
			{
				"type": "unocc",
				"energy": 0.03903,
				"method": "rhf"
			},
			{
				"type": "unocc",
				"energy": 0.04252,
				"method": "rhf"
			},
			{
				"type": "unocc",
				"energy": 0.05475,
				"method": "rhf"
			},
			{
				"type": "unocc",
				"energy": 0.06477,
				"method": "rhf"
			},
			{
				"type": "unocc",
				"energy": 0.09372,
				"method": "rhf"
			}
		],
		"cosmo_sigma_profile": { 
			"-0.025": 0.0,
			"-0.024": 0.0,
			"-0.023": 0.0,
			"-0.022": 0.0,
			"-0.021": 0.0,
			"-0.02": 0.0,
			"-0.019": 0.0,
			"-0.018": 0.0,
			"-0.017": 0.0,
			"-0.016": 0.0,
			"-0.015": 0.0,
			"-0.014": 0.0,
			"-0.013": 0.0,
			"-0.012": 0.0,
			"-0.011": 0.0,
			"-0.01": 0.763056281104,
			"-0.009": 1.46551150461,
			"-0.008": 1.45700229957,
			"-0.007": 2.6560556763,
			"-0.006": 8.3168993006,
			"-0.005": 13.7494128959,
			"-0.004": 17.0822712511,
			"-0.003": 21.9840955283,
			"-0.002": 24.8196344655,
			"-0.001": 17.115062538,
			"0.0": 15.7793655772,
			"0.001": 9.86703651283,
			"0.002": 7.66049031917,
			"0.003": 7.0888368655,
			"0.004": 7.0193455245,
			"0.005": 7.79069463718,
			"0.006": 7.53116370827,
			"0.007": 7.2317339174,
			"0.008": 5.92644174099,
			"0.009": 4.9391490118,
			"0.01": 3.23740199154,
			"0.011": 2.82369867666,
			"0.012": 0.485222875937,
			"0.013": 0.0,
			"0.014": 0.0,
			"0.015": 0.0,
			"0.016": 0.0,
			"0.017": 0.0,
			"0.018": 0.0,
			"0.019": 0.0,
			"0.02": 0.0,
			"0.021": 0.0,
			"0.022": 0.0,
			"0.023": 0.0,
			"0.024": 0.0,
			"0.025": 0.0
		}
	}
}
