{
	 "smiles": "OC(=O)C1=C(O)C=CC=C1F", 
	 "Tm": 433.15, 
	 "num_atms": 16, 
	 "gaussian": { 
		 "optdone": 1, 
		 "sigma_profile": "yes", 
		 "theory": "DFT", 
		 "functional": "B3LYP", 
		 "basiset": "6-31G**", 
		 "properties": { 
			 "R2extent": 2365.2753, 
			 "electric_dipole_moment_norm": 4.04884275936, 
			 "electric_quadrupole_moment_norm": 11.2821825411, 
			 "total_energy": -595.285278087, 
			 "HOMO_LUMO_gap": 0.18031, 
			 "cosmo_polarized_energy": -9.41, 
			 "cosmo_cavitation_energy": 20.5, 
			 "cosmo_dispersion_energy": -15.92, 
			 "cosmo_repulsion_energy": 1.23, 
			 "cosmo_total_nonelectrostatic_energy": 5.82, 
			 "SMD_solvation_energy": 5.41 
		},
		"coords": [
			{
				"x": 0.1625102906,
				"y": -0.866055843,
				"z": 3.697660785,
				"element": "O" 
			},
			{
				"x": -0.619161561,
				"y": 0.0634998694,
				"z": 3.13733458,
				"element": "C" 
			},
			{
				"x": -1.1605214053,
				"y": 0.8949028662,
				"z": 3.8631943415,
				"element": "O" 
			},
			{
				"x": -0.8142397085,
				"y": 0.0709059594,
				"z": 1.6674948751,
				"element": "C" 
			},
			{
				"x": -1.6543869235,
				"y": 1.0747753482,
				"z": 1.0991048266,
				"element": "C" 
			},
			{
				"x": -2.2605562414,
				"y": 1.9946819493,
				"z": 1.8490585463,
				"element": "O" 
			},
			{
				"x": -1.8620240366,
				"y": 1.1118321863,
				"z": -0.2920894979,
				"element": "C" 
			},
			{
				"x": -1.2549080011,
				"y": 0.1781008025,
				"z": -1.1155367996,
				"element": "C" 
			},
			{
				"x": -0.422625995,
				"y": -0.8230699973,
				"z": -0.5921422815,
				"element": "C" 
			},
			{
				"x": -0.2317712362,
				"y": -0.8427265244,
				"z": 0.771743538,
				"element": "C" 
			},
			{
				"x": 0.5823313642,
				"y": -1.8231433779,
				"z": 1.2769104415,
				"element": "F" 
			},
			{
				"x": 0.5251401339,
				"y": -1.4560363122,
				"z": 3.0164337918,
				"element": "H" 
			},
			{
				"x": -1.9988929837,
				"y": 1.8111048303,
				"z": 2.7925870243,
				"element": "H" 
			},
			{
				"x": -2.5062302797,
				"y": 1.8881852805,
				"z": -0.6886087639,
				"element": "H" 
			},
			{
				"x": -1.4240677188,
				"y": 0.21865081,
				"z": -2.1871762617,
				"element": "H" 
			},
			{
				"x": 0.0623043022,
				"y": -1.5633078474,
				"z": -1.2166691454,
				"element": "H" 
			}
		],
		 "valence_orbital": [ 
			{
				"type": "occ",
				"energy": -0.35147,
				"method": "rhf"
			},
			{
				"type": "occ",
				"energy": -0.33016,
				"method": "rhf"
			},
			{
				"type": "occ",
				"energy": -0.29462,
				"method": "rhf"
			},
			{
				"type": "occ",
				"energy": -0.27942,
				"method": "rhf"
			},
			{
				"type": "occ",
				"energy": -0.24284,
				"method": "rhf"
			},
			{
				"type": "unocc",
				"energy": -0.06253,
				"method": "rhf"
			},
			{
				"type": "unocc",
				"energy": -0.01011,
				"method": "rhf"
			},
			{
				"type": "unocc",
				"energy": 0.03725,
				"method": "rhf"
			},
			{
				"type": "unocc",
				"energy": 0.06143,
				"method": "rhf"
			},
			{
				"type": "unocc",
				"energy": 0.10454,
				"method": "rhf"
			}
		],
		"cosmo_sigma_profile": { 
			"-0.025": 0.0,
			"-0.024": 0.0,
			"-0.023": 0.0,
			"-0.022": 0.0,
			"-0.021": 0.0,
			"-0.02": 0.0,
			"-0.019": 0.0,
			"-0.018": 0.0,
			"-0.017": 0.0,
			"-0.016": 0.0,
			"-0.015": 0.0,
			"-0.014": 0.284174541471,
			"-0.013": 0.421018662901,
			"-0.012": 0.95253532881,
			"-0.011": 1.07693414739,
			"-0.01": 1.75219944298,
			"-0.009": 1.64281047082,
			"-0.008": 4.22453952913,
			"-0.007": 7.83720419119,
			"-0.006": 8.5524013935,
			"-0.005": 8.64596951061,
			"-0.004": 10.3981769625,
			"-0.003": 10.1312429191,
			"-0.002": 10.3637158359,
			"-0.001": 11.9961613939,
			"0.0": 13.5229170322,
			"0.001": 13.4323037019,
			"0.002": 16.003017268,
			"0.003": 9.85716659847,
			"0.004": 3.13765328988,
			"0.005": 3.64702324127,
			"0.006": 3.6838464328,
			"0.007": 3.31490666388,
			"0.008": 5.02434235187,
			"0.009": 4.84518632171,
			"0.01": 5.62958175742,
			"0.011": 3.38255812526,
			"0.012": 1.60187571268,
			"0.013": 0.138170770494,
			"0.014": 0.0,
			"0.015": 0.0,
			"0.016": 0.0,
			"0.017": 0.0,
			"0.018": 0.0,
			"0.019": 0.0,
			"0.02": 0.0,
			"0.021": 0.0,
			"0.022": 0.0,
			"0.023": 0.0,
			"0.024": 0.0,
			"0.025": 0.0
		}
	}
}
