{
	 "smiles": "OC(=O)C1=CC=C(CN2CCOCC2)C=C1", 
	 "Tm": 454.15, 
	 "num_atms": 31, 
	 "gaussian": { 
		 "optdone": 1, 
		 "sigma_profile": "yes", 
		 "theory": "DFT", 
		 "functional": "B3LYP", 
		 "basiset": "6-31G**", 
		 "properties": { 
			 "R2extent": 5711.2668, 
			 "electric_dipole_moment_norm": 1.66458870295, 
			 "electric_quadrupole_moment_norm": 13.8592779101, 
			 "total_energy": -746.735942635, 
			 "HOMO_LUMO_gap": 0.16016, 
			 "cosmo_polarized_energy": -12.91, 
			 "cosmo_cavitation_energy": 33.36, 
			 "cosmo_dispersion_energy": -24.24, 
			 "cosmo_repulsion_energy": 1.89, 
			 "cosmo_total_nonelectrostatic_energy": 11.0, 
			 "SMD_solvation_energy": 5.25 
		},
		"coords": [
			{
				"x": 0.381524933,
				"y": -5.340291235,
				"z": -1.6528090837,
				"element": "O" 
			},
			{
				"x": 0.8784197041,
				"y": -4.7147630344,
				"z": -0.5546686832,
				"element": "C" 
			},
			{
				"x": 1.7077723566,
				"y": -5.2403077611,
				"z": 0.1627347287,
				"element": "O" 
			},
			{
				"x": 0.3057345958,
				"y": -3.360725333,
				"z": -0.3448377663,
				"element": "C" 
			},
			{
				"x": 0.7484102805,
				"y": -2.6223869989,
				"z": 0.7599304746,
				"element": "C" 
			},
			{
				"x": 0.243342367,
				"y": -1.346727607,
				"z": 0.9936652735,
				"element": "C" 
			},
			{
				"x": -0.7149343987,
				"y": -0.7867632443,
				"z": 0.1384355901,
				"element": "C" 
			},
			{
				"x": -1.3052853808,
				"y": 0.582183095,
				"z": 0.4344475423,
				"element": "C" 
			},
			{
				"x": -1.5519919907,
				"y": 1.3627734699,
				"z": -0.7785321121,
				"element": "N" 
			},
			{
				"x": -2.5079908403,
				"y": 2.4654939407,
				"z": -0.6176180142,
				"element": "C" 
			},
			{
				"x": -1.8890617051,
				"y": 3.7084859496,
				"z": 0.0320511873,
				"element": "C" 
			},
			{
				"x": -0.7451463349,
				"y": 4.1384917104,
				"z": -0.6980744833,
				"element": "O" 
			},
			{
				"x": 0.2386131631,
				"y": 3.1105623897,
				"z": -0.7735602755,
				"element": "C" 
			},
			{
				"x": -0.3326857458,
				"y": 1.8544291136,
				"z": -1.4403025733,
				"element": "C" 
			},
			{
				"x": -1.1517888481,
				"y": -1.5303384535,
				"z": -0.967084014,
				"element": "C" 
			},
			{
				"x": -0.6483429615,
				"y": -2.804788576,
				"z": -1.2101532893,
				"element": "C" 
			},
			{
				"x": 0.8242774784,
				"y": -6.204089276,
				"z": -1.6834433146,
				"element": "H" 
			},
			{
				"x": 1.4914269216,
				"y": -3.0628412964,
				"z": 1.416271998,
				"element": "H" 
			},
			{
				"x": 0.5966016242,
				"y": -0.7765987129,
				"z": 1.8495046712,
				"element": "H" 
			},
			{
				"x": -0.6645162372,
				"y": 1.0876292829,
				"z": 1.1782723978,
				"element": "H" 
			},
			{
				"x": -2.2773151907,
				"y": 0.4399919236,
				"z": 0.9261087516,
				"element": "H" 
			},
			{
				"x": -3.3710859728,
				"y": 2.1158307266,
				"z": -0.039379182,
				"element": "H" 
			},
			{
				"x": -2.8672731526,
				"y": 2.7446509887,
				"z": -1.617022025,
				"element": "H" 
			},
			{
				"x": -1.61409955,
				"y": 3.502877074,
				"z": 1.0811381173,
				"element": "H" 
			},
			{
				"x": -2.5946567106,
				"y": 4.545551293,
				"z": 0.0262730367,
				"element": "H" 
			},
			{
				"x": 1.0692467609,
				"y": 3.5177995421,
				"z": -1.3586104519,
				"element": "H" 
			},
			{
				"x": 0.6186023435,
				"y": 2.8791397775,
				"z": 0.2361951571,
				"element": "H" 
			},
			{
				"x": -0.5890101808,
				"y": 2.0991284385,
				"z": -2.4791310001,
				"element": "H" 
			},
			{
				"x": 0.4131098383,
				"y": 1.0532209532,
				"z": -1.4629617602,
				"element": "H" 
			},
			{
				"x": -1.8813767781,
				"y": -1.0866209083,
				"z": -1.6367335496,
				"element": "H" 
			},
			{
				"x": -0.989920388,
				"y": -3.3746972324,
				"z": -2.0670073476,
				"element": "H" 
			}
		],
		 "valence_orbital": [ 
			{
				"type": "occ",
				"energy": -0.27473,
				"method": "rhf"
			},
			{
				"type": "occ",
				"energy": -0.27341,
				"method": "rhf"
			},
			{
				"type": "occ",
				"energy": -0.25925,
				"method": "rhf"
			},
			{
				"type": "occ",
				"energy": -0.25308,
				"method": "rhf"
			},
			{
				"type": "occ",
				"energy": -0.20722,
				"method": "rhf"
			},
			{
				"type": "unocc",
				"energy": -0.04706,
				"method": "rhf"
			},
			{
				"type": "unocc",
				"energy": -0.00896,
				"method": "rhf"
			},
			{
				"type": "unocc",
				"energy": 0.05373,
				"method": "rhf"
			},
			{
				"type": "unocc",
				"energy": 0.07602,
				"method": "rhf"
			},
			{
				"type": "unocc",
				"energy": 0.08042,
				"method": "rhf"
			}
		],
		"cosmo_sigma_profile": { 
			"-0.025": 0.0,
			"-0.024": 0.0,
			"-0.023": 0.0,
			"-0.022": 0.0,
			"-0.021": 0.0,
			"-0.02": 0.0,
			"-0.019": 0.0420879641978,
			"-0.018": 0.713597589067,
			"-0.017": 1.14457965315,
			"-0.016": 0.448746553369,
			"-0.015": 0.865660650236,
			"-0.014": 0.54818955612,
			"-0.013": 0.603004049895,
			"-0.012": 0.597980619738,
			"-0.011": 1.16087636107,
			"-0.01": 0.737723207815,
			"-0.009": 0.270973178531,
			"-0.008": 0.69428099048,
			"-0.007": 0.648867130852,
			"-0.006": 5.29507633128,
			"-0.005": 15.695943609,
			"-0.004": 30.2722163353,
			"-0.003": 35.0817739803,
			"-0.002": 27.2876725133,
			"-0.001": 19.9744139867,
			"0.0": 16.5491010757,
			"0.001": 15.3464685245,
			"0.002": 16.1963111267,
			"0.003": 16.023797941,
			"0.004": 14.7320546794,
			"0.005": 5.71958272951,
			"0.006": 5.40566801544,
			"0.007": 4.35597749177,
			"0.008": 4.77694295276,
			"0.009": 3.65976230161,
			"0.01": 3.22781576247,
			"0.011": 4.48921248675,
			"0.012": 6.62992942759,
			"0.013": 1.89778104781,
			"0.014": 1.20022478073,
			"0.015": 0.0,
			"0.016": 0.0,
			"0.017": 0.0,
			"0.018": 0.0,
			"0.019": 0.0,
			"0.02": 0.0,
			"0.021": 0.0,
			"0.022": 0.0,
			"0.023": 0.0,
			"0.024": 0.0,
			"0.025": 0.0
		}
	}
}
