{
	 "smiles": "CC1=NN=C(SCC2=CC=CC=C2)N1N=CC1=CC=C(Cl)C=C1", 
	 "Tm": 393.15, 
	 "num_atms": 38, 
	 "gaussian": { 
		 "optdone": 1, 
		 "sigma_profile": "yes", 
		 "theory": "DFT", 
		 "functional": "B3LYP", 
		 "basiset": "6-31G**", 
		 "properties": { 
			 "R2extent": 14181.2934, 
			 "electric_dipole_moment_norm": 3.03689603543, 
			 "electric_quadrupole_moment_norm": 18.0032804408, 
			 "total_energy": -1734.18114444, 
			 "HOMO_LUMO_gap": 0.14515, 
			 "cosmo_polarized_energy": -16.23, 
			 "cosmo_cavitation_energy": 46.56, 
			 "cosmo_dispersion_energy": -32.92, 
			 "cosmo_repulsion_energy": 2.48, 
			 "cosmo_total_nonelectrostatic_energy": 16.13, 
			 "SMD_solvation_energy": 5.37 
		},
		"coords": [
			{
				"x": 1.2609731074,
				"y": 3.9204090715,
				"z": 2.2526291673,
				"element": "C" 
			},
			{
				"x": 0.5372256613,
				"y": 2.6450613907,
				"z": 1.9991392231,
				"element": "C" 
			},
			{
				"x": -0.5616928837,
				"y": 2.2440628431,
				"z": 2.5816797836,
				"element": "N" 
			},
			{
				"x": -0.8928464129,
				"y": 1.0021317251,
				"z": 2.0588684997,
				"element": "N" 
			},
			{
				"x": 0.0189620428,
				"y": 0.6712228148,
				"z": 1.177693535,
				"element": "C" 
			},
			{
				"x": -0.0012901536,
				"y": -0.7798587242,
				"z": 0.1761708102,
				"element": "S" 
			},
			{
				"x": -1.7957939025,
				"y": -1.2569028973,
				"z": 0.3460822207,
				"element": "C" 
			},
			{
				"x": -2.733217937,
				"y": -0.5170411763,
				"z": -0.5692703846,
				"element": "C" 
			},
			{
				"x": -2.9502599759,
				"y": -0.9670989771,
				"z": -1.8792972301,
				"element": "C" 
			},
			{
				"x": -3.826201099,
				"y": -0.2911125343,
				"z": -2.7273898012,
				"element": "C" 
			},
			{
				"x": -4.4982501859,
				"y": 0.8467249776,
				"z": -2.2744792782,
				"element": "C" 
			},
			{
				"x": -4.2892528733,
				"y": 1.3010020657,
				"z": -0.9711958285,
				"element": "C" 
			},
			{
				"x": -3.4128144472,
				"y": 0.6246055523,
				"z": -0.1212552426,
				"element": "C" 
			},
			{
				"x": 0.9732498633,
				"y": 1.6843639819,
				"z": 1.099445318,
				"element": "N" 
			},
			{
				"x": 2.0770358518,
				"y": 1.9002282734,
				"z": 0.3102671158,
				"element": "N" 
			},
			{
				"x": 2.7150120772,
				"y": 0.8856996824,
				"z": -0.1562523875,
				"element": "C" 
			},
			{
				"x": 3.876271675,
				"y": 1.0648107044,
				"z": -1.0289435221,
				"element": "C" 
			},
			{
				"x": 4.5857436765,
				"y": -0.0676249985,
				"z": -1.4579679973,
				"element": "C" 
			},
			{
				"x": 5.7028237487,
				"y": 0.0560020269,
				"z": -2.2808060675,
				"element": "C" 
			},
			{
				"x": 6.1107655085,
				"y": 1.3287751551,
				"z": -2.6781974006,
				"element": "C" 
			},
			{
				"x": 7.5139169175,
				"y": 1.4996135291,
				"z": -3.715267364,
				"element": "Cl" 
			},
			{
				"x": 5.4188074886,
				"y": 2.4730294219,
				"z": -2.2673666153,
				"element": "C" 
			},
			{
				"x": 4.3056911296,
				"y": 2.3369640265,
				"z": -1.4481085516,
				"element": "C" 
			},
			{
				"x": 1.3843781064,
				"y": 4.4955427936,
				"z": 1.3297897353,
				"element": "H" 
			},
			{
				"x": 2.2595951938,
				"y": 3.7410368157,
				"z": 2.6642984298,
				"element": "H" 
			},
			{
				"x": 0.6816231279,
				"y": 4.504952155,
				"z": 2.9686766601,
				"element": "H" 
			},
			{
				"x": -1.7770933706,
				"y": -2.3271881467,
				"z": 0.1244422427,
				"element": "H" 
			},
			{
				"x": -2.045224504,
				"y": -1.1165741916,
				"z": 1.397963945,
				"element": "H" 
			},
			{
				"x": -2.4308944516,
				"y": -1.8540019505,
				"z": -2.2353863472,
				"element": "H" 
			},
			{
				"x": -3.9876397509,
				"y": -0.6538553061,
				"z": -3.7386105892,
				"element": "H" 
			},
			{
				"x": -5.1830515035,
				"y": 1.3732270839,
				"z": -2.9332265069,
				"element": "H" 
			},
			{
				"x": -4.8113749271,
				"y": 2.1833490236,
				"z": -0.6120234592,
				"element": "H" 
			},
			{
				"x": -3.240143033,
				"y": 0.9796665334,
				"z": 0.8898066459,
				"element": "H" 
			},
			{
				"x": 2.4430111695,
				"y": -0.1439549258,
				"z": 0.0857483483,
				"element": "H" 
			},
			{
				"x": 4.2614928038,
				"y": -1.0564546773,
				"z": -1.144776841,
				"element": "H" 
			},
			{
				"x": 6.2502404061,
				"y": -0.8195154061,
				"z": -2.6109517168,
				"element": "H" 
			},
			{
				"x": 5.7521838285,
				"y": 3.4523092098,
				"z": -2.5922614671,
				"element": "H" 
			},
			{
				"x": 3.7536380277,
				"y": 3.2122930544,
				"z": -1.1239670818,
				"element": "H" 
			}
		],
		 "valence_orbital": [ 
			{
				"type": "occ",
				"energy": -0.25546,
				"method": "rhf"
			},
			{
				"type": "occ",
				"energy": -0.24872,
				"method": "rhf"
			},
			{
				"type": "occ",
				"energy": -0.24456,
				"method": "rhf"
			},
			{
				"type": "occ",
				"energy": -0.24174,
				"method": "rhf"
			},
			{
				"type": "occ",
				"energy": -0.22258,
				"method": "rhf"
			},
			{
				"type": "unocc",
				"energy": -0.07743,
				"method": "rhf"
			},
			{
				"type": "unocc",
				"energy": -0.02919,
				"method": "rhf"
			},
			{
				"type": "unocc",
				"energy": -0.01908,
				"method": "rhf"
			},
			{
				"type": "unocc",
				"energy": -0.00048,
				"method": "rhf"
			},
			{
				"type": "unocc",
				"energy": 0.00755,
				"method": "rhf"
			}
		],
		"cosmo_sigma_profile": { 
			"-0.025": 0.0,
			"-0.024": 0.0,
			"-0.023": 0.0,
			"-0.022": 0.0,
			"-0.021": 0.0,
			"-0.02": 0.0,
			"-0.019": 0.0,
			"-0.018": 0.0,
			"-0.017": 0.0,
			"-0.016": 0.0,
			"-0.015": 0.0,
			"-0.014": 0.0,
			"-0.013": 0.0,
			"-0.012": 0.0,
			"-0.011": 0.000512647169306,
			"-0.01": 0.771727562463,
			"-0.009": 1.72184773756,
			"-0.008": 7.09543236428,
			"-0.007": 11.5416747965,
			"-0.006": 18.1847954221,
			"-0.005": 26.2325176286,
			"-0.004": 25.0960717568,
			"-0.003": 29.9576581017,
			"-0.002": 29.8642822585,
			"-0.001": 29.4891969332,
			"0.0": 26.6649472764,
			"0.001": 33.5305385758,
			"0.002": 36.2132407639,
			"0.003": 24.9154211391,
			"0.004": 25.6353305141,
			"0.005": 18.7104818443,
			"0.006": 11.9713732282,
			"0.007": 3.00714121722,
			"0.008": 1.22778378677,
			"0.009": 2.05915779559,
			"0.01": 1.84018590474,
			"0.011": 1.80621253416,
			"0.012": 2.6728023149,
			"0.013": 2.35510711172,
			"0.014": 2.62985905345,
			"0.015": 1.02358964746,
			"0.016": 1.09713572209,
			"0.017": 0.637063614318,
			"0.018": 0.0,
			"0.019": 0.0,
			"0.02": 0.0,
			"0.021": 0.0,
			"0.022": 0.0,
			"0.023": 0.0,
			"0.024": 0.0,
			"0.025": 0.0
		}
	}
}
