{
	 "smiles": "NC1=CC(=CC=C1)N1C=CC(=N1)C(O)=O", 
	 "Tm": 523.15, 
	 "num_atms": 24, 
	 "gaussian": { 
		 "optdone": 1, 
		 "sigma_profile": "yes", 
		 "theory": "DFT", 
		 "functional": "B3LYP", 
		 "basiset": "6-31G**", 
		 "properties": { 
			 "R2extent": 4396.9541, 
			 "electric_dipole_moment_norm": 8.16044344261, 
			 "electric_quadrupole_moment_norm": 25.355863179, 
			 "total_energy": -701.186643077, 
			 "HOMO_LUMO_gap": 0.17419, 
			 "cosmo_polarized_energy": -18.43, 
			 "cosmo_cavitation_energy": 29.34, 
			 "cosmo_dispersion_energy": -21.56, 
			 "cosmo_repulsion_energy": 1.68, 
			 "cosmo_total_nonelectrostatic_energy": 9.46, 
			 "SMD_solvation_energy": 6.03 
		},
		"coords": [
			{
				"x": 1.3584077107,
				"y": -2.1153628049,
				"z": -4.1582670613,
				"element": "N" 
			},
			{
				"x": 1.1823438443,
				"y": -1.1416734442,
				"z": -3.1791958339,
				"element": "C" 
			},
			{
				"x": 0.1902935953,
				"y": -1.2921923703,
				"z": -2.1964513236,
				"element": "C" 
			},
			{
				"x": 0.0609883674,
				"y": -0.3400467579,
				"z": -1.1841162216,
				"element": "C" 
			},
			{
				"x": 0.8863630392,
				"y": 0.7854122034,
				"z": -1.1332434411,
				"element": "C" 
			},
			{
				"x": 1.8587143465,
				"y": 0.9343715642,
				"z": -2.12149524,
				"element": "C" 
			},
			{
				"x": 2.0178871446,
				"y": -0.0112295161,
				"z": -3.1301250906,
				"element": "C" 
			},
			{
				"x": -0.9340846079,
				"y": -0.5234302247,
				"z": -0.1807976376,
				"element": "N" 
			},
			{
				"x": -1.4261425669,
				"y": -1.7075714608,
				"z": 0.3068686888,
				"element": "C" 
			},
			{
				"x": -2.3572447226,
				"y": -1.3965672061,
				"z": 1.2715378131,
				"element": "C" 
			},
			{
				"x": -2.3623199044,
				"y": 0.0150574361,
				"z": 1.3073532925,
				"element": "C" 
			},
			{
				"x": -1.4999897793,
				"y": 0.5354883718,
				"z": 0.4293531189,
				"element": "N" 
			},
			{
				"x": -3.1812741017,
				"y": 0.9135113214,
				"z": 2.1602318986,
				"element": "C" 
			},
			{
				"x": -2.9714889185,
				"y": 2.2316948987,
				"z": 1.9455338783,
				"element": "O" 
			},
			{
				"x": -3.9731676382,
				"y": 0.5117829447,
				"z": 2.9811681306,
				"element": "O" 
			},
			{
				"x": 0.5548188018,
				"y": -2.6962285718,
				"z": -4.3519965559,
				"element": "H" 
			},
			{
				"x": 1.8192635875,
				"y": -1.80592029,
				"z": -5.0023178975,
				"element": "H" 
			},
			{
				"x": -0.4889211096,
				"y": -2.1376658364,
				"z": -2.2432828794,
				"element": "H" 
			},
			{
				"x": 0.7634844321,
				"y": 1.5096761494,
				"z": -0.3385982776,
				"element": "H" 
			},
			{
				"x": 2.5106003646,
				"y": 1.8026352734,
				"z": -2.0995315631,
				"element": "H" 
			},
			{
				"x": 2.7878645825,
				"y": 0.1187969555,
				"z": -3.8857287279,
				"element": "H" 
			},
			{
				"x": -1.0524651077,
				"y": -2.6559685362,
				"z": -0.0462386348,
				"element": "H" 
			},
			{
				"x": -2.9455370124,
				"y": -2.067870978,
				"z": 1.8767859169,
				"element": "H" 
			},
			{
				"x": -2.3038943473,
				"y": 2.3197008786,
				"z": 1.242053648,
				"element": "H" 
			}
		],
		 "valence_orbital": [ 
			{
				"type": "occ",
				"energy": -0.29131,
				"method": "rhf"
			},
			{
				"type": "occ",
				"energy": -0.27055,
				"method": "rhf"
			},
			{
				"type": "occ",
				"energy": -0.26484,
				"method": "rhf"
			},
			{
				"type": "occ",
				"energy": -0.24718,
				"method": "rhf"
			},
			{
				"type": "occ",
				"energy": -0.21992,
				"method": "rhf"
			},
			{
				"type": "unocc",
				"energy": -0.04573,
				"method": "rhf"
			},
			{
				"type": "unocc",
				"energy": -0.01263,
				"method": "rhf"
			},
			{
				"type": "unocc",
				"energy": -4e-05,
				"method": "rhf"
			},
			{
				"type": "unocc",
				"energy": 0.0278,
				"method": "rhf"
			},
			{
				"type": "unocc",
				"energy": 0.06449,
				"method": "rhf"
			}
		],
		"cosmo_sigma_profile": { 
			"-0.025": 0.0,
			"-0.024": 0.0,
			"-0.023": 0.0,
			"-0.022": 0.0,
			"-0.021": 0.0,
			"-0.02": 0.0,
			"-0.019": 0.0,
			"-0.018": 0.0,
			"-0.017": 0.0,
			"-0.016": 0.0,
			"-0.015": 0.0295960975649,
			"-0.014": 0.807549725529,
			"-0.013": 1.31285162018,
			"-0.012": 3.40007935562,
			"-0.011": 4.99439651948,
			"-0.01": 4.40612505537,
			"-0.009": 6.39272586326,
			"-0.008": 8.32408263009,
			"-0.007": 7.71757862301,
			"-0.006": 10.0246193433,
			"-0.005": 10.9062126565,
			"-0.004": 12.7053748645,
			"-0.003": 12.7769801057,
			"-0.002": 10.4564648219,
			"-0.001": 12.7577186993,
			"0.0": 14.0547024896,
			"0.001": 17.7937485385,
			"0.002": 14.7040968204,
			"0.003": 14.8469241724,
			"0.004": 13.7695463742,
			"0.005": 14.9995218562,
			"0.006": 5.48503175936,
			"0.007": 3.40479939711,
			"0.008": 4.63079693146,
			"0.009": 4.40511916386,
			"0.01": 5.88003439881,
			"0.011": 5.60721993271,
			"0.012": 5.3472183108,
			"0.013": 2.81625489951,
			"0.014": 0.366405208662,
			"0.015": 0.0,
			"0.016": 0.0,
			"0.017": 0.0,
			"0.018": 0.0,
			"0.019": 0.0,
			"0.02": 0.0,
			"0.021": 0.0,
			"0.022": 0.0,
			"0.023": 0.0,
			"0.024": 0.0,
			"0.025": 0.0
		}
	}
}
