{
	 "smiles": "COC1=CC=CC=C1C1=CC=C(O1)C=CC(=O)C1=CC(OC)=C(OC)C=C1", 
	 "Tm": 417.15, 
	 "num_atms": 47, 
	 "gaussian": { 
		 "optdone": 1, 
		 "sigma_profile": "yes", 
		 "theory": "DFT", 
		 "functional": "B3LYP", 
		 "basiset": "6-31G**", 
		 "properties": { 
			 "R2extent": 17377.2133, 
			 "electric_dipole_moment_norm": 7.41551324387, 
			 "electric_quadrupole_moment_norm": 27.774786078, 
			 "total_energy": -1226.4514992, 
			 "HOMO_LUMO_gap": 0.12269, 
			 "cosmo_polarized_energy": -17.74, 
			 "cosmo_cavitation_energy": 52.33, 
			 "cosmo_dispersion_energy": -36.27, 
			 "cosmo_repulsion_energy": 2.71, 
			 "cosmo_total_nonelectrostatic_energy": 18.77, 
			 "SMD_solvation_energy": 11.96 
		},
		"coords": [
			{
				"x": -1.5559905432,
				"y": -4.8396309755,
				"z": -6.3659031833,
				"element": "C" 
			},
			{
				"x": -1.5577943882,
				"y": -3.9142849966,
				"z": -5.2881249792,
				"element": "O" 
			},
			{
				"x": -0.4113427497,
				"y": -3.7366520198,
				"z": -4.5707663807,
				"element": "C" 
			},
			{
				"x": 0.776770537,
				"y": -4.4214160407,
				"z": -4.8435042133,
				"element": "C" 
			},
			{
				"x": 1.9167424447,
				"y": -4.193851113,
				"z": -4.0705583268,
				"element": "C" 
			},
			{
				"x": 1.8793302408,
				"y": -3.2804172451,
				"z": -3.0187294778,
				"element": "C" 
			},
			{
				"x": 0.6981068234,
				"y": -2.5977329782,
				"z": -2.7449893628,
				"element": "C" 
			},
			{
				"x": -0.4688148419,
				"y": -2.8024635148,
				"z": -3.5028226029,
				"element": "C" 
			},
			{
				"x": -1.6815904253,
				"y": -2.0647680384,
				"z": -3.1790085158,
				"element": "C" 
			},
			{
				"x": -2.9565095889,
				"y": -2.0008796053,
				"z": -3.7061417657,
				"element": "C" 
			},
			{
				"x": -3.6777257772,
				"y": -1.0683964287,
				"z": -2.921636256,
				"element": "C" 
			},
			{
				"x": -2.8176254552,
				"y": -0.6031902378,
				"z": -1.9503160014,
				"element": "C" 
			},
			{
				"x": -1.5980706283,
				"y": -1.2129394054,
				"z": -2.1083781585,
				"element": "O" 
			},
			{
				"x": -3.0008683733,
				"y": 0.3404504109,
				"z": -0.8942128154,
				"element": "C" 
			},
			{
				"x": -2.0782265541,
				"y": 0.7199373931,
				"z": 0.0203383009,
				"element": "C" 
			},
			{
				"x": -2.4278660064,
				"y": 1.7292605405,
				"z": 1.0434483627,
				"element": "C" 
			},
			{
				"x": -3.5259580023,
				"y": 2.289282326,
				"z": 1.0299204873,
				"element": "O" 
			},
			{
				"x": -1.4213472264,
				"y": 2.0852173196,
				"z": 2.0961750524,
				"element": "C" 
			},
			{
				"x": -0.256371602,
				"y": 1.3319148242,
				"z": 2.3332122057,
				"element": "C" 
			},
			{
				"x": 0.6407462034,
				"y": 1.697101823,
				"z": 3.3371213496,
				"element": "C" 
			},
			{
				"x": 1.770303327,
				"y": 0.9952745568,
				"z": 3.6583998198,
				"element": "O" 
			},
			{
				"x": 2.0408974933,
				"y": -0.2028081407,
				"z": 2.9489565153,
				"element": "C" 
			},
			{
				"x": 0.3879950211,
				"y": 2.8557454395,
				"z": 4.1092532314,
				"element": "C" 
			},
			{
				"x": 1.2072404493,
				"y": 3.2426988824,
				"z": 5.1352233655,
				"element": "O" 
			},
			{
				"x": 2.5449616163,
				"y": 3.6153522133,
				"z": 4.7903361811,
				"element": "C" 
			},
			{
				"x": -0.773835592,
				"y": 3.5915235238,
				"z": 3.8756743183,
				"element": "C" 
			},
			{
				"x": -1.6773990671,
				"y": 3.2099780347,
				"z": 2.8888444518,
				"element": "C" 
			},
			{
				"x": -1.3320934092,
				"y": -5.8572289504,
				"z": -6.0230602,
				"element": "H" 
			},
			{
				"x": -0.8365050908,
				"y": -4.5525825682,
				"z": -7.1425173745,
				"element": "H" 
			},
			{
				"x": -2.5636932354,
				"y": -4.8146219696,
				"z": -6.7829192759,
				"element": "H" 
			},
			{
				"x": 0.820733371,
				"y": -5.134008862,
				"z": -5.6577584425,
				"element": "H" 
			},
			{
				"x": 2.8303699516,
				"y": -4.7349623753,
				"z": -4.2981728518,
				"element": "H" 
			},
			{
				"x": 2.7629128711,
				"y": -3.0984956188,
				"z": -2.4152012737,
				"element": "H" 
			},
			{
				"x": 0.6604725572,
				"y": -1.8844342107,
				"z": -1.9301064509,
				"element": "H" 
			},
			{
				"x": -3.3116765084,
				"y": -2.5612687646,
				"z": -4.5533954728,
				"element": "H" 
			},
			{
				"x": -4.7080659557,
				"y": -0.7660800384,
				"z": -3.0457897173,
				"element": "H" 
			},
			{
				"x": -3.9866717862,
				"y": 0.795489898,
				"z": -0.828023204,
				"element": "H" 
			},
			{
				"x": -1.0791090027,
				"y": 0.3018754314,
				"z": -0.014637182,
				"element": "H" 
			},
			{
				"x": -0.0668219223,
				"y": 0.4366078127,
				"z": 1.7564841561,
				"element": "H" 
			},
			{
				"x": 2.963158508,
				"y": -0.6018219187,
				"z": 3.3739948367,
				"element": "H" 
			},
			{
				"x": 2.1887391718,
				"y": -0.0168155322,
				"z": 1.8770140754,
				"element": "H" 
			},
			{
				"x": 1.2366597781,
				"y": -0.9383202312,
				"z": 3.0777527599,
				"element": "H" 
			},
			{
				"x": 3.1074342624,
				"y": 2.7714930972,
				"z": 4.3830717237,
				"element": "H" 
			},
			{
				"x": 3.0099883402,
				"y": 3.9539202618,
				"z": 5.7183170525,
				"element": "H" 
			},
			{
				"x": 2.5439426642,
				"y": 4.4404449208,
				"z": 4.0664858078,
				"element": "H" 
			},
			{
				"x": -0.9482856778,
				"y": 4.4660475731,
				"z": 4.4944150163,
				"element": "H" 
			},
			{
				"x": -2.585446222,
				"y": 3.7730554969,
				"z": 2.706434415,
				"element": "H" 
			}
		],
		 "valence_orbital": [ 
			{
				"type": "occ",
				"energy": -0.24148,
				"method": "rhf"
			},
			{
				"type": "occ",
				"energy": -0.23759,
				"method": "rhf"
			},
			{
				"type": "occ",
				"energy": -0.23542,
				"method": "rhf"
			},
			{
				"type": "occ",
				"energy": -0.21349,
				"method": "rhf"
			},
			{
				"type": "occ",
				"energy": -0.19645,
				"method": "rhf"
			},
			{
				"type": "unocc",
				"energy": -0.07376,
				"method": "rhf"
			},
			{
				"type": "unocc",
				"energy": -0.02974,
				"method": "rhf"
			},
			{
				"type": "unocc",
				"energy": -0.00114,
				"method": "rhf"
			},
			{
				"type": "unocc",
				"energy": 0.00236,
				"method": "rhf"
			},
			{
				"type": "unocc",
				"energy": 0.01268,
				"method": "rhf"
			}
		],
		"cosmo_sigma_profile": { 
			"-0.025": 0.0,
			"-0.024": 0.0,
			"-0.023": 0.0,
			"-0.022": 0.0,
			"-0.021": 0.0,
			"-0.02": 0.0,
			"-0.019": 0.0,
			"-0.018": 0.0,
			"-0.017": 0.0,
			"-0.016": 0.0,
			"-0.015": 0.0,
			"-0.014": 0.0,
			"-0.013": 0.0,
			"-0.012": 0.0,
			"-0.011": 0.0,
			"-0.01": 0.0113488815505,
			"-0.009": 0.673918094903,
			"-0.008": 2.86732362309,
			"-0.007": 7.85993993763,
			"-0.006": 24.7616490951,
			"-0.005": 35.7627055483,
			"-0.004": 37.5236651311,
			"-0.003": 38.7591879542,
			"-0.002": 26.6247320218,
			"-0.001": 23.8534417633,
			"0.0": 23.4109710752,
			"0.001": 31.9084788747,
			"0.002": 43.0599726244,
			"0.003": 40.5086168153,
			"0.004": 32.2350671143,
			"0.005": 16.1375649873,
			"0.006": 5.27170191294,
			"0.007": 4.70323102373,
			"0.008": 4.0892289557,
			"0.009": 3.81750477208,
			"0.01": 3.74422847828,
			"0.011": 3.7225799743,
			"0.012": 3.39198853776,
			"0.013": 3.9224704401,
			"0.014": 0.391315981054,
			"0.015": 0.0,
			"0.016": 0.0,
			"0.017": 0.0,
			"0.018": 0.0,
			"0.019": 0.0,
			"0.02": 0.0,
			"0.021": 0.0,
			"0.022": 0.0,
			"0.023": 0.0,
			"0.024": 0.0,
			"0.025": 0.0
		}
	}
}
