{
	 "smiles": "CC1CCC2=C(C1)SC(=O)N2", 
	 "Tm": 454.15, 
	 "num_atms": 22, 
	 "gaussian": { 
		 "optdone": 1, 
		 "sigma_profile": "yes", 
		 "theory": "DFT", 
		 "functional": "B3LYP", 
		 "basiset": "6-31G**", 
		 "properties": { 
			 "R2extent": 2358.4197, 
			 "electric_dipole_moment_norm": 5.13366119353, 
			 "electric_quadrupole_moment_norm": 18.8445725624, 
			 "total_energy": -839.669844722, 
			 "HOMO_LUMO_gap": 0.21636, 
			 "cosmo_polarized_energy": -11.15, 
			 "cosmo_cavitation_energy": 25.3, 
			 "cosmo_dispersion_energy": -19.38, 
			 "cosmo_repulsion_energy": 1.52, 
			 "cosmo_total_nonelectrostatic_energy": 7.43, 
			 "SMD_solvation_energy": 4.19 
		},
		"coords": [
			{
				"x": 0.1179002865,
				"y": -0.4306656867,
				"z": 2.1425069812,
				"element": "C" 
			},
			{
				"x": -0.9638496792,
				"y": -0.9311998756,
				"z": 1.1727582202,
				"element": "C" 
			},
			{
				"x": -2.0331676358,
				"y": 0.1440346657,
				"z": 0.879678572,
				"element": "C" 
			},
			{
				"x": -1.4617901512,
				"y": 1.376231453,
				"z": 0.1516304384,
				"element": "C" 
			},
			{
				"x": -0.5403156766,
				"y": 0.940308699,
				"z": -0.9485714984,
				"element": "C" 
			},
			{
				"x": -0.0423129133,
				"y": -0.3062789071,
				"z": -1.0792128071,
				"element": "C" 
			},
			{
				"x": -0.3523910782,
				"y": -1.4482749099,
				"z": -0.1536777287,
				"element": "C" 
			},
			{
				"x": 1.0153764791,
				"y": -0.4294352365,
				"z": -2.494449794,
				"element": "S" 
			},
			{
				"x": 0.7515339473,
				"y": 1.3252674601,
				"z": -2.9013853405,
				"element": "C" 
			},
			{
				"x": 1.2320785862,
				"y": 1.9302302965,
				"z": -3.834796045,
				"element": "O" 
			},
			{
				"x": -0.1028381191,
				"y": 1.8234967984,
				"z": -1.937566383,
				"element": "N" 
			},
			{
				"x": 0.7960003341,
				"y": -1.2438713095,
				"z": 2.4214351845,
				"element": "H" 
			},
			{
				"x": -0.3291696756,
				"y": -0.0393799396,
				"z": 3.0630472452,
				"element": "H" 
			},
			{
				"x": 0.7258258453,
				"y": 0.3637550189,
				"z": 1.6977775331,
				"element": "H" 
			},
			{
				"x": -1.4734648498,
				"y": -1.7778576406,
				"z": 1.6503242421,
				"element": "H" 
			},
			{
				"x": -2.8184019106,
				"y": -0.3003314485,
				"z": 0.2558025648,
				"element": "H" 
			},
			{
				"x": -2.5114166185,
				"y": 0.4602892399,
				"z": 1.8134561092,
				"element": "H" 
			},
			{
				"x": -0.9224288685,
				"y": 2.0265787966,
				"z": 0.8553873307,
				"element": "H" 
			},
			{
				"x": -2.2821715128,
				"y": 1.9822376919,
				"z": -0.2551893573,
				"element": "H" 
			},
			{
				"x": 0.5556191531,
				"y": -2.0271008387,
				"z": 0.0571887392,
				"element": "H" 
			},
			{
				"x": -1.0502150161,
				"y": -2.144152763,
				"z": -0.6408818799,
				"element": "H" 
			},
			{
				"x": -0.3770009265,
				"y": 2.794518436,
				"z": -1.9912623268,
				"element": "H" 
			}
		],
		 "valence_orbital": [ 
			{
				"type": "occ",
				"energy": -0.32495,
				"method": "rhf"
			},
			{
				"type": "occ",
				"energy": -0.32088,
				"method": "rhf"
			},
			{
				"type": "occ",
				"energy": -0.28273,
				"method": "rhf"
			},
			{
				"type": "occ",
				"energy": -0.26117,
				"method": "rhf"
			},
			{
				"type": "occ",
				"energy": -0.20418,
				"method": "rhf"
			},
			{
				"type": "unocc",
				"energy": 0.01218,
				"method": "rhf"
			},
			{
				"type": "unocc",
				"energy": 0.01654,
				"method": "rhf"
			},
			{
				"type": "unocc",
				"energy": 0.04279,
				"method": "rhf"
			},
			{
				"type": "unocc",
				"energy": 0.0689,
				"method": "rhf"
			},
			{
				"type": "unocc",
				"energy": 0.07868,
				"method": "rhf"
			}
		],
		"cosmo_sigma_profile": { 
			"-0.025": 0.0,
			"-0.024": 0.0,
			"-0.023": 0.0,
			"-0.022": 0.0,
			"-0.021": 0.0,
			"-0.02": 0.0,
			"-0.019": 0.0,
			"-0.018": 0.0,
			"-0.017": 0.0540238707728,
			"-0.016": 0.813161881123,
			"-0.015": 1.10926487378,
			"-0.014": 1.60109870684,
			"-0.013": 0.562346068481,
			"-0.012": 0.362273380243,
			"-0.011": 1.6951065643,
			"-0.01": 1.10351130601,
			"-0.009": 1.23410699583,
			"-0.008": 1.32832480856,
			"-0.007": 1.33546403141,
			"-0.006": 1.26744812367,
			"-0.005": 3.32942079273,
			"-0.004": 10.2021934302,
			"-0.003": 23.4844803366,
			"-0.002": 31.0110217759,
			"-0.001": 26.2666660141,
			"0.0": 19.7658490695,
			"0.001": 18.0098904185,
			"0.002": 13.6468866968,
			"0.003": 9.30862329588,
			"0.004": 5.97013773658,
			"0.005": 5.08412580902,
			"0.006": 3.17679588464,
			"0.007": 1.7824969189,
			"0.008": 1.61889760204,
			"0.009": 0.867906453594,
			"0.01": 1.48141574961,
			"0.011": 2.3130288474,
			"0.012": 5.04957398702,
			"0.013": 5.15275237306,
			"0.014": 0.257972832055,
			"0.015": 0.0,
			"0.016": 0.0,
			"0.017": 0.0,
			"0.018": 0.0,
			"0.019": 0.0,
			"0.02": 0.0,
			"0.021": 0.0,
			"0.022": 0.0,
			"0.023": 0.0,
			"0.024": 0.0,
			"0.025": 0.0
		}
	}
}
