{
	 "smiles": "NC(=O)CC1=CC(O)=CC=C1", 
	 "Tm": 388.15, 
	 "num_atms": 20, 
	 "gaussian": { 
		 "optdone": 1, 
		 "sigma_profile": "yes", 
		 "theory": "DFT", 
		 "functional": "B3LYP", 
		 "basiset": "6-31G**", 
		 "properties": { 
			 "R2extent": 2235.1612, 
			 "electric_dipole_moment_norm": 2.57359450186, 
			 "electric_quadrupole_moment_norm": 16.0770152121, 
			 "total_energy": -515.491517213, 
			 "HOMO_LUMO_gap": 0.21329, 
			 "cosmo_polarized_energy": -16.37, 
			 "cosmo_cavitation_energy": 24.25, 
			 "cosmo_dispersion_energy": -17.61, 
			 "cosmo_repulsion_energy": 1.44, 
			 "cosmo_total_nonelectrostatic_energy": 8.09, 
			 "SMD_solvation_energy": 5.23 
		},
		"coords": [
			{
				"x": 0.4026078104,
				"y": 1.8412184939,
				"z": -1.3512415265,
				"element": "N" 
			},
			{
				"x": -0.8743921516,
				"y": 1.6703212774,
				"z": -1.7989991827,
				"element": "C" 
			},
			{
				"x": -1.6107970909,
				"y": 2.6030688113,
				"z": -2.0823829292,
				"element": "O" 
			},
			{
				"x": -1.3222703043,
				"y": 0.2091969278,
				"z": -2.0000347765,
				"element": "C" 
			},
			{
				"x": -0.6693734607,
				"y": -0.8231576341,
				"z": -1.1089594547,
				"element": "C" 
			},
			{
				"x": -1.1794653171,
				"y": -1.0642450233,
				"z": 0.1744387956,
				"element": "C" 
			},
			{
				"x": -0.5686136271,
				"y": -1.992404214,
				"z": 1.0220931977,
				"element": "C" 
			},
			{
				"x": -1.0349622325,
				"y": -2.2593674303,
				"z": 2.2767756341,
				"element": "O" 
			},
			{
				"x": 0.5682840428,
				"y": -2.6918273141,
				"z": 0.5973057293,
				"element": "C" 
			},
			{
				"x": 1.0758412907,
				"y": -2.4535330252,
				"z": -0.6757687998,
				"element": "C" 
			},
			{
				"x": 0.4666009218,
				"y": -1.5279437566,
				"z": -1.5293138253,
				"element": "C" 
			},
			{
				"x": 0.9499121784,
				"y": 1.0661609903,
				"z": -1.0113180513,
				"element": "H" 
			},
			{
				"x": 0.7179152364,
				"y": 2.7839150514,
				"z": -1.1812720044,
				"element": "H" 
			},
			{
				"x": -1.1316516862,
				"y": -0.0279444154,
				"z": -3.0537308488,
				"element": "H" 
			},
			{
				"x": -2.407684792,
				"y": 0.2165142975,
				"z": -1.8731807141,
				"element": "H" 
			},
			{
				"x": -2.0623991303,
				"y": -0.5235453144,
				"z": 0.5121087528,
				"element": "H" 
			},
			{
				"x": -1.8204935551,
				"y": -1.7228002896,
				"z": 2.4455378518,
				"element": "H" 
			},
			{
				"x": 1.0258199665,
				"y": -3.4099685063,
				"z": 1.2693104232,
				"element": "H" 
			},
			{
				"x": 1.9520902158,
				"y": -3.0007211549,
				"z": -1.011734419,
				"element": "H" 
			},
			{
				"x": 0.864131685,
				"y": -1.3635377713,
				"z": -2.5271338522,
				"element": "H" 
			}
		],
		 "valence_orbital": [ 
			{
				"type": "occ",
				"energy": -0.33851,
				"method": "rhf"
			},
			{
				"type": "occ",
				"energy": -0.26754,
				"method": "rhf"
			},
			{
				"type": "occ",
				"energy": -0.26067,
				"method": "rhf"
			},
			{
				"type": "occ",
				"energy": -0.24064,
				"method": "rhf"
			},
			{
				"type": "occ",
				"energy": -0.22709,
				"method": "rhf"
			},
			{
				"type": "unocc",
				"energy": -0.0138,
				"method": "rhf"
			},
			{
				"type": "unocc",
				"energy": 0.00069,
				"method": "rhf"
			},
			{
				"type": "unocc",
				"energy": 0.0354,
				"method": "rhf"
			},
			{
				"type": "unocc",
				"energy": 0.06516,
				"method": "rhf"
			},
			{
				"type": "unocc",
				"energy": 0.08677,
				"method": "rhf"
			}
		],
		"cosmo_sigma_profile": { 
			"-0.025": 0.0,
			"-0.024": 0.0,
			"-0.023": 0.0,
			"-0.022": 0.0,
			"-0.021": 0.0,
			"-0.02": 0.0,
			"-0.019": 0.0,
			"-0.018": 0.154774256564,
			"-0.017": 1.11642766248,
			"-0.016": 1.34092271707,
			"-0.015": 0.835142869999,
			"-0.014": 1.5426874398,
			"-0.013": 2.7612842659,
			"-0.012": 2.13798027975,
			"-0.011": 1.86095722076,
			"-0.01": 3.54592961755,
			"-0.009": 3.46701424779,
			"-0.008": 2.71404178891,
			"-0.007": 3.06486255502,
			"-0.006": 10.3018162323,
			"-0.005": 14.6618349308,
			"-0.004": 13.8391491461,
			"-0.003": 11.8533739088,
			"-0.002": 11.0666908483,
			"-0.001": 9.41660619656,
			"0.0": 8.86869970297,
			"0.001": 8.36334211614,
			"0.002": 9.99356532615,
			"0.003": 12.8410409553,
			"0.004": 11.2450810335,
			"0.005": 10.5646356299,
			"0.006": 5.84038661303,
			"0.007": 2.89610562056,
			"0.008": 2.69134150861,
			"0.009": 1.78013682041,
			"0.01": 3.48196943946,
			"0.011": 3.78678431635,
			"0.012": 2.29846086975,
			"0.013": 3.43195561807,
			"0.014": 5.78284148181,
			"0.015": 2.3155406694,
			"0.016": 0.0357011971017,
			"0.017": 0.0,
			"0.018": 0.0,
			"0.019": 0.0,
			"0.02": 0.0,
			"0.021": 0.0,
			"0.022": 0.0,
			"0.023": 0.0,
			"0.024": 0.0,
			"0.025": 0.0
		}
	}
}
