{
	 "smiles": "ClC1=CC=C(C=C1)C1CNCCO1", 
	 "Tm": 329.15, 
	 "num_atms": 25, 
	 "gaussian": { 
		 "optdone": 1, 
		 "sigma_profile": "yes", 
		 "theory": "DFT", 
		 "functional": "B3LYP", 
		 "basiset": "6-31G**", 
		 "properties": { 
			 "R2extent": 4522.0292, 
			 "electric_dipole_moment_norm": 3.36243606185, 
			 "electric_quadrupole_moment_norm": 10.0284932069, 
			 "total_energy": -978.437354269, 
			 "HOMO_LUMO_gap": 0.21055, 
			 "cosmo_polarized_energy": -8.8, 
			 "cosmo_cavitation_energy": 29.02, 
			 "cosmo_dispersion_energy": -21.66, 
			 "cosmo_repulsion_energy": 1.72, 
			 "cosmo_total_nonelectrostatic_energy": 9.07, 
			 "SMD_solvation_energy": 1.75 
		},
		"coords": [
			{
				"x": -0.606919172,
				"y": 5.1661507087,
				"z": -1.2386377311,
				"element": "Cl" 
			},
			{
				"x": -0.0588812761,
				"y": 3.5110759262,
				"z": -0.9957645658,
				"element": "C" 
			},
			{
				"x": -0.1550462278,
				"y": 2.9369009038,
				"z": 0.2715695503,
				"element": "C" 
			},
			{
				"x": 0.2865612843,
				"y": 1.6274220381,
				"z": 0.4544275815,
				"element": "C" 
			},
			{
				"x": 0.8130869911,
				"y": 0.8857987132,
				"z": -0.6103683026,
				"element": "C" 
			},
			{
				"x": 0.9036764069,
				"y": 1.4867909784,
				"z": -1.8696446689,
				"element": "C" 
			},
			{
				"x": 0.4713469205,
				"y": 2.7984136914,
				"z": -2.0694534887,
				"element": "C" 
			},
			{
				"x": 1.2354125538,
				"y": -0.5541778081,
				"z": -0.39187631,
				"element": "C" 
			},
			{
				"x": 0.0318198761,
				"y": -1.506984899,
				"z": -0.4179149958,
				"element": "C" 
			},
			{
				"x": 0.4708086172,
				"y": -2.8686356667,
				"z": -0.0813382417,
				"element": "N" 
			},
			{
				"x": 1.8120184127,
				"y": -3.1926573075,
				"z": -0.59820707,
				"element": "C" 
			},
			{
				"x": 2.2136441682,
				"y": -2.2914801071,
				"z": -1.7627816818,
				"element": "C" 
			},
			{
				"x": 2.1989670842,
				"y": -0.9121540216,
				"z": -1.3876002343,
				"element": "O" 
			},
			{
				"x": -0.5604337631,
				"y": 3.5081573847,
				"z": 1.0993561103,
				"element": "H" 
			},
			{
				"x": 0.2238390119,
				"y": 1.181438463,
				"z": 1.4443057635,
				"element": "H" 
			},
			{
				"x": 1.3342261428,
				"y": 0.9239579381,
				"z": -2.6898682093,
				"element": "H" 
			},
			{
				"x": 0.5472584345,
				"y": 3.2641745741,
				"z": -3.0459723223,
				"element": "H" 
			},
			{
				"x": 1.6997606603,
				"y": -0.6361254715,
				"z": 0.6045557044,
				"element": "H" 
			},
			{
				"x": -0.7109613109,
				"y": -1.1695700884,
				"z": 0.3143908178,
				"element": "H" 
			},
			{
				"x": -0.4377773277,
				"y": -1.4205730335,
				"z": -1.4131727779,
				"element": "H" 
			},
			{
				"x": -0.2088030992,
				"y": -3.5378597346,
				"z": -0.4258647175,
				"element": "H" 
			},
			{
				"x": 2.5544444885,
				"y": -3.0780669941,
				"z": 0.203609202,
				"element": "H" 
			},
			{
				"x": 1.8444890602,
				"y": -4.2423275317,
				"z": -0.9090702936,
				"element": "H" 
			},
			{
				"x": 1.5399003572,
				"y": -2.4599581078,
				"z": -2.6180219014,
				"element": "H" 
			},
			{
				"x": 3.2343617061,
				"y": -2.508610548,
				"z": -2.095857217,
				"element": "H" 
			}
		],
		 "valence_orbital": [ 
			{
				"type": "occ",
				"energy": -0.30535,
				"method": "rhf"
			},
			{
				"type": "occ",
				"energy": -0.26009,
				"method": "rhf"
			},
			{
				"type": "occ",
				"energy": -0.259,
				"method": "rhf"
			},
			{
				"type": "occ",
				"energy": -0.23589,
				"method": "rhf"
			},
			{
				"type": "occ",
				"energy": -0.22266,
				"method": "rhf"
			},
			{
				"type": "unocc",
				"energy": -0.01211,
				"method": "rhf"
			},
			{
				"type": "unocc",
				"energy": -0.00885,
				"method": "rhf"
			},
			{
				"type": "unocc",
				"energy": 0.03396,
				"method": "rhf"
			},
			{
				"type": "unocc",
				"energy": 0.07135,
				"method": "rhf"
			},
			{
				"type": "unocc",
				"energy": 0.10196,
				"method": "rhf"
			}
		],
		"cosmo_sigma_profile": { 
			"-0.025": 0.0,
			"-0.024": 0.0,
			"-0.023": 0.0,
			"-0.022": 0.0,
			"-0.021": 0.0,
			"-0.02": 0.0,
			"-0.019": 0.0,
			"-0.018": 0.0,
			"-0.017": 0.0,
			"-0.016": 0.0,
			"-0.015": 0.0,
			"-0.014": 0.0,
			"-0.013": 0.0,
			"-0.012": 0.0,
			"-0.011": 0.247525224881,
			"-0.01": 1.48350722624,
			"-0.009": 1.40006257891,
			"-0.008": 1.40781821744,
			"-0.007": 4.58942602409,
			"-0.006": 8.80209695858,
			"-0.005": 15.3449125337,
			"-0.004": 19.8128570017,
			"-0.003": 25.9686844647,
			"-0.002": 20.8337394778,
			"-0.001": 16.6114068258,
			"0.0": 15.3951784962,
			"0.001": 13.8483448999,
			"0.002": 16.797328783,
			"0.003": 16.8651799559,
			"0.004": 22.6840071757,
			"0.005": 12.8778278867,
			"0.006": 2.1866592371,
			"0.007": 2.27553041097,
			"0.008": 1.6012451466,
			"0.009": 1.54003249595,
			"0.01": 0.951953933636,
			"0.011": 2.19553117213,
			"0.012": 1.12966971495,
			"0.013": 1.48574288185,
			"0.014": 0.843908058141,
			"0.015": 0.224129576983,
			"0.016": 0.406155539954,
			"0.017": 0.694540307655,
			"0.018": 0.391690832292,
			"0.019": 0.0136150765902,
			"0.02": 0.0,
			"0.021": 0.0,
			"0.022": 0.0,
			"0.023": 0.0,
			"0.024": 0.0,
			"0.025": 0.0
		}
	}
}
