{
	 "smiles": "CC(=O)C1=C(C)OC2=NC(Br)=NN12", 
	 "Tm": 392.15, 
	 "num_atms": 19, 
	 "gaussian": { 
		 "optdone": 1, 
		 "sigma_profile": "yes", 
		 "theory": "DFT", 
		 "functional": "B3LYP", 
		 "basiset": "6-31G**", 
		 "properties": { 
			 "R2extent": 5123.315, 
			 "electric_dipole_moment_norm": 2.33884930896, 
			 "electric_quadrupole_moment_norm": 14.6054969888, 
			 "total_energy": -3156.41474982, 
			 "HOMO_LUMO_gap": 0.17565, 
			 "cosmo_polarized_energy": -10.38, 
			 "cosmo_cavitation_energy": 26.56, 
			 "cosmo_dispersion_energy": -20.16, 
			 "cosmo_repulsion_energy": 1.6, 
			 "cosmo_total_nonelectrostatic_energy": 8.0, 
			 "SMD_solvation_energy": 1.57 
		},
		"coords": [
			{
				"x": 1.5032602424,
				"y": -0.3956153689,
				"z": -0.635134063,
				"element": "C" 
			},
			{
				"x": 0.3478150271,
				"y": 0.23659699,
				"z": -1.3737616025,
				"element": "C" 
			},
			{
				"x": 0.42225253,
				"y": 0.5910851169,
				"z": -2.5416316573,
				"element": "O" 
			},
			{
				"x": -0.9152455925,
				"y": 0.4224602242,
				"z": -0.6225254828,
				"element": "C" 
			},
			{
				"x": -2.1044342965,
				"y": 0.9633667265,
				"z": -1.0413658502,
				"element": "C" 
			},
			{
				"x": -2.5475628627,
				"y": 1.5339186369,
				"z": -2.3332126286,
				"element": "C" 
			},
			{
				"x": -3.0385591559,
				"y": 0.9469824273,
				"z": -0.0120486517,
				"element": "O" 
			},
			{
				"x": -2.4133673634,
				"y": 0.3906007103,
				"z": 1.0454708696,
				"element": "C" 
			},
			{
				"x": -2.7174472871,
				"y": 0.0897585923,
				"z": 2.2898021501,
				"element": "N" 
			},
			{
				"x": -1.525474231,
				"y": -0.4446493979,
				"z": 2.6856017702,
				"element": "C" 
			},
			{
				"x": -1.2712960125,
				"y": -1.0964247671,
				"z": 4.4248744456,
				"element": "Br" 
			},
			{
				"x": -0.5278054009,
				"y": -0.4954410281,
				"z": 1.7967631603,
				"element": "N" 
			},
			{
				"x": -1.1506726353,
				"y": 0.0670824481,
				"z": 0.7182619406,
				"element": "N" 
			},
			{
				"x": 1.7662283868,
				"y": 0.1944445128,
				"z": 0.249434745,
				"element": "H" 
			},
			{
				"x": 1.2281511546,
				"y": -1.388706743,
				"z": -0.2638531759,
				"element": "H" 
			},
			{
				"x": 2.3564232472,
				"y": -0.4667204519,
				"z": -1.3100514547,
				"element": "H" 
			},
			{
				"x": -2.859213064,
				"y": 2.5765988518,
				"z": -2.2061965959,
				"element": "H" 
			},
			{
				"x": -3.4048499452,
				"y": 0.9760040913,
				"z": -2.7259246013,
				"element": "H" 
			},
			{
				"x": -1.7209027411,
				"y": 1.4819584286,
				"z": -3.0410033175,
				"element": "H" 
			}
		],
		 "valence_orbital": [ 
			{
				"type": "occ",
				"energy": -0.31327,
				"method": "rhf"
			},
			{
				"type": "occ",
				"energy": -0.29836,
				"method": "rhf"
			},
			{
				"type": "occ",
				"energy": -0.27695,
				"method": "rhf"
			},
			{
				"type": "occ",
				"energy": -0.27612,
				"method": "rhf"
			},
			{
				"type": "occ",
				"energy": -0.25095,
				"method": "rhf"
			},
			{
				"type": "unocc",
				"energy": -0.0753,
				"method": "rhf"
			},
			{
				"type": "unocc",
				"energy": -0.0091,
				"method": "rhf"
			},
			{
				"type": "unocc",
				"energy": 0.00556,
				"method": "rhf"
			},
			{
				"type": "unocc",
				"energy": 0.03473,
				"method": "rhf"
			},
			{
				"type": "unocc",
				"energy": 0.05834,
				"method": "rhf"
			}
		],
		"cosmo_sigma_profile": { 
			"-0.025": 0.0,
			"-0.024": 0.0,
			"-0.023": 0.0,
			"-0.022": 0.0,
			"-0.021": 0.0,
			"-0.02": 0.0,
			"-0.019": 0.0,
			"-0.018": 0.0,
			"-0.017": 0.0,
			"-0.016": 0.0,
			"-0.015": 0.0,
			"-0.014": 0.0,
			"-0.013": 0.0,
			"-0.012": 0.0,
			"-0.011": 0.0,
			"-0.01": 0.0,
			"-0.009": 0.0,
			"-0.008": 1.32494680505,
			"-0.007": 9.71938415037,
			"-0.006": 14.8200258479,
			"-0.005": 16.8504807065,
			"-0.004": 18.512080123,
			"-0.003": 20.3595195368,
			"-0.002": 19.1596337481,
			"-0.001": 14.9460541656,
			"0.0": 11.7068080496,
			"0.001": 10.5706549205,
			"0.002": 13.5457097254,
			"0.003": 18.3943641664,
			"0.004": 11.1237591168,
			"0.005": 5.9057737408,
			"0.006": 4.36338422262,
			"0.007": 4.83627162613,
			"0.008": 4.38047167709,
			"0.009": 4.31550234773,
			"0.01": 3.63766080771,
			"0.011": 4.52877765006,
			"0.012": 2.75867215221,
			"0.013": 1.10835925765,
			"0.014": 0.337352231163,
			"0.015": 0.0,
			"0.016": 0.0,
			"0.017": 0.0,
			"0.018": 0.0,
			"0.019": 0.0,
			"0.02": 0.0,
			"0.021": 0.0,
			"0.022": 0.0,
			"0.023": 0.0,
			"0.024": 0.0,
			"0.025": 0.0
		}
	}
}
