{
	 "smiles": "CN1C(Cl)=C(Cl)C=C1C(O)=O", 
	 "Tm": 452.15, 
	 "num_atms": 16, 
	 "gaussian": { 
		 "optdone": 1, 
		 "sigma_profile": "yes", 
		 "theory": "DFT", 
		 "functional": "B3LYP", 
		 "basiset": "6-31G**", 
		 "properties": { 
			 "R2extent": 3381.1199, 
			 "electric_dipole_moment_norm": 1.55643712369, 
			 "electric_quadrupole_moment_norm": 13.6923911966, 
			 "total_energy": -1357.22512967, 
			 "HOMO_LUMO_gap": 0.1907, 
			 "cosmo_polarized_energy": -12.48, 
			 "cosmo_cavitation_energy": 24.06, 
			 "cosmo_dispersion_energy": -18.08, 
			 "cosmo_repulsion_energy": 1.45, 
			 "cosmo_total_nonelectrostatic_energy": 7.43, 
			 "SMD_solvation_energy": 4.91 
		},
		"coords": [
			{
				"x": -0.2461941233,
				"y": 0.8570791602,
				"z": -0.8062420657,
				"element": "C" 
			},
			{
				"x": 0.1912140269,
				"y": -0.5280342032,
				"z": -0.6151140258,
				"element": "N" 
			},
			{
				"x": -0.1603456851,
				"y": -1.5948199287,
				"z": -1.3973043168,
				"element": "C" 
			},
			{
				"x": -1.1911313491,
				"y": -1.4570402158,
				"z": -2.7660762559,
				"element": "Cl" 
			},
			{
				"x": 0.44594731,
				"y": -2.7420304644,
				"z": -0.9034042023,
				"element": "C" 
			},
			{
				"x": 0.2883607887,
				"y": -4.3348383525,
				"z": -1.5548605212,
				"element": "Cl" 
			},
			{
				"x": 1.1979644428,
				"y": -2.3630678897,
				"z": 0.2216330231,
				"element": "C" 
			},
			{
				"x": 1.0338354326,
				"y": -0.9910633095,
				"z": 0.3865075552,
				"element": "C" 
			},
			{
				"x": 1.5666982534,
				"y": -0.1012228106,
				"z": 1.4297230331,
				"element": "C" 
			},
			{
				"x": 2.5542080856,
				"y": -0.6281194742,
				"z": 2.2010841879,
				"element": "O" 
			},
			{
				"x": 1.1768676008,
				"y": 1.0288524617,
				"z": 1.6345072497,
				"element": "O" 
			},
			{
				"x": -0.9202640429,
				"y": 1.1543845051,
				"z": -0.0019095459,
				"element": "H" 
			},
			{
				"x": -0.7548808719,
				"y": 0.9254616107,
				"z": -1.7661628914,
				"element": "H" 
			},
			{
				"x": 0.6166317223,
				"y": 1.5217046085,
				"z": -0.7918487278,
				"element": "H" 
			},
			{
				"x": 1.7569954764,
				"y": -3.038224492,
				"z": 0.8543662614,
				"element": "H" 
			},
			{
				"x": 2.863792933,
				"y": -1.4668212056,
				"z": 1.8320012423,
				"element": "H" 
			}
		],
		 "valence_orbital": [ 
			{
				"type": "occ",
				"energy": -0.32811,
				"method": "rhf"
			},
			{
				"type": "occ",
				"energy": -0.32312,
				"method": "rhf"
			},
			{
				"type": "occ",
				"energy": -0.28376,
				"method": "rhf"
			},
			{
				"type": "occ",
				"energy": -0.26744,
				"method": "rhf"
			},
			{
				"type": "occ",
				"energy": -0.23764,
				"method": "rhf"
			},
			{
				"type": "unocc",
				"energy": -0.04694,
				"method": "rhf"
			},
			{
				"type": "unocc",
				"energy": 0.00441,
				"method": "rhf"
			},
			{
				"type": "unocc",
				"energy": 0.02583,
				"method": "rhf"
			},
			{
				"type": "unocc",
				"energy": 0.04232,
				"method": "rhf"
			},
			{
				"type": "unocc",
				"energy": 0.05859,
				"method": "rhf"
			}
		],
		"cosmo_sigma_profile": { 
			"-0.025": 0.0,
			"-0.024": 0.0,
			"-0.023": 0.0,
			"-0.022": 0.0,
			"-0.021": 0.0,
			"-0.02": 0.0,
			"-0.019": 0.443573321403,
			"-0.018": 0.816877046778,
			"-0.017": 1.3818102574,
			"-0.016": 1.11690535496,
			"-0.015": 0.879761395369,
			"-0.014": 1.27063685971,
			"-0.013": 0.823308535715,
			"-0.012": 1.27057411471,
			"-0.011": 1.15118571552,
			"-0.01": 1.30370677727,
			"-0.009": 1.37561872093,
			"-0.008": 1.67399797366,
			"-0.007": 3.15877109666,
			"-0.006": 6.4352186827,
			"-0.005": 9.28024927934,
			"-0.004": 12.8945835288,
			"-0.003": 16.0068639262,
			"-0.002": 12.3956912832,
			"-0.001": 13.0245628577,
			"0.0": 15.5252239145,
			"0.001": 17.9765266371,
			"0.002": 19.3956296938,
			"0.003": 17.1481444031,
			"0.004": 12.8485724532,
			"0.005": 2.97939411994,
			"0.006": 2.45429621365,
			"0.007": 2.55920490927,
			"0.008": 2.43584127956,
			"0.009": 3.46349282635,
			"0.01": 4.4465196053,
			"0.011": 4.25366850589,
			"0.012": 3.44763572045,
			"0.013": 1.73154306423,
			"0.014": 0.0811301346257,
			"0.015": 0.0,
			"0.016": 0.0,
			"0.017": 0.0,
			"0.018": 0.0,
			"0.019": 0.0,
			"0.02": 0.0,
			"0.021": 0.0,
			"0.022": 0.0,
			"0.023": 0.0,
			"0.024": 0.0,
			"0.025": 0.0
		}
	}
}
