{
	 "smiles": "CCC1(C)CCC(C=C1)=NNS(=O)(=O)C1=CC=C(C)C=C1", 
	 "Tm": 437.15, 
	 "num_atms": 43, 
	 "gaussian": { 
		 "optdone": 1, 
		 "sigma_profile": "yes", 
		 "theory": "DFT", 
		 "functional": "B3LYP", 
		 "basiset": "6-31G**", 
		 "properties": { 
			 "R2extent": 9191.3986, 
			 "electric_dipole_moment_norm": 5.80645724259, 
			 "electric_quadrupole_moment_norm": 28.7165419215, 
			 "total_energy": -1280.99671933, 
			 "HOMO_LUMO_gap": 0.17873, 
			 "cosmo_polarized_energy": -16.04, 
			 "cosmo_cavitation_energy": 44.94, 
			 "cosmo_dispersion_energy": -31.1, 
			 "cosmo_repulsion_energy": 2.34, 
			 "cosmo_total_nonelectrostatic_energy": 16.19, 
			 "SMD_solvation_energy": 5.89 
		},
		"coords": [
			{
				"x": 0.7454359052,
				"y": -3.1124143081,
				"z": -4.2717060538,
				"element": "C" 
			},
			{
				"x": 0.6758074704,
				"y": -1.9783744,
				"z": -3.2409016484,
				"element": "C" 
			},
			{
				"x": -0.1092708069,
				"y": -2.2808962448,
				"z": -1.9249552041,
				"element": "C" 
			},
			{
				"x": 0.471496064,
				"y": -3.5331779429,
				"z": -1.2318771815,
				"element": "C" 
			},
			{
				"x": -1.6235304669,
				"y": -2.4866586379,
				"z": -2.1784507952,
				"element": "C" 
			},
			{
				"x": -2.3770521646,
				"y": -1.1688338545,
				"z": -2.4194296524,
				"element": "C" 
			},
			{
				"x": -2.1996550549,
				"y": -0.2497312915,
				"z": -1.2336389162,
				"element": "C" 
			},
			{
				"x": -0.8542730021,
				"y": -0.2011884215,
				"z": -0.663669873,
				"element": "C" 
			},
			{
				"x": 0.0927564348,
				"y": -1.0914768224,
				"z": -1.0075178408,
				"element": "C" 
			},
			{
				"x": -3.2316486505,
				"y": 0.4332646905,
				"z": -0.8660435946,
				"element": "N" 
			},
			{
				"x": -3.0694793241,
				"y": 1.2905249933,
				"z": 0.2543022404,
				"element": "N" 
			},
			{
				"x": -3.0674570334,
				"y": 0.5697191087,
				"z": 1.8510743869,
				"element": "S" 
			},
			{
				"x": -4.1873963828,
				"y": 1.223980492,
				"z": 2.5404752926,
				"element": "O" 
			},
			{
				"x": -2.9591713599,
				"y": -0.8848720981,
				"z": 1.7272036668,
				"element": "O" 
			},
			{
				"x": -1.5576633062,
				"y": 1.1747662299,
				"z": 2.6063265295,
				"element": "C" 
			},
			{
				"x": -1.4819444717,
				"y": 2.5093099138,
				"z": 3.0151184481,
				"element": "C" 
			},
			{
				"x": -0.3190702386,
				"y": 2.9640720195,
				"z": 3.6277640065,
				"element": "C" 
			},
			{
				"x": 0.7689536038,
				"y": 2.1041614354,
				"z": 3.8521812273,
				"element": "C" 
			},
			{
				"x": 2.0134582699,
				"y": 2.6087702142,
				"z": 4.5418305462,
				"element": "C" 
			},
			{
				"x": 0.6594587734,
				"y": 0.7696919754,
				"z": 3.4426941276,
				"element": "C" 
			},
			{
				"x": -0.4974934637,
				"y": 0.2962117049,
				"z": 2.8218371507,
				"element": "C" 
			},
			{
				"x": 1.2908755985,
				"y": -2.777164541,
				"z": -5.1598758568,
				"element": "H" 
			},
			{
				"x": -0.247732626,
				"y": -3.4322291153,
				"z": -4.6028984053,
				"element": "H" 
			},
			{
				"x": 1.2668153561,
				"y": -3.9916618082,
				"z": -3.8816953966,
				"element": "H" 
			},
			{
				"x": 1.6993366727,
				"y": -1.6916822982,
				"z": -2.9642821371,
				"element": "H" 
			},
			{
				"x": 0.238131092,
				"y": -1.0899662893,
				"z": -3.7116685184,
				"element": "H" 
			},
			{
				"x": 1.5552010216,
				"y": -3.4443591829,
				"z": -1.0921268687,
				"element": "H" 
			},
			{
				"x": 0.2816178319,
				"y": -4.435552041,
				"z": -1.821297205,
				"element": "H" 
			},
			{
				"x": 0.0138306146,
				"y": -3.6763480891,
				"z": -0.2479346863,
				"element": "H" 
			},
			{
				"x": -1.777101663,
				"y": -3.1676840447,
				"z": -3.021945728,
				"element": "H" 
			},
			{
				"x": -2.0596746218,
				"y": -2.9767220842,
				"z": -1.2994534733,
				"element": "H" 
			},
			{
				"x": -1.9851014729,
				"y": -0.6683967326,
				"z": -3.3156685649,
				"element": "H" 
			},
			{
				"x": -3.4427129292,
				"y": -1.3419149834,
				"z": -2.5855376982,
				"element": "H" 
			},
			{
				"x": -0.623104249,
				"y": 0.614452869,
				"z": 0.0135654333,
				"element": "H" 
			},
			{
				"x": 1.0999619175,
				"y": -0.9662539901,
				"z": -0.6089077192,
				"element": "H" 
			},
			{
				"x": -3.9117613757,
				"y": 1.863757499,
				"z": 0.2860717357,
				"element": "H" 
			},
			{
				"x": -2.325615811,
				"y": 3.174276088,
				"z": 2.8653880604,
				"element": "H" 
			},
			{
				"x": -0.2546656698,
				"y": 4.0018657905,
				"z": 3.9443916096,
				"element": "H" 
			},
			{
				"x": 2.8401986193,
				"y": 1.8999002359,
				"z": 4.446888886,
				"element": "H" 
			},
			{
				"x": 1.8326605353,
				"y": 2.7659427211,
				"z": 5.6120271745,
				"element": "H" 
			},
			{
				"x": 2.3383442175,
				"y": 3.5682312323,
				"z": 4.1262152546,
				"element": "H" 
			},
			{
				"x": 1.4878582518,
				"y": 0.0877736759,
				"z": 3.615190201,
				"element": "H" 
			},
			{
				"x": -0.5867221053,
				"y": -0.7381136676,
				"z": 2.5096370405,
				"element": "H" 
			}
		],
		 "valence_orbital": [ 
			{
				"type": "occ",
				"energy": -0.28565,
				"method": "rhf"
			},
			{
				"type": "occ",
				"energy": -0.26873,
				"method": "rhf"
			},
			{
				"type": "occ",
				"energy": -0.26604,
				"method": "rhf"
			},
			{
				"type": "occ",
				"energy": -0.25416,
				"method": "rhf"
			},
			{
				"type": "occ",
				"energy": -0.22353,
				"method": "rhf"
			},
			{
				"type": "unocc",
				"energy": -0.0448,
				"method": "rhf"
			},
			{
				"type": "unocc",
				"energy": -0.03358,
				"method": "rhf"
			},
			{
				"type": "unocc",
				"energy": -0.01899,
				"method": "rhf"
			},
			{
				"type": "unocc",
				"energy": 0.04505,
				"method": "rhf"
			},
			{
				"type": "unocc",
				"energy": 0.0656,
				"method": "rhf"
			}
		],
		"cosmo_sigma_profile": { 
			"-0.025": 0.0,
			"-0.024": 0.0,
			"-0.023": 0.0,
			"-0.022": 0.0,
			"-0.021": 0.0,
			"-0.02": 0.0,
			"-0.019": 0.0,
			"-0.018": 0.0,
			"-0.017": 0.0,
			"-0.016": 0.0,
			"-0.015": 0.0,
			"-0.014": 0.441828431426,
			"-0.013": 0.750124643801,
			"-0.012": 0.67994607745,
			"-0.011": 0.944433405607,
			"-0.01": 0.554957548515,
			"-0.009": 0.635309198655,
			"-0.008": 0.885877476738,
			"-0.007": 4.23058642488,
			"-0.006": 10.817831113,
			"-0.005": 18.2280550957,
			"-0.004": 25.4161241571,
			"-0.003": 38.5607372863,
			"-0.002": 41.0226486603,
			"-0.001": 45.6378112237,
			"0.0": 40.2343715508,
			"0.001": 30.1162176912,
			"0.002": 18.2155436223,
			"0.003": 18.0598614929,
			"0.004": 7.62187355826,
			"0.005": 5.95387929682,
			"0.006": 5.82237314748,
			"0.007": 5.10336219708,
			"0.008": 5.43532830781,
			"0.009": 6.66240683435,
			"0.01": 9.3317598021,
			"0.011": 8.19282945366,
			"0.012": 1.93451396189,
			"0.013": 0.513126146679,
			"0.014": 0.689113980649,
			"0.015": 0.356593322872,
			"0.016": 0.0,
			"0.017": 0.0,
			"0.018": 0.0,
			"0.019": 0.0,
			"0.02": 0.0,
			"0.021": 0.0,
			"0.022": 0.0,
			"0.023": 0.0,
			"0.024": 0.0,
			"0.025": 0.0
		}
	}
}
