{
	 "smiles": "CC1=NOC(=N1)C1=CC=CC=C1C=O", 
	 "Tm": 340.15, 
	 "num_atms": 22, 
	 "gaussian": { 
		 "optdone": 1, 
		 "sigma_profile": "yes", 
		 "theory": "DFT", 
		 "functional": "B3LYP", 
		 "basiset": "6-31G**", 
		 "properties": { 
			 "R2extent": 3132.6879, 
			 "electric_dipole_moment_norm": 1.8902934825, 
			 "electric_quadrupole_moment_norm": 20.9438703995, 
			 "total_energy": -645.794399437, 
			 "HOMO_LUMO_gap": 0.16691, 
			 "cosmo_polarized_energy": -9.73, 
			 "cosmo_cavitation_energy": 27.16, 
			 "cosmo_dispersion_energy": -20.09, 
			 "cosmo_repulsion_energy": 1.56, 
			 "cosmo_total_nonelectrostatic_energy": 8.64, 
			 "SMD_solvation_energy": 4.51 
		},
		"coords": [
			{
				"x": -0.7017123894,
				"y": 4.5578283746,
				"z": 1.1081315817,
				"element": "C" 
			},
			{
				"x": -0.1530331525,
				"y": 3.2755027441,
				"z": 0.5806775688,
				"element": "C" 
			},
			{
				"x": 0.9746037077,
				"y": 3.2147616453,
				"z": -0.08491805,
				"element": "N" 
			},
			{
				"x": 1.1035599829,
				"y": 1.8492830449,
				"z": -0.3817800315,
				"element": "O" 
			},
			{
				"x": 0.0262339187,
				"y": 1.2269792663,
				"z": 0.1436594127,
				"element": "C" 
			},
			{
				"x": -0.7794583701,
				"y": 2.0607150534,
				"z": 0.7476401699,
				"element": "N" 
			},
			{
				"x": -0.0658321358,
				"y": -0.2280783726,
				"z": -0.0387117864,
				"element": "C" 
			},
			{
				"x": 0.9774511973,
				"y": -0.8558149064,
				"z": -0.7431757735,
				"element": "C" 
			},
			{
				"x": 0.9701942164,
				"y": -2.2299601983,
				"z": -0.9611542779,
				"element": "C" 
			},
			{
				"x": -0.0833461409,
				"y": -3.0095609413,
				"z": -0.4783050385,
				"element": "C" 
			},
			{
				"x": -1.1207664373,
				"y": -2.4013034226,
				"z": 0.21953279,
				"element": "C" 
			},
			{
				"x": -1.1369282868,
				"y": -1.0191247104,
				"z": 0.4523484851,
				"element": "C" 
			},
			{
				"x": -2.3130675714,
				"y": -0.4898515375,
				"z": 1.2172079357,
				"element": "C" 
			},
			{
				"x": -3.2036686891,
				"y": -1.2220138272,
				"z": 1.6135601635,
				"element": "O" 
			},
			{
				"x": -0.8131104375,
				"y": 4.5026049108,
				"z": 2.1951429132,
				"element": "H" 
			},
			{
				"x": -0.0370490684,
				"y": 5.385524508,
				"z": 0.8562627938,
				"element": "H" 
			},
			{
				"x": -1.6919194351,
				"y": 4.7483736283,
				"z": 0.6835878806,
				"element": "H" 
			},
			{
				"x": 1.7967247011,
				"y": -0.2543581113,
				"z": -1.1192869605,
				"element": "H" 
			},
			{
				"x": 1.7878409321,
				"y": -2.6896590473,
				"z": -1.5079843169,
				"element": "H" 
			},
			{
				"x": -0.0934200736,
				"y": -4.0823511258,
				"z": -0.6458888934,
				"element": "H" 
			},
			{
				"x": -1.9544411589,
				"y": -2.9766645356,
				"z": 0.6082216678,
				"element": "H" 
			},
			{
				"x": -2.3330553092,
				"y": 0.5934675607,
				"z": 1.4036317657,
				"element": "H" 
			}
		],
		 "valence_orbital": [ 
			{
				"type": "occ",
				"energy": -0.31385,
				"method": "rhf"
			},
			{
				"type": "occ",
				"energy": -0.30854,
				"method": "rhf"
			},
			{
				"type": "occ",
				"energy": -0.27365,
				"method": "rhf"
			},
			{
				"type": "occ",
				"energy": -0.26111,
				"method": "rhf"
			},
			{
				"type": "occ",
				"energy": -0.25219,
				"method": "rhf"
			},
			{
				"type": "unocc",
				"energy": -0.08528,
				"method": "rhf"
			},
			{
				"type": "unocc",
				"energy": -0.05117,
				"method": "rhf"
			},
			{
				"type": "unocc",
				"energy": 0.00735,
				"method": "rhf"
			},
			{
				"type": "unocc",
				"energy": 0.02985,
				"method": "rhf"
			},
			{
				"type": "unocc",
				"energy": 0.04917,
				"method": "rhf"
			}
		],
		"cosmo_sigma_profile": { 
			"-0.025": 0.0,
			"-0.024": 0.0,
			"-0.023": 0.0,
			"-0.022": 0.0,
			"-0.021": 0.0,
			"-0.02": 0.0,
			"-0.019": 0.0,
			"-0.018": 0.0,
			"-0.017": 0.0,
			"-0.016": 0.0,
			"-0.015": 0.0,
			"-0.014": 0.0,
			"-0.013": 0.0,
			"-0.012": 0.0,
			"-0.011": 0.0,
			"-0.01": 0.0,
			"-0.009": 0.0,
			"-0.008": 1.13909374053,
			"-0.007": 7.20968342784,
			"-0.006": 13.5889085622,
			"-0.005": 12.3279490228,
			"-0.004": 19.9289059105,
			"-0.003": 22.582324711,
			"-0.002": 22.4077363428,
			"-0.001": 18.7367936568,
			"0.0": 15.7919773254,
			"0.001": 18.6688788912,
			"0.002": 16.5260819402,
			"0.003": 6.03661718567,
			"0.004": 5.12446260816,
			"0.005": 6.4137112073,
			"0.006": 6.03674952379,
			"0.007": 5.99489726491,
			"0.008": 2.97932878749,
			"0.009": 3.59692046447,
			"0.01": 4.48313748449,
			"0.011": 5.17258269565,
			"0.012": 3.08113146514,
			"0.013": 1.371345712,
			"0.014": 0.0427570095441,
			"0.015": 0.0,
			"0.016": 0.0,
			"0.017": 0.0,
			"0.018": 0.0,
			"0.019": 0.0,
			"0.02": 0.0,
			"0.021": 0.0,
			"0.022": 0.0,
			"0.023": 0.0,
			"0.024": 0.0,
			"0.025": 0.0
		}
	}
}
