{
	 "smiles": "CN(C)C1=C(N)C=C(C=C1)S(=O)(=O)N(C)C", 
	 "Tm": 417.15, 
	 "num_atms": 33, 
	 "gaussian": { 
		 "optdone": 1, 
		 "sigma_profile": "yes", 
		 "theory": "DFT", 
		 "functional": "B3LYP", 
		 "basiset": "6-31G**", 
		 "properties": { 
			 "R2extent": 5204.3482, 
			 "electric_dipole_moment_norm": 5.97803408572, 
			 "electric_quadrupole_moment_norm": 17.9490623432, 
			 "total_energy": -1104.12110592, 
			 "HOMO_LUMO_gap": 0.18121, 
			 "cosmo_polarized_energy": -16.8, 
			 "cosmo_cavitation_energy": 35.96, 
			 "cosmo_dispersion_energy": -25.82, 
			 "cosmo_repulsion_energy": 1.98, 
			 "cosmo_total_nonelectrostatic_energy": 12.12, 
			 "SMD_solvation_energy": 4.79 
		},
		"coords": [
			{
				"x": -0.8471385396,
				"y": 0.9174072535,
				"z": -3.8104562306,
				"element": "C" 
			},
			{
				"x": -1.5833815539,
				"y": 0.1041280647,
				"z": -2.8507265428,
				"element": "N" 
			},
			{
				"x": -3.0371921755,
				"y": 0.22190548,
				"z": -3.0389525583,
				"element": "C" 
			},
			{
				"x": -1.1649997238,
				"y": 0.1949301688,
				"z": -1.4921822113,
				"element": "C" 
			},
			{
				"x": -1.4163400111,
				"y": -0.92469696,
				"z": -0.6535783492,
				"element": "C" 
			},
			{
				"x": -2.0755428734,
				"y": -2.0349049699,
				"z": -1.1783550559,
				"element": "N" 
			},
			{
				"x": -1.0170892759,
				"y": -0.87853983,
				"z": 0.6870209732,
				"element": "C" 
			},
			{
				"x": -0.36098195,
				"y": 0.2487610062,
				"z": 1.1796137724,
				"element": "C" 
			},
			{
				"x": -0.0846048632,
				"y": 1.3472812703,
				"z": 0.3672248615,
				"element": "C" 
			},
			{
				"x": -0.4930906641,
				"y": 1.3050332597,
				"z": -0.9649253547,
				"element": "C" 
			},
			{
				"x": 0.0855049642,
				"y": 0.2919475397,
				"z": 2.9132377843,
				"element": "S" 
			},
			{
				"x": -0.3660673367,
				"y": 1.5573094363,
				"z": 3.5026559805,
				"element": "O" 
			},
			{
				"x": -0.3259406556,
				"y": -0.9879424939,
				"z": 3.5139545502,
				"element": "O" 
			},
			{
				"x": 1.7877790716,
				"y": 0.4049848713,
				"z": 2.8172984058,
				"element": "N" 
			},
			{
				"x": 2.4080554909,
				"y": 1.0281250458,
				"z": 3.9952937481,
				"element": "C" 
			},
			{
				"x": 2.434043669,
				"y": -0.8462682593,
				"z": 2.4075893784,
				"element": "C" 
			},
			{
				"x": -1.1026885162,
				"y": 0.5853696552,
				"z": -4.8219001438,
				"element": "H" 
			},
			{
				"x": -1.0779241295,
				"y": 1.9950129211,
				"z": -3.7478261127,
				"element": "H" 
			},
			{
				"x": 0.2278483509,
				"y": 0.7841056282,
				"z": -3.6652450281,
				"element": "H" 
			},
			{
				"x": -3.3932845857,
				"y": 1.2522803022,
				"z": -2.8758147866,
				"element": "H" 
			},
			{
				"x": -3.2930206822,
				"y": -0.0727196465,
				"z": -4.0621693745,
				"element": "H" 
			},
			{
				"x": -3.5591778604,
				"y": -0.4407615784,
				"z": -2.346496333,
				"element": "H" 
			},
			{
				"x": -1.9069785274,
				"y": -2.1493848994,
				"z": -2.1721642231,
				"element": "H" 
			},
			{
				"x": -1.942821436,
				"y": -2.8904172883,
				"z": -0.6559421772,
				"element": "H" 
			},
			{
				"x": -1.201362661,
				"y": -1.7187052838,
				"z": 1.3489225818,
				"element": "H" 
			},
			{
				"x": 0.4255112381,
				"y": 2.2156192503,
				"z": 0.7672001625,
				"element": "H" 
			},
			{
				"x": -0.2933385168,
				"y": 2.1585127533,
				"z": -1.603743964,
				"element": "H" 
			},
			{
				"x": 3.4378023835,
				"y": 1.2864447046,
				"z": 3.730807462,
				"element": "H" 
			},
			{
				"x": 1.8667530696,
				"y": 1.9387338356,
				"z": 4.2492915995,
				"element": "H" 
			},
			{
				"x": 2.4256321728,
				"y": 0.3618908592,
				"z": 4.8702412046,
				"element": "H" 
			},
			{
				"x": 3.4811608275,
				"y": -0.6263107266,
				"z": 2.1801382916,
				"element": "H" 
			},
			{
				"x": 2.3883840909,
				"y": -1.6224410058,
				"z": 3.1835851195,
				"element": "H" 
			},
			{
				"x": 1.9632912088,
				"y": -1.2271903641,
				"z": 1.4984025699,
				"element": "H" 
			}
		],
		 "valence_orbital": [ 
			{
				"type": "occ",
				"energy": -0.28698,
				"method": "rhf"
			},
			{
				"type": "occ",
				"energy": -0.27572,
				"method": "rhf"
			},
			{
				"type": "occ",
				"energy": -0.24431,
				"method": "rhf"
			},
			{
				"type": "occ",
				"energy": -0.23381,
				"method": "rhf"
			},
			{
				"type": "occ",
				"energy": -0.20393,
				"method": "rhf"
			},
			{
				"type": "unocc",
				"energy": -0.02272,
				"method": "rhf"
			},
			{
				"type": "unocc",
				"energy": 0.00104,
				"method": "rhf"
			},
			{
				"type": "unocc",
				"energy": 0.07198,
				"method": "rhf"
			},
			{
				"type": "unocc",
				"energy": 0.07873,
				"method": "rhf"
			},
			{
				"type": "unocc",
				"energy": 0.08535,
				"method": "rhf"
			}
		],
		"cosmo_sigma_profile": { 
			"-0.025": 0.0,
			"-0.024": 0.0,
			"-0.023": 0.0,
			"-0.022": 0.0,
			"-0.021": 0.0,
			"-0.02": 0.0,
			"-0.019": 0.0,
			"-0.018": 0.0,
			"-0.017": 0.0,
			"-0.016": 0.0,
			"-0.015": 0.0,
			"-0.014": 0.0,
			"-0.013": 0.591926564746,
			"-0.012": 1.67446240652,
			"-0.011": 1.49873981105,
			"-0.01": 2.40686923488,
			"-0.009": 3.11588425407,
			"-0.008": 2.04841959447,
			"-0.007": 3.57800431569,
			"-0.006": 8.61390201088,
			"-0.005": 15.4356149078,
			"-0.004": 26.557578132,
			"-0.003": 31.9152425635,
			"-0.002": 36.2429467234,
			"-0.001": 29.001321601,
			"0.0": 16.6669640821,
			"0.001": 12.5803224177,
			"0.002": 11.4302616079,
			"0.003": 14.7679448943,
			"0.004": 13.6193122626,
			"0.005": 9.45080527518,
			"0.006": 5.18509666016,
			"0.007": 4.98975756944,
			"0.008": 4.17354477733,
			"0.009": 3.98432225864,
			"0.01": 6.36145375155,
			"0.011": 9.39921366189,
			"0.012": 6.65973621025,
			"0.013": 0.590441634008,
			"0.014": 0.0,
			"0.015": 0.0,
			"0.016": 0.0,
			"0.017": 0.0,
			"0.018": 0.0,
			"0.019": 0.0,
			"0.02": 0.0,
			"0.021": 0.0,
			"0.022": 0.0,
			"0.023": 0.0,
			"0.024": 0.0,
			"0.025": 0.0
		}
	}
}
