{
	 "smiles": "CC12CCC3C(CC3(C)C)C(=C)CCC1O2", 
	 "Tm": 335.65, 
	 "num_atms": 40, 
	 "gaussian": { 
		 "optdone": 1, 
		 "sigma_profile": "yes", 
		 "theory": "DFT", 
		 "functional": "B3LYP", 
		 "basiset": "6-31G**", 
		 "properties": { 
			 "R2extent": 4298.4944, 
			 "electric_dipole_moment_norm": 2.26857593437, 
			 "electric_quadrupole_moment_norm": 15.8027159587, 
			 "total_energy": -661.212975383, 
			 "HOMO_LUMO_gap": 0.24678, 
			 "cosmo_polarized_energy": -6.25, 
			 "cosmo_cavitation_energy": 36.12, 
			 "cosmo_dispersion_energy": -25.21, 
			 "cosmo_repulsion_energy": 1.91, 
			 "cosmo_total_nonelectrostatic_energy": 12.82, 
			 "SMD_solvation_energy": 5.36 
		},
		"coords": [
			{
				"x": -2.022494326,
				"y": 2.8268698747,
				"z": -2.0544443115,
				"element": "C" 
			},
			{
				"x": -0.9522052098,
				"y": 3.1333282269,
				"z": -1.0237714845,
				"element": "C" 
			},
			{
				"x": 0.4887255373,
				"y": 2.8606738481,
				"z": -1.4484649057,
				"element": "C" 
			},
			{
				"x": 1.0839376108,
				"y": 1.5343597358,
				"z": -0.9148552799,
				"element": "C" 
			},
			{
				"x": 0.3033623702,
				"y": 0.2512077735,
				"z": -1.2543739434,
				"element": "C" 
			},
			{
				"x": -0.600412258,
				"y": -0.4266443996,
				"z": -0.1207366055,
				"element": "C" 
			},
			{
				"x": 0.5218254237,
				"y": -1.4643086422,
				"z": 0.098504624,
				"element": "C" 
			},
			{
				"x": 1.1347394176,
				"y": -1.0960442003,
				"z": -1.2808955488,
				"element": "C" 
			},
			{
				"x": 2.6613979908,
				"y": -1.0172843132,
				"z": -1.3191450376,
				"element": "C" 
			},
			{
				"x": 0.6383530482,
				"y": -2.0201048284,
				"z": -2.4021037239,
				"element": "C" 
			},
			{
				"x": -1.2079089565,
				"y": 0.3110025398,
				"z": 1.0528156047,
				"element": "C" 
			},
			{
				"x": -0.6763606517,
				"y": 0.2827710068,
				"z": 2.2814482012,
				"element": "C" 
			},
			{
				"x": -2.5310870617,
				"y": 1.0402935739,
				"z": 0.7982842784,
				"element": "C" 
			},
			{
				"x": -2.4881674605,
				"y": 2.5716712676,
				"z": 1.0308140359,
				"element": "C" 
			},
			{
				"x": -1.2243214633,
				"y": 3.1399913618,
				"z": 0.4229957679,
				"element": "C" 
			},
			{
				"x": -1.2069150987,
				"y": 4.3728080043,
				"z": -0.3103314498,
				"element": "O" 
			},
			{
				"x": -1.9624189451,
				"y": 1.7933168104,
				"z": -2.4089089097,
				"element": "H" 
			},
			{
				"x": -1.8817063309,
				"y": 3.4813375632,
				"z": -2.9225286326,
				"element": "H" 
			},
			{
				"x": -3.0251238679,
				"y": 3.0070222273,
				"z": -1.6623590197,
				"element": "H" 
			},
			{
				"x": 1.1057183534,
				"y": 3.6903012703,
				"z": -1.085370273,
				"element": "H" 
			},
			{
				"x": 0.5591709077,
				"y": 2.8734266395,
				"z": -2.5440911106,
				"element": "H" 
			},
			{
				"x": 1.2261592175,
				"y": 1.60787864,
				"z": 0.1701786728,
				"element": "H" 
			},
			{
				"x": 2.0898975017,
				"y": 1.4572402898,
				"z": -1.342015136,
				"element": "H" 
			},
			{
				"x": -0.2395951845,
				"y": 0.406888647,
				"z": -2.1939056068,
				"element": "H" 
			},
			{
				"x": -1.4315890751,
				"y": -0.9166066651,
				"z": -0.6441639928,
				"element": "H" 
			},
			{
				"x": 1.1987281584,
				"y": -1.1751572688,
				"z": 0.9083245782,
				"element": "H" 
			},
			{
				"x": 0.2148408616,
				"y": -2.5032594265,
				"z": 0.2614403273,
				"element": "H" 
			},
			{
				"x": 3.0260046082,
				"y": -0.6137775141,
				"z": -2.2716288514,
				"element": "H" 
			},
			{
				"x": 3.0655012494,
				"y": -0.3972001922,
				"z": -0.5132468075,
				"element": "H" 
			},
			{
				"x": 3.0880047643,
				"y": -2.0211009563,
				"z": -1.2052406277,
				"element": "H" 
			},
			{
				"x": -0.4523500732,
				"y": -2.1210538402,
				"z": -2.3979899049,
				"element": "H" 
			},
			{
				"x": 0.9313840744,
				"y": -1.6333902033,
				"z": -3.3854507418,
				"element": "H" 
			},
			{
				"x": 1.0641849444,
				"y": -3.0250041514,
				"z": -2.297667599,
				"element": "H" 
			},
			{
				"x": 0.2426912361,
				"y": -0.2461438054,
				"z": 2.5095380803,
				"element": "H" 
			},
			{
				"x": -1.1571498237,
				"y": 0.7856839215,
				"z": 3.1170921885,
				"element": "H" 
			},
			{
				"x": -3.3117166071,
				"y": 0.6017006998,
				"z": 1.4320286561,
				"element": "H" 
			},
			{
				"x": -2.8408920161,
				"y": 0.8571165105,
				"z": -0.2353269959,
				"element": "H" 
			},
			{
				"x": -2.5135085704,
				"y": 2.7969936987,
				"z": 2.1033471333,
				"element": "H" 
			},
			{
				"x": -3.3729586648,
				"y": 3.0413825267,
				"z": 0.5900619761,
				"element": "H" 
			},
			{
				"x": -0.3514456307,
				"y": 3.0249137491,
				"z": 1.0660423751,
				"element": "H" 
			}
		],
		 "valence_orbital": [ 
			{
				"type": "occ",
				"energy": -0.28873,
				"method": "rhf"
			},
			{
				"type": "occ",
				"energy": -0.28666,
				"method": "rhf"
			},
			{
				"type": "occ",
				"energy": -0.2665,
				"method": "rhf"
			},
			{
				"type": "occ",
				"energy": -0.25432,
				"method": "rhf"
			},
			{
				"type": "occ",
				"energy": -0.23531,
				"method": "rhf"
			},
			{
				"type": "unocc",
				"energy": 0.01147,
				"method": "rhf"
			},
			{
				"type": "unocc",
				"energy": 0.06953,
				"method": "rhf"
			},
			{
				"type": "unocc",
				"energy": 0.08575,
				"method": "rhf"
			},
			{
				"type": "unocc",
				"energy": 0.09081,
				"method": "rhf"
			},
			{
				"type": "unocc",
				"energy": 0.09749,
				"method": "rhf"
			}
		],
		"cosmo_sigma_profile": { 
			"-0.025": 0.0,
			"-0.024": 0.0,
			"-0.023": 0.0,
			"-0.022": 0.0,
			"-0.021": 0.0,
			"-0.02": 0.0,
			"-0.019": 0.0,
			"-0.018": 0.0,
			"-0.017": 0.0,
			"-0.016": 0.0,
			"-0.015": 0.0,
			"-0.014": 0.0,
			"-0.013": 0.0,
			"-0.012": 0.0,
			"-0.011": 0.0,
			"-0.01": 0.0,
			"-0.009": 0.0,
			"-0.008": 0.0,
			"-0.007": 0.0,
			"-0.006": 0.0,
			"-0.005": 0.855078252986,
			"-0.004": 10.8013327569,
			"-0.003": 35.9220520092,
			"-0.002": 52.010648411,
			"-0.001": 48.9265904446,
			"0.0": 45.7975311635,
			"0.001": 32.7500299172,
			"0.002": 17.2788169663,
			"0.003": 6.27663708504,
			"0.004": 4.65464581829,
			"0.005": 3.80538681796,
			"0.006": 2.81907554275,
			"0.007": 2.83174797227,
			"0.008": 1.64731520915,
			"0.009": 1.25279899993,
			"0.01": 1.75010700838,
			"0.011": 1.99112204556,
			"0.012": 2.61784180797,
			"0.013": 3.14480633249,
			"0.014": 0.824535319519,
			"0.015": 0.0,
			"0.016": 0.0,
			"0.017": 0.0,
			"0.018": 0.0,
			"0.019": 0.0,
			"0.02": 0.0,
			"0.021": 0.0,
			"0.022": 0.0,
			"0.023": 0.0,
			"0.024": 0.0,
			"0.025": 0.0
		}
	}
}
