{
	 "smiles": "OC(=O)C1=C(C=CC=C1)C(=O)N1CCCC1", 
	 "Tm": 405.15, 
	 "num_atms": 29, 
	 "gaussian": { 
		 "optdone": 1, 
		 "sigma_profile": "yes", 
		 "theory": "DFT", 
		 "functional": "B3LYP", 
		 "basiset": "6-31G**", 
		 "properties": { 
			 "R2extent": 5483.4763, 
			 "electric_dipole_moment_norm": 7.5208641425, 
			 "electric_quadrupole_moment_norm": 15.4862234105, 
			 "total_energy": -745.56643994, 
			 "HOMO_LUMO_gap": 0.19958, 
			 "cosmo_polarized_energy": -16.47, 
			 "cosmo_cavitation_energy": 31.5, 
			 "cosmo_dispersion_energy": -22.88, 
			 "cosmo_repulsion_energy": 1.79, 
			 "cosmo_total_nonelectrostatic_energy": 10.41, 
			 "SMD_solvation_energy": 5.72 
		},
		"coords": [
			{
				"x": 1.9384288281,
				"y": 2.0405131791,
				"z": 1.6952961432,
				"element": "O" 
			},
			{
				"x": 1.3919125129,
				"y": 2.6345384331,
				"z": 0.632876993,
				"element": "C" 
			},
			{
				"x": 0.5270953048,
				"y": 3.4774686235,
				"z": 0.7610191516,
				"element": "O" 
			},
			{
				"x": 1.90583328,
				"y": 2.2716551909,
				"z": -0.7513683983,
				"element": "C" 
			},
			{
				"x": 2.4386110777,
				"y": 1.0276334621,
				"z": -1.160289008,
				"element": "C" 
			},
			{
				"x": 2.8800085237,
				"y": 0.8722463305,
				"z": -2.4835519189,
				"element": "C" 
			},
			{
				"x": 2.7915574231,
				"y": 1.9150826466,
				"z": -3.4021625181,
				"element": "C" 
			},
			{
				"x": 2.2272508465,
				"y": 3.1298055344,
				"z": -3.011585333,
				"element": "C" 
			},
			{
				"x": 1.7821599991,
				"y": 3.2942573785,
				"z": -1.7035433562,
				"element": "C" 
			},
			{
				"x": 2.6425241897,
				"y": -0.1297563691,
				"z": -0.2173867731,
				"element": "C" 
			},
			{
				"x": 3.3288881973,
				"y": 0.0085986564,
				"z": 0.8128533053,
				"element": "O" 
			},
			{
				"x": 2.0979683398,
				"y": -1.3250180473,
				"z": -0.5397827585,
				"element": "N" 
			},
			{
				"x": 1.0468489006,
				"y": -1.569720011,
				"z": -1.5546797298,
				"element": "C" 
			},
			{
				"x": 0.7129370548,
				"y": -3.0586473486,
				"z": -1.3729259227,
				"element": "C" 
			},
			{
				"x": 1.0000079624,
				"y": -3.3169775245,
				"z": 0.1147244058,
				"element": "C" 
			},
			{
				"x": 2.2497306419,
				"y": -2.4705608094,
				"z": 0.3816293041,
				"element": "C" 
			},
			{
				"x": 2.644202778,
				"y": 1.3926999138,
				"z": 1.4425419397,
				"element": "H" 
			},
			{
				"x": 3.3190680514,
				"y": -0.0741625386,
				"z": -2.7850572027,
				"element": "H" 
			},
			{
				"x": 3.1575066799,
				"y": 1.7766119462,
				"z": -4.4151863397,
				"element": "H" 
			},
			{
				"x": 2.1372914129,
				"y": 3.9466651488,
				"z": -3.7213216013,
				"element": "H" 
			},
			{
				"x": 1.3270211971,
				"y": 4.2238655584,
				"z": -1.3810116832,
				"element": "H" 
			},
			{
				"x": 1.3978252898,
				"y": -1.3423995323,
				"z": -2.5624493254,
				"element": "H" 
			},
			{
				"x": 0.1768377308,
				"y": -0.9336817068,
				"z": -1.352017547,
				"element": "H" 
			},
			{
				"x": 1.3776009678,
				"y": -3.6680078429,
				"z": -1.9957138881,
				"element": "H" 
			},
			{
				"x": -0.3160038113,
				"y": -3.284120915,
				"z": -1.6642816652,
				"element": "H" 
			},
			{
				"x": 0.166967994,
				"y": -2.958104647,
				"z": 0.7294229383,
				"element": "H" 
			},
			{
				"x": 1.1557152152,
				"y": -4.3738422173,
				"z": 0.3453069229,
				"element": "H" 
			},
			{
				"x": 2.3372895685,
				"y": -2.1037754361,
				"z": 1.4055786025,
				"element": "H" 
			},
			{
				"x": 3.1705138437,
				"y": -3.0175670563,
				"z": 0.1429652627,
				"element": "H" 
			}
		],
		 "valence_orbital": [ 
			{
				"type": "occ",
				"energy": -0.28282,
				"method": "rhf"
			},
			{
				"type": "occ",
				"energy": -0.27081,
				"method": "rhf"
			},
			{
				"type": "occ",
				"energy": -0.26362,
				"method": "rhf"
			},
			{
				"type": "occ",
				"energy": -0.26195,
				"method": "rhf"
			},
			{
				"type": "occ",
				"energy": -0.24991,
				"method": "rhf"
			},
			{
				"type": "unocc",
				"energy": -0.05033,
				"method": "rhf"
			},
			{
				"type": "unocc",
				"energy": -0.03117,
				"method": "rhf"
			},
			{
				"type": "unocc",
				"energy": 0.01242,
				"method": "rhf"
			},
			{
				"type": "unocc",
				"energy": 0.05424,
				"method": "rhf"
			},
			{
				"type": "unocc",
				"energy": 0.06296,
				"method": "rhf"
			}
		],
		"cosmo_sigma_profile": { 
			"-0.025": 0.0,
			"-0.024": 0.0,
			"-0.023": 0.0,
			"-0.022": 0.0,
			"-0.021": 0.0,
			"-0.02": 0.0,
			"-0.019": 0.0,
			"-0.018": 0.0,
			"-0.017": 0.0,
			"-0.016": 0.0,
			"-0.015": 0.0,
			"-0.014": 0.0,
			"-0.013": 0.0,
			"-0.012": 0.0,
			"-0.011": 0.0,
			"-0.01": 0.0,
			"-0.009": 0.0,
			"-0.008": 0.416006856241,
			"-0.007": 6.24734040855,
			"-0.006": 11.8490240761,
			"-0.005": 20.7088375839,
			"-0.004": 31.9119671077,
			"-0.003": 33.2773461304,
			"-0.002": 24.7965339112,
			"-0.001": 18.8682140716,
			"0.0": 15.6338838197,
			"0.001": 10.989561421,
			"0.002": 13.1760040982,
			"0.003": 13.9607291122,
			"0.004": 4.04266415263,
			"0.005": 3.16916613569,
			"0.006": 4.83423030247,
			"0.007": 3.72248009076,
			"0.008": 3.00036145248,
			"0.009": 4.2477099301,
			"0.01": 5.09712970726,
			"0.011": 6.62865869257,
			"0.012": 8.57117667072,
			"0.013": 3.8050098074,
			"0.014": 0.911732985159,
			"0.015": 0.0,
			"0.016": 0.0,
			"0.017": 0.0,
			"0.018": 0.0,
			"0.019": 0.0,
			"0.02": 0.0,
			"0.021": 0.0,
			"0.022": 0.0,
			"0.023": 0.0,
			"0.024": 0.0,
			"0.025": 0.0
		}
	}
}
