{
	 "smiles": "CC(C)(C)OC(=O)N1CCC(CC1)C1=NC(CO)=CS1", 
	 "Tm": 372.15, 
	 "num_atms": 42, 
	 "gaussian": { 
		 "optdone": 1, 
		 "sigma_profile": "yes", 
		 "theory": "DFT", 
		 "functional": "B3LYP", 
		 "basiset": "6-31G**", 
		 "properties": { 
			 "R2extent": 9754.6368, 
			 "electric_dipole_moment_norm": 2.76014210685, 
			 "electric_quadrupole_moment_norm": 20.710709534, 
			 "total_energy": -1280.14094435, 
			 "HOMO_LUMO_gap": 0.19819, 
			 "cosmo_polarized_energy": -13.21, 
			 "cosmo_cavitation_energy": 43.88, 
			 "cosmo_dispersion_energy": -30.66, 
			 "cosmo_repulsion_energy": 2.35, 
			 "cosmo_total_nonelectrostatic_energy": 15.57, 
			 "SMD_solvation_energy": 6.94 
		},
		"coords": [
			{
				"x": -0.5481540099,
				"y": -4.3300941932,
				"z": 1.7886496358,
				"element": "C" 
			},
			{
				"x": -0.0752035238,
				"y": -3.3109826604,
				"z": 2.8294263928,
				"element": "C" 
			},
			{
				"x": -1.2251815743,
				"y": -2.9195063007,
				"z": 3.7640378547,
				"element": "C" 
			},
			{
				"x": 1.1402184572,
				"y": -3.8445670993,
				"z": 3.5957308928,
				"element": "C" 
			},
			{
				"x": 0.3138963272,
				"y": -2.1639221667,
				"z": 1.9968667878,
				"element": "O" 
			},
			{
				"x": 0.7937680584,
				"y": -1.0256399139,
				"z": 2.5614290984,
				"element": "C" 
			},
			{
				"x": 0.95279686,
				"y": -0.8494888694,
				"z": 3.7628984627,
				"element": "O" 
			},
			{
				"x": 1.081939903,
				"y": -0.0830270054,
				"z": 1.6094228288,
				"element": "N" 
			},
			{
				"x": 0.9256016057,
				"y": -0.2634569816,
				"z": 0.1670077714,
				"element": "C" 
			},
			{
				"x": 2.2653154348,
				"y": -0.0448364326,
				"z": -0.5500888891,
				"element": "C" 
			},
			{
				"x": 2.9331130852,
				"y": 1.3077003245,
				"z": -0.1856208838,
				"element": "C" 
			},
			{
				"x": 2.9738048525,
				"y": 1.4745505024,
				"z": 1.3562781133,
				"element": "C" 
			},
			{
				"x": 1.6174094387,
				"y": 1.2131381251,
				"z": 2.0234728979,
				"element": "C" 
			},
			{
				"x": 2.2832857037,
				"y": 2.4795385204,
				"z": -0.8829881087,
				"element": "C" 
			},
			{
				"x": 1.0664330092,
				"y": 2.9123392538,
				"z": -0.7001350145,
				"element": "N" 
			},
			{
				"x": 0.771956695,
				"y": 4.0019400595,
				"z": -1.4974614743,
				"element": "C" 
			},
			{
				"x": -0.6037285897,
				"y": 4.6035265518,
				"z": -1.3631109725,
				"element": "C" 
			},
			{
				"x": -1.6214130902,
				"y": 3.6190121732,
				"z": -1.4225828044,
				"element": "O" 
			},
			{
				"x": 1.7852511219,
				"y": 4.413768695,
				"z": -2.3135035474,
				"element": "C" 
			},
			{
				"x": 3.1807101705,
				"y": 3.4120392492,
				"z": -2.0796068189,
				"element": "S" 
			},
			{
				"x": -1.3883079737,
				"y": -3.9320577863,
				"z": 1.2119678051,
				"element": "H" 
			},
			{
				"x": 0.2605520896,
				"y": -4.5780189579,
				"z": 1.0946542638,
				"element": "H" 
			},
			{
				"x": -0.8731564286,
				"y": -5.2501026202,
				"z": 2.2835813839,
				"element": "H" 
			},
			{
				"x": -2.0590994674,
				"y": -2.5074887912,
				"z": 3.1867162638,
				"element": "H" 
			},
			{
				"x": -0.8989728605,
				"y": -2.1781417942,
				"z": 4.4933489301,
				"element": "H" 
			},
			{
				"x": -1.5856611262,
				"y": -3.8067509787,
				"z": 4.2949594063,
				"element": "H" 
			},
			{
				"x": 0.8686010885,
				"y": -4.7664919103,
				"z": 4.120417394,
				"element": "H" 
			},
			{
				"x": 1.9540571916,
				"y": -4.0771894817,
				"z": 2.901244719,
				"element": "H" 
			},
			{
				"x": 1.4929319083,
				"y": -3.1133710704,
				"z": 4.3229591593,
				"element": "H" 
			},
			{
				"x": 0.1863320175,
				"y": 0.4567494112,
				"z": -0.2054715483,
				"element": "H" 
			},
			{
				"x": 0.550881807,
				"y": -1.2664798177,
				"z": -0.0252354935,
				"element": "H" 
			},
			{
				"x": 2.1200561922,
				"y": -0.1155064257,
				"z": -1.6337943611,
				"element": "H" 
			},
			{
				"x": 2.9531542783,
				"y": -0.848179809,
				"z": -0.2587594879,
				"element": "H" 
			},
			{
				"x": 3.9690933471,
				"y": 1.2695171431,
				"z": -0.5424554282,
				"element": "H" 
			},
			{
				"x": 3.3274123528,
				"y": 2.4778288532,
				"z": 1.6181369862,
				"element": "H" 
			},
			{
				"x": 3.7036460671,
				"y": 0.7575526503,
				"z": 1.7518054341,
				"element": "H" 
			},
			{
				"x": 0.9079467082,
				"y": 2.001168087,
				"z": 1.7443277304,
				"element": "H" 
			},
			{
				"x": 1.7149831745,
				"y": 1.1984496263,
				"z": 3.1086865307,
				"element": "H" 
			},
			{
				"x": -0.7886288816,
				"y": 5.3115475288,
				"z": -2.1761169491,
				"element": "H" 
			},
			{
				"x": -0.6554997446,
				"y": 5.1687111435,
				"z": -0.4170390865,
				"element": "H" 
			},
			{
				"x": -1.3490231755,
				"y": 2.9166322135,
				"z": -0.8147750765,
				"element": "H" 
			},
			{
				"x": 1.7863815003,
				"y": 5.2276909544,
				"z": -3.0243807983,
				"element": "H" 
			}
		],
		 "valence_orbital": [ 
			{
				"type": "occ",
				"energy": -0.28137,
				"method": "rhf"
			},
			{
				"type": "occ",
				"energy": -0.26775,
				"method": "rhf"
			},
			{
				"type": "occ",
				"energy": -0.25422,
				"method": "rhf"
			},
			{
				"type": "occ",
				"energy": -0.24508,
				"method": "rhf"
			},
			{
				"type": "occ",
				"energy": -0.22943,
				"method": "rhf"
			},
			{
				"type": "unocc",
				"energy": -0.03124,
				"method": "rhf"
			},
			{
				"type": "unocc",
				"energy": 0.00643,
				"method": "rhf"
			},
			{
				"type": "unocc",
				"energy": 0.0347,
				"method": "rhf"
			},
			{
				"type": "unocc",
				"energy": 0.05896,
				"method": "rhf"
			},
			{
				"type": "unocc",
				"energy": 0.08029,
				"method": "rhf"
			}
		],
		"cosmo_sigma_profile": { 
			"-0.025": 0.0,
			"-0.024": 0.0,
			"-0.023": 0.0,
			"-0.022": 0.0,
			"-0.021": 0.0,
			"-0.02": 0.0,
			"-0.019": 0.0,
			"-0.018": 0.0,
			"-0.017": 0.0,
			"-0.016": 0.0,
			"-0.015": 0.0,
			"-0.014": 0.0,
			"-0.013": 0.0,
			"-0.012": 0.145837832036,
			"-0.011": 0.538375010852,
			"-0.01": 1.11498978702,
			"-0.009": 1.60571420862,
			"-0.008": 2.85784990423,
			"-0.007": 2.62442613322,
			"-0.006": 7.47434177954,
			"-0.005": 8.95689110666,
			"-0.004": 30.6197892178,
			"-0.003": 44.3485359977,
			"-0.002": 40.9991665059,
			"-0.001": 37.0048634228,
			"0.0": 38.4526015438,
			"0.001": 37.4342458142,
			"0.002": 21.9155130635,
			"0.003": 17.5654075997,
			"0.004": 12.2629511612,
			"0.005": 7.67768012082,
			"0.006": 4.69786579611,
			"0.007": 2.73254570506,
			"0.008": 3.56740244537,
			"0.009": 2.95619776357,
			"0.01": 1.66720644747,
			"0.011": 3.03240728816,
			"0.012": 3.65942910517,
			"0.013": 4.29294964384,
			"0.014": 4.46234565287,
			"0.015": 0.228652763888,
			"0.016": 0.0,
			"0.017": 0.0,
			"0.018": 0.0,
			"0.019": 0.0,
			"0.02": 0.0,
			"0.021": 0.0,
			"0.022": 0.0,
			"0.023": 0.0,
			"0.024": 0.0,
			"0.025": 0.0
		}
	}
}
