{
	 "smiles": "NC1=NN2C=C(N=C2C2=C1C=CC=C2)C1=CC=CC=C1", 
	 "Tm": 489.15, 
	 "num_atms": 32, 
	 "gaussian": { 
		 "optdone": 1, 
		 "sigma_profile": "yes", 
		 "theory": "DFT", 
		 "functional": "B3LYP", 
		 "basiset": "6-31G**", 
		 "properties": { 
			 "R2extent": 6988.8355, 
			 "electric_dipole_moment_norm": 4.15650905087, 
			 "electric_quadrupole_moment_norm": 22.2490675953, 
			 "total_energy": -835.945655881, 
			 "HOMO_LUMO_gap": 0.14513, 
			 "cosmo_polarized_energy": -15.45, 
			 "cosmo_cavitation_energy": 36.22, 
			 "cosmo_dispersion_energy": -27.05, 
			 "cosmo_repulsion_energy": 2.01, 
			 "cosmo_total_nonelectrostatic_energy": 11.17, 
			 "SMD_solvation_energy": 3.72 
		},
		"coords": [
			{
				"x": 4.5732732763,
				"y": 0.7647346932,
				"z": 0.4642008533,
				"element": "N" 
			},
			{
				"x": 3.2317710155,
				"y": 0.7342088758,
				"z": 0.1081535788,
				"element": "C" 
			},
			{
				"x": 2.6373517793,
				"y": -0.4287641788,
				"z": 0.200832644,
				"element": "N" 
			},
			{
				"x": 1.3032433318,
				"y": -0.4304082954,
				"z": -0.0812104067,
				"element": "N" 
			},
			{
				"x": 0.4790828267,
				"y": -1.5218978077,
				"z": -0.0289759041,
				"element": "C" 
			},
			{
				"x": -0.7676259861,
				"y": -1.065772401,
				"z": -0.4445773879,
				"element": "C" 
			},
			{
				"x": -0.7095719367,
				"y": 0.2742933063,
				"z": -0.7476801493,
				"element": "N" 
			},
			{
				"x": 0.5433264997,
				"y": 0.6396286914,
				"z": -0.524228373,
				"element": "C" 
			},
			{
				"x": 1.1955482595,
				"y": 1.909404637,
				"z": -0.6435045275,
				"element": "C" 
			},
			{
				"x": 2.5692466604,
				"y": 1.9715577255,
				"z": -0.293310505,
				"element": "C" 
			},
			{
				"x": 3.2290909122,
				"y": 3.2158713487,
				"z": -0.3392304704,
				"element": "C" 
			},
			{
				"x": 2.5548015784,
				"y": 4.3535886118,
				"z": -0.7543087205,
				"element": "C" 
			},
			{
				"x": 1.1994643197,
				"y": 4.2773595523,
				"z": -1.124973553,
				"element": "C" 
			},
			{
				"x": 0.5220258383,
				"y": 3.0714183134,
				"z": -1.0645117889,
				"element": "C" 
			},
			{
				"x": -2.0177727711,
				"y": -1.8266283965,
				"z": -0.5725793584,
				"element": "C" 
			},
			{
				"x": -3.183574763,
				"y": -1.1846814998,
				"z": -1.0225925875,
				"element": "C" 
			},
			{
				"x": -4.3777965541,
				"y": -1.8904734025,
				"z": -1.150887,
				"element": "C" 
			},
			{
				"x": -4.4335613132,
				"y": -3.2495851398,
				"z": -0.8332286832,
				"element": "C" 
			},
			{
				"x": -3.2801915912,
				"y": -3.8974489844,
				"z": -0.3845222641,
				"element": "C" 
			},
			{
				"x": -2.0846653895,
				"y": -3.1939616855,
				"z": -0.2551721796,
				"element": "C" 
			},
			{
				"x": 5.1649555027,
				"y": 1.3311547303,
				"z": -0.1284257241,
				"element": "H" 
			},
			{
				"x": 4.9494642638,
				"y": -0.1638250015,
				"z": 0.6115134839,
				"element": "H" 
			},
			{
				"x": 0.8527398332,
				"y": -2.4821730609,
				"z": 0.285622184,
				"element": "H" 
			},
			{
				"x": 4.2638745377,
				"y": 3.2931795087,
				"z": -0.0218340335,
				"element": "H" 
			},
			{
				"x": 3.0720120398,
				"y": 5.3076079257,
				"z": -0.7843073741,
				"element": "H" 
			},
			{
				"x": 0.6788446679,
				"y": 5.1736067456,
				"z": -1.4492904205,
				"element": "H" 
			},
			{
				"x": -0.5271873072,
				"y": 2.9945471393,
				"z": -1.3282259797,
				"element": "H" 
			},
			{
				"x": -3.13079744,
				"y": -0.129338842,
				"z": -1.2666927453,
				"element": "H" 
			},
			{
				"x": -5.2695733086,
				"y": -1.3773243323,
				"z": -1.500497175,
				"element": "H" 
			},
			{
				"x": -5.3654018926,
				"y": -3.7987386594,
				"z": -0.933637729,
				"element": "H" 
			},
			{
				"x": -3.3114814911,
				"y": -4.954226343,
				"z": -0.133904659,
				"element": "H" 
			},
			{
				"x": -1.1975153986,
				"y": -3.7133137747,
				"z": 0.0962869554,
				"element": "H" 
			}
		],
		 "valence_orbital": [ 
			{
				"type": "occ",
				"energy": -0.2612,
				"method": "rhf"
			},
			{
				"type": "occ",
				"energy": -0.24968,
				"method": "rhf"
			},
			{
				"type": "occ",
				"energy": -0.23952,
				"method": "rhf"
			},
			{
				"type": "occ",
				"energy": -0.22443,
				"method": "rhf"
			},
			{
				"type": "occ",
				"energy": -0.19528,
				"method": "rhf"
			},
			{
				"type": "unocc",
				"energy": -0.05015,
				"method": "rhf"
			},
			{
				"type": "unocc",
				"energy": -0.03603,
				"method": "rhf"
			},
			{
				"type": "unocc",
				"energy": -0.00815,
				"method": "rhf"
			},
			{
				"type": "unocc",
				"energy": 0.01174,
				"method": "rhf"
			},
			{
				"type": "unocc",
				"energy": 0.04049,
				"method": "rhf"
			}
		],
		"cosmo_sigma_profile": { 
			"-0.025": 0.0,
			"-0.024": 0.0,
			"-0.023": 0.0,
			"-0.022": 0.0,
			"-0.021": 0.0,
			"-0.02": 0.0,
			"-0.019": 0.0,
			"-0.018": 0.0,
			"-0.017": 0.0,
			"-0.016": 0.0,
			"-0.015": 0.0,
			"-0.014": 0.579518860125,
			"-0.013": 2.43602130212,
			"-0.012": 2.82482304979,
			"-0.011": 2.92901195508,
			"-0.01": 2.66414583624,
			"-0.009": 3.74231754135,
			"-0.008": 4.27249544063,
			"-0.007": 7.20339256467,
			"-0.006": 13.3724511637,
			"-0.005": 17.3261956039,
			"-0.004": 18.7364422885,
			"-0.003": 19.2338977687,
			"-0.002": 16.9953701473,
			"-0.001": 15.3654734554,
			"0.0": 17.6174633639,
			"0.001": 19.8348803915,
			"0.002": 27.8354002691,
			"0.003": 26.7393892996,
			"0.004": 22.2256508884,
			"0.005": 15.7746334417,
			"0.006": 13.5567573529,
			"0.007": 4.14410628983,
			"0.008": 3.87292837346,
			"0.009": 3.15260125369,
			"0.01": 2.7246974732,
			"0.011": 3.22774101163,
			"0.012": 2.89793017315,
			"0.013": 0.525279861346,
			"0.014": 0.0,
			"0.015": 0.0,
			"0.016": 0.0,
			"0.017": 0.0,
			"0.018": 0.0,
			"0.019": 0.0,
			"0.02": 0.0,
			"0.021": 0.0,
			"0.022": 0.0,
			"0.023": 0.0,
			"0.024": 0.0,
			"0.025": 0.0
		}
	}
}
