{
	 "smiles": "CC(C)(C)C1=CC=C(S1)S(Cl)(=O)=O", 
	 "Tm": 321.15, 
	 "num_atms": 24, 
	 "gaussian": { 
		 "optdone": 1, 
		 "sigma_profile": "yes", 
		 "theory": "DFT", 
		 "functional": "B3LYP", 
		 "basiset": "6-31G**", 
		 "properties": { 
			 "R2extent": 8268.3651, 
			 "electric_dipole_moment_norm": 6.7585689617, 
			 "electric_quadrupole_moment_norm": 30.7292918166, 
			 "total_energy": -1718.42189125, 
			 "HOMO_LUMO_gap": 0.17332, 
			 "cosmo_polarized_energy": -9.18, 
			 "cosmo_cavitation_energy": 31.62, 
			 "cosmo_dispersion_energy": -23.22, 
			 "cosmo_repulsion_energy": 1.75, 
			 "cosmo_total_nonelectrostatic_energy": 10.15, 
			 "SMD_solvation_energy": 3.95 
		},
		"coords": [
			{
				"x": -1.6823413691,
				"y": 0.9975154385,
				"z": -0.9262244336,
				"element": "C" 
			},
			{
				"x": -0.4560792522,
				"y": 0.2235530686,
				"z": -0.4037712376,
				"element": "C" 
			},
			{
				"x": -0.6584710921,
				"y": -0.0845064911,
				"z": 1.099648539,
				"element": "C" 
			},
			{
				"x": 0.8062958918,
				"y": 1.0998613726,
				"z": -0.5845349926,
				"element": "C" 
			},
			{
				"x": -0.2977907796,
				"y": -1.0780230724,
				"z": -1.1789105528,
				"element": "C" 
			},
			{
				"x": -1.1056672128,
				"y": -1.6040589641,
				"z": -2.1643119338,
				"element": "C" 
			},
			{
				"x": -0.6672001735,
				"y": -2.8586952498,
				"z": -2.6609407363,
				"element": "C" 
			},
			{
				"x": 0.4767595183,
				"y": -3.2812499274,
				"z": -2.0317425237,
				"element": "C" 
			},
			{
				"x": 1.0414193905,
				"y": -2.1513598779,
				"z": -0.8373990315,
				"element": "S" 
			},
			{
				"x": 1.3247813787,
				"y": -4.7726913939,
				"z": -2.3820434351,
				"element": "S" 
			},
			{
				"x": 2.7533656782,
				"y": -4.1567587051,
				"z": -3.8481966632,
				"element": "Cl" 
			},
			{
				"x": 0.4165413845,
				"y": -5.6781437028,
				"z": -3.073005232,
				"element": "O" 
			},
			{
				"x": 2.1045595067,
				"y": -5.1679774642,
				"z": -1.2164862615,
				"element": "O" 
			},
			{
				"x": -1.7854396979,
				"y": 1.9353315968,
				"z": -0.3720576088,
				"element": "H" 
			},
			{
				"x": -1.5802063389,
				"y": 1.2459272165,
				"z": -1.9872665203,
				"element": "H" 
			},
			{
				"x": -2.6071178371,
				"y": 0.4280237399,
				"z": -0.7906291573,
				"element": "H" 
			},
			{
				"x": -1.5407176164,
				"y": -0.7122931766,
				"z": 1.2577203105,
				"element": "H" 
			},
			{
				"x": 0.2057921493,
				"y": -0.6042199209,
				"z": 1.5247486272,
				"element": "H" 
			},
			{
				"x": -0.7966017496,
				"y": 0.8478340325,
				"z": 1.6571395076,
				"element": "H" 
			},
			{
				"x": 0.9805263125,
				"y": 1.3275608724,
				"z": -1.6405838657,
				"element": "H" 
			},
			{
				"x": 0.685889389,
				"y": 2.0451048308,
				"z": -0.0451418102,
				"element": "H" 
			},
			{
				"x": 1.7012334613,
				"y": 0.6049812874,
				"z": -0.1942553522,
				"element": "H" 
			},
			{
				"x": -1.9981043162,
				"y": -1.1086508344,
				"z": -2.5243953085,
				"element": "H" 
			},
			{
				"x": -1.1633266257,
				"y": -3.4301646755,
				"z": -3.4357603274,
				"element": "H" 
			}
		],
		 "valence_orbital": [ 
			{
				"type": "occ",
				"energy": -0.33671,
				"method": "rhf"
			},
			{
				"type": "occ",
				"energy": -0.32706,
				"method": "rhf"
			},
			{
				"type": "occ",
				"energy": -0.30921,
				"method": "rhf"
			},
			{
				"type": "occ",
				"energy": -0.28214,
				"method": "rhf"
			},
			{
				"type": "occ",
				"energy": -0.26405,
				"method": "rhf"
			},
			{
				"type": "unocc",
				"energy": -0.09073,
				"method": "rhf"
			},
			{
				"type": "unocc",
				"energy": -0.04487,
				"method": "rhf"
			},
			{
				"type": "unocc",
				"energy": -0.00079,
				"method": "rhf"
			},
			{
				"type": "unocc",
				"energy": 0.02597,
				"method": "rhf"
			},
			{
				"type": "unocc",
				"energy": 0.04083,
				"method": "rhf"
			}
		],
		"cosmo_sigma_profile": { 
			"-0.025": 0.0,
			"-0.024": 0.0,
			"-0.023": 0.0,
			"-0.022": 0.0,
			"-0.021": 0.0,
			"-0.02": 0.0,
			"-0.019": 0.0,
			"-0.018": 0.0,
			"-0.017": 0.0,
			"-0.016": 0.0,
			"-0.015": 0.0,
			"-0.014": 0.0,
			"-0.013": 0.0,
			"-0.012": 0.0,
			"-0.011": 0.0,
			"-0.01": 0.0902227766024,
			"-0.009": 1.34080775187,
			"-0.008": 2.34709981685,
			"-0.007": 3.58069748424,
			"-0.006": 4.54618100489,
			"-0.005": 7.49275248172,
			"-0.004": 20.2325784974,
			"-0.003": 27.8143784377,
			"-0.002": 23.4430306226,
			"-0.001": 26.8197502815,
			"0.0": 38.855934846,
			"0.001": 26.9853480857,
			"0.002": 15.7822295223,
			"0.003": 14.8690134967,
			"0.004": 12.4670913063,
			"0.005": 3.17602793781,
			"0.006": 3.04493035097,
			"0.007": 6.36228523869,
			"0.008": 10.4094489829,
			"0.009": 4.73691017806,
			"0.01": 0.00231579323846,
			"0.011": 0.0,
			"0.012": 0.0,
			"0.013": 0.0,
			"0.014": 0.0,
			"0.015": 0.0,
			"0.016": 0.0,
			"0.017": 0.0,
			"0.018": 0.0,
			"0.019": 0.0,
			"0.02": 0.0,
			"0.021": 0.0,
			"0.022": 0.0,
			"0.023": 0.0,
			"0.024": 0.0,
			"0.025": 0.0
		}
	}
}
