{
	 "smiles": "CC(C)NCC(O)COC1=CC=CC2=C1C=CC2", 
	 "Tm": 361.65, 
	 "num_atms": 39, 
	 "gaussian": { 
		 "optdone": 1, 
		 "sigma_profile": "yes", 
		 "theory": "DFT", 
		 "functional": "B3LYP", 
		 "basiset": "6-31G**", 
		 "properties": { 
			 "R2extent": 6242.18, 
			 "electric_dipole_moment_norm": 2.61860705147, 
			 "electric_quadrupole_moment_norm": 13.1826098778, 
			 "total_energy": -789.431907646, 
			 "HOMO_LUMO_gap": 0.18302, 
			 "cosmo_polarized_energy": -10.48, 
			 "cosmo_cavitation_energy": 40.52, 
			 "cosmo_dispersion_energy": -27.47, 
			 "cosmo_repulsion_energy": 2.17, 
			 "cosmo_total_nonelectrostatic_energy": 15.22, 
			 "SMD_solvation_energy": 6.11 
		},
		"coords": [
			{
				"x": -1.5096603503,
				"y": -3.5120675441,
				"z": 0.2249508311,
				"element": "C" 
			},
			{
				"x": -1.2578478746,
				"y": -2.3516768352,
				"z": 1.1922807547,
				"element": "C" 
			},
			{
				"x": -0.4107967379,
				"y": -2.8003242231,
				"z": 2.3947560583,
				"element": "C" 
			},
			{
				"x": -2.5532545068,
				"y": -1.7610787608,
				"z": 1.5829008259,
				"element": "N" 
			},
			{
				"x": -2.5149545771,
				"y": -0.4215834187,
				"z": 2.194052544,
				"element": "C" 
			},
			{
				"x": -3.0588960381,
				"y": 0.6208757663,
				"z": 1.1962441931,
				"element": "C" 
			},
			{
				"x": -4.2748242752,
				"y": 0.1555177879,
				"z": 0.6399744962,
				"element": "O" 
			},
			{
				"x": -2.0942520081,
				"y": 0.9377975102,
				"z": 0.0486746351,
				"element": "C" 
			},
			{
				"x": -0.8767458813,
				"y": 1.4325198406,
				"z": 0.6021005383,
				"element": "O" 
			},
			{
				"x": 0.1252965029,
				"y": 1.8158345926,
				"z": -0.2465464637,
				"element": "C" 
			},
			{
				"x": 0.0668031425,
				"y": 1.732717391,
				"z": -1.6436154701,
				"element": "C" 
			},
			{
				"x": 1.155876769,
				"y": 2.1490567144,
				"z": -2.4209687912,
				"element": "C" 
			},
			{
				"x": 2.3200459948,
				"y": 2.6537041776,
				"z": -1.8360261096,
				"element": "C" 
			},
			{
				"x": 2.3742567704,
				"y": 2.7361746614,
				"z": -0.4475356651,
				"element": "C" 
			},
			{
				"x": 1.2903169092,
				"y": 2.3237474422,
				"z": 0.3483126317,
				"element": "C" 
			},
			{
				"x": 1.6335047599,
				"y": 2.5297086413,
				"z": 1.7570279191,
				"element": "C" 
			},
			{
				"x": 2.8753721546,
				"y": 3.0462619886,
				"z": 1.8450127247,
				"element": "C" 
			},
			{
				"x": 3.4725637275,
				"y": 3.2311774312,
				"z": 0.4688101518,
				"element": "C" 
			},
			{
				"x": -0.5670923708,
				"y": -3.9494953421,
				"z": -0.119260462,
				"element": "H" 
			},
			{
				"x": -2.084674762,
				"y": -4.3078762825,
				"z": 0.714811897,
				"element": "H" 
			},
			{
				"x": -2.0781245261,
				"y": -3.1747896333,
				"z": -0.6462406618,
				"element": "H" 
			},
			{
				"x": -0.7068810294,
				"y": -1.5678842301,
				"z": 0.6589879388,
				"element": "H" 
			},
			{
				"x": 0.5641695604,
				"y": -3.1804605671,
				"z": 2.071479965,
				"element": "H" 
			},
			{
				"x": -0.2313665237,
				"y": -1.9756580609,
				"z": 3.0916696605,
				"element": "H" 
			},
			{
				"x": -0.9171480122,
				"y": -3.6043925538,
				"z": 2.9437950896,
				"element": "H" 
			},
			{
				"x": -3.034828072,
				"y": -2.4114084845,
				"z": 2.1970133547,
				"element": "H" 
			},
			{
				"x": -1.5092647656,
				"y": -0.1367345298,
				"z": 2.5253103712,
				"element": "H" 
			},
			{
				"x": -3.1681466532,
				"y": -0.4100212591,
				"z": 3.0728132356,
				"element": "H" 
			},
			{
				"x": -3.2697560657,
				"y": 1.5514523407,
				"z": 1.7367864657,
				"element": "H" 
			},
			{
				"x": -4.1062229448,
				"y": -0.7969572277,
				"z": 0.5084161059,
				"element": "H" 
			},
			{
				"x": -2.5552147242,
				"y": 1.6853241706,
				"z": -0.6089008755,
				"element": "H" 
			},
			{
				"x": -1.9105149961,
				"y": 0.0306534697,
				"z": -0.5441107269,
				"element": "H" 
			},
			{
				"x": -0.8186728313,
				"y": 1.3482886466,
				"z": -2.1358339327,
				"element": "H" 
			},
			{
				"x": 1.0840972458,
				"y": 2.0744868828,
				"z": -3.5024119485,
				"element": "H" 
			},
			{
				"x": 3.1550325469,
				"y": 2.972246081,
				"z": -2.4537139108,
				"element": "H" 
			},
			{
				"x": 0.9724329405,
				"y": 2.2980734407,
				"z": 2.5832848153,
				"element": "H" 
			},
			{
				"x": 3.3965622407,
				"y": 3.3048745387,
				"z": 2.7594698995,
				"element": "H" 
			},
			{
				"x": 4.403588529,
				"y": 2.6599615762,
				"z": 0.3436635293,
				"element": "H" 
			},
			{
				"x": 3.7320207321,
				"y": 4.2811538606,
				"z": 0.2715643857,
				"element": "H" 
			}
		],
		 "valence_orbital": [ 
			{
				"type": "occ",
				"energy": -0.28466,
				"method": "rhf"
			},
			{
				"type": "occ",
				"energy": -0.26274,
				"method": "rhf"
			},
			{
				"type": "occ",
				"energy": -0.2333,
				"method": "rhf"
			},
			{
				"type": "occ",
				"energy": -0.2257,
				"method": "rhf"
			},
			{
				"type": "occ",
				"energy": -0.19896,
				"method": "rhf"
			},
			{
				"type": "unocc",
				"energy": -0.01594,
				"method": "rhf"
			},
			{
				"type": "unocc",
				"energy": 0.01699,
				"method": "rhf"
			},
			{
				"type": "unocc",
				"energy": 0.05876,
				"method": "rhf"
			},
			{
				"type": "unocc",
				"energy": 0.06665,
				"method": "rhf"
			},
			{
				"type": "unocc",
				"energy": 0.09755,
				"method": "rhf"
			}
		],
		"cosmo_sigma_profile": { 
			"-0.025": 0.0,
			"-0.024": 0.0,
			"-0.023": 0.0,
			"-0.022": 0.0,
			"-0.021": 0.0,
			"-0.02": 0.0,
			"-0.019": 0.0,
			"-0.018": 0.0,
			"-0.017": 0.0,
			"-0.016": 0.0,
			"-0.015": 0.0,
			"-0.014": 0.0,
			"-0.013": 0.0,
			"-0.012": 0.0,
			"-0.011": 0.0350269377308,
			"-0.01": 0.925639909346,
			"-0.009": 1.54323499944,
			"-0.008": 1.88718081211,
			"-0.007": 1.9489056158,
			"-0.006": 5.76426880513,
			"-0.005": 19.2726984925,
			"-0.004": 24.7772182266,
			"-0.003": 37.4987904893,
			"-0.002": 39.221049827,
			"-0.001": 35.258770992,
			"0.0": 25.6986278213,
			"0.001": 27.4034657976,
			"0.002": 18.4286132488,
			"0.003": 13.4230646663,
			"0.004": 16.944976682,
			"0.005": 16.9478686968,
			"0.006": 13.3108664474,
			"0.007": 5.13612914495,
			"0.008": 1.94555554384,
			"0.009": 0.958914005839,
			"0.01": 1.00978733376,
			"0.011": 1.07931488971,
			"0.012": 1.51796257955,
			"0.013": 1.57160708047,
			"0.014": 1.93600772711,
			"0.015": 1.71342415545,
			"0.016": 0.0,
			"0.017": 0.0,
			"0.018": 0.0,
			"0.019": 0.0,
			"0.02": 0.0,
			"0.021": 0.0,
			"0.022": 0.0,
			"0.023": 0.0,
			"0.024": 0.0,
			"0.025": 0.0
		}
	}
}
