{
	 "smiles": "CS(=O)(=O)NC1=C(F)C=CC=C1", 
	 "Tm": 349.15, 
	 "num_atms": 20, 
	 "gaussian": { 
		 "optdone": 1, 
		 "sigma_profile": "yes", 
		 "theory": "DFT", 
		 "functional": "B3LYP", 
		 "basiset": "6-31G**", 
		 "properties": { 
			 "R2extent": 2536.7429, 
			 "electric_dipole_moment_norm": 3.44636423786, 
			 "electric_quadrupole_moment_norm": 13.7116497421, 
			 "total_energy": -974.719788296, 
			 "HOMO_LUMO_gap": 0.2172, 
			 "cosmo_polarized_energy": -14.47, 
			 "cosmo_cavitation_energy": 25.48, 
			 "cosmo_dispersion_energy": -19.16, 
			 "cosmo_repulsion_energy": 1.45, 
			 "cosmo_total_nonelectrostatic_energy": 7.77, 
			 "SMD_solvation_energy": 4.4 
		},
		"coords": [
			{
				"x": 1.7639609268,
				"y": -0.5771791605,
				"z": -2.6141477229,
				"element": "C" 
			},
			{
				"x": 1.0897923046,
				"y": 0.6782348114,
				"z": -1.5198653517,
				"element": "S" 
			},
			{
				"x": -0.1063776817,
				"y": 1.2434923918,
				"z": -2.1409051753,
				"element": "O" 
			},
			{
				"x": 2.1957544724,
				"y": 1.5224415772,
				"z": -1.0570391566,
				"element": "O" 
			},
			{
				"x": 0.6429299016,
				"y": -0.2430461235,
				"z": -0.1314915009,
				"element": "N" 
			},
			{
				"x": -0.7220088801,
				"y": -0.4519704714,
				"z": 0.1962338799,
				"element": "C" 
			},
			{
				"x": -1.5460182039,
				"y": -1.2287325811,
				"z": -0.6253177806,
				"element": "C" 
			},
			{
				"x": -1.0332317299,
				"y": -1.7366268902,
				"z": -1.7702678024,
				"element": "F" 
			},
			{
				"x": -2.8679184458,
				"y": -1.4976555027,
				"z": -0.3072475247,
				"element": "C" 
			},
			{
				"x": -3.395384097,
				"y": -1.0011287521,
				"z": 0.8861935377,
				"element": "C" 
			},
			{
				"x": -2.593234144,
				"y": -0.2359266566,
				"z": 1.7336067639,
				"element": "C" 
			},
			{
				"x": -1.2729572548,
				"y": 0.0458502529,
				"z": 1.3834381411,
				"element": "C" 
			},
			{
				"x": 2.6163393233,
				"y": -1.0439122424,
				"z": -2.1206526363,
				"element": "H" 
			},
			{
				"x": 2.0789486559,
				"y": -0.0611961124,
				"z": -3.5229035926,
				"element": "H" 
			},
			{
				"x": 0.9813981298,
				"y": -1.3024483604,
				"z": -2.8272509951,
				"element": "H" 
			},
			{
				"x": 1.1842593397,
				"y": 0.1355111896,
				"z": 0.640965513,
				"element": "H" 
			},
			{
				"x": -3.457684192,
				"y": -2.0993193286,
				"z": -0.9901805939,
				"element": "H" 
			},
			{
				"x": -4.4273619971,
				"y": -1.2119189777,
				"z": 1.1473430378,
				"element": "H" 
			},
			{
				"x": -2.9956786235,
				"y": 0.1556518349,
				"z": 2.6623098957,
				"element": "H" 
			},
			{
				"x": -0.6531278042,
				"y": 0.6579791016,
				"z": 2.0331790639,
				"element": "H" 
			}
		],
		 "valence_orbital": [ 
			{
				"type": "occ",
				"energy": -0.31856,
				"method": "rhf"
			},
			{
				"type": "occ",
				"energy": -0.31043,
				"method": "rhf"
			},
			{
				"type": "occ",
				"energy": -0.30365,
				"method": "rhf"
			},
			{
				"type": "occ",
				"energy": -0.26083,
				"method": "rhf"
			},
			{
				"type": "occ",
				"energy": -0.23874,
				"method": "rhf"
			},
			{
				"type": "unocc",
				"energy": -0.02154,
				"method": "rhf"
			},
			{
				"type": "unocc",
				"energy": -0.0097,
				"method": "rhf"
			},
			{
				"type": "unocc",
				"energy": 0.05755,
				"method": "rhf"
			},
			{
				"type": "unocc",
				"energy": 0.06852,
				"method": "rhf"
			},
			{
				"type": "unocc",
				"energy": 0.07298,
				"method": "rhf"
			}
		],
		"cosmo_sigma_profile": { 
			"-0.025": 0.0,
			"-0.024": 0.0,
			"-0.023": 0.0,
			"-0.022": 0.0,
			"-0.021": 0.0,
			"-0.02": 0.0,
			"-0.019": 0.0,
			"-0.018": 0.0,
			"-0.017": 0.0,
			"-0.016": 0.0532492614826,
			"-0.015": 0.719368822446,
			"-0.014": 1.00974032112,
			"-0.013": 1.44963232177,
			"-0.012": 1.38462380193,
			"-0.011": 0.832454288032,
			"-0.01": 1.11466719508,
			"-0.009": 4.60763767564,
			"-0.008": 5.73832976339,
			"-0.007": 9.41991612564,
			"-0.006": 14.161819222,
			"-0.005": 15.1928344317,
			"-0.004": 15.1273803374,
			"-0.003": 10.1470801751,
			"-0.002": 7.52330687431,
			"-0.001": 8.02601132715,
			"0.0": 10.332224675,
			"0.001": 11.6883967235,
			"0.002": 12.6108349846,
			"0.003": 16.3015882853,
			"0.004": 15.473451074,
			"0.005": 5.14221522769,
			"0.006": 3.47812614313,
			"0.007": 4.02127206345,
			"0.008": 3.63585684314,
			"0.009": 3.79174935871,
			"0.01": 9.28515335529,
			"0.011": 9.72897596443,
			"0.012": 1.80435538158,
			"0.013": 0.0,
			"0.014": 0.0,
			"0.015": 0.0,
			"0.016": 0.0,
			"0.017": 0.0,
			"0.018": 0.0,
			"0.019": 0.0,
			"0.02": 0.0,
			"0.021": 0.0,
			"0.022": 0.0,
			"0.023": 0.0,
			"0.024": 0.0,
			"0.025": 0.0
		}
	}
}
