{
	 "smiles": "NC1=C(CO)C=C(Cl)C=C1", 
	 "Tm": 381.15, 
	 "num_atms": 18, 
	 "gaussian": { 
		 "optdone": 1, 
		 "sigma_profile": "yes", 
		 "theory": "DFT", 
		 "functional": "B3LYP", 
		 "basiset": "6-31G**", 
		 "properties": { 
			 "R2extent": 2638.7254, 
			 "electric_dipole_moment_norm": 2.45795966403, 
			 "electric_quadrupole_moment_norm": 11.0501050081, 
			 "total_energy": -861.733053799, 
			 "HOMO_LUMO_gap": 0.18958, 
			 "cosmo_polarized_energy": -10.27, 
			 "cosmo_cavitation_energy": 23.16, 
			 "cosmo_dispersion_energy": -17.51, 
			 "cosmo_repulsion_energy": 1.43, 
			 "cosmo_total_nonelectrostatic_energy": 7.08, 
			 "SMD_solvation_energy": 3.61 
		},
		"coords": [
			{
				"x": 0.9681863587,
				"y": -1.6151275369,
				"z": -0.1617499357,
				"element": "N" 
			},
			{
				"x": 1.0834579864,
				"y": -0.2528339066,
				"z": -0.4080495578,
				"element": "C" 
			},
			{
				"x": 0.5997758094,
				"y": 0.6781108561,
				"z": 0.5458145202,
				"element": "C" 
			},
			{
				"x": -0.0399671479,
				"y": 0.1820864531,
				"z": 1.8200405427,
				"element": "C" 
			},
			{
				"x": -1.1361591753,
				"y": -0.7191325305,
				"z": 1.5931823316,
				"element": "O" 
			},
			{
				"x": 0.7487314213,
				"y": 2.0461894934,
				"z": 0.3113491073,
				"element": "C" 
			},
			{
				"x": 1.3840969509,
				"y": 2.5045444719,
				"z": -0.8409509113,
				"element": "C" 
			},
			{
				"x": 1.561043778,
				"y": 4.2367825417,
				"z": -1.1116349626,
				"element": "Cl" 
			},
			{
				"x": 1.8760471038,
				"y": 1.600172709,
				"z": -1.7795051183,
				"element": "C" 
			},
			{
				"x": 1.7207340292,
				"y": 0.2336527569,
				"z": -1.5619502065,
				"element": "C" 
			},
			{
				"x": 0.1565694799,
				"y": -1.8695385568,
				"z": 0.3901011281,
				"element": "H" 
			},
			{
				"x": 1.1239995613,
				"y": -2.2163688159,
				"z": -0.9581799353,
				"element": "H" 
			},
			{
				"x": -0.3568158661,
				"y": 1.0320924135,
				"z": 2.4396022894,
				"element": "H" 
			},
			{
				"x": 0.678246867,
				"y": -0.4048165572,
				"z": 2.4039085215,
				"element": "H" 
			},
			{
				"x": -1.775582724,
				"y": -0.2562865883,
				"z": 1.0343692129,
				"element": "H" 
			},
			{
				"x": 0.3731220479,
				"y": 2.7593700035,
				"z": 1.0390702429,
				"element": "H" 
			},
			{
				"x": 2.3685313786,
				"y": 1.9594392164,
				"z": -2.676601731,
				"element": "H" 
			},
			{
				"x": 2.1004821408,
				"y": -0.4709364232,
				"z": -2.2977155384,
				"element": "H" 
			}
		],
		 "valence_orbital": [ 
			{
				"type": "occ",
				"energy": -0.30515,
				"method": "rhf"
			},
			{
				"type": "occ",
				"energy": -0.2913,
				"method": "rhf"
			},
			{
				"type": "occ",
				"energy": -0.28813,
				"method": "rhf"
			},
			{
				"type": "occ",
				"energy": -0.2563,
				"method": "rhf"
			},
			{
				"type": "occ",
				"energy": -0.20319,
				"method": "rhf"
			},
			{
				"type": "unocc",
				"energy": -0.01361,
				"method": "rhf"
			},
			{
				"type": "unocc",
				"energy": 0.0051,
				"method": "rhf"
			},
			{
				"type": "unocc",
				"energy": 0.03651,
				"method": "rhf"
			},
			{
				"type": "unocc",
				"energy": 0.07312,
				"method": "rhf"
			},
			{
				"type": "unocc",
				"energy": 0.09754,
				"method": "rhf"
			}
		],
		"cosmo_sigma_profile": { 
			"-0.025": 0.0,
			"-0.024": 0.0,
			"-0.023": 0.0,
			"-0.022": 0.0,
			"-0.021": 0.0,
			"-0.02": 0.0,
			"-0.019": 0.0,
			"-0.018": 0.0,
			"-0.017": 0.0,
			"-0.016": 0.469564522998,
			"-0.015": 0.801494776031,
			"-0.014": 1.13583238781,
			"-0.013": 0.939848172775,
			"-0.012": 2.72616270991,
			"-0.011": 1.61176525647,
			"-0.01": 2.09605843491,
			"-0.009": 2.53709434588,
			"-0.008": 3.66782881774,
			"-0.007": 5.00720383043,
			"-0.006": 9.78324921956,
			"-0.005": 10.3513986896,
			"-0.004": 11.3048321021,
			"-0.003": 9.23349105418,
			"-0.002": 11.560656391,
			"-0.001": 9.91736143133,
			"0.0": 9.20525899223,
			"0.001": 10.6563690011,
			"0.002": 10.403935377,
			"0.003": 14.8291670125,
			"0.004": 17.2576427996,
			"0.005": 20.6903774,
			"0.006": 7.37662672007,
			"0.007": 1.46548816651,
			"0.008": 1.63820963552,
			"0.009": 1.50621660481,
			"0.01": 1.44182036185,
			"0.011": 1.88873089289,
			"0.012": 1.46266497863,
			"0.013": 1.90727609615,
			"0.014": 0.812355161262,
			"0.015": 0.00832339220514,
			"0.016": 0.0,
			"0.017": 0.0,
			"0.018": 0.0,
			"0.019": 0.0,
			"0.02": 0.0,
			"0.021": 0.0,
			"0.022": 0.0,
			"0.023": 0.0,
			"0.024": 0.0,
			"0.025": 0.0
		}
	}
}
