{
	 "smiles": "CN(C)C1=C(C=C(C=C1[N+]([O-])=O)C(O)=O)[N+]([O-])=O", 
	 "Tm": 522.15, 
	 "num_atms": 27, 
	 "gaussian": { 
		 "optdone": 1, 
		 "sigma_profile": "yes", 
		 "theory": "DFT", 
		 "functional": "B3LYP", 
		 "basiset": "6-31G**", 
		 "properties": { 
			 "R2extent": 4557.3481, 
			 "electric_dipole_moment_norm": 1.59497882745, 
			 "electric_quadrupole_moment_norm": 24.9225159011, 
			 "total_energy": -963.766160301, 
			 "HOMO_LUMO_gap": 0.13925, 
			 "cosmo_polarized_energy": -16.78, 
			 "cosmo_cavitation_energy": 32.56, 
			 "cosmo_dispersion_energy": -22.8, 
			 "cosmo_repulsion_energy": 1.73, 
			 "cosmo_total_nonelectrostatic_energy": 11.49, 
			 "SMD_solvation_energy": 11.9 
		},
		"coords": [
			{
				"x": 0.1853083551,
				"y": 3.6160351484,
				"z": 0.2073720867,
				"element": "C" 
			},
			{
				"x": -0.7634481435,
				"y": 2.5266915271,
				"z": 0.0101855764,
				"element": "N" 
			},
			{
				"x": -2.1371544584,
				"y": 2.9587158116,
				"z": -0.2195590477,
				"element": "C" 
			},
			{
				"x": -0.3962366676,
				"y": 1.211609716,
				"z": 0.0374145931,
				"element": "C" 
			},
			{
				"x": -0.9694452344,
				"y": 0.2240037079,
				"z": -0.8205845985,
				"element": "C" 
			},
			{
				"x": -0.6295430529,
				"y": -1.1190927423,
				"z": -0.767555616,
				"element": "C" 
			},
			{
				"x": 0.3811618373,
				"y": -1.5625835458,
				"z": 0.0885961286,
				"element": "C" 
			},
			{
				"x": 1.0070424547,
				"y": -0.6319728183,
				"z": 0.9199448255,
				"element": "C" 
			},
			{
				"x": 0.5966353155,
				"y": 0.6953541818,
				"z": 0.9237347173,
				"element": "C" 
			},
			{
				"x": 1.139960424,
				"y": 1.4986177662,
				"z": 2.0324377833,
				"element": "N" 
			},
			{
				"x": 0.3663665981,
				"y": 2.2444272747,
				"z": 2.6326411807,
				"element": "O" 
			},
			{
				"x": 2.321015365,
				"y": 1.3238029225,
				"z": 2.3300497915,
				"element": "O" 
			},
			{
				"x": 0.7426147871,
				"y": -3.0010351384,
				"z": 0.0717493023,
				"element": "C" 
			},
			{
				"x": 1.7418211778,
				"y": -3.2983953188,
				"z": 0.9361722341,
				"element": "O" 
			},
			{
				"x": 0.211854925,
				"y": -3.8347640611,
				"z": -0.6336891255,
				"element": "O" 
			},
			{
				"x": -1.8443168752,
				"y": 0.5915137554,
				"z": -1.9480522428,
				"element": "N" 
			},
			{
				"x": -1.550471364,
				"y": 1.5970460332,
				"z": -2.5941550651,
				"element": "O" 
			},
			{
				"x": -2.7764815508,
				"y": -0.1667403509,
				"z": -2.2090527419,
				"element": "O" 
			},
			{
				"x": 1.2102492258,
				"y": 3.2502238476,
				"z": 0.1298024547,
				"element": "H" 
			},
			{
				"x": 0.0559406784,
				"y": 4.1048399277,
				"z": 1.1785749784,
				"element": "H" 
			},
			{
				"x": 0.032669565,
				"y": 4.3507413209,
				"z": -0.5914832348,
				"element": "H" 
			},
			{
				"x": -2.8252507255,
				"y": 2.1179341162,
				"z": -0.1203814632,
				"element": "H" 
			},
			{
				"x": -2.26727331,
				"y": 3.408745798,
				"z": -1.2092279482,
				"element": "H" 
			},
			{
				"x": -2.3974194478,
				"y": 3.6942797833,
				"z": 0.5501454212,
				"element": "H" 
			},
			{
				"x": -1.1121974637,
				"y": -1.8205732098,
				"z": -1.437792671,
				"element": "H" 
			},
			{
				"x": 1.7792544791,
				"y": -0.9390774292,
				"z": 1.6137517383,
				"element": "H" 
			},
			{
				"x": 1.900243106,
				"y": -4.2527480237,
				"z": 0.8492609425,
				"element": "H" 
			}
		],
		 "valence_orbital": [ 
			{
				"type": "occ",
				"energy": -0.31126,
				"method": "rhf"
			},
			{
				"type": "occ",
				"energy": -0.30115,
				"method": "rhf"
			},
			{
				"type": "occ",
				"energy": -0.29436,
				"method": "rhf"
			},
			{
				"type": "occ",
				"energy": -0.28979,
				"method": "rhf"
			},
			{
				"type": "occ",
				"energy": -0.24017,
				"method": "rhf"
			},
			{
				"type": "unocc",
				"energy": -0.10092,
				"method": "rhf"
			},
			{
				"type": "unocc",
				"energy": -0.09398,
				"method": "rhf"
			},
			{
				"type": "unocc",
				"energy": -0.06416,
				"method": "rhf"
			},
			{
				"type": "unocc",
				"energy": -0.03018,
				"method": "rhf"
			},
			{
				"type": "unocc",
				"energy": 0.03328,
				"method": "rhf"
			}
		],
		"cosmo_sigma_profile": { 
			"-0.025": 0.0,
			"-0.024": 0.0,
			"-0.023": 0.0,
			"-0.022": 0.0,
			"-0.021": 0.0,
			"-0.02": 0.0,
			"-0.019": 0.421096767363,
			"-0.018": 1.02712793463,
			"-0.017": 0.608431000163,
			"-0.016": 1.07618511901,
			"-0.015": 0.896755188617,
			"-0.014": 0.234449993071,
			"-0.013": 0.972242378001,
			"-0.012": 0.822849195928,
			"-0.011": 0.604648666551,
			"-0.01": 0.451867591038,
			"-0.009": 1.27916018096,
			"-0.008": 6.49021198634,
			"-0.007": 9.58531507205,
			"-0.006": 13.6874955753,
			"-0.005": 17.0743787122,
			"-0.004": 21.9699715047,
			"-0.003": 29.7204692485,
			"-0.002": 20.7999121626,
			"-0.001": 16.2578213916,
			"0.0": 9.86848301153,
			"0.001": 8.03014393378,
			"0.002": 8.50235940299,
			"0.003": 8.21792921801,
			"0.004": 7.45347041547,
			"0.005": 9.87837475423,
			"0.006": 11.3401019998,
			"0.007": 19.9827928301,
			"0.008": 14.2036119493,
			"0.009": 7.38404778983,
			"0.01": 4.50033804289,
			"0.011": 4.61844985365,
			"0.012": 1.6086769877,
			"0.013": 0.0,
			"0.014": 0.0,
			"0.015": 0.0,
			"0.016": 0.0,
			"0.017": 0.0,
			"0.018": 0.0,
			"0.019": 0.0,
			"0.02": 0.0,
			"0.021": 0.0,
			"0.022": 0.0,
			"0.023": 0.0,
			"0.024": 0.0,
			"0.025": 0.0
		}
	}
}
