{
	 "smiles": "COC1=CC(C2=NN=NN2)=C(Br)C=C1", 
	 "Tm": 483.15, 
	 "num_atms": 21, 
	 "gaussian": { 
		 "optdone": 1, 
		 "sigma_profile": "yes", 
		 "theory": "DFT", 
		 "functional": "B3LYP", 
		 "basiset": "6-31G**", 
		 "properties": { 
			 "R2extent": 5358.4509, 
			 "electric_dipole_moment_norm": 4.68656255586, 
			 "electric_quadrupole_moment_norm": 21.5532085321, 
			 "total_energy": -3174.6392889, 
			 "HOMO_LUMO_gap": 0.1771, 
			 "cosmo_polarized_energy": -13.83, 
			 "cosmo_cavitation_energy": 27.89, 
			 "cosmo_dispersion_energy": -21.23, 
			 "cosmo_repulsion_energy": 1.64, 
			 "cosmo_total_nonelectrostatic_energy": 8.3, 
			 "SMD_solvation_energy": 2.76 
		},
		"coords": [
			{
				"x": 0.29407681,
				"y": -2.1018787277,
				"z": -2.1252843894,
				"element": "C" 
			},
			{
				"x": 1.1055726642,
				"y": -1.7250239619,
				"z": -1.017310323,
				"element": "O" 
			},
			{
				"x": 0.8668953835,
				"y": -0.5298942895,
				"z": -0.4203569538,
				"element": "C" 
			},
			{
				"x": -0.1236866445,
				"y": 0.3666035465,
				"z": -0.814277977,
				"element": "C" 
			},
			{
				"x": -0.3131509935,
				"y": 1.5935441195,
				"z": -0.1436977712,
				"element": "C" 
			},
			{
				"x": -1.3961712652,
				"y": 2.4339029977,
				"z": -0.6729426172,
				"element": "C" 
			},
			{
				"x": -2.1603994379,
				"y": 2.0928251813,
				"z": -1.7071988252,
				"element": "N" 
			},
			{
				"x": -3.0344525949,
				"y": 3.1055386515,
				"z": -1.8975729269,
				"element": "N" 
			},
			{
				"x": -2.8475922838,
				"y": 4.0526965823,
				"z": -1.0334853124,
				"element": "N" 
			},
			{
				"x": -1.8223712689,
				"y": 3.6474085288,
				"z": -0.2565992365,
				"element": "N" 
			},
			{
				"x": 0.5290059848,
				"y": 1.8890605724,
				"z": 0.9386262588,
				"element": "C" 
			},
			{
				"x": 0.4146194626,
				"y": 3.5103425736,
				"z": 1.9654593834,
				"element": "Br" 
			},
			{
				"x": 1.5238495411,
				"y": 0.9903690146,
				"z": 1.3354955175,
				"element": "C" 
			},
			{
				"x": 1.6969313042,
				"y": -0.2101644871,
				"z": 0.6666228333,
				"element": "C" 
			},
			{
				"x": 0.3937119629,
				"y": -1.3921371431,
				"z": -2.9552168319,
				"element": "H" 
			},
			{
				"x": 0.6571458044,
				"y": -3.0806392577,
				"z": -2.4402706305,
				"element": "H" 
			},
			{
				"x": -0.7621105416,
				"y": -2.1795098182,
				"z": -1.8408650253,
				"element": "H" 
			},
			{
				"x": -0.7830542762,
				"y": 0.1574245617,
				"z": -1.6459822964,
				"element": "H" 
			},
			{
				"x": -1.4799640826,
				"y": 4.2189425634,
				"z": 0.5036031289,
				"element": "H" 
			},
			{
				"x": 2.1621770153,
				"y": 1.2408682284,
				"z": 2.1746930716,
				"element": "H" 
			},
			{
				"x": 2.4660674562,
				"y": -0.9129794364,
				"z": 0.9678609234,
				"element": "H" 
			}
		],
		 "valence_orbital": [ 
			{
				"type": "occ",
				"energy": -0.30706,
				"method": "rhf"
			},
			{
				"type": "occ",
				"energy": -0.29788,
				"method": "rhf"
			},
			{
				"type": "occ",
				"energy": -0.28441,
				"method": "rhf"
			},
			{
				"type": "occ",
				"energy": -0.264,
				"method": "rhf"
			},
			{
				"type": "occ",
				"energy": -0.23972,
				"method": "rhf"
			},
			{
				"type": "unocc",
				"energy": -0.06262,
				"method": "rhf"
			},
			{
				"type": "unocc",
				"energy": -0.02232,
				"method": "rhf"
			},
			{
				"type": "unocc",
				"energy": -0.01947,
				"method": "rhf"
			},
			{
				"type": "unocc",
				"energy": 0.00096,
				"method": "rhf"
			},
			{
				"type": "unocc",
				"energy": 0.05009,
				"method": "rhf"
			}
		],
		"cosmo_sigma_profile": { 
			"-0.025": 0.0,
			"-0.024": 0.0,
			"-0.023": 0.0,
			"-0.022": 0.0,
			"-0.021": 0.0,
			"-0.02": 0.0,
			"-0.019": 0.0,
			"-0.018": 0.0,
			"-0.017": 0.108249661728,
			"-0.016": 0.656063434636,
			"-0.015": 0.461660331157,
			"-0.014": 1.1646602113,
			"-0.013": 0.771103301436,
			"-0.012": 0.43608162863,
			"-0.011": 1.12219505958,
			"-0.01": 0.989792930959,
			"-0.009": 1.11909694333,
			"-0.008": 2.75780611604,
			"-0.007": 6.52190412947,
			"-0.006": 16.7463752658,
			"-0.005": 16.0282260811,
			"-0.004": 19.2982183326,
			"-0.003": 16.1159043407,
			"-0.002": 12.2789307808,
			"-0.001": 11.6792972019,
			"0.0": 15.2889341942,
			"0.001": 24.6588528712,
			"0.002": 19.4031650032,
			"0.003": 12.1587105587,
			"0.004": 6.29007791964,
			"0.005": 4.16630744597,
			"0.006": 4.49222249793,
			"0.007": 4.84121088616,
			"0.008": 6.76102791338,
			"0.009": 5.88264176606,
			"0.01": 5.64046960308,
			"0.011": 4.55445697314,
			"0.012": 2.78897202581,
			"0.013": 2.17059928621,
			"0.014": 0.444070445178,
			"0.015": 0.0,
			"0.016": 0.0,
			"0.017": 0.0,
			"0.018": 0.0,
			"0.019": 0.0,
			"0.02": 0.0,
			"0.021": 0.0,
			"0.022": 0.0,
			"0.023": 0.0,
			"0.024": 0.0,
			"0.025": 0.0
		}
	}
}
