{
	 "smiles": "CC(=O)NC1=CC=CC(=C1)[N+]([O-])=O", 
	 "Tm": 427.15, 
	 "num_atms": 21, 
	 "gaussian": { 
		 "optdone": 1, 
		 "sigma_profile": "yes", 
		 "theory": "DFT", 
		 "functional": "B3LYP", 
		 "basiset": "6-31G**", 
		 "properties": { 
			 "R2extent": 3459.5402, 
			 "electric_dipole_moment_norm": 4.52726075679, 
			 "electric_quadrupole_moment_norm": 15.0950124631, 
			 "total_energy": -644.76049222, 
			 "HOMO_LUMO_gap": 0.14902, 
			 "cosmo_polarized_energy": -15.4, 
			 "cosmo_cavitation_energy": 26.2, 
			 "cosmo_dispersion_energy": -19.24, 
			 "cosmo_repulsion_energy": 1.51, 
			 "cosmo_total_nonelectrostatic_energy": 8.48, 
			 "SMD_solvation_energy": 7.68 
		},
		"coords": [
			{
				"x": 2.5511454076,
				"y": -1.3508904553,
				"z": 1.1103734223,
				"element": "C" 
			},
			{
				"x": 2.6349833118,
				"y": 0.1592219363,
				"z": 1.0645588623,
				"element": "C" 
			},
			{
				"x": 3.577468554,
				"y": 0.7668759373,
				"z": 1.5472528155,
				"element": "O" 
			},
			{
				"x": 1.6213732568,
				"y": 0.9006347465,
				"z": 0.4604930664,
				"element": "N" 
			},
			{
				"x": 0.4116735241,
				"y": 0.6176412131,
				"z": -0.1895536895,
				"element": "C" 
			},
			{
				"x": -0.1233301348,
				"y": -0.6656570507,
				"z": -0.4072233854,
				"element": "C" 
			},
			{
				"x": -1.3419372498,
				"y": -0.8229364562,
				"z": -1.0699698917,
				"element": "C" 
			},
			{
				"x": -2.065659182,
				"y": 0.270748053,
				"z": -1.5352050005,
				"element": "C" 
			},
			{
				"x": -1.5225441484,
				"y": 1.5332677441,
				"z": -1.3116984625,
				"element": "C" 
			},
			{
				"x": -0.3147044931,
				"y": 1.7270388539,
				"z": -0.6570843378,
				"element": "C" 
			},
			{
				"x": -2.256221004,
				"y": 2.7216430187,
				"z": -1.7879607797,
				"element": "N" 
			},
			{
				"x": -1.755273181,
				"y": 3.8255746305,
				"z": -1.5782752134,
				"element": "O" 
			},
			{
				"x": -3.3246544059,
				"y": 2.5340772816,
				"z": -2.3665568147,
				"element": "O" 
			},
			{
				"x": 2.5210458708,
				"y": -1.7819173512,
				"z": 0.1047983668,
				"element": "H" 
			},
			{
				"x": 3.443454495,
				"y": -1.7066163243,
				"z": 1.6243958167,
				"element": "H" 
			},
			{
				"x": 1.6646006946,
				"y": -1.6872239131,
				"z": 1.6569863082,
				"element": "H" 
			},
			{
				"x": 1.8466994106,
				"y": 1.8867646353,
				"z": 0.5247643384,
				"element": "H" 
			},
			{
				"x": 0.3949128255,
				"y": -1.5495721362,
				"z": -0.0679862643,
				"element": "H" 
			},
			{
				"x": -1.7286531518,
				"y": -1.8255830881,
				"z": -1.222807666,
				"element": "H" 
			},
			{
				"x": -3.0112059303,
				"y": 0.1692144176,
				"z": -2.0506823216,
				"element": "H" 
			},
			{
				"x": 0.0482255303,
				"y": 2.7386943073,
				"z": -0.5178191695,
				"element": "H" 
			}
		],
		 "valence_orbital": [ 
			{
				"type": "occ",
				"energy": -0.31345,
				"method": "rhf"
			},
			{
				"type": "occ",
				"energy": -0.29717,
				"method": "rhf"
			},
			{
				"type": "occ",
				"energy": -0.29059,
				"method": "rhf"
			},
			{
				"type": "occ",
				"energy": -0.27264,
				"method": "rhf"
			},
			{
				"type": "occ",
				"energy": -0.24436,
				"method": "rhf"
			},
			{
				"type": "unocc",
				"energy": -0.09534,
				"method": "rhf"
			},
			{
				"type": "unocc",
				"energy": -0.03796,
				"method": "rhf"
			},
			{
				"type": "unocc",
				"energy": -0.01213,
				"method": "rhf"
			},
			{
				"type": "unocc",
				"energy": 0.02387,
				"method": "rhf"
			},
			{
				"type": "unocc",
				"energy": 0.06334,
				"method": "rhf"
			}
		],
		"cosmo_sigma_profile": { 
			"-0.025": 0.0,
			"-0.024": 0.0,
			"-0.023": 0.0,
			"-0.022": 0.0,
			"-0.021": 0.0,
			"-0.02": 0.0,
			"-0.019": 0.0,
			"-0.018": 0.0,
			"-0.017": 0.0,
			"-0.016": 0.0469153814814,
			"-0.015": 1.0036537242,
			"-0.014": 1.3553999588,
			"-0.013": 0.832066003567,
			"-0.012": 1.43876268318,
			"-0.011": 1.01715684154,
			"-0.01": 0.807594337496,
			"-0.009": 0.883259310401,
			"-0.008": 4.72872965799,
			"-0.007": 13.5730089616,
			"-0.006": 13.3431220168,
			"-0.005": 12.5825335814,
			"-0.004": 12.0612677878,
			"-0.003": 13.4459986878,
			"-0.002": 14.0028979937,
			"-0.001": 14.6585680061,
			"0.0": 16.8614870378,
			"0.001": 16.794584252,
			"0.002": 12.0562212192,
			"0.003": 5.74361228376,
			"0.004": 4.06910351261,
			"0.005": 3.66205334323,
			"0.006": 5.9114377708,
			"0.007": 9.4529616584,
			"0.008": 8.25827800714,
			"0.009": 5.28398074261,
			"0.01": 3.87499089903,
			"0.011": 2.11370920165,
			"0.012": 3.9678168053,
			"0.013": 4.77373808938,
			"0.014": 1.07766915027,
			"0.015": 0.00872748987881,
			"0.016": 0.0,
			"0.017": 0.0,
			"0.018": 0.0,
			"0.019": 0.0,
			"0.02": 0.0,
			"0.021": 0.0,
			"0.022": 0.0,
			"0.023": 0.0,
			"0.024": 0.0,
			"0.025": 0.0
		}
	}
}
