{
	 "smiles": "COC1=CC=C(C=CC=O)C=C1", 
	 "Tm": 330.65, 
	 "num_atms": 22, 
	 "gaussian": { 
		 "optdone": 1, 
		 "sigma_profile": "yes", 
		 "theory": "DFT", 
		 "functional": "B3LYP", 
		 "basiset": "6-31G**", 
		 "properties": { 
			 "R2extent": 2991.9767, 
			 "electric_dipole_moment_norm": 4.57950990937, 
			 "electric_quadrupole_moment_norm": 15.8560256307, 
			 "total_energy": -537.496816608, 
			 "HOMO_LUMO_gap": 0.15449, 
			 "cosmo_polarized_energy": -10.95, 
			 "cosmo_cavitation_energy": 26.53, 
			 "cosmo_dispersion_energy": -19.24, 
			 "cosmo_repulsion_energy": 1.54, 
			 "cosmo_total_nonelectrostatic_energy": 8.83, 
			 "SMD_solvation_energy": 6.47 
		},
		"coords": [
			{
				"x": -4.5576682066,
				"y": 0.2508640976,
				"z": 0.4445236948,
				"element": "C" 
			},
			{
				"x": -3.7551968837,
				"y": -0.9218049936,
				"z": 0.4180599088,
				"element": "O" 
			},
			{
				"x": -2.4678136627,
				"y": -0.8171796874,
				"z": -0.0052028778,
				"element": "C" 
			},
			{
				"x": -1.8645245035,
				"y": 0.3697110877,
				"z": -0.4423935518,
				"element": "C" 
			},
			{
				"x": -0.5323638466,
				"y": 0.3582982524,
				"z": -0.8532474809,
				"element": "C" 
			},
			{
				"x": 0.2351570963,
				"y": -0.8189725777,
				"z": -0.8353854619,
				"element": "C" 
			},
			{
				"x": 1.6371189477,
				"y": -0.8804925008,
				"z": -1.2560555711,
				"element": "C" 
			},
			{
				"x": 2.6068359111,
				"y": 0.0609064245,
				"z": -1.1679819491,
				"element": "C" 
			},
			{
				"x": 2.5280827608,
				"y": 1.3364197235,
				"z": -0.4459539703,
				"element": "C" 
			},
			{
				"x": 3.4109965614,
				"y": 2.1794275748,
				"z": -0.4805617983,
				"element": "O" 
			},
			{
				"x": -0.4090029098,
				"y": -2.0088908498,
				"z": -0.4307856172,
				"element": "C" 
			},
			{
				"x": -1.7280160136,
				"y": -2.0119537463,
				"z": -0.0103559271,
				"element": "C" 
			},
			{
				"x": -5.5314479456,
				"y": -0.0609113822,
				"z": 0.8242084299,
				"element": "H" 
			},
			{
				"x": -4.6808949749,
				"y": 0.6778986188,
				"z": -0.5586061202,
				"element": "H" 
			},
			{
				"x": -4.1358470133,
				"y": 1.012754455,
				"z": 1.1117249823,
				"element": "H" 
			},
			{
				"x": -2.4229638239,
				"y": 1.297089045,
				"z": -0.483889325,
				"element": "H" 
			},
			{
				"x": -0.0981214225,
				"y": 1.2759211763,
				"z": -1.2350884048,
				"element": "H" 
			},
			{
				"x": 1.9274429122,
				"y": -1.832918026,
				"z": -1.7008284246,
				"element": "H" 
			},
			{
				"x": 3.5823414906,
				"y": -0.1447929187,
				"z": -1.6026812644,
				"element": "H" 
			},
			{
				"x": 1.6313915635,
				"y": 1.4849466973,
				"z": 0.1896518888,
				"element": "H" 
			},
			{
				"x": 0.1502085537,
				"y": -2.9408583993,
				"z": -0.4320810268,
				"element": "H" 
			},
			{
				"x": -2.2165145906,
				"y": -2.9247620711,
				"z": 0.3139298667,
				"element": "H" 
			}
		],
		 "valence_orbital": [ 
			{
				"type": "occ",
				"energy": -0.33715,
				"method": "rhf"
			},
			{
				"type": "occ",
				"energy": -0.2842,
				"method": "rhf"
			},
			{
				"type": "occ",
				"energy": -0.26653,
				"method": "rhf"
			},
			{
				"type": "occ",
				"energy": -0.24208,
				"method": "rhf"
			},
			{
				"type": "occ",
				"energy": -0.22117,
				"method": "rhf"
			},
			{
				"type": "unocc",
				"energy": -0.06668,
				"method": "rhf"
			},
			{
				"type": "unocc",
				"energy": -0.0161,
				"method": "rhf"
			},
			{
				"type": "unocc",
				"energy": 0.00733,
				"method": "rhf"
			},
			{
				"type": "unocc",
				"energy": 0.07514,
				"method": "rhf"
			},
			{
				"type": "unocc",
				"energy": 0.08418,
				"method": "rhf"
			}
		],
		"cosmo_sigma_profile": { 
			"-0.025": 0.0,
			"-0.024": 0.0,
			"-0.023": 0.0,
			"-0.022": 0.0,
			"-0.021": 0.0,
			"-0.02": 0.0,
			"-0.019": 0.0,
			"-0.018": 0.0,
			"-0.017": 0.0,
			"-0.016": 0.0,
			"-0.015": 0.0,
			"-0.014": 0.0,
			"-0.013": 0.0,
			"-0.012": 0.0,
			"-0.011": 0.0,
			"-0.01": 0.0,
			"-0.009": 0.0,
			"-0.008": 0.0375650961737,
			"-0.007": 7.35016948288,
			"-0.006": 19.1399371193,
			"-0.005": 21.4420372641,
			"-0.004": 19.7277217415,
			"-0.003": 17.5845373191,
			"-0.002": 12.1374747638,
			"-0.001": 11.2836249631,
			"0.0": 13.4135880612,
			"0.001": 12.2942434471,
			"0.002": 14.8572237619,
			"0.003": 16.6363245,
			"0.004": 15.0129501302,
			"0.005": 4.00695220572,
			"0.006": 3.74656686172,
			"0.007": 1.95187941477,
			"0.008": 3.10405053334,
			"0.009": 3.24260337558,
			"0.01": 3.00522707314,
			"0.011": 2.71923281472,
			"0.012": 4.94224932609,
			"0.013": 3.38231954976,
			"0.014": 0.903551460775,
			"0.015": 0.0,
			"0.016": 0.0,
			"0.017": 0.0,
			"0.018": 0.0,
			"0.019": 0.0,
			"0.02": 0.0,
			"0.021": 0.0,
			"0.022": 0.0,
			"0.023": 0.0,
			"0.024": 0.0,
			"0.025": 0.0
		}
	}
}
