{
	 "smiles": "CN1C(=NC2=C1C=CC=C2)C(=CC1=C(Cl)C=CC=C1Cl)C#N", 
	 "Tm": 458.15, 
	 "num_atms": 33, 
	 "gaussian": { 
		 "optdone": 1, 
		 "sigma_profile": "yes", 
		 "theory": "DFT", 
		 "functional": "B3LYP", 
		 "basiset": "6-31G**", 
		 "properties": { 
			 "R2extent": 9284.2385, 
			 "electric_dipole_moment_norm": 1.403493306, 
			 "electric_quadrupole_moment_norm": 25.833016134, 
			 "total_energy": -1739.05154196, 
			 "HOMO_LUMO_gap": 0.13983, 
			 "cosmo_polarized_energy": -13.83, 
			 "cosmo_cavitation_energy": 41.97, 
			 "cosmo_dispersion_energy": -28.96, 
			 "cosmo_repulsion_energy": 2.19, 
			 "cosmo_total_nonelectrostatic_energy": 15.19, 
			 "SMD_solvation_energy": 5.49 
		},
		"coords": [
			{
				"x": -0.0138450634,
				"y": -1.0195988561,
				"z": -3.5008143739,
				"element": "C" 
			},
			{
				"x": -0.8838387579,
				"y": -1.2608520653,
				"z": -2.3552338741,
				"element": "N" 
			},
			{
				"x": -0.6376382266,
				"y": -1.0698363237,
				"z": -1.0024129306,
				"element": "C" 
			},
			{
				"x": -1.6907078782,
				"y": -1.3070316263,
				"z": -0.2451328424,
				"element": "N" 
			},
			{
				"x": -2.6904324208,
				"y": -1.6791637084,
				"z": -1.1162437163,
				"element": "C" 
			},
			{
				"x": -2.2068004055,
				"y": -1.6643567115,
				"z": -2.4468141724,
				"element": "C" 
			},
			{
				"x": -3.012567131,
				"y": -2.0059597278,
				"z": -3.5376563004,
				"element": "C" 
			},
			{
				"x": -4.3281452818,
				"y": -2.3621489038,
				"z": -3.2570350239,
				"element": "C" 
			},
			{
				"x": -4.8251861144,
				"y": -2.3815455995,
				"z": -1.9358323068,
				"element": "C" 
			},
			{
				"x": -4.0198153829,
				"y": -2.0444237657,
				"z": -0.8557810424,
				"element": "C" 
			},
			{
				"x": 0.6523774341,
				"y": -0.6419484115,
				"z": -0.427457129,
				"element": "C" 
			},
			{
				"x": 0.6893806622,
				"y": -0.1339330624,
				"z": 0.8280019496,
				"element": "C" 
			},
			{
				"x": 1.8882338065,
				"y": 0.2967213664,
				"z": 1.5707547196,
				"element": "C" 
			},
			{
				"x": 2.2041371732,
				"y": -0.3178554662,
				"z": 2.800368208,
				"element": "C" 
			},
			{
				"x": 1.189889059,
				"y": -1.6259591247,
				"z": 3.3833026173,
				"element": "Cl" 
			},
			{
				"x": 3.3043550958,
				"y": 0.0551662479,
				"z": 3.5661809759,
				"element": "C" 
			},
			{
				"x": 4.1243307176,
				"y": 1.0878503425,
				"z": 3.1158788738,
				"element": "C" 
			},
			{
				"x": 3.8376344741,
				"y": 1.7436119423,
				"z": 1.9215996933,
				"element": "C" 
			},
			{
				"x": 2.7317388832,
				"y": 1.352459932,
				"z": 1.1678960197,
				"element": "C" 
			},
			{
				"x": 2.37860933,
				"y": 2.2782753375,
				"z": -0.2807520744,
				"element": "Cl" 
			},
			{
				"x": 1.8643033012,
				"y": -0.8800102137,
				"z": -1.1583579841,
				"element": "C" 
			},
			{
				"x": 2.8396402082,
				"y": -1.1125407325,
				"z": -1.7484236621,
				"element": "N" 
			},
			{
				"x": 0.6162702645,
				"y": -0.1478983519,
				"z": -3.3258878617,
				"element": "H" 
			},
			{
				"x": 0.6280191617,
				"y": -1.879703851,
				"z": -3.7108074186,
				"element": "H" 
			},
			{
				"x": -0.6413564768,
				"y": -0.8181382222,
				"z": -4.370720289,
				"element": "H" 
			},
			{
				"x": -2.6389194141,
				"y": -2.0056629871,
				"z": -4.5567188844,
				"element": "H" 
			},
			{
				"x": -4.9874805645,
				"y": -2.636762017,
				"z": -4.0750009881,
				"element": "H" 
			},
			{
				"x": -5.8585440268,
				"y": -2.6685553979,
				"z": -1.7659103796,
				"element": "H" 
			},
			{
				"x": -4.3921807795,
				"y": -2.0580385677,
				"z": 0.1632841336,
				"element": "H" 
			},
			{
				"x": -0.2628478481,
				"y": -0.0970260277,
				"z": 1.3517449157,
				"element": "H" 
			},
			{
				"x": 3.5111028428,
				"y": -0.4616931749,
				"z": 4.4960422981,
				"element": "H" 
			},
			{
				"x": 4.9865726834,
				"y": 1.3882433048,
				"z": 3.7026643953,
				"element": "H" 
			},
			{
				"x": 4.4568106748,
				"y": 2.5612144231,
				"z": 1.5716744547,
				"element": "H" 
			}
		],
		 "valence_orbital": [ 
			{
				"type": "occ",
				"energy": -0.27912,
				"method": "rhf"
			},
			{
				"type": "occ",
				"energy": -0.26654,
				"method": "rhf"
			},
			{
				"type": "occ",
				"energy": -0.25822,
				"method": "rhf"
			},
			{
				"type": "occ",
				"energy": -0.2299,
				"method": "rhf"
			},
			{
				"type": "occ",
				"energy": -0.22154,
				"method": "rhf"
			},
			{
				"type": "unocc",
				"energy": -0.08171,
				"method": "rhf"
			},
			{
				"type": "unocc",
				"energy": -0.03185,
				"method": "rhf"
			},
			{
				"type": "unocc",
				"energy": -0.02675,
				"method": "rhf"
			},
			{
				"type": "unocc",
				"energy": -0.00925,
				"method": "rhf"
			},
			{
				"type": "unocc",
				"energy": 0.00107,
				"method": "rhf"
			}
		],
		"cosmo_sigma_profile": { 
			"-0.025": 0.0,
			"-0.024": 0.0,
			"-0.023": 0.0,
			"-0.022": 0.0,
			"-0.021": 0.0,
			"-0.02": 0.0,
			"-0.019": 0.0,
			"-0.018": 0.0,
			"-0.017": 0.0,
			"-0.016": 0.0,
			"-0.015": 0.0,
			"-0.014": 0.0,
			"-0.013": 0.0,
			"-0.012": 0.0,
			"-0.011": 0.0,
			"-0.01": 0.0,
			"-0.009": 0.146068559097,
			"-0.008": 7.99233895893,
			"-0.007": 13.539421553,
			"-0.006": 18.263350061,
			"-0.005": 21.4741501069,
			"-0.004": 23.3187799713,
			"-0.003": 24.4500557434,
			"-0.002": 23.6974671798,
			"-0.001": 24.480713401,
			"0.0": 29.5318163278,
			"0.001": 30.0929229634,
			"0.002": 29.4787098312,
			"0.003": 25.6651793986,
			"0.004": 25.7129767281,
			"0.005": 13.7577845765,
			"0.006": 7.70230037148,
			"0.007": 4.2253696763,
			"0.008": 4.11868373689,
			"0.009": 3.89498308758,
			"0.01": 3.65628458464,
			"0.011": 2.98747883305,
			"0.012": 3.28553949526,
			"0.013": 1.029046296,
			"0.014": 0.497777954034,
			"0.015": 0.135519767685,
			"0.016": 0.0,
			"0.017": 0.0,
			"0.018": 0.0,
			"0.019": 0.0,
			"0.02": 0.0,
			"0.021": 0.0,
			"0.022": 0.0,
			"0.023": 0.0,
			"0.024": 0.0,
			"0.025": 0.0
		}
	}
}
