{
	 "smiles": "CSC1=NC(O)=CC(N)=N1", 
	 "Tm": 553.15, 
	 "num_atms": 17, 
	 "gaussian": { 
		 "optdone": 1, 
		 "sigma_profile": "yes", 
		 "theory": "DFT", 
		 "functional": "B3LYP", 
		 "basiset": "6-31G**", 
		 "properties": { 
			 "R2extent": 2117.2249, 
			 "electric_dipole_moment_norm": 4.80930737009, 
			 "electric_quadrupole_moment_norm": 19.6278182708, 
			 "total_energy": -832.409805833, 
			 "HOMO_LUMO_gap": 0.19249, 
			 "cosmo_polarized_energy": -21.12, 
			 "cosmo_cavitation_energy": 23.18, 
			 "cosmo_dispersion_energy": -17.83, 
			 "cosmo_repulsion_energy": 1.43, 
			 "cosmo_total_nonelectrostatic_energy": 6.77, 
			 "SMD_solvation_energy": 1.95 
		},
		"coords": [
			{
				"x": -0.2934751044,
				"y": -1.096160662,
				"z": 2.7842148853,
				"element": "C" 
			},
			{
				"x": 0.3704945476,
				"y": 0.5966904523,
				"z": 2.6368163802,
				"element": "S" 
			},
			{
				"x": 0.0502345162,
				"y": 0.9526143785,
				"z": 0.9308122141,
				"element": "C" 
			},
			{
				"x": 0.4528495815,
				"y": 2.1727435676,
				"z": 0.5523956083,
				"element": "N" 
			},
			{
				"x": 0.2324326374,
				"y": 2.4824015598,
				"z": -0.7175964534,
				"element": "C" 
			},
			{
				"x": 0.6442375096,
				"y": 3.7152492378,
				"z": -1.0824286135,
				"element": "O" 
			},
			{
				"x": -0.3834193385,
				"y": 1.5933113835,
				"z": -1.615056121,
				"element": "C" 
			},
			{
				"x": -0.7588124167,
				"y": 0.3511360111,
				"z": -1.1040495797,
				"element": "C" 
			},
			{
				"x": -1.3960451243,
				"y": -0.6503112841,
				"z": -1.9097577797,
				"element": "N" 
			},
			{
				"x": -0.5435825749,
				"y": 0.0223507294,
				"z": 0.1760647736,
				"element": "N" 
			},
			{
				"x": -0.1294023145,
				"y": -1.3877794935,
				"z": 3.8241056008,
				"element": "H" 
			},
			{
				"x": -1.3587234853,
				"y": -1.115916755,
				"z": 2.5536553581,
				"element": "H" 
			},
			{
				"x": 0.2331995661,
				"y": -1.778339487,
				"z": 2.1167205128,
				"element": "H" 
			},
			{
				"x": 0.4452945043,
				"y": 3.854816123,
				"z": -2.0180228641,
				"element": "H" 
			},
			{
				"x": -0.5604518716,
				"y": 1.8545704569,
				"z": -2.6540227011,
				"element": "H" 
			},
			{
				"x": -0.8014302908,
				"y": -0.8856441373,
				"z": -2.7013630796,
				"element": "H" 
			},
			{
				"x": -2.2600003418,
				"y": -0.280432081,
				"z": -2.3000881413,
				"element": "H" 
			}
		],
		 "valence_orbital": [ 
			{
				"type": "occ",
				"energy": -0.30151,
				"method": "rhf"
			},
			{
				"type": "occ",
				"energy": -0.27441,
				"method": "rhf"
			},
			{
				"type": "occ",
				"energy": -0.26836,
				"method": "rhf"
			},
			{
				"type": "occ",
				"energy": -0.25786,
				"method": "rhf"
			},
			{
				"type": "occ",
				"energy": -0.22374,
				"method": "rhf"
			},
			{
				"type": "unocc",
				"energy": -0.03125,
				"method": "rhf"
			},
			{
				"type": "unocc",
				"energy": -0.01345,
				"method": "rhf"
			},
			{
				"type": "unocc",
				"energy": 0.04452,
				"method": "rhf"
			},
			{
				"type": "unocc",
				"energy": 0.05489,
				"method": "rhf"
			},
			{
				"type": "unocc",
				"energy": 0.07678,
				"method": "rhf"
			}
		],
		"cosmo_sigma_profile": { 
			"-0.025": 0.0,
			"-0.024": 0.0,
			"-0.023": 0.0,
			"-0.022": 0.0,
			"-0.021": 0.0,
			"-0.02": 0.1460488801,
			"-0.019": 0.935903932432,
			"-0.018": 1.4662956503,
			"-0.017": 0.848671072938,
			"-0.016": 0.894857561701,
			"-0.015": 1.42177744244,
			"-0.014": 0.71540563266,
			"-0.013": 1.08369543682,
			"-0.012": 3.31134654845,
			"-0.011": 4.27516813231,
			"-0.01": 3.95125431681,
			"-0.009": 4.14506960216,
			"-0.008": 5.19216243782,
			"-0.007": 7.62335199762,
			"-0.006": 5.93406533158,
			"-0.005": 8.38053701817,
			"-0.004": 7.34976930685,
			"-0.003": 8.5915302706,
			"-0.002": 12.2481746275,
			"-0.001": 14.4694262557,
			"0.0": 9.87708779198,
			"0.001": 9.20797644977,
			"0.002": 6.84968126212,
			"0.003": 5.78087007475,
			"0.004": 8.28720819688,
			"0.005": 9.0276365023,
			"0.006": 7.36288549261,
			"0.007": 6.91548414003,
			"0.008": 6.34993732972,
			"0.009": 3.5193812455,
			"0.01": 4.16291636067,
			"0.011": 3.86402666251,
			"0.012": 3.16221661811,
			"0.013": 2.25567306226,
			"0.014": 1.64797115367,
			"0.015": 1.08997438972,
			"0.016": 0.939260470714,
			"0.017": 0.919383498466,
			"0.018": 1.09805504208,
			"0.019": 0.653606797386,
			"0.02": 0.0487974548082,
			"0.021": 0.0,
			"0.022": 0.0,
			"0.023": 0.0,
			"0.024": 0.0,
			"0.025": 0.0
		}
	}
}
