{
	 "smiles": "OC1=NC=C(C=C1)C1=NC2=C(N1)C=CC=C2", 
	 "Tm": 513.15, 
	 "num_atms": 25, 
	 "gaussian": { 
		 "optdone": 1, 
		 "sigma_profile": "yes", 
		 "theory": "DFT", 
		 "functional": "B3LYP", 
		 "basiset": "6-31G**", 
		 "properties": { 
			 "R2extent": 5460.414, 
			 "electric_dipole_moment_norm": 3.26888575206, 
			 "electric_quadrupole_moment_norm": 10.7561244075, 
			 "total_energy": -702.202113475, 
			 "HOMO_LUMO_gap": 0.16443, 
			 "cosmo_polarized_energy": -17.15, 
			 "cosmo_cavitation_energy": 29.83, 
			 "cosmo_dispersion_energy": -22.61, 
			 "cosmo_repulsion_energy": 1.72, 
			 "cosmo_total_nonelectrostatic_energy": 8.94, 
			 "SMD_solvation_energy": 2.05 
		},
		"coords": [
			{
				"x": -2.2219266449,
				"y": 5.2789889603,
				"z": -3.0258254652,
				"element": "O" 
			},
			{
				"x": -1.7382379629,
				"y": 4.3126261758,
				"z": -2.2174811661,
				"element": "C" 
			},
			{
				"x": -1.9668838571,
				"y": 3.0475912921,
				"z": -2.5695894929,
				"element": "N" 
			},
			{
				"x": -1.4935242298,
				"y": 2.0817718159,
				"z": -1.7781750796,
				"element": "C" 
			},
			{
				"x": -0.7706637624,
				"y": 2.3229027976,
				"z": -0.5995521322,
				"element": "C" 
			},
			{
				"x": -0.5464250743,
				"y": 3.6686778128,
				"z": -0.2560292348,
				"element": "C" 
			},
			{
				"x": -1.0301832655,
				"y": 4.6837929484,
				"z": -1.065275443,
				"element": "C" 
			},
			{
				"x": -0.2982383883,
				"y": 1.1882454772,
				"z": 0.1931154518,
				"element": "C" 
			},
			{
				"x": -0.5017750107,
				"y": -0.0761099604,
				"z": -0.1185523621,
				"element": "N" 
			},
			{
				"x": 0.1042778855,
				"y": -0.8080291242,
				"z": 0.8858687184,
				"element": "C" 
			},
			{
				"x": 0.6957544145,
				"y": 0.057918019,
				"z": 1.8392497372,
				"element": "C" 
			},
			{
				"x": 0.4212037728,
				"y": 1.329451294,
				"z": 1.3682774658,
				"element": "N" 
			},
			{
				"x": 1.37722152,
				"y": -0.4123039724,
				"z": 2.9626247408,
				"element": "C" 
			},
			{
				"x": 1.4549948118,
				"y": -1.7952769822,
				"z": 3.1134237886,
				"element": "C" 
			},
			{
				"x": 0.8730918597,
				"y": -2.6729073435,
				"z": 2.1759135612,
				"element": "C" 
			},
			{
				"x": 0.1954744679,
				"y": -2.1960160598,
				"z": 1.0587246973,
				"element": "C" 
			},
			{
				"x": -2.6711041115,
				"y": 4.8179264665,
				"z": -3.7527667929,
				"element": "H" 
			},
			{
				"x": -1.6874746635,
				"y": 1.0560057749,
				"z": -2.0776562393,
				"element": "H" 
			},
			{
				"x": 0.0050924535,
				"y": 3.9347987956,
				"z": 0.6417626845,
				"element": "H" 
			},
			{
				"x": -0.8774377482,
				"y": 5.7311797418,
				"z": -0.8335609803,
				"element": "H" 
			},
			{
				"x": 0.6970463294,
				"y": 2.1937814888,
				"z": 1.8051164421,
				"element": "H" 
			},
			{
				"x": 1.8267858498,
				"y": 0.2604577521,
				"z": 3.6870018522,
				"element": "H" 
			},
			{
				"x": 1.9759936906,
				"y": -2.2060817751,
				"z": 3.9731147429,
				"element": "H" 
			},
			{
				"x": 0.9582893434,
				"y": -3.7439979994,
				"z": 2.3335481662,
				"element": "H" 
			},
			{
				"x": -0.2542516797,
				"y": -2.8668933956,
				"z": 0.3340223395,
				"element": "H" 
			}
		],
		 "valence_orbital": [ 
			{
				"type": "occ",
				"energy": -0.28113,
				"method": "rhf"
			},
			{
				"type": "occ",
				"energy": -0.2678,
				"method": "rhf"
			},
			{
				"type": "occ",
				"energy": -0.2591,
				"method": "rhf"
			},
			{
				"type": "occ",
				"energy": -0.22722,
				"method": "rhf"
			},
			{
				"type": "occ",
				"energy": -0.20867,
				"method": "rhf"
			},
			{
				"type": "unocc",
				"energy": -0.04424,
				"method": "rhf"
			},
			{
				"type": "unocc",
				"energy": -0.03041,
				"method": "rhf"
			},
			{
				"type": "unocc",
				"energy": 0.01153,
				"method": "rhf"
			},
			{
				"type": "unocc",
				"energy": 0.02509,
				"method": "rhf"
			},
			{
				"type": "unocc",
				"energy": 0.05325,
				"method": "rhf"
			}
		],
		"cosmo_sigma_profile": { 
			"-0.025": 0.0,
			"-0.024": 0.0,
			"-0.023": 0.0,
			"-0.022": 0.0,
			"-0.021": 0.0,
			"-0.02": 0.0,
			"-0.019": 0.0,
			"-0.018": 0.0657352020949,
			"-0.017": 1.1655189201,
			"-0.016": 2.92139903539,
			"-0.015": 2.10131467768,
			"-0.014": 1.5885471718,
			"-0.013": 2.44755879779,
			"-0.012": 2.33254049318,
			"-0.011": 2.38455239361,
			"-0.01": 1.64615302254,
			"-0.009": 2.23408000649,
			"-0.008": 3.00363105725,
			"-0.007": 5.84862208292,
			"-0.006": 9.7707390441,
			"-0.005": 12.5140684299,
			"-0.004": 11.2070099102,
			"-0.003": 14.1531508248,
			"-0.002": 11.0454650165,
			"-0.001": 11.5055852749,
			"0.0": 17.3233396701,
			"0.001": 26.4575015699,
			"0.002": 21.3748536752,
			"0.003": 13.0029911856,
			"0.004": 13.3606922114,
			"0.005": 14.03397132,
			"0.006": 11.5227171954,
			"0.007": 5.56600118271,
			"0.008": 3.88000696665,
			"0.009": 3.18472183018,
			"0.01": 4.18485125081,
			"0.011": 2.6287573041,
			"0.012": 2.15413594399,
			"0.013": 1.73997094561,
			"0.014": 0.917803730639,
			"0.015": 0.857387759838,
			"0.016": 0.13288471363,
			"0.017": 0.0,
			"0.018": 0.0,
			"0.019": 0.0,
			"0.02": 0.0,
			"0.021": 0.0,
			"0.022": 0.0,
			"0.023": 0.0,
			"0.024": 0.0,
			"0.025": 0.0
		}
	}
}
