{
	 "smiles": "CC(C)C1=CC=C(CC(O)=O)C=C1", 
	 "Tm": 325.15, 
	 "num_atms": 27, 
	 "gaussian": { 
		 "optdone": 1, 
		 "sigma_profile": "yes", 
		 "theory": "DFT", 
		 "functional": "B3LYP", 
		 "basiset": "6-31G**", 
		 "properties": { 
			 "R2extent": 3775.8266, 
			 "electric_dipole_moment_norm": 5.37845403996, 
			 "electric_quadrupole_moment_norm": 21.8240710169, 
			 "total_energy": -578.082461641, 
			 "HOMO_LUMO_gap": 0.22272, 
			 "cosmo_polarized_energy": -12.32, 
			 "cosmo_cavitation_energy": 30.11, 
			 "cosmo_dispersion_energy": -21.14, 
			 "cosmo_repulsion_energy": 1.7, 
			 "cosmo_total_nonelectrostatic_energy": 10.68, 
			 "SMD_solvation_energy": 6.34 
		},
		"coords": [
			{
				"x": 3.2529207387,
				"y": 1.5986533891,
				"z": -0.7831073411,
				"element": "C" 
			},
			{
				"x": 1.8770165335,
				"y": 2.2610583668,
				"z": -0.9864853423,
				"element": "C" 
			},
			{
				"x": 1.8898301018,
				"y": 3.2027899593,
				"z": -2.2055842486,
				"element": "C" 
			},
			{
				"x": 0.7610834296,
				"y": 1.2294952316,
				"z": -1.0812545038,
				"element": "C" 
			},
			{
				"x": 0.7256848105,
				"y": 0.2799249759,
				"z": -2.1152606666,
				"element": "C" 
			},
			{
				"x": -0.2978473183,
				"y": -0.6602698213,
				"z": -2.1982302911,
				"element": "C" 
			},
			{
				"x": -1.3335099357,
				"y": -0.6867576761,
				"z": -1.2510510439,
				"element": "C" 
			},
			{
				"x": -2.4240591569,
				"y": -1.7312400927,
				"z": -1.3200807886,
				"element": "C" 
			},
			{
				"x": -2.1454345427,
				"y": -3.0461918578,
				"z": -0.5692544116,
				"element": "C" 
			},
			{
				"x": -1.2014833521,
				"y": -3.001075744,
				"z": 0.398310592,
				"element": "O" 
			},
			{
				"x": -2.7551463732,
				"y": -4.0611779839,
				"z": -0.7958196207,
				"element": "O" 
			},
			{
				"x": -1.3024025287,
				"y": 0.2612484617,
				"z": -0.2182549371,
				"element": "C" 
			},
			{
				"x": -0.2711082596,
				"y": 1.200059474,
				"z": -0.1368135117,
				"element": "C" 
			},
			{
				"x": 3.2583514882,
				"y": 0.9570974684,
				"z": 0.1034949448,
				"element": "H" 
			},
			{
				"x": 3.528640941,
				"y": 0.9803483562,
				"z": -1.6444397537,
				"element": "H" 
			},
			{
				"x": 4.031332066,
				"y": 2.3589708147,
				"z": -0.6584387116,
				"element": "H" 
			},
			{
				"x": 1.6719080867,
				"y": 2.8738569927,
				"z": -0.0989335923,
				"element": "H" 
			},
			{
				"x": 2.6597601255,
				"y": 3.9729662551,
				"z": -2.0888068074,
				"element": "H" 
			},
			{
				"x": 2.1063390587,
				"y": 2.655166005,
				"z": -3.1293982572,
				"element": "H" 
			},
			{
				"x": 0.9242827371,
				"y": 3.7020663626,
				"z": -2.3321369797,
				"element": "H" 
			},
			{
				"x": 1.5083559856,
				"y": 0.2736641757,
				"z": -2.8690423065,
				"element": "H" 
			},
			{
				"x": -0.2985651734,
				"y": -1.3835879571,
				"z": -3.0100020149,
				"element": "H" 
			},
			{
				"x": -2.6473334029,
				"y": -2.0132587445,
				"z": -2.3521186895,
				"element": "H" 
			},
			{
				"x": -3.3577404097,
				"y": -1.3385514831,
				"z": -0.8988041227,
				"element": "H" 
			},
			{
				"x": -0.7906285823,
				"y": -2.120809475,
				"z": 0.4073216786,
				"element": "H" 
			},
			{
				"x": -2.0999402643,
				"y": 0.2763350643,
				"z": 0.5215847371,
				"element": "H" 
			},
			{
				"x": -0.2755068033,
				"y": 1.9272194823,
				"z": 0.67150599,
				"element": "H" 
			}
		],
		 "valence_orbital": [ 
			{
				"type": "occ",
				"energy": -0.33428,
				"method": "rhf"
			},
			{
				"type": "occ",
				"energy": -0.3062,
				"method": "rhf"
			},
			{
				"type": "occ",
				"energy": -0.27463,
				"method": "rhf"
			},
			{
				"type": "occ",
				"energy": -0.26659,
				"method": "rhf"
			},
			{
				"type": "occ",
				"energy": -0.24509,
				"method": "rhf"
			},
			{
				"type": "unocc",
				"energy": -0.02237,
				"method": "rhf"
			},
			{
				"type": "unocc",
				"energy": -0.01945,
				"method": "rhf"
			},
			{
				"type": "unocc",
				"energy": 0.01956,
				"method": "rhf"
			},
			{
				"type": "unocc",
				"energy": 0.07634,
				"method": "rhf"
			},
			{
				"type": "unocc",
				"energy": 0.08854,
				"method": "rhf"
			}
		],
		"cosmo_sigma_profile": { 
			"-0.025": 0.0,
			"-0.024": 0.0,
			"-0.023": 0.0,
			"-0.022": 0.0,
			"-0.021": 0.0,
			"-0.02": 0.0,
			"-0.019": 0.0,
			"-0.018": 0.0,
			"-0.017": 0.0,
			"-0.016": 0.0,
			"-0.015": 0.0,
			"-0.014": 0.0408225825989,
			"-0.013": 0.524953297605,
			"-0.012": 0.25438043721,
			"-0.011": 0.596704346494,
			"-0.01": 1.21724309183,
			"-0.009": 1.48688047453,
			"-0.008": 2.58711119222,
			"-0.007": 6.46485056896,
			"-0.006": 11.3787698922,
			"-0.005": 15.2282555684,
			"-0.004": 16.5203668615,
			"-0.003": 22.6416975975,
			"-0.002": 23.0263604694,
			"-0.001": 21.0653781961,
			"0.0": 20.94094914,
			"0.001": 24.6580901239,
			"0.002": 12.7516071744,
			"0.003": 8.95422377504,
			"0.004": 8.22332603154,
			"0.005": 8.12343839998,
			"0.006": 3.08958782724,
			"0.007": 1.94021948065,
			"0.008": 3.1648300122,
			"0.009": 2.83797184703,
			"0.01": 4.70370756536,
			"0.011": 4.64687013408,
			"0.012": 6.0897713647,
			"0.013": 3.2384092427,
			"0.014": 0.26968000168,
			"0.015": 0.0,
			"0.016": 0.0,
			"0.017": 0.0,
			"0.018": 0.0,
			"0.019": 0.0,
			"0.02": 0.0,
			"0.021": 0.0,
			"0.022": 0.0,
			"0.023": 0.0,
			"0.024": 0.0,
			"0.025": 0.0
		}
	}
}
