{
	 "smiles": "FC1=CC(Br)=C(I)C(Br)=C1", 
	 "Tm": 409.15, 
	 "num_atms": 12, 
	 "gaussian": { 
		 "optdone": 1, 
		 "sigma_profile": "no", 
		 "theory": "DFT", 
		 "functional": "B3LYP", 
		 "basiset": "6-31G**", 
		 "properties": { 
			 "R2extent": 3670.6375, 
			 "electric_dipole_moment_norm": 0.801764092486, 
			 "electric_quadrupole_moment_norm": 2.85469534276, 
			 "total_energy": -5483.85468412, 
			 "HOMO_LUMO_gap": 0.18159, 
			 "cosmo_polarized_energy": -76910.52, 
			 "cosmo_cavitation_energy": 24.49, 
			 "cosmo_dispersion_energy": -20.05, 
			 "cosmo_repulsion_energy": 1.55, 
			 "cosmo_total_nonelectrostatic_energy": 5.98, 
			 "SMD_solvation_energy": 1.83 
		},
		"coords": [
			{
				"x": -0.3869831143,
				"y": 1.5267692524,
				"z": -2.7928957061,
				"element": "F" 
			},
			{
				"x": -0.4617362977,
				"y": 0.8185014277,
				"z": -1.6543958268,
				"element": "C" 
			},
			{
				"x": 0.4794610261,
				"y": -0.1713478962,
				"z": -1.415967442,
				"element": "C" 
			},
			{
				"x": 0.3947503944,
				"y": -0.9024410398,
				"z": -0.2310666453,
				"element": "C" 
			},
			{
				"x": 1.7239612725,
				"y": -2.2420399275,
				"z": 0.0201704647,
				"element": "Br" 
			},
			{
				"x": -0.6174041033,
				"y": -0.656311006,
				"z": 0.7162191013,
				"element": "C" 
			},
			{
				"x": -0.7347635995,
				"y": -1.7667699507,
				"z": 2.5010602952,
				"element": "I" 
			},
			{
				"x": -1.548271121,
				"y": 0.3595100414,
				"z": 0.4264235183,
				"element": "C" 
			},
			{
				"x": -2.9714132795,
				"y": 0.8076328432,
				"z": 1.6088725218,
				"element": "Br" 
			},
			{
				"x": -1.4776872592,
				"y": 1.0997414758,
				"z": -0.7537184434,
				"element": "C" 
			},
			{
				"x": 1.2607327514,
				"y": -0.3669859859,
				"z": -2.1387641914,
				"element": "H" 
			},
			{
				"x": -2.1973466699,
				"y": 1.8788407656,
				"z": -0.9686376462,
				"element": "H" 
			}
		],
		 "valence_orbital": [ 
			{
				"type": "occ",
				"energy": -0.30882,
				"method": "rhf"
			},
			{
				"type": "occ",
				"energy": -0.29903,
				"method": "rhf"
			},
			{
				"type": "occ",
				"energy": -0.26231,
				"method": "rhf"
			},
			{
				"type": "occ",
				"energy": -0.2605,
				"method": "rhf"
			},
			{
				"type": "occ",
				"energy": -0.25083,
				"method": "rhf"
			},
			{
				"type": "unocc",
				"energy": -0.06924,
				"method": "rhf"
			},
			{
				"type": "unocc",
				"energy": -0.04514,
				"method": "rhf"
			},
			{
				"type": "unocc",
				"energy": -0.03607,
				"method": "rhf"
			},
			{
				"type": "unocc",
				"energy": -0.00472,
				"method": "rhf"
			},
			{
				"type": "unocc",
				"energy": 0.0108,
				"method": "rhf"
			}
		],
		"cosmo_sigma_profile": { 
			"0.0": 0.0,
			"0.0": 0.0,
			"0.0": 0.0,
			"0.0": 0.0,
			"0.0": 0.0,
			"0.0": 0.0,
			"0.0": 0.0,
			"0.0": 0.0,
			"0.0": 0.0,
			"0.0": 0.0,
			"0.0": 0.0,
			"0.0": 0.0,
			"0.0": 0.0,
			"0.0": 0.0,
			"0.0": 0.0,
			"0.0": 0.0,
			"0.0": 0.0,
			"0.0": 0.0,
			"0.0": 0.0,
			"0.0": 0.0,
			"0.0": 0.0,
			"0.0": 0.0,
			"0.0": 0.0,
			"0.0": 0.0,
			"0.0": 0.0,
			"0.0": 0.0,
			"0.0": 0.0,
			"0.0": 0.0,
			"0.0": 0.0,
			"0.0": 0.0,
			"0.0": 0.0,
			"0.0": 0.0,
			"0.0": 0.0,
			"0.0": 0.0,
			"0.0": 0.0,
			"0.0": 0.0,
			"0.0": 0.0,
			"0.0": 0.0,
			"0.0": 0.0,
			"0.0": 0.0,
			"0.0": 0.0,
			"0.0": 0.0,
			"0.0": 0.0,
			"0.0": 0.0,
			"0.0": 0.0,
			"0.0": 0.0,
			"0.0": 0.0,
			"0.0": 0.0,
			"0.0": 0.0,
			"0.0": 0.0,
			"0.0": 0.0
		}
	}
}
