{
	 "smiles": "FC1=C(CC(=O)N2CCNCC2)C=CC=C1", 
	 "Tm": 351.15, 
	 "num_atms": 31, 
	 "gaussian": { 
		 "optdone": 1, 
		 "sigma_profile": "yes", 
		 "theory": "DFT", 
		 "functional": "B3LYP", 
		 "basiset": "6-31G**", 
		 "properties": { 
			 "R2extent": 4051.3402, 
			 "electric_dipole_moment_norm": 3.84442658793, 
			 "electric_quadrupole_moment_norm": 14.3797471622, 
			 "total_energy": -750.875610669, 
			 "HOMO_LUMO_gap": 0.20585, 
			 "cosmo_polarized_energy": -15.37, 
			 "cosmo_cavitation_energy": 33.08, 
			 "cosmo_dispersion_energy": -23.2, 
			 "cosmo_repulsion_energy": 1.8, 
			 "cosmo_total_nonelectrostatic_energy": 11.69, 
			 "SMD_solvation_energy": 2.84 
		},
		"coords": [
			{
				"x": -0.8626094692,
				"y": -1.2080405712,
				"z": 2.0818910001,
				"element": "F" 
			},
			{
				"x": -1.2819496284,
				"y": -2.0401938984,
				"z": 1.1035341324,
				"element": "C" 
			},
			{
				"x": -0.3586891091,
				"y": -2.4476150967,
				"z": 0.1361023853,
				"element": "C" 
			},
			{
				"x": 1.0892667788,
				"y": -2.007541952,
				"z": 0.2033837015,
				"element": "C" 
			},
			{
				"x": 1.3607942336,
				"y": -0.5017567551,
				"z": 0.3784653924,
				"element": "C" 
			},
			{
				"x": 2.0303582225,
				"y": -0.1023191055,
				"z": 1.3256455234,
				"element": "O" 
			},
			{
				"x": 0.8569093095,
				"y": 0.3696531279,
				"z": -0.552040792,
				"element": "N" 
			},
			{
				"x": 1.0827036308,
				"y": 1.8044877427,
				"z": -0.3192535844,
				"element": "C" 
			},
			{
				"x": 0.0665270447,
				"y": 2.6139065006,
				"z": -1.1275379344,
				"element": "C" 
			},
			{
				"x": 0.0976084759,
				"y": 2.3409480242,
				"z": -2.5736038016,
				"element": "N" 
			},
			{
				"x": 0.5458823755,
				"y": 0.9813874456,
				"z": -2.9084780571,
				"element": "C" 
			},
			{
				"x": 0.1722707899,
				"y": 0.0011520128,
				"z": -1.7951364856,
				"element": "C" 
			},
			{
				"x": -0.8305958078,
				"y": -3.3185840852,
				"z": -0.8547215419,
				"element": "C" 
			},
			{
				"x": -2.1579873053,
				"y": -3.7506576833,
				"z": -0.8789296258,
				"element": "C" 
			},
			{
				"x": -3.0497310867,
				"y": -3.3134614725,
				"z": 0.1016307844,
				"element": "C" 
			},
			{
				"x": -2.6098265836,
				"y": -2.4482957781,
				"z": 1.1044234399,
				"element": "C" 
			},
			{
				"x": 1.6122535683,
				"y": -2.3708666819,
				"z": -0.6894034856,
				"element": "H" 
			},
			{
				"x": 1.5813617126,
				"y": -2.4622882855,
				"z": 1.0674465705,
				"element": "H" 
			},
			{
				"x": 0.9853075075,
				"y": 1.9962282083,
				"z": 0.7523425203,
				"element": "H" 
			},
			{
				"x": 2.1099952382,
				"y": 2.079793233,
				"z": -0.5986031297,
				"element": "H" 
			},
			{
				"x": -0.9386579421,
				"y": 2.3997923377,
				"z": -0.7397403634,
				"element": "H" 
			},
			{
				"x": 0.2383252387,
				"y": 3.6823420622,
				"z": -0.9657467403,
				"element": "H" 
			},
			{
				"x": 0.693271236,
				"y": 3.0162863552,
				"z": -3.0398438074,
				"element": "H" 
			},
			{
				"x": 0.0671753723,
				"y": 0.6550849914,
				"z": -3.8408929845,
				"element": "H" 
			},
			{
				"x": 1.6356536576,
				"y": 0.914250756,
				"z": -3.0646295788,
				"element": "H" 
			},
			{
				"x": -0.9182661509,
				"y": -0.0087336365,
				"z": -1.6630616654,
				"element": "H" 
			},
			{
				"x": 0.4684747388,
				"y": -1.0046097285,
				"z": -2.0956211573,
				"element": "H" 
			},
			{
				"x": -0.1384131475,
				"y": -3.6644246167,
				"z": -1.6187285675,
				"element": "H" 
			},
			{
				"x": -2.4923891602,
				"y": -4.4262484916,
				"z": -1.6601427894,
				"element": "H" 
			},
			{
				"x": -4.084372371,
				"y": -3.6423359888,
				"z": 0.0902164144,
				"element": "H" 
			},
			{
				"x": -3.2712513697,
				"y": -2.0891389702,
				"z": 1.8855342276,
				"element": "H" 
			}
		],
		 "valence_orbital": [ 
			{
				"type": "occ",
				"energy": -0.25997,
				"method": "rhf"
			},
			{
				"type": "occ",
				"energy": -0.24693,
				"method": "rhf"
			},
			{
				"type": "occ",
				"energy": -0.23655,
				"method": "rhf"
			},
			{
				"type": "occ",
				"energy": -0.22865,
				"method": "rhf"
			},
			{
				"type": "occ",
				"energy": -0.22044,
				"method": "rhf"
			},
			{
				"type": "unocc",
				"energy": -0.01459,
				"method": "rhf"
			},
			{
				"type": "unocc",
				"energy": -0.00343,
				"method": "rhf"
			},
			{
				"type": "unocc",
				"energy": 0.03409,
				"method": "rhf"
			},
			{
				"type": "unocc",
				"energy": 0.06673,
				"method": "rhf"
			},
			{
				"type": "unocc",
				"energy": 0.08544,
				"method": "rhf"
			}
		],
		"cosmo_sigma_profile": { 
			"-0.025": 0.0,
			"-0.024": 0.0,
			"-0.023": 0.0,
			"-0.022": 0.0,
			"-0.021": 0.0,
			"-0.02": 0.0,
			"-0.019": 0.0,
			"-0.018": 0.0,
			"-0.017": 0.0,
			"-0.016": 0.0,
			"-0.015": 0.0,
			"-0.014": 0.0,
			"-0.013": 0.0,
			"-0.012": 0.0,
			"-0.011": 0.0597388575071,
			"-0.01": 1.27084918444,
			"-0.009": 1.60875347985,
			"-0.008": 3.38865004403,
			"-0.007": 7.1070900841,
			"-0.006": 13.1693044134,
			"-0.005": 16.9357002036,
			"-0.004": 26.3682562204,
			"-0.003": 32.355196491,
			"-0.002": 24.6384290424,
			"-0.001": 19.602949979,
			"0.0": 14.6907025274,
			"0.001": 15.8198775928,
			"0.002": 12.9897338576,
			"0.003": 11.969956325,
			"0.004": 16.3763440229,
			"0.005": 11.3821885438,
			"0.006": 2.93460614992,
			"0.007": 2.24898718986,
			"0.008": 2.52696721971,
			"0.009": 2.65956342527,
			"0.01": 2.32978028276,
			"0.011": 2.04798935753,
			"0.012": 2.46248316168,
			"0.013": 3.18957278603,
			"0.014": 5.25985402322,
			"0.015": 2.88802916043,
			"0.016": 0.791299747246,
			"0.017": 0.367758347488,
			"0.018": 0.470026241798,
			"0.019": 0.0827386987365,
			"0.02": 0.0,
			"0.021": 0.0,
			"0.022": 0.0,
			"0.023": 0.0,
			"0.024": 0.0,
			"0.025": 0.0
		}
	}
}
