{
	 "smiles": "CC1=CC(C(O)=O)=C(C)N1", 
	 "Tm": 473.15, 
	 "num_atms": 19, 
	 "gaussian": { 
		 "optdone": 1, 
		 "sigma_profile": "yes", 
		 "theory": "DFT", 
		 "functional": "B3LYP", 
		 "basiset": "6-31G**", 
		 "properties": { 
			 "R2extent": 2236.6776, 
			 "electric_dipole_moment_norm": 7.07531757167, 
			 "electric_quadrupole_moment_norm": 15.5062949537, 
			 "total_energy": -477.382876094, 
			 "HOMO_LUMO_gap": 0.20494, 
			 "cosmo_polarized_energy": -19.52, 
			 "cosmo_cavitation_energy": 22.91, 
			 "cosmo_dispersion_energy": -16.87, 
			 "cosmo_repulsion_energy": 1.39, 
			 "cosmo_total_nonelectrostatic_energy": 7.42, 
			 "SMD_solvation_energy": 5.08 
		},
		"coords": [
			{
				"x": 2.5292857381,
				"y": -3.38689205,
				"z": -0.0956185437,
				"element": "C" 
			},
			{
				"x": 1.9942752665,
				"y": -2.0270711145,
				"z": 0.218152994,
				"element": "C" 
			},
			{
				"x": 2.5904234357,
				"y": -0.791593109,
				"z": 0.2164085633,
				"element": "C" 
			},
			{
				"x": 1.6056220162,
				"y": 0.1792555035,
				"z": 0.586889792,
				"element": "C" 
			},
			{
				"x": 1.9102416332,
				"y": 1.6153646225,
				"z": 0.7220182601,
				"element": "C" 
			},
			{
				"x": 0.8454950581,
				"y": 2.4808725527,
				"z": 0.7038727215,
				"element": "O" 
			},
			{
				"x": 3.0292335133,
				"y": 2.0582090612,
				"z": 0.8469156841,
				"element": "O" 
			},
			{
				"x": 0.4147324615,
				"y": -0.5041202159,
				"z": 0.8299616706,
				"element": "C" 
			},
			{
				"x": -0.9388234886,
				"y": -0.056469961,
				"z": 1.2940994334,
				"element": "C" 
			},
			{
				"x": 0.6741793431,
				"y": -1.830720337,
				"z": 0.5960051492,
				"element": "N" 
			},
			{
				"x": 2.0189214898,
				"y": -3.8460070345,
				"z": -0.9518436547,
				"element": "H" 
			},
			{
				"x": 3.5907402576,
				"y": -3.3167810487,
				"z": -0.342951371,
				"element": "H" 
			},
			{
				"x": 2.4320819433,
				"y": -4.0750570503,
				"z": 0.7536650049,
				"element": "H" 
			},
			{
				"x": 3.6198273746,
				"y": -0.5697052919,
				"z": -0.0234509624,
				"element": "H" 
			},
			{
				"x": 0.0602500024,
				"y": 2.0201127494,
				"z": 0.3807912296,
				"element": "H" 
			},
			{
				"x": -1.4051900568,
				"y": -0.8143746305,
				"z": 1.9328607924,
				"element": "H" 
			},
			{
				"x": -1.632721921,
				"y": 0.13159949,
				"z": 0.462756327,
				"element": "H" 
			},
			{
				"x": -0.864355765,
				"y": 0.8587485326,
				"z": 1.8869522654,
				"element": "H" 
			},
			{
				"x": -0.002218302,
				"y": -2.5694706686,
				"z": 0.7175146443,
				"element": "H" 
			}
		],
		 "valence_orbital": [ 
			{
				"type": "occ",
				"energy": -0.3515,
				"method": "rhf"
			},
			{
				"type": "occ",
				"energy": -0.29939,
				"method": "rhf"
			},
			{
				"type": "occ",
				"energy": -0.25962,
				"method": "rhf"
			},
			{
				"type": "occ",
				"energy": -0.24737,
				"method": "rhf"
			},
			{
				"type": "occ",
				"energy": -0.21413,
				"method": "rhf"
			},
			{
				"type": "unocc",
				"energy": -0.00919,
				"method": "rhf"
			},
			{
				"type": "unocc",
				"energy": 0.03665,
				"method": "rhf"
			},
			{
				"type": "unocc",
				"energy": 0.05989,
				"method": "rhf"
			},
			{
				"type": "unocc",
				"energy": 0.07243,
				"method": "rhf"
			},
			{
				"type": "unocc",
				"energy": 0.11257,
				"method": "rhf"
			}
		],
		"cosmo_sigma_profile": { 
			"-0.025": 0.0,
			"-0.024": 0.0,
			"-0.023": 0.0,
			"-0.022": 0.0,
			"-0.021": 0.0,
			"-0.02": 0.0,
			"-0.019": 0.0,
			"-0.018": 0.0,
			"-0.017": 0.0,
			"-0.016": 0.758774230232,
			"-0.015": 2.44021584648,
			"-0.014": 2.0968287946,
			"-0.013": 1.54252622703,
			"-0.012": 2.20876659455,
			"-0.011": 2.9217551424,
			"-0.01": 2.38585587019,
			"-0.009": 2.56149795596,
			"-0.008": 2.30797008616,
			"-0.007": 3.05306390905,
			"-0.006": 5.17247764836,
			"-0.005": 11.7465627014,
			"-0.004": 16.001447753,
			"-0.003": 14.2896274677,
			"-0.002": 15.5543648216,
			"-0.001": 14.8460356472,
			"0.0": 9.3321242921,
			"0.001": 6.16879249747,
			"0.002": 7.3582960157,
			"0.003": 6.20917410211,
			"0.004": 6.37452041197,
			"0.005": 6.14068650446,
			"0.006": 6.29260609557,
			"0.007": 6.35099671553,
			"0.008": 2.67827628753,
			"0.009": 2.48727359249,
			"0.01": 3.94241302817,
			"0.011": 3.99831265689,
			"0.012": 5.76665532379,
			"0.013": 6.05574890416,
			"0.014": 1.97948949649,
			"0.015": 0.10947913567,
			"0.016": 0.0,
			"0.017": 0.0,
			"0.018": 0.0,
			"0.019": 0.0,
			"0.02": 0.0,
			"0.021": 0.0,
			"0.022": 0.0,
			"0.023": 0.0,
			"0.024": 0.0,
			"0.025": 0.0
		}
	}
}
