{
	 "smiles": "CCOC(=O)C(CC1=CC=CC=C1)(CC1=CC=CC=C1)C(C)=O", 
	 "Tm": 331.15, 
	 "num_atms": 45, 
	 "gaussian": { 
		 "optdone": 1, 
		 "sigma_profile": "yes", 
		 "theory": "DFT", 
		 "functional": "B3LYP", 
		 "basiset": "6-31G**", 
		 "properties": { 
			 "R2extent": 6939.6648, 
			 "electric_dipole_moment_norm": 2.02269923864, 
			 "electric_quadrupole_moment_norm": 15.1658392264, 
			 "total_energy": -1001.06836369, 
			 "HOMO_LUMO_gap": 0.20002, 
			 "cosmo_polarized_energy": -15.23, 
			 "cosmo_cavitation_energy": 46.34, 
			 "cosmo_dispersion_energy": -29.46, 
			 "cosmo_repulsion_energy": 2.27, 
			 "cosmo_total_nonelectrostatic_energy": 19.16, 
			 "SMD_solvation_energy": 8.84 
		},
		"coords": [
			{
				"x": -4.0455724859,
				"y": -2.6931018064,
				"z": -1.6377043191,
				"element": "C" 
			},
			{
				"x": -2.5996540459,
				"y": -2.4553432347,
				"z": -2.0275350776,
				"element": "C" 
			},
			{
				"x": -2.1394363184,
				"y": -1.2877391017,
				"z": -1.3015448114,
				"element": "O" 
			},
			{
				"x": -0.8885776976,
				"y": -0.8837600995,
				"z": -1.5772546301,
				"element": "C" 
			},
			{
				"x": -0.1402460032,
				"y": -1.4918188128,
				"z": -2.3149617996,
				"element": "O" 
			},
			{
				"x": -0.5235844098,
				"y": 0.4697854453,
				"z": -0.9444699827,
				"element": "C" 
			},
			{
				"x": 1.0015893335,
				"y": 0.5124486102,
				"z": -0.6077982785,
				"element": "C" 
			},
			{
				"x": 1.5821606912,
				"y": -0.4662779545,
				"z": 0.403287893,
				"element": "C" 
			},
			{
				"x": 1.840326982,
				"y": -1.8051243768,
				"z": 0.0685710605,
				"element": "C" 
			},
			{
				"x": 2.4321372462,
				"y": -2.6695993419,
				"z": 0.9907258078,
				"element": "C" 
			},
			{
				"x": 2.7896540795,
				"y": -2.2131469959,
				"z": 2.2602065767,
				"element": "C" 
			},
			{
				"x": 2.5576192515,
				"y": -0.8793604955,
				"z": 2.597844715,
				"element": "C" 
			},
			{
				"x": 1.9656562915,
				"y": -0.0176457002,
				"z": 1.6746557558,
				"element": "C" 
			},
			{
				"x": -1.4835365275,
				"y": 0.9394133575,
				"z": 0.2018556519,
				"element": "C" 
			},
			{
				"x": -1.3668737037,
				"y": 0.3516569589,
				"z": 1.5985243547,
				"element": "C" 
			},
			{
				"x": -1.5699249474,
				"y": -1.0094378782,
				"z": 1.8699931193,
				"element": "C" 
			},
			{
				"x": -1.5085371116,
				"y": -1.4932234935,
				"z": 3.1761698269,
				"element": "C" 
			},
			{
				"x": -1.2572501399,
				"y": -0.6265968122,
				"z": 4.2421038081,
				"element": "C" 
			},
			{
				"x": -1.0701072272,
				"y": 0.7318415387,
				"z": 3.989285821,
				"element": "C" 
			},
			{
				"x": -1.1246711472,
				"y": 1.2109939743,
				"z": 2.679337693,
				"element": "C" 
			},
			{
				"x": -0.8291103307,
				"y": 1.4841244038,
				"z": -2.1009319818,
				"element": "C" 
			},
			{
				"x": -0.0894554186,
				"y": 2.8105408056,
				"z": -2.1388467184,
				"element": "C" 
			},
			{
				"x": -1.6731738105,
				"y": 1.2208339648,
				"z": -2.934335949,
				"element": "O" 
			},
			{
				"x": -4.4328326139,
				"y": -3.5659858023,
				"z": -2.1725265586,
				"element": "H" 
			},
			{
				"x": -4.66494206,
				"y": -1.8292797722,
				"z": -1.8946173699,
				"element": "H" 
			},
			{
				"x": -4.1403419096,
				"y": -2.879281492,
				"z": -0.5638780224,
				"element": "H" 
			},
			{
				"x": -2.4859746576,
				"y": -2.25846018,
				"z": -3.0971868944,
				"element": "H" 
			},
			{
				"x": -1.955954839,
				"y": -3.3030496974,
				"z": -1.7736451163,
				"element": "H" 
			},
			{
				"x": 1.5317549126,
				"y": 0.3727108762,
				"z": -1.5557883288,
				"element": "H" 
			},
			{
				"x": 1.230009429,
				"y": 1.5249747073,
				"z": -0.262066997,
				"element": "H" 
			},
			{
				"x": 1.5824906898,
				"y": -2.1650435486,
				"z": -0.9209771828,
				"element": "H" 
			},
			{
				"x": 2.6238013879,
				"y": -3.7017648724,
				"z": 0.7097183589,
				"element": "H" 
			},
			{
				"x": 3.2530114426,
				"y": -2.8870230785,
				"z": 2.9754432449,
				"element": "H" 
			},
			{
				"x": 2.8390440433,
				"y": -0.5063883385,
				"z": 3.578624683,
				"element": "H" 
			},
			{
				"x": 1.7916782188,
				"y": 1.0188345167,
				"z": 1.9493736911,
				"element": "H" 
			},
			{
				"x": -2.5017881407,
				"y": 0.7877989126,
				"z": -0.1691880984,
				"element": "H" 
			},
			{
				"x": -1.3550295983,
				"y": 2.0235932268,
				"z": 0.2994698564,
				"element": "H" 
			},
			{
				"x": -1.7793615555,
				"y": -1.6920372171,
				"z": 1.0548971511,
				"element": "H" 
			},
			{
				"x": -1.6617103313,
				"y": -2.5526077832,
				"z": 3.3625465495,
				"element": "H" 
			},
			{
				"x": -1.2132609028,
				"y": -1.0067178968,
				"z": 5.2587280786,
				"element": "H" 
			},
			{
				"x": -0.8822124523,
				"y": 1.4204447251,
				"z": 4.8085585608,
				"element": "H" 
			},
			{
				"x": -0.9809161325,
				"y": 2.2732059245,
				"z": 2.4932860702,
				"element": "H" 
			},
			{
				"x": -0.039067184,
				"y": 3.2926103964,
				"z": -1.1583661031,
				"element": "H" 
			},
			{
				"x": 0.9414878045,
				"y": 2.6517590652,
				"z": -2.4736878921,
				"element": "H" 
			},
			{
				"x": -0.5945181012,
				"y": 3.464844373,
				"z": -2.8504962163,
				"element": "H" 
			}
		],
		 "valence_orbital": [ 
			{
				"type": "occ",
				"energy": -0.25663,
				"method": "rhf"
			},
			{
				"type": "occ",
				"energy": -0.24677,
				"method": "rhf"
			},
			{
				"type": "occ",
				"energy": -0.24365,
				"method": "rhf"
			},
			{
				"type": "occ",
				"energy": -0.2381,
				"method": "rhf"
			},
			{
				"type": "occ",
				"energy": -0.22619,
				"method": "rhf"
			},
			{
				"type": "unocc",
				"energy": -0.02617,
				"method": "rhf"
			},
			{
				"type": "unocc",
				"energy": -0.0045,
				"method": "rhf"
			},
			{
				"type": "unocc",
				"energy": -0.00197,
				"method": "rhf"
			},
			{
				"type": "unocc",
				"energy": 0.00861,
				"method": "rhf"
			},
			{
				"type": "unocc",
				"energy": 0.01108,
				"method": "rhf"
			}
		],
		"cosmo_sigma_profile": { 
			"-0.025": 0.0,
			"-0.024": 0.0,
			"-0.023": 0.0,
			"-0.022": 0.0,
			"-0.021": 0.0,
			"-0.02": 0.0,
			"-0.019": 0.0,
			"-0.018": 0.0,
			"-0.017": 0.0,
			"-0.016": 0.0,
			"-0.015": 0.0,
			"-0.014": 0.0,
			"-0.013": 0.0,
			"-0.012": 0.0,
			"-0.011": 0.0,
			"-0.01": 0.0,
			"-0.009": 0.0751321054552,
			"-0.008": 1.47100468671,
			"-0.007": 5.47546303644,
			"-0.006": 12.8516562983,
			"-0.005": 30.451629303,
			"-0.004": 40.2066200423,
			"-0.003": 43.9963286629,
			"-0.002": 35.2256019675,
			"-0.001": 28.706630062,
			"0.0": 24.7006747621,
			"0.001": 19.7795747142,
			"0.002": 17.6976954668,
			"0.003": 18.8076982477,
			"0.004": 17.9428034768,
			"0.005": 18.1870194528,
			"0.006": 17.7244492025,
			"0.007": 8.78900986103,
			"0.008": 5.14469424331,
			"0.009": 4.46649764534,
			"0.01": 4.7807065447,
			"0.011": 5.96600013943,
			"0.012": 3.19620252742,
			"0.013": 0.130007172222,
			"0.014": 0.0,
			"0.015": 0.0,
			"0.016": 0.0,
			"0.017": 0.0,
			"0.018": 0.0,
			"0.019": 0.0,
			"0.02": 0.0,
			"0.021": 0.0,
			"0.022": 0.0,
			"0.023": 0.0,
			"0.024": 0.0,
			"0.025": 0.0
		}
	}
}
