{
	 "smiles": "BrC1=CC2=C(OC3=C(O2)C=CC=C3)C=C1", 
	 "Tm": 363.15, 
	 "num_atms": 22, 
	 "gaussian": { 
		 "optdone": 1, 
		 "sigma_profile": "yes", 
		 "theory": "DFT", 
		 "functional": "B3LYP", 
		 "basiset": "6-31G**", 
		 "properties": { 
			 "R2extent": 7368.0809, 
			 "electric_dipole_moment_norm": 2.07189638254, 
			 "electric_quadrupole_moment_norm": 8.44173929413, 
			 "total_energy": -3183.32902449, 
			 "HOMO_LUMO_gap": 0.17891, 
			 "cosmo_polarized_energy": -5.39, 
			 "cosmo_cavitation_energy": 28.81, 
			 "cosmo_dispersion_energy": -22.35, 
			 "cosmo_repulsion_energy": 1.71, 
			 "cosmo_total_nonelectrostatic_energy": 8.17, 
			 "SMD_solvation_energy": 4.17 
		},
		"coords": [
			{
				"x": 2.9916810648,
				"y": -3.7002990483,
				"z": -3.5821329838,
				"element": "Br" 
			},
			{
				"x": 1.7738886839,
				"y": -2.378551269,
				"z": -2.9359932839,
				"element": "C" 
			},
			{
				"x": 1.4198988643,
				"y": -2.3849037084,
				"z": -1.5866627198,
				"element": "C" 
			},
			{
				"x": 0.5331645835,
				"y": -1.4224931054,
				"z": -1.1159089235,
				"element": "C" 
			},
			{
				"x": 0.004428545,
				"y": -0.4614554156,
				"z": -1.9867607879,
				"element": "C" 
			},
			{
				"x": -0.8760820346,
				"y": 0.5057104475,
				"z": -1.5537902589,
				"element": "O" 
			},
			{
				"x": -1.2095977806,
				"y": 0.4765586336,
				"z": -0.2129921289,
				"element": "C" 
			},
			{
				"x": -0.6812482605,
				"y": -0.483581997,
				"z": 0.6566439428,
				"element": "C" 
			},
			{
				"x": 0.2023471089,
				"y": -1.4535784176,
				"z": 0.2199947303,
				"element": "O" 
			},
			{
				"x": -1.0396946744,
				"y": -0.4820141508,
				"z": 1.9996791103,
				"element": "C" 
			},
			{
				"x": -1.9299486604,
				"y": 0.4819477489,
				"z": 2.4794940455,
				"element": "C" 
			},
			{
				"x": -2.4568791812,
				"y": 1.4393824999,
				"z": 1.6126785754,
				"element": "C" 
			},
			{
				"x": -2.0955376213,
				"y": 1.4363388041,
				"z": 0.2631154371,
				"element": "C" 
			},
			{
				"x": 0.3675380133,
				"y": -0.4691932109,
				"z": -3.3284500097,
				"element": "C" 
			},
			{
				"x": 1.2571406887,
				"y": -1.4300870652,
				"z": -3.8144047338,
				"element": "C" 
			},
			{
				"x": 1.8172456031,
				"y": -3.1191497776,
				"z": -0.8965834123,
				"element": "H" 
			},
			{
				"x": -0.61331173,
				"y": -1.239306606,
				"z": 2.6492503948,
				"element": "H" 
			},
			{
				"x": -2.2070604568,
				"y": 0.4795034931,
				"z": 3.5287007035,
				"element": "H" 
			},
			{
				"x": -3.1487642776,
				"y": 2.1905417301,
				"z": 1.9797273735,
				"element": "H" 
			},
			{
				"x": -2.4887361484,
				"y": 2.1680232685,
				"z": -0.4349456885,
				"element": "H" 
			},
			{
				"x": -0.0544925182,
				"y": 0.2847732237,
				"z": -3.9844640713,
				"element": "H" 
			},
			{
				"x": 1.5402201885,
				"y": -1.4362660777,
				"z": -4.8598953109,
				"element": "H" 
			}
		],
		 "valence_orbital": [ 
			{
				"type": "occ",
				"energy": -0.28892,
				"method": "rhf"
			},
			{
				"type": "occ",
				"energy": -0.27319,
				"method": "rhf"
			},
			{
				"type": "occ",
				"energy": -0.25923,
				"method": "rhf"
			},
			{
				"type": "occ",
				"energy": -0.24366,
				"method": "rhf"
			},
			{
				"type": "occ",
				"energy": -0.2038,
				"method": "rhf"
			},
			{
				"type": "unocc",
				"energy": -0.02489,
				"method": "rhf"
			},
			{
				"type": "unocc",
				"energy": -0.01769,
				"method": "rhf"
			},
			{
				"type": "unocc",
				"energy": -0.01049,
				"method": "rhf"
			},
			{
				"type": "unocc",
				"energy": 0.00359,
				"method": "rhf"
			},
			{
				"type": "unocc",
				"energy": 0.019,
				"method": "rhf"
			}
		],
		"cosmo_sigma_profile": { 
			"-0.025": 0.0,
			"-0.024": 0.0,
			"-0.023": 0.0,
			"-0.022": 0.0,
			"-0.021": 0.0,
			"-0.02": 0.0,
			"-0.019": 0.0,
			"-0.018": 0.0,
			"-0.017": 0.0,
			"-0.016": 0.0,
			"-0.015": 0.0,
			"-0.014": 0.0,
			"-0.013": 0.0,
			"-0.012": 0.0,
			"-0.011": 0.0,
			"-0.01": 0.0,
			"-0.009": 0.0192927994508,
			"-0.008": 2.2899992535,
			"-0.007": 8.52606454776,
			"-0.006": 11.276952904,
			"-0.005": 14.2042328223,
			"-0.004": 15.9362912517,
			"-0.003": 13.4507374193,
			"-0.002": 13.0821264821,
			"-0.001": 14.670825142,
			"0.0": 17.5836272203,
			"0.001": 26.2259339985,
			"0.002": 33.1467603315,
			"0.003": 24.1416260338,
			"0.004": 23.3350723767,
			"0.005": 12.4325103291,
			"0.006": 2.58821863522,
			"0.007": 2.86270699393,
			"0.008": 0.489499150904,
			"0.009": 0.0,
			"0.01": 0.0,
			"0.011": 0.0,
			"0.012": 0.0,
			"0.013": 0.0,
			"0.014": 0.0,
			"0.015": 0.0,
			"0.016": 0.0,
			"0.017": 0.0,
			"0.018": 0.0,
			"0.019": 0.0,
			"0.02": 0.0,
			"0.021": 0.0,
			"0.022": 0.0,
			"0.023": 0.0,
			"0.024": 0.0,
			"0.025": 0.0
		}
	}
}
