{
	 "smiles": "CC1=CC2=CC=CC=C2N=C1C", 
	 "Tm": 341.65, 
	 "num_atms": 23, 
	 "gaussian": { 
		 "optdone": 1, 
		 "sigma_profile": "yes", 
		 "theory": "DFT", 
		 "functional": "B3LYP", 
		 "basiset": "6-31G**", 
		 "properties": { 
			 "R2extent": 2731.8597, 
			 "electric_dipole_moment_norm": 1.91294272523, 
			 "electric_quadrupole_moment_norm": 8.15633491649, 
			 "total_energy": -480.575997961, 
			 "HOMO_LUMO_gap": 0.18126, 
			 "cosmo_polarized_energy": -6.99, 
			 "cosmo_cavitation_energy": 25.98, 
			 "cosmo_dispersion_energy": -19.3, 
			 "cosmo_repulsion_energy": 1.51, 
			 "cosmo_total_nonelectrostatic_energy": 8.2, 
			 "SMD_solvation_energy": 2.91 
		},
		"coords": [
			{
				"x": 1.9869799602,
				"y": -2.8143509632,
				"z": -0.5634916254,
				"element": "C" 
			},
			{
				"x": 1.6654994606,
				"y": -1.4303578764,
				"z": -0.0588859808,
				"element": "C" 
			},
			{
				"x": 1.0620162383,
				"y": -1.2324647133,
				"z": 1.161998453,
				"element": "C" 
			},
			{
				"x": 0.7663072848,
				"y": 0.0753231174,
				"z": 1.622573005,
				"element": "C" 
			},
			{
				"x": 0.1461861503,
				"y": 0.3495066887,
				"z": 2.8690912158,
				"element": "C" 
			},
			{
				"x": -0.1097696282,
				"y": 1.6487988208,
				"z": 3.2491471049,
				"element": "C" 
			},
			{
				"x": 0.243735006,
				"y": 2.725906048,
				"z": 2.3987590951,
				"element": "C" 
			},
			{
				"x": 0.8468325351,
				"y": 2.4885680487,
				"z": 1.1830116143,
				"element": "C" 
			},
			{
				"x": 1.1226885663,
				"y": 1.160160251,
				"z": 0.7651776994,
				"element": "C" 
			},
			{
				"x": 1.7210927165,
				"y": 0.964259009,
				"z": -0.445771326,
				"element": "N" 
			},
			{
				"x": 1.9819114403,
				"y": -0.2671529452,
				"z": -0.8433567828,
				"element": "C" 
			},
			{
				"x": 2.6440199066,
				"y": -0.415334853,
				"z": -2.1914292165,
				"element": "C" 
			},
			{
				"x": 1.678747877,
				"y": -3.5753579741,
				"z": 0.1584583642,
				"element": "H" 
			},
			{
				"x": 3.0610642744,
				"y": -2.9400633156,
				"z": -0.7452269099,
				"element": "H" 
			},
			{
				"x": 1.4803260628,
				"y": -3.027571757,
				"z": -1.5123385309,
				"element": "H" 
			},
			{
				"x": 0.8052269646,
				"y": -2.0849810856,
				"z": 1.7881585336,
				"element": "H" 
			},
			{
				"x": -0.1228780056,
				"y": -0.4807859921,
				"z": 3.5176545907,
				"element": "H" 
			},
			{
				"x": -0.5846560646,
				"y": 1.8530859862,
				"z": 4.204406635,
				"element": "H" 
			},
			{
				"x": 0.0353264638,
				"y": 3.744747275,
				"z": 2.7126996641,
				"element": "H" 
			},
			{
				"x": 1.1272071654,
				"y": 3.2956638249,
				"z": 0.513809619,
				"element": "H" 
			},
			{
				"x": 2.0305144259,
				"y": -1.011558155,
				"z": -2.8778781885,
				"element": "H" 
			},
			{
				"x": 3.6127098276,
				"y": -0.923453903,
				"z": -2.1105166195,
				"element": "H" 
			},
			{
				"x": 2.7994113719,
				"y": 0.5730144637,
				"z": -2.625250414,
				"element": "H" 
			}
		],
		 "valence_orbital": [ 
			{
				"type": "occ",
				"energy": -0.32477,
				"method": "rhf"
			},
			{
				"type": "occ",
				"energy": -0.29436,
				"method": "rhf"
			},
			{
				"type": "occ",
				"energy": -0.24483,
				"method": "rhf"
			},
			{
				"type": "occ",
				"energy": -0.23638,
				"method": "rhf"
			},
			{
				"type": "occ",
				"energy": -0.22383,
				"method": "rhf"
			},
			{
				"type": "unocc",
				"energy": -0.04257,
				"method": "rhf"
			},
			{
				"type": "unocc",
				"energy": -0.00898,
				"method": "rhf"
			},
			{
				"type": "unocc",
				"energy": 0.0284,
				"method": "rhf"
			},
			{
				"type": "unocc",
				"energy": 0.09118,
				"method": "rhf"
			},
			{
				"type": "unocc",
				"energy": 0.09227,
				"method": "rhf"
			}
		],
		"cosmo_sigma_profile": { 
			"-0.025": 0.0,
			"-0.024": 0.0,
			"-0.023": 0.0,
			"-0.022": 0.0,
			"-0.021": 0.0,
			"-0.02": 0.0,
			"-0.019": 0.0,
			"-0.018": 0.0,
			"-0.017": 0.0,
			"-0.016": 0.0,
			"-0.015": 0.0,
			"-0.014": 0.0,
			"-0.013": 0.0,
			"-0.012": 0.0,
			"-0.011": 0.0,
			"-0.01": 0.0,
			"-0.009": 0.0,
			"-0.008": 0.0,
			"-0.007": 0.433613349563,
			"-0.006": 8.34697341758,
			"-0.005": 15.5616575359,
			"-0.004": 22.1346365096,
			"-0.003": 20.0162119328,
			"-0.002": 16.5617684644,
			"-0.001": 19.6606645408,
			"0.0": 19.2239368274,
			"0.001": 14.1080650701,
			"0.002": 14.4656288182,
			"0.003": 18.6180735322,
			"0.004": 14.387568171,
			"0.005": 9.9949865309,
			"0.006": 2.94807174964,
			"0.007": 1.36265143577,
			"0.008": 1.80599564007,
			"0.009": 1.40908514096,
			"0.01": 0.816744388095,
			"0.011": 1.17958905292,
			"0.012": 1.03455755622,
			"0.013": 0.84137184756,
			"0.014": 0.671381016206,
			"0.015": 0.677550591569,
			"0.016": 0.414719280433,
			"0.017": 0.0,
			"0.018": 0.0,
			"0.019": 0.0,
			"0.02": 0.0,
			"0.021": 0.0,
			"0.022": 0.0,
			"0.023": 0.0,
			"0.024": 0.0,
			"0.025": 0.0
		}
	}
}
