{
	 "smiles": "CC[C@]12CCCN(C1)CCC1=C(CC2)NC2=C1C=CC=C2", 
	 "Tm": 419.15, 
	 "num_atms": 47, 
	 "gaussian": { 
		 "optdone": 1, 
		 "sigma_profile": "yes", 
		 "theory": "DFT", 
		 "functional": "B3LYP", 
		 "basiset": "6-31G**", 
		 "properties": { 
			 "R2extent": 6752.3795, 
			 "electric_dipole_moment_norm": 2.34081275842, 
			 "electric_quadrupole_moment_norm": 9.53616986373, 
			 "total_energy": -849.205976258, 
			 "HOMO_LUMO_gap": 0.18497, 
			 "cosmo_polarized_energy": -8.11, 
			 "cosmo_cavitation_energy": 42.42, 
			 "cosmo_dispersion_energy": -30.38, 
			 "cosmo_repulsion_energy": 2.26, 
			 "cosmo_total_nonelectrostatic_energy": 14.3, 
			 "SMD_solvation_energy": 5.36 
		},
		"coords": [
			{
				"x": 4.3679585248,
				"y": 1.8279272221,
				"z": 0.1514970723,
				"element": "C" 
			},
			{
				"x": 3.620910628,
				"y": 0.4943089741,
				"z": 0.0182703301,
				"element": "C" 
			},
			{
				"x": 2.2935113492,
				"y": 0.4694077814,
				"z": -0.7910013886,
				"element": "C" 
			},
			{
				"x": 2.4529049288,
				"y": 1.1273965181,
				"z": -2.1957170041,
				"element": "C" 
			},
			{
				"x": 2.0340350667,
				"y": 2.6048376368,
				"z": -2.2095115333,
				"element": "C" 
			},
			{
				"x": 0.55819926,
				"y": 2.7727372244,
				"z": -1.7847812119,
				"element": "C" 
			},
			{
				"x": 0.1341222108,
				"y": 1.6514926634,
				"z": -0.9483034874,
				"element": "N" 
			},
			{
				"x": 1.1804389338,
				"y": 1.2290538386,
				"z": -0.0195374409,
				"element": "C" 
			},
			{
				"x": -1.2146700506,
				"y": 1.7716146116,
				"z": -0.3992629874,
				"element": "C" 
			},
			{
				"x": -2.0648290088,
				"y": 0.5096150608,
				"z": -0.6647779194,
				"element": "C" 
			},
			{
				"x": -1.5841141266,
				"y": -0.741900865,
				"z": 0.0177148238,
				"element": "C" 
			},
			{
				"x": -0.5037743503,
				"y": -1.5280012983,
				"z": -0.3300087601,
				"element": "C" 
			},
			{
				"x": 0.5041326894,
				"y": -1.413008177,
				"z": -1.4365053889,
				"element": "C" 
			},
			{
				"x": 1.9385419796,
				"y": -1.0358537623,
				"z": -0.9693845647,
				"element": "C" 
			},
			{
				"x": -0.4017920304,
				"y": -2.5771251185,
				"z": 0.5791744151,
				"element": "N" 
			},
			{
				"x": -1.407335832,
				"y": -2.4902192853,
				"z": 1.5177858926,
				"element": "C" 
			},
			{
				"x": -2.1712845315,
				"y": -1.3346285405,
				"z": 1.1965553073,
				"element": "C" 
			},
			{
				"x": -3.270670906,
				"y": -1.0080529564,
				"z": 2.0098167861,
				"element": "C" 
			},
			{
				"x": -3.5781421466,
				"y": -1.8211551743,
				"z": 3.0948144965,
				"element": "C" 
			},
			{
				"x": -2.8068690218,
				"y": -2.9631876132,
				"z": 3.390408855,
				"element": "C" 
			},
			{
				"x": -1.712288707,
				"y": -3.3132428546,
				"z": 2.6059350318,
				"element": "C" 
			},
			{
				"x": 5.2610301609,
				"y": 1.6943862334,
				"z": 0.7713372609,
				"element": "H" 
			},
			{
				"x": 3.7583174488,
				"y": 2.6032433013,
				"z": 0.6261964308,
				"element": "H" 
			},
			{
				"x": 4.7018775804,
				"y": 2.2102382817,
				"z": -0.8181577847,
				"element": "H" 
			},
			{
				"x": 3.4052985818,
				"y": 0.1119235276,
				"z": 1.0261091073,
				"element": "H" 
			},
			{
				"x": 4.3053053541,
				"y": -0.235859894,
				"z": -0.4355201949,
				"element": "H" 
			},
			{
				"x": 1.8361034356,
				"y": 0.5870495543,
				"z": -2.923036165,
				"element": "H" 
			},
			{
				"x": 3.4897422261,
				"y": 1.0225187646,
				"z": -2.5392599134,
				"element": "H" 
			},
			{
				"x": 2.6787457264,
				"y": 3.1761923627,
				"z": -1.5351802502,
				"element": "H" 
			},
			{
				"x": 2.1802179674,
				"y": 3.0340801853,
				"z": -3.2069047127,
				"element": "H" 
			},
			{
				"x": -0.0899654123,
				"y": 2.8002435766,
				"z": -2.6705712921,
				"element": "H" 
			},
			{
				"x": 0.4344198612,
				"y": 3.7474183711,
				"z": -1.2721058238,
				"element": "H" 
			},
			{
				"x": 1.6083442813,
				"y": 2.0917985723,
				"z": 0.5264885697,
				"element": "H" 
			},
			{
				"x": 0.7423505036,
				"y": 0.5758482229,
				"z": 0.7377302082,
				"element": "H" 
			},
			{
				"x": -1.7120591767,
				"y": 2.6242277563,
				"z": -0.8778904714,
				"element": "H" 
			},
			{
				"x": -1.1944102676,
				"y": 1.992542836,
				"z": 0.6801455062,
				"element": "H" 
			},
			{
				"x": -2.0996737801,
				"y": 0.3620199472,
				"z": -1.7513967297,
				"element": "H" 
			},
			{
				"x": -3.0961551437,
				"y": 0.7123845085,
				"z": -0.3491066343,
				"element": "H" 
			},
			{
				"x": 0.5648106501,
				"y": -2.3848679914,
				"z": -1.9479388915,
				"element": "H" 
			},
			{
				"x": 0.1426328741,
				"y": -0.6888257297,
				"z": -2.1688451217,
				"element": "H" 
			},
			{
				"x": 2.6531871818,
				"y": -1.45035999,
				"z": -1.6930823797,
				"element": "H" 
			},
			{
				"x": 2.1376403131,
				"y": -1.5562999377,
				"z": -0.0225970364,
				"element": "H" 
			},
			{
				"x": 0.2805163733,
				"y": -3.3159650797,
				"z": 0.5237404283,
				"element": "H" 
			},
			{
				"x": -3.8746995296,
				"y": -0.1303360817,
				"z": 1.7953629054,
				"element": "H" 
			},
			{
				"x": -4.4261212439,
				"y": -1.5749503952,
				"z": 3.7275602827,
				"element": "H" 
			},
			{
				"x": -3.0708049085,
				"y": -3.5805425145,
				"z": 4.2442403221,
				"element": "H" 
			},
			{
				"x": -1.116735917,
				"y": -4.1935242738,
				"z": 2.8330010557,
				"element": "H" 
			}
		],
		 "valence_orbital": [ 
			{
				"type": "occ",
				"energy": -0.29377,
				"method": "rhf"
			},
			{
				"type": "occ",
				"energy": -0.25815,
				"method": "rhf"
			},
			{
				"type": "occ",
				"energy": -0.20703,
				"method": "rhf"
			},
			{
				"type": "occ",
				"energy": -0.19568,
				"method": "rhf"
			},
			{
				"type": "occ",
				"energy": -0.1839,
				"method": "rhf"
			},
			{
				"type": "unocc",
				"energy": 0.00107,
				"method": "rhf"
			},
			{
				"type": "unocc",
				"energy": 0.03743,
				"method": "rhf"
			},
			{
				"type": "unocc",
				"energy": 0.06861,
				"method": "rhf"
			},
			{
				"type": "unocc",
				"energy": 0.0769,
				"method": "rhf"
			},
			{
				"type": "unocc",
				"energy": 0.08691,
				"method": "rhf"
			}
		],
		"cosmo_sigma_profile": { 
			"-0.025": 0.0,
			"-0.024": 0.0,
			"-0.023": 0.0,
			"-0.022": 0.0,
			"-0.021": 0.0,
			"-0.02": 0.0,
			"-0.019": 0.0,
			"-0.018": 0.0,
			"-0.017": 0.0,
			"-0.016": 0.0,
			"-0.015": 0.161008267921,
			"-0.014": 1.01146223918,
			"-0.013": 1.3758243361,
			"-0.012": 1.17655693042,
			"-0.011": 1.04180546474,
			"-0.01": 0.920962821698,
			"-0.009": 1.78698575123,
			"-0.008": 1.44764662084,
			"-0.007": 1.53624503264,
			"-0.006": 2.7943147643,
			"-0.005": 5.49531086157,
			"-0.004": 10.6312584592,
			"-0.003": 17.1897230498,
			"-0.002": 46.1596267685,
			"-0.001": 61.2537617462,
			"0.0": 56.4246600072,
			"0.001": 41.9718780263,
			"0.002": 17.8481643316,
			"0.003": 9.10968743173,
			"0.004": 9.47818912418,
			"0.005": 12.0362016423,
			"0.006": 10.9365586865,
			"0.007": 10.8687474863,
			"0.008": 5.97463333394,
			"0.009": 0.395623367595,
			"0.01": 0.0,
			"0.011": 0.0,
			"0.012": 0.0,
			"0.013": 0.0,
			"0.014": 0.0,
			"0.015": 0.0,
			"0.016": 0.0,
			"0.017": 0.0,
			"0.018": 0.0,
			"0.019": 0.0,
			"0.02": 0.0,
			"0.021": 0.0,
			"0.022": 0.0,
			"0.023": 0.0,
			"0.024": 0.0,
			"0.025": 0.0
		}
	}
}
