{
	 "smiles": "CN1C=C(C=C1C(O)=O)S(=O)(=O)N1CCOCC1", 
	 "Tm": 519.15, 
	 "num_atms": 32, 
	 "gaussian": { 
		 "optdone": 1, 
		 "sigma_profile": "yes", 
		 "theory": "DFT", 
		 "functional": "B3LYP", 
		 "basiset": "6-31G**", 
		 "properties": { 
			 "R2extent": 6359.8629, 
			 "electric_dipole_moment_norm": 1.53790516288, 
			 "electric_quadrupole_moment_norm": 22.4859046607, 
			 "total_energy": -1273.21243257, 
			 "HOMO_LUMO_gap": 0.19889, 
			 "cosmo_polarized_energy": -24.39, 
			 "cosmo_cavitation_energy": 36.43, 
			 "cosmo_dispersion_energy": -26.24, 
			 "cosmo_repulsion_energy": 1.99, 
			 "cosmo_total_nonelectrostatic_energy": 12.18, 
			 "SMD_solvation_energy": 5.83 
		},
		"coords": [
			{
				"x": -1.2392696723,
				"y": -3.7152073781,
				"z": 2.6044007383,
				"element": "C" 
			},
			{
				"x": -0.4927800668,
				"y": -2.9320029055,
				"z": 1.618035205,
				"element": "N" 
			},
			{
				"x": -1.0128707123,
				"y": -1.8937403132,
				"z": 0.9168050842,
				"element": "C" 
			},
			{
				"x": -0.0270199232,
				"y": -1.3882853302,
				"z": 0.081309315,
				"element": "C" 
			},
			{
				"x": 1.1379142927,
				"y": -2.1626221659,
				"z": 0.2743609579,
				"element": "C" 
			},
			{
				"x": 0.8314321282,
				"y": -3.1190542638,
				"z": 1.2330079326,
				"element": "C" 
			},
			{
				"x": 1.6805537319,
				"y": -4.1558932685,
				"z": 1.8441576327,
				"element": "C" 
			},
			{
				"x": 2.8617629787,
				"y": -4.3941340399,
				"z": 1.2187496782,
				"element": "O" 
			},
			{
				"x": 1.3880817481,
				"y": -4.7725396585,
				"z": 2.8464413095,
				"element": "O" 
			},
			{
				"x": -0.2849614176,
				"y": -0.0789396937,
				"z": -1.0684233092,
				"element": "S" 
			},
			{
				"x": -1.6507520876,
				"y": 0.4117793387,
				"z": -0.8252573062,
				"element": "O" 
			},
			{
				"x": 0.1213554981,
				"y": -0.5024878855,
				"z": -2.4113557063,
				"element": "O" 
			},
			{
				"x": 0.876915342,
				"y": 1.0454903072,
				"z": -0.5819553581,
				"element": "N" 
			},
			{
				"x": 0.5984271675,
				"y": 1.7916139913,
				"z": 0.6704278242,
				"element": "C" 
			},
			{
				"x": 0.6982108167,
				"y": 3.2954077274,
				"z": 0.4253893855,
				"element": "C" 
			},
			{
				"x": 1.9669077005,
				"y": 3.6806059048,
				"z": -0.0877514004,
				"element": "O" 
			},
			{
				"x": 2.5251950968,
				"y": 2.7701296297,
				"z": -1.0359206507,
				"element": "C" 
			},
			{
				"x": 1.490351378,
				"y": 1.845016536,
				"z": -1.6655915924,
				"element": "C" 
			},
			{
				"x": -1.2294122604,
				"y": -4.7723922957,
				"z": 2.3363410008,
				"element": "H" 
			},
			{
				"x": -0.7909530586,
				"y": -3.6106825382,
				"z": 3.5923492156,
				"element": "H" 
			},
			{
				"x": -2.2663247416,
				"y": -3.3477701602,
				"z": 2.6145558288,
				"element": "H" 
			},
			{
				"x": -2.0367043133,
				"y": -1.5730572633,
				"z": 1.0355211996,
				"element": "H" 
			},
			{
				"x": 2.0902567618,
				"y": -2.0007903272,
				"z": -0.2112353564,
				"element": "H" 
			},
			{
				"x": 2.889901253,
				"y": -3.946070535,
				"z": 0.3618078335,
				"element": "H" 
			},
			{
				"x": -0.4068212778,
				"y": 1.5557277693,
				"z": 1.0310070837,
				"element": "H" 
			},
			{
				"x": 1.3214278069,
				"y": 1.4874227306,
				"z": 1.4364326532,
				"element": "H" 
			},
			{
				"x": -0.1108301975,
				"y": 3.609476659,
				"z": -0.2512428688,
				"element": "H" 
			},
			{
				"x": 0.569137335,
				"y": 3.8331905637,
				"z": 1.3697564817,
				"element": "H" 
			},
			{
				"x": 3.3029232453,
				"y": 2.1630479267,
				"z": -0.5487932703,
				"element": "H" 
			},
			{
				"x": 3.0043829577,
				"y": 3.3658627679,
				"z": -1.8208984592,
				"element": "H" 
			},
			{
				"x": 1.9720166146,
				"y": 1.1678660637,
				"z": -2.3727647041,
				"element": "H" 
			},
			{
				"x": 0.7487458756,
				"y": 2.4348321066,
				"z": -2.2212663781,
				"element": "H" 
			}
		],
		 "valence_orbital": [ 
			{
				"type": "occ",
				"energy": -0.28679,
				"method": "rhf"
			},
			{
				"type": "occ",
				"energy": -0.28324,
				"method": "rhf"
			},
			{
				"type": "occ",
				"energy": -0.26449,
				"method": "rhf"
			},
			{
				"type": "occ",
				"energy": -0.25774,
				"method": "rhf"
			},
			{
				"type": "occ",
				"energy": -0.24769,
				"method": "rhf"
			},
			{
				"type": "unocc",
				"energy": -0.0488,
				"method": "rhf"
			},
			{
				"type": "unocc",
				"energy": -0.00562,
				"method": "rhf"
			},
			{
				"type": "unocc",
				"energy": 0.04725,
				"method": "rhf"
			},
			{
				"type": "unocc",
				"energy": 0.05988,
				"method": "rhf"
			},
			{
				"type": "unocc",
				"energy": 0.07461,
				"method": "rhf"
			}
		],
		"cosmo_sigma_profile": { 
			"-0.025": 0.0,
			"-0.024": 0.0,
			"-0.023": 0.0,
			"-0.022": 0.0,
			"-0.021": 0.0,
			"-0.02": 0.0,
			"-0.019": 0.178774376614,
			"-0.018": 1.48910479381,
			"-0.017": 0.879818142115,
			"-0.016": 1.38706815011,
			"-0.015": 1.15623813261,
			"-0.014": 0.829195120378,
			"-0.013": 0.930610877605,
			"-0.012": 1.50002193765,
			"-0.011": 1.42942956262,
			"-0.01": 3.24340736085,
			"-0.009": 3.62651909227,
			"-0.008": 4.52897478317,
			"-0.007": 3.99194155142,
			"-0.006": 15.7987248528,
			"-0.005": 29.0711441655,
			"-0.004": 31.5804790078,
			"-0.003": 27.4938660274,
			"-0.002": 17.7228937149,
			"-0.001": 13.8841376861,
			"0.0": 14.3940976422,
			"0.001": 12.4602239324,
			"0.002": 10.3089561133,
			"0.003": 9.55339082715,
			"0.004": 7.54092288145,
			"0.005": 6.47731105814,
			"0.006": 5.91658294759,
			"0.007": 5.84385425267,
			"0.008": 7.9523933495,
			"0.009": 7.23437807393,
			"0.01": 11.7768677779,
			"0.011": 14.0840429943,
			"0.012": 10.1248802075,
			"0.013": 3.11631296423,
			"0.014": 0.28135193806,
			"0.015": 0.0,
			"0.016": 0.0,
			"0.017": 0.0,
			"0.018": 0.0,
			"0.019": 0.0,
			"0.02": 0.0,
			"0.021": 0.0,
			"0.022": 0.0,
			"0.023": 0.0,
			"0.024": 0.0,
			"0.025": 0.0
		}
	}
}
