{
	 "smiles": "OC1=NC(=NN1C1=CC=CC=C1)C1CCCCC1", 
	 "Tm": 470.15, 
	 "num_atms": 35, 
	 "gaussian": { 
		 "optdone": 1, 
		 "sigma_profile": "yes", 
		 "theory": "DFT", 
		 "functional": "B3LYP", 
		 "basiset": "6-31G**", 
		 "properties": { 
			 "R2extent": 7410.1649, 
			 "electric_dipole_moment_norm": 1.49763861462, 
			 "electric_quadrupole_moment_norm": 9.37273462123, 
			 "total_energy": -783.215614455, 
			 "HOMO_LUMO_gap": 0.20398, 
			 "cosmo_polarized_energy": -9.72, 
			 "cosmo_cavitation_energy": 36.35, 
			 "cosmo_dispersion_energy": -26.83, 
			 "cosmo_repulsion_energy": 2.08, 
			 "cosmo_total_nonelectrostatic_energy": 11.59, 
			 "SMD_solvation_energy": 4.14 
		},
		"coords": [
			{
				"x": -2.2750771779,
				"y": 2.1659728241,
				"z": 0.0093871027,
				"element": "O" 
			},
			{
				"x": -1.1106925217,
				"y": 1.7090356867,
				"z": -0.4763643974,
				"element": "C" 
			},
			{
				"x": -0.648759917,
				"y": 0.4879072455,
				"z": -0.3290204404,
				"element": "N" 
			},
			{
				"x": 0.5589887239,
				"y": 0.5415832972,
				"z": -0.9852189837,
				"element": "C" 
			},
			{
				"x": 0.8434173544,
				"y": 1.7186731258,
				"z": -1.5114695828,
				"element": "N" 
			},
			{
				"x": -0.2563794468,
				"y": 2.4917408685,
				"z": -1.1850224506,
				"element": "N" 
			},
			{
				"x": -0.311508207,
				"y": 3.8649157457,
				"z": -1.5518198349,
				"element": "C" 
			},
			{
				"x": -1.5095961899,
				"y": 4.5874007684,
				"z": -1.490005409,
				"element": "C" 
			},
			{
				"x": -1.5152801713,
				"y": 5.9323415326,
				"z": -1.8606751224,
				"element": "C" 
			},
			{
				"x": -0.3484464767,
				"y": 6.5582719304,
				"z": -2.2994062578,
				"element": "C" 
			},
			{
				"x": 0.837977922,
				"y": 5.8247561373,
				"z": -2.3659465698,
				"element": "C" 
			},
			{
				"x": 0.8653156565,
				"y": 4.4830697034,
				"z": -1.9933268239,
				"element": "C" 
			},
			{
				"x": 1.4888923728,
				"y": -0.6306448556,
				"z": -1.1344759731,
				"element": "C" 
			},
			{
				"x": 0.995470339,
				"y": -1.6174797365,
				"z": -2.2232866897,
				"element": "C" 
			},
			{
				"x": -0.262033803,
				"y": -2.4109133648,
				"z": -1.8178307938,
				"element": "C" 
			},
			{
				"x": -0.2236262773,
				"y": -2.8718917313,
				"z": -0.3363501829,
				"element": "C" 
			},
			{
				"x": 1.1981388032,
				"y": -2.8149292492,
				"z": 0.2380415831,
				"element": "C" 
			},
			{
				"x": 1.7416168348,
				"y": -1.3734737725,
				"z": 0.219987138,
				"element": "C" 
			},
			{
				"x": -2.6723585517,
				"y": 1.4233705392,
				"z": 0.4893476015,
				"element": "H" 
			},
			{
				"x": -2.4223302715,
				"y": 4.1099180598,
				"z": -1.1598203543,
				"element": "H" 
			},
			{
				"x": -2.4465254388,
				"y": 6.4889543006,
				"z": -1.8096538336,
				"element": "H" 
			},
			{
				"x": -0.3634121824,
				"y": 7.6047490238,
				"z": -2.5883686265,
				"element": "H" 
			},
			{
				"x": 1.7536644895,
				"y": 6.2982937914,
				"z": -2.7078990352,
				"element": "H" 
			},
			{
				"x": 1.7768466611,
				"y": 3.901320315,
				"z": -2.0427186683,
				"element": "H" 
			},
			{
				"x": 2.4295353775,
				"y": -0.1992552473,
				"z": -1.4912726169,
				"element": "H" 
			},
			{
				"x": 1.8174411549,
				"y": -2.3153171616,
				"z": -2.4248786167,
				"element": "H" 
			},
			{
				"x": 0.8197178922,
				"y": -1.0742452282,
				"z": -3.1583320762,
				"element": "H" 
			},
			{
				"x": -1.1538536429,
				"y": -1.7982228404,
				"z": -1.9837252396,
				"element": "H" 
			},
			{
				"x": -0.3519239692,
				"y": -3.276427321,
				"z": -2.4852017681,
				"element": "H" 
			},
			{
				"x": -0.8602622148,
				"y": -2.2106802923,
				"z": 0.2617426397,
				"element": "H" 
			},
			{
				"x": -0.6348208357,
				"y": -3.8832557892,
				"z": -0.2401835497,
				"element": "H" 
			},
			{
				"x": 1.8593843102,
				"y": -3.4770103038,
				"z": -0.3368526556,
				"element": "H" 
			},
			{
				"x": 1.2105655485,
				"y": -3.1931025905,
				"z": 1.2670930406,
				"element": "H" 
			},
			{
				"x": 1.2662125401,
				"y": -0.8112384351,
				"z": 1.0304021924,
				"element": "H" 
			},
			{
				"x": 2.8160013149,
				"y": -1.3805869763,
				"z": 0.4349252547,
				"element": "H" 
			}
		],
		 "valence_orbital": [ 
			{
				"type": "occ",
				"energy": -0.28857,
				"method": "rhf"
			},
			{
				"type": "occ",
				"energy": -0.27497,
				"method": "rhf"
			},
			{
				"type": "occ",
				"energy": -0.25558,
				"method": "rhf"
			},
			{
				"type": "occ",
				"energy": -0.25155,
				"method": "rhf"
			},
			{
				"type": "occ",
				"energy": -0.22348,
				"method": "rhf"
			},
			{
				"type": "unocc",
				"energy": -0.0195,
				"method": "rhf"
			},
			{
				"type": "unocc",
				"energy": -0.00485,
				"method": "rhf"
			},
			{
				"type": "unocc",
				"energy": 0.04247,
				"method": "rhf"
			},
			{
				"type": "unocc",
				"energy": 0.05904,
				"method": "rhf"
			},
			{
				"type": "unocc",
				"energy": 0.065,
				"method": "rhf"
			}
		],
		"cosmo_sigma_profile": { 
			"-0.025": 0.0,
			"-0.024": 0.0,
			"-0.023": 0.0,
			"-0.022": 0.0,
			"-0.021": 0.0,
			"-0.02": 0.092185910123,
			"-0.019": 0.768682841377,
			"-0.018": 0.85537760426,
			"-0.017": 1.07619635906,
			"-0.016": 0.779270625147,
			"-0.015": 0.662189383896,
			"-0.014": 0.42309802071,
			"-0.013": 0.376744062998,
			"-0.012": 1.16360465099,
			"-0.011": 0.876778476766,
			"-0.01": 0.342544272272,
			"-0.009": 0.352051523726,
			"-0.008": 1.06370751939,
			"-0.007": 1.5197101605,
			"-0.006": 6.11239371188,
			"-0.005": 9.25612675828,
			"-0.004": 11.6013202677,
			"-0.003": 17.1083350824,
			"-0.002": 33.5292497412,
			"-0.001": 34.9903819803,
			"0.0": 38.8324781603,
			"0.001": 35.4158163044,
			"0.002": 23.3893225704,
			"0.003": 16.1156642799,
			"0.004": 16.5153606222,
			"0.005": 13.5900687231,
			"0.006": 5.95233642619,
			"0.007": 3.58279613926,
			"0.008": 3.23066984377,
			"0.009": 2.65004493776,
			"0.01": 1.63162136197,
			"0.011": 1.4294211018,
			"0.012": 0.787353007083,
			"0.013": 0.325653612817,
			"0.014": 0.0,
			"0.015": 0.0,
			"0.016": 0.0,
			"0.017": 0.0,
			"0.018": 0.0,
			"0.019": 0.0,
			"0.02": 0.0,
			"0.021": 0.0,
			"0.022": 0.0,
			"0.023": 0.0,
			"0.024": 0.0,
			"0.025": 0.0
		}
	}
}
