{
	 "smiles": "C1=CC2=CC=C(N=C2C=C1)C1=NC2=CC=CC=C2C=C1", 
	 "Tm": 468.15, 
	 "num_atms": 32, 
	 "gaussian": { 
		 "optdone": 1, 
		 "sigma_profile": "yes", 
		 "theory": "DFT", 
		 "functional": "B3LYP", 
		 "basiset": "6-31G**", 
		 "properties": { 
			 "R2extent": 7604.8989, 
			 "electric_dipole_moment_norm": 0.0, 
			 "electric_quadrupole_moment_norm": 19.9135860344, 
			 "total_energy": -802.681244113, 
			 "HOMO_LUMO_gap": 0.15636, 
			 "cosmo_polarized_energy": -9.04, 
			 "cosmo_cavitation_energy": 36.29, 
			 "cosmo_dispersion_energy": -26.96, 
			 "cosmo_repulsion_energy": 1.99, 
			 "cosmo_total_nonelectrostatic_energy": 11.32, 
			 "SMD_solvation_energy": 3.43 
		},
		"coords": [
			{
				"x": 2.3172858088,
				"y": -5.1597224679,
				"z": -1.8363602418,
				"element": "C" 
			},
			{
				"x": 1.379537584,
				"y": -4.8951430053,
				"z": -0.8622992863,
				"element": "C" 
			},
			{
				"x": 1.0861417313,
				"y": -3.5582403854,
				"z": -0.4908717693,
				"element": "C" 
			},
			{
				"x": 0.1339590383,
				"y": -3.2086608206,
				"z": 0.5025194406,
				"element": "C" 
			},
			{
				"x": -0.0878400377,
				"y": -1.888633814,
				"z": 0.799800922,
				"element": "C" 
			},
			{
				"x": 0.6492461782,
				"y": -0.8903904669,
				"z": 0.0983044775,
				"element": "C" 
			},
			{
				"x": 1.5448973255,
				"y": -1.1778369055,
				"z": -0.833914507,
				"element": "N" 
			},
			{
				"x": 1.7757863861,
				"y": -2.4840879779,
				"z": -1.1397753619,
				"element": "C" 
			},
			{
				"x": 2.7376026832,
				"y": -2.7890869371,
				"z": -2.140635621,
				"element": "C" 
			},
			{
				"x": 3.0007579659,
				"y": -4.0973699752,
				"z": -2.4795778612,
				"element": "C" 
			},
			{
				"x": 0.4242032707,
				"y": 0.5516529867,
				"z": 0.4054219169,
				"element": "C" 
			},
			{
				"x": -0.4714430012,
				"y": 0.8390992281,
				"z": 1.3376450556,
				"element": "N" 
			},
			{
				"x": -0.7023306109,
				"y": 2.1453506692,
				"z": 1.6435075277,
				"element": "C" 
			},
			{
				"x": -1.6641387648,
				"y": 2.4503495306,
				"z": 2.6443737896,
				"element": "C" 
			},
			{
				"x": -1.9272898569,
				"y": 3.758632548,
				"z": 2.9833202883,
				"element": "C" 
			},
			{
				"x": -1.2438209192,
				"y": 4.8209852732,
				"z": 2.3400988503,
				"element": "C" 
			},
			{
				"x": -0.3060803951,
				"y": 4.5564052968,
				"z": 1.3660304897,
				"element": "C" 
			},
			{
				"x": -0.0126890093,
				"y": 3.2195031779,
				"z": 0.9945988743,
				"element": "C" 
			},
			{
				"x": 0.9394867687,
				"y": 2.869923309,
				"z": 0.0012013477,
				"element": "C" 
			},
			{
				"x": 1.161285108,
				"y": 1.5498963178,
				"z": -0.2960802103,
				"element": "C" 
			},
			{
				"x": 2.5372104415,
				"y": -6.1858459905,
				"z": -2.1160502943,
				"element": "H" 
			},
			{
				"x": 0.8524180803,
				"y": -5.7061466635,
				"z": -0.3657816893,
				"element": "H" 
			},
			{
				"x": -0.4112400455,
				"y": -3.9953231405,
				"z": 1.0188290405,
				"element": "H" 
			},
			{
				"x": -0.8030237423,
				"y": -1.57279053,
				"z": 1.5487932889,
				"element": "H" 
			},
			{
				"x": 3.2476804877,
				"y": -1.9589728114,
				"z": -2.6186738561,
				"element": "H" 
			},
			{
				"x": 3.7372497986,
				"y": -4.3227441776,
				"z": -3.2455226729,
				"element": "H" 
			},
			{
				"x": -2.1742148401,
				"y": 1.6202356003,
				"z": 3.1224144372,
				"element": "H" 
			},
			{
				"x": -2.6637759876,
				"y": 3.9840069107,
				"z": 3.7492705772,
				"element": "H" 
			},
			{
				"x": -1.4637420916,
				"y": 5.8471084149,
				"z": 2.6197934783,
				"element": "H" 
			},
			{
				"x": 0.2210353446,
				"y": 5.3674089951,
				"z": 0.8695088434,
				"element": "H" 
			},
			{
				"x": 1.4846806536,
				"y": 3.6565859543,
				"z": -0.5151133181,
				"element": "H" 
			},
			{
				"x": 1.8764646471,
				"y": 1.2340518567,
				"z": -1.045075956,
				"element": "H" 
			}
		],
		 "valence_orbital": [ 
			{
				"type": "occ",
				"energy": -0.26431,
				"method": "rhf"
			},
			{
				"type": "occ",
				"energy": -0.24652,
				"method": "rhf"
			},
			{
				"type": "occ",
				"energy": -0.23841,
				"method": "rhf"
			},
			{
				"type": "occ",
				"energy": -0.23078,
				"method": "rhf"
			},
			{
				"type": "occ",
				"energy": -0.22318,
				"method": "rhf"
			},
			{
				"type": "unocc",
				"energy": -0.06682,
				"method": "rhf"
			},
			{
				"type": "unocc",
				"energy": -0.04571,
				"method": "rhf"
			},
			{
				"type": "unocc",
				"energy": -0.02217,
				"method": "rhf"
			},
			{
				"type": "unocc",
				"energy": 0.0031,
				"method": "rhf"
			},
			{
				"type": "unocc",
				"energy": 0.02298,
				"method": "rhf"
			}
		],
		"cosmo_sigma_profile": { 
			"-0.025": 0.0,
			"-0.024": 0.0,
			"-0.023": 0.0,
			"-0.022": 0.0,
			"-0.021": 0.0,
			"-0.02": 0.0,
			"-0.019": 0.0,
			"-0.018": 0.0,
			"-0.017": 0.0,
			"-0.016": 0.0,
			"-0.015": 0.0,
			"-0.014": 0.0,
			"-0.013": 0.0,
			"-0.012": 0.0,
			"-0.011": 0.0,
			"-0.01": 0.0,
			"-0.009": 0.0,
			"-0.008": 0.0616597778711,
			"-0.007": 8.15612280773,
			"-0.006": 20.1541339939,
			"-0.005": 21.570804708,
			"-0.004": 24.6129214296,
			"-0.003": 15.9830126341,
			"-0.002": 16.6237282134,
			"-0.001": 11.7801339337,
			"0.0": 17.6655207287,
			"0.001": 32.2410028051,
			"0.002": 40.8203894874,
			"0.003": 34.7834358608,
			"0.004": 24.43100529,
			"0.005": 9.10118854076,
			"0.006": 2.26492908649,
			"0.007": 5.06786521697,
			"0.008": 3.01497878394,
			"0.009": 2.98693938729,
			"0.01": 1.99093677146,
			"0.011": 0.0197723468618,
			"0.012": 0.0,
			"0.013": 0.0,
			"0.014": 0.0,
			"0.015": 0.0,
			"0.016": 0.0,
			"0.017": 0.0,
			"0.018": 0.0,
			"0.019": 0.0,
			"0.02": 0.0,
			"0.021": 0.0,
			"0.022": 0.0,
			"0.023": 0.0,
			"0.024": 0.0,
			"0.025": 0.0
		}
	}
}
