{
	 "smiles": "CN=NC", 
	 "Tm": 195.15, 
	 "num_atms": 10, 
	 "gaussian": { 
		 "optdone": 1, 
		 "sigma_profile": "yes", 
		 "theory": "DFT", 
		 "functional": "B3LYP", 
		 "basiset": "6-31G**", 
		 "properties": { 
			 "R2extent": 1061.5836, 
			 "electric_dipole_moment_norm": 0.000244948974278, 
			 "electric_quadrupole_moment_norm": 4.64330976244, 
			 "total_energy": -189.272553752, 
			 "HOMO_LUMO_gap": 0.1764, 
			 "cosmo_polarized_energy": -4.0, 
			 "cosmo_cavitation_energy": 13.54, 
			 "cosmo_dispersion_energy": -10.1, 
			 "cosmo_repulsion_energy": 0.95, 
			 "cosmo_total_nonelectrostatic_energy": 4.38, 
			 "SMD_solvation_energy": -0.98 
		},
		"coords": [
			{
				"x": 0.1485249327,
				"y": -0.3649175767,
				"z": -2.2345645575,
				"element": "C" 
			},
			{
				"x": 1.3726046366,
				"y": 0.4480302349,
				"z": -2.0758125054,
				"element": "N" 
			},
			{
				"x": 2.2452948417,
				"y": -0.1524064114,
				"z": -1.4272668145,
				"element": "N" 
			},
			{
				"x": 3.4694628334,
				"y": 0.6604503308,
				"z": -1.2687331383,
				"element": "C" 
			},
			{
				"x": -0.5797912158,
				"y": 0.2102586223,
				"z": -2.8088731441,
				"element": "H" 
			},
			{
				"x": 0.376859064,
				"y": -1.2983299163,
				"z": -2.7594903048,
				"element": "H" 
			},
			{
				"x": -0.2710542014,
				"y": -0.6166136515,
				"z": -1.2550023065,
				"element": "H" 
			},
			{
				"x": 3.2412771111,
				"y": 1.5938392192,
				"z": -0.7437026577,
				"element": "H" 
			},
			{
				"x": 4.1978536519,
				"y": 0.0852001771,
				"z": -0.6945940988,
				"element": "H" 
			},
			{
				"x": 3.8888683459,
				"y": 0.9121889717,
				"z": -2.2483604725,
				"element": "H" 
			}
		],
		 "valence_orbital": [ 
			{
				"type": "occ",
				"energy": -0.4175,
				"method": "rhf"
			},
			{
				"type": "occ",
				"energy": -0.38557,
				"method": "rhf"
			},
			{
				"type": "occ",
				"energy": -0.35455,
				"method": "rhf"
			},
			{
				"type": "occ",
				"energy": -0.31923,
				"method": "rhf"
			},
			{
				"type": "occ",
				"energy": -0.21695,
				"method": "rhf"
			},
			{
				"type": "unocc",
				"energy": -0.04055,
				"method": "rhf"
			},
			{
				"type": "unocc",
				"energy": 0.12296,
				"method": "rhf"
			},
			{
				"type": "unocc",
				"energy": 0.12434,
				"method": "rhf"
			},
			{
				"type": "unocc",
				"energy": 0.16076,
				"method": "rhf"
			},
			{
				"type": "unocc",
				"energy": 0.16181,
				"method": "rhf"
			}
		],
		"cosmo_sigma_profile": { 
			"-0.025": 0.0,
			"-0.024": 0.0,
			"-0.023": 0.0,
			"-0.022": 0.0,
			"-0.021": 0.0,
			"-0.02": 0.0,
			"-0.019": 0.0,
			"-0.018": 0.0,
			"-0.017": 0.0,
			"-0.016": 0.0,
			"-0.015": 0.0,
			"-0.014": 0.0,
			"-0.013": 0.0,
			"-0.012": 0.0,
			"-0.011": 0.0,
			"-0.01": 0.0,
			"-0.009": 0.0,
			"-0.008": 0.0,
			"-0.007": 0.0,
			"-0.006": 1.61930163276,
			"-0.005": 10.3189708095,
			"-0.004": 11.7364790054,
			"-0.003": 11.6442896676,
			"-0.002": 17.4660360698,
			"-0.001": 14.7287261614,
			"0.0": 6.7873030499,
			"0.001": 4.56209326444,
			"0.002": 4.66310208295,
			"0.003": 3.36701805018,
			"0.004": 1.83625802864,
			"0.005": 2.49219723124,
			"0.006": 2.69580111244,
			"0.007": 1.57023097779,
			"0.008": 1.54166888317,
			"0.009": 2.4681405198,
			"0.01": 1.55190710853,
			"0.011": 1.00692737888,
			"0.012": 0.882593850416,
			"0.013": 1.84324361859,
			"0.014": 1.36582864193,
			"0.015": 0.408773280591,
			"0.016": 0.0,
			"0.017": 0.0,
			"0.018": 0.0,
			"0.019": 0.0,
			"0.02": 0.0,
			"0.021": 0.0,
			"0.022": 0.0,
			"0.023": 0.0,
			"0.024": 0.0,
			"0.025": 0.0
		}
	}
}
