{
	 "smiles": "CC1(C)CC(=O)CC(C)(C)C1", 
	 "Tm": 284.65, 
	 "num_atms": 29, 
	 "gaussian": { 
		 "optdone": 1, 
		 "sigma_profile": "yes", 
		 "theory": "DFT", 
		 "functional": "B3LYP", 
		 "basiset": "6-31G**", 
		 "properties": { 
			 "R2extent": 2070.6793, 
			 "electric_dipole_moment_norm": 2.99687159885, 
			 "electric_quadrupole_moment_norm": 5.29863571497, 
			 "total_energy": -467.158201936, 
			 "HOMO_LUMO_gap": 0.22101, 
			 "cosmo_polarized_energy": -7.08, 
			 "cosmo_cavitation_energy": 28.08, 
			 "cosmo_dispersion_energy": -19.68, 
			 "cosmo_repulsion_energy": 1.54, 
			 "cosmo_total_nonelectrostatic_energy": 9.94, 
			 "SMD_solvation_energy": 5.17 
		},
		"coords": [
			{
				"x": 0.1296420204,
				"y": 1.2526567665,
				"z": -2.6708968301,
				"element": "C" 
			},
			{
				"x": -0.2156837819,
				"y": 0.7392799614,
				"z": -1.2586389512,
				"element": "C" 
			},
			{
				"x": -0.0597890389,
				"y": 1.9200222007,
				"z": -0.2763975523,
				"element": "C" 
			},
			{
				"x": 0.7803195754,
				"y": -0.3917312183,
				"z": -0.8738017784,
				"element": "C" 
			},
			{
				"x": 0.3235146703,
				"y": -1.1632488698,
				"z": 0.3540655909,
				"element": "C" 
			},
			{
				"x": 1.0021305272,
				"y": -1.2670207499,
				"z": 1.3596756183,
				"element": "O" 
			},
			{
				"x": -1.0609976287,
				"y": -1.7782524882,
				"z": 0.2257123058,
				"element": "C" 
			},
			{
				"x": -2.1454431531,
				"y": -0.7135357147,
				"z": -0.1048097509,
				"element": "C" 
			},
			{
				"x": -3.4392061186,
				"y": -1.4321936601,
				"z": -0.5372440767,
				"element": "C" 
			},
			{
				"x": -2.463712774,
				"y": 0.1089725827,
				"z": 1.162249379,
				"element": "C" 
			},
			{
				"x": -1.6577258978,
				"y": 0.1597706503,
				"z": -1.2949150515,
				"element": "C" 
			},
			{
				"x": -0.541627093,
				"y": 2.0674208589,
				"z": -2.9659848441,
				"element": "H" 
			},
			{
				"x": 0.0405257399,
				"y": 0.4572311609,
				"z": -3.4192185208,
				"element": "H" 
			},
			{
				"x": 1.1551155969,
				"y": 1.6365628196,
				"z": -2.7080050522,
				"element": "H" 
			},
			{
				"x": -0.1102419319,
				"y": 1.6136131896,
				"z": 0.7701035042,
				"element": "H" 
			},
			{
				"x": -0.8339777774,
				"y": 2.6763200942,
				"z": -0.4461069076,
				"element": "H" 
			},
			{
				"x": 0.9135420895,
				"y": 2.4016867617,
				"z": -0.4213433654,
				"element": "H" 
			},
			{
				"x": 0.8448496744,
				"y": -1.1037308158,
				"z": -1.7093232758,
				"element": "H" 
			},
			{
				"x": 1.7824611271,
				"y": 0.0072782202,
				"z": -0.6916102982,
				"element": "H" 
			},
			{
				"x": -1.0254217945,
				"y": -2.5110751776,
				"z": -0.5933638572,
				"element": "H" 
			},
			{
				"x": -1.2998245944,
				"y": -2.3144167195,
				"z": 1.1488489113,
				"element": "H" 
			},
			{
				"x": -3.2794352109,
				"y": -2.0389453332,
				"z": -1.4355433489,
				"element": "H" 
			},
			{
				"x": -4.2331703098,
				"y": -0.709325748,
				"z": -0.7576951374,
				"element": "H" 
			},
			{
				"x": -3.8031510311,
				"y": -2.0944297826,
				"z": 0.256064045,
				"element": "H" 
			},
			{
				"x": -1.5709909099,
				"y": 0.5106368852,
				"z": 1.6453123521,
				"element": "H" 
			},
			{
				"x": -3.1294600046,
				"y": 0.9471019957,
				"z": 0.9288826465,
				"element": "H" 
			},
			{
				"x": -2.9696658832,
				"y": -0.5222476522,
				"z": 1.9011416372,
				"element": "H" 
			},
			{
				"x": -1.725203546,
				"y": -0.4662243814,
				"z": -2.1959323009,
				"element": "H" 
			},
			{
				"x": -2.3689725412,
				"y": 0.9822241636,
				"z": -1.4490250906,
				"element": "H" 
			}
		],
		 "valence_orbital": [ 
			{
				"type": "occ",
				"energy": -0.3296,
				"method": "rhf"
			},
			{
				"type": "occ",
				"energy": -0.31799,
				"method": "rhf"
			},
			{
				"type": "occ",
				"energy": -0.31018,
				"method": "rhf"
			},
			{
				"type": "occ",
				"energy": -0.30669,
				"method": "rhf"
			},
			{
				"type": "occ",
				"energy": -0.23236,
				"method": "rhf"
			},
			{
				"type": "unocc",
				"energy": -0.01135,
				"method": "rhf"
			},
			{
				"type": "unocc",
				"energy": 0.06663,
				"method": "rhf"
			},
			{
				"type": "unocc",
				"energy": 0.09984,
				"method": "rhf"
			},
			{
				"type": "unocc",
				"energy": 0.11156,
				"method": "rhf"
			},
			{
				"type": "unocc",
				"energy": 0.11815,
				"method": "rhf"
			}
		],
		"cosmo_sigma_profile": { 
			"-0.025": 0.0,
			"-0.024": 0.0,
			"-0.023": 0.0,
			"-0.022": 0.0,
			"-0.021": 0.0,
			"-0.02": 0.0,
			"-0.019": 0.0,
			"-0.018": 0.0,
			"-0.017": 0.0,
			"-0.016": 0.0,
			"-0.015": 0.0,
			"-0.014": 0.0,
			"-0.013": 0.0,
			"-0.012": 0.0,
			"-0.011": 0.0,
			"-0.01": 0.0,
			"-0.009": 0.0,
			"-0.008": 0.0,
			"-0.007": 0.0422155474321,
			"-0.006": 1.68499579778,
			"-0.005": 5.42922123663,
			"-0.004": 9.01699205467,
			"-0.003": 29.4670269033,
			"-0.002": 43.6915551445,
			"-0.001": 30.035067556,
			"0.0": 27.6678083518,
			"0.001": 33.4237104963,
			"0.002": 10.8595183229,
			"0.003": 1.8602554578,
			"0.004": 1.66603077548,
			"0.005": 1.50136948568,
			"0.006": 1.50583750915,
			"0.007": 1.43082948964,
			"0.008": 1.03227506156,
			"0.009": 1.78061971357,
			"0.01": 1.8556051747,
			"0.011": 2.63234084083,
			"0.012": 3.81543411099,
			"0.013": 3.88307722865,
			"0.014": 1.09852225163,
			"0.015": 0.0,
			"0.016": 0.0,
			"0.017": 0.0,
			"0.018": 0.0,
			"0.019": 0.0,
			"0.02": 0.0,
			"0.021": 0.0,
			"0.022": 0.0,
			"0.023": 0.0,
			"0.024": 0.0,
			"0.025": 0.0
		}
	}
}
