{
	 "smiles": "CC1=C(SC=C1S(=O)(=O)C1=CC=C(Cl)C=C1)C(O)=O", 
	 "Tm": 527.15, 
	 "num_atms": 28, 
	 "gaussian": { 
		 "optdone": 1, 
		 "sigma_profile": "yes", 
		 "theory": "DFT", 
		 "functional": "B3LYP", 
		 "basiset": "6-31G**", 
		 "properties": { 
			 "R2extent": 9171.0049, 
			 "electric_dipole_moment_norm": 3.64372937799, 
			 "electric_quadrupole_moment_norm": 35.5358414417, 
			 "total_energy": -2020.08633619, 
			 "HOMO_LUMO_gap": 0.19704, 
			 "cosmo_polarized_energy": -21.47, 
			 "cosmo_cavitation_energy": 37.56, 
			 "cosmo_dispersion_energy": -27.62, 
			 "cosmo_repulsion_energy": 2.02, 
			 "cosmo_total_nonelectrostatic_energy": 11.97, 
			 "SMD_solvation_energy": 6.44 
		},
		"coords": [
			{
				"x": 2.3682616937,
				"y": 1.8892935313,
				"z": -2.289670698,
				"element": "C" 
			},
			{
				"x": 2.7365393537,
				"y": 0.6915002999,
				"z": -1.4488958932,
				"element": "C" 
			},
			{
				"x": 3.9966472894,
				"y": 0.1410904794,
				"z": -1.3015494241,
				"element": "C" 
			},
			{
				"x": 4.0179727707,
				"y": -1.1885264176,
				"z": -0.1688417189,
				"element": "S" 
			},
			{
				"x": 2.3239423801,
				"y": -1.0537439333,
				"z": 0.0815312267,
				"element": "C" 
			},
			{
				"x": 1.7833602542,
				"y": -0.0254158129,
				"z": -0.6457899148,
				"element": "C" 
			},
			{
				"x": 0.0419211541,
				"y": 0.4135470942,
				"z": -0.6466934707,
				"element": "S" 
			},
			{
				"x": -0.476565338,
				"y": 0.1530735149,
				"z": -1.999408967,
				"element": "O" 
			},
			{
				"x": -0.0860373131,
				"y": 1.7536992304,
				"z": -0.049051093,
				"element": "O" 
			},
			{
				"x": -0.7189053782,
				"y": -0.7626842817,
				"z": 0.4764286614,
				"element": "C" 
			},
			{
				"x": -1.2258015349,
				"y": -1.9607363816,
				"z": -0.0316420815,
				"element": "C" 
			},
			{
				"x": -1.8401984019,
				"y": -2.8630301665,
				"z": 0.8346241906,
				"element": "C" 
			},
			{
				"x": -1.9387368289,
				"y": -2.5444736403,
				"z": 2.1913586706,
				"element": "C" 
			},
			{
				"x": -2.7086282858,
				"y": -3.6777359315,
				"z": 3.2808222292,
				"element": "Cl" 
			},
			{
				"x": -1.4443469924,
				"y": -1.3401005758,
				"z": 2.6984324317,
				"element": "C" 
			},
			{
				"x": -0.830561604,
				"y": -0.4390418256,
				"z": 1.8305014909,
				"element": "C" 
			},
			{
				"x": 5.3158380023,
				"y": 0.4898000015,
				"z": -1.8889306472,
				"element": "C" 
			},
			{
				"x": 5.3200711344,
				"y": 1.2281715681,
				"z": -3.0273639358,
				"element": "O" 
			},
			{
				"x": 6.3573804087,
				"y": 0.1223950308,
				"z": -1.3956740198,
				"element": "O" 
			},
			{
				"x": 1.9298786567,
				"y": 1.5832995889,
				"z": -3.2471598026,
				"element": "H" 
			},
			{
				"x": 1.6142198643,
				"y": 2.4906040227,
				"z": -1.7767320287,
				"element": "H" 
			},
			{
				"x": 3.2286317968,
				"y": 2.5363629083,
				"z": -2.4737214231,
				"element": "H" 
			},
			{
				"x": 1.8123040204,
				"y": -1.7312682242,
				"z": 0.749733182,
				"element": "H" 
			},
			{
				"x": -1.1539800323,
				"y": -2.1711029606,
				"z": -1.093305436,
				"element": "H" 
			},
			{
				"x": -2.2453630773,
				"y": -3.7981645901,
				"z": 0.4651351128,
				"element": "H" 
			},
			{
				"x": -1.5469505234,
				"y": -1.1115348509,
				"z": 3.7531277542,
				"element": "H" 
			},
			{
				"x": -0.4569522768,
				"y": 0.5130464038,
				"z": 2.1916923275,
				"element": "H" 
			},
			{
				"x": 4.4286588074,
				"y": 1.2988759185,
				"z": -3.395156723,
				"element": "H" 
			}
		],
		 "valence_orbital": [ 
			{
				"type": "occ",
				"energy": -0.29688,
				"method": "rhf"
			},
			{
				"type": "occ",
				"energy": -0.28912,
				"method": "rhf"
			},
			{
				"type": "occ",
				"energy": -0.28109,
				"method": "rhf"
			},
			{
				"type": "occ",
				"energy": -0.27645,
				"method": "rhf"
			},
			{
				"type": "occ",
				"energy": -0.27018,
				"method": "rhf"
			},
			{
				"type": "unocc",
				"energy": -0.07314,
				"method": "rhf"
			},
			{
				"type": "unocc",
				"energy": -0.06444,
				"method": "rhf"
			},
			{
				"type": "unocc",
				"energy": -0.04587,
				"method": "rhf"
			},
			{
				"type": "unocc",
				"energy": -0.01734,
				"method": "rhf"
			},
			{
				"type": "unocc",
				"energy": 0.00227,
				"method": "rhf"
			}
		],
		"cosmo_sigma_profile": { 
			"-0.025": 0.0,
			"-0.024": 0.0,
			"-0.023": 0.0,
			"-0.022": 0.0,
			"-0.021": 0.0,
			"-0.02": 0.0,
			"-0.019": 0.0,
			"-0.018": 0.129753138287,
			"-0.017": 0.791878327191,
			"-0.016": 1.07700771624,
			"-0.015": 1.28154727025,
			"-0.014": 0.958529694269,
			"-0.013": 0.818812844469,
			"-0.012": 0.941316599146,
			"-0.011": 2.11106726027,
			"-0.01": 2.60989719939,
			"-0.009": 3.61914157858,
			"-0.008": 10.616197793,
			"-0.007": 12.8792371872,
			"-0.006": 13.8567976926,
			"-0.005": 14.7807587974,
			"-0.004": 15.3242606515,
			"-0.003": 16.0138034517,
			"-0.002": 21.7248966861,
			"-0.001": 25.6915850243,
			"0.0": 34.3722397553,
			"0.001": 25.863042315,
			"0.002": 14.8550574683,
			"0.003": 14.1374602743,
			"0.004": 12.72793243,
			"0.005": 5.55056380162,
			"0.006": 5.03352278874,
			"0.007": 5.15855027089,
			"0.008": 6.69383321479,
			"0.009": 8.43723577664,
			"0.01": 12.9569932082,
			"0.011": 11.3716464317,
			"0.012": 3.79869332367,
			"0.013": 0.388786640841,
			"0.014": 0.0,
			"0.015": 0.0,
			"0.016": 0.0,
			"0.017": 0.0,
			"0.018": 0.0,
			"0.019": 0.0,
			"0.02": 0.0,
			"0.021": 0.0,
			"0.022": 0.0,
			"0.023": 0.0,
			"0.024": 0.0,
			"0.025": 0.0
		}
	}
}
