{
	 "smiles": "CC(C)(C)OC(=O)NCC#N", 
	 "Tm": 328.15, 
	 "num_atms": 23, 
	 "gaussian": { 
		 "optdone": 1, 
		 "sigma_profile": "yes", 
		 "theory": "DFT", 
		 "functional": "B3LYP", 
		 "basiset": "6-31G**", 
		 "properties": { 
			 "R2extent": 2703.0937, 
			 "electric_dipole_moment_norm": 3.96550441432, 
			 "electric_quadrupole_moment_norm": 17.7336738128, 
			 "total_energy": -533.941564904, 
			 "HOMO_LUMO_gap": 0.29065, 
			 "cosmo_polarized_energy": -13.25, 
			 "cosmo_cavitation_energy": 27.18, 
			 "cosmo_dispersion_energy": -18.72, 
			 "cosmo_repulsion_energy": 1.55, 
			 "cosmo_total_nonelectrostatic_energy": 10.0, 
			 "SMD_solvation_energy": 6.89 
		},
		"coords": [
			{
				"x": 0.1439729974,
				"y": -0.8058777077,
				"z": -3.0253223932,
				"element": "C" 
			},
			{
				"x": 0.8975291513,
				"y": -0.0758689446,
				"z": -1.909393131,
				"element": "C" 
			},
			{
				"x": 2.2510532125,
				"y": -0.7369131905,
				"z": -1.639990975,
				"element": "C" 
			},
			{
				"x": 1.0658254405,
				"y": 1.4187645628,
				"z": -2.1988483932,
				"element": "C" 
			},
			{
				"x": 0.1925204951,
				"y": -0.2613226572,
				"z": -0.6246080489,
				"element": "O" 
			},
			{
				"x": -1.0608872151,
				"y": 0.1987665017,
				"z": -0.4492761846,
				"element": "C" 
			},
			{
				"x": -1.7559617224,
				"y": 0.7815509772,
				"z": -1.2638757535,
				"element": "O" 
			},
			{
				"x": -1.4583037058,
				"y": -0.0643695987,
				"z": 0.844880785,
				"element": "N" 
			},
			{
				"x": -2.8329545812,
				"y": 0.1463946064,
				"z": 1.2410043387,
				"element": "C" 
			},
			{
				"x": -3.6117771926,
				"y": -1.1046534108,
				"z": 1.3333420638,
				"element": "C" 
			},
			{
				"x": -4.20414857,
				"y": -2.0980660829,
				"z": 1.4266252458,
				"element": "N" 
			},
			{
				"x": 0.7286301524,
				"y": -0.7621052255,
				"z": -3.9498086947,
				"element": "H" 
			},
			{
				"x": -0.8304976877,
				"y": -0.3508280305,
				"z": -3.2042974059,
				"element": "H" 
			},
			{
				"x": 0.0019398098,
				"y": -1.858978093,
				"z": -2.7633044043,
				"element": "H" 
			},
			{
				"x": 2.1221958464,
				"y": -1.7930447759,
				"z": -1.3862625809,
				"element": "H" 
			},
			{
				"x": 2.7655519619,
				"y": -0.2421670834,
				"z": -0.8111193741,
				"element": "H" 
			},
			{
				"x": 2.8835491896,
				"y": -0.669412958,
				"z": -2.5299124239,
				"element": "H" 
			},
			{
				"x": 1.6860653091,
				"y": 1.5503663497,
				"z": -3.091224943,
				"element": "H" 
			},
			{
				"x": 0.1006622266,
				"y": 1.896647827,
				"z": -2.3689455762,
				"element": "H" 
			},
			{
				"x": 1.5666936165,
				"y": 1.9150019413,
				"z": -1.3616053463,
				"element": "H" 
			},
			{
				"x": -0.867377644,
				"y": -0.6673143913,
				"z": 1.3982547683,
				"element": "H" 
			},
			{
				"x": -3.2851767684,
				"y": 0.7959771228,
				"z": 0.4858674666,
				"element": "H" 
			},
			{
				"x": -2.8869043219,
				"y": 0.659252261,
				"z": 2.2082209606,
				"element": "H" 
			}
		],
		 "valence_orbital": [ 
			{
				"type": "occ",
				"energy": -0.33853,
				"method": "rhf"
			},
			{
				"type": "occ",
				"energy": -0.33195,
				"method": "rhf"
			},
			{
				"type": "occ",
				"energy": -0.30068,
				"method": "rhf"
			},
			{
				"type": "occ",
				"energy": -0.28129,
				"method": "rhf"
			},
			{
				"type": "occ",
				"energy": -0.27676,
				"method": "rhf"
			},
			{
				"type": "unocc",
				"energy": 0.01389,
				"method": "rhf"
			},
			{
				"type": "unocc",
				"energy": 0.03285,
				"method": "rhf"
			},
			{
				"type": "unocc",
				"energy": 0.04536,
				"method": "rhf"
			},
			{
				"type": "unocc",
				"energy": 0.07965,
				"method": "rhf"
			},
			{
				"type": "unocc",
				"energy": 0.08818,
				"method": "rhf"
			}
		],
		"cosmo_sigma_profile": { 
			"-0.025": 0.0,
			"-0.024": 0.0,
			"-0.023": 0.0,
			"-0.022": 0.0,
			"-0.021": 0.0,
			"-0.02": 0.0,
			"-0.019": 0.0,
			"-0.018": 0.0,
			"-0.017": 0.0,
			"-0.016": 0.0177749677948,
			"-0.015": 1.03793976704,
			"-0.014": 1.4521364181,
			"-0.013": 1.17446758904,
			"-0.012": 0.904009581986,
			"-0.011": 1.56800455679,
			"-0.01": 1.49402157629,
			"-0.009": 5.2889534411,
			"-0.008": 5.423364708,
			"-0.007": 5.13156899964,
			"-0.006": 4.48277402729,
			"-0.005": 3.66790778915,
			"-0.004": 14.662216487,
			"-0.003": 20.3739583886,
			"-0.002": 18.9880452725,
			"-0.001": 20.9545300023,
			"0.0": 25.7574760241,
			"0.001": 18.1894064504,
			"0.002": 8.0687243721,
			"0.003": 7.03595060268,
			"0.004": 5.22294591656,
			"0.005": 6.10824328843,
			"0.006": 5.87567137758,
			"0.007": 5.62047203685,
			"0.008": 4.34581833934,
			"0.009": 4.77208044786,
			"0.01": 4.86373828674,
			"0.011": 3.93258730613,
			"0.012": 5.32539008294,
			"0.013": 2.19148732662,
			"0.014": 0.0,
			"0.015": 0.0,
			"0.016": 0.0,
			"0.017": 0.0,
			"0.018": 0.0,
			"0.019": 0.0,
			"0.02": 0.0,
			"0.021": 0.0,
			"0.022": 0.0,
			"0.023": 0.0,
			"0.024": 0.0,
			"0.025": 0.0
		}
	}
}
