{
	 "smiles": "CC1=CC=CC2=C1NC=C2C=O", 
	 "Tm": 483.15, 
	 "num_atms": 21, 
	 "gaussian": { 
		 "optdone": 1, 
		 "sigma_profile": "yes", 
		 "theory": "DFT", 
		 "functional": "B3LYP", 
		 "basiset": "6-31G**", 
		 "properties": { 
			 "R2extent": 2175.5932, 
			 "electric_dipole_moment_norm": 4.82238307686, 
			 "electric_quadrupole_moment_norm": 16.764517546, 
			 "total_energy": -516.46673624, 
			 "HOMO_LUMO_gap": 0.1732, 
			 "cosmo_polarized_energy": -13.91, 
			 "cosmo_cavitation_energy": 25.1, 
			 "cosmo_dispersion_energy": -18.42, 
			 "cosmo_repulsion_energy": 1.45, 
			 "cosmo_total_nonelectrostatic_energy": 8.12, 
			 "SMD_solvation_energy": 5.24 
		},
		"coords": [
			{
				"x": -0.0257721013,
				"y": 3.1001306886,
				"z": 0.8992691764,
				"element": "C" 
			},
			{
				"x": 0.2564671591,
				"y": 1.8210931473,
				"z": 0.145064879,
				"element": "C" 
			},
			{
				"x": 1.2196429413,
				"y": 1.7684917866,
				"z": -0.8635758028,
				"element": "C" 
			},
			{
				"x": 1.4950339726,
				"y": 0.5869768659,
				"z": -1.5753318525,
				"element": "C" 
			},
			{
				"x": 0.8152997246,
				"y": -0.5948468307,
				"z": -1.3059204385,
				"element": "C" 
			},
			{
				"x": -0.1625675163,
				"y": -0.5894478919,
				"z": -0.2993054766,
				"element": "C" 
			},
			{
				"x": -0.4189389818,
				"y": 0.6194629505,
				"z": 0.4028324464,
				"element": "C" 
			},
			{
				"x": -1.4197393261,
				"y": 0.3441273692,
				"z": 1.3311085375,
				"element": "N" 
			},
			{
				"x": -1.7922014492,
				"y": -0.9645925574,
				"z": 1.2387804836,
				"element": "C" 
			},
			{
				"x": -1.0528067918,
				"y": -1.5904958566,
				"z": 0.2520690949,
				"element": "C" 
			},
			{
				"x": -1.1919999235,
				"y": -2.9928936141,
				"z": -0.1137788161,
				"element": "C" 
			},
			{
				"x": -1.9770378044,
				"y": -3.7720218454,
				"z": 0.4078016862,
				"element": "O" 
			},
			{
				"x": -0.8057120588,
				"y": 2.9819195709,
				"z": 1.6574994223,
				"element": "H" 
			},
			{
				"x": -0.3545663167,
				"y": 3.8951497845,
				"z": 0.2211138319,
				"element": "H" 
			},
			{
				"x": 0.8708752901,
				"y": 3.4620829284,
				"z": 1.4141189601,
				"element": "H" 
			},
			{
				"x": 1.7737519434,
				"y": 2.6723184425,
				"z": -1.1047942051,
				"element": "H" 
			},
			{
				"x": 2.255560367,
				"y": 0.6039587335,
				"z": -2.3505091315,
				"element": "H" 
			},
			{
				"x": 1.0384258407,
				"y": -1.4992116256,
				"z": -1.8633880631,
				"element": "H" 
			},
			{
				"x": -1.8136770728,
				"y": 1.0090225085,
				"z": 1.9771187586,
				"element": "H" 
			},
			{
				"x": -2.5583861064,
				"y": -1.3860215187,
				"z": 1.8730142822,
				"element": "H" 
			},
			{
				"x": -0.5191517899,
				"y": -3.3344030361,
				"z": -0.9309877728,
				"element": "H" 
			}
		],
		 "valence_orbital": [ 
			{
				"type": "occ",
				"energy": -0.33869,
				"method": "rhf"
			},
			{
				"type": "occ",
				"energy": -0.27686,
				"method": "rhf"
			},
			{
				"type": "occ",
				"energy": -0.23758,
				"method": "rhf"
			},
			{
				"type": "occ",
				"energy": -0.23315,
				"method": "rhf"
			},
			{
				"type": "occ",
				"energy": -0.2127,
				"method": "rhf"
			},
			{
				"type": "unocc",
				"energy": -0.0395,
				"method": "rhf"
			},
			{
				"type": "unocc",
				"energy": -0.0076,
				"method": "rhf"
			},
			{
				"type": "unocc",
				"energy": 0.01919,
				"method": "rhf"
			},
			{
				"type": "unocc",
				"energy": 0.05252,
				"method": "rhf"
			},
			{
				"type": "unocc",
				"energy": 0.10008,
				"method": "rhf"
			}
		],
		"cosmo_sigma_profile": { 
			"-0.025": 0.0,
			"-0.024": 0.0,
			"-0.023": 0.0,
			"-0.022": 0.0,
			"-0.021": 0.0,
			"-0.02": 0.0,
			"-0.019": 0.0,
			"-0.018": 0.0,
			"-0.017": 0.131459691926,
			"-0.016": 1.33291525735,
			"-0.015": 1.51984761132,
			"-0.014": 1.04898205101,
			"-0.013": 1.42938914088,
			"-0.012": 1.49748449616,
			"-0.011": 1.69777575161,
			"-0.01": 1.43942148654,
			"-0.009": 3.37961918387,
			"-0.008": 2.8186344829,
			"-0.007": 2.59871806667,
			"-0.006": 5.35791972974,
			"-0.005": 12.5800644486,
			"-0.004": 13.3308927061,
			"-0.003": 16.2735741542,
			"-0.002": 16.6946314004,
			"-0.001": 15.8828325271,
			"0.0": 14.2245920384,
			"0.001": 10.9831365651,
			"0.002": 12.6074768058,
			"0.003": 13.2823895989,
			"0.004": 10.549267398,
			"0.005": 9.89995345095,
			"0.006": 9.38072573029,
			"0.007": 3.41681029153,
			"0.008": 1.28653773447,
			"0.009": 2.35832656939,
			"0.01": 1.37737797228,
			"0.011": 2.26325794296,
			"0.012": 4.14002506477,
			"0.013": 4.27486415634,
			"0.014": 1.4227794189,
			"0.015": 0.160349860563,
			"0.016": 0.0,
			"0.017": 0.0,
			"0.018": 0.0,
			"0.019": 0.0,
			"0.02": 0.0,
			"0.021": 0.0,
			"0.022": 0.0,
			"0.023": 0.0,
			"0.024": 0.0,
			"0.025": 0.0
		}
	}
}
