{
	 "smiles": "ClC1=CC(NCC2CCOC2)=C(C=C1)C#N", 
	 "Tm": 388.15, 
	 "num_atms": 29, 
	 "gaussian": { 
		 "optdone": 1, 
		 "sigma_profile": "yes", 
		 "theory": "DFT", 
		 "functional": "B3LYP", 
		 "basiset": "6-31G**", 
		 "properties": { 
			 "R2extent": 4950.9094, 
			 "electric_dipole_moment_norm": 4.1984038467, 
			 "electric_quadrupole_moment_norm": 18.1828081778, 
			 "total_energy": -1110.01011605, 
			 "HOMO_LUMO_gap": 0.16986, 
			 "cosmo_polarized_energy": -12.51, 
			 "cosmo_cavitation_energy": 34.08, 
			 "cosmo_dispersion_energy": -23.85, 
			 "cosmo_repulsion_energy": 1.85, 
			 "cosmo_total_nonelectrostatic_energy": 12.08, 
			 "SMD_solvation_energy": 5.65 
		},
		"coords": [
			{
				"x": 0.6272967629,
				"y": 0.5166042331,
				"z": 4.5808674658,
				"element": "Cl" 
			},
			{
				"x": 0.0354571529,
				"y": -0.2004781473,
				"z": 3.0897511415,
				"element": "C" 
			},
			{
				"x": 0.4609104393,
				"y": 0.3395480818,
				"z": 1.8825841941,
				"element": "C" 
			},
			{
				"x": 0.0077626755,
				"y": -0.2112745839,
				"z": 0.6646569851,
				"element": "C" 
			},
			{
				"x": 0.3857905102,
				"y": 0.2973325645,
				"z": -0.5447847399,
				"element": "N" 
			},
			{
				"x": 1.2988819696,
				"y": 1.4172417676,
				"z": -0.7033082778,
				"element": "C" 
			},
			{
				"x": 1.4261530937,
				"y": 1.8348647022,
				"z": -2.1768340283,
				"element": "C" 
			},
			{
				"x": 0.0632320605,
				"y": 2.2103226985,
				"z": -2.8265807521,
				"element": "C" 
			},
			{
				"x": -0.2675048672,
				"y": 0.9975106788,
				"z": -3.7360516964,
				"element": "C" 
			},
			{
				"x": 0.6901628737,
				"y": -0.0184009873,
				"z": -3.4091105029,
				"element": "O" 
			},
			{
				"x": 1.8918659739,
				"y": 0.6734852987,
				"z": -3.0752452084,
				"element": "C" 
			},
			{
				"x": -0.8872625925,
				"y": -1.3223055827,
				"z": 0.7315854229,
				"element": "C" 
			},
			{
				"x": -1.2860013987,
				"y": -1.8410307185,
				"z": 1.971569223,
				"element": "C" 
			},
			{
				"x": -0.8340925356,
				"y": -1.2914297325,
				"z": 3.164911153,
				"element": "C" 
			},
			{
				"x": -1.3921247898,
				"y": -1.8845131795,
				"z": -0.479224965,
				"element": "C" 
			},
			{
				"x": -1.7926703813,
				"y": -2.3101462694,
				"z": -1.4874086402,
				"element": "N" 
			},
			{
				"x": 1.1468725888,
				"y": 1.1760740939,
				"z": 1.8863653177,
				"element": "H" 
			},
			{
				"x": 0.1981512028,
				"y": -0.2506955041,
				"z": -1.3794313914,
				"element": "H" 
			},
			{
				"x": 2.2995378319,
				"y": 1.1731929771,
				"z": -0.309249829,
				"element": "H" 
			},
			{
				"x": 0.929044836,
				"y": 2.2730777515,
				"z": -0.1218055065,
				"element": "H" 
			},
			{
				"x": 2.1323460788,
				"y": 2.6702949015,
				"z": -2.2169132755,
				"element": "H" 
			},
			{
				"x": -0.7063875724,
				"y": 2.3664259566,
				"z": -2.0661712122,
				"element": "H" 
			},
			{
				"x": 0.144043572,
				"y": 3.1305816775,
				"z": -3.411308034,
				"element": "H" 
			},
			{
				"x": -1.2596033488,
				"y": 0.5729438342,
				"z": -3.5674783719,
				"element": "H" 
			},
			{
				"x": -0.1748034796,
				"y": 1.2638798306,
				"z": -4.7988701604,
				"element": "H" 
			},
			{
				"x": 2.3868349497,
				"y": 1.053217698,
				"z": -3.983429033,
				"element": "H" 
			},
			{
				"x": 2.5634654109,
				"y": -0.0355248727,
				"z": -2.5827771172,
				"element": "H" 
			},
			{
				"x": -1.9664658415,
				"y": -2.6860866178,
				"z": 1.9870483352,
				"element": "H" 
			},
			{
				"x": -1.1436931756,
				"y": -1.6895125503,
				"z": 4.1229435037,
				"element": "H" 
			}
		],
		 "valence_orbital": [ 
			{
				"type": "occ",
				"energy": -0.31844,
				"method": "rhf"
			},
			{
				"type": "occ",
				"energy": -0.30548,
				"method": "rhf"
			},
			{
				"type": "occ",
				"energy": -0.26888,
				"method": "rhf"
			},
			{
				"type": "occ",
				"energy": -0.25542,
				"method": "rhf"
			},
			{
				"type": "occ",
				"energy": -0.21473,
				"method": "rhf"
			},
			{
				"type": "unocc",
				"energy": -0.04487,
				"method": "rhf"
			},
			{
				"type": "unocc",
				"energy": -0.00541,
				"method": "rhf"
			},
			{
				"type": "unocc",
				"energy": 0.02331,
				"method": "rhf"
			},
			{
				"type": "unocc",
				"energy": 0.03622,
				"method": "rhf"
			},
			{
				"type": "unocc",
				"energy": 0.0671,
				"method": "rhf"
			}
		],
		"cosmo_sigma_profile": { 
			"-0.025": 0.0,
			"-0.024": 0.0,
			"-0.023": 0.0,
			"-0.022": 0.0,
			"-0.021": 0.0,
			"-0.02": 0.0,
			"-0.019": 0.0,
			"-0.018": 0.0,
			"-0.017": 0.0,
			"-0.016": 0.0,
			"-0.015": 0.0,
			"-0.014": 0.0,
			"-0.013": 0.0,
			"-0.012": 0.0,
			"-0.011": 0.0,
			"-0.01": 0.0,
			"-0.009": 0.0,
			"-0.008": 1.89643067617,
			"-0.007": 6.11196954914,
			"-0.006": 6.97494737171,
			"-0.005": 16.7125705057,
			"-0.004": 34.9419371856,
			"-0.003": 33.482557329,
			"-0.002": 22.7472404251,
			"-0.001": 19.1125434316,
			"0.0": 19.1365699278,
			"0.001": 21.4976637979,
			"0.002": 24.1157840349,
			"0.003": 16.6940825016,
			"0.004": 14.3919684711,
			"0.005": 5.84548992467,
			"0.006": 3.93201250299,
			"0.007": 2.97901030733,
			"0.008": 4.11682019708,
			"0.009": 4.15740482111,
			"0.01": 3.82546345802,
			"0.011": 3.64260268884,
			"0.012": 3.68887561134,
			"0.013": 2.81606206552,
			"0.014": 0.397501389732,
			"0.015": 0.0,
			"0.016": 0.0,
			"0.017": 0.0,
			"0.018": 0.0,
			"0.019": 0.0,
			"0.02": 0.0,
			"0.021": 0.0,
			"0.022": 0.0,
			"0.023": 0.0,
			"0.024": 0.0,
			"0.025": 0.0
		}
	}
}
