{
	 "smiles": "OC(=O)C1=C2C=CC=CC2=CC2=C1C=CC=C2", 
	 "Tm": 489.15, 
	 "num_atms": 27, 
	 "gaussian": { 
		 "optdone": 1, 
		 "sigma_profile": "yes", 
		 "theory": "DFT", 
		 "functional": "B3LYP", 
		 "basiset": "6-31G**", 
		 "properties": { 
			 "R2extent": 3888.3312, 
			 "electric_dipole_moment_norm": 4.55585221117, 
			 "electric_quadrupole_moment_norm": 16.4730125836, 
			 "total_energy": -728.090459448, 
			 "HOMO_LUMO_gap": 0.12743, 
			 "cosmo_polarized_energy": -13.37, 
			 "cosmo_cavitation_energy": 30.55, 
			 "cosmo_dispersion_energy": -22.7, 
			 "cosmo_repulsion_energy": 1.7, 
			 "cosmo_total_nonelectrostatic_energy": 9.56, 
			 "SMD_solvation_energy": 5.56 
		},
		"coords": [
			{
				"x": 1.2501103001,
				"y": 1.7721117073,
				"z": 2.2042718367,
				"element": "O" 
			},
			{
				"x": 0.2565929645,
				"y": 0.8898902286,
				"z": 1.8973013014,
				"element": "C" 
			},
			{
				"x": -0.3793500859,
				"y": 0.3807592224,
				"z": 2.7893140025,
				"element": "O" 
			},
			{
				"x": 0.0642857023,
				"y": 0.6104000638,
				"z": 0.4304633521,
				"element": "C" 
			},
			{
				"x": 0.0453211568,
				"y": -0.7372054681,
				"z": -0.0080362511,
				"element": "C" 
			},
			{
				"x": 0.1794799665,
				"y": -1.8561230016,
				"z": 0.8770642441,
				"element": "C" 
			},
			{
				"x": 0.1858762931,
				"y": -3.1393843889,
				"z": 0.3952217285,
				"element": "C" 
			},
			{
				"x": 0.0609832697,
				"y": -3.4033291052,
				"z": -0.9983821978,
				"element": "C" 
			},
			{
				"x": -0.070475438,
				"y": -2.3649352639,
				"z": -1.87939004,
				"element": "C" 
			},
			{
				"x": -0.0838850336,
				"y": -1.010171657,
				"z": -1.42166991,
				"element": "C" 
			},
			{
				"x": -0.2176628958,
				"y": 0.0532503805,
				"z": -2.3189774689,
				"element": "C" 
			},
			{
				"x": -0.2422348973,
				"y": 1.3842413135,
				"z": -1.8927253669,
				"element": "C" 
			},
			{
				"x": -0.1016006023,
				"y": 1.6810809081,
				"z": -0.4848935231,
				"element": "C" 
			},
			{
				"x": -0.1794465725,
				"y": 3.0590285166,
				"z": -0.0895138247,
				"element": "C" 
			},
			{
				"x": -0.3487955758,
				"y": 4.0562393815,
				"z": -1.0156038573,
				"element": "C" 
			},
			{
				"x": -0.4565102524,
				"y": 3.757978141,
				"z": -2.4029571961,
				"element": "C" 
			},
			{
				"x": -0.409801268,
				"y": 2.4564864102,
				"z": -2.8235948712,
				"element": "C" 
			},
			{
				"x": 1.7091635757,
				"y": 2.0365850175,
				"z": 1.3933510825,
				"element": "H" 
			},
			{
				"x": 0.2532461369,
				"y": -1.6766743703,
				"z": 1.9417803505,
				"element": "H" 
			},
			{
				"x": 0.2833824936,
				"y": -3.9703599206,
				"z": 1.0877385625,
				"element": "H" 
			},
			{
				"x": 0.0690484711,
				"y": -4.4290347885,
				"z": -1.3549178972,
				"element": "H" 
			},
			{
				"x": -0.1678423518,
				"y": -2.5486726957,
				"z": -2.9460872035,
				"element": "H" 
			},
			{
				"x": -0.3130788706,
				"y": -0.1615633032,
				"z": -3.3809524842,
				"element": "H" 
			},
			{
				"x": -0.1245089149,
				"y": 3.3176971747,
				"z": 0.9620548607,
				"element": "H" 
			},
			{
				"x": -0.4120504008,
				"y": 5.088794475,
				"z": -0.6848481368,
				"element": "H" 
			},
			{
				"x": -0.5874305471,
				"y": 4.5637967228,
				"z": -3.1187300748,
				"element": "H" 
			},
			{
				"x": -0.5071166234,
				"y": 2.2103142995,
				"z": -3.8776810177,
				"element": "H" 
			}
		],
		 "valence_orbital": [ 
			{
				"type": "occ",
				"energy": -0.30549,
				"method": "rhf"
			},
			{
				"type": "occ",
				"energy": -0.27167,
				"method": "rhf"
			},
			{
				"type": "occ",
				"energy": -0.26407,
				"method": "rhf"
			},
			{
				"type": "occ",
				"energy": -0.2519,
				"method": "rhf"
			},
			{
				"type": "occ",
				"energy": -0.20718,
				"method": "rhf"
			},
			{
				"type": "unocc",
				"energy": -0.07975,
				"method": "rhf"
			},
			{
				"type": "unocc",
				"energy": -0.02608,
				"method": "rhf"
			},
			{
				"type": "unocc",
				"energy": -0.00905,
				"method": "rhf"
			},
			{
				"type": "unocc",
				"energy": -0.00389,
				"method": "rhf"
			},
			{
				"type": "unocc",
				"energy": 0.0442,
				"method": "rhf"
			}
		],
		"cosmo_sigma_profile": { 
			"-0.025": 0.0,
			"-0.024": 0.0,
			"-0.023": 0.0,
			"-0.022": 0.0,
			"-0.021": 0.0,
			"-0.02": 0.0,
			"-0.019": 0.0,
			"-0.018": 0.239567772209,
			"-0.017": 0.940465972463,
			"-0.016": 0.379202719031,
			"-0.015": 0.939365472991,
			"-0.014": 0.660023947628,
			"-0.013": 0.563269261896,
			"-0.012": 1.38073346957,
			"-0.011": 0.623702889666,
			"-0.01": 1.00854073388,
			"-0.009": 0.892848252992,
			"-0.008": 0.858207768997,
			"-0.007": 7.20120744981,
			"-0.006": 16.4330082166,
			"-0.005": 19.4073256181,
			"-0.004": 19.9533321974,
			"-0.003": 14.9830079343,
			"-0.002": 13.5126339392,
			"-0.001": 11.9868988042,
			"0.0": 13.1205632685,
			"0.001": 15.8037864894,
			"0.002": 25.8440220288,
			"0.003": 25.8145183917,
			"0.004": 20.735566394,
			"0.005": 6.53432004004,
			"0.006": 2.46644875247,
			"0.007": 3.01481550478,
			"0.008": 2.39203147452,
			"0.009": 3.36399023034,
			"0.01": 5.51956130569,
			"0.011": 4.87053199255,
			"0.012": 3.77654336306,
			"0.013": 0.857548634189,
			"0.014": 0.0,
			"0.015": 0.0,
			"0.016": 0.0,
			"0.017": 0.0,
			"0.018": 0.0,
			"0.019": 0.0,
			"0.02": 0.0,
			"0.021": 0.0,
			"0.022": 0.0,
			"0.023": 0.0,
			"0.024": 0.0,
			"0.025": 0.0
		}
	}
}
