{
	 "smiles": "COC1=CC=C(C=C1)C1=CSC(CC#N)=N1", 
	 "Tm": 344.15, 
	 "num_atms": 26, 
	 "gaussian": { 
		 "optdone": 1, 
		 "sigma_profile": "yes", 
		 "theory": "DFT", 
		 "functional": "B3LYP", 
		 "basiset": "6-31G**", 
		 "properties": { 
			 "R2extent": 7033.2934, 
			 "electric_dipole_moment_norm": 4.74008968164, 
			 "electric_quadrupole_moment_norm": 23.6976132729, 
			 "total_energy": -1046.18311879, 
			 "HOMO_LUMO_gap": 0.16493, 
			 "cosmo_polarized_energy": -14.13, 
			 "cosmo_cavitation_energy": 33.32, 
			 "cosmo_dispersion_energy": -24.39, 
			 "cosmo_repulsion_energy": 1.84, 
			 "cosmo_total_nonelectrostatic_energy": 10.78, 
			 "SMD_solvation_energy": 6.4 
		},
		"coords": [
			{
				"x": 1.03125161,
				"y": 4.5223449043,
				"z": -0.316872764,
				"element": "C" 
			},
			{
				"x": 1.4450888263,
				"y": 3.2480341647,
				"z": -0.7844717805,
				"element": "O" 
			},
			{
				"x": 0.7347163842,
				"y": 2.1527735254,
				"z": -0.392571866,
				"element": "C" 
			},
			{
				"x": -0.3838350054,
				"y": 2.1865821967,
				"z": 0.4503591249,
				"element": "C" 
			},
			{
				"x": -1.032385391,
				"y": 0.9984036063,
				"z": 0.784978266,
				"element": "C" 
			},
			{
				"x": -0.5957982923,
				"y": -0.2400554091,
				"z": 0.2963080535,
				"element": "C" 
			},
			{
				"x": 0.5319820626,
				"y": -0.253737173,
				"z": -0.546487241,
				"element": "C" 
			},
			{
				"x": 1.1869094784,
				"y": 0.9199517735,
				"z": -0.8866596419,
				"element": "C" 
			},
			{
				"x": -1.2770801916,
				"y": -1.5014943319,
				"z": 0.6383801505,
				"element": "C" 
			},
			{
				"x": -2.4391791468,
				"y": -1.6481962804,
				"z": 1.3584563506,
				"element": "C" 
			},
			{
				"x": -2.8731208157,
				"y": -3.3162759523,
				"z": 1.5038571,
				"element": "S" 
			},
			{
				"x": -1.4431095281,
				"y": -3.7205690806,
				"z": 0.5742005665,
				"element": "C" 
			},
			{
				"x": -1.0175446369,
				"y": -5.1417692598,
				"z": 0.2822067001,
				"element": "C" 
			},
			{
				"x": -2.1282198047,
				"y": -6.0714553681,
				"z": 0.0589840454,
				"element": "C" 
			},
			{
				"x": -3.0044151142,
				"y": -6.8137417975,
				"z": -0.1061071416,
				"element": "N" 
			},
			{
				"x": -0.73337977,
				"y": -2.7004137204,
				"z": 0.2026309033,
				"element": "N" 
			},
			{
				"x": 1.0788116351,
				"y": 4.5873310325,
				"z": 0.7778100869,
				"element": "H" 
			},
			{
				"x": 1.7275184307,
				"y": 5.2425757292,
				"z": -0.7490133128,
				"element": "H" 
			},
			{
				"x": 0.0124067275,
				"y": 4.7635034869,
				"z": -0.6463544439,
				"element": "H" 
			},
			{
				"x": -0.7534611313,
				"y": 3.1226900384,
				"z": 0.8514686423,
				"element": "H" 
			},
			{
				"x": -1.8916598106,
				"y": 1.0511563274,
				"z": 1.4471082446,
				"element": "H" 
			},
			{
				"x": 0.8847546485,
				"y": -1.2041204988,
				"z": -0.930413273,
				"element": "H" 
			},
			{
				"x": 2.0552743859,
				"y": 0.9105005408,
				"z": -1.5373032458,
				"element": "H" 
			},
			{
				"x": -3.0723701883,
				"y": -0.8840829012,
				"z": 1.7841232876,
				"element": "H" 
			},
			{
				"x": -0.3758187476,
				"y": -5.1183509138,
				"z": -0.6042799173,
				"element": "H" 
			},
			{
				"x": -0.4067366148,
				"y": -5.5293846391,
				"z": 1.1085631055,
				"element": "H" 
			}
		],
		 "valence_orbital": [ 
			{
				"type": "occ",
				"energy": -0.29418,
				"method": "rhf"
			},
			{
				"type": "occ",
				"energy": -0.28639,
				"method": "rhf"
			},
			{
				"type": "occ",
				"energy": -0.26673,
				"method": "rhf"
			},
			{
				"type": "occ",
				"energy": -0.25564,
				"method": "rhf"
			},
			{
				"type": "occ",
				"energy": -0.20846,
				"method": "rhf"
			},
			{
				"type": "unocc",
				"energy": -0.04353,
				"method": "rhf"
			},
			{
				"type": "unocc",
				"energy": -0.01255,
				"method": "rhf"
			},
			{
				"type": "unocc",
				"energy": -0.00331,
				"method": "rhf"
			},
			{
				"type": "unocc",
				"energy": 0.00092,
				"method": "rhf"
			},
			{
				"type": "unocc",
				"energy": 0.03179,
				"method": "rhf"
			}
		],
		"cosmo_sigma_profile": { 
			"-0.025": 0.0,
			"-0.024": 0.0,
			"-0.023": 0.0,
			"-0.022": 0.0,
			"-0.021": 0.0,
			"-0.02": 0.0,
			"-0.019": 0.0,
			"-0.018": 0.0,
			"-0.017": 0.0,
			"-0.016": 0.0,
			"-0.015": 0.0,
			"-0.014": 0.0,
			"-0.013": 0.0,
			"-0.012": 0.0,
			"-0.011": 0.370719995069,
			"-0.01": 5.32632113167,
			"-0.009": 7.4924269845,
			"-0.008": 7.13127349251,
			"-0.007": 7.65422521503,
			"-0.006": 13.1586734639,
			"-0.005": 19.5081054008,
			"-0.004": 18.667307241,
			"-0.003": 18.148609773,
			"-0.002": 14.1350843059,
			"-0.001": 12.321742213,
			"0.0": 16.2252145754,
			"0.001": 18.4352753768,
			"0.002": 20.3717128141,
			"0.003": 22.7829701862,
			"0.004": 17.0767724025,
			"0.005": 16.8082192987,
			"0.006": 6.4962064223,
			"0.007": 5.49501625458,
			"0.008": 5.74821532188,
			"0.009": 5.9035147419,
			"0.01": 5.26650560197,
			"0.011": 2.93558585774,
			"0.012": 2.23490843482,
			"0.013": 0.739568152857,
			"0.014": 0.0,
			"0.015": 0.0,
			"0.016": 0.0,
			"0.017": 0.0,
			"0.018": 0.0,
			"0.019": 0.0,
			"0.02": 0.0,
			"0.021": 0.0,
			"0.022": 0.0,
			"0.023": 0.0,
			"0.024": 0.0,
			"0.025": 0.0
		}
	}
}
