{
	 "smiles": "NC1=NC2=NC(N)=C(N=C2C(N)=N1)C1=CC=CC=C1", 
	 "Tm": 589.15, 
	 "num_atms": 30, 
	 "gaussian": { 
		 "optdone": 1, 
		 "sigma_profile": "yes", 
		 "theory": "DFT", 
		 "functional": "B3LYP", 
		 "basiset": "6-31G**", 
		 "properties": { 
			 "R2extent": 5944.8603, 
			 "electric_dipole_moment_norm": 2.38506537856, 
			 "electric_quadrupole_moment_norm": 16.947317935, 
			 "total_energy": -847.222308158, 
			 "HOMO_LUMO_gap": 0.14461, 
			 "cosmo_polarized_energy": -21.24, 
			 "cosmo_cavitation_energy": 34.53, 
			 "cosmo_dispersion_energy": -25.95, 
			 "cosmo_repulsion_energy": 2.01, 
			 "cosmo_total_nonelectrostatic_energy": 10.59, 
			 "SMD_solvation_energy": 0.14 
		},
		"coords": [
			{
				"x": -4.8238785711,
				"y": 1.0312390852,
				"z": 2.8534635332,
				"element": "N" 
			},
			{
				"x": -3.7409277375,
				"y": 0.726929505,
				"z": 2.0829800225,
				"element": "C" 
			},
			{
				"x": -2.9472972439,
				"y": 1.7423907856,
				"z": 1.7389990632,
				"element": "N" 
			},
			{
				"x": -1.8653947581,
				"y": 1.4059582954,
				"z": 1.0050781728,
				"element": "C" 
			},
			{
				"x": -0.9982328283,
				"y": 2.379909698,
				"z": 0.6337561156,
				"element": "N" 
			},
			{
				"x": 0.0439461134,
				"y": 2.0318084802,
				"z": -0.1059260274,
				"element": "C" 
			},
			{
				"x": 0.9035256959,
				"y": 3.0457810035,
				"z": -0.4571534374,
				"element": "N" 
			},
			{
				"x": 0.2824257405,
				"y": 0.6662536049,
				"z": -0.5369317382,
				"element": "C" 
			},
			{
				"x": -0.5425439611,
				"y": -0.2845011977,
				"z": -0.1282683597,
				"element": "N" 
			},
			{
				"x": -1.6008806337,
				"y": 0.062016262,
				"z": 0.6283750752,
				"element": "C" 
			},
			{
				"x": -2.546069806,
				"y": -0.9297699065,
				"z": 1.0678266035,
				"element": "C" 
			},
			{
				"x": -2.3366765773,
				"y": -2.2259075516,
				"z": 0.7461403582,
				"element": "N" 
			},
			{
				"x": -3.6096998977,
				"y": -0.5968072481,
				"z": 1.7847022827,
				"element": "N" 
			},
			{
				"x": 1.435816378,
				"y": 0.2562718128,
				"z": -1.379847437,
				"element": "C" 
			},
			{
				"x": 1.8819833382,
				"y": 1.0201754955,
				"z": -2.4736103705,
				"element": "C" 
			},
			{
				"x": 2.9465587569,
				"y": 0.5800399198,
				"z": -3.2620949044,
				"element": "C" 
			},
			{
				"x": 3.5853298653,
				"y": -0.6264307415,
				"z": -2.9747950849,
				"element": "C" 
			},
			{
				"x": 3.14435582,
				"y": -1.3988013532,
				"z": -1.8965488562,
				"element": "C" 
			},
			{
				"x": 2.0804410179,
				"y": -0.9644486573,
				"z": -1.1105858539,
				"element": "C" 
			},
			{
				"x": -5.5379804899,
				"y": 0.3298567154,
				"z": 2.9592532153,
				"element": "H" 
			},
			{
				"x": -5.0652722762,
				"y": 2.004419397,
				"z": 2.9466881565,
				"element": "H" 
			},
			{
				"x": 0.7622653515,
				"y": 3.8983760906,
				"z": 0.0673559452,
				"element": "H" 
			},
			{
				"x": 1.8590425508,
				"y": 2.8057657054,
				"z": -0.6745379033,
				"element": "H" 
			},
			{
				"x": -3.0540496094,
				"y": -2.900750011,
				"z": 0.9541859375,
				"element": "H" 
			},
			{
				"x": -1.5893760236,
				"y": -2.4431785191,
				"z": 0.1057299368,
				"element": "H" 
			},
			{
				"x": 1.375719059,
				"y": 1.9463013676,
				"z": -2.7263479374,
				"element": "H" 
			},
			{
				"x": 3.2690453798,
				"y": 1.1792980825,
				"z": -4.1089485184,
				"element": "H" 
			},
			{
				"x": 4.4167335485,
				"y": -0.9646520469,
				"z": -3.5864288783,
				"element": "H" 
			},
			{
				"x": 3.6343489369,
				"y": -2.3407358326,
				"z": -1.6661029364,
				"element": "H" 
			},
			{
				"x": 1.7319428614,
				"y": -1.5628082411,
				"z": -0.2753061749,
				"element": "H" 
			}
		],
		 "valence_orbital": [ 
			{
				"type": "occ",
				"energy": -0.2545,
				"method": "rhf"
			},
			{
				"type": "occ",
				"energy": -0.24779,
				"method": "rhf"
			},
			{
				"type": "occ",
				"energy": -0.23102,
				"method": "rhf"
			},
			{
				"type": "occ",
				"energy": -0.22406,
				"method": "rhf"
			},
			{
				"type": "occ",
				"energy": -0.19851,
				"method": "rhf"
			},
			{
				"type": "unocc",
				"energy": -0.0539,
				"method": "rhf"
			},
			{
				"type": "unocc",
				"energy": -0.01924,
				"method": "rhf"
			},
			{
				"type": "unocc",
				"energy": -0.00653,
				"method": "rhf"
			},
			{
				"type": "unocc",
				"energy": 0.01756,
				"method": "rhf"
			},
			{
				"type": "unocc",
				"energy": 0.0359,
				"method": "rhf"
			}
		],
		"cosmo_sigma_profile": { 
			"-0.025": 0.0,
			"-0.024": 0.0,
			"-0.023": 0.0,
			"-0.022": 0.0,
			"-0.021": 0.0,
			"-0.02": 0.0,
			"-0.019": 0.0,
			"-0.018": 0.0,
			"-0.017": 0.0,
			"-0.016": 0.0,
			"-0.015": 0.135817601321,
			"-0.014": 1.47121711202,
			"-0.013": 4.72600254884,
			"-0.012": 5.74330581657,
			"-0.011": 5.24050227434,
			"-0.01": 6.20302160169,
			"-0.009": 6.50187275247,
			"-0.008": 5.36372797557,
			"-0.007": 4.88406405907,
			"-0.006": 8.43787903716,
			"-0.005": 13.7267976279,
			"-0.004": 15.7810525282,
			"-0.003": 14.3162301245,
			"-0.002": 15.156441397,
			"-0.001": 18.3566843783,
			"0.0": 20.7249860727,
			"0.001": 17.1715217364,
			"0.002": 18.4255332063,
			"0.003": 16.2003524691,
			"0.004": 17.2701574206,
			"0.005": 17.7819217316,
			"0.006": 8.58610673769,
			"0.007": 6.55904198547,
			"0.008": 4.82617820946,
			"0.009": 4.0873483501,
			"0.01": 3.04320916102,
			"0.011": 1.86718105302,
			"0.012": 3.32384236909,
			"0.013": 2.49787276085,
			"0.014": 1.84405789014,
			"0.015": 1.58229805194,
			"0.016": 2.11166304569,
			"0.017": 1.94270135223,
			"0.018": 0.451404708724,
			"0.019": 0.0,
			"0.02": 0.0,
			"0.021": 0.0,
			"0.022": 0.0,
			"0.023": 0.0,
			"0.024": 0.0,
			"0.025": 0.0
		}
	}
}
