{
	 "smiles": "CC(C)(C)C(N)=NO", 
	 "Tm": 367.15, 
	 "num_atms": 20, 
	 "gaussian": { 
		 "optdone": 1, 
		 "sigma_profile": "yes", 
		 "theory": "DFT", 
		 "functional": "B3LYP", 
		 "basiset": "6-31G**", 
		 "properties": { 
			 "R2extent": 1231.2025, 
			 "electric_dipole_moment_norm": 1.29155196566, 
			 "electric_quadrupole_moment_norm": 5.4452197963, 
			 "total_energy": -382.442220476, 
			 "HOMO_LUMO_gap": 0.2401, 
			 "cosmo_polarized_energy": -9.45, 
			 "cosmo_cavitation_energy": 21.49, 
			 "cosmo_dispersion_energy": -15.84, 
			 "cosmo_repulsion_energy": 1.32, 
			 "cosmo_total_nonelectrostatic_energy": 6.97, 
			 "SMD_solvation_energy": 3.92 
		},
		"coords": [
			{
				"x": -0.6068993337,
				"y": 0.397932311,
				"z": 0.6086031436,
				"element": "C" 
			},
			{
				"x": -0.0056526476,
				"y": -0.3331295382,
				"z": -0.6161978338,
				"element": "C" 
			},
			{
				"x": -0.99278721,
				"y": -0.1901746916,
				"z": -1.794139581,
				"element": "C" 
			},
			{
				"x": 1.3364759693,
				"y": 0.3138324384,
				"z": -1.029366195,
				"element": "C" 
			},
			{
				"x": 0.2165172146,
				"y": -1.8094911651,
				"z": -0.2418485529,
				"element": "C" 
			},
			{
				"x": -0.6039011284,
				"y": -2.7597051393,
				"z": -0.8571254761,
				"element": "N" 
			},
			{
				"x": 1.0204327448,
				"y": -2.2957478548,
				"z": 0.6422885331,
				"element": "N" 
			},
			{
				"x": 1.7137422281,
				"y": -1.3021255394,
				"z": 1.3888540666,
				"element": "O" 
			},
			{
				"x": -1.5773175482,
				"y": -0.0328781138,
				"z": 0.8766376936,
				"element": "H" 
			},
			{
				"x": 0.0540003813,
				"y": 0.3264184857,
				"z": 1.4728260641,
				"element": "H" 
			},
			{
				"x": -0.7608756445,
				"y": 1.4561845995,
				"z": 0.3683532567,
				"element": "H" 
			},
			{
				"x": -1.9637923792,
				"y": -0.64096845,
				"z": -1.5717952482,
				"element": "H" 
			},
			{
				"x": -1.1531005583,
				"y": 0.8727742334,
				"z": -2.0001072633,
				"element": "H" 
			},
			{
				"x": -0.6021075706,
				"y": -0.6363670679,
				"z": -2.7172223014,
				"element": "H" 
			},
			{
				"x": 1.1734161839,
				"y": 1.3674096965,
				"z": -1.2824714121,
				"element": "H" 
			},
			{
				"x": 2.0713155937,
				"y": 0.2541656717,
				"z": -0.2273211061,
				"element": "H" 
			},
			{
				"x": 1.7517458993,
				"y": -0.1816158483,
				"z": -1.9141755217,
				"element": "H" 
			},
			{
				"x": -0.7174572873,
				"y": -2.6487190364,
				"z": -1.8560002352,
				"element": "H" 
			},
			{
				"x": -0.3326753814,
				"y": -3.7038302766,
				"z": -0.6059594767,
				"element": "H" 
			},
			{
				"x": 2.243420474,
				"y": -1.8512647147,
				"z": 1.9796674456,
				"element": "H" 
			}
		],
		 "valence_orbital": [ 
			{
				"type": "occ",
				"energy": -0.32908,
				"method": "rhf"
			},
			{
				"type": "occ",
				"energy": -0.32145,
				"method": "rhf"
			},
			{
				"type": "occ",
				"energy": -0.30744,
				"method": "rhf"
			},
			{
				"type": "occ",
				"energy": -0.25339,
				"method": "rhf"
			},
			{
				"type": "occ",
				"energy": -0.2046,
				"method": "rhf"
			},
			{
				"type": "unocc",
				"energy": 0.0355,
				"method": "rhf"
			},
			{
				"type": "unocc",
				"energy": 0.07354,
				"method": "rhf"
			},
			{
				"type": "unocc",
				"energy": 0.08217,
				"method": "rhf"
			},
			{
				"type": "unocc",
				"energy": 0.11967,
				"method": "rhf"
			},
			{
				"type": "unocc",
				"energy": 0.1324,
				"method": "rhf"
			}
		],
		"cosmo_sigma_profile": { 
			"-0.025": 0.0,
			"-0.024": 0.0,
			"-0.023": 0.0,
			"-0.022": 0.0,
			"-0.021": 0.0,
			"-0.02": 0.0,
			"-0.019": 0.0,
			"-0.018": 0.0,
			"-0.017": 0.0168379046514,
			"-0.016": 0.866701757255,
			"-0.015": 0.893195831484,
			"-0.014": 0.868046016222,
			"-0.013": 0.784107634019,
			"-0.012": 1.39203453097,
			"-0.011": 3.01132561996,
			"-0.01": 3.07669363359,
			"-0.009": 3.17580159988,
			"-0.008": 3.11719322926,
			"-0.007": 2.39177767491,
			"-0.006": 2.605929743,
			"-0.005": 4.00851770898,
			"-0.004": 3.86166563232,
			"-0.003": 14.5741515972,
			"-0.002": 15.1389934214,
			"-0.001": 15.0106833165,
			"0.0": 17.5520853663,
			"0.001": 21.0409398317,
			"0.002": 11.2919898413,
			"0.003": 4.87424589114,
			"0.004": 4.14792970586,
			"0.005": 4.00728173078,
			"0.006": 5.17466210273,
			"0.007": 5.61014107407,
			"0.008": 5.88634430665,
			"0.009": 3.04421717767,
			"0.01": 1.7461517949,
			"0.011": 1.87610534001,
			"0.012": 2.4334121479,
			"0.013": 1.01117396925,
			"0.014": 1.10211799279,
			"0.015": 0.311499609355,
			"0.016": 0.0,
			"0.017": 0.0,
			"0.018": 0.0,
			"0.019": 0.0,
			"0.02": 0.0,
			"0.021": 0.0,
			"0.022": 0.0,
			"0.023": 0.0,
			"0.024": 0.0,
			"0.025": 0.0
		}
	}
}
