{
	 "smiles": "CC(=O)NC1=C(C=CC=C1)C(=O)C1=CC=CC=C1", 
	 "Tm": 361.15, 
	 "num_atms": 31, 
	 "gaussian": { 
		 "optdone": 1, 
		 "sigma_profile": "yes", 
		 "theory": "DFT", 
		 "functional": "B3LYP", 
		 "basiset": "6-31G**", 
		 "properties": { 
			 "R2extent": 5448.7101, 
			 "electric_dipole_moment_norm": 3.73380495741, 
			 "electric_quadrupole_moment_norm": 8.95873334964, 
			 "total_energy": -784.661303409, 
			 "HOMO_LUMO_gap": 0.15164, 
			 "cosmo_polarized_energy": -11.3, 
			 "cosmo_cavitation_energy": 34.95, 
			 "cosmo_dispersion_energy": -25.29, 
			 "cosmo_repulsion_energy": 1.94, 
			 "cosmo_total_nonelectrostatic_energy": 11.6, 
			 "SMD_solvation_energy": 6.87 
		},
		"coords": [
			{
				"x": -3.4921951336,
				"y": -1.0571406707,
				"z": 2.426116675,
				"element": "C" 
			},
			{
				"x": -3.3429151165,
				"y": 0.0683199589,
				"z": 1.4129437906,
				"element": "C" 
			},
			{
				"x": -4.221532127,
				"y": 0.9024402398,
				"z": 1.2436443945,
				"element": "O" 
			},
			{
				"x": -2.1289543381,
				"y": 0.0574623067,
				"z": 0.7532853882,
				"element": "N" 
			},
			{
				"x": -1.6462960409,
				"y": 0.9459063592,
				"z": -0.2090143618,
				"element": "C" 
			},
			{
				"x": -0.2893023313,
				"y": 0.8191294985,
				"z": -0.6454023526,
				"element": "C" 
			},
			{
				"x": 0.1642329239,
				"y": 1.6645618894,
				"z": -1.6779426085,
				"element": "C" 
			},
			{
				"x": -0.6522122421,
				"y": 2.6347299432,
				"z": -2.241907093,
				"element": "C" 
			},
			{
				"x": -1.9563896663,
				"y": 2.7845394998,
				"z": -1.7620259188,
				"element": "C" 
			},
			{
				"x": -2.4538652526,
				"y": 1.9567385712,
				"z": -0.7621334208,
				"element": "C" 
			},
			{
				"x": 0.6225744097,
				"y": -0.2047461683,
				"z": -0.0719896206,
				"element": "C" 
			},
			{
				"x": 0.1939561035,
				"y": -1.2014413196,
				"z": 0.5277397484,
				"element": "O" 
			},
			{
				"x": 2.1124054851,
				"y": -0.0605946792,
				"z": -0.193560102,
				"element": "C" 
			},
			{
				"x": 2.7734841917,
				"y": 1.1717655428,
				"z": -0.0702698392,
				"element": "C" 
			},
			{
				"x": 4.1674925117,
				"y": 1.22784757,
				"z": -0.0952791215,
				"element": "C" 
			},
			{
				"x": 4.9131974846,
				"y": 0.0592995911,
				"z": -0.2579732431,
				"element": "C" 
			},
			{
				"x": 4.2625017749,
				"y": -1.1727004546,
				"z": -0.3734014722,
				"element": "C" 
			},
			{
				"x": 2.8728156744,
				"y": -1.2338671062,
				"z": -0.3246489138,
				"element": "C" 
			},
			{
				"x": -3.1986844748,
				"y": -0.6903479367,
				"z": 3.4159318932,
				"element": "H" 
			},
			{
				"x": -2.8814400167,
				"y": -1.9330360482,
				"z": 2.1911084801,
				"element": "H" 
			},
			{
				"x": -4.5439439299,
				"y": -1.3432309493,
				"z": 2.4742155921,
				"element": "H" 
			},
			{
				"x": -1.4775122974,
				"y": -0.7023823006,
				"z": 0.9484484639,
				"element": "H" 
			},
			{
				"x": 1.1725441569,
				"y": 1.533948903,
				"z": -2.0523863159,
				"element": "H" 
			},
			{
				"x": -0.2798614849,
				"y": 3.264765213,
				"z": -3.0432511623,
				"element": "H" 
			},
			{
				"x": -2.6054983937,
				"y": 3.5477223826,
				"z": -2.1824301777,
				"element": "H" 
			},
			{
				"x": -3.4659456534,
				"y": 2.0616609094,
				"z": -0.3990841822,
				"element": "H" 
			},
			{
				"x": 2.1998936365,
				"y": 2.0816677712,
				"z": 0.0712266195,
				"element": "H" 
			},
			{
				"x": 4.6698105092,
				"y": 2.1843212499,
				"z": 0.015606591,
				"element": "H" 
			},
			{
				"x": 5.9980321956,
				"y": 0.1063641737,
				"z": -0.2871507025,
				"element": "H" 
			},
			{
				"x": 4.840387095,
				"y": -2.0844491267,
				"z": -0.4929967629,
				"element": "H" 
			},
			{
				"x": 2.3550203465,
				"y": -2.1852548132,
				"z": -0.3855202651,
				"element": "H" 
			}
		],
		 "valence_orbital": [ 
			{
				"type": "occ",
				"energy": -0.26489,
				"method": "rhf"
			},
			{
				"type": "occ",
				"energy": -0.26114,
				"method": "rhf"
			},
			{
				"type": "occ",
				"energy": -0.25715,
				"method": "rhf"
			},
			{
				"type": "occ",
				"energy": -0.24652,
				"method": "rhf"
			},
			{
				"type": "occ",
				"energy": -0.2242,
				"method": "rhf"
			},
			{
				"type": "unocc",
				"energy": -0.07256,
				"method": "rhf"
			},
			{
				"type": "unocc",
				"energy": -0.01986,
				"method": "rhf"
			},
			{
				"type": "unocc",
				"energy": -0.01705,
				"method": "rhf"
			},
			{
				"type": "unocc",
				"energy": -0.00937,
				"method": "rhf"
			},
			{
				"type": "unocc",
				"energy": 0.04279,
				"method": "rhf"
			}
		],
		"cosmo_sigma_profile": { 
			"-0.025": 0.0,
			"-0.024": 0.0,
			"-0.023": 0.0,
			"-0.022": 0.0,
			"-0.021": 0.0,
			"-0.02": 0.0,
			"-0.019": 0.0,
			"-0.018": 0.0,
			"-0.017": 0.0,
			"-0.016": 0.0,
			"-0.015": 0.0,
			"-0.014": 0.0,
			"-0.013": 0.0,
			"-0.012": 0.0,
			"-0.011": 0.0,
			"-0.01": 0.0,
			"-0.009": 0.0137248412141,
			"-0.008": 0.709466573699,
			"-0.007": 4.39350101591,
			"-0.006": 18.9911072416,
			"-0.005": 23.911222,
			"-0.004": 26.0750089456,
			"-0.003": 24.3257068238,
			"-0.002": 24.8940393636,
			"-0.001": 21.1939977177,
			"0.0": 17.5800204271,
			"0.001": 20.4533022092,
			"0.002": 19.9555143094,
			"0.003": 22.1821401643,
			"0.004": 22.3136653039,
			"0.005": 5.98076241275,
			"0.006": 3.1286984544,
			"0.007": 3.29725665856,
			"0.008": 3.15755387674,
			"0.009": 3.35910350291,
			"0.01": 3.1391817934,
			"0.011": 3.46369995971,
			"0.012": 3.85867638521,
			"0.013": 2.76514518779,
			"0.014": 1.39314680702,
			"0.015": 0.0803419444118,
			"0.016": 0.0,
			"0.017": 0.0,
			"0.018": 0.0,
			"0.019": 0.0,
			"0.02": 0.0,
			"0.021": 0.0,
			"0.022": 0.0,
			"0.023": 0.0,
			"0.024": 0.0,
			"0.025": 0.0
		}
	}
}
