{
	 "smiles": "CCOC1=CC(OCC)=C(C=C1OCC)C(=O)CCC(O)=O", 
	 "Tm": 423.15, 
	 "num_atms": 44, 
	 "gaussian": { 
		 "optdone": 1, 
		 "sigma_profile": "yes", 
		 "theory": "DFT", 
		 "functional": "B3LYP", 
		 "basiset": "6-31G**", 
		 "properties": { 
			 "R2extent": 9839.711, 
			 "electric_dipole_moment_norm": 5.21398080261, 
			 "electric_quadrupole_moment_norm": 13.4173944572, 
			 "total_energy": -1074.29846307, 
			 "HOMO_LUMO_gap": 0.15873, 
			 "cosmo_polarized_energy": -21.28, 
			 "cosmo_cavitation_energy": 47.23, 
			 "cosmo_dispersion_energy": -31.85, 
			 "cosmo_repulsion_energy": 2.49, 
			 "cosmo_total_nonelectrostatic_energy": 17.88, 
			 "SMD_solvation_energy": 10.23 
		},
		"coords": [
			{
				"x": -2.4546104124,
				"y": -2.5545741916,
				"z": -5.049087701,
				"element": "C" 
			},
			{
				"x": -1.8511233105,
				"y": -2.659243115,
				"z": -3.6594584906,
				"element": "C" 
			},
			{
				"x": -2.111302722,
				"y": -1.4067952765,
				"z": -2.9922784796,
				"element": "O" 
			},
			{
				"x": -1.3358153062,
				"y": -1.0113367762,
				"z": -1.9464805363,
				"element": "C" 
			},
			{
				"x": -0.9786221088,
				"y": 0.3378652213,
				"z": -1.9293043988,
				"element": "C" 
			},
			{
				"x": -0.2315289482,
				"y": 0.8891857177,
				"z": -0.8827337899,
				"element": "C" 
			},
			{
				"x": 0.1720217641,
				"y": 2.1934910181,
				"z": -0.8826247389,
				"element": "O" 
			},
			{
				"x": -0.3478884441,
				"y": 3.0943141222,
				"z": -1.8684058817,
				"element": "C" 
			},
			{
				"x": 0.2401055524,
				"y": 4.4677302824,
				"z": -1.5955669735,
				"element": "C" 
			},
			{
				"x": 0.172270417,
				"y": 0.0632420929,
				"z": 0.1907402636,
				"element": "C" 
			},
			{
				"x": -0.1800473365,
				"y": -1.3001613225,
				"z": 0.1444088055,
				"element": "C" 
			},
			{
				"x": -0.9341013655,
				"y": -1.8528981964,
				"z": -0.8805955761,
				"element": "C" 
			},
			{
				"x": -1.3498682016,
				"y": -3.1575031055,
				"z": -0.9242931196,
				"element": "O" 
			},
			{
				"x": -0.977549288,
				"y": -4.0197204663,
				"z": 0.1516948103,
				"element": "C" 
			},
			{
				"x": -1.5650309434,
				"y": -5.3908451136,
				"z": -0.1329901379,
				"element": "C" 
			},
			{
				"x": 0.9202500449,
				"y": 0.489529594,
				"z": 1.4135219468,
				"element": "C" 
			},
			{
				"x": 1.3944041522,
				"y": -0.356707925,
				"z": 2.1660564291,
				"element": "O" 
			},
			{
				"x": 1.0817883788,
				"y": 1.9600981353,
				"z": 1.7830979221,
				"element": "C" 
			},
			{
				"x": 2.4103742756,
				"y": 2.5174089422,
				"z": 1.2552559332,
				"element": "C" 
			},
			{
				"x": 2.5449896207,
				"y": 4.0164780235,
				"z": 1.486876394,
				"element": "C" 
			},
			{
				"x": 3.8028282626,
				"y": 4.5166766305,
				"z": 1.3416205927,
				"element": "O" 
			},
			{
				"x": 1.6301233071,
				"y": 4.7598601697,
				"z": 1.7427511054,
				"element": "O" 
			},
			{
				"x": -1.9856848057,
				"y": -1.7489117259,
				"z": -5.6212513923,
				"element": "H" 
			},
			{
				"x": -2.3127407099,
				"y": -3.4953148617,
				"z": -5.5908881077,
				"element": "H" 
			},
			{
				"x": -3.5279347161,
				"y": -2.3524124683,
				"z": -4.9870869446,
				"element": "H" 
			},
			{
				"x": -0.768392295,
				"y": -2.8277247912,
				"z": -3.709555965,
				"element": "H" 
			},
			{
				"x": -2.2942442187,
				"y": -3.4800658594,
				"z": -3.0911519998,
				"element": "H" 
			},
			{
				"x": -1.2993899764,
				"y": 0.9319204058,
				"z": -2.774508169,
				"element": "H" 
			},
			{
				"x": -1.4441094646,
				"y": 3.1095923932,
				"z": -1.8049135882,
				"element": "H" 
			},
			{
				"x": -0.0718037177,
				"y": 2.7458799897,
				"z": -2.8726897314,
				"element": "H" 
			},
			{
				"x": -0.1867760154,
				"y": 5.1966958459,
				"z": -2.2913020425,
				"element": "H" 
			},
			{
				"x": 0.0302552479,
				"y": 4.7912131486,
				"z": -0.5731715558,
				"element": "H" 
			},
			{
				"x": 1.3252622895,
				"y": 4.4612747934,
				"z": -1.7339185538,
				"element": "H" 
			},
			{
				"x": 0.150951382,
				"y": -1.8987892723,
				"z": 0.9834851532,
				"element": "H" 
			},
			{
				"x": 0.1175232858,
				"y": -4.0695985582,
				"z": 0.2292133561,
				"element": "H" 
			},
			{
				"x": -1.3614275736,
				"y": -3.617705,
				"z": 1.0994604269,
				"element": "H" 
			},
			{
				"x": -2.6547722702,
				"y": -5.3363705705,
				"z": -0.208212702,
				"element": "H" 
			},
			{
				"x": -1.1727614793,
				"y": -5.7945152682,
				"z": -1.0708671345,
				"element": "H" 
			},
			{
				"x": -1.3080358935,
				"y": -6.0827520019,
				"z": 0.6748245362,
				"element": "H" 
			},
			{
				"x": 0.2659452031,
				"y": 2.573537639,
				"z": 1.4047464431,
				"element": "H" 
			},
			{
				"x": 1.0830309761,
				"y": 2.0042968046,
				"z": 2.8756176644,
				"element": "H" 
			},
			{
				"x": 3.2520165269,
				"y": 1.9851295375,
				"z": 1.7163491127,
				"element": "H" 
			},
			{
				"x": 2.481253674,
				"y": 2.3563558022,
				"z": 0.171761106,
				"element": "H" 
			},
			{
				"x": 4.4265671625,
				"y": 3.7988695565,
				"z": 1.1618557093,
				"element": "H" 
			}
		],
		 "valence_orbital": [ 
			{
				"type": "occ",
				"energy": -0.28447,
				"method": "rhf"
			},
			{
				"type": "occ",
				"energy": -0.27003,
				"method": "rhf"
			},
			{
				"type": "occ",
				"energy": -0.24188,
				"method": "rhf"
			},
			{
				"type": "occ",
				"energy": -0.23698,
				"method": "rhf"
			},
			{
				"type": "occ",
				"energy": -0.20507,
				"method": "rhf"
			},
			{
				"type": "unocc",
				"energy": -0.04634,
				"method": "rhf"
			},
			{
				"type": "unocc",
				"energy": 0.01232,
				"method": "rhf"
			},
			{
				"type": "unocc",
				"energy": 0.013,
				"method": "rhf"
			},
			{
				"type": "unocc",
				"energy": 0.04588,
				"method": "rhf"
			},
			{
				"type": "unocc",
				"energy": 0.05877,
				"method": "rhf"
			}
		],
		"cosmo_sigma_profile": { 
			"-0.025": 0.0,
			"-0.024": 0.0,
			"-0.023": 0.0,
			"-0.022": 0.0,
			"-0.021": 0.0,
			"-0.02": 0.0,
			"-0.019": 0.510639670992,
			"-0.018": 1.23170978927,
			"-0.017": 1.09933305355,
			"-0.016": 1.05289561112,
			"-0.015": 1.27153706791,
			"-0.014": 1.21087286476,
			"-0.013": 0.944259828844,
			"-0.012": 0.759312556043,
			"-0.011": 1.13870653471,
			"-0.01": 1.61449987968,
			"-0.009": 1.09783447365,
			"-0.008": 1.68506306588,
			"-0.007": 4.35760845941,
			"-0.006": 6.62287158853,
			"-0.005": 22.2871185193,
			"-0.004": 36.154017882,
			"-0.003": 41.1536771855,
			"-0.002": 39.6228669817,
			"-0.001": 31.1791925192,
			"0.0": 34.1209432993,
			"0.001": 23.2922089971,
			"0.002": 19.950406489,
			"0.003": 22.3403302832,
			"0.004": 14.5687631654,
			"0.005": 8.80613004166,
			"0.006": 6.79754169244,
			"0.007": 6.04448451935,
			"0.008": 7.16426881754,
			"0.009": 5.84262784069,
			"0.01": 5.91303062673,
			"0.011": 8.26875581208,
			"0.012": 7.60316521911,
			"0.013": 4.45708754927,
			"0.014": 0.646256940124,
			"0.015": 0.0,
			"0.016": 0.0,
			"0.017": 0.0,
			"0.018": 0.0,
			"0.019": 0.0,
			"0.02": 0.0,
			"0.021": 0.0,
			"0.022": 0.0,
			"0.023": 0.0,
			"0.024": 0.0,
			"0.025": 0.0
		}
	}
}
