{
	 "smiles": "CC(CC(N)=O)=C/C1=CC=CC=C1", 
	 "Tm": 406.15, 
	 "num_atms": 26, 
	 "gaussian": { 
		 "optdone": 1, 
		 "sigma_profile": "yes", 
		 "theory": "DFT", 
		 "functional": "B3LYP", 
		 "basiset": "6-31G**", 
		 "properties": { 
			 "R2extent": 3979.7046, 
			 "electric_dipole_moment_norm": 3.69103878197, 
			 "electric_quadrupole_moment_norm": 23.584480453, 
			 "total_energy": -556.991196014, 
			 "HOMO_LUMO_gap": 0.19009, 
			 "cosmo_polarized_energy": -13.22, 
			 "cosmo_cavitation_energy": 29.59, 
			 "cosmo_dispersion_energy": -20.94, 
			 "cosmo_repulsion_energy": 1.69, 
			 "cosmo_total_nonelectrostatic_energy": 10.34, 
			 "SMD_solvation_energy": 5.8 
		},
		"coords": [
			{
				"x": -0.410577709,
				"y": 2.2572719182,
				"z": -0.6113941914,
				"element": "C" 
			},
			{
				"x": -1.0970138788,
				"y": 1.9585868733,
				"z": 0.6991532876,
				"element": "C" 
			},
			{
				"x": -1.4693279892,
				"y": 3.1761727746,
				"z": 1.5171478618,
				"element": "C" 
			},
			{
				"x": -0.2809160123,
				"y": 3.9198585716,
				"z": 2.1569874995,
				"element": "C" 
			},
			{
				"x": 0.7106308938,
				"y": 3.1097226601,
				"z": 2.630842684,
				"element": "N" 
			},
			{
				"x": -0.2526155434,
				"y": 5.1363575919,
				"z": 2.2610305621,
				"element": "O" 
			},
			{
				"x": -1.3987155376,
				"y": 0.7255428067,
				"z": 1.1602721148,
				"element": "C" 
			},
			{
				"x": -1.105608018,
				"y": -0.5955915272,
				"z": 0.5724389444,
				"element": "C" 
			},
			{
				"x": -2.0469328584,
				"y": -1.62972489,
				"z": 0.736976456,
				"element": "C" 
			},
			{
				"x": -1.8235403286,
				"y": -2.9004765928,
				"z": 0.2125860808,
				"element": "C" 
			},
			{
				"x": -0.640883181,
				"y": -3.1762398663,
				"z": -0.4779780358,
				"element": "C" 
			},
			{
				"x": 0.3161576855,
				"y": -2.1714353364,
				"z": -0.6276659938,
				"element": "C" 
			},
			{
				"x": 0.0900592431,
				"y": -0.8978708711,
				"z": -0.1053110892,
				"element": "C" 
			},
			{
				"x": 0.6250771579,
				"y": 2.586432929,
				"z": -0.4560867047,
				"element": "H" 
			},
			{
				"x": -0.3983715187,
				"y": 1.3969757085,
				"z": -1.2820721664,
				"element": "H" 
			},
			{
				"x": -0.9231206096,
				"y": 3.0830048489,
				"z": -1.1186863522,
				"element": "H" 
			},
			{
				"x": -2.1447653517,
				"y": 2.896271752,
				"z": 2.3349366917,
				"element": "H" 
			},
			{
				"x": -1.9866839415,
				"y": 3.9234839364,
				"z": 0.9078296035,
				"element": "H" 
			},
			{
				"x": 1.4869168034,
				"y": 3.5335859463,
				"z": 3.1145535885,
				"element": "H" 
			},
			{
				"x": 0.6540346149,
				"y": 2.1067809044,
				"z": 2.5493227277,
				"element": "H" 
			},
			{
				"x": -1.9816790952,
				"y": 0.6796287494,
				"z": 2.0811839567,
				"element": "H" 
			},
			{
				"x": -2.9685504958,
				"y": -1.4232268496,
				"z": 1.2754067669,
				"element": "H" 
			},
			{
				"x": -2.5708974532,
				"y": -3.6776640514,
				"z": 0.345570715,
				"element": "H" 
			},
			{
				"x": -0.4621991346,
				"y": -4.1675446378,
				"z": -0.8841125181,
				"element": "H" 
			},
			{
				"x": 1.2491127066,
				"y": -2.3812955023,
				"z": -1.1433991596,
				"element": "H" 
			},
			{
				"x": 0.8615095516,
				"y": -0.1409078466,
				"z": -0.19843333,
				"element": "H" 
			}
		],
		 "valence_orbital": [ 
			{
				"type": "occ",
				"energy": -0.28828,
				"method": "rhf"
			},
			{
				"type": "occ",
				"energy": -0.26362,
				"method": "rhf"
			},
			{
				"type": "occ",
				"energy": -0.25462,
				"method": "rhf"
			},
			{
				"type": "occ",
				"energy": -0.2481,
				"method": "rhf"
			},
			{
				"type": "occ",
				"energy": -0.22175,
				"method": "rhf"
			},
			{
				"type": "unocc",
				"energy": -0.03166,
				"method": "rhf"
			},
			{
				"type": "unocc",
				"energy": -0.00591,
				"method": "rhf"
			},
			{
				"type": "unocc",
				"energy": 0.03288,
				"method": "rhf"
			},
			{
				"type": "unocc",
				"energy": 0.04168,
				"method": "rhf"
			},
			{
				"type": "unocc",
				"energy": 0.07694,
				"method": "rhf"
			}
		],
		"cosmo_sigma_profile": { 
			"-0.025": 0.0,
			"-0.024": 0.0,
			"-0.023": 0.0,
			"-0.022": 0.0,
			"-0.021": 0.0,
			"-0.02": 0.0,
			"-0.019": 0.0,
			"-0.018": 0.0,
			"-0.017": 0.0,
			"-0.016": 0.0,
			"-0.015": 0.0,
			"-0.014": 0.497859932047,
			"-0.013": 1.43307010768,
			"-0.012": 1.29646014602,
			"-0.011": 1.95316569454,
			"-0.01": 2.05920688159,
			"-0.009": 1.79130017342,
			"-0.008": 1.73822906556,
			"-0.007": 2.1131189719,
			"-0.006": 7.51945360335,
			"-0.005": 19.050046319,
			"-0.004": 22.9416470203,
			"-0.003": 24.0512668839,
			"-0.002": 20.063569377,
			"-0.001": 19.1250452556,
			"0.0": 15.717700807,
			"0.001": 13.459062715,
			"0.002": 11.8846061008,
			"0.003": 12.4936854672,
			"0.004": 13.0419065729,
			"0.005": 12.4366659029,
			"0.006": 9.15492605737,
			"0.007": 0.981604142876,
			"0.008": 2.0009336486,
			"0.009": 1.35836288684,
			"0.01": 0.788501580281,
			"0.011": 0.96255616054,
			"0.012": 2.22667479058,
			"0.013": 3.042794984,
			"0.014": 6.09712087987,
			"0.015": 2.58708603823,
			"0.016": 0.0584769000444,
			"0.017": 0.0,
			"0.018": 0.0,
			"0.019": 0.0,
			"0.02": 0.0,
			"0.021": 0.0,
			"0.022": 0.0,
			"0.023": 0.0,
			"0.024": 0.0,
			"0.025": 0.0
		}
	}
}
