{
	 "smiles": "COC(=O)C1=CC2=NC=C(I)N2C=C1", 
	 "Tm": 483.15, 
	 "num_atms": 21, 
	 "gaussian": { 
		 "optdone": 1, 
		 "sigma_profile": "yes", 
		 "theory": "DFT", 
		 "functional": "B3LYP", 
		 "basiset": "6-31G**", 
		 "properties": { 
			 "R2extent": 4095.1977, 
			 "electric_dipole_moment_norm": 4.05795697488, 
			 "electric_quadrupole_moment_norm": 12.6492590834, 
			 "total_energy": -618.509224783, 
			 "HOMO_LUMO_gap": 0.15405, 
			 "cosmo_polarized_energy": -11.31, 
			 "cosmo_cavitation_energy": 29.27, 
			 "cosmo_dispersion_energy": -23.02, 
			 "cosmo_repulsion_energy": 1.75, 
			 "cosmo_total_nonelectrostatic_energy": 8.0, 
			 "SMD_solvation_energy": 4.32 
		},
		"coords": [
			{
				"x": 3.8841897644,
				"y": 2.8819700732,
				"z": -0.6197443422,
				"element": "C" 
			},
			{
				"x": 3.1128057035,
				"y": 1.6702049505,
				"z": -0.6465002434,
				"element": "O" 
			},
			{
				"x": 1.895197556,
				"y": 1.7767490348,
				"z": -1.226622404,
				"element": "C" 
			},
			{
				"x": 1.4676934484,
				"y": 2.8127324844,
				"z": -1.6964190157,
				"element": "O" 
			},
			{
				"x": 1.1553756833,
				"y": 0.4852002003,
				"z": -1.2176464749,
				"element": "C" 
			},
			{
				"x": -0.1043287694,
				"y": 0.4574651738,
				"z": -1.781037139,
				"element": "C" 
			},
			{
				"x": -0.8387689668,
				"y": -0.7416299686,
				"z": -1.794147228,
				"element": "C" 
			},
			{
				"x": -2.0560676206,
				"y": -1.0057677489,
				"z": -2.2753059611,
				"element": "N" 
			},
			{
				"x": -2.2685945958,
				"y": -2.3182173666,
				"z": -2.0217458236,
				"element": "C" 
			},
			{
				"x": -1.1850100124,
				"y": -2.8985976923,
				"z": -1.3760314899,
				"element": "C" 
			},
			{
				"x": -0.9005280003,
				"y": -4.8473030732,
				"z": -0.7278327366,
				"element": "I" 
			},
			{
				"x": -0.2547067921,
				"y": -1.8935400117,
				"z": -1.2224060351,
				"element": "N" 
			},
			{
				"x": 1.0019034933,
				"y": -1.8703955671,
				"z": -0.6591803591,
				"element": "C" 
			},
			{
				"x": 1.7082189177,
				"y": -0.7039503917,
				"z": -0.6501196539,
				"element": "C" 
			},
			{
				"x": 4.0698233101,
				"y": 3.2412172868,
				"z": -1.6349367786,
				"element": "H" 
			},
			{
				"x": 3.3572489617,
				"y": 3.6600876683,
				"z": -0.0620637531,
				"element": "H" 
			},
			{
				"x": 4.8209860681,
				"y": 2.6234411455,
				"z": -0.1264827566,
				"element": "H" 
			},
			{
				"x": -0.538823533,
				"y": 1.3495510704,
				"z": -2.2157109598,
				"element": "H" 
			},
			{
				"x": -3.1862094827,
				"y": -2.8159550606,
				"z": -2.3048541218,
				"element": "H" 
			},
			{
				"x": 1.3635744004,
				"y": -2.8032048186,
				"z": -0.2465603621,
				"element": "H" 
			},
			{
				"x": 2.6954204663,
				"y": -0.6833573887,
				"z": -0.2082523615,
				"element": "H" 
			}
		],
		 "valence_orbital": [ 
			{
				"type": "occ",
				"energy": -0.2985,
				"method": "rhf"
			},
			{
				"type": "occ",
				"energy": -0.28175,
				"method": "rhf"
			},
			{
				"type": "occ",
				"energy": -0.27995,
				"method": "rhf"
			},
			{
				"type": "occ",
				"energy": -0.25833,
				"method": "rhf"
			},
			{
				"type": "occ",
				"energy": -0.22045,
				"method": "rhf"
			},
			{
				"type": "unocc",
				"energy": -0.0664,
				"method": "rhf"
			},
			{
				"type": "unocc",
				"energy": -0.04799,
				"method": "rhf"
			},
			{
				"type": "unocc",
				"energy": -0.02496,
				"method": "rhf"
			},
			{
				"type": "unocc",
				"energy": 0.03473,
				"method": "rhf"
			},
			{
				"type": "unocc",
				"energy": 0.03503,
				"method": "rhf"
			}
		],
		"cosmo_sigma_profile": { 
			"-0.025": 0.0,
			"-0.024": 0.0,
			"-0.023": 0.0,
			"-0.022": 0.0,
			"-0.021": 0.0,
			"-0.02": 0.0,
			"-0.019": 0.0,
			"-0.018": 0.0,
			"-0.017": 0.0,
			"-0.016": 0.0,
			"-0.015": 0.0,
			"-0.014": 0.0,
			"-0.013": 0.0,
			"-0.012": 0.0,
			"-0.011": 0.0,
			"-0.01": 0.0619291787087,
			"-0.009": 1.67073711582,
			"-0.008": 5.55471037977,
			"-0.007": 7.35292679772,
			"-0.006": 12.4830035819,
			"-0.005": 14.3041023854,
			"-0.004": 17.0620013825,
			"-0.003": 20.1787578011,
			"-0.002": 18.8062560323,
			"-0.001": 19.1397911863,
			"0.0": 25.8526322242,
			"0.001": 24.1696526392,
			"0.002": 19.1237118799,
			"0.003": 15.8570566735,
			"0.004": 7.06242655416,
			"0.005": 4.68682837952,
			"0.006": 2.98007394239,
			"0.007": 2.56863721996,
			"0.008": 2.56537864176,
			"0.009": 3.36830467568,
			"0.01": 3.11506237583,
			"0.011": 4.1885375679,
			"0.012": 4.23940208644,
			"0.013": 1.63265317741,
			"0.014": 0.984652180654,
			"0.015": 0.635388257119,
			"0.016": 1.20071257473,
			"0.017": 0.135385448211,
			"0.018": 0.0,
			"0.019": 0.0,
			"0.02": 0.0,
			"0.021": 0.0,
			"0.022": 0.0,
			"0.023": 0.0,
			"0.024": 0.0,
			"0.025": 0.0
		}
	}
}
