{
	 "smiles": "CC(C)(C)C(O)C(C)(C)C", 
	 "Tm": 323.15, 
	 "num_atms": 30, 
	 "gaussian": { 
		 "optdone": 1, 
		 "sigma_profile": "yes", 
		 "theory": "DFT", 
		 "functional": "B3LYP", 
		 "basiset": "6-31G**", 
		 "properties": { 
			 "R2extent": 1861.675, 
			 "electric_dipole_moment_norm": 1.36578132217, 
			 "electric_quadrupole_moment_norm": 4.74209121802, 
			 "total_energy": -430.244498415, 
			 "HOMO_LUMO_gap": 0.32048, 
			 "cosmo_polarized_energy": -4.88, 
			 "cosmo_cavitation_energy": 27.8, 
			 "cosmo_dispersion_energy": -19.72, 
			 "cosmo_repulsion_energy": 1.54, 
			 "cosmo_total_nonelectrostatic_energy": 9.62, 
			 "SMD_solvation_energy": 5.02 
		},
		"coords": [
			{
				"x": 1.7250849195,
				"y": -0.0491646704,
				"z": 0.7082482854,
				"element": "C" 
			},
			{
				"x": 0.2301289262,
				"y": 0.3324121294,
				"z": 0.77815346,
				"element": "C" 
			},
			{
				"x": 0.0208461681,
				"y": 1.193856788,
				"z": 2.0477195205,
				"element": "C" 
			},
			{
				"x": -0.6100385424,
				"y": -0.9473589113,
				"z": 0.9398860744,
				"element": "C" 
			},
			{
				"x": -0.2187335059,
				"y": 1.2275253759,
				"z": -0.4318485038,
				"element": "C" 
			},
			{
				"x": 0.7629409226,
				"y": 2.2741710833,
				"z": -0.4832792652,
				"element": "O" 
			},
			{
				"x": -0.4712172955,
				"y": 0.6531899803,
				"z": -1.8766919341,
				"element": "C" 
			},
			{
				"x": -0.6807203705,
				"y": 1.8673384211,
				"z": -2.8167780571,
				"element": "C" 
			},
			{
				"x": 0.7093066315,
				"y": -0.1686513605,
				"z": -2.42429271,
				"element": "C" 
			},
			{
				"x": -1.7704005577,
				"y": -0.1787642313,
				"z": -1.9405682159,
				"element": "C" 
			},
			{
				"x": 2.348284989,
				"y": 0.8358825514,
				"z": 0.5660311523,
				"element": "H" 
			},
			{
				"x": 2.0227985248,
				"y": -0.5300260121,
				"z": 1.6470109781,
				"element": "H" 
			},
			{
				"x": 1.9395114504,
				"y": -0.7520956267,
				"z": -0.0996062444,
				"element": "H" 
			},
			{
				"x": -1.0396481284,
				"y": 1.432238134,
				"z": 2.1940684427,
				"element": "H" 
			},
			{
				"x": 0.3650413394,
				"y": 0.6547159545,
				"z": 2.9369779345,
				"element": "H" 
			},
			{
				"x": 0.5754923232,
				"y": 2.1319755801,
				"z": 1.975299628,
				"element": "H" 
			},
			{
				"x": -0.3603410868,
				"y": -1.4252360371,
				"z": 1.8939600039,
				"element": "H" 
			},
			{
				"x": -0.4121120666,
				"y": -1.6802461889,
				"z": 0.1529982505,
				"element": "H" 
			},
			{
				"x": -1.6847925188,
				"y": -0.7362733651,
				"z": 0.9521246095,
				"element": "H" 
			},
			{
				"x": -1.1887294325,
				"y": 1.6614314094,
				"z": -0.1315523137,
				"element": "H" 
			},
			{
				"x": 0.366348198,
				"y": 3.0362506947,
				"z": -0.9192720907,
				"element": "H" 
			},
			{
				"x": -1.4722098083,
				"y": 2.5331389103,
				"z": -2.4474220476,
				"element": "H" 
			},
			{
				"x": -0.9854445911,
				"y": 1.5252196015,
				"z": -3.8109739113,
				"element": "H" 
			},
			{
				"x": 0.2372227081,
				"y": 2.4491328593,
				"z": -2.9410993848,
				"element": "H" 
			},
			{
				"x": 0.5617106347,
				"y": -0.3787930275,
				"z": -3.4900438596,
				"element": "H" 
			},
			{
				"x": 1.6492752919,
				"y": 0.3799651682,
				"z": -2.3153995875,
				"element": "H" 
			},
			{
				"x": 0.8109175279,
				"y": -1.1311744213,
				"z": -1.915194495,
				"element": "H" 
			},
			{
				"x": -2.013463441,
				"y": -0.4057732245,
				"z": -2.984664927,
				"element": "H" 
			},
			{
				"x": -2.6194845258,
				"y": 0.3738950259,
				"z": -1.5207415739,
				"element": "H" 
			},
			{
				"x": -1.6956746842,
				"y": -1.1296825905,
				"z": -1.4127492184,
				"element": "H" 
			}
		],
		 "valence_orbital": [ 
			{
				"type": "occ",
				"energy": -0.31883,
				"method": "rhf"
			},
			{
				"type": "occ",
				"energy": -0.31452,
				"method": "rhf"
			},
			{
				"type": "occ",
				"energy": -0.30906,
				"method": "rhf"
			},
			{
				"type": "occ",
				"energy": -0.29199,
				"method": "rhf"
			},
			{
				"type": "occ",
				"energy": -0.25654,
				"method": "rhf"
			},
			{
				"type": "unocc",
				"energy": 0.06394,
				"method": "rhf"
			},
			{
				"type": "unocc",
				"energy": 0.09334,
				"method": "rhf"
			},
			{
				"type": "unocc",
				"energy": 0.11538,
				"method": "rhf"
			},
			{
				"type": "unocc",
				"energy": 0.11738,
				"method": "rhf"
			},
			{
				"type": "unocc",
				"energy": 0.12291,
				"method": "rhf"
			}
		],
		"cosmo_sigma_profile": { 
			"-0.025": 0.0,
			"-0.024": 0.0,
			"-0.023": 0.0,
			"-0.022": 0.0,
			"-0.021": 0.0,
			"-0.02": 0.0,
			"-0.019": 0.0,
			"-0.018": 0.0,
			"-0.017": 0.0,
			"-0.016": 0.0,
			"-0.015": 0.0,
			"-0.014": 0.56664038465,
			"-0.013": 0.546548205256,
			"-0.012": 0.499706910814,
			"-0.011": 1.1539004425,
			"-0.01": 1.00676436731,
			"-0.009": 1.0178774234,
			"-0.008": 0.537075229088,
			"-0.007": 1.25610568494,
			"-0.006": 1.25574172495,
			"-0.005": 1.88616126866,
			"-0.004": 2.3510441185,
			"-0.003": 13.2228854682,
			"-0.002": 36.2136026399,
			"-0.001": 30.5019563125,
			"0.0": 30.58568701,
			"0.001": 33.1430758198,
			"0.002": 33.8292950218,
			"0.003": 6.98446205993,
			"0.004": 2.61886421406,
			"0.005": 1.73572349063,
			"0.006": 1.40261914555,
			"0.007": 1.97994396758,
			"0.008": 1.47092353242,
			"0.009": 1.90604581426,
			"0.01": 1.34171127948,
			"0.011": 1.1851808531,
			"0.012": 1.03903817913,
			"0.013": 0.505728641755,
			"0.014": 0.0,
			"0.015": 0.0,
			"0.016": 0.0,
			"0.017": 0.0,
			"0.018": 0.0,
			"0.019": 0.0,
			"0.02": 0.0,
			"0.021": 0.0,
			"0.022": 0.0,
			"0.023": 0.0,
			"0.024": 0.0,
			"0.025": 0.0
		}
	}
}
