{
	 "smiles": "CC1=NN(C(C)=C1C=O)C(C)(C)C", 
	 "Tm": 331.65, 
	 "num_atms": 29, 
	 "gaussian": { 
		 "optdone": 1, 
		 "sigma_profile": "yes", 
		 "theory": "DFT", 
		 "functional": "B3LYP", 
		 "basiset": "6-31G**", 
		 "properties": { 
			 "R2extent": 3295.2472, 
			 "electric_dipole_moment_norm": 5.22783044388, 
			 "electric_quadrupole_moment_norm": 16.9420214603, 
			 "total_energy": -575.433241337, 
			 "HOMO_LUMO_gap": 0.20575, 
			 "cosmo_polarized_energy": -11.6, 
			 "cosmo_cavitation_energy": 30.41, 
			 "cosmo_dispersion_energy": -21.3, 
			 "cosmo_repulsion_energy": 1.67, 
			 "cosmo_total_nonelectrostatic_energy": 10.77, 
			 "SMD_solvation_energy": 5.78 
		},
		"coords": [
			{
				"x": -1.8283867604,
				"y": -0.9968674134,
				"z": -3.4059873865,
				"element": "C" 
			},
			{
				"x": -1.426167192,
				"y": -0.2027056137,
				"z": -2.2045479307,
				"element": "C" 
			},
			{
				"x": -1.0272234958,
				"y": -0.7990254858,
				"z": -1.0942074148,
				"element": "N" 
			},
			{
				"x": -0.7232410295,
				"y": 0.2003558361,
				"z": -0.2049525907,
				"element": "N" 
			},
			{
				"x": -0.9489936832,
				"y": 1.4330920635,
				"z": -0.7386222377,
				"element": "C" 
			},
			{
				"x": -0.7372956823,
				"y": 2.7494286441,
				"z": -0.0521053115,
				"element": "C" 
			},
			{
				"x": -1.3998951194,
				"y": 1.2147738019,
				"z": -2.0474865528,
				"element": "C" 
			},
			{
				"x": -1.7663718021,
				"y": 2.211348411,
				"z": -3.0386789242,
				"element": "C" 
			},
			{
				"x": -2.1496880118,
				"y": 1.9580407223,
				"z": -4.1725378916,
				"element": "O" 
			},
			{
				"x": -0.331623125,
				"y": -0.1996418228,
				"z": 1.1837724156,
				"element": "C" 
			},
			{
				"x": 0.8956479976,
				"y": 0.6066916046,
				"z": 1.6490253119,
				"element": "C" 
			},
			{
				"x": -1.5349289066,
				"y": 0.021409049,
				"z": 2.1209022394,
				"element": "C" 
			},
			{
				"x": 0.0434160398,
				"y": -1.6916683329,
				"z": 1.1803218491,
				"element": "C" 
			},
			{
				"x": -1.2004588636,
				"y": -0.748957015,
				"z": -4.2670697193,
				"element": "H" 
			},
			{
				"x": -2.8567729531,
				"y": -0.7671814165,
				"z": -3.7003802327,
				"element": "H" 
			},
			{
				"x": -1.7416953357,
				"y": -2.0639995206,
				"z": -3.189397833,
				"element": "H" 
			},
			{
				"x": 0.3251425332,
				"y": 2.9972703855,
				"z": 0.0412013628,
				"element": "H" 
			},
			{
				"x": -1.1749821121,
				"y": 2.7745514212,
				"z": 0.9492127087,
				"element": "H" 
			},
			{
				"x": -1.207598956,
				"y": 3.5440691024,
				"z": -0.6338935566,
				"element": "H" 
			},
			{
				"x": -1.6810897638,
				"y": 3.2710257234,
				"z": -2.7087325375,
				"element": "H" 
			},
			{
				"x": 1.2531929103,
				"y": 0.1936939296,
				"z": 2.5967867526,
				"element": "H" 
			},
			{
				"x": 1.7079223786,
				"y": 0.5310391989,
				"z": 0.9199197041,
				"element": "H" 
			},
			{
				"x": 0.6757765962,
				"y": 1.6613524473,
				"z": 1.8189587389,
				"element": "H" 
			},
			{
				"x": -1.2832485598,
				"y": -0.3024161162,
				"z": 3.1357258092,
				"element": "H" 
			},
			{
				"x": -2.3944186276,
				"y": -0.5606516315,
				"z": 1.7767742008,
				"element": "H" 
			},
			{
				"x": -1.8308069632,
				"y": 1.073069239,
				"z": 2.1697330912,
				"element": "H" 
			},
			{
				"x": -0.7939443942,
				"y": -2.3171768653,
				"z": 0.8725764178,
				"element": "H" 
			},
			{
				"x": 0.3453844997,
				"y": -1.9713408089,
				"z": 2.194353151,
				"element": "H" 
			},
			{
				"x": 0.8757483819,
				"y": -1.8888795371,
				"z": 0.5006363668,
				"element": "H" 
			}
		],
		 "valence_orbital": [ 
			{
				"type": "occ",
				"energy": -0.34522,
				"method": "rhf"
			},
			{
				"type": "occ",
				"energy": -0.2832,
				"method": "rhf"
			},
			{
				"type": "occ",
				"energy": -0.24396,
				"method": "rhf"
			},
			{
				"type": "occ",
				"energy": -0.24236,
				"method": "rhf"
			},
			{
				"type": "occ",
				"energy": -0.23713,
				"method": "rhf"
			},
			{
				"type": "unocc",
				"energy": -0.03138,
				"method": "rhf"
			},
			{
				"type": "unocc",
				"energy": 0.02185,
				"method": "rhf"
			},
			{
				"type": "unocc",
				"energy": 0.06429,
				"method": "rhf"
			},
			{
				"type": "unocc",
				"energy": 0.09205,
				"method": "rhf"
			},
			{
				"type": "unocc",
				"energy": 0.1023,
				"method": "rhf"
			}
		],
		"cosmo_sigma_profile": { 
			"-0.025": 0.0,
			"-0.024": 0.0,
			"-0.023": 0.0,
			"-0.022": 0.0,
			"-0.021": 0.0,
			"-0.02": 0.0,
			"-0.019": 0.0,
			"-0.018": 0.0,
			"-0.017": 0.0,
			"-0.016": 0.0,
			"-0.015": 0.0,
			"-0.014": 0.0,
			"-0.013": 0.0,
			"-0.012": 0.0,
			"-0.011": 0.0,
			"-0.01": 0.0,
			"-0.009": 0.0,
			"-0.008": 0.170696681418,
			"-0.007": 3.47769285768,
			"-0.006": 7.3227227853,
			"-0.005": 11.1721931858,
			"-0.004": 24.8272146352,
			"-0.003": 26.221690863,
			"-0.002": 31.2263041305,
			"-0.001": 27.025052401,
			"0.0": 31.5809404388,
			"0.001": 17.9212188689,
			"0.002": 9.56123481999,
			"0.003": 8.33029422755,
			"0.004": 5.51495811284,
			"0.005": 3.50333574123,
			"0.006": 4.0357863098,
			"0.007": 3.81528399797,
			"0.008": 3.07665528937,
			"0.009": 3.22999630762,
			"0.01": 3.1743298989,
			"0.011": 3.11030407106,
			"0.012": 5.21672739366,
			"0.013": 3.20724398083,
			"0.014": 1.20664442737,
			"0.015": 0.0707688132756,
			"0.016": 0.0,
			"0.017": 0.0,
			"0.018": 0.0,
			"0.019": 0.0,
			"0.02": 0.0,
			"0.021": 0.0,
			"0.022": 0.0,
			"0.023": 0.0,
			"0.024": 0.0,
			"0.025": 0.0
		}
	}
}
