{
	 "smiles": "OC(=O)C1=C(N=CC=C1)N1CCCCC1", 
	 "Tm": 368.15, 
	 "num_atms": 29, 
	 "gaussian": { 
		 "optdone": 1, 
		 "sigma_profile": "yes", 
		 "theory": "DFT", 
		 "functional": "B3LYP", 
		 "basiset": "6-31G**", 
		 "properties": { 
			 "R2extent": 3602.8829, 
			 "electric_dipole_moment_norm": 5.09447403566, 
			 "electric_quadrupole_moment_norm": 21.3898518702, 
			 "total_energy": -687.572000121, 
			 "HOMO_LUMO_gap": 0.19337, 
			 "cosmo_polarized_energy": -12.3, 
			 "cosmo_cavitation_energy": 30.43, 
			 "cosmo_dispersion_energy": -22.16, 
			 "cosmo_repulsion_energy": 1.71, 
			 "cosmo_total_nonelectrostatic_energy": 9.99, 
			 "SMD_solvation_energy": 5.08 
		},
		"coords": [
			{
				"x": -2.0871761624,
				"y": 1.8615455015,
				"z": -1.7250650564,
				"element": "O" 
			},
			{
				"x": -1.3795997729,
				"y": 2.9137284261,
				"z": -1.3055015053,
				"element": "C" 
			},
			{
				"x": -1.7241145086,
				"y": 4.0584892302,
				"z": -1.5162112567,
				"element": "O" 
			},
			{
				"x": -0.0965011039,
				"y": 2.6058113634,
				"z": -0.5630180167,
				"element": "C" 
			},
			{
				"x": 0.3381051879,
				"y": 1.3159687292,
				"z": -0.196114712,
				"element": "C" 
			},
			{
				"x": 1.51476103,
				"y": 1.0826525993,
				"z": 0.3916188322,
				"element": "N" 
			},
			{
				"x": 2.3115269788,
				"y": 2.1249048043,
				"z": 0.6522377743,
				"element": "C" 
			},
			{
				"x": 1.96663339,
				"y": 3.445562659,
				"z": 0.3621210364,
				"element": "C" 
			},
			{
				"x": 0.7448689556,
				"y": 3.6809891306,
				"z": -0.2581941336,
				"element": "C" 
			},
			{
				"x": -0.5199769388,
				"y": 0.1852662822,
				"z": -0.4420776602,
				"element": "N" 
			},
			{
				"x": 0.1815601423,
				"y": -1.02828185,
				"z": -0.9639123181,
				"element": "C" 
			},
			{
				"x": 0.3437217177,
				"y": -2.1249073919,
				"z": 0.090578953,
				"element": "C" 
			},
			{
				"x": -1.0297659237,
				"y": -2.5995551059,
				"z": 0.6161716761,
				"element": "C" 
			},
			{
				"x": -2.066502025,
				"y": -1.4509632097,
				"z": 0.5948600289,
				"element": "C" 
			},
			{
				"x": -1.3882306103,
				"y": -0.0906906822,
				"z": 0.745328391,
				"element": "C" 
			},
			{
				"x": -1.594222669,
				"y": 1.0336112097,
				"z": -1.4328744723,
				"element": "H" 
			},
			{
				"x": 3.2660867415,
				"y": 1.8908018811,
				"z": 1.1199991106,
				"element": "H" 
			},
			{
				"x": 2.6430225609,
				"y": 4.2580289437,
				"z": 0.606148622,
				"element": "H" 
			},
			{
				"x": 0.4162760992,
				"y": 4.6774069982,
				"z": -0.5345766363,
				"element": "H" 
			},
			{
				"x": 1.1545532602,
				"y": -0.7155548621,
				"z": -1.3462299731,
				"element": "H" 
			},
			{
				"x": -0.4006115972,
				"y": -1.408640148,
				"z": -1.812808231,
				"element": "H" 
			},
			{
				"x": 0.9550801594,
				"y": -1.7261967648,
				"z": 0.9062509969,
				"element": "H" 
			},
			{
				"x": 0.9022807801,
				"y": -2.9624514642,
				"z": -0.3415893581,
				"element": "H" 
			},
			{
				"x": -1.4005798346,
				"y": -3.4334170859,
				"z": 0.0097854289,
				"element": "H" 
			},
			{
				"x": -0.9159829468,
				"y": -2.9849102363,
				"z": 1.6355071234,
				"element": "H" 
			},
			{
				"x": -2.8031115432,
				"y": -1.5747546991,
				"z": 1.3951948667,
				"element": "H" 
			},
			{
				"x": -2.6286614071,
				"y": -1.4568585365,
				"z": -0.3467246304,
				"element": "H" 
			},
			{
				"x": -0.7890090618,
				"y": -0.0669044149,
				"z": 1.6670205833,
				"element": "H" 
			},
			{
				"x": -2.1280308985,
				"y": 0.7134186931,
				"z": 0.8097745365,
				"element": "H" 
			}
		],
		 "valence_orbital": [ 
			{
				"type": "occ",
				"energy": -0.28997,
				"method": "rhf"
			},
			{
				"type": "occ",
				"energy": -0.2848,
				"method": "rhf"
			},
			{
				"type": "occ",
				"energy": -0.27746,
				"method": "rhf"
			},
			{
				"type": "occ",
				"energy": -0.25636,
				"method": "rhf"
			},
			{
				"type": "occ",
				"energy": -0.24686,
				"method": "rhf"
			},
			{
				"type": "unocc",
				"energy": -0.05349,
				"method": "rhf"
			},
			{
				"type": "unocc",
				"energy": -0.03499,
				"method": "rhf"
			},
			{
				"type": "unocc",
				"energy": 0.05345,
				"method": "rhf"
			},
			{
				"type": "unocc",
				"energy": 0.06967,
				"method": "rhf"
			},
			{
				"type": "unocc",
				"energy": 0.09692,
				"method": "rhf"
			}
		],
		"cosmo_sigma_profile": { 
			"-0.025": 0.0,
			"-0.024": 0.0,
			"-0.023": 0.0,
			"-0.022": 0.0,
			"-0.021": 0.0,
			"-0.02": 0.0,
			"-0.019": 0.0,
			"-0.018": 0.0,
			"-0.017": 0.0,
			"-0.016": 0.0,
			"-0.015": 0.0,
			"-0.014": 0.0,
			"-0.013": 0.0,
			"-0.012": 0.0,
			"-0.011": 0.0,
			"-0.01": 0.0,
			"-0.009": 0.0,
			"-0.008": 0.879640361792,
			"-0.007": 6.07019525592,
			"-0.006": 7.42874840704,
			"-0.005": 11.4810736236,
			"-0.004": 19.9181134747,
			"-0.003": 31.5334514675,
			"-0.002": 39.3478189648,
			"-0.001": 26.2247950184,
			"0.0": 23.5206748191,
			"0.001": 18.2523034038,
			"0.002": 7.57592178502,
			"0.003": 5.18458599288,
			"0.004": 3.05918173215,
			"0.005": 4.12968685248,
			"0.006": 3.94033720023,
			"0.007": 2.89235719451,
			"0.008": 3.62110607875,
			"0.009": 3.87174316126,
			"0.01": 4.50578211363,
			"0.011": 5.44234416559,
			"0.012": 6.83156799361,
			"0.013": 3.01072685773,
			"0.014": 1.1314110495,
			"0.015": 0.0,
			"0.016": 0.0,
			"0.017": 0.0,
			"0.018": 0.0,
			"0.019": 0.0,
			"0.02": 0.0,
			"0.021": 0.0,
			"0.022": 0.0,
			"0.023": 0.0,
			"0.024": 0.0,
			"0.025": 0.0
		}
	}
}
