{
	 "smiles": "NCC1=CC(=CC=C1)N1CCOC1=O", 
	 "Tm": 367.15, 
	 "num_atms": 26, 
	 "gaussian": { 
		 "optdone": 1, 
		 "sigma_profile": "yes", 
		 "theory": "DFT", 
		 "functional": "B3LYP", 
		 "basiset": "6-31G**", 
		 "properties": { 
			 "R2extent": 4682.7285, 
			 "electric_dipole_moment_norm": 3.61220031144, 
			 "electric_quadrupole_moment_norm": 23.1983258693, 
			 "total_energy": -648.256041632, 
			 "HOMO_LUMO_gap": 0.21193, 
			 "cosmo_polarized_energy": -16.82, 
			 "cosmo_cavitation_energy": 29.16, 
			 "cosmo_dispersion_energy": -21.54, 
			 "cosmo_repulsion_energy": 1.7, 
			 "cosmo_total_nonelectrostatic_energy": 9.33, 
			 "SMD_solvation_energy": 4.23 
		},
		"coords": [
			{
				"x": 3.5025384602,
				"y": -1.9236931503,
				"z": 0.3260468991,
				"element": "N" 
			},
			{
				"x": 3.0163150247,
				"y": -1.7985227385,
				"z": 1.7105418297,
				"element": "C" 
			},
			{
				"x": 2.1303640475,
				"y": -0.5948600032,
				"z": 1.9861524197,
				"element": "C" 
			},
			{
				"x": 0.7392149234,
				"y": -0.7055919479,
				"z": 1.8755794289,
				"element": "C" 
			},
			{
				"x": -0.0989046737,
				"y": 0.405225514,
				"z": 2.0654774656,
				"element": "C" 
			},
			{
				"x": 0.4747072394,
				"y": 1.6514650837,
				"z": 2.3722942575,
				"element": "C" 
			},
			{
				"x": 1.8585664644,
				"y": 1.7547796682,
				"z": 2.4895362086,
				"element": "C" 
			},
			{
				"x": 2.687546676,
				"y": 0.6488528452,
				"z": 2.3009376002,
				"element": "C" 
			},
			{
				"x": -1.4983564181,
				"y": 0.2445558731,
				"z": 1.9249374875,
				"element": "N" 
			},
			{
				"x": -2.1080757753,
				"y": -1.0258422859,
				"z": 1.5517362074,
				"element": "C" 
			},
			{
				"x": -3.5783195946,
				"y": -0.615088176,
				"z": 1.3923753193,
				"element": "C" 
			},
			{
				"x": -3.7027697894,
				"y": 0.5967089299,
				"z": 2.1468136614,
				"element": "O" 
			},
			{
				"x": -2.4668025003,
				"y": 1.1434513024,
				"z": 2.3609634913,
				"element": "C" 
			},
			{
				"x": -2.3201423497,
				"y": 2.2354328362,
				"z": 2.8543031925,
				"element": "O" 
			},
			{
				"x": 4.0309598511,
				"y": -1.0879175139,
				"z": 0.0821690411,
				"element": "H" 
			},
			{
				"x": 2.7050610027,
				"y": -1.9331625116,
				"z": -0.3074958508,
				"element": "H" 
			},
			{
				"x": 3.8940354127,
				"y": -1.766023477,
				"z": 2.3658168443,
				"element": "H" 
			},
			{
				"x": 2.4755613627,
				"y": -2.7198021306,
				"z": 1.9567555532,
				"element": "H" 
			},
			{
				"x": 0.3167572432,
				"y": -1.6795013724,
				"z": 1.6492947068,
				"element": "H" 
			},
			{
				"x": -0.1616463465,
				"y": 2.5096576228,
				"z": 2.5323817399,
				"element": "H" 
			},
			{
				"x": 2.2918435758,
				"y": 2.7196964825,
				"z": 2.7377332046,
				"element": "H" 
			},
			{
				"x": 3.765412468,
				"y": 0.7489905773,
				"z": 2.4037393594,
				"element": "H" 
			},
			{
				"x": -1.6871712206,
				"y": -1.4160900976,
				"z": 0.6205593397,
				"element": "H" 
			},
			{
				"x": -1.9672034114,
				"y": -1.7799648245,
				"z": 2.3381062862,
				"element": "H" 
			},
			{
				"x": -3.8321532242,
				"y": -0.4080705944,
				"z": 0.3466571428,
				"element": "H" 
			},
			{
				"x": -4.278638448,
				"y": -1.3501859116,
				"z": 1.7930871643,
				"element": "H" 
			}
		],
		 "valence_orbital": [ 
			{
				"type": "occ",
				"energy": -0.29972,
				"method": "rhf"
			},
			{
				"type": "occ",
				"energy": -0.27966,
				"method": "rhf"
			},
			{
				"type": "occ",
				"energy": -0.2574,
				"method": "rhf"
			},
			{
				"type": "occ",
				"energy": -0.23647,
				"method": "rhf"
			},
			{
				"type": "occ",
				"energy": -0.22025,
				"method": "rhf"
			},
			{
				"type": "unocc",
				"energy": -0.00832,
				"method": "rhf"
			},
			{
				"type": "unocc",
				"energy": -0.00595,
				"method": "rhf"
			},
			{
				"type": "unocc",
				"energy": 0.04956,
				"method": "rhf"
			},
			{
				"type": "unocc",
				"energy": 0.0717,
				"method": "rhf"
			},
			{
				"type": "unocc",
				"energy": 0.0836,
				"method": "rhf"
			}
		],
		"cosmo_sigma_profile": { 
			"-0.025": 0.0,
			"-0.024": 0.0,
			"-0.023": 0.0,
			"-0.022": 0.0,
			"-0.021": 0.0,
			"-0.02": 0.0,
			"-0.019": 0.0,
			"-0.018": 0.0,
			"-0.017": 0.0,
			"-0.016": 0.0,
			"-0.015": 0.0,
			"-0.014": 0.0,
			"-0.013": 0.0,
			"-0.012": 0.0,
			"-0.011": 0.0,
			"-0.01": 0.156811139971,
			"-0.009": 2.31243948729,
			"-0.008": 3.67916065643,
			"-0.007": 15.6512069976,
			"-0.006": 23.0076196644,
			"-0.005": 22.0680609313,
			"-0.004": 18.7896069623,
			"-0.003": 15.3758721848,
			"-0.002": 12.9023734986,
			"-0.001": 12.6120903659,
			"0.0": 9.9279710975,
			"0.001": 10.1012780105,
			"0.002": 11.0458722743,
			"0.003": 10.1992148802,
			"0.004": 9.86133078186,
			"0.005": 11.3601715495,
			"0.006": 9.46996331834,
			"0.007": 3.82149643655,
			"0.008": 2.642233273,
			"0.009": 4.102920674,
			"0.01": 5.21586090724,
			"0.011": 4.30528498694,
			"0.012": 5.26271269599,
			"0.013": 2.58421709336,
			"0.014": 0.150235062385,
			"0.015": 0.694645270258,
			"0.016": 1.21921177206,
			"0.017": 0.427866307895,
			"0.018": 0.927585551014,
			"0.019": 0.348029155313,
			"0.02": 0.385620132207,
			"0.021": 0.0,
			"0.022": 0.0,
			"0.023": 0.0,
			"0.024": 0.0,
			"0.025": 0.0
		}
	}
}
