{
	 "smiles": "OCC(=O)N1CCCC1", 
	 "Tm": 311.15, 
	 "num_atms": 20, 
	 "gaussian": { 
		 "optdone": 1, 
		 "sigma_profile": "yes", 
		 "theory": "DFT", 
		 "functional": "B3LYP", 
		 "basiset": "6-31G**", 
		 "properties": { 
			 "R2extent": 1421.5746, 
			 "electric_dipole_moment_norm": 2.81237232421, 
			 "electric_quadrupole_moment_norm": 10.9806320884, 
			 "total_energy": -440.466772252, 
			 "HOMO_LUMO_gap": 0.24694, 
			 "cosmo_polarized_energy": -11.9, 
			 "cosmo_cavitation_energy": 22.07, 
			 "cosmo_dispersion_energy": -16.52, 
			 "cosmo_repulsion_energy": 1.39, 
			 "cosmo_total_nonelectrostatic_energy": 6.94, 
			 "SMD_solvation_energy": 3.53 
		},
		"coords": [
			{
				"x": 1.2514557898,
				"y": 0.111885444,
				"z": 2.0381189216,
				"element": "O" 
			},
			{
				"x": 2.0029353338,
				"y": 0.6004094657,
				"z": 0.9288977043,
				"element": "C" 
			},
			{
				"x": 1.1283375996,
				"y": 1.300702557,
				"z": -0.1211061131,
				"element": "C" 
			},
			{
				"x": 1.2289746605,
				"y": 2.51170797,
				"z": -0.3201370052,
				"element": "O" 
			},
			{
				"x": 0.2298542466,
				"y": 0.5298308693,
				"z": -0.7899582725,
				"element": "N" 
			},
			{
				"x": -0.6754785985,
				"y": 1.1362805662,
				"z": -1.7775157872,
				"element": "C" 
			},
			{
				"x": -1.3950892493,
				"y": -0.0720312989,
				"z": -2.3958439147,
				"element": "C" 
			},
			{
				"x": -1.3874420747,
				"y": -1.1131371242,
				"z": -1.2623512481,
				"element": "C" 
			},
			{
				"x": -0.0108773876,
				"y": -0.9112722782,
				"z": -0.6121534816,
				"element": "C" 
			},
			{
				"x": 0.8453788795,
				"y": 0.8757272685,
				"z": 2.4691271296,
				"element": "H" 
			},
			{
				"x": 2.7630367995,
				"y": 1.328787748,
				"z": 1.233798017,
				"element": "H" 
			},
			{
				"x": 2.5081575914,
				"y": -0.2721512816,
				"z": 0.5013831913,
				"element": "H" 
			},
			{
				"x": -1.3728253313,
				"y": 1.8197478348,
				"z": -1.2759152291,
				"element": "H" 
			},
			{
				"x": -0.1089642804,
				"y": 1.7296097139,
				"z": -2.5007001,
				"element": "H" 
			},
			{
				"x": -2.4003038242,
				"y": 0.1768605514,
				"z": -2.7459429357,
				"element": "H" 
			},
			{
				"x": -0.827762855,
				"y": -0.4495122735,
				"z": -3.254418824,
				"element": "H" 
			},
			{
				"x": -1.5370472431,
				"y": -2.1380332331,
				"z": -1.6125173867,
				"element": "H" 
			},
			{
				"x": -2.1773212109,
				"y": -0.8869476735,
				"z": -0.5369191383,
				"element": "H" 
			},
			{
				"x": 0.0155561946,
				"y": -1.1765533595,
				"z": 0.4462452109,
				"element": "H" 
			},
			{
				"x": 0.7549249596,
				"y": -1.5022114662,
				"z": -1.1366907387,
				"element": "H" 
			}
		],
		 "valence_orbital": [ 
			{
				"type": "occ",
				"energy": -0.345,
				"method": "rhf"
			},
			{
				"type": "occ",
				"energy": -0.33787,
				"method": "rhf"
			},
			{
				"type": "occ",
				"energy": -0.28875,
				"method": "rhf"
			},
			{
				"type": "occ",
				"energy": -0.23372,
				"method": "rhf"
			},
			{
				"type": "occ",
				"energy": -0.2324,
				"method": "rhf"
			},
			{
				"type": "unocc",
				"energy": 0.01454,
				"method": "rhf"
			},
			{
				"type": "unocc",
				"energy": 0.07846,
				"method": "rhf"
			},
			{
				"type": "unocc",
				"energy": 0.09496,
				"method": "rhf"
			},
			{
				"type": "unocc",
				"energy": 0.10904,
				"method": "rhf"
			},
			{
				"type": "unocc",
				"energy": 0.12712,
				"method": "rhf"
			}
		],
		"cosmo_sigma_profile": { 
			"-0.025": 0.0,
			"-0.024": 0.0,
			"-0.023": 0.0,
			"-0.022": 0.0,
			"-0.021": 0.0,
			"-0.02": 0.0,
			"-0.019": 0.0,
			"-0.018": 0.0,
			"-0.017": 0.114888566689,
			"-0.016": 1.04199684832,
			"-0.015": 0.834691383215,
			"-0.014": 1.07628052704,
			"-0.013": 0.912701274081,
			"-0.012": 0.371287744156,
			"-0.011": 0.818365988695,
			"-0.01": 1.10454217908,
			"-0.009": 1.00888843304,
			"-0.008": 0.805694925313,
			"-0.007": 0.901186559785,
			"-0.006": 3.12400115681,
			"-0.005": 6.24908964051,
			"-0.004": 17.9930844394,
			"-0.003": 29.1238379931,
			"-0.002": 25.9566162794,
			"-0.001": 16.0577385805,
			"0.0": 14.6065548631,
			"0.001": 6.57555999059,
			"0.002": 4.41274593117,
			"0.003": 2.84838473962,
			"0.004": 3.19262602599,
			"0.005": 2.77825070927,
			"0.006": 2.48238316463,
			"0.007": 2.2878594304,
			"0.008": 2.52796190111,
			"0.009": 2.02295456654,
			"0.01": 2.42604608003,
			"0.011": 2.44046022636,
			"0.012": 2.53451193581,
			"0.013": 3.79740181293,
			"0.014": 5.32972626185,
			"0.015": 3.462400082,
			"0.016": 0.314577038433,
			"0.017": 0.0,
			"0.018": 0.0,
			"0.019": 0.0,
			"0.02": 0.0,
			"0.021": 0.0,
			"0.022": 0.0,
			"0.023": 0.0,
			"0.024": 0.0,
			"0.025": 0.0
		}
	}
}
