{
	 "smiles": "CC1=CC=C(C=C1)C(=O)C1=C(N)C=CC=C1", 
	 "Tm": 365.65, 
	 "num_atms": 29, 
	 "gaussian": { 
		 "optdone": 1, 
		 "sigma_profile": "yes", 
		 "theory": "DFT", 
		 "functional": "B3LYP", 
		 "basiset": "6-31G**", 
		 "properties": { 
			 "R2extent": 4437.7984, 
			 "electric_dipole_moment_norm": 4.65879625976, 
			 "electric_quadrupole_moment_norm": 10.3075092253, 
			 "total_energy": -671.311412113, 
			 "HOMO_LUMO_gap": 0.14881, 
			 "cosmo_polarized_energy": -13.14, 
			 "cosmo_cavitation_energy": 32.48, 
			 "cosmo_dispersion_energy": -23.32, 
			 "cosmo_repulsion_energy": 1.81, 
			 "cosmo_total_nonelectrostatic_energy": 10.97, 
			 "SMD_solvation_energy": 5.82 
		},
		"coords": [
			{
				"x": 1.307314691,
				"y": 0.1771594757,
				"z": 4.4744138423,
				"element": "C" 
			},
			{
				"x": 0.5996255238,
				"y": 0.2377893575,
				"z": 3.1424342945,
				"element": "C" 
			},
			{
				"x": 0.9489897783,
				"y": 1.1925572575,
				"z": 2.1789253767,
				"element": "C" 
			},
			{
				"x": 0.3134165836,
				"y": 1.2286343105,
				"z": 0.9375922624,
				"element": "C" 
			},
			{
				"x": -0.7032002038,
				"y": 0.3110461609,
				"z": 0.6327867281,
				"element": "C" 
			},
			{
				"x": -1.0730820382,
				"y": -0.6326896791,
				"z": 1.6050553164,
				"element": "C" 
			},
			{
				"x": -0.4236441294,
				"y": -0.6739803171,
				"z": 2.8327159916,
				"element": "C" 
			},
			{
				"x": -1.4867214246,
				"y": 0.3678951021,
				"z": -0.648388896,
				"element": "C" 
			},
			{
				"x": -2.6416582054,
				"y": -0.0456210136,
				"z": -0.6591159705,
				"element": "O" 
			},
			{
				"x": -0.899292783,
				"y": 0.9918817668,
				"z": -1.8784516733,
				"element": "C" 
			},
			{
				"x": 0.4147539999,
				"y": 0.7516541445,
				"z": -2.3608718522,
				"element": "C" 
			},
			{
				"x": 1.2763477823,
				"y": -0.1657884742,
				"z": -1.7735866879,
				"element": "N" 
			},
			{
				"x": 0.8196202118,
				"y": 1.3985082453,
				"z": -3.5469036567,
				"element": "C" 
			},
			{
				"x": -0.0418060754,
				"y": 2.2343352758,
				"z": -4.2438587295,
				"element": "C" 
			},
			{
				"x": -1.3495655657,
				"y": 2.4446408286,
				"z": -3.7916199674,
				"element": "C" 
			},
			{
				"x": -1.7630218942,
				"y": 1.809746725,
				"z": -2.6284726546,
				"element": "C" 
			},
			{
				"x": 1.8696410576,
				"y": 1.0937358161,
				"z": 4.6724800435,
				"element": "H" 
			},
			{
				"x": 2.0166375942,
				"y": -0.659204916,
				"z": 4.5062666347,
				"element": "H" 
			},
			{
				"x": 0.5989477756,
				"y": 0.0281595632,
				"z": 5.29579172,
				"element": "H" 
			},
			{
				"x": 1.7223445797,
				"y": 1.9220629338,
				"z": 2.4059028109,
				"element": "H" 
			},
			{
				"x": 0.5876893384,
				"y": 1.9878573551,
				"z": 0.2110513805,
				"element": "H" 
			},
			{
				"x": -1.8817577689,
				"y": -1.3187620216,
				"z": 1.3753910168,
				"element": "H" 
			},
			{
				"x": -0.7166414562,
				"y": -1.4168639584,
				"z": 3.5707092106,
				"element": "H" 
			},
			{
				"x": 2.2511794498,
				"y": -0.0649859937,
				"z": -2.0163780711,
				"element": "H" 
			},
			{
				"x": 1.1287386651,
				"y": -0.382112884,
				"z": -0.7990978843,
				"element": "H" 
			},
			{
				"x": 1.823192434,
				"y": 1.2159870968,
				"z": -3.9242200282,
				"element": "H" 
			},
			{
				"x": 0.307274359,
				"y": 2.7194651627,
				"z": -5.1513950828,
				"element": "H" 
			},
			{
				"x": -2.0291807099,
				"y": 3.0885886777,
				"z": -4.3401913087,
				"element": "H" 
			},
			{
				"x": -2.7744415694,
				"y": 1.9395040022,
				"z": -2.256764166,
				"element": "H" 
			}
		],
		 "valence_orbital": [ 
			{
				"type": "occ",
				"energy": -0.26129,
				"method": "rhf"
			},
			{
				"type": "occ",
				"energy": -0.25494,
				"method": "rhf"
			},
			{
				"type": "occ",
				"energy": -0.25084,
				"method": "rhf"
			},
			{
				"type": "occ",
				"energy": -0.2361,
				"method": "rhf"
			},
			{
				"type": "occ",
				"energy": -0.20493,
				"method": "rhf"
			},
			{
				"type": "unocc",
				"energy": -0.05612,
				"method": "rhf"
			},
			{
				"type": "unocc",
				"energy": -0.01111,
				"method": "rhf"
			},
			{
				"type": "unocc",
				"energy": -0.00681,
				"method": "rhf"
			},
			{
				"type": "unocc",
				"energy": 0.01349,
				"method": "rhf"
			},
			{
				"type": "unocc",
				"energy": 0.05463,
				"method": "rhf"
			}
		],
		"cosmo_sigma_profile": { 
			"-0.025": 0.0,
			"-0.024": 0.0,
			"-0.023": 0.0,
			"-0.022": 0.0,
			"-0.021": 0.0,
			"-0.02": 0.0,
			"-0.019": 0.0,
			"-0.018": 0.0,
			"-0.017": 0.0,
			"-0.016": 0.0,
			"-0.015": 0.0,
			"-0.014": 0.0,
			"-0.013": 0.808980032037,
			"-0.012": 1.61187979789,
			"-0.011": 1.15494927134,
			"-0.01": 1.57834265238,
			"-0.009": 3.10636700837,
			"-0.008": 1.9037810602,
			"-0.007": 2.76363263905,
			"-0.006": 8.74994948694,
			"-0.005": 19.8355199827,
			"-0.004": 24.5830716693,
			"-0.003": 22.144704515,
			"-0.002": 21.8486948045,
			"-0.001": 23.4771581938,
			"0.0": 18.4231119753,
			"0.001": 15.5569908932,
			"0.002": 13.7075605794,
			"0.003": 15.581303684,
			"0.004": 18.0089996669,
			"0.005": 14.3448757481,
			"0.006": 8.5583535875,
			"0.007": 2.69502550709,
			"0.008": 2.2712352539,
			"0.009": 2.76990437933,
			"0.01": 2.69094875471,
			"0.011": 3.32147877755,
			"0.012": 4.45919856824,
			"0.013": 2.77551692867,
			"0.014": 0.18386843063,
			"0.015": 0.0,
			"0.016": 0.0,
			"0.017": 0.0,
			"0.018": 0.0,
			"0.019": 0.0,
			"0.02": 0.0,
			"0.021": 0.0,
			"0.022": 0.0,
			"0.023": 0.0,
			"0.024": 0.0,
			"0.025": 0.0
		}
	}
}
