{
	 "smiles": "CCCCCCCC(O)=O", 
	 "Tm": 289.55, 
	 "num_atms": 26, 
	 "gaussian": { 
		 "optdone": 1, 
		 "sigma_profile": "yes", 
		 "theory": "DFT", 
		 "functional": "B3LYP", 
		 "basiset": "6-31G**", 
		 "properties": { 
			 "R2extent": 3138.9406, 
			 "electric_dipole_moment_norm": 4.58768622946, 
			 "electric_quadrupole_moment_norm": 19.2616510562, 
			 "total_energy": -464.965466392, 
			 "HOMO_LUMO_gap": 0.27576, 
			 "cosmo_polarized_energy": -13.05, 
			 "cosmo_cavitation_energy": 27.88, 
			 "cosmo_dispersion_energy": -19.95, 
			 "cosmo_repulsion_energy": 1.67, 
			 "cosmo_total_nonelectrostatic_energy": 9.6, 
			 "SMD_solvation_energy": 5.4 
		},
		"coords": [
			{
				"x": -1.6722530256,
				"y": 0.6066581802,
				"z": 3.6355649654,
				"element": "C" 
			},
			{
				"x": -2.3504150045,
				"y": 0.751703922,
				"z": 2.2662781129,
				"element": "C" 
			},
			{
				"x": -2.0625287814,
				"y": -0.3897228147,
				"z": 1.2650298616,
				"element": "C" 
			},
			{
				"x": -0.8628548188,
				"y": -0.1829972554,
				"z": 0.3217973489,
				"element": "C" 
			},
			{
				"x": 0.5115418571,
				"y": -0.0868495453,
				"z": 1.0000929368,
				"element": "C" 
			},
			{
				"x": 1.6914588207,
				"y": 0.0492832144,
				"z": 0.021656158,
				"element": "C" 
			},
			{
				"x": 1.9540185659,
				"y": -1.2142046623,
				"z": -0.8237732846,
				"element": "C" 
			},
			{
				"x": 3.1139496095,
				"y": -1.061177897,
				"z": -1.7986990262,
				"element": "C" 
			},
			{
				"x": 4.3321806075,
				"y": -0.8180809178,
				"z": -1.2350131254,
				"element": "O" 
			},
			{
				"x": 3.0132828756,
				"y": -1.134357324,
				"z": -2.9972227206,
				"element": "O" 
			},
			{
				"x": -1.983286944,
				"y": -0.3227603305,
				"z": 4.1263191689,
				"element": "H" 
			},
			{
				"x": -0.5809053282,
				"y": 0.5874461577,
				"z": 3.561875059,
				"element": "H" 
			},
			{
				"x": -1.9432662065,
				"y": 1.4359305574,
				"z": 4.2978135938,
				"element": "H" 
			},
			{
				"x": -2.0716514347,
				"y": 1.7129072235,
				"z": 1.8126718252,
				"element": "H" 
			},
			{
				"x": -3.433509544,
				"y": 0.8070204583,
				"z": 2.4311875502,
				"element": "H" 
			},
			{
				"x": -1.9367583322,
				"y": -1.3330306836,
				"z": 1.8154324741,
				"element": "H" 
			},
			{
				"x": -2.947168305,
				"y": -0.5320081927,
				"z": 0.6322033645,
				"element": "H" 
			},
			{
				"x": -0.8572657179,
				"y": -1.0109531876,
				"z": -0.3984449068,
				"element": "H" 
			},
			{
				"x": -1.028454407,
				"y": 0.7288458502,
				"z": -0.2697587432,
				"element": "H" 
			},
			{
				"x": 0.6702218589,
				"y": -0.9665687283,
				"z": 1.6404519311,
				"element": "H" 
			},
			{
				"x": 0.52669945,
				"y": 0.7832108341,
				"z": 1.6662089556,
				"element": "H" 
			},
			{
				"x": 1.5160255674,
				"y": 0.8991022411,
				"z": -0.6502856823,
				"element": "H" 
			},
			{
				"x": 2.5925421942,
				"y": 0.3018858137,
				"z": 0.5974256857,
				"element": "H" 
			},
			{
				"x": 1.0809457242,
				"y": -1.4726822934,
				"z": -1.4245433829,
				"element": "H" 
			},
			{
				"x": 2.1603653992,
				"y": -2.0643810878,
				"z": -0.1577945112,
				"element": "H" 
			},
			{
				"x": 4.2563853198,
				"y": -0.7978195323,
				"z": -0.2707736085,
				"element": "H" 
			}
		],
		 "valence_orbital": [ 
			{
				"type": "occ",
				"energy": -0.32809,
				"method": "rhf"
			},
			{
				"type": "occ",
				"energy": -0.31726,
				"method": "rhf"
			},
			{
				"type": "occ",
				"energy": -0.31619,
				"method": "rhf"
			},
			{
				"type": "occ",
				"energy": -0.31002,
				"method": "rhf"
			},
			{
				"type": "occ",
				"energy": -0.26412,
				"method": "rhf"
			},
			{
				"type": "unocc",
				"energy": 0.01164,
				"method": "rhf"
			},
			{
				"type": "unocc",
				"energy": 0.04628,
				"method": "rhf"
			},
			{
				"type": "unocc",
				"energy": 0.08005,
				"method": "rhf"
			},
			{
				"type": "unocc",
				"energy": 0.09864,
				"method": "rhf"
			},
			{
				"type": "unocc",
				"energy": 0.10747,
				"method": "rhf"
			}
		],
		"cosmo_sigma_profile": { 
			"-0.025": 0.0,
			"-0.024": 0.0,
			"-0.023": 0.0,
			"-0.022": 0.0,
			"-0.021": 0.0,
			"-0.02": 0.0,
			"-0.019": 0.0,
			"-0.018": 0.980335438498,
			"-0.017": 0.373306990873,
			"-0.016": 0.996645791615,
			"-0.015": 1.59796658383,
			"-0.014": 0.694672869946,
			"-0.013": 1.08699028864,
			"-0.012": 1.03621342098,
			"-0.011": 1.05702383033,
			"-0.01": 1.12702531249,
			"-0.009": 1.00887611019,
			"-0.008": 1.44410652844,
			"-0.007": 2.04148078728,
			"-0.006": 3.53999574796,
			"-0.005": 4.38859325639,
			"-0.004": 7.72523627794,
			"-0.003": 14.5285035952,
			"-0.002": 30.851311862,
			"-0.001": 37.0349943525,
			"0.0": 32.6464667699,
			"0.001": 24.8849178112,
			"0.002": 11.0012713657,
			"0.003": 2.40199160245,
			"0.004": 1.37773651649,
			"0.005": 1.28574955682,
			"0.006": 2.74154925622,
			"0.007": 2.6753455937,
			"0.008": 2.18927711997,
			"0.009": 2.72195681809,
			"0.01": 3.83585475263,
			"0.011": 5.98162795962,
			"0.012": 6.25203186695,
			"0.013": 3.4077378151,
			"0.014": 0.349229619084,
			"0.015": 0.0,
			"0.016": 0.0,
			"0.017": 0.0,
			"0.018": 0.0,
			"0.019": 0.0,
			"0.02": 0.0,
			"0.021": 0.0,
			"0.022": 0.0,
			"0.023": 0.0,
			"0.024": 0.0,
			"0.025": 0.0
		}
	}
}
