{
	 "smiles": "O=C1OS(=O)(=O)C2=CC=CC=C12", 
	 "Tm": 403.15, 
	 "num_atms": 16, 
	 "gaussian": { 
		 "optdone": 1, 
		 "sigma_profile": "yes", 
		 "theory": "DFT", 
		 "functional": "B3LYP", 
		 "basiset": "6-31G**", 
		 "properties": { 
			 "R2extent": 3001.2572, 
			 "electric_dipole_moment_norm": 6.78433275275, 
			 "electric_quadrupole_moment_norm": 11.6995319338, 
			 "total_energy": -968.164429753, 
			 "HOMO_LUMO_gap": 0.20993, 
			 "cosmo_polarized_energy": -14.08, 
			 "cosmo_cavitation_energy": 22.71, 
			 "cosmo_dispersion_energy": -17.6, 
			 "cosmo_repulsion_energy": 1.34, 
			 "cosmo_total_nonelectrostatic_energy": 6.45, 
			 "SMD_solvation_energy": 3.74 
		},
		"coords": [
			{
				"x": -2.1536366039,
				"y": 1.1840196582,
				"z": -3.2279310997,
				"element": "O" 
			},
			{
				"x": -1.4027557007,
				"y": 0.4184840494,
				"z": -2.6916087207,
				"element": "C" 
			},
			{
				"x": -1.5334570329,
				"y": -0.9602497865,
				"z": -2.8534250626,
				"element": "O" 
			},
			{
				"x": -0.3683728469,
				"y": -1.8655243734,
				"z": -2.0085561591,
				"element": "S" 
			},
			{
				"x": -1.0602620772,
				"y": -2.6174937482,
				"z": -0.9747589866,
				"element": "O" 
			},
			{
				"x": 0.4732771361,
				"y": -2.5266981768,
				"z": -2.9921141863,
				"element": "O" 
			},
			{
				"x": 0.4131233864,
				"y": -0.4047218289,
				"z": -1.3488158673,
				"element": "C" 
			},
			{
				"x": 1.5156263863,
				"y": -0.3347640721,
				"z": -0.5080084756,
				"element": "C" 
			},
			{
				"x": 1.9417606009,
				"y": 0.9417239819,
				"z": -0.1268104473,
				"element": "C" 
			},
			{
				"x": 1.2798668787,
				"y": 2.0922321477,
				"z": -0.5779319278,
				"element": "C" 
			},
			{
				"x": 0.1731639183,
				"y": 1.997681335,
				"z": -1.423052819,
				"element": "C" 
			},
			{
				"x": -0.2540783919,
				"y": 0.7269658583,
				"z": -1.8048425064,
				"element": "C" 
			},
			{
				"x": 2.0255937587,
				"y": -1.2266683135,
				"z": -0.1607208794,
				"element": "H" 
			},
			{
				"x": 2.800339922,
				"y": 1.0408087925,
				"z": 0.5299443408,
				"element": "H" 
			},
			{
				"x": 1.634683853,
				"y": 3.0688279516,
				"z": -0.2644263386,
				"element": "H" 
			},
			{
				"x": -0.352073187,
				"y": 2.8759765248,
				"z": -1.7826408645,
				"element": "H" 
			}
		],
		 "valence_orbital": [ 
			{
				"type": "occ",
				"energy": -0.34618,
				"method": "rhf"
			},
			{
				"type": "occ",
				"energy": -0.32211,
				"method": "rhf"
			},
			{
				"type": "occ",
				"energy": -0.31026,
				"method": "rhf"
			},
			{
				"type": "occ",
				"energy": -0.30656,
				"method": "rhf"
			},
			{
				"type": "occ",
				"energy": -0.30262,
				"method": "rhf"
			},
			{
				"type": "unocc",
				"energy": -0.09269,
				"method": "rhf"
			},
			{
				"type": "unocc",
				"energy": -0.06511,
				"method": "rhf"
			},
			{
				"type": "unocc",
				"energy": 0.00388,
				"method": "rhf"
			},
			{
				"type": "unocc",
				"energy": 0.01682,
				"method": "rhf"
			},
			{
				"type": "unocc",
				"energy": 0.02021,
				"method": "rhf"
			}
		],
		"cosmo_sigma_profile": { 
			"-0.025": 0.0,
			"-0.024": 0.0,
			"-0.023": 0.0,
			"-0.022": 0.0,
			"-0.021": 0.0,
			"-0.02": 0.0,
			"-0.019": 0.0,
			"-0.018": 0.0,
			"-0.017": 0.0,
			"-0.016": 0.0,
			"-0.015": 0.0,
			"-0.014": 0.0,
			"-0.013": 0.0,
			"-0.012": 0.256785350327,
			"-0.011": 1.01857588503,
			"-0.01": 1.96533106238,
			"-0.009": 5.4904395243,
			"-0.008": 12.1900027327,
			"-0.007": 11.2895143497,
			"-0.006": 7.87269596912,
			"-0.005": 8.01715538948,
			"-0.004": 9.11055980021,
			"-0.003": 10.2238495051,
			"-0.002": 11.4021843144,
			"-0.001": 16.4161500306,
			"0.0": 14.5440528052,
			"0.001": 6.67254712557,
			"0.002": 4.84901300152,
			"0.003": 5.14847327676,
			"0.004": 5.65910985338,
			"0.005": 6.38827810794,
			"0.006": 6.85371826568,
			"0.007": 7.42561278023,
			"0.008": 16.7205878431,
			"0.009": 12.1075056778,
			"0.01": 2.59960845967,
			"0.011": 0.121383564803,
			"0.012": 0.0,
			"0.013": 0.0,
			"0.014": 0.0,
			"0.015": 0.0,
			"0.016": 0.0,
			"0.017": 0.0,
			"0.018": 0.0,
			"0.019": 0.0,
			"0.02": 0.0,
			"0.021": 0.0,
			"0.022": 0.0,
			"0.023": 0.0,
			"0.024": 0.0,
			"0.025": 0.0
		}
	}
}
