{
	 "smiles": "CNC1=C(C=CC=C1)S(C)(=O)=O", 
	 "Tm": 370.15, 
	 "num_atms": 23, 
	 "gaussian": { 
		 "optdone": 1, 
		 "sigma_profile": "yes", 
		 "theory": "DFT", 
		 "functional": "B3LYP", 
		 "basiset": "6-31G**", 
		 "properties": { 
			 "R2extent": 2358.5507, 
			 "electric_dipole_moment_norm": 5.54120931927, 
			 "electric_quadrupole_moment_norm": 10.9180656341, 
			 "total_energy": -914.796795165, 
			 "HOMO_LUMO_gap": 0.19994, 
			 "cosmo_polarized_energy": -14.85, 
			 "cosmo_cavitation_energy": 26.7, 
			 "cosmo_dispersion_energy": -20.05, 
			 "cosmo_repulsion_energy": 1.54, 
			 "cosmo_total_nonelectrostatic_energy": 8.19, 
			 "SMD_solvation_energy": 4.65 
		},
		"coords": [
			{
				"x": -3.5028396955,
				"y": -0.5346306169,
				"z": 0.5054015383,
				"element": "C" 
			},
			{
				"x": -2.6674573339,
				"y": 0.4390090851,
				"z": -0.2315805507,
				"element": "N" 
			},
			{
				"x": -1.456805366,
				"y": 0.8373613527,
				"z": 0.3972567385,
				"element": "C" 
			},
			{
				"x": -0.2724239599,
				"y": 0.0724906846,
				"z": 0.3083933863,
				"element": "C" 
			},
			{
				"x": 0.9076041912,
				"y": 0.4990646291,
				"z": 0.9228130297,
				"element": "C" 
			},
			{
				"x": 0.9446629302,
				"y": 1.7050460051,
				"z": 1.6201672363,
				"element": "C" 
			},
			{
				"x": -0.2047894734,
				"y": 2.4923213214,
				"z": 1.6856596866,
				"element": "C" 
			},
			{
				"x": -1.3858572082,
				"y": 2.0586854533,
				"z": 1.0865020497,
				"element": "C" 
			},
			{
				"x": -0.1464117264,
				"y": -1.4636712039,
				"z": -0.6449320788,
				"element": "S" 
			},
			{
				"x": -0.6026586823,
				"y": -0.9669055854,
				"z": -2.3177063815,
				"element": "C" 
			},
			{
				"x": -1.1441336861,
				"y": -2.4404327359,
				"z": -0.1721527219,
				"element": "O" 
			},
			{
				"x": 1.2770194695,
				"y": -1.8420562396,
				"z": -0.656258987,
				"element": "O" 
			},
			{
				"x": -2.9511590366,
				"y": -1.4653312588,
				"z": 0.6281418933,
				"element": "H" 
			},
			{
				"x": -4.3967404137,
				"y": -0.7379588877,
				"z": -0.0905862279,
				"element": "H" 
			},
			{
				"x": -3.8131711822,
				"y": -0.1617492572,
				"z": 1.4929176679,
				"element": "H" 
			},
			{
				"x": -3.2227319867,
				"y": 1.2711100745,
				"z": -0.4089425139,
				"element": "H" 
			},
			{
				"x": 1.7928096379,
				"y": -0.118956586,
				"z": 0.8207159241,
				"element": "H" 
			},
			{
				"x": 1.8657396565,
				"y": 2.0314483045,
				"z": 2.0922750051,
				"element": "H" 
			},
			{
				"x": -0.1885747899,
				"y": 3.4420558722,
				"z": 2.2125952978,
				"element": "H" 
			},
			{
				"x": -2.2849317207,
				"y": 2.6663395081,
				"z": 1.1587827183,
				"element": "H" 
			},
			{
				"x": 0.1474260514,
				"y": -0.2685523437,
				"z": -2.6911152166,
				"element": "H" 
			},
			{
				"x": -0.6048375409,
				"y": -1.8823083986,
				"z": -2.9128090993,
				"element": "H" 
			},
			{
				"x": -1.5947381342,
				"y": -0.5161791769,
				"z": -2.2778383941,
				"element": "H" 
			}
		],
		 "valence_orbital": [ 
			{
				"type": "occ",
				"energy": -0.29052,
				"method": "rhf"
			},
			{
				"type": "occ",
				"energy": -0.28533,
				"method": "rhf"
			},
			{
				"type": "occ",
				"energy": -0.28233,
				"method": "rhf"
			},
			{
				"type": "occ",
				"energy": -0.26848,
				"method": "rhf"
			},
			{
				"type": "occ",
				"energy": -0.23521,
				"method": "rhf"
			},
			{
				"type": "unocc",
				"energy": -0.03527,
				"method": "rhf"
			},
			{
				"type": "unocc",
				"energy": -0.01757,
				"method": "rhf"
			},
			{
				"type": "unocc",
				"energy": 0.06609,
				"method": "rhf"
			},
			{
				"type": "unocc",
				"energy": 0.07488,
				"method": "rhf"
			},
			{
				"type": "unocc",
				"energy": 0.08423,
				"method": "rhf"
			}
		],
		"cosmo_sigma_profile": { 
			"-0.025": 0.0,
			"-0.024": 0.0,
			"-0.023": 0.0,
			"-0.022": 0.0,
			"-0.021": 0.0,
			"-0.02": 0.0,
			"-0.019": 0.0,
			"-0.018": 0.0,
			"-0.017": 0.0,
			"-0.016": 0.0,
			"-0.015": 0.0,
			"-0.014": 0.0,
			"-0.013": 0.074604479228,
			"-0.012": 1.09122826165,
			"-0.011": 1.73865291766,
			"-0.01": 1.62444535501,
			"-0.009": 2.14864675026,
			"-0.008": 5.37995221554,
			"-0.007": 8.3008182307,
			"-0.006": 12.2575436459,
			"-0.005": 14.1145960195,
			"-0.004": 16.649354577,
			"-0.003": 16.7637703427,
			"-0.002": 13.588249888,
			"-0.001": 16.6403120579,
			"0.0": 14.2454016326,
			"0.001": 13.2056104896,
			"0.002": 12.178936435,
			"0.003": 14.6011443146,
			"0.004": 10.9092566973,
			"0.005": 3.60484279148,
			"0.006": 3.36569196947,
			"0.007": 2.16542957793,
			"0.008": 2.912329788,
			"0.009": 3.15822055705,
			"0.01": 3.90837909089,
			"0.011": 7.24078549914,
			"0.012": 8.10576031962,
			"0.013": 2.18582773624,
			"0.014": 0.0,
			"0.015": 0.0,
			"0.016": 0.0,
			"0.017": 0.0,
			"0.018": 0.0,
			"0.019": 0.0,
			"0.02": 0.0,
			"0.021": 0.0,
			"0.022": 0.0,
			"0.023": 0.0,
			"0.024": 0.0,
			"0.025": 0.0
		}
	}
}
