{
	 "smiles": "ClC1=CC(=CC(Cl)=C1)C1(CC(Cl)(Cl)Cl)CO1", 
	 "Tm": 315.95, 
	 "num_atms": 23, 
	 "gaussian": { 
		 "optdone": 1, 
		 "sigma_profile": "yes", 
		 "theory": "DFT", 
		 "functional": "B3LYP", 
		 "basiset": "6-31G**", 
		 "properties": { 
			 "R2extent": 6730.2706, 
			 "electric_dipole_moment_norm": 1.44480701826, 
			 "electric_quadrupole_moment_norm": 9.95843544288, 
			 "total_energy": -2761.4100947, 
			 "HOMO_LUMO_gap": 0.20566, 
			 "cosmo_polarized_energy": -8.69, 
			 "cosmo_cavitation_energy": 36.09, 
			 "cosmo_dispersion_energy": -24.83, 
			 "cosmo_repulsion_energy": 1.95, 
			 "cosmo_total_nonelectrostatic_energy": 13.21, 
			 "SMD_solvation_energy": 4.29 
		},
		"coords": [
			{
				"x": -1.5844134738,
				"y": -0.0070540306,
				"z": 3.3975465407,
				"element": "Cl" 
			},
			{
				"x": -0.6765657503,
				"y": 0.716678825,
				"z": 2.0823522986,
				"element": "C" 
			},
			{
				"x": -1.0213293448,
				"y": 0.4169222909,
				"z": 0.7671899818,
				"element": "C" 
			},
			{
				"x": -0.2962795859,
				"y": 0.998050688,
				"z": -0.2790770066,
				"element": "C" 
			},
			{
				"x": 0.7533812006,
				"y": 1.8779908654,
				"z": -0.0012394515,
				"element": "C" 
			},
			{
				"x": 1.0736915632,
				"y": 2.1582453443,
				"z": 1.3263884794,
				"element": "C" 
			},
			{
				"x": 2.390239952,
				"y": 3.2632269766,
				"z": 1.6776472824,
				"element": "Cl" 
			},
			{
				"x": 0.3716354199,
				"y": 1.5862021513,
				"z": 2.3855444217,
				"element": "C" 
			},
			{
				"x": -0.6778477611,
				"y": 0.6752677394,
				"z": -1.7002416306,
				"element": "C" 
			},
			{
				"x": -0.2675565454,
				"y": -0.6725369819,
				"z": -2.2990928165,
				"element": "C" 
			},
			{
				"x": 1.2199143224,
				"y": -0.9550559172,
				"z": -2.555473047,
				"element": "C" 
			},
			{
				"x": 2.1416175289,
				"y": -1.1851802215,
				"z": -1.0280457616,
				"element": "Cl" 
			},
			{
				"x": 1.338057143,
				"y": -2.483050687,
				"z": -3.5191301846,
				"element": "Cl" 
			},
			{
				"x": 1.9827700941,
				"y": 0.3796475155,
				"z": -3.5064782403,
				"element": "Cl" 
			},
			{
				"x": -1.0516189927,
				"y": 1.77013112,
				"z": -2.6141644659,
				"element": "C" 
			},
			{
				"x": -2.0586426619,
				"y": 0.9529088738,
				"z": -2.0064782168,
				"element": "O" 
			},
			{
				"x": -1.8555744033,
				"y": -0.2432066482,
				"z": 0.5588164553,
				"element": "H" 
			},
			{
				"x": 1.3217378722,
				"y": 2.3323819813,
				"z": -0.8045468796,
				"element": "H" 
			},
			{
				"x": 0.6281206478,
				"y": 1.813530913,
				"z": 3.4126908384,
				"element": "H" 
			},
			{
				"x": -0.7782610716,
				"y": -0.7607614709,
				"z": -3.2611495052,
				"element": "H" 
			},
			{
				"x": -0.6360954395,
				"y": -1.4817856617,
				"z": -1.6600670488,
				"element": "H" 
			},
			{
				"x": -1.0064921074,
				"y": 2.7973997853,
				"z": -2.2560550329,
				"element": "H" 
			},
			{
				"x": -0.9268886064,
				"y": 1.6416465493,
				"z": -3.6882370106,
				"element": "H" 
			}
		],
		 "valence_orbital": [ 
			{
				"type": "occ",
				"energy": -0.32009,
				"method": "rhf"
			},
			{
				"type": "occ",
				"energy": -0.31486,
				"method": "rhf"
			},
			{
				"type": "occ",
				"energy": -0.29285,
				"method": "rhf"
			},
			{
				"type": "occ",
				"energy": -0.26992,
				"method": "rhf"
			},
			{
				"type": "occ",
				"energy": -0.25931,
				"method": "rhf"
			},
			{
				"type": "unocc",
				"energy": -0.05365,
				"method": "rhf"
			},
			{
				"type": "unocc",
				"energy": -0.03817,
				"method": "rhf"
			},
			{
				"type": "unocc",
				"energy": -0.0329,
				"method": "rhf"
			},
			{
				"type": "unocc",
				"energy": -0.0129,
				"method": "rhf"
			},
			{
				"type": "unocc",
				"energy": -0.00606,
				"method": "rhf"
			}
		],
		"cosmo_sigma_profile": { 
			"-0.025": 0.0,
			"-0.024": 0.0,
			"-0.023": 0.0,
			"-0.022": 0.0,
			"-0.021": 0.0,
			"-0.02": 0.0,
			"-0.019": 0.0,
			"-0.018": 0.0,
			"-0.017": 0.0,
			"-0.016": 0.0,
			"-0.015": 0.0,
			"-0.014": 0.0,
			"-0.013": 0.0203013935235,
			"-0.012": 0.0561366816965,
			"-0.011": 0.0325921894729,
			"-0.01": 0.0309498583071,
			"-0.009": 0.943781282894,
			"-0.008": 6.82367441172,
			"-0.007": 11.1518809525,
			"-0.006": 13.181454563,
			"-0.005": 12.3895188531,
			"-0.004": 15.9208647293,
			"-0.003": 15.9859810683,
			"-0.002": 18.8097071868,
			"-0.001": 21.4865130023,
			"0.0": 27.5571435654,
			"0.001": 34.7149367715,
			"0.002": 34.3551165575,
			"0.003": 42.2211051125,
			"0.004": 27.2154336592,
			"0.005": 5.41066849706,
			"0.006": 0.89111044292,
			"0.007": 1.51939039585,
			"0.008": 1.64518516532,
			"0.009": 1.79788509062,
			"0.01": 2.86263385115,
			"0.011": 1.90377219942,
			"0.012": 0.040200475727,
			"0.013": 0.0,
			"0.014": 0.0,
			"0.015": 0.0,
			"0.016": 0.0,
			"0.017": 0.0,
			"0.018": 0.0,
			"0.019": 0.0,
			"0.02": 0.0,
			"0.021": 0.0,
			"0.022": 0.0,
			"0.023": 0.0,
			"0.024": 0.0,
			"0.025": 0.0
		}
	}
}
