{
	 "smiles": "BrC1CCC2=C(NC1=O)C=CC=C2", 
	 "Tm": 439.15, 
	 "num_atms": 23, 
	 "gaussian": { 
		 "optdone": 1, 
		 "sigma_profile": "yes", 
		 "theory": "DFT", 
		 "functional": "B3LYP", 
		 "basiset": "6-31G**", 
		 "properties": { 
			 "R2extent": 4058.6465, 
			 "electric_dipole_moment_norm": 3.28486202298, 
			 "electric_quadrupole_moment_norm": 13.5448286671, 
			 "total_energy": -3088.49052194, 
			 "HOMO_LUMO_gap": 0.19041, 
			 "cosmo_polarized_energy": -11.91, 
			 "cosmo_cavitation_energy": 27.56, 
			 "cosmo_dispersion_energy": -20.37, 
			 "cosmo_repulsion_energy": 1.61, 
			 "cosmo_total_nonelectrostatic_energy": 8.8, 
			 "SMD_solvation_energy": 3.77 
		},
		"coords": [
			{
				"x": 1.2600263258,
				"y": -2.5506900054,
				"z": 2.2253665765,
				"element": "Br" 
			},
			{
				"x": -0.0771860337,
				"y": -3.3152629661,
				"z": 0.9409918176,
				"element": "C" 
			},
			{
				"x": 0.4429318401,
				"y": -3.2784647037,
				"z": -0.5061204686,
				"element": "C" 
			},
			{
				"x": 0.0139312876,
				"y": -2.0485628102,
				"z": -1.3282454115,
				"element": "C" 
			},
			{
				"x": 0.1837675613,
				"y": -0.7145370096,
				"z": -0.6409038599,
				"element": "C" 
			},
			{
				"x": -0.63935644,
				"y": -0.3838943849,
				"z": 0.4517211071,
				"element": "C" 
			},
			{
				"x": -1.585245371,
				"y": -1.3172841532,
				"z": 0.9437339715,
				"element": "N" 
			},
			{
				"x": -1.4363850521,
				"y": -2.6618388491,
				"z": 1.1987628471,
				"element": "C" 
			},
			{
				"x": -2.3658108655,
				"y": -3.3288195554,
				"z": 1.63013077,
				"element": "O" 
			},
			{
				"x": -0.5753687902,
				"y": 0.8877217529,
				"z": 1.0306019712,
				"element": "C" 
			},
			{
				"x": 0.3257487851,
				"y": 1.8335237633,
				"z": 0.5460594151,
				"element": "C" 
			},
			{
				"x": 1.1740064448,
				"y": 1.5079579847,
				"z": -0.512850824,
				"element": "C" 
			},
			{
				"x": 1.095027753,
				"y": 0.242708316,
				"z": -1.0958205571,
				"element": "C" 
			},
			{
				"x": -0.180278907,
				"y": -4.3388898926,
				"z": 1.290951661,
				"element": "H" 
			},
			{
				"x": 1.5323037175,
				"y": -3.3685681574,
				"z": -0.4845135632,
				"element": "H" 
			},
			{
				"x": 0.0626369741,
				"y": -4.1766256544,
				"z": -1.0094137614,
				"element": "H" 
			},
			{
				"x": -1.046466208,
				"y": -2.1639419996,
				"z": -1.5908385695,
				"element": "H" 
			},
			{
				"x": 0.5688123723,
				"y": -2.049090374,
				"z": -2.2716421241,
				"element": "H" 
			},
			{
				"x": -2.4684894864,
				"y": -0.9571684783,
				"z": 1.2842246181,
				"element": "H" 
			},
			{
				"x": -1.2227091095,
				"y": 1.1233876972,
				"z": 1.8709059323,
				"element": "H" 
			},
			{
				"x": 0.3706616552,
				"y": 2.8173230656,
				"z": 1.0034264186,
				"element": "H" 
			},
			{
				"x": 1.8850632356,
				"y": 2.2366016972,
				"z": -0.8899325597,
				"element": "H" 
			},
			{
				"x": 1.7376783107,
				"y": -0.0049852829,
				"z": -1.9368954073,
				"element": "H" 
			}
		],
		 "valence_orbital": [ 
			{
				"type": "occ",
				"energy": -0.28312,
				"method": "rhf"
			},
			{
				"type": "occ",
				"energy": -0.27405,
				"method": "rhf"
			},
			{
				"type": "occ",
				"energy": -0.25803,
				"method": "rhf"
			},
			{
				"type": "occ",
				"energy": -0.25343,
				"method": "rhf"
			},
			{
				"type": "occ",
				"energy": -0.22848,
				"method": "rhf"
			},
			{
				"type": "unocc",
				"energy": -0.03807,
				"method": "rhf"
			},
			{
				"type": "unocc",
				"energy": -0.01069,
				"method": "rhf"
			},
			{
				"type": "unocc",
				"energy": -0.0074,
				"method": "rhf"
			},
			{
				"type": "unocc",
				"energy": 0.04665,
				"method": "rhf"
			},
			{
				"type": "unocc",
				"energy": 0.08313,
				"method": "rhf"
			}
		],
		"cosmo_sigma_profile": { 
			"-0.025": 0.0,
			"-0.024": 0.0,
			"-0.023": 0.0,
			"-0.022": 0.0,
			"-0.021": 0.0,
			"-0.02": 0.0,
			"-0.019": 0.0,
			"-0.018": 0.0,
			"-0.017": 0.0,
			"-0.016": 0.0,
			"-0.015": 0.36282472886,
			"-0.014": 1.13370333832,
			"-0.013": 0.914326004415,
			"-0.012": 1.15697987692,
			"-0.011": 0.942084946262,
			"-0.01": 1.40089410626,
			"-0.009": 1.0515111737,
			"-0.008": 2.74933203364,
			"-0.007": 4.41973191939,
			"-0.006": 11.096091759,
			"-0.005": 19.2205053012,
			"-0.004": 19.4422323923,
			"-0.003": 20.411971692,
			"-0.002": 15.5843747197,
			"-0.001": 12.0825751212,
			"0.0": 12.4622983518,
			"0.001": 12.0725930408,
			"0.002": 12.2045987086,
			"0.003": 11.6760926102,
			"0.004": 13.7646535381,
			"0.005": 18.0416600834,
			"0.006": 11.305563401,
			"0.007": 2.518216704,
			"0.008": 1.04894180202,
			"0.009": 1.20390440008,
			"0.01": 1.48217301136,
			"0.011": 2.1455218216,
			"0.012": 4.38625657684,
			"0.013": 4.44811084981,
			"0.014": 0.537428893202,
			"0.015": 0.0,
			"0.016": 0.0,
			"0.017": 0.0,
			"0.018": 0.0,
			"0.019": 0.0,
			"0.02": 0.0,
			"0.021": 0.0,
			"0.022": 0.0,
			"0.023": 0.0,
			"0.024": 0.0,
			"0.025": 0.0
		}
	}
}
