{
	 "smiles": "COC1=C(C(C)C)C(=O)C2=C(C1=O)[C@@]1(C)CCCC(C)(C)[C@@H]1C[C@H]2O", 
	 "Tm": 411.15, 
	 "num_atms": 55, 
	 "gaussian": { 
		 "optdone": 1, 
		 "sigma_profile": "yes", 
		 "theory": "DFT", 
		 "functional": "B3LYP", 
		 "basiset": "6-31G**", 
		 "properties": { 
			 "R2extent": 9693.3487, 
			 "electric_dipole_moment_norm": 2.83597542126, 
			 "electric_quadrupole_moment_norm": 9.72586149809, 
			 "total_energy": -1119.18924648, 
			 "HOMO_LUMO_gap": 0.12165, 
			 "cosmo_polarized_energy": -9.43, 
			 "cosmo_cavitation_energy": 49.19, 
			 "cosmo_dispersion_energy": -34.18, 
			 "cosmo_repulsion_energy": 2.55, 
			 "cosmo_total_nonelectrostatic_energy": 17.56, 
			 "SMD_solvation_energy": 9.09 
		},
		"coords": [
			{
				"x": 0.6179744181,
				"y": -5.411662769,
				"z": 0.6312536041,
				"element": "C" 
			},
			{
				"x": -0.6073753094,
				"y": -4.6640843728,
				"z": 0.5524951656,
				"element": "O" 
			},
			{
				"x": -0.6668239235,
				"y": -3.3162301006,
				"z": 0.5537778959,
				"element": "C" 
			},
			{
				"x": -1.7859942054,
				"y": -2.7177677065,
				"z": 1.0497749847,
				"element": "C" 
			},
			{
				"x": -2.9379149252,
				"y": -3.514562623,
				"z": 1.6408446463,
				"element": "C" 
			},
			{
				"x": -4.2004552647,
				"y": -3.4385831381,
				"z": 0.7570913542,
				"element": "C" 
			},
			{
				"x": -3.2445399266,
				"y": -3.1112063437,
				"z": 3.0973804328,
				"element": "C" 
			},
			{
				"x": -1.8690697521,
				"y": -1.2521788639,
				"z": 0.9580908411,
				"element": "C" 
			},
			{
				"x": -2.8961461184,
				"y": -0.6445542061,
				"z": 1.2884267401,
				"element": "O" 
			},
			{
				"x": -0.7080848653,
				"y": -0.4478126466,
				"z": 0.4581718223,
				"element": "C" 
			},
			{
				"x": 0.3505503048,
				"y": -1.0326864885,
				"z": -0.1472016164,
				"element": "C" 
			},
			{
				"x": 0.4413162851,
				"y": -2.5267448374,
				"z": -0.0986053959,
				"element": "C" 
			},
			{
				"x": 1.4058183875,
				"y": -3.1273676776,
				"z": -0.5614811362,
				"element": "O" 
			},
			{
				"x": 1.4869046954,
				"y": -0.2493230499,
				"z": -0.8271783416,
				"element": "C" 
			},
			{
				"x": 2.7474682402,
				"y": -0.386956171,
				"z": 0.0696724791,
				"element": "C" 
			},
			{
				"x": 1.7740714721,
				"y": -0.8531927849,
				"z": -2.2530850745,
				"element": "C" 
			},
			{
				"x": 2.1175870161,
				"y": 0.2037309174,
				"z": -3.3241627609,
				"element": "C" 
			},
			{
				"x": 2.8996604782,
				"y": 1.3837458085,
				"z": -2.7441243228,
				"element": "C" 
			},
			{
				"x": 2.0502502273,
				"y": 2.1873312306,
				"z": -1.7184078867,
				"element": "C" 
			},
			{
				"x": 2.9895173167,
				"y": 2.9166775421,
				"z": -0.7348427099,
				"element": "C" 
			},
			{
				"x": 1.246978704,
				"y": 3.2629833504,
				"z": -2.4854949668,
				"element": "C" 
			},
			{
				"x": 1.0161478811,
				"y": 1.2309625218,
				"z": -1.0200992712,
				"element": "C" 
			},
			{
				"x": 0.4192911202,
				"y": 1.7940445562,
				"z": 0.2745315646,
				"element": "C" 
			},
			{
				"x": -0.8619820312,
				"y": 1.0533680832,
				"z": 0.6347074095,
				"element": "C" 
			},
			{
				"x": -1.9142234018,
				"y": 1.5505562543,
				"z": -0.1906102888,
				"element": "O" 
			},
			{
				"x": 1.0754856166,
				"y": -5.5269452741,
				"z": -0.351014485,
				"element": "H" 
			},
			{
				"x": 1.3346349044,
				"y": -4.9397911832,
				"z": 1.3075774983,
				"element": "H" 
			},
			{
				"x": 0.3218075108,
				"y": -6.3844675473,
				"z": 1.0301894194,
				"element": "H" 
			},
			{
				"x": -2.6086831095,
				"y": -4.5569285399,
				"z": 1.6504360486,
				"element": "H" 
			},
			{
				"x": -3.9885719048,
				"y": -3.7739099477,
				"z": -0.2633944489,
				"element": "H" 
			},
			{
				"x": -4.5881042024,
				"y": -2.4184237112,
				"z": 0.7138254155,
				"element": "H" 
			},
			{
				"x": -4.9817450275,
				"y": -4.0874695049,
				"z": 1.1678544401,
				"element": "H" 
			},
			{
				"x": -4.0106279784,
				"y": -3.7758573398,
				"z": 3.5112881364,
				"element": "H" 
			},
			{
				"x": -2.3532153222,
				"y": -3.1965410475,
				"z": 3.7282305049,
				"element": "H" 
			},
			{
				"x": -3.612468933,
				"y": -2.0849317408,
				"z": 3.1559547862,
				"element": "H" 
			},
			{
				"x": 3.6230246622,
				"y": 0.0614896333,
				"z": -0.4021984036,
				"element": "H" 
			},
			{
				"x": 2.9718954861,
				"y": -1.4426164291,
				"z": 0.2346825634,
				"element": "H" 
			},
			{
				"x": 2.6085408781,
				"y": 0.0877218648,
				"z": 1.0459362892,
				"element": "H" 
			},
			{
				"x": 0.90666951,
				"y": -1.4260527163,
				"z": -2.5969186632,
				"element": "H" 
			},
			{
				"x": 2.5898845187,
				"y": -1.574312459,
				"z": -2.1673319982,
				"element": "H" 
			},
			{
				"x": 1.198709102,
				"y": 0.5778972043,
				"z": -3.7925370833,
				"element": "H" 
			},
			{
				"x": 2.6876689097,
				"y": -0.2764134141,
				"z": -4.1278990594,
				"element": "H" 
			},
			{
				"x": 3.2288300011,
				"y": 2.0579373066,
				"z": -3.5445643324,
				"element": "H" 
			},
			{
				"x": 3.8175767838,
				"y": 1.0114895005,
				"z": -2.2725077583,
				"element": "H" 
			},
			{
				"x": 3.5590612265,
				"y": 2.2281188358,
				"z": -0.1055749802,
				"element": "H" 
			},
			{
				"x": 2.4416302264,
				"y": 3.5977884122,
				"z": -0.0760243728,
				"element": "H" 
			},
			{
				"x": 3.7114681886,
				"y": 3.5211009487,
				"z": -1.2961639626,
				"element": "H" 
			},
			{
				"x": 0.6620969033,
				"y": 2.8212050574,
				"z": -3.2994955592,
				"element": "H" 
			},
			{
				"x": 1.9217756299,
				"y": 4.0072944709,
				"z": -2.9230519635,
				"element": "H" 
			},
			{
				"x": 0.5472919036,
				"y": 3.7925710777,
				"z": -1.830817394,
				"element": "H" 
			},
			{
				"x": 0.1689944384,
				"y": 1.1604422209,
				"z": -1.7151612982,
				"element": "H" 
			},
			{
				"x": 0.1619041407,
				"y": 2.8516891334,
				"z": 0.1684771916,
				"element": "H" 
			},
			{
				"x": 1.1295491207,
				"y": 1.7183818517,
				"z": 1.1053378846,
				"element": "H" 
			},
			{
				"x": -1.1070853742,
				"y": 1.233232228,
				"z": 1.6926134518,
				"element": "H" 
			},
			{
				"x": -2.7157246329,
				"y": 1.1108146239,
				"z": 0.1335269642,
				"element": "H" 
			}
		],
		 "valence_orbital": [ 
			{
				"type": "occ",
				"energy": -0.2816,
				"method": "rhf"
			},
			{
				"type": "occ",
				"energy": -0.26683,
				"method": "rhf"
			},
			{
				"type": "occ",
				"energy": -0.26543,
				"method": "rhf"
			},
			{
				"type": "occ",
				"energy": -0.24976,
				"method": "rhf"
			},
			{
				"type": "occ",
				"energy": -0.23939,
				"method": "rhf"
			},
			{
				"type": "unocc",
				"energy": -0.11774,
				"method": "rhf"
			},
			{
				"type": "unocc",
				"energy": -0.00532,
				"method": "rhf"
			},
			{
				"type": "unocc",
				"energy": 0.01012,
				"method": "rhf"
			},
			{
				"type": "unocc",
				"energy": 0.07518,
				"method": "rhf"
			},
			{
				"type": "unocc",
				"energy": 0.08761,
				"method": "rhf"
			}
		],
		"cosmo_sigma_profile": { 
			"-0.025": 0.0,
			"-0.024": 0.0,
			"-0.023": 0.0,
			"-0.022": 0.0,
			"-0.021": 0.0,
			"-0.02": 0.0,
			"-0.019": 0.0,
			"-0.018": 0.0,
			"-0.017": 0.0,
			"-0.016": 0.0,
			"-0.015": 0.0,
			"-0.014": 0.0,
			"-0.013": 0.0,
			"-0.012": 0.0,
			"-0.011": 0.0,
			"-0.01": 0.256670695179,
			"-0.009": 0.699958427636,
			"-0.008": 0.122402434889,
			"-0.007": 0.618248095235,
			"-0.006": 4.91754747178,
			"-0.005": 10.6110601356,
			"-0.004": 21.3226803484,
			"-0.003": 39.5339171727,
			"-0.002": 52.410706058,
			"-0.001": 60.5519151834,
			"0.0": 54.7306184113,
			"0.001": 52.2708663346,
			"0.002": 28.8141491566,
			"0.003": 9.84377945684,
			"0.004": 6.58649745184,
			"0.005": 7.31601919253,
			"0.006": 6.16932574988,
			"0.007": 5.49546800867,
			"0.008": 4.59564680503,
			"0.009": 4.63087509897,
			"0.01": 3.51802687018,
			"0.011": 1.74065530467,
			"0.012": 1.5761930745,
			"0.013": 1.67485173121,
			"0.014": 1.1237527764,
			"0.015": 0.0849718851214,
			"0.016": 0.0,
			"0.017": 0.0,
			"0.018": 0.0,
			"0.019": 0.0,
			"0.02": 0.0,
			"0.021": 0.0,
			"0.022": 0.0,
			"0.023": 0.0,
			"0.024": 0.0,
			"0.025": 0.0
		}
	}
}
