{
	 "smiles": "CC(C)NO", 
	 "Tm": 347.15, 
	 "num_atms": 14, 
	 "gaussian": { 
		 "optdone": 1, 
		 "sigma_profile": "yes", 
		 "theory": "DFT", 
		 "functional": "B3LYP", 
		 "basiset": "6-31G**", 
		 "properties": { 
			 "R2extent": 494.7325, 
			 "electric_dipole_moment_norm": 0.519899471052, 
			 "electric_quadrupole_moment_norm": 3.3452234873, 
			 "total_energy": -249.664476909, 
			 "HOMO_LUMO_gap": 0.30761, 
			 "cosmo_polarized_energy": -6.22, 
			 "cosmo_cavitation_energy": 16.36, 
			 "cosmo_dispersion_energy": -12.1, 
			 "cosmo_repulsion_energy": 1.08, 
			 "cosmo_total_nonelectrostatic_energy": 5.34, 
			 "SMD_solvation_energy": 2.9 
		},
		"coords": [
			{
				"x": 0.6401338489,
				"y": -0.6037352792,
				"z": 1.2640684184,
				"element": "C" 
			},
			{
				"x": 0.0133323351,
				"y": 0.2275404684,
				"z": 0.1426951738,
				"element": "C" 
			},
			{
				"x": -1.4113333144,
				"y": -0.2350654283,
				"z": -0.1960040948,
				"element": "C" 
			},
			{
				"x": 0.9258857847,
				"y": 0.2527478837,
				"z": -1.0177234743,
				"element": "N" 
			},
			{
				"x": 0.9371006902,
				"y": -1.0662998088,
				"z": -1.6224245211,
				"element": "O" 
			},
			{
				"x": 0.0298808175,
				"y": -0.5570275859,
				"z": 2.1711727588,
				"element": "H" 
			},
			{
				"x": 1.6433331059,
				"y": -0.2365069796,
				"z": 1.5005497718,
				"element": "H" 
			},
			{
				"x": 0.7178325821,
				"y": -1.6518379665,
				"z": 0.9598927123,
				"element": "H" 
			},
			{
				"x": -0.0208854224,
				"y": 1.279340145,
				"z": 0.4631580496,
				"element": "H" 
			},
			{
				"x": -1.3964997691,
				"y": -1.2579950218,
				"z": -0.5813855385,
				"element": "H" 
			},
			{
				"x": -2.0542074549,
				"y": -0.2070855823,
				"z": 0.6901662483,
				"element": "H" 
			},
			{
				"x": -1.8639362185,
				"y": 0.4099762837,
				"z": -0.9582267428,
				"element": "H" 
			},
			{
				"x": 0.4872266252,
				"y": 0.8233524966,
				"z": -1.7424654807,
				"element": "H" 
			},
			{
				"x": 1.8692363897,
				"y": -1.3097036249,
				"z": -1.5523732809,
				"element": "H" 
			}
		],
		 "valence_orbital": [ 
			{
				"type": "occ",
				"energy": -0.37008,
				"method": "rhf"
			},
			{
				"type": "occ",
				"energy": -0.3405,
				"method": "rhf"
			},
			{
				"type": "occ",
				"energy": -0.33138,
				"method": "rhf"
			},
			{
				"type": "occ",
				"energy": -0.27849,
				"method": "rhf"
			},
			{
				"type": "occ",
				"energy": -0.23348,
				"method": "rhf"
			},
			{
				"type": "unocc",
				"energy": 0.07413,
				"method": "rhf"
			},
			{
				"type": "unocc",
				"energy": 0.09202,
				"method": "rhf"
			},
			{
				"type": "unocc",
				"energy": 0.13736,
				"method": "rhf"
			},
			{
				"type": "unocc",
				"energy": 0.14335,
				"method": "rhf"
			},
			{
				"type": "unocc",
				"energy": 0.15097,
				"method": "rhf"
			}
		],
		"cosmo_sigma_profile": { 
			"-0.025": 0.0,
			"-0.024": 0.0,
			"-0.023": 0.0,
			"-0.022": 0.0,
			"-0.021": 0.0,
			"-0.02": 0.0,
			"-0.019": 0.0,
			"-0.018": 0.0,
			"-0.017": 0.0,
			"-0.016": 0.225094136162,
			"-0.015": 0.570980253962,
			"-0.014": 0.8920969828,
			"-0.013": 0.963742976472,
			"-0.012": 0.87267426815,
			"-0.011": 0.828620711111,
			"-0.01": 1.83716531921,
			"-0.009": 1.53921649286,
			"-0.008": 1.97008634101,
			"-0.007": 1.76183292573,
			"-0.006": 2.07496308377,
			"-0.005": 1.97715841169,
			"-0.004": 5.53676131623,
			"-0.003": 10.7547091704,
			"-0.002": 13.9186885883,
			"-0.001": 14.2170617158,
			"0.0": 14.5998824095,
			"0.001": 17.3266860894,
			"0.002": 8.82043463147,
			"0.003": 2.94081296425,
			"0.004": 2.08061009373,
			"0.005": 1.71368394202,
			"0.006": 3.05497897047,
			"0.007": 2.05055718203,
			"0.008": 2.80108376546,
			"0.009": 1.62266430205,
			"0.01": 1.83936248489,
			"0.011": 1.67216697126,
			"0.012": 1.98731786531,
			"0.013": 1.70834463145,
			"0.014": 0.706901725829,
			"0.015": 0.333812591701,
			"0.016": 0.410747523657,
			"0.017": 0.0739406198605,
			"0.018": 0.0,
			"0.019": 0.0,
			"0.02": 0.0,
			"0.021": 0.0,
			"0.022": 0.0,
			"0.023": 0.0,
			"0.024": 0.0,
			"0.025": 0.0
		}
	}
}
