{
	 "smiles": "O=CC1=CC=C(CN2C(=O)C3=C(C=CC=C3)C2=O)O1", 
	 "Tm": 399.15, 
	 "num_atms": 28, 
	 "gaussian": { 
		 "optdone": 1, 
		 "sigma_profile": "yes", 
		 "theory": "DFT", 
		 "functional": "B3LYP", 
		 "basiset": "6-31G**", 
		 "properties": { 
			 "R2extent": 5863.6929, 
			 "electric_dipole_moment_norm": 5.26283302129, 
			 "electric_quadrupole_moment_norm": 23.5246936422, 
			 "total_energy": -894.555966801, 
			 "HOMO_LUMO_gap": 0.15557, 
			 "cosmo_polarized_energy": -17.72, 
			 "cosmo_cavitation_energy": 35.0, 
			 "cosmo_dispersion_energy": -24.35, 
			 "cosmo_repulsion_energy": 1.85, 
			 "cosmo_total_nonelectrostatic_energy": 12.51, 
			 "SMD_solvation_energy": 8.53 
		},
		"coords": [
			{
				"x": -1.3654647895,
				"y": 3.4170276318,
				"z": -3.4545624576,
				"element": "O" 
			},
			{
				"x": -0.1896611698,
				"y": 3.3973817148,
				"z": -3.1398213552,
				"element": "C" 
			},
			{
				"x": 0.5379936096,
				"y": 2.2308797289,
				"z": -2.6624403201,
				"element": "C" 
			},
			{
				"x": 1.8543944988,
				"y": 2.0812930658,
				"z": -2.290795814,
				"element": "C" 
			},
			{
				"x": 2.019287983,
				"y": 0.7195768797,
				"z": -1.9219301203,
				"element": "C" 
			},
			{
				"x": 0.7927417769,
				"y": 0.1283867226,
				"z": -2.0923299109,
				"element": "C" 
			},
			{
				"x": 0.3026132618,
				"y": -1.2678765458,
				"z": -1.8640347262,
				"element": "C" 
			},
			{
				"x": -0.0749982003,
				"y": -1.5320455353,
				"z": -0.4788116396,
				"element": "N" 
			},
			{
				"x": 0.8555330433,
				"y": -1.7128412647,
				"z": 0.5556412612,
				"element": "C" 
			},
			{
				"x": 2.0638557981,
				"y": -1.6746811768,
				"z": 0.4215881758,
				"element": "O" 
			},
			{
				"x": 0.0447110256,
				"y": -1.9619946503,
				"z": 1.7837399945,
				"element": "C" 
			},
			{
				"x": -1.3071572757,
				"y": -1.9308276216,
				"z": 1.4308211367,
				"element": "C" 
			},
			{
				"x": -2.3072803412,
				"y": -2.1351919248,
				"z": 2.3700881281,
				"element": "C" 
			},
			{
				"x": -1.9098925712,
				"y": -2.3719404788,
				"z": 3.6929851684,
				"element": "C" 
			},
			{
				"x": -0.5548470473,
				"y": -2.403093653,
				"z": 4.0469636702,
				"element": "C" 
			},
			{
				"x": 0.4481180947,
				"y": -2.1980918046,
				"z": 3.089927406,
				"element": "C" 
			},
			{
				"x": -1.4064062604,
				"y": -1.6661847307,
				"z": -0.0353691009,
				"element": "C" 
			},
			{
				"x": -2.3903692894,
				"y": -1.5914790648,
				"z": -0.7404903032,
				"element": "O" 
			},
			{
				"x": -0.1135598343,
				"y": 1.0340482441,
				"z": -2.5400824753,
				"element": "O" 
			},
			{
				"x": 0.4489310544,
				"y": 4.306300818,
				"z": -3.1941158149,
				"element": "H" 
			},
			{
				"x": 2.6047865553,
				"y": 2.8597576473,
				"z": -2.2881168815,
				"element": "H" 
			},
			{
				"x": 2.9084275136,
				"y": 0.2275960583,
				"z": -1.5568061306,
				"element": "H" 
			},
			{
				"x": -0.5872534428,
				"y": -1.4506913484,
				"z": -2.4706488573,
				"element": "H" 
			},
			{
				"x": 1.0861397754,
				"y": -1.9767729341,
				"z": -2.1446320427,
				"element": "H" 
			},
			{
				"x": -3.3537671886,
				"y": -2.1101218759,
				"z": 2.0841740623,
				"element": "H" 
			},
			{
				"x": -2.6633385088,
				"y": -2.5345275653,
				"z": 4.4577962318,
				"element": "H" 
			},
			{
				"x": -0.2792236017,
				"y": -2.5895197069,
				"z": 5.0805809882,
				"element": "H" 
			},
			{
				"x": 1.5006855304,
				"y": -2.2215666297,
				"z": 3.352881727,
				"element": "H" 
			}
		],
		 "valence_orbital": [ 
			{
				"type": "occ",
				"energy": -0.28317,
				"method": "rhf"
			},
			{
				"type": "occ",
				"energy": -0.27594,
				"method": "rhf"
			},
			{
				"type": "occ",
				"energy": -0.27518,
				"method": "rhf"
			},
			{
				"type": "occ",
				"energy": -0.253,
				"method": "rhf"
			},
			{
				"type": "occ",
				"energy": -0.24357,
				"method": "rhf"
			},
			{
				"type": "unocc",
				"energy": -0.088,
				"method": "rhf"
			},
			{
				"type": "unocc",
				"energy": -0.06088,
				"method": "rhf"
			},
			{
				"type": "unocc",
				"energy": -0.04591,
				"method": "rhf"
			},
			{
				"type": "unocc",
				"energy": 0.02251,
				"method": "rhf"
			},
			{
				"type": "unocc",
				"energy": 0.02535,
				"method": "rhf"
			}
		],
		"cosmo_sigma_profile": { 
			"-0.025": 0.0,
			"-0.024": 0.0,
			"-0.023": 0.0,
			"-0.022": 0.0,
			"-0.021": 0.0,
			"-0.02": 0.0,
			"-0.019": 0.0,
			"-0.018": 0.0,
			"-0.017": 0.0,
			"-0.016": 0.0,
			"-0.015": 0.0,
			"-0.014": 0.0,
			"-0.013": 0.0,
			"-0.012": 0.0,
			"-0.011": 0.0,
			"-0.01": 0.0,
			"-0.009": 1.40249512464,
			"-0.008": 8.69037908774,
			"-0.007": 18.2955177809,
			"-0.006": 19.6660888088,
			"-0.005": 21.5695132198,
			"-0.004": 20.087513453,
			"-0.003": 17.2840382477,
			"-0.002": 16.3027685013,
			"-0.001": 23.2962952863,
			"0.0": 21.0875615184,
			"0.001": 21.4737591797,
			"0.002": 22.0897987663,
			"0.003": 9.57492140808,
			"0.004": 6.8416140441,
			"0.005": 5.09823295213,
			"0.006": 4.34614318505,
			"0.007": 5.1614755899,
			"0.008": 5.49021448736,
			"0.009": 6.0140864934,
			"0.01": 9.39997967771,
			"0.011": 11.3882193862,
			"0.012": 6.31115801567,
			"0.013": 1.65593897413,
			"0.014": 0.0348483646315,
			"0.015": 0.0,
			"0.016": 0.0,
			"0.017": 0.0,
			"0.018": 0.0,
			"0.019": 0.0,
			"0.02": 0.0,
			"0.021": 0.0,
			"0.022": 0.0,
			"0.023": 0.0,
			"0.024": 0.0,
			"0.025": 0.0
		}
	}
}
