{
	 "smiles": "COC1=CC(F)=C(C=O)C(F)=C1", 
	 "Tm": 348.15, 
	 "num_atms": 18, 
	 "gaussian": { 
		 "optdone": 1, 
		 "sigma_profile": "yes", 
		 "theory": "DFT", 
		 "functional": "B3LYP", 
		 "basiset": "6-31G**", 
		 "properties": { 
			 "R2extent": 2759.2422, 
			 "electric_dipole_moment_norm": 5.2858458623, 
			 "electric_quadrupole_moment_norm": 17.4324582891, 
			 "total_energy": -658.555948774, 
			 "HOMO_LUMO_gap": 0.18784, 
			 "cosmo_polarized_energy": -10.24, 
			 "cosmo_cavitation_energy": 23.8, 
			 "cosmo_dispersion_energy": -17.25, 
			 "cosmo_repulsion_energy": 1.32, 
			 "cosmo_total_nonelectrostatic_energy": 7.87, 
			 "SMD_solvation_energy": 6.97 
		},
		"coords": [
			{
				"x": 1.3061405956,
				"y": 2.0917150376,
				"z": 1.7964574692,
				"element": "C" 
			},
			{
				"x": 0.1372579587,
				"y": 1.4943212732,
				"z": 1.242505392,
				"element": "O" 
			},
			{
				"x": 0.255006461,
				"y": 0.7550302432,
				"z": 0.117573624,
				"element": "C" 
			},
			{
				"x": 1.4650256639,
				"y": 0.5304022045,
				"z": -0.5547631414,
				"element": "C" 
			},
			{
				"x": 1.455817366,
				"y": -0.2499839321,
				"z": -1.7038651816,
				"element": "C" 
			},
			{
				"x": 2.6261837347,
				"y": -0.4433879561,
				"z": -2.3188646732,
				"element": "F" 
			},
			{
				"x": 0.2927661217,
				"y": -0.8322864028,
				"z": -2.2356586715,
				"element": "C" 
			},
			{
				"x": 0.2643459993,
				"y": -1.664754173,
				"z": -3.4552449245,
				"element": "C" 
			},
			{
				"x": 1.2304827639,
				"y": -1.9455282043,
				"z": -4.1397644072,
				"element": "O" 
			},
			{
				"x": -0.8884884169,
				"y": -0.5686003475,
				"z": -1.5142086585,
				"element": "C" 
			},
			{
				"x": -2.040694087,
				"y": -1.0978933629,
				"z": -1.9709987958,
				"element": "F" 
			},
			{
				"x": -0.9397727673,
				"y": 0.1977581131,
				"z": -0.3688019184,
				"element": "C" 
			},
			{
				"x": 2.043417149,
				"y": 1.3334736979,
				"z": 2.0851124724,
				"element": "H" 
			},
			{
				"x": 0.9718381622,
				"y": 2.6285084397,
				"z": 2.6843603169,
				"element": "H" 
			},
			{
				"x": 1.7643463971,
				"y": 2.7982641203,
				"z": 1.0945468814,
				"element": "H" 
			},
			{
				"x": 2.4075928973,
				"y": 0.9390441258,
				"z": -0.2170918781,
				"element": "H" 
			},
			{
				"x": -0.746157703,
				"y": -2.0351736878,
				"z": -3.7164992302,
				"element": "H" 
			},
			{
				"x": -1.8760082962,
				"y": 0.3687908112,
				"z": 0.1472053244,
				"element": "H" 
			}
		],
		 "valence_orbital": [ 
			{
				"type": "occ",
				"energy": -0.36007,
				"method": "rhf"
			},
			{
				"type": "occ",
				"energy": -0.32707,
				"method": "rhf"
			},
			{
				"type": "occ",
				"energy": -0.26409,
				"method": "rhf"
			},
			{
				"type": "occ",
				"energy": -0.24801,
				"method": "rhf"
			},
			{
				"type": "occ",
				"energy": -0.24722,
				"method": "rhf"
			},
			{
				"type": "unocc",
				"energy": -0.05938,
				"method": "rhf"
			},
			{
				"type": "unocc",
				"energy": -0.01487,
				"method": "rhf"
			},
			{
				"type": "unocc",
				"energy": 0.03789,
				"method": "rhf"
			},
			{
				"type": "unocc",
				"energy": 0.06896,
				"method": "rhf"
			},
			{
				"type": "unocc",
				"energy": 0.08662,
				"method": "rhf"
			}
		],
		"cosmo_sigma_profile": { 
			"-0.025": 0.0,
			"-0.024": 0.0,
			"-0.023": 0.0,
			"-0.022": 0.0,
			"-0.021": 0.0,
			"-0.02": 0.0,
			"-0.019": 0.0,
			"-0.018": 0.0,
			"-0.017": 0.0,
			"-0.016": 0.0,
			"-0.015": 0.0,
			"-0.014": 0.0,
			"-0.013": 0.0,
			"-0.012": 0.0,
			"-0.011": 0.0,
			"-0.01": 0.0,
			"-0.009": 0.854130381033,
			"-0.008": 3.56483374743,
			"-0.007": 7.03751719598,
			"-0.006": 12.7437575391,
			"-0.005": 13.4098431183,
			"-0.004": 15.1538070447,
			"-0.003": 11.3118825807,
			"-0.002": 12.0623684247,
			"-0.001": 19.35116965,
			"0.0": 19.604666035,
			"0.001": 13.8326967279,
			"0.002": 10.2045977056,
			"0.003": 15.6266138511,
			"0.004": 7.91725535969,
			"0.005": 3.33135238323,
			"0.006": 3.33558388395,
			"0.007": 3.19883959795,
			"0.008": 3.18544971798,
			"0.009": 3.19651502241,
			"0.01": 2.83513345026,
			"0.011": 4.47209270365,
			"0.012": 4.062758674,
			"0.013": 1.08431514237,
			"0.014": 0.0,
			"0.015": 0.0,
			"0.016": 0.0,
			"0.017": 0.0,
			"0.018": 0.0,
			"0.019": 0.0,
			"0.02": 0.0,
			"0.021": 0.0,
			"0.022": 0.0,
			"0.023": 0.0,
			"0.024": 0.0,
			"0.025": 0.0
		}
	}
}
