{
	 "smiles": "OC(=O)COC1=C(C=CC=C1)C#N", 
	 "Tm": 456.15, 
	 "num_atms": 20, 
	 "gaussian": { 
		 "optdone": 1, 
		 "sigma_profile": "yes", 
		 "theory": "DFT", 
		 "functional": "B3LYP", 
		 "basiset": "6-31G**", 
		 "properties": { 
			 "R2extent": 3473.5936, 
			 "electric_dipole_moment_norm": 5.94988514931, 
			 "electric_quadrupole_moment_norm": 28.6703598202, 
			 "total_energy": -627.577752363, 
			 "HOMO_LUMO_gap": 0.19473, 
			 "cosmo_polarized_energy": -18.67, 
			 "cosmo_cavitation_energy": 26.33, 
			 "cosmo_dispersion_energy": -18.42, 
			 "cosmo_repulsion_energy": 1.49, 
			 "cosmo_total_nonelectrostatic_energy": 9.4, 
			 "SMD_solvation_energy": 7.39 
		},
		"coords": [
			{
				"x": 2.9337217705,
				"y": -0.494193325,
				"z": -0.5540584821,
				"element": "O" 
			},
			{
				"x": 2.1319372281,
				"y": 0.0764209004,
				"z": 0.3739669879,
				"element": "C" 
			},
			{
				"x": 2.1234957884,
				"y": -0.2252616089,
				"z": 1.5411628511,
				"element": "O" 
			},
			{
				"x": 1.2610011946,
				"y": 1.1412536382,
				"z": -0.2839853604,
				"element": "C" 
			},
			{
				"x": 0.4846168344,
				"y": 1.8595966788,
				"z": 0.6449715195,
				"element": "O" 
			},
			{
				"x": -0.6586689374,
				"y": 1.3175121326,
				"z": 1.1474033367,
				"element": "C" 
			},
			{
				"x": -1.4131167162,
				"y": 2.1711579164,
				"z": 1.9843221047,
				"element": "C" 
			},
			{
				"x": -2.6178687135,
				"y": 1.7148755333,
				"z": 2.5401156438,
				"element": "C" 
			},
			{
				"x": -3.0787562605,
				"y": 0.4298450656,
				"z": 2.2696171,
				"element": "C" 
			},
			{
				"x": -2.3275543413,
				"y": -0.40558721,
				"z": 1.4421171061,
				"element": "C" 
			},
			{
				"x": -1.1242311244,
				"y": 0.0271655641,
				"z": 0.8826788502,
				"element": "C" 
			},
			{
				"x": -0.954625944,
				"y": 3.4994911711,
				"z": 2.2572779296,
				"element": "C" 
			},
			{
				"x": -0.6137464625,
				"y": 4.586189446,
				"z": 2.4942550638,
				"element": "N" 
			},
			{
				"x": 3.4745692575,
				"y": -1.1541926145,
				"z": -0.0881618511,
				"element": "H" 
			},
			{
				"x": 1.9152239668,
				"y": 1.8740617732,
				"z": -0.7642777421,
				"element": "H" 
			},
			{
				"x": 0.6516982243,
				"y": 0.6794350811,
				"z": -1.071871685,
				"element": "H" 
			},
			{
				"x": -3.1821018484,
				"y": 2.3844886598,
				"z": 3.1805103581,
				"element": "H" 
			},
			{
				"x": -4.0109787725,
				"y": 0.0829704136,
				"z": 2.7023572732,
				"element": "H" 
			},
			{
				"x": -2.6732887848,
				"y": -1.4128713528,
				"z": 1.2296823819,
				"element": "H" 
			},
			{
				"x": -0.552526359,
				"y": -0.6521578631,
				"z": 0.2628166141,
				"element": "H" 
			}
		],
		 "valence_orbital": [ 
			{
				"type": "occ",
				"energy": -0.33891,
				"method": "rhf"
			},
			{
				"type": "occ",
				"energy": -0.32121,
				"method": "rhf"
			},
			{
				"type": "occ",
				"energy": -0.29962,
				"method": "rhf"
			},
			{
				"type": "occ",
				"energy": -0.26642,
				"method": "rhf"
			},
			{
				"type": "occ",
				"energy": -0.24162,
				"method": "rhf"
			},
			{
				"type": "unocc",
				"energy": -0.04689,
				"method": "rhf"
			},
			{
				"type": "unocc",
				"energy": -0.01254,
				"method": "rhf"
			},
			{
				"type": "unocc",
				"energy": -0.01047,
				"method": "rhf"
			},
			{
				"type": "unocc",
				"energy": 0.04141,
				"method": "rhf"
			},
			{
				"type": "unocc",
				"energy": 0.05725,
				"method": "rhf"
			}
		],
		"cosmo_sigma_profile": { 
			"-0.025": 0.0,
			"-0.024": 0.0,
			"-0.023": 0.0,
			"-0.022": 0.0,
			"-0.021": 0.0,
			"-0.02": 0.0,
			"-0.019": 0.538638470184,
			"-0.018": 1.1281266009,
			"-0.017": 1.13291733361,
			"-0.016": 0.756619563889,
			"-0.015": 0.191512641416,
			"-0.014": 0.159767152562,
			"-0.013": 1.03175045998,
			"-0.012": 1.27347236641,
			"-0.011": 1.88218732338,
			"-0.01": 1.61554893545,
			"-0.009": 5.98932580435,
			"-0.008": 8.49536746909,
			"-0.007": 12.0984830713,
			"-0.006": 14.4944641974,
			"-0.005": 9.97601660805,
			"-0.004": 9.37260763691,
			"-0.003": 9.42570647779,
			"-0.002": 7.76686550393,
			"-0.001": 12.1432203725,
			"0.0": 12.3489893067,
			"0.001": 12.85612483,
			"0.002": 12.5936208264,
			"0.003": 12.7166626919,
			"0.004": 6.46435829924,
			"0.005": 5.69347424813,
			"0.006": 7.56767406836,
			"0.007": 8.78973599863,
			"0.008": 8.10315821666,
			"0.009": 6.28600712347,
			"0.01": 6.90364165836,
			"0.011": 7.26546805002,
			"0.012": 2.90327553242,
			"0.013": 1.77483117468,
			"0.014": 0.105895838943,
			"0.015": 0.0,
			"0.016": 0.0,
			"0.017": 0.0,
			"0.018": 0.0,
			"0.019": 0.0,
			"0.02": 0.0,
			"0.021": 0.0,
			"0.022": 0.0,
			"0.023": 0.0,
			"0.024": 0.0,
			"0.0": 0.0
		}
	}
}
