{
	 "smiles": "CC1N(C(=O)NC1=O)C1=CC=CC=C1", 
	 "Tm": 421.15, 
	 "num_atms": 24, 
	 "gaussian": { 
		 "optdone": 1, 
		 "sigma_profile": "yes", 
		 "theory": "DFT", 
		 "functional": "B3LYP", 
		 "basiset": "6-31G**", 
		 "properties": { 
			 "R2extent": 3152.8863, 
			 "electric_dipole_moment_norm": 2.09900191996, 
			 "electric_quadrupole_moment_norm": 7.78200171614, 
			 "total_energy": -647.085064033, 
			 "HOMO_LUMO_gap": 0.20544, 
			 "cosmo_polarized_energy": -14.12, 
			 "cosmo_cavitation_energy": 27.65, 
			 "cosmo_dispersion_energy": -20.23, 
			 "cosmo_repulsion_energy": 1.58, 
			 "cosmo_total_nonelectrostatic_energy": 9.0, 
			 "SMD_solvation_energy": 6.05 
		},
		"coords": [
			{
				"x": -1.1834117238,
				"y": 0.770912045,
				"z": -1.907198072,
				"element": "C" 
			},
			{
				"x": 0.2006661356,
				"y": 1.1899663529,
				"z": -1.4023132973,
				"element": "C" 
			},
			{
				"x": 0.3077383614,
				"y": 1.2990935025,
				"z": 0.0602096359,
				"element": "N" 
			},
			{
				"x": 0.6696987984,
				"y": 2.5803068569,
				"z": 0.4493219113,
				"element": "C" 
			},
			{
				"x": 0.8514098958,
				"y": 3.0230502187,
				"z": 1.5653598286,
				"element": "O" 
			},
			{
				"x": 0.7992494163,
				"y": 3.3279965099,
				"z": -0.7367820125,
				"element": "N" 
			},
			{
				"x": 0.5526783912,
				"y": 2.604082791,
				"z": -1.8796672426,
				"element": "C" 
			},
			{
				"x": 0.5841404561,
				"y": 2.9966895057,
				"z": -3.0262612504,
				"element": "O" 
			},
			{
				"x": 0.1745401949,
				"y": 0.1921054571,
				"z": 0.939513767,
				"element": "C" 
			},
			{
				"x": -0.1407058634,
				"y": 0.3745348534,
				"z": 2.2962230544,
				"element": "C" 
			},
			{
				"x": -0.2699059977,
				"y": -0.7338492324,
				"z": 3.1308379944,
				"element": "C" 
			},
			{
				"x": -0.1038826531,
				"y": -2.0299087691,
				"z": 2.6395352269,
				"element": "C" 
			},
			{
				"x": 0.2040471409,
				"y": -2.2092503631,
				"z": 1.2917034172,
				"element": "C" 
			},
			{
				"x": 0.3475510785,
				"y": -1.1102675898,
				"z": 0.4451234338,
				"element": "C" 
			},
			{
				"x": -1.1922600687,
				"y": 0.8234203326,
				"z": -2.9987048453,
				"element": "H" 
			},
			{
				"x": -1.4258705269,
				"y": -0.2471552113,
				"z": -1.5957971181,
				"element": "H" 
			},
			{
				"x": -1.952087956,
				"y": 1.4445382037,
				"z": -1.5178066639,
				"element": "H" 
			},
			{
				"x": 0.9679502076,
				"y": 0.5111998814,
				"z": -1.7966953204,
				"element": "H" 
			},
			{
				"x": 1.0498752878,
				"y": 4.3063885769,
				"z": -0.7183439028,
				"element": "H" 
			},
			{
				"x": -0.2628457511,
				"y": 1.3748839221,
				"z": 2.6869352429,
				"element": "H" 
			},
			{
				"x": -0.5100298124,
				"y": -0.5762974866,
				"z": 4.1784275657,
				"element": "H" 
			},
			{
				"x": -0.2127176222,
				"y": -2.8865760902,
				"z": 3.2973959118,
				"element": "H" 
			},
			{
				"x": 0.3410610859,
				"y": -3.208799241,
				"z": 0.8893394838,
				"element": "H" 
			},
			{
				"x": 0.6028115251,
				"y": -1.2753650262,
				"z": -0.5956567482,
				"element": "H" 
			}
		],
		 "valence_orbital": [ 
			{
				"type": "occ",
				"energy": -0.29611,
				"method": "rhf"
			},
			{
				"type": "occ",
				"energy": -0.29554,
				"method": "rhf"
			},
			{
				"type": "occ",
				"energy": -0.26862,
				"method": "rhf"
			},
			{
				"type": "occ",
				"energy": -0.25619,
				"method": "rhf"
			},
			{
				"type": "occ",
				"energy": -0.22708,
				"method": "rhf"
			},
			{
				"type": "unocc",
				"energy": -0.02164,
				"method": "rhf"
			},
			{
				"type": "unocc",
				"energy": -0.00782,
				"method": "rhf"
			},
			{
				"type": "unocc",
				"energy": -0.00316,
				"method": "rhf"
			},
			{
				"type": "unocc",
				"energy": 0.05966,
				"method": "rhf"
			},
			{
				"type": "unocc",
				"energy": 0.08062,
				"method": "rhf"
			}
		],
		"cosmo_sigma_profile": { 
			"-0.025": 0.0,
			"-0.024": 0.0,
			"-0.023": 0.0,
			"-0.022": 0.0,
			"-0.021": 0.0,
			"-0.02": 0.0,
			"-0.019": 0.0,
			"-0.018": 0.0079895881264,
			"-0.017": 0.837082634999,
			"-0.016": 1.28984100892,
			"-0.015": 0.84693046543,
			"-0.014": 1.15286700007,
			"-0.013": 0.50113161054,
			"-0.012": 0.751511597268,
			"-0.011": 1.12383277052,
			"-0.01": 0.733445243011,
			"-0.009": 2.76221764273,
			"-0.008": 5.52417550084,
			"-0.007": 5.85655633279,
			"-0.006": 9.84952095231,
			"-0.005": 15.284159797,
			"-0.004": 18.4358164274,
			"-0.003": 18.5985969163,
			"-0.002": 16.7475478605,
			"-0.001": 17.246198943,
			"0.0": 12.3957228611,
			"0.001": 10.3249497469,
			"0.002": 9.99427515832,
			"0.003": 10.0164434629,
			"0.004": 10.9577866209,
			"0.005": 13.1050452362,
			"0.006": 5.62654782068,
			"0.007": 2.15871897988,
			"0.008": 3.58104847204,
			"0.009": 3.38463046654,
			"0.01": 3.67263881384,
			"0.011": 6.60653214493,
			"0.012": 9.09076499337,
			"0.013": 2.05582264376,
			"0.014": 0.0,
			"0.015": 0.0,
			"0.016": 0.0,
			"0.017": 0.0,
			"0.018": 0.0,
			"0.019": 0.0,
			"0.02": 0.0,
			"0.021": 0.0,
			"0.022": 0.0,
			"0.023": 0.0,
			"0.024": 0.0,
			"0.025": 0.0
		}
	}
}
