{
	 "smiles": "CC1=NC2=C(O1)C=CC(Br)=N2", 
	 "Tm": 350.15, 
	 "num_atms": 16, 
	 "gaussian": { 
		 "optdone": 1, 
		 "sigma_profile": "yes", 
		 "theory": "DFT", 
		 "functional": "B3LYP", 
		 "basiset": "6-31G**", 
		 "properties": { 
			 "R2extent": 3833.4018, 
			 "electric_dipole_moment_norm": 4.7355279959, 
			 "electric_quadrupole_moment_norm": 15.5649746251, 
			 "total_energy": -3025.88635403, 
			 "HOMO_LUMO_gap": 0.19075, 
			 "cosmo_polarized_energy": -11.13, 
			 "cosmo_cavitation_energy": 23.26, 
			 "cosmo_dispersion_energy": -18.15, 
			 "cosmo_repulsion_energy": 1.46, 
			 "cosmo_total_nonelectrostatic_energy": 6.56, 
			 "SMD_solvation_energy": -0.29 
		},
		"coords": [
			{
				"x": -4.0584687194,
				"y": 0.371797047,
				"z": -0.3901297336,
				"element": "C" 
			},
			{
				"x": -2.6088865122,
				"y": 0.1701689347,
				"z": -0.6430352355,
				"element": "C" 
			},
			{
				"x": -2.0418633401,
				"y": -0.3634068898,
				"z": -1.6776363664,
				"element": "N" 
			},
			{
				"x": -0.680594006,
				"y": -0.2989957908,
				"z": -1.3931115671,
				"element": "C" 
			},
			{
				"x": -0.5074004639,
				"y": 0.3015556829,
				"z": -0.1379611337,
				"element": "C" 
			},
			{
				"x": -1.7477056045,
				"y": 0.6060198099,
				"z": 0.3500625721,
				"element": "O" 
			},
			{
				"x": 0.7507375147,
				"y": 0.4970068203,
				"z": 0.4047032605,
				"element": "C" 
			},
			{
				"x": 1.8089242448,
				"y": 0.0527392126,
				"z": -0.3914282228,
				"element": "C" 
			},
			{
				"x": 1.5267489664,
				"y": -0.5377061539,
				"z": -1.6380077258,
				"element": "C" 
			},
			{
				"x": 3.0217563481,
				"y": -1.130610669,
				"z": -2.6915035977,
				"element": "Br" 
			},
			{
				"x": 0.3272172955,
				"y": -0.7250286204,
				"z": -2.1573482312,
				"element": "N" 
			},
			{
				"x": -4.6239082334,
				"y": -0.0103267153,
				"z": -1.2397244648,
				"element": "H" 
			},
			{
				"x": -4.3685237411,
				"y": -0.1526660554,
				"z": 0.5195798203,
				"element": "H" 
			},
			{
				"x": -4.2822963892,
				"y": 1.4345811932,
				"z": -0.2517158335,
				"element": "H" 
			},
			{
				"x": 0.9132674585,
				"y": 0.9584812034,
				"z": 1.3725043742,
				"element": "H" 
			},
			{
				"x": 2.8351951818,
				"y": 0.1564909905,
				"z": -0.063347915,
				"element": "H" 
			}
		],
		 "valence_orbital": [ 
			{
				"type": "occ",
				"energy": -0.31147,
				"method": "rhf"
			},
			{
				"type": "occ",
				"energy": -0.28666,
				"method": "rhf"
			},
			{
				"type": "occ",
				"energy": -0.28066,
				"method": "rhf"
			},
			{
				"type": "occ",
				"energy": -0.27545,
				"method": "rhf"
			},
			{
				"type": "occ",
				"energy": -0.24549,
				"method": "rhf"
			},
			{
				"type": "unocc",
				"energy": -0.05474,
				"method": "rhf"
			},
			{
				"type": "unocc",
				"energy": -0.01894,
				"method": "rhf"
			},
			{
				"type": "unocc",
				"energy": 0.0085,
				"method": "rhf"
			},
			{
				"type": "unocc",
				"energy": 0.02124,
				"method": "rhf"
			},
			{
				"type": "unocc",
				"energy": 0.09222,
				"method": "rhf"
			}
		],
		"cosmo_sigma_profile": { 
			"-0.025": 0.0,
			"-0.024": 0.0,
			"-0.023": 0.0,
			"-0.022": 0.0,
			"-0.021": 0.0,
			"-0.02": 0.0,
			"-0.019": 0.0,
			"-0.018": 0.0,
			"-0.017": 0.0,
			"-0.016": 0.0,
			"-0.015": 0.0,
			"-0.014": 0.0,
			"-0.013": 0.0,
			"-0.012": 0.0,
			"-0.011": 0.0,
			"-0.01": 0.60474688204,
			"-0.009": 2.62825401087,
			"-0.008": 4.37420273852,
			"-0.007": 8.78724828042,
			"-0.006": 9.39675739815,
			"-0.005": 11.7229859093,
			"-0.004": 13.1969968575,
			"-0.003": 17.117100289,
			"-0.002": 16.9792733704,
			"-0.001": 13.9104974649,
			"0.0": 15.9467574966,
			"0.001": 11.8680064939,
			"0.002": 7.92254889577,
			"0.003": 9.87081317106,
			"0.004": 12.9236095993,
			"0.005": 9.7068526913,
			"0.006": 3.96074669407,
			"0.007": 3.00625830061,
			"0.008": 2.34268448438,
			"0.009": 2.84122369713,
			"0.01": 2.20866976977,
			"0.011": 3.50321794922,
			"0.012": 2.15985301216,
			"0.013": 2.13082532977,
			"0.014": 1.52915197328,
			"0.015": 0.499376123706,
			"0.016": 0.0,
			"0.017": 0.0,
			"0.018": 0.0,
			"0.019": 0.0,
			"0.02": 0.0,
			"0.021": 0.0,
			"0.022": 0.0,
			"0.023": 0.0,
			"0.024": 0.0,
			"0.025": 0.0
		}
	}
}
