{
	 "smiles": "OC1=C(C=CC(=C1)N1CCOCC1)[N+]([O-])=O", 
	 "Tm": 417.15, 
	 "num_atms": 28, 
	 "gaussian": { 
		 "optdone": 1, 
		 "sigma_profile": "yes", 
		 "theory": "DFT", 
		 "functional": "B3LYP", 
		 "basiset": "6-31G**", 
		 "properties": { 
			 "R2extent": 5103.7145, 
			 "electric_dipole_moment_norm": 7.21321476389, 
			 "electric_quadrupole_moment_norm": 32.7278829821, 
			 "total_energy": -798.563530001, 
			 "HOMO_LUMO_gap": 0.15605, 
			 "cosmo_polarized_energy": -21.93, 
			 "cosmo_cavitation_energy": 30.87, 
			 "cosmo_dispersion_energy": -23.33, 
			 "cosmo_repulsion_energy": 1.8, 
			 "cosmo_total_nonelectrostatic_energy": 9.34, 
			 "SMD_solvation_energy": 6.54 
		},
		"coords": [
			{
				"x": -0.7699139012,
				"y": 3.8009690135,
				"z": -0.9124837877,
				"element": "O" 
			},
			{
				"x": -0.5020566944,
				"y": 2.4843767798,
				"z": -1.0614687668,
				"element": "C" 
			},
			{
				"x": -0.1120474699,
				"y": 1.9607591534,
				"z": -2.3160535179,
				"element": "C" 
			},
			{
				"x": 0.1765134775,
				"y": 0.5967485334,
				"z": -2.4182787356,
				"element": "C" 
			},
			{
				"x": 0.0878035773,
				"y": -0.25533172,
				"z": -1.3334938365,
				"element": "C" 
			},
			{
				"x": -0.2961876393,
				"y": 0.241637793,
				"z": -0.064195944,
				"element": "C" 
			},
			{
				"x": -0.5855166693,
				"y": 1.6171625908,
				"z": 0.0307483961,
				"element": "C" 
			},
			{
				"x": -0.3519806329,
				"y": -0.5793697209,
				"z": 1.0608269393,
				"element": "N" 
			},
			{
				"x": 0.0085158791,
				"y": -1.9933720927,
				"z": 0.9367849523,
				"element": "C" 
			},
			{
				"x": 0.3365054154,
				"y": -2.5777483189,
				"z": 2.3114298084,
				"element": "C" 
			},
			{
				"x": -0.7260312212,
				"y": -2.3926949087,
				"z": 3.2321373311,
				"element": "O" 
			},
			{
				"x": -0.9902355683,
				"y": -1.0097915449,
				"z": 3.400405064,
				"element": "C" 
			},
			{
				"x": -1.3872325346,
				"y": -0.3556432013,
				"z": 2.0789749176,
				"element": "C" 
			},
			{
				"x": -0.0037901753,
				"y": 2.7675188601,
				"z": -3.5227587971,
				"element": "N" 
			},
			{
				"x": -0.3404927674,
				"y": 3.9500465902,
				"z": -3.4774578392,
				"element": "O" 
			},
			{
				"x": 0.4226134518,
				"y": 2.2083239353,
				"z": -4.5412654431,
				"element": "O" 
			},
			{
				"x": -1.0000083812,
				"y": 3.9647723001,
				"z": 0.0126267202,
				"element": "H" 
			},
			{
				"x": 0.4602944287,
				"y": 0.2220217094,
				"z": -3.3936359543,
				"element": "H" 
			},
			{
				"x": 0.2875810176,
				"y": -1.3072448043,
				"z": -1.4842214533,
				"element": "H" 
			},
			{
				"x": -0.8479678025,
				"y": 2.0532104397,
				"z": 0.9892288252,
				"element": "H" 
			},
			{
				"x": -0.8051962338,
				"y": -2.5752071096,
				"z": 0.4723612523,
				"element": "H" 
			},
			{
				"x": 0.8967207062,
				"y": -2.0865518898,
				"z": 0.3077020268,
				"element": "H" 
			},
			{
				"x": 1.2579246658,
				"y": -2.1105643718,
				"z": 2.6956662594,
				"element": "H" 
			},
			{
				"x": 0.5001674433,
				"y": -3.6557120166,
				"z": 2.227713752,
				"element": "H" 
			},
			{
				"x": -0.1049986294,
				"y": -0.4993309271,
				"z": 3.8141566981,
				"element": "H" 
			},
			{
				"x": -1.8101671624,
				"y": -0.9280511414,
				"z": 4.1195390741,
				"element": "H" 
			},
			{
				"x": -2.3488795016,
				"y": -0.7754205407,
				"z": 1.7405551658,
				"element": "H" 
			},
			{
				"x": -1.5322370781,
				"y": 0.7117866099,
				"z": 2.2468568926,
				"element": "H" 
			}
		],
		 "valence_orbital": [ 
			{
				"type": "occ",
				"energy": -0.28409,
				"method": "rhf"
			},
			{
				"type": "occ",
				"energy": -0.2744,
				"method": "rhf"
			},
			{
				"type": "occ",
				"energy": -0.26395,
				"method": "rhf"
			},
			{
				"type": "occ",
				"energy": -0.24759,
				"method": "rhf"
			},
			{
				"type": "occ",
				"energy": -0.22196,
				"method": "rhf"
			},
			{
				"type": "unocc",
				"energy": -0.06591,
				"method": "rhf"
			},
			{
				"type": "unocc",
				"energy": -0.01084,
				"method": "rhf"
			},
			{
				"type": "unocc",
				"energy": 0.01801,
				"method": "rhf"
			},
			{
				"type": "unocc",
				"energy": 0.0519,
				"method": "rhf"
			},
			{
				"type": "unocc",
				"energy": 0.06866,
				"method": "rhf"
			}
		],
		"cosmo_sigma_profile": { 
			"-0.025": 0.0,
			"-0.024": 0.0,
			"-0.023": 0.0,
			"-0.022": 0.0,
			"-0.021": 0.0,
			"-0.02": 0.0,
			"-0.019": 0.373031729652,
			"-0.018": 1.2410334131,
			"-0.017": 1.19802759582,
			"-0.016": 1.07825802048,
			"-0.015": 1.26171662464,
			"-0.014": 1.06300263634,
			"-0.013": 0.67913512976,
			"-0.012": 0.57031810503,
			"-0.011": 1.4732248125,
			"-0.01": 2.37988200978,
			"-0.009": 1.70232274914,
			"-0.008": 2.22485977354,
			"-0.007": 6.01621206792,
			"-0.006": 12.1632388221,
			"-0.005": 17.5832227538,
			"-0.004": 29.5416359046,
			"-0.003": 21.1938565498,
			"-0.002": 14.9671134492,
			"-0.001": 10.8670762057,
			"0.0": 11.2441750777,
			"0.001": 14.9613722127,
			"0.002": 15.3083330426,
			"0.003": 12.5539164261,
			"0.004": 7.71575674445,
			"0.005": 4.13777576526,
			"0.006": 4.68786820732,
			"0.007": 5.14500863394,
			"0.008": 6.21004663915,
			"0.009": 10.6555353639,
			"0.01": 8.72465870178,
			"0.011": 6.81655120195,
			"0.012": 4.25696287792,
			"0.013": 2.97031775118,
			"0.014": 1.16629102845,
			"0.015": 0.00409959872354,
			"0.016": 0.0,
			"0.017": 0.0,
			"0.018": 0.0,
			"0.019": 0.0,
			"0.02": 0.0,
			"0.021": 0.0,
			"0.022": 0.0,
			"0.023": 0.0,
			"0.024": 0.0,
			"0.025": 0.0
		}
	}
}
