{
	 "smiles": "C[C@]12CC[C@H]3[C@@H](CC[C@H]4[C@@H]5O[C@@H]5CC[C@]34C)[C@@H]1CCC2=O", 
	 "Tm": 431.15, 
	 "num_atms": 49, 
	 "gaussian": { 
		 "optdone": 1, 
		 "sigma_profile": "yes", 
		 "theory": "DFT", 
		 "functional": "B3LYP", 
		 "basiset": "6-31G**", 
		 "properties": { 
			 "R2extent": 7131.6827, 
			 "electric_dipole_moment_norm": 3.02566265304, 
			 "electric_quadrupole_moment_norm": 23.832384165, 
			 "total_energy": -891.33228397, 
			 "HOMO_LUMO_gap": 0.21791, 
			 "cosmo_polarized_energy": -11.4, 
			 "cosmo_cavitation_energy": 42.2, 
			 "cosmo_dispersion_energy": -30.07, 
			 "cosmo_repulsion_energy": 2.21, 
			 "cosmo_total_nonelectrostatic_energy": 14.35, 
			 "SMD_solvation_energy": 5.76 
		},
		"coords": [
			{
				"x": -3.3438640512,
				"y": -1.0578876366,
				"z": -2.1167981344,
				"element": "C" 
			},
			{
				"x": -3.2861346206,
				"y": -0.0910020388,
				"z": -0.9037481683,
				"element": "C" 
			},
			{
				"x": -2.6396255416,
				"y": 1.241147098,
				"z": -1.2950771567,
				"element": "C" 
			},
			{
				"x": -1.1258229554,
				"y": 1.0583965325,
				"z": -1.5372085002,
				"element": "C" 
			},
			{
				"x": -0.3808009955,
				"y": 0.3835550212,
				"z": -0.3577077534,
				"element": "C" 
			},
			{
				"x": -1.068025178,
				"y": -0.9552032343,
				"z": 0.0666349735,
				"element": "C" 
			},
			{
				"x": -0.3763016511,
				"y": -1.5932796347,
				"z": 1.2837759223,
				"element": "C" 
			},
			{
				"x": 1.1376637345,
				"y": -1.7405286641,
				"z": 1.0910954423,
				"element": "C" 
			},
			{
				"x": 1.7571715838,
				"y": -0.3840710703,
				"z": 0.7307368377,
				"element": "C" 
			},
			{
				"x": 3.2829642367,
				"y": -0.3999643494,
				"z": 0.7360097413,
				"element": "C" 
			},
			{
				"x": 3.9081757446,
				"y": 0.7658392639,
				"z": 1.3083347338,
				"element": "O" 
			},
			{
				"x": 4.0632826446,
				"y": 0.5365042392,
				"z": -0.0966054557,
				"element": "C" 
			},
			{
				"x": 3.3613183245,
				"y": 1.4960454819,
				"z": -1.0316212784,
				"element": "C" 
			},
			{
				"x": 1.8437308522,
				"y": 1.5967552773,
				"z": -0.7824315433,
				"element": "C" 
			},
			{
				"x": 1.1614013472,
				"y": 0.2179339993,
				"z": -0.5819967484,
				"element": "C" 
			},
			{
				"x": 1.4586058176,
				"y": -0.683151974,
				"z": -1.8035500047,
				"element": "C" 
			},
			{
				"x": -2.5510955666,
				"y": -0.6679079596,
				"z": 0.3302267242,
				"element": "C" 
			},
			{
				"x": -3.4991230183,
				"y": -1.7649443685,
				"z": 0.8600064037,
				"element": "C" 
			},
			{
				"x": -4.8938723841,
				"y": -1.1154013444,
				"z": 0.6957098658,
				"element": "C" 
			},
			{
				"x": -4.7255641095,
				"y": -0.0243554515,
				"z": -0.3809439269,
				"element": "C" 
			},
			{
				"x": -5.5880663659,
				"y": 0.7464715196,
				"z": -0.7434901095,
				"element": "O" 
			},
			{
				"x": -3.9462302525,
				"y": -0.6024634853,
				"z": -2.9090633202,
				"element": "H" 
			},
			{
				"x": -3.8026833892,
				"y": -2.0190074862,
				"z": -1.8656242023,
				"element": "H" 
			},
			{
				"x": -2.3516585483,
				"y": -1.2662805277,
				"z": -2.5238847256,
				"element": "H" 
			},
			{
				"x": -2.796959226,
				"y": 1.9657963117,
				"z": -0.485571278,
				"element": "H" 
			},
			{
				"x": -3.119526315,
				"y": 1.6626271596,
				"z": -2.1853196274,
				"element": "H" 
			},
			{
				"x": -0.689036395,
				"y": 2.0423213578,
				"z": -1.7348429216,
				"element": "H" 
			},
			{
				"x": -0.9743454651,
				"y": 0.4738274656,
				"z": -2.4523144289,
				"element": "H" 
			},
			{
				"x": -0.4842890942,
				"y": 1.060635091,
				"z": 0.5068246554,
				"element": "H" 
			},
			{
				"x": -0.9970625487,
				"y": -1.6689017845,
				"z": -0.7659010845,
				"element": "H" 
			},
			{
				"x": -0.5597580162,
				"y": -0.9650904187,
				"z": 2.1682228131,
				"element": "H" 
			},
			{
				"x": -0.8282131888,
				"y": -2.5689802901,
				"z": 1.4983487468,
				"element": "H" 
			},
			{
				"x": 1.596032135,
				"y": -2.1209569485,
				"z": 2.0127403842,
				"element": "H" 
			},
			{
				"x": 1.351898253,
				"y": -2.4841691789,
				"z": 0.3121591697,
				"element": "H" 
			},
			{
				"x": 1.4806472034,
				"y": 0.310769451,
				"z": 1.5371032984,
				"element": "H" 
			},
			{
				"x": 3.7548771346,
				"y": -1.3380797709,
				"z": 1.0376206185,
				"element": "H" 
			},
			{
				"x": 5.0778552584,
				"y": 0.2529061215,
				"z": -0.3877319319,
				"element": "H" 
			},
			{
				"x": 3.8209603653,
				"y": 2.4885324567,
				"z": -0.9446767962,
				"element": "H" 
			},
			{
				"x": 3.552614642,
				"y": 1.1610575483,
				"z": -2.0587138503,
				"element": "H" 
			},
			{
				"x": 1.396558907,
				"y": 2.130132948,
				"z": -1.6270156906,
				"element": "H" 
			},
			{
				"x": 1.6635356805,
				"y": 2.2092643959,
				"z": 0.1096462288,
				"element": "H" 
			},
			{
				"x": 2.5113642719,
				"y": -0.9776794817,
				"z": -1.8360778161,
				"element": "H" 
			},
			{
				"x": 0.8702475453,
				"y": -1.6038186081,
				"z": -1.798770163,
				"element": "H" 
			},
			{
				"x": 1.2390176957,
				"y": -0.1601914741,
				"z": -2.7400681078,
				"element": "H" 
			},
			{
				"x": -2.5747710599,
				"y": 0.1341362759,
				"z": 1.088826285,
				"element": "H" 
			},
			{
				"x": -3.4174908144,
				"y": -2.6806478691,
				"z": 0.2633476996,
				"element": "H" 
			},
			{
				"x": -3.2880414846,
				"y": -2.0382957537,
				"z": 1.8973881887,
				"element": "H" 
			},
			{
				"x": -5.225367242,
				"y": -0.6229721334,
				"z": 1.6176066293,
				"element": "H" 
			},
			{
				"x": -5.6907939,
				"y": -1.810122079,
				"z": 0.4119893622,
				"element": "H" 
			}
		],
		 "valence_orbital": [ 
			{
				"type": "occ",
				"energy": -0.29615,
				"method": "rhf"
			},
			{
				"type": "occ",
				"energy": -0.28465,
				"method": "rhf"
			},
			{
				"type": "occ",
				"energy": -0.27095,
				"method": "rhf"
			},
			{
				"type": "occ",
				"energy": -0.25616,
				"method": "rhf"
			},
			{
				"type": "occ",
				"energy": -0.23001,
				"method": "rhf"
			},
			{
				"type": "unocc",
				"energy": -0.0121,
				"method": "rhf"
			},
			{
				"type": "unocc",
				"energy": 0.0741,
				"method": "rhf"
			},
			{
				"type": "unocc",
				"energy": 0.07582,
				"method": "rhf"
			},
			{
				"type": "unocc",
				"energy": 0.08201,
				"method": "rhf"
			},
			{
				"type": "unocc",
				"energy": 0.09121,
				"method": "rhf"
			}
		],
		"cosmo_sigma_profile": { 
			"-0.025": 0.0,
			"-0.024": 0.0,
			"-0.023": 0.0,
			"-0.022": 0.0,
			"-0.021": 0.0,
			"-0.02": 0.0,
			"-0.019": 0.0,
			"-0.018": 0.0,
			"-0.017": 0.0,
			"-0.016": 0.0,
			"-0.015": 0.0,
			"-0.014": 0.0,
			"-0.013": 0.0,
			"-0.012": 0.0,
			"-0.011": 0.0,
			"-0.01": 0.0,
			"-0.009": 0.0,
			"-0.008": 0.0,
			"-0.007": 0.0,
			"-0.006": 0.581618897209,
			"-0.005": 8.93261001651,
			"-0.004": 19.5917812646,
			"-0.003": 40.7124976643,
			"-0.002": 66.1001949394,
			"-0.001": 64.2072392662,
			"0.0": 44.8071320821,
			"0.001": 25.0240479236,
			"0.002": 7.36277239814,
			"0.003": 3.83353988522,
			"0.004": 3.37234498178,
			"0.005": 3.17963926688,
			"0.006": 3.51260309137,
			"0.007": 2.26770801575,
			"0.008": 3.94829923322,
			"0.009": 3.51963453106,
			"0.01": 3.25258450039,
			"0.011": 4.85582947705,
			"0.012": 8.34292737992,
			"0.013": 5.35080558809,
			"0.014": 0.726425772291,
			"0.015": 0.0,
			"0.016": 0.0,
			"0.017": 0.0,
			"0.018": 0.0,
			"0.019": 0.0,
			"0.02": 0.0,
			"0.021": 0.0,
			"0.022": 0.0,
			"0.023": 0.0,
			"0.024": 0.0,
			"0.025": 0.0
		}
	}
}
