{
	 "smiles": "ClC(=O)OCC(Cl)(Cl)Cl", 
	 "Tm": 274.15, 
	 "num_atms": 11, 
	 "gaussian": { 
		 "optdone": 1, 
		 "sigma_profile": "yes", 
		 "theory": "DFT", 
		 "functional": "B3LYP", 
		 "basiset": "6-31G**", 
		 "properties": { 
			 "R2extent": 5424.4937, 
			 "electric_dipole_moment_norm": 1.73448849521, 
			 "electric_quadrupole_moment_norm": 6.08947626237, 
			 "total_energy": -2106.72404158, 
			 "HOMO_LUMO_gap": 0.2624, 
			 "cosmo_polarized_energy": -5.98, 
			 "cosmo_cavitation_energy": 23.23, 
			 "cosmo_dispersion_energy": -16.99, 
			 "cosmo_repulsion_energy": 1.42, 
			 "cosmo_total_nonelectrostatic_energy": 7.66, 
			 "SMD_solvation_energy": 4.11 
		},
		"coords": [
			{
				"x": -1.6300972947,
				"y": -5.3604847014,
				"z": 0.1658847476,
				"element": "Cl" 
			},
			{
				"x": -0.612454344,
				"y": -3.9288974071,
				"z": -0.0127339053,
				"element": "C" 
			},
			{
				"x": 0.3933847439,
				"y": -3.9049689197,
				"z": -0.6546313391,
				"element": "O" 
			},
			{
				"x": -1.1826059491,
				"y": -2.9218782347,
				"z": 0.6695301745,
				"element": "O" 
			},
			{
				"x": -0.4809532729,
				"y": -1.6711783403,
				"z": 0.6690609983,
				"element": "C" 
			},
			{
				"x": -0.0836603287,
				"y": -1.2879685697,
				"z": 2.102001904,
				"element": "C" 
			},
			{
				"x": -1.5355212346,
				"y": -1.1522395257,
				"z": 3.1459211963,
				"element": "Cl" 
			},
			{
				"x": 1.0433466474,
				"y": -2.5036196838,
				"z": 2.7863297287,
				"element": "Cl" 
			},
			{
				"x": 0.7365393714,
				"y": 0.3133013004,
				"z": 1.9915092272,
				"element": "Cl" 
			},
			{
				"x": 0.4142084023,
				"y": -1.7360683446,
				"z": 0.0497682467,
				"element": "H" 
			},
			{
				"x": -1.164786741,
				"y": -0.9128975733,
				"z": 0.2830590213,
				"element": "H" 
			}
		],
		 "valence_orbital": [ 
			{
				"type": "occ",
				"energy": -0.34054,
				"method": "rhf"
			},
			{
				"type": "occ",
				"energy": -0.33824,
				"method": "rhf"
			},
			{
				"type": "occ",
				"energy": -0.33515,
				"method": "rhf"
			},
			{
				"type": "occ",
				"energy": -0.32271,
				"method": "rhf"
			},
			{
				"type": "occ",
				"energy": -0.31954,
				"method": "rhf"
			},
			{
				"type": "unocc",
				"energy": -0.05714,
				"method": "rhf"
			},
			{
				"type": "unocc",
				"energy": -0.02952,
				"method": "rhf"
			},
			{
				"type": "unocc",
				"energy": -0.01857,
				"method": "rhf"
			},
			{
				"type": "unocc",
				"energy": -0.01046,
				"method": "rhf"
			},
			{
				"type": "unocc",
				"energy": 0.00829,
				"method": "rhf"
			}
		],
		"cosmo_sigma_profile": { 
			"-0.025": 0.0,
			"-0.024": 0.0,
			"-0.023": 0.0,
			"-0.022": 0.0,
			"-0.021": 0.0,
			"-0.02": 0.0,
			"-0.019": 0.0,
			"-0.018": 0.0,
			"-0.017": 0.0,
			"-0.016": 0.0,
			"-0.015": 0.0,
			"-0.014": 0.0,
			"-0.013": 0.0,
			"-0.012": 0.0,
			"-0.011": 0.242599455063,
			"-0.01": 2.32170600502,
			"-0.009": 4.35432030289,
			"-0.008": 4.93446144573,
			"-0.007": 4.88848302632,
			"-0.006": 3.69945188018,
			"-0.005": 4.40305122896,
			"-0.004": 9.64288942325,
			"-0.003": 11.6228125982,
			"-0.002": 12.0587452365,
			"-0.001": 14.990697215,
			"0.0": 17.4251511678,
			"0.001": 21.5505750287,
			"0.002": 37.9025688996,
			"0.003": 25.8931467786,
			"0.004": 4.97638079816,
			"0.005": 2.90676641296,
			"0.006": 2.81203994099,
			"0.007": 2.26472407095,
			"0.008": 3.90024878156,
			"0.009": 2.15906089931,
			"0.01": 0.100647082074,
			"0.011": 0.0,
			"0.012": 0.0,
			"0.013": 0.0,
			"0.014": 0.0,
			"0.015": 0.0,
			"0.016": 0.0,
			"0.017": 0.0,
			"0.018": 0.0,
			"0.019": 0.0,
			"0.02": 0.0,
			"0.021": 0.0,
			"0.022": 0.0,
			"0.023": 0.0,
			"0.024": 0.0,
			"0.025": 0.0
		}
	}
}
