{
	 "smiles": "CC1=C(ON=C1)C(O)=O", 
	 "Tm": 407.15, 
	 "num_atms": 14, 
	 "gaussian": { 
		 "optdone": 1, 
		 "sigma_profile": "yes", 
		 "theory": "DFT", 
		 "functional": "B3LYP", 
		 "basiset": "6-31G**", 
		 "properties": { 
			 "R2extent": 1301.8642, 
			 "electric_dipole_moment_norm": 4.67050634193, 
			 "electric_quadrupole_moment_norm": 9.31581088634, 
			 "total_energy": -473.923239912, 
			 "HOMO_LUMO_gap": 0.20645, 
			 "cosmo_polarized_energy": -13.01, 
			 "cosmo_cavitation_energy": 19.23, 
			 "cosmo_dispersion_energy": -14.17, 
			 "cosmo_repulsion_energy": 1.17, 
			 "cosmo_total_nonelectrostatic_energy": 6.23, 
			 "SMD_solvation_energy": 4.97 
		},
		"coords": [
			{
				"x": -0.2069756354,
				"y": 0.8229628708,
				"z": 2.1698536215,
				"element": "C" 
			},
			{
				"x": 0.7574692173,
				"y": 0.9571875762,
				"z": 1.0315296378,
				"element": "C" 
			},
			{
				"x": 1.0337460321,
				"y": 0.100740643,
				"z": -0.0058578411,
				"element": "C" 
			},
			{
				"x": 1.9838515846,
				"y": 0.6281000169,
				"z": -0.8132848577,
				"element": "O" 
			},
			{
				"x": 2.3600133163,
				"y": 1.860643308,
				"z": -0.3192776549,
				"element": "N" 
			},
			{
				"x": 1.6359593131,
				"y": 2.0452676903,
				"z": 0.7622449777,
				"element": "C" 
			},
			{
				"x": 0.519213382,
				"y": -1.2240215529,
				"z": -0.3944916957,
				"element": "C" 
			},
			{
				"x": -0.4241786056,
				"y": -1.6539722702,
				"z": 0.481643783,
				"element": "O" 
			},
			{
				"x": 0.8760011229,
				"y": -1.8594736401,
				"z": -1.3602419852,
				"element": "O" 
			},
			{
				"x": -1.2336970421,
				"y": 0.7110898284,
				"z": 1.8096888571,
				"element": "H" 
			},
			{
				"x": -0.1623243337,
				"y": 1.7045904097,
				"z": 2.813870179,
				"element": "H" 
			},
			{
				"x": 0.0155005049,
				"y": -0.0590393753,
				"z": 2.7772726927,
				"element": "H" 
			},
			{
				"x": 1.7586880576,
				"y": 2.9592524866,
				"z": 1.330272874,
				"element": "H" 
			},
			{
				"x": -0.7099669139,
				"y": -2.5249279913,
				"z": 0.1582774118,
				"element": "H" 
			}
		],
		 "valence_orbital": [ 
			{
				"type": "occ",
				"energy": -0.33529,
				"method": "rhf"
			},
			{
				"type": "occ",
				"energy": -0.31551,
				"method": "rhf"
			},
			{
				"type": "occ",
				"energy": -0.30759,
				"method": "rhf"
			},
			{
				"type": "occ",
				"energy": -0.29392,
				"method": "rhf"
			},
			{
				"type": "occ",
				"energy": -0.27264,
				"method": "rhf"
			},
			{
				"type": "unocc",
				"energy": -0.06619,
				"method": "rhf"
			},
			{
				"type": "unocc",
				"energy": 0.02152,
				"method": "rhf"
			},
			{
				"type": "unocc",
				"energy": 0.06321,
				"method": "rhf"
			},
			{
				"type": "unocc",
				"energy": 0.08466,
				"method": "rhf"
			},
			{
				"type": "unocc",
				"energy": 0.09319,
				"method": "rhf"
			}
		],
		"cosmo_sigma_profile": { 
			"-0.025": 0.0,
			"-0.024": 0.0,
			"-0.023": 0.0,
			"-0.022": 0.0,
			"-0.021": 0.0,
			"-0.02": 0.020322881987,
			"-0.019": 0.68089067095,
			"-0.018": 0.84220998722,
			"-0.017": 1.05082974067,
			"-0.016": 1.11437362346,
			"-0.015": 0.739120252289,
			"-0.014": 0.19336597669,
			"-0.013": 0.272530816126,
			"-0.012": 1.15540266229,
			"-0.011": 0.887666610722,
			"-0.01": 1.62079735519,
			"-0.009": 2.78213177554,
			"-0.008": 3.08165577468,
			"-0.007": 3.34418918966,
			"-0.006": 4.41557511471,
			"-0.005": 8.46285363426,
			"-0.004": 10.7337267187,
			"-0.003": 12.3957418665,
			"-0.002": 15.759412402,
			"-0.001": 15.5504583131,
			"0.0": 7.69249789464,
			"0.001": 6.53167647364,
			"0.002": 4.35310370354,
			"0.003": 3.84932003241,
			"0.004": 5.3220539336,
			"0.005": 5.72851265387,
			"0.006": 4.64898782281,
			"0.007": 6.62076844082,
			"0.008": 4.42878395057,
			"0.009": 4.20762479217,
			"0.01": 5.32801543024,
			"0.011": 6.53927268267,
			"0.012": 2.49758648568,
			"0.013": 0.776645819912,
			"0.014": 0.0838012367178,
			"0.015": 0.0,
			"0.016": 0.0,
			"0.017": 0.0,
			"0.018": 0.0,
			"0.019": 0.0,
			"0.02": 0.0,
			"0.021": 0.0,
			"0.022": 0.0,
			"0.023": 0.0,
			"0.024": 0.0,
			"0.025": 0.0
		}
	}
}
