{
	 "smiles": "CCC1=CC(=CC=C1N)C#N", 
	 "Tm": 336.15, 
	 "num_atms": 21, 
	 "gaussian": { 
		 "optdone": 1, 
		 "sigma_profile": "yes", 
		 "theory": "DFT", 
		 "functional": "B3LYP", 
		 "basiset": "6-31G**", 
		 "properties": { 
			 "R2extent": 3570.8091, 
			 "electric_dipole_moment_norm": 6.82247007322, 
			 "electric_quadrupole_moment_norm": 34.3926191608, 
			 "total_energy": -458.487899587, 
			 "HOMO_LUMO_gap": 0.18872, 
			 "cosmo_polarized_energy": -14.21, 
			 "cosmo_cavitation_energy": 25.25, 
			 "cosmo_dispersion_energy": -17.9, 
			 "cosmo_repulsion_energy": 1.45, 
			 "cosmo_total_nonelectrostatic_energy": 8.81, 
			 "SMD_solvation_energy": 5.71 
		},
		"coords": [
			{
				"x": -0.501552384,
				"y": 0.474969376,
				"z": -0.7623587157,
				"element": "C" 
			},
			{
				"x": -0.3792306121,
				"y": -1.0607901757,
				"z": -0.7482072896,
				"element": "C" 
			},
			{
				"x": 0.7733689606,
				"y": -1.5694964817,
				"z": 0.092642982,
				"element": "C" 
			},
			{
				"x": 1.9441329478,
				"y": -2.0112900599,
				"z": -0.5168179416,
				"element": "C" 
			},
			{
				"x": 3.0502604097,
				"y": -2.4584775822,
				"z": 0.2268905299,
				"element": "C" 
			},
			{
				"x": 2.9689552288,
				"y": -2.461046665,
				"z": 1.6292919435,
				"element": "C" 
			},
			{
				"x": 1.8094749222,
				"y": -2.0319538494,
				"z": 2.255053157,
				"element": "C" 
			},
			{
				"x": 0.7024854379,
				"y": -1.5825592208,
				"z": 1.5100622499,
				"element": "C" 
			},
			{
				"x": -0.4240456924,
				"y": -1.113930683,
				"z": 2.1718845027,
				"element": "N" 
			},
			{
				"x": 4.2353061792,
				"y": -2.9067540022,
				"z": -0.436411153,
				"element": "C" 
			},
			{
				"x": 5.1998601081,
				"y": -3.2719091715,
				"z": -0.9771341614,
				"element": "N" 
			},
			{
				"x": -1.3568959503,
				"y": 0.7915697762,
				"z": -1.3681082855,
				"element": "H" 
			},
			{
				"x": 0.4003769671,
				"y": 0.9273254272,
				"z": -1.1854484725,
				"element": "H" 
			},
			{
				"x": -0.6303083539,
				"y": 0.8753339848,
				"z": 0.2475108827,
				"element": "H" 
			},
			{
				"x": -0.2520879621,
				"y": -1.4225417923,
				"z": -1.7740274594,
				"element": "H" 
			},
			{
				"x": -1.3266385391,
				"y": -1.5005120584,
				"z": -0.4017828244,
				"element": "H" 
			},
			{
				"x": 2.005784932,
				"y": -2.0123049169,
				"z": -1.601218858,
				"element": "H" 
			},
			{
				"x": 3.8124296474,
				"y": -2.8051576587,
				"z": 2.2184438148,
				"element": "H" 
			},
			{
				"x": 1.7495161553,
				"y": -2.0374786044,
				"z": 3.3404048349,
				"element": "H" 
			},
			{
				"x": -0.5254113247,
				"y": -1.4071973994,
				"z": 3.1329451134,
				"element": "H" 
			},
			{
				"x": -1.2942810775,
				"y": -1.1301982427,
				"z": 1.6608851502,
				"element": "H" 
			}
		],
		 "valence_orbital": [ 
			{
				"type": "occ",
				"energy": -0.34192,
				"method": "rhf"
			},
			{
				"type": "occ",
				"energy": -0.31443,
				"method": "rhf"
			},
			{
				"type": "occ",
				"energy": -0.30374,
				"method": "rhf"
			},
			{
				"type": "occ",
				"energy": -0.2612,
				"method": "rhf"
			},
			{
				"type": "occ",
				"energy": -0.21733,
				"method": "rhf"
			},
			{
				"type": "unocc",
				"energy": -0.02861,
				"method": "rhf"
			},
			{
				"type": "unocc",
				"energy": -0.01393,
				"method": "rhf"
			},
			{
				"type": "unocc",
				"energy": 0.04911,
				"method": "rhf"
			},
			{
				"type": "unocc",
				"energy": 0.05797,
				"method": "rhf"
			},
			{
				"type": "unocc",
				"energy": 0.08358,
				"method": "rhf"
			}
		],
		"cosmo_sigma_profile": { 
			"-0.025": 0.0,
			"-0.024": 0.0,
			"-0.023": 0.0,
			"-0.022": 0.0,
			"-0.021": 0.0,
			"-0.02": 0.0,
			"-0.019": 0.0,
			"-0.018": 0.0,
			"-0.017": 0.0,
			"-0.016": 0.0,
			"-0.015": 0.0,
			"-0.014": 0.275607324356,
			"-0.013": 1.67812311685,
			"-0.012": 2.76960654754,
			"-0.011": 2.88361372976,
			"-0.01": 2.95611780014,
			"-0.009": 2.61617532686,
			"-0.008": 3.53831342901,
			"-0.007": 6.56175653908,
			"-0.006": 7.09094623721,
			"-0.005": 10.0203661962,
			"-0.004": 9.72480432091,
			"-0.003": 12.4657341103,
			"-0.002": 15.5404513761,
			"-0.001": 17.220597306,
			"0.0": 17.5832021256,
			"0.001": 17.9817755551,
			"0.002": 10.5468229685,
			"0.003": 12.6328482711,
			"0.004": 13.8845018873,
			"0.005": 4.27919166379,
			"0.006": 2.42702094476,
			"0.007": 4.13737834649,
			"0.008": 2.91699959938,
			"0.009": 4.11278702541,
			"0.01": 4.39924452158,
			"0.011": 3.70665331267,
			"0.012": 3.07568602758,
			"0.013": 2.50300301653,
			"0.014": 1.37618974121,
			"0.015": 0.0176987355927,
			"0.016": 0.0,
			"0.017": 0.0,
			"0.018": 0.0,
			"0.019": 0.0,
			"0.02": 0.0,
			"0.021": 0.0,
			"0.022": 0.0,
			"0.023": 0.0,
			"0.024": 0.0,
			"0.025": 0.0
		}
	}
}
