{
	 "smiles": "IC1=CC=CC(=C1)C1=CC=CC=C1", 
	 "Tm": 299.65, 
	 "num_atms": 22, 
	 "gaussian": { 
		 "optdone": 1, 
		 "sigma_profile": "no", 
		 "theory": "DFT", 
		 "functional": "B3LYP", 
		 "basiset": "6-31G**", 
		 "properties": { 
			 "R2extent": 3135.3138, 
			 "electric_dipole_moment_norm": 2.04126556332, 
			 "electric_quadrupole_moment_norm": 10.3149897407, 
			 "total_energy": -474.094726017, 
			 "HOMO_LUMO_gap": 0.19169, 
			 "cosmo_polarized_energy": -100208.33, 
			 "cosmo_cavitation_energy": 29.13, 
			 "cosmo_dispersion_energy": -22.74, 
			 "cosmo_repulsion_energy": 1.76, 
			 "cosmo_total_nonelectrostatic_energy": 8.14, 
			 "SMD_solvation_energy": 3.82 
		},
		"coords": [
			{
				"x": -2.7685784214,
				"y": 1.5688322343,
				"z": -4.4610348175,
				"element": "I" 
			},
			{
				"x": -2.2198390764,
				"y": 0.2371459297,
				"z": -2.8987382586,
				"element": "C" 
			},
			{
				"x": -2.8665569095,
				"y": -0.9946665289,
				"z": -2.7912432042,
				"element": "C" 
			},
			{
				"x": -2.4850384728,
				"y": -1.8589465511,
				"z": -1.7629103163,
				"element": "C" 
			},
			{
				"x": -1.4834699224,
				"y": -1.4987936394,
				"z": -0.8639891334,
				"element": "C" 
			},
			{
				"x": -0.8320768821,
				"y": -0.2592826929,
				"z": -0.9726545508,
				"element": "C" 
			},
			{
				"x": -1.2136270212,
				"y": 0.6101297453,
				"z": -2.009856761,
				"element": "C" 
			},
			{
				"x": 0.2374305247,
				"y": 0.1322484172,
				"z": -0.0182954664,
				"element": "C" 
			},
			{
				"x": 0.3406089141,
				"y": 1.4533507778,
				"z": 0.4489510565,
				"element": "C" 
			},
			{
				"x": 1.3444195241,
				"y": 1.8183218352,
				"z": 1.3449953766,
				"element": "C" 
			},
			{
				"x": 2.2656181894,
				"y": 0.8698985498,
				"z": 1.7933882245,
				"element": "C" 
			},
			{
				"x": 2.1747582001,
				"y": -0.4466894085,
				"z": 1.3377394268,
				"element": "C" 
			},
			{
				"x": 1.1715862088,
				"y": -0.8116359442,
				"z": 0.4410424396,
				"element": "C" 
			},
			{
				"x": -3.6478117353,
				"y": -1.2755786551,
				"z": -3.4880514495,
				"element": "H" 
			},
			{
				"x": -2.9848507945,
				"y": -2.8179298041,
				"z": -1.6605743974,
				"element": "H" 
			},
			{
				"x": -1.2191599903,
				"y": -2.1716489572,
				"z": -0.0542856019,
				"element": "H" 
			},
			{
				"x": -0.7046233705,
				"y": 1.5595808488,
				"z": -2.1285182535,
				"element": "H" 
			},
			{
				"x": -0.3872733485,
				"y": 2.1926352075,
				"z": 0.1275973353,
				"element": "H" 
			},
			{
				"x": 1.4012877949,
				"y": 2.8434136875,
				"z": 1.6999105477,
				"element": "H" 
			},
			{
				"x": 3.0474661188,
				"y": 1.154287435,
				"z": 2.4915342363,
				"element": "H" 
			},
			{
				"x": 2.8919392037,
				"y": -1.1901959264,
				"z": 1.6738171836,
				"element": "H" 
			},
			{
				"x": 1.1258912663,
				"y": -1.8318765604,
				"z": 0.0715763833,
				"element": "H" 
			}
		],
		 "valence_orbital": [ 
			{
				"type": "occ",
				"energy": -0.27811,
				"method": "rhf"
			},
			{
				"type": "occ",
				"energy": -0.26691,
				"method": "rhf"
			},
			{
				"type": "occ",
				"energy": -0.25562,
				"method": "rhf"
			},
			{
				"type": "occ",
				"energy": -0.24333,
				"method": "rhf"
			},
			{
				"type": "occ",
				"energy": -0.23128,
				"method": "rhf"
			},
			{
				"type": "unocc",
				"energy": -0.03959,
				"method": "rhf"
			},
			{
				"type": "unocc",
				"energy": -0.0348,
				"method": "rhf"
			},
			{
				"type": "unocc",
				"energy": -0.01793,
				"method": "rhf"
			},
			{
				"type": "unocc",
				"energy": -0.00684,
				"method": "rhf"
			},
			{
				"type": "unocc",
				"energy": 0.01929,
				"method": "rhf"
			}
		],
		"cosmo_sigma_profile": { 
			"0.0": 0.0,
			"0.0": 0.0,
			"0.0": 0.0,
			"0.0": 0.0,
			"0.0": 0.0,
			"0.0": 0.0,
			"0.0": 0.0,
			"0.0": 0.0,
			"0.0": 0.0,
			"0.0": 0.0,
			"0.0": 0.0,
			"0.0": 0.0,
			"0.0": 0.0,
			"0.0": 0.0,
			"0.0": 0.0,
			"0.0": 0.0,
			"0.0": 0.0,
			"0.0": 0.0,
			"0.0": 0.0,
			"0.0": 0.0,
			"0.0": 0.0,
			"0.0": 0.0,
			"0.0": 0.0,
			"0.0": 0.0,
			"0.0": 0.0,
			"0.0": 0.0,
			"0.0": 0.0,
			"0.0": 0.0,
			"0.0": 0.0,
			"0.0": 0.0,
			"0.0": 0.0,
			"0.0": 0.0,
			"0.0": 0.0,
			"0.0": 0.0,
			"0.0": 0.0,
			"0.0": 0.0,
			"0.0": 0.0,
			"0.0": 0.0,
			"0.0": 0.0,
			"0.0": 0.0,
			"0.0": 0.0,
			"0.0": 0.0,
			"0.0": 0.0,
			"0.0": 0.0,
			"0.0": 0.0,
			"0.0": 0.0,
			"0.0": 0.0,
			"0.0": 0.0,
			"0.0": 0.0,
			"0.0": 0.0,
			"0.0": 0.0
		}
	}
}
