{
	 "smiles": "N#CCSC1=CC2=CC=CC=C2C=C1", 
	 "Tm": 357.65, 
	 "num_atms": 23, 
	 "gaussian": { 
		 "optdone": 1, 
		 "sigma_profile": "yes", 
		 "theory": "DFT", 
		 "functional": "B3LYP", 
		 "basiset": "6-31G**", 
		 "properties": { 
			 "R2extent": 3860.155, 
			 "electric_dipole_moment_norm": 3.63323394237, 
			 "electric_quadrupole_moment_norm": 17.251610757, 
			 "total_energy": -915.626468119, 
			 "HOMO_LUMO_gap": 0.1727, 
			 "cosmo_polarized_energy": -11.32, 
			 "cosmo_cavitation_energy": 29.74, 
			 "cosmo_dispersion_energy": -21.32, 
			 "cosmo_repulsion_energy": 1.62, 
			 "cosmo_total_nonelectrostatic_energy": 10.04, 
			 "SMD_solvation_energy": 5.69 
		},
		"coords": [
			{
				"x": 1.5865026221,
				"y": 3.1093613644,
				"z": 3.6721454772,
				"element": "N" 
			},
			{
				"x": 1.7990581795,
				"y": 1.9956282388,
				"z": 3.4213453732,
				"element": "C" 
			},
			{
				"x": 2.0476443052,
				"y": 0.5944019729,
				"z": 3.0945704886,
				"element": "C" 
			},
			{
				"x": 0.5109836043,
				"y": -0.4048687439,
				"z": 2.8311134158,
				"element": "S" 
			},
			{
				"x": -0.084785519,
				"y": 0.2613860062,
				"z": 1.2747075137,
				"element": "C" 
			},
			{
				"x": 0.0729846295,
				"y": -0.4769747634,
				"z": 0.1179276576,
				"element": "C" 
			},
			{
				"x": -0.4372462948,
				"y": -0.0067747767,
				"z": -1.1213352859,
				"element": "C" 
			},
			{
				"x": -0.2917412935,
				"y": -0.7477281262,
				"z": -2.3255863656,
				"element": "C" 
			},
			{
				"x": -0.790640068,
				"y": -0.262563409,
				"z": -3.5132336653,
				"element": "C" 
			},
			{
				"x": -1.4589188492,
				"y": 0.9864186241,
				"z": -3.5508172232,
				"element": "C" 
			},
			{
				"x": -1.6163995514,
				"y": 1.7274122922,
				"z": -2.4009024532,
				"element": "C" 
			},
			{
				"x": -1.112949623,
				"y": 1.2563575065,
				"z": -1.1589872319,
				"element": "C" 
			},
			{
				"x": -1.2594268441,
				"y": 1.9907713411,
				"z": 0.0493287162,
				"element": "C" 
			},
			{
				"x": -0.7700654597,
				"y": 1.5078985981,
				"z": 1.2403431706,
				"element": "C" 
			},
			{
				"x": 2.5673540806,
				"y": 0.1120186282,
				"z": 3.9280740015,
				"element": "H" 
			},
			{
				"x": 2.6859655668,
				"y": 0.5266248096,
				"z": 2.2095101769,
				"element": "H" 
			},
			{
				"x": 0.5909020131,
				"y": -1.4312450744,
				"z": 0.1494994593,
				"element": "H" 
			},
			{
				"x": 0.2209263108,
				"y": -1.7055663629,
				"z": -2.2926571998,
				"element": "H" 
			},
			{
				"x": -0.6740827768,
				"y": -0.8364428321,
				"z": -4.4278447432,
				"element": "H" 
			},
			{
				"x": -1.8478605729,
				"y": 1.3577190011,
				"z": -4.4944499272,
				"element": "H" 
			},
			{
				"x": -2.1291773852,
				"y": 2.6852479842,
				"z": -2.4283839154,
				"element": "H" 
			},
			{
				"x": -1.77691252,
				"y": 2.9460799591,
				"z": 0.0228513488,
				"element": "H" 
			},
			{
				"x": -0.8976145545,
				"y": 2.0714377619,
				"z": 2.1579812112,
				"element": "H" 
			}
		],
		 "valence_orbital": [ 
			{
				"type": "occ",
				"energy": -0.31877,
				"method": "rhf"
			},
			{
				"type": "occ",
				"energy": -0.29455,
				"method": "rhf"
			},
			{
				"type": "occ",
				"energy": -0.25936,
				"method": "rhf"
			},
			{
				"type": "occ",
				"energy": -0.24574,
				"method": "rhf"
			},
			{
				"type": "occ",
				"energy": -0.22679,
				"method": "rhf"
			},
			{
				"type": "unocc",
				"energy": -0.05409,
				"method": "rhf"
			},
			{
				"type": "unocc",
				"energy": -0.03123,
				"method": "rhf"
			},
			{
				"type": "unocc",
				"energy": 0.0026,
				"method": "rhf"
			},
			{
				"type": "unocc",
				"energy": 0.01852,
				"method": "rhf"
			},
			{
				"type": "unocc",
				"energy": 0.03294,
				"method": "rhf"
			}
		],
		"cosmo_sigma_profile": { 
			"-0.025": 0.0,
			"-0.024": 0.0,
			"-0.023": 0.0,
			"-0.022": 0.0,
			"-0.021": 0.0,
			"-0.02": 0.0,
			"-0.019": 0.0,
			"-0.018": 0.0,
			"-0.017": 0.0,
			"-0.016": 0.0,
			"-0.015": 0.0,
			"-0.014": 0.0,
			"-0.013": 0.0,
			"-0.012": 0.0,
			"-0.011": 0.714228091076,
			"-0.01": 3.98823754332,
			"-0.009": 4.26371322124,
			"-0.008": 4.26240190662,
			"-0.007": 7.29464720805,
			"-0.006": 18.2576756646,
			"-0.005": 15.6958310434,
			"-0.004": 16.1602309197,
			"-0.003": 11.9029478652,
			"-0.002": 12.0440121098,
			"-0.001": 14.1463325745,
			"0.0": 13.6834268736,
			"0.001": 15.3770250147,
			"0.002": 18.4084375331,
			"0.003": 29.468070843,
			"0.004": 20.4160105752,
			"0.005": 10.0857315845,
			"0.006": 4.61284074572,
			"0.007": 4.29408589534,
			"0.008": 4.61873174729,
			"0.009": 3.08748378699,
			"0.01": 2.53973717947,
			"0.011": 2.79679263254,
			"0.012": 2.28826641558,
			"0.013": 1.25717353234,
			"0.014": 0.00470034017373,
			"0.015": 0.0,
			"0.016": 0.0,
			"0.017": 0.0,
			"0.018": 0.0,
			"0.019": 0.0,
			"0.02": 0.0,
			"0.021": 0.0,
			"0.022": 0.0,
			"0.023": 0.0,
			"0.024": 0.0,
			"0.025": 0.0
		}
	}
}
