{
	 "smiles": "CC1=C(SC(Cl)=N1)C(O)=O", 
	 "Tm": 423.15, 
	 "num_atms": 14, 
	 "gaussian": { 
		 "optdone": 1, 
		 "sigma_profile": "yes", 
		 "theory": "DFT", 
		 "functional": "B3LYP", 
		 "basiset": "6-31G**", 
		 "properties": { 
			 "R2extent": 2560.7459, 
			 "electric_dipole_moment_norm": 2.61185465522, 
			 "electric_quadrupole_moment_norm": 13.6996800207, 
			 "total_energy": -1256.51429813, 
			 "HOMO_LUMO_gap": 0.18335, 
			 "cosmo_polarized_energy": -12.16, 
			 "cosmo_cavitation_energy": 22.3, 
			 "cosmo_dispersion_energy": -17.34, 
			 "cosmo_repulsion_energy": 1.37, 
			 "cosmo_total_nonelectrostatic_energy": 6.32, 
			 "SMD_solvation_energy": 3.06 
		},
		"coords": [
			{
				"x": -0.4124818231,
				"y": -0.4937254463,
				"z": -1.3707037421,
				"element": "C" 
			},
			{
				"x": -0.142498771,
				"y": -0.2719370341,
				"z": 0.0874369218,
				"element": "C" 
			},
			{
				"x": -0.0590004543,
				"y": 0.9490927371,
				"z": 0.7334368144,
				"element": "C" 
			},
			{
				"x": 0.2734998776,
				"y": 0.6937682723,
				"z": 2.439210686,
				"element": "S" 
			},
			{
				"x": 0.2682485919,
				"y": -1.0217511045,
				"z": 2.1222202408,
				"element": "C" 
			},
			{
				"x": 0.5476608527,
				"y": -2.1435895919,
				"z": 3.403089711,
				"element": "Cl" 
			},
			{
				"x": 0.0467824055,
				"y": -1.3710127325,
				"z": 0.8977763668,
				"element": "N" 
			},
			{
				"x": -0.2227880332,
				"y": 2.2727723451,
				"z": 0.0957759791,
				"element": "C" 
			},
			{
				"x": -0.1081943502,
				"y": 3.3782147163,
				"z": 0.877907738,
				"element": "O" 
			},
			{
				"x": -0.4505727322,
				"y": 2.3977634395,
				"z": -1.0864402782,
				"element": "O" 
			},
			{
				"x": -0.4167172319,
				"y": -1.5653028492,
				"z": -1.5738742282,
				"element": "H" 
			},
			{
				"x": 0.3444063764,
				"y": -0.0013935393,
				"z": -1.9872268297,
				"element": "H" 
			},
			{
				"x": -1.3715329271,
				"y": -0.0564077892,
				"z": -1.6611153235,
				"element": "H" 
			},
			{
				"x": 0.0748882189,
				"y": 3.1625085769,
				"z": 1.8030059439,
				"element": "H" 
			}
		],
		 "valence_orbital": [ 
			{
				"type": "occ",
				"energy": -0.3296,
				"method": "rhf"
			},
			{
				"type": "occ",
				"energy": -0.31548,
				"method": "rhf"
			},
			{
				"type": "occ",
				"energy": -0.3111,
				"method": "rhf"
			},
			{
				"type": "occ",
				"energy": -0.28821,
				"method": "rhf"
			},
			{
				"type": "occ",
				"energy": -0.26375,
				"method": "rhf"
			},
			{
				"type": "unocc",
				"energy": -0.0804,
				"method": "rhf"
			},
			{
				"type": "unocc",
				"energy": -0.04037,
				"method": "rhf"
			},
			{
				"type": "unocc",
				"energy": -0.00443,
				"method": "rhf"
			},
			{
				"type": "unocc",
				"energy": 0.00629,
				"method": "rhf"
			},
			{
				"type": "unocc",
				"energy": 0.05699,
				"method": "rhf"
			}
		],
		"cosmo_sigma_profile": { 
			"-0.025": 0.0,
			"-0.024": 0.0,
			"-0.023": 0.0,
			"-0.022": 0.0,
			"-0.021": 0.0,
			"-0.02": 0.0112198812119,
			"-0.019": 0.63923560315,
			"-0.018": 0.635530907695,
			"-0.017": 0.938634971361,
			"-0.016": 1.15017001173,
			"-0.015": 0.750556089746,
			"-0.014": 1.0798649974,
			"-0.013": 1.21975754852,
			"-0.012": 0.898115030465,
			"-0.011": 1.26410390497,
			"-0.01": 0.717266434887,
			"-0.009": 1.06951056406,
			"-0.008": 1.89151294107,
			"-0.007": 1.33678611214,
			"-0.006": 1.5167062612,
			"-0.005": 6.51898271032,
			"-0.004": 13.9549461484,
			"-0.003": 18.9017244062,
			"-0.002": 21.2079578572,
			"-0.001": 22.7854475934,
			"0.0": 14.0068796411,
			"0.001": 12.7352480981,
			"0.002": 12.3596263601,
			"0.003": 6.6630318774,
			"0.004": 3.89415524889,
			"0.005": 4.33250488991,
			"0.006": 3.85490492744,
			"0.007": 3.43906941138,
			"0.008": 4.08405252739,
			"0.009": 4.45333021089,
			"0.01": 5.83955603948,
			"0.011": 4.82283680707,
			"0.012": 3.89411857771,
			"0.013": 0.637542538053,
			"0.014": 0.0,
			"0.015": 0.0,
			"0.016": 0.0,
			"0.017": 0.0,
			"0.018": 0.0,
			"0.019": 0.0,
			"0.02": 0.0,
			"0.021": 0.0,
			"0.022": 0.0,
			"0.023": 0.0,
			"0.024": 0.0,
			"0.025": 0.0
		}
	}
}
