{
	 "smiles": "CC(C)(OC1=CC=C(C=C1)C#N)C(O)=O", 
	 "Tm": 391.15, 
	 "num_atms": 26, 
	 "gaussian": { 
		 "optdone": 1, 
		 "sigma_profile": "yes", 
		 "theory": "DFT", 
		 "functional": "B3LYP", 
		 "basiset": "6-31G**", 
		 "properties": { 
			 "R2extent": 4248.3401, 
			 "electric_dipole_moment_norm": 0.250252072918, 
			 "electric_quadrupole_moment_norm": 39.0142125749, 
			 "total_energy": -706.213709645, 
			 "HOMO_LUMO_gap": 0.20758, 
			 "cosmo_polarized_energy": -17.22, 
			 "cosmo_cavitation_energy": 31.12, 
			 "cosmo_dispersion_energy": -21.2, 
			 "cosmo_repulsion_energy": 1.66, 
			 "cosmo_total_nonelectrostatic_energy": 11.58, 
			 "SMD_solvation_energy": 8.09 
		},
		"coords": [
			{
				"x": 2.4502318395,
				"y": 0.2360428807,
				"z": -1.5072262303,
				"element": "C" 
			},
			{
				"x": 1.277840552,
				"y": -0.748543308,
				"z": -1.4802902062,
				"element": "C" 
			},
			{
				"x": 0.3659000128,
				"y": -0.5864416037,
				"z": -2.6997098658,
				"element": "C" 
			},
			{
				"x": 0.5209259175,
				"y": -0.6435001738,
				"z": -0.2299132591,
				"element": "O" 
			},
			{
				"x": -0.1303320439,
				"y": 0.5264595807,
				"z": 0.1023894272,
				"element": "C" 
			},
			{
				"x": -1.4709675434,
				"y": 0.7022705472,
				"z": -0.2585802518,
				"element": "C" 
			},
			{
				"x": -2.1518941217,
				"y": 1.8485782762,
				"z": 0.1380236078,
				"element": "C" 
			},
			{
				"x": -1.4964238521,
				"y": 2.8263186314,
				"z": 0.9056757313,
				"element": "C" 
			},
			{
				"x": -0.1549034633,
				"y": 2.6363440763,
				"z": 1.2787093818,
				"element": "C" 
			},
			{
				"x": 0.5230639886,
				"y": 1.4888709466,
				"z": 0.880440744,
				"element": "C" 
			},
			{
				"x": -2.1966032056,
				"y": 4.0085127686,
				"z": 1.3150833846,
				"element": "C" 
			},
			{
				"x": -2.764158194,
				"y": 4.9685382503,
				"z": 1.6457769311,
				"element": "N" 
			},
			{
				"x": 1.8423248218,
				"y": -2.1898662379,
				"z": -1.4731877911,
				"element": "C" 
			},
			{
				"x": 1.5295491915,
				"y": -2.9434734593,
				"z": -0.4092894881,
				"element": "O" 
			},
			{
				"x": 2.5241416838,
				"y": -2.59581888,
				"z": -2.38335326,
				"element": "O" 
			},
			{
				"x": 2.0927717996,
				"y": 1.2677205406,
				"z": -1.5637184176,
				"element": "H" 
			},
			{
				"x": 3.0737106894,
				"y": 0.124067552,
				"z": -0.6154831812,
				"element": "H" 
			},
			{
				"x": 3.0664790807,
				"y": 0.0273293131,
				"z": -2.3839694566,
				"element": "H" 
			},
			{
				"x": 0.9385046833,
				"y": -0.8127514684,
				"z": -3.6013287813,
				"element": "H" 
			},
			{
				"x": -0.0146471795,
				"y": 0.4361054632,
				"z": -2.7698957949,
				"element": "H" 
			},
			{
				"x": -0.4801094481,
				"y": -1.2778927035,
				"z": -2.6483197993,
				"element": "H" 
			},
			{
				"x": -1.9718376095,
				"y": -0.066924639,
				"z": -0.8354524834,
				"element": "H" 
			},
			{
				"x": -3.1912610079,
				"y": 1.9908533252,
				"z": -0.1378143325,
				"element": "H" 
			},
			{
				"x": 0.3453699256,
				"y": 3.3859557891,
				"z": 1.8823811754,
				"element": "H" 
			},
			{
				"x": 1.5524018055,
				"y": 1.3233095217,
				"z": 1.1776984678,
				"element": "H" 
			},
			{
				"x": 0.9765216775,
				"y": -2.3977649893,
				"z": 0.1803537482,
				"element": "H" 
			}
		],
		 "valence_orbital": [ 
			{
				"type": "occ",
				"energy": -0.32412,
				"method": "rhf"
			},
			{
				"type": "occ",
				"energy": -0.30769,
				"method": "rhf"
			},
			{
				"type": "occ",
				"energy": -0.29159,
				"method": "rhf"
			},
			{
				"type": "occ",
				"energy": -0.27689,
				"method": "rhf"
			},
			{
				"type": "occ",
				"energy": -0.27088,
				"method": "rhf"
			},
			{
				"type": "unocc",
				"energy": -0.0633,
				"method": "rhf"
			},
			{
				"type": "unocc",
				"energy": -0.04098,
				"method": "rhf"
			},
			{
				"type": "unocc",
				"energy": 0.00272,
				"method": "rhf"
			},
			{
				"type": "unocc",
				"energy": 0.02766,
				"method": "rhf"
			},
			{
				"type": "unocc",
				"energy": 0.05379,
				"method": "rhf"
			}
		],
		"cosmo_sigma_profile": { 
			"-0.025": 0.0,
			"-0.024": 0.0,
			"-0.023": 0.0,
			"-0.022": 0.0,
			"-0.021": 0.0,
			"-0.02": 0.0,
			"-0.019": 0.0,
			"-0.018": 0.0,
			"-0.017": 0.0,
			"-0.016": 0.0,
			"-0.015": 0.037833125077,
			"-0.014": 0.634865837127,
			"-0.013": 0.088393893154,
			"-0.012": 0.801276335472,
			"-0.011": 0.580399260257,
			"-0.01": 0.763657299239,
			"-0.009": 0.992549135364,
			"-0.008": 5.82707307757,
			"-0.007": 9.69716315161,
			"-0.006": 15.207659441,
			"-0.005": 20.9000000201,
			"-0.004": 19.586770131,
			"-0.003": 18.1526561895,
			"-0.002": 21.3745185402,
			"-0.001": 23.8594452611,
			"0.0": 18.0060067189,
			"0.001": 18.4849239032,
			"0.002": 11.7120282074,
			"0.003": 4.58148106963,
			"0.004": 4.41066532841,
			"0.005": 4.30500716592,
			"0.006": 4.86373559408,
			"0.007": 5.51807730423,
			"0.008": 5.47760886198,
			"0.009": 7.86012613869,
			"0.01": 7.6520803756,
			"0.011": 6.98983132981,
			"0.012": 6.88676507823,
			"0.013": 2.81998517872,
			"0.014": 0.0840587124339,
			"0.015": 0.0,
			"0.016": 0.0,
			"0.017": 0.0,
			"0.018": 0.0,
			"0.019": 0.0,
			"0.02": 0.0,
			"0.021": 0.0,
			"0.022": 0.0,
			"0.023": 0.0,
			"0.024": 0.0,
			"0.025": 0.0
		}
	}
}
