{
	 "smiles": "NC1=CC(Cl)=C(N)C(Cl)=C1", 
	 "Tm": 398.15, 
	 "num_atms": 16, 
	 "gaussian": { 
		 "optdone": 1, 
		 "sigma_profile": "yes", 
		 "theory": "DFT", 
		 "functional": "B3LYP", 
		 "basiset": "6-31G**", 
		 "properties": { 
			 "R2extent": 2152.4547, 
			 "electric_dipole_moment_norm": 1.66149211253, 
			 "electric_quadrupole_moment_norm": 15.6651410859, 
			 "total_energy": -1262.14748884, 
			 "HOMO_LUMO_gap": 0.17505, 
			 "cosmo_polarized_energy": -10.63, 
			 "cosmo_cavitation_energy": 23.21, 
			 "cosmo_dispersion_energy": -17.89, 
			 "cosmo_repulsion_energy": 1.46, 
			 "cosmo_total_nonelectrostatic_energy": 6.78, 
			 "SMD_solvation_energy": 3.24 
		},
		"coords": [
			{
				"x": -3.4057903094,
				"y": -0.1356735595,
				"z": -0.0938148347,
				"element": "N" 
			},
			{
				"x": -2.0105694796,
				"y": -0.0659388235,
				"z": -0.216390747,
				"element": "C" 
			},
			{
				"x": -1.4121447155,
				"y": 0.318764332,
				"z": -1.4239982744,
				"element": "C" 
			},
			{
				"x": -0.030511885,
				"y": 0.4424417426,
				"z": -1.5127254683,
				"element": "C" 
			},
			{
				"x": 0.6670774827,
				"y": 0.9358080488,
				"z": -3.0561757666,
				"element": "Cl" 
			},
			{
				"x": 0.8402799798,
				"y": 0.1977825141,
				"z": -0.4337644162,
				"element": "C" 
			},
			{
				"x": 2.2218649185,
				"y": 0.2576820301,
				"z": -0.5576379401,
				"element": "N" 
			},
			{
				"x": 0.2004129635,
				"y": -0.1784665314,
				"z": 0.7626078732,
				"element": "C" 
			},
			{
				"x": 1.1987919842,
				"y": -0.4937964469,
				"z": 2.1825096111,
				"element": "Cl" 
			},
			{
				"x": -1.1778961653,
				"y": -0.3110806703,
				"z": 0.8840558451,
				"element": "C" 
			},
			{
				"x": -3.8902912147,
				"y": -0.3206078747,
				"z": -0.9622909724,
				"element": "H" 
			},
			{
				"x": -3.7280070734,
				"y": -0.7567236109,
				"z": 0.6367090196,
				"element": "H" 
			},
			{
				"x": -2.0197081007,
				"y": 0.5307894406,
				"z": -2.2973569145,
				"element": "H" 
			},
			{
				"x": 2.5521850621,
				"y": 0.8454775739,
				"z": -1.3103401726,
				"element": "H" 
			},
			{
				"x": 2.7167751933,
				"y": 0.4029844415,
				"z": 0.3113418284,
				"element": "H" 
			},
			{
				"x": -1.5996686406,
				"y": -0.5986426063,
				"z": 1.8412713294,
				"element": "H" 
			}
		],
		 "valence_orbital": [ 
			{
				"type": "occ",
				"energy": -0.31939,
				"method": "rhf"
			},
			{
				"type": "occ",
				"energy": -0.31525,
				"method": "rhf"
			},
			{
				"type": "occ",
				"energy": -0.27182,
				"method": "rhf"
			},
			{
				"type": "occ",
				"energy": -0.24414,
				"method": "rhf"
			},
			{
				"type": "occ",
				"energy": -0.18972,
				"method": "rhf"
			},
			{
				"type": "unocc",
				"energy": -0.01467,
				"method": "rhf"
			},
			{
				"type": "unocc",
				"energy": 0.00931,
				"method": "rhf"
			},
			{
				"type": "unocc",
				"energy": 0.01668,
				"method": "rhf"
			},
			{
				"type": "unocc",
				"energy": 0.05315,
				"method": "rhf"
			},
			{
				"type": "unocc",
				"energy": 0.07583,
				"method": "rhf"
			}
		],
		"cosmo_sigma_profile": { 
			"-0.025": 0.0,
			"-0.024": 0.0,
			"-0.023": 0.0,
			"-0.022": 0.0,
			"-0.021": 0.0,
			"-0.02": 0.0,
			"-0.019": 0.0,
			"-0.018": 0.0,
			"-0.017": 0.0,
			"-0.016": 0.0,
			"-0.015": 0.0,
			"-0.014": 0.0,
			"-0.013": 0.63488319701,
			"-0.012": 3.20294314858,
			"-0.011": 6.17909744232,
			"-0.01": 4.30572625635,
			"-0.009": 5.80376045558,
			"-0.008": 5.45273819748,
			"-0.007": 7.33415588168,
			"-0.006": 4.88560778313,
			"-0.005": 4.96490783372,
			"-0.004": 6.45368850096,
			"-0.003": 5.27630695944,
			"-0.002": 7.85102851921,
			"-0.001": 10.004230274,
			"0.0": 10.2828826256,
			"0.001": 12.9187594366,
			"0.002": 16.4259253618,
			"0.003": 22.8816322009,
			"0.004": 27.3938850169,
			"0.005": 13.9819542891,
			"0.006": 1.4506241294,
			"0.007": 1.46502623037,
			"0.008": 2.02212108947,
			"0.009": 1.47293343656,
			"0.01": 1.67662717666,
			"0.011": 1.26610951841,
			"0.012": 1.11964548947,
			"0.013": 0.99166381301,
			"0.014": 1.1312277521,
			"0.015": 0.386841934092,
			"0.016": 0.0,
			"0.017": 0.0,
			"0.018": 0.0,
			"0.019": 0.0,
			"0.02": 0.0,
			"0.021": 0.0,
			"0.022": 0.0,
			"0.023": 0.0,
			"0.024": 0.0,
			"0.025": 0.0
		}
	}
}
