{
	 "smiles": "CC1=CN(N=C1N)C1=CN=CC=C1", 
	 "Tm": 409.15, 
	 "num_atms": 23, 
	 "gaussian": { 
		 "optdone": 1, 
		 "sigma_profile": "yes", 
		 "theory": "DFT", 
		 "functional": "B3LYP", 
		 "basiset": "6-31G**", 
		 "properties": { 
			 "R2extent": 3363.6513, 
			 "electric_dipole_moment_norm": 4.08858434547, 
			 "electric_quadrupole_moment_norm": 17.8468454865, 
			 "total_energy": -567.968843825, 
			 "HOMO_LUMO_gap": 0.17224, 
			 "cosmo_polarized_energy": -14.14, 
			 "cosmo_cavitation_energy": 27.2, 
			 "cosmo_dispersion_energy": -20.19, 
			 "cosmo_repulsion_energy": 1.59, 
			 "cosmo_total_nonelectrostatic_energy": 8.6, 
			 "SMD_solvation_energy": 2.86 
		},
		"coords": [
			{
				"x": -2.2146011212,
				"y": 1.1526135879,
				"z": 2.1481785897,
				"element": "C" 
			},
			{
				"x": -0.9087358883,
				"y": 0.5605399802,
				"z": 1.717542153,
				"element": "C" 
			},
			{
				"x": -0.1778419795,
				"y": 0.8090482319,
				"z": 0.5788968172,
				"element": "C" 
			},
			{
				"x": 0.9330766885,
				"y": 0.0091428654,
				"z": 0.607415709,
				"element": "N" 
			},
			{
				"x": 0.9633143102,
				"y": -0.7613497488,
				"z": 1.7407068605,
				"element": "N" 
			},
			{
				"x": -0.140818979,
				"y": -0.434941562,
				"z": 2.3992826004,
				"element": "C" 
			},
			{
				"x": -0.494134647,
				"y": -1.0781140682,
				"z": 3.5817408922,
				"element": "N" 
			},
			{
				"x": 1.9594907975,
				"y": -0.103317263,
				"z": -0.3464547299,
				"element": "C" 
			},
			{
				"x": 2.8617751729,
				"y": -1.1805280578,
				"z": -0.2866551204,
				"element": "C" 
			},
			{
				"x": 3.8547811383,
				"y": -1.3510468229,
				"z": -1.1607806506,
				"element": "N" 
			},
			{
				"x": 3.9921605231,
				"y": -0.4529156594,
				"z": -2.1448029822,
				"element": "C" 
			},
			{
				"x": 3.1512048141,
				"y": 0.650633432,
				"z": -2.2869906974,
				"element": "C" 
			},
			{
				"x": 2.120348481,
				"y": 0.8367936432,
				"z": -1.3703642959,
				"element": "C" 
			},
			{
				"x": -2.6231373071,
				"y": 1.8127235742,
				"z": 1.3781188265,
				"element": "H" 
			},
			{
				"x": -2.1155003786,
				"y": 1.7473392467,
				"z": 3.0660251236,
				"element": "H" 
			},
			{
				"x": -2.9577691094,
				"y": 0.3719602651,
				"z": 2.3489288554,
				"element": "H" 
			},
			{
				"x": -0.3867353883,
				"y": 1.4707022442,
				"z": -0.248019696,
				"element": "H" 
			},
			{
				"x": 0.2693906515,
				"y": -1.6235649479,
				"z": 3.9631016535,
				"element": "H" 
			},
			{
				"x": -0.8935347784,
				"y": -0.4646091467,
				"z": 4.2807584121,
				"element": "H" 
			},
			{
				"x": 2.7572925753,
				"y": -1.912790698,
				"z": 0.5069318456,
				"element": "H" 
			},
			{
				"x": 4.8082566731,
				"y": -0.6220375612,
				"z": -2.8442326315,
				"element": "H" 
			},
			{
				"x": 3.3045790182,
				"y": 1.3598816908,
				"z": -3.0943863252,
				"element": "H" 
			},
			{
				"x": 1.4689387333,
				"y": 1.7009367742,
				"z": -1.4462412097,
				"element": "H" 
			}
		],
		 "valence_orbital": [ 
			{
				"type": "occ",
				"energy": -0.28515,
				"method": "rhf"
			},
			{
				"type": "occ",
				"energy": -0.26589,
				"method": "rhf"
			},
			{
				"type": "occ",
				"energy": -0.24829,
				"method": "rhf"
			},
			{
				"type": "occ",
				"energy": -0.23809,
				"method": "rhf"
			},
			{
				"type": "occ",
				"energy": -0.19936,
				"method": "rhf"
			},
			{
				"type": "unocc",
				"energy": -0.02712,
				"method": "rhf"
			},
			{
				"type": "unocc",
				"energy": -0.01531,
				"method": "rhf"
			},
			{
				"type": "unocc",
				"energy": 0.04163,
				"method": "rhf"
			},
			{
				"type": "unocc",
				"energy": 0.06837,
				"method": "rhf"
			},
			{
				"type": "unocc",
				"energy": 0.0834,
				"method": "rhf"
			}
		],
		"cosmo_sigma_profile": { 
			"-0.025": 0.0,
			"-0.024": 0.0,
			"-0.023": 0.0,
			"-0.022": 0.0,
			"-0.021": 0.0,
			"-0.02": 0.0,
			"-0.019": 0.0,
			"-0.018": 0.0,
			"-0.017": 0.0,
			"-0.016": 0.0,
			"-0.015": 0.0,
			"-0.014": 0.0,
			"-0.013": 0.275224462523,
			"-0.012": 2.19410272523,
			"-0.011": 2.43553221199,
			"-0.01": 3.70100035543,
			"-0.009": 5.17248021309,
			"-0.008": 5.67587041006,
			"-0.007": 7.01425143998,
			"-0.006": 9.2803244707,
			"-0.005": 11.4770899029,
			"-0.004": 14.5676850786,
			"-0.003": 11.1026870885,
			"-0.002": 14.8265894263,
			"-0.001": 13.2518650936,
			"0.0": 16.0268128911,
			"0.001": 17.5123386584,
			"0.002": 19.3963586229,
			"0.003": 14.8482823204,
			"0.004": 10.4772890283,
			"0.005": 6.71080561636,
			"0.006": 4.48312122186,
			"0.007": 4.30848779956,
			"0.008": 4.11492904193,
			"0.009": 4.10979677471,
			"0.01": 2.93912373352,
			"0.011": 2.58003258317,
			"0.012": 2.09358284364,
			"0.013": 2.81086335257,
			"0.014": 1.39499089338,
			"0.015": 1.02270232496,
			"0.016": 1.01358751001,
			"0.017": 0.349621283379,
			"0.018": 0.0,
			"0.019": 0.0,
			"0.02": 0.0,
			"0.021": 0.0,
			"0.022": 0.0,
			"0.023": 0.0,
			"0.024": 0.0,
			"0.025": 0.0
		}
	}
}
