{
	 "smiles": "OC1=CC2=C(C=C1)C=CC(=N2)C(F)(F)F", 
	 "Tm": 529.15, 
	 "num_atms": 21, 
	 "gaussian": { 
		 "optdone": 1, 
		 "sigma_profile": "yes", 
		 "theory": "DFT", 
		 "functional": "B3LYP", 
		 "basiset": "6-31G**", 
		 "properties": { 
			 "R2extent": 3863.0453, 
			 "electric_dipole_moment_norm": 3.28222994167, 
			 "electric_quadrupole_moment_norm": 14.3520488287, 
			 "total_energy": -814.185267463, 
			 "HOMO_LUMO_gap": 0.16626, 
			 "cosmo_polarized_energy": -11.16, 
			 "cosmo_cavitation_energy": 27.27, 
			 "cosmo_dispersion_energy": -19.83, 
			 "cosmo_repulsion_energy": 1.47, 
			 "cosmo_total_nonelectrostatic_energy": 8.91, 
			 "SMD_solvation_energy": 4.71 
		},
		"coords": [
			{
				"x": 2.1894499693,
				"y": -2.1964536662,
				"z": 2.0596208226,
				"element": "O" 
			},
			{
				"x": 1.2664985759,
				"y": -1.7717169951,
				"z": 1.1542728838,
				"element": "C" 
			},
			{
				"x": 1.0792535557,
				"y": -0.446275521,
				"z": 0.8213894104,
				"element": "C" 
			},
			{
				"x": 0.0947618447,
				"y": -0.086015409,
				"z": -0.1332242656,
				"element": "C" 
			},
			{
				"x": -0.7017212768,
				"y": -1.108110807,
				"z": -0.747357528,
				"element": "C" 
			},
			{
				"x": -0.4783356982,
				"y": -2.4631215311,
				"z": -0.3774054068,
				"element": "C" 
			},
			{
				"x": 0.4791488087,
				"y": -2.7907882799,
				"z": 0.5482741384,
				"element": "C" 
			},
			{
				"x": -1.6704271453,
				"y": -0.7041013715,
				"z": -1.6927826694,
				"element": "C" 
			},
			{
				"x": -1.8189166226,
				"y": 0.6331097126,
				"z": -1.9914116781,
				"element": "C" 
			},
			{
				"x": -0.9794957827,
				"y": 1.5547019885,
				"z": -1.3253830072,
				"element": "C" 
			},
			{
				"x": -0.0617886353,
				"y": 1.2311828779,
				"z": -0.4368049843,
				"element": "N" 
			},
			{
				"x": -1.0917204196,
				"y": 3.0429781051,
				"z": -1.6073087837,
				"element": "C" 
			},
			{
				"x": 0.0668201476,
				"y": 3.5437090478,
				"z": -2.0760298497,
				"element": "F" 
			},
			{
				"x": -2.0478016855,
				"y": 3.3002174759,
				"z": -2.5308725422,
				"element": "F" 
			},
			{
				"x": -1.410376386,
				"y": 3.7315019451,
				"z": -0.4948308004,
				"element": "F" 
			},
			{
				"x": 2.6677369598,
				"y": -1.4331638845,
				"z": 2.4104995451,
				"element": "H" 
			},
			{
				"x": 1.6677431744,
				"y": 0.3488371232,
				"z": 1.2703522407,
				"element": "H" 
			},
			{
				"x": -1.0791080799,
				"y": -3.2416652666,
				"z": -0.8397208122,
				"element": "H" 
			},
			{
				"x": 0.660618962,
				"y": -3.8197495325,
				"z": 0.840170638,
				"element": "H" 
			},
			{
				"x": -2.2911124552,
				"y": -1.4535785916,
				"z": -2.1771174675,
				"element": "H" 
			},
			{
				"x": -2.5499278108,
				"y": 0.9805025802,
				"z": -2.710229884,
				"element": "H" 
			}
		],
		 "valence_orbital": [ 
			{
				"type": "occ",
				"energy": -0.3351,
				"method": "rhf"
			},
			{
				"type": "occ",
				"energy": -0.31103,
				"method": "rhf"
			},
			{
				"type": "occ",
				"energy": -0.27027,
				"method": "rhf"
			},
			{
				"type": "occ",
				"energy": -0.25594,
				"method": "rhf"
			},
			{
				"type": "occ",
				"energy": -0.23253,
				"method": "rhf"
			},
			{
				"type": "unocc",
				"energy": -0.06627,
				"method": "rhf"
			},
			{
				"type": "unocc",
				"energy": -0.02489,
				"method": "rhf"
			},
			{
				"type": "unocc",
				"energy": 0.0082,
				"method": "rhf"
			},
			{
				"type": "unocc",
				"energy": 0.0609,
				"method": "rhf"
			},
			{
				"type": "unocc",
				"energy": 0.07678,
				"method": "rhf"
			}
		],
		"cosmo_sigma_profile": { 
			"-0.025": 0.0,
			"-0.024": 0.0,
			"-0.023": 0.0,
			"-0.022": 0.0,
			"-0.021": 0.0,
			"-0.02": 0.0,
			"-0.019": 0.0346968946305,
			"-0.018": 0.979790331773,
			"-0.017": 1.16800268824,
			"-0.016": 1.20586688024,
			"-0.015": 1.15203122617,
			"-0.014": 0.834547973349,
			"-0.013": 0.880451631708,
			"-0.012": 0.803270498093,
			"-0.011": 0.950911237459,
			"-0.01": 1.41853756943,
			"-0.009": 0.640634336429,
			"-0.008": 3.70658767255,
			"-0.007": 9.90752460609,
			"-0.006": 8.96287044547,
			"-0.005": 7.89390525499,
			"-0.004": 8.05244130309,
			"-0.003": 9.1629164152,
			"-0.002": 9.54549943018,
			"-0.001": 10.5440038429,
			"0.0": 15.9500271038,
			"0.001": 21.9813806711,
			"0.002": 36.8054452637,
			"0.003": 35.8502255568,
			"0.004": 7.8123984557,
			"0.005": 4.38340155956,
			"0.006": 3.60436825697,
			"0.007": 3.98570835675,
			"0.008": 2.64705491601,
			"0.009": 2.53716939655,
			"0.01": 2.74319459069,
			"0.011": 1.65319949427,
			"0.012": 1.10691057408,
			"0.013": 0.583094523753,
			"0.014": 0.041628869334,
			"0.015": 0.0,
			"0.016": 0.0,
			"0.017": 0.0,
			"0.018": 0.0,
			"0.019": 0.0,
			"0.02": 0.0,
			"0.021": 0.0,
			"0.022": 0.0,
			"0.023": 0.0,
			"0.024": 0.0,
			"0.025": 0.0
		}
	}
}
