{
	 "smiles": "CCCCCCCCCCCCCCC#CCC", 
	 "Tm": 275.15, 
	 "num_atms": 52, 
	 "gaussian": { 
		 "optdone": 1, 
		 "sigma_profile": "yes", 
		 "theory": "DFT", 
		 "functional": "B3LYP", 
		 "basiset": "6-31G**", 
		 "properties": { 
			 "R2extent": 10630.2862, 
			 "electric_dipole_moment_norm": 0.291790918296, 
			 "electric_quadrupole_moment_norm": 3.99994752341, 
			 "total_energy": -706.392129686, 
			 "HOMO_LUMO_gap": 0.29271, 
			 "cosmo_polarized_energy": -3.42, 
			 "cosmo_cavitation_energy": 51.7, 
			 "cosmo_dispersion_energy": -33.61, 
			 "cosmo_repulsion_energy": 2.76, 
			 "cosmo_total_nonelectrostatic_energy": 20.85, 
			 "SMD_solvation_energy": 7.22 
		},
		"coords": [
			{
				"x": 1.3415816261,
				"y": -3.7813710759,
				"z": -5.6302640723,
				"element": "C" 
			},
			{
				"x": 1.2054255232,
				"y": -2.3107157893,
				"z": -6.0430271574,
				"element": "C" 
			},
			{
				"x": 1.9740540492,
				"y": -1.3233438261,
				"z": -5.1490992619,
				"element": "C" 
			},
			{
				"x": 1.4586002548,
				"y": -1.2259920426,
				"z": -3.7061239584,
				"element": "C" 
			},
			{
				"x": 2.2136186565,
				"y": -0.1816997895,
				"z": -2.8707794158,
				"element": "C" 
			},
			{
				"x": 1.6833769127,
				"y": 0.0068777004,
				"z": -1.4394860487,
				"element": "C" 
			},
			{
				"x": 1.8710777188,
				"y": -1.2132720919,
				"z": -0.5242332815,
				"element": "C" 
			},
			{
				"x": 1.485110402,
				"y": -0.9715523501,
				"z": 0.945121749,
				"element": "C" 
			},
			{
				"x": -0.0131821015,
				"y": -0.7180227009,
				"z": 1.1754067818,
				"element": "C" 
			},
			{
				"x": -0.4329803791,
				"y": -0.6389505946,
				"z": 2.6527094145,
				"element": "C" 
			},
			{
				"x": 0.1599808165,
				"y": 0.5543484971,
				"z": 3.4193683633,
				"element": "C" 
			},
			{
				"x": -0.3104474176,
				"y": 0.669674834,
				"z": 4.8873982163,
				"element": "C" 
			},
			{
				"x": -1.5194909968,
				"y": 1.5785134794,
				"z": 5.1739396185,
				"element": "C" 
			},
			{
				"x": -2.8827081349,
				"y": 1.1562255794,
				"z": 4.5707292991,
				"element": "C" 
			},
			{
				"x": -3.0813564453,
				"y": 1.5118029697,
				"z": 3.1626605099,
				"element": "C" 
			},
			{
				"x": -3.2753559668,
				"y": 1.8338511231,
				"z": 2.0113836494,
				"element": "C" 
			},
			{
				"x": -3.4969412407,
				"y": 2.2347344742,
				"z": 0.6195947803,
				"element": "C" 
			},
			{
				"x": -2.5604959784,
				"y": 3.3663985611,
				"z": 0.1562260093,
				"element": "C" 
			},
			{
				"x": 0.8175001863,
				"y": -4.438093634,
				"z": -6.3326261699,
				"element": "H" 
			},
			{
				"x": 0.9245640175,
				"y": -3.9676681617,
				"z": -4.6352988415,
				"element": "H" 
			},
			{
				"x": 2.3937866542,
				"y": -4.0890835117,
				"z": -5.6106215913,
				"element": "H" 
			},
			{
				"x": 1.5604028231,
				"y": -2.1978996732,
				"z": -7.0755482557,
				"element": "H" 
			},
			{
				"x": 0.1425498186,
				"y": -2.0321453933,
				"z": -6.0569332207,
				"element": "H" 
			},
			{
				"x": 1.9299823666,
				"y": -0.3252902737,
				"z": -5.6065072527,
				"element": "H" 
			},
			{
				"x": 3.037838058,
				"y": -1.6022892688,
				"z": -5.1356123143,
				"element": "H" 
			},
			{
				"x": 1.5299401879,
				"y": -2.2070464212,
				"z": -3.2215986279,
				"element": "H" 
			},
			{
				"x": 0.3886407711,
				"y": -0.9701570918,
				"z": -3.7218655627,
				"element": "H" 
			},
			{
				"x": 2.1695526932,
				"y": 0.7839946894,
				"z": -3.3930561372,
				"element": "H" 
			},
			{
				"x": 3.2785029502,
				"y": -0.4532822081,
				"z": -2.8289222267,
				"element": "H" 
			},
			{
				"x": 2.196772646,
				"y": 0.8658331974,
				"z": -0.9850114463,
				"element": "H" 
			},
			{
				"x": 0.6206375111,
				"y": 0.2797092239,
				"z": -1.486146926,
				"element": "H" 
			},
			{
				"x": 2.9252318728,
				"y": -1.5215994025,
				"z": -0.5660269119,
				"element": "H" 
			},
			{
				"x": 1.2910798501,
				"y": -2.0628350745,
				"z": -0.9090480493,
				"element": "H" 
			},
			{
				"x": 1.7858890821,
				"y": -1.847920462,
				"z": 1.5363363403,
				"element": "H" 
			},
			{
				"x": 2.0729194898,
				"y": -0.1285444462,
				"z": 1.3323008686,
				"element": "H" 
			},
			{
				"x": -0.5812040677,
				"y": -1.5256822918,
				"z": 0.692434309,
				"element": "H" 
			},
			{
				"x": -0.3189933585,
				"y": 0.2091526053,
				"z": 0.6724920101,
				"element": "H" 
			},
			{
				"x": -1.5261615342,
				"y": -0.5896615353,
				"z": 2.6956873721,
				"element": "H" 
			},
			{
				"x": -0.1407946687,
				"y": -1.5692588041,
				"z": 3.1620336917,
				"element": "H" 
			},
			{
				"x": -0.075240648,
				"y": 1.4833578095,
				"z": 2.8836202795,
				"element": "H" 
			},
			{
				"x": 1.253161772,
				"y": 0.4677368788,
				"z": 3.412965844,
				"element": "H" 
			},
			{
				"x": -0.5166291668,
				"y": -0.3359743335,
				"z": 5.2815136042,
				"element": "H" 
			},
			{
				"x": 0.5184929376,
				"y": 1.0567546995,
				"z": 5.4935008715,
				"element": "H" 
			},
			{
				"x": -1.6482025155,
				"y": 1.6214140955,
				"z": 6.2629399074,
				"element": "H" 
			},
			{
				"x": -1.2960000847,
				"y": 2.6024936699,
				"z": 4.85036415,
				"element": "H" 
			},
			{
				"x": -3.6808977146,
				"y": 1.6319951853,
				"z": 5.1565203643,
				"element": "H" 
			},
			{
				"x": -3.0203839036,
				"y": 0.0742216765,
				"z": 4.7047835196,
				"element": "H" 
			},
			{
				"x": -3.3683885515,
				"y": 1.3632414502,
				"z": -0.0360414631,
				"element": "H" 
			},
			{
				"x": -4.5409800383,
				"y": 2.552444712,
				"z": 0.4954955668,
				"element": "H" 
			},
			{
				"x": -2.6937965685,
				"y": 4.259396658,
				"z": 0.7735540662,
				"element": "H" 
			},
			{
				"x": -2.7681592255,
				"y": 3.6332034643,
				"z": -0.8848970156,
				"element": "H" 
			},
			{
				"x": -1.5129809409,
				"y": 3.0599750146,
				"z": 0.2298940521,
				"element": "H" 
			}
		],
		 "valence_orbital": [ 
			{
				"type": "occ",
				"energy": -0.2997,
				"method": "rhf"
			},
			{
				"type": "occ",
				"energy": -0.29569,
				"method": "rhf"
			},
			{
				"type": "occ",
				"energy": -0.29243,
				"method": "rhf"
			},
			{
				"type": "occ",
				"energy": -0.24076,
				"method": "rhf"
			},
			{
				"type": "occ",
				"energy": -0.2383,
				"method": "rhf"
			},
			{
				"type": "unocc",
				"energy": 0.05441,
				"method": "rhf"
			},
			{
				"type": "unocc",
				"energy": 0.06468,
				"method": "rhf"
			},
			{
				"type": "unocc",
				"energy": 0.08123,
				"method": "rhf"
			},
			{
				"type": "unocc",
				"energy": 0.09128,
				"method": "rhf"
			},
			{
				"type": "unocc",
				"energy": 0.10206,
				"method": "rhf"
			}
		],
		"cosmo_sigma_profile": { 
			"-0.025": 0.0,
			"-0.024": 0.0,
			"-0.023": 0.0,
			"-0.022": 0.0,
			"-0.021": 0.0,
			"-0.02": 0.0,
			"-0.019": 0.0,
			"-0.018": 0.0,
			"-0.017": 0.0,
			"-0.016": 0.0,
			"-0.015": 0.0,
			"-0.014": 0.0,
			"-0.013": 0.0,
			"-0.012": 0.0,
			"-0.011": 0.0,
			"-0.01": 0.0,
			"-0.009": 0.0,
			"-0.008": 0.0,
			"-0.007": 0.0,
			"-0.006": 0.0,
			"-0.005": 2.24096540395,
			"-0.004": 8.97392856346,
			"-0.003": 18.2310023346,
			"-0.002": 49.530807853,
			"-0.001": 90.1834857597,
			"0.0": 86.3891348981,
			"0.001": 80.2441422791,
			"0.002": 33.4189250769,
			"0.003": 6.44425732231,
			"0.004": 4.54138271565,
			"0.005": 5.6333917679,
			"0.006": 3.68477115927,
			"0.007": 4.63026996203,
			"0.008": 2.94349741898,
			"0.009": 0.0,
			"0.01": 0.0,
			"0.011": 0.0,
			"0.012": 0.0,
			"0.013": 0.0,
			"0.014": 0.0,
			"0.015": 0.0,
			"0.016": 0.0,
			"0.017": 0.0,
			"0.018": 0.0,
			"0.019": 0.0,
			"0.02": 0.0,
			"0.021": 0.0,
			"0.022": 0.0,
			"0.023": 0.0,
			"0.024": 0.0,
			"0.025": 0.0
		}
	}
}
