{
	 "smiles": "NC(=O)CCOC1=CC=C(N)C=C1", 
	 "Tm": 384.15, 
	 "num_atms": 25, 
	 "gaussian": { 
		 "optdone": 1, 
		 "sigma_profile": "yes", 
		 "theory": "DFT", 
		 "functional": "B3LYP", 
		 "basiset": "6-31G**", 
		 "properties": { 
			 "R2extent": 3799.3927, 
			 "electric_dipole_moment_norm": 5.01899366606, 
			 "electric_quadrupole_moment_norm": 20.7231287481, 
			 "total_energy": -610.152791084, 
			 "HOMO_LUMO_gap": 0.18829, 
			 "cosmo_polarized_energy": -17.59, 
			 "cosmo_cavitation_energy": 28.9, 
			 "cosmo_dispersion_energy": -21.16, 
			 "cosmo_repulsion_energy": 1.71, 
			 "cosmo_total_nonelectrostatic_energy": 9.44, 
			 "SMD_solvation_energy": 5.7 
		},
		"coords": [
			{
				"x": 1.9973372245,
				"y": -2.1457530877,
				"z": 1.9253177815,
				"element": "N" 
			},
			{
				"x": 2.5758072995,
				"y": -2.6479583915,
				"z": 0.797862509,
				"element": "C" 
			},
			{
				"x": 3.1100355119,
				"y": -3.7475941778,
				"z": 0.7535005332,
				"element": "O" 
			},
			{
				"x": 2.53801532,
				"y": -1.7238640065,
				"z": -0.4249465543,
				"element": "C" 
			},
			{
				"x": 1.2492243145,
				"y": -0.9381401779,
				"z": -0.6503953132,
				"element": "C" 
			},
			{
				"x": 1.1503627583,
				"y": 0.076244531,
				"z": 0.3508416465,
				"element": "O" 
			},
			{
				"x": 0.0745021717,
				"y": 0.9391347666,
				"z": 0.3048041583,
				"element": "C" 
			},
			{
				"x": -0.9676264138,
				"y": 0.8641717114,
				"z": -0.6217914147,
				"element": "C" 
			},
			{
				"x": -2.0123855127,
				"y": 1.7910676997,
				"z": -0.5733066761,
				"element": "C" 
			},
			{
				"x": -2.0422636067,
				"y": 2.8061380579,
				"z": 0.3913473645,
				"element": "C" 
			},
			{
				"x": -3.0588548237,
				"y": 3.7720577672,
				"z": 0.3984145423,
				"element": "N" 
			},
			{
				"x": -0.9841035642,
				"y": 2.8681493626,
				"z": 1.316409373,
				"element": "C" 
			},
			{
				"x": 0.0568574,
				"y": 1.9497438895,
				"z": 1.2733171567,
				"element": "C" 
			},
			{
				"x": 1.5997136469,
				"y": -1.2176462529,
				"z": 1.9362208151,
				"element": "H" 
			},
			{
				"x": 2.0313771726,
				"y": -2.7044242546,
				"z": 2.7640865345,
				"element": "H" 
			},
			{
				"x": 3.3730558512,
				"y": -1.0159202761,
				"z": -0.3520068826,
				"element": "H" 
			},
			{
				"x": 2.7280070614,
				"y": -2.3609676921,
				"z": -1.2919771116,
				"element": "H" 
			},
			{
				"x": 0.3742356822,
				"y": -1.6017248195,
				"z": -0.6038767427,
				"element": "H" 
			},
			{
				"x": 1.2680071839,
				"y": -0.4709556556,
				"z": -1.6441896547,
				"element": "H" 
			},
			{
				"x": -0.9872190024,
				"y": 0.0932563922,
				"z": -1.3829503977,
				"element": "H" 
			},
			{
				"x": -2.8145682186,
				"y": 1.7219349335,
				"z": -1.3039341699,
				"element": "H" 
			},
			{
				"x": -3.2243174778,
				"y": 4.1980465499,
				"z": 1.3006807219,
				"element": "H" 
			},
			{
				"x": -3.9267918127,
				"y": 3.468371817,
				"z": -0.0227489963,
				"element": "H" 
			},
			{
				"x": -0.9768477842,
				"y": 3.6502542806,
				"z": 2.0716024317,
				"element": "H" 
			},
			{
				"x": 0.8733396184,
				"y": 2.0052770331,
				"z": 1.9867183458,
				"element": "H" 
			}
		],
		 "valence_orbital": [ 
			{
				"type": "occ",
				"energy": -0.28386,
				"method": "rhf"
			},
			{
				"type": "occ",
				"energy": -0.25551,
				"method": "rhf"
			},
			{
				"type": "occ",
				"energy": -0.25368,
				"method": "rhf"
			},
			{
				"type": "occ",
				"energy": -0.23673,
				"method": "rhf"
			},
			{
				"type": "occ",
				"energy": -0.19389,
				"method": "rhf"
			},
			{
				"type": "unocc",
				"energy": -0.0056,
				"method": "rhf"
			},
			{
				"type": "unocc",
				"energy": 0.02255,
				"method": "rhf"
			},
			{
				"type": "unocc",
				"energy": 0.03805,
				"method": "rhf"
			},
			{
				"type": "unocc",
				"energy": 0.07616,
				"method": "rhf"
			},
			{
				"type": "unocc",
				"energy": 0.09402,
				"method": "rhf"
			}
		],
		"cosmo_sigma_profile": { 
			"-0.025": 0.0,
			"-0.024": 0.0,
			"-0.023": 0.0,
			"-0.022": 0.0,
			"-0.021": 0.0,
			"-0.02": 0.0,
			"-0.019": 0.0,
			"-0.018": 0.0,
			"-0.017": 0.0,
			"-0.016": 0.0,
			"-0.015": 0.0,
			"-0.014": 0.28912910922,
			"-0.013": 0.959455764293,
			"-0.012": 2.63166261006,
			"-0.011": 4.0115395197,
			"-0.01": 4.15642588985,
			"-0.009": 5.2853871814,
			"-0.008": 4.55540456412,
			"-0.007": 4.11975904821,
			"-0.006": 14.4915742851,
			"-0.005": 22.6039470133,
			"-0.004": 19.0133517288,
			"-0.003": 15.6464954423,
			"-0.002": 12.2835535072,
			"-0.001": 11.8758339157,
			"0.0": 8.92825069523,
			"0.001": 8.57639995901,
			"0.002": 9.98253608417,
			"0.003": 9.35258007382,
			"0.004": 12.1491985122,
			"0.005": 11.1100827644,
			"0.006": 13.3030717842,
			"0.007": 6.85747911327,
			"0.008": 2.28169730327,
			"0.009": 2.45696549715,
			"0.01": 2.09170865012,
			"0.011": 2.37842040314,
			"0.012": 2.22341647725,
			"0.013": 3.13280298727,
			"0.014": 7.06060379751,
			"0.015": 3.57724800602,
			"0.016": 0.38847963879,
			"0.017": 0.0,
			"0.018": 0.0,
			"0.019": 0.0,
			"0.02": 0.0,
			"0.021": 0.0,
			"0.022": 0.0,
			"0.023": 0.0,
			"0.024": 0.0,
			"0.025": 0.0
		}
	}
}
