{
	 "smiles": "CC(C)(C)S(=O)(=O)C1=CN=C(N=C1N)C1=CC=CC=N1", 
	 "Tm": 540.15, 
	 "num_atms": 36, 
	 "gaussian": { 
		 "optdone": 1, 
		 "sigma_profile": "yes", 
		 "theory": "DFT", 
		 "functional": "B3LYP", 
		 "basiset": "6-31G**", 
		 "properties": { 
			 "R2extent": 7622.6594, 
			 "electric_dipole_moment_norm": 5.09844737249, 
			 "electric_quadrupole_moment_norm": 17.835165369, 
			 "total_energy": -1272.63057832, 
			 "HOMO_LUMO_gap": 0.17368, 
			 "cosmo_polarized_energy": -21.07, 
			 "cosmo_cavitation_energy": 39.66, 
			 "cosmo_dispersion_energy": -28.66, 
			 "cosmo_repulsion_energy": 2.12, 
			 "cosmo_total_nonelectrostatic_energy": 13.12, 
			 "SMD_solvation_energy": 2.5 
		},
		"coords": [
			{
				"x": 1.3440294958,
				"y": 3.1059423516,
				"z": 0.9733502417,
				"element": "C" 
			},
			{
				"x": 1.8139043278,
				"y": 2.105960918,
				"z": 2.035402614,
				"element": "C" 
			},
			{
				"x": 3.1590626794,
				"y": 2.5320647588,
				"z": 2.6471295894,
				"element": "C" 
			},
			{
				"x": 0.7556567931,
				"y": 1.8882004119,
				"z": 3.1227837903,
				"element": "C" 
			},
			{
				"x": 2.1697225649,
				"y": 0.4653724095,
				"z": 1.2118737328,
				"element": "S" 
			},
			{
				"x": 2.4933186656,
				"y": -0.4991639188,
				"z": 2.2776405554,
				"element": "O" 
			},
			{
				"x": 3.1508674344,
				"y": 0.7247030799,
				"z": 0.1273518575,
				"element": "O" 
			},
			{
				"x": 0.6549432424,
				"y": -0.084830486,
				"z": 0.4304807244,
				"element": "C" 
			},
			{
				"x": -0.2283785255,
				"y": -0.8850090484,
				"z": 1.1533519103,
				"element": "C" 
			},
			{
				"x": -1.3804510797,
				"y": -1.3434511017,
				"z": 0.6639318463,
				"element": "N" 
			},
			{
				"x": -1.6454886131,
				"y": -0.999576069,
				"z": -0.6088035453,
				"element": "C" 
			},
			{
				"x": -0.8473237678,
				"y": -0.2940857635,
				"z": -1.4176220401,
				"element": "N" 
			},
			{
				"x": 0.3187753169,
				"y": 0.1670831403,
				"z": -0.9297821159,
				"element": "C" 
			},
			{
				"x": 1.1051074365,
				"y": 0.8680155159,
				"z": -1.7786048167,
				"element": "N" 
			},
			{
				"x": -2.9445368545,
				"y": -1.4548652364,
				"z": -1.1960992187,
				"element": "C" 
			},
			{
				"x": -3.2425309753,
				"y": -1.1848798053,
				"z": -2.5402497542,
				"element": "C" 
			},
			{
				"x": -4.45925612,
				"y": -1.621872907,
				"z": -3.0570420973,
				"element": "C" 
			},
			{
				"x": -5.3363268905,
				"y": -2.3092263022,
				"z": -2.2199868502,
				"element": "C" 
			},
			{
				"x": -4.9482306204,
				"y": -2.5262277345,
				"z": -0.8946727629,
				"element": "C" 
			},
			{
				"x": -3.7862492984,
				"y": -2.1155931936,
				"z": -0.3850104058,
				"element": "N" 
			},
			{
				"x": 1.179970994,
				"y": 4.0764210029,
				"z": 1.4536564479,
				"element": "H" 
			},
			{
				"x": 0.4007761826,
				"y": 2.8008732335,
				"z": 0.5114557009,
				"element": "H" 
			},
			{
				"x": 2.0925052392,
				"y": 3.2361898886,
				"z": 0.1885861998,
				"element": "H" 
			},
			{
				"x": 3.9259077252,
				"y": 2.6461968585,
				"z": 1.8772014947,
				"element": "H" 
			},
			{
				"x": 3.5068438926,
				"y": 1.8028577744,
				"z": 3.3828185997,
				"element": "H" 
			},
			{
				"x": 3.025064739,
				"y": 3.4955588989,
				"z": 3.149823742,
				"element": "H" 
			},
			{
				"x": -0.2059562121,
				"y": 1.5803785901,
				"z": 2.7021355031,
				"element": "H" 
			},
			{
				"x": 1.0808932954,
				"y": 1.1378508964,
				"z": 3.8470444636,
				"element": "H" 
			},
			{
				"x": 0.5975010526,
				"y": 2.8329534951,
				"z": 3.6536047218,
				"element": "H" 
			},
			{
				"x": 0.0245370065,
				"y": -1.1711032942,
				"z": 2.1718917087,
				"element": "H" 
			},
			{
				"x": 2.0785973023,
				"y": 0.997182917,
				"z": -1.5272834124,
				"element": "H" 
			},
			{
				"x": 0.8293922735,
				"y": 0.8549450254,
				"z": -2.7488116486,
				"element": "H" 
			},
			{
				"x": -2.5246370137,
				"y": -0.6460766453,
				"z": -3.1457422447,
				"element": "H" 
			},
			{
				"x": -4.7166857969,
				"y": -1.4292902138,
				"z": -4.0946139998,
				"element": "H" 
			},
			{
				"x": -6.2957734578,
				"y": -2.6696209495,
				"z": -2.5778253229,
				"element": "H" 
			},
			{
				"x": -5.6077524339,
				"y": -3.0578784974,
				"z": -0.2103652089,
				"element": "H" 
			}
		],
		 "valence_orbital": [ 
			{
				"type": "occ",
				"energy": -0.27821,
				"method": "rhf"
			},
			{
				"type": "occ",
				"energy": -0.26428,
				"method": "rhf"
			},
			{
				"type": "occ",
				"energy": -0.26041,
				"method": "rhf"
			},
			{
				"type": "occ",
				"energy": -0.24708,
				"method": "rhf"
			},
			{
				"type": "occ",
				"energy": -0.24411,
				"method": "rhf"
			},
			{
				"type": "unocc",
				"energy": -0.07043,
				"method": "rhf"
			},
			{
				"type": "unocc",
				"energy": -0.03146,
				"method": "rhf"
			},
			{
				"type": "unocc",
				"energy": -0.01549,
				"method": "rhf"
			},
			{
				"type": "unocc",
				"energy": 0.00754,
				"method": "rhf"
			},
			{
				"type": "unocc",
				"energy": 0.05446,
				"method": "rhf"
			}
		],
		"cosmo_sigma_profile": { 
			"-0.025": 0.0,
			"-0.024": 0.0,
			"-0.023": 0.0,
			"-0.022": 0.0,
			"-0.021": 0.0,
			"-0.02": 0.0,
			"-0.019": 0.0,
			"-0.018": 0.0,
			"-0.017": 0.0,
			"-0.016": 0.0,
			"-0.015": 0.162788253324,
			"-0.014": 1.1138383101,
			"-0.013": 0.847720417243,
			"-0.012": 0.994837713139,
			"-0.011": 1.7707894051,
			"-0.01": 1.36041800064,
			"-0.009": 1.89082722548,
			"-0.008": 2.82990672757,
			"-0.007": 7.60799057085,
			"-0.006": 14.1730092646,
			"-0.005": 23.5248843557,
			"-0.004": 25.0535086397,
			"-0.003": 27.7940360106,
			"-0.002": 30.9445680968,
			"-0.001": 34.7794231421,
			"0.0": 23.3516240479,
			"0.001": 22.2747101128,
			"0.002": 21.4842297179,
			"0.003": 10.2985074296,
			"0.004": 7.55108519624,
			"0.005": 7.29683728524,
			"0.006": 5.67140438147,
			"0.007": 6.05091662089,
			"0.008": 4.67868144806,
			"0.009": 4.68130904791,
			"0.01": 5.97285954679,
			"0.011": 7.27648365826,
			"0.012": 4.80251693583,
			"0.013": 1.42302870426,
			"0.014": 1.28381700596,
			"0.015": 0.973700015384,
			"0.016": 1.28436506139,
			"0.017": 0.611379913658,
			"0.018": 0.760783023462,
			"0.019": 1.37873522976,
			"0.02": 0.49722863116,
			"0.021": 0.394040210239,
			"0.022": 0.020548201874,
			"0.023": 0.0,
			"0.024": 0.0,
			"0.025": 0.0
		}
	}
}
