{
	 "smiles": "COC1=CC=C(CC2NCC(O)C2OC(C)=O)C=C1", 
	 "Tm": 414.15, 
	 "num_atms": 38, 
	 "gaussian": { 
		 "optdone": 1, 
		 "sigma_profile": "yes", 
		 "theory": "DFT", 
		 "functional": "B3LYP", 
		 "basiset": "6-31G**", 
		 "properties": { 
			 "R2extent": 6001.3233, 
			 "electric_dipole_moment_norm": 2.91119178001, 
			 "electric_quadrupole_moment_norm": 9.52038648953, 
			 "total_energy": -900.570659392, 
			 "HOMO_LUMO_gap": 0.2121, 
			 "cosmo_polarized_energy": -16.64, 
			 "cosmo_cavitation_energy": 39.94, 
			 "cosmo_dispersion_energy": -27.15, 
			 "cosmo_repulsion_energy": 2.13, 
			 "cosmo_total_nonelectrostatic_energy": 14.92, 
			 "SMD_solvation_energy": 7.13 
		},
		"coords": [
			{
				"x": 0.2033638186,
				"y": -5.5179611323,
				"z": 0.7818192945,
				"element": "C" 
			},
			{
				"x": -0.358318767,
				"y": -4.433454672,
				"z": 1.5002297685,
				"element": "O" 
			},
			{
				"x": 0.2350839472,
				"y": -3.2064301484,
				"z": 1.3830969038,
				"element": "C" 
			},
			{
				"x": 1.3566217238,
				"y": -2.9340218798,
				"z": 0.5916979219,
				"element": "C" 
			},
			{
				"x": 1.879487299,
				"y": -1.6379602246,
				"z": 0.5550576657,
				"element": "C" 
			},
			{
				"x": 1.3078776155,
				"y": -0.5900295518,
				"z": 1.2866830244,
				"element": "C" 
			},
			{
				"x": 1.8958946073,
				"y": 0.8047752797,
				"z": 1.2405960918,
				"element": "C" 
			},
			{
				"x": 1.5892227942,
				"y": 1.6570991184,
				"z": -0.0205451857,
				"element": "C" 
			},
			{
				"x": 1.9777300918,
				"y": 0.9533182238,
				"z": -1.2636807328,
				"element": "N" 
			},
			{
				"x": 0.8037131605,
				"y": 0.7571983003,
				"z": -2.1312491481,
				"element": "C" 
			},
			{
				"x": -0.4110130108,
				"y": 0.9396242749,
				"z": -1.2026503181,
				"element": "C" 
			},
			{
				"x": -1.5758569186,
				"y": 1.4030579875,
				"z": -1.8670359721,
				"element": "O" 
			},
			{
				"x": 0.1017944143,
				"y": 2.0115122862,
				"z": -0.2501669176,
				"element": "C" 
			},
			{
				"x": -0.7099259566,
				"y": 2.0644662435,
				"z": 0.9350181153,
				"element": "O" 
			},
			{
				"x": -0.7037372826,
				"y": 3.2367458873,
				"z": 1.6162369975,
				"element": "C" 
			},
			{
				"x": -1.6732796255,
				"y": 3.1893925764,
				"z": 2.7730612061,
				"element": "C" 
			},
			{
				"x": -0.0054755021,
				"y": 4.1827253171,
				"z": 1.3228922949,
				"element": "O" 
			},
			{
				"x": 0.184592571,
				"y": -0.8891961167,
				"z": 2.0755995114,
				"element": "C" 
			},
			{
				"x": -0.3485972712,
				"y": -2.172045519,
				"z": 2.127488243,
				"element": "C" 
			},
			{
				"x": 1.2395527415,
				"y": -5.7153418038,
				"z": 1.086761651,
				"element": "H" 
			},
			{
				"x": 0.1793442554,
				"y": -5.3449969198,
				"z": -0.302405717,
				"element": "H" 
			},
			{
				"x": -0.4108248241,
				"y": -6.3886517273,
				"z": 1.0180979965,
				"element": "H" 
			},
			{
				"x": 1.8335080185,
				"y": -3.7150156761,
				"z": 0.0107437097,
				"element": "H" 
			},
			{
				"x": 2.7449390687,
				"y": -1.4335257501,
				"z": -0.0665690989,
				"element": "H" 
			},
			{
				"x": 1.5834900415,
				"y": 1.3711930851,
				"z": 2.1251927822,
				"element": "H" 
			},
			{
				"x": 2.9889125758,
				"y": 0.7331732487,
				"z": 1.2939237574,
				"element": "H" 
			},
			{
				"x": 2.1558724594,
				"y": 2.5882739122,
				"z": 0.0933054141,
				"element": "H" 
			},
			{
				"x": 2.7262652986,
				"y": 1.4322392802,
				"z": -1.7485852149,
				"element": "H" 
			},
			{
				"x": 0.8205420367,
				"y": -0.2344433902,
				"z": -2.6007861245,
				"element": "H" 
			},
			{
				"x": 0.7209531984,
				"y": 1.5077925783,
				"z": -2.9314922566,
				"element": "H" 
			},
			{
				"x": -0.6135995404,
				"y": 0.0204919954,
				"z": -0.6397259946,
				"element": "H" 
			},
			{
				"x": -2.011527293,
				"y": 0.6444703573,
				"z": -2.2737916615,
				"element": "H" 
			},
			{
				"x": 0.0344966723,
				"y": 2.9820597075,
				"z": -0.7507367665,
				"element": "H" 
			},
			{
				"x": -1.377574946,
				"y": 2.4080321407,
				"z": 3.4800681244,
				"element": "H" 
			},
			{
				"x": -1.6829585649,
				"y": 4.1553280741,
				"z": 3.27691385,
				"element": "H" 
			},
			{
				"x": -2.675623236,
				"y": 2.9410242708,
				"z": 2.4131687638,
				"element": "H" 
			},
			{
				"x": -0.2851297819,
				"y": -0.0988192831,
				"z": 2.65346833,
				"element": "H" 
			},
			{
				"x": -1.2144158891,
				"y": -2.3993003504,
				"z": 2.741299691,
				"element": "H" 
			}
		],
		 "valence_orbital": [ 
			{
				"type": "occ",
				"energy": -0.27404,
				"method": "rhf"
			},
			{
				"type": "occ",
				"energy": -0.26489,
				"method": "rhf"
			},
			{
				"type": "occ",
				"energy": -0.24333,
				"method": "rhf"
			},
			{
				"type": "occ",
				"energy": -0.21866,
				"method": "rhf"
			},
			{
				"type": "occ",
				"energy": -0.20648,
				"method": "rhf"
			},
			{
				"type": "unocc",
				"energy": 0.00562,
				"method": "rhf"
			},
			{
				"type": "unocc",
				"energy": 0.01406,
				"method": "rhf"
			},
			{
				"type": "unocc",
				"energy": 0.01756,
				"method": "rhf"
			},
			{
				"type": "unocc",
				"energy": 0.06703,
				"method": "rhf"
			},
			{
				"type": "unocc",
				"energy": 0.08,
				"method": "rhf"
			}
		],
		"cosmo_sigma_profile": { 
			"-0.025": 0.0,
			"-0.024": 0.0,
			"-0.023": 0.0,
			"-0.022": 0.0,
			"-0.021": 0.0,
			"-0.02": 0.0,
			"-0.019": 0.0,
			"-0.018": 0.0,
			"-0.017": 0.0233145263602,
			"-0.016": 0.889741115372,
			"-0.015": 1.09577646625,
			"-0.014": 0.901032735831,
			"-0.013": 1.03302002246,
			"-0.012": 0.594881497386,
			"-0.011": 1.22718668058,
			"-0.01": 2.47014362208,
			"-0.009": 2.69729843062,
			"-0.008": 1.82985666679,
			"-0.007": 3.03376217546,
			"-0.006": 11.2971436498,
			"-0.005": 23.6388226448,
			"-0.004": 31.5113064402,
			"-0.003": 37.4591883156,
			"-0.002": 30.1447588209,
			"-0.001": 23.8013243805,
			"0.0": 17.2177134918,
			"0.001": 12.9145922914,
			"0.002": 12.5621898009,
			"0.003": 13.8538712348,
			"0.004": 17.2097567832,
			"0.005": 14.1983607753,
			"0.006": 11.919164684,
			"0.007": 6.81225956435,
			"0.008": 6.27190427833,
			"0.009": 5.46830841206,
			"0.01": 5.82420701488,
			"0.011": 5.29777709861,
			"0.012": 5.4943120413,
			"0.013": 3.28680741216,
			"0.014": 0.563403923052,
			"0.015": 0.0,
			"0.016": 0.0,
			"0.017": 0.0,
			"0.018": 0.0,
			"0.019": 0.0,
			"0.02": 0.0,
			"0.021": 0.0,
			"0.022": 0.0,
			"0.023": 0.0,
			"0.024": 0.0,
			"0.025": 0.0
		}
	}
}
