{
	 "smiles": "CC1=C(CC(NC(=O)OCC2C3=C(C=CC=C3)C3=C2C=CC=C3)C(O)=O)C=CC=C1", 
	 "Tm": 433.15, 
	 "num_atms": 53, 
	 "gaussian": { 
		 "optdone": 1, 
		 "sigma_profile": "yes", 
		 "theory": "DFT", 
		 "functional": "B3LYP", 
		 "basiset": "6-31G**", 
		 "properties": { 
			 "R2extent": 12008.2427, 
			 "electric_dipole_moment_norm": 1.8656923889, 
			 "electric_quadrupole_moment_norm": 16.4999260129, 
			 "total_energy": -1322.22439727, 
			 "HOMO_LUMO_gap": 0.1839, 
			 "cosmo_polarized_energy": -20.33, 
			 "cosmo_cavitation_energy": 54.94, 
			 "cosmo_dispersion_energy": -35.14, 
			 "cosmo_repulsion_energy": 2.59, 
			 "cosmo_total_nonelectrostatic_energy": 22.39, 
			 "SMD_solvation_energy": 9.75 
		},
		"coords": [
			{
				"x": -2.9587237348,
				"y": -2.7234920314,
				"z": 1.6310171528,
				"element": "C" 
			},
			{
				"x": -1.493311679,
				"y": -2.6009503813,
				"z": 1.9851252856,
				"element": "C" 
			},
			{
				"x": -0.4694039054,
				"y": -3.1448197605,
				"z": 1.1782783023,
				"element": "C" 
			},
			{
				"x": -0.7478771653,
				"y": -3.8639168606,
				"z": -0.1301540697,
				"element": "C" 
			},
			{
				"x": -0.3895363397,
				"y": -3.1335875903,
				"z": -1.4606999873,
				"element": "C" 
			},
			{
				"x": 0.9167764413,
				"y": -2.4962767795,
				"z": -1.496188194,
				"element": "N" 
			},
			{
				"x": 1.2282141053,
				"y": -1.2222940424,
				"z": -1.0959490707,
				"element": "C" 
			},
			{
				"x": 2.3236613244,
				"y": -0.7163954228,
				"z": -1.2619181504,
				"element": "O" 
			},
			{
				"x": 0.1713609812,
				"y": -0.6179416961,
				"z": -0.4983311698,
				"element": "O" 
			},
			{
				"x": 0.4156387183,
				"y": 0.7225920893,
				"z": -0.0208407328,
				"element": "C" 
			},
			{
				"x": 0.0634007774,
				"y": 1.7700343343,
				"z": -1.0949521562,
				"element": "C" 
			},
			{
				"x": 0.7925376093,
				"y": 3.0913362226,
				"z": -0.9093733558,
				"element": "C" 
			},
			{
				"x": -0.1250485555,
				"y": 4.1597908403,
				"z": -0.8743206465,
				"element": "C" 
			},
			{
				"x": 0.3275261622,
				"y": 5.4734515375,
				"z": -0.7325244191,
				"element": "C" 
			},
			{
				"x": 1.7011466442,
				"y": 5.7043438801,
				"z": -0.6249404706,
				"element": "C" 
			},
			{
				"x": 2.6105827209,
				"y": 4.6413025983,
				"z": -0.6642716549,
				"element": "C" 
			},
			{
				"x": 2.1599881083,
				"y": 3.3240364364,
				"z": -0.810627734,
				"element": "C" 
			},
			{
				"x": -1.4823373243,
				"y": 3.6127174454,
				"z": -1.0080373022,
				"element": "C" 
			},
			{
				"x": -1.3948173847,
				"y": 2.2082476939,
				"z": -1.1234677748,
				"element": "C" 
			},
			{
				"x": -2.5503607869,
				"y": 1.4391073473,
				"z": -1.2239945361,
				"element": "C" 
			},
			{
				"x": -3.7953511188,
				"y": 2.0812994615,
				"z": -1.2284524244,
				"element": "C" 
			},
			{
				"x": -3.8805982566,
				"y": 3.4739259823,
				"z": -1.1334830614,
				"element": "C" 
			},
			{
				"x": -2.7247471941,
				"y": 4.2498397121,
				"z": -1.0185472656,
				"element": "C" 
			},
			{
				"x": -1.4996428582,
				"y": -2.2169596497,
				"z": -1.9918348326,
				"element": "C" 
			},
			{
				"x": -1.0835455314,
				"y": -1.4918817307,
				"z": -3.051194169,
				"element": "O" 
			},
			{
				"x": -2.6454613066,
				"y": -2.1970037145,
				"z": -1.5980001172,
				"element": "O" 
			},
			{
				"x": 0.8590331917,
				"y": -3.0686761932,
				"z": 1.6233509871,
				"element": "C" 
			},
			{
				"x": 1.1996551067,
				"y": -2.4244947574,
				"z": 2.8111930337,
				"element": "C" 
			},
			{
				"x": 0.1940959369,
				"y": -1.8558218047,
				"z": 3.5913120411,
				"element": "C" 
			},
			{
				"x": -1.1336701222,
				"y": -1.9581836469,
				"z": 3.1788376598,
				"element": "C" 
			},
			{
				"x": -3.5740081191,
				"y": -2.1779994788,
				"z": 2.351705014,
				"element": "H" 
			},
			{
				"x": -3.2861152208,
				"y": -3.7711483258,
				"z": 1.6526000583,
				"element": "H" 
			},
			{
				"x": -3.1750758824,
				"y": -2.3420714695,
				"z": 0.6310355146,
				"element": "H" 
			},
			{
				"x": -0.1606352685,
				"y": -4.7894214058,
				"z": -0.1362116521,
				"element": "H" 
			},
			{
				"x": -1.796993212,
				"y": -4.1580319779,
				"z": -0.2045465087,
				"element": "H" 
			},
			{
				"x": -0.3450009453,
				"y": -3.9203479867,
				"z": -2.2264148763,
				"element": "H" 
			},
			{
				"x": 1.6500565171,
				"y": -2.9251028534,
				"z": -2.0386253098,
				"element": "H" 
			},
			{
				"x": 1.4666490638,
				"y": 0.7989782209,
				"z": 0.2575251056,
				"element": "H" 
			},
			{
				"x": -0.211690542,
				"y": 0.8300852269,
				"z": 0.8653299745,
				"element": "H" 
			},
			{
				"x": 0.3516772854,
				"y": 1.3338431681,
				"z": -2.0614309273,
				"element": "H" 
			},
			{
				"x": -0.3718381087,
				"y": 6.3046411767,
				"z": -0.7052760807,
				"element": "H" 
			},
			{
				"x": 2.0678546883,
				"y": 6.7207417202,
				"z": -0.5120774943,
				"element": "H" 
			},
			{
				"x": 3.6753268958,
				"y": 4.8405210464,
				"z": -0.5838314829,
				"element": "H" 
			},
			{
				"x": 2.866102678,
				"y": 2.4988283353,
				"z": -0.8550139426,
				"element": "H" 
			},
			{
				"x": -2.5042329306,
				"y": 0.3556356135,
				"z": -1.2723090725,
				"element": "H" 
			},
			{
				"x": -4.7029446321,
				"y": 1.4889399134,
				"z": -1.3022188625,
				"element": "H" 
			},
			{
				"x": -4.8542080327,
				"y": 3.9558928702,
				"z": -1.1411081045,
				"element": "H" 
			},
			{
				"x": -2.7961107253,
				"y": 5.3307940162,
				"z": -0.9334602609,
				"element": "H" 
			},
			{
				"x": -1.8495709092,
				"y": -0.9700331415,
				"z": -3.3441881486,
				"element": "H" 
			},
			{
				"x": 1.6418010354,
				"y": -3.5201051769,
				"z": 1.0201812186,
				"element": "H" 
			},
			{
				"x": 2.2384129098,
				"y": -2.3748150361,
				"z": 3.1247728703,
				"element": "H" 
			},
			{
				"x": 0.4370537251,
				"y": -1.3505352352,
				"z": 4.5219462518,
				"element": "H" 
			},
			{
				"x": -1.9199948348,
				"y": -1.5367187393,
				"z": 3.8003055488,
				"element": "H" 
			}
		],
		 "valence_orbital": [ 
			{
				"type": "occ",
				"energy": -0.24645,
				"method": "rhf"
			},
			{
				"type": "occ",
				"energy": -0.24091,
				"method": "rhf"
			},
			{
				"type": "occ",
				"energy": -0.23741,
				"method": "rhf"
			},
			{
				"type": "occ",
				"energy": -0.2295,
				"method": "rhf"
			},
			{
				"type": "occ",
				"energy": -0.21206,
				"method": "rhf"
			},
			{
				"type": "unocc",
				"energy": -0.02816,
				"method": "rhf"
			},
			{
				"type": "unocc",
				"energy": -0.01193,
				"method": "rhf"
			},
			{
				"type": "unocc",
				"energy": -0.00875,
				"method": "rhf"
			},
			{
				"type": "unocc",
				"energy": 0.0005,
				"method": "rhf"
			},
			{
				"type": "unocc",
				"energy": 0.00914,
				"method": "rhf"
			}
		],
		"cosmo_sigma_profile": { 
			"-0.025": 0.0,
			"-0.024": 0.0,
			"-0.023": 0.0,
			"-0.022": 0.0,
			"-0.021": 0.0,
			"-0.02": 0.0,
			"-0.019": 0.0,
			"-0.018": 0.247562100734,
			"-0.017": 0.621577498703,
			"-0.016": 0.608274534603,
			"-0.015": 1.55876039384,
			"-0.014": 2.43352746088,
			"-0.013": 2.04592782215,
			"-0.012": 1.54609732603,
			"-0.011": 1.93578577144,
			"-0.01": 2.34378135895,
			"-0.009": 4.95025043656,
			"-0.008": 3.65745313842,
			"-0.007": 4.7091644763,
			"-0.006": 10.925453857,
			"-0.005": 27.5208018226,
			"-0.004": 37.5439477277,
			"-0.003": 40.0022676118,
			"-0.002": 32.5279441769,
			"-0.001": 30.5571899985,
			"0.0": 28.7761407436,
			"0.001": 32.9338782389,
			"0.002": 30.3714745926,
			"0.003": 32.349138264,
			"0.004": 29.9892802266,
			"0.005": 27.3543925867,
			"0.006": 21.500181273,
			"0.007": 6.33617941941,
			"0.008": 3.98598127747,
			"0.009": 3.31653479043,
			"0.01": 3.42600388557,
			"0.011": 3.57262005338,
			"0.012": 2.68033936211,
			"0.013": 3.71863705345,
			"0.014": 0.505258108614,
			"0.015": 0.0,
			"0.016": 0.0,
			"0.017": 0.0,
			"0.018": 0.0,
			"0.019": 0.0,
			"0.02": 0.0,
			"0.021": 0.0,
			"0.022": 0.0,
			"0.023": 0.0,
			"0.024": 0.0,
			"0.025": 0.0
		}
	}
}
