{
	 "smiles": "COC1=C(OC(=O)C2=CC=C(F)C=C2)C=CC(C=O)=C1", 
	 "Tm": 374.15, 
	 "num_atms": 31, 
	 "gaussian": { 
		 "optdone": 1, 
		 "sigma_profile": "yes", 
		 "theory": "DFT", 
		 "functional": "B3LYP", 
		 "basiset": "6-31G**", 
		 "properties": { 
			 "R2extent": 8226.776, 
			 "electric_dipole_moment_norm": 3.7394851651, 
			 "electric_quadrupole_moment_norm": 31.0037645498, 
			 "total_energy": -978.942725806, 
			 "HOMO_LUMO_gap": 0.17041, 
			 "cosmo_polarized_energy": -14.44, 
			 "cosmo_cavitation_energy": 37.91, 
			 "cosmo_dispersion_energy": -26.25, 
			 "cosmo_repulsion_energy": 1.99, 
			 "cosmo_total_nonelectrostatic_energy": 13.65, 
			 "SMD_solvation_energy": 9.68 
		},
		"coords": [
			{
				"x": -0.7325575134,
				"y": -1.5646682041,
				"z": -3.5323512064,
				"element": "C" 
			},
			{
				"x": -0.5293035747,
				"y": -1.4526462457,
				"z": -2.1303158168,
				"element": "O" 
			},
			{
				"x": -1.6209499712,
				"y": -1.3560588158,
				"z": -1.3304335771,
				"element": "C" 
			},
			{
				"x": -1.3678676695,
				"y": -1.1573292718,
				"z": 0.0424489184,
				"element": "C" 
			},
			{
				"x": -0.0590029716,
				"y": -1.1252255312,
				"z": 0.5006909186,
				"element": "O" 
			},
			{
				"x": 0.7121696686,
				"y": -0.029429331,
				"z": 0.1777868514,
				"element": "C" 
			},
			{
				"x": 0.2732608602,
				"y": 0.9424402901,
				"z": -0.3906709802,
				"element": "O" 
			},
			{
				"x": 2.1132789096,
				"y": -0.1958675075,
				"z": 0.637915117,
				"element": "C" 
			},
			{
				"x": 2.9965355781,
				"y": 0.8739258108,
				"z": 0.4272987078,
				"element": "C" 
			},
			{
				"x": 4.3235194912,
				"y": 0.7838899906,
				"z": 0.8324346208,
				"element": "C" 
			},
			{
				"x": 4.7515750525,
				"y": -0.3893224947,
				"z": 1.4487131387,
				"element": "C" 
			},
			{
				"x": 6.0343081467,
				"y": -0.4844426156,
				"z": 1.8432329621,
				"element": "F" 
			},
			{
				"x": 3.8995047997,
				"y": -1.4675521433,
				"z": 1.6704932907,
				"element": "C" 
			},
			{
				"x": 2.5728861233,
				"y": -1.3659143366,
				"z": 1.2610748182,
				"element": "C" 
			},
			{
				"x": -2.4040209826,
				"y": -1.0750405298,
				"z": 0.9652701511,
				"element": "C" 
			},
			{
				"x": -3.7254874703,
				"y": -1.1794874663,
				"z": 0.5398792824,
				"element": "C" 
			},
			{
				"x": -3.9953124672,
				"y": -1.3621745879,
				"z": -0.8201975086,
				"element": "C" 
			},
			{
				"x": -5.3928438885,
				"y": -1.4701226281,
				"z": -1.2953035124,
				"element": "C" 
			},
			{
				"x": -6.374012621,
				"y": -1.4187131802,
				"z": -0.5785290385,
				"element": "O" 
			},
			{
				"x": -2.9478943444,
				"y": -1.4498711141,
				"z": -1.7513524491,
				"element": "C" 
			},
			{
				"x": -1.2677033752,
				"y": -2.4876267376,
				"z": -3.7891773591,
				"element": "H" 
			},
			{
				"x": -1.2838378892,
				"y": -0.7023226191,
				"z": -3.9263967374,
				"element": "H" 
			},
			{
				"x": 0.262732958,
				"y": -1.5909490455,
				"z": -3.977038968,
				"element": "H" 
			},
			{
				"x": 2.6218718481,
				"y": 1.769042494,
				"z": -0.0569992329,
				"element": "H" 
			},
			{
				"x": 5.0250749316,
				"y": 1.5968601635,
				"z": 0.681591194,
				"element": "H" 
			},
			{
				"x": 4.2810447509,
				"y": -2.3602616824,
				"z": 2.1535502922,
				"element": "H" 
			},
			{
				"x": 1.8901824335,
				"y": -2.1919279509,
				"z": 1.420769449,
				"element": "H" 
			},
			{
				"x": -2.1533038075,
				"y": -0.927870919,
				"z": 2.0105978934,
				"element": "H" 
			},
			{
				"x": -4.5540906617,
				"y": -1.1168417436,
				"z": 1.2364942351,
				"element": "H" 
			},
			{
				"x": -5.4975347873,
				"y": -1.6077089627,
				"z": -2.3955303935,
				"element": "H" 
			},
			{
				"x": -3.1854215569,
				"y": -1.5963830844,
				"z": -2.7998450609,
				"element": "H" 
			}
		],
		 "valence_orbital": [ 
			{
				"type": "occ",
				"energy": -0.27521,
				"method": "rhf"
			},
			{
				"type": "occ",
				"energy": -0.26503,
				"method": "rhf"
			},
			{
				"type": "occ",
				"energy": -0.2604,
				"method": "rhf"
			},
			{
				"type": "occ",
				"energy": -0.25568,
				"method": "rhf"
			},
			{
				"type": "occ",
				"energy": -0.23465,
				"method": "rhf"
			},
			{
				"type": "unocc",
				"energy": -0.06424,
				"method": "rhf"
			},
			{
				"type": "unocc",
				"energy": -0.05154,
				"method": "rhf"
			},
			{
				"type": "unocc",
				"energy": -0.02348,
				"method": "rhf"
			},
			{
				"type": "unocc",
				"energy": -0.00882,
				"method": "rhf"
			},
			{
				"type": "unocc",
				"energy": 0.04059,
				"method": "rhf"
			}
		],
		"cosmo_sigma_profile": { 
			"-0.025": 0.0,
			"-0.024": 0.0,
			"-0.023": 0.0,
			"-0.022": 0.0,
			"-0.021": 0.0,
			"-0.02": 0.0,
			"-0.019": 0.0,
			"-0.018": 0.0,
			"-0.017": 0.0,
			"-0.016": 0.0,
			"-0.015": 0.0,
			"-0.014": 0.0,
			"-0.013": 0.0,
			"-0.012": 0.0,
			"-0.011": 0.0,
			"-0.01": 0.0,
			"-0.009": 0.444086029864,
			"-0.008": 6.74980924101,
			"-0.007": 13.9312181146,
			"-0.006": 22.4479804459,
			"-0.005": 20.9032418406,
			"-0.004": 20.5743474177,
			"-0.003": 19.0497301105,
			"-0.002": 14.9826860651,
			"-0.001": 20.1380538796,
			"0.0": 26.3283822526,
			"0.001": 30.0643320805,
			"0.002": 31.0710887412,
			"0.003": 20.3637998602,
			"0.004": 14.4731798217,
			"0.005": 5.55883418101,
			"0.006": 4.69012142191,
			"0.007": 5.10217110017,
			"0.008": 4.65955279307,
			"0.009": 4.76770027097,
			"0.01": 5.83920097329,
			"0.011": 8.94475019927,
			"0.012": 3.15853283292,
			"0.013": 0.618962655365,
			"0.014": 0.0,
			"0.015": 0.0,
			"0.016": 0.0,
			"0.017": 0.0,
			"0.018": 0.0,
			"0.019": 0.0,
			"0.02": 0.0,
			"0.021": 0.0,
			"0.022": 0.0,
			"0.023": 0.0,
			"0.024": 0.0,
			"0.0": 0.0
		}
	}
}
