{
	 "smiles": "CN1C=NC2=C(C=CC(Br)=C2)C1=O", 
	 "Tm": 430.15, 
	 "num_atms": 20, 
	 "gaussian": { 
		 "optdone": 1, 
		 "sigma_profile": "yes", 
		 "theory": "DFT", 
		 "functional": "B3LYP", 
		 "basiset": "6-31G**", 
		 "properties": { 
			 "R2extent": 6586.037, 
			 "electric_dipole_moment_norm": 2.68882119153, 
			 "electric_quadrupole_moment_norm": 15.4654823792, 
			 "total_energy": -3103.33336387, 
			 "HOMO_LUMO_gap": 0.1878, 
			 "cosmo_polarized_energy": -11.1, 
			 "cosmo_cavitation_energy": 26.67, 
			 "cosmo_dispersion_energy": -20.32, 
			 "cosmo_repulsion_energy": 1.57, 
			 "cosmo_total_nonelectrostatic_energy": 7.91, 
			 "SMD_solvation_energy": 2.79 
		},
		"coords": [
			{
				"x": 0.5078559236,
				"y": -1.2395087814,
				"z": 2.6416519922,
				"element": "C" 
			},
			{
				"x": -0.4603568646,
				"y": -0.7164242752,
				"z": 1.6773534382,
				"element": "N" 
			},
			{
				"x": -1.6017623736,
				"y": -0.0681103039,
				"z": 2.0871655806,
				"element": "C" 
			},
			{
				"x": -2.5140066287,
				"y": 0.4275159707,
				"z": 1.319774137,
				"element": "N" 
			},
			{
				"x": -2.3207428931,
				"y": 0.2910660229,
				"z": -0.0473165352,
				"element": "C" 
			},
			{
				"x": -1.185267564,
				"y": -0.3564998761,
				"z": -0.5874848115,
				"element": "C" 
			},
			{
				"x": -1.0317281767,
				"y": -0.4711634349,
				"z": -1.9784288464,
				"element": "C" 
			},
			{
				"x": -1.9891798403,
				"y": 0.0478948819,
				"z": -2.834090817,
				"element": "C" 
			},
			{
				"x": -3.1138215132,
				"y": 0.6895000601,
				"z": -2.2868577686,
				"element": "C" 
			},
			{
				"x": -4.4302940163,
				"y": 1.4029135627,
				"z": -3.472154645,
				"element": "Br" 
			},
			{
				"x": -3.2928174044,
				"y": 0.8179523615,
				"z": -0.9206722178,
				"element": "C" 
			},
			{
				"x": -0.1681421277,
				"y": -0.9082355182,
				"z": 0.311255387,
				"element": "C" 
			},
			{
				"x": 0.8555846294,
				"y": -1.4891380629,
				"z": -0.0277422436,
				"element": "O" 
			},
			{
				"x": 0.1568952778,
				"y": -1.0221314398,
				"z": 3.6512592486,
				"element": "H" 
			},
			{
				"x": 1.4836330272,
				"y": -0.7764186197,
				"z": 2.4794710463,
				"element": "H" 
			},
			{
				"x": 0.6193489721,
				"y": -2.3181155804,
				"z": 2.5109722201,
				"element": "H" 
			},
			{
				"x": -1.7149156865,
				"y": 0.0175028542,
				"z": 3.1664930164,
				"element": "H" 
			},
			{
				"x": -0.1493408164,
				"y": -0.9736409138,
				"z": -2.3605910106,
				"element": "H" 
			},
			{
				"x": -1.8818126685,
				"y": -0.0343863346,
				"z": -3.9091215017,
				"element": "H" 
			},
			{
				"x": -4.159929256,
				"y": 1.312627427,
				"z": -0.5008356691,
				"element": "H" 
			}
		],
		 "valence_orbital": [ 
			{
				"type": "occ",
				"energy": -0.29267,
				"method": "rhf"
			},
			{
				"type": "occ",
				"energy": -0.2847,
				"method": "rhf"
			},
			{
				"type": "occ",
				"energy": -0.27125,
				"method": "rhf"
			},
			{
				"type": "occ",
				"energy": -0.25391,
				"method": "rhf"
			},
			{
				"type": "occ",
				"energy": -0.23912,
				"method": "rhf"
			},
			{
				"type": "unocc",
				"energy": -0.05132,
				"method": "rhf"
			},
			{
				"type": "unocc",
				"energy": -0.04627,
				"method": "rhf"
			},
			{
				"type": "unocc",
				"energy": 0.00208,
				"method": "rhf"
			},
			{
				"type": "unocc",
				"energy": 0.01792,
				"method": "rhf"
			},
			{
				"type": "unocc",
				"energy": 0.06029,
				"method": "rhf"
			}
		],
		"cosmo_sigma_profile": { 
			"-0.025": 0.0,
			"-0.024": 0.0,
			"-0.023": 0.0,
			"-0.022": 0.0,
			"-0.021": 0.0,
			"-0.02": 0.0,
			"-0.019": 0.0,
			"-0.018": 0.0,
			"-0.017": 0.0,
			"-0.016": 0.0,
			"-0.015": 0.0,
			"-0.014": 0.0,
			"-0.013": 0.0,
			"-0.012": 0.0,
			"-0.011": 0.761630936835,
			"-0.01": 2.87559261678,
			"-0.009": 2.47212197717,
			"-0.008": 3.52627538633,
			"-0.007": 7.12339020146,
			"-0.006": 10.9786477033,
			"-0.005": 12.9795599541,
			"-0.004": 19.6178085277,
			"-0.003": 19.8249410741,
			"-0.002": 10.976853525,
			"-0.001": 10.5397099177,
			"0.0": 15.9328167865,
			"0.001": 25.6255629826,
			"0.002": 18.733170033,
			"0.003": 11.6434223992,
			"0.004": 14.1025285737,
			"0.005": 4.53311367956,
			"0.006": 3.24074704785,
			"0.007": 2.27300501399,
			"0.008": 2.28747897678,
			"0.009": 2.34245786125,
			"0.01": 1.71308200558,
			"0.011": 3.51070259424,
			"0.012": 4.63386363891,
			"0.013": 4.00925546384,
			"0.014": 1.02492747385,
			"0.015": 0.439809664238,
			"0.016": 0.0548181263536,
			"0.017": 0.0,
			"0.018": 0.0,
			"0.019": 0.0,
			"0.02": 0.0,
			"0.021": 0.0,
			"0.022": 0.0,
			"0.023": 0.0,
			"0.024": 0.0,
			"0.025": 0.0
		}
	}
}
