{
	 "smiles": "NC1=C(C=C(C(F)=C1)[N+]([O-])=O)C(O)=O", 
	 "Tm": 523.15, 
	 "num_atms": 19, 
	 "gaussian": { 
		 "optdone": 1, 
		 "sigma_profile": "yes", 
		 "theory": "DFT", 
		 "functional": "B3LYP", 
		 "basiset": "6-31G**", 
		 "properties": { 
			 "R2extent": 3044.7454, 
			 "electric_dipole_moment_norm": 8.47800931646, 
			 "electric_quadrupole_moment_norm": 10.6191482785, 
			 "total_energy": -779.907652107, 
			 "HOMO_LUMO_gap": 0.16554, 
			 "cosmo_polarized_energy": -19.95, 
			 "cosmo_cavitation_energy": 25.2, 
			 "cosmo_dispersion_energy": -18.79, 
			 "cosmo_repulsion_energy": 1.45, 
			 "cosmo_total_nonelectrostatic_energy": 7.86, 
			 "SMD_solvation_energy": 8.15 
		},
		"coords": [
			{
				"x": -3.4127593113,
				"y": -0.2170781119,
				"z": 0.0783326758,
				"element": "N" 
			},
			{
				"x": -2.1511250716,
				"y": 0.2769027593,
				"z": 0.0609772429,
				"element": "C" 
			},
			{
				"x": -1.0017471035,
				"y": -0.5073744458,
				"z": -0.2791098732,
				"element": "C" 
			},
			{
				"x": 0.257724146,
				"y": 0.0953232073,
				"z": -0.2677642363,
				"element": "C" 
			},
			{
				"x": 0.4470227893,
				"y": 1.4308369352,
				"z": 0.0610037844,
				"element": "C" 
			},
			{
				"x": -0.6887950034,
				"y": 2.1999540853,
				"z": 0.3956390425,
				"element": "C" 
			},
			{
				"x": -0.5974763779,
				"y": 3.4868539549,
				"z": 0.7232254282,
				"element": "F" 
			},
			{
				"x": -1.9466007404,
				"y": 1.6357011942,
				"z": 0.3941592893,
				"element": "C" 
			},
			{
				"x": 1.800265218,
				"y": 1.97146485,
				"z": 0.0448549168,
				"element": "N" 
			},
			{
				"x": 2.7127004879,
				"y": 1.2012817625,
				"z": -0.2640308549,
				"element": "O" 
			},
			{
				"x": 1.9549434576,
				"y": 3.1564337767,
				"z": 0.3379851603,
				"element": "O" 
			},
			{
				"x": -1.0116095322,
				"y": -1.939747273,
				"z": -0.6543807765,
				"element": "C" 
			},
			{
				"x": -2.2546540942,
				"y": -2.5141795474,
				"z": -0.6599194436,
				"element": "O" 
			},
			{
				"x": -0.0301622427,
				"y": -2.5929944268,
				"z": -0.940797879,
				"element": "O" 
			},
			{
				"x": -4.1836096096,
				"y": 0.3805613573,
				"z": 0.3243464694,
				"element": "H" 
			},
			{
				"x": -3.582280168,
				"y": -1.1823127745,
				"z": -0.155813027,
				"element": "H" 
			},
			{
				"x": 1.1228897745,
				"y": -0.5026734789,
				"z": -0.5259328281,
				"element": "H" 
			},
			{
				"x": -2.7874279721,
				"y": 2.2681165771,
				"z": 0.6586006756,
				"element": "H" 
			},
			{
				"x": -2.1124986464,
				"y": -3.4396704015,
				"z": -0.9197757663,
				"element": "H" 
			}
		],
		 "valence_orbital": [ 
			{
				"type": "occ",
				"energy": -0.29895,
				"method": "rhf"
			},
			{
				"type": "occ",
				"energy": -0.29742,
				"method": "rhf"
			},
			{
				"type": "occ",
				"energy": -0.27989,
				"method": "rhf"
			},
			{
				"type": "occ",
				"energy": -0.2794,
				"method": "rhf"
			},
			{
				"type": "occ",
				"energy": -0.24373,
				"method": "rhf"
			},
			{
				"type": "unocc",
				"energy": -0.07819,
				"method": "rhf"
			},
			{
				"type": "unocc",
				"energy": -0.06187,
				"method": "rhf"
			},
			{
				"type": "unocc",
				"energy": -0.00249,
				"method": "rhf"
			},
			{
				"type": "unocc",
				"energy": 0.04838,
				"method": "rhf"
			},
			{
				"type": "unocc",
				"energy": 0.04964,
				"method": "rhf"
			}
		],
		"cosmo_sigma_profile": { 
			"-0.025": 0.0,
			"-0.024": 0.0,
			"-0.023": 0.0,
			"-0.022": 0.0,
			"-0.021": 0.0,
			"-0.02": 0.0,
			"-0.019": 0.428031844163,
			"-0.018": 0.899819887782,
			"-0.017": 0.769012651027,
			"-0.016": 1.21911165128,
			"-0.015": 2.31389662781,
			"-0.014": 2.16267974229,
			"-0.013": 1.35127519838,
			"-0.012": 3.43080932531,
			"-0.011": 3.64628470487,
			"-0.01": 3.6005586516,
			"-0.009": 2.70603850829,
			"-0.008": 3.24252011825,
			"-0.007": 2.99749310877,
			"-0.006": 4.1815406966,
			"-0.005": 5.13626664634,
			"-0.004": 6.62131741981,
			"-0.003": 12.4883053787,
			"-0.002": 18.3449594984,
			"-0.001": 21.7140729264,
			"0.0": 17.836808285,
			"0.001": 11.5676556157,
			"0.002": 9.52495873658,
			"0.003": 11.6229141593,
			"0.004": 4.77035616307,
			"0.005": 5.14309474303,
			"0.006": 4.24863435196,
			"0.007": 5.94412364149,
			"0.008": 11.775249094,
			"0.009": 8.81275606175,
			"0.01": 6.2458279776,
			"0.011": 5.95347358215,
			"0.012": 1.64294595135,
			"0.013": 0.0,
			"0.014": 0.0,
			"0.015": 0.0,
			"0.016": 0.0,
			"0.017": 0.0,
			"0.018": 0.0,
			"0.019": 0.0,
			"0.02": 0.0,
			"0.021": 0.0,
			"0.022": 0.0,
			"0.023": 0.0,
			"0.024": 0.0,
			"0.025": 0.0
		}
	}
}
