{
	 "smiles": "OCCCNC(=O)CC1=C(Cl)C=CC=C1", 
	 "Tm": 351.15, 
	 "num_atms": 29, 
	 "gaussian": { 
		 "optdone": 1, 
		 "sigma_profile": "yes", 
		 "theory": "DFT", 
		 "functional": "B3LYP", 
		 "basiset": "6-31G**", 
		 "properties": { 
			 "R2extent": 4258.3185, 
			 "electric_dipole_moment_norm": 1.27884524865, 
			 "electric_quadrupole_moment_norm": 19.9330788856, 
			 "total_energy": -1093.00936294, 
			 "HOMO_LUMO_gap": 0.22788, 
			 "cosmo_polarized_energy": -15.62, 
			 "cosmo_cavitation_energy": 33.25, 
			 "cosmo_dispersion_energy": -23.44, 
			 "cosmo_repulsion_energy": 1.84, 
			 "cosmo_total_nonelectrostatic_energy": 11.64, 
			 "SMD_solvation_energy": 5.03 
		},
		"coords": [
			{
				"x": 2.7659409754,
				"y": 1.0212477849,
				"z": -2.8403122918,
				"element": "O" 
			},
			{
				"x": 1.7583321043,
				"y": 1.7276266288,
				"z": -3.5574802837,
				"element": "C" 
			},
			{
				"x": 0.5214061482,
				"y": 2.00241495,
				"z": -2.6971213089,
				"element": "C" 
			},
			{
				"x": 0.8666274021,
				"y": 2.8341021743,
				"z": -1.4471148822,
				"element": "C" 
			},
			{
				"x": -0.1026331156,
				"y": 2.7220479243,
				"z": -0.3638309487,
				"element": "N" 
			},
			{
				"x": -0.1940639037,
				"y": 1.7481498549,
				"z": 0.5941125695,
				"element": "C" 
			},
			{
				"x": -1.137706851,
				"y": 1.7115093429,
				"z": 1.3734782034,
				"element": "O" 
			},
			{
				"x": 0.9840502594,
				"y": 0.7581239683,
				"z": 0.694036416,
				"element": "C" 
			},
			{
				"x": 0.5814999148,
				"y": -0.5762398094,
				"z": 1.2732047625,
				"element": "C" 
			},
			{
				"x": 0.5337102978,
				"y": -1.7618837202,
				"z": 0.5290268616,
				"element": "C" 
			},
			{
				"x": 0.9215662777,
				"y": -1.775486376,
				"z": -1.2050654414,
				"element": "Cl" 
			},
			{
				"x": 0.1740422816,
				"y": -2.9865696421,
				"z": 1.0931423741,
				"element": "C" 
			},
			{
				"x": -0.1607912221,
				"y": -3.0430762659,
				"z": 2.4437202587,
				"element": "C" 
			},
			{
				"x": -0.1347707628,
				"y": -1.8787673332,
				"z": 3.2131239439,
				"element": "C" 
			},
			{
				"x": 0.2315340473,
				"y": -0.6694545737,
				"z": 2.630088378,
				"element": "C" 
			},
			{
				"x": 2.4230889133,
				"y": 0.1417021402,
				"z": -2.6292866828,
				"element": "H" 
			},
			{
				"x": 2.2265488568,
				"y": 2.667800767,
				"z": -3.8713744296,
				"element": "H" 
			},
			{
				"x": 1.4667305029,
				"y": 1.1913708825,
				"z": -4.4727859565,
				"element": "H" 
			},
			{
				"x": -0.2482093854,
				"y": 2.5053366926,
				"z": -3.2964774639,
				"element": "H" 
			},
			{
				"x": 0.0913465178,
				"y": 1.0441466998,
				"z": -2.3803844703,
				"element": "H" 
			},
			{
				"x": 0.9495661155,
				"y": 3.8943697621,
				"z": -1.7099868224,
				"element": "H" 
			},
			{
				"x": 1.8510816771,
				"y": 2.5329525742,
				"z": -1.0837421277,
				"element": "H" 
			},
			{
				"x": -0.9164275948,
				"y": 3.3233899091,
				"z": -0.3842821034,
				"element": "H" 
			},
			{
				"x": 1.7180187998,
				"y": 1.2310508992,
				"z": 1.3603324982,
				"element": "H" 
			},
			{
				"x": 1.4848244248,
				"y": 0.6276769892,
				"z": -0.2640248489,
				"element": "H" 
			},
			{
				"x": 0.1573808655,
				"y": -3.8775383526,
				"z": 0.4756140967,
				"element": "H" 
			},
			{
				"x": -0.4408920007,
				"y": -3.9935530419,
				"z": 2.8877080484,
				"element": "H" 
			},
			{
				"x": -0.4001824321,
				"y": -1.9121104265,
				"z": 4.2653178659,
				"element": "H" 
			},
			{
				"x": 0.2376808863,
				"y": 0.239059597,
				"z": 3.2222637853,
				"element": "H" 
			}
		],
		 "valence_orbital": [ 
			{
				"type": "occ",
				"energy": -0.28006,
				"method": "rhf"
			},
			{
				"type": "occ",
				"energy": -0.2543,
				"method": "rhf"
			},
			{
				"type": "occ",
				"energy": -0.25291,
				"method": "rhf"
			},
			{
				"type": "occ",
				"energy": -0.24627,
				"method": "rhf"
			},
			{
				"type": "occ",
				"energy": -0.24005,
				"method": "rhf"
			},
			{
				"type": "unocc",
				"energy": -0.01217,
				"method": "rhf"
			},
			{
				"type": "unocc",
				"energy": -0.00888,
				"method": "rhf"
			},
			{
				"type": "unocc",
				"energy": 0.0147,
				"method": "rhf"
			},
			{
				"type": "unocc",
				"energy": 0.03019,
				"method": "rhf"
			},
			{
				"type": "unocc",
				"energy": 0.07306,
				"method": "rhf"
			}
		],
		"cosmo_sigma_profile": { 
			"-0.025": 0.0,
			"-0.024": 0.0,
			"-0.023": 0.0,
			"-0.022": 0.0,
			"-0.021": 0.0,
			"-0.02": 0.0,
			"-0.019": 0.0,
			"-0.018": 0.0,
			"-0.017": 0.0,
			"-0.016": 0.0,
			"-0.015": 0.0,
			"-0.014": 0.0622057689924,
			"-0.013": 0.893442182451,
			"-0.012": 1.48401027902,
			"-0.011": 1.01067131538,
			"-0.01": 1.87301680412,
			"-0.009": 2.09897574591,
			"-0.008": 2.41608906812,
			"-0.007": 6.80321367802,
			"-0.006": 14.1107204918,
			"-0.005": 19.2546066914,
			"-0.004": 25.6221550593,
			"-0.003": 25.1854571086,
			"-0.002": 24.0517707496,
			"-0.001": 19.0735120051,
			"0.0": 13.8710173263,
			"0.001": 14.9334308573,
			"0.002": 16.2600506596,
			"0.003": 14.0466090401,
			"0.004": 18.5571772907,
			"0.005": 10.06188528,
			"0.006": 3.00110784839,
			"0.007": 3.13173159361,
			"0.008": 2.79582846553,
			"0.009": 2.32891878835,
			"0.01": 1.76605664446,
			"0.011": 3.28436499568,
			"0.012": 3.35179106764,
			"0.013": 4.40554470254,
			"0.014": 6.95080392591,
			"0.015": 1.60682584201,
			"0.016": 0.0,
			"0.017": 0.0,
			"0.018": 0.0,
			"0.019": 0.0,
			"0.02": 0.0,
			"0.021": 0.0,
			"0.022": 0.0,
			"0.023": 0.0,
			"0.024": 0.0,
			"0.025": 0.0
		}
	}
}
