{
	 "smiles": "FC1=C(C=C(C=C1)C(=O)CC#N)C(F)(F)F", 
	 "Tm": 325.15, 
	 "num_atms": 21, 
	 "gaussian": { 
		 "optdone": 1, 
		 "sigma_profile": "yes", 
		 "theory": "DFT", 
		 "functional": "B3LYP", 
		 "basiset": "6-31G**", 
		 "properties": { 
			 "R2extent": 4970.8863, 
			 "electric_dipole_moment_norm": 3.77360439103, 
			 "electric_quadrupole_moment_norm": 31.3834594467, 
			 "total_energy": -913.386834862, 
			 "HOMO_LUMO_gap": 0.19751, 
			 "cosmo_polarized_energy": -16.71, 
			 "cosmo_cavitation_energy": 29.42, 
			 "cosmo_dispersion_energy": -19.92, 
			 "cosmo_repulsion_energy": 1.47, 
			 "cosmo_total_nonelectrostatic_energy": 10.96, 
			 "SMD_solvation_energy": 8.6 
		},
		"coords": [
			{
				"x": 1.0604773882,
				"y": 0.8387824238,
				"z": 1.9401085217,
				"element": "F" 
			},
			{
				"x": 0.3901818239,
				"y": 0.3002441278,
				"z": 0.9135930154,
				"element": "C" 
			},
			{
				"x": 1.1084005377,
				"y": -0.2401089359,
				"z": -0.1567544316,
				"element": "C" 
			},
			{
				"x": 0.3996603082,
				"y": -0.7978688893,
				"z": -1.2192620792,
				"element": "C" 
			},
			{
				"x": -1.0019319821,
				"y": -0.8168826486,
				"z": -1.2154879867,
				"element": "C" 
			},
			{
				"x": -1.6915200067,
				"y": -0.2645802147,
				"z": -0.1228306038,
				"element": "C" 
			},
			{
				"x": -1.0005929174,
				"y": 0.295132862,
				"z": 0.9440881704,
				"element": "C" 
			},
			{
				"x": -1.816236759,
				"y": -1.3999785042,
				"z": -2.3246649135,
				"element": "C" 
			},
			{
				"x": -3.0310333266,
				"y": -1.4012492366,
				"z": -2.2909490766,
				"element": "O" 
			},
			{
				"x": -1.0567975034,
				"y": -2.0053540926,
				"z": -3.5226121673,
				"element": "C" 
			},
			{
				"x": -1.9479200489,
				"y": -2.5456904418,
				"z": -4.5460027691,
				"element": "C" 
			},
			{
				"x": -2.6251018712,
				"y": -2.9844447794,
				"z": -5.3784109352,
				"element": "N" 
			},
			{
				"x": 2.6158633401,
				"y": -0.2109255291,
				"z": -0.143884348,
				"element": "C" 
			},
			{
				"x": 3.0858471872,
				"y": 1.050193759,
				"z": -0.079687212,
				"element": "F" 
			},
			{
				"x": 3.1147859784,
				"y": -0.8811717759,
				"z": 0.9131277811,
				"element": "F" 
			},
			{
				"x": 3.1245301401,
				"y": -0.7775247207,
				"z": -1.2609025039,
				"element": "F" 
			},
			{
				"x": 0.9671092276,
				"y": -1.2135317453,
				"z": -2.042965856,
				"element": "H" 
			},
			{
				"x": -2.7758043404,
				"y": -0.2870312886,
				"z": -0.1349535898,
				"element": "H" 
			},
			{
				"x": -1.5121827951,
				"y": 0.7267159156,
				"z": 1.7971169989,
				"element": "H" 
			},
			{
				"x": -0.4135999686,
				"y": -1.2394915797,
				"z": -3.9738531791,
				"element": "H" 
			},
			{
				"x": -0.390034412,
				"y": -2.801934706,
				"z": -3.1694128356,
				"element": "H" 
			}
		],
		 "valence_orbital": [ 
			{
				"type": "occ",
				"energy": -0.3366,
				"method": "rhf"
			},
			{
				"type": "occ",
				"energy": -0.334,
				"method": "rhf"
			},
			{
				"type": "occ",
				"energy": -0.30515,
				"method": "rhf"
			},
			{
				"type": "occ",
				"energy": -0.28779,
				"method": "rhf"
			},
			{
				"type": "occ",
				"energy": -0.28713,
				"method": "rhf"
			},
			{
				"type": "unocc",
				"energy": -0.08962,
				"method": "rhf"
			},
			{
				"type": "unocc",
				"energy": -0.05841,
				"method": "rhf"
			},
			{
				"type": "unocc",
				"energy": 0.00197,
				"method": "rhf"
			},
			{
				"type": "unocc",
				"energy": 0.02202,
				"method": "rhf"
			},
			{
				"type": "unocc",
				"energy": 0.03002,
				"method": "rhf"
			}
		],
		"cosmo_sigma_profile": { 
			"-0.025": 0.0,
			"-0.024": 0.0,
			"-0.023": 0.0,
			"-0.022": 0.0,
			"-0.021": 0.0,
			"-0.02": 0.0,
			"-0.019": 0.0,
			"-0.018": 0.0,
			"-0.017": 0.0,
			"-0.016": 0.0,
			"-0.015": 0.0,
			"-0.014": 0.0,
			"-0.013": 0.0,
			"-0.012": 0.789852086006,
			"-0.011": 8.12965119131,
			"-0.01": 6.83084718789,
			"-0.009": 5.34585448071,
			"-0.008": 7.08976402677,
			"-0.007": 6.85421877803,
			"-0.006": 8.2232376883,
			"-0.005": 6.52157835134,
			"-0.004": 8.87150100762,
			"-0.003": 9.91573963312,
			"-0.002": 16.0543284485,
			"-0.001": 19.6066440184,
			"0.0": 17.4607641246,
			"0.001": 13.8074812018,
			"0.002": 35.1780635483,
			"0.003": 24.6489016909,
			"0.004": 2.38158019012,
			"0.005": 3.80523618654,
			"0.006": 3.81720104286,
			"0.007": 5.04276195734,
			"0.008": 6.57224651609,
			"0.009": 6.63241155322,
			"0.01": 6.80592737955,
			"0.011": 4.49237516287,
			"0.012": 2.23733630823,
			"0.013": 1.19261381043,
			"0.014": 0.0,
			"0.015": 0.0,
			"0.016": 0.0,
			"0.017": 0.0,
			"0.018": 0.0,
			"0.019": 0.0,
			"0.02": 0.0,
			"0.021": 0.0,
			"0.022": 0.0,
			"0.023": 0.0,
			"0.024": 0.0,
			"0.025": 0.0
		}
	}
}
