{
	 "smiles": "CC(SCC(O)=O)C(=O)NC1=NOC(C)=C1", 
	 "Tm": 399.15, 
	 "num_atms": 28, 
	 "gaussian": { 
		 "optdone": 1, 
		 "sigma_profile": "yes", 
		 "theory": "DFT", 
		 "functional": "B3LYP", 
		 "basiset": "6-31G**", 
		 "properties": { 
			 "R2extent": 5053.0124, 
			 "electric_dipole_moment_norm": 6.17727002081, 
			 "electric_quadrupole_moment_norm": 20.6538447934, 
			 "total_energy": -1158.7528589, 
			 "HOMO_LUMO_gap": 0.2089, 
			 "cosmo_polarized_energy": -24.06, 
			 "cosmo_cavitation_energy": 33.78, 
			 "cosmo_dispersion_energy": -24.48, 
			 "cosmo_repulsion_energy": 1.89, 
			 "cosmo_total_nonelectrostatic_energy": 11.19, 
			 "SMD_solvation_energy": 7.26 
		},
		"coords": [
			{
				"x": -0.9681682573,
				"y": 3.3427274583,
				"z": 2.4084420658,
				"element": "C" 
			},
			{
				"x": -0.0352420005,
				"y": 2.4771339558,
				"z": 1.5550294592,
				"element": "C" 
			},
			{
				"x": 1.0403332715,
				"y": 1.3472159711,
				"z": 2.5491224149,
				"element": "S" 
			},
			{
				"x": -0.1477448622,
				"y": 0.220174909,
				"z": 3.3682992996,
				"element": "C" 
			},
			{
				"x": -0.0572921118,
				"y": -1.2193666486,
				"z": 2.8857691323,
				"element": "C" 
			},
			{
				"x": -0.5095862547,
				"y": -2.0663731131,
				"z": 3.8302597566,
				"element": "O" 
			},
			{
				"x": 0.3401112778,
				"y": -1.5946501164,
				"z": 1.8026081679,
				"element": "O" 
			},
			{
				"x": -0.7992119957,
				"y": 1.8817973814,
				"z": 0.3423944794,
				"element": "C" 
			},
			{
				"x": -1.6489615596,
				"y": 2.5579913722,
				"z": -0.20875482,
				"element": "O" 
			},
			{
				"x": -0.4267025475,
				"y": 0.6226442987,
				"z": -0.0583881289,
				"element": "N" 
			},
			{
				"x": -0.9397392035,
				"y": -0.0883749191,
				"z": -1.1433207625,
				"element": "C" 
			},
			{
				"x": -1.7353790242,
				"y": 0.4306203557,
				"z": -2.0573333414,
				"element": "N" 
			},
			{
				"x": -1.9787350505,
				"y": -0.6346306969,
				"z": -2.9454672967,
				"element": "O" 
			},
			{
				"x": -1.323922032,
				"y": -1.7396794877,
				"z": -2.53282372,
				"element": "C" 
			},
			{
				"x": -1.4779272709,
				"y": -2.9645801035,
				"z": -3.3667191362,
				"element": "C" 
			},
			{
				"x": -0.6412046028,
				"y": -1.4651661163,
				"z": -1.388835249,
				"element": "C" 
			},
			{
				"x": -1.5163143778,
				"y": 4.0242593236,
				"z": 1.755459068,
				"element": "H" 
			},
			{
				"x": -1.7072798225,
				"y": 2.7365132691,
				"z": 2.9425590737,
				"element": "H" 
			},
			{
				"x": -0.3950411464,
				"y": 3.913631156,
				"z": 3.1419224148,
				"element": "H" 
			},
			{
				"x": 0.7277134653,
				"y": 3.1303907221,
				"z": 1.1110985237,
				"element": "H" 
			},
			{
				"x": -1.1714260939,
				"y": 0.5671354821,
				"z": 3.1929099857,
				"element": "H" 
			},
			{
				"x": 0.0119117614,
				"y": 0.2417801754,
				"z": 4.4482127339,
				"element": "H" 
			},
			{
				"x": -0.4628876087,
				"y": -2.9614364409,
				"z": 3.4526749535,
				"element": "H" 
			},
			{
				"x": 0.2379082038,
				"y": 0.1117518193,
				"z": 0.5154499555,
				"element": "H" 
			},
			{
				"x": -1.1179591732,
				"y": -2.7900054475,
				"z": -4.3861084996,
				"element": "H" 
			},
			{
				"x": -2.5300731205,
				"y": -3.260383068,
				"z": -3.4351756407,
				"element": "H" 
			},
			{
				"x": -0.9102792636,
				"y": -3.79072759,
				"z": -2.9339464549,
				"element": "H" 
			},
			{
				"x": -0.0323006,
				"y": -2.1215939016,
				"z": -0.7872384346,
				"element": "H" 
			}
		],
		 "valence_orbital": [ 
			{
				"type": "occ",
				"energy": -0.29526,
				"method": "rhf"
			},
			{
				"type": "occ",
				"energy": -0.26594,
				"method": "rhf"
			},
			{
				"type": "occ",
				"energy": -0.24987,
				"method": "rhf"
			},
			{
				"type": "occ",
				"energy": -0.23658,
				"method": "rhf"
			},
			{
				"type": "occ",
				"energy": -0.23521,
				"method": "rhf"
			},
			{
				"type": "unocc",
				"energy": -0.02631,
				"method": "rhf"
			},
			{
				"type": "unocc",
				"energy": -0.0107,
				"method": "rhf"
			},
			{
				"type": "unocc",
				"energy": 0.01644,
				"method": "rhf"
			},
			{
				"type": "unocc",
				"energy": 0.02354,
				"method": "rhf"
			},
			{
				"type": "unocc",
				"energy": 0.04172,
				"method": "rhf"
			}
		],
		"cosmo_sigma_profile": { 
			"-0.025": 0.0,
			"-0.024": 0.0,
			"-0.023": 0.0,
			"-0.022": 0.0,
			"-0.021": 0.0,
			"-0.02": 0.0223153094498,
			"-0.019": 0.666906729268,
			"-0.018": 0.91589596349,
			"-0.017": 0.967173637311,
			"-0.016": 0.594894803055,
			"-0.015": 0.667343720161,
			"-0.014": 0.434070111735,
			"-0.013": 1.18931604178,
			"-0.012": 1.19277017481,
			"-0.011": 0.732369666026,
			"-0.01": 3.10966080149,
			"-0.009": 4.21809377587,
			"-0.008": 7.45960533385,
			"-0.007": 9.94734939524,
			"-0.006": 15.6393249088,
			"-0.005": 16.2813023333,
			"-0.004": 18.46860118,
			"-0.003": 19.506679597,
			"-0.002": 22.2986657864,
			"-0.001": 18.5436970516,
			"0.0": 17.293271858,
			"0.001": 15.6428776351,
			"0.002": 11.1852859015,
			"0.003": 10.1407406335,
			"0.004": 9.16635734768,
			"0.005": 8.78002939017,
			"0.006": 8.63713494205,
			"0.007": 6.81783449648,
			"0.008": 10.4277753008,
			"0.009": 6.70708192373,
			"0.01": 3.92139344944,
			"0.011": 3.59861464786,
			"0.012": 4.15822614383,
			"0.013": 3.20637931015,
			"0.014": 2.14851124893,
			"0.015": 1.53667943041,
			"0.016": 1.52224856141,
			"0.017": 1.42702143764,
			"0.018": 0.667733691301,
			"0.019": 0.0515577822859,
			"0.02": 0.0,
			"0.021": 0.0,
			"0.022": 0.0,
			"0.023": 0.0,
			"0.024": 0.0,
			"0.025": 0.0
		}
	}
}
