{
	 "smiles": "NC1=C(Br)C=NC=C1", 
	 "Tm": 342.15, 
	 "num_atms": 13, 
	 "gaussian": { 
		 "optdone": 1, 
		 "sigma_profile": "yes", 
		 "theory": "DFT", 
		 "functional": "B3LYP", 
		 "basiset": "6-31G**", 
		 "properties": { 
			 "R2extent": 2398.2345, 
			 "electric_dipole_moment_norm": 3.65279450011, 
			 "electric_quadrupole_moment_norm": 8.85164424274, 
			 "total_energy": -2874.45216356, 
			 "HOMO_LUMO_gap": 0.21569, 
			 "cosmo_polarized_energy": -10.08, 
			 "cosmo_cavitation_energy": 19.13, 
			 "cosmo_dispersion_energy": -15.04, 
			 "cosmo_repulsion_energy": 1.24, 
			 "cosmo_total_nonelectrostatic_energy": 5.33, 
			 "SMD_solvation_energy": 0.83 
		},
		"coords": [
			{
				"x": -0.1434319228,
				"y": 1.078372442,
				"z": -1.1541491027,
				"element": "N" 
			},
			{
				"x": -0.1204425082,
				"y": -0.2771702633,
				"z": -1.354154604,
				"element": "C" 
			},
			{
				"x": -1.2233768946,
				"y": -1.1066309227,
				"z": -1.0709812703,
				"element": "C" 
			},
			{
				"x": -2.8621701557,
				"y": -0.337285709,
				"z": -0.445881773,
				"element": "Br" 
			},
			{
				"x": -1.1361925829,
				"y": -2.4833190162,
				"z": -1.2478654312,
				"element": "C" 
			},
			{
				"x": -0.0364525876,
				"y": -3.102908421,
				"z": -1.6877490737,
				"element": "N" 
			},
			{
				"x": 1.0189050139,
				"y": -2.321673479,
				"z": -1.9637608758,
				"element": "C" 
			},
			{
				"x": 1.0319805439,
				"y": -0.9416251966,
				"z": -1.8204843126,
				"element": "C" 
			},
			{
				"x": 0.5595822143,
				"y": 1.6330507937,
				"z": -1.6167149135,
				"element": "H" 
			},
			{
				"x": -1.0460712764,
				"y": 1.5154270605,
				"z": -1.0388293544,
				"element": "H" 
			},
			{
				"x": -1.9996161073,
				"y": -3.1056798372,
				"z": -1.0243798794,
				"element": "H" 
			},
			{
				"x": 1.9104530208,
				"y": -2.83216585,
				"z": -2.3233980829,
				"element": "H" 
			},
			{
				"x": 1.9253332425,
				"y": -0.3710916012,
				"z": -2.0595513264,
				"element": "H" 
			}
		],
		 "valence_orbital": [ 
			{
				"type": "occ",
				"energy": -0.3218,
				"method": "rhf"
			},
			{
				"type": "occ",
				"energy": -0.30215,
				"method": "rhf"
			},
			{
				"type": "occ",
				"energy": -0.25498,
				"method": "rhf"
			},
			{
				"type": "occ",
				"energy": -0.25404,
				"method": "rhf"
			},
			{
				"type": "occ",
				"energy": -0.23034,
				"method": "rhf"
			},
			{
				"type": "unocc",
				"energy": -0.01465,
				"method": "rhf"
			},
			{
				"type": "unocc",
				"energy": -0.00863,
				"method": "rhf"
			},
			{
				"type": "unocc",
				"energy": 0.00367,
				"method": "rhf"
			},
			{
				"type": "unocc",
				"energy": 0.07313,
				"method": "rhf"
			},
			{
				"type": "unocc",
				"energy": 0.11132,
				"method": "rhf"
			}
		],
		"cosmo_sigma_profile": { 
			"-0.025": 0.0,
			"-0.024": 0.0,
			"-0.023": 0.0,
			"-0.022": 0.0,
			"-0.021": 0.0,
			"-0.02": 0.0,
			"-0.019": 0.0,
			"-0.018": 0.0,
			"-0.017": 0.0,
			"-0.016": 0.0,
			"-0.015": 0.0109139393097,
			"-0.014": 1.20241124477,
			"-0.013": 1.77867140815,
			"-0.012": 2.47097843505,
			"-0.011": 2.50622395806,
			"-0.01": 2.10583210096,
			"-0.009": 2.69536544198,
			"-0.008": 2.83910773615,
			"-0.007": 4.76180573059,
			"-0.006": 6.16899674717,
			"-0.005": 7.10885285025,
			"-0.004": 7.95242562319,
			"-0.003": 6.98069836045,
			"-0.002": 7.29357623925,
			"-0.001": 7.43121790952,
			"0.0": 9.86812676802,
			"0.001": 14.3886672715,
			"0.002": 18.9485280692,
			"0.003": 16.0626013961,
			"0.004": 12.1929426382,
			"0.005": 5.22588950606,
			"0.006": 2.12525612601,
			"0.007": 2.21257118465,
			"0.008": 2.35196558421,
			"0.009": 1.63308772973,
			"0.01": 1.57930378278,
			"0.011": 1.18277051529,
			"0.012": 0.991186073029,
			"0.013": 0.896916028632,
			"0.014": 1.20409135962,
			"0.015": 0.628094871753,
			"0.016": 1.16597939924,
			"0.017": 0.514820989179,
			"0.018": 0.0,
			"0.019": 0.0,
			"0.02": 0.0,
			"0.021": 0.0,
			"0.022": 0.0,
			"0.023": 0.0,
			"0.024": 0.0,
			"0.025": 0.0
		}
	}
}
