{
	 "smiles": "CC(C)OC1=C(N)C=C(C=C1)S(=O)(=O)N(C)C", 
	 "Tm": 385.15, 
	 "num_atms": 35, 
	 "gaussian": { 
		 "optdone": 1, 
		 "sigma_profile": "yes", 
		 "theory": "DFT", 
		 "functional": "B3LYP", 
		 "basiset": "6-31G**", 
		 "properties": { 
			 "R2extent": 6128.6837, 
			 "electric_dipole_moment_norm": 6.80977741854, 
			 "electric_quadrupole_moment_norm": 24.3834085171, 
			 "total_energy": -1163.31036516, 
			 "HOMO_LUMO_gap": 0.18785, 
			 "cosmo_polarized_energy": -17.81, 
			 "cosmo_cavitation_energy": 37.72, 
			 "cosmo_dispersion_energy": -26.47, 
			 "cosmo_repulsion_energy": 2.02, 
			 "cosmo_total_nonelectrostatic_energy": 13.27, 
			 "SMD_solvation_energy": 5.03 
		},
		"coords": [
			{
				"x": -0.9849592619,
				"y": 1.3426652965,
				"z": -3.1652863771,
				"element": "C" 
			},
			{
				"x": 0.3507598965,
				"y": 1.3751880505,
				"z": -3.9050311213,
				"element": "C" 
			},
			{
				"x": 0.9673974204,
				"y": 2.7724896498,
				"z": -3.9549503619,
				"element": "C" 
			},
			{
				"x": 1.2946027217,
				"y": 0.3873773127,
				"z": -3.3935012095,
				"element": "O" 
			},
			{
				"x": 1.489222527,
				"y": 0.2690056328,
				"z": -2.0341768557,
				"element": "C" 
			},
			{
				"x": 0.9670367057,
				"y": -0.8937243228,
				"z": -1.4157737467,
				"element": "C" 
			},
			{
				"x": 0.2069921367,
				"y": -1.7798768802,
				"z": -2.1715645036,
				"element": "N" 
			},
			{
				"x": 1.2088383168,
				"y": -1.0947747028,
				"z": -0.0508607354,
				"element": "C" 
			},
			{
				"x": 1.9599074132,
				"y": -0.1628328252,
				"z": 0.668331291,
				"element": "C" 
			},
			{
				"x": 2.5004037459,
				"y": 0.9701641278,
				"z": 0.0581606875,
				"element": "C" 
			},
			{
				"x": 2.2648371554,
				"y": 1.1689479182,
				"z": -1.3039378445,
				"element": "C" 
			},
			{
				"x": 2.2034460886,
				"y": -0.4200992124,
				"z": 2.4291702751,
				"element": "S" 
			},
			{
				"x": 2.0228607938,
				"y": -1.8493209563,
				"z": 2.6971047118,
				"element": "O" 
			},
			{
				"x": 3.420676936,
				"y": 0.2956055218,
				"z": 2.8176411696,
				"element": "O" 
			},
			{
				"x": 0.9268999274,
				"y": 0.3668245669,
				"z": 3.218168584,
				"element": "N" 
			},
			{
				"x": -0.3978489647,
				"y": -0.2341507269,
				"z": 3.054263009,
				"element": "C" 
			},
			{
				"x": 0.9494196919,
				"y": 1.8299025162,
				"z": 3.175148314,
				"element": "C" 
			},
			{
				"x": -1.393559293,
				"y": 0.3296331588,
				"z": -3.1350948282,
				"element": "H" 
			},
			{
				"x": -0.8757687423,
				"y": 1.6995683991,
				"z": -2.1363843109,
				"element": "H" 
			},
			{
				"x": -1.7026639007,
				"y": 1.9948587219,
				"z": -3.6730756849,
				"element": "H" 
			},
			{
				"x": 0.1983725611,
				"y": 1.0277723451,
				"z": -4.9326727531,
				"element": "H" 
			},
			{
				"x": 0.3216989228,
				"y": 3.4419547436,
				"z": -4.5333006354,
				"element": "H" 
			},
			{
				"x": 1.0773917918,
				"y": 3.2007367337,
				"z": -2.9541881309,
				"element": "H" 
			},
			{
				"x": 1.9490233339,
				"y": 2.7428388528,
				"z": -4.4361010794,
				"element": "H" 
			},
			{
				"x": 0.3988645042,
				"y": -1.7170237486,
				"z": -3.1630522388,
				"element": "H" 
			},
			{
				"x": 0.187414508,
				"y": -2.7304690387,
				"z": -1.8288835192,
				"element": "H" 
			},
			{
				"x": 0.8424140721,
				"y": -1.9875861626,
				"z": 0.4452991607,
				"element": "H" 
			},
			{
				"x": 3.1257660755,
				"y": 1.6502622842,
				"z": 0.6238886138,
				"element": "H" 
			},
			{
				"x": 2.7113599692,
				"y": 2.0128705631,
				"z": -1.8171841326,
				"element": "H" 
			},
			{
				"x": -0.3210787161,
				"y": -1.3143307442,
				"z": 3.175427343,
				"element": "H" 
			},
			{
				"x": -1.0472731917,
				"y": 0.1585218504,
				"z": 3.8423528168,
				"element": "H" 
			},
			{
				"x": -0.854201704,
				"y": -0.0040124316,
				"z": 2.0787888005,
				"element": "H" 
			},
			{
				"x": 0.605847292,
				"y": 2.234319782,
				"z": 2.2101551951,
				"element": "H" 
			},
			{
				"x": 0.287407628,
				"y": 2.2016594637,
				"z": 3.9629015052,
				"element": "H" 
			},
			{
				"x": 1.9607916389,
				"y": 2.1809342605,
				"z": 3.3782185919,
				"element": "H" 
			}
		],
		 "valence_orbital": [ 
			{
				"type": "occ",
				"energy": -0.29172,
				"method": "rhf"
			},
			{
				"type": "occ",
				"energy": -0.2851,
				"method": "rhf"
			},
			{
				"type": "occ",
				"energy": -0.26176,
				"method": "rhf"
			},
			{
				"type": "occ",
				"energy": -0.24527,
				"method": "rhf"
			},
			{
				"type": "occ",
				"energy": -0.2141,
				"method": "rhf"
			},
			{
				"type": "unocc",
				"energy": -0.02625,
				"method": "rhf"
			},
			{
				"type": "unocc",
				"energy": -0.00416,
				"method": "rhf"
			},
			{
				"type": "unocc",
				"energy": 0.06791,
				"method": "rhf"
			},
			{
				"type": "unocc",
				"energy": 0.07098,
				"method": "rhf"
			},
			{
				"type": "unocc",
				"energy": 0.08591,
				"method": "rhf"
			}
		],
		"cosmo_sigma_profile": { 
			"-0.025": 0.0,
			"-0.024": 0.0,
			"-0.023": 0.0,
			"-0.022": 0.0,
			"-0.021": 0.0,
			"-0.02": 0.0,
			"-0.019": 0.0,
			"-0.018": 0.0,
			"-0.017": 0.0,
			"-0.016": 0.0,
			"-0.015": 0.0,
			"-0.014": 0.0242066168194,
			"-0.013": 0.906949977253,
			"-0.012": 1.74979752487,
			"-0.011": 1.91416069179,
			"-0.01": 2.29977720298,
			"-0.009": 2.92337863511,
			"-0.008": 2.80946139423,
			"-0.007": 2.94018775456,
			"-0.006": 9.80078781022,
			"-0.005": 12.9143948365,
			"-0.004": 29.6855465825,
			"-0.003": 35.1002919999,
			"-0.002": 39.2504901647,
			"-0.001": 24.1744769312,
			"0.0": 21.665276554,
			"0.001": 15.771369284,
			"0.002": 12.6247370868,
			"0.003": 14.5889790643,
			"0.004": 9.90186937046,
			"0.005": 8.01766663705,
			"0.006": 5.60864850308,
			"0.007": 5.91764348869,
			"0.008": 5.55770280775,
			"0.009": 6.54914636801,
			"0.01": 7.9366660915,
			"0.011": 8.4450459377,
			"0.012": 6.73391938725,
			"0.013": 0.105437482819,
			"0.014": 0.0,
			"0.015": 0.0,
			"0.016": 0.0,
			"0.017": 0.0,
			"0.018": 0.0,
			"0.019": 0.0,
			"0.02": 0.0,
			"0.021": 0.0,
			"0.022": 0.0,
			"0.023": 0.0,
			"0.024": 0.0,
			"0.025": 0.0
		}
	}
}
