{
	 "smiles": "BrC1=CC=C(C=C1)C1CNCCO1", 
	 "Tm": 327.15, 
	 "num_atms": 25, 
	 "gaussian": { 
		 "optdone": 1, 
		 "sigma_profile": "yes", 
		 "theory": "DFT", 
		 "functional": "B3LYP", 
		 "basiset": "6-31G**", 
		 "properties": { 
			 "R2extent": 8156.0083, 
			 "electric_dipole_moment_norm": 2.9043224029, 
			 "electric_quadrupole_moment_norm": 10.2990313083, 
			 "total_energy": -3089.64888242, 
			 "HOMO_LUMO_gap": 0.20468, 
			 "cosmo_polarized_energy": -9.08, 
			 "cosmo_cavitation_energy": 29.61, 
			 "cosmo_dispersion_energy": -22.28, 
			 "cosmo_repulsion_energy": 1.76, 
			 "cosmo_total_nonelectrostatic_energy": 9.09, 
			 "SMD_solvation_energy": 0.92 
		},
		"coords": [
			{
				"x": -4.6659690303,
				"y": 4.3917328628,
				"z": -1.5396714137,
				"element": "Br" 
			},
			{
				"x": -3.3176611839,
				"y": 3.1011807051,
				"z": -1.1176392469,
				"element": "C" 
			},
			{
				"x": -1.9939682346,
				"y": 3.3521059266,
				"z": -1.4758733542,
				"element": "C" 
			},
			{
				"x": -1.0198083794,
				"y": 2.4033616494,
				"z": -1.1681917055,
				"element": "C" 
			},
			{
				"x": -1.3497268635,
				"y": 1.2151797739,
				"z": -0.5042809219,
				"element": "C" 
			},
			{
				"x": -2.6863025058,
				"y": 0.9860261757,
				"z": -0.1613221138,
				"element": "C" 
			},
			{
				"x": -3.6746191642,
				"y": 1.9229369099,
				"z": -0.4655715001,
				"element": "C" 
			},
			{
				"x": -0.2607978611,
				"y": 0.2333102125,
				"z": -0.1220105499,
				"element": "C" 
			},
			{
				"x": 0.433656124,
				"y": 0.6270092612,
				"z": 1.1989479308,
				"element": "C" 
			},
			{
				"x": 1.4832112034,
				"y": -0.3135839576,
				"z": 1.6039650217,
				"element": "N" 
			},
			{
				"x": 1.2074072805,
				"y": -1.7058674116,
				"z": 1.2078242,
				"element": "C" 
			},
			{
				"x": -0.2926880163,
				"y": -1.8979214106,
				"z": 1.0267262488,
				"element": "C" 
			},
			{
				"x": -0.8178592921,
				"y": -1.0826556645,
				"z": -0.0218885483,
				"element": "O" 
			},
			{
				"x": -1.7318266717,
				"y": 4.2684057544,
				"z": -1.9925049534,
				"element": "H" 
			},
			{
				"x": 0.0115450279,
				"y": 2.5923389974,
				"z": -1.4578106817,
				"element": "H" 
			},
			{
				"x": -2.951087037,
				"y": 0.0552059741,
				"z": 0.327604217,
				"element": "H" 
			},
			{
				"x": -4.7100630138,
				"y": 1.7381743559,
				"z": -0.2023200222,
				"element": "H" 
			},
			{
				"x": 0.5028903313,
				"y": 0.2320258295,
				"z": -0.9181025357,
				"element": "H" 
			},
			{
				"x": -0.3353924644,
				"y": 0.6936477765,
				"z": 1.9800535328,
				"element": "H" 
			},
			{
				"x": 0.864853354,
				"y": 1.6278210794,
				"z": 1.1056470302,
				"element": "H" 
			},
			{
				"x": 2.3760162802,
				"y": -0.0196434096,
				"z": 1.2234761424,
				"element": "H" 
			},
			{
				"x": 1.7020515919,
				"y": -1.9831790292,
				"z": 0.2632690944,
				"element": "H" 
			},
			{
				"x": 1.5726330164,
				"y": -2.3974246755,
				"z": 1.9792429071,
				"element": "H" 
			},
			{
				"x": -0.5153766061,
				"y": -2.9313072122,
				"z": 0.7454981806,
				"element": "H" 
			},
			{
				"x": -0.8095178853,
				"y": -1.6915804734,
				"z": 1.9762330415,
				"element": "H" 
			}
		],
		 "valence_orbital": [ 
			{
				"type": "occ",
				"energy": -0.28346,
				"method": "rhf"
			},
			{
				"type": "occ",
				"energy": -0.26025,
				"method": "rhf"
			},
			{
				"type": "occ",
				"energy": -0.25845,
				"method": "rhf"
			},
			{
				"type": "occ",
				"energy": -0.2395,
				"method": "rhf"
			},
			{
				"type": "occ",
				"energy": -0.21823,
				"method": "rhf"
			},
			{
				"type": "unocc",
				"energy": -0.01355,
				"method": "rhf"
			},
			{
				"type": "unocc",
				"energy": -0.01051,
				"method": "rhf"
			},
			{
				"type": "unocc",
				"energy": 0.01093,
				"method": "rhf"
			},
			{
				"type": "unocc",
				"energy": 0.06912,
				"method": "rhf"
			},
			{
				"type": "unocc",
				"energy": 0.1029,
				"method": "rhf"
			}
		],
		"cosmo_sigma_profile": { 
			"-0.025": 0.0,
			"-0.024": 0.0,
			"-0.023": 0.0,
			"-0.022": 0.0,
			"-0.021": 0.0,
			"-0.02": 0.0,
			"-0.019": 0.0,
			"-0.018": 0.0,
			"-0.017": 0.0,
			"-0.016": 0.0,
			"-0.015": 0.0,
			"-0.014": 0.0,
			"-0.013": 0.0,
			"-0.012": 0.0,
			"-0.011": 0.162771910663,
			"-0.01": 1.40633619655,
			"-0.009": 1.57012169983,
			"-0.008": 1.4625090062,
			"-0.007": 3.98332392815,
			"-0.006": 10.0477909567,
			"-0.005": 16.0359439889,
			"-0.004": 20.3098287739,
			"-0.003": 27.1285006521,
			"-0.002": 20.4897387536,
			"-0.001": 18.5857640027,
			"0.0": 14.5227924508,
			"0.001": 12.6711747505,
			"0.002": 17.41801992,
			"0.003": 18.0330685631,
			"0.004": 23.2047787307,
			"0.005": 13.1965355302,
			"0.006": 2.18478455778,
			"0.007": 1.67647107153,
			"0.008": 2.17890394734,
			"0.009": 1.30455283647,
			"0.01": 1.66646828747,
			"0.011": 1.66181721812,
			"0.012": 1.56039245248,
			"0.013": 1.55446477682,
			"0.014": 0.826972697467,
			"0.015": 0.328701250028,
			"0.016": 0.642318408923,
			"0.017": 0.554859803792,
			"0.018": 0.333486194193,
			"0.019": 0.0,
			"0.02": 0.0,
			"0.021": 0.0,
			"0.022": 0.0,
			"0.023": 0.0,
			"0.024": 0.0,
			"0.025": 0.0
		}
	}
}
