{
	 "smiles": "CC(C)(C)CC(O)C(O)=O", 
	 "Tm": 345.15, 
	 "num_atms": 24, 
	 "gaussian": { 
		 "optdone": 1, 
		 "sigma_profile": "yes", 
		 "theory": "DFT", 
		 "functional": "B3LYP", 
		 "basiset": "6-31G**", 
		 "properties": { 
			 "R2extent": 1921.7058, 
			 "electric_dipole_moment_norm": 2.20134110487, 
			 "electric_quadrupole_moment_norm": 5.09172265152, 
			 "total_energy": -500.875582181, 
			 "HOMO_LUMO_gap": 0.25992, 
			 "cosmo_polarized_energy": -9.22, 
			 "cosmo_cavitation_energy": 25.18, 
			 "cosmo_dispersion_energy": -17.95, 
			 "cosmo_repulsion_energy": 1.45, 
			 "cosmo_total_nonelectrostatic_energy": 8.68, 
			 "SMD_solvation_energy": 5.41 
		},
		"coords": [
			{
				"x": 1.1080036443,
				"y": -1.4433941947,
				"z": 2.9594533795,
				"element": "C" 
			},
			{
				"x": 0.479844645,
				"y": -0.8573033006,
				"z": 1.6771340995,
				"element": "C" 
			},
			{
				"x": -0.1571026359,
				"y": -2.0026780589,
				"z": 0.8676840143,
				"element": "C" 
			},
			{
				"x": -0.6116079541,
				"y": 0.1540636183,
				"z": 2.0837935241,
				"element": "C" 
			},
			{
				"x": 1.6256141721,
				"y": -0.157798617,
				"z": 0.8918545692,
				"element": "C" 
			},
			{
				"x": 1.396445184,
				"y": 0.2910336662,
				"z": -0.5667151455,
				"element": "C" 
			},
			{
				"x": 0.267403283,
				"y": 1.1214414082,
				"z": -0.7114368302,
				"element": "O" 
			},
			{
				"x": 1.312636743,
				"y": -0.8369438818,
				"z": -1.590111036,
				"element": "C" 
			},
			{
				"x": 2.3217651416,
				"y": -1.722628919,
				"z": -1.5071531648,
				"element": "O" 
			},
			{
				"x": 0.4500151072,
				"y": -0.8894901414,
				"z": -2.4455209831,
				"element": "O" 
			},
			{
				"x": 0.340326564,
				"y": -1.9032360064,
				"z": 3.5916925119,
				"element": "H" 
			},
			{
				"x": 1.8546343721,
				"y": -2.2113431167,
				"z": 2.7258985783,
				"element": "H" 
			},
			{
				"x": 1.6023221349,
				"y": -0.6642863401,
				"z": 3.5512911698,
				"element": "H" 
			},
			{
				"x": 0.5932336679,
				"y": -2.7337851264,
				"z": 0.5458284238,
				"element": "H" 
			},
			{
				"x": -0.6775260298,
				"y": -1.6290777538,
				"z": -0.0192931092,
				"element": "H" 
			},
			{
				"x": -0.895406629,
				"y": -2.534239767,
				"z": 1.4781715833,
				"element": "H" 
			},
			{
				"x": -1.3901896877,
				"y": -0.3429295055,
				"z": 2.67443606,
				"element": "H" 
			},
			{
				"x": -0.1889596887,
				"y": 0.9562782698,
				"z": 2.7000110593,
				"element": "H" 
			},
			{
				"x": -1.0714693994,
				"y": 0.6148614619,
				"z": 1.2086358759,
				"element": "H" 
			},
			{
				"x": 1.9208708758,
				"y": 0.7376806422,
				"z": 1.4517917202,
				"element": "H" 
			},
			{
				"x": 2.5049115384,
				"y": -0.8128945187,
				"z": 0.8769457954,
				"element": "H" 
			},
			{
				"x": 2.3102662332,
				"y": 0.8425139191,
				"z": -0.8580013871,
				"element": "H" 
			},
			{
				"x": -0.1751035683,
				"y": 0.8338860635,
				"z": -1.5276579075,
				"element": "H" 
			},
			{
				"x": 2.1928722865,
				"y": -2.3602298014,
				"z": -2.2298328009,
				"element": "H" 
			}
		],
		 "valence_orbital": [ 
			{
				"type": "occ",
				"energy": -0.3205,
				"method": "rhf"
			},
			{
				"type": "occ",
				"energy": -0.31828,
				"method": "rhf"
			},
			{
				"type": "occ",
				"energy": -0.31338,
				"method": "rhf"
			},
			{
				"type": "occ",
				"energy": -0.29474,
				"method": "rhf"
			},
			{
				"type": "occ",
				"energy": -0.26575,
				"method": "rhf"
			},
			{
				"type": "unocc",
				"energy": -0.00583,
				"method": "rhf"
			},
			{
				"type": "unocc",
				"energy": 0.05883,
				"method": "rhf"
			},
			{
				"type": "unocc",
				"energy": 0.08171,
				"method": "rhf"
			},
			{
				"type": "unocc",
				"energy": 0.11403,
				"method": "rhf"
			},
			{
				"type": "unocc",
				"energy": 0.12336,
				"method": "rhf"
			}
		],
		"cosmo_sigma_profile": { 
			"-0.025": 0.0,
			"-0.024": 0.0,
			"-0.023": 0.0,
			"-0.022": 0.0,
			"-0.021": 0.0,
			"-0.02": 0.0,
			"-0.019": 0.535617477389,
			"-0.018": 0.903031433049,
			"-0.017": 1.02149691178,
			"-0.016": 1.08713178519,
			"-0.015": 0.710508206365,
			"-0.014": 0.279662892071,
			"-0.013": 0.427331934973,
			"-0.012": 0.608989529965,
			"-0.011": 1.8108520874,
			"-0.01": 1.10947607217,
			"-0.009": 1.14173380776,
			"-0.008": 0.981385442984,
			"-0.007": 3.15429629143,
			"-0.006": 4.14451123814,
			"-0.005": 4.57963792454,
			"-0.004": 4.40263377962,
			"-0.003": 12.2896505372,
			"-0.002": 27.7893143857,
			"-0.001": 23.920041665,
			"0.0": 21.0088873236,
			"0.001": 23.8563083599,
			"0.002": 20.1638101481,
			"0.003": 5.96816269469,
			"0.004": 3.48615580667,
			"0.005": 3.25723458598,
			"0.006": 4.5219975225,
			"0.007": 3.11154008916,
			"0.008": 3.38330593578,
			"0.009": 3.13372467892,
			"0.01": 4.0471188412,
			"0.011": 3.42883716004,
			"0.012": 1.76993506901,
			"0.013": 1.04572921143,
			"0.014": 0.835678349366,
			"0.015": 0.0381128058407,
			"0.016": 0.0,
			"0.017": 0.0,
			"0.018": 0.0,
			"0.019": 0.0,
			"0.02": 0.0,
			"0.021": 0.0,
			"0.022": 0.0,
			"0.023": 0.0,
			"0.024": 0.0,
			"0.025": 0.0
		}
	}
}
