{
	 "smiles": "NNC(=O)C(F)(F)OC1=CC=CC=C1", 
	 "Tm": 350.15, 
	 "num_atms": 22, 
	 "gaussian": { 
		 "optdone": 1, 
		 "sigma_profile": "yes", 
		 "theory": "DFT", 
		 "functional": "B3LYP", 
		 "basiset": "6-31G**", 
		 "properties": { 
			 "R2extent": 3696.634, 
			 "electric_dipole_moment_norm": 0.660853054771, 
			 "electric_quadrupole_moment_norm": 7.08673778829, 
			 "total_energy": -769.270954809, 
			 "HOMO_LUMO_gap": 0.23337, 
			 "cosmo_polarized_energy": -11.43, 
			 "cosmo_cavitation_energy": 27.63, 
			 "cosmo_dispersion_energy": -19.93, 
			 "cosmo_repulsion_energy": 1.55, 
			 "cosmo_total_nonelectrostatic_energy": 9.26, 
			 "SMD_solvation_energy": 6.76 
		},
		"coords": [
			{
				"x": 2.7305036436,
				"y": 2.1642010268,
				"z": 1.8177758619,
				"element": "N" 
			},
			{
				"x": 1.5408946013,
				"y": 1.9581993226,
				"z": 1.096609943,
				"element": "N" 
			},
			{
				"x": 1.5053373967,
				"y": 1.2125273664,
				"z": -0.031575285,
				"element": "C" 
			},
			{
				"x": 2.4798031263,
				"y": 0.6612914893,
				"z": -0.5232311997,
				"element": "O" 
			},
			{
				"x": 0.1037970632,
				"y": 1.0834458439,
				"z": -0.6831810656,
				"element": "C" 
			},
			{
				"x": 0.1719797644,
				"y": 1.5598649837,
				"z": -1.9473661635,
				"element": "F" 
			},
			{
				"x": -0.7959887292,
				"y": 1.8652965833,
				"z": -0.005541875,
				"element": "F" 
			},
			{
				"x": -0.374987074,
				"y": -0.1983021452,
				"z": -0.6350007512,
				"element": "O" 
			},
			{
				"x": -0.3575051497,
				"y": -1.0366573519,
				"z": -1.7591942103,
				"element": "C" 
			},
			{
				"x": 0.8030067741,
				"y": -1.2690851927,
				"z": -2.4953106598,
				"element": "C" 
			},
			{
				"x": 0.7465580153,
				"y": -2.172382391,
				"z": -3.5579524815,
				"element": "C" 
			},
			{
				"x": -0.4406531918,
				"y": -2.8402435408,
				"z": -3.8665074276,
				"element": "C" 
			},
			{
				"x": -1.5875149925,
				"y": -2.6006456261,
				"z": -3.1073103705,
				"element": "C" 
			},
			{
				"x": -1.5522344611,
				"y": -1.6904425699,
				"z": -2.0500957443,
				"element": "C" 
			},
			{
				"x": 3.0901573127,
				"y": 1.2477639803,
				"z": 2.0845751781,
				"element": "H" 
			},
			{
				"x": 3.4178628193,
				"y": 2.5510465168,
				"z": 1.1711096253,
				"element": "H" 
			},
			{
				"x": 0.7124300977,
				"y": 2.4118413118,
				"z": 1.4497603886,
				"element": "H" 
			},
			{
				"x": 1.7204320701,
				"y": -0.7566770275,
				"z": -2.2282887711,
				"element": "H" 
			},
			{
				"x": 1.6430874865,
				"y": -2.3591209615,
				"z": -4.1419473175,
				"element": "H" 
			},
			{
				"x": -0.4708828992,
				"y": -3.5451139735,
				"z": -4.6918865299,
				"element": "H" 
			},
			{
				"x": -2.5148351035,
				"y": -3.116429358,
				"z": -3.3386300232,
				"element": "H" 
			},
			{
				"x": -2.4306485705,
				"y": -1.4825782869,
				"z": -1.4485111213,
				"element": "H" 
			}
		],
		 "valence_orbital": [ 
			{
				"type": "occ",
				"energy": -0.29536,
				"method": "rhf"
			},
			{
				"type": "occ",
				"energy": -0.28368,
				"method": "rhf"
			},
			{
				"type": "occ",
				"energy": -0.27636,
				"method": "rhf"
			},
			{
				"type": "occ",
				"energy": -0.25323,
				"method": "rhf"
			},
			{
				"type": "occ",
				"energy": -0.24044,
				"method": "rhf"
			},
			{
				"type": "unocc",
				"energy": -0.00707,
				"method": "rhf"
			},
			{
				"type": "unocc",
				"energy": -0.00384,
				"method": "rhf"
			},
			{
				"type": "unocc",
				"energy": 0.00097,
				"method": "rhf"
			},
			{
				"type": "unocc",
				"energy": 0.07233,
				"method": "rhf"
			},
			{
				"type": "unocc",
				"energy": 0.08949,
				"method": "rhf"
			}
		],
		"cosmo_sigma_profile": { 
			"-0.025": 0.0,
			"-0.024": 0.0,
			"-0.023": 0.0,
			"-0.022": 0.0,
			"-0.021": 0.0,
			"-0.02": 0.0,
			"-0.019": 0.0,
			"-0.018": 0.0,
			"-0.017": 0.0,
			"-0.016": 0.0,
			"-0.015": 0.375978612858,
			"-0.014": 0.917186331018,
			"-0.013": 0.670641466283,
			"-0.012": 3.13010049073,
			"-0.011": 3.15412225669,
			"-0.01": 3.75885935035,
			"-0.009": 3.07705523217,
			"-0.008": 3.40775137761,
			"-0.007": 3.84535509014,
			"-0.006": 10.7899298508,
			"-0.005": 12.3556663303,
			"-0.004": 15.4914015546,
			"-0.003": 12.0292174701,
			"-0.002": 11.9353352891,
			"-0.001": 11.4117135739,
			"0.0": 10.7279690399,
			"0.001": 12.9226929882,
			"0.002": 21.2712018988,
			"0.003": 27.1933314653,
			"0.004": 18.5063306206,
			"0.005": 10.9870160817,
			"0.006": 3.45340942849,
			"0.007": 3.59610977716,
			"0.008": 2.91325703532,
			"0.009": 2.46714778686,
			"0.01": 2.04510025067,
			"0.011": 2.72742244215,
			"0.012": 3.23593811031,
			"0.013": 0.722163783905,
			"0.014": 0.526546311556,
			"0.015": 0.71283954146,
			"0.016": 0.215388169966,
			"0.017": 0.0,
			"0.018": 0.0,
			"0.019": 0.0,
			"0.02": 0.0,
			"0.021": 0.0,
			"0.022": 0.0,
			"0.023": 0.0,
			"0.024": 0.0,
			"0.025": 0.0
		}
	}
}
