{
	 "smiles": "CCC1=CC(=O)NC(=N1)C1=CN=C(Cl)C=C1", 
	 "Tm": 482.15, 
	 "num_atms": 26, 
	 "gaussian": { 
		 "optdone": 1, 
		 "sigma_profile": "yes", 
		 "theory": "DFT", 
		 "functional": "B3LYP", 
		 "basiset": "6-31G**", 
		 "properties": { 
			 "R2extent": 6148.1948, 
			 "electric_dipole_moment_norm": 0.501916845703, 
			 "electric_quadrupole_moment_norm": 24.3999818287, 
			 "total_energy": -1124.89108068, 
			 "HOMO_LUMO_gap": 0.15961, 
			 "cosmo_polarized_energy": -16.78, 
			 "cosmo_cavitation_energy": 32.75, 
			 "cosmo_dispersion_energy": -23.89, 
			 "cosmo_repulsion_energy": 1.87, 
			 "cosmo_total_nonelectrostatic_energy": 10.73, 
			 "SMD_solvation_energy": 3.68 
		},
		"coords": [
			{
				"x": 2.8701445933,
				"y": 2.0004328273,
				"z": -0.8096149727,
				"element": "C" 
			},
			{
				"x": 1.5162882444,
				"y": 2.0014104135,
				"z": -1.5394252693,
				"element": "C" 
			},
			{
				"x": 0.3731526206,
				"y": 1.6116451501,
				"z": -0.6356999621,
				"element": "C" 
			},
			{
				"x": -0.61959813,
				"y": 2.4883309627,
				"z": -0.2902892187,
				"element": "C" 
			},
			{
				"x": -1.6835550227,
				"y": 2.0924681689,
				"z": 0.605309079,
				"element": "C" 
			},
			{
				"x": -2.6181812425,
				"y": 2.7630789379,
				"z": 1.0199479376,
				"element": "O" 
			},
			{
				"x": -1.5470453465,
				"y": 0.7412915851,
				"z": 1.0202342961,
				"element": "N" 
			},
			{
				"x": -0.5409097035,
				"y": -0.0887328323,
				"z": 0.6182615409,
				"element": "C" 
			},
			{
				"x": 0.4117619754,
				"y": 0.3080775624,
				"z": -0.1840061576,
				"element": "N" 
			},
			{
				"x": -0.5379273784,
				"y": -1.4847533167,
				"z": 1.1120757928,
				"element": "C" 
			},
			{
				"x": 0.6518035765,
				"y": -2.2276793195,
				"z": 1.0603796304,
				"element": "C" 
			},
			{
				"x": 0.7554803411,
				"y": -3.4904845872,
				"z": 1.4835782974,
				"element": "N" 
			},
			{
				"x": -0.3324855062,
				"y": -4.0639167979,
				"z": 1.9705232231,
				"element": "C" 
			},
			{
				"x": -0.174283729,
				"y": -5.7241206579,
				"z": 2.5199869398,
				"element": "Cl" 
			},
			{
				"x": -1.5801231172,
				"y": -3.4414460843,
				"z": 2.0685066501,
				"element": "C" 
			},
			{
				"x": -1.6738478463,
				"y": -2.1273347845,
				"z": 1.6272968879,
				"element": "C" 
			},
			{
				"x": 3.0696468913,
				"y": 1.0183402636,
				"z": -0.3726505029,
				"element": "H" 
			},
			{
				"x": 2.8835555849,
				"y": 2.7414801563,
				"z": -0.003945821,
				"element": "H" 
			},
			{
				"x": 3.681201602,
				"y": 2.2387908372,
				"z": -1.5041809521,
				"element": "H" 
			},
			{
				"x": 1.31934135,
				"y": 2.9872189604,
				"z": -1.9724720237,
				"element": "H" 
			},
			{
				"x": 1.5539958914,
				"y": 1.281344541,
				"z": -2.3660249895,
				"element": "H" 
			},
			{
				"x": -0.6377184098,
				"y": 3.5064449442,
				"z": -0.6602431155,
				"element": "H" 
			},
			{
				"x": -2.2435632103,
				"y": 0.4399399077,
				"z": 1.69046447,
				"element": "H" 
			},
			{
				"x": 1.5490410616,
				"y": -1.7678328792,
				"z": 0.658819472,
				"element": "H" 
			},
			{
				"x": -2.4372669075,
				"y": -3.9720851402,
				"z": 2.4644796511,
				"element": "H" 
			},
			{
				"x": -2.6390081824,
				"y": -1.6300088184,
				"z": 1.6626891171,
				"element": "H" 
			}
		],
		 "valence_orbital": [ 
			{
				"type": "occ",
				"energy": -0.29716,
				"method": "rhf"
			},
			{
				"type": "occ",
				"energy": -0.28399,
				"method": "rhf"
			},
			{
				"type": "occ",
				"energy": -0.27873,
				"method": "rhf"
			},
			{
				"type": "occ",
				"energy": -0.26243,
				"method": "rhf"
			},
			{
				"type": "occ",
				"energy": -0.2404,
				"method": "rhf"
			},
			{
				"type": "unocc",
				"energy": -0.08079,
				"method": "rhf"
			},
			{
				"type": "unocc",
				"energy": -0.05287,
				"method": "rhf"
			},
			{
				"type": "unocc",
				"energy": -0.02675,
				"method": "rhf"
			},
			{
				"type": "unocc",
				"energy": 0.01019,
				"method": "rhf"
			},
			{
				"type": "unocc",
				"energy": 0.02077,
				"method": "rhf"
			}
		],
		"cosmo_sigma_profile": { 
			"-0.025": 0.0,
			"-0.024": 0.0,
			"-0.023": 0.0,
			"-0.022": 0.0,
			"-0.021": 0.0,
			"-0.02": 0.0,
			"-0.019": 0.0,
			"-0.018": 0.0623248033642,
			"-0.017": 0.697805897071,
			"-0.016": 1.18797145179,
			"-0.015": 1.08449941816,
			"-0.014": 0.911145839383,
			"-0.013": 1.38344774535,
			"-0.012": 1.31726139121,
			"-0.011": 1.62168453511,
			"-0.01": 1.90364940907,
			"-0.009": 3.60020868864,
			"-0.008": 4.25191175839,
			"-0.007": 5.48982068789,
			"-0.006": 6.76907706142,
			"-0.005": 8.88362981995,
			"-0.004": 12.5878384899,
			"-0.003": 20.5895526706,
			"-0.002": 29.2273066136,
			"-0.001": 34.5979243728,
			"0.0": 28.4560441059,
			"0.001": 20.0439786574,
			"0.002": 13.9381013471,
			"0.003": 12.1409765797,
			"0.004": 12.8922918299,
			"0.005": 6.50236976024,
			"0.006": 3.41426924252,
			"0.007": 4.11264172974,
			"0.008": 4.25550939605,
			"0.009": 1.9777678725,
			"0.01": 2.66205254479,
			"0.011": 3.36876463871,
			"0.012": 3.39125986669,
			"0.013": 5.92322449108,
			"0.014": 4.68159177441,
			"0.015": 0.605363942601,
			"0.016": 0.0,
			"0.017": 0.0,
			"0.018": 0.0,
			"0.019": 0.0,
			"0.02": 0.0,
			"0.021": 0.0,
			"0.022": 0.0,
			"0.023": 0.0,
			"0.024": 0.0,
			"0.025": 0.0
		}
	}
}
