{
	 "smiles": "OC(=O)C1=CC(=CC=C1)S(=O)(=O)NC1CC1", 
	 "Tm": 463.15, 
	 "num_atms": 27, 
	 "gaussian": { 
		 "optdone": 1, 
		 "sigma_profile": "yes", 
		 "theory": "DFT", 
		 "functional": "B3LYP", 
		 "basiset": "6-31G**", 
		 "properties": { 
			 "R2extent": 4469.6899, 
			 "electric_dipole_moment_norm": 4.85742286403, 
			 "electric_quadrupole_moment_norm": 22.6657759733, 
			 "total_energy": -1141.44278187, 
			 "HOMO_LUMO_gap": 0.19922, 
			 "cosmo_polarized_energy": -18.18, 
			 "cosmo_cavitation_energy": 33.05, 
			 "cosmo_dispersion_energy": -23.43, 
			 "cosmo_repulsion_energy": 1.8, 
			 "cosmo_total_nonelectrostatic_energy": 11.42, 
			 "SMD_solvation_energy": 5.3 
		},
		"coords": [
			{
				"x": 0.1841969284,
				"y": -4.8972192746,
				"z": -0.8395515751,
				"element": "O" 
			},
			{
				"x": -0.2559252565,
				"y": -3.6475869557,
				"z": -1.1260650891,
				"element": "C" 
			},
			{
				"x": -0.521901349,
				"y": -3.2945922133,
				"z": -2.2565618215,
				"element": "O" 
			},
			{
				"x": -0.3675115179,
				"y": -2.7817558732,
				"z": 0.0808118133,
				"element": "C" 
			},
			{
				"x": -0.8415227942,
				"y": -1.4753783781,
				"z": -0.0975118193,
				"element": "C" 
			},
			{
				"x": -0.9512755717,
				"y": -0.6420482616,
				"z": 1.0102945408,
				"element": "C" 
			},
			{
				"x": -0.6154148032,
				"y": -1.0831135459,
				"z": 2.2938082113,
				"element": "C" 
			},
			{
				"x": -0.1485137018,
				"y": -2.3859622029,
				"z": 2.4619724361,
				"element": "C" 
			},
			{
				"x": -0.0212111332,
				"y": -3.2340795067,
				"z": 1.3609154266,
				"element": "C" 
			},
			{
				"x": -1.5659907852,
				"y": 1.0326848658,
				"z": 0.7994419784,
				"element": "S" 
			},
			{
				"x": -2.2442414294,
				"y": 1.089046377,
				"z": -0.4992401205,
				"element": "O" 
			},
			{
				"x": -2.240492114,
				"y": 1.4339306902,
				"z": 2.0386762672,
				"element": "O" 
			},
			{
				"x": -0.1434760007,
				"y": 1.962618502,
				"z": 0.7728543878,
				"element": "N" 
			},
			{
				"x": 0.4740454551,
				"y": 2.20745906,
				"z": -0.5127821965,
				"element": "C" 
			},
			{
				"x": 1.9217738456,
				"y": 2.6256263888,
				"z": -0.4866513014,
				"element": "C" 
			},
			{
				"x": 1.5456673852,
				"y": 1.249925751,
				"z": -0.9731065144,
				"element": "C" 
			},
			{
				"x": 0.2178431069,
				"y": -5.3687162928,
				"z": -1.6881752391,
				"element": "H" 
			},
			{
				"x": -1.1276855575,
				"y": -1.1337966669,
				"z": -1.0855015054,
				"element": "H" 
			},
			{
				"x": -0.7364078921,
				"y": -0.4161684609,
				"z": 3.1405122646,
				"element": "H" 
			},
			{
				"x": 0.1112163841,
				"y": -2.7426454664,
				"z": 3.4536887667,
				"element": "H" 
			},
			{
				"x": 0.3402623123,
				"y": -4.2480477524,
				"z": 1.487891678,
				"element": "H" 
			},
			{
				"x": -0.3456775951,
				"y": 2.8066871268,
				"z": 1.306582481,
				"element": "H" 
			},
			{
				"x": -0.1652656057,
				"y": 2.6428389526,
				"z": -1.2778099755,
				"element": "H" 
			},
			{
				"x": 2.3992194845,
				"y": 2.6982186031,
				"z": 0.4852467382,
				"element": "H" 
			},
			{
				"x": 2.2404301844,
				"y": 3.3708346463,
				"z": -1.2084340917,
				"element": "H" 
			},
			{
				"x": 1.6028098327,
				"y": 1.0347813309,
				"z": -2.035100714,
				"element": "H" 
			},
			{
				"x": 1.775248188,
				"y": 0.413058557,
				"z": -0.3229050267,
				"element": "H" 
			}
		],
		 "valence_orbital": [ 
			{
				"type": "occ",
				"energy": -0.29433,
				"method": "rhf"
			},
			{
				"type": "occ",
				"energy": -0.28944,
				"method": "rhf"
			},
			{
				"type": "occ",
				"energy": -0.28801,
				"method": "rhf"
			},
			{
				"type": "occ",
				"energy": -0.27981,
				"method": "rhf"
			},
			{
				"type": "occ",
				"energy": -0.2659,
				"method": "rhf"
			},
			{
				"type": "unocc",
				"energy": -0.06668,
				"method": "rhf"
			},
			{
				"type": "unocc",
				"energy": -0.04091,
				"method": "rhf"
			},
			{
				"type": "unocc",
				"energy": 0.03168,
				"method": "rhf"
			},
			{
				"type": "unocc",
				"energy": 0.05523,
				"method": "rhf"
			},
			{
				"type": "unocc",
				"energy": 0.0714,
				"method": "rhf"
			}
		],
		"cosmo_sigma_profile": { 
			"-0.025": 0.0,
			"-0.024": 0.0,
			"-0.023": 0.0,
			"-0.022": 0.0,
			"-0.021": 0.0,
			"-0.02": 0.0,
			"-0.019": 0.239159223786,
			"-0.018": 1.2299904247,
			"-0.017": 0.542006820266,
			"-0.016": 1.07494168202,
			"-0.015": 0.950427544155,
			"-0.014": 1.36971659526,
			"-0.013": 0.874415879188,
			"-0.012": 2.45335167199,
			"-0.011": 1.88678509715,
			"-0.01": 1.12095608032,
			"-0.009": 1.35032003598,
			"-0.008": 4.40756193119,
			"-0.007": 8.79656634515,
			"-0.006": 8.7867604303,
			"-0.005": 15.4356446115,
			"-0.004": 16.8724131613,
			"-0.003": 18.8176759625,
			"-0.002": 20.6054515059,
			"-0.001": 24.9621175228,
			"0.0": 24.5091327744,
			"0.001": 21.6253104082,
			"0.002": 13.1698798412,
			"0.003": 8.4362643188,
			"0.004": 8.79538751472,
			"0.005": 5.64884360541,
			"0.006": 5.30852481111,
			"0.007": 6.83364845773,
			"0.008": 5.58800181695,
			"0.009": 4.79720441309,
			"0.01": 10.2571562783,
			"0.011": 12.8162185746,
			"0.012": 3.47661030186,
			"0.013": 0.0,
			"0.014": 0.0,
			"0.015": 0.0,
			"0.016": 0.0,
			"0.017": 0.0,
			"0.018": 0.0,
			"0.019": 0.0,
			"0.02": 0.0,
			"0.021": 0.0,
			"0.022": 0.0,
			"0.023": 0.0,
			"0.024": 0.0,
			"0.025": 0.0
		}
	}
}
