{
	 "smiles": "CC(=O)NC1=CC(NC(C)=O)=C(OCCO)C=C1OCCO", 
	 "Tm": 479.15, 
	 "num_atms": 42, 
	 "gaussian": { 
		 "optdone": 1, 
		 "sigma_profile": "yes", 
		 "theory": "DFT", 
		 "functional": "B3LYP", 
		 "basiset": "6-31G**", 
		 "properties": { 
			 "R2extent": 8979.7425, 
			 "electric_dipole_moment_norm": 8.58756448651, 
			 "electric_quadrupole_moment_norm": 19.2443618021, 
			 "total_energy": -1106.38703924, 
			 "HOMO_LUMO_gap": 0.18844, 
			 "cosmo_polarized_energy": -28.07, 
			 "cosmo_cavitation_energy": 45.47, 
			 "cosmo_dispersion_energy": -30.37, 
			 "cosmo_repulsion_energy": 2.38, 
			 "cosmo_total_nonelectrostatic_energy": 17.48, 
			 "SMD_solvation_energy": 9.95 
		},
		"coords": [
			{
				"x": -2.6687643753,
				"y": 3.8972590583,
				"z": 0.5713863879,
				"element": "C" 
			},
			{
				"x": -1.5778624495,
				"y": 2.8355434783,
				"z": 0.5766583004,
				"element": "C" 
			},
			{
				"x": -0.5271891029,
				"y": 2.9946340169,
				"z": 1.1861233155,
				"element": "O" 
			},
			{
				"x": -1.8790032122,
				"y": 1.7206338219,
				"z": -0.1689737644,
				"element": "N" 
			},
			{
				"x": -1.0834119399,
				"y": 0.5831634628,
				"z": -0.3843807658,
				"element": "C" 
			},
			{
				"x": 0.1777691588,
				"y": 0.3715265658,
				"z": 0.1905808733,
				"element": "C" 
			},
			{
				"x": 0.8945191428,
				"y": -0.8023218663,
				"z": -0.0511645604,
				"element": "C" 
			},
			{
				"x": 2.1339994322,
				"y": -1.0128874627,
				"z": 0.6110900122,
				"element": "N" 
			},
			{
				"x": 3.4050869533,
				"y": -1.0860078966,
				"z": 0.0691799594,
				"element": "C" 
			},
			{
				"x": 3.5229490882,
				"y": -0.9188769184,
				"z": -1.4336608085,
				"element": "C" 
			},
			{
				"x": 4.3715779587,
				"y": -1.2675922514,
				"z": 0.7954413229,
				"element": "O" 
			},
			{
				"x": 0.3505563079,
				"y": -1.7988466089,
				"z": -0.8898491309,
				"element": "C" 
			},
			{
				"x": 1.0956315738,
				"y": -2.9305374213,
				"z": -1.0693962474,
				"element": "O" 
			},
			{
				"x": 0.5093814119,
				"y": -4.0571860981,
				"z": -1.7249747408,
				"element": "C" 
			},
			{
				"x": 1.4825841677,
				"y": -5.2102949775,
				"z": -1.5294832308,
				"element": "C" 
			},
			{
				"x": 1.6596191051,
				"y": -5.5198043864,
				"z": -0.1629197433,
				"element": "O" 
			},
			{
				"x": -0.8878449221,
				"y": -1.5792753791,
				"z": -1.4982110386,
				"element": "C" 
			},
			{
				"x": -1.5969368926,
				"y": -0.4058756091,
				"z": -1.2429112246,
				"element": "C" 
			},
			{
				"x": -2.7908683313,
				"y": -0.1489684928,
				"z": -1.8911980116,
				"element": "O" 
			},
			{
				"x": -3.9342415494,
				"y": -0.9113684587,
				"z": -1.4907936142,
				"element": "C" 
			},
			{
				"x": -4.491224932,
				"y": -0.4729670491,
				"z": -0.1461177694,
				"element": "C" 
			},
			{
				"x": -4.8579407214,
				"y": 0.9016740867,
				"z": -0.2477252561,
				"element": "O" 
			},
			{
				"x": -2.3488636007,
				"y": 4.7316937998,
				"z": -0.0610666185,
				"element": "H" 
			},
			{
				"x": -3.6307058109,
				"y": 3.5311567521,
				"z": 0.2030927532,
				"element": "H" 
			},
			{
				"x": -2.784257707,
				"y": 4.2830633983,
				"z": 1.5866710754,
				"element": "H" 
			},
			{
				"x": -2.7952680974,
				"y": 1.6735459664,
				"z": -0.6032990794,
				"element": "H" 
			},
			{
				"x": 0.5938269773,
				"y": 1.1334258816,
				"z": 0.835462783,
				"element": "H" 
			},
			{
				"x": 2.1378432408,
				"y": -1.003738802,
				"z": 1.6236261029,
				"element": "H" 
			},
			{
				"x": 4.5783136332,
				"y": -0.7947535051,
				"z": -1.6752318445,
				"element": "H" 
			},
			{
				"x": 2.9541771149,
				"y": -0.0542042851,
				"z": -1.7882904975,
				"element": "H" 
			},
			{
				"x": 3.1348419754,
				"y": -1.8049621752,
				"z": -1.9434347946,
				"element": "H" 
			},
			{
				"x": 0.3543996456,
				"y": -3.8481295342,
				"z": -2.7931706439,
				"element": "H" 
			},
			{
				"x": -0.4571564032,
				"y": -4.2958054024,
				"z": -1.2623652865,
				"element": "H" 
			},
			{
				"x": 1.0783342575,
				"y": -6.1053059558,
				"z": -2.0139752537,
				"element": "H" 
			},
			{
				"x": 2.4365203632,
				"y": -4.96439024,
				"z": -2.022442264,
				"element": "H" 
			},
			{
				"x": 1.9776814262,
				"y": -4.7111540507,
				"z": 0.2628886969,
				"element": "H" 
			},
			{
				"x": -1.3126251171,
				"y": -2.2999007593,
				"z": -2.1862389518,
				"element": "H" 
			},
			{
				"x": -4.6793905015,
				"y": -0.7399143966,
				"z": -2.272048815,
				"element": "H" 
			},
			{
				"x": -3.6982472292,
				"y": -1.9830855409,
				"z": -1.4548177229,
				"element": "H" 
			},
			{
				"x": -3.7374030886,
				"y": -0.6285673456,
				"z": 0.6394710055,
				"element": "H" 
			},
			{
				"x": -5.3611779613,
				"y": -1.1049942257,
				"z": 0.0893480427,
				"element": "H" 
			},
			{
				"x": -5.1843289893,
				"y": 1.1900968062,
				"z": 0.6138210482,
				"element": "H" 
			}
		],
		 "valence_orbital": [ 
			{
				"type": "occ",
				"energy": -0.26732,
				"method": "rhf"
			},
			{
				"type": "occ",
				"energy": -0.25076,
				"method": "rhf"
			},
			{
				"type": "occ",
				"energy": -0.24213,
				"method": "rhf"
			},
			{
				"type": "occ",
				"energy": -0.23565,
				"method": "rhf"
			},
			{
				"type": "occ",
				"energy": -0.20696,
				"method": "rhf"
			},
			{
				"type": "unocc",
				"energy": -0.01852,
				"method": "rhf"
			},
			{
				"type": "unocc",
				"energy": -0.0118,
				"method": "rhf"
			},
			{
				"type": "unocc",
				"energy": 0.03793,
				"method": "rhf"
			},
			{
				"type": "unocc",
				"energy": 0.04038,
				"method": "rhf"
			},
			{
				"type": "unocc",
				"energy": 0.04866,
				"method": "rhf"
			}
		],
		"cosmo_sigma_profile": { 
			"-0.025": 0.0,
			"-0.024": 0.0,
			"-0.023": 0.0,
			"-0.022": 0.0,
			"-0.021": 0.0,
			"-0.02": 0.0,
			"-0.019": 0.0,
			"-0.018": 0.0,
			"-0.017": 0.106807141737,
			"-0.016": 0.877568108449,
			"-0.015": 1.09373166131,
			"-0.014": 0.857884323794,
			"-0.013": 2.4072515325,
			"-0.012": 2.3383645789,
			"-0.011": 2.58587909208,
			"-0.01": 1.95374872939,
			"-0.009": 2.53487925996,
			"-0.008": 2.97349975305,
			"-0.007": 6.42021146322,
			"-0.006": 19.5057817429,
			"-0.005": 36.1760204173,
			"-0.004": 33.7742286144,
			"-0.003": 32.2666764967,
			"-0.002": 28.4564535033,
			"-0.001": 27.605936918,
			"0.0": 22.6454474471,
			"0.001": 16.3407207586,
			"0.002": 19.5745440948,
			"0.003": 17.9032239382,
			"0.004": 8.37363158652,
			"0.005": 6.53597852551,
			"0.006": 5.92959200603,
			"0.007": 6.396606864,
			"0.008": 5.84661384543,
			"0.009": 5.60312764539,
			"0.01": 5.97069122689,
			"0.011": 5.7725416505,
			"0.012": 6.96576736549,
			"0.013": 9.03842153864,
			"0.014": 10.2589936584,
			"0.015": 2.31188010057,
			"0.016": 0.0,
			"0.017": 0.0,
			"0.018": 0.0,
			"0.019": 0.0,
			"0.02": 0.0,
			"0.021": 0.0,
			"0.022": 0.0,
			"0.023": 0.0,
			"0.024": 0.0,
			"0.025": 0.0
		}
	}
}
