{
	 "smiles": "CCOC(=O)C1=CC(I)=CC=C1N", 
	 "Tm": 343.15, 
	 "num_atms": 23, 
	 "gaussian": { 
		 "optdone": 1, 
		 "sigma_profile": "no", 
		 "theory": "DFT", 
		 "functional": "B3LYP", 
		 "basiset": "6-31G**", 
		 "properties": { 
			 "R2extent": 3381.8217, 
			 "electric_dipole_moment_norm": 2.2282546376, 
			 "electric_quadrupole_moment_norm": 15.8224491957, 
			 "total_energy": -565.599658407, 
			 "HOMO_LUMO_gap": 0.15836, 
			 "cosmo_polarized_energy": -99489.38, 
			 "cosmo_cavitation_energy": 29.97, 
			 "cosmo_dispersion_energy": -23.53, 
			 "cosmo_repulsion_energy": 1.86, 
			 "cosmo_total_nonelectrostatic_energy": 8.3, 
			 "SMD_solvation_energy": 5.1 
		},
		"coords": [
			{
				"x": 0.7623721729,
				"y": -2.8111430171,
				"z": -0.8044386137,
				"element": "C" 
			},
			{
				"x": -0.573389288,
				"y": -2.3639390979,
				"z": -0.2298333841,
				"element": "C" 
			},
			{
				"x": -0.61667906,
				"y": -0.9286123878,
				"z": -0.0502281664,
				"element": "O" 
			},
			{
				"x": -0.10566869,
				"y": -0.4403097009,
				"z": 1.1006635859,
				"element": "C" 
			},
			{
				"x": 0.3691014837,
				"y": -1.1712475011,
				"z": 1.9664440326,
				"element": "O" 
			},
			{
				"x": -0.1928926325,
				"y": 1.0306519801,
				"z": 1.1932110951,
				"element": "C" 
			},
			{
				"x": -0.7863095731,
				"y": 1.7694020554,
				"z": 0.1507680491,
				"element": "C" 
			},
			{
				"x": -0.8931071767,
				"y": 3.1473356371,
				"z": 0.2269958908,
				"element": "C" 
			},
			{
				"x": -1.791713896,
				"y": 4.2374083201,
				"z": -1.3549264114,
				"element": "I" 
			},
			{
				"x": -0.4073312545,
				"y": 3.8264246176,
				"z": 1.3554471274,
				"element": "C" 
			},
			{
				"x": 0.180750549,
				"y": 3.1181661248,
				"z": 2.3875189863,
				"element": "C" 
			},
			{
				"x": 0.3112856719,
				"y": 1.7090472695,
				"z": 2.3428766164,
				"element": "C" 
			},
			{
				"x": 0.9194370625,
				"y": 1.0491690539,
				"z": 3.3655814884,
				"element": "N" 
			},
			{
				"x": 1.5711748407,
				"y": -2.6123801137,
				"z": -0.0972854449,
				"element": "H" 
			},
			{
				"x": 0.7374288145,
				"y": -3.8875865217,
				"z": -1.0045168862,
				"element": "H" 
			},
			{
				"x": 0.9760200147,
				"y": -2.2921384215,
				"z": -1.7433835117,
				"element": "H" 
			},
			{
				"x": -1.3953520857,
				"y": -2.5722438262,
				"z": -0.9187857009,
				"element": "H" 
			},
			{
				"x": -0.7723990389,
				"y": -2.846231131,
				"z": 0.729770045,
				"element": "H" 
			},
			{
				"x": -1.159056765,
				"y": 1.2302140749,
				"z": -0.7100087002,
				"element": "H" 
			},
			{
				"x": -0.4890745743,
				"y": 4.9058015498,
				"z": 1.4247197249,
				"element": "H" 
			},
			{
				"x": 0.5585216078,
				"y": 3.6510067415,
				"z": 3.2562585991,
				"element": "H" 
			},
			{
				"x": 1.1444103018,
				"y": 1.5435823579,
				"z": 4.2122483924,
				"element": "H" 
			},
			{
				"x": 0.9166715154,
				"y": 0.0373219363,
				"z": 3.3440031861,
				"element": "H" 
			}
		],
		 "valence_orbital": [ 
			{
				"type": "occ",
				"energy": -0.2796,
				"method": "rhf"
			},
			{
				"type": "occ",
				"energy": -0.26589,
				"method": "rhf"
			},
			{
				"type": "occ",
				"energy": -0.26518,
				"method": "rhf"
			},
			{
				"type": "occ",
				"energy": -0.26268,
				"method": "rhf"
			},
			{
				"type": "occ",
				"energy": -0.2053,
				"method": "rhf"
			},
			{
				"type": "unocc",
				"energy": -0.04694,
				"method": "rhf"
			},
			{
				"type": "unocc",
				"energy": -0.0324,
				"method": "rhf"
			},
			{
				"type": "unocc",
				"energy": 0.00085,
				"method": "rhf"
			},
			{
				"type": "unocc",
				"energy": 0.0464,
				"method": "rhf"
			},
			{
				"type": "unocc",
				"energy": 0.04709,
				"method": "rhf"
			}
		],
		"cosmo_sigma_profile": { 
			"0.0": 0.0,
			"0.0": 0.0,
			"0.0": 0.0,
			"0.0": 0.0,
			"0.0": 0.0,
			"0.0": 0.0,
			"0.0": 0.0,
			"0.0": 0.0,
			"0.0": 0.0,
			"0.0": 0.0,
			"0.0": 0.0,
			"0.0": 0.0,
			"0.0": 0.0,
			"0.0": 0.0,
			"0.0": 0.0,
			"0.0": 0.0,
			"0.0": 0.0,
			"0.0": 0.0,
			"0.0": 0.0,
			"0.0": 0.0,
			"0.0": 0.0,
			"0.0": 0.0,
			"0.0": 0.0,
			"0.0": 0.0,
			"0.0": 0.0,
			"0.0": 0.0,
			"0.0": 0.0,
			"0.0": 0.0,
			"0.0": 0.0,
			"0.0": 0.0,
			"0.0": 0.0,
			"0.0": 0.0,
			"0.0": 0.0,
			"0.0": 0.0,
			"0.0": 0.0,
			"0.0": 0.0,
			"0.0": 0.0,
			"0.0": 0.0,
			"0.0": 0.0,
			"0.0": 0.0,
			"0.0": 0.0,
			"0.0": 0.0,
			"0.0": 0.0,
			"0.0": 0.0,
			"0.0": 0.0,
			"0.0": 0.0,
			"0.0": 0.0,
			"0.0": 0.0,
			"0.0": 0.0,
			"0.0": 0.0,
			"0.0": 0.0
		}
	}
}
