{
	 "smiles": "CC(C)CC(N(C)C)C1(CCC1)C1=CC=C(Cl)C=C1", 
	 "Tm": 464.65, 
	 "num_atms": 45, 
	 "gaussian": { 
		 "optdone": 1, 
		 "sigma_profile": "yes", 
		 "theory": "DFT", 
		 "functional": "B3LYP", 
		 "basiset": "6-31G**", 
		 "properties": { 
			 "R2extent": 6959.5232, 
			 "electric_dipole_moment_norm": 2.36477841034, 
			 "electric_quadrupole_moment_norm": 12.927955833, 
			 "total_energy": -1178.3927806, 
			 "HOMO_LUMO_gap": 0.19083, 
			 "cosmo_polarized_energy": -4.83, 
			 "cosmo_cavitation_energy": 43.98, 
			 "cosmo_dispersion_energy": -28.89, 
			 "cosmo_repulsion_energy": 2.23, 
			 "cosmo_total_nonelectrostatic_energy": 17.32, 
			 "SMD_solvation_energy": 6.64 
		},
		"coords": [
			{
				"x": -1.5618320963,
				"y": -2.1005095692,
				"z": -2.7784947568,
				"element": "C" 
			},
			{
				"x": -1.0432778727,
				"y": -0.8151863234,
				"z": -2.1164619345,
				"element": "C" 
			},
			{
				"x": -0.7225727756,
				"y": 0.2426757253,
				"z": -3.1835205626,
				"element": "C" 
			},
			{
				"x": 0.1831426634,
				"y": -1.1306778698,
				"z": -1.2275187041,
				"element": "C" 
			},
			{
				"x": 0.6304832751,
				"y": -0.0058278989,
				"z": -0.2474297535,
				"element": "C" 
			},
			{
				"x": 2.0802255973,
				"y": 0.3043850986,
				"z": -0.2724319991,
				"element": "N" 
			},
			{
				"x": 3.0104624074,
				"y": -0.8086520076,
				"z": -0.4267869323,
				"element": "C" 
			},
			{
				"x": 2.4275303512,
				"y": 1.3775590864,
				"z": -1.1946693756,
				"element": "C" 
			},
			{
				"x": 0.0892517529,
				"y": -0.2100598646,
				"z": 1.2183268197,
				"element": "C" 
			},
			{
				"x": 0.7512136908,
				"y": -1.3654238386,
				"z": 2.0456460707,
				"element": "C" 
			},
			{
				"x": 1.6363605047,
				"y": -0.3255236647,
				"z": 2.7778299108,
				"element": "C" 
			},
			{
				"x": 0.7322960739,
				"y": 0.8050492372,
				"z": 2.2282755162,
				"element": "C" 
			},
			{
				"x": -1.4317438136,
				"y": -0.2047190201,
				"z": 1.1978216048,
				"element": "C" 
			},
			{
				"x": -2.1871481324,
				"y": -1.3834790584,
				"z": 1.2613205941,
				"element": "C" 
			},
			{
				"x": -3.5827210974,
				"y": -1.3623212473,
				"z": 1.2183215345,
				"element": "C" 
			},
			{
				"x": -4.2404620554,
				"y": -0.1392770923,
				"z": 1.1147267986,
				"element": "C" 
			},
			{
				"x": -5.9994442003,
				"y": -0.0977023509,
				"z": 1.0661556769,
				"element": "Cl" 
			},
			{
				"x": -3.5218801393,
				"y": 1.0546148373,
				"z": 1.0559513381,
				"element": "C" 
			},
			{
				"x": -2.1294573692,
				"y": 1.0099254753,
				"z": 1.0981815574,
				"element": "C" 
			},
			{
				"x": -2.4285535685,
				"y": -1.8968401083,
				"z": -3.416627053,
				"element": "H" 
			},
			{
				"x": -0.7882722716,
				"y": -2.5596438191,
				"z": -3.4069957172,
				"element": "H" 
			},
			{
				"x": -1.8651114222,
				"y": -2.8397368379,
				"z": -2.0291899962,
				"element": "H" 
			},
			{
				"x": -1.8441670191,
				"y": -0.4217696279,
				"z": -1.4797183047,
				"element": "H" 
			},
			{
				"x": 0.0538364388,
				"y": -0.1179401984,
				"z": -3.8701241927,
				"element": "H" 
			},
			{
				"x": -1.6103749216,
				"y": 0.4770791471,
				"z": -3.7807678801,
				"element": "H" 
			},
			{
				"x": -0.3664674249,
				"y": 1.1807728616,
				"z": -2.7453312223,
				"element": "H" 
			},
			{
				"x": -0.0148325426,
				"y": -2.0498812235,
				"z": -0.6619634793,
				"element": "H" 
			},
			{
				"x": 1.0134895191,
				"y": -1.3752695296,
				"z": -1.9007284279,
				"element": "H" 
			},
			{
				"x": 0.1491239129,
				"y": 0.9234910055,
				"z": -0.5721793266,
				"element": "H" 
			},
			{
				"x": 3.0801120362,
				"y": -1.1963704327,
				"z": -1.4598580669,
				"element": "H" 
			},
			{
				"x": 2.7407552114,
				"y": -1.6412502625,
				"z": 0.2234117311,
				"element": "H" 
			},
			{
				"x": 4.0146744352,
				"y": -0.4756148588,
				"z": -0.1401169653,
				"element": "H" 
			},
			{
				"x": 2.3041840085,
				"y": 1.1085313909,
				"z": -2.2614655715,
				"element": "H" 
			},
			{
				"x": 3.4770808728,
				"y": 1.6568590114,
				"z": -1.0477450406,
				"element": "H" 
			},
			{
				"x": 1.817151459,
				"y": 2.2637377157,
				"z": -0.9957659828,
				"element": "H" 
			},
			{
				"x": 0.0308515563,
				"y": -1.8275038793,
				"z": 2.7267358208,
				"element": "H" 
			},
			{
				"x": 1.2491195343,
				"y": -2.1696544242,
				"z": 1.4967806135,
				"element": "H" 
			},
			{
				"x": 1.6942330786,
				"y": -0.4231367202,
				"z": 3.8657091736,
				"element": "H" 
			},
			{
				"x": 2.6483589604,
				"y": -0.2700108635,
				"z": 2.373014979,
				"element": "H" 
			},
			{
				"x": 1.2478450415,
				"y": 1.6597274867,
				"z": 1.7850342603,
				"element": "H" 
			},
			{
				"x": 0.0050971943,
				"y": 1.1585862484,
				"z": 2.9650008881,
				"element": "H" 
			},
			{
				"x": -1.6853006122,
				"y": -2.3425347318,
				"z": 1.3459447223,
				"element": "H" 
			},
			{
				"x": -4.1523122233,
				"y": -2.2840022454,
				"z": 1.2681473913,
				"element": "H" 
			},
			{
				"x": -4.0454365049,
				"y": 2.0017330997,
				"z": 0.9832843532,
				"element": "H" 
			},
			{
				"x": -1.5753115131,
				"y": 1.9440921418,
				"z": 1.0589698905,
				"element": "H" 
			}
		],
		 "valence_orbital": [ 
			{
				"type": "occ",
				"energy": -0.29643,
				"method": "rhf"
			},
			{
				"type": "occ",
				"energy": -0.29003,
				"method": "rhf"
			},
			{
				"type": "occ",
				"energy": -0.25967,
				"method": "rhf"
			},
			{
				"type": "occ",
				"energy": -0.2356,
				"method": "rhf"
			},
			{
				"type": "occ",
				"energy": -0.20387,
				"method": "rhf"
			},
			{
				"type": "unocc",
				"energy": -0.01304,
				"method": "rhf"
			},
			{
				"type": "unocc",
				"energy": -0.00912,
				"method": "rhf"
			},
			{
				"type": "unocc",
				"energy": 0.03295,
				"method": "rhf"
			},
			{
				"type": "unocc",
				"energy": 0.07087,
				"method": "rhf"
			},
			{
				"type": "unocc",
				"energy": 0.08915,
				"method": "rhf"
			}
		],
		"cosmo_sigma_profile": { 
			"-0.025": 0.0,
			"-0.024": 0.0,
			"-0.023": 0.0,
			"-0.022": 0.0,
			"-0.021": 0.0,
			"-0.02": 0.0,
			"-0.019": 0.0,
			"-0.018": 0.0,
			"-0.017": 0.0,
			"-0.016": 0.0,
			"-0.015": 0.0,
			"-0.014": 0.0,
			"-0.013": 0.0,
			"-0.012": 0.0,
			"-0.011": 0.0,
			"-0.01": 0.0,
			"-0.009": 0.0,
			"-0.008": 0.0,
			"-0.007": 1.70964926537,
			"-0.006": 5.10280001619,
			"-0.005": 8.47958795411,
			"-0.004": 13.5991720918,
			"-0.003": 24.8967222937,
			"-0.002": 40.6065654016,
			"-0.001": 53.1150061086,
			"0.0": 58.3387741133,
			"0.001": 45.4215260456,
			"0.002": 37.2152599545,
			"0.003": 23.0211449051,
			"0.004": 14.9693569963,
			"0.005": 12.7240660185,
			"0.006": 2.19065658078,
			"0.007": 0.707756702282,
			"0.008": 0.847028282047,
			"0.009": 0.625652897256,
			"0.01": 0.415733960059,
			"0.011": 0.325118741075,
			"0.012": 0.00193366279756,
			"0.013": 0.0,
			"0.014": 0.0,
			"0.015": 0.0,
			"0.016": 0.0,
			"0.017": 0.0,
			"0.018": 0.0,
			"0.019": 0.0,
			"0.02": 0.0,
			"0.021": 0.0,
			"0.022": 0.0,
			"0.023": 0.0,
			"0.024": 0.0,
			"0.025": 0.0
		}
	}
}
