{
	 "smiles": "NC1=NN(C=C1)C1=C(Cl)C=C(Cl)C=C1", 
	 "Tm": 388.15, 
	 "num_atms": 21, 
	 "gaussian": { 
		 "optdone": 1, 
		 "sigma_profile": "yes", 
		 "theory": "DFT", 
		 "functional": "B3LYP", 
		 "basiset": "6-31G**", 
		 "properties": { 
			 "R2extent": 4984.2856, 
			 "electric_dipole_moment_norm": 2.98993735386, 
			 "electric_quadrupole_moment_norm": 14.220600533, 
			 "total_energy": -1431.78885772, 
			 "HOMO_LUMO_gap": 0.1728, 
			 "cosmo_polarized_energy": -10.49, 
			 "cosmo_cavitation_energy": 29.18, 
			 "cosmo_dispersion_energy": -21.87, 
			 "cosmo_repulsion_energy": 1.73, 
			 "cosmo_total_nonelectrostatic_energy": 9.03, 
			 "SMD_solvation_energy": 4.01 
		},
		"coords": [
			{
				"x": 1.3618800534,
				"y": 2.1682146932,
				"z": 4.182003112,
				"element": "N" 
			},
			{
				"x": 0.2831457127,
				"y": 1.8778314399,
				"z": 3.356102757,
				"element": "C" 
			},
			{
				"x": 0.3490225416,
				"y": 0.8898623543,
				"z": 2.4717481101,
				"element": "N" 
			},
			{
				"x": -0.8326111462,
				"y": 0.9676737714,
				"z": 1.7700580921,
				"element": "N" 
			},
			{
				"x": -1.6330463633,
				"y": 1.9686945374,
				"z": 2.2520849184,
				"element": "C" 
			},
			{
				"x": -0.9487150077,
				"y": 2.5885319505,
				"z": 3.2678210839,
				"element": "C" 
			},
			{
				"x": -1.124665573,
				"y": -0.0462325081,
				"z": 0.8343070242,
				"element": "C" 
			},
			{
				"x": -1.8700071757,
				"y": 0.1577551165,
				"z": -0.3411692646,
				"element": "C" 
			},
			{
				"x": -2.4682691212,
				"y": 1.7412263714,
				"z": -0.8102180063,
				"element": "Cl" 
			},
			{
				"x": -2.131560414,
				"y": -0.8969659124,
				"z": -1.2174737593,
				"element": "C" 
			},
			{
				"x": -1.6245517052,
				"y": -2.1620539116,
				"z": -0.9395401337,
				"element": "C" 
			},
			{
				"x": -1.9519743279,
				"y": -3.481060332,
				"z": -2.0490312754,
				"element": "Cl" 
			},
			{
				"x": -0.8551032441,
				"y": -2.3868890126,
				"z": 0.2016230336,
				"element": "C" 
			},
			{
				"x": -0.6188234635,
				"y": -1.3341076195,
				"z": 1.0754699174,
				"element": "C" 
			},
			{
				"x": 1.1038629972,
				"y": 2.4948368145,
				"z": 5.1034174605,
				"element": "H" 
			},
			{
				"x": 2.0357883715,
				"y": 1.4140625839,
				"z": 4.223026837,
				"element": "H" 
			},
			{
				"x": -2.6140345954,
				"y": 2.155633258,
				"z": 1.8476756123,
				"element": "H" 
			},
			{
				"x": -1.2729363543,
				"y": 3.435790758,
				"z": 3.8533115989,
				"element": "H" 
			},
			{
				"x": -2.7094353052,
				"y": -0.7172187786,
				"z": -2.1154258977,
				"element": "H" 
			},
			{
				"x": -0.4570127166,
				"y": -3.3735561907,
				"z": 0.4085143579,
				"element": "H" 
			},
			{
				"x": -0.0254531631,
				"y": -1.4782293834,
				"z": 1.9696944216,
				"element": "H" 
			}
		],
		 "valence_orbital": [ 
			{
				"type": "occ",
				"energy": -0.29311,
				"method": "rhf"
			},
			{
				"type": "occ",
				"energy": -0.26768,
				"method": "rhf"
			},
			{
				"type": "occ",
				"energy": -0.2618,
				"method": "rhf"
			},
			{
				"type": "occ",
				"energy": -0.24455,
				"method": "rhf"
			},
			{
				"type": "occ",
				"energy": -0.20601,
				"method": "rhf"
			},
			{
				"type": "unocc",
				"energy": -0.03321,
				"method": "rhf"
			},
			{
				"type": "unocc",
				"energy": -0.0271,
				"method": "rhf"
			},
			{
				"type": "unocc",
				"energy": 0.00316,
				"method": "rhf"
			},
			{
				"type": "unocc",
				"energy": 0.02822,
				"method": "rhf"
			},
			{
				"type": "unocc",
				"energy": 0.04478,
				"method": "rhf"
			}
		],
		"cosmo_sigma_profile": { 
			"-0.025": 0.0,
			"-0.024": 0.0,
			"-0.023": 0.0,
			"-0.022": 0.0,
			"-0.021": 0.0,
			"-0.02": 0.0,
			"-0.019": 0.0,
			"-0.018": 0.0,
			"-0.017": 0.0,
			"-0.016": 0.0,
			"-0.015": 0.0,
			"-0.014": 0.0,
			"-0.013": 0.783622780973,
			"-0.012": 2.4353517506,
			"-0.011": 2.56326958745,
			"-0.01": 2.09115641823,
			"-0.009": 3.31215555609,
			"-0.008": 6.74322350257,
			"-0.007": 8.85033326295,
			"-0.006": 9.92881664448,
			"-0.005": 9.92797851141,
			"-0.004": 9.86653430881,
			"-0.003": 9.94415362087,
			"-0.002": 11.1700205409,
			"-0.001": 15.8575487586,
			"0.0": 23.6032714589,
			"0.001": 26.7646777977,
			"0.002": 24.1619479435,
			"0.003": 19.9250766311,
			"0.004": 22.6594257322,
			"0.005": 9.20490198349,
			"0.006": 3.53824562834,
			"0.007": 2.83158043434,
			"0.008": 2.42919231786,
			"0.009": 2.81611084016,
			"0.01": 1.97760802069,
			"0.011": 0.668552711878,
			"0.012": 1.51126118263,
			"0.013": 1.64959181841,
			"0.014": 1.26923566844,
			"0.015": 0.415514355408,
			"0.016": 0.0,
			"0.017": 0.0,
			"0.018": 0.0,
			"0.019": 0.0,
			"0.02": 0.0,
			"0.021": 0.0,
			"0.022": 0.0,
			"0.023": 0.0,
			"0.024": 0.0,
			"0.025": 0.0
		}
	}
}
