{
	 "smiles": "CC(=O)NC(C)(C)C(N)=NO", 
	 "Tm": 437.15, 
	 "num_atms": 24, 
	 "gaussian": { 
		 "optdone": 1, 
		 "sigma_profile": "yes", 
		 "theory": "DFT", 
		 "functional": "B3LYP", 
		 "basiset": "6-31G**", 
		 "properties": { 
			 "R2extent": 2013.998, 
			 "electric_dipole_moment_norm": 2.74009866428, 
			 "electric_quadrupole_moment_norm": 10.1821967129, 
			 "total_energy": -551.1420696, 
			 "HOMO_LUMO_gap": 0.22386, 
			 "cosmo_polarized_energy": -15.32, 
			 "cosmo_cavitation_energy": 25.82, 
			 "cosmo_dispersion_energy": -18.86, 
			 "cosmo_repulsion_energy": 1.54, 
			 "cosmo_total_nonelectrostatic_energy": 8.51, 
			 "SMD_solvation_energy": 4.91 
		},
		"coords": [
			{
				"x": 0.2576448513,
				"y": 2.9234267405,
				"z": 1.2658771218,
				"element": "C" 
			},
			{
				"x": 0.4467435741,
				"y": 1.4683195129,
				"z": 0.8619726862,
				"element": "C" 
			},
			{
				"x": 1.0496913727,
				"y": 0.6785735241,
				"z": 1.5911818171,
				"element": "O" 
			},
			{
				"x": -0.0787603884,
				"y": 1.12011154,
				"z": -0.343598062,
				"element": "N" 
			},
			{
				"x": -0.2076657525,
				"y": -0.2409264464,
				"z": -0.9125605621,
				"element": "C" 
			},
			{
				"x": -1.0111091146,
				"y": -1.1280774276,
				"z": 0.062093026,
				"element": "C" 
			},
			{
				"x": -0.9673696622,
				"y": -0.0443454118,
				"z": -2.2419296255,
				"element": "C" 
			},
			{
				"x": 1.1661310083,
				"y": -0.887438768,
				"z": -1.2082523213,
				"element": "C" 
			},
			{
				"x": 2.3046254531,
				"y": -0.1367555524,
				"z": -0.927165068,
				"element": "N" 
			},
			{
				"x": 1.3734488134,
				"y": -2.0422429587,
				"z": -1.7443043137,
				"element": "N" 
			},
			{
				"x": 0.1844940825,
				"y": -2.7085389172,
				"z": -2.1625615741,
				"element": "O" 
			},
			{
				"x": 1.2306181057,
				"y": 3.341120673,
				"z": 1.5357217196,
				"element": "H" 
			},
			{
				"x": -0.1999854076,
				"y": 3.5463405904,
				"z": 0.4926197861,
				"element": "H" 
			},
			{
				"x": -0.3700939927,
				"y": 2.9555644975,
				"z": 2.1613607171,
				"element": "H" 
			},
			{
				"x": -0.4824810575,
				"y": 1.8598269447,
				"z": -0.8980115727,
				"element": "H" 
			},
			{
				"x": -2.0042712287,
				"y": -0.693046978,
				"z": 0.2140476963,
				"element": "H" 
			},
			{
				"x": -0.5009485169,
				"y": -1.1838737112,
				"z": 1.0250076935,
				"element": "H" 
			},
			{
				"x": -1.117366043,
				"y": -2.1317257013,
				"z": -0.3492858507,
				"element": "H" 
			},
			{
				"x": -0.4059015569,
				"y": 0.618624787,
				"z": -2.9093849941,
				"element": "H" 
			},
			{
				"x": -1.9489680367,
				"y": 0.40113384,
				"z": -2.0436206054,
				"element": "H" 
			},
			{
				"x": -1.1069211689,
				"y": -0.9995436258,
				"z": -2.7437005821,
				"element": "H" 
			},
			{
				"x": 3.1388962523,
				"y": -0.6805794651,
				"z": -1.1236364101,
				"element": "H" 
			},
			{
				"x": 2.3028785328,
				"y": 0.209970535,
				"z": 0.0301172796,
				"element": "H" 
			},
			{
				"x": 0.5475698803,
				"y": -3.5348182215,
				"z": -2.5040880014,
				"element": "H" 
			}
		],
		 "valence_orbital": [ 
			{
				"type": "occ",
				"energy": -0.30563,
				"method": "rhf"
			},
			{
				"type": "occ",
				"energy": -0.27395,
				"method": "rhf"
			},
			{
				"type": "occ",
				"energy": -0.25379,
				"method": "rhf"
			},
			{
				"type": "occ",
				"energy": -0.24916,
				"method": "rhf"
			},
			{
				"type": "occ",
				"energy": -0.20631,
				"method": "rhf"
			},
			{
				"type": "unocc",
				"energy": 0.01755,
				"method": "rhf"
			},
			{
				"type": "unocc",
				"energy": 0.03379,
				"method": "rhf"
			},
			{
				"type": "unocc",
				"energy": 0.06919,
				"method": "rhf"
			},
			{
				"type": "unocc",
				"energy": 0.07905,
				"method": "rhf"
			},
			{
				"type": "unocc",
				"energy": 0.11574,
				"method": "rhf"
			}
		],
		"cosmo_sigma_profile": { 
			"-0.025": 0.0,
			"-0.024": 0.0,
			"-0.023": 0.0,
			"-0.022": 0.0,
			"-0.021": 0.0,
			"-0.02": 0.0,
			"-0.019": 0.0,
			"-0.018": 0.0,
			"-0.017": 0.292442576164,
			"-0.016": 1.00906373071,
			"-0.015": 0.861078042066,
			"-0.014": 1.20956980916,
			"-0.013": 2.15604993392,
			"-0.012": 2.23105195374,
			"-0.011": 2.79908194393,
			"-0.01": 3.11062102748,
			"-0.009": 2.77411932503,
			"-0.008": 3.66296311214,
			"-0.007": 3.96986014099,
			"-0.006": 6.49675238837,
			"-0.005": 10.7427893276,
			"-0.004": 12.6465620609,
			"-0.003": 13.4188610059,
			"-0.002": 16.9202492172,
			"-0.001": 18.6199502068,
			"0.0": 18.4677681787,
			"0.001": 13.002906888,
			"0.002": 7.3778916933,
			"0.003": 5.88438441051,
			"0.004": 6.66095152911,
			"0.005": 6.74756202504,
			"0.006": 8.18085601282,
			"0.007": 7.39705859043,
			"0.008": 3.64484523422,
			"0.009": 2.77069575111,
			"0.01": 3.22478408962,
			"0.011": 3.31073658119,
			"0.012": 3.32180520772,
			"0.013": 3.70147338001,
			"0.014": 3.48816013127,
			"0.015": 1.16645632477,
			"0.016": 0.0,
			"0.017": 0.0,
			"0.018": 0.0,
			"0.019": 0.0,
			"0.02": 0.0,
			"0.021": 0.0,
			"0.022": 0.0,
			"0.023": 0.0,
			"0.024": 0.0,
			"0.025": 0.0
		}
	}
}
