{
	 "smiles": "CC1=NC2=C(C=CC=C2)C(S)=N1", 
	 "Tm": 485.15, 
	 "num_atms": 20, 
	 "gaussian": { 
		 "optdone": 1, 
		 "sigma_profile": "yes", 
		 "theory": "DFT", 
		 "functional": "B3LYP", 
		 "basiset": "6-31G**", 
		 "properties": { 
			 "R2extent": 2563.5958, 
			 "electric_dipole_moment_norm": 1.17733037419, 
			 "electric_quadrupole_moment_norm": 7.11340218461, 
			 "total_energy": -855.485928486, 
			 "HOMO_LUMO_gap": 0.17195, 
			 "cosmo_polarized_energy": -7.35, 
			 "cosmo_cavitation_energy": 25.51, 
			 "cosmo_dispersion_energy": -19.71, 
			 "cosmo_repulsion_energy": 1.52, 
			 "cosmo_total_nonelectrostatic_energy": 7.31, 
			 "SMD_solvation_energy": 1.15 
		},
		"coords": [
			{
				"x": 2.1582575754,
				"y": 1.3513287096,
				"z": 2.1714764271,
				"element": "C" 
			},
			{
				"x": 1.4683004062,
				"y": 0.6999254945,
				"z": 1.0051768368,
				"element": "C" 
			},
			{
				"x": 0.4991267398,
				"y": -0.1576257669,
				"z": 1.2441103858,
				"element": "N" 
			},
			{
				"x": -0.104467843,
				"y": -0.7295335476,
				"z": 0.1591415619,
				"element": "C" 
			},
			{
				"x": 0.2887123389,
				"y": -0.419571426,
				"z": -1.1758871841,
				"element": "C" 
			},
			{
				"x": -0.3689882905,
				"y": -1.0399730436,
				"z": -2.2652514423,
				"element": "C" 
			},
			{
				"x": -1.3865675247,
				"y": -1.9411140094,
				"z": -2.0347396021,
				"element": "C" 
			},
			{
				"x": -1.7794337388,
				"y": -2.2511147575,
				"z": -0.7106406119,
				"element": "C" 
			},
			{
				"x": -1.1541647982,
				"y": -1.6600207728,
				"z": 0.3657970665,
				"element": "C" 
			},
			{
				"x": 1.3552725357,
				"y": 0.529002445,
				"z": -1.2809045151,
				"element": "C" 
			},
			{
				"x": 1.9489700322,
				"y": 1.0094836958,
				"z": -2.8933740516,
				"element": "S" 
			},
			{
				"x": 1.9274031679,
				"y": 1.0717366853,
				"z": -0.2311279596,
				"element": "N" 
			},
			{
				"x": 3.2302547728,
				"y": 1.1282253993,
				"z": 2.1502142923,
				"element": "H" 
			},
			{
				"x": 2.0590931317,
				"y": 2.4402831473,
				"z": 2.1102683326,
				"element": "H" 
			},
			{
				"x": 1.7292373831,
				"y": 0.9969131713,
				"z": 3.1090005439,
				"element": "H" 
			},
			{
				"x": -0.070108697,
				"y": -0.8044548676,
				"z": -3.2823938365,
				"element": "H" 
			},
			{
				"x": -1.8904012749,
				"y": -2.4164390115,
				"z": -2.8706975812,
				"element": "H" 
			},
			{
				"x": -2.5829653887,
				"y": -2.9632079486,
				"z": -0.5458560016,
				"element": "H" 
			},
			{
				"x": -1.4377171246,
				"y": -1.8816765943,
				"z": 1.3892007899,
				"element": "H" 
			},
			{
				"x": 2.8744865969,
				"y": 1.8496329976,
				"z": -2.3938134507,
				"element": "H" 
			}
		],
		 "valence_orbital": [ 
			{
				"type": "occ",
				"energy": -0.30116,
				"method": "rhf"
			},
			{
				"type": "occ",
				"energy": -0.27253,
				"method": "rhf"
			},
			{
				"type": "occ",
				"energy": -0.2646,
				"method": "rhf"
			},
			{
				"type": "occ",
				"energy": -0.24753,
				"method": "rhf"
			},
			{
				"type": "occ",
				"energy": -0.23448,
				"method": "rhf"
			},
			{
				"type": "unocc",
				"energy": -0.06253,
				"method": "rhf"
			},
			{
				"type": "unocc",
				"energy": -0.02951,
				"method": "rhf"
			},
			{
				"type": "unocc",
				"energy": 0.01299,
				"method": "rhf"
			},
			{
				"type": "unocc",
				"energy": 0.01528,
				"method": "rhf"
			},
			{
				"type": "unocc",
				"energy": 0.06634,
				"method": "rhf"
			}
		],
		"cosmo_sigma_profile": { 
			"-0.025": 0.0,
			"-0.024": 0.0,
			"-0.023": 0.0,
			"-0.022": 0.0,
			"-0.021": 0.0,
			"-0.02": 0.0,
			"-0.019": 0.0,
			"-0.018": 0.0,
			"-0.017": 0.0,
			"-0.016": 0.0,
			"-0.015": 0.0,
			"-0.014": 0.0,
			"-0.013": 0.0,
			"-0.012": 0.0977257405072,
			"-0.011": 1.3363940166,
			"-0.01": 1.18759361243,
			"-0.009": 0.893959408804,
			"-0.008": 1.48822205308,
			"-0.007": 5.04463789213,
			"-0.006": 10.0024518774,
			"-0.005": 13.4654400248,
			"-0.004": 12.3798095557,
			"-0.003": 13.9515068413,
			"-0.002": 14.8660666592,
			"-0.001": 21.974947131,
			"0.0": 19.986082185,
			"0.001": 18.1215560373,
			"0.002": 20.1658786012,
			"0.003": 17.4656609236,
			"0.004": 8.98301903159,
			"0.005": 5.74661704528,
			"0.006": 4.83882276376,
			"0.007": 4.0527568309,
			"0.008": 1.93466781754,
			"0.009": 1.77716945911,
			"0.01": 2.02899986099,
			"0.011": 2.17901077261,
			"0.012": 0.898279126904,
			"0.013": 1.38439067443,
			"0.014": 0.425620169971,
			"0.015": 0.544608894932,
			"0.016": 0.0,
			"0.017": 0.0,
			"0.018": 0.0,
			"0.019": 0.0,
			"0.02": 0.0,
			"0.021": 0.0,
			"0.022": 0.0,
			"0.023": 0.0,
			"0.024": 0.0,
			"0.025": 0.0
		}
	}
}
