{
	 "smiles": "CC1N(CCNC1=O)C(=O)C1=CC=C(Cl)S1", 
	 "Tm": 423.15, 
	 "num_atms": 27, 
	 "gaussian": { 
		 "optdone": 1, 
		 "sigma_profile": "yes", 
		 "theory": "DFT", 
		 "functional": "B3LYP", 
		 "basiset": "6-31G**", 
		 "properties": { 
			 "R2extent": 6015.3262, 
			 "electric_dipole_moment_norm": 4.66235018526, 
			 "electric_quadrupole_moment_norm": 13.7391086836, 
			 "total_energy": -1506.01864336, 
			 "HOMO_LUMO_gap": 0.16866, 
			 "cosmo_polarized_energy": -17.23, 
			 "cosmo_cavitation_energy": 33.3, 
			 "cosmo_dispersion_energy": -24.45, 
			 "cosmo_repulsion_energy": 1.88, 
			 "cosmo_total_nonelectrostatic_energy": 10.73, 
			 "SMD_solvation_energy": 4.33 
		},
		"coords": [
			{
				"x": 1.3362296828,
				"y": 2.7318038716,
				"z": -0.0188534919,
				"element": "C" 
			},
			{
				"x": -0.0263089886,
				"y": 2.1143292322,
				"z": -0.3239047145,
				"element": "C" 
			},
			{
				"x": -0.3954668287,
				"y": 0.9472639284,
				"z": 0.5113068096,
				"element": "N" 
			},
			{
				"x": -1.7857586822,
				"y": 0.550581763,
				"z": 0.2296024678,
				"element": "C" 
			},
			{
				"x": -1.9059776708,
				"y": 0.048162304,
				"z": -1.213312692,
				"element": "C" 
			},
			{
				"x": -1.2323997644,
				"y": 0.9567362079,
				"z": -2.1343079685,
				"element": "N" 
			},
			{
				"x": -0.2278014653,
				"y": 1.841260865,
				"z": -1.8259252727,
				"element": "C" 
			},
			{
				"x": 0.3914883003,
				"y": 2.4419600668,
				"z": -2.6904594718,
				"element": "O" 
			},
			{
				"x": 0.5451305612,
				"y": -0.0775407604,
				"z": 0.6759015695,
				"element": "C" 
			},
			{
				"x": 1.580540216,
				"y": -0.1586683559,
				"z": 0.0270521529,
				"element": "O" 
			},
			{
				"x": 0.2714625002,
				"y": -1.0672355568,
				"z": 1.7514527198,
				"element": "C" 
			},
			{
				"x": 0.8430677616,
				"y": -2.3152230649,
				"z": 1.8243657459,
				"element": "C" 
			},
			{
				"x": 0.5031963952,
				"y": -3.0357062961,
				"z": 3.0009984882,
				"element": "C" 
			},
			{
				"x": -0.31498044,
				"y": -2.3062048723,
				"z": 3.8236175834,
				"element": "C" 
			},
			{
				"x": -0.9469919114,
				"y": -2.8023761489,
				"z": 5.3553963412,
				"element": "Cl" 
			},
			{
				"x": -0.6868101983,
				"y": -0.7330962096,
				"z": 3.181074247,
				"element": "S" 
			},
			{
				"x": 1.4166443494,
				"y": 3.6726930695,
				"z": -0.5660912972,
				"element": "H" 
			},
			{
				"x": 1.4187200829,
				"y": 2.9357460863,
				"z": 1.0527205565,
				"element": "H" 
			},
			{
				"x": 2.1522925215,
				"y": 2.0809381121,
				"z": -0.3253701662,
				"element": "H" 
			},
			{
				"x": -0.7854689954,
				"y": 2.8694527172,
				"z": -0.0720517942,
				"element": "H" 
			},
			{
				"x": -2.1122140147,
				"y": -0.2320429654,
				"z": 0.91416283,
				"element": "H" 
			},
			{
				"x": -2.4254636206,
				"y": 1.4245705905,
				"z": 0.3905189551,
				"element": "H" 
			},
			{
				"x": -2.9653126843,
				"y": -0.0325318368,
				"z": -1.4869512299,
				"element": "H" 
			},
			{
				"x": -1.4716097975,
				"y": -0.9606214337,
				"z": -1.2796788597,
				"element": "H" 
			},
			{
				"x": -1.3115056141,
				"y": 0.773042043,
				"z": -3.1267261827,
				"element": "H" 
			},
			{
				"x": 1.4983640343,
				"y": -2.6851078786,
				"z": 1.0449490758,
				"element": "H" 
			},
			{
				"x": 0.8464342708,
				"y": -4.0352854779,
				"z": 3.2362135986,
				"element": "H" 
			}
		],
		 "valence_orbital": [ 
			{
				"type": "occ",
				"energy": -0.27723,
				"method": "rhf"
			},
			{
				"type": "occ",
				"energy": -0.2669,
				"method": "rhf"
			},
			{
				"type": "occ",
				"energy": -0.2542,
				"method": "rhf"
			},
			{
				"type": "occ",
				"energy": -0.24501,
				"method": "rhf"
			},
			{
				"type": "occ",
				"energy": -0.23308,
				"method": "rhf"
			},
			{
				"type": "unocc",
				"energy": -0.06442,
				"method": "rhf"
			},
			{
				"type": "unocc",
				"energy": -0.00064,
				"method": "rhf"
			},
			{
				"type": "unocc",
				"energy": 0.00584,
				"method": "rhf"
			},
			{
				"type": "unocc",
				"energy": 0.01978,
				"method": "rhf"
			},
			{
				"type": "unocc",
				"energy": 0.02274,
				"method": "rhf"
			}
		],
		"cosmo_sigma_profile": { 
			"-0.025": 0.0,
			"-0.024": 0.0,
			"-0.023": 0.0,
			"-0.022": 0.0,
			"-0.021": 0.0,
			"-0.02": 0.0,
			"-0.019": 0.0,
			"-0.018": 0.0,
			"-0.017": 0.0,
			"-0.016": 0.0,
			"-0.015": 0.0,
			"-0.014": 0.492160967629,
			"-0.013": 1.44947139628,
			"-0.012": 0.578471538723,
			"-0.011": 1.21669370402,
			"-0.01": 1.13550530528,
			"-0.009": 1.340662564,
			"-0.008": 5.98608106066,
			"-0.007": 8.53682013274,
			"-0.006": 16.0870430875,
			"-0.005": 19.123949377,
			"-0.004": 16.7446174282,
			"-0.003": 17.4812689739,
			"-0.002": 18.9069337392,
			"-0.001": 20.8413804069,
			"0.0": 24.018455806,
			"0.001": 28.0592033794,
			"0.002": 21.7804887506,
			"0.003": 18.0752219158,
			"0.004": 6.75717388893,
			"0.005": 4.01743669336,
			"0.006": 3.64589517642,
			"0.007": 3.2974464516,
			"0.008": 3.92318224529,
			"0.009": 2.69862567514,
			"0.01": 3.56380449487,
			"0.011": 3.54832879534,
			"0.012": 4.96796964929,
			"0.013": 4.93750636937,
			"0.014": 4.87208489645,
			"0.015": 0.307542801159,
			"0.016": 0.0,
			"0.017": 0.0,
			"0.018": 0.0,
			"0.019": 0.0,
			"0.02": 0.0,
			"0.021": 0.0,
			"0.022": 0.0,
			"0.023": 0.0,
			"0.024": 0.0,
			"0.025": 0.0
		}
	}
}
