{
	 "smiles": "CC1CCCN(C1)C(C)=O", 
	 "Tm": 259.55, 
	 "num_atms": 25, 
	 "gaussian": { 
		 "optdone": 1, 
		 "sigma_profile": "yes", 
		 "theory": "DFT", 
		 "functional": "B3LYP", 
		 "basiset": "6-31G**", 
		 "properties": { 
			 "R2extent": 1847.729, 
			 "electric_dipole_moment_norm": 3.82952627096, 
			 "electric_quadrupole_moment_norm": 13.5215977651, 
			 "total_energy": -443.887724061, 
			 "HOMO_LUMO_gap": 0.26165, 
			 "cosmo_polarized_energy": -9.35, 
			 "cosmo_cavitation_energy": 25.17, 
			 "cosmo_dispersion_energy": -18.55, 
			 "cosmo_repulsion_energy": 1.5, 
			 "cosmo_total_nonelectrostatic_energy": 8.12, 
			 "SMD_solvation_energy": 4.44 
		},
		"coords": [
			{
				"x": -1.6362998363,
				"y": 0.7160678324,
				"z": 1.1243679009,
				"element": "C" 
			},
			{
				"x": -0.4114602834,
				"y": -0.171613507,
				"z": 1.3988276322,
				"element": "C" 
			},
			{
				"x": 0.852268434,
				"y": 0.6393881312,
				"z": 1.7366840906,
				"element": "C" 
			},
			{
				"x": 1.336086329,
				"y": 1.4904686191,
				"z": 0.543400684,
				"element": "C" 
			},
			{
				"x": 1.0796243913,
				"y": 0.7735945865,
				"z": -0.8018367997,
				"element": "C" 
			},
			{
				"x": 0.9958054154,
				"y": -0.674418966,
				"z": -0.6182820318,
				"element": "N" 
			},
			{
				"x": -0.0946352037,
				"y": -1.1556216811,
				"z": 0.2327639263,
				"element": "C" 
			},
			{
				"x": 1.855004791,
				"y": -1.4908260352,
				"z": -1.3187203077,
				"element": "C" 
			},
			{
				"x": 1.6946361696,
				"y": -2.9952603191,
				"z": -1.1345282681,
				"element": "C" 
			},
			{
				"x": 2.7231687018,
				"y": -1.0409075662,
				"z": -2.0616454168,
				"element": "O" 
			},
			{
				"x": -1.4953134915,
				"y": 1.3708131916,
				"z": 0.258732537,
				"element": "H" 
			},
			{
				"x": -2.5250177658,
				"y": 0.1051477003,
				"z": 0.931716261,
				"element": "H" 
			},
			{
				"x": -1.8522982811,
				"y": 1.3530335264,
				"z": 1.988962022,
				"element": "H" 
			},
			{
				"x": -0.6599318083,
				"y": -0.7895417437,
				"z": 2.2709069921,
				"element": "H" 
			},
			{
				"x": 1.6453272602,
				"y": -0.0621164945,
				"z": 2.0219745796,
				"element": "H" 
			},
			{
				"x": 0.6704334439,
				"y": 1.2749401056,
				"z": 2.6107404094,
				"element": "H" 
			},
			{
				"x": 2.404891296,
				"y": 1.6979106519,
				"z": 0.6602351341,
				"element": "H" 
			},
			{
				"x": 0.8295337034,
				"y": 2.4621264094,
				"z": 0.5311998715,
				"element": "H" 
			},
			{
				"x": 0.1408332473,
				"y": 1.1255083957,
				"z": -1.2516393938,
				"element": "H" 
			},
			{
				"x": 1.8782957588,
				"y": 0.9557599609,
				"z": -1.5197328989,
				"element": "H" 
			},
			{
				"x": 0.1966572482,
				"y": -2.1190953775,
				"z": 0.6553150555,
				"element": "H" 
			},
			{
				"x": -1.0054117415,
				"y": -1.3280447832,
				"z": -0.3633337596,
				"element": "H" 
			},
			{
				"x": 2.3954542901,
				"y": -3.4802700784,
				"z": -1.8132526738,
				"element": "H" 
			},
			{
				"x": 0.6787664762,
				"y": -3.3348382515,
				"z": -1.3607271268,
				"element": "H" 
			},
			{
				"x": 1.9274814554,
				"y": -3.3034043076,
				"z": -0.1092284192,
				"element": "H" 
			}
		],
		 "valence_orbital": [ 
			{
				"type": "occ",
				"energy": -0.32573,
				"method": "rhf"
			},
			{
				"type": "occ",
				"energy": -0.32123,
				"method": "rhf"
			},
			{
				"type": "occ",
				"energy": -0.31318,
				"method": "rhf"
			},
			{
				"type": "occ",
				"energy": -0.23608,
				"method": "rhf"
			},
			{
				"type": "occ",
				"energy": -0.22691,
				"method": "rhf"
			},
			{
				"type": "unocc",
				"energy": 0.03474,
				"method": "rhf"
			},
			{
				"type": "unocc",
				"energy": 0.06899,
				"method": "rhf"
			},
			{
				"type": "unocc",
				"energy": 0.09529,
				"method": "rhf"
			},
			{
				"type": "unocc",
				"energy": 0.11165,
				"method": "rhf"
			},
			{
				"type": "unocc",
				"energy": 0.12422,
				"method": "rhf"
			}
		],
		"cosmo_sigma_profile": { 
			"-0.025": 0.0,
			"-0.024": 0.0,
			"-0.023": 0.0,
			"-0.022": 0.0,
			"-0.021": 0.0,
			"-0.02": 0.0,
			"-0.019": 0.0,
			"-0.018": 0.0,
			"-0.017": 0.0,
			"-0.016": 0.0,
			"-0.015": 0.0,
			"-0.014": 0.0,
			"-0.013": 0.0,
			"-0.012": 0.0,
			"-0.011": 0.0,
			"-0.01": 0.0,
			"-0.009": 0.0,
			"-0.008": 0.0,
			"-0.007": 0.0214842767488,
			"-0.006": 2.79779661149,
			"-0.005": 6.88183056894,
			"-0.004": 13.6428691006,
			"-0.003": 29.1187345918,
			"-0.002": 35.3118039777,
			"-0.001": 32.6330947447,
			"0.0": 24.5040477332,
			"0.001": 17.3389213278,
			"0.002": 5.68153887292,
			"0.003": 2.25632054738,
			"0.004": 1.16530967419,
			"0.005": 1.66490868328,
			"0.006": 2.30720543709,
			"0.007": 1.35833467293,
			"0.008": 1.2688373661,
			"0.009": 1.80888081738,
			"0.01": 1.99327089659,
			"0.011": 0.475956359583,
			"0.012": 1.41691217001,
			"0.013": 2.28250378551,
			"0.014": 4.76906167561,
			"0.015": 3.3740804309,
			"0.016": 0.646171469519,
			"0.017": 0.0,
			"0.018": 0.0,
			"0.019": 0.0,
			"0.02": 0.0,
			"0.021": 0.0,
			"0.022": 0.0,
			"0.023": 0.0,
			"0.024": 0.0,
			"0.025": 0.0
		}
	}
}
