{
	 "smiles": "COCC1=CC(=O)OC2=CC(O)=C(Cl)C=C12", 
	 "Tm": 470.15, 
	 "num_atms": 25, 
	 "gaussian": { 
		 "optdone": 1, 
		 "sigma_profile": "yes", 
		 "theory": "DFT", 
		 "functional": "B3LYP", 
		 "basiset": "6-31G**", 
		 "properties": { 
			 "R2extent": 4478.7958, 
			 "electric_dipole_moment_norm": 3.95327954235, 
			 "electric_quadrupole_moment_norm": 19.8216740459, 
			 "total_energy": -1185.66767715, 
			 "HOMO_LUMO_gap": 0.16077, 
			 "cosmo_polarized_energy": -13.68, 
			 "cosmo_cavitation_energy": 31.16, 
			 "cosmo_dispersion_energy": -22.74, 
			 "cosmo_repulsion_energy": 1.77, 
			 "cosmo_total_nonelectrostatic_energy": 10.2, 
			 "SMD_solvation_energy": 7.14 
		},
		"coords": [
			{
				"x": -2.1750690459,
				"y": 2.4920520125,
				"z": -0.4214601398,
				"element": "C" 
			},
			{
				"x": -0.7985784985,
				"y": 2.5005787117,
				"z": -0.0741315869,
				"element": "O" 
			},
			{
				"x": -0.543556308,
				"y": 2.0715451214,
				"z": 1.2512316871,
				"element": "C" 
			},
			{
				"x": -0.7914209603,
				"y": 0.5934400931,
				"z": 1.4985603289,
				"element": "C" 
			},
			{
				"x": -1.55234832,
				"y": 0.1994292181,
				"z": 2.5508880795,
				"element": "C" 
			},
			{
				"x": -1.7714455398,
				"y": -1.1986425563,
				"z": 2.8952104055,
				"element": "C" 
			},
			{
				"x": -2.4376239122,
				"y": -1.6134256416,
				"z": 3.8133671012,
				"element": "O" 
			},
			{
				"x": -1.1391923934,
				"y": -2.1347033599,
				"z": 2.0731461148,
				"element": "O" 
			},
			{
				"x": -0.3754500135,
				"y": -1.7725098476,
				"z": 1.004921562,
				"element": "C" 
			},
			{
				"x": 0.1973562556,
				"y": -2.8107941184,
				"z": 0.2759046351,
				"element": "C" 
			},
			{
				"x": 0.9931863188,
				"y": -2.5220294595,
				"z": -0.8317795469,
				"element": "C" 
			},
			{
				"x": 1.5335599289,
				"y": -3.5511305084,
				"z": -1.5161565625,
				"element": "O" 
			},
			{
				"x": 1.1943877667,
				"y": -1.1704161723,
				"z": -1.1893757575,
				"element": "C" 
			},
			{
				"x": 2.1918439094,
				"y": -0.8245821376,
				"z": -2.6005023488,
				"element": "Cl" 
			},
			{
				"x": 0.6249950463,
				"y": -0.1390226724,
				"z": -0.4662921907,
				"element": "C" 
			},
			{
				"x": -0.1739119193,
				"y": -0.4174607648,
				"z": 0.659870171,
				"element": "C" 
			},
			{
				"x": -2.7608371242,
				"y": 3.1327512149,
				"z": 0.2544213603,
				"element": "H" 
			},
			{
				"x": -2.245684643,
				"y": 2.8874706915,
				"z": -1.4366718027,
				"element": "H" 
			},
			{
				"x": -2.6016767239,
				"y": 1.4800793695,
				"z": -0.4011590809,
				"element": "H" 
			},
			{
				"x": -1.1341467542,
				"y": 2.657881537,
				"z": 1.9713311092,
				"element": "H" 
			},
			{
				"x": 0.5155740694,
				"y": 2.2911632647,
				"z": 1.430569534,
				"element": "H" 
			},
			{
				"x": -2.0364451239,
				"y": 0.9149894059,
				"z": 3.2063160297,
				"element": "H" 
			},
			{
				"x": 0.028486253,
				"y": -3.8405585519,
				"z": 0.5666280229,
				"element": "H" 
			},
			{
				"x": 2.055539469,
				"y": -3.2003465296,
				"z": -2.255004983,
				"element": "H" 
			},
			{
				"x": 0.767058263,
				"y": 0.8864416801,
				"z": -0.7827321413,
				"element": "H" 
			}
		],
		 "valence_orbital": [ 
			{
				"type": "occ",
				"energy": -0.29701,
				"method": "rhf"
			},
			{
				"type": "occ",
				"energy": -0.28493,
				"method": "rhf"
			},
			{
				"type": "occ",
				"energy": -0.27192,
				"method": "rhf"
			},
			{
				"type": "occ",
				"energy": -0.25737,
				"method": "rhf"
			},
			{
				"type": "occ",
				"energy": -0.23224,
				"method": "rhf"
			},
			{
				"type": "unocc",
				"energy": -0.07147,
				"method": "rhf"
			},
			{
				"type": "unocc",
				"energy": -0.02297,
				"method": "rhf"
			},
			{
				"type": "unocc",
				"energy": -0.00375,
				"method": "rhf"
			},
			{
				"type": "unocc",
				"energy": 0.00889,
				"method": "rhf"
			},
			{
				"type": "unocc",
				"energy": 0.07675,
				"method": "rhf"
			}
		],
		"cosmo_sigma_profile": { 
			"-0.025": 0.0,
			"-0.024": 0.0,
			"-0.023": 0.0,
			"-0.022": 0.0,
			"-0.021": 0.0,
			"-0.02": 0.0,
			"-0.019": 0.0,
			"-0.018": 0.0,
			"-0.017": 0.0,
			"-0.016": 0.169319142781,
			"-0.015": 0.800593868058,
			"-0.014": 0.805087318285,
			"-0.013": 0.392837065852,
			"-0.012": 0.753771652837,
			"-0.011": 1.17368413201,
			"-0.01": 0.834018926534,
			"-0.009": 1.06260264571,
			"-0.008": 3.77560180396,
			"-0.007": 8.01669079866,
			"-0.006": 10.476396244,
			"-0.005": 14.764127657,
			"-0.004": 18.9317338312,
			"-0.003": 21.0701357302,
			"-0.002": 23.2289845893,
			"-0.001": 19.8731378775,
			"0.0": 24.7579021042,
			"0.001": 24.0490263814,
			"0.002": 14.0796630998,
			"0.003": 12.0748637026,
			"0.004": 8.89756797339,
			"0.005": 4.40626019943,
			"0.006": 4.65490103681,
			"0.007": 4.44154703551,
			"0.008": 4.24844042646,
			"0.009": 5.3103709319,
			"0.01": 4.12041436904,
			"0.011": 5.19709411164,
			"0.012": 6.83313352174,
			"0.013": 2.23862186778,
			"0.014": 0.0180763863385,
			"0.015": 0.0,
			"0.016": 0.0,
			"0.017": 0.0,
			"0.018": 0.0,
			"0.019": 0.0,
			"0.02": 0.0,
			"0.021": 0.0,
			"0.022": 0.0,
			"0.023": 0.0,
			"0.024": 0.0,
			"0.025": 0.0
		}
	}
}
