{
	 "smiles": "CC1=CN=C(C=N1)C(O)=O", 
	 "Tm": 439.15, 
	 "num_atms": 16, 
	 "gaussian": { 
		 "optdone": 1, 
		 "sigma_profile": "yes", 
		 "theory": "DFT", 
		 "functional": "B3LYP", 
		 "basiset": "6-31G**", 
		 "properties": { 
			 "R2extent": 1773.5803, 
			 "electric_dipole_moment_norm": 5.47412050744, 
			 "electric_quadrupole_moment_norm": 5.08141202817, 
			 "total_energy": -492.21302012, 
			 "HOMO_LUMO_gap": 0.18493, 
			 "cosmo_polarized_energy": -11.94, 
			 "cosmo_cavitation_energy": 20.93, 
			 "cosmo_dispersion_energy": -15.73, 
			 "cosmo_repulsion_energy": 1.28, 
			 "cosmo_total_nonelectrostatic_energy": 6.48, 
			 "SMD_solvation_energy": 2.95 
		},
		"coords": [
			{
				"x": -1.3064179632,
				"y": -3.2783400785,
				"z": -1.5097777662,
				"element": "C" 
			},
			{
				"x": -1.1473785401,
				"y": -1.9300048486,
				"z": -0.8611249309,
				"element": "C" 
			},
			{
				"x": -0.1887720947,
				"y": -1.7092868213,
				"z": 0.1466098138,
				"element": "C" 
			},
			{
				"x": -0.0372827733,
				"y": -0.5223209934,
				"z": 0.7287242087,
				"element": "N" 
			},
			{
				"x": -0.8432196627,
				"y": 0.4672662583,
				"z": 0.3128050319,
				"element": "C" 
			},
			{
				"x": -1.7954512353,
				"y": 0.2582927035,
				"z": -0.6844966685,
				"element": "C" 
			},
			{
				"x": -1.9485660983,
				"y": -0.934585799,
				"z": -1.2703365241,
				"element": "N" 
			},
			{
				"x": -0.6698378289,
				"y": 1.8081800404,
				"z": 0.9726288231,
				"element": "C" 
			},
			{
				"x": 0.291473058,
				"y": 1.8303218118,
				"z": 1.910044173,
				"element": "O" 
			},
			{
				"x": -1.336676229,
				"y": 2.7749685903,
				"z": 0.6828840401,
				"element": "O" 
			},
			{
				"x": -1.5624449443,
				"y": -4.0448828512,
				"z": -0.7699033888,
				"element": "H" 
			},
			{
				"x": -0.3770623608,
				"y": -3.5946655745,
				"z": -1.9963903941,
				"element": "H" 
			},
			{
				"x": -2.0983271854,
				"y": -3.2323385135,
				"z": -2.2582717946,
				"element": "H" 
			},
			{
				"x": 0.4630575819,
				"y": -2.5134371008,
				"z": 0.481560907,
				"element": "H" 
			},
			{
				"x": -2.4374529811,
				"y": 1.0730066347,
				"z": -1.0061361868,
				"element": "H" 
			},
			{
				"x": 0.6717592572,
				"y": 0.9295265418,
				"z": 1.9469806564,
				"element": "H" 
			}
		],
		 "valence_orbital": [ 
			{
				"type": "occ",
				"energy": -0.33471,
				"method": "rhf"
			},
			{
				"type": "occ",
				"energy": -0.31709,
				"method": "rhf"
			},
			{
				"type": "occ",
				"energy": -0.28973,
				"method": "rhf"
			},
			{
				"type": "occ",
				"energy": -0.28609,
				"method": "rhf"
			},
			{
				"type": "occ",
				"energy": -0.26525,
				"method": "rhf"
			},
			{
				"type": "unocc",
				"energy": -0.08032,
				"method": "rhf"
			},
			{
				"type": "unocc",
				"energy": -0.06012,
				"method": "rhf"
			},
			{
				"type": "unocc",
				"energy": 0.03467,
				"method": "rhf"
			},
			{
				"type": "unocc",
				"energy": 0.09487,
				"method": "rhf"
			},
			{
				"type": "unocc",
				"energy": 0.10576,
				"method": "rhf"
			}
		],
		"cosmo_sigma_profile": { 
			"-0.025": 0.0,
			"-0.024": 0.0,
			"-0.023": 0.0,
			"-0.022": 0.0,
			"-0.021": 0.0,
			"-0.02": 0.0,
			"-0.019": 0.0,
			"-0.018": 0.0,
			"-0.017": 0.0,
			"-0.016": 0.0,
			"-0.015": 0.0,
			"-0.014": 0.198554891106,
			"-0.013": 0.344626449679,
			"-0.012": 0.63655862623,
			"-0.011": 0.812915589219,
			"-0.01": 1.00044201668,
			"-0.009": 0.93321610849,
			"-0.008": 3.81647918647,
			"-0.007": 4.65849984699,
			"-0.006": 11.5626973452,
			"-0.005": 12.3537749279,
			"-0.004": 13.994064203,
			"-0.003": 18.5458206615,
			"-0.002": 18.6803814444,
			"-0.001": 12.6667811288,
			"0.0": 7.04151883994,
			"0.001": 6.75081628106,
			"0.002": 5.58769170397,
			"0.003": 5.43096730706,
			"0.004": 4.2081933337,
			"0.005": 4.37229473855,
			"0.006": 3.64619687208,
			"0.007": 4.27155402611,
			"0.008": 4.02703464654,
			"0.009": 4.42557020436,
			"0.01": 6.05090978996,
			"0.011": 5.85687594735,
			"0.012": 3.94261302573,
			"0.013": 1.68649800268,
			"0.014": 0.371241523775,
			"0.015": 0.0335017163701,
			"0.016": 0.0,
			"0.017": 0.0,
			"0.018": 0.0,
			"0.019": 0.0,
			"0.02": 0.0,
			"0.021": 0.0,
			"0.022": 0.0,
			"0.023": 0.0,
			"0.024": 0.0,
			"0.025": 0.0
		}
	}
}
