{
	 "smiles": "COCCNS(=O)(=O)C1=CC(C(O)=O)=C(Br)C=C1", 
	 "Tm": 469.15, 
	 "num_atms": 30, 
	 "gaussian": { 
		 "optdone": 1, 
		 "sigma_profile": "yes", 
		 "theory": "DFT", 
		 "functional": "B3LYP", 
		 "basiset": "6-31G**", 
		 "properties": { 
			 "R2extent": 9938.5602, 
			 "electric_dipole_moment_norm": 4.652202904, 
			 "electric_quadrupole_moment_norm": 24.13118307, 
			 "total_energy": -3788.66902231, 
			 "HOMO_LUMO_gap": 0.18761, 
			 "cosmo_polarized_energy": -22.39, 
			 "cosmo_cavitation_energy": 38.48, 
			 "cosmo_dispersion_energy": -27.49, 
			 "cosmo_repulsion_energy": 2.13, 
			 "cosmo_total_nonelectrostatic_energy": 13.11, 
			 "SMD_solvation_energy": 6.08 
		},
		"coords": [
			{
				"x": -2.7424093796,
				"y": 1.2395848159,
				"z": -2.2984465488,
				"element": "C" 
			},
			{
				"x": -1.5440538952,
				"y": 1.2724235832,
				"z": -3.0522310183,
				"element": "O" 
			},
			{
				"x": -0.3665759371,
				"y": 1.1722522012,
				"z": -2.2789968812,
				"element": "C" 
			},
			{
				"x": -0.0435358337,
				"y": -0.2816935295,
				"z": -1.9052185762,
				"element": "C" 
			},
			{
				"x": 1.2319857336,
				"y": -0.3139383357,
				"z": -1.1741624675,
				"element": "N" 
			},
			{
				"x": 1.6804146731,
				"y": -1.7383040274,
				"z": -0.3971177939,
				"element": "S" 
			},
			{
				"x": 3.1364052966,
				"y": -1.6559161227,
				"z": -0.2624410394,
				"element": "O" 
			},
			{
				"x": 1.0368031879,
				"y": -2.9083633107,
				"z": -1.0051811261,
				"element": "O" 
			},
			{
				"x": 0.9241383184,
				"y": -1.532401956,
				"z": 1.2232033112,
				"element": "C" 
			},
			{
				"x": 1.1466768634,
				"y": -0.372478959,
				"z": 1.9546274737,
				"element": "C" 
			},
			{
				"x": 0.6245201239,
				"y": -0.214047196,
				"z": 3.2485290379,
				"element": "C" 
			},
			{
				"x": 0.9561116669,
				"y": 1.1322108757,
				"z": 3.8767082531,
				"element": "C" 
			},
			{
				"x": 0.7961011425,
				"y": 1.307640952,
				"z": 5.196652289,
				"element": "O" 
			},
			{
				"x": 1.3887342392,
				"y": 2.0319755867,
				"z": 3.1932991813,
				"element": "O" 
			},
			{
				"x": -0.1298225704,
				"y": -1.2836423905,
				"z": 3.7658824921,
				"element": "C" 
			},
			{
				"x": -0.9475249593,
				"y": -1.2534687423,
				"z": 5.5078036991,
				"element": "Br" 
			},
			{
				"x": -0.3585158543,
				"y": -2.4479329108,
				"z": 3.0311234572,
				"element": "C" 
			},
			{
				"x": 0.1716263825,
				"y": -2.5804501002,
				"z": 1.751071663,
				"element": "C" 
			},
			{
				"x": -3.5621798112,
				"y": 1.4086563485,
				"z": -3.0002719921,
				"element": "H" 
			},
			{
				"x": -2.9065515468,
				"y": 0.2723511957,
				"z": -1.8010412722,
				"element": "H" 
			},
			{
				"x": -2.7596826856,
				"y": 2.0308235984,
				"z": -1.5336344994,
				"element": "H" 
			},
			{
				"x": 0.4415453514,
				"y": 1.5780188055,
				"z": -2.8997876121,
				"element": "H" 
			},
			{
				"x": -0.4260932272,
				"y": 1.7852354172,
				"z": -1.3667619289,
				"element": "H" 
			},
			{
				"x": -0.0283127482,
				"y": -0.9038369959,
				"z": -2.8077137007,
				"element": "H" 
			},
			{
				"x": -0.8172835084,
				"y": -0.6812216357,
				"z": -1.2432789911,
				"element": "H" 
			},
			{
				"x": 2.0376380167,
				"y": 0.0018920863,
				"z": -1.7104910929,
				"element": "H" 
			},
			{
				"x": 1.7140904237,
				"y": 0.4525756894,
				"z": 1.5404313238,
				"element": "H" 
			},
			{
				"x": 0.4187289263,
				"y": 0.5218260999,
				"z": 5.628302217,
				"element": "H" 
			},
			{
				"x": -0.9526359,
				"y": -3.2453092909,
				"z": 3.46164,
				"element": "H" 
			},
			{
				"x": 0.003057511,
				"y": -3.4766617523,
				"z": 1.1645021423,
				"element": "H" 
			}
		],
		 "valence_orbital": [ 
			{
				"type": "occ",
				"energy": -0.29939,
				"method": "rhf"
			},
			{
				"type": "occ",
				"energy": -0.29545,
				"method": "rhf"
			},
			{
				"type": "occ",
				"energy": -0.28731,
				"method": "rhf"
			},
			{
				"type": "occ",
				"energy": -0.27695,
				"method": "rhf"
			},
			{
				"type": "occ",
				"energy": -0.26707,
				"method": "rhf"
			},
			{
				"type": "unocc",
				"energy": -0.07946,
				"method": "rhf"
			},
			{
				"type": "unocc",
				"energy": -0.06121,
				"method": "rhf"
			},
			{
				"type": "unocc",
				"energy": -0.03845,
				"method": "rhf"
			},
			{
				"type": "unocc",
				"energy": 0.01988,
				"method": "rhf"
			},
			{
				"type": "unocc",
				"energy": 0.04682,
				"method": "rhf"
			}
		],
		"cosmo_sigma_profile": { 
			"-0.025": 0.0,
			"-0.024": 0.0,
			"-0.023": 0.0,
			"-0.022": 0.0,
			"-0.021": 0.0,
			"-0.02": 0.0,
			"-0.019": 0.0,
			"-0.018": 0.0,
			"-0.017": 0.0,
			"-0.016": 0.00442772505364,
			"-0.015": 0.67444019844,
			"-0.014": 1.32997567757,
			"-0.013": 1.19863927544,
			"-0.012": 1.88266952945,
			"-0.011": 3.13230179968,
			"-0.01": 2.17615539507,
			"-0.009": 4.54634298448,
			"-0.008": 7.38857011836,
			"-0.007": 7.22854772538,
			"-0.006": 13.4068566201,
			"-0.005": 19.9089738546,
			"-0.004": 27.6140980002,
			"-0.003": 26.4378152599,
			"-0.002": 32.5028656108,
			"-0.001": 27.7149933859,
			"0.0": 19.6304654277,
			"0.001": 15.5430456435,
			"0.002": 11.9373141865,
			"0.003": 7.08195133822,
			"0.004": 7.03567704647,
			"0.005": 5.63475158738,
			"0.006": 5.84920181824,
			"0.007": 7.24933184116,
			"0.008": 7.12742383844,
			"0.009": 8.74217473404,
			"0.01": 15.4558643709,
			"0.011": 13.5434652241,
			"0.012": 5.389131862,
			"0.013": 1.85772681782,
			"0.014": 0.0583276323362,
			"0.015": 0.0,
			"0.016": 0.0,
			"0.017": 0.0,
			"0.018": 0.0,
			"0.019": 0.0,
			"0.02": 0.0,
			"0.021": 0.0,
			"0.022": 0.0,
			"0.023": 0.0,
			"0.024": 0.0,
			"0.025": 0.0
		}
	}
}
