{
	 "smiles": "O=C1C=CC(=O)N1C1=CC=C(C=C1)C1=NC2=C(O1)C=CC=C2", 
	 "Tm": 485.15, 
	 "num_atms": 32, 
	 "gaussian": { 
		 "optdone": 1, 
		 "sigma_profile": "yes", 
		 "theory": "DFT", 
		 "functional": "B3LYP", 
		 "basiset": "6-31G**", 
		 "properties": { 
			 "R2extent": 10198.3975, 
			 "electric_dipole_moment_norm": 2.71457992514, 
			 "electric_quadrupole_moment_norm": 30.8796475096, 
			 "total_energy": -989.015459564, 
			 "HOMO_LUMO_gap": 0.10624, 
			 "cosmo_polarized_energy": -12.56, 
			 "cosmo_cavitation_energy": 37.92, 
			 "cosmo_dispersion_energy": -28.25, 
			 "cosmo_repulsion_energy": 2.06, 
			 "cosmo_total_nonelectrostatic_energy": 11.72, 
			 "SMD_solvation_energy": 6.32 
		},
		"coords": [
			{
				"x": 4.4338938643,
				"y": -1.5520663052,
				"z": 2.187146419,
				"element": "O" 
			},
			{
				"x": 4.3066473009,
				"y": -2.3170027872,
				"z": 1.2553582205,
				"element": "C" 
			},
			{
				"x": 5.282808154,
				"y": -3.3818690396,
				"z": 0.8681367168,
				"element": "C" 
			},
			{
				"x": 4.817395887,
				"y": -4.02681169,
				"z": -0.1999374149,
				"element": "C" 
			},
			{
				"x": 3.502167214,
				"y": -3.4318802627,
				"z": -0.590863617,
				"element": "C" 
			},
			{
				"x": 2.8169138536,
				"y": -3.7928278521,
				"z": -1.5237307044,
				"element": "O" 
			},
			{
				"x": 3.2280173902,
				"y": -2.384665978,
				"z": 0.3309342983,
				"element": "N" 
			},
			{
				"x": 2.0667386345,
				"y": -1.543928666,
				"z": 0.3287133327,
				"element": "C" 
			},
			{
				"x": 1.912867434,
				"y": -0.5361692236,
				"z": 1.2996898245,
				"element": "C" 
			},
			{
				"x": 0.7854404661,
				"y": 0.2741317095,
				"z": 1.2909700565,
				"element": "C" 
			},
			{
				"x": -0.2170155759,
				"y": 0.1094643375,
				"z": 0.3241725902,
				"element": "C" 
			},
			{
				"x": -0.0584256574,
				"y": -0.8951214062,
				"z": -0.6396071332,
				"element": "C" 
			},
			{
				"x": 1.0651545792,
				"y": -1.7141557972,
				"z": -0.6434150424,
				"element": "C" 
			},
			{
				"x": -1.3876105234,
				"y": 0.9769914441,
				"z": 0.3434979802,
				"element": "C" 
			},
			{
				"x": -1.6511282768,
				"y": 1.9394036789,
				"z": 1.1784999926,
				"element": "N" 
			},
			{
				"x": -2.8785706645,
				"y": 2.4426855338,
				"z": 0.7585564631,
				"element": "C" 
			},
			{
				"x": -3.3048620963,
				"y": 1.7159675781,
				"z": -0.3634578406,
				"element": "C" 
			},
			{
				"x": -2.3452375715,
				"y": 0.7725149831,
				"z": -0.6306972168,
				"element": "O" 
			},
			{
				"x": -4.492698434,
				"y": 1.9567431861,
				"z": -1.0364710409,
				"element": "C" 
			},
			{
				"x": -5.2762951083,
				"y": 2.9961037644,
				"z": -0.5270263653,
				"element": "C" 
			},
			{
				"x": -4.8732431786,
				"y": 3.7414368121,
				"z": 0.5968364744,
				"element": "C" 
			},
			{
				"x": -3.6730052319,
				"y": 3.4797394237,
				"z": 1.2569656934,
				"element": "C" 
			},
			{
				"x": 6.1963471043,
				"y": -3.5294764247,
				"z": 1.4283854556,
				"element": "H" 
			},
			{
				"x": 5.243684467,
				"y": -4.8496871311,
				"z": -0.7579569889,
				"element": "H" 
			},
			{
				"x": 2.6701168861,
				"y": -0.3896491777,
				"z": 2.0540744457,
				"element": "H" 
			},
			{
				"x": 0.6701863812,
				"y": 1.0496066448,
				"z": 2.0405202642,
				"element": "H" 
			},
			{
				"x": -0.821605925,
				"y": -1.0396339817,
				"z": -1.3963960535,
				"element": "H" 
			},
			{
				"x": 1.164289115,
				"y": -2.4807031606,
				"z": -1.3960456941,
				"element": "H" 
			},
			{
				"x": -4.7926948517,
				"y": 1.3757124534,
				"z": -1.9014208471,
				"element": "H" 
			},
			{
				"x": -6.2187964392,
				"y": 3.233405985,
				"z": -1.0109448619,
				"element": "H" 
			},
			{
				"x": -5.5157372308,
				"y": 4.5396984979,
				"z": 0.9561293874,
				"element": "H" 
			},
			{
				"x": -3.3591419662,
				"y": 4.0520428512,
				"z": 2.1233832057,
				"element": "H" 
			}
		],
		 "valence_orbital": [ 
			{
				"type": "occ",
				"energy": -0.28153,
				"method": "rhf"
			},
			{
				"type": "occ",
				"energy": -0.26017,
				"method": "rhf"
			},
			{
				"type": "occ",
				"energy": -0.25983,
				"method": "rhf"
			},
			{
				"type": "occ",
				"energy": -0.24322,
				"method": "rhf"
			},
			{
				"type": "occ",
				"energy": -0.21582,
				"method": "rhf"
			},
			{
				"type": "unocc",
				"energy": -0.10958,
				"method": "rhf"
			},
			{
				"type": "unocc",
				"energy": -0.05516,
				"method": "rhf"
			},
			{
				"type": "unocc",
				"energy": -0.00892,
				"method": "rhf"
			},
			{
				"type": "unocc",
				"energy": 0.00029,
				"method": "rhf"
			},
			{
				"type": "unocc",
				"energy": 0.01267,
				"method": "rhf"
			}
		],
		"cosmo_sigma_profile": { 
			"-0.025": 0.0,
			"-0.024": 0.0,
			"-0.023": 0.0,
			"-0.022": 0.0,
			"-0.021": 0.0,
			"-0.02": 0.0,
			"-0.019": 0.0,
			"-0.018": 0.0,
			"-0.017": 0.0,
			"-0.016": 0.0,
			"-0.015": 0.0,
			"-0.014": 0.0,
			"-0.013": 0.0,
			"-0.012": 0.0,
			"-0.011": 0.181229123887,
			"-0.01": 3.32426154019,
			"-0.009": 3.22723169651,
			"-0.008": 4.087592178,
			"-0.007": 8.19985150609,
			"-0.006": 16.9977846397,
			"-0.005": 20.0959544543,
			"-0.004": 21.8879516685,
			"-0.003": 21.9761512477,
			"-0.002": 20.3621569698,
			"-0.001": 21.8162909328,
			"0.0": 23.74884996,
			"0.001": 25.342479144,
			"0.002": 26.8532728478,
			"0.003": 29.2864311054,
			"0.004": 17.7310431738,
			"0.005": 11.7110526919,
			"0.006": 3.86204735383,
			"0.007": 5.17198977492,
			"0.008": 5.22550116266,
			"0.009": 5.78783405844,
			"0.01": 5.85084100352,
			"0.011": 2.97885623657,
			"0.012": 1.14937392646,
			"0.013": 0.8110524694,
			"0.014": 0.516323795699,
			"0.015": 0.00103365721814,
			"0.016": 0.0,
			"0.017": 0.0,
			"0.018": 0.0,
			"0.019": 0.0,
			"0.02": 0.0,
			"0.021": 0.0,
			"0.022": 0.0,
			"0.023": 0.0,
			"0.024": 0.0,
			"0.025": 0.0
		}
	}
}
