{
	 "smiles": "O=C1OC(=NC1=CC1=CC=CO1)C1=CC=CC=C1", 
	 "Tm": 431.15, 
	 "num_atms": 27, 
	 "gaussian": { 
		 "optdone": 1, 
		 "sigma_profile": "yes", 
		 "theory": "DFT", 
		 "functional": "B3LYP", 
		 "basiset": "6-31G**", 
		 "properties": { 
			 "R2extent": 7395.5062, 
			 "electric_dipole_moment_norm": 1.4195811988, 
			 "electric_quadrupole_moment_norm": 25.8298763621, 
			 "total_energy": -819.315472315, 
			 "HOMO_LUMO_gap": 0.11778, 
			 "cosmo_polarized_energy": -9.82, 
			 "cosmo_cavitation_energy": 33.06, 
			 "cosmo_dispersion_energy": -24.55, 
			 "cosmo_repulsion_energy": 1.84, 
			 "cosmo_total_nonelectrostatic_energy": 10.35, 
			 "SMD_solvation_energy": 6.06 
		},
		"coords": [
			{
				"x": -3.3978743139,
				"y": -0.3855085016,
				"z": 0.3870533579,
				"element": "O" 
			},
			{
				"x": -2.3877937599,
				"y": -0.3486322369,
				"z": -0.2742168504,
				"element": "C" 
			},
			{
				"x": -2.2579438378,
				"y": -1.0826790895,
				"z": -1.4585010604,
				"element": "O" 
			},
			{
				"x": -0.9947951813,
				"y": -0.8067533576,
				"z": -1.9431860178,
				"element": "C" 
			},
			{
				"x": -0.2911695221,
				"y": 0.0093317116,
				"z": -1.2275477782,
				"element": "N" 
			},
			{
				"x": -1.0968826794,
				"y": 0.3559236353,
				"z": -0.1411853654,
				"element": "C" 
			},
			{
				"x": -0.6772527054,
				"y": 1.213413002,
				"z": 0.8363350565,
				"element": "C" 
			},
			{
				"x": -1.3478028416,
				"y": 1.6780843391,
				"z": 2.0021761112,
				"element": "C" 
			},
			{
				"x": -2.5817757124,
				"y": 1.4926425824,
				"z": 2.601457755,
				"element": "C" 
			},
			{
				"x": -2.5869730564,
				"y": 2.2835913644,
				"z": 3.7797381626,
				"element": "C" 
			},
			{
				"x": -1.3666751745,
				"y": 2.9018820857,
				"z": 3.8328519667,
				"element": "C" 
			},
			{
				"x": -0.6038870916,
				"y": 2.5534618485,
				"z": 2.7748679659,
				"element": "O" 
			},
			{
				"x": -0.5997250951,
				"y": -1.4549373595,
				"z": -3.1871496848,
				"element": "C" 
			},
			{
				"x": -1.4753820118,
				"y": -2.323437866,
				"z": -3.8589753414,
				"element": "C" 
			},
			{
				"x": -1.0740975586,
				"y": -2.9310695443,
				"z": -5.0469096385,
				"element": "C" 
			},
			{
				"x": 0.1955781262,
				"y": -2.6791217152,
				"z": -5.5711445138,
				"element": "C" 
			},
			{
				"x": 1.0694394818,
				"y": -1.8142278065,
				"z": -4.9034138311,
				"element": "C" 
			},
			{
				"x": 0.6779807003,
				"y": -1.2031844216,
				"z": -3.7173621453,
				"element": "C" 
			},
			{
				"x": 0.3283554057,
				"y": 1.6054469743,
				"z": 0.7065082468,
				"element": "H" 
			},
			{
				"x": -3.3637098678,
				"y": 0.8586189961,
				"z": 2.2144990035,
				"element": "H" 
			},
			{
				"x": -3.3888661599,
				"y": 2.3834630912,
				"z": 4.4967519362,
				"element": "H" 
			},
			{
				"x": -0.9169929895,
				"y": 3.5887284166,
				"z": 4.533978702,
				"element": "H" 
			},
			{
				"x": -2.4596544948,
				"y": -2.5143769605,
				"z": -3.4460472651,
				"element": "H" 
			},
			{
				"x": -1.753420574,
				"y": -3.6020930918,
				"z": -5.5640116185,
				"element": "H" 
			},
			{
				"x": 0.5048446208,
				"y": -3.1546446692,
				"z": -6.4974137812,
				"element": "H" 
			},
			{
				"x": 2.0568507569,
				"y": -1.6179540131,
				"z": -5.3105852309,
				"element": "H" 
			},
			{
				"x": 1.3418255362,
				"y": -0.5298674141,
				"z": -3.1858681416,
				"element": "H" 
			}
		],
		 "valence_orbital": [ 
			{
				"type": "occ",
				"energy": -0.28808,
				"method": "rhf"
			},
			{
				"type": "occ",
				"energy": -0.27128,
				"method": "rhf"
			},
			{
				"type": "occ",
				"energy": -0.26456,
				"method": "rhf"
			},
			{
				"type": "occ",
				"energy": -0.26129,
				"method": "rhf"
			},
			{
				"type": "occ",
				"energy": -0.2082,
				"method": "rhf"
			},
			{
				"type": "unocc",
				"energy": -0.09042,
				"method": "rhf"
			},
			{
				"type": "unocc",
				"energy": -0.0334,
				"method": "rhf"
			},
			{
				"type": "unocc",
				"energy": -0.01024,
				"method": "rhf"
			},
			{
				"type": "unocc",
				"energy": 0.01752,
				"method": "rhf"
			},
			{
				"type": "unocc",
				"energy": 0.05236,
				"method": "rhf"
			}
		],
		"cosmo_sigma_profile": { 
			"-0.025": 0.0,
			"-0.024": 0.0,
			"-0.023": 0.0,
			"-0.022": 0.0,
			"-0.021": 0.0,
			"-0.02": 0.0,
			"-0.019": 0.0,
			"-0.018": 0.0,
			"-0.017": 0.0,
			"-0.016": 0.0,
			"-0.015": 0.0,
			"-0.014": 0.0,
			"-0.013": 0.0,
			"-0.012": 0.0,
			"-0.011": 0.0462527037139,
			"-0.01": 1.54314919622,
			"-0.009": 2.37537796993,
			"-0.008": 4.10895608149,
			"-0.007": 6.47198316537,
			"-0.006": 14.317686507,
			"-0.005": 18.5062211439,
			"-0.004": 17.7464085005,
			"-0.003": 16.8378724601,
			"-0.002": 15.8546278873,
			"-0.001": 18.3235456185,
			"0.0": 26.2076237798,
			"0.001": 28.417743558,
			"0.002": 25.5994791763,
			"0.003": 22.0671111337,
			"0.004": 17.6243390031,
			"0.005": 6.49645935949,
			"0.006": 5.47974396324,
			"0.007": 5.09229529526,
			"0.008": 3.04606054762,
			"0.009": 3.89973755678,
			"0.01": 3.06355748444,
			"0.011": 3.49014193612,
			"0.012": 1.44136270843,
			"0.013": 0.135137363611,
			"0.014": 0.0,
			"0.015": 0.0,
			"0.016": 0.0,
			"0.017": 0.0,
			"0.018": 0.0,
			"0.019": 0.0,
			"0.02": 0.0,
			"0.021": 0.0,
			"0.022": 0.0,
			"0.023": 0.0,
			"0.024": 0.0,
			"0.025": 0.0
		}
	}
}
