{
	 "smiles": "CC1=CC=CC(=N1)C(O)=O", 
	 "Tm": 403.15, 
	 "num_atms": 17, 
	 "gaussian": { 
		 "optdone": 1, 
		 "sigma_profile": "yes", 
		 "theory": "DFT", 
		 "functional": "B3LYP", 
		 "basiset": "6-31G**", 
		 "properties": { 
			 "R2extent": 1871.4348, 
			 "electric_dipole_moment_norm": 3.51870425015, 
			 "electric_quadrupole_moment_norm": 8.76459410355, 
			 "total_energy": -476.177786879, 
			 "HOMO_LUMO_gap": 0.20371, 
			 "cosmo_polarized_energy": -13.56, 
			 "cosmo_cavitation_energy": 21.77, 
			 "cosmo_dispersion_energy": -16.14, 
			 "cosmo_repulsion_energy": 1.33, 
			 "cosmo_total_nonelectrostatic_energy": 6.96, 
			 "SMD_solvation_energy": 4.03 
		},
		"coords": [
			{
				"x": -2.6317932015,
				"y": -0.2214613897,
				"z": 1.1963802051,
				"element": "C" 
			},
			{
				"x": -1.6307748927,
				"y": 0.5339663306,
				"z": 0.3572121448,
				"element": "C" 
			},
			{
				"x": -1.3914234337,
				"y": 1.9044056066,
				"z": 0.5692337777,
				"element": "C" 
			},
			{
				"x": -0.4613872005,
				"y": 2.5626451728,
				"z": -0.2254653383,
				"element": "C" 
			},
			{
				"x": 0.2111505771,
				"y": 1.8434954445,
				"z": -1.2146863343,
				"element": "C" 
			},
			{
				"x": -0.0902809492,
				"y": 0.4864674536,
				"z": -1.3538156618,
				"element": "C" 
			},
			{
				"x": -0.9873072386,
				"y": -0.1556138298,
				"z": -0.5897732569,
				"element": "N" 
			},
			{
				"x": 0.5869384845,
				"y": -0.3622181679,
				"z": -2.3932541673,
				"element": "C" 
			},
			{
				"x": 1.4805228499,
				"y": 0.3545179532,
				"z": -3.1281877508,
				"element": "O" 
			},
			{
				"x": 0.3882277753,
				"y": -1.5393012194,
				"z": -2.5829821095,
				"element": "O" 
			},
			{
				"x": -2.3627389687,
				"y": -0.1887193746,
				"z": 2.2583162825,
				"element": "H" 
			},
			{
				"x": -2.6667595776,
				"y": -1.2627932857,
				"z": 0.8737594505,
				"element": "H" 
			},
			{
				"x": -3.6340208998,
				"y": 0.212028739,
				"z": 1.1026019141,
				"element": "H" 
			},
			{
				"x": -1.9320654768,
				"y": 2.4348367003,
				"z": 1.3479280883,
				"element": "H" 
			},
			{
				"x": -0.259667107,
				"y": 3.6200322845,
				"z": -0.0805974956,
				"element": "H" 
			},
			{
				"x": 0.9446044589,
				"y": 2.3117490759,
				"z": -1.8590720078,
				"element": "H" 
			},
			{
				"x": 1.8588748005,
				"y": -0.275437494,
				"z": -3.7630977405,
				"element": "H" 
			}
		],
		 "valence_orbital": [ 
			{
				"type": "occ",
				"energy": -0.3177,
				"method": "rhf"
			},
			{
				"type": "occ",
				"energy": -0.29236,
				"method": "rhf"
			},
			{
				"type": "occ",
				"energy": -0.27249,
				"method": "rhf"
			},
			{
				"type": "occ",
				"energy": -0.26308,
				"method": "rhf"
			},
			{
				"type": "occ",
				"energy": -0.25983,
				"method": "rhf"
			},
			{
				"type": "unocc",
				"energy": -0.05612,
				"method": "rhf"
			},
			{
				"type": "unocc",
				"energy": -0.02321,
				"method": "rhf"
			},
			{
				"type": "unocc",
				"energy": 0.05048,
				"method": "rhf"
			},
			{
				"type": "unocc",
				"energy": 0.07993,
				"method": "rhf"
			},
			{
				"type": "unocc",
				"energy": 0.09658,
				"method": "rhf"
			}
		],
		"cosmo_sigma_profile": { 
			"-0.025": 0.0,
			"-0.024": 0.0,
			"-0.023": 0.0,
			"-0.022": 0.0,
			"-0.021": 0.0,
			"-0.02": 0.0,
			"-0.019": 0.0114073012273,
			"-0.018": 0.939534177703,
			"-0.017": 0.973118213727,
			"-0.016": 0.764769252758,
			"-0.015": 0.492139691973,
			"-0.014": 0.747484288502,
			"-0.013": 0.994967386147,
			"-0.012": 0.433133357594,
			"-0.011": 0.950633831794,
			"-0.01": 1.06667592758,
			"-0.009": 0.351268708722,
			"-0.008": 1.30924244745,
			"-0.007": 6.22142803752,
			"-0.006": 7.91115954687,
			"-0.005": 10.359499969,
			"-0.004": 12.9396413091,
			"-0.003": 13.5647676828,
			"-0.002": 13.2293342275,
			"-0.001": 14.9043643348,
			"0.0": 16.1961899849,
			"0.001": 16.9783750497,
			"0.002": 11.2923546619,
			"0.003": 3.93335666208,
			"0.004": 3.84932542058,
			"0.005": 4.39114821708,
			"0.006": 3.02626587327,
			"0.007": 3.62481620573,
			"0.008": 2.53600689613,
			"0.009": 1.76317188107,
			"0.01": 2.37883019391,
			"0.011": 5.12764454521,
			"0.012": 3.95038330994,
			"0.013": 1.46967201873,
			"0.014": 1.45483268214,
			"0.015": 1.25209290287,
			"0.016": 0.876173280735,
			"0.017": 1.1579668772,
			"0.018": 0.340723807287,
			"0.019": 0.0,
			"0.02": 0.0,
			"0.021": 0.0,
			"0.022": 0.0,
			"0.023": 0.0,
			"0.024": 0.0,
			"0.025": 0.0
		}
	}
}
