{
	 "smiles": "BrC1=CC=CS1", 
	 "Tm": 263.15, 
	 "num_atms": 9, 
	 "gaussian": { 
		 "optdone": 1, 
		 "sigma_profile": "yes", 
		 "theory": "DFT", 
		 "functional": "B3LYP", 
		 "basiset": "6-31G**", 
		 "properties": { 
			 "R2extent": 1611.3777, 
			 "electric_dipole_moment_norm": 1.62682682545, 
			 "electric_quadrupole_moment_norm": 4.58441511973, 
			 "total_energy": -3123.79882575, 
			 "HOMO_LUMO_gap": 0.20815, 
			 "cosmo_polarized_energy": -3.32, 
			 "cosmo_cavitation_energy": 16.89, 
			 "cosmo_dispersion_energy": -13.83, 
			 "cosmo_repulsion_energy": 1.13, 
			 "cosmo_total_nonelectrostatic_energy": 4.19, 
			 "SMD_solvation_energy": 1.89 
		},
		"coords": [
			{
				"x": -2.3912461306,
				"y": -1.465607286,
				"z": 0.2489594706,
				"element": "Br" 
			},
			{
				"x": -0.6531691968,
				"y": -0.7635283053,
				"z": 0.4590233317,
				"element": "C" 
			},
			{
				"x": -0.1361833539,
				"y": 0.3458233707,
				"z": -0.1490634225,
				"element": "C" 
			},
			{
				"x": 1.2173676392,
				"y": 0.5863747209,
				"z": 0.2429033932,
				"element": "C" 
			},
			{
				"x": 1.6923166443,
				"y": -0.3376619425,
				"z": 1.1310852927,
				"element": "C" 
			},
			{
				"x": 0.4933577643,
				"y": -1.5345025452,
				"z": 1.5177889745,
				"element": "S" 
			},
			{
				"x": -0.6963782534,
				"y": 0.9599223786,
				"z": -0.8427902615,
				"element": "H" 
			},
			{
				"x": 1.8078975683,
				"y": 1.4169288777,
				"z": -0.126561341,
				"element": "H" 
			},
			{
				"x": 2.6717373187,
				"y": -0.3934492688,
				"z": 1.5855545621,
				"element": "H" 
			}
		],
		 "valence_orbital": [ 
			{
				"type": "occ",
				"energy": -0.35667,
				"method": "rhf"
			},
			{
				"type": "occ",
				"energy": -0.31687,
				"method": "rhf"
			},
			{
				"type": "occ",
				"energy": -0.29572,
				"method": "rhf"
			},
			{
				"type": "occ",
				"energy": -0.26195,
				"method": "rhf"
			},
			{
				"type": "occ",
				"energy": -0.23108,
				"method": "rhf"
			},
			{
				"type": "unocc",
				"energy": -0.02293,
				"method": "rhf"
			},
			{
				"type": "unocc",
				"energy": -0.00314,
				"method": "rhf"
			},
			{
				"type": "unocc",
				"energy": 0.02151,
				"method": "rhf"
			},
			{
				"type": "unocc",
				"energy": 0.05693,
				"method": "rhf"
			},
			{
				"type": "unocc",
				"energy": 0.09419,
				"method": "rhf"
			}
		],
		"cosmo_sigma_profile": { 
			"-0.025": 0.0,
			"-0.024": 0.0,
			"-0.023": 0.0,
			"-0.022": 0.0,
			"-0.021": 0.0,
			"-0.02": 0.0,
			"-0.019": 0.0,
			"-0.018": 0.0,
			"-0.017": 0.0,
			"-0.016": 0.0,
			"-0.015": 0.0,
			"-0.014": 0.0,
			"-0.013": 0.0,
			"-0.012": 0.0,
			"-0.011": 0.0,
			"-0.01": 0.0,
			"-0.009": 1.18306726357,
			"-0.008": 3.11178649087,
			"-0.007": 5.70488545492,
			"-0.006": 5.62050991309,
			"-0.005": 7.23533270994,
			"-0.004": 7.55046885385,
			"-0.003": 6.40275579568,
			"-0.002": 7.1444784639,
			"-0.001": 8.559989765,
			"0.0": 10.7778459926,
			"0.001": 14.5488831901,
			"0.002": 17.0570510076,
			"0.003": 24.3380317915,
			"0.004": 19.1834495138,
			"0.005": 3.32922977592,
			"0.006": 0.140125116576,
			"0.007": 0.0,
			"0.008": 0.0,
			"0.009": 0.0,
			"0.01": 0.0,
			"0.011": 0.0,
			"0.012": 0.0,
			"0.013": 0.0,
			"0.014": 0.0,
			"0.015": 0.0,
			"0.016": 0.0,
			"0.017": 0.0,
			"0.018": 0.0,
			"0.019": 0.0,
			"0.02": 0.0,
			"0.021": 0.0,
			"0.022": 0.0,
			"0.023": 0.0,
			"0.024": 0.0,
			"0.025": 0.0
		}
	}
}
