{
	 "smiles": "FC(F)(F)C1=CC(Cl)=C(CCNC(=O)C2=CC=CC=C2C(F)(F)F)N=C1", 
	 "Tm": 391.15, 
	 "num_atms": 37, 
	 "gaussian": { 
		 "optdone": 1, 
		 "sigma_profile": "yes", 
		 "theory": "DFT", 
		 "functional": "B3LYP", 
		 "basiset": "6-31G**", 
		 "properties": { 
			 "R2extent": 14850.4926, 
			 "electric_dipole_moment_norm": 4.75710859031, 
			 "electric_quadrupole_moment_norm": 24.4207818491, 
			 "total_energy": -1860.32237319, 
			 "HOMO_LUMO_gap": 0.18134, 
			 "cosmo_polarized_energy": -15.32, 
			 "cosmo_cavitation_energy": 46.8, 
			 "cosmo_dispersion_energy": -31.47, 
			 "cosmo_repulsion_energy": 2.28, 
			 "cosmo_total_nonelectrostatic_energy": 17.62, 
			 "SMD_solvation_energy": 9.07 
		},
		"coords": [
			{
				"x": -3.0968702088,
				"y": -2.064107644,
				"z": -3.9394560742,
				"element": "F" 
			},
			{
				"x": -2.1375918246,
				"y": -1.5344120453,
				"z": -4.7261602713,
				"element": "C" 
			},
			{
				"x": -1.7555624343,
				"y": -2.4956131263,
				"z": -5.5945264687,
				"element": "F" 
			},
			{
				"x": -2.696773835,
				"y": -0.5431110434,
				"z": -5.4525094105,
				"element": "F" 
			},
			{
				"x": -0.9739252543,
				"y": -1.0312923372,
				"z": -3.915310753,
				"element": "C" 
			},
			{
				"x": -0.1528072318,
				"y": -0.0173513098,
				"z": -4.4092587133,
				"element": "C" 
			},
			{
				"x": 0.9370617579,
				"y": 0.3771690727,
				"z": -3.644940507,
				"element": "C" 
			},
			{
				"x": 1.9714891108,
				"y": 1.6576192924,
				"z": -4.242976595,
				"element": "Cl" 
			},
			{
				"x": 1.2032690797,
				"y": -0.2398292956,
				"z": -2.4055165022,
				"element": "C" 
			},
			{
				"x": 2.3912498377,
				"y": 0.1543490344,
				"z": -1.5559477088,
				"element": "C" 
			},
			{
				"x": 2.6463282831,
				"y": -0.7487944679,
				"z": -0.342997244,
				"element": "C" 
			},
			{
				"x": 1.5919028955,
				"y": -0.6910199407,
				"z": 0.6538579157,
				"element": "N" 
			},
			{
				"x": 1.800725225,
				"y": -0.2072851996,
				"z": 1.9136916473,
				"element": "C" 
			},
			{
				"x": 2.8738836495,
				"y": 0.2381594872,
				"z": 2.3018372214,
				"element": "O" 
			},
			{
				"x": 0.5683909894,
				"y": -0.2123403874,
				"z": 2.7916229607,
				"element": "C" 
			},
			{
				"x": -0.6085256578,
				"y": 0.3694650355,
				"z": 2.3046798363,
				"element": "C" 
			},
			{
				"x": -1.7497433314,
				"y": 0.466471191,
				"z": 3.101703048,
				"element": "C" 
			},
			{
				"x": -1.7285748174,
				"y": -0.033963189,
				"z": 4.4011943178,
				"element": "C" 
			},
			{
				"x": -0.5676109364,
				"y": -0.6299931591,
				"z": 4.8948524245,
				"element": "C" 
			},
			{
				"x": 0.5811126157,
				"y": -0.719086489,
				"z": 4.105827784,
				"element": "C" 
			},
			{
				"x": 1.8076518068,
				"y": -1.3838988309,
				"z": 4.6962316097,
				"element": "C" 
			},
			{
				"x": 1.4770019328,
				"y": -2.1326035796,
				"z": 5.7793115041,
				"element": "F" 
			},
			{
				"x": 2.7281345591,
				"y": -0.4959654164,
				"z": 5.1070090032,
				"element": "F" 
			},
			{
				"x": 2.3984557679,
				"y": -2.2197197499,
				"z": 3.8151194258,
				"element": "F" 
			},
			{
				"x": 0.388393841,
				"y": -1.2042841457,
				"z": -1.9490794217,
				"element": "N" 
			},
			{
				"x": -0.6640510069,
				"y": -1.5895491278,
				"z": -2.6771213153,
				"element": "C" 
			},
			{
				"x": -0.3609405468,
				"y": 0.4579330075,
				"z": -5.3610469855,
				"element": "H" 
			},
			{
				"x": 3.2869003739,
				"y": 0.1623906927,
				"z": -2.1895387472,
				"element": "H" 
			},
			{
				"x": 2.2612533118,
				"y": 1.1916617059,
				"z": -1.220304485,
				"element": "H" 
			},
			{
				"x": 2.7783620847,
				"y": -1.7850153,
				"z": -0.6735706671,
				"element": "H" 
			},
			{
				"x": 3.5629520692,
				"y": -0.4287311435,
				"z": 0.1561609588,
				"element": "H" 
			},
			{
				"x": 0.7106493589,
				"y": -1.1161032676,
				"z": 0.4052634935,
				"element": "H" 
			},
			{
				"x": -0.6180125139,
				"y": 0.7701519221,
				"z": 1.2955249438,
				"element": "H" 
			},
			{
				"x": -2.6474734203,
				"y": 0.9332581187,
				"z": 2.7072547989,
				"element": "H" 
			},
			{
				"x": -2.610707183,
				"y": 0.0318119899,
				"z": 5.0305885148,
				"element": "H" 
			},
			{
				"x": -0.551774229,
				"y": -1.0405060636,
				"z": 5.8974848032,
				"element": "H" 
			},
			{
				"x": -1.2896241185,
				"y": -2.3695642907,
				"z": -2.2524543416,
				"element": "H" 
			}
		],
		 "valence_orbital": [ 
			{
				"type": "occ",
				"energy": -0.28129,
				"method": "rhf"
			},
			{
				"type": "occ",
				"energy": -0.27341,
				"method": "rhf"
			},
			{
				"type": "occ",
				"energy": -0.27122,
				"method": "rhf"
			},
			{
				"type": "occ",
				"energy": -0.25308,
				"method": "rhf"
			},
			{
				"type": "occ",
				"energy": -0.24668,
				"method": "rhf"
			},
			{
				"type": "unocc",
				"energy": -0.06534,
				"method": "rhf"
			},
			{
				"type": "unocc",
				"energy": -0.05597,
				"method": "rhf"
			},
			{
				"type": "unocc",
				"energy": -0.0389,
				"method": "rhf"
			},
			{
				"type": "unocc",
				"energy": -0.02454,
				"method": "rhf"
			},
			{
				"type": "unocc",
				"energy": 0.00612,
				"method": "rhf"
			}
		],
		"cosmo_sigma_profile": { 
			"-0.025": 0.0,
			"-0.024": 0.0,
			"-0.023": 0.0,
			"-0.022": 0.0,
			"-0.021": 0.0,
			"-0.02": 0.0,
			"-0.019": 0.0,
			"-0.018": 0.0,
			"-0.017": 0.0,
			"-0.016": 0.0,
			"-0.015": 0.0,
			"-0.014": 0.0,
			"-0.013": 0.0,
			"-0.012": 0.0,
			"-0.011": 0.0,
			"-0.01": 0.439788134278,
			"-0.009": 1.74566998984,
			"-0.008": 4.03069107111,
			"-0.007": 10.3745393579,
			"-0.006": 15.861097811,
			"-0.005": 23.23055761,
			"-0.004": 22.8359786817,
			"-0.003": 25.1577808503,
			"-0.002": 31.3077190594,
			"-0.001": 35.1388692036,
			"0.0": 29.2673438899,
			"0.001": 28.9850729739,
			"0.002": 56.1537866772,
			"0.003": 55.1419320342,
			"0.004": 11.2344479316,
			"0.005": 3.94574209297,
			"0.006": 2.85189581563,
			"0.007": 2.57839832966,
			"0.008": 2.50221865223,
			"0.009": 1.63124130768,
			"0.01": 2.0688765594,
			"0.011": 2.25080021646,
			"0.012": 2.86521336967,
			"0.013": 4.07141571437,
			"0.014": 1.89977812801,
			"0.015": 0.0,
			"0.016": 0.0,
			"0.017": 0.0,
			"0.018": 0.0,
			"0.019": 0.0,
			"0.02": 0.0,
			"0.021": 0.0,
			"0.022": 0.0,
			"0.023": 0.0,
			"0.024": 0.0,
			"0.025": 0.0
		}
	}
}
