{
	 "smiles": "CS(=O)(=O)CC1=C(N)C=CC(F)=C1", 
	 "Tm": 400.15, 
	 "num_atms": 23, 
	 "gaussian": { 
		 "optdone": 1, 
		 "sigma_profile": "yes", 
		 "theory": "DFT", 
		 "functional": "B3LYP", 
		 "basiset": "6-31G**", 
		 "properties": { 
			 "R2extent": 3395.8897, 
			 "electric_dipole_moment_norm": 2.64902313316, 
			 "electric_quadrupole_moment_norm": 21.9914932503, 
			 "total_energy": -1014.04898785, 
			 "HOMO_LUMO_gap": 0.18174, 
			 "cosmo_polarized_energy": -16.54, 
			 "cosmo_cavitation_energy": 27.88, 
			 "cosmo_dispersion_energy": -20.52, 
			 "cosmo_repulsion_energy": 1.54, 
			 "cosmo_total_nonelectrostatic_energy": 8.91, 
			 "SMD_solvation_energy": 4.7 
		},
		"coords": [
			{
				"x": 1.8366081548,
				"y": 0.2784491141,
				"z": 1.1993782682,
				"element": "C" 
			},
			{
				"x": 0.6466503826,
				"y": -0.5968336024,
				"z": 2.2381831384,
				"element": "S" 
			},
			{
				"x": 1.3582117921,
				"y": -1.145447327,
				"z": 3.4022718307,
				"element": "O" 
			},
			{
				"x": -0.5080569322,
				"y": 0.3073845347,
				"z": 2.4400359324,
				"element": "O" 
			},
			{
				"x": 0.0768223588,
				"y": -2.0126131714,
				"z": 1.2150719604,
				"element": "C" 
			},
			{
				"x": -0.5312891623,
				"y": -1.6694100594,
				"z": -0.11402989,
				"element": "C" 
			},
			{
				"x": -1.8751590108,
				"y": -1.2262420968,
				"z": -0.2066083674,
				"element": "C" 
			},
			{
				"x": -2.6468380533,
				"y": -1.0662957975,
				"z": 0.9442771959,
				"element": "N" 
			},
			{
				"x": -2.4256622934,
				"y": -1.0250920214,
				"z": -1.4857810297,
				"element": "C" 
			},
			{
				"x": -1.6806722515,
				"y": -1.2301639236,
				"z": -2.6429161439,
				"element": "C" 
			},
			{
				"x": -0.3571582248,
				"y": -1.6373373329,
				"z": -2.5260308475,
				"element": "C" 
			},
			{
				"x": 0.3827450007,
				"y": -1.8329180421,
				"z": -3.6415306134,
				"element": "F" 
			},
			{
				"x": 0.2175099903,
				"y": -1.8590587018,
				"z": -1.2840393941,
				"element": "C" 
			},
			{
				"x": 2.1431301972,
				"y": 1.1547399503,
				"z": 1.7732582372,
				"element": "H" 
			},
			{
				"x": 1.353426138,
				"y": 0.5783141959,
				"z": 0.2694018244,
				"element": "H" 
			},
			{
				"x": 2.694485933,
				"y": -0.3691894905,
				"z": 1.0125594608,
				"element": "H" 
			},
			{
				"x": -0.6469789079,
				"y": -2.4992511461,
				"z": 1.8791527737,
				"element": "H" 
			},
			{
				"x": 0.9490833314,
				"y": -2.6634966747,
				"z": 1.116886236,
				"element": "H" 
			},
			{
				"x": -3.5622652658,
				"y": -0.673927738,
				"z": 0.7679822181,
				"element": "H" 
			},
			{
				"x": -2.1720970664,
				"y": -0.5723020413,
				"z": 1.6962136602,
				"element": "H" 
			},
			{
				"x": -3.4576714003,
				"y": -0.6943018488,
				"z": -1.5679889079,
				"element": "H" 
			},
			{
				"x": -2.1106053989,
				"y": -1.070315196,
				"z": -3.625860403,
				"element": "H" 
			},
			{
				"x": 1.2441806886,
				"y": -2.2090915832,
				"z": -1.2337871394,
				"element": "H" 
			}
		],
		 "valence_orbital": [ 
			{
				"type": "occ",
				"energy": -0.30979,
				"method": "rhf"
			},
			{
				"type": "occ",
				"energy": -0.3023,
				"method": "rhf"
			},
			{
				"type": "occ",
				"energy": -0.29846,
				"method": "rhf"
			},
			{
				"type": "occ",
				"energy": -0.262,
				"method": "rhf"
			},
			{
				"type": "occ",
				"energy": -0.21089,
				"method": "rhf"
			},
			{
				"type": "unocc",
				"energy": -0.02915,
				"method": "rhf"
			},
			{
				"type": "unocc",
				"energy": 0.00434,
				"method": "rhf"
			},
			{
				"type": "unocc",
				"energy": 0.05838,
				"method": "rhf"
			},
			{
				"type": "unocc",
				"energy": 0.06438,
				"method": "rhf"
			},
			{
				"type": "unocc",
				"energy": 0.07303,
				"method": "rhf"
			}
		],
		"cosmo_sigma_profile": { 
			"-0.025": 0.0,
			"-0.024": 0.0,
			"-0.023": 0.0,
			"-0.022": 0.0,
			"-0.021": 0.0,
			"-0.02": 0.0,
			"-0.019": 0.0,
			"-0.018": 0.0,
			"-0.017": 0.0,
			"-0.016": 0.0,
			"-0.015": 0.0,
			"-0.014": 0.0,
			"-0.013": 0.101828895581,
			"-0.012": 1.29526935783,
			"-0.011": 2.52102639425,
			"-0.01": 3.37918986738,
			"-0.009": 7.10641742987,
			"-0.008": 10.9067322279,
			"-0.007": 11.7661279648,
			"-0.006": 14.8074093038,
			"-0.005": 13.1379461291,
			"-0.004": 15.0928723995,
			"-0.003": 10.9356793348,
			"-0.002": 8.77038357422,
			"-0.001": 7.53082107308,
			"0.0": 8.40659786985,
			"0.001": 10.8754490023,
			"0.002": 14.4720589553,
			"0.003": 13.515571947,
			"0.004": 16.3447576927,
			"0.005": 13.7847157723,
			"0.006": 3.50088308537,
			"0.007": 2.58630229617,
			"0.008": 3.04960214859,
			"0.009": 4.18686756746,
			"0.01": 4.73931939515,
			"0.011": 8.10206503792,
			"0.012": 8.69194293755,
			"0.013": 1.66998993037,
			"0.014": 0.232711995855,
			"0.015": 0.0,
			"0.016": 0.0,
			"0.017": 0.0,
			"0.018": 0.0,
			"0.019": 0.0,
			"0.02": 0.0,
			"0.021": 0.0,
			"0.022": 0.0,
			"0.023": 0.0,
			"0.024": 0.0,
			"0.025": 0.0
		}
	}
}
