{
	 "smiles": "CC(C(O)=O)C1=CC=CC(=C1)C(=O)C1=CC=CC=C1", 
	 "Tm": 367.15, 
	 "num_atms": 33, 
	 "gaussian": { 
		 "optdone": 1, 
		 "sigma_profile": "yes", 
		 "theory": "DFT", 
		 "functional": "B3LYP", 
		 "basiset": "6-31G**", 
		 "properties": { 
			 "R2extent": 6643.8503, 
			 "electric_dipole_moment_norm": 3.34659926642, 
			 "electric_quadrupole_moment_norm": 23.9761455958, 
			 "total_energy": -843.834569866, 
			 "HOMO_LUMO_gap": 0.17856, 
			 "cosmo_polarized_energy": -15.41, 
			 "cosmo_cavitation_energy": 37.6, 
			 "cosmo_dispersion_energy": -26.1, 
			 "cosmo_repulsion_energy": 2.03, 
			 "cosmo_total_nonelectrostatic_energy": 13.54, 
			 "SMD_solvation_energy": 8.02 
		},
		"coords": [
			{
				"x": 2.2180994049,
				"y": -1.2725656003,
				"z": 2.0528807816,
				"element": "C" 
			},
			{
				"x": 0.7589461936,
				"y": -0.8042465844,
				"z": 1.8861524102,
				"element": "C" 
			},
			{
				"x": -0.216757994,
				"y": -1.6517678205,
				"z": 2.6964314561,
				"element": "C" 
			},
			{
				"x": 0.0027870623,
				"y": -2.9845648708,
				"z": 2.5523600143,
				"element": "O" 
			},
			{
				"x": -1.104588208,
				"y": -1.2157719756,
				"z": 3.3931414265,
				"element": "O" 
			},
			{
				"x": 0.3316645407,
				"y": -0.7410433536,
				"z": 0.4202341427,
				"element": "C" 
			},
			{
				"x": 0.2774210663,
				"y": -1.8905061876,
				"z": -0.380421402,
				"element": "C" 
			},
			{
				"x": -0.1129295995,
				"y": -1.8055080053,
				"z": -1.7186278186,
				"element": "C" 
			},
			{
				"x": -0.4533578246,
				"y": -0.5763227098,
				"z": -2.2747333118,
				"element": "C" 
			},
			{
				"x": -0.3826253639,
				"y": 0.5894845706,
				"z": -1.4982371563,
				"element": "C" 
			},
			{
				"x": 0.001785024,
				"y": 0.4926190687,
				"z": -0.1524744728,
				"element": "C" 
			},
			{
				"x": -0.8156683625,
				"y": 1.8796674801,
				"z": -2.1336494104,
				"element": "C" 
			},
			{
				"x": -1.6253691881,
				"y": 1.8583670622,
				"z": -3.0543407392,
				"element": "O" 
			},
			{
				"x": -0.2682212341,
				"y": 3.1920354753,
				"z": -1.6544299951,
				"element": "C" 
			},
			{
				"x": -1.0573126948,
				"y": 4.3375275216,
				"z": -1.8480948982,
				"element": "C" 
			},
			{
				"x": -0.5870546478,
				"y": 5.5911390569,
				"z": -1.4692172947,
				"element": "C" 
			},
			{
				"x": 0.6907005792,
				"y": 5.7210648876,
				"z": -0.915875177,
				"element": "C" 
			},
			{
				"x": 1.4937528208,
				"y": 4.5925148367,
				"z": -0.7441648847,
				"element": "C" 
			},
			{
				"x": 1.0159364427,
				"y": 3.3320439499,
				"z": -1.1053112084,
				"element": "C" 
			},
			{
				"x": 2.3600849845,
				"y": -2.2796934011,
				"z": 1.6549358605,
				"element": "H" 
			},
			{
				"x": 2.8875776062,
				"y": -0.5932942801,
				"z": 1.5176249155,
				"element": "H" 
			},
			{
				"x": 2.5086405675,
				"y": -1.2802851207,
				"z": 3.1081521884,
				"element": "H" 
			},
			{
				"x": 0.6547615572,
				"y": 0.199607401,
				"z": 2.3067058867,
				"element": "H" 
			},
			{
				"x": -0.68475473,
				"y": -3.4268932312,
				"z": 3.0786278915,
				"element": "H" 
			},
			{
				"x": 0.52235044,
				"y": -2.8564698195,
				"z": 0.0496230576,
				"element": "H" 
			},
			{
				"x": -0.1582656177,
				"y": -2.7062425903,
				"z": -2.3239581223,
				"element": "H" 
			},
			{
				"x": -0.7813527804,
				"y": -0.4941101001,
				"z": -3.3053984191,
				"element": "H" 
			},
			{
				"x": 0.02043465,
				"y": 1.3846144001,
				"z": 0.4657497474,
				"element": "H" 
			},
			{
				"x": -2.036353844,
				"y": 4.2184118527,
				"z": -2.3001026512,
				"element": "H" 
			},
			{
				"x": -1.210832246,
				"y": 6.4691530807,
				"z": -1.6094915139,
				"element": "H" 
			},
			{
				"x": 1.0607494816,
				"y": 6.7003942279,
				"z": -0.6258817552,
				"element": "H" 
			},
			{
				"x": 2.4936967944,
				"y": 4.6929293286,
				"z": -0.3321685858,
				"element": "H" 
			},
			{
				"x": 1.6512551196,
				"y": 2.4609114502,
				"z": -0.9850409621,
				"element": "H" 
			}
		],
		 "valence_orbital": [ 
			{
				"type": "occ",
				"energy": -0.26338,
				"method": "rhf"
			},
			{
				"type": "occ",
				"energy": -0.26191,
				"method": "rhf"
			},
			{
				"type": "occ",
				"energy": -0.25928,
				"method": "rhf"
			},
			{
				"type": "occ",
				"energy": -0.25403,
				"method": "rhf"
			},
			{
				"type": "occ",
				"energy": -0.24341,
				"method": "rhf"
			},
			{
				"type": "unocc",
				"energy": -0.06485,
				"method": "rhf"
			},
			{
				"type": "unocc",
				"energy": -0.02015,
				"method": "rhf"
			},
			{
				"type": "unocc",
				"energy": -0.01672,
				"method": "rhf"
			},
			{
				"type": "unocc",
				"energy": -0.0078,
				"method": "rhf"
			},
			{
				"type": "unocc",
				"energy": 0.01379,
				"method": "rhf"
			}
		],
		"cosmo_sigma_profile": { 
			"-0.025": 0.0,
			"-0.024": 0.0,
			"-0.023": 0.0,
			"-0.022": 0.0,
			"-0.021": 0.0,
			"-0.02": 0.0,
			"-0.019": 0.0264552068916,
			"-0.018": 0.761081308691,
			"-0.017": 0.857851115716,
			"-0.016": 1.02028788123,
			"-0.015": 0.752357763839,
			"-0.014": 1.04758957855,
			"-0.013": 0.231822718084,
			"-0.012": 0.3034114712,
			"-0.011": 1.28652319357,
			"-0.01": 0.887449446664,
			"-0.009": 0.202887182415,
			"-0.008": 0.86391132506,
			"-0.007": 3.96052534554,
			"-0.006": 15.1070118691,
			"-0.005": 22.8419403906,
			"-0.004": 28.0388102469,
			"-0.003": 26.0735974573,
			"-0.002": 20.8788405722,
			"-0.001": 24.010085511,
			"0.0": 23.389335077,
			"0.001": 19.8483925256,
			"0.002": 20.366553884,
			"0.003": 21.5896603916,
			"0.004": 21.724182737,
			"0.005": 7.95100487934,
			"0.006": 4.26908519127,
			"0.007": 3.80691171533,
			"0.008": 3.22292200985,
			"0.009": 3.60767393674,
			"0.01": 4.35848982728,
			"0.011": 6.94056947543,
			"0.012": 8.26710668374,
			"0.013": 1.30613482529,
			"0.014": 0.0,
			"0.015": 0.0,
			"0.016": 0.0,
			"0.017": 0.0,
			"0.018": 0.0,
			"0.019": 0.0,
			"0.02": 0.0,
			"0.021": 0.0,
			"0.022": 0.0,
			"0.023": 0.0,
			"0.024": 0.0,
			"0.025": 0.0
		}
	}
}
