{
	 "smiles": "CC(C)C1COC(=O)N1", 
	 "Tm": 344.65, 
	 "num_atms": 20, 
	 "gaussian": { 
		 "optdone": 1, 
		 "sigma_profile": "yes", 
		 "theory": "DFT", 
		 "functional": "B3LYP", 
		 "basiset": "6-31G**", 
		 "properties": { 
			 "R2extent": 1338.1601, 
			 "electric_dipole_moment_norm": 5.26496255162, 
			 "electric_quadrupole_moment_norm": 10.9468675483, 
			 "total_energy": -440.490982113, 
			 "HOMO_LUMO_gap": 0.31113, 
			 "cosmo_polarized_energy": -13.57, 
			 "cosmo_cavitation_energy": 21.93, 
			 "cosmo_dispersion_energy": -16.22, 
			 "cosmo_repulsion_energy": 1.33, 
			 "cosmo_total_nonelectrostatic_energy": 7.05, 
			 "SMD_solvation_energy": 4.17 
		},
		"coords": [
			{
				"x": -1.2754806392,
				"y": -2.0723520456,
				"z": -0.2893567666,
				"element": "C" 
			},
			{
				"x": 0.1410073728,
				"y": -1.6512023239,
				"z": 0.1276017651,
				"element": "C" 
			},
			{
				"x": 0.5138013373,
				"y": -2.2066955077,
				"z": 1.5105160782,
				"element": "C" 
			},
			{
				"x": 0.3726744632,
				"y": -0.1199992149,
				"z": 0.0755532922,
				"element": "C" 
			},
			{
				"x": -0.6368332224,
				"y": 0.743284389,
				"z": 0.8733900905,
				"element": "C" 
			},
			{
				"x": -1.5821484942,
				"y": 1.2252744543,
				"z": -0.093908281,
				"element": "O" 
			},
			{
				"x": -1.0552652562,
				"y": 1.0924897869,
				"z": -1.3535780646,
				"element": "C" 
			},
			{
				"x": -1.6064892471,
				"y": 1.4784714732,
				"z": -2.3547568943,
				"element": "O" 
			},
			{
				"x": 0.1715385714,
				"y": 0.4709614015,
				"z": -1.2395763791,
				"element": "N" 
			},
			{
				"x": -2.0336356773,
				"y": -1.6897318317,
				"z": 0.4024963088,
				"element": "H" 
			},
			{
				"x": -1.3591950198,
				"y": -3.1637369076,
				"z": -0.2959304261,
				"element": "H" 
			},
			{
				"x": -1.5285797803,
				"y": -1.7152939505,
				"z": -1.2918225814,
				"element": "H" 
			},
			{
				"x": 0.8460766027,
				"y": -2.0823843892,
				"z": -0.5995735278,
				"element": "H" 
			},
			{
				"x": 1.5366322758,
				"y": -1.9335809797,
				"z": 1.7932939077,
				"element": "H" 
			},
			{
				"x": 0.4453826548,
				"y": -3.2987502395,
				"z": 1.5200495992,
				"element": "H" 
			},
			{
				"x": -0.1601222971,
				"y": -1.8330561838,
				"z": 2.2903292575,
				"element": "H" 
			},
			{
				"x": 1.3913329243,
				"y": 0.0799587968,
				"z": 0.430428343,
				"element": "H" 
			},
			{
				"x": -0.1432686844,
				"y": 1.6012823681,
				"z": 1.3427354145,
				"element": "H" 
			},
			{
				"x": -1.1805728368,
				"y": 0.1842894573,
				"z": 1.6377108082,
				"element": "H" 
			},
			{
				"x": 0.5722449522,
				"y": 0.0765714469,
				"z": -2.0777019441,
				"element": "H" 
			}
		],
		 "valence_orbital": [ 
			{
				"type": "occ",
				"energy": -0.35098,
				"method": "rhf"
			},
			{
				"type": "occ",
				"energy": -0.33481,
				"method": "rhf"
			},
			{
				"type": "occ",
				"energy": -0.28727,
				"method": "rhf"
			},
			{
				"type": "occ",
				"energy": -0.27024,
				"method": "rhf"
			},
			{
				"type": "occ",
				"energy": -0.25796,
				"method": "rhf"
			},
			{
				"type": "unocc",
				"energy": 0.05317,
				"method": "rhf"
			},
			{
				"type": "unocc",
				"energy": 0.06277,
				"method": "rhf"
			},
			{
				"type": "unocc",
				"energy": 0.08359,
				"method": "rhf"
			},
			{
				"type": "unocc",
				"energy": 0.09668,
				"method": "rhf"
			},
			{
				"type": "unocc",
				"energy": 0.10752,
				"method": "rhf"
			}
		],
		"cosmo_sigma_profile": { 
			"-0.025": 0.0,
			"-0.024": 0.0,
			"-0.023": 0.0,
			"-0.022": 0.0,
			"-0.021": 0.0,
			"-0.02": 0.0,
			"-0.019": 0.0,
			"-0.018": 0.0,
			"-0.017": 0.0,
			"-0.016": 0.0,
			"-0.015": 0.135072087833,
			"-0.014": 1.43847703272,
			"-0.013": 0.779150639996,
			"-0.012": 1.07189617789,
			"-0.011": 1.30824325094,
			"-0.01": 0.955813457346,
			"-0.009": 0.749094806276,
			"-0.008": 1.66103680009,
			"-0.007": 2.13033690085,
			"-0.006": 9.41821528888,
			"-0.005": 12.6840879101,
			"-0.004": 14.7203341985,
			"-0.003": 17.4415699933,
			"-0.002": 15.9452541129,
			"-0.001": 16.0983622456,
			"0.0": 15.4195249222,
			"0.001": 14.8166072963,
			"0.002": 4.72595457345,
			"0.003": 2.93412097491,
			"0.004": 3.11736125351,
			"0.005": 2.4554297929,
			"0.006": 2.08596274025,
			"0.007": 2.73609383976,
			"0.008": 2.74152832691,
			"0.009": 1.78786609536,
			"0.01": 4.52983456767,
			"0.011": 3.2134484525,
			"0.012": 3.99990832328,
			"0.013": 7.06065354934,
			"0.014": 2.32337088742,
			"0.015": 0.0354243829706,
			"0.016": 0.0,
			"0.017": 0.0,
			"0.018": 0.0,
			"0.019": 0.0,
			"0.02": 0.0,
			"0.021": 0.0,
			"0.022": 0.0,
			"0.023": 0.0,
			"0.024": 0.0,
			"0.025": 0.0
		}
	}
}
