{
	 "smiles": "OC(=O)CCCN1C(=S)CSC1=S", 
	 "Tm": 396.15, 
	 "num_atms": 22, 
	 "gaussian": { 
		 "optdone": 1, 
		 "sigma_profile": "yes", 
		 "theory": "DFT", 
		 "functional": "B3LYP", 
		 "basiset": "6-31G**", 
		 "properties": { 
			 "R2extent": 5248.6563, 
			 "electric_dipole_moment_norm": 4.53938448911, 
			 "electric_quadrupole_moment_norm": 14.2344809652, 
			 "total_energy": -1671.94268124, 
			 "HOMO_LUMO_gap": 0.1409, 
			 "cosmo_polarized_energy": -21.01, 
			 "cosmo_cavitation_energy": 30.7, 
			 "cosmo_dispersion_energy": -22.64, 
			 "cosmo_repulsion_energy": 1.68, 
			 "cosmo_total_nonelectrostatic_energy": 9.74, 
			 "SMD_solvation_energy": 3.96 
		},
		"coords": [
			{
				"x": 1.7831144609,
				"y": 3.1461015227,
				"z": -0.1162636428,
				"element": "O" 
			},
			{
				"x": 0.7731242373,
				"y": 2.7244065431,
				"z": -0.9284718213,
				"element": "C" 
			},
			{
				"x": 0.6937032659,
				"y": 3.14221357,
				"z": -2.0551449335,
				"element": "O" 
			},
			{
				"x": -0.2074287916,
				"y": 1.7358397565,
				"z": -0.307706893,
				"element": "C" 
			},
			{
				"x": -0.9826305115,
				"y": 2.3429004482,
				"z": 0.8768404679,
				"element": "C" 
			},
			{
				"x": -2.0276432937,
				"y": 1.4122499493,
				"z": 1.5060898925,
				"element": "C" 
			},
			{
				"x": -1.4680843943,
				"y": 0.1613577067,
				"z": 2.0622703223,
				"element": "N" 
			},
			{
				"x": -1.6181836798,
				"y": -1.0535162957,
				"z": 1.4231116712,
				"element": "C" 
			},
			{
				"x": -2.3830252904,
				"y": -1.3256323936,
				"z": -0.0102951429,
				"element": "S" 
			},
			{
				"x": -0.984308228,
				"y": -2.1776862482,
				"z": 2.2157375516,
				"element": "C" 
			},
			{
				"x": -0.2871766735,
				"y": -1.4496124887,
				"z": 3.7436398098,
				"element": "S" 
			},
			{
				"x": -0.8325705041,
				"y": 0.1651263752,
				"z": 3.3095460959,
				"element": "C" 
			},
			{
				"x": -0.6100809144,
				"y": 1.4757299346,
				"z": 4.282316623,
				"element": "S" 
			},
			{
				"x": 1.731036771,
				"y": 2.7134427264,
				"z": 0.7476483535,
				"element": "H" 
			},
			{
				"x": 0.348872338,
				"y": 0.847805423,
				"z": 0.0209844053,
				"element": "H" 
			},
			{
				"x": -0.8892837844,
				"y": 1.4207133953,
				"z": -1.0987836919,
				"element": "H" 
			},
			{
				"x": -1.5250865509,
				"y": 3.2322123636,
				"z": 0.5347753392,
				"element": "H" 
			},
			{
				"x": -0.2990556871,
				"y": 2.6839593092,
				"z": 1.6608444324,
				"element": "H" 
			},
			{
				"x": -2.7708234287,
				"y": 1.1051557108,
				"z": 0.7688552044,
				"element": "H" 
			},
			{
				"x": -2.5236624591,
				"y": 1.9281077191,
				"z": 2.3309155885,
				"element": "H" 
			},
			{
				"x": -1.7368607943,
				"y": -2.9309338506,
				"z": 2.4589140787,
				"element": "H" 
			},
			{
				"x": -0.1998460875,
				"y": -2.656541177,
				"z": 1.6253762892,
				"element": "H" 
			}
		],
		 "valence_orbital": [ 
			{
				"type": "occ",
				"energy": -0.27549,
				"method": "rhf"
			},
			{
				"type": "occ",
				"energy": -0.26925,
				"method": "rhf"
			},
			{
				"type": "occ",
				"energy": -0.26579,
				"method": "rhf"
			},
			{
				"type": "occ",
				"energy": -0.25623,
				"method": "rhf"
			},
			{
				"type": "occ",
				"energy": -0.24892,
				"method": "rhf"
			},
			{
				"type": "unocc",
				"energy": -0.10802,
				"method": "rhf"
			},
			{
				"type": "unocc",
				"energy": -0.04569,
				"method": "rhf"
			},
			{
				"type": "unocc",
				"energy": -0.02065,
				"method": "rhf"
			},
			{
				"type": "unocc",
				"energy": 0.00568,
				"method": "rhf"
			},
			{
				"type": "unocc",
				"energy": 0.03531,
				"method": "rhf"
			}
		],
		"cosmo_sigma_profile": { 
			"-0.025": 0.0,
			"-0.024": 0.0,
			"-0.023": 0.0,
			"-0.022": 0.0,
			"-0.021": 0.0,
			"-0.02": 0.0,
			"-0.019": 0.0190899526748,
			"-0.018": 0.63977032608,
			"-0.017": 1.33881226782,
			"-0.016": 0.964944345038,
			"-0.015": 1.10620699221,
			"-0.014": 1.15231717946,
			"-0.013": 0.745624831514,
			"-0.012": 1.22615190561,
			"-0.011": 1.34898277343,
			"-0.01": 3.25699540642,
			"-0.009": 7.00020961321,
			"-0.008": 10.7125169887,
			"-0.007": 9.0078090797,
			"-0.006": 12.4618446474,
			"-0.005": 18.110606626,
			"-0.004": 16.2723463307,
			"-0.003": 10.3347405754,
			"-0.002": 9.80182600469,
			"-0.001": 8.7310423727,
			"0.0": 11.1124855855,
			"0.001": 15.6762898838,
			"0.002": 16.5233753463,
			"0.003": 15.3282129853,
			"0.004": 15.4776667372,
			"0.005": 15.8681984892,
			"0.006": 10.5521418746,
			"0.007": 6.37088306697,
			"0.008": 6.26404167847,
			"0.009": 5.06744905698,
			"0.01": 4.25413977561,
			"0.011": 6.21903577274,
			"0.012": 5.64905030383,
			"0.013": 2.59983671802,
			"0.014": 0.0743219668514,
			"0.015": 0.0,
			"0.016": 0.0,
			"0.017": 0.0,
			"0.018": 0.0,
			"0.019": 0.0,
			"0.02": 0.0,
			"0.021": 0.0,
			"0.022": 0.0,
			"0.023": 0.0,
			"0.024": 0.0,
			"0.025": 0.0
		}
	}
}
