{
	 "smiles": "OC(=O)C1CC1C1=CC(Cl)=CC(Cl)=C1", 
	 "Tm": 408.15, 
	 "num_atms": 22, 
	 "gaussian": { 
		 "optdone": 1, 
		 "sigma_profile": "yes", 
		 "theory": "DFT", 
		 "functional": "B3LYP", 
		 "basiset": "6-31G**", 
		 "properties": { 
			 "R2extent": 5208.0839, 
			 "electric_dipole_moment_norm": 5.23521595066, 
			 "electric_quadrupole_moment_norm": 10.9951789885, 
			 "total_energy": -1456.69887829, 
			 "HOMO_LUMO_gap": 0.21759, 
			 "cosmo_polarized_energy": -16.51, 
			 "cosmo_cavitation_energy": 29.99, 
			 "cosmo_dispersion_energy": -21.73, 
			 "cosmo_repulsion_energy": 1.74, 
			 "cosmo_total_nonelectrostatic_energy": 10.0, 
			 "SMD_solvation_energy": 5.13 
		},
		"coords": [
			{
				"x": -1.0932542625,
				"y": 2.2856911073,
				"z": -1.2455325454,
				"element": "O" 
			},
			{
				"x": -0.444242258,
				"y": 1.0975545408,
				"z": -1.1365139534,
				"element": "C" 
			},
			{
				"x": 0.7641953696,
				"y": 1.068441178,
				"z": -1.1472564861,
				"element": "O" 
			},
			{
				"x": -1.3214618232,
				"y": -0.1087457733,
				"z": -1.0040750454,
				"element": "C" 
			},
			{
				"x": -0.6790885154,
				"y": -1.4676845979,
				"z": -1.1025821775,
				"element": "C" 
			},
			{
				"x": -1.2002270675,
				"y": -1.0365822216,
				"z": 0.2337237855,
				"element": "C" 
			},
			{
				"x": -0.3694932086,
				"y": -0.7467920241,
				"z": 1.4424635337,
				"element": "C" 
			},
			{
				"x": -1.0291148385,
				"y": -0.6911650587,
				"z": 2.6800092832,
				"element": "C" 
			},
			{
				"x": -0.3065693577,
				"y": -0.4486084367,
				"z": 3.8445519801,
				"element": "C" 
			},
			{
				"x": -1.1529786498,
				"y": -0.3865696082,
				"z": 5.3830152306,
				"element": "Cl" 
			},
			{
				"x": 1.073057611,
				"y": -0.258367124,
				"z": 3.8235199157,
				"element": "C" 
			},
			{
				"x": 1.7122204887,
				"y": -0.317663397,
				"z": 2.5858146045,
				"element": "C" 
			},
			{
				"x": 3.4515625451,
				"y": -0.0886316994,
				"z": 2.5262183831,
				"element": "Cl" 
			},
			{
				"x": 1.0196958643,
				"y": -0.5587673446,
				"z": 1.4014542515,
				"element": "C" 
			},
			{
				"x": -2.0493384379,
				"y": 2.1563962631,
				"z": -1.1760446565,
				"element": "H" 
			},
			{
				"x": -2.3337800516,
				"y": -0.0001318016,
				"z": -1.3876555249,
				"element": "H" 
			},
			{
				"x": -1.2139393735,
				"y": -2.2496702531,
				"z": -1.6318415673,
				"element": "H" 
			},
			{
				"x": 0.3941332514,
				"y": -1.4547484614,
				"z": -1.2614858435,
				"element": "H" 
			},
			{
				"x": -2.1653355805,
				"y": -1.4613838916,
				"z": 0.498972147,
				"element": "H" 
			},
			{
				"x": -2.1019524444,
				"y": -0.8408418962,
				"z": 2.7374184803,
				"element": "H" 
			},
			{
				"x": 1.6288193923,
				"y": -0.0735354868,
				"z": 4.7340061182,
				"element": "H" 
			},
			{
				"x": 1.5566913466,
				"y": -0.5715940131,
				"z": 0.4631200864,
				"element": "H" 
			}
		],
		 "valence_orbital": [ 
			{
				"type": "occ",
				"energy": -0.31327,
				"method": "rhf"
			},
			{
				"type": "occ",
				"energy": -0.30805,
				"method": "rhf"
			},
			{
				"type": "occ",
				"energy": -0.28235,
				"method": "rhf"
			},
			{
				"type": "occ",
				"energy": -0.25402,
				"method": "rhf"
			},
			{
				"type": "occ",
				"energy": -0.25053,
				"method": "rhf"
			},
			{
				"type": "unocc",
				"energy": -0.03294,
				"method": "rhf"
			},
			{
				"type": "unocc",
				"energy": -0.02296,
				"method": "rhf"
			},
			{
				"type": "unocc",
				"energy": -0.00237,
				"method": "rhf"
			},
			{
				"type": "unocc",
				"energy": 0.00772,
				"method": "rhf"
			},
			{
				"type": "unocc",
				"energy": 0.04398,
				"method": "rhf"
			}
		],
		"cosmo_sigma_profile": { 
			"-0.025": 0.0,
			"-0.024": 0.0,
			"-0.023": 0.0,
			"-0.022": 0.0,
			"-0.021": 0.0,
			"-0.02": 0.0496474520601,
			"-0.019": 0.890703996302,
			"-0.018": 1.17963269164,
			"-0.017": 0.870352675465,
			"-0.016": 1.34356000119,
			"-0.015": 1.05753252395,
			"-0.014": 0.897190778007,
			"-0.013": 0.93467346666,
			"-0.012": 1.43100020745,
			"-0.011": 1.07589904034,
			"-0.01": 0.974125043586,
			"-0.009": 1.23971205835,
			"-0.008": 5.6578301636,
			"-0.007": 10.3112992617,
			"-0.006": 11.1176221574,
			"-0.005": 10.0628468913,
			"-0.004": 8.44741834102,
			"-0.003": 10.8206187708,
			"-0.002": 14.673173144,
			"-0.001": 14.7919187505,
			"0.0": 16.6849552401,
			"0.001": 27.8065710732,
			"0.002": 30.0101743372,
			"0.003": 17.1988141371,
			"0.004": 21.6675380542,
			"0.005": 8.57198822579,
			"0.006": 2.7804473147,
			"0.007": 2.22760679263,
			"0.008": 2.6711474693,
			"0.009": 2.85974154603,
			"0.01": 4.53625982365,
			"0.011": 4.26975448393,
			"0.012": 3.11168616598,
			"0.013": 1.83266270413,
			"0.014": 0.169809228712,
			"0.015": 0.0,
			"0.016": 0.0,
			"0.017": 0.0,
			"0.018": 0.0,
			"0.019": 0.0,
			"0.02": 0.0,
			"0.021": 0.0,
			"0.022": 0.0,
			"0.023": 0.0,
			"0.024": 0.0,
			"0.025": 0.0
		}
	}
}
