{
	 "smiles": "ClC1=CC(Cl)=NC(=N1)C1CC1", 
	 "Tm": 313.15, 
	 "num_atms": 17, 
	 "gaussian": { 
		 "optdone": 1, 
		 "sigma_profile": "yes", 
		 "theory": "DFT", 
		 "functional": "B3LYP", 
		 "basiset": "6-31G**", 
		 "properties": { 
			 "R2extent": 2942.2486, 
			 "electric_dipole_moment_norm": 0.270868252108, 
			 "electric_quadrupole_moment_norm": 8.25097225423, 
			 "total_energy": -1300.2139658, 
			 "HOMO_LUMO_gap": 0.2216, 
			 "cosmo_polarized_energy": -6.83, 
			 "cosmo_cavitation_energy": 25.35, 
			 "cosmo_dispersion_energy": -18.84, 
			 "cosmo_repulsion_energy": 1.56, 
			 "cosmo_total_nonelectrostatic_energy": 8.07, 
			 "SMD_solvation_energy": 0.7 
		},
		"coords": [
			{
				"x": 1.5759913886,
				"y": 1.2698926214,
				"z": 2.2614876959,
				"element": "Cl" 
			},
			{
				"x": 0.6843513704,
				"y": 1.1768294028,
				"z": 0.7553486833,
				"element": "C" 
			},
			{
				"x": -0.2576737494,
				"y": 2.163766889,
				"z": 0.4713083308,
				"element": "C" 
			},
			{
				"x": -0.9058925829,
				"y": 1.9900984556,
				"z": -0.7500766631,
				"element": "C" 
			},
			{
				"x": -2.1182450705,
				"y": 3.1591246901,
				"z": -1.2356283521,
				"element": "Cl" 
			},
			{
				"x": -0.6675974005,
				"y": 0.9890472245,
				"z": -1.5797198924,
				"element": "N" 
			},
			{
				"x": 0.263836243,
				"y": 0.0993156176,
				"z": -1.1948583384,
				"element": "C" 
			},
			{
				"x": 0.9551857953,
				"y": 0.1590943966,
				"z": -0.043438521,
				"element": "N" 
			},
			{
				"x": 0.5761027002,
				"y": -1.0234898554,
				"z": -2.1312316456,
				"element": "C" 
			},
			{
				"x": -0.5183767694,
				"y": -1.9267436848,
				"z": -2.6358261714,
				"element": "C" 
			},
			{
				"x": 0.5095791083,
				"y": -2.4530388595,
				"z": -1.6617994026,
				"element": "C" 
			},
			{
				"x": -0.467978209,
				"y": 2.987794712,
				"z": 1.1386204744,
				"element": "H" 
			},
			{
				"x": 1.3696620323,
				"y": -0.7750971299,
				"z": -2.8345011881,
				"element": "H" 
			},
			{
				"x": -0.4733288215,
				"y": -2.2505500115,
				"z": -3.6707604839,
				"element": "H" 
			},
			{
				"x": -1.5238490481,
				"y": -1.7447859763,
				"z": -2.2693329236,
				"element": "H" 
			},
			{
				"x": 0.1998073216,
				"y": -2.6272586413,
				"z": -0.6360847071,
				"element": "H" 
			},
			{
				"x": 1.2674256916,
				"y": -3.1417998508,
				"z": -2.0213068952,
				"element": "H" 
			}
		],
		 "valence_orbital": [ 
			{
				"type": "occ",
				"energy": -0.30969,
				"method": "rhf"
			},
			{
				"type": "occ",
				"energy": -0.30526,
				"method": "rhf"
			},
			{
				"type": "occ",
				"energy": -0.30485,
				"method": "rhf"
			},
			{
				"type": "occ",
				"energy": -0.28294,
				"method": "rhf"
			},
			{
				"type": "occ",
				"energy": -0.27931,
				"method": "rhf"
			},
			{
				"type": "unocc",
				"energy": -0.05771,
				"method": "rhf"
			},
			{
				"type": "unocc",
				"energy": -0.0548,
				"method": "rhf"
			},
			{
				"type": "unocc",
				"energy": 0.00047,
				"method": "rhf"
			},
			{
				"type": "unocc",
				"energy": 0.04186,
				"method": "rhf"
			},
			{
				"type": "unocc",
				"energy": 0.08585,
				"method": "rhf"
			}
		],
		"cosmo_sigma_profile": { 
			"-0.025": 0.0,
			"-0.024": 0.0,
			"-0.023": 0.0,
			"-0.022": 0.0,
			"-0.021": 0.0,
			"-0.02": 0.0,
			"-0.019": 0.0,
			"-0.018": 0.0,
			"-0.017": 0.0,
			"-0.016": 0.0,
			"-0.015": 0.0,
			"-0.014": 0.0,
			"-0.013": 0.0,
			"-0.012": 0.0,
			"-0.011": 0.131928571897,
			"-0.01": 1.37115884641,
			"-0.009": 1.24586994351,
			"-0.008": 1.79158287968,
			"-0.007": 2.52449418442,
			"-0.006": 4.78423960523,
			"-0.005": 13.9653887977,
			"-0.004": 18.3928537705,
			"-0.003": 21.5128345595,
			"-0.002": 20.6382445919,
			"-0.001": 16.0778341031,
			"0.0": 15.3808130771,
			"0.001": 14.0666278918,
			"0.002": 17.9424859776,
			"0.003": 22.2234126904,
			"0.004": 11.4374989467,
			"0.005": 5.96962701549,
			"0.006": 4.04520779967,
			"0.007": 2.73363375271,
			"0.008": 2.99051378716,
			"0.009": 2.43452350975,
			"0.01": 2.06407343559,
			"0.011": 1.70689211483,
			"0.012": 1.6680815998,
			"0.013": 0.929560146607,
			"0.014": 0.00658460686371,
			"0.015": 0.0,
			"0.016": 0.0,
			"0.017": 0.0,
			"0.018": 0.0,
			"0.019": 0.0,
			"0.02": 0.0,
			"0.021": 0.0,
			"0.022": 0.0,
			"0.023": 0.0,
			"0.024": 0.0,
			"0.025": 0.0
		}
	}
}
