{
	 "smiles": "NC1=NN=C(CO)S1", 
	 "Tm": 443.15, 
	 "num_atms": 13, 
	 "gaussian": { 
		 "optdone": 1, 
		 "sigma_profile": "yes", 
		 "theory": "DFT", 
		 "functional": "B3LYP", 
		 "basiset": "6-31G**", 
		 "properties": { 
			 "R2extent": 1618.1472, 
			 "electric_dipole_moment_norm": 4.55291037579, 
			 "electric_quadrupole_moment_norm": 12.4999090121, 
			 "total_energy": -754.954220772, 
			 "HOMO_LUMO_gap": 0.21316, 
			 "cosmo_polarized_energy": -15.04, 
			 "cosmo_cavitation_energy": 18.9, 
			 "cosmo_dispersion_energy": -15.12, 
			 "cosmo_repulsion_energy": 1.23, 
			 "cosmo_total_nonelectrostatic_energy": 5.01, 
			 "SMD_solvation_energy": 1.41 
		},
		"coords": [
			{
				"x": -2.7621432106,
				"y": -1.1512170344,
				"z": 2.5397360289,
				"element": "N" 
			},
			{
				"x": -1.6731288411,
				"y": -1.1288783571,
				"z": 1.7038059406,
				"element": "C" 
			},
			{
				"x": -1.7204304851,
				"y": -1.4641913166,
				"z": 0.4445277875,
				"element": "N" 
			},
			{
				"x": -0.519681646,
				"y": -1.2676441316,
				"z": -0.1881630119,
				"element": "N" 
			},
			{
				"x": 0.4222120241,
				"y": -0.8123430958,
				"z": 0.5731876947,
				"element": "C" 
			},
			{
				"x": 1.8037641696,
				"y": -0.5388021341,
				"z": 0.0340625602,
				"element": "C" 
			},
			{
				"x": 1.9336413436,
				"y": -0.993039543,
				"z": -1.2900851014,
				"element": "O" 
			},
			{
				"x": -0.0938012896,
				"y": -0.5321647268,
				"z": 2.2358552334,
				"element": "S" 
			},
			{
				"x": -3.5513037848,
				"y": -1.6428159812,
				"z": 2.1389122196,
				"element": "H" 
			},
			{
				"x": -2.5916331071,
				"y": -1.3734913419,
				"z": 3.5100769842,
				"element": "H" 
			},
			{
				"x": 2.0024983436,
				"y": 0.544267389,
				"z": 0.1017672005,
				"element": "H" 
			},
			{
				"x": 2.5519829121,
				"y": -1.0365690856,
				"z": 0.6681181803,
				"element": "H" 
			},
			{
				"x": 1.0397235713,
				"y": -1.2119106409,
				"z": -1.5995017166,
				"element": "H" 
			}
		],
		 "valence_orbital": [ 
			{
				"type": "occ",
				"energy": -0.31219,
				"method": "rhf"
			},
			{
				"type": "occ",
				"energy": -0.30028,
				"method": "rhf"
			},
			{
				"type": "occ",
				"energy": -0.27156,
				"method": "rhf"
			},
			{
				"type": "occ",
				"energy": -0.26797,
				"method": "rhf"
			},
			{
				"type": "occ",
				"energy": -0.24018,
				"method": "rhf"
			},
			{
				"type": "unocc",
				"energy": -0.02702,
				"method": "rhf"
			},
			{
				"type": "unocc",
				"energy": -0.01228,
				"method": "rhf"
			},
			{
				"type": "unocc",
				"energy": 0.03705,
				"method": "rhf"
			},
			{
				"type": "unocc",
				"energy": 0.05405,
				"method": "rhf"
			},
			{
				"type": "unocc",
				"energy": 0.0927,
				"method": "rhf"
			}
		],
		"cosmo_sigma_profile": { 
			"-0.025": 0.0,
			"-0.024": 0.0,
			"-0.023": 0.0,
			"-0.022": 0.0,
			"-0.021": 0.0,
			"-0.02": 0.0,
			"-0.019": 0.0,
			"-0.018": 0.0,
			"-0.017": 0.0,
			"-0.016": 0.145647650625,
			"-0.015": 1.53434695206,
			"-0.014": 2.54475023121,
			"-0.013": 3.13752077785,
			"-0.012": 2.59138635976,
			"-0.011": 2.67269547015,
			"-0.01": 2.61554576352,
			"-0.009": 1.90628966695,
			"-0.008": 3.47473266171,
			"-0.007": 6.16398386642,
			"-0.006": 8.45555185559,
			"-0.005": 6.77954407524,
			"-0.004": 6.84089962108,
			"-0.003": 7.32475293467,
			"-0.002": 7.96935192458,
			"-0.001": 10.4985911731,
			"0.0": 10.7792311191,
			"0.001": 9.6961176932,
			"0.002": 8.0769839468,
			"0.003": 5.77290199514,
			"0.004": 4.55805950904,
			"0.005": 3.5388939664,
			"0.006": 3.66376147555,
			"0.007": 4.30781192227,
			"0.008": 4.48319336285,
			"0.009": 3.869548749,
			"0.01": 3.49826273291,
			"0.011": 4.34584482668,
			"0.012": 4.05179144385,
			"0.013": 3.40949196272,
			"0.014": 2.73346095933,
			"0.015": 0.957388375988,
			"0.016": 0.0313315027008,
			"0.017": 0.0,
			"0.018": 0.0,
			"0.019": 0.0,
			"0.02": 0.0,
			"0.021": 0.0,
			"0.022": 0.0,
			"0.023": 0.0,
			"0.024": 0.0,
			"0.025": 0.0
		}
	}
}
