{
	 "smiles": "OC1=C(C=O)C=C(C=C1)C1=CC=CC=C1", 
	 "Tm": 373.15, 
	 "num_atms": 25, 
	 "gaussian": { 
		 "optdone": 1, 
		 "sigma_profile": "yes", 
		 "theory": "DFT", 
		 "functional": "B3LYP", 
		 "basiset": "6-31G**", 
		 "properties": { 
			 "R2extent": 4113.7963, 
			 "electric_dipole_moment_norm": 4.60377191985, 
			 "electric_quadrupole_moment_norm": 18.3957646283, 
			 "total_energy": -651.852649188, 
			 "HOMO_LUMO_gap": 0.16109, 
			 "cosmo_polarized_energy": -13.9, 
			 "cosmo_cavitation_energy": 29.72, 
			 "cosmo_dispersion_energy": -21.62, 
			 "cosmo_repulsion_energy": 1.67, 
			 "cosmo_total_nonelectrostatic_energy": 9.77, 
			 "SMD_solvation_energy": 6.27 
		},
		"coords": [
			{
				"x": 2.1290839709,
				"y": -0.1102141974,
				"z": 2.78655473,
				"element": "O" 
			},
			{
				"x": 1.3846769416,
				"y": -0.253053539,
				"z": 1.6542312461,
				"element": "C" 
			},
			{
				"x": 1.7000682672,
				"y": 0.5522907398,
				"z": 0.5419272096,
				"element": "C" 
			},
			{
				"x": 2.8014745257,
				"y": 1.5406042396,
				"z": 0.589049713,
				"element": "C" 
			},
			{
				"x": 3.1047499401,
				"y": 2.2561187008,
				"z": -0.3507565589,
				"element": "O" 
			},
			{
				"x": 0.9458072722,
				"y": 0.4196583631,
				"z": -0.6315298203,
				"element": "C" 
			},
			{
				"x": -0.1109846825,
				"y": -0.4885354928,
				"z": -0.7405838273,
				"element": "C" 
			},
			{
				"x": -0.4006002837,
				"y": -1.280967385,
				"z": 0.387465554,
				"element": "C" 
			},
			{
				"x": 0.3294110371,
				"y": -1.1675932106,
				"z": 1.5655464114,
				"element": "C" 
			},
			{
				"x": -0.8986437041,
				"y": -0.6168979822,
				"z": -1.9931646079,
				"element": "C" 
			},
			{
				"x": -0.2787795876,
				"y": -0.4994275927,
				"z": -3.2489332524,
				"element": "C" 
			},
			{
				"x": -1.0174132877,
				"y": -0.61791639,
				"z": -4.4252272432,
				"element": "C" 
			},
			{
				"x": -2.3912496617,
				"y": -0.8611836832,
				"z": -4.3724777817,
				"element": "C" 
			},
			{
				"x": -3.0204555901,
				"y": -0.9815395413,
				"z": -3.1321087055,
				"element": "C" 
			},
			{
				"x": -2.2825262312,
				"y": -0.858612831,
				"z": -1.9555833443,
				"element": "C" 
			},
			{
				"x": 1.8018753339,
				"y": -0.7165115077,
				"z": 3.4637308384,
				"element": "H" 
			},
			{
				"x": 3.350731941,
				"y": 1.597810937,
				"z": 1.547572146,
				"element": "H" 
			},
			{
				"x": 1.206822105,
				"y": 1.0754068361,
				"z": -1.4562479823,
				"element": "H" 
			},
			{
				"x": -1.1981794286,
				"y": -2.0158494869,
				"z": 0.3329825484,
				"element": "H" 
			},
			{
				"x": 0.0896697138,
				"y": -1.7998108694,
				"z": 2.4181156991,
				"element": "H" 
			},
			{
				"x": 0.7934486136,
				"y": -0.3356323605,
				"z": -3.3018609976,
				"element": "H" 
			},
			{
				"x": -0.5165393396,
				"y": -0.5290612939,
				"z": -5.3851042398,
				"element": "H" 
			},
			{
				"x": -2.9661269076,
				"y": -0.954992172,
				"z": -5.2891542615,
				"element": "H" 
			},
			{
				"x": -4.0906979655,
				"y": -1.160755878,
				"z": -3.0793582089,
				"element": "H" 
			},
			{
				"x": -2.7886229921,
				"y": -0.9235344027,
				"z": -0.9965852642,
				"element": "H" 
			}
		],
		 "valence_orbital": [ 
			{
				"type": "occ",
				"energy": -0.26871,
				"method": "rhf"
			},
			{
				"type": "occ",
				"energy": -0.26369,
				"method": "rhf"
			},
			{
				"type": "occ",
				"energy": -0.25221,
				"method": "rhf"
			},
			{
				"type": "occ",
				"energy": -0.2464,
				"method": "rhf"
			},
			{
				"type": "occ",
				"energy": -0.22048,
				"method": "rhf"
			},
			{
				"type": "unocc",
				"energy": -0.05939,
				"method": "rhf"
			},
			{
				"type": "unocc",
				"energy": -0.02734,
				"method": "rhf"
			},
			{
				"type": "unocc",
				"energy": -0.00378,
				"method": "rhf"
			},
			{
				"type": "unocc",
				"energy": 0.0169,
				"method": "rhf"
			},
			{
				"type": "unocc",
				"energy": 0.04917,
				"method": "rhf"
			}
		],
		"cosmo_sigma_profile": { 
			"-0.025": 0.0,
			"-0.024": 0.0,
			"-0.023": 0.0,
			"-0.022": 0.0,
			"-0.021": 0.0,
			"-0.02": 0.0,
			"-0.019": 0.226374597899,
			"-0.018": 1.33567251959,
			"-0.017": 0.949694376066,
			"-0.016": 0.960050339979,
			"-0.015": 1.13524172245,
			"-0.014": 1.26694553923,
			"-0.013": 1.03082921371,
			"-0.012": 1.06748960852,
			"-0.011": 0.89622983509,
			"-0.01": 0.785885081767,
			"-0.009": 1.33790573326,
			"-0.008": 1.29309621367,
			"-0.007": 3.2745104717,
			"-0.006": 11.1111638681,
			"-0.005": 17.3393665803,
			"-0.004": 17.747485884,
			"-0.003": 16.651851003,
			"-0.002": 14.8502539423,
			"-0.001": 14.3286421732,
			"0.0": 13.5200460927,
			"0.001": 19.0067196726,
			"0.002": 19.8457980407,
			"0.003": 23.1466060033,
			"0.004": 13.6236287756,
			"0.005": 12.2179512117,
			"0.006": 8.88732420003,
			"0.007": 3.61059224074,
			"0.008": 4.05499434118,
			"0.009": 1.70140465923,
			"0.01": 2.38150266185,
			"0.011": 3.90991203876,
			"0.012": 3.72939546898,
			"0.013": 1.23300707447,
			"0.014": 0.079393751468,
			"0.015": 0.0,
			"0.016": 0.0,
			"0.017": 0.0,
			"0.018": 0.0,
			"0.019": 0.0,
			"0.02": 0.0,
			"0.021": 0.0,
			"0.022": 0.0,
			"0.023": 0.0,
			"0.024": 0.0,
			"0.025": 0.0
		}
	}
}
