{
	 "smiles": "OC(=O)CCSC1=C(Cl)C=CC=C1", 
	 "Tm": 370.15, 
	 "num_atms": 22, 
	 "gaussian": { 
		 "optdone": 1, 
		 "sigma_profile": "yes", 
		 "theory": "DFT", 
		 "functional": "B3LYP", 
		 "basiset": "6-31G**", 
		 "properties": { 
			 "R2extent": 3640.2762, 
			 "electric_dipole_moment_norm": 1.5994109697, 
			 "electric_quadrupole_moment_norm": 12.0289867146, 
			 "total_energy": -1357.22263979, 
			 "HOMO_LUMO_gap": 0.20174, 
			 "cosmo_polarized_energy": -11.77, 
			 "cosmo_cavitation_energy": 30.4, 
			 "cosmo_dispersion_energy": -21.09, 
			 "cosmo_repulsion_energy": 1.64, 
			 "cosmo_total_nonelectrostatic_energy": 10.95, 
			 "SMD_solvation_energy": 5.33 
		},
		"coords": [
			{
				"x": -3.9418550734,
				"y": -0.7414831125,
				"z": 0.1348279331,
				"element": "O" 
			},
			{
				"x": -3.1758996652,
				"y": 0.1821244487,
				"z": -0.4954419799,
				"element": "C" 
			},
			{
				"x": -3.4418741514,
				"y": 0.6072081875,
				"z": -1.5978455454,
				"element": "O" 
			},
			{
				"x": -1.9910063378,
				"y": 0.5981418215,
				"z": 0.3513283977,
				"element": "C" 
			},
			{
				"x": -1.0947825102,
				"y": -0.5768697376,
				"z": 0.7620465268,
				"element": "C" 
			},
			{
				"x": -0.4325249704,
				"y": -1.5520708359,
				"z": -0.6558871869,
				"element": "S" 
			},
			{
				"x": 0.5780001142,
				"y": -0.3321486909,
				"z": -1.4940299803,
				"element": "C" 
			},
			{
				"x": 1.8793178194,
				"y": 0.0094185108,
				"z": -1.0812118346,
				"element": "C" 
			},
			{
				"x": 2.5858444268,
				"y": -0.6849622591,
				"z": 0.3697241394,
				"element": "Cl" 
			},
			{
				"x": 2.6516897918,
				"y": 0.9182414135,
				"z": -1.8060307845,
				"element": "C" 
			},
			{
				"x": 2.1338796544,
				"y": 1.4986847274,
				"z": -2.9634380293,
				"element": "C" 
			},
			{
				"x": 0.8451450692,
				"y": 1.1788851165,
				"z": -3.3900667018,
				"element": "C" 
			},
			{
				"x": 0.0775508295,
				"y": 0.2737273988,
				"z": -2.6582730646,
				"element": "C" 
			},
			{
				"x": -4.6579567873,
				"y": -0.9667210786,
				"z": -0.4825293288,
				"element": "H" 
			},
			{
				"x": -1.4290951267,
				"y": 1.3407911332,
				"z": -0.2175912213,
				"element": "H" 
			},
			{
				"x": -2.3707508025,
				"y": 1.0817949182,
				"z": 1.2609910332,
				"element": "H" 
			},
			{
				"x": -0.2616609103,
				"y": -0.2262312089,
				"z": 1.3758653718,
				"element": "H" 
			},
			{
				"x": -1.6625921564,
				"y": -1.3080827959,
				"z": 1.3430548868,
				"element": "H" 
			},
			{
				"x": 3.6508672033,
				"y": 1.1609408664,
				"z": -1.4615231742,
				"element": "H" 
			},
			{
				"x": 2.7410070723,
				"y": 2.2022203171,
				"z": -3.5252654636,
				"element": "H" 
			},
			{
				"x": 0.4335402236,
				"y": 1.6343953234,
				"z": -4.2853197728,
				"element": "H" 
			},
			{
				"x": -0.9338437129,
				"y": 0.0345955364,
				"z": -2.9690842207,
				"element": "H" 
			}
		],
		 "valence_orbital": [ 
			{
				"type": "occ",
				"energy": -0.313,
				"method": "rhf"
			},
			{
				"type": "occ",
				"energy": -0.27787,
				"method": "rhf"
			},
			{
				"type": "occ",
				"energy": -0.26377,
				"method": "rhf"
			},
			{
				"type": "occ",
				"energy": -0.25131,
				"method": "rhf"
			},
			{
				"type": "occ",
				"energy": -0.23282,
				"method": "rhf"
			},
			{
				"type": "unocc",
				"energy": -0.03108,
				"method": "rhf"
			},
			{
				"type": "unocc",
				"energy": -0.01776,
				"method": "rhf"
			},
			{
				"type": "unocc",
				"energy": 0.00299,
				"method": "rhf"
			},
			{
				"type": "unocc",
				"energy": 0.01852,
				"method": "rhf"
			},
			{
				"type": "unocc",
				"energy": 0.05583,
				"method": "rhf"
			}
		],
		"cosmo_sigma_profile": { 
			"-0.025": 0.0,
			"-0.024": 0.0,
			"-0.023": 0.0,
			"-0.022": 0.0,
			"-0.021": 0.0,
			"-0.02": 0.0,
			"-0.019": 0.00115987369858,
			"-0.018": 0.695140708504,
			"-0.017": 1.05894914092,
			"-0.016": 0.595821765228,
			"-0.015": 0.796994060527,
			"-0.014": 0.788420043958,
			"-0.013": 0.486499504755,
			"-0.012": 1.06039991947,
			"-0.011": 0.707985205956,
			"-0.01": 0.815349166201,
			"-0.009": 0.447717884374,
			"-0.008": 0.913768449004,
			"-0.007": 8.19805626689,
			"-0.006": 12.8386353038,
			"-0.005": 16.8203771625,
			"-0.004": 16.6299502813,
			"-0.003": 16.1028239665,
			"-0.002": 12.9722854686,
			"-0.001": 12.5059984019,
			"0.0": 16.4831240515,
			"0.001": 20.4397658366,
			"0.002": 30.9872037581,
			"0.003": 22.1071338963,
			"0.004": 16.0183803452,
			"0.005": 9.31502258207,
			"0.006": 6.31466832398,
			"0.007": 4.26876992704,
			"0.008": 4.98912385633,
			"0.009": 3.6421129349,
			"0.01": 3.83128386138,
			"0.011": 3.0829780725,
			"0.012": 0.337516856914,
			"0.013": 0.0,
			"0.014": 0.0,
			"0.015": 0.0,
			"0.016": 0.0,
			"0.017": 0.0,
			"0.018": 0.0,
			"0.019": 0.0,
			"0.02": 0.0,
			"0.021": 0.0,
			"0.022": 0.0,
			"0.023": 0.0,
			"0.024": 0.0,
			"0.0": 0.0
		}
	}
}
