{
	 "smiles": "N=C1NC=NN1C1=CC=CC=C1", 
	 "Tm": 422.15, 
	 "num_atms": 20, 
	 "gaussian": { 
		 "optdone": 1, 
		 "sigma_profile": "yes", 
		 "theory": "DFT", 
		 "functional": "B3LYP", 
		 "basiset": "6-31G**", 
		 "properties": { 
			 "R2extent": 2382.1324, 
			 "electric_dipole_moment_norm": 1.52862153262, 
			 "electric_quadrupole_moment_norm": 20.9817954558, 
			 "total_energy": -528.646919673, 
			 "HOMO_LUMO_gap": 0.18266, 
			 "cosmo_polarized_energy": -14.09, 
			 "cosmo_cavitation_energy": 24.12, 
			 "cosmo_dispersion_energy": -18.13, 
			 "cosmo_repulsion_energy": 1.43, 
			 "cosmo_total_nonelectrostatic_energy": 7.41, 
			 "SMD_solvation_energy": 2.88 
		},
		"coords": [
			{
				"x": -0.6961871933,
				"y": -1.1124866803,
				"z": 2.5140050154,
				"element": "N" 
			},
			{
				"x": -0.6471120515,
				"y": -1.560623983,
				"z": 1.3158003676,
				"element": "C" 
			},
			{
				"x": -0.3739911338,
				"y": -2.8940306509,
				"z": 1.0011800556,
				"element": "N" 
			},
			{
				"x": -0.491818909,
				"y": -3.067166749,
				"z": -0.3524655455,
				"element": "C" 
			},
			{
				"x": -0.7735369839,
				"y": -1.9661868467,
				"z": -0.9713898158,
				"element": "N" 
			},
			{
				"x": -0.8418031502,
				"y": -1.0062997115,
				"z": 0.0383810546,
				"element": "N" 
			},
			{
				"x": -1.1584423159,
				"y": 0.3301301142,
				"z": -0.28704135,
				"element": "C" 
			},
			{
				"x": -1.9903787661,
				"y": 0.5952980232,
				"z": -1.383490639,
				"element": "C" 
			},
			{
				"x": -2.2998423936,
				"y": 1.9128582363,
				"z": -1.7112235402,
				"element": "C" 
			},
			{
				"x": -1.7996204496,
				"y": 2.973068262,
				"z": -0.9505174047,
				"element": "C" 
			},
			{
				"x": -0.9641209111,
				"y": 2.7037503552,
				"z": 0.1336546113,
				"element": "C" 
			},
			{
				"x": -0.6304620235,
				"y": 1.389843198,
				"z": 0.4639872292,
				"element": "C" 
			},
			{
				"x": -0.9673247404,
				"y": -0.1338282433,
				"z": 2.5381980478,
				"element": "H" 
			},
			{
				"x": -0.2320782114,
				"y": -3.5928362182,
				"z": 1.7121359582,
				"element": "H" 
			},
			{
				"x": -0.3490057488,
				"y": -4.0160990227,
				"z": -0.8485393603,
				"element": "H" 
			},
			{
				"x": -2.3739283379,
				"y": -0.233601155,
				"z": -1.966457869,
				"element": "H" 
			},
			{
				"x": -2.9437849902,
				"y": 2.11105063,
				"z": -2.5632559061,
				"element": "H" 
			},
			{
				"x": -2.0522036856,
				"y": 3.9975692208,
				"z": -1.2060196661,
				"element": "H" 
			},
			{
				"x": -0.5511370893,
				"y": 3.5191280687,
				"z": 0.7204373846,
				"element": "H" 
			},
			{
				"x": 0.0625790851,
				"y": 1.189963152,
				"z": 1.2733213724,
				"element": "H" 
			}
		],
		 "valence_orbital": [ 
			{
				"type": "occ",
				"energy": -0.32244,
				"method": "rhf"
			},
			{
				"type": "occ",
				"energy": -0.26254,
				"method": "rhf"
			},
			{
				"type": "occ",
				"energy": -0.25356,
				"method": "rhf"
			},
			{
				"type": "occ",
				"energy": -0.25132,
				"method": "rhf"
			},
			{
				"type": "occ",
				"energy": -0.19512,
				"method": "rhf"
			},
			{
				"type": "unocc",
				"energy": -0.01246,
				"method": "rhf"
			},
			{
				"type": "unocc",
				"energy": -0.00627,
				"method": "rhf"
			},
			{
				"type": "unocc",
				"energy": 0.02209,
				"method": "rhf"
			},
			{
				"type": "unocc",
				"energy": 0.06958,
				"method": "rhf"
			},
			{
				"type": "unocc",
				"energy": 0.08147,
				"method": "rhf"
			}
		],
		"cosmo_sigma_profile": { 
			"-0.025": 0.0,
			"-0.024": 0.0,
			"-0.023": 0.0,
			"-0.022": 0.0,
			"-0.021": 0.0,
			"-0.02": 0.0,
			"-0.019": 0.0,
			"-0.018": 0.0,
			"-0.017": 0.506441091402,
			"-0.016": 1.77671516888,
			"-0.015": 1.19875591991,
			"-0.014": 0.900959325255,
			"-0.013": 1.14936228247,
			"-0.012": 1.19285981231,
			"-0.011": 3.23833192204,
			"-0.01": 3.15117204188,
			"-0.009": 2.32118982371,
			"-0.008": 3.82921515049,
			"-0.007": 2.91355708612,
			"-0.006": 10.0051595376,
			"-0.005": 12.3914768818,
			"-0.004": 13.0937085192,
			"-0.003": 11.5541590836,
			"-0.002": 10.6350151404,
			"-0.001": 11.7976030238,
			"0.0": 13.4326209373,
			"0.001": 14.1962020792,
			"0.002": 10.791291026,
			"0.003": 11.6499731243,
			"0.004": 12.2860027612,
			"0.005": 12.4738585572,
			"0.006": 4.04701555045,
			"0.007": 3.29848663945,
			"0.008": 2.29766846935,
			"0.009": 2.69315006722,
			"0.01": 2.20695190525,
			"0.011": 2.13798276369,
			"0.012": 1.88906597976,
			"0.013": 1.7585418013,
			"0.014": 1.56396634024,
			"0.015": 1.40300685256,
			"0.016": 1.184942721,
			"0.017": 1.20904805102,
			"0.018": 1.37442156515,
			"0.019": 0.261940322588,
			"0.02": 0.0,
			"0.021": 0.0,
			"0.022": 0.0,
			"0.023": 0.0,
			"0.024": 0.0,
			"0.025": 0.0
		}
	}
}
