{
	 "smiles": "FC(F)(F)C1=CN=C(CNC(=O)C2=C(Cl)C=CC=C2Cl)C(Cl)=C1", 
	 "Tm": 423.15, 
	 "num_atms": 31, 
	 "gaussian": { 
		 "optdone": 1, 
		 "sigma_profile": "yes", 
		 "theory": "DFT", 
		 "functional": "B3LYP", 
		 "basiset": "6-31G**", 
		 "properties": { 
			 "R2extent": 13857.1794, 
			 "electric_dipole_moment_norm": 4.30855798267, 
			 "electric_quadrupole_moment_norm": 14.806164346, 
			 "total_energy": -2403.14299511, 
			 "HOMO_LUMO_gap": 0.1942, 
			 "cosmo_polarized_energy": -16.6, 
			 "cosmo_cavitation_energy": 44.17, 
			 "cosmo_dispersion_energy": -29.27, 
			 "cosmo_repulsion_energy": 2.19, 
			 "cosmo_total_nonelectrostatic_energy": 17.08, 
			 "SMD_solvation_energy": 6.41 
		},
		"coords": [
			{
				"x": -6.3980933349,
				"y": -1.9600994742,
				"z": 1.0567893125,
				"element": "F" 
			},
			{
				"x": -6.0567402607,
				"y": -1.380798576,
				"z": 2.2279719875,
				"element": "C" 
			},
			{
				"x": -7.1554625613,
				"y": -0.745955918,
				"z": 2.6918050461,
				"element": "F" 
			},
			{
				"x": -5.7612959214,
				"y": -2.3607913155,
				"z": 3.1051624869,
				"element": "F" 
			},
			{
				"x": -4.9044742995,
				"y": -0.4275587779,
				"z": 2.055228768,
				"element": "C" 
			},
			{
				"x": -4.0111519814,
				"y": -0.1829255728,
				"z": 3.0994914216,
				"element": "C" 
			},
			{
				"x": -3.0038593551,
				"y": 0.6874948806,
				"z": 3.0058065581,
				"element": "N" 
			},
			{
				"x": -2.8208892225,
				"y": 1.3660993108,
				"z": 1.8652645742,
				"element": "C" 
			},
			{
				"x": -1.6540152511,
				"y": 2.3378562789,
				"z": 1.8320736264,
				"element": "C" 
			},
			{
				"x": -0.5879964578,
				"y": 1.929378415,
				"z": 0.9275939746,
				"element": "N" 
			},
			{
				"x": 0.6221126041,
				"y": 1.4902414153,
				"z": 1.3821259632,
				"element": "C" 
			},
			{
				"x": 0.9292368017,
				"y": 1.4005464557,
				"z": 2.5587444646,
				"element": "O" 
			},
			{
				"x": 1.5965590787,
				"y": 1.1189926582,
				"z": 0.2768443302,
				"element": "C" 
			},
			{
				"x": 1.6843826703,
				"y": -0.1935189287,
				"z": -0.2073478633,
				"element": "C" 
			},
			{
				"x": 0.570565381,
				"y": -1.414287035,
				"z": 0.3873475692,
				"element": "Cl" 
			},
			{
				"x": 2.6306306882,
				"y": -0.5672620668,
				"z": -1.1603502557,
				"element": "C" 
			},
			{
				"x": 3.5191105658,
				"y": 0.3900766089,
				"z": -1.6464548831,
				"element": "C" 
			},
			{
				"x": 3.4615139056,
				"y": 1.7060970207,
				"z": -1.1914197522,
				"element": "C" 
			},
			{
				"x": 2.5056510282,
				"y": 2.0535095354,
				"z": -0.238097127,
				"element": "C" 
			},
			{
				"x": 2.4460415435,
				"y": 3.7192582615,
				"z": 0.3161486451,
				"element": "Cl" 
			},
			{
				"x": -3.6867106491,
				"y": 1.1740876768,
				"z": 0.7746295161,
				"element": "C" 
			},
			{
				"x": -3.4644839352,
				"y": 2.0741412809,
				"z": -0.7198100095,
				"element": "Cl" 
			},
			{
				"x": -4.7388402934,
				"y": 0.2713133958,
				"z": 0.86039331,
				"element": "C" 
			},
			{
				"x": -4.1076258073,
				"y": -0.713035227,
				"z": 4.0430213806,
				"element": "H" 
			},
			{
				"x": -1.2251535683,
				"y": 2.3748766055,
				"z": 2.8334841366,
				"element": "H" 
			},
			{
				"x": -2.0052763793,
				"y": 3.3375116772,
				"z": 1.5517684206,
				"element": "H" 
			},
			{
				"x": -0.7425906753,
				"y": 1.9888001129,
				"z": -0.0680740428,
				"element": "H" 
			},
			{
				"x": 2.6661538619,
				"y": -1.5928109411,
				"z": -1.5091885917,
				"element": "H" 
			},
			{
				"x": 4.2616709497,
				"y": 0.1085722865,
				"z": -2.386484264,
				"element": "H" 
			},
			{
				"x": 4.146683191,
				"y": 2.4583497405,
				"z": -1.5647203156,
				"element": "H" 
			},
			{
				"x": -5.4052523162,
				"y": 0.1127402157,
				"z": 0.0204516129,
				"element": "H" 
			}
		],
		 "valence_orbital": [ 
			{
				"type": "occ",
				"energy": -0.28303,
				"method": "rhf"
			},
			{
				"type": "occ",
				"energy": -0.27784,
				"method": "rhf"
			},
			{
				"type": "occ",
				"energy": -0.26259,
				"method": "rhf"
			},
			{
				"type": "occ",
				"energy": -0.2581,
				"method": "rhf"
			},
			{
				"type": "occ",
				"energy": -0.25557,
				"method": "rhf"
			},
			{
				"type": "unocc",
				"energy": -0.06137,
				"method": "rhf"
			},
			{
				"type": "unocc",
				"energy": -0.05178,
				"method": "rhf"
			},
			{
				"type": "unocc",
				"energy": -0.03395,
				"method": "rhf"
			},
			{
				"type": "unocc",
				"energy": -0.03136,
				"method": "rhf"
			},
			{
				"type": "unocc",
				"energy": 0.00086,
				"method": "rhf"
			}
		],
		"cosmo_sigma_profile": { 
			"-0.025": 0.0,
			"-0.024": 0.0,
			"-0.023": 0.0,
			"-0.022": 0.0,
			"-0.021": 0.0,
			"-0.02": 0.0,
			"-0.019": 0.0,
			"-0.018": 0.0,
			"-0.017": 0.0,
			"-0.016": 0.0,
			"-0.015": 0.0,
			"-0.014": 0.0,
			"-0.013": 0.313441079117,
			"-0.012": 0.991528254231,
			"-0.011": 0.725824254863,
			"-0.01": 1.59830000926,
			"-0.009": 3.03934972139,
			"-0.008": 8.91272783294,
			"-0.007": 14.9495538263,
			"-0.006": 15.0528395456,
			"-0.005": 13.9230557036,
			"-0.004": 15.426744028,
			"-0.003": 22.0564769172,
			"-0.002": 29.922264551,
			"-0.001": 29.1383191293,
			"0.0": 28.4979685045,
			"0.001": 37.7055209338,
			"0.002": 51.9759586688,
			"0.003": 38.18823558,
			"0.004": 17.2280341303,
			"0.005": 5.74326521642,
			"0.006": 3.58071544888,
			"0.007": 2.80875014399,
			"0.008": 2.365751893,
			"0.009": 2.73466716655,
			"0.01": 2.56890974674,
			"0.011": 2.64088038695,
			"0.012": 5.27779515589,
			"0.013": 4.13841171303,
			"0.014": 0.539522194355,
			"0.015": 0.0,
			"0.016": 0.0,
			"0.017": 0.0,
			"0.018": 0.0,
			"0.019": 0.0,
			"0.02": 0.0,
			"0.021": 0.0,
			"0.022": 0.0,
			"0.023": 0.0,
			"0.024": 0.0,
			"0.025": 0.0
		}
	}
}
