{
	 "smiles": "CCCOC1=C(OC)C=C(C=C1Cl)C#N", 
	 "Tm": 305.15, 
	 "num_atms": 27, 
	 "gaussian": { 
		 "optdone": 1, 
		 "sigma_profile": "yes", 
		 "theory": "DFT", 
		 "functional": "B3LYP", 
		 "basiset": "6-31G**", 
		 "properties": { 
			 "R2extent": 5340.7417, 
			 "electric_dipole_moment_norm": 5.04866776289, 
			 "electric_quadrupole_moment_norm": 28.7723695594, 
			 "total_energy": -1091.75670988, 
			 "HOMO_LUMO_gap": 0.18856, 
			 "cosmo_polarized_energy": -11.66, 
			 "cosmo_cavitation_energy": 33.81, 
			 "cosmo_dispersion_energy": -22.92, 
			 "cosmo_repulsion_energy": 1.83, 
			 "cosmo_total_nonelectrostatic_energy": 12.72, 
			 "SMD_solvation_energy": 7.93 
		},
		"coords": [
			{
				"x": 3.2865513733,
				"y": 0.0339800257,
				"z": 0.1609333559,
				"element": "C" 
			},
			{
				"x": 2.4584788855,
				"y": -1.0506903462,
				"z": -0.5343967677,
				"element": "C" 
			},
			{
				"x": 0.9576464773,
				"y": -0.841203315,
				"z": -0.4055712807,
				"element": "C" 
			},
			{
				"x": 0.6190352227,
				"y": -0.9443758512,
				"z": 0.998564935,
				"element": "O" 
			},
			{
				"x": -0.6721067411,
				"y": -0.7048374304,
				"z": 1.3383537874,
				"element": "C" 
			},
			{
				"x": -1.1925975706,
				"y": 0.6155832789,
				"z": 1.3422941156,
				"element": "C" 
			},
			{
				"x": -0.3272344148,
				"y": 1.5781633605,
				"z": 0.92908658,
				"element": "O" 
			},
			{
				"x": -0.7646911254,
				"y": 2.9322856542,
				"z": 0.9487661625,
				"element": "C" 
			},
			{
				"x": -2.500521176,
				"y": 0.8540182553,
				"z": 1.7585354139,
				"element": "C" 
			},
			{
				"x": -3.3038994784,
				"y": -0.2196826912,
				"z": 2.1851028128,
				"element": "C" 
			},
			{
				"x": -2.8065889043,
				"y": -1.5262597643,
				"z": 2.1970911191,
				"element": "C" 
			},
			{
				"x": -1.4987617451,
				"y": -1.7501862537,
				"z": 1.7677137163,
				"element": "C" 
			},
			{
				"x": -0.8700787669,
				"y": -3.3811780453,
				"z": 1.7725202718,
				"element": "Cl" 
			},
			{
				"x": -4.6476195915,
				"y": 0.0357431375,
				"z": 2.614280982,
				"element": "C" 
			},
			{
				"x": -5.7375233806,
				"y": 0.2504851809,
				"z": 2.9599668012,
				"element": "N" 
			},
			{
				"x": 3.0494363373,
				"y": 0.0771178273,
				"z": 1.2270904752,
				"element": "H" 
			},
			{
				"x": 3.0829886868,
				"y": 1.0218477616,
				"z": -0.2676765503,
				"element": "H" 
			},
			{
				"x": 4.3579703898,
				"y": -0.1628184671,
				"z": 0.0562918409,
				"element": "H" 
			},
			{
				"x": 2.6950811555,
				"y": -1.0829581268,
				"z": -1.6056777884,
				"element": "H" 
			},
			{
				"x": 2.7077288504,
				"y": -2.0374502075,
				"z": -0.1268151534,
				"element": "H" 
			},
			{
				"x": 0.6635947017,
				"y": 0.1457921514,
				"z": -0.7792612947,
				"element": "H" 
			},
			{
				"x": 0.4028622826,
				"y": -1.6108967698,
				"z": -0.9569998667,
				"element": "H" 
			},
			{
				"x": -1.0393579223,
				"y": 3.2484007608,
				"z": 1.9622528533,
				"element": "H" 
			},
			{
				"x": -1.6157969987,
				"y": 3.0904028528,
				"z": 0.2750621199,
				"element": "H" 
			},
			{
				"x": 0.0839458776,
				"y": 3.5234760112,
				"z": 0.6036554658,
				"element": "H" 
			},
			{
				"x": -2.9109302873,
				"y": 1.8550063084,
				"z": 1.7681096642,
				"element": "H" 
			},
			{
				"x": -3.4237121373,
				"y": -2.3528652979,
				"z": 2.5259262291,
				"element": "H" 
			}
		],
		 "valence_orbital": [ 
			{
				"type": "occ",
				"energy": -0.31947,
				"method": "rhf"
			},
			{
				"type": "occ",
				"energy": -0.31328,
				"method": "rhf"
			},
			{
				"type": "occ",
				"energy": -0.29143,
				"method": "rhf"
			},
			{
				"type": "occ",
				"energy": -0.25679,
				"method": "rhf"
			},
			{
				"type": "occ",
				"energy": -0.24191,
				"method": "rhf"
			},
			{
				"type": "unocc",
				"energy": -0.05335,
				"method": "rhf"
			},
			{
				"type": "unocc",
				"energy": -0.02125,
				"method": "rhf"
			},
			{
				"type": "unocc",
				"energy": 0.01588,
				"method": "rhf"
			},
			{
				"type": "unocc",
				"energy": 0.03577,
				"method": "rhf"
			},
			{
				"type": "unocc",
				"energy": 0.07516,
				"method": "rhf"
			}
		],
		"cosmo_sigma_profile": { 
			"-0.025": 0.0,
			"-0.024": 0.0,
			"-0.023": 0.0,
			"-0.022": 0.0,
			"-0.021": 0.0,
			"-0.02": 0.0,
			"-0.019": 0.0,
			"-0.018": 0.0,
			"-0.017": 0.0,
			"-0.016": 0.0,
			"-0.015": 0.0,
			"-0.014": 0.0,
			"-0.013": 0.0,
			"-0.012": 0.0,
			"-0.011": 0.0,
			"-0.01": 0.0,
			"-0.009": 2.06912483564,
			"-0.008": 4.98831160288,
			"-0.007": 5.80577003985,
			"-0.006": 11.7314103091,
			"-0.005": 11.7263737752,
			"-0.004": 19.9496321,
			"-0.003": 26.5492982601,
			"-0.002": 25.007938624,
			"-0.001": 27.594734699,
			"0.0": 30.3584979627,
			"0.001": 27.0041708477,
			"0.002": 12.5507340107,
			"0.003": 11.8735894499,
			"0.004": 13.0093970491,
			"0.005": 7.19290155264,
			"0.006": 5.60812884843,
			"0.007": 6.90479966743,
			"0.008": 5.96318905485,
			"0.009": 5.58179297888,
			"0.01": 3.40157078294,
			"0.011": 2.94818458135,
			"0.012": 2.38478846382,
			"0.013": 1.24604674992,
			"0.014": 0.0,
			"0.015": 0.0,
			"0.016": 0.0,
			"0.017": 0.0,
			"0.018": 0.0,
			"0.019": 0.0,
			"0.02": 0.0,
			"0.021": 0.0,
			"0.022": 0.0,
			"0.023": 0.0,
			"0.024": 0.0,
			"0.025": 0.0
		}
	}
}
