{
	 "smiles": "CCSC1=C(C=C(Cl)C=C1)C(O)=O", 
	 "Tm": 428.15, 
	 "num_atms": 22, 
	 "gaussian": { 
		 "optdone": 1, 
		 "sigma_profile": "yes", 
		 "theory": "DFT", 
		 "functional": "B3LYP", 
		 "basiset": "6-31G**", 
		 "properties": { 
			 "R2extent": 4102.251, 
			 "electric_dipole_moment_norm": 5.56422991887, 
			 "electric_quadrupole_moment_norm": 14.5624095915, 
			 "total_energy": -1357.22453546, 
			 "HOMO_LUMO_gap": 0.19461, 
			 "cosmo_polarized_energy": -11.76, 
			 "cosmo_cavitation_energy": 28.88, 
			 "cosmo_dispersion_energy": -21.28, 
			 "cosmo_repulsion_energy": 1.64, 
			 "cosmo_total_nonelectrostatic_energy": 9.24, 
			 "SMD_solvation_energy": 5.44 
		},
		"coords": [
			{
				"x": 3.079896852,
				"y": -1.3993942045,
				"z": -0.3627047263,
				"element": "C" 
			},
			{
				"x": 1.7464814596,
				"y": -1.9767987944,
				"z": -0.823379921,
				"element": "C" 
			},
			{
				"x": 0.653024614,
				"y": -0.8076377242,
				"z": -1.7581867013,
				"element": "S" 
			},
			{
				"x": 0.2844598007,
				"y": 0.4444863037,
				"z": -0.5130366184,
				"element": "C" 
			},
			{
				"x": 0.981867667,
				"y": 1.6681453525,
				"z": -0.3849737941,
				"element": "C" 
			},
			{
				"x": 0.5781125787,
				"y": 2.5710174106,
				"z": 0.6112753838,
				"element": "C" 
			},
			{
				"x": -0.4866043484,
				"y": 2.2745926784,
				"z": 1.4521293277,
				"element": "C" 
			},
			{
				"x": -0.9639841251,
				"y": 3.4275998922,
				"z": 2.682628457,
				"element": "Cl" 
			},
			{
				"x": -1.1849212121,
				"y": 1.0736471841,
				"z": 1.3290351158,
				"element": "C" 
			},
			{
				"x": -0.7926263624,
				"y": 0.173376701,
				"z": 0.3437331958,
				"element": "C" 
			},
			{
				"x": 2.1676957573,
				"y": 2.1632794048,
				"z": -1.2067077639,
				"element": "C" 
			},
			{
				"x": 2.5673992068,
				"y": 1.4514659036,
				"z": -2.2683758714,
				"element": "O" 
			},
			{
				"x": 2.7371610821,
				"y": 3.1900893631,
				"z": -0.9065808418,
				"element": "O" 
			},
			{
				"x": 3.6657339632,
				"y": -1.0151091464,
				"z": -1.201544168,
				"element": "H" 
			},
			{
				"x": 3.664033821,
				"y": -2.1808879558,
				"z": 0.1356875469,
				"element": "H" 
			},
			{
				"x": 2.9359126939,
				"y": -0.5860871499,
				"z": 0.3540016017,
				"element": "H" 
			},
			{
				"x": 1.1630947252,
				"y": -2.3646351938,
				"z": 0.0164104839,
				"element": "H" 
			},
			{
				"x": 1.8899084644,
				"y": -2.7980058593,
				"z": -1.5328021739,
				"element": "H" 
			},
			{
				"x": 1.1254849211,
				"y": 3.5010201289,
				"z": 0.7035929242,
				"element": "H" 
			},
			{
				"x": -2.0202805481,
				"y": 0.8525784488,
				"z": 1.9840044143,
				"element": "H" 
			},
			{
				"x": -1.3346873433,
				"y": -0.7593627523,
				"z": 0.2254342451,
				"element": "H" 
			},
			{
				"x": 2.0103363325,
				"y": 0.647720009,
				"z": -2.3852401162,
				"element": "H" 
			}
		],
		 "valence_orbital": [ 
			{
				"type": "occ",
				"energy": -0.31212,
				"method": "rhf"
			},
			{
				"type": "occ",
				"energy": -0.28278,
				"method": "rhf"
			},
			{
				"type": "occ",
				"energy": -0.27586,
				"method": "rhf"
			},
			{
				"type": "occ",
				"energy": -0.26866,
				"method": "rhf"
			},
			{
				"type": "occ",
				"energy": -0.26216,
				"method": "rhf"
			},
			{
				"type": "unocc",
				"energy": -0.06755,
				"method": "rhf"
			},
			{
				"type": "unocc",
				"energy": -0.04254,
				"method": "rhf"
			},
			{
				"type": "unocc",
				"energy": 0.01346,
				"method": "rhf"
			},
			{
				"type": "unocc",
				"energy": 0.02423,
				"method": "rhf"
			},
			{
				"type": "unocc",
				"energy": 0.04344,
				"method": "rhf"
			}
		],
		"cosmo_sigma_profile": { 
			"-0.025": 0.0,
			"-0.024": 0.0,
			"-0.023": 0.0,
			"-0.022": 0.0,
			"-0.021": 0.0,
			"-0.02": 0.0,
			"-0.019": 0.0,
			"-0.018": 0.0,
			"-0.017": 0.0,
			"-0.016": 0.0,
			"-0.015": 0.0,
			"-0.014": 0.0,
			"-0.013": 0.0,
			"-0.012": 0.0,
			"-0.011": 0.0,
			"-0.01": 0.0122493437748,
			"-0.009": 0.798263081988,
			"-0.008": 3.37225664576,
			"-0.007": 7.08311109913,
			"-0.006": 11.6964096584,
			"-0.005": 12.6762692016,
			"-0.004": 19.4298536577,
			"-0.003": 22.3136477807,
			"-0.002": 19.5182110073,
			"-0.001": 21.0303222791,
			"0.0": 26.8688086705,
			"0.001": 22.3186182188,
			"0.002": 9.70211068146,
			"0.003": 12.5274735898,
			"0.004": 13.400711548,
			"0.005": 4.57806138601,
			"0.006": 2.46873738795,
			"0.007": 3.21047771372,
			"0.008": 2.76338823846,
			"0.009": 3.16712428676,
			"0.01": 3.8564983668,
			"0.011": 5.87621983013,
			"0.012": 3.99948156655,
			"0.013": 1.70886761291,
			"0.014": 0.099385254568,
			"0.015": 0.0,
			"0.016": 0.0,
			"0.017": 0.0,
			"0.018": 0.0,
			"0.019": 0.0,
			"0.02": 0.0,
			"0.021": 0.0,
			"0.022": 0.0,
			"0.023": 0.0,
			"0.024": 0.0,
			"0.025": 0.0
		}
	}
}
