{
	 "smiles": "NC(=S)NC1=C2CCCCC2=CC=C1", 
	 "Tm": 439.15, 
	 "num_atms": 28, 
	 "gaussian": { 
		 "optdone": 1, 
		 "sigma_profile": "yes", 
		 "theory": "DFT", 
		 "functional": "B3LYP", 
		 "basiset": "6-31G**", 
		 "properties": { 
			 "R2extent": 3883.1384, 
			 "electric_dipole_moment_norm": 6.10711067527, 
			 "electric_quadrupole_moment_norm": 28.757827246, 
			 "total_energy": -935.336142887, 
			 "HOMO_LUMO_gap": 0.1729, 
			 "cosmo_polarized_energy": -16.32, 
			 "cosmo_cavitation_energy": 31.23, 
			 "cosmo_dispersion_energy": -23.05, 
			 "cosmo_repulsion_energy": 1.79, 
			 "cosmo_total_nonelectrostatic_energy": 9.97, 
			 "SMD_solvation_energy": 3.86 
		},
		"coords": [
			{
				"x": -2.3431020177,
				"y": -0.3856071342,
				"z": 2.5612174456,
				"element": "N" 
			},
			{
				"x": -2.9675510485,
				"y": 0.1195830819,
				"z": 1.4635131558,
				"element": "C" 
			},
			{
				"x": -4.6368161043,
				"y": 0.0528530615,
				"z": 1.2634918991,
				"element": "S" 
			},
			{
				"x": -2.1530303712,
				"y": 0.6663577524,
				"z": 0.5134275791,
				"element": "N" 
			},
			{
				"x": -0.7277905864,
				"y": 0.803051857,
				"z": 0.5843739999,
				"element": "C" 
			},
			{
				"x": 0.1051503654,
				"y": -0.3163958667,
				"z": 0.3617867673,
				"element": "C" 
			},
			{
				"x": -0.503369415,
				"y": -1.6723459357,
				"z": 0.0496381604,
				"element": "C" 
			},
			{
				"x": 0.4997918631,
				"y": -2.6667259633,
				"z": -0.5470510501,
				"element": "C" 
			},
			{
				"x": 1.7996203351,
				"y": -2.6674261628,
				"z": 0.2625839619,
				"element": "C" 
			},
			{
				"x": 2.4625600617,
				"y": -1.2876737308,
				"z": 0.1887225506,
				"element": "C" 
			},
			{
				"x": 1.5007006254,
				"y": -0.135986786,
				"z": 0.4353241498,
				"element": "C" 
			},
			{
				"x": 2.0216603948,
				"y": 1.1381048279,
				"z": 0.7004381654,
				"element": "C" 
			},
			{
				"x": 1.1904441139,
				"y": 2.2374689907,
				"z": 0.893954348,
				"element": "C" 
			},
			{
				"x": -0.1919957045,
				"y": 2.0680475278,
				"z": 0.8415559754,
				"element": "C" 
			},
			{
				"x": -2.9423541576,
				"y": -0.6760237782,
				"z": 3.3169899745,
				"element": "H" 
			},
			{
				"x": -1.3916038372,
				"y": -0.1195924566,
				"z": 2.7754091227,
				"element": "H" 
			},
			{
				"x": -2.6530027536,
				"y": 1.1163305626,
				"z": -0.2409811186,
				"element": "H" 
			},
			{
				"x": -0.9232722804,
				"y": -2.0926691577,
				"z": 0.9738338389,
				"element": "H" 
			},
			{
				"x": -1.3602378382,
				"y": -1.5371358824,
				"z": -0.6188022233,
				"element": "H" 
			},
			{
				"x": 0.0523017111,
				"y": -3.6661364542,
				"z": -0.5719364986,
				"element": "H" 
			},
			{
				"x": 0.7219744348,
				"y": -2.3946302801,
				"z": -1.5877902213,
				"element": "H" 
			},
			{
				"x": 1.5764521721,
				"y": -2.9190552442,
				"z": 1.308329323,
				"element": "H" 
			},
			{
				"x": 2.4923714037,
				"y": -3.4324021927,
				"z": -0.104939519,
				"element": "H" 
			},
			{
				"x": 3.2962219356,
				"y": -1.2207715918,
				"z": 0.8981345065,
				"element": "H" 
			},
			{
				"x": 2.9085277132,
				"y": -1.1597214023,
				"z": -0.8084911824,
				"element": "H" 
			},
			{
				"x": 3.1008103985,
				"y": 1.2637946529,
				"z": 0.7507451222,
				"element": "H" 
			},
			{
				"x": 1.6132167938,
				"y": 3.2170909037,
				"z": 1.0956176419,
				"element": "H" 
			},
			{
				"x": -0.8657782077,
				"y": 2.9041168013,
				"z": 1.0035041253,
				"element": "H" 
			}
		],
		 "valence_orbital": [ 
			{
				"type": "occ",
				"energy": -0.27886,
				"method": "rhf"
			},
			{
				"type": "occ",
				"energy": -0.25559,
				"method": "rhf"
			},
			{
				"type": "occ",
				"energy": -0.25057,
				"method": "rhf"
			},
			{
				"type": "occ",
				"energy": -0.20564,
				"method": "rhf"
			},
			{
				"type": "occ",
				"energy": -0.19824,
				"method": "rhf"
			},
			{
				"type": "unocc",
				"energy": -0.02534,
				"method": "rhf"
			},
			{
				"type": "unocc",
				"energy": -0.01249,
				"method": "rhf"
			},
			{
				"type": "unocc",
				"energy": 0.01003,
				"method": "rhf"
			},
			{
				"type": "unocc",
				"energy": 0.07225,
				"method": "rhf"
			},
			{
				"type": "unocc",
				"energy": 0.08842,
				"method": "rhf"
			}
		],
		"cosmo_sigma_profile": { 
			"-0.025": 0.0,
			"-0.024": 0.0,
			"-0.023": 0.0,
			"-0.022": 0.0,
			"-0.021": 0.0,
			"-0.02": 0.0,
			"-0.019": 0.0,
			"-0.018": 0.0,
			"-0.017": 0.0,
			"-0.016": 0.0,
			"-0.015": 0.306886067611,
			"-0.014": 1.89401170204,
			"-0.013": 3.20857990666,
			"-0.012": 2.29903047206,
			"-0.011": 3.33334790722,
			"-0.01": 2.546568354,
			"-0.009": 2.41420436312,
			"-0.008": 2.24097709722,
			"-0.007": 3.04584089177,
			"-0.006": 6.08794870391,
			"-0.005": 8.88215681323,
			"-0.004": 11.9689309942,
			"-0.003": 22.1610670655,
			"-0.002": 31.0310139935,
			"-0.001": 31.5885923325,
			"0.0": 24.4831847259,
			"0.001": 16.4063783919,
			"0.002": 9.68272473619,
			"0.003": 8.77640775405,
			"0.004": 9.78135514042,
			"0.005": 9.52349288219,
			"0.006": 4.06239281246,
			"0.007": 3.55651941689,
			"0.008": 3.35482024074,
			"0.009": 2.95360744088,
			"0.01": 4.68535791706,
			"0.011": 6.16265953594,
			"0.012": 8.49137127211,
			"0.013": 3.27207373969,
			"0.014": 0.0,
			"0.015": 0.0,
			"0.016": 0.0,
			"0.017": 0.0,
			"0.018": 0.0,
			"0.019": 0.0,
			"0.02": 0.0,
			"0.021": 0.0,
			"0.022": 0.0,
			"0.023": 0.0,
			"0.024": 0.0,
			"0.025": 0.0
		}
	}
}
