{
	 "smiles": "COC1=C(C)C(C=O)=C(OC)C(C)=C1C", 
	 "Tm": 359.15, 
	 "num_atms": 31, 
	 "gaussian": { 
		 "optdone": 1, 
		 "sigma_profile": "yes", 
		 "theory": "DFT", 
		 "functional": "B3LYP", 
		 "basiset": "6-31G**", 
		 "properties": { 
			 "R2extent": 3465.5533, 
			 "electric_dipole_moment_norm": 4.37367729034, 
			 "electric_quadrupole_moment_norm": 12.1094147043, 
			 "total_energy": -692.565295645, 
			 "HOMO_LUMO_gap": 0.17699, 
			 "cosmo_polarized_energy": -9.66, 
			 "cosmo_cavitation_energy": 32.58, 
			 "cosmo_dispersion_energy": -22.97, 
			 "cosmo_repulsion_energy": 1.78, 
			 "cosmo_total_nonelectrostatic_energy": 11.4, 
			 "SMD_solvation_energy": 7.64 
		},
		"coords": [
			{
				"x": -1.985630799,
				"y": -3.48531866,
				"z": 0.6604515157,
				"element": "C" 
			},
			{
				"x": -2.4113104973,
				"y": -2.1287437623,
				"z": 0.7844879776,
				"element": "O" 
			},
			{
				"x": -1.4586749058,
				"y": -1.1957699522,
				"z": 0.4023776885,
				"element": "C" 
			},
			{
				"x": -1.3986710339,
				"y": -0.7914118323,
				"z": -0.9406106855,
				"element": "C" 
			},
			{
				"x": -2.3810936398,
				"y": -1.3558986735,
				"z": -1.9373581565,
				"element": "C" 
			},
			{
				"x": -0.4208495836,
				"y": 0.1689268386,
				"z": -1.2955989014,
				"element": "C" 
			},
			{
				"x": -0.2837374106,
				"y": 0.6904728962,
				"z": -2.6743745498,
				"element": "C" 
			},
			{
				"x": -0.8637024752,
				"y": 0.2620193153,
				"z": -3.6604682049,
				"element": "O" 
			},
			{
				"x": 0.4395368131,
				"y": 0.6896910284,
				"z": -0.3032715925,
				"element": "C" 
			},
			{
				"x": 1.3864079515,
				"y": 1.6342711269,
				"z": -0.6650435587,
				"element": "O" 
			},
			{
				"x": 2.6518003334,
				"y": 1.0912733307,
				"z": -1.0450752651,
				"element": "C" 
			},
			{
				"x": 0.3385304065,
				"y": 0.3139586492,
				"z": 1.0411182401,
				"element": "C" 
			},
			{
				"x": 1.2340690094,
				"y": 0.9353532443,
				"z": 2.0854494805,
				"element": "C" 
			},
			{
				"x": -0.6286642246,
				"y": -0.6462389585,
				"z": 1.396743128,
				"element": "C" 
			},
			{
				"x": -0.7847531392,
				"y": -1.071041673,
				"z": 2.8359250875,
				"element": "C" 
			},
			{
				"x": -1.1121699815,
				"y": -3.6908215839,
				"z": 1.2932799885,
				"element": "H" 
			},
			{
				"x": -1.7357008363,
				"y": -3.735734741,
				"z": -0.378078412,
				"element": "H" 
			},
			{
				"x": -2.822065381,
				"y": -4.1063282657,
				"z": 0.9888584183,
				"element": "H" 
			},
			{
				"x": -3.1544031355,
				"y": -1.9227764677,
				"z": -1.4185481303,
				"element": "H" 
			},
			{
				"x": -1.8843746106,
				"y": -2.0028241457,
				"z": -2.6675485149,
				"element": "H" 
			},
			{
				"x": -2.8457160149,
				"y": -0.5594324904,
				"z": -2.5220657075,
				"element": "H" 
			},
			{
				"x": 0.4074599912,
				"y": 1.5489497536,
				"z": -2.7647513904,
				"element": "H" 
			},
			{
				"x": 3.2955413376,
				"y": 1.9404490154,
				"z": -1.2836174355,
				"element": "H" 
			},
			{
				"x": 2.5599198248,
				"y": 0.4460432462,
				"z": -1.9283302242,
				"element": "H" 
			},
			{
				"x": 3.1010439128,
				"y": 0.511783046,
				"z": -0.2286946779,
				"element": "H" 
			},
			{
				"x": 1.9087066616,
				"y": 0.1961150952,
				"z": 2.5348677584,
				"element": "H" 
			},
			{
				"x": 1.8352460116,
				"y": 1.7347239123,
				"z": 1.6523345206,
				"element": "H" 
			},
			{
				"x": 0.6461534044,
				"y": 1.3635013796,
				"z": 2.9049037913,
				"element": "H" 
			},
			{
				"x": -1.6383059702,
				"y": -1.7375466123,
				"z": 2.9537620272,
				"element": "H" 
			},
			{
				"x": -0.9383995346,
				"y": -0.2023052736,
				"z": 3.4858072039,
				"element": "H" 
			},
			{
				"x": 0.114107516,
				"y": -1.581638786,
				"z": 3.2031685812,
				"element": "H" 
			}
		],
		 "valence_orbital": [ 
			{
				"type": "occ",
				"energy": -0.28473,
				"method": "rhf"
			},
			{
				"type": "occ",
				"energy": -0.27604,
				"method": "rhf"
			},
			{
				"type": "occ",
				"energy": -0.24289,
				"method": "rhf"
			},
			{
				"type": "occ",
				"energy": -0.23562,
				"method": "rhf"
			},
			{
				"type": "occ",
				"energy": -0.23094,
				"method": "rhf"
			},
			{
				"type": "unocc",
				"energy": -0.05395,
				"method": "rhf"
			},
			{
				"type": "unocc",
				"energy": 0.00091,
				"method": "rhf"
			},
			{
				"type": "unocc",
				"energy": 0.04127,
				"method": "rhf"
			},
			{
				"type": "unocc",
				"energy": 0.07557,
				"method": "rhf"
			},
			{
				"type": "unocc",
				"energy": 0.09742,
				"method": "rhf"
			}
		],
		"cosmo_sigma_profile": { 
			"-0.025": 0.0,
			"-0.024": 0.0,
			"-0.023": 0.0,
			"-0.022": 0.0,
			"-0.021": 0.0,
			"-0.02": 0.0,
			"-0.019": 0.0,
			"-0.018": 0.0,
			"-0.017": 0.0,
			"-0.016": 0.0,
			"-0.015": 0.0,
			"-0.014": 0.0,
			"-0.013": 0.0,
			"-0.012": 0.0,
			"-0.011": 0.0,
			"-0.01": 0.0,
			"-0.009": 0.0,
			"-0.008": 0.0,
			"-0.007": 0.000849361652809,
			"-0.006": 2.26934145678,
			"-0.005": 13.9875414251,
			"-0.004": 27.1445869878,
			"-0.003": 36.5979552499,
			"-0.002": 38.3282446049,
			"-0.001": 27.4988609357,
			"0.0": 24.9022752723,
			"0.001": 18.5002314533,
			"0.002": 14.0893193337,
			"0.003": 15.1112444543,
			"0.004": 4.38516573278,
			"0.005": 4.60646328829,
			"0.006": 4.05093200765,
			"0.007": 3.44509198626,
			"0.008": 3.13427452354,
			"0.009": 4.18710530278,
			"0.01": 3.84208258428,
			"0.011": 3.96245168092,
			"0.012": 4.30632486715,
			"0.013": 1.82377616906,
			"0.014": 0.350341834768,
			"0.015": 0.0,
			"0.016": 0.0,
			"0.017": 0.0,
			"0.018": 0.0,
			"0.019": 0.0,
			"0.02": 0.0,
			"0.021": 0.0,
			"0.022": 0.0,
			"0.023": 0.0,
			"0.024": 0.0,
			"0.025": 0.0
		}
	}
}
