{
	 "smiles": "COC1=C(Cl)N=CN=C1Cl", 
	 "Tm": 329.15, 
	 "num_atms": 14, 
	 "gaussian": { 
		 "optdone": 1, 
		 "sigma_profile": "yes", 
		 "theory": "DFT", 
		 "functional": "B3LYP", 
		 "basiset": "6-31G**", 
		 "properties": { 
			 "R2extent": 1906.8315, 
			 "electric_dipole_moment_norm": 2.00993388448, 
			 "electric_quadrupole_moment_norm": 7.92105261061, 
			 "total_energy": -1298.0226629, 
			 "HOMO_LUMO_gap": 0.21372, 
			 "cosmo_polarized_energy": -7.06, 
			 "cosmo_cavitation_energy": 22.31, 
			 "cosmo_dispersion_energy": -16.7, 
			 "cosmo_repulsion_energy": 1.36, 
			 "cosmo_total_nonelectrostatic_energy": 6.96, 
			 "SMD_solvation_energy": 1.55 
		},
		"coords": [
			{
				"x": 1.2065186086,
				"y": -1.7662696499,
				"z": 1.9677004238,
				"element": "C" 
			},
			{
				"x": -0.0832280486,
				"y": -1.4567457628,
				"z": 1.4079493865,
				"element": "O" 
			},
			{
				"x": -0.0973734256,
				"y": -0.4995778232,
				"z": 0.4532439992,
				"element": "C" 
			},
			{
				"x": 0.0158029585,
				"y": -0.785738205,
				"z": -0.9185199203,
				"element": "C" 
			},
			{
				"x": 0.2671539042,
				"y": -2.4412863826,
				"z": -1.4165738081,
				"element": "Cl" 
			},
			{
				"x": -0.0666364582,
				"y": 0.132878945,
				"z": -1.8667608989,
				"element": "N" 
			},
			{
				"x": -0.2666877016,
				"y": 1.3876401637,
				"z": -1.4568312374,
				"element": "C" 
			},
			{
				"x": -0.392985932,
				"y": 1.7979831423,
				"z": -0.1926473523,
				"element": "N" 
			},
			{
				"x": -0.3069956532,
				"y": 0.8612205868,
				"z": 0.7373506374,
				"element": "C" 
			},
			{
				"x": -0.4775577107,
				"y": 1.3582545328,
				"z": 2.403484657,
				"element": "Cl" 
			},
			{
				"x": 1.6394744112,
				"y": -0.8872356001,
				"z": 2.4559619489,
				"element": "H" 
			},
			{
				"x": 1.8857967927,
				"y": -2.1409546555,
				"z": 1.1952028309,
				"element": "H" 
			},
			{
				"x": 1.0283579569,
				"y": -2.5460616373,
				"z": 2.7083213379,
				"element": "H" 
			},
			{
				"x": -0.3359397023,
				"y": 2.1495923459,
				"z": -2.2281820044,
				"element": "H" 
			}
		],
		 "valence_orbital": [ 
			{
				"type": "occ",
				"energy": -0.33003,
				"method": "rhf"
			},
			{
				"type": "occ",
				"energy": -0.32429,
				"method": "rhf"
			},
			{
				"type": "occ",
				"energy": -0.30791,
				"method": "rhf"
			},
			{
				"type": "occ",
				"energy": -0.27917,
				"method": "rhf"
			},
			{
				"type": "occ",
				"energy": -0.27578,
				"method": "rhf"
			},
			{
				"type": "unocc",
				"energy": -0.06206,
				"method": "rhf"
			},
			{
				"type": "unocc",
				"energy": -0.05214,
				"method": "rhf"
			},
			{
				"type": "unocc",
				"energy": -0.00085,
				"method": "rhf"
			},
			{
				"type": "unocc",
				"energy": 0.04346,
				"method": "rhf"
			},
			{
				"type": "unocc",
				"energy": 0.08884,
				"method": "rhf"
			}
		],
		"cosmo_sigma_profile": { 
			"-0.025": 0.0,
			"-0.024": 0.0,
			"-0.023": 0.0,
			"-0.022": 0.0,
			"-0.021": 0.0,
			"-0.02": 0.0,
			"-0.019": 0.0,
			"-0.018": 0.0,
			"-0.017": 0.0,
			"-0.016": 0.0,
			"-0.015": 0.0,
			"-0.014": 0.0,
			"-0.013": 0.0,
			"-0.012": 0.0,
			"-0.011": 0.0,
			"-0.01": 0.16210481445,
			"-0.009": 1.94874330844,
			"-0.008": 2.00495236233,
			"-0.007": 3.42159146286,
			"-0.006": 11.895567526,
			"-0.005": 13.3803912138,
			"-0.004": 16.7325140553,
			"-0.003": 16.0225120161,
			"-0.002": 12.7005533823,
			"-0.001": 10.6959438905,
			"0.0": 11.767458581,
			"0.001": 14.0594053375,
			"0.002": 14.2580309392,
			"0.003": 17.1607890241,
			"0.004": 9.85145266304,
			"0.005": 6.55401191737,
			"0.006": 4.41254866756,
			"0.007": 3.75077184009,
			"0.008": 4.02730566051,
			"0.009": 3.33421096685,
			"0.01": 2.43590116335,
			"0.011": 1.4603691802,
			"0.012": 1.71811090826,
			"0.013": 0.455983351724,
			"0.014": 0.0,
			"0.015": 0.0,
			"0.016": 0.0,
			"0.017": 0.0,
			"0.018": 0.0,
			"0.019": 0.0,
			"0.02": 0.0,
			"0.021": 0.0,
			"0.022": 0.0,
			"0.023": 0.0,
			"0.024": 0.0,
			"0.025": 0.0
		}
	}
}
