{
	 "smiles": "CN1NC(N)=C2C1=NC=C(C(O)=O)C2=O", 
	 "Tm": 497.15, 
	 "num_atms": 23, 
	 "gaussian": { 
		 "optdone": 1, 
		 "sigma_profile": "yes", 
		 "theory": "DFT", 
		 "functional": "B3LYP", 
		 "basiset": "6-31G**", 
		 "properties": { 
			 "R2extent": 3535.4773, 
			 "electric_dipole_moment_norm": 13.471756842, 
			 "electric_quadrupole_moment_norm": 22.8761730799, 
			 "total_energy": -754.350209928, 
			 "HOMO_LUMO_gap": 0.15473, 
			 "cosmo_polarized_energy": -33.28, 
			 "cosmo_cavitation_energy": 27.37, 
			 "cosmo_dispersion_energy": -20.89, 
			 "cosmo_repulsion_energy": 1.61, 
			 "cosmo_total_nonelectrostatic_energy": 8.09, 
			 "SMD_solvation_energy": 4.26 
		},
		"coords": [
			{
				"x": 0.8156105083,
				"y": 2.8663276693,
				"z": -1.3772234331,
				"element": "C" 
			},
			{
				"x": 0.3437482001,
				"y": 1.5024289375,
				"z": -1.1628940659,
				"element": "N" 
			},
			{
				"x": -1.0118328516,
				"y": 1.2309106828,
				"z": -1.4994293329,
				"element": "N" 
			},
			{
				"x": -1.4695665037,
				"y": 0.2309051338,
				"z": -0.6721958575,
				"element": "C" 
			},
			{
				"x": -2.6311065753,
				"y": -0.424003832,
				"z": -0.8274502312,
				"element": "N" 
			},
			{
				"x": -0.514803004,
				"y": -0.0032689212,
				"z": 0.3110917557,
				"element": "C" 
			},
			{
				"x": 0.5871280853,
				"y": 0.8298194792,
				"z": 0.0305647199,
				"element": "C" 
			},
			{
				"x": 1.6649210589,
				"y": 0.9798277661,
				"z": 0.7793175793,
				"element": "N" 
			},
			{
				"x": 1.6445414718,
				"y": 0.1889271337,
				"z": 1.885616858,
				"element": "C" 
			},
			{
				"x": 0.6429096194,
				"y": -0.6983431814,
				"z": 2.2791884599,
				"element": "C" 
			},
			{
				"x": 0.8284833228,
				"y": -1.46857025,
				"z": 3.5487745952,
				"element": "C" 
			},
			{
				"x": -0.1827556573,
				"y": -2.2921404641,
				"z": 3.8712700718,
				"element": "O" 
			},
			{
				"x": 1.8183050236,
				"y": -1.3651795883,
				"z": 4.2468791893,
				"element": "O" 
			},
			{
				"x": -0.5501792948,
				"y": -0.8444087723,
				"z": 1.4764106258,
				"element": "C" 
			},
			{
				"x": -1.5389315034,
				"y": -1.5951060115,
				"z": 1.723009046,
				"element": "O" 
			},
			{
				"x": 0.1773417662,
				"y": 3.6020709095,
				"z": -0.8742746044,
				"element": "H" 
			},
			{
				"x": 0.8615833099,
				"y": 3.0845331553,
				"z": -2.4472360712,
				"element": "H" 
			},
			{
				"x": 1.8209785369,
				"y": 2.9095608122,
				"z": -0.9567156467,
				"element": "H" 
			},
			{
				"x": -1.17815821,
				"y": 1.1663237063,
				"z": -2.498604643,
				"element": "H" 
			},
			{
				"x": -2.8410501542,
				"y": -1.0619393171,
				"z": -0.062398446,
				"element": "H" 
			},
			{
				"x": -3.3889763092,
				"y": -0.0385621419,
				"z": -1.369271559,
				"element": "H" 
			},
			{
				"x": 2.5120299689,
				"y": 0.2624004705,
				"z": 2.5367176853,
				"element": "H" 
			},
			{
				"x": -0.8861208086,
				"y": -2.2237133762,
				"z": 3.1746533046,
				"element": "H" 
			}
		],
		 "valence_orbital": [ 
			{
				"type": "occ",
				"energy": -0.26969,
				"method": "rhf"
			},
			{
				"type": "occ",
				"energy": -0.26443,
				"method": "rhf"
			},
			{
				"type": "occ",
				"energy": -0.25816,
				"method": "rhf"
			},
			{
				"type": "occ",
				"energy": -0.23516,
				"method": "rhf"
			},
			{
				"type": "occ",
				"energy": -0.22255,
				"method": "rhf"
			},
			{
				"type": "unocc",
				"energy": -0.06782,
				"method": "rhf"
			},
			{
				"type": "unocc",
				"energy": -0.01457,
				"method": "rhf"
			},
			{
				"type": "unocc",
				"energy": 0.01517,
				"method": "rhf"
			},
			{
				"type": "unocc",
				"energy": 0.02833,
				"method": "rhf"
			},
			{
				"type": "unocc",
				"energy": 0.05273,
				"method": "rhf"
			}
		],
		"cosmo_sigma_profile": { 
			"-0.025": 0.0,
			"-0.024": 0.0,
			"-0.023": 0.0,
			"-0.022": 0.0,
			"-0.021": 0.0,
			"-0.02": 0.0,
			"-0.019": 0.0160278980105,
			"-0.018": 2.26819728929,
			"-0.017": 3.46841110366,
			"-0.016": 2.86899933824,
			"-0.015": 3.16443761095,
			"-0.014": 2.01011507036,
			"-0.013": 2.48181067084,
			"-0.012": 3.13587234353,
			"-0.011": 2.34154616714,
			"-0.01": 2.63974514143,
			"-0.009": 1.99355134336,
			"-0.008": 2.99462084591,
			"-0.007": 3.37410736835,
			"-0.006": 7.35759966976,
			"-0.005": 10.6874095867,
			"-0.004": 11.3501925402,
			"-0.003": 13.6008953995,
			"-0.002": 13.9958153246,
			"-0.001": 15.9422820499,
			"0.0": 15.6903174448,
			"0.001": 15.0219440319,
			"0.002": 10.7033983259,
			"0.003": 8.64843263664,
			"0.004": 6.34051173652,
			"0.005": 5.67891026724,
			"0.006": 6.42298234485,
			"0.007": 4.19019330695,
			"0.008": 4.87847496664,
			"0.009": 4.91182836731,
			"0.01": 5.31901145863,
			"0.011": 7.65261656375,
			"0.012": 6.38597911566,
			"0.013": 7.73751015405,
			"0.014": 2.99850832032,
			"0.015": 0.641405647066,
			"0.016": 0.0,
			"0.017": 0.0,
			"0.018": 0.0,
			"0.019": 0.0,
			"0.02": 0.0,
			"0.021": 0.0,
			"0.022": 0.0,
			"0.023": 0.0,
			"0.024": 0.0,
			"0.025": 0.0
		}
	}
}
