{
	 "smiles": "OCC1=CC=CC(COC2=CC=CC=C2)=C1", 
	 "Tm": 332.15, 
	 "num_atms": 30, 
	 "gaussian": { 
		 "optdone": 1, 
		 "sigma_profile": "yes", 
		 "theory": "DFT", 
		 "functional": "B3LYP", 
		 "basiset": "6-31G**", 
		 "properties": { 
			 "R2extent": 5987.5737, 
			 "electric_dipole_moment_norm": 2.06480884587, 
			 "electric_quadrupole_moment_norm": 6.82556475685, 
			 "total_energy": -692.357086017, 
			 "HOMO_LUMO_gap": 0.21106, 
			 "cosmo_polarized_energy": -10.97, 
			 "cosmo_cavitation_energy": 33.94, 
			 "cosmo_dispersion_energy": -24.67, 
			 "cosmo_repulsion_energy": 1.93, 
			 "cosmo_total_nonelectrostatic_energy": 11.2, 
			 "SMD_solvation_energy": 5.79 
		},
		"coords": [
			{
				"x": -3.1510694022,
				"y": 3.321829876,
				"z": 0.1148431383,
				"element": "O" 
			},
			{
				"x": -1.9284305384,
				"y": 2.6339237966,
				"z": 0.3390961794,
				"element": "C" 
			},
			{
				"x": -2.0317444054,
				"y": 1.1296160319,
				"z": 0.1663015495,
				"element": "C" 
			},
			{
				"x": -3.2334072992,
				"y": 0.4665237335,
				"z": 0.4434602501,
				"element": "C" 
			},
			{
				"x": -3.3129278977,
				"y": -0.9199761032,
				"z": 0.3173653224,
				"element": "C" 
			},
			{
				"x": -2.1950625534,
				"y": -1.6549862599,
				"z": -0.0791411073,
				"element": "C" 
			},
			{
				"x": -0.990550086,
				"y": -1.004696106,
				"z": -0.3686704588,
				"element": "C" 
			},
			{
				"x": 0.1911263044,
				"y": -1.80376204,
				"z": -0.8671192175,
				"element": "C" 
			},
			{
				"x": 1.3961405501,
				"y": -1.1734324825,
				"z": -0.4479155757,
				"element": "O" 
			},
			{
				"x": 2.5882296364,
				"y": -1.7075672609,
				"z": -0.8530946972,
				"element": "C" 
			},
			{
				"x": 2.7191148536,
				"y": -2.8688394103,
				"z": -1.6238495999,
				"element": "C" 
			},
			{
				"x": 3.9962976176,
				"y": -3.3195318654,
				"z": -1.9753411972,
				"element": "C" 
			},
			{
				"x": 5.1365402359,
				"y": -2.6313412748,
				"z": -1.5685104578,
				"element": "C" 
			},
			{
				"x": 4.9953534363,
				"y": -1.4728413024,
				"z": -0.7959403282,
				"element": "C" 
			},
			{
				"x": 3.7337109087,
				"y": -1.0110822313,
				"z": -0.4390546038,
				"element": "C" 
			},
			{
				"x": -0.921524077,
				"y": 0.3869422047,
				"z": -0.2479594846,
				"element": "C" 
			},
			{
				"x": -3.4385832977,
				"y": 3.1144507491,
				"z": -0.7844450644,
				"element": "H" 
			},
			{
				"x": -1.1206330881,
				"y": 3.0234691842,
				"z": -0.3003921742,
				"element": "H" 
			},
			{
				"x": -1.6529114488,
				"y": 2.872778659,
				"z": 1.3735084129,
				"element": "H" 
			},
			{
				"x": -4.0956822853,
				"y": 1.0469731993,
				"z": 0.7563564176,
				"element": "H" 
			},
			{
				"x": -4.2449549806,
				"y": -1.4321384366,
				"z": 0.5396032518,
				"element": "H" 
			},
			{
				"x": -2.259609105,
				"y": -2.7372178594,
				"z": -0.1641166358,
				"element": "H" 
			},
			{
				"x": 0.1725985697,
				"y": -1.8653623773,
				"z": -1.9667259724,
				"element": "H" 
			},
			{
				"x": 0.1423579763,
				"y": -2.8320892527,
				"z": -0.4817400399,
				"element": "H" 
			},
			{
				"x": 1.8487092316,
				"y": -3.4255420405,
				"z": -1.9498595578,
				"element": "H" 
			},
			{
				"x": 4.0895454371,
				"y": -4.2215343614,
				"z": -2.5738583914,
				"element": "H" 
			},
			{
				"x": 6.1229039083,
				"y": -2.9896473258,
				"z": -1.8461066261,
				"element": "H" 
			},
			{
				"x": 5.8749960075,
				"y": -0.9251407417,
				"z": -0.4695281483,
				"element": "H" 
			},
			{
				"x": 3.6056491371,
				"y": -0.1152422343,
				"z": 0.1599409513,
				"element": "H" 
			},
			{
				"x": 0.0158166538,
				"y": 0.8887635322,
				"z": -0.4702061346,
				"element": "H" 
			}
		],
		 "valence_orbital": [ 
			{
				"type": "occ",
				"energy": -0.27702,
				"method": "rhf"
			},
			{
				"type": "occ",
				"energy": -0.25048,
				"method": "rhf"
			},
			{
				"type": "occ",
				"energy": -0.24797,
				"method": "rhf"
			},
			{
				"type": "occ",
				"energy": -0.24214,
				"method": "rhf"
			},
			{
				"type": "occ",
				"energy": -0.21934,
				"method": "rhf"
			},
			{
				"type": "unocc",
				"energy": -0.00828,
				"method": "rhf"
			},
			{
				"type": "unocc",
				"energy": -0.00606,
				"method": "rhf"
			},
			{
				"type": "unocc",
				"energy": 0.00108,
				"method": "rhf"
			},
			{
				"type": "unocc",
				"energy": 0.01393,
				"method": "rhf"
			},
			{
				"type": "unocc",
				"energy": 0.08574,
				"method": "rhf"
			}
		],
		"cosmo_sigma_profile": { 
			"-0.025": 0.0,
			"-0.024": 0.0,
			"-0.023": 0.0,
			"-0.022": 0.0,
			"-0.021": 0.0,
			"-0.02": 0.0,
			"-0.019": 0.0,
			"-0.018": 0.0,
			"-0.017": 0.0,
			"-0.016": 0.18985914515,
			"-0.015": 0.81864473777,
			"-0.014": 0.896024503979,
			"-0.013": 0.69343771742,
			"-0.012": 0.946523331365,
			"-0.011": 0.72979199732,
			"-0.01": 0.574686248651,
			"-0.009": 0.757135691557,
			"-0.008": 0.788284680384,
			"-0.007": 1.78227849665,
			"-0.006": 13.9639663125,
			"-0.005": 26.0416267368,
			"-0.004": 27.3134586901,
			"-0.003": 24.4567091913,
			"-0.002": 18.3405945375,
			"-0.001": 17.0490019797,
			"0.0": 13.9520998082,
			"0.001": 15.0474828844,
			"0.002": 15.9546801006,
			"0.003": 16.0181253904,
			"0.004": 19.4090486298,
			"0.005": 20.8761850806,
			"0.006": 18.0057032702,
			"0.007": 2.99453765774,
			"0.008": 1.99736255461,
			"0.009": 2.44063259162,
			"0.01": 1.56407317736,
			"0.011": 0.945083907993,
			"0.012": 1.40932517642,
			"0.013": 1.67326776511,
			"0.014": 1.90647143715,
			"0.015": 0.135822947642,
			"0.016": 0.0,
			"0.017": 0.0,
			"0.018": 0.0,
			"0.019": 0.0,
			"0.02": 0.0,
			"0.021": 0.0,
			"0.022": 0.0,
			"0.023": 0.0,
			"0.024": 0.0,
			"0.025": 0.0
		}
	}
}
