{
	 "smiles": "OC(=O)CCNS(=O)(=O)C1=C(C=CC=C1)C(F)(F)F", 
	 "Tm": 416.15, 
	 "num_atms": 29, 
	 "gaussian": { 
		 "optdone": 1, 
		 "sigma_profile": "yes", 
		 "theory": "DFT", 
		 "functional": "B3LYP", 
		 "basiset": "6-31G**", 
		 "properties": { 
			 "R2extent": 5594.3152, 
			 "electric_dipole_moment_norm": 5.03444047735, 
			 "electric_quadrupole_moment_norm": 32.6928459609, 
			 "total_energy": -1440.38424577, 
			 "HOMO_LUMO_gap": 0.20828, 
			 "cosmo_polarized_energy": -22.78, 
			 "cosmo_cavitation_energy": 34.93, 
			 "cosmo_dispersion_energy": -25.27, 
			 "cosmo_repulsion_energy": 1.86, 
			 "cosmo_total_nonelectrostatic_energy": 11.52, 
			 "SMD_solvation_energy": 6.89 
		},
		"coords": [
			{
				"x": 3.5727948534,
				"y": -0.3741143144,
				"z": 2.7404283049,
				"element": "O" 
			},
			{
				"x": 2.9017682635,
				"y": 0.2737954851,
				"z": 1.7572030039,
				"element": "C" 
			},
			{
				"x": 2.5731177579,
				"y": 1.4270869987,
				"z": 1.912189048,
				"element": "O" 
			},
			{
				"x": 2.6032169216,
				"y": -0.542639266,
				"z": 0.506947589,
				"element": "C" 
			},
			{
				"x": 1.9515353885,
				"y": 0.2917185859,
				"z": -0.5958887623,
				"element": "C" 
			},
			{
				"x": 0.6611572167,
				"y": 0.8153108124,
				"z": -0.1275866405,
				"element": "N" 
			},
			{
				"x": -0.557711618,
				"y": 1.1346795156,
				"z": -1.2349126321,
				"element": "S" 
			},
			{
				"x": -0.2156113181,
				"y": 0.485570666,
				"z": -2.5003921845,
				"element": "O" 
			},
			{
				"x": -0.8650158199,
				"y": 2.5677541084,
				"z": -1.17394683,
				"element": "O" 
			},
			{
				"x": -2.0057566424,
				"y": 0.2948053189,
				"z": -0.5164147026,
				"element": "C" 
			},
			{
				"x": -2.2389133507,
				"y": -1.0972099407,
				"z": -0.5398800428,
				"element": "C" 
			},
			{
				"x": -3.4131365161,
				"y": -1.5871942218,
				"z": 0.0399622678,
				"element": "C" 
			},
			{
				"x": -4.3409318087,
				"y": -0.7317217385,
				"z": 0.6340787555,
				"element": "C" 
			},
			{
				"x": -4.1049552017,
				"y": 0.6386028285,
				"z": 0.6511639786,
				"element": "C" 
			},
			{
				"x": -2.9404322379,
				"y": 1.1468781407,
				"z": 0.0747351287,
				"element": "C" 
			},
			{
				"x": -1.324915005,
				"y": -2.1141775358,
				"z": -1.1969712536,
				"element": "C" 
			},
			{
				"x": -1.4049510054,
				"y": -2.0820694316,
				"z": -2.5351627374,
				"element": "F" 
			},
			{
				"x": -0.0251035232,
				"y": -1.9398707604,
				"z": -0.8556639778,
				"element": "F" 
			},
			{
				"x": -1.6457576272,
				"y": -3.3730548178,
				"z": -0.8138696679,
				"element": "F" 
			},
			{
				"x": 3.7686249936,
				"y": -1.283556451,
				"z": 2.4728512886,
				"element": "H" 
			},
			{
				"x": 1.9402695659,
				"y": -1.3734874037,
				"z": 0.7779178087,
				"element": "H" 
			},
			{
				"x": 3.5391511539,
				"y": -0.9813357625,
				"z": 0.1350920664,
				"element": "H" 
			},
			{
				"x": 2.6229923893,
				"y": 1.1054803909,
				"z": -0.8943666524,
				"element": "H" 
			},
			{
				"x": 1.7675030152,
				"y": -0.3309998032,
				"z": -1.4706316906,
				"element": "H" 
			},
			{
				"x": 0.7706686017,
				"y": 1.5913426023,
				"z": 0.5218102949,
				"element": "H" 
			},
			{
				"x": -3.5972441314,
				"y": -2.6541269203,
				"z": 0.0235339701,
				"element": "H" 
			},
			{
				"x": -5.2430325785,
				"y": -1.1423490456,
				"z": 1.0766720187,
				"element": "H" 
			},
			{
				"x": -4.8201033044,
				"y": 1.3171794902,
				"z": 1.1055523803,
				"element": "H" 
			},
			{
				"x": -2.7465284324,
				"y": 2.2127024695,
				"z": 0.0650498702,
				"element": "H" 
			}
		],
		 "valence_orbital": [ 
			{
				"type": "occ",
				"energy": -0.30563,
				"method": "rhf"
			},
			{
				"type": "occ",
				"energy": -0.29477,
				"method": "rhf"
			},
			{
				"type": "occ",
				"energy": -0.28841,
				"method": "rhf"
			},
			{
				"type": "occ",
				"energy": -0.2847,
				"method": "rhf"
			},
			{
				"type": "occ",
				"energy": -0.26417,
				"method": "rhf"
			},
			{
				"type": "unocc",
				"energy": -0.05589,
				"method": "rhf"
			},
			{
				"type": "unocc",
				"energy": -0.03478,
				"method": "rhf"
			},
			{
				"type": "unocc",
				"energy": -0.00595,
				"method": "rhf"
			},
			{
				"type": "unocc",
				"energy": 0.04049,
				"method": "rhf"
			},
			{
				"type": "unocc",
				"energy": 0.05499,
				"method": "rhf"
			}
		],
		"cosmo_sigma_profile": { 
			"-0.025": 0.0,
			"-0.024": 0.0,
			"-0.023": 0.0,
			"-0.022": 0.0,
			"-0.021": 0.0,
			"-0.02": 0.155761610277,
			"-0.019": 0.88823939681,
			"-0.018": 1.50050198461,
			"-0.017": 0.756788749792,
			"-0.016": 1.23055076064,
			"-0.015": 0.901658058447,
			"-0.014": 0.995071850837,
			"-0.013": 1.26388224013,
			"-0.012": 1.37745689884,
			"-0.011": 1.89645469914,
			"-0.01": 2.22238274636,
			"-0.009": 1.96669815075,
			"-0.008": 6.61600406108,
			"-0.007": 13.5406271461,
			"-0.006": 16.1755536862,
			"-0.005": 17.8100783467,
			"-0.004": 13.8867085482,
			"-0.003": 13.9555618152,
			"-0.002": 14.0288684443,
			"-0.001": 15.3211310262,
			"0.0": 19.2320539958,
			"0.001": 23.4859361576,
			"0.002": 28.06203089,
			"0.003": 15.0350973316,
			"0.004": 7.33255300287,
			"0.005": 6.02398897411,
			"0.006": 5.71529662025,
			"0.007": 5.36652861562,
			"0.008": 7.3327344978,
			"0.009": 8.30095023033,
			"0.01": 11.8449573425,
			"0.011": 10.3953208612,
			"0.012": 3.38643499838,
			"0.013": 0.773634295275,
			"0.014": 0.0,
			"0.015": 0.0,
			"0.016": 0.0,
			"0.017": 0.0,
			"0.018": 0.0,
			"0.019": 0.0,
			"0.02": 0.0,
			"0.021": 0.0,
			"0.022": 0.0,
			"0.023": 0.0,
			"0.024": 0.0,
			"0.025": 0.0
		}
	}
}
