{
	 "smiles": "CCOC(=O)C1=C(N(N=C1)C1=CC(N)=CC=C1)C(F)(F)F", 
	 "Tm": 361.15, 
	 "num_atms": 33, 
	 "gaussian": { 
		 "optdone": 1, 
		 "sigma_profile": "yes", 
		 "theory": "DFT", 
		 "functional": "B3LYP", 
		 "basiset": "6-31G**", 
		 "properties": { 
			 "R2extent": 7442.6038, 
			 "electric_dipole_moment_norm": 4.18979909304, 
			 "electric_quadrupole_moment_norm": 15.3382655724, 
			 "total_energy": -1116.83398439, 
			 "HOMO_LUMO_gap": 0.16613, 
			 "cosmo_polarized_energy": -14.61, 
			 "cosmo_cavitation_energy": 39.16, 
			 "cosmo_dispersion_energy": -26.72, 
			 "cosmo_repulsion_energy": 2.01, 
			 "cosmo_total_nonelectrostatic_energy": 14.45, 
			 "SMD_solvation_energy": 8.0 
		},
		"coords": [
			{
				"x": 2.7248709776,
				"y": 3.8725981409,
				"z": -1.9485631572,
				"element": "C" 
			},
			{
				"x": 1.3198093495,
				"y": 3.6237701427,
				"z": -2.4626348331,
				"element": "C" 
			},
			{
				"x": 0.7084726008,
				"y": 2.6512215896,
				"z": -1.5837869381,
				"element": "O" 
			},
			{
				"x": -0.5775383915,
				"y": 2.3487615731,
				"z": -1.8422358052,
				"element": "C" 
			},
			{
				"x": -1.2041228075,
				"y": 2.7929358817,
				"z": -2.785418111,
				"element": "O" 
			},
			{
				"x": -1.1408196315,
				"y": 1.3646875773,
				"z": -0.8953244423,
				"element": "C" 
			},
			{
				"x": -0.773627728,
				"y": 0.9550909217,
				"z": 0.3866858026,
				"element": "C" 
			},
			{
				"x": -1.6326379412,
				"y": -0.054202769,
				"z": 0.7335356127,
				"element": "N" 
			},
			{
				"x": -2.5437642371,
				"y": -0.2972629379,
				"z": -0.2438379536,
				"element": "N" 
			},
			{
				"x": -2.2557720232,
				"y": 0.5572027157,
				"z": -1.2129530831,
				"element": "C" 
			},
			{
				"x": -1.6673147264,
				"y": -0.8908881585,
				"z": 1.8981278981,
				"element": "C" 
			},
			{
				"x": -0.4911403761,
				"y": -1.4722181575,
				"z": 2.366648689,
				"element": "C" 
			},
			{
				"x": -0.5283189413,
				"y": -2.3095519379,
				"z": 3.4933877521,
				"element": "C" 
			},
			{
				"x": 0.6333304566,
				"y": -2.9306853076,
				"z": 3.9456106627,
				"element": "N" 
			},
			{
				"x": -1.7680363882,
				"y": -2.5627350486,
				"z": 4.1072022143,
				"element": "C" 
			},
			{
				"x": -2.9330193946,
				"y": -1.9883324733,
				"z": 3.6061111944,
				"element": "C" 
			},
			{
				"x": -2.90186046,
				"y": -1.1425380824,
				"z": 2.4981742962,
				"element": "C" 
			},
			{
				"x": 0.2530820851,
				"y": 1.5295997924,
				"z": 1.3228516703,
				"element": "C" 
			},
			{
				"x": -0.1364711004,
				"y": 1.4294516822,
				"z": 2.6114054488,
				"element": "F" 
			},
			{
				"x": 1.4476954686,
				"y": 0.8970257235,
				"z": 1.2171681524,
				"element": "F" 
			},
			{
				"x": 0.4627562449,
				"y": 2.8321911453,
				"z": 1.0788245572,
				"element": "F" 
			},
			{
				"x": 3.3173059584,
				"y": 2.9533797497,
				"z": -1.9676462989,
				"element": "H" 
			},
			{
				"x": 3.2238362193,
				"y": 4.6177621371,
				"z": -2.5758110217,
				"element": "H" 
			},
			{
				"x": 2.7003639329,
				"y": 4.2442051137,
				"z": -0.9203262067,
				"element": "H" 
			},
			{
				"x": 0.7111636966,
				"y": 4.5333441537,
				"z": -2.4596948014,
				"element": "H" 
			},
			{
				"x": 1.3152580632,
				"y": 3.2280653289,
				"z": -3.4832792155,
				"element": "H" 
			},
			{
				"x": -2.8318634959,
				"y": 0.576189972,
				"z": -2.1270638803,
				"element": "H" 
			},
			{
				"x": 0.4500415029,
				"y": -1.2806006861,
				"z": 1.8631578088,
				"element": "H" 
			},
			{
				"x": 1.4982766583,
				"y": -2.4623228483,
				"z": 3.7147852395,
				"element": "H" 
			},
			{
				"x": 0.6126594817,
				"y": -3.2449395887,
				"z": 4.9054388488,
				"element": "H" 
			},
			{
				"x": -1.8117874254,
				"y": -3.2183204428,
				"z": 4.9729584662,
				"element": "H" 
			},
			{
				"x": -3.8812105327,
				"y": -2.1971213915,
				"z": 4.0924449325,
				"element": "H" 
			},
			{
				"x": -3.8000170954,
				"y": -0.690163511,
				"z": 2.0972565011,
				"element": "H" 
			}
		],
		 "valence_orbital": [ 
			{
				"type": "occ",
				"energy": -0.2868,
				"method": "rhf"
			},
			{
				"type": "occ",
				"energy": -0.27608,
				"method": "rhf"
			},
			{
				"type": "occ",
				"energy": -0.26973,
				"method": "rhf"
			},
			{
				"type": "occ",
				"energy": -0.24694,
				"method": "rhf"
			},
			{
				"type": "occ",
				"energy": -0.21392,
				"method": "rhf"
			},
			{
				"type": "unocc",
				"energy": -0.04779,
				"method": "rhf"
			},
			{
				"type": "unocc",
				"energy": -0.00931,
				"method": "rhf"
			},
			{
				"type": "unocc",
				"energy": 0.0031,
				"method": "rhf"
			},
			{
				"type": "unocc",
				"energy": 0.01553,
				"method": "rhf"
			},
			{
				"type": "unocc",
				"energy": 0.07281,
				"method": "rhf"
			}
		],
		"cosmo_sigma_profile": { 
			"-0.025": 0.0,
			"-0.024": 0.0,
			"-0.023": 0.0,
			"-0.022": 0.0,
			"-0.021": 0.0,
			"-0.02": 0.0,
			"-0.019": 0.0,
			"-0.018": 0.0,
			"-0.017": 0.0,
			"-0.016": 0.0,
			"-0.015": 0.0,
			"-0.014": 0.0,
			"-0.013": 1.29381583766,
			"-0.012": 3.00626913307,
			"-0.011": 3.31042410495,
			"-0.01": 2.97198557178,
			"-0.009": 3.97166031906,
			"-0.008": 4.20235812475,
			"-0.007": 4.06465434406,
			"-0.006": 10.5287855922,
			"-0.005": 17.266451258,
			"-0.004": 22.4526862166,
			"-0.003": 24.6248598849,
			"-0.002": 24.2990201267,
			"-0.001": 23.4824617442,
			"0.0": 23.518124981,
			"0.001": 22.5154319798,
			"0.002": 33.366434088,
			"0.003": 23.1023395295,
			"0.004": 17.7970484261,
			"0.005": 14.7911405863,
			"0.006": 4.67527053252,
			"0.007": 3.60364517041,
			"0.008": 3.82918186093,
			"0.009": 3.51139782661,
			"0.01": 3.6968483033,
			"0.011": 4.97064970083,
			"0.012": 5.67700792406,
			"0.013": 1.48891925604,
			"0.014": 0.353131925716,
			"0.015": 0.0,
			"0.016": 0.0,
			"0.017": 0.0,
			"0.018": 0.0,
			"0.019": 0.0,
			"0.02": 0.0,
			"0.021": 0.0,
			"0.022": 0.0,
			"0.023": 0.0,
			"0.024": 0.0,
			"0.025": 0.0
		}
	}
}
