{
	 "smiles": "COC1=CC(=CC(OC)=C1O)C1C2C(COC2=O)C(OC2OC3COC(OC3C(O)C2O)C2=CC=CS2)C2=CC3=C(OCO3)C=C12", 
	 "Tm": 517.15, 
	 "num_atms": 78, 
	 "gaussian": { 
		 "optdone": 1, 
		 "sigma_profile": "yes", 
		 "theory": "DFT", 
		 "functional": "B3LYP", 
		 "basiset": "6-31G**", 
		 "properties": { 
			 "R2extent": 28673.9275, 
			 "electric_dipole_moment_norm": 6.68921844762, 
			 "electric_quadrupole_moment_norm": 32.887470828, 
			 "total_energy": -2614.67034994, 
			 "HOMO_LUMO_gap": 0.16584, 
			 "cosmo_polarized_energy": -38.58, 
			 "cosmo_cavitation_energy": 78.26, 
			 "cosmo_dispersion_energy": -48.89, 
			 "cosmo_repulsion_energy": 3.59, 
			 "cosmo_total_nonelectrostatic_energy": 32.96, 
			 "SMD_solvation_energy": 14.76 
		},
		"coords": [
			{
				"x": 4.5192154187,
				"y": -0.8319359929,
				"z": 4.8133892731,
				"element": "C" 
			},
			{
				"x": 5.3086125109,
				"y": 0.0916806865,
				"z": 4.0805075495,
				"element": "O" 
			},
			{
				"x": 4.7137669258,
				"y": 0.7613415211,
				"z": 3.0535804736,
				"element": "C" 
			},
			{
				"x": 3.3971393521,
				"y": 0.5583100827,
				"z": 2.6201636357,
				"element": "C" 
			},
			{
				"x": 2.8630570361,
				"y": 1.3007425166,
				"z": 1.5632941349,
				"element": "C" 
			},
			{
				"x": 3.6578054487,
				"y": 2.2678224889,
				"z": 0.9294384617,
				"element": "C" 
			},
			{
				"x": 4.9721848317,
				"y": 2.4627267507,
				"z": 1.3536229017,
				"element": "C" 
			},
			{
				"x": 5.8633560522,
				"y": 3.3658102389,
				"z": 0.8159723034,
				"element": "O" 
			},
			{
				"x": 5.4273618395,
				"y": 4.177810412,
				"z": -0.2610971237,
				"element": "C" 
			},
			{
				"x": 5.5150456875,
				"y": 1.7172250928,
				"z": 2.4109858636,
				"element": "C" 
			},
			{
				"x": 6.7993426117,
				"y": 1.9148739781,
				"z": 2.8194245925,
				"element": "O" 
			},
			{
				"x": 1.4059842424,
				"y": 1.0965794185,
				"z": 1.1665418026,
				"element": "C" 
			},
			{
				"x": 0.523313306,
				"y": 2.25640108,
				"z": 1.7328003123,
				"element": "C" 
			},
			{
				"x": -0.7116306504,
				"y": 2.6827835288,
				"z": 0.9173366131,
				"element": "C" 
			},
			{
				"x": -1.6917468708,
				"y": 3.1485168986,
				"z": 2.0152519813,
				"element": "C" 
			},
			{
				"x": -1.281373463,
				"y": 2.5148073983,
				"z": 3.2401058957,
				"element": "O" 
			},
			{
				"x": -0.0662896288,
				"y": 1.9201220747,
				"z": 3.1044084374,
				"element": "C" 
			},
			{
				"x": 0.423748856,
				"y": 1.2560556847,
				"z": 3.9826204705,
				"element": "O" 
			},
			{
				"x": -1.2267593114,
				"y": 1.5158216763,
				"z": 0.0729510012,
				"element": "C" 
			},
			{
				"x": -1.6753218969,
				"y": 0.528207056,
				"z": 1.0249663562,
				"element": "O" 
			},
			{
				"x": -2.0412591205,
				"y": -0.7215706391,
				"z": 0.5237849752,
				"element": "C" 
			},
			{
				"x": -0.931997561,
				"y": -1.5903297885,
				"z": 0.7305743531,
				"element": "O" 
			},
			{
				"x": -1.0892195196,
				"y": -2.9399255256,
				"z": 0.2925538686,
				"element": "C" 
			},
			{
				"x": -0.448519177,
				"y": -3.161388722,
				"z": -1.0785280096,
				"element": "C" 
			},
			{
				"x": -1.2730844844,
				"y": -2.660217203,
				"z": -2.1340050552,
				"element": "O" 
			},
			{
				"x": -2.5396033284,
				"y": -3.259595663,
				"z": -2.1143100585,
				"element": "C" 
			},
			{
				"x": -3.2456877685,
				"y": -2.9570232549,
				"z": -0.9135920583,
				"element": "O" 
			},
			{
				"x": -2.5614676336,
				"y": -3.3955862484,
				"z": 0.2741823838,
				"element": "C" 
			},
			{
				"x": -3.3150361689,
				"y": -2.7555499522,
				"z": 1.4386848269,
				"element": "C" 
			},
			{
				"x": -2.6694326955,
				"y": -3.2249734032,
				"z": 2.6100920986,
				"element": "O" 
			},
			{
				"x": -3.2955891831,
				"y": -1.2112793801,
				"z": 1.2785518646,
				"element": "C" 
			},
			{
				"x": -4.467407992,
				"y": -0.7410948692,
				"z": 0.633788921,
				"element": "O" 
			},
			{
				"x": -3.3326195394,
				"y": -2.7374431564,
				"z": -3.2732680155,
				"element": "C" 
			},
			{
				"x": -2.8785475505,
				"y": -2.0130432689,
				"z": -4.3429181802,
				"element": "C" 
			},
			{
				"x": -3.9103920139,
				"y": -1.7155902402,
				"z": -5.2854710061,
				"element": "C" 
			},
			{
				"x": -5.1265047839,
				"y": -2.2202332957,
				"z": -4.9175642655,
				"element": "C" 
			},
			{
				"x": -5.0402259003,
				"y": -3.0658843785,
				"z": -3.4050999215,
				"element": "S" 
			},
			{
				"x": -0.1292278976,
				"y": 1.0330715948,
				"z": -0.8460843441,
				"element": "C" 
			},
			{
				"x": -0.4307116686,
				"y": 0.7466062793,
				"z": -2.1923291934,
				"element": "C" 
			},
			{
				"x": 0.587232375,
				"y": 0.2537464711,
				"z": -2.9796301653,
				"element": "C" 
			},
			{
				"x": 1.8662060933,
				"y": 0.0619784302,
				"z": -2.4694401759,
				"element": "C" 
			},
			{
				"x": 2.6928472459,
				"y": -0.4081499605,
				"z": -3.465063011,
				"element": "O" 
			},
			{
				"x": 1.8258172873,
				"y": -0.7173212026,
				"z": -4.5611347897,
				"element": "C" 
			},
			{
				"x": 0.5605927703,
				"y": -0.0903957978,
				"z": -4.3134763042,
				"element": "O" 
			},
			{
				"x": 2.1890584357,
				"y": 0.3560357865,
				"z": -1.1582913122,
				"element": "C" 
			},
			{
				"x": 1.1673006288,
				"y": 0.8602372396,
				"z": -0.3268867603,
				"element": "C" 
			},
			{
				"x": 3.6434456973,
				"y": -0.3488059648,
				"z": 5.2643651871,
				"element": "H" 
			},
			{
				"x": 5.1670173457,
				"y": -1.2180021828,
				"z": 5.6021763957,
				"element": "H" 
			},
			{
				"x": 4.1816214405,
				"y": -1.6665384092,
				"z": 4.1847404764,
				"element": "H" 
			},
			{
				"x": 2.7593343079,
				"y": -0.1503010305,
				"z": 3.1320744786,
				"element": "H" 
			},
			{
				"x": 3.2541175586,
				"y": 2.8453605538,
				"z": 0.1058003153,
				"element": "H" 
			},
			{
				"x": 6.2761644867,
				"y": 4.8079242379,
				"z": -0.5318527019,
				"element": "H" 
			},
			{
				"x": 4.5832096359,
				"y": 4.8147458448,
				"z": 0.0325113742,
				"element": "H" 
			},
			{
				"x": 5.13469962,
				"y": 3.5717687109,
				"z": -1.127831258,
				"element": "H" 
			},
			{
				"x": 7.1605122039,
				"y": 2.6140226535,
				"z": 2.2533648508,
				"element": "H" 
			},
			{
				"x": 1.0584005316,
				"y": 0.1840383531,
				"z": 1.6637587296,
				"element": "H" 
			},
			{
				"x": 1.1636493274,
				"y": 3.1330223687,
				"z": 1.8880922798,
				"element": "H" 
			},
			{
				"x": -0.4821011148,
				"y": 3.5045799675,
				"z": 0.2332301629,
				"element": "H" 
			},
			{
				"x": -2.7247463385,
				"y": 2.8516184399,
				"z": 1.8192077763,
				"element": "H" 
			},
			{
				"x": -1.6512545479,
				"y": 4.2341414327,
				"z": 2.1591278784,
				"element": "H" 
			},
			{
				"x": -2.0945981437,
				"y": 1.8334107702,
				"z": -0.5233264113,
				"element": "H" 
			},
			{
				"x": -2.2733146865,
				"y": -0.6560084243,
				"z": -0.5465370357,
				"element": "H" 
			},
			{
				"x": -0.5630887849,
				"y": -3.5510936644,
				"z": 1.0332613887,
				"element": "H" 
			},
			{
				"x": -0.2604782277,
				"y": -4.2373448069,
				"z": -1.2313183386,
				"element": "H" 
			},
			{
				"x": 0.4971866945,
				"y": -2.6203053654,
				"z": -1.1403688607,
				"element": "H" 
			},
			{
				"x": -2.4213758471,
				"y": -4.3599028578,
				"z": -2.1615133,
				"element": "H" 
			},
			{
				"x": -2.5986178925,
				"y": -4.4926120466,
				"z": 0.3386552358,
				"element": "H" 
			},
			{
				"x": -4.3703467622,
				"y": -3.0657657772,
				"z": 1.407207507,
				"element": "H" 
			},
			{
				"x": -2.9837244722,
				"y": -2.7065946667,
				"z": 3.3614795459,
				"element": "H" 
			},
			{
				"x": -3.283165476,
				"y": -0.7516121872,
				"z": 2.2736861811,
				"element": "H" 
			},
			{
				"x": -4.5120876436,
				"y": -1.2058124401,
				"z": -0.2160658915,
				"element": "H" 
			},
			{
				"x": -1.8461170899,
				"y": -1.7008987878,
				"z": -4.4432654669,
				"element": "H" 
			},
			{
				"x": -3.7503761994,
				"y": -1.1467347701,
				"z": -6.1943102012,
				"element": "H" 
			},
			{
				"x": -6.0733325945,
				"y": -2.137645354,
				"z": -5.4331521486,
				"element": "H" 
			},
			{
				"x": -1.4308227992,
				"y": 0.887470506,
				"z": -2.5880718001,
				"element": "H" 
			},
			{
				"x": 2.2530128736,
				"y": -0.3219245138,
				"z": -5.4867734435,
				"element": "H" 
			},
			{
				"x": 1.6877217429,
				"y": -1.8068896647,
				"z": -4.6247285208,
				"element": "H" 
			},
			{
				"x": 3.1935220064,
				"y": 0.2035066321,
				"z": -0.7840099868,
				"element": "H" 
			}
		],
		 "valence_orbital": [ 
			{
				"type": "occ",
				"energy": -0.24164,
				"method": "rhf"
			},
			{
				"type": "occ",
				"energy": -0.23987,
				"method": "rhf"
			},
			{
				"type": "occ",
				"energy": -0.21122,
				"method": "rhf"
			},
			{
				"type": "occ",
				"energy": -0.20807,
				"method": "rhf"
			},
			{
				"type": "occ",
				"energy": -0.18898,
				"method": "rhf"
			},
			{
				"type": "unocc",
				"energy": -0.02314,
				"method": "rhf"
			},
			{
				"type": "unocc",
				"energy": -0.00736,
				"method": "rhf"
			},
			{
				"type": "unocc",
				"energy": -0.0012,
				"method": "rhf"
			},
			{
				"type": "unocc",
				"energy": 0.01327,
				"method": "rhf"
			},
			{
				"type": "unocc",
				"energy": 0.02565,
				"method": "rhf"
			}
		],
		"cosmo_sigma_profile": { 
			"-0.025": 0.0,
			"-0.024": 0.0,
			"-0.023": 0.0,
			"-0.022": 0.0,
			"-0.021": 0.0,
			"-0.02": 0.0,
			"-0.019": 0.0,
			"-0.018": 0.0,
			"-0.017": 0.0298365628618,
			"-0.016": 1.09684343896,
			"-0.015": 1.14858601479,
			"-0.014": 1.47845604928,
			"-0.013": 1.66688524485,
			"-0.012": 1.55991045408,
			"-0.011": 1.43407032721,
			"-0.01": 1.81772324107,
			"-0.009": 2.49441881837,
			"-0.008": 9.90381409376,
			"-0.007": 23.9386885332,
			"-0.006": 49.8012498677,
			"-0.005": 54.5160048243,
			"-0.004": 49.1602947921,
			"-0.003": 46.6498196297,
			"-0.002": 35.2851821728,
			"-0.001": 31.5324352777,
			"0.0": 31.3899483998,
			"0.001": 32.3069992584,
			"0.002": 37.0395045213,
			"0.003": 44.2628748341,
			"0.004": 36.7233116871,
			"0.005": 25.7004840165,
			"0.006": 19.2153598463,
			"0.007": 15.4021355756,
			"0.008": 12.2708053928,
			"0.009": 11.8498234114,
			"0.01": 12.7173038383,
			"0.011": 8.97303752218,
			"0.012": 8.07099100267,
			"0.013": 6.69318365719,
			"0.014": 3.25402814229,
			"0.015": 0.135690563263,
			"0.016": 0.0,
			"0.017": 0.0,
			"0.018": 0.0,
			"0.019": 0.0,
			"0.02": 0.0,
			"0.021": 0.0,
			"0.022": 0.0,
			"0.023": 0.0,
			"0.024": 0.0,
			"0.025": 0.0
		}
	}
}
