{
	 "smiles": "CCC(C)(C)C=C", 
	 "Tm": 139.15, 
	 "num_atms": 21, 
	 "gaussian": { 
		 "optdone": 1, 
		 "sigma_profile": "yes", 
		 "theory": "DFT", 
		 "functional": "B3LYP", 
		 "basiset": "6-31G**", 
		 "properties": { 
			 "R2extent": 1043.0423, 
			 "electric_dipole_moment_norm": 0.301270426693, 
			 "electric_quadrupole_moment_norm": 1.71420242387, 
			 "total_energy": -275.174983876, 
			 "HOMO_LUMO_gap": 0.27554, 
			 "cosmo_polarized_energy": -1.55, 
			 "cosmo_cavitation_energy": 22.05, 
			 "cosmo_dispersion_energy": -15.49, 
			 "cosmo_repulsion_energy": 1.29, 
			 "cosmo_total_nonelectrostatic_energy": 7.85, 
			 "SMD_solvation_energy": 4.59 
		},
		"coords": [
			{
				"x": 1.1061838489,
				"y": -1.3750611073,
				"z": -0.3194598613,
				"element": "C" 
			},
			{
				"x": 1.1517784412,
				"y": -0.2445402637,
				"z": 0.7140397863,
				"element": "C" 
			},
			{
				"x": 0.3343367103,
				"y": 1.0336250357,
				"z": 0.3626865231,
				"element": "C" 
			},
			{
				"x": -1.1580828411,
				"y": 0.7002044731,
				"z": 0.2011087169,
				"element": "C" 
			},
			{
				"x": 0.4990673363,
				"y": 2.0383564273,
				"z": 1.5282154945,
				"element": "C" 
			},
			{
				"x": 0.9267348035,
				"y": 1.6688854678,
				"z": -0.8821663294,
				"element": "C" 
			},
			{
				"x": 0.3137177808,
				"y": 1.9456733071,
				"z": -2.0338250909,
				"element": "C" 
			},
			{
				"x": 0.1000574173,
				"y": -1.7936749049,
				"z": -0.422685522,
				"element": "H" 
			},
			{
				"x": 1.770744768,
				"y": -2.1933338528,
				"z": -0.0231547795,
				"element": "H" 
			},
			{
				"x": 1.4228092613,
				"y": -1.0247062019,
				"z": -1.3069355371,
				"element": "H" 
			},
			{
				"x": 0.7957719385,
				"y": -0.6201520372,
				"z": 1.6829502425,
				"element": "H" 
			},
			{
				"x": 2.1973365502,
				"y": 0.0536144416,
				"z": 0.8715581948,
				"element": "H" 
			},
			{
				"x": -1.7464485927,
				"y": 1.6071925404,
				"z": 0.0276713472,
				"element": "H" 
			},
			{
				"x": -1.5410543442,
				"y": 0.2237148782,
				"z": 1.1102114109,
				"element": "H" 
			},
			{
				"x": -1.340478058,
				"y": 0.0197065298,
				"z": -0.6354607006,
				"element": "H" 
			},
			{
				"x": -0.0543883286,
				"y": 2.9621286994,
				"z": 1.3310299005,
				"element": "H" 
			},
			{
				"x": 1.5517506927,
				"y": 2.3033129833,
				"z": 1.6785097061,
				"element": "H" 
			},
			{
				"x": 0.1251841438,
				"y": 1.609637662,
				"z": 2.4651601328,
				"element": "H" 
			},
			{
				"x": 1.9840830321,
				"y": 1.9262337396,
				"z": -0.786537815,
				"element": "H" 
			},
			{
				"x": -0.7347221785,
				"y": 1.7220368184,
				"z": -2.2068284611,
				"element": "H" 
			},
			{
				"x": 0.8473176183,
				"y": 2.4155453643,
				"z": -2.8550873586,
				"element": "H" 
			}
		],
		 "valence_orbital": [ 
			{
				"type": "occ",
				"energy": -0.34035,
				"method": "rhf"
			},
			{
				"type": "occ",
				"energy": -0.32205,
				"method": "rhf"
			},
			{
				"type": "occ",
				"energy": -0.31393,
				"method": "rhf"
			},
			{
				"type": "occ",
				"energy": -0.31067,
				"method": "rhf"
			},
			{
				"type": "occ",
				"energy": -0.25005,
				"method": "rhf"
			},
			{
				"type": "unocc",
				"energy": 0.02549,
				"method": "rhf"
			},
			{
				"type": "unocc",
				"energy": 0.0857,
				"method": "rhf"
			},
			{
				"type": "unocc",
				"energy": 0.1188,
				"method": "rhf"
			},
			{
				"type": "unocc",
				"energy": 0.13037,
				"method": "rhf"
			},
			{
				"type": "unocc",
				"energy": 0.13497,
				"method": "rhf"
			}
		],
		"cosmo_sigma_profile": { 
			"-0.025": 0.0,
			"-0.024": 0.0,
			"-0.023": 0.0,
			"-0.022": 0.0,
			"-0.021": 0.0,
			"-0.02": 0.0,
			"-0.019": 0.0,
			"-0.018": 0.0,
			"-0.017": 0.0,
			"-0.016": 0.0,
			"-0.015": 0.0,
			"-0.014": 0.0,
			"-0.013": 0.0,
			"-0.012": 0.0,
			"-0.011": 0.0,
			"-0.01": 0.0,
			"-0.009": 0.0,
			"-0.008": 0.0,
			"-0.007": 0.0,
			"-0.006": 0.0,
			"-0.005": 0.416012464323,
			"-0.004": 3.6857029136,
			"-0.003": 13.7379334795,
			"-0.002": 30.1871723379,
			"-0.001": 27.8313656676,
			"0.0": 26.5806781409,
			"0.001": 31.8310665651,
			"0.002": 18.2107556409,
			"0.003": 5.12262303097,
			"0.004": 4.26044199778,
			"0.005": 4.27109263156,
			"0.006": 2.43713390528,
			"0.007": 1.11908098048,
			"0.008": 0.365501218144,
			"0.009": 0.0,
			"0.01": 0.0,
			"0.011": 0.0,
			"0.012": 0.0,
			"0.013": 0.0,
			"0.014": 0.0,
			"0.015": 0.0,
			"0.016": 0.0,
			"0.017": 0.0,
			"0.018": 0.0,
			"0.019": 0.0,
			"0.02": 0.0,
			"0.021": 0.0,
			"0.022": 0.0,
			"0.023": 0.0,
			"0.024": 0.0,
			"0.025": 0.0
		}
	}
}
