{
	 "smiles": "OC(=O)C1=C(CCC(F)(F)F)OC=N1", 
	 "Tm": 413.15, 
	 "num_atms": 20, 
	 "gaussian": { 
		 "optdone": 1, 
		 "sigma_profile": "yes", 
		 "theory": "DFT", 
		 "functional": "B3LYP", 
		 "basiset": "6-31G**", 
		 "properties": { 
			 "R2extent": 2967.3257, 
			 "electric_dipole_moment_norm": 4.40050183275, 
			 "electric_quadrupole_moment_norm": 20.5579448705, 
			 "total_energy": -850.313819645, 
			 "HOMO_LUMO_gap": 0.21828, 
			 "cosmo_polarized_energy": -16.13, 
			 "cosmo_cavitation_energy": 26.73, 
			 "cosmo_dispersion_energy": -18.39, 
			 "cosmo_repulsion_energy": 1.41, 
			 "cosmo_total_nonelectrostatic_energy": 9.75, 
			 "SMD_solvation_energy": 6.25 
		},
		"coords": [
			{
				"x": -2.2447649975,
				"y": 1.7746339907,
				"z": -0.5504437422,
				"element": "O" 
			},
			{
				"x": -1.2806114763,
				"y": 2.6969051239,
				"z": -0.2728984478,
				"element": "C" 
			},
			{
				"x": -1.5312033214,
				"y": 3.8673898824,
				"z": -0.1004862235,
				"element": "O" 
			},
			{
				"x": 0.0648642228,
				"y": 2.0951521288,
				"z": -0.2159578922,
				"element": "C" 
			},
			{
				"x": 0.4594217435,
				"y": 0.7891467679,
				"z": -0.3549667876,
				"element": "C" 
			},
			{
				"x": -0.2075688959,
				"y": -0.5152505745,
				"z": -0.6357025308,
				"element": "C" 
			},
			{
				"x": 0.1377611106,
				"y": -1.6349684886,
				"z": 0.3646984517,
				"element": "C" 
			},
			{
				"x": -0.457463244,
				"y": -1.4266660906,
				"z": 1.7406546501,
				"element": "C" 
			},
			{
				"x": 0.0181276535,
				"y": -0.3107974997,
				"z": 2.3369798654,
				"element": "F" 
			},
			{
				"x": -1.8035858684,
				"y": -1.3110608252,
				"z": 1.6876728642,
				"element": "F" 
			},
			{
				"x": -0.1717140554,
				"y": -2.4695865709,
				"z": 2.549339535,
				"element": "F" 
			},
			{
				"x": 1.819013813,
				"y": 0.768562819,
				"z": -0.2111993817,
				"element": "O" 
			},
			{
				"x": 2.1692313469,
				"y": 2.0702253016,
				"z": 0.0144855885,
				"element": "C" 
			},
			{
				"x": 1.1817996141,
				"y": 2.8950031886,
				"z": 0.0209411815,
				"element": "N" 
			},
			{
				"x": -3.0835272753,
				"y": 2.2647706118,
				"z": -0.5482308517,
				"element": "H" 
			},
			{
				"x": -1.2847785632,
				"y": -0.3494536582,
				"z": -0.6635711444,
				"element": "H" 
			},
			{
				"x": 0.0949894699,
				"y": -0.854987941,
				"z": -1.6343432264,
				"element": "H" 
			},
			{
				"x": 1.2197782711,
				"y": -1.7369095639,
				"z": 0.4818568206,
				"element": "H" 
			},
			{
				"x": -0.2476985374,
				"y": -2.5880365635,
				"z": -0.008131997,
				"element": "H" 
			},
			{
				"x": 3.2203289893,
				"y": 2.2694279611,
				"z": 0.1616032681,
				"element": "H" 
			}
		],
		 "valence_orbital": [ 
			{
				"type": "occ",
				"energy": -0.3391,
				"method": "rhf"
			},
			{
				"type": "occ",
				"energy": -0.31956,
				"method": "rhf"
			},
			{
				"type": "occ",
				"energy": -0.30221,
				"method": "rhf"
			},
			{
				"type": "occ",
				"energy": -0.28117,
				"method": "rhf"
			},
			{
				"type": "occ",
				"energy": -0.26117,
				"method": "rhf"
			},
			{
				"type": "unocc",
				"energy": -0.04289,
				"method": "rhf"
			},
			{
				"type": "unocc",
				"energy": -0.00164,
				"method": "rhf"
			},
			{
				"type": "unocc",
				"energy": 0.07239,
				"method": "rhf"
			},
			{
				"type": "unocc",
				"energy": 0.08054,
				"method": "rhf"
			},
			{
				"type": "unocc",
				"energy": 0.1042,
				"method": "rhf"
			}
		],
		"cosmo_sigma_profile": { 
			"-0.025": 0.0,
			"-0.024": 0.0,
			"-0.023": 0.0,
			"-0.022": 0.0,
			"-0.021": 0.0,
			"-0.02": 0.0,
			"-0.019": 0.206793676711,
			"-0.018": 0.806631541097,
			"-0.017": 0.98987347544,
			"-0.016": 1.00247122766,
			"-0.015": 0.621033596403,
			"-0.014": 0.354197289248,
			"-0.013": 0.65119036507,
			"-0.012": 1.54495108623,
			"-0.011": 3.2467909699,
			"-0.01": 2.22541431286,
			"-0.009": 1.95877305176,
			"-0.008": 3.61356270675,
			"-0.007": 10.7966317167,
			"-0.006": 9.69438702296,
			"-0.005": 10.0127818661,
			"-0.004": 9.99754034985,
			"-0.003": 12.6548543595,
			"-0.002": 13.5137194185,
			"-0.001": 11.4701095487,
			"0.0": 12.6617243179,
			"0.001": 13.0750702002,
			"0.002": 19.482169077,
			"0.003": 33.3586490626,
			"0.004": 7.0666690732,
			"0.005": 4.47212686436,
			"0.006": 2.83938185265,
			"0.007": 1.82505598762,
			"0.008": 1.80734762107,
			"0.009": 2.27125159301,
			"0.01": 3.6221949955,
			"0.011": 5.63429267992,
			"0.012": 3.92332133167,
			"0.013": 2.33826498923,
			"0.014": 2.1215196882,
			"0.015": 1.50263520735,
			"0.016": 0.260366749139,
			"0.017": 0.0,
			"0.018": 0.0,
			"0.019": 0.0,
			"0.02": 0.0,
			"0.021": 0.0,
			"0.022": 0.0,
			"0.023": 0.0,
			"0.024": 0.0,
			"0.025": 0.0
		}
	}
}
