{
	 "smiles": "OC(=O)C=CC1=CC=C(F)C(F)=C1", 
	 "Tm": 469.15, 
	 "num_atms": 19, 
	 "gaussian": { 
		 "optdone": 1, 
		 "sigma_profile": "yes", 
		 "theory": "DFT", 
		 "functional": "B3LYP", 
		 "basiset": "6-31G**", 
		 "properties": { 
			 "R2extent": 3451.9075, 
			 "electric_dipole_moment_norm": 5.34060855428, 
			 "electric_quadrupole_moment_norm": 17.0900018493, 
			 "total_energy": -696.667206864, 
			 "HOMO_LUMO_gap": 0.17662, 
			 "cosmo_polarized_energy": -13.71, 
			 "cosmo_cavitation_energy": 25.21, 
			 "cosmo_dispersion_energy": -17.88, 
			 "cosmo_repulsion_energy": 1.37, 
			 "cosmo_total_nonelectrostatic_energy": 8.71, 
			 "SMD_solvation_energy": 6.55 
		},
		"coords": [
			{
				"x": -1.950012391,
				"y": 0.7369117265,
				"z": 3.0303425023,
				"element": "O" 
			},
			{
				"x": -2.6700934563,
				"y": -0.2172846462,
				"z": 2.384934598,
				"element": "C" 
			},
			{
				"x": -3.3952337047,
				"y": -0.954382122,
				"z": 3.0116671892,
				"element": "O" 
			},
			{
				"x": -2.5810584522,
				"y": -0.2960115669,
				"z": 0.8968726824,
				"element": "C" 
			},
			{
				"x": -1.5994403869,
				"y": 0.070586307,
				"z": 0.0500874972,
				"element": "C" 
			},
			{
				"x": -0.252140243,
				"y": 0.6161849425,
				"z": 0.3048062262,
				"element": "C" 
			},
			{
				"x": 0.2945720249,
				"y": 1.5142613386,
				"z": -0.6311233013,
				"element": "C" 
			},
			{
				"x": 1.5698608613,
				"y": 2.0483322742,
				"z": -0.4612873576,
				"element": "C" 
			},
			{
				"x": 2.3257193897,
				"y": 1.6697720123,
				"z": 0.640625735,
				"element": "C" 
			},
			{
				"x": 3.560025039,
				"y": 2.1574740992,
				"z": 0.8240125331,
				"element": "F" 
			},
			{
				"x": 1.8099541471,
				"y": 0.759866348,
				"z": 1.5649537442,
				"element": "C" 
			},
			{
				"x": 2.5718334824,
				"y": 0.3897927802,
				"z": 2.6040582593,
				"element": "F" 
			},
			{
				"x": 0.5376093664,
				"y": 0.2321469031,
				"z": 1.4071892837,
				"element": "C" 
			},
			{
				"x": -1.4583945345,
				"y": 1.2789422259,
				"z": 2.3955644763,
				"element": "H" 
			},
			{
				"x": -3.4720450749,
				"y": -0.7500914382,
				"z": 0.4739768389,
				"element": "H" 
			},
			{
				"x": -1.8243772684,
				"y": -0.050709036,
				"z": -1.0089867051,
				"element": "H" 
			},
			{
				"x": -0.2919412786,
				"y": 1.8030371303,
				"z": -1.4979125819,
				"element": "H" 
			},
			{
				"x": 1.9935298527,
				"y": 2.7486721274,
				"z": -1.1727897437,
				"element": "H" 
			},
			{
				"x": 0.1908326269,
				"y": -0.4934014059,
				"z": 2.1334081237,
				"element": "H" 
			}
		],
		 "valence_orbital": [ 
			{
				"type": "occ",
				"energy": -0.32427,
				"method": "rhf"
			},
			{
				"type": "occ",
				"energy": -0.30932,
				"method": "rhf"
			},
			{
				"type": "occ",
				"energy": -0.28152,
				"method": "rhf"
			},
			{
				"type": "occ",
				"energy": -0.27695,
				"method": "rhf"
			},
			{
				"type": "occ",
				"energy": -0.254,
				"method": "rhf"
			},
			{
				"type": "unocc",
				"energy": -0.07738,
				"method": "rhf"
			},
			{
				"type": "unocc",
				"energy": -0.03497,
				"method": "rhf"
			},
			{
				"type": "unocc",
				"energy": -0.00612,
				"method": "rhf"
			},
			{
				"type": "unocc",
				"energy": 0.05509,
				"method": "rhf"
			},
			{
				"type": "unocc",
				"energy": 0.06152,
				"method": "rhf"
			}
		],
		"cosmo_sigma_profile": { 
			"-0.025": 0.0,
			"-0.024": 0.0,
			"-0.023": 0.0,
			"-0.022": 0.0,
			"-0.021": 0.0,
			"-0.02": 0.0,
			"-0.019": 0.0,
			"-0.018": 0.0,
			"-0.017": 0.0,
			"-0.016": 0.241664963977,
			"-0.015": 0.914026641409,
			"-0.014": 0.287608447913,
			"-0.013": 0.617693375155,
			"-0.012": 1.14603544502,
			"-0.011": 1.08596636234,
			"-0.01": 0.728357866872,
			"-0.009": 1.48174257251,
			"-0.008": 9.02818474617,
			"-0.007": 10.5430882345,
			"-0.006": 10.7717220303,
			"-0.005": 9.04755816389,
			"-0.004": 8.05506919742,
			"-0.003": 9.82252564912,
			"-0.002": 16.2120162177,
			"-0.001": 16.4099196041,
			"0.0": 15.5980765036,
			"0.001": 15.113861575,
			"0.002": 15.0579221208,
			"0.003": 20.4262311221,
			"0.004": 10.6585969691,
			"0.005": 2.02089915138,
			"0.006": 1.96650713184,
			"0.007": 1.77985860348,
			"0.008": 3.11402827982,
			"0.009": 3.08874889056,
			"0.01": 4.99877922029,
			"0.011": 4.86071876066,
			"0.012": 5.66603273471,
			"0.013": 2.22912189719,
			"0.014": 0.0994683461682,
			"0.015": 0.0,
			"0.016": 0.0,
			"0.017": 0.0,
			"0.018": 0.0,
			"0.019": 0.0,
			"0.02": 0.0,
			"0.021": 0.0,
			"0.022": 0.0,
			"0.023": 0.0,
			"0.024": 0.0,
			"0.025": 0.0
		}
	}
}
