{
	 "smiles": "OCC1=CC=C(C=C1)N1CCCC1", 
	 "Tm": 335.15, 
	 "num_atms": 28, 
	 "gaussian": { 
		 "optdone": 1, 
		 "sigma_profile": "yes", 
		 "theory": "DFT", 
		 "functional": "B3LYP", 
		 "basiset": "6-31G**", 
		 "properties": { 
			 "R2extent": 4239.5603, 
			 "electric_dipole_moment_norm": 3.89767120342, 
			 "electric_quadrupole_moment_norm": 14.9454202561, 
			 "total_energy": -558.178723357, 
			 "HOMO_LUMO_gap": 0.18977, 
			 "cosmo_polarized_energy": -8.57, 
			 "cosmo_cavitation_energy": 29.45, 
			 "cosmo_dispersion_energy": -22.01, 
			 "cosmo_repulsion_energy": 1.75, 
			 "cosmo_total_nonelectrostatic_energy": 9.19, 
			 "SMD_solvation_energy": 3.65 
		},
		"coords": [
			{
				"x": -1.9712565112,
				"y": 4.6469306747,
				"z": 3.2980060787,
				"element": "O" 
			},
			{
				"x": -0.7028924001,
				"y": 4.0272670514,
				"z": 3.4967030495,
				"element": "C" 
			},
			{
				"x": -0.356472308,
				"y": 3.0100643926,
				"z": 2.4321181962,
				"element": "C" 
			},
			{
				"x": 0.2721860648,
				"y": 1.8011586567,
				"z": 2.7476996082,
				"element": "C" 
			},
			{
				"x": 0.6167896707,
				"y": 0.8756243712,
				"z": 1.7665137068,
				"element": "C" 
			},
			{
				"x": 0.3329043218,
				"y": 1.1285223595,
				"z": 0.4055346012,
				"element": "C" 
			},
			{
				"x": -0.3122776008,
				"y": 2.3467926851,
				"z": 0.0871722644,
				"element": "C" 
			},
			{
				"x": -0.6434816551,
				"y": 3.2582537218,
				"z": 1.082851761,
				"element": "C" 
			},
			{
				"x": 0.6667548239,
				"y": 0.2190243281,
				"z": -0.5757967831,
				"element": "N" 
			},
			{
				"x": 0.2987666052,
				"y": 0.3724505295,
				"z": -1.9805081441,
				"element": "C" 
			},
			{
				"x": 0.6370814994,
				"y": -0.9941461331,
				"z": -2.5951664434,
				"element": "C" 
			},
			{
				"x": 1.8085065182,
				"y": -1.488150526,
				"z": -1.7314192476,
				"element": "C" 
			},
			{
				"x": 1.4419075095,
				"y": -0.9924749877,
				"z": -0.3242322013,
				"element": "C" 
			},
			{
				"x": -2.6148114802,
				"y": 3.935879109,
				"z": 3.1762973424,
				"element": "H" 
			},
			{
				"x": 0.0145520544,
				"y": 4.8575142429,
				"z": 3.4939170612,
				"element": "H" 
			},
			{
				"x": -0.6364804821,
				"y": 3.5555943071,
				"z": 4.4908830578,
				"element": "H" 
			},
			{
				"x": 0.4963453497,
				"y": 1.5701701403,
				"z": 3.7873664146,
				"element": "H" 
			},
			{
				"x": 1.0888774551,
				"y": -0.0555198439,
				"z": 2.0592776053,
				"element": "H" 
			},
			{
				"x": -0.5439148337,
				"y": 2.5838574584,
				"z": -0.9453028908,
				"element": "H" 
			},
			{
				"x": -1.1428594604,
				"y": 4.1852504282,
				"z": 0.8144078912,
				"element": "H" 
			},
			{
				"x": -0.7648761748,
				"y": 0.6204626719,
				"z": -2.0868041574,
				"element": "H" 
			},
			{
				"x": 0.8718409548,
				"y": 1.1818019688,
				"z": -2.4619924342,
				"element": "H" 
			},
			{
				"x": 0.8819142416,
				"y": -0.9253308314,
				"z": -3.6585113766,
				"element": "H" 
			},
			{
				"x": -0.2187888276,
				"y": -1.6706198758,
				"z": -2.4913352455,
				"element": "H" 
			},
			{
				"x": 2.7423542782,
				"y": -1.0178368841,
				"z": -2.0594178566,
				"element": "H" 
			},
			{
				"x": 1.9482944154,
				"y": -2.5718358828,
				"z": -1.7700707061,
				"element": "H" 
			},
			{
				"x": 2.3310136249,
				"y": -0.7749852275,
				"z": 0.281133439,
				"element": "H" 
			},
			{
				"x": 0.8500223463,
				"y": -1.7436189049,
				"z": 0.2242754092,
				"element": "H" 
			}
		],
		 "valence_orbital": [ 
			{
				"type": "occ",
				"energy": -0.31221,
				"method": "rhf"
			},
			{
				"type": "occ",
				"energy": -0.27833,
				"method": "rhf"
			},
			{
				"type": "occ",
				"energy": -0.25673,
				"method": "rhf"
			},
			{
				"type": "occ",
				"energy": -0.23883,
				"method": "rhf"
			},
			{
				"type": "occ",
				"energy": -0.18035,
				"method": "rhf"
			},
			{
				"type": "unocc",
				"energy": 0.00942,
				"method": "rhf"
			},
			{
				"type": "unocc",
				"energy": 0.02,
				"method": "rhf"
			},
			{
				"type": "unocc",
				"energy": 0.07888,
				"method": "rhf"
			},
			{
				"type": "unocc",
				"energy": 0.10165,
				"method": "rhf"
			},
			{
				"type": "unocc",
				"energy": 0.10826,
				"method": "rhf"
			}
		],
		"cosmo_sigma_profile": { 
			"-0.025": 0.0,
			"-0.024": 0.0,
			"-0.023": 0.0,
			"-0.022": 0.0,
			"-0.021": 0.0,
			"-0.02": 0.0,
			"-0.019": 0.0,
			"-0.018": 0.0,
			"-0.017": 0.0,
			"-0.016": 0.0,
			"-0.015": 0.218492449496,
			"-0.014": 0.995775669006,
			"-0.013": 0.687228788498,
			"-0.012": 0.755938013783,
			"-0.011": 1.25149808573,
			"-0.01": 0.570877216496,
			"-0.009": 0.413048653648,
			"-0.008": 0.547622602576,
			"-0.007": 1.03006309444,
			"-0.006": 0.741599559844,
			"-0.005": 5.04735859565,
			"-0.004": 20.2037036741,
			"-0.003": 35.2453178125,
			"-0.002": 39.4949268667,
			"-0.001": 26.9154657296,
			"0.0": 19.7654357825,
			"0.001": 11.6290282849,
			"0.002": 9.17554493604,
			"0.003": 7.62154388578,
			"0.004": 7.87233948221,
			"0.005": 9.9191898111,
			"0.006": 8.24219311731,
			"0.007": 8.90574334751,
			"0.008": 3.34903480007,
			"0.009": 1.69635094773,
			"0.01": 1.12967206645,
			"0.011": 1.28704315427,
			"0.012": 1.09014757794,
			"0.013": 1.47310915686,
			"0.014": 2.27912775667,
			"0.015": 0.868540154537,
			"0.016": 0.0,
			"0.017": 0.0,
			"0.018": 0.0,
			"0.019": 0.0,
			"0.02": 0.0,
			"0.021": 0.0,
			"0.022": 0.0,
			"0.023": 0.0,
			"0.024": 0.0,
			"0.025": 0.0
		}
	}
}
