{
	 "smiles": "COC1=CC=C(F)C=C1C#N", 
	 "Tm": 390.15, 
	 "num_atms": 17, 
	 "gaussian": { 
		 "optdone": 1, 
		 "sigma_profile": "yes", 
		 "theory": "DFT", 
		 "functional": "B3LYP", 
		 "basiset": "6-31G**", 
		 "properties": { 
			 "R2extent": 2438.0556, 
			 "electric_dipole_moment_norm": 5.26564950315, 
			 "electric_quadrupole_moment_norm": 10.941717813, 
			 "total_energy": -538.243105692, 
			 "HOMO_LUMO_gap": 0.1817, 
			 "cosmo_polarized_energy": -11.18, 
			 "cosmo_cavitation_energy": 23.03, 
			 "cosmo_dispersion_energy": -16.23, 
			 "cosmo_repulsion_energy": 1.29, 
			 "cosmo_total_nonelectrostatic_energy": 8.08, 
			 "SMD_solvation_energy": 6.71 
		},
		"coords": [
			{
				"x": 1.0682730182,
				"y": 0.7400229847,
				"z": 1.2283252003,
				"element": "C" 
			},
			{
				"x": 0.2875953633,
				"y": 1.0330131991,
				"z": 0.0764126781,
				"element": "O" 
			},
			{
				"x": -0.5865732759,
				"y": 0.1005331361,
				"z": -0.3717643955,
				"element": "C" 
			},
			{
				"x": -0.7918066001,
				"y": -1.1538863335,
				"z": 0.2147375623,
				"element": "C" 
			},
			{
				"x": -1.7202351567,
				"y": -2.0435335383,
				"z": -0.3285188235,
				"element": "C" 
			},
			{
				"x": -2.4421536863,
				"y": -1.677728545,
				"z": -1.4574434344,
				"element": "C" 
			},
			{
				"x": -3.3376498403,
				"y": -2.5411432651,
				"z": -1.9779127259,
				"element": "F" 
			},
			{
				"x": -2.2636337994,
				"y": -0.4431552716,
				"z": -2.0634896714,
				"element": "C" 
			},
			{
				"x": -1.3324242103,
				"y": 0.4545093668,
				"z": -1.5221666779,
				"element": "C" 
			},
			{
				"x": -1.1370047006,
				"y": 1.7324121725,
				"z": -2.1365541751,
				"element": "C" 
			},
			{
				"x": -0.9996403987,
				"y": 2.7634352666,
				"z": -2.6571325418,
				"element": "N" 
			},
			{
				"x": 1.6870446653,
				"y": 1.6213360269,
				"z": 1.3977395731,
				"element": "H" 
			},
			{
				"x": 1.7140552893,
				"y": -0.1313622309,
				"z": 1.064183965,
				"element": "H" 
			},
			{
				"x": 0.4360484779,
				"y": 0.5653715899,
				"z": 2.1075752279,
				"element": "H" 
			},
			{
				"x": -0.2331881623,
				"y": -1.4467863032,
				"z": 1.0947873908,
				"element": "H" 
			},
			{
				"x": -1.8861982388,
				"y": -3.0175450733,
				"z": 0.1187814352,
				"element": "H" 
			},
			{
				"x": -2.8374087448,
				"y": -0.1780931815,
				"z": -2.9436605871,
				"element": "H" 
			}
		],
		 "valence_orbital": [ 
			{
				"type": "occ",
				"energy": -0.34911,
				"method": "rhf"
			},
			{
				"type": "occ",
				"energy": -0.33418,
				"method": "rhf"
			},
			{
				"type": "occ",
				"energy": -0.32789,
				"method": "rhf"
			},
			{
				"type": "occ",
				"energy": -0.27594,
				"method": "rhf"
			},
			{
				"type": "occ",
				"energy": -0.23798,
				"method": "rhf"
			},
			{
				"type": "unocc",
				"energy": -0.05628,
				"method": "rhf"
			},
			{
				"type": "unocc",
				"energy": -0.01012,
				"method": "rhf"
			},
			{
				"type": "unocc",
				"energy": 0.03644,
				"method": "rhf"
			},
			{
				"type": "unocc",
				"energy": 0.07051,
				"method": "rhf"
			},
			{
				"type": "unocc",
				"energy": 0.07958,
				"method": "rhf"
			}
		],
		"cosmo_sigma_profile": { 
			"-0.025": 0.0,
			"-0.024": 0.0,
			"-0.023": 0.0,
			"-0.022": 0.0,
			"-0.021": 0.0,
			"-0.02": 0.0,
			"-0.019": 0.0,
			"-0.018": 0.0,
			"-0.017": 0.0,
			"-0.016": 0.0,
			"-0.015": 0.0,
			"-0.014": 0.0,
			"-0.013": 0.0,
			"-0.012": 0.0,
			"-0.011": 0.0,
			"-0.01": 0.0779625248319,
			"-0.009": 2.16096955762,
			"-0.008": 5.68012038687,
			"-0.007": 9.08021979025,
			"-0.006": 14.0364487826,
			"-0.005": 11.9271282756,
			"-0.004": 12.6149761878,
			"-0.003": 9.31022317285,
			"-0.002": 7.75168114461,
			"-0.001": 15.5212256236,
			"0.0": 20.3390773797,
			"0.001": 15.475129783,
			"0.002": 9.02592778282,
			"0.003": 7.23201952322,
			"0.004": 12.8810267068,
			"0.005": 4.11826841319,
			"0.006": 4.23679739601,
			"0.007": 5.08324488735,
			"0.008": 5.71740559877,
			"0.009": 3.82154428822,
			"0.01": 3.14402606919,
			"0.011": 2.85723718246,
			"0.012": 2.38195698977,
			"0.013": 1.51739382005,
			"0.014": 0.0520254479625,
			"0.015": 0.0,
			"0.016": 0.0,
			"0.017": 0.0,
			"0.018": 0.0,
			"0.019": 0.0,
			"0.02": 0.0,
			"0.021": 0.0,
			"0.022": 0.0,
			"0.023": 0.0,
			"0.024": 0.0,
			"0.025": 0.0
		}
	}
}
