{
	 "smiles": "ClC1=C2C(SC=C2C2=CC=CC=C2)=NC(=N1)C1CC1", 
	 "Tm": 351.15, 
	 "num_atms": 30, 
	 "gaussian": { 
		 "optdone": 1, 
		 "sigma_profile": "yes", 
		 "theory": "DFT", 
		 "functional": "B3LYP", 
		 "basiset": "6-31G**", 
		 "properties": { 
			 "R2extent": 7135.9811, 
			 "electric_dipole_moment_norm": 1.74855360227, 
			 "electric_quadrupole_moment_norm": 15.9106397291, 
			 "total_energy": -1546.08524441, 
			 "HOMO_LUMO_gap": 0.1722, 
			 "cosmo_polarized_energy": -8.19, 
			 "cosmo_cavitation_energy": 37.46, 
			 "cosmo_dispersion_energy": -27.35, 
			 "cosmo_repulsion_energy": 2.07, 
			 "cosmo_total_nonelectrostatic_energy": 12.18, 
			 "SMD_solvation_energy": 2.68 
		},
		"coords": [
			{
				"x": -0.1438793277,
				"y": -0.3562313741,
				"z": -3.4684421938,
				"element": "Cl" 
			},
			{
				"x": -0.2537274829,
				"y": 0.4918639182,
				"z": -1.9341941793,
				"element": "C" 
			},
			{
				"x": -0.0701731166,
				"y": -0.1832828833,
				"z": -0.7104138312,
				"element": "C" 
			},
			{
				"x": -0.3143246888,
				"y": 0.6628525591,
				"z": 0.4066088413,
				"element": "C" 
			},
			{
				"x": -0.1959131108,
				"y": -0.2153384426,
				"z": 1.9185702743,
				"element": "S" 
			},
			{
				"x": 0.1939614856,
				"y": -1.676578558,
				"z": 1.0456566716,
				"element": "C" 
			},
			{
				"x": 0.2434234726,
				"y": -1.5455341772,
				"z": -0.3134034598,
				"element": "C" 
			},
			{
				"x": 0.615490703,
				"y": -2.6965181973,
				"z": -1.1777273652,
				"element": "C" 
			},
			{
				"x": -0.1318316694,
				"y": -3.8825377666,
				"z": -1.1240016795,
				"element": "C" 
			},
			{
				"x": 0.2464740584,
				"y": -4.9962862227,
				"z": -1.8750969019,
				"element": "C" 
			},
			{
				"x": 1.3789837793,
				"y": -4.9403989029,
				"z": -2.6879222783,
				"element": "C" 
			},
			{
				"x": 2.1326674532,
				"y": -3.7653325983,
				"z": -2.7445882112,
				"element": "C" 
			},
			{
				"x": 1.7557833358,
				"y": -2.6526186113,
				"z": -1.9953699111,
				"element": "C" 
			},
			{
				"x": -0.6202045661,
				"y": 1.9536794939,
				"z": 0.3560428823,
				"element": "N" 
			},
			{
				"x": -0.7045933725,
				"y": 2.4734240778,
				"z": -0.8734140538,
				"element": "C" 
			},
			{
				"x": -0.54508913,
				"y": 1.7715078833,
				"z": -2.0184686167,
				"element": "N" 
			},
			{
				"x": -1.0086308884,
				"y": 3.9143793808,
				"z": -1.0164350622,
				"element": "C" 
			},
			{
				"x": -1.9312569161,
				"y": 4.5931193257,
				"z": -0.0147468628,
				"element": "C" 
			},
			{
				"x": -0.4700522301,
				"y": 4.9027421119,
				"z": 0.0076641865,
				"element": "C" 
			},
			{
				"x": 0.4093269878,
				"y": -2.5799919416,
				"z": 1.60012466,
				"element": "H" 
			},
			{
				"x": -1.0198648131,
				"y": -3.9220683208,
				"z": -0.4999429604,
				"element": "H" 
			},
			{
				"x": -0.3469900588,
				"y": -5.9048184195,
				"z": -1.8271955053,
				"element": "H" 
			},
			{
				"x": 1.6737409776,
				"y": -5.8060060093,
				"z": -3.2740615511,
				"element": "H" 
			},
			{
				"x": 3.0189543767,
				"y": -3.7164001546,
				"z": -3.3706169837,
				"element": "H" 
			},
			{
				"x": 2.3505740928,
				"y": -1.7454178788,
				"z": -2.0365610474,
				"element": "H" 
			},
			{
				"x": -1.0619098625,
				"y": 4.2384819248,
				"z": -2.0494482987,
				"element": "H" 
			},
			{
				"x": -2.3233089821,
				"y": 3.964659166,
				"z": 0.7780500604,
				"element": "H" 
			},
			{
				"x": -2.6212685221,
				"y": 5.3343758709,
				"z": -0.4057050782,
				"element": "H" 
			},
			{
				"x": -0.1285359647,
				"y": 5.8626459866,
				"z": -0.367082011,
				"element": "H" 
			},
			{
				"x": 0.1194739798,
				"y": 4.48272876,
				"z": 0.8160204661,
				"element": "H" 
			}
		],
		 "valence_orbital": [ 
			{
				"type": "occ",
				"energy": -0.27149,
				"method": "rhf"
			},
			{
				"type": "occ",
				"energy": -0.26512,
				"method": "rhf"
			},
			{
				"type": "occ",
				"energy": -0.25497,
				"method": "rhf"
			},
			{
				"type": "occ",
				"energy": -0.25318,
				"method": "rhf"
			},
			{
				"type": "occ",
				"energy": -0.22751,
				"method": "rhf"
			},
			{
				"type": "unocc",
				"energy": -0.05531,
				"method": "rhf"
			},
			{
				"type": "unocc",
				"energy": -0.03563,
				"method": "rhf"
			},
			{
				"type": "unocc",
				"energy": -0.01884,
				"method": "rhf"
			},
			{
				"type": "unocc",
				"energy": -0.00569,
				"method": "rhf"
			},
			{
				"type": "unocc",
				"energy": 0.00924,
				"method": "rhf"
			}
		],
		"cosmo_sigma_profile": { 
			"-0.025": 0.0,
			"-0.024": 0.0,
			"-0.023": 0.0,
			"-0.022": 0.0,
			"-0.021": 0.0,
			"-0.02": 0.0,
			"-0.019": 0.0,
			"-0.018": 0.0,
			"-0.017": 0.0,
			"-0.016": 0.0,
			"-0.015": 0.0,
			"-0.014": 0.0,
			"-0.013": 0.0,
			"-0.012": 0.0,
			"-0.011": 0.0,
			"-0.01": 0.478367007315,
			"-0.009": 2.13607856723,
			"-0.008": 1.54203837568,
			"-0.007": 1.8792263863,
			"-0.006": 9.33013479611,
			"-0.005": 20.2829023793,
			"-0.004": 23.5043468495,
			"-0.003": 24.9503535773,
			"-0.002": 25.0319514718,
			"-0.001": 28.1580965511,
			"0.0": 30.4105892732,
			"0.001": 29.6681575503,
			"0.002": 29.9452081302,
			"0.003": 25.7794717299,
			"0.004": 20.2202569886,
			"0.005": 14.927448271,
			"0.006": 6.53456892062,
			"0.007": 2.87866168442,
			"0.008": 2.28529243827,
			"0.009": 1.87098166918,
			"0.01": 0.994153515319,
			"0.011": 1.12608843424,
			"0.012": 0.938319221932,
			"0.013": 0.481263356452,
			"0.014": 0.0183738706578,
			"0.015": 0.0,
			"0.016": 0.0,
			"0.017": 0.0,
			"0.018": 0.0,
			"0.019": 0.0,
			"0.02": 0.0,
			"0.021": 0.0,
			"0.022": 0.0,
			"0.023": 0.0,
			"0.024": 0.0,
			"0.025": 0.0
		}
	}
}
