{
	 "smiles": "COC(=O)C1=CC2=C(C=C1)N=CC=N2", 
	 "Tm": 372.65, 
	 "num_atms": 22, 
	 "gaussian": { 
		 "optdone": 1, 
		 "sigma_profile": "yes", 
		 "theory": "DFT", 
		 "functional": "B3LYP", 
		 "basiset": "6-31G**", 
		 "properties": { 
			 "R2extent": 3707.6217, 
			 "electric_dipole_moment_norm": 1.61160904068, 
			 "electric_quadrupole_moment_norm": 8.37193350129, 
			 "total_energy": -645.841989033, 
			 "HOMO_LUMO_gap": 0.16987, 
			 "cosmo_polarized_energy": -9.81, 
			 "cosmo_cavitation_energy": 27.12, 
			 "cosmo_dispersion_energy": -20.2, 
			 "cosmo_repulsion_energy": 1.56, 
			 "cosmo_total_nonelectrostatic_energy": 8.48, 
			 "SMD_solvation_energy": 3.23 
		},
		"coords": [
			{
				"x": 2.2798524117,
				"y": 2.928039231,
				"z": -1.7323005097,
				"element": "C" 
			},
			{
				"x": 1.8606781387,
				"y": 1.9359559309,
				"z": -0.7816456161,
				"element": "O" 
			},
			{
				"x": 0.5345325505,
				"y": 1.9032686221,
				"z": -0.5306561397,
				"element": "C" 
			},
			{
				"x": -0.2642520301,
				"y": 2.6510197678,
				"z": -1.060582207,
				"element": "O" 
			},
			{
				"x": 0.1644148687,
				"y": 0.852828299,
				"z": 0.4635912398,
				"element": "C" 
			},
			{
				"x": 1.1039840865,
				"y": 0.0217890618,
				"z": 1.0436956907,
				"element": "C" 
			},
			{
				"x": 0.696121819,
				"y": -0.9582028236,
				"z": 1.9817224818,
				"element": "C" 
			},
			{
				"x": -0.688292478,
				"y": -1.0780761101,
				"z": 2.3200482431,
				"element": "C" 
			},
			{
				"x": -1.6316973852,
				"y": -0.2111942897,
				"z": 1.7087837781,
				"element": "C" 
			},
			{
				"x": -1.212943458,
				"y": 0.7316259339,
				"z": 0.8018965286,
				"element": "C" 
			},
			{
				"x": -1.1153178445,
				"y": -2.0115505646,
				"z": 3.2199548301,
				"element": "N" 
			},
			{
				"x": -0.1853097588,
				"y": -2.7800082853,
				"z": 3.7460496243,
				"element": "C" 
			},
			{
				"x": 1.1920843164,
				"y": -2.6607943764,
				"z": 3.4094989321,
				"element": "C" 
			},
			{
				"x": 1.6360161545,
				"y": -1.7723506933,
				"z": 2.546735669,
				"element": "N" 
			},
			{
				"x": 2.0214596696,
				"y": 3.9300583807,
				"z": -1.3809624221,
				"element": "H" 
			},
			{
				"x": 3.3607962212,
				"y": 2.8170118877,
				"z": -1.814757945,
				"element": "H" 
			},
			{
				"x": 1.8006209498,
				"y": 2.7595457854,
				"z": -2.699872689,
				"element": "H" 
			},
			{
				"x": 2.156809105,
				"y": 0.0976197554,
				"z": 0.799995179,
				"element": "H" 
			},
			{
				"x": -2.6759205867,
				"y": -0.3219303993,
				"z": 1.9819931866,
				"element": "H" 
			},
			{
				"x": -1.9141501193,
				"y": 1.4051412963,
				"z": 0.3216542635,
				"element": "H" 
			},
			{
				"x": -0.504831357,
				"y": -3.5316683159,
				"z": 4.4665776666,
				"element": "H" 
			},
			{
				"x": 1.923944726,
				"y": -3.3209280939,
				"z": 3.8726802152,
				"element": "H" 
			}
		],
		 "valence_orbital": [ 
			{
				"type": "occ",
				"energy": -0.30744,
				"method": "rhf"
			},
			{
				"type": "occ",
				"energy": -0.28091,
				"method": "rhf"
			},
			{
				"type": "occ",
				"energy": -0.26772,
				"method": "rhf"
			},
			{
				"type": "occ",
				"energy": -0.2546,
				"method": "rhf"
			},
			{
				"type": "occ",
				"energy": -0.25373,
				"method": "rhf"
			},
			{
				"type": "unocc",
				"energy": -0.08386,
				"method": "rhf"
			},
			{
				"type": "unocc",
				"energy": -0.04837,
				"method": "rhf"
			},
			{
				"type": "unocc",
				"energy": -0.00568,
				"method": "rhf"
			},
			{
				"type": "unocc",
				"energy": 0.0281,
				"method": "rhf"
			},
			{
				"type": "unocc",
				"energy": 0.09912,
				"method": "rhf"
			}
		],
		"cosmo_sigma_profile": { 
			"-0.025": 0.0,
			"-0.024": 0.0,
			"-0.023": 0.0,
			"-0.022": 0.0,
			"-0.021": 0.0,
			"-0.02": 0.0,
			"-0.019": 0.0,
			"-0.018": 0.0,
			"-0.017": 0.0,
			"-0.016": 0.0,
			"-0.015": 0.0,
			"-0.014": 0.0,
			"-0.013": 0.0,
			"-0.012": 0.0,
			"-0.011": 0.0,
			"-0.01": 0.0,
			"-0.009": 0.0451327415777,
			"-0.008": 4.88495970808,
			"-0.007": 8.61161435121,
			"-0.006": 11.4988791348,
			"-0.005": 14.294068618,
			"-0.004": 17.193090231,
			"-0.003": 19.8475986031,
			"-0.002": 17.8383897225,
			"-0.001": 18.3764527814,
			"0.0": 20.9387141875,
			"0.001": 20.5125144902,
			"0.002": 13.020277465,
			"0.003": 7.95061552133,
			"0.004": 5.98113595003,
			"0.005": 6.26236206291,
			"0.006": 5.45678070103,
			"0.007": 2.50272808104,
			"0.008": 3.1930087085,
			"0.009": 3.82485359212,
			"0.01": 3.79198300582,
			"0.011": 5.11956426106,
			"0.012": 4.38338459973,
			"0.013": 1.53081121698,
			"0.014": 1.19660738221,
			"0.015": 0.233403969896,
			"0.016": 0.0,
			"0.017": 0.0,
			"0.018": 0.0,
			"0.019": 0.0,
			"0.02": 0.0,
			"0.021": 0.0,
			"0.022": 0.0,
			"0.023": 0.0,
			"0.024": 0.0,
			"0.025": 0.0
		}
	}
}
