{
	 "smiles": "NS(=O)(=O)C1=CC2=C(NC(NS2(=O)=O)C2CC3CC2C=C3)C=C1Cl", 
	 "Tm": 507.15, 
	 "num_atms": 40, 
	 "gaussian": { 
		 "optdone": 1, 
		 "sigma_profile": "yes", 
		 "theory": "DFT", 
		 "functional": "B3LYP", 
		 "basiset": "6-31G**", 
		 "properties": { 
			 "R2extent": 13395.2896, 
			 "electric_dipole_moment_norm": 10.7715146521, 
			 "electric_quadrupole_moment_norm": 35.5977448779, 
			 "total_energy": -2264.65890396, 
			 "HOMO_LUMO_gap": 0.18379, 
			 "cosmo_polarized_energy": -34.6, 
			 "cosmo_cavitation_energy": 45.2, 
			 "cosmo_dispersion_energy": -33.51, 
			 "cosmo_repulsion_energy": 2.42, 
			 "cosmo_total_nonelectrostatic_energy": 14.11, 
			 "SMD_solvation_energy": 3.91 
		},
		"coords": [
			{
				"x": -0.9046147071,
				"y": 3.425887939,
				"z": 6.0003571241,
				"element": "N" 
			},
			{
				"x": -0.6576271167,
				"y": 3.9498893593,
				"z": 4.430446971,
				"element": "S" 
			},
			{
				"x": -1.9714857942,
				"y": 4.3526802685,
				"z": 3.9336347988,
				"element": "O" 
			},
			{
				"x": 0.4790548151,
				"y": 4.8624736308,
				"z": 4.471876952,
				"element": "O" 
			},
			{
				"x": -0.1883469693,
				"y": 2.5055518304,
				"z": 3.4536520917,
				"element": "C" 
			},
			{
				"x": -1.0102173822,
				"y": 2.169802286,
				"z": 2.3772324594,
				"element": "C" 
			},
			{
				"x": -0.6904530537,
				"y": 1.1102403768,
				"z": 1.5392503203,
				"element": "C" 
			},
			{
				"x": 0.4607523415,
				"y": 0.3159351165,
				"z": 1.7517631093,
				"element": "C" 
			},
			{
				"x": 0.7888487712,
				"y": -0.7487899257,
				"z": 0.9607432125,
				"element": "N" 
			},
			{
				"x": -0.0173710415,
				"y": -1.328193188,
				"z": -0.1177953971,
				"element": "C" 
			},
			{
				"x": -1.4094078657,
				"y": -0.9044040728,
				"z": 0.096334514,
				"element": "N" 
			},
			{
				"x": -1.7291630391,
				"y": 0.7627654958,
				"z": 0.1412298867,
				"element": "S" 
			},
			{
				"x": -1.2039107299,
				"y": 1.4594050009,
				"z": -1.0414080154,
				"element": "O" 
			},
			{
				"x": -3.143188311,
				"y": 0.9056247563,
				"z": 0.4831152203,
				"element": "O" 
			},
			{
				"x": 0.5841102886,
				"y": -1.0501097482,
				"z": -1.5077603604,
				"element": "C" 
			},
			{
				"x": -0.1977356854,
				"y": -1.7332487858,
				"z": -2.6757763694,
				"element": "C" 
			},
			{
				"x": 0.9195242049,
				"y": -2.5303158159,
				"z": -3.43345089,
				"element": "C" 
			},
			{
				"x": 2.1211367104,
				"y": -1.5724735244,
				"z": -3.252580924,
				"element": "C" 
			},
			{
				"x": 2.0447920865,
				"y": -1.6117906955,
				"z": -1.706789188,
				"element": "C" 
			},
			{
				"x": 2.0088116364,
				"y": -3.1191130355,
				"z": -1.4796802639,
				"element": "C" 
			},
			{
				"x": 1.3377978034,
				"y": -3.6627946155,
				"z": -2.505876423,
				"element": "C" 
			},
			{
				"x": 1.2796808517,
				"y": 0.6552966501,
				"z": 2.8511199164,
				"element": "C" 
			},
			{
				"x": 0.965497766,
				"y": 1.7300719024,
				"z": 3.6675010004,
				"element": "C" 
			},
			{
				"x": 2.0485307646,
				"y": 2.0481156928,
				"z": 5.0112589646,
				"element": "Cl" 
			},
			{
				"x": -0.0577327744,
				"y": 3.087936319,
				"z": 6.4463635645,
				"element": "H" 
			},
			{
				"x": -1.694892201,
				"y": 2.7948549597,
				"z": 6.0856377384,
				"element": "H" 
			},
			{
				"x": -1.9110854268,
				"y": 2.7493662466,
				"z": 2.2042458514,
				"element": "H" 
			},
			{
				"x": 1.638711368,
				"y": -1.2406033514,
				"z": 1.1875244575,
				"element": "H" 
			},
			{
				"x": -0.0336804771,
				"y": -2.4157801438,
				"z": 0.0309285841,
				"element": "H" 
			},
			{
				"x": -2.0746964357,
				"y": -1.3633665301,
				"z": -0.5204871663,
				"element": "H" 
			},
			{
				"x": 0.605349212,
				"y": 0.0314277883,
				"z": -1.6553566224,
				"element": "H" 
			},
			{
				"x": -0.9916707264,
				"y": -2.4057275058,
				"z": -2.3294071184,
				"element": "H" 
			},
			{
				"x": -0.663944205,
				"y": -0.9832942057,
				"z": -3.3208585665,
				"element": "H" 
			},
			{
				"x": 0.6528760973,
				"y": -2.8160463138,
				"z": -4.4526745709,
				"element": "H" 
			},
			{
				"x": 3.0572140741,
				"y": -1.984843629,
				"z": -3.6384385249,
				"element": "H" 
			},
			{
				"x": 1.9540678602,
				"y": -0.5744437143,
				"z": -3.6722528098,
				"element": "H" 
			},
			{
				"x": 2.8100996908,
				"y": -1.0538915583,
				"z": -1.1625900297,
				"element": "H" 
			},
			{
				"x": 2.3858745449,
				"y": -3.6342076705,
				"z": -0.6015271179,
				"element": "H" 
			},
			{
				"x": 1.0490463963,
				"y": -4.7017591967,
				"z": -2.6259345613,
				"element": "H" 
			},
			{
				"x": 2.1661466583,
				"y": 0.0672716076,
				"z": 3.0643281819,
				"element": "H" 
			}
		],
		 "valence_orbital": [ 
			{
				"type": "occ",
				"energy": -0.3008,
				"method": "rhf"
			},
			{
				"type": "occ",
				"energy": -0.28096,
				"method": "rhf"
			},
			{
				"type": "occ",
				"energy": -0.27702,
				"method": "rhf"
			},
			{
				"type": "occ",
				"energy": -0.25951,
				"method": "rhf"
			},
			{
				"type": "occ",
				"energy": -0.23718,
				"method": "rhf"
			},
			{
				"type": "unocc",
				"energy": -0.05339,
				"method": "rhf"
			},
			{
				"type": "unocc",
				"energy": -0.03985,
				"method": "rhf"
			},
			{
				"type": "unocc",
				"energy": -0.00876,
				"method": "rhf"
			},
			{
				"type": "unocc",
				"energy": -0.0038,
				"method": "rhf"
			},
			{
				"type": "unocc",
				"energy": 0.03494,
				"method": "rhf"
			}
		],
		"cosmo_sigma_profile": { 
			"-0.025": 0.0,
			"-0.024": 0.0,
			"-0.023": 0.0,
			"-0.022": 0.0,
			"-0.021": 0.0,
			"-0.02": 0.0,
			"-0.019": 0.0,
			"-0.018": 0.0,
			"-0.017": 0.0,
			"-0.016": 0.856159845913,
			"-0.015": 4.14626237239,
			"-0.014": 3.67268129962,
			"-0.013": 5.25354099384,
			"-0.012": 5.98012702493,
			"-0.011": 5.58716312958,
			"-0.01": 5.58743329033,
			"-0.009": 4.49477806383,
			"-0.008": 7.13791551469,
			"-0.007": 8.47145105852,
			"-0.006": 8.90001374093,
			"-0.005": 10.8387324714,
			"-0.004": 14.8149184751,
			"-0.003": 26.1106713678,
			"-0.002": 27.4773927415,
			"-0.001": 35.683024458,
			"0.0": 37.8402580132,
			"0.001": 24.532814853,
			"0.002": 15.2882854065,
			"0.003": 13.2538047292,
			"0.004": 9.06927948822,
			"0.005": 8.46834589527,
			"0.006": 8.02954113409,
			"0.007": 9.41558326496,
			"0.008": 8.21127794732,
			"0.009": 10.7710534583,
			"0.01": 18.7589713757,
			"0.011": 18.4679458454,
			"0.012": 2.91130136383,
			"0.013": 0.0186372326053,
			"0.014": 0.0,
			"0.015": 0.0,
			"0.016": 0.0,
			"0.017": 0.0,
			"0.018": 0.0,
			"0.019": 0.0,
			"0.02": 0.0,
			"0.021": 0.0,
			"0.022": 0.0,
			"0.023": 0.0,
			"0.024": 0.0,
			"0.025": 0.0
		}
	}
}
