{
	 "smiles": "COC(=O)C1=CC=C(OC)C(OC)=C1", 
	 "Tm": 333.05, 
	 "num_atms": 26, 
	 "gaussian": { 
		 "optdone": 1, 
		 "sigma_profile": "yes", 
		 "theory": "DFT", 
		 "functional": "B3LYP", 
		 "basiset": "6-31G**", 
		 "properties": { 
			 "R2extent": 3745.6629, 
			 "electric_dipole_moment_norm": 4.10971744771, 
			 "electric_quadrupole_moment_norm": 12.0610794252, 
			 "total_energy": -689.172224585, 
			 "HOMO_LUMO_gap": 0.18915, 
			 "cosmo_polarized_energy": -11.57, 
			 "cosmo_cavitation_energy": 30.25, 
			 "cosmo_dispersion_energy": -21.92, 
			 "cosmo_repulsion_energy": 1.74, 
			 "cosmo_total_nonelectrostatic_energy": 10.07, 
			 "SMD_solvation_energy": 8.42 
		},
		"coords": [
			{
				"x": -2.8107178328,
				"y": -0.5817781122,
				"z": 3.1761105101,
				"element": "C" 
			},
			{
				"x": -2.0457862554,
				"y": -0.6863339964,
				"z": 1.9675637619,
				"element": "O" 
			},
			{
				"x": -0.9341833205,
				"y": 0.0898967733,
				"z": 1.9222348873,
				"element": "C" 
			},
			{
				"x": -0.6049089099,
				"y": 0.8218248262,
				"z": 2.8366811245,
				"element": "O" 
			},
			{
				"x": -0.1865442473,
				"y": -0.0623058842,
				"z": 0.6487108884,
				"element": "C" 
			},
			{
				"x": -0.5974279106,
				"y": -0.9238251355,
				"z": -0.3723307898,
				"element": "C" 
			},
			{
				"x": 0.1431919563,
				"y": -1.0247944098,
				"z": -1.5499662682,
				"element": "C" 
			},
			{
				"x": 1.3053911114,
				"y": -0.2635095111,
				"z": -1.7225863674,
				"element": "C" 
			},
			{
				"x": 2.0801788588,
				"y": -0.2787567422,
				"z": -2.8404487085,
				"element": "O" 
			},
			{
				"x": 1.6787196614,
				"y": -1.0970300664,
				"z": -3.9306036244,
				"element": "C" 
			},
			{
				"x": 1.731190795,
				"y": 0.603056791,
				"z": -0.6850779573,
				"element": "C" 
			},
			{
				"x": 2.8317006048,
				"y": 1.408561211,
				"z": -0.8401528243,
				"element": "O" 
			},
			{
				"x": 4.096143855,
				"y": 0.7415348627,
				"z": -0.8394661296,
				"element": "C" 
			},
			{
				"x": 0.9851559943,
				"y": 0.6931499743,
				"z": 0.4798680278,
				"element": "C" 
			},
			{
				"x": -3.1593149173,
				"y": 0.443384793,
				"z": 3.3258848899,
				"element": "H" 
			},
			{
				"x": -2.2102115622,
				"y": -0.8757592665,
				"z": 4.0409604014,
				"element": "H" 
			},
			{
				"x": -3.6560926389,
				"y": -1.2585236796,
				"z": 3.0497167233,
				"element": "H" 
			},
			{
				"x": -1.4981985822,
				"y": -1.5132939048,
				"z": -0.2488681883,
				"element": "H" 
			},
			{
				"x": -0.1945511568,
				"y": -1.6926174023,
				"z": -2.3334012907,
				"element": "H" 
			},
			{
				"x": 0.6897310883,
				"y": -0.8075118932,
				"z": -4.3063029185,
				"element": "H" 
			},
			{
				"x": 1.6632456187,
				"y": -2.1590287863,
				"z": -3.6551277497,
				"element": "H" 
			},
			{
				"x": 2.4220248933,
				"y": -0.9383921605,
				"z": -4.712910268,
				"element": "H" 
			},
			{
				"x": 4.251013324,
				"y": 0.1970733067,
				"z": 0.1011392496,
				"element": "H" 
			},
			{
				"x": 4.1869377337,
				"y": 0.0491506364,
				"z": -1.6820005788,
				"element": "H" 
			},
			{
				"x": 4.8519261697,
				"y": 1.5243995744,
				"z": -0.9292368917,
				"element": "H" 
			},
			{
				"x": 1.3091856689,
				"y": 1.3662282019,
				"z": 1.2656100911,
				"element": "H" 
			}
		],
		 "valence_orbital": [ 
			{
				"type": "occ",
				"energy": -0.29442,
				"method": "rhf"
			},
			{
				"type": "occ",
				"energy": -0.27487,
				"method": "rhf"
			},
			{
				"type": "occ",
				"energy": -0.26557,
				"method": "rhf"
			},
			{
				"type": "occ",
				"energy": -0.24696,
				"method": "rhf"
			},
			{
				"type": "occ",
				"energy": -0.22247,
				"method": "rhf"
			},
			{
				"type": "unocc",
				"energy": -0.03332,
				"method": "rhf"
			},
			{
				"type": "unocc",
				"energy": -0.00148,
				"method": "rhf"
			},
			{
				"type": "unocc",
				"energy": 0.06888,
				"method": "rhf"
			},
			{
				"type": "unocc",
				"energy": 0.08456,
				"method": "rhf"
			},
			{
				"type": "unocc",
				"energy": 0.09329,
				"method": "rhf"
			}
		],
		"cosmo_sigma_profile": { 
			"-0.025": 0.0,
			"-0.024": 0.0,
			"-0.023": 0.0,
			"-0.022": 0.0,
			"-0.021": 0.0,
			"-0.02": 0.0,
			"-0.019": 0.0,
			"-0.018": 0.0,
			"-0.017": 0.0,
			"-0.016": 0.0,
			"-0.015": 0.0,
			"-0.014": 0.0,
			"-0.013": 0.0,
			"-0.012": 0.0,
			"-0.011": 0.0,
			"-0.01": 0.0,
			"-0.009": 0.0,
			"-0.008": 0.0788990931084,
			"-0.007": 3.56957883688,
			"-0.006": 15.2180501139,
			"-0.005": 21.1418046783,
			"-0.004": 25.3897451873,
			"-0.003": 27.2852836566,
			"-0.002": 20.840111322,
			"-0.001": 14.7055635696,
			"0.0": 13.9909915575,
			"0.001": 14.8348323933,
			"0.002": 17.5074684028,
			"0.003": 18.1657899911,
			"0.004": 10.181057775,
			"0.005": 5.57090477073,
			"0.006": 5.60545247279,
			"0.007": 4.06457153841,
			"0.008": 3.50924314155,
			"0.009": 3.01413835383,
			"0.01": 4.22988454052,
			"0.011": 4.74802095718,
			"0.012": 5.42197839261,
			"0.013": 1.11418265406,
			"0.014": 0.0,
			"0.015": 0.0,
			"0.016": 0.0,
			"0.017": 0.0,
			"0.018": 0.0,
			"0.019": 0.0,
			"0.02": 0.0,
			"0.021": 0.0,
			"0.022": 0.0,
			"0.023": 0.0,
			"0.024": 0.0,
			"0.025": 0.0
		}
	}
}
