{
	 "smiles": "COP(=S)(OC1=C(Cl)C=C(Br)C(Cl)=C1)C1=CC=CC=C1", 
	 "Tm": 343.55, 
	 "num_atms": 30, 
	 "gaussian": { 
		 "optdone": 1, 
		 "sigma_profile": "yes", 
		 "theory": "DFT", 
		 "functional": "B3LYP", 
		 "basiset": "6-31G**", 
		 "properties": { 
			 "R2extent": 12285.2798, 
			 "electric_dipole_moment_norm": 3.57749344653, 
			 "electric_quadrupole_moment_norm": 10.2484734097, 
			 "total_energy": -4883.22508183, 
			 "HOMO_LUMO_gap": 0.19293, 
			 "cosmo_polarized_energy": -9.61, 
			 "cosmo_cavitation_energy": 43.75, 
			 "cosmo_dispersion_energy": -30.13, 
			 "cosmo_repulsion_energy": 2.29, 
			 "cosmo_total_nonelectrostatic_energy": 15.91, 
			 "SMD_solvation_energy": 6.34 
		},
		"coords": [
			{
				"x": 4.7010387608,
				"y": 0.0165247747,
				"z": 0.4385094041,
				"element": "C" 
			},
			{
				"x": 3.4089499921,
				"y": -0.5962750287,
				"z": 0.6280104865,
				"element": "O" 
			},
			{
				"x": 2.097623539,
				"y": 0.001401213,
				"z": -0.0980651628,
				"element": "P" 
			},
			{
				"x": 2.2216402941,
				"y": 0.3395404438,
				"z": -2.008429558,
				"element": "S" 
			},
			{
				"x": 1.9244501301,
				"y": 1.353200584,
				"z": 0.86220317,
				"element": "O" 
			},
			{
				"x": 0.8331195372,
				"y": 2.1812112635,
				"z": 0.9457746145,
				"element": "C" 
			},
			{
				"x": 0.483271617,
				"y": 2.6692028586,
				"z": 2.2150530196,
				"element": "C" 
			},
			{
				"x": 1.3897447904,
				"y": 2.182660748,
				"z": 3.626816594,
				"element": "Cl" 
			},
			{
				"x": -0.5856890211,
				"y": 3.5472095693,
				"z": 2.3606407805,
				"element": "C" 
			},
			{
				"x": -1.3256009843,
				"y": 3.9500287278,
				"z": 1.2486004182,
				"element": "C" 
			},
			{
				"x": -2.7788379118,
				"y": 5.1422277371,
				"z": 1.5154730529,
				"element": "Br" 
			},
			{
				"x": -0.9767766006,
				"y": 3.4704681884,
				"z": -0.0189890472,
				"element": "C" 
			},
			{
				"x": -1.8529004312,
				"y": 3.9435378685,
				"z": -1.4507391794,
				"element": "Cl" 
			},
			{
				"x": 0.1021309578,
				"y": 2.5975298007,
				"z": -0.1671971228,
				"element": "C" 
			},
			{
				"x": 0.8098459216,
				"y": -1.1276700486,
				"z": 0.4766721953,
				"element": "C" 
			},
			{
				"x": 0.6365938173,
				"y": -1.3424339367,
				"z": 1.85420068,
				"element": "C" 
			},
			{
				"x": -0.351177216,
				"y": -2.2195924687,
				"z": 2.2966034882,
				"element": "C" 
			},
			{
				"x": -1.1666000761,
				"y": -2.8806025127,
				"z": 1.3737274466,
				"element": "C" 
			},
			{
				"x": -0.9957784709,
				"y": -2.6658078415,
				"z": 0.0051948517,
				"element": "C" 
			},
			{
				"x": -0.0089969345,
				"y": -1.7895880121,
				"z": -0.4469332981,
				"element": "C" 
			},
			{
				"x": 4.925778713,
				"y": 0.1136874796,
				"z": -0.6269032285,
				"element": "H" 
			},
			{
				"x": 4.7261232747,
				"y": 0.9980007261,
				"z": 0.9193547495,
				"element": "H" 
			},
			{
				"x": 5.4210818071,
				"y": -0.6502524225,
				"z": 0.9134591376,
				"element": "H" 
			},
			{
				"x": -0.8466610914,
				"y": 3.9160320187,
				"z": 3.3445340416,
				"element": "H" 
			},
			{
				"x": 0.3818490757,
				"y": 2.2466428045,
				"z": -1.1528970123,
				"element": "H" 
			},
			{
				"x": 1.2678158272,
				"y": -0.8272268532,
				"z": 2.5706764901,
				"element": "H" 
			},
			{
				"x": -0.4859664447,
				"y": -2.3861487425,
				"z": 3.3610689412,
				"element": "H" 
			},
			{
				"x": -1.936545787,
				"y": -3.5623437392,
				"z": 1.7233624288,
				"element": "H" 
			},
			{
				"x": -1.630072583,
				"y": -3.1785208177,
				"z": -0.7114436399,
				"element": "H" 
			},
			{
				"x": 0.1325454973,
				"y": -1.615344382,
				"z": -1.5087387418,
				"element": "H" 
			}
		],
		 "valence_orbital": [ 
			{
				"type": "occ",
				"energy": -0.27125,
				"method": "rhf"
			},
			{
				"type": "occ",
				"energy": -0.26544,
				"method": "rhf"
			},
			{
				"type": "occ",
				"energy": -0.25152,
				"method": "rhf"
			},
			{
				"type": "occ",
				"energy": -0.24831,
				"method": "rhf"
			},
			{
				"type": "occ",
				"energy": -0.24438,
				"method": "rhf"
			},
			{
				"type": "unocc",
				"energy": -0.05145,
				"method": "rhf"
			},
			{
				"type": "unocc",
				"energy": -0.03582,
				"method": "rhf"
			},
			{
				"type": "unocc",
				"energy": -0.03095,
				"method": "rhf"
			},
			{
				"type": "unocc",
				"energy": -0.02429,
				"method": "rhf"
			},
			{
				"type": "unocc",
				"energy": -0.02058,
				"method": "rhf"
			}
		],
		"cosmo_sigma_profile": { 
			"-0.025": 0.0,
			"-0.024": 0.0,
			"-0.023": 0.0,
			"-0.022": 0.0,
			"-0.021": 0.0,
			"-0.02": 0.0,
			"-0.019": 0.0,
			"-0.018": 0.0,
			"-0.017": 0.0,
			"-0.016": 0.0,
			"-0.015": 0.0,
			"-0.014": 0.0,
			"-0.013": 0.0,
			"-0.012": 0.0,
			"-0.011": 0.0,
			"-0.01": 0.0564671109338,
			"-0.009": 1.08456113176,
			"-0.008": 1.33388752371,
			"-0.007": 7.8187481732,
			"-0.006": 15.6459209565,
			"-0.005": 22.6615620652,
			"-0.004": 21.9810681377,
			"-0.003": 21.7888641005,
			"-0.002": 23.0031514268,
			"-0.001": 39.5528162896,
			"0.0": 45.0926589861,
			"0.001": 28.2215640206,
			"0.002": 31.2539815994,
			"0.003": 42.5506913106,
			"0.004": 27.9853479789,
			"0.005": 11.1537584818,
			"0.006": 7.18434721702,
			"0.007": 6.23545941034,
			"0.008": 4.75938866643,
			"0.009": 1.6148846507,
			"0.01": 0.0,
			"0.011": 0.0,
			"0.012": 0.0,
			"0.013": 0.0,
			"0.014": 0.0,
			"0.015": 0.0,
			"0.016": 0.0,
			"0.017": 0.0,
			"0.018": 0.0,
			"0.019": 0.0,
			"0.02": 0.0,
			"0.021": 0.0,
			"0.022": 0.0,
			"0.023": 0.0,
			"0.024": 0.0,
			"0.025": 0.0
		}
	}
}
