{
	 "smiles": "NC1=C(N=C2C=CC=CN12)C1=CC=CO1", 
	 "Tm": 439.15, 
	 "num_atms": 24, 
	 "gaussian": { 
		 "optdone": 1, 
		 "sigma_profile": "yes", 
		 "theory": "DFT", 
		 "functional": "B3LYP", 
		 "basiset": "6-31G**", 
		 "properties": { 
			 "R2extent": 3964.3172, 
			 "electric_dipole_moment_norm": 2.62146929793, 
			 "electric_quadrupole_moment_norm": 14.2159862173, 
			 "total_energy": -664.046057805, 
			 "HOMO_LUMO_gap": 0.14796, 
			 "cosmo_polarized_energy": -12.96, 
			 "cosmo_cavitation_energy": 28.5, 
			 "cosmo_dispersion_energy": -21.31, 
			 "cosmo_repulsion_energy": 1.63, 
			 "cosmo_total_nonelectrostatic_energy": 8.82, 
			 "SMD_solvation_energy": 4.17 
		},
		"coords": [
			{
				"x": 0.1048813159,
				"y": -2.8461181404,
				"z": -1.704760736,
				"element": "N" 
			},
			{
				"x": -0.1976948296,
				"y": -1.6674331258,
				"z": -1.0093162305,
				"element": "C" 
			},
			{
				"x": -0.2188223572,
				"y": -1.3127357323,
				"z": 0.3393116202,
				"element": "C" 
			},
			{
				"x": -0.6552227824,
				"y": -0.0228949508,
				"z": 0.5163890167,
				"element": "N" 
			},
			{
				"x": -0.8982954725,
				"y": 0.4385126226,
				"z": -0.7019640984,
				"element": "C" 
			},
			{
				"x": -1.3465644039,
				"y": 1.7044706048,
				"z": -1.1468030519,
				"element": "C" 
			},
			{
				"x": -1.5391247032,
				"y": 1.9253033724,
				"z": -2.489859579,
				"element": "C" 
			},
			{
				"x": -1.2985573478,
				"y": 0.8862646491,
				"z": -3.436654691,
				"element": "C" 
			},
			{
				"x": -0.8569309773,
				"y": -0.3385692808,
				"z": -3.0221965794,
				"element": "C" 
			},
			{
				"x": -0.6472889024,
				"y": -0.5495956455,
				"z": -1.6799079736,
				"element": "N" 
			},
			{
				"x": 0.1416356031,
				"y": -2.1371951691,
				"z": 1.4698785784,
				"element": "C" 
			},
			{
				"x": 0.2020923546,
				"y": -1.8923735005,
				"z": 2.8150913491,
				"element": "C" 
			},
			{
				"x": 0.6294608962,
				"y": -3.1105319502,
				"z": 3.4321885073,
				"element": "C" 
			},
			{
				"x": 0.7993427274,
				"y": -4.0138438835,
				"z": 2.4285230981,
				"element": "C" 
			},
			{
				"x": 0.5067869752,
				"y": -3.4407046849,
				"z": 1.2208324396,
				"element": "O" 
			},
			{
				"x": 0.1659789507,
				"y": -3.6232027072,
				"z": -1.0559117428,
				"element": "H" 
			},
			{
				"x": 0.9876325191,
				"y": -2.7842176614,
				"z": -2.209716308,
				"element": "H" 
			},
			{
				"x": -1.5294963047,
				"y": 2.4686318913,
				"z": -0.400150752,
				"element": "H" 
			},
			{
				"x": -1.8815298408,
				"y": 2.8942117616,
				"z": -2.8381323613,
				"element": "H" 
			},
			{
				"x": -1.4692755409,
				"y": 1.053718018,
				"z": -4.4939797377,
				"element": "H" 
			},
			{
				"x": -0.6712193243,
				"y": -1.1851101773,
				"z": -3.6711549573,
				"element": "H" 
			},
			{
				"x": -0.0330252453,
				"y": -0.9515960925,
				"z": 3.2887583258,
				"element": "H" 
			},
			{
				"x": 0.7887049569,
				"y": -3.2881054549,
				"z": 4.4861680588,
				"element": "H" 
			},
			{
				"x": 1.1045317332,
				"y": -5.0478847627,
				"z": 2.3958678046,
				"element": "H" 
			}
		],
		 "valence_orbital": [ 
			{
				"type": "occ",
				"energy": -0.27581,
				"method": "rhf"
			},
			{
				"type": "occ",
				"energy": -0.26563,
				"method": "rhf"
			},
			{
				"type": "occ",
				"energy": -0.25972,
				"method": "rhf"
			},
			{
				"type": "occ",
				"energy": -0.20835,
				"method": "rhf"
			},
			{
				"type": "occ",
				"energy": -0.18262,
				"method": "rhf"
			},
			{
				"type": "unocc",
				"energy": -0.03466,
				"method": "rhf"
			},
			{
				"type": "unocc",
				"energy": 0.00197,
				"method": "rhf"
			},
			{
				"type": "unocc",
				"energy": 0.02187,
				"method": "rhf"
			},
			{
				"type": "unocc",
				"energy": 0.06438,
				"method": "rhf"
			},
			{
				"type": "unocc",
				"energy": 0.07879,
				"method": "rhf"
			}
		],
		"cosmo_sigma_profile": { 
			"-0.025": 0.0,
			"-0.024": 0.0,
			"-0.023": 0.0,
			"-0.022": 0.0,
			"-0.021": 0.0,
			"-0.02": 0.0,
			"-0.019": 0.0,
			"-0.018": 0.0,
			"-0.017": 0.0,
			"-0.016": 0.0,
			"-0.015": 0.0,
			"-0.014": 0.0,
			"-0.013": 0.401737208214,
			"-0.012": 1.67070392093,
			"-0.011": 1.85078817185,
			"-0.01": 2.06794623931,
			"-0.009": 3.29669250165,
			"-0.008": 5.73650850258,
			"-0.007": 10.7180037725,
			"-0.006": 14.0129732558,
			"-0.005": 12.430616053,
			"-0.004": 14.7193473477,
			"-0.003": 10.6105514123,
			"-0.002": 11.7036501877,
			"-0.001": 11.6395581945,
			"0.0": 15.6511731535,
			"0.001": 17.0301557421,
			"0.002": 19.2859658435,
			"0.003": 22.5485680233,
			"0.004": 18.2842543662,
			"0.005": 11.4929022741,
			"0.006": 5.77720051301,
			"0.007": 3.07309566073,
			"0.008": 2.68522087428,
			"0.009": 2.26638456804,
			"0.01": 1.82975497113,
			"0.011": 1.55079988672,
			"0.012": 1.71144609637,
			"0.013": 1.59579406544,
			"0.014": 1.77754697726,
			"0.015": 1.04303379807,
			"0.016": 0.609036235798,
			"0.017": 0.584331445978,
			"0.018": 0.00456968858002,
			"0.019": 0.0,
			"0.02": 0.0,
			"0.021": 0.0,
			"0.022": 0.0,
			"0.023": 0.0,
			"0.024": 0.0,
			"0.025": 0.0
		}
	}
}
