{
	 "smiles": "COC1=CC=C(NC(=O)C2=CC=C(S2)C(O)=O)C=C1", 
	 "Tm": 521.15, 
	 "num_atms": 30, 
	 "gaussian": { 
		 "optdone": 1, 
		 "sigma_profile": "yes", 
		 "theory": "DFT", 
		 "functional": "B3LYP", 
		 "basiset": "6-31G**", 
		 "properties": { 
			 "R2extent": 10295.7484, 
			 "electric_dipole_moment_norm": 2.41519660897, 
			 "electric_quadrupole_moment_norm": 15.961623378, 
			 "total_energy": -1255.85557287, 
			 "HOMO_LUMO_gap": 0.12398, 
			 "cosmo_polarized_energy": -18.23, 
			 "cosmo_cavitation_energy": 37.4, 
			 "cosmo_dispersion_energy": -27.86, 
			 "cosmo_repulsion_energy": 2.08, 
			 "cosmo_total_nonelectrostatic_energy": 11.62, 
			 "SMD_solvation_energy": 8.57 
		},
		"coords": [
			{
				"x": -0.4888297475,
				"y": 0.6419350415,
				"z": -5.7940299602,
				"element": "C" 
			},
			{
				"x": 0.634789948,
				"y": 0.527486437,
				"z": -4.9360359607,
				"element": "O" 
			},
			{
				"x": 0.4147386161,
				"y": 0.5000038386,
				"z": -3.5884673108,
				"element": "C" 
			},
			{
				"x": -0.8410340304,
				"y": 0.5762809781,
				"z": -2.9782442593,
				"element": "C" 
			},
			{
				"x": -0.9618472284,
				"y": 0.5397481662,
				"z": -1.5863627782,
				"element": "C" 
			},
			{
				"x": 0.1804210861,
				"y": 0.4257607888,
				"z": -0.7858160126,
				"element": "C" 
			},
			{
				"x": 0.149779702,
				"y": 0.3817234157,
				"z": 0.6276285547,
				"element": "N" 
			},
			{
				"x": -0.9396057295,
				"y": 0.4377404431,
				"z": 1.4603685955,
				"element": "C" 
			},
			{
				"x": -2.1014455747,
				"y": 0.5392468301,
				"z": 1.0765356465,
				"element": "O" 
			},
			{
				"x": -0.6470833963,
				"y": 0.3683167513,
				"z": 2.9227606628,
				"element": "C" 
			},
			{
				"x": -1.6321513675,
				"y": 0.4122364858,
				"z": 3.886081984,
				"element": "C" 
			},
			{
				"x": -1.1252728122,
				"y": 0.331281369,
				"z": 5.2035448464,
				"element": "C" 
			},
			{
				"x": 0.2475093783,
				"y": 0.225569397,
				"z": 5.246150103,
				"element": "C" 
			},
			{
				"x": 0.93431478,
				"y": 0.2249378717,
				"z": 3.645442437,
				"element": "S" 
			},
			{
				"x": 1.0546558702,
				"y": 0.124770687,
				"z": 6.4697471159,
				"element": "C" 
			},
			{
				"x": 2.3825137242,
				"y": 0.0315829067,
				"z": 6.2089474531,
				"element": "O" 
			},
			{
				"x": 0.5973000728,
				"y": 0.122666052,
				"z": 7.5945087604,
				"element": "O" 
			},
			{
				"x": 1.4405551966,
				"y": 0.349439335,
				"z": -1.4046853885,
				"element": "C" 
			},
			{
				"x": 1.558918387,
				"y": 0.3857761028,
				"z": -2.7850975343,
				"element": "C" 
			},
			{
				"x": -0.0932587969,
				"y": 0.6450914387,
				"z": -6.8109261464,
				"element": "H" 
			},
			{
				"x": -1.039720902,
				"y": 1.5752116298,
				"z": -5.6188166296,
				"element": "H" 
			},
			{
				"x": -1.176338884,
				"y": -0.2059612294,
				"z": -5.6774881289,
				"element": "H" 
			},
			{
				"x": -1.7432351129,
				"y": 0.6650861058,
				"z": -3.5717024956,
				"element": "H" 
			},
			{
				"x": -1.9344282606,
				"y": 0.5990300825,
				"z": -1.1196211276,
				"element": "H" 
			},
			{
				"x": 1.058656661,
				"y": 0.2979831496,
				"z": 1.0609337367,
				"element": "H" 
			},
			{
				"x": -2.6774957079,
				"y": 0.500327032,
				"z": 3.6190460095,
				"element": "H" 
			},
			{
				"x": -1.7235327609,
				"y": 0.3476839417,
				"z": 6.1064367942,
				"element": "H" 
			},
			{
				"x": 2.8263595455,
				"y": -0.0304424771,
				"z": 7.0706738768,
				"element": "H" 
			},
			{
				"x": 2.3380165886,
				"y": 0.26054159,
				"z": -0.7960668936,
				"element": "H" 
			},
			{
				"x": 2.5300507552,
				"y": 0.3270458391,
				"z": -3.2649459502,
				"element": "H" 
			}
		],
		 "valence_orbital": [ 
			{
				"type": "occ",
				"energy": -0.27436,
				"method": "rhf"
			},
			{
				"type": "occ",
				"energy": -0.26507,
				"method": "rhf"
			},
			{
				"type": "occ",
				"energy": -0.25835,
				"method": "rhf"
			},
			{
				"type": "occ",
				"energy": -0.25567,
				"method": "rhf"
			},
			{
				"type": "occ",
				"energy": -0.205,
				"method": "rhf"
			},
			{
				"type": "unocc",
				"energy": -0.08102,
				"method": "rhf"
			},
			{
				"type": "unocc",
				"energy": -0.01177,
				"method": "rhf"
			},
			{
				"type": "unocc",
				"energy": -0.00595,
				"method": "rhf"
			},
			{
				"type": "unocc",
				"energy": -0.0002,
				"method": "rhf"
			},
			{
				"type": "unocc",
				"energy": 0.02394,
				"method": "rhf"
			}
		],
		"cosmo_sigma_profile": { 
			"-0.025": 0.0,
			"-0.024": 0.0,
			"-0.023": 0.0,
			"-0.022": 0.0,
			"-0.021": 0.0,
			"-0.02": 0.0,
			"-0.019": 0.385918859051,
			"-0.018": 1.09805424985,
			"-0.017": 0.812590209964,
			"-0.016": 0.943592511405,
			"-0.015": 1.59706751902,
			"-0.014": 1.7166404172,
			"-0.013": 1.85889348221,
			"-0.012": 2.29329329747,
			"-0.011": 2.70379665943,
			"-0.01": 1.46642648256,
			"-0.009": 1.38190063366,
			"-0.008": 4.53218505859,
			"-0.007": 7.01139917062,
			"-0.006": 12.3519640804,
			"-0.005": 21.0277778994,
			"-0.004": 18.0216864119,
			"-0.003": 20.8460250177,
			"-0.002": 17.2354828026,
			"-0.001": 16.5697000419,
			"0.0": 24.3649657735,
			"0.001": 25.8937480922,
			"0.002": 24.817046447,
			"0.003": 16.7397214984,
			"0.004": 18.6526208873,
			"0.005": 15.4788678184,
			"0.006": 7.62308005843,
			"0.007": 6.1891660332,
			"0.008": 4.65041389577,
			"0.009": 3.87853345198,
			"0.01": 5.74273456591,
			"0.011": 7.90745201064,
			"0.012": 4.99848816032,
			"0.013": 1.14844029208,
			"0.014": 0.0,
			"0.015": 0.0,
			"0.016": 0.0,
			"0.017": 0.0,
			"0.018": 0.0,
			"0.019": 0.0,
			"0.02": 0.0,
			"0.021": 0.0,
			"0.022": 0.0,
			"0.023": 0.0,
			"0.024": 0.0,
			"0.025": 0.0
		}
	}
}
