{
	 "smiles": "CC(=O)NC1=CC=CC(N)=C1", 
	 "Tm": 359.15, 
	 "num_atms": 21, 
	 "gaussian": { 
		 "optdone": 1, 
		 "sigma_profile": "yes", 
		 "theory": "DFT", 
		 "functional": "B3LYP", 
		 "basiset": "6-31G**", 
		 "properties": { 
			 "R2extent": 2211.1514, 
			 "electric_dipole_moment_norm": 2.24227810273, 
			 "electric_quadrupole_moment_norm": 14.8906524827, 
			 "total_energy": -495.630471259, 
			 "HOMO_LUMO_gap": 0.19062, 
			 "cosmo_polarized_energy": -15.76, 
			 "cosmo_cavitation_energy": 24.81, 
			 "cosmo_dispersion_energy": -18.51, 
			 "cosmo_repulsion_energy": 1.5, 
			 "cosmo_total_nonelectrostatic_energy": 7.79, 
			 "SMD_solvation_energy": 5.02 
		},
		"coords": [
			{
				"x": -1.4694670533,
				"y": -3.2741038531,
				"z": -0.0511261074,
				"element": "C" 
			},
			{
				"x": -0.9665410437,
				"y": -1.8517202149,
				"z": 0.1616835319,
				"element": "C" 
			},
			{
				"x": -1.063192397,
				"y": -1.3014354515,
				"z": 1.2503005682,
				"element": "O" 
			},
			{
				"x": -0.4176512345,
				"y": -1.2690760009,
				"z": -0.9583740739,
				"element": "N" 
			},
			{
				"x": 0.1298978204,
				"y": 0.0238087546,
				"z": -1.1175962984,
				"element": "C" 
			},
			{
				"x": 0.6547213165,
				"y": 0.3432714541,
				"z": -2.3812786102,
				"element": "C" 
			},
			{
				"x": 1.2082500764,
				"y": 1.603241205,
				"z": -2.5899241565,
				"element": "C" 
			},
			{
				"x": 1.2493474496,
				"y": 2.549022487,
				"z": -1.5689876435,
				"element": "C" 
			},
			{
				"x": 0.723196519,
				"y": 2.2310432956,
				"z": -0.3051914922,
				"element": "C" 
			},
			{
				"x": 0.7026820705,
				"y": 3.1835736495,
				"z": 0.7137207131,
				"element": "N" 
			},
			{
				"x": 0.1637507723,
				"y": 0.9617841358,
				"z": -0.0815774236,
				"element": "C" 
			},
			{
				"x": -1.0008921823,
				"y": -3.9230296286,
				"z": 0.6932421914,
				"element": "H" 
			},
			{
				"x": -1.2742472436,
				"y": -3.678187469,
				"z": -1.0484952166,
				"element": "H" 
			},
			{
				"x": -2.5475029423,
				"y": -3.294370024,
				"z": 0.1326644994,
				"element": "H" 
			},
			{
				"x": -0.3954268788,
				"y": -1.8393967678,
				"z": -1.7905953153,
				"element": "H" 
			},
			{
				"x": 0.6301553223,
				"y": -0.3879276552,
				"z": -3.1852907541,
				"element": "H" 
			},
			{
				"x": 1.616647502,
				"y": 1.8517306589,
				"z": -3.5655321533,
				"element": "H" 
			},
			{
				"x": 1.6787477535,
				"y": 3.5315699888,
				"z": -1.7454115193,
				"element": "H" 
			},
			{
				"x": 1.4106758777,
				"y": 3.9014958484,
				"z": 0.6494284836,
				"element": "H" 
			},
			{
				"x": 0.6205458755,
				"y": 2.810160707,
				"z": 1.6491440675,
				"element": "H" 
			},
			{
				"x": -0.2455973802,
				"y": 0.6986448802,
				"z": 0.8842967094,
				"element": "H" 
			}
		],
		 "valence_orbital": [ 
			{
				"type": "occ",
				"energy": -0.3198,
				"method": "rhf"
			},
			{
				"type": "occ",
				"energy": -0.28128,
				"method": "rhf"
			},
			{
				"type": "occ",
				"energy": -0.24795,
				"method": "rhf"
			},
			{
				"type": "occ",
				"energy": -0.21958,
				"method": "rhf"
			},
			{
				"type": "occ",
				"energy": -0.19525,
				"method": "rhf"
			},
			{
				"type": "unocc",
				"energy": -0.00463,
				"method": "rhf"
			},
			{
				"type": "unocc",
				"energy": 0.01877,
				"method": "rhf"
			},
			{
				"type": "unocc",
				"energy": 0.05433,
				"method": "rhf"
			},
			{
				"type": "unocc",
				"energy": 0.06765,
				"method": "rhf"
			},
			{
				"type": "unocc",
				"energy": 0.0895,
				"method": "rhf"
			}
		],
		"cosmo_sigma_profile": { 
			"-0.025": 0.0,
			"-0.024": 0.0,
			"-0.023": 0.0,
			"-0.022": 0.0,
			"-0.021": 0.0,
			"-0.02": 0.0,
			"-0.019": 0.0,
			"-0.018": 0.0,
			"-0.017": 0.0,
			"-0.016": 0.0,
			"-0.015": 0.489564592508,
			"-0.014": 1.0668534461,
			"-0.013": 1.84644404664,
			"-0.012": 3.77947779805,
			"-0.011": 3.73637477274,
			"-0.01": 4.61198262671,
			"-0.009": 4.31602785842,
			"-0.008": 3.77116872314,
			"-0.007": 5.12967542818,
			"-0.006": 8.78391564017,
			"-0.005": 11.4720981204,
			"-0.004": 11.9430347258,
			"-0.003": 14.9126667784,
			"-0.002": 14.335153983,
			"-0.001": 11.408278622,
			"0.0": 7.86599347403,
			"0.001": 6.30276941249,
			"0.002": 7.83329539519,
			"0.003": 9.50268041604,
			"0.004": 8.97059037489,
			"0.005": 12.063012358,
			"0.006": 12.0736388528,
			"0.007": 9.52884939496,
			"0.008": 2.42757028446,
			"0.009": 2.84877683231,
			"0.01": 2.56229937333,
			"0.011": 2.08509623957,
			"0.012": 3.66562257889,
			"0.013": 3.66372911722,
			"0.014": 2.83475689444,
			"0.015": 0.726363535247,
			"0.016": 0.0,
			"0.017": 0.0,
			"0.018": 0.0,
			"0.019": 0.0,
			"0.02": 0.0,
			"0.021": 0.0,
			"0.022": 0.0,
			"0.023": 0.0,
			"0.024": 0.0,
			"0.025": 0.0
		}
	}
}
