{
	 "smiles": "CN(C)C(=O)C1=C(C)C=C(N)C=C1", 
	 "Tm": 436.15, 
	 "num_atms": 27, 
	 "gaussian": { 
		 "optdone": 1, 
		 "sigma_profile": "yes", 
		 "theory": "DFT", 
		 "functional": "B3LYP", 
		 "basiset": "6-31G**", 
		 "properties": { 
			 "R2extent": 2822.4264, 
			 "electric_dipole_moment_norm": 3.29717616909, 
			 "electric_quadrupole_moment_norm": 16.619523331, 
			 "total_energy": -574.248686307, 
			 "HOMO_LUMO_gap": 0.19444, 
			 "cosmo_polarized_energy": -14.42, 
			 "cosmo_cavitation_energy": 29.5, 
			 "cosmo_dispersion_energy": -21.15, 
			 "cosmo_repulsion_energy": 1.69, 
			 "cosmo_total_nonelectrostatic_energy": 10.04, 
			 "SMD_solvation_energy": 5.58 
		},
		"coords": [
			{
				"x": -0.8414536513,
				"y": 3.6210715988,
				"z": -0.7854390382,
				"element": "C" 
			},
			{
				"x": -0.7015010443,
				"y": 2.1732325984,
				"z": -0.7242875645,
				"element": "N" 
			},
			{
				"x": -0.9200603987,
				"y": 1.4788650435,
				"z": -1.9841680449,
				"element": "C" 
			},
			{
				"x": -0.0893052848,
				"y": 1.6246742387,
				"z": 0.387108796,
				"element": "C" 
			},
			{
				"x": 0.3815431133,
				"y": 2.338382484,
				"z": 1.2733016884,
				"element": "O" 
			},
			{
				"x": -0.0791975395,
				"y": 0.1270755013,
				"z": 0.5163671476,
				"element": "C" 
			},
			{
				"x": 1.0960892483,
				"y": -0.5559036104,
				"z": 0.9061291652,
				"element": "C" 
			},
			{
				"x": 2.4099336644,
				"y": 0.1655791531,
				"z": 1.0993072484,
				"element": "C" 
			},
			{
				"x": 1.0342653314,
				"y": -1.9334149209,
				"z": 1.1143894326,
				"element": "C" 
			},
			{
				"x": -0.1620473942,
				"y": -2.6604393884,
				"z": 0.9812418605,
				"element": "C" 
			},
			{
				"x": -0.1739878099,
				"y": -4.042559996,
				"z": 1.1552278376,
				"element": "N" 
			},
			{
				"x": -1.3274281073,
				"y": -1.9680468776,
				"z": 0.6176274853,
				"element": "C" 
			},
			{
				"x": -1.2717627463,
				"y": -0.5983801485,
				"z": 0.386887099,
				"element": "C" 
			},
			{
				"x": -0.7285886066,
				"y": 4.0272466764,
				"z": 0.2181554462,
				"element": "H" 
			},
			{
				"x": -0.0764865179,
				"y": 4.0704396684,
				"z": -1.4344318933,
				"element": "H" 
			},
			{
				"x": -1.8275432908,
				"y": 3.880792496,
				"z": -1.1878349986,
				"element": "H" 
			},
			{
				"x": -0.3197273493,
				"y": 1.9420483143,
				"z": -2.7798939229,
				"element": "H" 
			},
			{
				"x": -1.9741056377,
				"y": 1.5311258934,
				"z": -2.2871140287,
				"element": "H" 
			},
			{
				"x": -0.6324992033,
				"y": 0.4328234444,
				"z": -1.9013237031,
				"element": "H" 
			},
			{
				"x": 2.6880883098,
				"y": 0.7401959017,
				"z": 0.2090840576,
				"element": "H" 
			},
			{
				"x": 3.2153859902,
				"y": -0.5429862285,
				"z": 1.3107498415,
				"element": "H" 
			},
			{
				"x": 2.3368169253,
				"y": 0.8835028784,
				"z": 1.9195541915,
				"element": "H" 
			},
			{
				"x": 1.9419141776,
				"y": -2.4643295107,
				"z": 1.3941689837,
				"element": "H" 
			},
			{
				"x": 0.5690728055,
				"y": -4.4141084805,
				"z": 1.7305326419,
				"element": "H" 
			},
			{
				"x": -1.0723255038,
				"y": -4.4433141827,
				"z": 1.3864313571,
				"element": "H" 
			},
			{
				"x": -2.2685622772,
				"y": -2.5026810979,
				"z": 0.5171798241,
				"element": "H" 
			},
			{
				"x": -2.183527203,
				"y": -0.0719914488,
				"z": 0.1182490899,
				"element": "H" 
			}
		],
		 "valence_orbital": [ 
			{
				"type": "occ",
				"energy": -0.29887,
				"method": "rhf"
			},
			{
				"type": "occ",
				"energy": -0.2408,
				"method": "rhf"
			},
			{
				"type": "occ",
				"energy": -0.23996,
				"method": "rhf"
			},
			{
				"type": "occ",
				"energy": -0.22681,
				"method": "rhf"
			},
			{
				"type": "occ",
				"energy": -0.20068,
				"method": "rhf"
			},
			{
				"type": "unocc",
				"energy": -0.00624,
				"method": "rhf"
			},
			{
				"type": "unocc",
				"energy": 0.00512,
				"method": "rhf"
			},
			{
				"type": "unocc",
				"energy": 0.05893,
				"method": "rhf"
			},
			{
				"type": "unocc",
				"energy": 0.08009,
				"method": "rhf"
			},
			{
				"type": "unocc",
				"energy": 0.09405,
				"method": "rhf"
			}
		],
		"cosmo_sigma_profile": { 
			"-0.025": 0.0,
			"-0.024": 0.0,
			"-0.023": 0.0,
			"-0.022": 0.0,
			"-0.021": 0.0,
			"-0.02": 0.0,
			"-0.019": 0.0,
			"-0.018": 0.0,
			"-0.017": 0.0,
			"-0.016": 0.0,
			"-0.015": 0.0,
			"-0.014": 0.0,
			"-0.013": 0.482133544423,
			"-0.012": 2.72939422103,
			"-0.011": 2.8525508149,
			"-0.01": 2.84068238726,
			"-0.009": 3.36410288003,
			"-0.008": 2.8548127374,
			"-0.007": 2.66619637976,
			"-0.006": 4.05331384525,
			"-0.005": 9.35783427217,
			"-0.004": 23.3180890174,
			"-0.003": 24.335287911,
			"-0.002": 26.6704071638,
			"-0.001": 24.8533293433,
			"0.0": 15.1728117546,
			"0.001": 14.4114503562,
			"0.002": 9.58198840188,
			"0.003": 8.95907335806,
			"0.004": 6.88982700089,
			"0.005": 9.68981407921,
			"0.006": 11.5171898952,
			"0.007": 3.47141404186,
			"0.008": 2.48918101615,
			"0.009": 2.40775068603,
			"0.01": 3.14171465142,
			"0.011": 2.30307592676,
			"0.012": 2.54724447357,
			"0.013": 2.72927268819,
			"0.014": 4.62393538331,
			"0.015": 1.60226561984,
			"0.016": 0.0108816380388,
			"0.017": 0.0,
			"0.018": 0.0,
			"0.019": 0.0,
			"0.02": 0.0,
			"0.021": 0.0,
			"0.022": 0.0,
			"0.023": 0.0,
			"0.024": 0.0,
			"0.025": 0.0
		}
	}
}
