{
	 "smiles": "CC1=CC=C(C)C2=C1C(=O)OC2=O", 
	 "Tm": 468.15, 
	 "num_atms": 21, 
	 "gaussian": { 
		 "optdone": 1, 
		 "sigma_profile": "yes", 
		 "theory": "DFT", 
		 "functional": "B3LYP", 
		 "basiset": "6-31G**", 
		 "properties": { 
			 "R2extent": 2422.7918, 
			 "electric_dipole_moment_norm": 5.62424878984, 
			 "electric_quadrupole_moment_norm": 8.22156834187, 
			 "total_energy": -611.592427136, 
			 "HOMO_LUMO_gap": 0.17736, 
			 "cosmo_polarized_energy": -10.67, 
			 "cosmo_cavitation_energy": 25.56, 
			 "cosmo_dispersion_energy": -18.63, 
			 "cosmo_repulsion_energy": 1.44, 
			 "cosmo_total_nonelectrostatic_energy": 8.38, 
			 "SMD_solvation_energy": 6.12 
		},
		"coords": [
			{
				"x": -0.6540428782,
				"y": 1.2601541417,
				"z": 2.0415418117,
				"element": "C" 
			},
			{
				"x": -0.409992996,
				"y": 0.8408589527,
				"z": 0.6162608473,
				"element": "C" 
			},
			{
				"x": -1.2150778854,
				"y": 1.2786971024,
				"z": -0.4476798329,
				"element": "C" 
			},
			{
				"x": -0.9879003542,
				"y": 0.8885537907,
				"z": -1.7725554112,
				"element": "C" 
			},
			{
				"x": 0.0620643849,
				"y": 0.0301943202,
				"z": -2.1366951733,
				"element": "C" 
			},
			{
				"x": 0.3068438666,
				"y": -0.3898717282,
				"z": -3.5616193218,
				"element": "C" 
			},
			{
				"x": 0.8595700248,
				"y": -0.4018555658,
				"z": -1.0732751804,
				"element": "C" 
			},
			{
				"x": 0.6331551395,
				"y": -0.013029465,
				"z": 0.247136189,
				"element": "C" 
			},
			{
				"x": 1.6664770953,
				"y": -0.6608439768,
				"z": 1.0878429179,
				"element": "C" 
			},
			{
				"x": 1.8564685293,
				"y": -0.6110718487,
				"z": 2.2733238036,
				"element": "O" 
			},
			{
				"x": 2.4807747398,
				"y": -1.4193199034,
				"z": 0.2411979608,
				"element": "O" 
			},
			{
				"x": 2.0381444493,
				"y": -1.2991419193,
				"z": -1.0797121272,
				"element": "C" 
			},
			{
				"x": 2.58685628,
				"y": -1.8654953464,
				"z": -1.986410449,
				"element": "O" 
			},
			{
				"x": -0.8316094966,
				"y": 0.3912765306,
				"z": 2.6829407893,
				"element": "H" 
			},
			{
				"x": -1.5164710183,
				"y": 1.9276760079,
				"z": 2.1100897168,
				"element": "H" 
			},
			{
				"x": 0.2195142465,
				"y": 1.7724717562,
				"z": 2.4566166071,
				"element": "H" 
			},
			{
				"x": -2.0461843643,
				"y": 1.9458307229,
				"z": -0.2341742701,
				"element": "H" 
			},
			{
				"x": -1.6492740639,
				"y": 1.2641429093,
				"z": -2.5490283555,
				"element": "H" 
			},
			{
				"x": -0.4285849736,
				"y": 0.0597341121,
				"z": -4.2332266957,
				"element": "H" 
			},
			{
				"x": 1.3083185029,
				"y": -0.0972074923,
				"z": -3.8921540836,
				"element": "H" 
			},
			{
				"x": 0.2570507715,
				"y": -1.4782531008,
				"z": -3.665619743,
				"element": "H" 
			}
		],
		 "valence_orbital": [ 
			{
				"type": "occ",
				"energy": -0.32768,
				"method": "rhf"
			},
			{
				"type": "occ",
				"energy": -0.30571,
				"method": "rhf"
			},
			{
				"type": "occ",
				"energy": -0.28628,
				"method": "rhf"
			},
			{
				"type": "occ",
				"energy": -0.28288,
				"method": "rhf"
			},
			{
				"type": "occ",
				"energy": -0.26765,
				"method": "rhf"
			},
			{
				"type": "unocc",
				"energy": -0.09029,
				"method": "rhf"
			},
			{
				"type": "unocc",
				"energy": -0.04804,
				"method": "rhf"
			},
			{
				"type": "unocc",
				"energy": 0.0255,
				"method": "rhf"
			},
			{
				"type": "unocc",
				"energy": 0.05645,
				"method": "rhf"
			},
			{
				"type": "unocc",
				"energy": 0.08399,
				"method": "rhf"
			}
		],
		"cosmo_sigma_profile": { 
			"-0.025": 0.0,
			"-0.024": 0.0,
			"-0.023": 0.0,
			"-0.022": 0.0,
			"-0.021": 0.0,
			"-0.02": 0.0,
			"-0.019": 0.0,
			"-0.018": 0.0,
			"-0.017": 0.0,
			"-0.016": 0.0,
			"-0.015": 0.0,
			"-0.014": 0.0,
			"-0.013": 0.0,
			"-0.012": 0.0,
			"-0.011": 0.0,
			"-0.01": 0.0,
			"-0.009": 0.00282502830725,
			"-0.008": 1.26439749691,
			"-0.007": 7.53653618418,
			"-0.006": 9.7525367539,
			"-0.005": 15.7365835765,
			"-0.004": 18.2658615951,
			"-0.003": 19.3382319933,
			"-0.002": 18.5275648678,
			"-0.001": 24.0532888831,
			"0.0": 18.3433016315,
			"0.001": 12.8028409695,
			"0.002": 9.4597668255,
			"0.003": 4.36196500049,
			"0.004": 3.55745196749,
			"0.005": 4.08146747569,
			"0.006": 5.50088181973,
			"0.007": 6.84055414492,
			"0.008": 6.64902822581,
			"0.009": 7.04873869172,
			"0.01": 8.63358428717,
			"0.011": 2.65662464087,
			"0.012": 0.0131603355069,
			"0.013": 0.0,
			"0.014": 0.0,
			"0.015": 0.0,
			"0.016": 0.0,
			"0.017": 0.0,
			"0.018": 0.0,
			"0.019": 0.0,
			"0.02": 0.0,
			"0.021": 0.0,
			"0.022": 0.0,
			"0.023": 0.0,
			"0.024": 0.0,
			"0.025": 0.0
		}
	}
}
