{
	 "smiles": "CC1=C(C)NC(=O)N1", 
	 "Tm": 513.15, 
	 "num_atms": 16, 
	 "gaussian": { 
		 "optdone": 1, 
		 "sigma_profile": "yes", 
		 "theory": "DFT", 
		 "functional": "B3LYP", 
		 "basiset": "6-31G**", 
		 "properties": { 
			 "R2extent": 1442.6582, 
			 "electric_dipole_moment_norm": 4.34034781325, 
			 "electric_quadrupole_moment_norm": 17.7441752294, 
			 "total_energy": -380.10621023, 
			 "HOMO_LUMO_gap": 0.23001, 
			 "cosmo_polarized_energy": -14.33, 
			 "cosmo_cavitation_energy": 19.57, 
			 "cosmo_dispersion_energy": -14.73, 
			 "cosmo_repulsion_energy": 1.26, 
			 "cosmo_total_nonelectrostatic_energy": 6.1, 
			 "SMD_solvation_energy": 4.53 
		},
		"coords": [
			{
				"x": 0.003258818,
				"y": -0.0787105884,
				"z": -1.1797400787,
				"element": "C" 
			},
			{
				"x": 0.5778173648,
				"y": -0.2036991987,
				"z": 0.1905048524,
				"element": "C" 
			},
			{
				"x": 0.1012402571,
				"y": -0.7941333355,
				"z": 1.3168789821,
				"element": "C" 
			},
			{
				"x": -1.1675271037,
				"y": -1.5292199136,
				"z": 1.5874074678,
				"element": "C" 
			},
			{
				"x": 1.0685149846,
				"y": -0.6033421648,
				"z": 2.31590927,
				"element": "N" 
			},
			{
				"x": 2.1661727211,
				"y": 0.1056607772,
				"z": 1.8434756897,
				"element": "C" 
			},
			{
				"x": 3.1767248301,
				"y": 0.4402091676,
				"z": 2.4464270168,
				"element": "O" 
			},
			{
				"x": 1.8301670938,
				"y": 0.340276294,
				"z": 0.5157742637,
				"element": "N" 
			},
			{
				"x": -0.9736935137,
				"y": -0.5639649411,
				"z": -1.2348322748,
				"element": "H" 
			},
			{
				"x": -0.1311026179,
				"y": 0.9714514172,
				"z": -1.4691074087,
				"element": "H" 
			},
			{
				"x": 0.6487917748,
				"y": -0.5458157017,
				"z": -1.9345441033,
				"element": "H" 
			},
			{
				"x": -1.757623143,
				"y": -1.043755206,
				"z": 2.37527707,
				"element": "H" 
			},
			{
				"x": -0.9777761453,
				"y": -2.5610439836,
				"z": 1.9098344987,
				"element": "H" 
			},
			{
				"x": -1.7879130308,
				"y": -1.572657396,
				"z": 0.6895371278,
				"element": "H" 
			},
			{
				"x": 1.0162761681,
				"y": -0.9225244251,
				"z": 3.2691718685,
				"element": "H" 
			},
			{
				"x": 2.443071542,
				"y": 0.8450691985,
				"z": -0.1029742419,
				"element": "H" 
			}
		],
		 "valence_orbital": [ 
			{
				"type": "occ",
				"energy": -0.38518,
				"method": "rhf"
			},
			{
				"type": "occ",
				"energy": -0.30456,
				"method": "rhf"
			},
			{
				"type": "occ",
				"energy": -0.2925,
				"method": "rhf"
			},
			{
				"type": "occ",
				"energy": -0.24505,
				"method": "rhf"
			},
			{
				"type": "occ",
				"energy": -0.18373,
				"method": "rhf"
			},
			{
				"type": "unocc",
				"energy": 0.04628,
				"method": "rhf"
			},
			{
				"type": "unocc",
				"energy": 0.07361,
				"method": "rhf"
			},
			{
				"type": "unocc",
				"energy": 0.08196,
				"method": "rhf"
			},
			{
				"type": "unocc",
				"energy": 0.09876,
				"method": "rhf"
			},
			{
				"type": "unocc",
				"energy": 0.10738,
				"method": "rhf"
			}
		],
		"cosmo_sigma_profile": { 
			"-0.025": 0.0,
			"-0.024": 0.0,
			"-0.023": 0.0,
			"-0.022": 0.0,
			"-0.021": 0.0,
			"-0.02": 0.0,
			"-0.019": 0.0,
			"-0.018": 0.0,
			"-0.017": 0.0,
			"-0.016": 0.0492648048219,
			"-0.015": 1.4500991931,
			"-0.014": 2.30530000199,
			"-0.013": 2.32832485057,
			"-0.012": 2.18533611972,
			"-0.011": 0.952144260003,
			"-0.01": 2.12129017108,
			"-0.009": 2.01183971599,
			"-0.008": 1.73372899402,
			"-0.007": 2.24638620259,
			"-0.006": 4.11510601353,
			"-0.005": 8.31145756914,
			"-0.004": 14.7123483587,
			"-0.003": 12.265050956,
			"-0.002": 12.8788817954,
			"-0.001": 14.7943644388,
			"0.0": 13.1851695984,
			"0.001": 5.75925329138,
			"0.002": 7.46944552665,
			"0.003": 8.04610200505,
			"0.004": 7.81648051829,
			"0.005": 3.95943441832,
			"0.006": 1.49610694045,
			"0.007": 2.1039949636,
			"0.008": 0.997251026266,
			"0.009": 0.531010612632,
			"0.01": 1.62969116604,
			"0.011": 1.16117107521,
			"0.012": 0.506582937519,
			"0.013": 1.20477140334,
			"0.014": 3.21615317317,
			"0.015": 7.42810758831,
			"0.016": 3.1564159609,
			"0.017": 0.00865061903075,
			"0.018": 0.0,
			"0.019": 0.0,
			"0.02": 0.0,
			"0.021": 0.0,
			"0.022": 0.0,
			"0.023": 0.0,
			"0.024": 0.0,
			"0.025": 0.0
		}
	}
}
