{
	 "smiles": "COC(=O)C1=C(N2C=CC=C2)C(=CS1)S(C)(=O)=O", 
	 "Tm": 397.15, 
	 "num_atms": 29, 
	 "gaussian": { 
		 "optdone": 1, 
		 "sigma_profile": "yes", 
		 "theory": "DFT", 
		 "functional": "B3LYP", 
		 "basiset": "6-31G**", 
		 "properties": { 
			 "R2extent": 5882.4465, 
			 "electric_dipole_moment_norm": 4.11212521818, 
			 "electric_quadrupole_moment_norm": 9.89000940647, 
			 "total_energy": -1577.72281495, 
			 "HOMO_LUMO_gap": 0.14393, 
			 "cosmo_polarized_energy": -17.15, 
			 "cosmo_cavitation_energy": 35.77, 
			 "cosmo_dispersion_energy": -25.55, 
			 "cosmo_repulsion_energy": 1.88, 
			 "cosmo_total_nonelectrostatic_energy": 12.1, 
			 "SMD_solvation_energy": 8.29 
		},
		"coords": [
			{
				"x": 2.6902818254,
				"y": 3.9962549403,
				"z": -1.5970719479,
				"element": "C" 
			},
			{
				"x": 1.8970256586,
				"y": 2.7999041958,
				"z": -1.4906576597,
				"element": "O" 
			},
			{
				"x": 1.7663106693,
				"y": 2.0950001191,
				"z": -2.6238521323,
				"element": "C" 
			},
			{
				"x": 2.269460588,
				"y": 2.4065643764,
				"z": -3.6880611694,
				"element": "O" 
			},
			{
				"x": 0.9167026897,
				"y": 0.8936220869,
				"z": -2.4747897545,
				"element": "C" 
			},
			{
				"x": 0.2579969277,
				"y": 0.3271441827,
				"z": -1.3948530555,
				"element": "C" 
			},
			{
				"x": 0.3973356908,
				"y": 0.7463319665,
				"z": -0.0557019098,
				"element": "N" 
			},
			{
				"x": 1.5894264719,
				"y": 0.7382021767,
				"z": 0.657981348,
				"element": "C" 
			},
			{
				"x": 1.3208979903,
				"y": 1.1503398401,
				"z": 1.938793259,
				"element": "C" 
			},
			{
				"x": -0.0785507805,
				"y": 1.4298256916,
				"z": 2.0162068105,
				"element": "C" 
			},
			{
				"x": -0.6254292891,
				"y": 1.173196842,
				"z": 0.7832316524,
				"element": "C" 
			},
			{
				"x": -0.5270153806,
				"y": -0.8091625162,
				"z": -1.7958964317,
				"element": "C" 
			},
			{
				"x": -0.4401017229,
				"y": -1.0757874804,
				"z": -3.1370616084,
				"element": "C" 
			},
			{
				"x": 0.5851052827,
				"y": 0.0303004107,
				"z": -3.9534363823,
				"element": "S" 
			},
			{
				"x": -1.6123161271,
				"y": -1.8294750369,
				"z": -0.7848810074,
				"element": "S" 
			},
			{
				"x": -0.5630627399,
				"y": -2.4125786689,
				"z": 0.5599696438,
				"element": "C" 
			},
			{
				"x": -2.6671198285,
				"y": -0.9792923843,
				"z": -0.2135474844,
				"element": "O" 
			},
			{
				"x": -1.9711056979,
				"y": -2.984939869,
				"z": -1.6213409287,
				"element": "O" 
			},
			{
				"x": 2.2369876735,
				"y": 4.6925773133,
				"z": -2.3065224828,
				"element": "H" 
			},
			{
				"x": 2.7046777905,
				"y": 4.4213201569,
				"z": -0.5944389984,
				"element": "H" 
			},
			{
				"x": 3.7021874948,
				"y": 3.7565906911,
				"z": -1.932113577,
				"element": "H" 
			},
			{
				"x": 2.508259055,
				"y": 0.4370200767,
				"z": 0.1795579203,
				"element": "H" 
			},
			{
				"x": 2.0460832818,
				"y": 1.2425932626,
				"z": 2.7352372563,
				"element": "H" 
			},
			{
				"x": -0.6223605752,
				"y": 1.7821862393,
				"z": 2.8813364214,
				"element": "H" 
			},
			{
				"x": -1.6404881017,
				"y": 1.2252522086,
				"z": 0.4239160053,
				"element": "H" 
			},
			{
				"x": -0.931002153,
				"y": -1.8885815229,
				"z": -3.6541241707,
				"element": "H" 
			},
			{
				"x": -0.203937906,
				"y": -1.5622278315,
				"z": 1.1406671598,
				"element": "H" 
			},
			{
				"x": 0.2585849743,
				"y": -2.9932775798,
				"z": 0.1386466002,
				"element": "H" 
			},
			{
				"x": -1.2029337619,
				"y": -3.0508038874,
				"z": 1.173206624,
				"element": "H" 
			}
		],
		 "valence_orbital": [ 
			{
				"type": "occ",
				"energy": -0.2914,
				"method": "rhf"
			},
			{
				"type": "occ",
				"energy": -0.28996,
				"method": "rhf"
			},
			{
				"type": "occ",
				"energy": -0.27505,
				"method": "rhf"
			},
			{
				"type": "occ",
				"energy": -0.2454,
				"method": "rhf"
			},
			{
				"type": "occ",
				"energy": -0.22096,
				"method": "rhf"
			},
			{
				"type": "unocc",
				"energy": -0.07703,
				"method": "rhf"
			},
			{
				"type": "unocc",
				"energy": -0.02059,
				"method": "rhf"
			},
			{
				"type": "unocc",
				"energy": 0.00242,
				"method": "rhf"
			},
			{
				"type": "unocc",
				"energy": 0.02699,
				"method": "rhf"
			},
			{
				"type": "unocc",
				"energy": 0.04616,
				"method": "rhf"
			}
		],
		"cosmo_sigma_profile": { 
			"-0.025": 0.0,
			"-0.024": 0.0,
			"-0.023": 0.0,
			"-0.022": 0.0,
			"-0.021": 0.0,
			"-0.02": 0.0,
			"-0.019": 0.0,
			"-0.018": 0.0,
			"-0.017": 0.0,
			"-0.016": 0.0,
			"-0.015": 0.0,
			"-0.014": 0.0,
			"-0.013": 0.0,
			"-0.012": 0.0167994574699,
			"-0.011": 1.02826305555,
			"-0.01": 2.14271521353,
			"-0.009": 5.11707132925,
			"-0.008": 6.72293165251,
			"-0.007": 8.85271483649,
			"-0.006": 16.8310219209,
			"-0.005": 21.436158807,
			"-0.004": 25.2756112013,
			"-0.003": 25.2298983608,
			"-0.002": 22.7168925369,
			"-0.001": 24.2814457017,
			"0.0": 17.3693602291,
			"0.001": 16.9796254939,
			"0.002": 10.5962119297,
			"0.003": 9.40078834762,
			"0.004": 11.2759153373,
			"0.005": 8.5962184475,
			"0.006": 7.626479184,
			"0.007": 7.39058353398,
			"0.008": 7.99013564232,
			"0.009": 5.1824897616,
			"0.01": 8.81919984942,
			"0.011": 12.9786456604,
			"0.012": 4.96513632582,
			"0.013": 0.0,
			"0.014": 0.0,
			"0.015": 0.0,
			"0.016": 0.0,
			"0.017": 0.0,
			"0.018": 0.0,
			"0.019": 0.0,
			"0.02": 0.0,
			"0.021": 0.0,
			"0.022": 0.0,
			"0.023": 0.0,
			"0.024": 0.0,
			"0.025": 0.0
		}
	}
}
