{
	 "smiles": "O=C(C1=CC=CC=C1)C1=CC=CC=C1", 
	 "Tm": 321.65, 
	 "num_atms": 24, 
	 "gaussian": { 
		 "optdone": 1, 
		 "sigma_profile": "yes", 
		 "theory": "DFT", 
		 "functional": "B3LYP", 
		 "basiset": "6-31G**", 
		 "properties": { 
			 "R2extent": 3646.1095, 
			 "electric_dipole_moment_norm": 2.94854389487, 
			 "electric_quadrupole_moment_norm": 11.8048390057, 
			 "total_energy": -576.635996403, 
			 "HOMO_LUMO_gap": 0.18013, 
			 "cosmo_polarized_energy": -8.69, 
			 "cosmo_cavitation_energy": 28.17, 
			 "cosmo_dispersion_energy": -20.57, 
			 "cosmo_repulsion_energy": 1.6, 
			 "cosmo_total_nonelectrostatic_energy": 9.2, 
			 "SMD_solvation_energy": 5.21 
		},
		"coords": [
			{
				"x": 2.2347431319,
				"y": -0.7048443953,
				"z": -1.3090122928,
				"element": "O" 
			},
			{
				"x": 1.0238955052,
				"y": -0.5180863838,
				"z": -1.2500837223,
				"element": "C" 
			},
			{
				"x": 0.3924178709,
				"y": 0.5376580442,
				"z": -2.1101780754,
				"element": "C" 
			},
			{
				"x": -0.9250674137,
				"y": 0.4515158659,
				"z": -2.5866908337,
				"element": "C" 
			},
			{
				"x": -1.4303161524,
				"y": 1.4325705724,
				"z": -3.4410719184,
				"element": "C" 
			},
			{
				"x": -0.6307210462,
				"y": 2.512945224,
				"z": -3.8171230213,
				"element": "C" 
			},
			{
				"x": 0.6854683386,
				"y": 2.6022060318,
				"z": -3.3529567604,
				"element": "C" 
			},
			{
				"x": 1.1969476464,
				"y": 1.6146416631,
				"z": -2.5166420461,
				"element": "C" 
			},
			{
				"x": 0.1888459053,
				"y": -1.3475593967,
				"z": -0.3185450693,
				"element": "C" 
			},
			{
				"x": -0.9905287966,
				"y": -0.876325857,
				"z": 0.2791959737,
				"element": "C" 
			},
			{
				"x": -1.6838652105,
				"y": -1.6723080356,
				"z": 1.1921020431,
				"element": "C" 
			},
			{
				"x": -1.2139278351,
				"y": -2.9482635091,
				"z": 1.5068738868,
				"element": "C" 
			},
			{
				"x": -0.035570369,
				"y": -3.4222665821,
				"z": 0.9215831185,
				"element": "C" 
			},
			{
				"x": 0.6673367942,
				"y": -2.622218915,
				"z": 0.0259484661,
				"element": "C" 
			},
			{
				"x": -1.5462996202,
				"y": -0.3942599143,
				"z": -2.311743796,
				"element": "H" 
			},
			{
				"x": -2.4467489298,
				"y": 1.3507042604,
				"z": -3.8150794114,
				"element": "H" 
			},
			{
				"x": -1.0285251385,
				"y": 3.2801569104,
				"z": -4.4753982638,
				"element": "H" 
			},
			{
				"x": 1.3114659263,
				"y": 3.4386397315,
				"z": -3.6500845231,
				"element": "H" 
			},
			{
				"x": 2.2224043371,
				"y": 1.6530621845,
				"z": -2.1644495913,
				"element": "H" 
			},
			{
				"x": -1.3520609596,
				"y": 0.120872098,
				"z": 0.0517056783,
				"element": "H" 
			},
			{
				"x": -2.5885139204,
				"y": -1.2941604083,
				"z": 1.6593648314,
				"element": "H" 
			},
			{
				"x": -1.7596106204,
				"y": -3.569806254,
				"z": 2.211221506,
				"element": "H" 
			},
			{
				"x": 0.3353794869,
				"y": -4.4123034221,
				"z": 1.1705871365,
				"element": "H" 
			},
			{
				"x": 1.5956510696,
				"y": -2.9619695126,
				"z": -0.4211233152,
				"element": "H" 
			}
		],
		 "valence_orbital": [ 
			{
				"type": "occ",
				"energy": -0.2616,
				"method": "rhf"
			},
			{
				"type": "occ",
				"energy": -0.26076,
				"method": "rhf"
			},
			{
				"type": "occ",
				"energy": -0.25806,
				"method": "rhf"
			},
			{
				"type": "occ",
				"energy": -0.25754,
				"method": "rhf"
			},
			{
				"type": "occ",
				"energy": -0.24287,
				"method": "rhf"
			},
			{
				"type": "unocc",
				"energy": -0.06274,
				"method": "rhf"
			},
			{
				"type": "unocc",
				"energy": -0.01525,
				"method": "rhf"
			},
			{
				"type": "unocc",
				"energy": -0.00956,
				"method": "rhf"
			},
			{
				"type": "unocc",
				"energy": -0.00454,
				"method": "rhf"
			},
			{
				"type": "unocc",
				"energy": 0.05658,
				"method": "rhf"
			}
		],
		"cosmo_sigma_profile": { 
			"-0.025": 0.0,
			"-0.024": 0.0,
			"-0.023": 0.0,
			"-0.022": 0.0,
			"-0.021": 0.0,
			"-0.02": 0.0,
			"-0.019": 0.0,
			"-0.018": 0.0,
			"-0.017": 0.0,
			"-0.016": 0.0,
			"-0.015": 0.0,
			"-0.014": 0.0,
			"-0.013": 0.0,
			"-0.012": 0.0,
			"-0.011": 0.0,
			"-0.01": 0.0,
			"-0.009": 0.0,
			"-0.008": 0.0,
			"-0.007": 1.76276028196,
			"-0.006": 16.0623099114,
			"-0.005": 21.0527948366,
			"-0.004": 22.3923350483,
			"-0.003": 18.2154790276,
			"-0.002": 18.0212187732,
			"-0.001": 14.401660524,
			"0.0": 14.5709851467,
			"0.001": 15.3988732532,
			"0.002": 15.467072005,
			"0.003": 19.958119134,
			"0.004": 25.7310817164,
			"0.005": 6.44807657076,
			"0.006": 1.92651825861,
			"0.007": 1.77127843733,
			"0.008": 1.81142309165,
			"0.009": 1.85554743772,
			"0.01": 1.72421410987,
			"0.011": 3.02024499392,
			"0.012": 4.03441803428,
			"0.013": 1.03892681156,
			"0.014": 0.0,
			"0.015": 0.0,
			"0.016": 0.0,
			"0.017": 0.0,
			"0.018": 0.0,
			"0.019": 0.0,
			"0.02": 0.0,
			"0.021": 0.0,
			"0.022": 0.0,
			"0.023": 0.0,
			"0.024": 0.0,
			"0.025": 0.0
		}
	}
}
