{
	 "smiles": "NC1=C(C=C(F)C=C1)C#N", 
	 "Tm": 367.15, 
	 "num_atms": 15, 
	 "gaussian": { 
		 "optdone": 1, 
		 "sigma_profile": "yes", 
		 "theory": "DFT", 
		 "functional": "B3LYP", 
		 "basiset": "6-31G**", 
		 "properties": { 
			 "R2extent": 2181.8641, 
			 "electric_dipole_moment_norm": 4.14900500241, 
			 "electric_quadrupole_moment_norm": 17.5257251025, 
			 "total_energy": -479.081621131, 
			 "HOMO_LUMO_gap": 0.16842, 
			 "cosmo_polarized_energy": -11.43, 
			 "cosmo_cavitation_energy": 20.88, 
			 "cosmo_dispersion_energy": -14.88, 
			 "cosmo_repulsion_energy": 1.18, 
			 "cosmo_total_nonelectrostatic_energy": 7.19, 
			 "SMD_solvation_energy": 5.36 
		},
		"coords": [
			{
				"x": 2.234467572,
				"y": -2.3426209145,
				"z": 1.3401416994,
				"element": "N" 
			},
			{
				"x": 1.6645658011,
				"y": -1.0993683809,
				"z": 1.1573413793,
				"element": "C" 
			},
			{
				"x": 0.643358009,
				"y": -0.6258029006,
				"z": 2.0225302383,
				"element": "C" 
			},
			{
				"x": 0.1064852183,
				"y": 0.6656944205,
				"z": 1.8691897823,
				"element": "C" 
			},
			{
				"x": 0.5811576246,
				"y": 1.4752772482,
				"z": 0.8554682395,
				"element": "C" 
			},
			{
				"x": 0.069565755,
				"y": 2.7151116988,
				"z": 0.6993324019,
				"element": "F" 
			},
			{
				"x": 1.5781121287,
				"y": 1.0356266375,
				"z": -0.0151688604,
				"element": "C" 
			},
			{
				"x": 2.1121351697,
				"y": -0.23700652,
				"z": 0.1375138668,
				"element": "C" 
			},
			{
				"x": 0.156644582,
				"y": -1.4915308959,
				"z": 3.0490828217,
				"element": "C" 
			},
			{
				"x": -0.2070679299,
				"y": -2.2451711883,
				"z": 3.8596629558,
				"element": "N" 
			},
			{
				"x": 2.7005488012,
				"y": -2.7557989576,
				"z": 0.5471109972,
				"element": "H" 
			},
			{
				"x": 1.736129333,
				"y": -3.0004083636,
				"z": 1.923130876,
				"element": "H" 
			},
			{
				"x": -0.672859361,
				"y": 1.0199646856,
				"z": 2.5335981678,
				"element": "H" 
			},
			{
				"x": 1.9258336855,
				"y": 1.6961493128,
				"z": -0.8022663194,
				"element": "H" 
			},
			{
				"x": 2.8949236107,
				"y": -0.575915882,
				"z": -0.534868246,
				"element": "H" 
			}
		],
		 "valence_orbital": [ 
			{
				"type": "occ",
				"energy": -0.35348,
				"method": "rhf"
			},
			{
				"type": "occ",
				"energy": -0.33693,
				"method": "rhf"
			},
			{
				"type": "occ",
				"energy": -0.32274,
				"method": "rhf"
			},
			{
				"type": "occ",
				"energy": -0.27232,
				"method": "rhf"
			},
			{
				"type": "occ",
				"energy": -0.22032,
				"method": "rhf"
			},
			{
				"type": "unocc",
				"energy": -0.0519,
				"method": "rhf"
			},
			{
				"type": "unocc",
				"energy": -0.00427,
				"method": "rhf"
			},
			{
				"type": "unocc",
				"energy": 0.02766,
				"method": "rhf"
			},
			{
				"type": "unocc",
				"energy": 0.06746,
				"method": "rhf"
			},
			{
				"type": "unocc",
				"energy": 0.07918,
				"method": "rhf"
			}
		],
		"cosmo_sigma_profile": { 
			"-0.025": 0.0,
			"-0.024": 0.0,
			"-0.023": 0.0,
			"-0.022": 0.0,
			"-0.021": 0.0,
			"-0.02": 0.0,
			"-0.019": 0.0,
			"-0.018": 0.0,
			"-0.017": 0.0,
			"-0.016": 0.0,
			"-0.015": 0.0,
			"-0.014": 1.08149086085,
			"-0.013": 1.62221958416,
			"-0.012": 2.63253008007,
			"-0.011": 2.38843575729,
			"-0.01": 2.50819347267,
			"-0.009": 3.52912665681,
			"-0.008": 6.84060502413,
			"-0.007": 7.17896818496,
			"-0.006": 6.46137045535,
			"-0.005": 7.17257840789,
			"-0.004": 5.03317406402,
			"-0.003": 6.10018245873,
			"-0.002": 6.96654687843,
			"-0.001": 8.5039507654,
			"0.0": 14.4183839457,
			"0.001": 16.9352660489,
			"0.002": 16.5852888661,
			"0.003": 9.52943274798,
			"0.004": 12.138083149,
			"0.005": 6.18327801253,
			"0.006": 3.23753183979,
			"0.007": 3.28771636546,
			"0.008": 3.36144167105,
			"0.009": 3.76749700452,
			"0.01": 3.86470926693,
			"0.011": 2.85858753229,
			"0.012": 2.70091290139,
			"0.013": 1.69064848696,
			"0.014": 0.0845110795249,
			"0.015": 0.0,
			"0.016": 0.0,
			"0.017": 0.0,
			"0.018": 0.0,
			"0.019": 0.0,
			"0.02": 0.0,
			"0.021": 0.0,
			"0.022": 0.0,
			"0.023": 0.0,
			"0.024": 0.0,
			"0.025": 0.0
		}
	}
}
