{
	 "smiles": "OC(=O)C1CCCCN1S(=O)(=O)C1=CC=C(Br)C=C1", 
	 "Tm": 407.15, 
	 "num_atms": 33, 
	 "gaussian": { 
		 "optdone": 1, 
		 "sigma_profile": "yes", 
		 "theory": "DFT", 
		 "functional": "B3LYP", 
		 "basiset": "6-31G**", 
		 "properties": { 
			 "R2extent": 9229.562, 
			 "electric_dipole_moment_norm": 3.12948077003, 
			 "electric_quadrupole_moment_norm": 15.7681265108, 
			 "total_energy": -3790.8981612, 
			 "HOMO_LUMO_gap": 0.1888, 
			 "cosmo_polarized_energy": -15.64, 
			 "cosmo_cavitation_energy": 37.8, 
			 "cosmo_dispersion_energy": -27.8, 
			 "cosmo_repulsion_energy": 2.08, 
			 "cosmo_total_nonelectrostatic_energy": 12.08, 
			 "SMD_solvation_energy": 4.45 
		},
		"coords": [
			{
				"x": 0.3573752888,
				"y": -3.4414317697,
				"z": -2.776515106,
				"element": "O" 
			},
			{
				"x": -0.8610480051,
				"y": -3.8409589018,
				"z": -2.3464157009,
				"element": "C" 
			},
			{
				"x": -1.7937772657,
				"y": -3.931072899,
				"z": -3.1089509349,
				"element": "O" 
			},
			{
				"x": -0.9397924933,
				"y": -4.1373627531,
				"z": -0.8320432332,
				"element": "C" 
			},
			{
				"x": -2.2027929796,
				"y": -4.919504521,
				"z": -0.4378789084,
				"element": "C" 
			},
			{
				"x": -3.4654952759,
				"y": -4.0515787444,
				"z": -0.3755945863,
				"element": "C" 
			},
			{
				"x": -3.2426711235,
				"y": -2.8615679633,
				"z": 0.5633753656,
				"element": "C" 
			},
			{
				"x": -2.0395281493,
				"y": -2.0324012731,
				"z": 0.1092369718,
				"element": "C" 
			},
			{
				"x": -0.8434141909,
				"y": -2.8805433359,
				"z": -0.0515979638,
				"element": "N" 
			},
			{
				"x": 0.6479246855,
				"y": -2.3044409473,
				"z": 0.430344376,
				"element": "S" 
			},
			{
				"x": 1.6347741676,
				"y": -3.1192767788,
				"z": -0.3173143258,
				"element": "O" 
			},
			{
				"x": 0.7360502702,
				"y": -2.2367928453,
				"z": 1.8895457289,
				"element": "O" 
			},
			{
				"x": 0.7240721718,
				"y": -0.6089446892,
				"z": -0.1666254882,
				"element": "C" 
			},
			{
				"x": 0.6711162652,
				"y": -0.3372257885,
				"z": -1.5376948309,
				"element": "C" 
			},
			{
				"x": 0.7660164488,
				"y": 0.9822337086,
				"z": -1.9744279473,
				"element": "C" 
			},
			{
				"x": 0.917282031,
				"y": 2.0061241526,
				"z": -1.0368241194,
				"element": "C" 
			},
			{
				"x": 1.0463037739,
				"y": 3.8085776713,
				"z": -1.6390559156,
				"element": "Br" 
			},
			{
				"x": 0.9765421963,
				"y": 1.7362851151,
				"z": 0.3301817845,
				"element": "C" 
			},
			{
				"x": 0.8790384891,
				"y": 0.4161288047,
				"z": 0.7686230443,
				"element": "C" 
			},
			{
				"x": 0.9971140366,
				"y": -3.4402924407,
				"z": -2.0306726424,
				"element": "H" 
			},
			{
				"x": -0.0650640737,
				"y": -4.7387393788,
				"z": -0.5729832415,
				"element": "H" 
			},
			{
				"x": -2.3314407815,
				"y": -5.736236471,
				"z": -1.1540198632,
				"element": "H" 
			},
			{
				"x": -2.018517432,
				"y": -5.3660980129,
				"z": 0.5463494467,
				"element": "H" 
			},
			{
				"x": -4.3091055535,
				"y": -4.6572007293,
				"z": -0.0274747351,
				"element": "H" 
			},
			{
				"x": -3.7122165707,
				"y": -3.6980952447,
				"z": -1.3822110653,
				"element": "H" 
			},
			{
				"x": -4.1241721647,
				"y": -2.2109033633,
				"z": 0.5883290424,
				"element": "H" 
			},
			{
				"x": -3.0657056035,
				"y": -3.215999027,
				"z": 1.5863735382,
				"element": "H" 
			},
			{
				"x": -2.2673104202,
				"y": -1.52607072,
				"z": -0.8403154801,
				"element": "H" 
			},
			{
				"x": -1.810012232,
				"y": -1.260631863,
				"z": 0.8479403879,
				"element": "H" 
			},
			{
				"x": 0.5596743051,
				"y": -1.1357941199,
				"z": -2.2638574703,
				"element": "H" 
			},
			{
				"x": 0.7259111537,
				"y": 1.2123119964,
				"z": -3.0326618696,
				"element": "H" 
			},
			{
				"x": 1.0989741963,
				"y": 2.5440680072,
				"z": 1.042206957,
				"element": "H" 
			},
			{
				"x": 0.9272948351,
				"y": 0.1756351251,
				"z": 1.824628785,
				"element": "H" 
			}
		],
		 "valence_orbital": [ 
			{
				"type": "occ",
				"energy": -0.30572,
				"method": "rhf"
			},
			{
				"type": "occ",
				"energy": -0.29433,
				"method": "rhf"
			},
			{
				"type": "occ",
				"energy": -0.29136,
				"method": "rhf"
			},
			{
				"type": "occ",
				"energy": -0.27063,
				"method": "rhf"
			},
			{
				"type": "occ",
				"energy": -0.2497,
				"method": "rhf"
			},
			{
				"type": "unocc",
				"energy": -0.0609,
				"method": "rhf"
			},
			{
				"type": "unocc",
				"energy": -0.04192,
				"method": "rhf"
			},
			{
				"type": "unocc",
				"energy": -0.01166,
				"method": "rhf"
			},
			{
				"type": "unocc",
				"energy": -0.00616,
				"method": "rhf"
			},
			{
				"type": "unocc",
				"energy": 0.04412,
				"method": "rhf"
			}
		],
		"cosmo_sigma_profile": { 
			"-0.025": 0.0,
			"-0.024": 0.0,
			"-0.023": 0.0,
			"-0.022": 0.0,
			"-0.021": 0.0,
			"-0.02": 0.0,
			"-0.019": 0.0,
			"-0.018": 0.0,
			"-0.017": 0.0,
			"-0.016": 0.0,
			"-0.015": 0.0,
			"-0.014": 0.0,
			"-0.013": 0.0,
			"-0.012": 0.0123844134904,
			"-0.011": 0.367154941608,
			"-0.01": 0.929889067527,
			"-0.009": 1.98878492198,
			"-0.008": 8.07360356324,
			"-0.007": 10.6811533598,
			"-0.006": 12.5609920768,
			"-0.005": 16.1963502919,
			"-0.004": 27.1243303132,
			"-0.003": 29.931460024,
			"-0.002": 26.5501813117,
			"-0.001": 27.6214939182,
			"0.0": 27.5130898908,
			"0.001": 23.515220172,
			"0.002": 11.5616016826,
			"0.003": 13.1152734445,
			"0.004": 12.2316001176,
			"0.005": 5.16648678154,
			"0.006": 5.28852134988,
			"0.007": 5.22649112336,
			"0.008": 5.74803530299,
			"0.009": 6.98164712878,
			"0.01": 11.0522184813,
			"0.011": 9.76831879517,
			"0.012": 3.27752229147,
			"0.013": 0.74935476557,
			"0.014": 0.0,
			"0.015": 0.0,
			"0.016": 0.0,
			"0.017": 0.0,
			"0.018": 0.0,
			"0.019": 0.0,
			"0.02": 0.0,
			"0.021": 0.0,
			"0.022": 0.0,
			"0.023": 0.0,
			"0.024": 0.0,
			"0.025": 0.0
		}
	}
}
