{
	 "smiles": "BrC(Br)C(Br)(Br)Br", 
	 "Tm": 329.65, 
	 "num_atms": 8, 
	 "gaussian": { 
		 "optdone": 1, 
		 "sigma_profile": "yes", 
		 "theory": "DFT", 
		 "functional": "B3LYP", 
		 "basiset": "6-31G**", 
		 "properties": { 
			 "R2extent": 5128.1093, 
			 "electric_dipole_moment_norm": 0.752087474966, 
			 "electric_quadrupole_moment_norm": 2.44004951999, 
			 "total_energy": -12933.7981253, 
			 "HOMO_LUMO_gap": 0.19405, 
			 "cosmo_polarized_energy": -4.55, 
			 "cosmo_cavitation_energy": 22.7, 
			 "cosmo_dispersion_energy": -18.28, 
			 "cosmo_repulsion_energy": 1.49, 
			 "cosmo_total_nonelectrostatic_energy": 5.91, 
			 "SMD_solvation_energy": -1.51 
		},
		"coords": [
			{
				"x": -2.3594704165,
				"y": 0.2002390916,
				"z": 1.3126423685,
				"element": "Br" 
			},
			{
				"x": -1.389253347,
				"y": 1.3245312986,
				"z": 0.0345224205,
				"element": "C" 
			},
			{
				"x": -2.0686208351,
				"y": 3.1598828483,
				"z": 0.1277902508,
				"element": "Br" 
			},
			{
				"x": 0.1424099867,
				"y": 1.2428975696,
				"z": 0.2066108291,
				"element": "C" 
			},
			{
				"x": 0.9929099045,
				"y": 2.3031841431,
				"z": -1.2239693169,
				"element": "Br" 
			},
			{
				"x": 0.7044724428,
				"y": -0.6313525745,
				"z": -0.0486725023,
				"element": "Br" 
			},
			{
				"x": 0.7424553154,
				"y": 1.8820397781,
				"z": 1.9497172236,
				"element": "Br" 
			},
			{
				"x": -1.6468030507,
				"y": 0.9539778452,
				"z": -0.9542412733,
				"element": "H" 
			}
		],
		 "valence_orbital": [ 
			{
				"type": "occ",
				"energy": -0.30762,
				"method": "rhf"
			},
			{
				"type": "occ",
				"energy": -0.30024,
				"method": "rhf"
			},
			{
				"type": "occ",
				"energy": -0.29238,
				"method": "rhf"
			},
			{
				"type": "occ",
				"energy": -0.28656,
				"method": "rhf"
			},
			{
				"type": "occ",
				"energy": -0.27425,
				"method": "rhf"
			},
			{
				"type": "unocc",
				"energy": -0.0802,
				"method": "rhf"
			},
			{
				"type": "unocc",
				"energy": -0.061,
				"method": "rhf"
			},
			{
				"type": "unocc",
				"energy": -0.06015,
				"method": "rhf"
			},
			{
				"type": "unocc",
				"energy": -0.01482,
				"method": "rhf"
			},
			{
				"type": "unocc",
				"energy": 0.01821,
				"method": "rhf"
			}
		],
		"cosmo_sigma_profile": { 
			"-0.025": 0.0,
			"-0.024": 0.0,
			"-0.023": 0.0,
			"-0.022": 0.0,
			"-0.021": 0.0,
			"-0.02": 0.0,
			"-0.019": 0.0,
			"-0.018": 0.0,
			"-0.017": 0.0,
			"-0.016": 0.0,
			"-0.015": 0.0,
			"-0.014": 0.0,
			"-0.013": 0.0968009207281,
			"-0.012": 1.58014971381,
			"-0.011": 1.26676001584,
			"-0.01": 1.83662685589,
			"-0.009": 1.70259864137,
			"-0.008": 1.24535621987,
			"-0.007": 3.86958190074,
			"-0.006": 6.90156123923,
			"-0.005": 8.46308323726,
			"-0.004": 8.53699404182,
			"-0.003": 9.73045418027,
			"-0.002": 10.3531143569,
			"-0.001": 11.7244742534,
			"0.0": 14.6147272142,
			"0.001": 19.8524218834,
			"0.002": 34.8053863795,
			"0.003": 43.3950395198,
			"0.004": 16.6088172118,
			"0.005": 0.222975725139,
			"0.006": 0.0,
			"0.007": 0.0,
			"0.008": 0.0,
			"0.009": 0.0,
			"0.01": 0.0,
			"0.011": 0.0,
			"0.012": 0.0,
			"0.013": 0.0,
			"0.014": 0.0,
			"0.015": 0.0,
			"0.016": 0.0,
			"0.017": 0.0,
			"0.018": 0.0,
			"0.019": 0.0,
			"0.02": 0.0,
			"0.021": 0.0,
			"0.022": 0.0,
			"0.023": 0.0,
			"0.024": 0.0,
			"0.025": 0.0
		}
	}
}
