{
	 "smiles": "OC(=O)C1=CC2=C(N1)C=CC(Cl)=C2", 
	 "Tm": 558.15, 
	 "num_atms": 19, 
	 "gaussian": { 
		 "optdone": 1, 
		 "sigma_profile": "yes", 
		 "theory": "DFT", 
		 "functional": "B3LYP", 
		 "basiset": "6-31G**", 
		 "properties": { 
			 "R2extent": 3908.5239, 
			 "electric_dipole_moment_norm": 1.12249469041, 
			 "electric_quadrupole_moment_norm": 21.2540105568, 
			 "total_energy": -1011.98286848, 
			 "HOMO_LUMO_gap": 0.16776, 
			 "cosmo_polarized_energy": -15.73, 
			 "cosmo_cavitation_energy": 25.91, 
			 "cosmo_dispersion_energy": -19.55, 
			 "cosmo_repulsion_energy": 1.53, 
			 "cosmo_total_nonelectrostatic_energy": 7.89, 
			 "SMD_solvation_energy": 4.96 
		},
		"coords": [
			{
				"x": -0.2980820089,
				"y": -2.1889277504,
				"z": 3.1253390319,
				"element": "O" 
			},
			{
				"x": -0.8761355019,
				"y": -1.9672254117,
				"z": 1.9217214837,
				"element": "C" 
			},
			{
				"x": -1.9930984829,
				"y": -2.3757494324,
				"z": 1.6833315255,
				"element": "O" 
			},
			{
				"x": -0.0937817167,
				"y": -1.2117655522,
				"z": 0.9260041988,
				"element": "C" 
			},
			{
				"x": 1.1660111722,
				"y": -0.6436178693,
				"z": 0.933101595,
				"element": "C" 
			},
			{
				"x": 1.358329515,
				"y": -0.0406703236,
				"z": -0.3483421045,
				"element": "C" 
			},
			{
				"x": 0.1687179132,
				"y": -0.2771881909,
				"z": -1.099935326,
				"element": "C" 
			},
			{
				"x": -0.6870339056,
				"y": -0.9873116273,
				"z": -0.299172392,
				"element": "N" 
			},
			{
				"x": 0.0202029403,
				"y": 0.1848737906,
				"z": -2.4149626686,
				"element": "C" 
			},
			{
				"x": 1.0744082731,
				"y": 0.888297275,
				"z": -2.9755371522,
				"element": "C" 
			},
			{
				"x": 2.2542685755,
				"y": 1.1247286989,
				"z": -2.234643677,
				"element": "C" 
			},
			{
				"x": 3.5556656099,
				"y": 2.0253245216,
				"z": -3.0068637222,
				"element": "Cl" 
			},
			{
				"x": 2.4184363954,
				"y": 0.6765359912,
				"z": -0.936574773,
				"element": "C" 
			},
			{
				"x": 0.5875182321,
				"y": -1.8002971302,
				"z": 3.1550921477,
				"element": "H" 
			},
			{
				"x": 1.8800322729,
				"y": -0.6472788674,
				"z": 1.7462606469,
				"element": "H" 
			},
			{
				"x": -1.6155990993,
				"y": -1.3229680247,
				"z": -0.5106542723,
				"element": "H" 
			},
			{
				"x": -0.8873894845,
				"y": 0.0015806111,
				"z": -2.9813903126,
				"element": "H" 
			},
			{
				"x": 1.0036304214,
				"y": 1.264484868,
				"z": -3.9896645837,
				"element": "H" 
			},
			{
				"x": 3.336198879,
				"y": 0.8739744237,
				"z": -0.3939096454,
				"element": "H" 
			}
		],
		 "valence_orbital": [ 
			{
				"type": "occ",
				"energy": -0.31492,
				"method": "rhf"
			},
			{
				"type": "occ",
				"energy": -0.30533,
				"method": "rhf"
			},
			{
				"type": "occ",
				"energy": -0.28951,
				"method": "rhf"
			},
			{
				"type": "occ",
				"energy": -0.24022,
				"method": "rhf"
			},
			{
				"type": "occ",
				"energy": -0.23199,
				"method": "rhf"
			},
			{
				"type": "unocc",
				"energy": -0.06423,
				"method": "rhf"
			},
			{
				"type": "unocc",
				"energy": -0.00338,
				"method": "rhf"
			},
			{
				"type": "unocc",
				"energy": 0.00838,
				"method": "rhf"
			},
			{
				"type": "unocc",
				"energy": 0.02631,
				"method": "rhf"
			},
			{
				"type": "unocc",
				"energy": 0.04521,
				"method": "rhf"
			}
		],
		"cosmo_sigma_profile": { 
			"-0.025": 0.0,
			"-0.024": 0.0,
			"-0.023": 0.0,
			"-0.022": 0.0,
			"-0.021": 0.0,
			"-0.02": 0.0,
			"-0.019": 0.546692740059,
			"-0.018": 1.43116974333,
			"-0.017": 0.920406902798,
			"-0.016": 1.20126979233,
			"-0.015": 1.72495743836,
			"-0.014": 1.35560241973,
			"-0.013": 2.41561562422,
			"-0.012": 2.51326553155,
			"-0.011": 1.96601305267,
			"-0.01": 1.92882851057,
			"-0.009": 2.41737900936,
			"-0.008": 3.95003042012,
			"-0.007": 8.79584593627,
			"-0.006": 8.74216229367,
			"-0.005": 7.38746593965,
			"-0.004": 7.37621628444,
			"-0.003": 8.61135054653,
			"-0.002": 10.2901186118,
			"-0.001": 9.97029816539,
			"0.0": 12.4193549451,
			"0.001": 14.0856362042,
			"0.002": 20.9119778678,
			"0.003": 25.3394395607,
			"0.004": 16.4933540771,
			"0.005": 12.1202852176,
			"0.006": 2.65499896611,
			"0.007": 2.73150069825,
			"0.008": 2.99500632843,
			"0.009": 3.00963329978,
			"0.01": 5.17400383202,
			"0.011": 4.69607769362,
			"0.012": 3.27395257489,
			"0.013": 1.28393378948,
			"0.014": 0.00901868410951,
			"0.015": 0.0,
			"0.016": 0.0,
			"0.017": 0.0,
			"0.018": 0.0,
			"0.019": 0.0,
			"0.02": 0.0,
			"0.021": 0.0,
			"0.022": 0.0,
			"0.023": 0.0,
			"0.024": 0.0,
			"0.025": 0.0
		}
	}
}
