{
	 "smiles": "CC12CCC3C(CCC4=CC(=O)CCC34C)C1CCC2OC(=O)CCC1CCCC1", 
	 "Tm": 428.15, 
	 "num_atms": 70, 
	 "gaussian": { 
		 "optdone": 1, 
		 "sigma_profile": "yes", 
		 "theory": "DFT", 
		 "functional": "B3LYP", 
		 "basiset": "6-31G**", 
		 "properties": { 
			 "R2extent": 18922.9055, 
			 "electric_dipole_moment_norm": 3.12238592426, 
			 "electric_quadrupole_moment_norm": 42.6594959621, 
			 "total_energy": -1278.69198193, 
			 "HOMO_LUMO_gap": 0.18592, 
			 "cosmo_polarized_energy": -15.36, 
			 "cosmo_cavitation_energy": 62.14, 
			 "cosmo_dispersion_energy": -41.25, 
			 "cosmo_repulsion_energy": 3.06, 
			 "cosmo_total_nonelectrostatic_energy": 23.94, 
			 "SMD_solvation_energy": 9.2 
		},
		"coords": [
			{
				"x": 0.2466564508,
				"y": -0.0449378804,
				"z": 1.1668562451,
				"element": "C" 
			},
			{
				"x": -0.7774102275,
				"y": -0.2146715019,
				"z": 0.0233395961,
				"element": "C" 
			},
			{
				"x": -0.0715300697,
				"y": -0.5083224555,
				"z": -1.3096635915,
				"element": "C" 
			},
			{
				"x": 0.7408118433,
				"y": 0.7139572425,
				"z": -1.779795878,
				"element": "C" 
			},
			{
				"x": -0.0915473036,
				"y": 2.0153484979,
				"z": -1.8803777426,
				"element": "C" 
			},
			{
				"x": -0.9418932675,
				"y": 2.2986165425,
				"z": -0.6077821643,
				"element": "C" 
			},
			{
				"x": -1.9508802482,
				"y": 3.4501492718,
				"z": -0.8660820565,
				"element": "C" 
			},
			{
				"x": -1.4826820898,
				"y": 4.4321418463,
				"z": -1.9694952138,
				"element": "C" 
			},
			{
				"x": 0.013424715,
				"y": 4.5496451803,
				"z": -1.9419961869,
				"element": "C" 
			},
			{
				"x": 0.6278594859,
				"y": 5.6948057761,
				"z": -1.5792610436,
				"element": "C" 
			},
			{
				"x": 2.0875752702,
				"y": 5.8444431696,
				"z": -1.4697576734,
				"element": "C" 
			},
			{
				"x": 2.6068171153,
				"y": 6.9034995472,
				"z": -1.141889124,
				"element": "O" 
			},
			{
				"x": 2.9179622117,
				"y": 4.6137989594,
				"z": -1.806794707,
				"element": "C" 
			},
			{
				"x": 2.1551529115,
				"y": 3.2975003592,
				"z": -1.6035962188,
				"element": "C" 
			},
			{
				"x": 0.7725973969,
				"y": 3.270968987,
				"z": -2.3040122956,
				"element": "C" 
			},
			{
				"x": 0.9588463487,
				"y": 3.2387058657,
				"z": -3.844447054,
				"element": "C" 
			},
			{
				"x": -1.6826260209,
				"y": 1.025742542,
				"z": -0.1810115012,
				"element": "C" 
			},
			{
				"x": -2.5841609884,
				"y": 1.0487364134,
				"z": 1.0715136545,
				"element": "C" 
			},
			{
				"x": -2.7973876273,
				"y": -0.4582544786,
				"z": 1.4029958643,
				"element": "C" 
			},
			{
				"x": -1.860865211,
				"y": -1.2304329831,
				"z": 0.4368813824,
				"element": "C" 
			},
			{
				"x": -1.2702919844,
				"y": -2.4060548963,
				"z": 1.0341018162,
				"element": "O" 
			},
			{
				"x": -2.0507558992,
				"y": -3.5113956771,
				"z": 1.0969657018,
				"element": "C" 
			},
			{
				"x": -3.1990037943,
				"y": -3.5429153055,
				"z": 0.704160415,
				"element": "O" 
			},
			{
				"x": -1.3231103394,
				"y": -4.6697147285,
				"z": 1.7533662745,
				"element": "C" 
			},
			{
				"x": 0.0689694946,
				"y": -5.008663056,
				"z": 1.180047859,
				"element": "C" 
			},
			{
				"x": 0.1090265285,
				"y": -5.7387434977,
				"z": -0.1747104343,
				"element": "C" 
			},
			{
				"x": -0.6011831761,
				"y": -5.0701780643,
				"z": -1.3678560495,
				"element": "C" 
			},
			{
				"x": -0.5636099578,
				"y": -6.1613828346,
				"z": -2.4523799595,
				"element": "C" 
			},
			{
				"x": -0.7520288005,
				"y": -7.4983864043,
				"z": -1.6805337188,
				"element": "C" 
			},
			{
				"x": -0.4788418911,
				"y": -7.1691070437,
				"z": -0.1849869214,
				"element": "C" 
			},
			{
				"x": 0.9296197441,
				"y": 0.7885853398,
				"z": 0.9887832209,
				"element": "H" 
			},
			{
				"x": 0.8453584366,
				"y": -0.9541677212,
				"z": 1.268629106,
				"element": "H" 
			},
			{
				"x": -0.2375782479,
				"y": 0.1325246369,
				"z": 2.1308080247,
				"element": "H" 
			},
			{
				"x": 0.5914095629,
				"y": -1.3779017213,
				"z": -1.2205768057,
				"element": "H" 
			},
			{
				"x": -0.8278606718,
				"y": -0.763877892,
				"z": -2.0650323007,
				"element": "H" 
			},
			{
				"x": 1.1908734775,
				"y": 0.4937433529,
				"z": -2.755128982,
				"element": "H" 
			},
			{
				"x": 1.5771371455,
				"y": 0.8561948541,
				"z": -1.0898067371,
				"element": "H" 
			},
			{
				"x": -0.8178264407,
				"y": 1.8498720604,
				"z": -2.691305401,
				"element": "H" 
			},
			{
				"x": -0.2641481518,
				"y": 2.6103011334,
				"z": 0.1994415033,
				"element": "H" 
			},
			{
				"x": -2.1163020001,
				"y": 4.0031458212,
				"z": 0.0643276118,
				"element": "H" 
			},
			{
				"x": -2.9222714365,
				"y": 3.0329519801,
				"z": -1.1582064733,
				"element": "H" 
			},
			{
				"x": -1.7973461832,
				"y": 4.0482756767,
				"z": -2.948838069,
				"element": "H" 
			},
			{
				"x": -1.9571073056,
				"y": 5.4098280751,
				"z": -1.8454949421,
				"element": "H" 
			},
			{
				"x": 0.0480231283,
				"y": 6.5832836255,
				"z": -1.3387660157,
				"element": "H" 
			},
			{
				"x": 3.239665615,
				"y": 4.7172146676,
				"z": -2.8519814121,
				"element": "H" 
			},
			{
				"x": 3.8307761788,
				"y": 4.6449991856,
				"z": -1.204305355,
				"element": "H" 
			},
			{
				"x": 2.0084465589,
				"y": 3.1426171709,
				"z": -0.5268602722,
				"element": "H" 
			},
			{
				"x": 2.7726552429,
				"y": 2.4669690424,
				"z": -1.9593449765,
				"element": "H" 
			},
			{
				"x": 1.4531927715,
				"y": 2.3121043135,
				"z": -4.1544965493,
				"element": "H" 
			},
			{
				"x": -0.0059414097,
				"y": 3.2891265033,
				"z": -4.359209337,
				"element": "H" 
			},
			{
				"x": 1.5627142619,
				"y": 4.0783836507,
				"z": -4.1980791768,
				"element": "H" 
			},
			{
				"x": -2.3402570825,
				"y": 0.770304264,
				"z": -1.0297694227,
				"element": "H" 
			},
			{
				"x": -2.0865466155,
				"y": 1.5665414816,
				"z": 1.8991255044,
				"element": "H" 
			},
			{
				"x": -3.5283593533,
				"y": 1.5711088082,
				"z": 0.893687862,
				"element": "H" 
			},
			{
				"x": -3.8323418721,
				"y": -0.7800386666,
				"z": 1.2709211428,
				"element": "H" 
			},
			{
				"x": -2.5205104478,
				"y": -0.686587758,
				"z": 2.436749373,
				"element": "H" 
			},
			{
				"x": -2.4223773989,
				"y": -1.5588514025,
				"z": -0.4430956885,
				"element": "H" 
			},
			{
				"x": -1.2007131918,
				"y": -4.3962969741,
				"z": 2.8093718615,
				"element": "H" 
			},
			{
				"x": -2.0005815046,
				"y": -5.5258346432,
				"z": 1.7209709929,
				"element": "H" 
			},
			{
				"x": 0.6461779488,
				"y": -4.0804390792,
				"z": 1.1097167613,
				"element": "H" 
			},
			{
				"x": 0.5878423906,
				"y": -5.6342220936,
				"z": 1.9174906127,
				"element": "H" 
			},
			{
				"x": 1.1733647913,
				"y": -5.8222793834,
				"z": -0.4433109524,
				"element": "H" 
			},
			{
				"x": -1.6420890543,
				"y": -4.841033113,
				"z": -1.1101188887,
				"element": "H" 
			},
			{
				"x": -0.1253271996,
				"y": -4.1344045998,
				"z": -1.6816830989,
				"element": "H" 
			},
			{
				"x": -1.3187118563,
				"y": -6.0135783549,
				"z": -3.2305096154,
				"element": "H" 
			},
			{
				"x": 0.4135705671,
				"y": -6.1494067237,
				"z": -2.9500350858,
				"element": "H" 
			},
			{
				"x": -1.7663210066,
				"y": -7.8884742152,
				"z": -1.8109544566,
				"element": "H" 
			},
			{
				"x": -0.0716131481,
				"y": -8.2690801464,
				"z": -2.0560269233,
				"element": "H" 
			},
			{
				"x": -1.4185642915,
				"y": -7.1930854166,
				"z": 0.3789729404,
				"element": "H" 
			},
			{
				"x": 0.1925771731,
				"y": -7.8907151325,
				"z": 0.2923411457,
				"element": "H" 
			}
		],
		 "valence_orbital": [ 
			{
				"type": "occ",
				"energy": -0.28955,
				"method": "rhf"
			},
			{
				"type": "occ",
				"energy": -0.28315,
				"method": "rhf"
			},
			{
				"type": "occ",
				"energy": -0.2642,
				"method": "rhf"
			},
			{
				"type": "occ",
				"energy": -0.25307,
				"method": "rhf"
			},
			{
				"type": "occ",
				"energy": -0.22957,
				"method": "rhf"
			},
			{
				"type": "unocc",
				"energy": -0.04365,
				"method": "rhf"
			},
			{
				"type": "unocc",
				"energy": 0.01176,
				"method": "rhf"
			},
			{
				"type": "unocc",
				"energy": 0.0571,
				"method": "rhf"
			},
			{
				"type": "unocc",
				"energy": 0.06634,
				"method": "rhf"
			},
			{
				"type": "unocc",
				"energy": 0.07313,
				"method": "rhf"
			}
		],
		"cosmo_sigma_profile": { 
			"-0.025": 0.0,
			"-0.024": 0.0,
			"-0.023": 0.0,
			"-0.022": 0.0,
			"-0.021": 0.0,
			"-0.02": 0.0,
			"-0.019": 0.0,
			"-0.018": 0.0,
			"-0.017": 0.0,
			"-0.016": 0.0,
			"-0.015": 0.0,
			"-0.014": 0.0,
			"-0.013": 0.0,
			"-0.012": 0.0,
			"-0.011": 0.0,
			"-0.01": 0.0,
			"-0.009": 0.0,
			"-0.008": 0.0,
			"-0.007": 0.00190023112857,
			"-0.006": 2.1428676031,
			"-0.005": 9.26802185698,
			"-0.004": 26.4865325039,
			"-0.003": 54.9200954189,
			"-0.002": 86.6168142479,
			"-0.001": 88.6518207568,
			"0.0": 76.7361420894,
			"0.001": 45.9048333023,
			"0.002": 24.8881616037,
			"0.003": 10.4208325957,
			"0.004": 7.72613241251,
			"0.005": 4.87666829998,
			"0.006": 3.44433615957,
			"0.007": 3.78388279567,
			"0.008": 3.41600725112,
			"0.009": 2.72812025447,
			"0.01": 2.98062486833,
			"0.011": 4.13427570782,
			"0.012": 6.39995419052,
			"0.013": 7.4270583354,
			"0.014": 3.68073423484,
			"0.015": 0.833742658937,
			"0.016": 0.0,
			"0.017": 0.0,
			"0.018": 0.0,
			"0.019": 0.0,
			"0.02": 0.0,
			"0.021": 0.0,
			"0.022": 0.0,
			"0.023": 0.0,
			"0.024": 0.0,
			"0.025": 0.0
		}
	}
}
