{
	 "smiles": "OC(=O)C1=CNC2=C1C=CC(Cl)=C2", 
	 "Tm": 493.15, 
	 "num_atms": 19, 
	 "gaussian": { 
		 "optdone": 1, 
		 "sigma_profile": "yes", 
		 "theory": "DFT", 
		 "functional": "B3LYP", 
		 "basiset": "6-31G**", 
		 "properties": { 
			 "R2extent": 3511.8514, 
			 "electric_dipole_moment_norm": 6.24225299872, 
			 "electric_quadrupole_moment_norm": 14.0044698468, 
			 "total_energy": -1011.97960261, 
			 "HOMO_LUMO_gap": 0.18298, 
			 "cosmo_polarized_energy": -22.23, 
			 "cosmo_cavitation_energy": 25.67, 
			 "cosmo_dispersion_energy": -19.39, 
			 "cosmo_repulsion_energy": 1.52, 
			 "cosmo_total_nonelectrostatic_energy": 7.81, 
			 "SMD_solvation_energy": 5.04 
		},
		"coords": [
			{
				"x": -1.4411243123,
				"y": -2.8854808624,
				"z": 0.8122410201,
				"element": "O" 
			},
			{
				"x": -1.5600812893,
				"y": -1.5351110568,
				"z": 0.6403721528,
				"element": "C" 
			},
			{
				"x": -2.5710325127,
				"y": -0.9748118628,
				"z": 1.0018914613,
				"element": "O" 
			},
			{
				"x": -0.4257973592,
				"y": -0.8427931776,
				"z": 0.0059819116,
				"element": "C" 
			},
			{
				"x": 0.6331405243,
				"y": -1.3914908796,
				"z": -0.6910366705,
				"element": "C" 
			},
			{
				"x": 1.4575516701,
				"y": -0.3914725626,
				"z": -1.1397598195,
				"element": "N" 
			},
			{
				"x": 0.9485658588,
				"y": 0.8373810684,
				"z": -0.7518975456,
				"element": "C" 
			},
			{
				"x": -0.2467694627,
				"y": 0.590544705,
				"z": -0.0327765542,
				"element": "C" 
			},
			{
				"x": -0.9762686806,
				"y": 1.6781349969,
				"z": 0.4737240523,
				"element": "C" 
			},
			{
				"x": -0.5014309713,
				"y": 2.9643467023,
				"z": 0.2566370971,
				"element": "C" 
			},
			{
				"x": 0.6936916057,
				"y": 3.17040722,
				"z": -0.4605182737,
				"element": "C" 
			},
			{
				"x": 1.2556804277,
				"y": 4.8193062853,
				"z": -0.7093835734,
				"element": "Cl" 
			},
			{
				"x": 1.4442948276,
				"y": 2.12464251,
				"z": -0.980109302,
				"element": "C" 
			},
			{
				"x": -0.5277371913,
				"y": -3.1619416315,
				"z": 0.6582027416,
				"element": "H" 
			},
			{
				"x": 0.8521183391,
				"y": -2.4218930365,
				"z": -0.937146707,
				"element": "H" 
			},
			{
				"x": 2.2865727802,
				"y": -0.5307893484,
				"z": -1.6954571262,
				"element": "H" 
			},
			{
				"x": -1.8985481287,
				"y": 1.5019547127,
				"z": 1.0144180518,
				"element": "H" 
			},
			{
				"x": -1.0453747472,
				"y": 3.8229256779,
				"z": 0.6334515928,
				"element": "H" 
			},
			{
				"x": 2.3602486215,
				"y": 2.3083405397,
				"z": -1.5302345092,
				"element": "H" 
			}
		],
		 "valence_orbital": [ 
			{
				"type": "occ",
				"energy": -0.31384,
				"method": "rhf"
			},
			{
				"type": "occ",
				"energy": -0.2916,
				"method": "rhf"
			},
			{
				"type": "occ",
				"energy": -0.27071,
				"method": "rhf"
			},
			{
				"type": "occ",
				"energy": -0.2443,
				"method": "rhf"
			},
			{
				"type": "occ",
				"energy": -0.22819,
				"method": "rhf"
			},
			{
				"type": "unocc",
				"energy": -0.04521,
				"method": "rhf"
			},
			{
				"type": "unocc",
				"energy": -0.00975,
				"method": "rhf"
			},
			{
				"type": "unocc",
				"energy": 0.00474,
				"method": "rhf"
			},
			{
				"type": "unocc",
				"energy": 0.02742,
				"method": "rhf"
			},
			{
				"type": "unocc",
				"energy": 0.05231,
				"method": "rhf"
			}
		],
		"cosmo_sigma_profile": { 
			"-0.025": 0.0,
			"-0.024": 0.0,
			"-0.023": 0.0,
			"-0.022": 0.0,
			"-0.021": 0.0,
			"-0.02": 0.0,
			"-0.019": 0.445461138786,
			"-0.018": 1.25470776062,
			"-0.017": 2.11187212562,
			"-0.016": 3.1408540212,
			"-0.015": 2.64348336625,
			"-0.014": 1.97841558857,
			"-0.013": 2.53790546998,
			"-0.012": 3.15128934624,
			"-0.011": 3.66361638449,
			"-0.01": 3.70477918462,
			"-0.009": 3.43539376535,
			"-0.008": 3.60098640141,
			"-0.007": 4.25392745962,
			"-0.006": 4.67731864412,
			"-0.005": 6.08101374534,
			"-0.004": 6.96450998481,
			"-0.003": 6.41451951629,
			"-0.002": 8.82566895074,
			"-0.001": 9.3332516057,
			"0.0": 11.0049383915,
			"0.001": 15.4230758722,
			"0.002": 20.615487475,
			"0.003": 22.531054898,
			"0.004": 19.7387750602,
			"0.005": 12.7063630601,
			"0.006": 3.14142300784,
			"0.007": 2.03926626279,
			"0.008": 3.22753452007,
			"0.009": 2.6909294191,
			"0.01": 4.05732086556,
			"0.011": 4.99203350839,
			"0.012": 4.84112284697,
			"0.013": 2.76536335871,
			"0.014": 0.79444560188,
			"0.015": 0.0,
			"0.016": 0.0,
			"0.017": 0.0,
			"0.018": 0.0,
			"0.019": 0.0,
			"0.02": 0.0,
			"0.021": 0.0,
			"0.022": 0.0,
			"0.023": 0.0,
			"0.024": 0.0,
			"0.025": 0.0
		}
	}
}
