{
	 "smiles": "CC1=CC=C(C=CC(=O)C2=CC(=CC=C2)[N+]([O-])=O)C=C1", 
	 "Tm": 417.15, 
	 "num_atms": 33, 
	 "gaussian": { 
		 "optdone": 1, 
		 "sigma_profile": "yes", 
		 "theory": "DFT", 
		 "functional": "B3LYP", 
		 "basiset": "6-31G**", 
		 "properties": { 
			 "R2extent": 8649.1142, 
			 "electric_dipole_moment_norm": 3.60288619165, 
			 "electric_quadrupole_moment_norm": 33.6607696002, 
			 "total_energy": -897.855569124, 
			 "HOMO_LUMO_gap": 0.14145, 
			 "cosmo_polarized_energy": -13.81, 
			 "cosmo_cavitation_energy": 39.09, 
			 "cosmo_dispersion_energy": -27.35, 
			 "cosmo_repulsion_energy": 2.08, 
			 "cosmo_total_nonelectrostatic_energy": 13.82, 
			 "SMD_solvation_energy": 9.43 
		},
		"coords": [
			{
				"x": -0.7039224124,
				"y": 5.9780373779,
				"z": 3.8030634303,
				"element": "C" 
			},
			{
				"x": -0.8989912297,
				"y": 4.7536192803,
				"z": 2.9432134893,
				"element": "C" 
			},
			{
				"x": -2.1009006462,
				"y": 4.5546990499,
				"z": 2.2411699565,
				"element": "C" 
			},
			{
				"x": -2.2896911957,
				"y": 3.4423498857,
				"z": 1.4332431695,
				"element": "C" 
			},
			{
				"x": -1.2766629837,
				"y": 2.4722887441,
				"z": 1.2924399354,
				"element": "C" 
			},
			{
				"x": -1.4112039574,
				"y": 1.281445974,
				"z": 0.4543848602,
				"element": "C" 
			},
			{
				"x": -2.4860171832,
				"y": 0.9137456028,
				"z": -0.2769183227,
				"element": "C" 
			},
			{
				"x": -2.6324375187,
				"y": -0.3472170797,
				"z": -1.029252808,
				"element": "C" 
			},
			{
				"x": -3.7550723047,
				"y": -0.7811916064,
				"z": -1.2752728018,
				"element": "O" 
			},
			{
				"x": -1.4317493009,
				"y": -1.1316118869,
				"z": -1.4975115089,
				"element": "C" 
			},
			{
				"x": -0.2305529455,
				"y": -0.5297245483,
				"z": -1.886317898,
				"element": "C" 
			},
			{
				"x": 0.798962214,
				"y": -1.3333578633,
				"z": -2.3721831046,
				"element": "C" 
			},
			{
				"x": 0.6787024165,
				"y": -2.7164745379,
				"z": -2.4825839302,
				"element": "C" 
			},
			{
				"x": -0.5262842532,
				"y": -3.3085769882,
				"z": -2.1038437371,
				"element": "C" 
			},
			{
				"x": -1.5746223142,
				"y": -2.5230508554,
				"z": -1.6292814687,
				"element": "C" 
			},
			{
				"x": 2.0606504455,
				"y": -0.6940616397,
				"z": -2.785011922,
				"element": "N" 
			},
			{
				"x": 2.9538301467,
				"y": -1.4214770099,
				"z": -3.216858573,
				"element": "O" 
			},
			{
				"x": 2.1459192351,
				"y": 0.5280307165,
				"z": -2.6685602537,
				"element": "O" 
			},
			{
				"x": -0.0768537527,
				"y": 2.6721446293,
				"z": 1.9970024592,
				"element": "C" 
			},
			{
				"x": 0.1071519429,
				"y": 3.7904617394,
				"z": 2.8064897364,
				"element": "C" 
			},
			{
				"x": 0.1958780332,
				"y": 5.8966617687,
				"z": 4.4185343091,
				"element": "H" 
			},
			{
				"x": -1.5581831284,
				"y": 6.1373755223,
				"z": 4.4698246307,
				"element": "H" 
			},
			{
				"x": -0.604820101,
				"y": 6.8805188607,
				"z": 3.1875671339,
				"element": "H" 
			},
			{
				"x": -2.8989740905,
				"y": 5.2871893103,
				"z": 2.3341888757,
				"element": "H" 
			},
			{
				"x": -3.2322129784,
				"y": 3.3234177368,
				"z": 0.9082018137,
				"element": "H" 
			},
			{
				"x": -0.5407961392,
				"y": 0.6285801116,
				"z": 0.4569284937,
				"element": "H" 
			},
			{
				"x": -3.4029009075,
				"y": 1.4969416538,
				"z": -0.2603481802,
				"element": "H" 
			},
			{
				"x": -0.0875641104,
				"y": 0.541879648,
				"z": -1.8465962718,
				"element": "H" 
			},
			{
				"x": 1.5114674745,
				"y": -3.295136354,
				"z": -2.8621265817,
				"element": "H" 
			},
			{
				"x": -0.6464423845,
				"y": -4.3839930329,
				"z": -2.1877658697,
				"element": "H" 
			},
			{
				"x": -2.5262679179,
				"y": -2.9669736808,
				"z": -1.3570026765,
				"element": "H" 
			},
			{
				"x": 0.7205731774,
				"y": 1.9388922049,
				"z": 1.9061126814,
				"element": "H" 
			},
			{
				"x": 1.0457886701,
				"y": 3.9173672663,
				"z": 3.3393709338,
				"element": "H" 
			}
		],
		 "valence_orbital": [ 
			{
				"type": "occ",
				"energy": -0.2862,
				"method": "rhf"
			},
			{
				"type": "occ",
				"energy": -0.2821,
				"method": "rhf"
			},
			{
				"type": "occ",
				"energy": -0.26487,
				"method": "rhf"
			},
			{
				"type": "occ",
				"energy": -0.25636,
				"method": "rhf"
			},
			{
				"type": "occ",
				"energy": -0.2356,
				"method": "rhf"
			},
			{
				"type": "unocc",
				"energy": -0.09415,
				"method": "rhf"
			},
			{
				"type": "unocc",
				"energy": -0.08103,
				"method": "rhf"
			},
			{
				"type": "unocc",
				"energy": -0.04206,
				"method": "rhf"
			},
			{
				"type": "unocc",
				"energy": -0.01461,
				"method": "rhf"
			},
			{
				"type": "unocc",
				"energy": -0.00875,
				"method": "rhf"
			}
		],
		"cosmo_sigma_profile": { 
			"-0.025": 0.0,
			"-0.024": 0.0,
			"-0.023": 0.0,
			"-0.022": 0.0,
			"-0.021": 0.0,
			"-0.02": 0.0,
			"-0.019": 0.0,
			"-0.018": 0.0,
			"-0.017": 0.0,
			"-0.016": 0.0,
			"-0.015": 0.0,
			"-0.014": 0.0,
			"-0.013": 0.0,
			"-0.012": 0.0,
			"-0.011": 0.0,
			"-0.01": 0.0,
			"-0.009": 0.070124303381,
			"-0.008": 4.59362086558,
			"-0.007": 11.665686315,
			"-0.006": 16.9572513951,
			"-0.005": 21.832423475,
			"-0.004": 26.3726369056,
			"-0.003": 26.4466286286,
			"-0.002": 24.9010850047,
			"-0.001": 27.5239471145,
			"0.0": 28.357093132,
			"0.001": 23.6533352203,
			"0.002": 18.8502391871,
			"0.003": 13.4000238017,
			"0.004": 15.8207918323,
			"0.005": 9.56799816106,
			"0.006": 6.18951901675,
			"0.007": 10.3757836699,
			"0.008": 7.62778050285,
			"0.009": 6.42591198995,
			"0.01": 3.88345089049,
			"0.011": 2.7826671071,
			"0.012": 4.3217013915,
			"0.013": 1.81995896331,
			"0.014": 0.177216253319,
			"0.015": 0.0,
			"0.016": 0.0,
			"0.017": 0.0,
			"0.018": 0.0,
			"0.019": 0.0,
			"0.02": 0.0,
			"0.021": 0.0,
			"0.022": 0.0,
			"0.023": 0.0,
			"0.024": 0.0,
			"0.025": 0.0
		}
	}
}
