{
	 "smiles": "O=CC1=CC2=C(OC=C2)C=C1", 
	 "Tm": 310.65, 
	 "num_atms": 17, 
	 "gaussian": { 
		 "optdone": 1, 
		 "sigma_profile": "yes", 
		 "theory": "DFT", 
		 "functional": "B3LYP", 
		 "basiset": "6-31G**", 
		 "properties": { 
			 "R2extent": 2081.1699, 
			 "electric_dipole_moment_norm": 3.99772719805, 
			 "electric_quadrupole_moment_norm": 10.835708269, 
			 "total_energy": -496.998908797, 
			 "HOMO_LUMO_gap": 0.18138, 
			 "cosmo_polarized_energy": -8.7, 
			 "cosmo_cavitation_energy": 21.91, 
			 "cosmo_dispersion_energy": -16.3, 
			 "cosmo_repulsion_energy": 1.28, 
			 "cosmo_total_nonelectrostatic_energy": 6.89, 
			 "SMD_solvation_energy": 5.6 
		},
		"coords": [
			{
				"x": -3.9381661229,
				"y": -1.4086905992,
				"z": 0.1460481511,
				"element": "O" 
			},
			{
				"x": -2.8280610353,
				"y": -1.3065060108,
				"z": 0.6337734616,
				"element": "C" 
			},
			{
				"x": -1.5909388102,
				"y": -1.0367649869,
				"z": -0.1288652275,
				"element": "C" 
			},
			{
				"x": -0.3738111853,
				"y": -0.9445950432,
				"z": 0.5533159904,
				"element": "C" 
			},
			{
				"x": 0.7888066896,
				"y": -0.6889145323,
				"z": -0.1817847848,
				"element": "C" 
			},
			{
				"x": 0.6815340535,
				"y": -0.5353927403,
				"z": -1.5795136968,
				"element": "C" 
			},
			{
				"x": 1.9083833801,
				"y": -0.2936198893,
				"z": -2.1234782474,
				"element": "O" 
			},
			{
				"x": 2.7990766179,
				"y": -0.29250354,
				"z": -1.0745295065,
				"element": "C" 
			},
			{
				"x": 2.192745054,
				"y": -0.5233233078,
				"z": 0.1148297213,
				"element": "C" 
			},
			{
				"x": -0.5191053385,
				"y": -0.6225968827,
				"z": -2.2831976271,
				"element": "C" 
			},
			{
				"x": -1.658436625,
				"y": -0.8766372239,
				"z": -1.5337629339,
				"element": "C" 
			},
			{
				"x": -2.675367937,
				"y": -1.4190786156,
				"z": 1.7314793861,
				"element": "H" 
			},
			{
				"x": -0.3426018352,
				"y": -1.070641515,
				"z": 1.6329460746,
				"element": "H" 
			},
			{
				"x": 3.8272383551,
				"y": -0.1117898019,
				"z": -1.3488582135,
				"element": "H" 
			},
			{
				"x": 2.6734313306,
				"y": -0.5711717992,
				"z": 1.081261955,
				"element": "H" 
			},
			{
				"x": -0.5492937021,
				"y": -0.4967707969,
				"z": -3.3599823114,
				"element": "H" 
			},
			{
				"x": -2.6325328893,
				"y": -0.959502715,
				"z": -2.0044821913,
				"element": "H" 
			}
		],
		 "valence_orbital": [ 
			{
				"type": "occ",
				"energy": -0.35184,
				"method": "rhf"
			},
			{
				"type": "occ",
				"energy": -0.30816,
				"method": "rhf"
			},
			{
				"type": "occ",
				"energy": -0.25351,
				"method": "rhf"
			},
			{
				"type": "occ",
				"energy": -0.25214,
				"method": "rhf"
			},
			{
				"type": "occ",
				"energy": -0.23692,
				"method": "rhf"
			},
			{
				"type": "unocc",
				"energy": -0.05554,
				"method": "rhf"
			},
			{
				"type": "unocc",
				"energy": -0.03156,
				"method": "rhf"
			},
			{
				"type": "unocc",
				"energy": 0.03152,
				"method": "rhf"
			},
			{
				"type": "unocc",
				"energy": 0.06199,
				"method": "rhf"
			},
			{
				"type": "unocc",
				"energy": 0.10527,
				"method": "rhf"
			}
		],
		"cosmo_sigma_profile": { 
			"-0.025": 0.0,
			"-0.024": 0.0,
			"-0.023": 0.0,
			"-0.022": 0.0,
			"-0.021": 0.0,
			"-0.02": 0.0,
			"-0.019": 0.0,
			"-0.018": 0.0,
			"-0.017": 0.0,
			"-0.016": 0.0,
			"-0.015": 0.0,
			"-0.014": 0.0,
			"-0.013": 0.0,
			"-0.012": 0.0,
			"-0.011": 0.0,
			"-0.01": 0.92818193647,
			"-0.009": 1.91262929853,
			"-0.008": 4.66680616086,
			"-0.007": 9.72039982287,
			"-0.006": 11.3070328131,
			"-0.005": 12.1083067735,
			"-0.004": 9.73746821973,
			"-0.003": 9.58609343243,
			"-0.002": 8.70254454515,
			"-0.001": 10.0748437405,
			"0.0": 12.4758616003,
			"0.001": 17.5849908445,
			"0.002": 19.02811889,
			"0.003": 18.1085568899,
			"0.004": 6.37750809814,
			"0.005": 2.98452743619,
			"0.006": 2.78326725649,
			"0.007": 2.94525483772,
			"0.008": 3.2314383294,
			"0.009": 1.90482618767,
			"0.01": 2.54947103893,
			"0.011": 3.68525991658,
			"0.012": 3.63112421842,
			"0.013": 1.09227050181,
			"0.014": 0.0216624199028,
			"0.015": 0.0,
			"0.016": 0.0,
			"0.017": 0.0,
			"0.018": 0.0,
			"0.019": 0.0,
			"0.02": 0.0,
			"0.021": 0.0,
			"0.022": 0.0,
			"0.023": 0.0,
			"0.024": 0.0,
			"0.025": 0.0
		}
	}
}
