{
	 "smiles": "CC1=NC(=CC2=CC=CC3=C2C=CC=C3)C(=O)O1", 
	 "Tm": 517.15, 
	 "num_atms": 29, 
	 "gaussian": { 
		 "optdone": 1, 
		 "sigma_profile": "yes", 
		 "theory": "DFT", 
		 "functional": "B3LYP", 
		 "basiset": "6-31G**", 
		 "properties": { 
			 "R2extent": 6480.8054, 
			 "electric_dipole_moment_norm": 2.23831707539, 
			 "electric_quadrupole_moment_norm": 20.6396044519, 
			 "total_energy": -783.433117099, 
			 "HOMO_LUMO_gap": 0.1218, 
			 "cosmo_polarized_energy": -10.53, 
			 "cosmo_cavitation_energy": 33.47, 
			 "cosmo_dispersion_energy": -24.9, 
			 "cosmo_repulsion_energy": 1.87, 
			 "cosmo_total_nonelectrostatic_energy": 10.44, 
			 "SMD_solvation_energy": 4.94 
		},
		"coords": [
			{
				"x": 1.5340468155,
				"y": -5.2449742981,
				"z": -3.6337358627,
				"element": "C" 
			},
			{
				"x": 1.6499348189,
				"y": -3.9090618845,
				"z": -2.9957880422,
				"element": "C" 
			},
			{
				"x": 0.8147251226,
				"y": -3.3349336054,
				"z": -2.2079898086,
				"element": "N" 
			},
			{
				"x": 1.3825405196,
				"y": -2.0860092225,
				"z": -1.8784462409,
				"element": "C" 
			},
			{
				"x": 0.7054735444,
				"y": -1.241210656,
				"z": -1.0448821447,
				"element": "C" 
			},
			{
				"x": 0.968334414,
				"y": 0.0777975847,
				"z": -0.5027837496,
				"element": "C" 
			},
			{
				"x": 2.1434852739,
				"y": 0.7783470355,
				"z": -0.7845034457,
				"element": "C" 
			},
			{
				"x": 2.3906558716,
				"y": 2.0545704111,
				"z": -0.2484047387,
				"element": "C" 
			},
			{
				"x": 1.4681308201,
				"y": 2.6537415074,
				"z": 0.5786991926,
				"element": "C" 
			},
			{
				"x": 0.2526946749,
				"y": 1.9979001614,
				"z": 0.9042437861,
				"element": "C" 
			},
			{
				"x": -0.0205851437,
				"y": 0.6939921681,
				"z": 0.3668677528,
				"element": "C" 
			},
			{
				"x": -1.2565101269,
				"y": 0.0904141138,
				"z": 0.7268939264,
				"element": "C" 
			},
			{
				"x": -2.1563917667,
				"y": 0.7242004009,
				"z": 1.5576414635,
				"element": "C" 
			},
			{
				"x": -1.878172001,
				"y": 2.0055857836,
				"z": 2.0827376042,
				"element": "C" 
			},
			{
				"x": -0.6947009903,
				"y": 2.6250833598,
				"z": 1.7580068635,
				"element": "C" 
			},
			{
				"x": 2.6853503565,
				"y": -1.9886947993,
				"z": -2.5815091522,
				"element": "C" 
			},
			{
				"x": 3.5579910164,
				"y": -1.1554514011,
				"z": -2.6454879906,
				"element": "O" 
			},
			{
				"x": 2.7941328729,
				"y": -3.1940665418,
				"z": -3.2822116338,
				"element": "O" 
			},
			{
				"x": 0.5943422932,
				"y": -5.7082479465,
				"z": -3.3326653731,
				"element": "H" 
			},
			{
				"x": 2.3712789847,
				"y": -5.8854676224,
				"z": -3.3364239585,
				"element": "H" 
			},
			{
				"x": 1.5652116701,
				"y": -5.1526228975,
				"z": -4.7246461716,
				"element": "H" 
			},
			{
				"x": -0.2317466846,
				"y": -1.6954114023,
				"z": -0.7429806663,
				"element": "H" 
			},
			{
				"x": 2.8841232608,
				"y": 0.3273346198,
				"z": -1.4324048979,
				"element": "H" 
			},
			{
				"x": 3.3187462136,
				"y": 2.5614651355,
				"z": -0.4945573343,
				"element": "H" 
			},
			{
				"x": 1.655554356,
				"y": 3.6399293834,
				"z": 0.9957699972,
				"element": "H" 
			},
			{
				"x": -1.5187056968,
				"y": -0.8903640877,
				"z": 0.3492922281,
				"element": "H" 
			},
			{
				"x": -3.0903547697,
				"y": 0.2303147808,
				"z": 1.8096137068,
				"element": "H" 
			},
			{
				"x": -2.5953481322,
				"y": 2.4935582612,
				"z": 2.7358588496,
				"element": "H" 
			},
			{
				"x": -0.4614375879,
				"y": 3.611481658,
				"z": 2.1503958405,
				"element": "H" 
			}
		],
		 "valence_orbital": [ 
			{
				"type": "occ",
				"energy": -0.30129,
				"method": "rhf"
			},
			{
				"type": "occ",
				"energy": -0.27009,
				"method": "rhf"
			},
			{
				"type": "occ",
				"energy": -0.25294,
				"method": "rhf"
			},
			{
				"type": "occ",
				"energy": -0.25125,
				"method": "rhf"
			},
			{
				"type": "occ",
				"energy": -0.21146,
				"method": "rhf"
			},
			{
				"type": "unocc",
				"energy": -0.08966,
				"method": "rhf"
			},
			{
				"type": "unocc",
				"energy": -0.03212,
				"method": "rhf"
			},
			{
				"type": "unocc",
				"energy": -0.01515,
				"method": "rhf"
			},
			{
				"type": "unocc",
				"energy": 0.01782,
				"method": "rhf"
			},
			{
				"type": "unocc",
				"energy": 0.03227,
				"method": "rhf"
			}
		],
		"cosmo_sigma_profile": { 
			"-0.025": 0.0,
			"-0.024": 0.0,
			"-0.023": 0.0,
			"-0.022": 0.0,
			"-0.021": 0.0,
			"-0.02": 0.0,
			"-0.019": 0.0,
			"-0.018": 0.0,
			"-0.017": 0.0,
			"-0.016": 0.0,
			"-0.015": 0.0,
			"-0.014": 0.0,
			"-0.013": 0.0,
			"-0.012": 0.0,
			"-0.011": 0.0,
			"-0.01": 0.373415087891,
			"-0.009": 1.18587804959,
			"-0.008": 1.33779569384,
			"-0.007": 8.18542595782,
			"-0.006": 19.1413098135,
			"-0.005": 21.2042412607,
			"-0.004": 22.2099923218,
			"-0.003": 19.4527204438,
			"-0.002": 20.3903653139,
			"-0.001": 16.1635536997,
			"0.0": 16.1916952557,
			"0.001": 21.4314902569,
			"0.002": 23.543245636,
			"0.003": 26.2360883385,
			"0.004": 17.6448014342,
			"0.005": 7.7439130394,
			"0.006": 3.65465041094,
			"0.007": 5.27214195514,
			"0.008": 4.83444336555,
			"0.009": 3.41288807638,
			"0.01": 4.09474899767,
			"0.011": 3.235018045,
			"0.012": 1.17606347279,
			"0.013": 0.884657645098,
			"0.014": 0.869753984464,
			"0.015": 0.408480326623,
			"0.016": 0.0,
			"0.017": 0.0,
			"0.018": 0.0,
			"0.019": 0.0,
			"0.02": 0.0,
			"0.021": 0.0,
			"0.022": 0.0,
			"0.023": 0.0,
			"0.024": 0.0,
			"0.025": 0.0
		}
	}
}
