{
	 "smiles": "OCC1=CN(N=N1)C1=CC=C(Cl)C=C1", 
	 "Tm": 416.15, 
	 "num_atms": 22, 
	 "gaussian": { 
		 "optdone": 1, 
		 "sigma_profile": "yes", 
		 "theory": "DFT", 
		 "functional": "B3LYP", 
		 "basiset": "6-31G**", 
		 "properties": { 
			 "R2extent": 5003.7939, 
			 "electric_dipole_moment_norm": 3.09910643412, 
			 "electric_quadrupole_moment_norm": 12.883798112, 
			 "total_energy": -1047.3960784, 
			 "HOMO_LUMO_gap": 0.19511, 
			 "cosmo_polarized_energy": -13.95, 
			 "cosmo_cavitation_energy": 28.86, 
			 "cosmo_dispersion_energy": -21.55, 
			 "cosmo_repulsion_energy": 1.69, 
			 "cosmo_total_nonelectrostatic_energy": 9.01, 
			 "SMD_solvation_energy": 3.66 
		},
		"coords": [
			{
				"x": -3.5566723195,
				"y": 3.0932254275,
				"z": 2.1663299637,
				"element": "O" 
			},
			{
				"x": -2.3793782192,
				"y": 3.2345664705,
				"z": 1.3885357193,
				"element": "C" 
			},
			{
				"x": -1.979868822,
				"y": 1.9419831156,
				"z": 0.7370318664,
				"element": "C" 
			},
			{
				"x": -0.7957327501,
				"y": 1.2436343692,
				"z": 0.7209303093,
				"element": "C" 
			},
			{
				"x": -1.0575523127,
				"y": 0.139037328,
				"z": -0.0379582613,
				"element": "N" 
			},
			{
				"x": -2.3497274361,
				"y": 0.1559199239,
				"z": -0.4615382541,
				"element": "N" 
			},
			{
				"x": -2.8959921725,
				"y": 1.2400928042,
				"z": 0.0025658576,
				"element": "N" 
			},
			{
				"x": -0.1966902529,
				"y": -0.9321091549,
				"z": -0.3980503631,
				"element": "C" 
			},
			{
				"x": -0.461353704,
				"y": -1.661801942,
				"z": -1.5617226764,
				"element": "C" 
			},
			{
				"x": 0.3765394253,
				"y": -2.712751742,
				"z": -1.9232440142,
				"element": "C" 
			},
			{
				"x": 1.4804786013,
				"y": -3.0203891525,
				"z": -1.1265883876,
				"element": "C" 
			},
			{
				"x": 2.5431913719,
				"y": -4.3366969978,
				"z": -1.5902489366,
				"element": "Cl" 
			},
			{
				"x": 1.7488283597,
				"y": -2.2976332308,
				"z": 0.0350962629,
				"element": "C" 
			},
			{
				"x": 0.9011513981,
				"y": -1.2549712509,
				"z": 0.4043778299,
				"element": "C" 
			},
			{
				"x": -4.1992383762,
				"y": 2.6308366551,
				"z": 1.6094065562,
				"element": "H" 
			},
			{
				"x": -2.5078280514,
				"y": 4.0064078125,
				"z": 0.6122357902,
				"element": "H" 
			},
			{
				"x": -1.5884870571,
				"y": 3.5796553638,
				"z": 2.0612523731,
				"element": "H" 
			},
			{
				"x": 0.1736150023,
				"y": 1.4476869487,
				"z": 1.1453849853,
				"element": "H" 
			},
			{
				"x": -1.3203273363,
				"y": -1.401939883,
				"z": -2.1680534756,
				"element": "H" 
			},
			{
				"x": 0.1795178484,
				"y": -3.2842332796,
				"z": -2.8231448718,
				"element": "H" 
			},
			{
				"x": 2.6024065559,
				"y": -2.5544099374,
				"z": 0.6519552351,
				"element": "H" 
			},
			{
				"x": 1.089120247,
				"y": -0.7140096479,
				"z": 1.3254464918,
				"element": "H" 
			}
		],
		 "valence_orbital": [ 
			{
				"type": "occ",
				"energy": -0.28501,
				"method": "rhf"
			},
			{
				"type": "occ",
				"energy": -0.28007,
				"method": "rhf"
			},
			{
				"type": "occ",
				"energy": -0.27399,
				"method": "rhf"
			},
			{
				"type": "occ",
				"energy": -0.26879,
				"method": "rhf"
			},
			{
				"type": "occ",
				"energy": -0.24691,
				"method": "rhf"
			},
			{
				"type": "unocc",
				"energy": -0.0518,
				"method": "rhf"
			},
			{
				"type": "unocc",
				"energy": -0.03401,
				"method": "rhf"
			},
			{
				"type": "unocc",
				"energy": 0.00678,
				"method": "rhf"
			},
			{
				"type": "unocc",
				"energy": 0.01687,
				"method": "rhf"
			},
			{
				"type": "unocc",
				"energy": 0.03362,
				"method": "rhf"
			}
		],
		"cosmo_sigma_profile": { 
			"-0.025": 0.0,
			"-0.024": 0.0,
			"-0.023": 0.0,
			"-0.022": 0.0,
			"-0.021": 0.0,
			"-0.02": 0.0,
			"-0.019": 0.0,
			"-0.018": 0.0,
			"-0.017": 0.0,
			"-0.016": 0.0,
			"-0.015": 0.0,
			"-0.014": 0.159381342404,
			"-0.013": 0.815224781758,
			"-0.012": 0.469595882906,
			"-0.011": 2.31598658364,
			"-0.01": 3.02954570084,
			"-0.009": 3.62562204179,
			"-0.008": 7.35723452299,
			"-0.007": 10.9405676605,
			"-0.006": 11.916594904,
			"-0.005": 11.3340560001,
			"-0.004": 12.5470371658,
			"-0.003": 13.3558381771,
			"-0.002": 13.748074645,
			"-0.001": 15.7352335115,
			"0.0": 18.1689051312,
			"0.001": 21.5396853929,
			"0.002": 23.5371151732,
			"0.003": 12.3356753604,
			"0.004": 13.0383163222,
			"0.005": 7.18860191227,
			"0.006": 3.09763443794,
			"0.007": 3.21206521914,
			"0.008": 3.0743280632,
			"0.009": 3.77073531805,
			"0.01": 4.46891775575,
			"0.011": 4.19816522084,
			"0.012": 3.6468983876,
			"0.013": 2.66702502627,
			"0.014": 2.57496146036,
			"0.015": 0.0488618103732,
			"0.016": 0.0,
			"0.017": 0.0,
			"0.018": 0.0,
			"0.019": 0.0,
			"0.02": 0.0,
			"0.021": 0.0,
			"0.022": 0.0,
			"0.023": 0.0,
			"0.024": 0.0,
			"0.025": 0.0
		}
	}
}
