{
	 "smiles": "CC(=O)NC1(CCCCCC1)C1=NOC(CCC(O)=O)=N1", 
	 "Tm": 423.15, 
	 "num_atms": 42, 
	 "gaussian": { 
		 "optdone": 1, 
		 "sigma_profile": "yes", 
		 "theory": "DFT", 
		 "functional": "B3LYP", 
		 "basiset": "6-31G**", 
		 "properties": { 
			 "R2extent": 6613.4809, 
			 "electric_dipole_moment_norm": 7.42790355013, 
			 "electric_quadrupole_moment_norm": 28.5530522409, 
			 "total_energy": -1011.28503683, 
			 "HOMO_LUMO_gap": 0.20388, 
			 "cosmo_polarized_energy": -27.52, 
			 "cosmo_cavitation_energy": 42.66, 
			 "cosmo_dispersion_energy": -28.43, 
			 "cosmo_repulsion_energy": 2.2, 
			 "cosmo_total_nonelectrostatic_energy": 16.43, 
			 "SMD_solvation_energy": 7.42 
		},
		"coords": [
			{
				"x": 0.6758690319,
				"y": -2.8694141428,
				"z": -2.629836666,
				"element": "C" 
			},
			{
				"x": 2.0949367277,
				"y": -2.4806267914,
				"z": -2.2494775369,
				"element": "C" 
			},
			{
				"x": 3.0532343194,
				"y": -2.9441843561,
				"z": -2.853945299,
				"element": "O" 
			},
			{
				"x": 2.3126169011,
				"y": -1.6382441192,
				"z": -1.1783168909,
				"element": "N" 
			},
			{
				"x": 1.4036980246,
				"y": -0.8340093375,
				"z": -0.3483478528,
				"element": "C" 
			},
			{
				"x": 0.4702567824,
				"y": -1.7376530366,
				"z": 0.51278845,
				"element": "C" 
			},
			{
				"x": 1.1114403307,
				"y": -2.2859023871,
				"z": 1.7980849669,
				"element": "C" 
			},
			{
				"x": 1.2780663346,
				"y": -1.2648468643,
				"z": 2.9691184958,
				"element": "C" 
			},
			{
				"x": 0.8400822231,
				"y": 0.1770104038,
				"z": 2.6613665357,
				"element": "C" 
			},
			{
				"x": 1.7232109156,
				"y": 0.9128087212,
				"z": 1.6302223753,
				"element": "C" 
			},
			{
				"x": 2.3511116994,
				"y": 0.0287521468,
				"z": 0.542554904,
				"element": "C" 
			},
			{
				"x": 0.5862505435,
				"y": 0.1257712555,
				"z": -1.2014242458,
				"element": "C" 
			},
			{
				"x": 0.9621178677,
				"y": 0.5082486923,
				"z": -2.3967840066,
				"element": "N" 
			},
			{
				"x": -0.0142350491,
				"y": 1.461968123,
				"z": -2.753805811,
				"element": "O" 
			},
			{
				"x": -0.8656513873,
				"y": 1.5418614417,
				"z": -1.7240841902,
				"element": "C" 
			},
			{
				"x": -2.0130322879,
				"y": 2.4945263875,
				"z": -1.8158996466,
				"element": "C" 
			},
			{
				"x": -2.763880758,
				"y": 2.6028086333,
				"z": -0.4886136844,
				"element": "C" 
			},
			{
				"x": -1.9224244713,
				"y": 3.2878267643,
				"z": 0.5860616327,
				"element": "C" 
			},
			{
				"x": -2.3973807769,
				"y": 3.1886537301,
				"z": 1.8522935339,
				"element": "O" 
			},
			{
				"x": -0.9165898901,
				"y": 3.9123987442,
				"z": 0.3589954625,
				"element": "O" 
			},
			{
				"x": -0.56235101,
				"y": 0.742677103,
				"z": -0.7428293699,
				"element": "N" 
			},
			{
				"x": -0.0815555731,
				"y": -2.127859288,
				"z": -2.3756333028,
				"element": "H" 
			},
			{
				"x": 0.6655750927,
				"y": -3.044522138,
				"z": -3.7065881427,
				"element": "H" 
			},
			{
				"x": 0.41966111,
				"y": -3.8137541228,
				"z": -2.1367920396,
				"element": "H" 
			},
			{
				"x": 3.2989736293,
				"y": -1.4299037022,
				"z": -1.0885506842,
				"element": "H" 
			},
			{
				"x": -0.4370330319,
				"y": -1.1796864279,
				"z": 0.7517675339,
				"element": "H" 
			},
			{
				"x": 0.1516185689,
				"y": -2.5807693021,
				"z": -0.1047166667,
				"element": "H" 
			},
			{
				"x": 0.4868540242,
				"y": -3.1182125736,
				"z": 2.1411492151,
				"element": "H" 
			},
			{
				"x": 2.0783119065,
				"y": -2.7356887792,
				"z": 1.5435534879,
				"element": "H" 
			},
			{
				"x": 0.7007569294,
				"y": -1.617524336,
				"z": 3.8314647465,
				"element": "H" 
			},
			{
				"x": 2.3236909182,
				"y": -1.2556689827,
				"z": 3.3018707344,
				"element": "H" 
			},
			{
				"x": -0.2006209935,
				"y": 0.1802271807,
				"z": 2.3204306592,
				"element": "H" 
			},
			{
				"x": 0.8421197492,
				"y": 0.7529735948,
				"z": 3.5942547915,
				"element": "H" 
			},
			{
				"x": 2.5643039196,
				"y": 1.385539183,
				"z": 2.1528714081,
				"element": "H" 
			},
			{
				"x": 1.1518499147,
				"y": 1.7305057343,
				"z": 1.179102628,
				"element": "H" 
			},
			{
				"x": 2.9456600753,
				"y": 0.6586468532,
				"z": -0.1297988123,
				"element": "H" 
			},
			{
				"x": 3.050581769,
				"y": -0.6715097839,
				"z": 1.0140433678,
				"element": "H" 
			},
			{
				"x": -2.6906283286,
				"y": 2.1635981659,
				"z": -2.6114168988,
				"element": "H" 
			},
			{
				"x": -1.6248103838,
				"y": 3.475177892,
				"z": -2.1068617555,
				"element": "H" 
			},
			{
				"x": -3.0663477428,
				"y": 1.6090930932,
				"z": -0.140381253,
				"element": "H" 
			},
			{
				"x": -3.6789870438,
				"y": 3.191995539,
				"z": -0.6286091469,
				"element": "H" 
			},
			{
				"x": -3.1879205803,
				"y": 2.6310110886,
				"z": 1.8758189734,
				"element": "H" 
			}
		],
		 "valence_orbital": [ 
			{
				"type": "occ",
				"energy": -0.30371,
				"method": "rhf"
			},
			{
				"type": "occ",
				"energy": -0.28976,
				"method": "rhf"
			},
			{
				"type": "occ",
				"energy": -0.28513,
				"method": "rhf"
			},
			{
				"type": "occ",
				"energy": -0.24384,
				"method": "rhf"
			},
			{
				"type": "occ",
				"energy": -0.23601,
				"method": "rhf"
			},
			{
				"type": "unocc",
				"energy": -0.03213,
				"method": "rhf"
			},
			{
				"type": "unocc",
				"energy": -0.00382,
				"method": "rhf"
			},
			{
				"type": "unocc",
				"energy": 0.02796,
				"method": "rhf"
			},
			{
				"type": "unocc",
				"energy": 0.03615,
				"method": "rhf"
			},
			{
				"type": "unocc",
				"energy": 0.03961,
				"method": "rhf"
			}
		],
		"cosmo_sigma_profile": { 
			"-0.025": 0.0,
			"-0.024": 0.0,
			"-0.023": 0.0,
			"-0.022": 0.0,
			"-0.021": 0.0,
			"-0.02": 0.112186595871,
			"-0.019": 0.810904193301,
			"-0.018": 1.3688984838,
			"-0.017": 0.749464327004,
			"-0.016": 1.4614347234,
			"-0.015": 1.18175905053,
			"-0.014": 0.459291785834,
			"-0.013": 1.12720017702,
			"-0.012": 1.62607302056,
			"-0.011": 1.70896699252,
			"-0.01": 1.95161966118,
			"-0.009": 3.4132960202,
			"-0.008": 6.33457188168,
			"-0.007": 11.1586966922,
			"-0.006": 15.5642462457,
			"-0.005": 16.8195893709,
			"-0.004": 18.8173499708,
			"-0.003": 26.3337250453,
			"-0.002": 35.6971013258,
			"-0.001": 34.2290778879,
			"0.0": 26.2968591497,
			"0.001": 21.889679973,
			"0.002": 12.1682309877,
			"0.003": 10.6369172399,
			"0.004": 9.09758579986,
			"0.005": 9.57394600641,
			"0.006": 9.99274096025,
			"0.007": 8.19452761116,
			"0.008": 5.42435168236,
			"0.009": 6.77317061572,
			"0.01": 6.17126879864,
			"0.011": 6.61609690413,
			"0.012": 6.35878148375,
			"0.013": 4.80069681471,
			"0.014": 5.99880943921,
			"0.015": 1.7707335346,
			"0.016": 0.0635177304074,
			"0.017": 0.0,
			"0.018": 0.0,
			"0.019": 0.0,
			"0.02": 0.0,
			"0.021": 0.0,
			"0.022": 0.0,
			"0.023": 0.0,
			"0.024": 0.0,
			"0.025": 0.0
		}
	}
}
