{
	 "smiles": "OC(=O)CCC1=C(F)C=CC(F)=C1", 
	 "Tm": 345.15, 
	 "num_atms": 21, 
	 "gaussian": { 
		 "optdone": 1, 
		 "sigma_profile": "yes", 
		 "theory": "DFT", 
		 "functional": "B3LYP", 
		 "basiset": "6-31G**", 
		 "properties": { 
			 "R2extent": 3334.1826, 
			 "electric_dipole_moment_norm": 4.80306945609, 
			 "electric_quadrupole_moment_norm": 16.604821897, 
			 "total_energy": -697.907176123, 
			 "HOMO_LUMO_gap": 0.22009, 
			 "cosmo_polarized_energy": -12.93, 
			 "cosmo_cavitation_energy": 25.95, 
			 "cosmo_dispersion_energy": -18.74, 
			 "cosmo_repulsion_energy": 1.44, 
			 "cosmo_total_nonelectrostatic_energy": 8.65, 
			 "SMD_solvation_energy": 6.19 
		},
		"coords": [
			{
				"x": -0.8549967812,
				"y": -0.9980549874,
				"z": -2.8547215272,
				"element": "O" 
			},
			{
				"x": -0.9461110756,
				"y": -1.9393414556,
				"z": -1.8784786496,
				"element": "C" 
			},
			{
				"x": -1.7229464321,
				"y": -2.8554088231,
				"z": -1.9796058296,
				"element": "O" 
			},
			{
				"x": -0.0128789566,
				"y": -1.724009049,
				"z": -0.6922806018,
				"element": "C" 
			},
			{
				"x": -0.3032684609,
				"y": -0.39395395,
				"z": 0.0730200919,
				"element": "C" 
			},
			{
				"x": 0.9429652274,
				"y": 0.3810291204,
				"z": 0.4290666477,
				"element": "C" 
			},
			{
				"x": 1.699461987,
				"y": 0.9945338899,
				"z": -0.5720625611,
				"element": "C" 
			},
			{
				"x": 1.2751232561,
				"y": 0.8694727512,
				"z": -1.869195055,
				"element": "F" 
			},
			{
				"x": 2.8539817924,
				"y": 1.7209497382,
				"z": -0.3286134118,
				"element": "C" 
			},
			{
				"x": 3.2973129865,
				"y": 1.8537197012,
				"z": 0.9887426129,
				"element": "C" 
			},
			{
				"x": 2.5596902668,
				"y": 1.2502376851,
				"z": 2.0003364309,
				"element": "C" 
			},
			{
				"x": 2.9775926787,
				"y": 1.3715443026,
				"z": 3.2759459252,
				"element": "F" 
			},
			{
				"x": 1.4005439313,
				"y": 0.5238031849,
				"z": 1.7428456589,
				"element": "C" 
			},
			{
				"x": -0.1566017985,
				"y": -0.3579955675,
				"z": -2.6433983738,
				"element": "H" 
			},
			{
				"x": 1.0163571639,
				"y": -1.7203770478,
				"z": -1.0690518783,
				"element": "H" 
			},
			{
				"x": -0.1148452753,
				"y": -2.5847090879,
				"z": -0.0305320078,
				"element": "H" 
			},
			{
				"x": -0.9501358137,
				"y": 0.2455062508,
				"z": -0.5378535257,
				"element": "H" 
			},
			{
				"x": -0.8663406237,
				"y": -0.6147963768,
				"z": 0.9829921878,
				"element": "H" 
			},
			{
				"x": 3.3891832795,
				"y": 2.1729516486,
				"z": -1.1561583107,
				"element": "H" 
			},
			{
				"x": 4.1939824327,
				"y": 2.412080723,
				"z": 1.2317886806,
				"element": "H" 
			},
			{
				"x": 0.8601302151,
				"y": 0.0752173493,
				"z": 2.5699134967,
				"element": "H" 
			}
		],
		 "valence_orbital": [ 
			{
				"type": "occ",
				"energy": -0.35988,
				"method": "rhf"
			},
			{
				"type": "occ",
				"energy": -0.30992,
				"method": "rhf"
			},
			{
				"type": "occ",
				"energy": -0.28247,
				"method": "rhf"
			},
			{
				"type": "occ",
				"energy": -0.26541,
				"method": "rhf"
			},
			{
				"type": "occ",
				"energy": -0.2558,
				"method": "rhf"
			},
			{
				"type": "unocc",
				"energy": -0.03571,
				"method": "rhf"
			},
			{
				"type": "unocc",
				"energy": -0.01727,
				"method": "rhf"
			},
			{
				"type": "unocc",
				"energy": 0.01167,
				"method": "rhf"
			},
			{
				"type": "unocc",
				"energy": 0.05758,
				"method": "rhf"
			},
			{
				"type": "unocc",
				"energy": 0.07159,
				"method": "rhf"
			}
		],
		"cosmo_sigma_profile": { 
			"-0.025": 0.0,
			"-0.024": 0.0,
			"-0.023": 0.0,
			"-0.022": 0.0,
			"-0.021": 0.0,
			"-0.02": 0.0,
			"-0.019": 0.0,
			"-0.018": 0.0,
			"-0.017": 0.0,
			"-0.016": 0.0,
			"-0.015": 0.0,
			"-0.014": 0.0,
			"-0.013": 0.0,
			"-0.012": 0.025081506073,
			"-0.011": 0.379136907702,
			"-0.01": 0.993247858995,
			"-0.009": 2.61386249537,
			"-0.008": 5.90150896614,
			"-0.007": 10.7760638715,
			"-0.006": 14.4607548656,
			"-0.005": 17.1722435228,
			"-0.004": 12.7095571145,
			"-0.003": 13.4574444164,
			"-0.002": 10.8995459295,
			"-0.001": 10.156286787,
			"0.0": 15.7003574231,
			"0.001": 16.4547275184,
			"0.002": 17.6195742687,
			"0.003": 12.6578967748,
			"0.004": 11.522443347,
			"0.005": 4.9068911491,
			"0.006": 2.2233220783,
			"0.007": 2.16267821486,
			"0.008": 2.00740052096,
			"0.009": 3.57465840707,
			"0.01": 4.86084943178,
			"0.011": 5.36733891683,
			"0.012": 6.13807799263,
			"0.013": 2.48036952885,
			"0.014": 0.0749172509521,
			"0.015": 0.0,
			"0.016": 0.0,
			"0.017": 0.0,
			"0.018": 0.0,
			"0.019": 0.0,
			"0.02": 0.0,
			"0.021": 0.0,
			"0.022": 0.0,
			"0.023": 0.0,
			"0.024": 0.0,
			"0.025": 0.0
		}
	}
}
