{
	 "smiles": "NC(=O)C1CC2=C(CN1)N=CN2", 
	 "Tm": 523.15, 
	 "num_atms": 22, 
	 "gaussian": { 
		 "optdone": 1, 
		 "sigma_profile": "yes", 
		 "theory": "DFT", 
		 "functional": "B3LYP", 
		 "basiset": "6-31G**", 
		 "properties": { 
			 "R2extent": 2572.6293, 
			 "electric_dipole_moment_norm": 2.46658152105, 
			 "electric_quadrupole_moment_norm": 24.4351327815, 
			 "total_energy": -567.010552247, 
			 "HOMO_LUMO_gap": 0.2332, 
			 "cosmo_polarized_energy": -20.44, 
			 "cosmo_cavitation_energy": 24.56, 
			 "cosmo_dispersion_energy": -18.61, 
			 "cosmo_repulsion_energy": 1.5, 
			 "cosmo_total_nonelectrostatic_energy": 7.44, 
			 "SMD_solvation_energy": 1.74 
		},
		"coords": [
			{
				"x": 2.5598679238,
				"y": -1.4261841082,
				"z": 0.5812548948,
				"element": "N" 
			},
			{
				"x": 2.5908467742,
				"y": -0.0690226311,
				"z": 0.6084676842,
				"element": "C" 
			},
			{
				"x": 3.4114064323,
				"y": 0.5835054868,
				"z": 1.2406170471,
				"element": "O" 
			},
			{
				"x": 1.5354851047,
				"y": 0.5917695375,
				"z": -0.3115819103,
				"element": "C" 
			},
			{
				"x": 1.2479199375,
				"y": 2.0480149081,
				"z": 0.1400552745,
				"element": "C" 
			},
			{
				"x": 0.1196387308,
				"y": 2.0217243531,
				"z": 1.1145822907,
				"element": "C" 
			},
			{
				"x": -0.7041623503,
				"y": 0.9589502654,
				"z": 1.3785951485,
				"element": "C" 
			},
			{
				"x": -0.5357927862,
				"y": -0.3687848785,
				"z": 0.7039917462,
				"element": "C" 
			},
			{
				"x": 0.3596527311,
				"y": -0.2835533961,
				"z": -0.4737765808,
				"element": "N" 
			},
			{
				"x": -1.6374160309,
				"y": 1.2746508896,
				"z": 2.3440225331,
				"element": "N" 
			},
			{
				"x": -1.3833795402,
				"y": 2.5269279866,
				"z": 2.6576240811,
				"element": "C" 
			},
			{
				"x": -0.3296562573,
				"y": 3.0337363442,
				"z": 1.9407649984,
				"element": "N" 
			},
			{
				"x": 1.8296397458,
				"y": -1.8886090177,
				"z": 0.0590762505,
				"element": "H" 
			},
			{
				"x": 3.2285213192,
				"y": -1.9422578556,
				"z": 1.1306999068,
				"element": "H" 
			},
			{
				"x": 2.018431671,
				"y": 0.6341380901,
				"z": -1.2966776357,
				"element": "H" 
			},
			{
				"x": 2.1675940464,
				"y": 2.4471895936,
				"z": 0.5811221041,
				"element": "H" 
			},
			{
				"x": 1.0031852168,
				"y": 2.6654347585,
				"z": -0.7359802599,
				"element": "H" 
			},
			{
				"x": -0.1233173861,
				"y": -1.1047791176,
				"z": 1.4074974105,
				"element": "H" 
			},
			{
				"x": -1.497532004,
				"y": -0.7709627503,
				"z": 0.3680564077,
				"element": "H" 
			},
			{
				"x": -0.1791580276,
				"y": 0.0475699259,
				"z": -1.2689066482,
				"element": "H" 
			},
			{
				"x": -1.9216248138,
				"y": 3.1196702818,
				"z": 3.3848053867,
				"element": "H" 
			},
			{
				"x": 0.0650495629,
				"y": 3.9579713341,
				"z": 2.02648987,
				"element": "H" 
			}
		],
		 "valence_orbital": [ 
			{
				"type": "occ",
				"energy": -0.26347,
				"method": "rhf"
			},
			{
				"type": "occ",
				"energy": -0.26136,
				"method": "rhf"
			},
			{
				"type": "occ",
				"energy": -0.25392,
				"method": "rhf"
			},
			{
				"type": "occ",
				"energy": -0.23104,
				"method": "rhf"
			},
			{
				"type": "occ",
				"energy": -0.21045,
				"method": "rhf"
			},
			{
				"type": "unocc",
				"energy": 0.02275,
				"method": "rhf"
			},
			{
				"type": "unocc",
				"energy": 0.03891,
				"method": "rhf"
			},
			{
				"type": "unocc",
				"energy": 0.06773,
				"method": "rhf"
			},
			{
				"type": "unocc",
				"energy": 0.08086,
				"method": "rhf"
			},
			{
				"type": "unocc",
				"energy": 0.08557,
				"method": "rhf"
			}
		],
		"cosmo_sigma_profile": { 
			"-0.025": 0.0,
			"-0.024": 0.0,
			"-0.023": 0.0,
			"-0.022": 0.0,
			"-0.021": 0.0,
			"-0.02": 0.0,
			"-0.019": 0.0,
			"-0.018": 0.0,
			"-0.017": 0.0399803833593,
			"-0.016": 1.08900492721,
			"-0.015": 1.73139541484,
			"-0.014": 1.85145549173,
			"-0.013": 2.11389554985,
			"-0.012": 2.0486707277,
			"-0.011": 4.67631096013,
			"-0.01": 4.27635065502,
			"-0.009": 3.81124719843,
			"-0.008": 7.6745962833,
			"-0.007": 6.72531179082,
			"-0.006": 8.54778152084,
			"-0.005": 10.3010248164,
			"-0.004": 11.4822700779,
			"-0.003": 12.6347927342,
			"-0.002": 11.6522278347,
			"-0.001": 10.4829658949,
			"0.0": 9.54052388277,
			"0.001": 8.11414440289,
			"0.002": 7.52748895276,
			"0.003": 8.76571401422,
			"0.004": 9.13680151308,
			"0.005": 7.99983788085,
			"0.006": 4.56232721505,
			"0.007": 3.57125331219,
			"0.008": 3.81520588107,
			"0.009": 3.4316967544,
			"0.01": 3.4105703933,
			"0.011": 2.78708469436,
			"0.012": 3.00121518676,
			"0.013": 4.46571559637,
			"0.014": 6.2713484098,
			"0.015": 2.29363477072,
			"0.016": 1.07305408196,
			"0.017": 1.1311938584,
			"0.018": 0.852020461465,
			"0.019": 0.290166179201,
			"0.02": 0.0,
			"0.021": 0.0,
			"0.022": 0.0,
			"0.023": 0.0,
			"0.024": 0.0,
			"0.025": 0.0
		}
	}
}
