{
	 "smiles": "CC(CC(N)=O)N1N=NC2=C1C=CC=C2", 
	 "Tm": 376.15, 
	 "num_atms": 27, 
	 "gaussian": { 
		 "optdone": 1, 
		 "sigma_profile": "yes", 
		 "theory": "DFT", 
		 "functional": "B3LYP", 
		 "basiset": "6-31G**", 
		 "properties": { 
			 "R2extent": 3301.5706, 
			 "electric_dipole_moment_norm": 2.53471971034, 
			 "electric_quadrupole_moment_norm": 13.6324774726, 
			 "total_energy": -682.521227396, 
			 "HOMO_LUMO_gap": 0.19141, 
			 "cosmo_polarized_energy": -16.19, 
			 "cosmo_cavitation_energy": 30.85, 
			 "cosmo_dispersion_energy": -21.53, 
			 "cosmo_repulsion_energy": 1.69, 
			 "cosmo_total_nonelectrostatic_energy": 11.01, 
			 "SMD_solvation_energy": 4.23 
		},
		"coords": [
			{
				"x": -1.3886261861,
				"y": -1.8570635742,
				"z": -1.1436572403,
				"element": "C" 
			},
			{
				"x": -0.0269465303,
				"y": -1.335380102,
				"z": -0.6681366105,
				"element": "C" 
			},
			{
				"x": 1.136382794,
				"y": -1.8936858561,
				"z": -1.5034789845,
				"element": "C" 
			},
			{
				"x": 2.4936781525,
				"y": -1.5171953934,
				"z": -0.904673873,
				"element": "C" 
			},
			{
				"x": 3.1916978034,
				"y": -0.5698946557,
				"z": -1.5993065009,
				"element": "N" 
			},
			{
				"x": 2.9080405362,
				"y": -2.0508102736,
				"z": 0.1153589221,
				"element": "O" 
			},
			{
				"x": -0.008129079,
				"y": 0.1367982491,
				"z": -0.6752172114,
				"element": "N" 
			},
			{
				"x": 0.395126749,
				"y": 0.8359828935,
				"z": -1.7764023994,
				"element": "N" 
			},
			{
				"x": 0.2322428729,
				"y": 2.104555641,
				"z": -1.5721782073,
				"element": "N" 
			},
			{
				"x": -0.3067135568,
				"y": 2.2728841373,
				"z": -0.3157193204,
				"element": "C" 
			},
			{
				"x": -0.4714419136,
				"y": 1.0032064452,
				"z": 0.2760155904,
				"element": "C" 
			},
			{
				"x": -1.0001350792,
				"y": 0.8439590253,
				"z": 1.5673511156,
				"element": "C" 
			},
			{
				"x": -1.3519492233,
				"y": 2.007060538,
				"z": 2.2351646623,
				"element": "C" 
			},
			{
				"x": -1.1901783801,
				"y": 3.2887142046,
				"z": 1.6510916907,
				"element": "C" 
			},
			{
				"x": -0.6681757034,
				"y": 3.4408056426,
				"z": 0.3775362448,
				"element": "C" 
			},
			{
				"x": -1.4229992242,
				"y": -2.94775733,
				"z": -1.0647432331,
				"element": "H" 
			},
			{
				"x": -2.199508106,
				"y": -1.4436255413,
				"z": -0.5370280029,
				"element": "H" 
			},
			{
				"x": -1.5632984885,
				"y": -1.5772216727,
				"z": -2.1868770569,
				"element": "H" 
			},
			{
				"x": 0.1427264801,
				"y": -1.6290812648,
				"z": 0.3733435446,
				"element": "H" 
			},
			{
				"x": 1.0386253765,
				"y": -1.5708861397,
				"z": -2.542519291,
				"element": "H" 
			},
			{
				"x": 1.0688783153,
				"y": -2.9844909786,
				"z": -1.4721764808,
				"element": "H" 
			},
			{
				"x": 2.6855416454,
				"y": 0.0488635281,
				"z": -2.2187573386,
				"element": "H" 
			},
			{
				"x": 4.0159041218,
				"y": -0.2013666781,
				"z": -1.1450496828,
				"element": "H" 
			},
			{
				"x": -1.1248714651,
				"y": -0.1317388795,
				"z": 2.0250129865,
				"element": "H" 
			},
			{
				"x": -1.7635438258,
				"y": 1.9362234334,
				"z": 3.2376123327,
				"element": "H" 
			},
			{
				"x": -1.4829437904,
				"y": 4.1649301389,
				"z": 2.2212028985,
				"element": "H" 
			},
			{
				"x": -0.5376842952,
				"y": 4.4159144628,
				"z": -0.0794685546,
				"element": "H" 
			}
		],
		 "valence_orbital": [ 
			{
				"type": "occ",
				"energy": -0.27486,
				"method": "rhf"
			},
			{
				"type": "occ",
				"energy": -0.26755,
				"method": "rhf"
			},
			{
				"type": "occ",
				"energy": -0.25533,
				"method": "rhf"
			},
			{
				"type": "occ",
				"energy": -0.24627,
				"method": "rhf"
			},
			{
				"type": "occ",
				"energy": -0.24039,
				"method": "rhf"
			},
			{
				"type": "unocc",
				"energy": -0.04898,
				"method": "rhf"
			},
			{
				"type": "unocc",
				"energy": 0.00477,
				"method": "rhf"
			},
			{
				"type": "unocc",
				"energy": 0.02319,
				"method": "rhf"
			},
			{
				"type": "unocc",
				"energy": 0.02878,
				"method": "rhf"
			},
			{
				"type": "unocc",
				"energy": 0.07918,
				"method": "rhf"
			}
		],
		"cosmo_sigma_profile": { 
			"-0.025": 0.0,
			"-0.024": 0.0,
			"-0.023": 0.0,
			"-0.022": 0.0,
			"-0.021": 0.0,
			"-0.02": 0.0,
			"-0.019": 0.0,
			"-0.018": 0.0,
			"-0.017": 0.0,
			"-0.016": 0.0,
			"-0.015": 0.0,
			"-0.014": 0.192818793369,
			"-0.013": 1.51490518981,
			"-0.012": 0.991902450941,
			"-0.011": 1.42691516962,
			"-0.01": 2.34857154793,
			"-0.009": 1.97208801185,
			"-0.008": 3.97784519047,
			"-0.007": 8.3678474147,
			"-0.006": 15.709646119,
			"-0.005": 18.3411206542,
			"-0.004": 21.755889226,
			"-0.003": 17.8295791929,
			"-0.002": 19.9417934817,
			"-0.001": 19.9247854479,
			"0.0": 15.6295973597,
			"0.001": 11.1792516474,
			"0.002": 13.9124353196,
			"0.003": 13.7018740241,
			"0.004": 12.2555755619,
			"0.005": 4.52710641582,
			"0.006": 4.75570070082,
			"0.007": 3.57461926198,
			"0.008": 3.53931322196,
			"0.009": 3.18743749965,
			"0.01": 4.28721132872,
			"0.011": 2.75156069916,
			"0.012": 3.15972697156,
			"0.013": 5.39898972525,
			"0.014": 5.57259626982,
			"0.015": 2.63575091143,
			"0.016": 0.254202769593,
			"0.017": 0.0,
			"0.018": 0.0,
			"0.019": 0.0,
			"0.02": 0.0,
			"0.021": 0.0,
			"0.022": 0.0,
			"0.023": 0.0,
			"0.024": 0.0,
			"0.025": 0.0
		}
	}
}
