{
	 "smiles": "CC(Cl)C(=O)NC1=C(Br)C=CC=C1", 
	 "Tm": 349.15, 
	 "num_atms": 22, 
	 "gaussian": { 
		 "optdone": 1, 
		 "sigma_profile": "yes", 
		 "theory": "DFT", 
		 "functional": "B3LYP", 
		 "basiset": "6-31G**", 
		 "properties": { 
			 "R2extent": 4193.0832, 
			 "electric_dipole_moment_norm": 0.815179452636, 
			 "electric_quadrupole_moment_norm": 11.9464353935, 
			 "total_energy": -3509.9811188, 
			 "HOMO_LUMO_gap": 0.2027, 
			 "cosmo_polarized_energy": -7.49, 
			 "cosmo_cavitation_energy": 29.66, 
			 "cosmo_dispersion_energy": -21.89, 
			 "cosmo_repulsion_energy": 1.72, 
			 "cosmo_total_nonelectrostatic_energy": 9.49, 
			 "SMD_solvation_energy": 4.05 
		},
		"coords": [
			{
				"x": 3.9174353443,
				"y": 0.5000558678,
				"z": -1.1296302859,
				"element": "C" 
			},
			{
				"x": 2.9349608932,
				"y": -0.6659263567,
				"z": -1.2096614568,
				"element": "C" 
			},
			{
				"x": 3.1724145518,
				"y": -1.7830671092,
				"z": 0.2245692765,
				"element": "Cl" 
			},
			{
				"x": 1.4935522468,
				"y": -0.1536433554,
				"z": -1.3951025949,
				"element": "C" 
			},
			{
				"x": 1.2627041965,
				"y": 0.4612149848,
				"z": -2.4289393436,
				"element": "O" 
			},
			{
				"x": 0.6021757007,
				"y": -0.4003193946,
				"z": -0.392635729,
				"element": "N" 
			},
			{
				"x": -0.7495173352,
				"y": -0.018149063,
				"z": -0.3210899094,
				"element": "C" 
			},
			{
				"x": -1.5076011274,
				"y": -0.3757089516,
				"z": 0.8111184928,
				"element": "C" 
			},
			{
				"x": -0.7050747816,
				"y": -1.3737356191,
				"z": 2.2402628187,
				"element": "Br" 
			},
			{
				"x": -2.8475408085,
				"y": -0.0224320984,
				"z": 0.9334291373,
				"element": "C" 
			},
			{
				"x": -3.4679737678,
				"y": 0.7033175317,
				"z": -0.0823179657,
				"element": "C" 
			},
			{
				"x": -2.7331754607,
				"y": 1.0661554915,
				"z": -1.2105128212,
				"element": "C" 
			},
			{
				"x": -1.3915647675,
				"y": 0.7138985941,
				"z": -1.3354305433,
				"element": "C" 
			},
			{
				"x": 3.7472960763,
				"y": 1.0926852366,
				"z": -0.2266814599,
				"element": "H" 
			},
			{
				"x": 4.946341079,
				"y": 0.1346525714,
				"z": -1.1216532125,
				"element": "H" 
			},
			{
				"x": 3.7674480768,
				"y": 1.137079406,
				"z": -2.0049891119,
				"element": "H" 
			},
			{
				"x": 3.1491787131,
				"y": -1.2862677346,
				"z": -2.0814355658,
				"element": "H" 
			},
			{
				"x": 0.9473764345,
				"y": -0.9390408491,
				"z": 0.3946397769,
				"element": "H" 
			},
			{
				"x": -3.3953150969,
				"y": -0.3172183395,
				"z": 1.8211155883,
				"element": "H" 
			},
			{
				"x": -4.5134439772,
				"y": 0.9786515603,
				"z": 0.0131385259,
				"element": "H" 
			},
			{
				"x": -3.204141891,
				"y": 1.6313430362,
				"z": -2.0090196941,
				"element": "H" 
			},
			{
				"x": -0.8189342993,
				"y": 0.9929545906,
				"z": -2.2082739225,
				"element": "H" 
			}
		],
		 "valence_orbital": [ 
			{
				"type": "occ",
				"energy": -0.30847,
				"method": "rhf"
			},
			{
				"type": "occ",
				"energy": -0.30207,
				"method": "rhf"
			},
			{
				"type": "occ",
				"energy": -0.26738,
				"method": "rhf"
			},
			{
				"type": "occ",
				"energy": -0.25421,
				"method": "rhf"
			},
			{
				"type": "occ",
				"energy": -0.23353,
				"method": "rhf"
			},
			{
				"type": "unocc",
				"energy": -0.03083,
				"method": "rhf"
			},
			{
				"type": "unocc",
				"energy": -0.01678,
				"method": "rhf"
			},
			{
				"type": "unocc",
				"energy": -0.00462,
				"method": "rhf"
			},
			{
				"type": "unocc",
				"energy": 0.00852,
				"method": "rhf"
			},
			{
				"type": "unocc",
				"energy": 0.03115,
				"method": "rhf"
			}
		],
		"cosmo_sigma_profile": { 
			"-0.025": 0.0,
			"-0.024": 0.0,
			"-0.023": 0.0,
			"-0.022": 0.0,
			"-0.021": 0.0,
			"-0.02": 0.0,
			"-0.019": 0.0,
			"-0.018": 0.0,
			"-0.017": 0.0,
			"-0.016": 0.0,
			"-0.015": 0.0,
			"-0.014": 0.0,
			"-0.013": 0.0,
			"-0.012": 0.0,
			"-0.011": 0.0,
			"-0.01": 0.0,
			"-0.009": 1.13083689046,
			"-0.008": 2.30389964294,
			"-0.007": 5.15807979596,
			"-0.006": 10.6387605624,
			"-0.005": 17.2845508305,
			"-0.004": 18.9637518183,
			"-0.003": 17.5896918851,
			"-0.002": 18.4881753218,
			"-0.001": 20.910833201,
			"0.0": 18.742909409,
			"0.001": 20.2384553898,
			"0.002": 23.2238182096,
			"0.003": 23.2661772899,
			"0.004": 19.7103118635,
			"0.005": 9.2259442848,
			"0.006": 4.45150447371,
			"0.007": 1.27996559667,
			"0.008": 1.60588146089,
			"0.009": 1.08353432744,
			"0.01": 1.94870671403,
			"0.011": 2.49914438488,
			"0.012": 2.31992584962,
			"0.013": 0.449939864627,
			"0.014": 0.0,
			"0.015": 0.0,
			"0.016": 0.0,
			"0.017": 0.0,
			"0.018": 0.0,
			"0.019": 0.0,
			"0.02": 0.0,
			"0.021": 0.0,
			"0.022": 0.0,
			"0.023": 0.0,
			"0.024": 0.0,
			"0.025": 0.0
		}
	}
}
