{
	 "smiles": "COC1=C(C=CC=C1)C1(CC1)C(O)=O", 
	 "Tm": 405.15, 
	 "num_atms": 26, 
	 "gaussian": { 
		 "optdone": 1, 
		 "sigma_profile": "yes", 
		 "theory": "DFT", 
		 "functional": "B3LYP", 
		 "basiset": "6-31G**", 
		 "properties": { 
			 "R2extent": 3153.1976, 
			 "electric_dipole_moment_norm": 1.6862162643, 
			 "electric_quadrupole_moment_norm": 12.9391536551, 
			 "total_energy": -652.04898338, 
			 "HOMO_LUMO_gap": 0.21436, 
			 "cosmo_polarized_energy": -12.82, 
			 "cosmo_cavitation_energy": 29.41, 
			 "cosmo_dispersion_energy": -20.57, 
			 "cosmo_repulsion_energy": 1.63, 
			 "cosmo_total_nonelectrostatic_energy": 10.47, 
			 "SMD_solvation_energy": 6.84 
		},
		"coords": [
			{
				"x": 0.8744201717,
				"y": -0.2422556964,
				"z": -2.2067533799,
				"element": "C" 
			},
			{
				"x": 0.5140381895,
				"y": 0.3645754817,
				"z": -0.9769833277,
				"element": "O" 
			},
			{
				"x": 0.7292837825,
				"y": -0.3285292606,
				"z": 0.1792234753,
				"element": "C" 
			},
			{
				"x": 0.4314993335,
				"y": 0.3664142077,
				"z": 1.3724941566,
				"element": "C" 
			},
			{
				"x": 0.6304093333,
				"y": -0.2861808359,
				"z": 2.5881506651,
				"element": "C" 
			},
			{
				"x": 1.1015046054,
				"y": -1.601168484,
				"z": 2.6457371643,
				"element": "C" 
			},
			{
				"x": 1.3847508532,
				"y": -2.2734098783,
				"z": 1.4609692389,
				"element": "C" 
			},
			{
				"x": 1.2017596916,
				"y": -1.643843558,
				"z": 0.2262578238,
				"element": "C" 
			},
			{
				"x": -0.0654438086,
				"y": 1.7816770107,
				"z": 1.3043865591,
				"element": "C" 
			},
			{
				"x": -1.1740414776,
				"y": 2.2385182251,
				"z": 2.253445134,
				"element": "C" 
			},
			{
				"x": -1.4849072598,
				"y": 2.0450615121,
				"z": 0.8066712027,
				"element": "C" 
			},
			{
				"x": 0.9819853073,
				"y": 2.7907270511,
				"z": 0.94704147,
				"element": "C" 
			},
			{
				"x": 0.4833972094,
				"y": 4.0551873233,
				"z": 0.8391168924,
				"element": "O" 
			},
			{
				"x": 2.1583840046,
				"y": 2.5562145886,
				"z": 0.7743343174,
				"element": "O" 
			},
			{
				"x": 1.9423892984,
				"y": -0.4919844703,
				"z": -2.2351554089,
				"element": "H" 
			},
			{
				"x": 0.2876944814,
				"y": -1.1499223598,
				"z": -2.4002396307,
				"element": "H" 
			},
			{
				"x": 0.6570399743,
				"y": 0.4950522986,
				"z": -2.9812206836,
				"element": "H" 
			},
			{
				"x": 0.4180825678,
				"y": 0.2510871441,
				"z": 3.5081232038,
				"element": "H" 
			},
			{
				"x": 1.2485027977,
				"y": -2.0869976238,
				"z": 3.6052466755,
				"element": "H" 
			},
			{
				"x": 1.7524593079,
				"y": -3.2954200729,
				"z": 1.4851283701,
				"element": "H" 
			},
			{
				"x": 1.4297518512,
				"y": -2.1818173141,
				"z": -0.6861290774,
				"element": "H" 
			},
			{
				"x": -1.5364992703,
				"y": 1.5005522129,
				"z": 2.961378467,
				"element": "H" 
			},
			{
				"x": -1.1116949424,
				"y": 3.2513067196,
				"z": 2.6348917538,
				"element": "H" 
			},
			{
				"x": -2.0477601092,
				"y": 1.1653292092,
				"z": 0.5132361549,
				"element": "H" 
			},
			{
				"x": -1.6383988918,
				"y": 2.9213387718,
				"z": 0.1877213781,
				"element": "H" 
			},
			{
				"x": 1.246992999,
				"y": 4.6126877972,
				"z": 0.6182274054,
				"element": "H" 
			}
		],
		 "valence_orbital": [ 
			{
				"type": "occ",
				"energy": -0.30881,
				"method": "rhf"
			},
			{
				"type": "occ",
				"energy": -0.28728,
				"method": "rhf"
			},
			{
				"type": "occ",
				"energy": -0.26093,
				"method": "rhf"
			},
			{
				"type": "occ",
				"energy": -0.24264,
				"method": "rhf"
			},
			{
				"type": "occ",
				"energy": -0.21423,
				"method": "rhf"
			},
			{
				"type": "unocc",
				"energy": 0.00013,
				"method": "rhf"
			},
			{
				"type": "unocc",
				"energy": 0.014,
				"method": "rhf"
			},
			{
				"type": "unocc",
				"energy": 0.01958,
				"method": "rhf"
			},
			{
				"type": "unocc",
				"energy": 0.08253,
				"method": "rhf"
			},
			{
				"type": "unocc",
				"energy": 0.09405,
				"method": "rhf"
			}
		],
		"cosmo_sigma_profile": { 
			"-0.025": 0.0,
			"-0.024": 0.0,
			"-0.023": 0.0,
			"-0.022": 0.0,
			"-0.021": 0.0,
			"-0.02": 0.0,
			"-0.019": 0.0,
			"-0.018": 0.44402214827,
			"-0.017": 1.04626988389,
			"-0.016": 0.719920173711,
			"-0.015": 0.977574122716,
			"-0.014": 0.642457945129,
			"-0.013": 0.518369501804,
			"-0.012": 0.381061659609,
			"-0.011": 0.948161403927,
			"-0.01": 0.893182425254,
			"-0.009": 0.458777204488,
			"-0.008": 0.195056254152,
			"-0.007": 1.1960746812,
			"-0.006": 9.57173275862,
			"-0.005": 23.2370828623,
			"-0.004": 21.2270326005,
			"-0.003": 24.1607296094,
			"-0.002": 17.8547809676,
			"-0.001": 19.0968420074,
			"0.0": 13.4347757481,
			"0.001": 11.5266423435,
			"0.002": 12.7798532344,
			"0.003": 12.0410945706,
			"0.004": 10.7226545824,
			"0.005": 10.9424489285,
			"0.006": 12.0278360184,
			"0.007": 5.89556818081,
			"0.008": 3.90440553487,
			"0.009": 2.31292422445,
			"0.01": 3.13251436478,
			"0.011": 3.3407528912,
			"0.012": 5.62131994836,
			"0.013": 1.67288904286,
			"0.014": 0.000794215711112,
			"0.015": 0.0,
			"0.016": 0.0,
			"0.017": 0.0,
			"0.018": 0.0,
			"0.019": 0.0,
			"0.02": 0.0,
			"0.021": 0.0,
			"0.022": 0.0,
			"0.023": 0.0,
			"0.024": 0.0,
			"0.025": 0.0
		}
	}
}
