{
	 "smiles": "CC1=CC(=CC=C1)C1=NN=C(S)N1CC(O)=O", 
	 "Tm": 290.15, 
	 "num_atms": 28, 
	 "gaussian": { 
		 "optdone": 1, 
		 "sigma_profile": "yes", 
		 "theory": "DFT", 
		 "functional": "B3LYP", 
		 "basiset": "6-31G**", 
		 "properties": { 
			 "R2extent": 4918.7279, 
			 "electric_dipole_moment_norm": 3.59850639155, 
			 "electric_quadrupole_moment_norm": 18.8741666653, 
			 "total_energy": -1138.68025467, 
			 "HOMO_LUMO_gap": 0.1893, 
			 "cosmo_polarized_energy": -21.47, 
			 "cosmo_cavitation_energy": 34.47, 
			 "cosmo_dispersion_energy": -24.33, 
			 "cosmo_repulsion_energy": 1.86, 
			 "cosmo_total_nonelectrostatic_energy": 12.01, 
			 "SMD_solvation_energy": 4.83 
		},
		"coords": [
			{
				"x": 0.5656877432,
				"y": 0.5048380915,
				"z": 4.1566133914,
				"element": "C" 
			},
			{
				"x": 0.0435464755,
				"y": -0.3658597107,
				"z": 3.0372444888,
				"element": "C" 
			},
			{
				"x": 0.3305517194,
				"y": -0.0667947905,
				"z": 1.7010062065,
				"element": "C" 
			},
			{
				"x": -0.1286122744,
				"y": -0.8844013192,
				"z": 0.6545380111,
				"element": "C" 
			},
			{
				"x": -0.8688602664,
				"y": -2.0369759497,
				"z": 0.9589177761,
				"element": "C" 
			},
			{
				"x": -1.1552094306,
				"y": -2.344124443,
				"z": 2.2868143037,
				"element": "C" 
			},
			{
				"x": -0.7130522674,
				"y": -1.5123151371,
				"z": 3.3159896902,
				"element": "C" 
			},
			{
				"x": 0.1753876824,
				"y": -0.5998674954,
				"z": -0.7552182075,
				"element": "C" 
			},
			{
				"x": 0.4815012755,
				"y": -1.5120367235,
				"z": -1.6515878587,
				"element": "N" 
			},
			{
				"x": 0.6828650364,
				"y": -0.8825923926,
				"z": -2.8627185875,
				"element": "N" 
			},
			{
				"x": 0.4821779212,
				"y": 0.397181292,
				"z": -2.664498093,
				"element": "C" 
			},
			{
				"x": 0.5895909278,
				"y": 1.6709693669,
				"z": -3.8845807944,
				"element": "S" 
			},
			{
				"x": 0.1557538868,
				"y": 0.6547906218,
				"z": -1.3543657123,
				"element": "N" 
			},
			{
				"x": -0.2925444013,
				"y": 1.9228415051,
				"z": -0.8144855364,
				"element": "C" 
			},
			{
				"x": 0.7976174655,
				"y": 2.9235308021,
				"z": -0.4383960389,
				"element": "C" 
			},
			{
				"x": 2.0230392728,
				"y": 2.3691449986,
				"z": -0.36713302,
				"element": "O" 
			},
			{
				"x": 0.561696281,
				"y": 4.0847502408,
				"z": -0.2036226243,
				"element": "O" 
			},
			{
				"x": 0.9224031993,
				"y": 1.4689059857,
				"z": 3.7834621196,
				"element": "H" 
			},
			{
				"x": 1.4022882218,
				"y": 0.0220378766,
				"z": 4.6759586091,
				"element": "H" 
			},
			{
				"x": -0.2091684382,
				"y": 0.6989532991,
				"z": 4.9055324539,
				"element": "H" 
			},
			{
				"x": 0.9605100205,
				"y": 0.7889598324,
				"z": 1.4767054693,
				"element": "H" 
			},
			{
				"x": -1.2078784265,
				"y": -2.6743165708,
				"z": 0.1497584678,
				"element": "H" 
			},
			{
				"x": -1.7333521461,
				"y": -3.2333305354,
				"z": 2.5209104926,
				"element": "H" 
			},
			{
				"x": -0.9500924906,
				"y": -1.7581927963,
				"z": 4.348217065,
				"element": "H" 
			},
			{
				"x": 0.7103717454,
				"y": 0.7863601369,
				"z": -4.8920369831,
				"element": "H" 
			},
			{
				"x": -0.9514068423,
				"y": 2.4214264665,
				"z": -1.5314735691,
				"element": "H" 
			},
			{
				"x": -0.8821406653,
				"y": 1.7309500403,
				"z": 0.0860080367,
				"element": "H" 
			},
			{
				"x": 2.6377287745,
				"y": 3.081767308,
				"z": -0.1212595565,
				"element": "H" 
			}
		],
		 "valence_orbital": [ 
			{
				"type": "occ",
				"energy": -0.28559,
				"method": "rhf"
			},
			{
				"type": "occ",
				"energy": -0.26894,
				"method": "rhf"
			},
			{
				"type": "occ",
				"energy": -0.25623,
				"method": "rhf"
			},
			{
				"type": "occ",
				"energy": -0.25306,
				"method": "rhf"
			},
			{
				"type": "occ",
				"energy": -0.22361,
				"method": "rhf"
			},
			{
				"type": "unocc",
				"energy": -0.03431,
				"method": "rhf"
			},
			{
				"type": "unocc",
				"energy": -0.02048,
				"method": "rhf"
			},
			{
				"type": "unocc",
				"energy": -0.01006,
				"method": "rhf"
			},
			{
				"type": "unocc",
				"energy": 0.00403,
				"method": "rhf"
			},
			{
				"type": "unocc",
				"energy": 0.02333,
				"method": "rhf"
			}
		],
		"cosmo_sigma_profile": { 
			"-0.025": 0.0,
			"-0.024": 0.0,
			"-0.023": 0.0,
			"-0.022": 0.0,
			"-0.021": 0.0,
			"-0.02": 0.0274132336296,
			"-0.019": 0.799298947399,
			"-0.018": 1.23594894793,
			"-0.017": 0.611842201329,
			"-0.016": 0.894616435436,
			"-0.015": 0.772128588913,
			"-0.014": 1.04075631914,
			"-0.013": 1.13269654224,
			"-0.012": 2.08615271956,
			"-0.011": 2.20955474803,
			"-0.01": 2.02941256228,
			"-0.009": 6.06225494241,
			"-0.008": 7.06450492058,
			"-0.007": 7.40356833323,
			"-0.006": 12.0774279029,
			"-0.005": 14.8527117791,
			"-0.004": 19.7262078994,
			"-0.003": 17.5429746925,
			"-0.002": 19.3971832821,
			"-0.001": 18.3615365753,
			"0.0": 21.3592875922,
			"0.001": 17.6152356921,
			"0.002": 17.1429375378,
			"0.003": 13.8177297676,
			"0.004": 16.9422942585,
			"0.005": 11.2839704612,
			"0.006": 6.1698251016,
			"0.007": 4.04236189504,
			"0.008": 3.92551953374,
			"0.009": 3.84912503246,
			"0.01": 4.87211126852,
			"0.011": 7.58010243009,
			"0.012": 3.51346318397,
			"0.013": 3.76981247838,
			"0.014": 2.32068487648,
			"0.015": 2.36167771181,
			"0.016": 1.71999879698,
			"0.017": 0.0829630803158,
			"0.018": 0.0,
			"0.019": 0.0,
			"0.02": 0.0,
			"0.021": 0.0,
			"0.022": 0.0,
			"0.023": 0.0,
			"0.024": 0.0,
			"0.025": 0.0
		}
	}
}
