{
	 "smiles": "OC(=O)C1=C2C=C(C=CC2=NC(O)=C1)S(=O)(=O)N1CCOCC1", 
	 "Tm": 578.15, 
	 "num_atms": 37, 
	 "gaussian": { 
		 "optdone": 1, 
		 "sigma_profile": "yes", 
		 "theory": "DFT", 
		 "functional": "B3LYP", 
		 "basiset": "6-31G**", 
		 "properties": { 
			 "R2extent": 8748.7923, 
			 "electric_dipole_moment_norm": 5.92071170215, 
			 "electric_quadrupole_moment_norm": 24.1611071419, 
			 "total_energy": -1500.8828878, 
			 "HOMO_LUMO_gap": 0.15026, 
			 "cosmo_polarized_energy": -27.36, 
			 "cosmo_cavitation_energy": 41.77, 
			 "cosmo_dispersion_energy": -29.73, 
			 "cosmo_repulsion_energy": 2.2, 
			 "cosmo_total_nonelectrostatic_energy": 14.24, 
			 "SMD_solvation_energy": 5.0 
		},
		"coords": [
			{
				"x": 2.4079658576,
				"y": -0.1033241129,
				"z": -4.9145181551,
				"element": "O" 
			},
			{
				"x": 1.8845130553,
				"y": -0.2709843177,
				"z": -3.6763706799,
				"element": "C" 
			},
			{
				"x": 1.2316128888,
				"y": -1.2524014067,
				"z": -3.414972761,
				"element": "O" 
			},
			{
				"x": 2.2075078913,
				"y": 0.8108708461,
				"z": -2.6769735765,
				"element": "C" 
			},
			{
				"x": 1.255737751,
				"y": 1.2138098684,
				"z": -1.680608323,
				"element": "C" 
			},
			{
				"x": -0.0658110161,
				"y": 0.7108762693,
				"z": -1.5998332501,
				"element": "C" 
			},
			{
				"x": -0.9110337767,
				"y": 1.1632511121,
				"z": -0.6066841863,
				"element": "C" 
			},
			{
				"x": -0.4985651816,
				"y": 2.1421016059,
				"z": 0.3280264406,
				"element": "C" 
			},
			{
				"x": 0.7781270601,
				"y": 2.6520813193,
				"z": 0.257842308,
				"element": "C" 
			},
			{
				"x": 1.6839184815,
				"y": 2.2038181051,
				"z": -0.7366253385,
				"element": "C" 
			},
			{
				"x": 2.9374562444,
				"y": 2.7470723209,
				"z": -0.7540864285,
				"element": "N" 
			},
			{
				"x": 3.7718905723,
				"y": 2.3435211351,
				"z": -1.6780851601,
				"element": "C" 
			},
			{
				"x": 5.0140146984,
				"y": 2.8637920076,
				"z": -1.7050769757,
				"element": "O" 
			},
			{
				"x": 3.4615464125,
				"y": 1.375310042,
				"z": -2.6748938985,
				"element": "C" 
			},
			{
				"x": -2.5681234306,
				"y": 0.4658880255,
				"z": -0.4816190386,
				"element": "S" 
			},
			{
				"x": -2.9445845633,
				"y": 0.0030255421,
				"z": -1.8178405319,
				"element": "O" 
			},
			{
				"x": -3.3682875622,
				"y": 1.4279294106,
				"z": 0.2797381419,
				"element": "O" 
			},
			{
				"x": -2.4490797688,
				"y": -0.8996042987,
				"z": 0.4767447504,
				"element": "N" 
			},
			{
				"x": -1.9301885268,
				"y": -2.1566953601,
				"z": -0.1038443859,
				"element": "C" 
			},
			{
				"x": -0.7647469548,
				"y": -2.6813079882,
				"z": 0.7296233375,
				"element": "C" 
			},
			{
				"x": -1.117538335,
				"y": -2.9031080357,
				"z": 2.0949612723,
				"element": "O" 
			},
			{
				"x": -2.1789124248,
				"y": -2.0866487456,
				"z": 2.5785059523,
				"element": "C" 
			},
			{
				"x": -2.2173717316,
				"y": -0.7106823582,
				"z": 1.9205317302,
				"element": "C" 
			},
			{
				"x": 2.7864663815,
				"y": 0.7835563715,
				"z": -5.0016877033,
				"element": "H" 
			},
			{
				"x": -0.4120534772,
				"y": -0.0176240882,
				"z": -2.3209401303,
				"element": "H" 
			},
			{
				"x": -1.2058580761,
				"y": 2.4988099015,
				"z": 1.068313172,
				"element": "H" 
			},
			{
				"x": 1.123983756,
				"y": 3.4128803601,
				"z": 0.9491843189,
				"element": "H" 
			},
			{
				"x": 5.0650145718,
				"y": 3.4928534758,
				"z": -0.9667672672,
				"element": "H" 
			},
			{
				"x": 4.2375822441,
				"y": 1.0782687941,
				"z": -3.3722697029,
				"element": "H" 
			},
			{
				"x": -1.6143510096,
				"y": -1.9897417338,
				"z": -1.1354753108,
				"element": "H" 
			},
			{
				"x": -2.739355048,
				"y": -2.8959092374,
				"z": -0.1323665026,
				"element": "H" 
			},
			{
				"x": -0.4227645886,
				"y": -3.640651649,
				"z": 0.3274565942,
				"element": "H" 
			},
			{
				"x": 0.0764171703,
				"y": -1.9742077464,
				"z": 0.6682861462,
				"element": "H" 
			},
			{
				"x": -3.148564296,
				"y": -2.5854101409,
				"z": 2.4288595406,
				"element": "H" 
			},
			{
				"x": -2.0241203579,
				"y": -1.9721339488,
				"z": 3.6559927707,
				"element": "H" 
			},
			{
				"x": -1.2685480464,
				"y": -0.1886119064,
				"z": 2.1183895611,
				"element": "H" 
			},
			{
				"x": -3.031296865,
				"y": -0.112769438,
				"z": 2.33668327,
				"element": "H" 
			}
		],
		 "valence_orbital": [ 
			{
				"type": "occ",
				"energy": -0.29006,
				"method": "rhf"
			},
			{
				"type": "occ",
				"energy": -0.27332,
				"method": "rhf"
			},
			{
				"type": "occ",
				"energy": -0.26749,
				"method": "rhf"
			},
			{
				"type": "occ",
				"energy": -0.25819,
				"method": "rhf"
			},
			{
				"type": "occ",
				"energy": -0.2445,
				"method": "rhf"
			},
			{
				"type": "unocc",
				"energy": -0.09424,
				"method": "rhf"
			},
			{
				"type": "unocc",
				"energy": -0.04919,
				"method": "rhf"
			},
			{
				"type": "unocc",
				"energy": -0.03163,
				"method": "rhf"
			},
			{
				"type": "unocc",
				"energy": 0.02114,
				"method": "rhf"
			},
			{
				"type": "unocc",
				"energy": 0.04622,
				"method": "rhf"
			}
		],
		"cosmo_sigma_profile": { 
			"-0.025": 0.0,
			"-0.024": 0.0,
			"-0.023": 0.0,
			"-0.022": 0.0,
			"-0.021": 0.0,
			"-0.02": 0.0377593400754,
			"-0.019": 0.989041057346,
			"-0.018": 1.31802872684,
			"-0.017": 1.99128637275,
			"-0.016": 2.3067947033,
			"-0.015": 1.03001739397,
			"-0.014": 1.48058151419,
			"-0.013": 2.11029500105,
			"-0.012": 2.37510617621,
			"-0.011": 2.10006758882,
			"-0.01": 2.15442819011,
			"-0.009": 2.69721024117,
			"-0.008": 2.95526099919,
			"-0.007": 7.0944524807,
			"-0.006": 18.0611455549,
			"-0.005": 28.8794465048,
			"-0.004": 29.445254501,
			"-0.003": 25.184488558,
			"-0.002": 21.9554844821,
			"-0.001": 19.8125880737,
			"0.0": 19.4857856636,
			"0.001": 18.731013879,
			"0.002": 14.1989640289,
			"0.003": 10.5172708418,
			"0.004": 9.30041801107,
			"0.005": 10.2585269233,
			"0.006": 10.1802481336,
			"0.007": 10.1639765196,
			"0.008": 9.24096261922,
			"0.009": 12.2402686688,
			"0.01": 13.8261519753,
			"0.011": 13.0556729074,
			"0.012": 5.36369947368,
			"0.013": 1.65503981068,
			"0.014": 0.173023048999,
			"0.015": 0.0,
			"0.016": 0.0,
			"0.017": 0.0,
			"0.018": 0.0,
			"0.019": 0.0,
			"0.02": 0.0,
			"0.021": 0.0,
			"0.022": 0.0,
			"0.023": 0.0,
			"0.024": 0.0,
			"0.0": 0.0
		}
	}
}
