{
	 "smiles": "C[Si]1(C)O[Si](C)(C)O[Si](C)(C)O[Si](C)(C)O[Si](C)(C)O[Si](C)(C)O[Si](C)(C)O[Si](C)(C)O1", 
	 "Tm": 304.65, 
	 "num_atms": 80, 
	 "gaussian": { 
		 "optdone": 1, 
		 "sigma_profile": "yes", 
		 "theory": "DFT", 
		 "functional": "B3LYP", 
		 "basiset": "6-31G**", 
		 "properties": { 
			 "R2extent": 19931.0297, 
			 "electric_dipole_moment_norm": 0.969373916505, 
			 "electric_quadrupole_moment_norm": 3.814823414, 
			 "total_energy": -3557.42350739, 
			 "HOMO_LUMO_gap": 0.29984, 
			 "cosmo_polarized_energy": -11.19, 
			 "cosmo_cavitation_energy": 95.18, 
			 "cosmo_dispersion_energy": -36.29, 
			 "cosmo_repulsion_energy": 3.24, 
			 "cosmo_total_nonelectrostatic_energy": 62.13, 
			 "SMD_solvation_energy": 20.68 
		},
		"coords": [
			{
				"x": 1.2987693566,
				"y": 3.8410441867,
				"z": -1.2287006525,
				"element": "C" 
			},
			{
				"x": 2.2458534825,
				"y": 2.451422055,
				"z": -0.4007664742,
				"element": "Si" 
			},
			{
				"x": 4.0811154528,
				"y": 2.8184921331,
				"z": -0.2665810924,
				"element": "C" 
			},
			{
				"x": 1.5891343844,
				"y": 2.2324870813,
				"z": 1.1051942405,
				"element": "O" 
			},
			{
				"x": 1.8338406267,
				"y": 1.8335623227,
				"z": 2.6968438361,
				"element": "Si" 
			},
			{
				"x": 2.6885625919,
				"y": 3.2589895452,
				"z": 3.5678238594,
				"element": "C" 
			},
			{
				"x": 0.1665633767,
				"y": 1.4356919418,
				"z": 3.4483094918,
				"element": "C" 
			},
			{
				"x": 2.8408056449,
				"y": 0.525294461,
				"z": 2.8169436534,
				"element": "O" 
			},
			{
				"x": 3.2487440581,
				"y": -1.0621478352,
				"z": 2.6084480781,
				"element": "Si" 
			},
			{
				"x": 4.1666973989,
				"y": -1.6140196572,
				"z": 4.1498404643,
				"element": "C" 
			},
			{
				"x": 4.2927587966,
				"y": -1.2295925667,
				"z": 1.0628518424,
				"element": "C" 
			},
			{
				"x": 1.8911769685,
				"y": -1.9846591688,
				"z": 2.4133059511,
				"element": "O" 
			},
			{
				"x": 0.5468805902,
				"y": -2.8473687944,
				"z": 2.8157740255,
				"element": "Si" 
			},
			{
				"x": 0.2759904613,
				"y": -2.7866792205,
				"z": 4.6734076365,
				"element": "C" 
			},
			{
				"x": 0.7698657053,
				"y": -4.6032738459,
				"z": 2.1934035436,
				"element": "C" 
			},
			{
				"x": -0.7462571221,
				"y": -2.1575492775,
				"z": 2.0543198542,
				"element": "O" 
			},
			{
				"x": -2.3304523338,
				"y": -2.0040198099,
				"z": 1.6135174432,
				"element": "Si" 
			},
			{
				"x": -2.6835851036,
				"y": -3.1564830815,
				"z": 0.1752476125,
				"element": "C" 
			},
			{
				"x": -3.4304529965,
				"y": -2.3651899955,
				"z": 3.0916145259,
				"element": "C" 
			},
			{
				"x": -2.5657447485,
				"y": -0.4353503822,
				"z": 1.1588497047,
				"element": "O" 
			},
			{
				"x": -3.1714540513,
				"y": 0.7523499952,
				"z": 0.1812209993,
				"element": "Si" 
			},
			{
				"x": -5.044033386,
				"y": 0.7522016335,
				"z": 0.3040465286,
				"element": "C" 
			},
			{
				"x": -2.4199808974,
				"y": 2.3805336517,
				"z": 0.7202063189,
				"element": "C" 
			},
			{
				"x": -2.7842303991,
				"y": 0.4224846564,
				"z": -1.394433913,
				"element": "O" 
			},
			{
				"x": -1.9247064392,
				"y": 0.6838952151,
				"z": -2.7819921601,
				"element": "Si" 
			},
			{
				"x": -2.301371276,
				"y": -0.7407281399,
				"z": -3.9433604258,
				"element": "C" 
			},
			{
				"x": -2.4069484652,
				"y": 2.3403153295,
				"z": -3.5173572851,
				"element": "C" 
			},
			{
				"x": -0.3071977052,
				"y": 0.7397229746,
				"z": -2.4483864421,
				"element": "O" 
			},
			{
				"x": 1.1927081491,
				"y": 0.0648787261,
				"z": -2.2490015442,
				"element": "Si" 
			},
			{
				"x": 2.0357944733,
				"y": -0.032958871,
				"z": -3.9226256343,
				"element": "C" 
			},
			{
				"x": 1.0433431923,
				"y": -1.6137122571,
				"z": -1.4315344379,
				"element": "C" 
			},
			{
				"x": 2.0959524556,
				"y": 1.0547315664,
				"z": -1.2794206343,
				"element": "O" 
			},
			{
				"x": 1.6860384285,
				"y": 4.0415010193,
				"z": -2.2335365307,
				"element": "H" 
			},
			{
				"x": 1.3690232473,
				"y": 4.7672678118,
				"z": -0.6484069306,
				"element": "H" 
			},
			{
				"x": 0.2405233434,
				"y": 3.5800256353,
				"z": -1.3241096952,
				"element": "H" 
			},
			{
				"x": 4.2646488568,
				"y": 3.7312322368,
				"z": 0.310742452,
				"element": "H" 
			},
			{
				"x": 4.6089475657,
				"y": 1.995507676,
				"z": 0.2258555682,
				"element": "H" 
			},
			{
				"x": 4.5261633852,
				"y": 2.9536391265,
				"z": -1.2582336497,
				"element": "H" 
			},
			{
				"x": 3.6727504446,
				"y": 3.4525949748,
				"z": 3.1284933433,
				"element": "H" 
			},
			{
				"x": 2.0994602967,
				"y": 4.1795046129,
				"z": 3.4946539562,
				"element": "H" 
			},
			{
				"x": 2.8377272858,
				"y": 3.0377676633,
				"z": 4.6301881855,
				"element": "H" 
			},
			{
				"x": -0.4941341728,
				"y": 2.3085877236,
				"z": 3.4225759366,
				"element": "H" 
			},
			{
				"x": 0.2726263645,
				"y": 1.1260818701,
				"z": 4.4941325855,
				"element": "H" 
			},
			{
				"x": -0.3251923473,
				"y": 0.6278374635,
				"z": 2.8976220914,
				"element": "H" 
			},
			{
				"x": 4.4809792961,
				"y": -2.6609330655,
				"z": 4.0755565287,
				"element": "H" 
			},
			{
				"x": 5.0631450646,
				"y": -1.0054851504,
				"z": 4.3100948122,
				"element": "H" 
			},
			{
				"x": 3.5355099013,
				"y": -1.514275811,
				"z": 5.0392437049,
				"element": "H" 
			},
			{
				"x": 3.7599357662,
				"y": -0.8261544088,
				"z": 0.1961922918,
				"element": "H" 
			},
			{
				"x": 4.5344559163,
				"y": -2.2782230188,
				"z": 0.8584558532,
				"element": "H" 
			},
			{
				"x": 5.2357717899,
				"y": -0.6810828081,
				"z": 1.1641376951,
				"element": "H" 
			},
			{
				"x": -0.6155922337,
				"y": -3.3526518914,
				"z": 4.965060602,
				"element": "H" 
			},
			{
				"x": 1.1300170943,
				"y": -3.208432684,
				"z": 5.2146092446,
				"element": "H" 
			},
			{
				"x": 0.1395992454,
				"y": -1.7542865931,
				"z": 5.0122566814,
				"element": "H" 
			},
			{
				"x": 0.9245464765,
				"y": -4.6105452274,
				"z": 1.1095755194,
				"element": "H" 
			},
			{
				"x": 1.6392662972,
				"y": -5.0805688728,
				"z": 2.6585895108,
				"element": "H" 
			},
			{
				"x": -0.1071148929,
				"y": -5.2225569172,
				"z": 2.4126032024,
				"element": "H" 
			},
			{
				"x": -3.7223038616,
				"y": -3.0680475642,
				"z": -0.1613732466,
				"element": "H" 
			},
			{
				"x": -2.5086797053,
				"y": -4.2024063384,
				"z": 0.450480881,
				"element": "H" 
			},
			{
				"x": -2.0354963162,
				"y": -2.9199287304,
				"z": -0.6744045506,
				"element": "H" 
			},
			{
				"x": -3.29592437,
				"y": -3.390869029,
				"z": 3.4530791102,
				"element": "H" 
			},
			{
				"x": -3.2049342101,
				"y": -1.6844586763,
				"z": 3.9190251158,
				"element": "H" 
			},
			{
				"x": -4.4881166855,
				"y": -2.2394262863,
				"z": 2.8353920094,
				"element": "H" 
			},
			{
				"x": -5.3751539289,
				"y": 0.9000231171,
				"z": 1.3375756937,
				"element": "H" 
			},
			{
				"x": -5.4802817229,
				"y": 1.5504868786,
				"z": -0.3062244668,
				"element": "H" 
			},
			{
				"x": -5.4581963345,
				"y": -0.1979124354,
				"z": -0.0501646322,
				"element": "H" 
			},
			{
				"x": -2.7567232548,
				"y": 3.2036733253,
				"z": 0.0801117356,
				"element": "H" 
			},
			{
				"x": -1.3267996608,
				"y": 2.3395435416,
				"z": 0.681182097,
				"element": "H" 
			},
			{
				"x": -2.707404477,
				"y": 2.6196008771,
				"z": 1.7497825176,
				"element": "H" 
			},
			{
				"x": -3.36961656,
				"y": -0.7784667567,
				"z": -4.1821688988,
				"element": "H" 
			},
			{
				"x": -1.750068911,
				"y": -0.6464913233,
				"z": -4.8852962128,
				"element": "H" 
			},
			{
				"x": -2.0318083467,
				"y": -1.6998868385,
				"z": -3.4885715122,
				"element": "H" 
			},
			{
				"x": -3.4813212663,
				"y": 2.3853695582,
				"z": -3.7257463268,
				"element": "H" 
			},
			{
				"x": -1.8734659836,
				"y": 2.5247480306,
				"z": -4.4560270108,
				"element": "H" 
			},
			{
				"x": -2.1622362399,
				"y": 3.1589284254,
				"z": -2.8323135349,
				"element": "H" 
			},
			{
				"x": 1.4961265961,
				"y": -0.7005137988,
				"z": -4.6035204506,
				"element": "H" 
			},
			{
				"x": 3.0602719734,
				"y": -0.408280993,
				"z": -3.8270308275,
				"element": "H" 
			},
			{
				"x": 2.0837897495,
				"y": 0.9556870155,
				"z": -4.3911943894,
				"element": "H" 
			},
			{
				"x": 2.0264106211,
				"y": -2.0791620674,
				"z": -1.3034953301,
				"element": "H" 
			},
			{
				"x": 0.4298043342,
				"y": -2.2929209644,
				"z": -2.0347143512,
				"element": "H" 
			},
			{
				"x": 0.5867838993,
				"y": -1.5267049043,
				"z": -0.4405452919,
				"element": "H" 
			}
		],
		 "valence_orbital": [ 
			{
				"type": "occ",
				"energy": -0.27327,
				"method": "rhf"
			},
			{
				"type": "occ",
				"energy": -0.26845,
				"method": "rhf"
			},
			{
				"type": "occ",
				"energy": -0.26754,
				"method": "rhf"
			},
			{
				"type": "occ",
				"energy": -0.26434,
				"method": "rhf"
			},
			{
				"type": "occ",
				"energy": -0.26177,
				"method": "rhf"
			},
			{
				"type": "unocc",
				"energy": 0.03807,
				"method": "rhf"
			},
			{
				"type": "unocc",
				"energy": 0.05782,
				"method": "rhf"
			},
			{
				"type": "unocc",
				"energy": 0.06079,
				"method": "rhf"
			},
			{
				"type": "unocc",
				"energy": 0.06635,
				"method": "rhf"
			},
			{
				"type": "unocc",
				"energy": 0.07861,
				"method": "rhf"
			}
		],
		"cosmo_sigma_profile": { 
			"-0.025": 0.0,
			"-0.024": 0.0,
			"-0.023": 0.0,
			"-0.022": 0.0,
			"-0.021": 0.0,
			"-0.02": 0.0,
			"-0.019": 0.0,
			"-0.018": 0.0,
			"-0.017": 0.0,
			"-0.016": 0.0,
			"-0.015": 0.0,
			"-0.014": 0.0,
			"-0.013": 0.0,
			"-0.012": 0.0,
			"-0.011": 0.0,
			"-0.01": 0.0,
			"-0.009": 0.0,
			"-0.008": 0.0,
			"-0.007": 0.0,
			"-0.006": 0.0,
			"-0.005": 0.268622552521,
			"-0.004": 37.3064895555,
			"-0.003": 84.3102953445,
			"-0.002": 91.7753785365,
			"-0.001": 99.2373516134,
			"0.0": 99.3911867162,
			"0.001": 113.649782803,
			"0.002": 70.4228254711,
			"0.003": 44.5049861799,
			"0.004": 19.1660844844,
			"0.005": 13.8957341896,
			"0.006": 9.28512249674,
			"0.007": 6.16020733407,
			"0.008": 2.36172678756,
			"0.009": 1.25661559403,
			"0.01": 0.0301206934319,
			"0.011": 0.0,
			"0.012": 0.0,
			"0.013": 0.0,
			"0.014": 0.0,
			"0.015": 0.0,
			"0.016": 0.0,
			"0.017": 0.0,
			"0.018": 0.0,
			"0.019": 0.0,
			"0.02": 0.0,
			"0.021": 0.0,
			"0.022": 0.0,
			"0.023": 0.0,
			"0.024": 0.0,
			"0.025": 0.0
		}
	}
}
