{
	 "smiles": "CC(=O)C1=CC=C(O)C=C1F", 
	 "Tm": 395.15, 
	 "num_atms": 18, 
	 "gaussian": { 
		 "optdone": 1, 
		 "sigma_profile": "yes", 
		 "theory": "DFT", 
		 "functional": "B3LYP", 
		 "basiset": "6-31G**", 
		 "properties": { 
			 "R2extent": 2668.5457, 
			 "electric_dipole_moment_norm": 3.96594285637, 
			 "electric_quadrupole_moment_norm": 7.54661735614, 
			 "total_energy": -559.351893164, 
			 "HOMO_LUMO_gap": 0.19198, 
			 "cosmo_polarized_energy": -12.0, 
			 "cosmo_cavitation_energy": 22.74, 
			 "cosmo_dispersion_energy": -16.79, 
			 "cosmo_repulsion_energy": 1.32, 
			 "cosmo_total_nonelectrostatic_energy": 7.27, 
			 "SMD_solvation_energy": 5.46 
		},
		"coords": [
			{
				"x": 2.4015660454,
				"y": 2.1084159746,
				"z": -1.0242349303,
				"element": "C" 
			},
			{
				"x": 1.9545986873,
				"y": 1.9098743706,
				"z": 0.4110813558,
				"element": "C" 
			},
			{
				"x": 1.9138738427,
				"y": 2.8592274208,
				"z": 1.1814503829,
				"element": "O" 
			},
			{
				"x": 1.5592397365,
				"y": 0.548863127,
				"z": 0.8966352251,
				"element": "C" 
			},
			{
				"x": 1.1520125247,
				"y": 0.4246436139,
				"z": 2.2409623004,
				"element": "C" 
			},
			{
				"x": 0.7664996419,
				"y": -0.7841207818,
				"z": 2.7928848832,
				"element": "C" 
			},
			{
				"x": 0.7765215471,
				"y": -1.9392129069,
				"z": 1.9947867677,
				"element": "C" 
			},
			{
				"x": 0.3913156382,
				"y": -3.10500137,
				"z": 2.5741183211,
				"element": "O" 
			},
			{
				"x": 1.1733013497,
				"y": -1.8608362258,
				"z": 0.6566992928,
				"element": "C" 
			},
			{
				"x": 1.5532582416,
				"y": -0.628521135,
				"z": 0.1399185196,
				"element": "C" 
			},
			{
				"x": 1.9275591259,
				"y": -0.6111624731,
				"z": -1.1593285735,
				"element": "F" 
			},
			{
				"x": 1.6167808853,
				"y": 1.8053724213,
				"z": -1.7240805268,
				"element": "H" 
			},
			{
				"x": 3.2764279811,
				"y": 1.4913133096,
				"z": -1.250690443,
				"element": "H" 
			},
			{
				"x": 2.6413185465,
				"y": 3.1627377762,
				"z": -1.1654734379,
				"element": "H" 
			},
			{
				"x": 1.15349759,
				"y": 1.3324564296,
				"z": 2.8353237881,
				"element": "H" 
			},
			{
				"x": 0.4557025251,
				"y": -0.8642338009,
				"z": 3.8286139157,
				"element": "H" 
			},
			{
				"x": 0.4403391233,
				"y": -3.8226826646,
				"z": 1.9286772798,
				"element": "H" 
			},
			{
				"x": 1.1933869675,
				"y": -2.7330330855,
				"z": 0.0103558793,
				"element": "H" 
			}
		],
		 "valence_orbital": [ 
			{
				"type": "occ",
				"energy": -0.36116,
				"method": "rhf"
			},
			{
				"type": "occ",
				"energy": -0.33072,
				"method": "rhf"
			},
			{
				"type": "occ",
				"energy": -0.26353,
				"method": "rhf"
			},
			{
				"type": "occ",
				"energy": -0.24709,
				"method": "rhf"
			},
			{
				"type": "occ",
				"energy": -0.24061,
				"method": "rhf"
			},
			{
				"type": "unocc",
				"energy": -0.04863,
				"method": "rhf"
			},
			{
				"type": "unocc",
				"energy": -0.01232,
				"method": "rhf"
			},
			{
				"type": "unocc",
				"energy": 0.04282,
				"method": "rhf"
			},
			{
				"type": "unocc",
				"energy": 0.05324,
				"method": "rhf"
			},
			{
				"type": "unocc",
				"energy": 0.0875,
				"method": "rhf"
			}
		],
		"cosmo_sigma_profile": { 
			"-0.025": 0.0,
			"-0.024": 0.0,
			"-0.023": 0.0,
			"-0.022": 0.0,
			"-0.021": 0.0,
			"-0.02": 0.0,
			"-0.019": 0.713591659021,
			"-0.018": 1.2346249115,
			"-0.017": 1.15604823094,
			"-0.016": 1.26748663194,
			"-0.015": 0.903251809111,
			"-0.014": 0.445589164736,
			"-0.013": 0.782553303611,
			"-0.012": 1.42034863857,
			"-0.011": 1.05132146838,
			"-0.01": 1.33157429321,
			"-0.009": 1.61397090474,
			"-0.008": 1.8005380528,
			"-0.007": 2.192861206,
			"-0.006": 5.31783153232,
			"-0.005": 10.2448049675,
			"-0.004": 10.754043322,
			"-0.003": 11.5402420003,
			"-0.002": 10.3898927305,
			"-0.001": 15.9265908038,
			"0.0": 15.6471074667,
			"0.001": 14.5512695107,
			"0.002": 20.0816228546,
			"0.003": 14.0348642039,
			"0.004": 8.7711200747,
			"0.005": 3.11439602492,
			"0.006": 3.47943610416,
			"0.007": 3.07789951377,
			"0.008": 1.91610342812,
			"0.009": 3.85185022838,
			"0.01": 3.65254185963,
			"0.011": 2.81467820181,
			"0.012": 4.16780558091,
			"0.013": 1.9913334154,
			"0.014": 0.299109541345,
			"0.015": 0.0,
			"0.016": 0.0,
			"0.017": 0.0,
			"0.018": 0.0,
			"0.019": 0.0,
			"0.02": 0.0,
			"0.021": 0.0,
			"0.022": 0.0,
			"0.023": 0.0,
			"0.024": 0.0,
			"0.025": 0.0
		}
	}
}
