{
	 "smiles": "CN(CC(=O)N1CCOCC1)CC1=C(Cl)C=CC=C1NC(=O)C1=CC=CC=C1", 
	 "Tm": 396.15, 
	 "num_atms": 52, 
	 "gaussian": { 
		 "optdone": 1, 
		 "sigma_profile": "yes", 
		 "theory": "DFT", 
		 "functional": "B3LYP", 
		 "basiset": "6-31G**", 
		 "properties": { 
			 "R2extent": 12449.7509, 
			 "electric_dipole_moment_norm": 5.40581353914, 
			 "electric_quadrupole_moment_norm": 22.2448776634, 
			 "total_energy": -1664.80946258, 
			 "HOMO_LUMO_gap": 0.1685, 
			 "cosmo_polarized_energy": -24.14, 
			 "cosmo_cavitation_energy": 54.95, 
			 "cosmo_dispersion_energy": -35.02, 
			 "cosmo_repulsion_energy": 2.63, 
			 "cosmo_total_nonelectrostatic_energy": 22.56, 
			 "SMD_solvation_energy": 8.8 
		},
		"coords": [
			{
				"x": 1.5923726867,
				"y": 0.067018557,
				"z": 3.0032141675,
				"element": "C" 
			},
			{
				"x": 0.9709270025,
				"y": 0.7029421184,
				"z": 1.8386227462,
				"element": "N" 
			},
			{
				"x": 0.4004646926,
				"y": 2.0112939295,
				"z": 2.1843163629,
				"element": "C" 
			},
			{
				"x": -0.7294410987,
				"y": 1.9173838945,
				"z": 3.2180932043,
				"element": "C" 
			},
			{
				"x": -0.5679767017,
				"y": 2.3301503413,
				"z": 4.36472622,
				"element": "O" 
			},
			{
				"x": -1.9191396473,
				"y": 1.3716025577,
				"z": 2.8151018551,
				"element": "N" 
			},
			{
				"x": -2.1926643999,
				"y": 0.8557679934,
				"z": 1.4713201936,
				"element": "C" 
			},
			{
				"x": -3.2747226014,
				"y": -0.2175477473,
				"z": 1.5581248315,
				"element": "C" 
			},
			{
				"x": -4.4969862245,
				"y": 0.2530528268,
				"z": 2.1149628693,
				"element": "O" 
			},
			{
				"x": -4.3520353774,
				"y": 1.3406898373,
				"z": 3.029661113,
				"element": "C" 
			},
			{
				"x": -3.0247871948,
				"y": 1.3212235371,
				"z": 3.7775293222,
				"element": "C" 
			},
			{
				"x": 1.9478951618,
				"y": 0.8163741293,
				"z": 0.737895615,
				"element": "C" 
			},
			{
				"x": 1.2917167579,
				"y": 1.0185035741,
				"z": -0.6150658025,
				"element": "C" 
			},
			{
				"x": 1.3423122665,
				"y": 2.2380748408,
				"z": -1.3121559735,
				"element": "C" 
			},
			{
				"x": 2.2484364264,
				"y": 3.6109592283,
				"z": -0.6683586633,
				"element": "Cl" 
			},
			{
				"x": 0.6838769733,
				"y": 2.4514421744,
				"z": -2.5244943781,
				"element": "C" 
			},
			{
				"x": -0.0557864484,
				"y": 1.4161617091,
				"z": -3.085301628,
				"element": "C" 
			},
			{
				"x": -0.1039467352,
				"y": 0.1795595223,
				"z": -2.448764214,
				"element": "C" 
			},
			{
				"x": 0.5667481824,
				"y": -0.0248942357,
				"z": -1.2389278882,
				"element": "C" 
			},
			{
				"x": 0.440936513,
				"y": -1.3127066037,
				"z": -0.6405928987,
				"element": "N" 
			},
			{
				"x": 1.4849738023,
				"y": -2.1895654896,
				"z": -0.4090371322,
				"element": "C" 
			},
			{
				"x": 2.6573015842,
				"y": -1.892543041,
				"z": -0.6068531334,
				"element": "O" 
			},
			{
				"x": 1.0829931138,
				"y": -3.5416152736,
				"z": 0.1058274056,
				"element": "C" 
			},
			{
				"x": 1.9816316666,
				"y": -4.5982977867,
				"z": -0.0970303899,
				"element": "C" 
			},
			{
				"x": 1.6730990585,
				"y": -5.8794828678,
				"z": 0.3530866146,
				"element": "C" 
			},
			{
				"x": 0.4706442391,
				"y": -6.1154188723,
				"z": 1.0252806161,
				"element": "C" 
			},
			{
				"x": -0.4192330753,
				"y": -5.0637333949,
				"z": 1.25138255,
				"element": "C" 
			},
			{
				"x": -0.1158770097,
				"y": -3.7811857994,
				"z": 0.7937527523,
				"element": "C" 
			},
			{
				"x": 2.4636759942,
				"y": 0.6291533138,
				"z": 3.3845554145,
				"element": "H" 
			},
			{
				"x": 1.9228403394,
				"y": -0.9405251994,
				"z": 2.7348545665,
				"element": "H" 
			},
			{
				"x": 0.8691191244,
				"y": -0.0113633353,
				"z": 3.8180750545,
				"element": "H" 
			},
			{
				"x": 1.147400529,
				"y": 2.6900690469,
				"z": 2.6259312636,
				"element": "H" 
			},
			{
				"x": 0.0272396131,
				"y": 2.4778623235,
				"z": 1.2661833775,
				"element": "H" 
			},
			{
				"x": -1.2767799098,
				"y": 0.4178517015,
				"z": 1.0681510156,
				"element": "H" 
			},
			{
				"x": -2.5252732278,
				"y": 1.6580471977,
				"z": 0.7958344009,
				"element": "H" 
			},
			{
				"x": -3.5068240302,
				"y": -0.5902011854,
				"z": 0.553895436,
				"element": "H" 
			},
			{
				"x": -2.8908568544,
				"y": -1.063813343,
				"z": 2.1509476637,
				"element": "H" 
			},
			{
				"x": -4.4553867216,
				"y": 2.2972982887,
				"z": 2.4943575466,
				"element": "H" 
			},
			{
				"x": -5.1817594862,
				"y": 1.2661881474,
				"z": 3.7397252463,
				"element": "H" 
			},
			{
				"x": -2.9410936738,
				"y": 2.1817845938,
				"z": 4.445704125,
				"element": "H" 
			},
			{
				"x": -2.9541210999,
				"y": 0.4197804717,
				"z": 4.4021531412,
				"element": "H" 
			},
			{
				"x": 2.5242514321,
				"y": -0.1088441092,
				"z": 0.6997500682,
				"element": "H" 
			},
			{
				"x": 2.6651485307,
				"y": 1.6282132162,
				"z": 0.9249877252,
				"element": "H" 
			},
			{
				"x": 0.7543048735,
				"y": 3.4176941897,
				"z": -3.0102154883,
				"element": "H" 
			},
			{
				"x": -0.5751316756,
				"y": 1.5672157761,
				"z": -4.0263970911,
				"element": "H" 
			},
			{
				"x": -0.6452995068,
				"y": -0.6479899147,
				"z": -2.8984214219,
				"element": "H" 
			},
			{
				"x": -0.4748821519,
				"y": -1.7320854247,
				"z": -0.7132319176,
				"element": "H" 
			},
			{
				"x": 2.9150286326,
				"y": -4.3894884332,
				"z": -0.6087082156,
				"element": "H" 
			},
			{
				"x": 2.3705857456,
				"y": -6.6944888402,
				"z": 0.1837530027,
				"element": "H" 
			},
			{
				"x": 0.2321940798,
				"y": -7.1138776352,
				"z": 1.3801467344,
				"element": "H" 
			},
			{
				"x": -1.3442039218,
				"y": -5.2387121961,
				"z": 1.792808508,
				"element": "H" 
			},
			{
				"x": -0.7969102478,
				"y": -2.9635783099,
				"z": 1.0130435067,
				"element": "H" 
			}
		],
		 "valence_orbital": [ 
			{
				"type": "occ",
				"energy": -0.25698,
				"method": "rhf"
			},
			{
				"type": "occ",
				"energy": -0.24574,
				"method": "rhf"
			},
			{
				"type": "occ",
				"energy": -0.24117,
				"method": "rhf"
			},
			{
				"type": "occ",
				"energy": -0.23471,
				"method": "rhf"
			},
			{
				"type": "occ",
				"energy": -0.22061,
				"method": "rhf"
			},
			{
				"type": "unocc",
				"energy": -0.05211,
				"method": "rhf"
			},
			{
				"type": "unocc",
				"energy": -0.02553,
				"method": "rhf"
			},
			{
				"type": "unocc",
				"energy": -0.02114,
				"method": "rhf"
			},
			{
				"type": "unocc",
				"energy": -0.01812,
				"method": "rhf"
			},
			{
				"type": "unocc",
				"energy": 0.02245,
				"method": "rhf"
			}
		],
		"cosmo_sigma_profile": { 
			"-0.025": 0.0,
			"-0.024": 0.0,
			"-0.023": 0.0,
			"-0.022": 0.0,
			"-0.021": 0.0,
			"-0.02": 0.0,
			"-0.019": 0.0,
			"-0.018": 0.0,
			"-0.017": 0.0,
			"-0.016": 0.0,
			"-0.015": 0.0328983882236,
			"-0.014": 0.685248367222,
			"-0.013": 1.14500723157,
			"-0.012": 1.27705547685,
			"-0.011": 1.69173062922,
			"-0.01": 1.50992703907,
			"-0.009": 1.83638807822,
			"-0.008": 2.30056355965,
			"-0.007": 7.46067939579,
			"-0.006": 19.4160567343,
			"-0.005": 33.4632767634,
			"-0.004": 43.9890448007,
			"-0.003": 42.0918782873,
			"-0.002": 38.5937450072,
			"-0.001": 37.050511458,
			"0.0": 31.2118586195,
			"0.001": 26.5149462761,
			"0.002": 28.1657797687,
			"0.003": 30.1011877283,
			"0.004": 26.1486947309,
			"0.005": 12.5501841403,
			"0.006": 5.07861002516,
			"0.007": 5.49254461555,
			"0.008": 5.09782599076,
			"0.009": 5.18195904111,
			"0.01": 4.14079557415,
			"0.011": 3.42143890116,
			"0.012": 6.40735854147,
			"0.013": 7.68419114299,
			"0.014": 5.51118832637,
			"0.015": 1.7610046095,
			"0.016": 0.0709655263383,
			"0.017": 0.0,
			"0.018": 0.0,
			"0.019": 0.0,
			"0.02": 0.0,
			"0.021": 0.0,
			"0.022": 0.0,
			"0.023": 0.0,
			"0.024": 0.0,
			"0.025": 0.0
		}
	}
}
