{
	 "smiles": "CCOC(=O)C(NS(C)(=O)=O)C(=O)OCC", 
	 "Tm": 346.15, 
	 "num_atms": 31, 
	 "gaussian": { 
		 "optdone": 1, 
		 "sigma_profile": "yes", 
		 "theory": "DFT", 
		 "functional": "B3LYP", 
		 "basiset": "6-31G**", 
		 "properties": { 
			 "R2extent": 5023.9075, 
			 "electric_dipole_moment_norm": 3.81972798246, 
			 "electric_quadrupole_moment_norm": 11.5763001067, 
			 "total_energy": -1218.12881973, 
			 "HOMO_LUMO_gap": 0.25984, 
			 "cosmo_polarized_energy": -19.85, 
			 "cosmo_cavitation_energy": 36.1, 
			 "cosmo_dispersion_energy": -25.25, 
			 "cosmo_repulsion_energy": 1.99, 
			 "cosmo_total_nonelectrostatic_energy": 12.83, 
			 "SMD_solvation_energy": 7.31 
		},
		"coords": [
			{
				"x": 2.6243305329,
				"y": 3.1051126231,
				"z": -1.1552487728,
				"element": "C" 
			},
			{
				"x": 1.556741819,
				"y": 2.1452356936,
				"z": -1.6415907633,
				"element": "C" 
			},
			{
				"x": 1.0802074849,
				"y": 1.4060176293,
				"z": -0.4874807129,
				"element": "O" 
			},
			{
				"x": 0.1715930019,
				"y": 0.4560143133,
				"z": -0.7306068744,
				"element": "C" 
			},
			{
				"x": -0.342139325,
				"y": 0.2502540746,
				"z": -1.8078551307,
				"element": "O" 
			},
			{
				"x": -0.1288922721,
				"y": -0.318640515,
				"z": 0.5533363704,
				"element": "C" 
			},
			{
				"x": -1.4654331983,
				"y": -0.9140903047,
				"z": 0.5415650365,
				"element": "N" 
			},
			{
				"x": -1.7440039188,
				"y": -2.3659564859,
				"z": -0.3322952445,
				"element": "S" 
			},
			{
				"x": -2.704643994,
				"y": -1.8109479087,
				"z": -1.7424731948,
				"element": "C" 
			},
			{
				"x": -2.6174337752,
				"y": -3.1594569019,
				"z": 0.5395422504,
				"element": "O" 
			},
			{
				"x": -0.4671557766,
				"y": -2.8968918394,
				"z": -0.8205461904,
				"element": "O" 
			},
			{
				"x": 1.0426227234,
				"y": -1.2777547679,
				"z": 0.8799845798,
				"element": "C" 
			},
			{
				"x": 2.1232893832,
				"y": -1.249088991,
				"z": 0.3413779963,
				"element": "O" 
			},
			{
				"x": 0.6903109231,
				"y": -2.0803351459,
				"z": 1.8959425808,
				"element": "O" 
			},
			{
				"x": 1.6442376324,
				"y": -3.1120308684,
				"z": 2.2688862983,
				"element": "C" 
			},
			{
				"x": 2.6617630717,
				"y": -2.5877389212,
				"z": 3.2690988416,
				"element": "C" 
			},
			{
				"x": 3.4544256793,
				"y": 2.5616783473,
				"z": -0.6959120574,
				"element": "H" 
			},
			{
				"x": 2.2179076528,
				"y": 3.8051798166,
				"z": -0.4195713891,
				"element": "H" 
			},
			{
				"x": 3.0135732961,
				"y": 3.6818291253,
				"z": -1.9999290473,
				"element": "H" 
			},
			{
				"x": 0.7077635385,
				"y": 2.6638644419,
				"z": -2.0976155189,
				"element": "H" 
			},
			{
				"x": 1.94480005,
				"y": 1.4292279674,
				"z": -2.3715101032,
				"element": "H" 
			},
			{
				"x": -0.1396691779,
				"y": 0.4155862001,
				"z": 1.367311603,
				"element": "H" 
			},
			{
				"x": -1.7862887877,
				"y": -1.1157210422,
				"z": 1.4854563556,
				"element": "H" 
			},
			{
				"x": -3.6303156266,
				"y": -1.3698708241,
				"z": -1.3725708057,
				"element": "H" 
			},
			{
				"x": -2.9121648845,
				"y": -2.7003909793,
				"z": -2.3403502804,
				"element": "H" 
			},
			{
				"x": -2.1036550217,
				"y": -1.0878923117,
				"z": -2.2908285287,
				"element": "H" 
			},
			{
				"x": 2.1250235325,
				"y": -3.4774230934,
				"z": 1.3592666832,
				"element": "H" 
			},
			{
				"x": 1.0255578409,
				"y": -3.9042824574,
				"z": 2.6947843108,
				"element": "H" 
			},
			{
				"x": 2.1662981947,
				"y": -2.1819721671,
				"z": 4.1562585928,
				"element": "H" 
			},
			{
				"x": 3.3182211626,
				"y": -3.4041737842,
				"z": 3.5880042269,
				"element": "H" 
			},
			{
				"x": 3.2797282386,
				"y": -1.8077409229,
				"z": 2.817968888,
				"element": "H" 
			}
		],
		 "valence_orbital": [ 
			{
				"type": "occ",
				"energy": -0.30445,
				"method": "rhf"
			},
			{
				"type": "occ",
				"energy": -0.2975,
				"method": "rhf"
			},
			{
				"type": "occ",
				"energy": -0.29645,
				"method": "rhf"
			},
			{
				"type": "occ",
				"energy": -0.28716,
				"method": "rhf"
			},
			{
				"type": "occ",
				"energy": -0.26403,
				"method": "rhf"
			},
			{
				"type": "unocc",
				"energy": -0.00419,
				"method": "rhf"
			},
			{
				"type": "unocc",
				"energy": 0.00168,
				"method": "rhf"
			},
			{
				"type": "unocc",
				"energy": 0.06362,
				"method": "rhf"
			},
			{
				"type": "unocc",
				"energy": 0.06915,
				"method": "rhf"
			},
			{
				"type": "unocc",
				"energy": 0.08587,
				"method": "rhf"
			}
		],
		"cosmo_sigma_profile": { 
			"-0.025": 0.0,
			"-0.024": 0.0,
			"-0.023": 0.0,
			"-0.022": 0.0,
			"-0.021": 0.0,
			"-0.02": 0.0,
			"-0.019": 0.0,
			"-0.018": 0.0,
			"-0.017": 0.0,
			"-0.016": 0.0,
			"-0.015": 0.760107592392,
			"-0.014": 1.01367554763,
			"-0.013": 0.968668109517,
			"-0.012": 1.20911733136,
			"-0.011": 3.08157341911,
			"-0.01": 2.85711320919,
			"-0.009": 3.77689827081,
			"-0.008": 5.36098799192,
			"-0.007": 5.3743854575,
			"-0.006": 10.8820689325,
			"-0.005": 19.7162268532,
			"-0.004": 33.8338526205,
			"-0.003": 26.4581643952,
			"-0.002": 22.2429438618,
			"-0.001": 19.9120910918,
			"0.0": 20.60054616,
			"0.001": 9.79493663186,
			"0.002": 7.5818274843,
			"0.003": 8.7629695746,
			"0.004": 9.09526320785,
			"0.005": 9.59333740333,
			"0.006": 8.97206688834,
			"0.007": 8.17875381032,
			"0.008": 8.46141202441,
			"0.009": 8.66245981717,
			"0.01": 11.5315937958,
			"0.011": 12.7979631986,
			"0.012": 2.08500590406,
			"0.013": 0.0,
			"0.014": 0.0,
			"0.015": 0.0,
			"0.016": 0.0,
			"0.017": 0.0,
			"0.018": 0.0,
			"0.019": 0.0,
			"0.02": 0.0,
			"0.021": 0.0,
			"0.022": 0.0,
			"0.023": 0.0,
			"0.024": 0.0,
			"0.025": 0.0
		}
	}
}
