{
	 "smiles": "COC1=CC=C(C=C1)C1=NC(CCl)=NO1", 
	 "Tm": 334.15, 
	 "num_atms": 24, 
	 "gaussian": { 
		 "optdone": 1, 
		 "sigma_profile": "yes", 
		 "theory": "DFT", 
		 "functional": "B3LYP", 
		 "basiset": "6-31G**", 
		 "properties": { 
			 "R2extent": 6774.962, 
			 "electric_dipole_moment_norm": 4.7517773601, 
			 "electric_quadrupole_moment_norm": 18.8119006065, 
			 "total_energy": -1106.58853544, 
			 "HOMO_LUMO_gap": 0.1754, 
			 "cosmo_polarized_energy": -11.2, 
			 "cosmo_cavitation_energy": 31.16, 
			 "cosmo_dispersion_energy": -23.1, 
			 "cosmo_repulsion_energy": 1.81, 
			 "cosmo_total_nonelectrostatic_energy": 9.87, 
			 "SMD_solvation_energy": 3.84 
		},
		"coords": [
			{
				"x": 0.0875269575,
				"y": 0.7136397423,
				"z": -4.610000106,
				"element": "C" 
			},
			{
				"x": 0.5218271093,
				"y": 1.2624903785,
				"z": -3.3719157233,
				"element": "O" 
			},
			{
				"x": 0.3897608243,
				"y": 0.5152203243,
				"z": -2.2467386785,
				"element": "C" 
			},
			{
				"x": 0.8417448219,
				"y": 1.1194013959,
				"z": -1.0601284065,
				"element": "C" 
			},
			{
				"x": 0.7529526961,
				"y": 0.4429430653,
				"z": 0.1443115468,
				"element": "C" 
			},
			{
				"x": 0.2092930144,
				"y": -0.8549934746,
				"z": 0.1921107851,
				"element": "C" 
			},
			{
				"x": -0.239034743,
				"y": -1.4523234262,
				"z": -0.9939978487,
				"element": "C" 
			},
			{
				"x": -0.1529806662,
				"y": -0.7784066637,
				"z": -2.2084240613,
				"element": "C" 
			},
			{
				"x": 0.1043801822,
				"y": -1.5886309539,
				"z": 1.4434298964,
				"element": "C" 
			},
			{
				"x": -0.3899579329,
				"y": -2.7840908368,
				"z": 1.6454316916,
				"element": "N" 
			},
			{
				"x": -0.22249223,
				"y": -2.9455268879,
				"z": 2.995858254,
				"element": "C" 
			},
			{
				"x": -0.6439171801,
				"y": -4.1621585,
				"z": 3.7447122179,
				"element": "C" 
			},
			{
				"x": 0.4360231033,
				"y": -5.5814332021,
				"z": 3.3912655419,
				"element": "Cl" 
			},
			{
				"x": 0.3315007949,
				"y": -1.9314818139,
				"z": 3.6171425128,
				"element": "N" 
			},
			{
				"x": 0.5544718759,
				"y": -1.0132298718,
				"z": 2.58082107,
				"element": "O" 
			},
			{
				"x": 0.6427597262,
				"y": -0.197939439,
				"z": -4.8626478105,
				"element": "H" 
			},
			{
				"x": -0.9865953858,
				"y": 0.4917302681,
				"z": -4.5968753759,
				"element": "H" 
			},
			{
				"x": 0.2881974633,
				"y": 1.4775684058,
				"z": -5.361988293,
				"element": "H" 
			},
			{
				"x": 1.2577183657,
				"y": 2.1195466476,
				"z": -1.115527715,
				"element": "H" 
			},
			{
				"x": 1.1035118027,
				"y": 0.9135506898,
				"z": 1.0565944765,
				"element": "H" 
			},
			{
				"x": -0.6551676228,
				"y": -2.4533050659,
				"z": -0.9535902327,
				"element": "H" 
			},
			{
				"x": -0.5058068742,
				"y": -1.2628043529,
				"z": -3.1105937509,
				"element": "H" 
			},
			{
				"x": -0.5957740497,
				"y": -3.9801354365,
				"z": 4.8171270787,
				"element": "H" 
			},
			{
				"x": -1.6499420528,
				"y": -4.4628309924,
				"z": 3.4527229304,
				"element": "H" 
			}
		],
		 "valence_orbital": [ 
			{
				"type": "occ",
				"energy": -0.30059,
				"method": "rhf"
			},
			{
				"type": "occ",
				"energy": -0.29709,
				"method": "rhf"
			},
			{
				"type": "occ",
				"energy": -0.29473,
				"method": "rhf"
			},
			{
				"type": "occ",
				"energy": -0.27073,
				"method": "rhf"
			},
			{
				"type": "occ",
				"energy": -0.23135,
				"method": "rhf"
			},
			{
				"type": "unocc",
				"energy": -0.05595,
				"method": "rhf"
			},
			{
				"type": "unocc",
				"energy": -0.02127,
				"method": "rhf"
			},
			{
				"type": "unocc",
				"energy": -0.014,
				"method": "rhf"
			},
			{
				"type": "unocc",
				"energy": 0.0435,
				"method": "rhf"
			},
			{
				"type": "unocc",
				"energy": 0.06613,
				"method": "rhf"
			}
		],
		"cosmo_sigma_profile": { 
			"-0.025": 0.0,
			"-0.024": 0.0,
			"-0.023": 0.0,
			"-0.022": 0.0,
			"-0.021": 0.0,
			"-0.02": 0.0,
			"-0.019": 0.0,
			"-0.018": 0.0,
			"-0.017": 0.0,
			"-0.016": 0.0,
			"-0.015": 0.0,
			"-0.014": 0.0,
			"-0.013": 0.0,
			"-0.012": 0.0,
			"-0.011": 0.0,
			"-0.01": 0.229625356967,
			"-0.009": 3.73829781713,
			"-0.008": 3.68475095925,
			"-0.007": 9.96577547576,
			"-0.006": 19.0835793283,
			"-0.005": 17.4533714303,
			"-0.004": 18.1295493102,
			"-0.003": 16.8555341904,
			"-0.002": 14.5274520969,
			"-0.001": 14.4293508761,
			"0.0": 15.1689370532,
			"0.001": 16.9127452328,
			"0.002": 22.2995769327,
			"0.003": 20.0293353091,
			"0.004": 12.3743670298,
			"0.005": 14.5912283728,
			"0.006": 12.9328796135,
			"0.007": 5.021796471,
			"0.008": 3.9333874499,
			"0.009": 3.88261825029,
			"0.01": 2.92812856265,
			"0.011": 1.75026440275,
			"0.012": 1.89569162133,
			"0.013": 0.423758143997,
			"0.014": 0.0,
			"0.015": 0.0,
			"0.016": 0.0,
			"0.017": 0.0,
			"0.018": 0.0,
			"0.019": 0.0,
			"0.02": 0.0,
			"0.021": 0.0,
			"0.022": 0.0,
			"0.023": 0.0,
			"0.024": 0.0,
			"0.025": 0.0
		}
	}
}
