{
	 "smiles": "CCOC(=O)C=CC1=CNC2=C1C=CC=C2", 
	 "Tm": 393.15, 
	 "num_atms": 29, 
	 "gaussian": { 
		 "optdone": 1, 
		 "sigma_profile": "yes", 
		 "theory": "DFT", 
		 "functional": "B3LYP", 
		 "basiset": "6-31G**", 
		 "properties": { 
			 "R2extent": 5626.1452, 
			 "electric_dipole_moment_norm": 3.84881745345, 
			 "electric_quadrupole_moment_norm": 25.2467678042, 
			 "total_energy": -708.42731515, 
			 "HOMO_LUMO_gap": 0.15363, 
			 "cosmo_polarized_energy": -15.92, 
			 "cosmo_cavitation_energy": 33.94, 
			 "cosmo_dispersion_energy": -24.41, 
			 "cosmo_repulsion_energy": 1.92, 
			 "cosmo_total_nonelectrostatic_energy": 11.46, 
			 "SMD_solvation_energy": 6.85 
		},
		"coords": [
			{
				"x": 5.2571641549,
				"y": -0.2719457022,
				"z": -0.367759975,
				"element": "C" 
			},
			{
				"x": 4.858441602,
				"y": 0.7053554205,
				"z": 0.7225516079,
				"element": "C" 
			},
			{
				"x": 3.4191978998,
				"y": 0.7752970349,
				"z": 0.7374247104,
				"element": "O" 
			},
			{
				"x": 2.8820164601,
				"y": 1.6132476211,
				"z": 1.6643374515,
				"element": "C" 
			},
			{
				"x": 3.5618208018,
				"y": 2.2670275157,
				"z": 2.4368492558,
				"element": "O" 
			},
			{
				"x": 1.4128799261,
				"y": 1.6477780674,
				"z": 1.6376413438,
				"element": "C" 
			},
			{
				"x": 0.6469711918,
				"y": 0.9297948349,
				"z": 0.7882568383,
				"element": "C" 
			},
			{
				"x": -0.797506517,
				"y": 0.9198774163,
				"z": 0.7122631557,
				"element": "C" 
			},
			{
				"x": -1.699973049,
				"y": 1.6338406012,
				"z": 1.4827549733,
				"element": "C" 
			},
			{
				"x": -2.9819498568,
				"y": 1.341406573,
				"z": 1.0931191311,
				"element": "N" 
			},
			{
				"x": -2.9576508311,
				"y": 0.4258971263,
				"z": 0.0543510267,
				"element": "C" 
			},
			{
				"x": -1.594656108,
				"y": 0.1366861893,
				"z": -0.2130092807,
				"element": "C" 
			},
			{
				"x": -1.2869113202,
				"y": -0.7757918928,
				"z": -1.2355616834,
				"element": "C" 
			},
			{
				"x": -2.3245213445,
				"y": -1.3631694563,
				"z": -1.9492274347,
				"element": "C" 
			},
			{
				"x": -3.671348888,
				"y": -1.0590515678,
				"z": -1.6642291267,
				"element": "C" 
			},
			{
				"x": -4.0076872644,
				"y": -0.1602542846,
				"z": -0.6584784415,
				"element": "C" 
			},
			{
				"x": 4.8968625075,
				"y": 0.0635805168,
				"z": -1.3447496447,
				"element": "H" 
			},
			{
				"x": 4.8445603269,
				"y": -1.2660963173,
				"z": -0.1719846646,
				"element": "H" 
			},
			{
				"x": 6.3476389005,
				"y": -0.3552549786,
				"z": -0.4135752717,
				"element": "H" 
			},
			{
				"x": 5.2113186118,
				"y": 0.3851070891,
				"z": 1.7084851599,
				"element": "H" 
			},
			{
				"x": 5.2634923451,
				"y": 1.7067682374,
				"z": 0.5429267469,
				"element": "H" 
			},
			{
				"x": 0.9856652918,
				"y": 2.3170692185,
				"z": 2.3782186795,
				"element": "H" 
			},
			{
				"x": 1.1628589786,
				"y": 0.2857785537,
				"z": 0.0802860753,
				"element": "H" 
			},
			{
				"x": -1.5178422158,
				"y": 2.3335564806,
				"z": 2.2857111116,
				"element": "H" 
			},
			{
				"x": -3.8136592998,
				"y": 1.7352509785,
				"z": 1.5031222201,
				"element": "H" 
			},
			{
				"x": -0.2544009941,
				"y": -1.0208005458,
				"z": -1.4675058659,
				"element": "H" 
			},
			{
				"x": -2.0972216999,
				"y": -2.0699412299,
				"z": -2.7417342972,
				"element": "H" 
			},
			{
				"x": -4.4595776872,
				"y": -1.5348174742,
				"z": -2.2399293877,
				"element": "H" 
			},
			{
				"x": -5.044581923,
				"y": 0.0759039745,
				"z": -0.4367544139,
				"element": "H" 
			}
		],
		 "valence_orbital": [ 
			{
				"type": "occ",
				"energy": -0.28319,
				"method": "rhf"
			},
			{
				"type": "occ",
				"energy": -0.25893,
				"method": "rhf"
			},
			{
				"type": "occ",
				"energy": -0.25436,
				"method": "rhf"
			},
			{
				"type": "occ",
				"energy": -0.23174,
				"method": "rhf"
			},
			{
				"type": "occ",
				"energy": -0.2021,
				"method": "rhf"
			},
			{
				"type": "unocc",
				"energy": -0.04847,
				"method": "rhf"
			},
			{
				"type": "unocc",
				"energy": -0.01067,
				"method": "rhf"
			},
			{
				"type": "unocc",
				"energy": 0.01965,
				"method": "rhf"
			},
			{
				"type": "unocc",
				"energy": 0.06823,
				"method": "rhf"
			},
			{
				"type": "unocc",
				"energy": 0.07022,
				"method": "rhf"
			}
		],
		"cosmo_sigma_profile": { 
			"-0.025": 0.0,
			"-0.024": 0.0,
			"-0.023": 0.0,
			"-0.022": 0.0,
			"-0.021": 0.0,
			"-0.02": 0.0,
			"-0.019": 0.0,
			"-0.018": 0.0,
			"-0.017": 0.239542180811,
			"-0.016": 1.87805430035,
			"-0.015": 1.24689498153,
			"-0.014": 1.6966561234,
			"-0.013": 0.639072277406,
			"-0.012": 1.62803420711,
			"-0.011": 1.36718891464,
			"-0.01": 1.38404574318,
			"-0.009": 3.31976278762,
			"-0.008": 3.75462961483,
			"-0.007": 6.43652396742,
			"-0.006": 7.66767404479,
			"-0.005": 13.3977846666,
			"-0.004": 20.5957570694,
			"-0.003": 23.8172949499,
			"-0.002": 20.228934775,
			"-0.001": 18.5864117237,
			"0.0": 19.7986258245,
			"0.001": 15.9565404865,
			"0.002": 17.9141651869,
			"0.003": 20.0548031468,
			"0.004": 20.6340525987,
			"0.005": 15.2852476617,
			"0.006": 12.179946167,
			"0.007": 5.01468926141,
			"0.008": 1.44053922143,
			"0.009": 1.16455144918,
			"0.01": 0.833596459864,
			"0.011": 2.11734054385,
			"0.012": 3.1473900423,
			"0.013": 5.65351057419,
			"0.014": 1.29479298663,
			"0.015": 0.0266879622226,
			"0.016": 0.0,
			"0.017": 0.0,
			"0.018": 0.0,
			"0.019": 0.0,
			"0.02": 0.0,
			"0.021": 0.0,
			"0.022": 0.0,
			"0.023": 0.0,
			"0.024": 0.0,
			"0.025": 0.0
		}
	}
}
