{
	 "smiles": "CC1=CC(=CC(=O)N1)C(F)(F)F", 
	 "Tm": 402.65, 
	 "num_atms": 18, 
	 "gaussian": { 
		 "optdone": 1, 
		 "sigma_profile": "yes", 
		 "theory": "DFT", 
		 "functional": "B3LYP", 
		 "basiset": "6-31G**", 
		 "properties": { 
			 "R2extent": 2804.1397, 
			 "electric_dipole_moment_norm": 4.68667867685, 
			 "electric_quadrupole_moment_norm": 14.9688254486, 
			 "total_energy": -699.876398515, 
			 "HOMO_LUMO_gap": 0.17098, 
			 "cosmo_polarized_energy": -12.91, 
			 "cosmo_cavitation_energy": 23.93, 
			 "cosmo_dispersion_energy": -17.1, 
			 "cosmo_repulsion_energy": 1.31, 
			 "cosmo_total_nonelectrostatic_energy": 8.15, 
			 "SMD_solvation_energy": 6.19 
		},
		"coords": [
			{
				"x": -1.1166434363,
				"y": -0.2333461747,
				"z": 2.5818329628,
				"element": "C" 
			},
			{
				"x": -0.847250729,
				"y": 0.5113126849,
				"z": 1.3065132324,
				"element": "C" 
			},
			{
				"x": -1.2730784975,
				"y": 0.1083775905,
				"z": 0.0717089955,
				"element": "C" 
			},
			{
				"x": -0.9465720232,
				"y": 0.9121244025,
				"z": -1.0631047457,
				"element": "C" 
			},
			{
				"x": -0.2260266313,
				"y": 2.0641297009,
				"z": -0.9494252675,
				"element": "C" 
			},
			{
				"x": 0.2440428869,
				"y": 2.5262484413,
				"z": 0.3463518,
				"element": "C" 
			},
			{
				"x": 0.8965098384,
				"y": 3.5389309798,
				"z": 0.5706566585,
				"element": "O" 
			},
			{
				"x": -0.1241309345,
				"y": 1.6707025484,
				"z": 1.4075447419,
				"element": "N" 
			},
			{
				"x": -1.4324432337,
				"y": 0.4365599992,
				"z": -2.4105421712,
				"element": "C" 
			},
			{
				"x": -0.9412681573,
				"y": -0.7912668562,
				"z": -2.6925358413,
				"element": "F" 
			},
			{
				"x": -1.0752884624,
				"y": 1.2590441957,
				"z": -3.4133422004,
				"element": "F" 
			},
			{
				"x": -2.7804869015,
				"y": 0.3323108484,
				"z": -2.4260608382,
				"element": "F" 
			},
			{
				"x": -1.6786374603,
				"y": 0.3882121683,
				"z": 3.288692093,
				"element": "H" 
			},
			{
				"x": -0.1803896857,
				"y": -0.5270853354,
				"z": 3.0706806868,
				"element": "H" 
			},
			{
				"x": -1.696823179,
				"y": -1.1361923939,
				"z": 2.3850446257,
				"element": "H" 
			},
			{
				"x": -1.845962802,
				"y": -0.8028093836,
				"z": -0.0391057035,
				"element": "H" 
			},
			{
				"x": 0.0223259457,
				"y": 2.6739731567,
				"z": -1.8079817239,
				"element": "H" 
			},
			{
				"x": 0.2006234626,
				"y": 1.9860734271,
				"z": 2.3143726949,
				"element": "H" 
			}
		],
		 "valence_orbital": [ 
			{
				"type": "occ",
				"energy": -0.37554,
				"method": "rhf"
			},
			{
				"type": "occ",
				"energy": -0.34155,
				"method": "rhf"
			},
			{
				"type": "occ",
				"energy": -0.31771,
				"method": "rhf"
			},
			{
				"type": "occ",
				"energy": -0.25811,
				"method": "rhf"
			},
			{
				"type": "occ",
				"energy": -0.22819,
				"method": "rhf"
			},
			{
				"type": "unocc",
				"energy": -0.05721,
				"method": "rhf"
			},
			{
				"type": "unocc",
				"energy": 0.00171,
				"method": "rhf"
			},
			{
				"type": "unocc",
				"energy": 0.06334,
				"method": "rhf"
			},
			{
				"type": "unocc",
				"energy": 0.10455,
				"method": "rhf"
			},
			{
				"type": "unocc",
				"energy": 0.10642,
				"method": "rhf"
			}
		],
		"cosmo_sigma_profile": { 
			"-0.025": 0.0,
			"-0.024": 0.0,
			"-0.023": 0.0,
			"-0.022": 0.0,
			"-0.021": 0.0,
			"-0.02": 0.0,
			"-0.019": 0.0,
			"-0.018": 0.0,
			"-0.017": 0.0,
			"-0.016": 0.545198801679,
			"-0.015": 0.773224874476,
			"-0.014": 1.01263107757,
			"-0.013": 1.34846736814,
			"-0.012": 1.16794803067,
			"-0.011": 1.05803932491,
			"-0.01": 1.07713995062,
			"-0.009": 1.03259250123,
			"-0.008": 2.62344437526,
			"-0.007": 6.75660707937,
			"-0.006": 10.3840508503,
			"-0.005": 8.16475048874,
			"-0.004": 9.46385990965,
			"-0.003": 10.7173833652,
			"-0.002": 15.4588258186,
			"-0.001": 17.034151579,
			"0.0": 14.586341288,
			"0.001": 16.8982876088,
			"0.002": 27.7471719766,
			"0.003": 20.386107121,
			"0.004": 1.24427525175,
			"0.005": 1.49542417015,
			"0.006": 0.938333684789,
			"0.007": 1.31051488293,
			"0.008": 1.38506238553,
			"0.009": 0.867037559776,
			"0.01": 1.49413628607,
			"0.011": 1.06245569445,
			"0.012": 1.50959638797,
			"0.013": 3.69078504085,
			"0.014": 6.13547326672,
			"0.015": 1.69268641978,
			"0.016": 0.0207191853721,
			"0.017": 0.0,
			"0.018": 0.0,
			"0.019": 0.0,
			"0.02": 0.0,
			"0.021": 0.0,
			"0.022": 0.0,
			"0.023": 0.0,
			"0.024": 0.0,
			"0.025": 0.0
		}
	}
}
