{
	 "smiles": "ClC1=CC=C(C=C1)C1=NN=C(NC(=O)NC2=CC(Cl)=CC=C2)O1", 
	 "Tm": 519.15, 
	 "num_atms": 33, 
	 "gaussian": { 
		 "optdone": 1, 
		 "sigma_profile": "yes", 
		 "theory": "DFT", 
		 "functional": "B3LYP", 
		 "basiset": "6-31G**", 
		 "properties": { 
			 "R2extent": 17618.7819, 
			 "electric_dipole_moment_norm": 4.10789189366, 
			 "electric_quadrupole_moment_norm": 24.2766626811, 
			 "total_energy": -1867.47314619, 
			 "HOMO_LUMO_gap": 0.16015, 
			 "cosmo_polarized_energy": -16.47, 
			 "cosmo_cavitation_energy": 43.36, 
			 "cosmo_dispersion_energy": -32.14, 
			 "cosmo_repulsion_energy": 2.41, 
			 "cosmo_total_nonelectrostatic_energy": 13.63, 
			 "SMD_solvation_energy": 6.09 
		},
		"coords": [
			{
				"x": 3.4177434422,
				"y": -6.0305745779,
				"z": -5.3133379946,
				"element": "Cl" 
			},
			{
				"x": 2.7295379549,
				"y": -4.811262018,
				"z": -4.2592120741,
				"element": "C" 
			},
			{
				"x": 1.9932542416,
				"y": -3.7610124665,
				"z": -4.8137964728,
				"element": "C" 
			},
			{
				"x": 1.4483097399,
				"y": -2.7951710512,
				"z": -3.9763722389,
				"element": "C" 
			},
			{
				"x": 1.6358602503,
				"y": -2.8739957491,
				"z": -2.5859924309,
				"element": "C" 
			},
			{
				"x": 2.377925381,
				"y": -3.9354041418,
				"z": -2.0468115574,
				"element": "C" 
			},
			{
				"x": 2.9261607802,
				"y": -4.905889486,
				"z": -2.8813913285,
				"element": "C" 
			},
			{
				"x": 1.0532982661,
				"y": -1.8482983305,
				"z": -1.7342170865,
				"element": "C" 
			},
			{
				"x": 0.3481259893,
				"y": -0.8131681344,
				"z": -2.0660796936,
				"element": "N" 
			},
			{
				"x": 0.0278855222,
				"y": -0.1418984178,
				"z": -0.8877086007,
				"element": "N" 
			},
			{
				"x": 0.571064177,
				"y": -0.8321149235,
				"z": 0.0755167704,
				"element": "C" 
			},
			{
				"x": 0.5497937555,
				"y": -0.5963930839,
				"z": 1.4162699156,
				"element": "N" 
			},
			{
				"x": -0.0731849454,
				"y": 0.4697986591,
				"z": 2.1242601161,
				"element": "C" 
			},
			{
				"x": 0.0347113329,
				"y": 0.488217632,
				"z": 3.3395143504,
				"element": "O" 
			},
			{
				"x": -0.7311698248,
				"y": 1.361926515,
				"z": 1.3305104867,
				"element": "N" 
			},
			{
				"x": -1.435867519,
				"y": 2.510139575,
				"z": 1.7480945702,
				"element": "C" 
			},
			{
				"x": -1.5534618453,
				"y": 2.8964727877,
				"z": 3.0912531983,
				"element": "C" 
			},
			{
				"x": -2.2744802036,
				"y": 4.0513628369,
				"z": 3.3877195436,
				"element": "C" 
			},
			{
				"x": -2.4222889684,
				"y": 4.5364929768,
				"z": 5.0730988073,
				"element": "Cl" 
			},
			{
				"x": -2.8793001114,
				"y": 4.8318676776,
				"z": 2.404934376,
				"element": "C" 
			},
			{
				"x": -2.7501421584,
				"y": 4.4297611432,
				"z": 1.0746089505,
				"element": "C" 
			},
			{
				"x": -2.0377300235,
				"y": 3.2825210251,
				"z": 0.741553171,
				"element": "C" 
			},
			{
				"x": 1.2380132234,
				"y": -1.9250020733,
				"z": -0.3628048749,
				"element": "O" 
			},
			{
				"x": 1.8514636029,
				"y": -3.704744204,
				"z": -5.8870900313,
				"element": "H" 
			},
			{
				"x": 0.8737897346,
				"y": -1.9724636115,
				"z": -4.3879700411,
				"element": "H" 
			},
			{
				"x": 2.5272780338,
				"y": -4.0035042201,
				"z": -0.9747626509,
				"element": "H" 
			},
			{
				"x": 3.5002722775,
				"y": -5.7278708647,
				"z": -2.4692274391,
				"element": "H" 
			},
			{
				"x": 1.0310522975,
				"y": -1.24504337,
				"z": 2.0233953522,
				"element": "H" 
			},
			{
				"x": -0.7128567173,
				"y": 1.181081371,
				"z": 0.3253206057,
				"element": "H" 
			},
			{
				"x": -1.0938911936,
				"y": 2.3085647449,
				"z": 3.871758432,
				"element": "H" 
			},
			{
				"x": -3.4323755046,
				"y": 5.7240872028,
				"z": 2.6738306692,
				"element": "H" 
			},
			{
				"x": -3.2115957606,
				"y": 5.0197749847,
				"z": 0.2885983837,
				"element": "H" 
			},
			{
				"x": -1.9443952271,
				"y": 2.9800415928,
				"z": -0.2977631837,
				"element": "H" 
			}
		],
		 "valence_orbital": [ 
			{
				"type": "occ",
				"energy": -0.28803,
				"method": "rhf"
			},
			{
				"type": "occ",
				"energy": -0.28546,
				"method": "rhf"
			},
			{
				"type": "occ",
				"energy": -0.24973,
				"method": "rhf"
			},
			{
				"type": "occ",
				"energy": -0.24271,
				"method": "rhf"
			},
			{
				"type": "occ",
				"energy": -0.22925,
				"method": "rhf"
			},
			{
				"type": "unocc",
				"energy": -0.0691,
				"method": "rhf"
			},
			{
				"type": "unocc",
				"energy": -0.03458,
				"method": "rhf"
			},
			{
				"type": "unocc",
				"energy": -0.02503,
				"method": "rhf"
			},
			{
				"type": "unocc",
				"energy": -0.01133,
				"method": "rhf"
			},
			{
				"type": "unocc",
				"energy": 0.00846,
				"method": "rhf"
			}
		],
		"cosmo_sigma_profile": { 
			"-0.025": 0.0,
			"-0.024": 0.0,
			"-0.023": 0.0,
			"-0.022": 0.0,
			"-0.021": 0.0,
			"-0.02": 0.0,
			"-0.019": 0.0,
			"-0.018": 0.00647777560746,
			"-0.017": 0.959509619916,
			"-0.016": 0.919271679574,
			"-0.015": 0.913680279088,
			"-0.014": 1.01478735063,
			"-0.013": 0.955901114021,
			"-0.012": 0.650539413861,
			"-0.011": 1.24012021427,
			"-0.01": 0.931000690672,
			"-0.009": 1.17180431531,
			"-0.008": 6.38250444327,
			"-0.007": 13.4287783565,
			"-0.006": 16.5949724188,
			"-0.005": 17.7816181494,
			"-0.004": 19.6861147362,
			"-0.003": 21.4996296608,
			"-0.002": 23.659125047,
			"-0.001": 23.6409952653,
			"0.0": 29.1731394391,
			"0.001": 35.1910269913,
			"0.002": 39.3202649782,
			"0.003": 29.931061707,
			"0.004": 28.8831769514,
			"0.005": 12.7474307621,
			"0.006": 2.59469243291,
			"0.007": 4.00853924883,
			"0.008": 3.64988994117,
			"0.009": 3.91940704262,
			"0.01": 4.37913070245,
			"0.011": 3.80793737405,
			"0.012": 4.75116019208,
			"0.013": 1.21814634938,
			"0.014": 0.212305746129,
			"0.015": 0.0,
			"0.016": 0.0,
			"0.017": 0.0,
			"0.018": 0.0,
			"0.019": 0.0,
			"0.02": 0.0,
			"0.021": 0.0,
			"0.022": 0.0,
			"0.023": 0.0,
			"0.024": 0.0,
			"0.025": 0.0
		}
	}
}
