{
	 "smiles": "NC(=O)C1=NN(C=C1)C1=CC=C(N)C=C1", 
	 "Tm": 504.15, 
	 "num_atms": 25, 
	 "gaussian": { 
		 "optdone": 1, 
		 "sigma_profile": "yes", 
		 "theory": "DFT", 
		 "functional": "B3LYP", 
		 "basiset": "6-31G**", 
		 "properties": { 
			 "R2extent": 5437.1581, 
			 "electric_dipole_moment_norm": 6.42623322795, 
			 "electric_quadrupole_moment_norm": 19.2012080378, 
			 "total_energy": -681.323725724, 
			 "HOMO_LUMO_gap": 0.1709, 
			 "cosmo_polarized_energy": -19.56, 
			 "cosmo_cavitation_energy": 29.94, 
			 "cosmo_dispersion_energy": -22.19, 
			 "cosmo_repulsion_energy": 1.73, 
			 "cosmo_total_nonelectrostatic_energy": 9.49, 
			 "SMD_solvation_energy": 5.66 
		},
		"coords": [
			{
				"x": 0.6815568952,
				"y": 0.7118533573,
				"z": 5.5347830146,
				"element": "N" 
			},
			{
				"x": 0.1099314663,
				"y": 1.8078629926,
				"z": 4.9604873902,
				"element": "C" 
			},
			{
				"x": -0.3670669716,
				"y": 2.7410430655,
				"z": 5.5973667463,
				"element": "O" 
			},
			{
				"x": 0.1018147196,
				"y": 1.7956272804,
				"z": 3.4716616725,
				"element": "C" 
			},
			{
				"x": 0.6187682197,
				"y": 0.7848944391,
				"z": 2.7672425916,
				"element": "N" 
			},
			{
				"x": 0.4331111501,
				"y": 1.1206848711,
				"z": 1.4729654574,
				"element": "N" 
			},
			{
				"x": -0.1957793306,
				"y": 2.3342763644,
				"z": 1.3558482333,
				"element": "C" 
			},
			{
				"x": -0.4246909475,
				"y": 2.7997466961,
				"z": 2.630103465,
				"element": "C" 
			},
			{
				"x": 0.8732694124,
				"y": 0.2496513985,
				"z": 0.4350770851,
				"element": "C" 
			},
			{
				"x": 1.4959691591,
				"y": -0.9605022306,
				"z": 0.7606867392,
				"element": "C" 
			},
			{
				"x": 1.9271725418,
				"y": -1.8202622259,
				"z": -0.241390446,
				"element": "C" 
			},
			{
				"x": 1.7511444854,
				"y": -1.5008796614,
				"z": -1.5992038693,
				"element": "C" 
			},
			{
				"x": 2.2363809508,
				"y": -2.338652076,
				"z": -2.6025443455,
				"element": "N" 
			},
			{
				"x": 1.1250238624,
				"y": -0.2832496165,
				"z": -1.9131264939,
				"element": "C" 
			},
			{
				"x": 0.6923435176,
				"y": 0.5801411021,
				"z": -0.9119278864,
				"element": "C" 
			},
			{
				"x": 0.7288408753,
				"y": 0.6634830284,
				"z": 6.5396108643,
				"element": "H" 
			},
			{
				"x": 1.0697336149,
				"y": -0.0221867308,
				"z": 4.9637822544,
				"element": "H" 
			},
			{
				"x": -0.4282047351,
				"y": 2.7671114385,
				"z": 0.3964788645,
				"element": "H" 
			},
			{
				"x": -0.8974580369,
				"y": 3.7199383809,
				"z": 2.9342225695,
				"element": "H" 
			},
			{
				"x": 1.6338361145,
				"y": -1.2164251523,
				"z": 1.8033026246,
				"element": "H" 
			},
			{
				"x": 2.4123981665,
				"y": -2.7541757415,
				"z": 0.0305768574,
				"element": "H" 
			},
			{
				"x": 1.7895868428,
				"y": -2.2409090407,
				"z": -3.5036555283,
				"element": "H" 
			},
			{
				"x": 2.3504807786,
				"y": -3.3077276221,
				"z": -2.3397164189,
				"element": "H" 
			},
			{
				"x": 0.9791842294,
				"y": -0.00656334,
				"z": -2.9539522984,
				"element": "H" 
			},
			{
				"x": 0.2123530193,
				"y": 1.5087190227,
				"z": -1.1993791434,
				"element": "H" 
			}
		],
		 "valence_orbital": [ 
			{
				"type": "occ",
				"energy": -0.26298,
				"method": "rhf"
			},
			{
				"type": "occ",
				"energy": -0.25654,
				"method": "rhf"
			},
			{
				"type": "occ",
				"energy": -0.24945,
				"method": "rhf"
			},
			{
				"type": "occ",
				"energy": -0.24088,
				"method": "rhf"
			},
			{
				"type": "occ",
				"energy": -0.20055,
				"method": "rhf"
			},
			{
				"type": "unocc",
				"energy": -0.02965,
				"method": "rhf"
			},
			{
				"type": "unocc",
				"energy": -0.01188,
				"method": "rhf"
			},
			{
				"type": "unocc",
				"energy": 0.01558,
				"method": "rhf"
			},
			{
				"type": "unocc",
				"energy": 0.0491,
				"method": "rhf"
			},
			{
				"type": "unocc",
				"energy": 0.07238,
				"method": "rhf"
			}
		],
		"cosmo_sigma_profile": { 
			"-0.025": 0.0,
			"-0.024": 0.0,
			"-0.023": 0.0,
			"-0.022": 0.0,
			"-0.021": 0.0,
			"-0.02": 0.0,
			"-0.019": 0.0,
			"-0.018": 0.0,
			"-0.017": 0.0,
			"-0.016": 0.0,
			"-0.015": 0.0105219304306,
			"-0.014": 0.964176147476,
			"-0.013": 2.11187319321,
			"-0.012": 4.549494499,
			"-0.011": 5.28931914876,
			"-0.01": 6.34425921143,
			"-0.009": 7.83236330325,
			"-0.008": 7.42634744143,
			"-0.007": 8.12332955534,
			"-0.006": 10.2702876173,
			"-0.005": 10.2985507334,
			"-0.004": 11.5495427285,
			"-0.003": 9.64785539222,
			"-0.002": 7.6601356976,
			"-0.001": 10.9023166092,
			"0.0": 11.8328007251,
			"0.001": 15.3528413315,
			"0.002": 18.7483964645,
			"0.003": 21.8580300593,
			"0.004": 17.4743552976,
			"0.005": 17.8073596109,
			"0.006": 6.16546896602,
			"0.007": 3.21691454845,
			"0.008": 4.07378771069,
			"0.009": 2.35576033412,
			"0.01": 0.798141099179,
			"0.011": 2.04091526777,
			"0.012": 3.34785561156,
			"0.013": 3.8619654038,
			"0.014": 6.06681141993,
			"0.015": 1.29647649911,
			"0.016": 0.0,
			"0.017": 0.0,
			"0.018": 0.0,
			"0.019": 0.0,
			"0.02": 0.0,
			"0.021": 0.0,
			"0.022": 0.0,
			"0.023": 0.0,
			"0.024": 0.0,
			"0.025": 0.0
		}
	}
}
