{
	 "smiles": "NC(=NO)C1=CC=C(OC2=C(F)C=C(F)C=C2)C(=C1)[N+]([O-])=O", 
	 "Tm": 439.15, 
	 "num_atms": 31, 
	 "gaussian": { 
		 "optdone": 1, 
		 "sigma_profile": "yes", 
		 "theory": "DFT", 
		 "functional": "B3LYP", 
		 "basiset": "6-31G**", 
		 "properties": { 
			 "R2extent": 9099.1939, 
			 "electric_dipole_moment_norm": 4.85971310779, 
			 "electric_quadrupole_moment_norm": 13.1673381198, 
			 "total_energy": -1165.43954761, 
			 "HOMO_LUMO_gap": 0.1337, 
			 "cosmo_polarized_energy": -17.74, 
			 "cosmo_cavitation_energy": 38.49, 
			 "cosmo_dispersion_energy": -26.64, 
			 "cosmo_repulsion_energy": 2.01, 
			 "cosmo_total_nonelectrostatic_energy": 13.86, 
			 "SMD_solvation_energy": 9.87 
		},
		"coords": [
			{
				"x": 1.0571722824,
				"y": -0.9253734737,
				"z": -4.3407739997,
				"element": "N" 
			},
			{
				"x": 1.9706028398,
				"y": -0.6253913431,
				"z": -3.3242040836,
				"element": "C" 
			},
			{
				"x": 3.2078991244,
				"y": -0.5407998517,
				"z": -3.6831895055,
				"element": "N" 
			},
			{
				"x": 4.0999532391,
				"y": -0.4395903479,
				"z": -2.5918254644,
				"element": "O" 
			},
			{
				"x": 1.3945070225,
				"y": -0.5103098192,
				"z": -1.959499192,
				"element": "C" 
			},
			{
				"x": 1.9463666828,
				"y": 0.3275876513,
				"z": -0.9726889454,
				"element": "C" 
			},
			{
				"x": 1.358017687,
				"y": 0.4234678885,
				"z": 0.2810257383,
				"element": "C" 
			},
			{
				"x": 0.197692924,
				"y": -0.2903119793,
				"z": 0.6017418348,
				"element": "C" 
			},
			{
				"x": -0.3012795637,
				"y": -0.0944309918,
				"z": 1.8577672154,
				"element": "O" 
			},
			{
				"x": -0.5362070346,
				"y": -1.1691852635,
				"z": 2.6962707485,
				"element": "C" 
			},
			{
				"x": -1.5891153861,
				"y": -1.0399876788,
				"z": 3.6079790691,
				"element": "C" 
			},
			{
				"x": -2.348156287,
				"y": 0.0626190893,
				"z": 3.5697776962,
				"element": "F" 
			},
			{
				"x": -1.8573181049,
				"y": -2.0277943903,
				"z": 4.5437617014,
				"element": "C" 
			},
			{
				"x": -1.0517076312,
				"y": -3.1631657477,
				"z": 4.548575833,
				"element": "C" 
			},
			{
				"x": -1.3070196119,
				"y": -4.1309625022,
				"z": 5.4505721431,
				"element": "F" 
			},
			{
				"x": 0.0013956724,
				"y": -3.3242194045,
				"z": 3.6580038097,
				"element": "C" 
			},
			{
				"x": 0.2604944883,
				"y": -2.3112871382,
				"z": 2.7310350436,
				"element": "C" 
			},
			{
				"x": -0.3721296723,
				"y": -1.1064094536,
				"z": -0.3963897494,
				"element": "C" 
			},
			{
				"x": 0.231615611,
				"y": -1.2210730773,
				"z": -1.649005852,
				"element": "C" 
			},
			{
				"x": -1.6443738872,
				"y": -1.8184092607,
				"z": -0.2114381247,
				"element": "N" 
			},
			{
				"x": -2.4159466161,
				"y": -1.3997252486,
				"z": 0.6496475848,
				"element": "O" 
			},
			{
				"x": -1.8739507072,
				"y": -2.7717220862,
				"z": -0.9556626473,
				"element": "O" 
			},
			{
				"x": 1.5065446538,
				"y": -0.9647232295,
				"z": -5.2487762609,
				"element": "H" 
			},
			{
				"x": 0.2346092939,
				"y": -0.3327539188,
				"z": -4.3505304929,
				"element": "H" 
			},
			{
				"x": 4.9535071513,
				"y": -0.4308981221,
				"z": -3.0432649518,
				"element": "H" 
			},
			{
				"x": 2.8480137388,
				"y": 0.884729508,
				"z": -1.1886534882,
				"element": "H" 
			},
			{
				"x": 1.7866287155,
				"y": 1.0530760904,
				"z": 1.0531776285,
				"element": "H" 
			},
			{
				"x": -2.6803272997,
				"y": -1.9178503039,
				"z": 5.2392382759,
				"element": "H" 
			},
			{
				"x": 0.6092017842,
				"y": -4.220558836,
				"z": 3.6971915035,
				"element": "H" 
			},
			{
				"x": 1.0871804028,
				"y": -2.4096888991,
				"z": 2.0355553188,
				"element": "H" 
			},
			{
				"x": -0.2245715122,
				"y": -1.8778578598,
				"z": -2.3786183868,
				"element": "H" 
			}
		],
		 "valence_orbital": [ 
			{
				"type": "occ",
				"energy": -0.27996,
				"method": "rhf"
			},
			{
				"type": "occ",
				"energy": -0.27521,
				"method": "rhf"
			},
			{
				"type": "occ",
				"energy": -0.26392,
				"method": "rhf"
			},
			{
				"type": "occ",
				"energy": -0.23491,
				"method": "rhf"
			},
			{
				"type": "occ",
				"energy": -0.2253,
				"method": "rhf"
			},
			{
				"type": "unocc",
				"energy": -0.0916,
				"method": "rhf"
			},
			{
				"type": "unocc",
				"energy": -0.05096,
				"method": "rhf"
			},
			{
				"type": "unocc",
				"energy": -0.01832,
				"method": "rhf"
			},
			{
				"type": "unocc",
				"energy": -0.01499,
				"method": "rhf"
			},
			{
				"type": "unocc",
				"energy": 0.00092,
				"method": "rhf"
			}
		],
		"cosmo_sigma_profile": { 
			"-0.025": 0.0,
			"-0.024": 0.0,
			"-0.023": 0.0,
			"-0.022": 0.0,
			"-0.021": 0.0,
			"-0.02": 0.0,
			"-0.019": 0.0,
			"-0.018": 0.0121461989365,
			"-0.017": 0.547434616838,
			"-0.016": 1.01213636985,
			"-0.015": 0.844475573112,
			"-0.014": 1.23847521703,
			"-0.013": 1.87808274475,
			"-0.012": 2.74374669052,
			"-0.011": 2.49840268956,
			"-0.01": 4.06102319893,
			"-0.009": 4.87900281201,
			"-0.008": 8.10949360735,
			"-0.007": 11.8086236483,
			"-0.006": 14.3707281544,
			"-0.005": 11.7980004707,
			"-0.004": 13.8021607567,
			"-0.003": 14.9510496517,
			"-0.002": 16.0786826373,
			"-0.001": 21.8763592595,
			"0.0": 27.1564748722,
			"0.001": 25.9896342902,
			"0.002": 17.6902198387,
			"0.003": 19.9734837012,
			"0.004": 23.5510351576,
			"0.005": 12.2454936282,
			"0.006": 10.9177391844,
			"0.007": 14.4243892654,
			"0.008": 9.86230533204,
			"0.009": 6.98177832664,
			"0.01": 3.83637661012,
			"0.011": 1.92429008688,
			"0.012": 1.18990579004,
			"0.013": 0.560518755488,
			"0.014": 0.164553023571,
			"0.015": 0.0,
			"0.016": 0.0,
			"0.017": 0.0,
			"0.018": 0.0,
			"0.019": 0.0,
			"0.02": 0.0,
			"0.021": 0.0,
			"0.022": 0.0,
			"0.023": 0.0,
			"0.024": 0.0,
			"0.025": 0.0
		}
	}
}
