{
	 "smiles": "CCOC(=O)C1=CN=C(N)N=C1C(F)(F)F", 
	 "Tm": 453.15, 
	 "num_atms": 24, 
	 "gaussian": { 
		 "optdone": 1, 
		 "sigma_profile": "yes", 
		 "theory": "DFT", 
		 "functional": "B3LYP", 
		 "basiset": "6-31G**", 
		 "properties": { 
			 "R2extent": 3831.5996, 
			 "electric_dipole_moment_norm": 4.00786696511, 
			 "electric_quadrupole_moment_norm": 16.664543724, 
			 "total_energy": -923.919540987, 
			 "HOMO_LUMO_gap": 0.18861, 
			 "cosmo_polarized_energy": -13.24, 
			 "cosmo_cavitation_energy": 30.26, 
			 "cosmo_dispersion_energy": -21.66, 
			 "cosmo_repulsion_energy": 1.67, 
			 "cosmo_total_nonelectrostatic_energy": 10.28, 
			 "SMD_solvation_energy": 4.74 
		},
		"coords": [
			{
				"x": -2.0667589635,
				"y": -1.8689264925,
				"z": -3.1567836092,
				"element": "C" 
			},
			{
				"x": -0.9225920378,
				"y": -2.4764958846,
				"z": -2.3595266038,
				"element": "C" 
			},
			{
				"x": -0.1009312496,
				"y": -1.4504381317,
				"z": -1.7513566389,
				"element": "O" 
			},
			{
				"x": -0.5190899454,
				"y": -0.9799985133,
				"z": -0.5493342945,
				"element": "C" 
			},
			{
				"x": -1.5265638556,
				"y": -1.3644662708,
				"z": 0.00627524,
				"element": "O" 
			},
			{
				"x": 0.4323097553,
				"y": 0.0312477088,
				"z": -0.0158104054,
				"element": "C" 
			},
			{
				"x": 1.7165121188,
				"y": 0.1662350005,
				"z": -0.5759897149,
				"element": "C" 
			},
			{
				"x": 2.6422877813,
				"y": 1.0056864373,
				"z": -0.1320582609,
				"element": "N" 
			},
			{
				"x": 2.2773734567,
				"y": 1.7588465188,
				"z": 0.9265972382,
				"element": "C" 
			},
			{
				"x": 3.1983981687,
				"y": 2.6114416331,
				"z": 1.4254050357,
				"element": "N" 
			},
			{
				"x": 1.0725281398,
				"y": 1.7446288969,
				"z": 1.5347401615,
				"element": "N" 
			},
			{
				"x": 0.169302982,
				"y": 0.8946441142,
				"z": 1.0694858185,
				"element": "C" 
			},
			{
				"x": -1.1794651545,
				"y": 0.9610341486,
				"z": 1.7997537068,
				"element": "C" 
			},
			{
				"x": -1.3991530751,
				"y": -0.1560346693,
				"z": 2.5125456794,
				"element": "F" 
			},
			{
				"x": -1.2120961523,
				"y": 1.9964233957,
				"z": 2.6533471881,
				"element": "F" 
			},
			{
				"x": -2.1909826877,
				"y": 1.1307204407,
				"z": 0.9282330084,
				"element": "F" 
			},
			{
				"x": -2.6232764048,
				"y": -2.6618071089,
				"z": -3.6675775434,
				"element": "H" 
			},
			{
				"x": -2.7555154483,
				"y": -1.3377500005,
				"z": -2.4957346467,
				"element": "H" 
			},
			{
				"x": -1.6897222312,
				"y": -1.1727803246,
				"z": -3.9117751346,
				"element": "H" 
			},
			{
				"x": -0.2326024769,
				"y": -3.0273635455,
				"z": -3.0032474406,
				"element": "H" 
			},
			{
				"x": -1.2964569429,
				"y": -3.1385222929,
				"z": -1.5750955402,
				"element": "H" 
			},
			{
				"x": 1.9901917597,
				"y": -0.4518261845,
				"z": -1.425780043,
				"element": "H" 
			},
			{
				"x": 4.1026176393,
				"y": 2.6713151468,
				"z": 0.9882358363,
				"element": "H" 
			},
			{
				"x": 2.9531848241,
				"y": 3.2066859776,
				"z": 2.1987509634,
				"element": "H" 
			}
		],
		 "valence_orbital": [ 
			{
				"type": "occ",
				"energy": -0.33139,
				"method": "rhf"
			},
			{
				"type": "occ",
				"energy": -0.30134,
				"method": "rhf"
			},
			{
				"type": "occ",
				"energy": -0.27691,
				"method": "rhf"
			},
			{
				"type": "occ",
				"energy": -0.26575,
				"method": "rhf"
			},
			{
				"type": "occ",
				"energy": -0.24814,
				"method": "rhf"
			},
			{
				"type": "unocc",
				"energy": -0.05953,
				"method": "rhf"
			},
			{
				"type": "unocc",
				"energy": -0.04712,
				"method": "rhf"
			},
			{
				"type": "unocc",
				"energy": 0.04408,
				"method": "rhf"
			},
			{
				"type": "unocc",
				"energy": 0.0759,
				"method": "rhf"
			},
			{
				"type": "unocc",
				"energy": 0.10634,
				"method": "rhf"
			}
		],
		"cosmo_sigma_profile": { 
			"-0.025": 0.0,
			"-0.024": 0.0,
			"-0.023": 0.0,
			"-0.022": 0.0,
			"-0.021": 0.0,
			"-0.02": 0.0,
			"-0.019": 0.0,
			"-0.018": 0.0,
			"-0.017": 0.0,
			"-0.016": 0.0189423134877,
			"-0.015": 1.96970088303,
			"-0.014": 1.72232533009,
			"-0.013": 1.88758974753,
			"-0.012": 2.50366406185,
			"-0.011": 2.37501386139,
			"-0.01": 1.88130494063,
			"-0.009": 0.975756543095,
			"-0.008": 2.42203675579,
			"-0.007": 1.98753880262,
			"-0.006": 4.53578604188,
			"-0.005": 8.47850232297,
			"-0.004": 15.8176418471,
			"-0.003": 22.3996189307,
			"-0.002": 23.3456212708,
			"-0.001": 20.4162762577,
			"0.0": 21.3836861311,
			"0.001": 15.4339639942,
			"0.002": 24.695377682,
			"0.003": 22.840273902,
			"0.004": 8.39530428947,
			"0.005": 6.50577537308,
			"0.006": 4.47248186851,
			"0.007": 4.00032001522,
			"0.008": 3.8363264854,
			"0.009": 4.99468931834,
			"0.01": 3.90144351903,
			"0.011": 4.58743380416,
			"0.012": 2.45363587605,
			"0.013": 0.867704173941,
			"0.014": 0.286365233888,
			"0.015": 0.0,
			"0.016": 0.0,
			"0.017": 0.0,
			"0.018": 0.0,
			"0.019": 0.0,
			"0.02": 0.0,
			"0.021": 0.0,
			"0.022": 0.0,
			"0.023": 0.0,
			"0.024": 0.0,
			"0.025": 0.0
		}
	}
}
