{
	 "smiles": "OC(=O)C(Br)CBr", 
	 "Tm": 339.65, 
	 "num_atms": 11, 
	 "gaussian": { 
		 "optdone": 1, 
		 "sigma_profile": "yes", 
		 "theory": "DFT", 
		 "functional": "B3LYP", 
		 "basiset": "6-31G**", 
		 "properties": { 
			 "R2extent": 4418.5389, 
			 "electric_dipole_moment_norm": 5.24056888038, 
			 "electric_quadrupole_moment_norm": 7.28963298116, 
			 "total_energy": -5409.97900123, 
			 "HOMO_LUMO_gap": 0.24734, 
			 "cosmo_polarized_energy": -21.34, 
			 "cosmo_cavitation_energy": 19.71, 
			 "cosmo_dispersion_energy": -15.08, 
			 "cosmo_repulsion_energy": 1.28, 
			 "cosmo_total_nonelectrostatic_energy": 5.91, 
			 "SMD_solvation_energy": 2.29 
		},
		"coords": [
			{
				"x": -0.3921344122,
				"y": 0.6466200254,
				"z": -1.7254115029,
				"element": "O" 
			},
			{
				"x": 0.6628812526,
				"y": 1.0320188172,
				"z": -0.9566885894,
				"element": "C" 
			},
			{
				"x": 1.7869241554,
				"y": 0.8845850296,
				"z": -1.339592521,
				"element": "O" 
			},
			{
				"x": 0.2423236137,
				"y": 1.6451140878,
				"z": 0.3939494002,
				"element": "C" 
			},
			{
				"x": 1.7855374015,
				"y": 1.8606738015,
				"z": 1.5780236403,
				"element": "Br" 
			},
			{
				"x": -0.5411949573,
				"y": 2.9486585243,
				"z": 0.2525125083,
				"element": "C" 
			},
			{
				"x": 0.4044920699,
				"y": 4.3387162714,
				"z": -0.761575379,
				"element": "Br" 
			},
			{
				"x": -1.2368345776,
				"y": 0.7703121519,
				"z": -1.2701465947,
				"element": "H" 
			},
			{
				"x": -0.4053497186,
				"y": 0.9296349209,
				"z": 0.9133124669,
				"element": "H" 
			},
			{
				"x": -0.758954984,
				"y": 3.3718757528,
				"z": 1.2310243261,
				"element": "H" 
			},
			{
				"x": -1.4782898434,
				"y": 2.7820906172,
				"z": -0.2837077547,
				"element": "H" 
			}
		],
		 "valence_orbital": [ 
			{
				"type": "occ",
				"energy": -0.29857,
				"method": "rhf"
			},
			{
				"type": "occ",
				"energy": -0.29797,
				"method": "rhf"
			},
			{
				"type": "occ",
				"energy": -0.29097,
				"method": "rhf"
			},
			{
				"type": "occ",
				"energy": -0.28902,
				"method": "rhf"
			},
			{
				"type": "occ",
				"energy": -0.28295,
				"method": "rhf"
			},
			{
				"type": "unocc",
				"energy": -0.03561,
				"method": "rhf"
			},
			{
				"type": "unocc",
				"energy": -0.01019,
				"method": "rhf"
			},
			{
				"type": "unocc",
				"energy": -0.00818,
				"method": "rhf"
			},
			{
				"type": "unocc",
				"energy": 0.02332,
				"method": "rhf"
			},
			{
				"type": "unocc",
				"energy": 0.10145,
				"method": "rhf"
			}
		],
		"cosmo_sigma_profile": { 
			"-0.025": 0.0,
			"-0.024": 0.0,
			"-0.023": 0.0,
			"-0.022": 0.0211579307999,
			"-0.021": 1.37605784702,
			"-0.02": 0.85256480723,
			"-0.019": 1.89057595157,
			"-0.018": 1.05065843321,
			"-0.017": 1.77735309763,
			"-0.016": 0.749830469932,
			"-0.015": 0.557583082253,
			"-0.014": 1.57923022569,
			"-0.013": 2.55202513541,
			"-0.012": 2.10628813887,
			"-0.011": 3.02939524121,
			"-0.01": 2.87422942517,
			"-0.009": 5.11482227094,
			"-0.008": 4.62141227803,
			"-0.007": 4.16335811742,
			"-0.006": 4.53202231231,
			"-0.005": 2.78092942766,
			"-0.004": 4.68133787233,
			"-0.003": 5.74567585745,
			"-0.002": 4.95001835249,
			"-0.001": 5.84934771309,
			"0.0": 7.16523058968,
			"0.001": 6.67769337893,
			"0.002": 8.94087718818,
			"0.003": 9.48950443244,
			"0.004": 15.329570839,
			"0.005": 17.6147055816,
			"0.006": 8.04482488185,
			"0.007": 3.98678024826,
			"0.008": 4.14538217655,
			"0.009": 6.09255325778,
			"0.01": 5.48552829105,
			"0.011": 5.47263499438,
			"0.012": 1.30361465555,
			"0.013": 0.0,
			"0.014": 0.0,
			"0.015": 0.0,
			"0.016": 0.0,
			"0.017": 0.0,
			"0.018": 0.0,
			"0.019": 0.0,
			"0.02": 0.0,
			"0.021": 0.0,
			"0.022": 0.0,
			"0.023": 0.0,
			"0.024": 0.0,
			"0.025": 0.0
		}
	}
}
