{
	 "smiles": "CC(=O)CC(=O)OC(C)(C)C", 
	 "Tm": 235.15, 
	 "num_atms": 25, 
	 "gaussian": { 
		 "optdone": 1, 
		 "sigma_profile": "yes", 
		 "theory": "DFT", 
		 "functional": "B3LYP", 
		 "basiset": "6-31G**", 
		 "properties": { 
			 "R2extent": 2382.9523, 
			 "electric_dipole_moment_norm": 2.63322119086, 
			 "electric_quadrupole_moment_norm": 12.6256052461, 
			 "total_energy": -538.986623451, 
			 "HOMO_LUMO_gap": 0.22583, 
			 "cosmo_polarized_energy": -9.38, 
			 "cosmo_cavitation_energy": 27.82, 
			 "cosmo_dispersion_energy": -19.33, 
			 "cosmo_repulsion_energy": 1.59, 
			 "cosmo_total_nonelectrostatic_energy": 10.09, 
			 "SMD_solvation_energy": 6.71 
		},
		"coords": [
			{
				"x": -2.5213660287,
				"y": -0.3306479437,
				"z": 3.1119277505,
				"element": "C" 
			},
			{
				"x": -1.7283730917,
				"y": 0.773956687,
				"z": 2.451291289,
				"element": "C" 
			},
			{
				"x": -2.1772248363,
				"y": 1.8843419894,
				"z": 2.2520208163,
				"element": "O" 
			},
			{
				"x": -0.2844980458,
				"y": 0.4392431673,
				"z": 2.0364022434,
				"element": "C" 
			},
			{
				"x": -0.2421084889,
				"y": -0.4774334998,
				"z": 0.8165454539,
				"element": "C" 
			},
			{
				"x": -0.811488147,
				"y": -1.5508938932,
				"z": 0.7604724282,
				"element": "O" 
			},
			{
				"x": 0.5022256904,
				"y": 0.0701195025,
				"z": -0.1537217652,
				"element": "O" 
			},
			{
				"x": 0.7083525565,
				"y": -0.6066042916,
				"z": -1.4556196868,
				"element": "C" 
			},
			{
				"x": 1.4343870564,
				"y": -1.9378127936,
				"z": -1.2395390921,
				"element": "C" 
			},
			{
				"x": 1.5982469883,
				"y": 0.3874873883,
				"z": -2.204638903,
				"element": "C" 
			},
			{
				"x": -0.6367980864,
				"y": -0.7814841922,
				"z": -2.1667645453,
				"element": "C" 
			},
			{
				"x": -3.5545347785,
				"y": -0.0116065729,
				"z": 3.2551324084,
				"element": "H" 
			},
			{
				"x": -2.4690690679,
				"y": -1.2394320043,
				"z": 2.5048406226,
				"element": "H" 
			},
			{
				"x": -2.0754402075,
				"y": -0.5698158601,
				"z": 4.0855470718,
				"element": "H" 
			},
			{
				"x": 0.2116403055,
				"y": -0.0984752866,
				"z": 2.8533862167,
				"element": "H" 
			},
			{
				"x": 0.2444301808,
				"y": 1.3693035212,
				"z": 1.8318062568,
				"element": "H" 
			},
			{
				"x": 1.6940438455,
				"y": -2.3716716838,
				"z": -2.2105169208,
				"element": "H" 
			},
			{
				"x": 0.8088145199,
				"y": -2.6462869693,
				"z": -0.6959846655,
				"element": "H" 
			},
			{
				"x": 2.3623425414,
				"y": -1.7799316842,
				"z": -0.6809511434,
				"element": "H" 
			},
			{
				"x": 1.09447932,
				"y": 1.3522245574,
				"z": -2.31199055,
				"element": "H" 
			},
			{
				"x": 1.8302076736,
				"y": 0.0038016996,
				"z": -3.2025653313,
				"element": "H" 
			},
			{
				"x": 2.5376134266,
				"y": 0.5469568015,
				"z": -1.6675044587,
				"element": "H" 
			},
			{
				"x": -1.1513445055,
				"y": 0.1807374139,
				"z": -2.250203987,
				"element": "H" 
			},
			{
				"x": -0.4656820851,
				"y": -1.1633932997,
				"z": -3.1783854301,
				"element": "H" 
			},
			{
				"x": -1.2791567357,
				"y": -1.4819827532,
				"z": -1.6325860784,
				"element": "H" 
			}
		],
		 "valence_orbital": [ 
			{
				"type": "occ",
				"energy": -0.3522,
				"method": "rhf"
			},
			{
				"type": "occ",
				"energy": -0.33471,
				"method": "rhf"
			},
			{
				"type": "occ",
				"energy": -0.3031,
				"method": "rhf"
			},
			{
				"type": "occ",
				"energy": -0.27276,
				"method": "rhf"
			},
			{
				"type": "occ",
				"energy": -0.24821,
				"method": "rhf"
			},
			{
				"type": "unocc",
				"energy": -0.02238,
				"method": "rhf"
			},
			{
				"type": "unocc",
				"energy": 0.01154,
				"method": "rhf"
			},
			{
				"type": "unocc",
				"energy": 0.08066,
				"method": "rhf"
			},
			{
				"type": "unocc",
				"energy": 0.09372,
				"method": "rhf"
			},
			{
				"type": "unocc",
				"energy": 0.11015,
				"method": "rhf"
			}
		],
		"cosmo_sigma_profile": { 
			"-0.025": 0.0,
			"-0.024": 0.0,
			"-0.023": 0.0,
			"-0.022": 0.0,
			"-0.021": 0.0,
			"-0.02": 0.0,
			"-0.019": 0.0,
			"-0.018": 0.0,
			"-0.017": 0.0,
			"-0.016": 0.0,
			"-0.015": 0.0,
			"-0.014": 0.0,
			"-0.013": 0.0,
			"-0.012": 0.0,
			"-0.011": 0.0,
			"-0.01": 0.0,
			"-0.009": 0.216095577824,
			"-0.008": 3.56727221894,
			"-0.007": 4.45274566912,
			"-0.006": 5.03470568445,
			"-0.005": 8.48938488653,
			"-0.004": 21.5004767046,
			"-0.003": 24.7013359736,
			"-0.002": 25.4293569358,
			"-0.001": 26.4505437189,
			"0.0": 29.9832771432,
			"0.001": 15.3576645577,
			"0.002": 6.17969008847,
			"0.003": 5.21283946392,
			"0.004": 4.54877153219,
			"0.005": 5.83792550909,
			"0.006": 3.82284491752,
			"0.007": 3.77272917286,
			"0.008": 3.71699862257,
			"0.009": 3.12021934597,
			"0.01": 4.05905682448,
			"0.011": 6.22217774558,
			"0.012": 4.30719392284,
			"0.013": 1.06899433485,
			"0.014": 0.0,
			"0.015": 0.0,
			"0.016": 0.0,
			"0.017": 0.0,
			"0.018": 0.0,
			"0.019": 0.0,
			"0.02": 0.0,
			"0.021": 0.0,
			"0.022": 0.0,
			"0.023": 0.0,
			"0.024": 0.0,
			"0.025": 0.0
		}
	}
}
