{
	 "smiles": "CCN(CC)C1=CC=C(Br)C=C1", 
	 "Tm": 309.15, 
	 "num_atms": 26, 
	 "gaussian": { 
		 "optdone": 1, 
		 "sigma_profile": "yes", 
		 "theory": "DFT", 
		 "functional": "B3LYP", 
		 "basiset": "6-31G**", 
		 "properties": { 
			 "R2extent": 5886.2268, 
			 "electric_dipole_moment_norm": 4.07863881583, 
			 "electric_quadrupole_moment_norm": 9.22744352462, 
			 "total_energy": -3015.65753305, 
			 "HOMO_LUMO_gap": 0.18712, 
			 "cosmo_polarized_energy": -5.94, 
			 "cosmo_cavitation_energy": 29.89, 
			 "cosmo_dispersion_energy": -22.11, 
			 "cosmo_repulsion_energy": 1.76, 
			 "cosmo_total_nonelectrostatic_energy": 9.55, 
			 "SMD_solvation_energy": 2.95 
		},
		"coords": [
			{
				"x": 0.7322619925,
				"y": -0.8972192572,
				"z": 3.087960512,
				"element": "C" 
			},
			{
				"x": 0.5139314259,
				"y": -0.23763912,
				"z": 1.7258261933,
				"element": "C" 
			},
			{
				"x": -0.8081699644,
				"y": -0.4684118058,
				"z": 1.1348755755,
				"element": "N" 
			},
			{
				"x": -1.3977246935,
				"y": -1.8015996183,
				"z": 1.2817877686,
				"element": "C" 
			},
			{
				"x": -0.8783100369,
				"y": -2.8443285964,
				"z": 0.2817787816,
				"element": "C" 
			},
			{
				"x": -1.1692433736,
				"y": 0.3090927215,
				"z": 0.0274987783,
				"element": "C" 
			},
			{
				"x": -2.4125796873,
				"y": 0.1323791032,
				"z": -0.625659229,
				"element": "C" 
			},
			{
				"x": -2.8008576145,
				"y": 0.9384976616,
				"z": -1.6901857899,
				"element": "C" 
			},
			{
				"x": -1.9557783981,
				"y": 1.9469139786,
				"z": -2.1477889846,
				"element": "C" 
			},
			{
				"x": -2.490577833,
				"y": 3.0538219589,
				"z": -3.6144752068,
				"element": "Br" 
			},
			{
				"x": -0.7190675818,
				"y": 2.1377595175,
				"z": -1.5426078128,
				"element": "C" 
			},
			{
				"x": -0.3279477075,
				"y": 1.3270869367,
				"z": -0.4782184076,
				"element": "C" 
			},
			{
				"x": 0.8048240147,
				"y": -1.9869258783,
				"z": 3.0297065881,
				"element": "H" 
			},
			{
				"x": 1.675565177,
				"y": -0.5327296043,
				"z": 3.5061572144,
				"element": "H" 
			},
			{
				"x": -0.0686380047,
				"y": -0.6381462963,
				"z": 3.7875048523,
				"element": "H" 
			},
			{
				"x": 0.6200582953,
				"y": 0.8426371441,
				"z": 1.8653906554,
				"element": "H" 
			},
			{
				"x": 1.3235189653,
				"y": -0.5438677825,
				"z": 1.0402704219,
				"element": "H" 
			},
			{
				"x": -2.4850384475,
				"y": -1.7179446224,
				"z": 1.2069565135,
				"element": "H" 
			},
			{
				"x": -1.2110854233,
				"y": -2.1409646732,
				"z": 2.3018574648,
				"element": "H" 
			},
			{
				"x": -1.3661856211,
				"y": -3.8110122496,
				"z": 0.4472834634,
				"element": "H" 
			},
			{
				"x": 0.2017904169,
				"y": -2.9907209379,
				"z": 0.3880284665,
				"element": "H" 
			},
			{
				"x": -1.0763459718,
				"y": -2.5342400416,
				"z": -0.7483849201,
				"element": "H" 
			},
			{
				"x": -3.1023172926,
				"y": -0.6358793471,
				"z": -0.2999470337,
				"element": "H" 
			},
			{
				"x": -3.7643343414,
				"y": 0.7787016199,
				"z": -2.1616900805,
				"element": "H" 
			},
			{
				"x": -0.0485160669,
				"y": 2.9101999021,
				"z": -1.903025122,
				"element": "H" 
			},
			{
				"x": 0.653967772,
				"y": 1.4950392866,
				"z": -0.0565006627,
				"element": "H" 
			}
		],
		 "valence_orbital": [ 
			{
				"type": "occ",
				"energy": -0.31171,
				"method": "rhf"
			},
			{
				"type": "occ",
				"energy": -0.27496,
				"method": "rhf"
			},
			{
				"type": "occ",
				"energy": -0.26116,
				"method": "rhf"
			},
			{
				"type": "occ",
				"energy": -0.25216,
				"method": "rhf"
			},
			{
				"type": "occ",
				"energy": -0.19081,
				"method": "rhf"
			},
			{
				"type": "unocc",
				"energy": -0.00369,
				"method": "rhf"
			},
			{
				"type": "unocc",
				"energy": 0.01015,
				"method": "rhf"
			},
			{
				"type": "unocc",
				"energy": 0.02008,
				"method": "rhf"
			},
			{
				"type": "unocc",
				"energy": 0.07347,
				"method": "rhf"
			},
			{
				"type": "unocc",
				"energy": 0.10752,
				"method": "rhf"
			}
		],
		"cosmo_sigma_profile": { 
			"-0.025": 0.0,
			"-0.024": 0.0,
			"-0.023": 0.0,
			"-0.022": 0.0,
			"-0.021": 0.0,
			"-0.02": 0.0,
			"-0.019": 0.0,
			"-0.018": 0.0,
			"-0.017": 0.0,
			"-0.016": 0.0,
			"-0.015": 0.0,
			"-0.014": 0.0,
			"-0.013": 0.0,
			"-0.012": 0.0,
			"-0.011": 0.0,
			"-0.01": 0.0,
			"-0.009": 0.0,
			"-0.008": 0.0144934368489,
			"-0.007": 1.90110371998,
			"-0.006": 7.1973758711,
			"-0.005": 8.39306174301,
			"-0.004": 17.3461287209,
			"-0.003": 28.1320112584,
			"-0.002": 30.8285096723,
			"-0.001": 25.85092953,
			"0.0": 21.4359269224,
			"0.001": 20.3244447843,
			"0.002": 13.1559555985,
			"0.003": 13.3343946298,
			"0.004": 17.6428483847,
			"0.005": 23.7963288647,
			"0.006": 7.54897045654,
			"0.007": 1.03707699208,
			"0.008": 0.450547222038,
			"0.009": 0.459112452644,
			"0.01": 0.0910664597519,
			"0.011": 0.0,
			"0.012": 0.0,
			"0.013": 0.0,
			"0.014": 0.0,
			"0.015": 0.0,
			"0.016": 0.0,
			"0.017": 0.0,
			"0.018": 0.0,
			"0.019": 0.0,
			"0.02": 0.0,
			"0.021": 0.0,
			"0.022": 0.0,
			"0.023": 0.0,
			"0.024": 0.0,
			"0.025": 0.0
		}
	}
}
