{
	 "smiles": "CCC(C)CC(C)(C)C", 
	 "Tm": 153.15, 
	 "num_atms": 29, 
	 "gaussian": { 
		 "optdone": 1, 
		 "sigma_profile": "yes", 
		 "theory": "DFT", 
		 "functional": "B3LYP", 
		 "basiset": "6-31G**", 
		 "properties": { 
			 "R2extent": 1832.9436, 
			 "electric_dipole_moment_norm": 0.0829361802834, 
			 "electric_quadrupole_moment_norm": 0.196852838435, 
			 "total_energy": -355.039593016, 
			 "HOMO_LUMO_gap": 0.36481, 
			 "cosmo_polarized_energy": -0.82, 
			 "cosmo_cavitation_energy": 27.93, 
			 "cosmo_dispersion_energy": -19.4, 
			 "cosmo_repulsion_energy": 1.57, 
			 "cosmo_total_nonelectrostatic_energy": 10.1, 
			 "SMD_solvation_energy": 4.84 
		},
		"coords": [
			{
				"x": -2.9299658691,
				"y": -0.8077311047,
				"z": -1.6963504004,
				"element": "C" 
			},
			{
				"x": -2.2944951069,
				"y": -1.3221800771,
				"z": -0.3978175488,
				"element": "C" 
			},
			{
				"x": -0.7579179661,
				"y": -1.5050278721,
				"z": -0.427270876,
				"element": "C" 
			},
			{
				"x": -0.3400483044,
				"y": -2.576730174,
				"z": -1.4495536341,
				"element": "C" 
			},
			{
				"x": -0.0185490821,
				"y": -0.1572321824,
				"z": -0.6500651644,
				"element": "C" 
			},
			{
				"x": 1.2404239713,
				"y": 0.1305587735,
				"z": 0.2167241516,
				"element": "C" 
			},
			{
				"x": 1.8488713441,
				"y": 1.4637244995,
				"z": -0.2640621831,
				"element": "C" 
			},
			{
				"x": 2.3022705777,
				"y": -0.9767230083,
				"z": 0.0750907874,
				"element": "C" 
			},
			{
				"x": 0.8501018545,
				"y": 0.2768174343,
				"z": 1.7014529338,
				"element": "C" 
			},
			{
				"x": -2.7844873804,
				"y": -1.5062621026,
				"z": -2.5265718443,
				"element": "H" 
			},
			{
				"x": -2.5113049705,
				"y": 0.1581748804,
				"z": -1.9987548595,
				"element": "H" 
			},
			{
				"x": -4.0091780771,
				"y": -0.6717929535,
				"z": -1.5700550057,
				"element": "H" 
			},
			{
				"x": -2.7562310243,
				"y": -2.2830781061,
				"z": -0.1329238843,
				"element": "H" 
			},
			{
				"x": -2.5435600142,
				"y": -0.6306740425,
				"z": 0.4181951195,
				"element": "H" 
			},
			{
				"x": -0.4864218657,
				"y": -1.8851410319,
				"z": 0.566940958,
				"element": "H" 
			},
			{
				"x": -0.8643888381,
				"y": -3.5219239752,
				"z": -1.2668121336,
				"element": "H" 
			},
			{
				"x": -0.5689132353,
				"y": -2.2625045907,
				"z": -2.4738663307,
				"element": "H" 
			},
			{
				"x": 0.7336398438,
				"y": -2.7792543806,
				"z": -1.4055680745,
				"element": "H" 
			},
			{
				"x": -0.7183051832,
				"y": 0.6700876872,
				"z": -0.4692395096,
				"element": "H" 
			},
			{
				"x": 0.2667772392,
				"y": -0.0746916497,
				"z": -1.7078898299,
				"element": "H" 
			},
			{
				"x": 1.1245697413,
				"y": 2.2825061238,
				"z": -0.1831617164,
				"element": "H" 
			},
			{
				"x": 2.7264874649,
				"y": 1.7348595663,
				"z": 0.3339274148,
				"element": "H" 
			},
			{
				"x": 2.1652283778,
				"y": 1.4001271033,
				"z": -1.3115571345,
				"element": "H" 
			},
			{
				"x": 1.9392700366,
				"y": -1.9402273348,
				"z": 0.4470927572,
				"element": "H" 
			},
			{
				"x": 3.2010911036,
				"y": -0.7227289069,
				"z": 0.6488517695,
				"element": "H" 
			},
			{
				"x": 2.6031502733,
				"y": -1.1093578432,
				"z": -0.9704123541,
				"element": "H" 
			},
			{
				"x": 0.415778673,
				"y": -0.6438273801,
				"z": 2.1050456118,
				"element": "H" 
			},
			{
				"x": 1.7281013012,
				"y": 0.5182350809,
				"z": 2.3114042918,
				"element": "H" 
			},
			{
				"x": 0.1176051151,
				"y": 1.0805975673,
				"z": 1.8392066885,
				"element": "H" 
			}
		],
		 "valence_orbital": [ 
			{
				"type": "occ",
				"energy": -0.32552,
				"method": "rhf"
			},
			{
				"type": "occ",
				"energy": -0.31597,
				"method": "rhf"
			},
			{
				"type": "occ",
				"energy": -0.30636,
				"method": "rhf"
			},
			{
				"type": "occ",
				"energy": -0.29791,
				"method": "rhf"
			},
			{
				"type": "occ",
				"energy": -0.29184,
				"method": "rhf"
			},
			{
				"type": "unocc",
				"energy": 0.07297,
				"method": "rhf"
			},
			{
				"type": "unocc",
				"energy": 0.10326,
				"method": "rhf"
			},
			{
				"type": "unocc",
				"energy": 0.11227,
				"method": "rhf"
			},
			{
				"type": "unocc",
				"energy": 0.1277,
				"method": "rhf"
			},
			{
				"type": "unocc",
				"energy": 0.13318,
				"method": "rhf"
			}
		],
		"cosmo_sigma_profile": { 
			"-0.025": 0.0,
			"-0.024": 0.0,
			"-0.023": 0.0,
			"-0.022": 0.0,
			"-0.021": 0.0,
			"-0.02": 0.0,
			"-0.019": 0.0,
			"-0.018": 0.0,
			"-0.017": 0.0,
			"-0.016": 0.0,
			"-0.015": 0.0,
			"-0.014": 0.0,
			"-0.013": 0.0,
			"-0.012": 0.0,
			"-0.011": 0.0,
			"-0.01": 0.0,
			"-0.009": 0.0,
			"-0.008": 0.0,
			"-0.007": 0.0,
			"-0.006": 0.0,
			"-0.005": 0.0,
			"-0.004": 0.0,
			"-0.003": 3.27700244225,
			"-0.002": 30.5528485268,
			"-0.001": 51.9733718028,
			"0.0": 45.2804575819,
			"0.001": 43.2609261343,
			"0.002": 35.4853193517,
			"0.003": 3.16270691826,
			"0.004": 0.0,
			"0.005": 0.0,
			"0.006": 0.0,
			"0.007": 0.0,
			"0.008": 0.0,
			"0.009": 0.0,
			"0.01": 0.0,
			"0.011": 0.0,
			"0.012": 0.0,
			"0.013": 0.0,
			"0.014": 0.0,
			"0.015": 0.0,
			"0.016": 0.0,
			"0.017": 0.0,
			"0.018": 0.0,
			"0.019": 0.0,
			"0.02": 0.0,
			"0.021": 0.0,
			"0.022": 0.0,
			"0.023": 0.0,
			"0.024": 0.0,
			"0.025": 0.0
		}
	}
}
