{
	 "smiles": "CC1=C(Br)C=CC(=C1)N1CC(CC1=O)C(O)=O", 
	 "Tm": 441.15, 
	 "num_atms": 29, 
	 "gaussian": { 
		 "optdone": 1, 
		 "sigma_profile": "yes", 
		 "theory": "DFT", 
		 "functional": "B3LYP", 
		 "basiset": "6-31G**", 
		 "properties": { 
			 "R2extent": 7692.4309, 
			 "electric_dipole_moment_norm": 3.19658059338, 
			 "electric_quadrupole_moment_norm": 21.908777533, 
			 "total_energy": -3316.36642066, 
			 "HOMO_LUMO_gap": 0.19686, 
			 "cosmo_polarized_energy": -19.26, 
			 "cosmo_cavitation_energy": 34.48, 
			 "cosmo_dispersion_energy": -25.16, 
			 "cosmo_repulsion_energy": 1.94, 
			 "cosmo_total_nonelectrostatic_energy": 11.26, 
			 "SMD_solvation_energy": 6.33 
		},
		"coords": [
			{
				"x": 1.1731478282,
				"y": -3.6887838764,
				"z": 0.5356422335,
				"element": "C" 
			},
			{
				"x": 1.3684221345,
				"y": -2.2125557024,
				"z": 0.766357309,
				"element": "C" 
			},
			{
				"x": 2.3192205911,
				"y": -1.713066116,
				"z": 1.6691483817,
				"element": "C" 
			},
			{
				"x": 3.4302836998,
				"y": -2.9117298539,
				"z": 2.666250577,
				"element": "Br" 
			},
			{
				"x": 2.4841011143,
				"y": -0.3466169419,
				"z": 1.8674646163,
				"element": "C" 
			},
			{
				"x": 1.6974470483,
				"y": 0.561415359,
				"z": 1.1626423714,
				"element": "C" 
			},
			{
				"x": 0.7363751916,
				"y": 0.0964242377,
				"z": 0.2540073529,
				"element": "C" 
			},
			{
				"x": 0.5833645457,
				"y": -1.2871713282,
				"z": 0.0701221097,
				"element": "C" 
			},
			{
				"x": -0.0844225244,
				"y": 1.0269057756,
				"z": -0.4428981167,
				"element": "N" 
			},
			{
				"x": -0.0403580642,
				"y": 2.4636801195,
				"z": -0.1280481705,
				"element": "C" 
			},
			{
				"x": -1.2139743346,
				"y": 3.059850094,
				"z": -0.9359768468,
				"element": "C" 
			},
			{
				"x": -1.2898548942,
				"y": 2.1188733459,
				"z": -2.1570266649,
				"element": "C" 
			},
			{
				"x": -0.712278552,
				"y": 0.791671975,
				"z": -1.6743014704,
				"element": "C" 
			},
			{
				"x": -0.790487591,
				"y": -0.2737231824,
				"z": -2.2534993789,
				"element": "O" 
			},
			{
				"x": -2.5300112762,
				"y": 3.0839423303,
				"z": -0.1527029369,
				"element": "C" 
			},
			{
				"x": -2.8476423833,
				"y": 1.9553317431,
				"z": 0.5314847596,
				"element": "O" 
			},
			{
				"x": -3.269748472,
				"y": 4.0349840853,
				"z": -0.1431898291,
				"element": "O" 
			},
			{
				"x": 0.8993364583,
				"y": -4.2013385914,
				"z": 1.4639337828,
				"element": "H" 
			},
			{
				"x": 2.0960658883,
				"y": -4.157123119,
				"z": 0.1775912072,
				"element": "H" 
			},
			{
				"x": 0.3878466107,
				"y": -3.8651461604,
				"z": -0.2025917743,
				"element": "H" 
			},
			{
				"x": 3.227882529,
				"y": 0.0121942876,
				"z": 2.5695077275,
				"element": "H" 
			},
			{
				"x": 1.8525233188,
				"y": 1.6207592548,
				"z": 1.3273673958,
				"element": "H" 
			},
			{
				"x": -0.1471591584,
				"y": -1.6471634806,
				"z": -0.6404435212,
				"element": "H" 
			},
			{
				"x": -0.1443981959,
				"y": 2.6227548088,
				"z": 0.9489142166,
				"element": "H" 
			},
			{
				"x": 0.9135760428,
				"y": 2.9055090984,
				"z": -0.4447762176,
				"element": "H" 
			},
			{
				"x": -1.0177330729,
				"y": 4.0936097925,
				"z": -1.2203550552,
				"element": "H" 
			},
			{
				"x": -2.2937080642,
				"y": 1.9736020361,
				"z": -2.5620208522,
				"element": "H" 
			},
			{
				"x": -0.6588562165,
				"y": 2.4854412317,
				"z": -2.9750576997,
				"element": "H" 
			},
			{
				"x": -2.1556602015,
				"y": 1.2810687773,
				"z": 0.4315544933,
				"element": "H" 
			}
		],
		 "valence_orbital": [ 
			{
				"type": "occ",
				"energy": -0.29139,
				"method": "rhf"
			},
			{
				"type": "occ",
				"energy": -0.2812,
				"method": "rhf"
			},
			{
				"type": "occ",
				"energy": -0.27438,
				"method": "rhf"
			},
			{
				"type": "occ",
				"energy": -0.26431,
				"method": "rhf"
			},
			{
				"type": "occ",
				"energy": -0.23378,
				"method": "rhf"
			},
			{
				"type": "unocc",
				"energy": -0.03692,
				"method": "rhf"
			},
			{
				"type": "unocc",
				"energy": -0.02071,
				"method": "rhf"
			},
			{
				"type": "unocc",
				"energy": -0.00474,
				"method": "rhf"
			},
			{
				"type": "unocc",
				"energy": 0.00414,
				"method": "rhf"
			},
			{
				"type": "unocc",
				"energy": 0.01333,
				"method": "rhf"
			}
		],
		"cosmo_sigma_profile": { 
			"-0.025": 0.0,
			"-0.024": 0.0,
			"-0.023": 0.0,
			"-0.022": 0.0,
			"-0.021": 0.0,
			"-0.02": 0.0,
			"-0.019": 0.0,
			"-0.018": 0.0,
			"-0.017": 0.0,
			"-0.016": 0.0,
			"-0.015": 0.0,
			"-0.014": 0.40469608279,
			"-0.013": 0.625970066987,
			"-0.012": 1.41480771522,
			"-0.011": 2.09142675758,
			"-0.01": 1.50274791779,
			"-0.009": 1.44155787559,
			"-0.008": 12.8713429581,
			"-0.007": 22.4414131109,
			"-0.006": 17.4753954131,
			"-0.005": 13.5359734524,
			"-0.004": 16.1408843765,
			"-0.003": 14.1649142479,
			"-0.002": 14.0534671763,
			"-0.001": 16.915971062,
			"0.0": 17.512118503,
			"0.001": 14.7623566549,
			"0.002": 16.1640432882,
			"0.003": 21.7330525932,
			"0.004": 19.2434325307,
			"0.005": 10.1597176477,
			"0.006": 3.73894329747,
			"0.007": 3.0118021019,
			"0.008": 4.65411295955,
			"0.009": 4.97305049372,
			"0.01": 6.84281277087,
			"0.011": 8.32223387382,
			"0.012": 8.25917426408,
			"0.013": 2.66584109352,
			"0.014": 0.0489505681346,
			"0.015": 0.0,
			"0.016": 0.0,
			"0.017": 0.0,
			"0.018": 0.0,
			"0.019": 0.0,
			"0.02": 0.0,
			"0.021": 0.0,
			"0.022": 0.0,
			"0.023": 0.0,
			"0.024": 0.0,
			"0.025": 0.0
		}
	}
}
