{
	 "smiles": "CC1=NC2=C(C=CC=C2Cl)N1O", 
	 "Tm": 513.15, 
	 "num_atms": 19, 
	 "gaussian": { 
		 "optdone": 1, 
		 "sigma_profile": "yes", 
		 "theory": "DFT", 
		 "functional": "B3LYP", 
		 "basiset": "6-31G**", 
		 "properties": { 
			 "R2extent": 2617.8155, 
			 "electric_dipole_moment_norm": 4.86378557402, 
			 "electric_quadrupole_moment_norm": 12.4847160528, 
			 "total_energy": -953.939888365, 
			 "HOMO_LUMO_gap": 0.19894, 
			 "cosmo_polarized_energy": -14.89, 
			 "cosmo_cavitation_energy": 25.3, 
			 "cosmo_dispersion_energy": -18.78, 
			 "cosmo_repulsion_energy": 1.5, 
			 "cosmo_total_nonelectrostatic_energy": 8.02, 
			 "SMD_solvation_energy": 3.26 
		},
		"coords": [
			{
				"x": 1.2116276312,
				"y": -2.3151428636,
				"z": -2.5579210442,
				"element": "C" 
			},
			{
				"x": 0.9695958094,
				"y": -1.2360076757,
				"z": -1.5598121632,
				"element": "C" 
			},
			{
				"x": 1.858481501,
				"y": -0.3931761557,
				"z": -1.0868967645,
				"element": "N" 
			},
			{
				"x": 1.1736972952,
				"y": 0.4014957566,
				"z": -0.182019556,
				"element": "C" 
			},
			{
				"x": -0.1879181718,
				"y": 0.0241768234,
				"z": -0.099253017,
				"element": "C" 
			},
			{
				"x": -1.1172904193,
				"y": 0.6349212402,
				"z": 0.7406187154,
				"element": "C" 
			},
			{
				"x": -0.6380962256,
				"y": 1.6806685225,
				"z": 1.5247763387,
				"element": "C" 
			},
			{
				"x": 0.7065685755,
				"y": 2.0955894774,
				"z": 1.4681801714,
				"element": "C" 
			},
			{
				"x": 1.6118278321,
				"y": 1.4635845435,
				"z": 0.6220844278,
				"element": "C" 
			},
			{
				"x": 3.2814586309,
				"y": 1.9801800022,
				"z": 0.5591865347,
				"element": "Cl" 
			},
			{
				"x": -0.2800653573,
				"y": -1.0062250664,
				"z": -1.0157927956,
				"element": "N" 
			},
			{
				"x": -1.3901918102,
				"y": -1.8076913265,
				"z": -1.2074681945,
				"element": "O" 
			},
			{
				"x": 2.2733700291,
				"y": -2.3260596837,
				"z": -2.8046612426,
				"element": "H" 
			},
			{
				"x": 0.6378059675,
				"y": -2.1503699027,
				"z": -3.4771310434,
				"element": "H" 
			},
			{
				"x": 0.9214713676,
				"y": -3.293213208,
				"z": -2.1608898359,
				"element": "H" 
			},
			{
				"x": -2.1492231076,
				"y": 0.3049106629,
				"z": 0.7862660084,
				"element": "H" 
			},
			{
				"x": -1.313836691,
				"y": 2.193332159,
				"z": 2.2023515543,
				"element": "H" 
			},
			{
				"x": 1.0477254282,
				"y": 2.9148615751,
				"z": 2.0909989004,
				"element": "H" 
			},
			{
				"x": -1.908908285,
				"y": -1.3682348806,
				"z": -1.9021169944,
				"element": "H" 
			}
		],
		 "valence_orbital": [ 
			{
				"type": "occ",
				"energy": -0.30029,
				"method": "rhf"
			},
			{
				"type": "occ",
				"energy": -0.2899,
				"method": "rhf"
			},
			{
				"type": "occ",
				"energy": -0.27483,
				"method": "rhf"
			},
			{
				"type": "occ",
				"energy": -0.23475,
				"method": "rhf"
			},
			{
				"type": "occ",
				"energy": -0.22321,
				"method": "rhf"
			},
			{
				"type": "unocc",
				"energy": -0.02427,
				"method": "rhf"
			},
			{
				"type": "unocc",
				"energy": 0.01108,
				"method": "rhf"
			},
			{
				"type": "unocc",
				"energy": 0.02849,
				"method": "rhf"
			},
			{
				"type": "unocc",
				"energy": 0.04525,
				"method": "rhf"
			},
			{
				"type": "unocc",
				"energy": 0.04854,
				"method": "rhf"
			}
		],
		"cosmo_sigma_profile": { 
			"-0.025": 0.0,
			"-0.024": 0.0,
			"-0.023": 0.0,
			"-0.022": 0.0,
			"-0.021": 0.0,
			"-0.02": 0.0283565878539,
			"-0.019": 1.22092447118,
			"-0.018": 1.25648070983,
			"-0.017": 1.37734836954,
			"-0.016": 0.606798689289,
			"-0.015": 0.77498889188,
			"-0.014": 0.839630719267,
			"-0.013": 1.46722642242,
			"-0.012": 0.782299654404,
			"-0.011": 1.1086507117,
			"-0.01": 0.775657431264,
			"-0.009": 1.01973190235,
			"-0.008": 1.04556137833,
			"-0.007": 4.739239951,
			"-0.006": 11.3080495003,
			"-0.005": 11.7497841414,
			"-0.004": 11.4719231975,
			"-0.003": 12.4615942787,
			"-0.002": 14.9809944195,
			"-0.001": 12.6556514962,
			"0.0": 10.9796118735,
			"0.001": 12.3592843117,
			"0.002": 17.866357932,
			"0.003": 18.2862276759,
			"0.004": 16.9679665649,
			"0.005": 13.6449677325,
			"0.006": 4.46663157401,
			"0.007": 2.87162077964,
			"0.008": 3.04061905917,
			"0.009": 3.74813360811,
			"0.01": 1.86597448471,
			"0.011": 1.4329510136,
			"0.012": 0.964708228133,
			"0.013": 1.49621993261,
			"0.014": 0.930799188737,
			"0.015": 0.982233811314,
			"0.016": 0.967721662276,
			"0.017": 0.136748527221,
			"0.018": 0.0,
			"0.019": 0.0,
			"0.02": 0.0,
			"0.021": 0.0,
			"0.022": 0.0,
			"0.023": 0.0,
			"0.024": 0.0,
			"0.025": 0.0
		}
	}
}
