{
	 "smiles": "CC1=CC(=O)N2N=C(N)NC2=N1", 
	 "Tm": 641.15, 
	 "num_atms": 19, 
	 "gaussian": { 
		 "optdone": 1, 
		 "sigma_profile": "yes", 
		 "theory": "DFT", 
		 "functional": "B3LYP", 
		 "basiset": "6-31G**", 
		 "properties": { 
			 "R2extent": 2646.3223, 
			 "electric_dipole_moment_norm": 6.60726542527, 
			 "electric_quadrupole_moment_norm": 27.6781339429, 
			 "total_energy": -581.83757495, 
			 "HOMO_LUMO_gap": 0.19548, 
			 "cosmo_polarized_energy": -26.4, 
			 "cosmo_cavitation_energy": 23.87, 
			 "cosmo_dispersion_energy": -18.15, 
			 "cosmo_repulsion_energy": 1.46, 
			 "cosmo_total_nonelectrostatic_energy": 7.17, 
			 "SMD_solvation_energy": 2.42 
		},
		"coords": [
			{
				"x": -1.3723866155,
				"y": 2.0808621415,
				"z": 1.4830032753,
				"element": "C" 
			},
			{
				"x": -0.520247458,
				"y": 1.5931648731,
				"z": 0.3429425096,
				"element": "C" 
			},
			{
				"x": -0.4939843016,
				"y": 2.2421892107,
				"z": -0.8706595899,
				"element": "C" 
			},
			{
				"x": 0.3143014236,
				"y": 1.8081942305,
				"z": -1.9906958199,
				"element": "C" 
			},
			{
				"x": 0.4157790312,
				"y": 2.2990220835,
				"z": -3.1007440086,
				"element": "O" 
			},
			{
				"x": 1.0520148016,
				"y": 0.6330980635,
				"z": -1.6225239985,
				"element": "N" 
			},
			{
				"x": 1.9214919959,
				"y": -0.0600904533,
				"z": -2.4530079595,
				"element": "N" 
			},
			{
				"x": 2.3598303495,
				"y": -1.0307817338,
				"z": -1.7000190426,
				"element": "C" 
			},
			{
				"x": 3.3307961019,
				"y": -1.9402238222,
				"z": -2.0590277005,
				"element": "N" 
			},
			{
				"x": 1.7921437452,
				"y": -1.0241728165,
				"z": -0.4405865141,
				"element": "N" 
			},
			{
				"x": 0.9457739457,
				"y": 0.0646974079,
				"z": -0.3847988528,
				"element": "C" 
			},
			{
				"x": 0.2148319824,
				"y": 0.4615645425,
				"z": 0.6181470389,
				"element": "N" 
			},
			{
				"x": -1.9365140662,
				"y": 2.9759988063,
				"z": 1.2134598718,
				"element": "H" 
			},
			{
				"x": -2.0739457255,
				"y": 1.2978567309,
				"z": 1.7904671566,
				"element": "H" 
			},
			{
				"x": -0.7452508412,
				"y": 2.3050085027,
				"z": 2.3526763646,
				"element": "H" 
			},
			{
				"x": -1.0926552261,
				"y": 3.1290606184,
				"z": -1.0391421659,
				"element": "H" 
			},
			{
				"x": 3.6045980304,
				"y": -1.8218858587,
				"z": -3.0272524402,
				"element": "H" 
			},
			{
				"x": 3.1094911431,
				"y": -2.9062005448,
				"z": -1.8476025305,
				"element": "H" 
			},
			{
				"x": 2.0486316833,
				"y": -1.5827619821,
				"z": 0.3588644064,
				"element": "H" 
			}
		],
		 "valence_orbital": [ 
			{
				"type": "occ",
				"energy": -0.31245,
				"method": "rhf"
			},
			{
				"type": "occ",
				"energy": -0.27859,
				"method": "rhf"
			},
			{
				"type": "occ",
				"energy": -0.25208,
				"method": "rhf"
			},
			{
				"type": "occ",
				"energy": -0.24454,
				"method": "rhf"
			},
			{
				"type": "occ",
				"energy": -0.21193,
				"method": "rhf"
			},
			{
				"type": "unocc",
				"energy": -0.01645,
				"method": "rhf"
			},
			{
				"type": "unocc",
				"energy": 0.00856,
				"method": "rhf"
			},
			{
				"type": "unocc",
				"energy": 0.03063,
				"method": "rhf"
			},
			{
				"type": "unocc",
				"energy": 0.04684,
				"method": "rhf"
			},
			{
				"type": "unocc",
				"energy": 0.07503,
				"method": "rhf"
			}
		],
		"cosmo_sigma_profile": { 
			"-0.025": 0.0,
			"-0.024": 0.0,
			"-0.023": 0.0,
			"-0.022": 0.0,
			"-0.021": 0.0,
			"-0.02": 0.0,
			"-0.019": 0.0864997231889,
			"-0.018": 1.63966673672,
			"-0.017": 1.66789251071,
			"-0.016": 1.78213720529,
			"-0.015": 3.49492092514,
			"-0.014": 3.79289040663,
			"-0.013": 4.01792679115,
			"-0.012": 3.64207909663,
			"-0.011": 2.78443759745,
			"-0.01": 2.28131116746,
			"-0.009": 2.15291108694,
			"-0.008": 1.97765390406,
			"-0.007": 2.13499252959,
			"-0.006": 4.59143924413,
			"-0.005": 8.94874111416,
			"-0.004": 12.9060866696,
			"-0.003": 12.7391937855,
			"-0.002": 12.2992699896,
			"-0.001": 14.0053459879,
			"0.0": 12.7081404287,
			"0.001": 9.69444123856,
			"0.002": 8.82831043023,
			"0.003": 8.10072903812,
			"0.004": 6.07494451561,
			"0.005": 3.43765252426,
			"0.006": 3.74223624745,
			"0.007": 2.82016742608,
			"0.008": 3.60902467353,
			"0.009": 5.10246949937,
			"0.01": 3.07777062593,
			"0.011": 2.94784232967,
			"0.012": 4.27895533349,
			"0.013": 7.03775410995,
			"0.014": 6.59855841608,
			"0.015": 3.50496456737,
			"0.016": 1.77592499007,
			"0.017": 0.0189678795355,
			"0.018": 0.0,
			"0.019": 0.0,
			"0.02": 0.0,
			"0.021": 0.0,
			"0.022": 0.0,
			"0.023": 0.0,
			"0.024": 0.0,
			"0.025": 0.0
		}
	}
}
