{
	 "smiles": "CCCCCCCCCCCCCCCCCCCCCC(=O)OC", 
	 "Tm": 327.15, 
	 "num_atms": 71, 
	 "gaussian": { 
		 "optdone": 1, 
		 "sigma_profile": "yes", 
		 "theory": "DFT", 
		 "functional": "B3LYP", 
		 "basiset": "6-31G**", 
		 "properties": { 
			 "R2extent": 14389.7821, 
			 "electric_dipole_moment_norm": 1.78914523446, 
			 "electric_quadrupole_moment_norm": 13.1617013346, 
			 "total_energy": -1054.69347349, 
			 "HOMO_LUMO_gap": 0.27846, 
			 "cosmo_polarized_energy": -7.07, 
			 "cosmo_cavitation_energy": 68.64, 
			 "cosmo_dispersion_energy": -39.32, 
			 "cosmo_repulsion_energy": 3.1, 
			 "cosmo_total_nonelectrostatic_energy": 32.42, 
			 "SMD_solvation_energy": 10.12 
		},
		"coords": [
			{
				"x": 2.5718152531,
				"y": -4.483396759,
				"z": -3.5630080841,
				"element": "C" 
			},
			{
				"x": 2.409827592,
				"y": -3.5901202696,
				"z": -2.3282250263,
				"element": "C" 
			},
			{
				"x": 3.7384507152,
				"y": -2.9870933273,
				"z": -1.8503578694,
				"element": "C" 
			},
			{
				"x": 3.6284153029,
				"y": -2.0639895943,
				"z": -0.6250622477,
				"element": "C" 
			},
			{
				"x": 3.2656845798,
				"y": -2.7818967695,
				"z": 0.6850779962,
				"element": "C" 
			},
			{
				"x": 3.3235435082,
				"y": -1.8797355192,
				"z": 1.9318551981,
				"element": "C" 
			},
			{
				"x": 2.2441708202,
				"y": -0.7853790688,
				"z": 2.01899813,
				"element": "C" 
			},
			{
				"x": 0.831120325,
				"y": -1.3042986332,
				"z": 2.3229095626,
				"element": "C" 
			},
			{
				"x": -0.220695155,
				"y": -0.1882363025,
				"z": 2.372680071,
				"element": "C" 
			},
			{
				"x": -1.6123457497,
				"y": -0.6642092118,
				"z": 2.8157684063,
				"element": "C" 
			},
			{
				"x": -2.6912745731,
				"y": 0.4332852118,
				"z": 2.7721403369,
				"element": "C" 
			},
			{
				"x": -3.1930386976,
				"y": 0.7546496221,
				"z": 1.3548467643,
				"element": "C" 
			},
			{
				"x": -4.1238016248,
				"y": 1.9814978526,
				"z": 1.2794462323,
				"element": "C" 
			},
			{
				"x": -3.4293152347,
				"y": 3.3571505683,
				"z": 1.4079108664,
				"element": "C" 
			},
			{
				"x": -2.9798062207,
				"y": 4.0031503441,
				"z": 0.0832352693,
				"element": "C" 
			},
			{
				"x": -1.9318925659,
				"y": 3.2186640198,
				"z": -0.7178360325,
				"element": "C" 
			},
			{
				"x": -1.4117378221,
				"y": 3.9699486413,
				"z": -1.9521381615,
				"element": "C" 
			},
			{
				"x": -0.3687810046,
				"y": 3.1834078063,
				"z": -2.7659506153,
				"element": "C" 
			},
			{
				"x": -0.9382241262,
				"y": 1.9782083866,
				"z": -3.5287480441,
				"element": "C" 
			},
			{
				"x": 0.1427859794,
				"y": 1.1324137576,
				"z": -4.2137399787,
				"element": "C" 
			},
			{
				"x": -0.4214930998,
				"y": -0.0198232646,
				"z": -5.064680521,
				"element": "C" 
			},
			{
				"x": -1.295369645,
				"y": -0.9965064366,
				"z": -4.3011663542,
				"element": "C" 
			},
			{
				"x": -2.4052849398,
				"y": -1.3524054502,
				"z": -4.6323751966,
				"element": "O" 
			},
			{
				"x": -0.6785400616,
				"y": -1.4517297649,
				"z": -3.1816929095,
				"element": "O" 
			},
			{
				"x": -1.4439438288,
				"y": -2.3826656797,
				"z": -2.3981798276,
				"element": "C" 
			},
			{
				"x": 1.6113420005,
				"y": -4.8948691113,
				"z": -3.8907578587,
				"element": "H" 
			},
			{
				"x": 3.2417513578,
				"y": -5.3264921351,
				"z": -3.3582539665,
				"element": "H" 
			},
			{
				"x": 2.9969471538,
				"y": -3.9230322755,
				"z": -4.403825551,
				"element": "H" 
			},
			{
				"x": 1.9541866404,
				"y": -4.175621812,
				"z": -1.5190795067,
				"element": "H" 
			},
			{
				"x": 1.7069293645,
				"y": -2.7774250582,
				"z": -2.5564011264,
				"element": "H" 
			},
			{
				"x": 4.1816914067,
				"y": -2.4205172505,
				"z": -2.6809138782,
				"element": "H" 
			},
			{
				"x": 4.4462593967,
				"y": -3.799217835,
				"z": -1.6284658861,
				"element": "H" 
			},
			{
				"x": 2.8954582955,
				"y": -1.2742682838,
				"z": -0.8388415015,
				"element": "H" 
			},
			{
				"x": 4.5906284238,
				"y": -1.5524940949,
				"z": -0.4833115284,
				"element": "H" 
			},
			{
				"x": 3.966757531,
				"y": -3.6157755996,
				"z": 0.8286803388,
				"element": "H" 
			},
			{
				"x": 2.2717315802,
				"y": -3.2394709772,
				"z": 0.6030607027,
				"element": "H" 
			},
			{
				"x": 4.3136799375,
				"y": -1.4050880693,
				"z": 1.9685991285,
				"element": "H" 
			},
			{
				"x": 3.2577190055,
				"y": -2.5079656667,
				"z": 2.8307950351,
				"element": "H" 
			},
			{
				"x": 2.2269187133,
				"y": -0.2018788047,
				"z": 1.0886367538,
				"element": "H" 
			},
			{
				"x": 2.52854449,
				"y": -0.0760743841,
				"z": 2.808009699,
				"element": "H" 
			},
			{
				"x": 0.5296664285,
				"y": -2.0466052401,
				"z": 1.5711147421,
				"element": "H" 
			},
			{
				"x": 0.8454884797,
				"y": -1.8375132451,
				"z": 3.2846113188,
				"element": "H" 
			},
			{
				"x": -0.2815824946,
				"y": 0.2853917923,
				"z": 1.3835322024,
				"element": "H" 
			},
			{
				"x": 0.1183516699,
				"y": 0.5985104978,
				"z": 3.0620883542,
				"element": "H" 
			},
			{
				"x": -1.5364601088,
				"y": -1.0586371849,
				"z": 3.8378178269,
				"element": "H" 
			},
			{
				"x": -1.9301558052,
				"y": -1.5106576511,
				"z": 2.1894627756,
				"element": "H" 
			},
			{
				"x": -2.2930423815,
				"y": 1.340672271,
				"z": 3.2470166165,
				"element": "H" 
			},
			{
				"x": -3.5502947601,
				"y": 0.1270225011,
				"z": 3.3839702904,
				"element": "H" 
			},
			{
				"x": -2.3387081282,
				"y": 0.8981139935,
				"z": 0.6850077439,
				"element": "H" 
			},
			{
				"x": -3.7300826278,
				"y": -0.124992654,
				"z": 0.97396166,
				"element": "H" 
			},
			{
				"x": -4.8784091313,
				"y": 1.8838827642,
				"z": 2.0714633158,
				"element": "H" 
			},
			{
				"x": -4.6835174429,
				"y": 1.955369356,
				"z": 0.3346732043,
				"element": "H" 
			},
			{
				"x": -4.1180694298,
				"y": 4.0566957917,
				"z": 1.8977184835,
				"element": "H" 
			},
			{
				"x": -2.5649465722,
				"y": 3.2751117294,
				"z": 2.0810575226,
				"element": "H" 
			},
			{
				"x": -3.8634364906,
				"y": 4.1675361128,
				"z": -0.5503052335,
				"element": "H" 
			},
			{
				"x": -2.5796710203,
				"y": 5.0023962173,
				"z": 0.3055025913,
				"element": "H" 
			},
			{
				"x": -2.3595798578,
				"y": 2.2592918518,
				"z": -1.0302744433,
				"element": "H" 
			},
			{
				"x": -1.0799937277,
				"y": 2.9771318648,
				"z": -0.0653122825,
				"element": "H" 
			},
			{
				"x": -2.2564806635,
				"y": 4.2377289866,
				"z": -2.6030712118,
				"element": "H" 
			},
			{
				"x": -0.9679589905,
				"y": 4.920300241,
				"z": -1.6264326495,
				"element": "H" 
			},
			{
				"x": 0.113534522,
				"y": 3.8590469366,
				"z": -3.4850425455,
				"element": "H" 
			},
			{
				"x": 0.428744717,
				"y": 2.8421743315,
				"z": -2.0901261481,
				"element": "H" 
			},
			{
				"x": -1.5030637381,
				"y": 1.3364518444,
				"z": -2.8411879955,
				"element": "H" 
			},
			{
				"x": -1.6599909772,
				"y": 2.3327813253,
				"z": -4.278087327,
				"element": "H" 
			},
			{
				"x": 0.8188684468,
				"y": 0.7211760426,
				"z": -3.4556011112,
				"element": "H" 
			},
			{
				"x": 0.753477122,
				"y": 1.7698092439,
				"z": -4.8660264496,
				"element": "H" 
			},
			{
				"x": -1.0310227785,
				"y": 0.3600432506,
				"z": -5.8889013635,
				"element": "H" 
			},
			{
				"x": 0.407538848,
				"y": -0.5902483773,
				"z": -5.5024430793,
				"element": "H" 
			},
			{
				"x": -1.701515789,
				"y": -3.2643811207,
				"z": -2.9900343462,
				"element": "H" 
			},
			{
				"x": -0.8046945415,
				"y": -2.6577892886,
				"z": -1.5596631377,
				"element": "H" 
			},
			{
				"x": -2.3666078006,
				"y": -1.9174129856,
				"z": -2.0421281437,
				"element": "H" 
			}
		],
		 "valence_orbital": [ 
			{
				"type": "occ",
				"energy": -0.30001,
				"method": "rhf"
			},
			{
				"type": "occ",
				"energy": -0.29903,
				"method": "rhf"
			},
			{
				"type": "occ",
				"energy": -0.29595,
				"method": "rhf"
			},
			{
				"type": "occ",
				"energy": -0.29466,
				"method": "rhf"
			},
			{
				"type": "occ",
				"energy": -0.2653,
				"method": "rhf"
			},
			{
				"type": "unocc",
				"energy": 0.01316,
				"method": "rhf"
			},
			{
				"type": "unocc",
				"energy": 0.06364,
				"method": "rhf"
			},
			{
				"type": "unocc",
				"energy": 0.08252,
				"method": "rhf"
			},
			{
				"type": "unocc",
				"energy": 0.08717,
				"method": "rhf"
			},
			{
				"type": "unocc",
				"energy": 0.09254,
				"method": "rhf"
			}
		],
		"cosmo_sigma_profile": { 
			"-0.025": 0.0,
			"-0.024": 0.0,
			"-0.023": 0.0,
			"-0.022": 0.0,
			"-0.021": 0.0,
			"-0.02": 0.0,
			"-0.019": 0.0,
			"-0.018": 0.0,
			"-0.017": 0.0,
			"-0.016": 0.0,
			"-0.015": 0.0,
			"-0.014": 0.0,
			"-0.013": 0.0,
			"-0.012": 0.0,
			"-0.011": 0.0,
			"-0.01": 0.0,
			"-0.009": 0.0,
			"-0.008": 0.0,
			"-0.007": 0.0,
			"-0.006": 2.20884982533,
			"-0.005": 8.22227071454,
			"-0.004": 12.0305799743,
			"-0.003": 22.0038053776,
			"-0.002": 66.5666137239,
			"-0.001": 118.454989556,
			"0.0": 122.604546135,
			"0.001": 96.9989576088,
			"0.002": 44.6275039112,
			"0.003": 5.45858418788,
			"0.004": 3.84087520465,
			"0.005": 3.73274778015,
			"0.006": 2.18499002626,
			"0.007": 1.87507925136,
			"0.008": 1.66588835607,
			"0.009": 1.62785124444,
			"0.01": 1.74315162553,
			"0.011": 2.31464281513,
			"0.012": 4.8994639812,
			"0.013": 2.26975326228,
			"0.014": 0.0780741107962,
			"0.015": 0.0,
			"0.016": 0.0,
			"0.017": 0.0,
			"0.018": 0.0,
			"0.019": 0.0,
			"0.02": 0.0,
			"0.021": 0.0,
			"0.022": 0.0,
			"0.023": 0.0,
			"0.024": 0.0,
			"0.025": 0.0
		}
	}
}
