{
	 "smiles": "ClCC1=NC2=C(C=CS2)C(=O)N1", 
	 "Tm": 483.15, 
	 "num_atms": 17, 
	 "gaussian": { 
		 "optdone": 1, 
		 "sigma_profile": "yes", 
		 "theory": "DFT", 
		 "functional": "B3LYP", 
		 "basiset": "6-31G**", 
		 "properties": { 
			 "R2extent": 3504.4557, 
			 "electric_dipole_moment_norm": 2.11536585488, 
			 "electric_quadrupole_moment_norm": 13.3222436459, 
			 "total_energy": -1312.88083216, 
			 "HOMO_LUMO_gap": 0.16942, 
			 "cosmo_polarized_energy": -12.58, 
			 "cosmo_cavitation_energy": 25.15, 
			 "cosmo_dispersion_energy": -19.56, 
			 "cosmo_repulsion_energy": 1.51, 
			 "cosmo_total_nonelectrostatic_energy": 7.1, 
			 "SMD_solvation_energy": 2.89 
		},
		"coords": [
			{
				"x": -1.8485757233,
				"y": -3.7653276001,
				"z": 1.5601133866,
				"element": "Cl" 
			},
			{
				"x": -2.0173830603,
				"y": -2.9807987901,
				"z": -0.0690332508,
				"element": "C" 
			},
			{
				"x": -0.9046645284,
				"y": -2.0147688076,
				"z": -0.3767071155,
				"element": "C" 
			},
			{
				"x": -1.2221763758,
				"y": -0.8787848625,
				"z": -0.9307486968,
				"element": "N" 
			},
			{
				"x": -0.1599037206,
				"y": -0.0897172563,
				"z": -1.2644217033,
				"element": "C" 
			},
			{
				"x": 1.1869296955,
				"y": -0.3800067912,
				"z": -1.0572336991,
				"element": "C" 
			},
			{
				"x": 2.0607088636,
				"y": 0.6542804989,
				"z": -1.5082734479,
				"element": "C" 
			},
			{
				"x": 1.3759753492,
				"y": 1.7034108548,
				"z": -2.047678804,
				"element": "C" 
			},
			{
				"x": -0.3551314649,
				"y": 1.4704453193,
				"z": -2.0235919205,
				"element": "S" 
			},
			{
				"x": 1.5400201696,
				"y": -1.6385201717,
				"z": -0.4244866035,
				"element": "C" 
			},
			{
				"x": 2.6523334916,
				"y": -2.0596382103,
				"z": -0.1495472133,
				"element": "O" 
			},
			{
				"x": 0.3820753428,
				"y": -2.4032455812,
				"z": -0.1282116862,
				"element": "N" 
			},
			{
				"x": -2.0394980866,
				"y": -3.7971995527,
				"z": -0.7949296351,
				"element": "H" 
			},
			{
				"x": -2.9612901319,
				"y": -2.4407056867,
				"z": -0.0920352742,
				"element": "H" 
			},
			{
				"x": 3.1390195235,
				"y": 0.6011923875,
				"z": -1.4260455706,
				"element": "H" 
			},
			{
				"x": 1.7797562133,
				"y": 2.6153224203,
				"z": -2.4654974339,
				"element": "H" 
			},
			{
				"x": 0.5558044428,
				"y": -3.2749381704,
				"z": 0.3609286679,
				"element": "H" 
			}
		],
		 "valence_orbital": [ 
			{
				"type": "occ",
				"energy": -0.30382,
				"method": "rhf"
			},
			{
				"type": "occ",
				"energy": -0.30001,
				"method": "rhf"
			},
			{
				"type": "occ",
				"energy": -0.27019,
				"method": "rhf"
			},
			{
				"type": "occ",
				"energy": -0.26895,
				"method": "rhf"
			},
			{
				"type": "occ",
				"energy": -0.23188,
				"method": "rhf"
			},
			{
				"type": "unocc",
				"energy": -0.06246,
				"method": "rhf"
			},
			{
				"type": "unocc",
				"energy": -0.0171,
				"method": "rhf"
			},
			{
				"type": "unocc",
				"energy": 0.00039,
				"method": "rhf"
			},
			{
				"type": "unocc",
				"energy": 0.01322,
				"method": "rhf"
			},
			{
				"type": "unocc",
				"energy": 0.02477,
				"method": "rhf"
			}
		],
		"cosmo_sigma_profile": { 
			"-0.025": 0.0,
			"-0.024": 0.0,
			"-0.023": 0.0,
			"-0.022": 0.0,
			"-0.021": 0.0,
			"-0.02": 0.0,
			"-0.019": 0.0,
			"-0.018": 0.0,
			"-0.017": 0.0,
			"-0.016": 0.0,
			"-0.015": 0.355861634737,
			"-0.014": 0.738969693578,
			"-0.013": 0.976602691683,
			"-0.012": 1.13875405623,
			"-0.011": 1.50504847026,
			"-0.01": 3.03391975057,
			"-0.009": 7.31386205809,
			"-0.008": 7.2826828001,
			"-0.007": 7.44774391048,
			"-0.006": 7.60469032995,
			"-0.005": 7.99879287962,
			"-0.004": 9.42423195849,
			"-0.003": 10.3917929171,
			"-0.002": 11.2783689757,
			"-0.001": 12.2496689375,
			"0.0": 16.9983920165,
			"0.001": 20.7303501309,
			"0.002": 18.9083923973,
			"0.003": 16.169795842,
			"0.004": 10.8201121977,
			"0.005": 9.4833650332,
			"0.006": 3.68770508977,
			"0.007": 2.20005859745,
			"0.008": 2.08441028748,
			"0.009": 1.69570820847,
			"0.01": 2.83369029438,
			"0.011": 2.23323443784,
			"0.012": 4.93123614558,
			"0.013": 5.06430588911,
			"0.014": 0.463786809283,
			"0.015": 0.0,
			"0.016": 0.0,
			"0.017": 0.0,
			"0.018": 0.0,
			"0.019": 0.0,
			"0.02": 0.0,
			"0.021": 0.0,
			"0.022": 0.0,
			"0.023": 0.0,
			"0.024": 0.0,
			"0.025": 0.0
		}
	}
}
