{
	 "smiles": "CN1N=C(C)C(C=O)=C1C", 
	 "Tm": 354.65, 
	 "num_atms": 20, 
	 "gaussian": { 
		 "optdone": 1, 
		 "sigma_profile": "yes", 
		 "theory": "DFT", 
		 "functional": "B3LYP", 
		 "basiset": "6-31G**", 
		 "properties": { 
			 "R2extent": 1582.534, 
			 "electric_dipole_moment_norm": 2.98793878451, 
			 "electric_quadrupole_moment_norm": 13.8892377246, 
			 "total_energy": -457.487648865, 
			 "HOMO_LUMO_gap": 0.20463, 
			 "cosmo_polarized_energy": -10.67, 
			 "cosmo_cavitation_energy": 23.71, 
			 "cosmo_dispersion_energy": -17.04, 
			 "cosmo_repulsion_energy": 1.39, 
			 "cosmo_total_nonelectrostatic_energy": 8.06, 
			 "SMD_solvation_energy": 4.35 
		},
		"coords": [
			{
				"x": 1.0227672231,
				"y": 1.7689022577,
				"z": -1.2675737503,
				"element": "C" 
			},
			{
				"x": 0.5548675759,
				"y": 0.6753946697,
				"z": -0.4320833608,
				"element": "N" 
			},
			{
				"x": 1.1228743978,
				"y": 0.5100344252,
				"z": 0.8035314117,
				"element": "N" 
			},
			{
				"x": 0.5126785615,
				"y": -0.5429258958,
				"z": 1.3308173966,
				"element": "C" 
			},
			{
				"x": 0.8852840156,
				"y": -1.0226017961,
				"z": 2.7008633922,
				"element": "C" 
			},
			{
				"x": -0.4622918758,
				"y": -1.0689927789,
				"z": 0.4306337292,
				"element": "C" 
			},
			{
				"x": -1.3444249441,
				"y": -2.2060790597,
				"z": 0.6121505507,
				"element": "C" 
			},
			{
				"x": -2.1600113065,
				"y": -2.5982190941,
				"z": -0.2136854358,
				"element": "O" 
			},
			{
				"x": -0.39794478,
				"y": -0.2439898705,
				"z": -0.7010236966,
				"element": "C" 
			},
			{
				"x": -1.1813764306,
				"y": -0.3040304548,
				"z": -1.9709625365,
				"element": "C" 
			},
			{
				"x": 1.7971073364,
				"y": 2.2859380654,
				"z": -0.7030090826,
				"element": "H" 
			},
			{
				"x": 0.2116183369,
				"y": 2.467610567,
				"z": -1.4929371112,
				"element": "H" 
			},
			{
				"x": 1.4463759083,
				"y": 1.3954883512,
				"z": -2.2046238707,
				"element": "H" 
			},
			{
				"x": 1.6728972504,
				"y": -0.3850790314,
				"z": 3.1079685557,
				"element": "H" 
			},
			{
				"x": 1.2520472124,
				"y": -2.0546538955,
				"z": 2.680052793,
				"element": "H" 
			},
			{
				"x": 0.0293820145,
				"y": -0.9936617947,
				"z": 3.3839958222,
				"element": "H" 
			},
			{
				"x": -1.2380812834,
				"y": -2.7306158646,
				"z": 1.5872721695,
				"element": "H" 
			},
			{
				"x": -1.0423354713,
				"y": -1.2736263272,
				"z": -2.4578754939,
				"element": "H" 
			},
			{
				"x": -2.2518656481,
				"y": -0.2217530746,
				"z": -1.7615570893,
				"element": "H" 
			},
			{
				"x": -0.8943680931,
				"y": 0.4871606018,
				"z": -2.667454393,
				"element": "H" 
			}
		],
		 "valence_orbital": [ 
			{
				"type": "occ",
				"energy": -0.36728,
				"method": "rhf"
			},
			{
				"type": "occ",
				"energy": -0.29341,
				"method": "rhf"
			},
			{
				"type": "occ",
				"energy": -0.24917,
				"method": "rhf"
			},
			{
				"type": "occ",
				"energy": -0.24263,
				"method": "rhf"
			},
			{
				"type": "occ",
				"energy": -0.23911,
				"method": "rhf"
			},
			{
				"type": "unocc",
				"energy": -0.03448,
				"method": "rhf"
			},
			{
				"type": "unocc",
				"energy": 0.02214,
				"method": "rhf"
			},
			{
				"type": "unocc",
				"energy": 0.0857,
				"method": "rhf"
			},
			{
				"type": "unocc",
				"energy": 0.10104,
				"method": "rhf"
			},
			{
				"type": "unocc",
				"energy": 0.10424,
				"method": "rhf"
			}
		],
		"cosmo_sigma_profile": { 
			"-0.025": 0.0,
			"-0.024": 0.0,
			"-0.023": 0.0,
			"-0.022": 0.0,
			"-0.021": 0.0,
			"-0.02": 0.0,
			"-0.019": 0.0,
			"-0.018": 0.0,
			"-0.017": 0.0,
			"-0.016": 0.0,
			"-0.015": 0.0,
			"-0.014": 0.0,
			"-0.013": 0.0,
			"-0.012": 0.0,
			"-0.011": 0.0,
			"-0.01": 0.0,
			"-0.009": 0.0,
			"-0.008": 0.0,
			"-0.007": 2.69758320748,
			"-0.006": 11.2944526348,
			"-0.005": 20.4015888643,
			"-0.004": 22.2381714149,
			"-0.003": 19.926159913,
			"-0.002": 18.7590427473,
			"-0.001": 16.8406280444,
			"0.0": 11.2271281628,
			"0.001": 8.7093583379,
			"0.002": 10.1431239927,
			"0.003": 6.79132137436,
			"0.004": 4.82727674109,
			"0.005": 3.22200248602,
			"0.006": 3.91485263387,
			"0.007": 2.79051450557,
			"0.008": 3.65734557409,
			"0.009": 2.40733248577,
			"0.01": 3.13677997,
			"0.011": 3.27679591197,
			"0.012": 4.75809832638,
			"0.013": 3.52256148769,
			"0.014": 2.17819704559,
			"0.015": 0.819826982171,
			"0.016": 0.0,
			"0.017": 0.0,
			"0.018": 0.0,
			"0.019": 0.0,
			"0.02": 0.0,
			"0.021": 0.0,
			"0.022": 0.0,
			"0.023": 0.0,
			"0.024": 0.0,
			"0.025": 0.0
		}
	}
}
