{
	 "smiles": "NC1=C(SCC(O)C2=CC=CC=C2)C=CC=C1", 
	 "Tm": 335.15, 
	 "num_atms": 32, 
	 "gaussian": { 
		 "optdone": 1, 
		 "sigma_profile": "yes", 
		 "theory": "DFT", 
		 "functional": "B3LYP", 
		 "basiset": "6-31G**", 
		 "properties": { 
			 "R2extent": 5347.3017, 
			 "electric_dipole_moment_norm": 2.29753249596, 
			 "electric_quadrupole_moment_norm": 9.75277989088, 
			 "total_energy": -1070.69208622, 
			 "HOMO_LUMO_gap": 0.19216, 
			 "cosmo_polarized_energy": -12.72, 
			 "cosmo_cavitation_energy": 36.35, 
			 "cosmo_dispersion_energy": -25.66, 
			 "cosmo_repulsion_energy": 1.96, 
			 "cosmo_total_nonelectrostatic_energy": 12.65, 
			 "SMD_solvation_energy": 5.59 
		},
		"coords": [
			{
				"x": 0.7405155579,
				"y": -1.1522873697,
				"z": 2.0713975617,
				"element": "N" 
			},
			{
				"x": 1.6589091248,
				"y": -0.1564987207,
				"z": 2.3898202141,
				"element": "C" 
			},
			{
				"x": 2.3458036596,
				"y": 0.5661827851,
				"z": 1.3842255803,
				"element": "C" 
			},
			{
				"x": 2.149086478,
				"y": 0.1261045785,
				"z": -0.3467021056,
				"element": "S" 
			},
			{
				"x": 1.1136984431,
				"y": 1.5075507149,
				"z": -0.9799634666,
				"element": "C" 
			},
			{
				"x": -0.3729001791,
				"y": 1.4821152487,
				"z": -0.5891076612,
				"element": "C" 
			},
			{
				"x": -0.8442365399,
				"y": 2.7835161749,
				"z": -0.9578684963,
				"element": "O" 
			},
			{
				"x": -1.1739538706,
				"y": 0.3892321875,
				"z": -1.2773598972,
				"element": "C" 
			},
			{
				"x": -1.6215837512,
				"y": -0.7337140952,
				"z": -0.5721071383,
				"element": "C" 
			},
			{
				"x": -2.3590130491,
				"y": -1.7294561593,
				"z": -1.2175465113,
				"element": "C" 
			},
			{
				"x": -2.6641695599,
				"y": -1.6084096072,
				"z": -2.5736999399,
				"element": "C" 
			},
			{
				"x": -2.2319980553,
				"y": -0.4839733304,
				"z": -3.282205183,
				"element": "C" 
			},
			{
				"x": -1.4948559816,
				"y": 0.5085008379,
				"z": -2.6376855599,
				"element": "C" 
			},
			{
				"x": 3.2339302377,
				"y": 1.5867754759,
				"z": 1.7483520187,
				"element": "C" 
			},
			{
				"x": 3.4408813193,
				"y": 1.92643073,
				"z": 3.0828454079,
				"element": "C" 
			},
			{
				"x": 2.7601411646,
				"y": 1.2149354795,
				"z": 4.0752234007,
				"element": "C" 
			},
			{
				"x": 1.8866180946,
				"y": 0.1886230002,
				"z": 3.736132307,
				"element": "C" 
			},
			{
				"x": 0.8398202266,
				"y": -1.5313566729,
				"z": 1.1379584475,
				"element": "H" 
			},
			{
				"x": 0.6045455295,
				"y": -1.8577430541,
				"z": 2.7817601671,
				"element": "H" 
			},
			{
				"x": 1.2156165477,
				"y": 1.4682029102,
				"z": -2.0684561454,
				"element": "H" 
			},
			{
				"x": 1.5462556263,
				"y": 2.4496262263,
				"z": -0.6343370186,
				"element": "H" 
			},
			{
				"x": -0.4423087361,
				"y": 1.3453333338,
				"z": 0.4999947328,
				"element": "H" 
			},
			{
				"x": -1.804051606,
				"y": 2.7860938416,
				"z": -0.8439821164,
				"element": "H" 
			},
			{
				"x": -1.3869581318,
				"y": -0.8246441764,
				"z": 0.4852970074,
				"element": "H" 
			},
			{
				"x": -2.7013508276,
				"y": -2.5960348935,
				"z": -0.6583453375,
				"element": "H" 
			},
			{
				"x": -3.2402977687,
				"y": -2.3808932083,
				"z": -3.0752456193,
				"element": "H" 
			},
			{
				"x": -2.4733769082,
				"y": -0.3794928394,
				"z": -4.336459899,
				"element": "H" 
			},
			{
				"x": -1.174529257,
				"y": 1.3929078947,
				"z": -3.1811813702,
				"element": "H" 
			},
			{
				"x": 3.7711951459,
				"y": 2.1097149865,
				"z": 0.9624930166,
				"element": "H" 
			},
			{
				"x": 4.1298852906,
				"y": 2.7227390431,
				"z": 3.3454894904,
				"element": "H" 
			},
			{
				"x": 2.9145085144,
				"y": 1.4571660255,
				"z": 5.1230945532,
				"element": "H" 
			},
			{
				"x": 1.3581732613,
				"y": -0.3567473478,
				"z": 4.5144695605,
				"element": "H" 
			}
		],
		 "valence_orbital": [ 
			{
				"type": "occ",
				"energy": -0.25157,
				"method": "rhf"
			},
			{
				"type": "occ",
				"energy": -0.24895,
				"method": "rhf"
			},
			{
				"type": "occ",
				"energy": -0.24186,
				"method": "rhf"
			},
			{
				"type": "occ",
				"energy": -0.22702,
				"method": "rhf"
			},
			{
				"type": "occ",
				"energy": -0.2048,
				"method": "rhf"
			},
			{
				"type": "unocc",
				"energy": -0.01264,
				"method": "rhf"
			},
			{
				"type": "unocc",
				"energy": -0.00536,
				"method": "rhf"
			},
			{
				"type": "unocc",
				"energy": -0.00091,
				"method": "rhf"
			},
			{
				"type": "unocc",
				"energy": 0.01187,
				"method": "rhf"
			},
			{
				"type": "unocc",
				"energy": 0.05614,
				"method": "rhf"
			}
		],
		"cosmo_sigma_profile": { 
			"-0.025": 0.0,
			"-0.024": 0.0,
			"-0.023": 0.0,
			"-0.022": 0.0,
			"-0.021": 0.0,
			"-0.02": 0.0,
			"-0.019": 0.0,
			"-0.018": 0.0,
			"-0.017": 0.0,
			"-0.016": 0.144345146964,
			"-0.015": 0.994716271246,
			"-0.014": 0.341221722015,
			"-0.013": 1.46105568581,
			"-0.012": 2.24001221205,
			"-0.011": 1.95137541919,
			"-0.01": 3.25307637819,
			"-0.009": 2.75686879513,
			"-0.008": 2.58039610723,
			"-0.007": 3.45292272739,
			"-0.006": 9.1890936032,
			"-0.005": 20.4702181889,
			"-0.004": 24.3429300062,
			"-0.003": 25.1148773716,
			"-0.002": 20.7862442765,
			"-0.001": 20.2150395057,
			"0.0": 17.8070011943,
			"0.001": 18.9946841002,
			"0.002": 16.7278654207,
			"0.003": 17.6197367123,
			"0.004": 19.4411747328,
			"0.005": 21.1827857033,
			"0.006": 20.1979857124,
			"0.007": 6.05172411937,
			"0.008": 3.27723901145,
			"0.009": 2.6889477949,
			"0.01": 1.71586477575,
			"0.011": 1.25924473071,
			"0.012": 1.16311064468,
			"0.013": 2.05092573079,
			"0.014": 0.492944275173,
			"0.015": 0.0,
			"0.016": 0.0,
			"0.017": 0.0,
			"0.018": 0.0,
			"0.019": 0.0,
			"0.02": 0.0,
			"0.021": 0.0,
			"0.022": 0.0,
			"0.023": 0.0,
			"0.024": 0.0,
			"0.025": 0.0
		}
	}
}
