{
	 "smiles": "COC1=C(C=C(C=C1)C(O)=O)S(=O)(=O)N1CCOCC1", 
	 "Tm": 492.15, 
	 "num_atms": 35, 
	 "gaussian": { 
		 "optdone": 1, 
		 "sigma_profile": "yes", 
		 "theory": "DFT", 
		 "functional": "B3LYP", 
		 "basiset": "6-31G**", 
		 "properties": { 
			 "R2extent": 6756.4491, 
			 "electric_dipole_moment_norm": 6.98213173823, 
			 "electric_quadrupole_moment_norm": 28.0123410273, 
			 "total_energy": -1370.50026568, 
			 "HOMO_LUMO_gap": 0.18411, 
			 "cosmo_polarized_energy": -25.86, 
			 "cosmo_cavitation_energy": 38.68, 
			 "cosmo_dispersion_energy": -27.77, 
			 "cosmo_repulsion_energy": 2.09, 
			 "cosmo_total_nonelectrostatic_energy": 13.0, 
			 "SMD_solvation_energy": 6.75 
		},
		"coords": [
			{
				"x": -2.1650858726,
				"y": 1.8353870735,
				"z": -1.78789337,
				"element": "C" 
			},
			{
				"x": -1.2288648797,
				"y": 0.8145207611,
				"z": -1.398184119,
				"element": "O" 
			},
			{
				"x": -1.6373055356,
				"y": -0.0228498242,
				"z": -0.4004087634,
				"element": "C" 
			},
			{
				"x": -1.1077290109,
				"y": 0.0935906638,
				"z": 0.8987669717,
				"element": "C" 
			},
			{
				"x": -1.4724785915,
				"y": -0.8164864871,
				"z": 1.8884208684,
				"element": "C" 
			},
			{
				"x": -2.356118924,
				"y": -1.8640704055,
				"z": 1.6012321062,
				"element": "C" 
			},
			{
				"x": -2.8996020723,
				"y": -1.9627558663,
				"z": 0.3128026813,
				"element": "C" 
			},
			{
				"x": -2.5443791971,
				"y": -1.0514779851,
				"z": -0.6770043595,
				"element": "C" 
			},
			{
				"x": -2.7042672417,
				"y": -2.8021322184,
				"z": 2.7192706141,
				"element": "C" 
			},
			{
				"x": -3.2234726323,
				"y": -4.0092357827,
				"z": 2.3667884138,
				"element": "O" 
			},
			{
				"x": -2.5441204041,
				"y": -2.5294442978,
				"z": 3.8843055794,
				"element": "O" 
			},
			{
				"x": 0.0155137058,
				"y": 1.442534462,
				"z": 1.3611555105,
				"element": "S" 
			},
			{
				"x": 0.1956827314,
				"y": 1.3149517088,
				"z": 2.8081812162,
				"element": "O" 
			},
			{
				"x": -0.4861263781,
				"y": 2.6791211186,
				"z": 0.7586600016,
				"element": "O" 
			},
			{
				"x": 1.5153262773,
				"y": 1.1395689067,
				"z": 0.679509938,
				"element": "N" 
			},
			{
				"x": 2.2751166335,
				"y": -0.0198499367,
				"z": 1.1718652678,
				"element": "C" 
			},
			{
				"x": 3.7578081363,
				"y": 0.2281310944,
				"z": 0.887375212,
				"element": "C" 
			},
			{
				"x": 3.9849137481,
				"y": 0.4894151434,
				"z": -0.48964482,
				"element": "O" 
			},
			{
				"x": 3.2698506341,
				"y": 1.6422360074,
				"z": -0.9143475475,
				"element": "C" 
			},
			{
				"x": 1.7625776327,
				"y": 1.4579196892,
				"z": -0.7358566242,
				"element": "C" 
			},
			{
				"x": -2.2862203096,
				"y": 2.5595993669,
				"z": -0.9782350601,
				"element": "H" 
			},
			{
				"x": -1.7301435725,
				"y": 2.3237479806,
				"z": -2.6607837455,
				"element": "H" 
			},
			{
				"x": -3.1325890447,
				"y": 1.3979595733,
				"z": -2.0596765493,
				"element": "H" 
			},
			{
				"x": -1.0855823128,
				"y": -0.7065635836,
				"z": 2.8949894755,
				"element": "H" 
			},
			{
				"x": -3.6279640043,
				"y": -2.7331610694,
				"z": 0.0717902061,
				"element": "H" 
			},
			{
				"x": -2.9523219399,
				"y": -1.1315194466,
				"z": -1.6794158466,
				"element": "H" 
			},
			{
				"x": -3.1278734253,
				"y": -4.1557762197,
				"z": 1.4159166699,
				"element": "H" 
			},
			{
				"x": 2.1094886329,
				"y": -0.1199941805,
				"z": 2.2461868815,
				"element": "H" 
			},
			{
				"x": 1.9529210381,
				"y": -0.9440148723,
				"z": 0.6670210146,
				"element": "H" 
			},
			{
				"x": 4.1087684885,
				"y": 1.071942763,
				"z": 1.5017387818,
				"element": "H" 
			},
			{
				"x": 4.3424215618,
				"y": -0.6609645148,
				"z": 1.1401065456,
				"element": "H" 
			},
			{
				"x": 3.6019647406,
				"y": 2.5282953048,
				"z": -0.3509514829,
				"element": "H" 
			},
			{
				"x": 3.5072996992,
				"y": 1.7858184979,
				"z": -1.9723272198,
				"element": "H" 
			},
			{
				"x": 1.4069688685,
				"y": 0.6522063091,
				"z": -1.392062274,
				"element": "H" 
			},
			{
				"x": 1.2294228204,
				"y": 2.3760502657,
				"z": -0.9850921742,
				"element": "H" 
			}
		],
		 "valence_orbital": [ 
			{
				"type": "occ",
				"energy": -0.29459,
				"method": "rhf"
			},
			{
				"type": "occ",
				"energy": -0.28411,
				"method": "rhf"
			},
			{
				"type": "occ",
				"energy": -0.27746,
				"method": "rhf"
			},
			{
				"type": "occ",
				"energy": -0.27,
				"method": "rhf"
			},
			{
				"type": "occ",
				"energy": -0.25149,
				"method": "rhf"
			},
			{
				"type": "unocc",
				"energy": -0.06738,
				"method": "rhf"
			},
			{
				"type": "unocc",
				"energy": -0.04976,
				"method": "rhf"
			},
			{
				"type": "unocc",
				"energy": 0.02445,
				"method": "rhf"
			},
			{
				"type": "unocc",
				"energy": 0.04056,
				"method": "rhf"
			},
			{
				"type": "unocc",
				"energy": 0.05603,
				"method": "rhf"
			}
		],
		"cosmo_sigma_profile": { 
			"-0.025": 0.0,
			"-0.024": 0.0,
			"-0.023": 0.0,
			"-0.022": 0.0,
			"-0.021": 0.0,
			"-0.02": 0.101846547245,
			"-0.019": 0.601506171306,
			"-0.018": 1.13076306968,
			"-0.017": 1.28246534954,
			"-0.016": 0.897282358733,
			"-0.015": 0.697523596928,
			"-0.014": 0.86943948665,
			"-0.013": 1.44858200368,
			"-0.012": 1.30734592856,
			"-0.011": 1.2154773188,
			"-0.01": 1.42106934564,
			"-0.009": 1.69573116946,
			"-0.008": 3.86143618284,
			"-0.007": 6.43959710131,
			"-0.006": 16.5811691564,
			"-0.005": 25.3232249419,
			"-0.004": 34.5570901889,
			"-0.003": 31.6238165135,
			"-0.002": 19.5668796127,
			"-0.001": 18.9860148329,
			"0.0": 18.6625089576,
			"0.001": 16.2398281659,
			"0.002": 8.24909992986,
			"0.003": 9.23301919252,
			"0.004": 8.82025384537,
			"0.005": 8.96089791566,
			"0.006": 8.13329283625,
			"0.007": 6.54614617875,
			"0.008": 9.40594185176,
			"0.009": 8.03005773217,
			"0.01": 12.0773547175,
			"0.011": 13.18203122,
			"0.012": 7.05573830213,
			"0.013": 2.12442377089,
			"0.014": 0.0,
			"0.015": 0.0,
			"0.016": 0.0,
			"0.017": 0.0,
			"0.018": 0.0,
			"0.019": 0.0,
			"0.02": 0.0,
			"0.021": 0.0,
			"0.022": 0.0,
			"0.023": 0.0,
			"0.024": 0.0,
			"0.0": 0.0
		}
	}
}
