{
	 "smiles": "CC(=O)OC1=CC(=CC2=C1C=CC=C2)C1=CC=CC=C1", 
	 "Tm": 333.15, 
	 "num_atms": 34, 
	 "gaussian": { 
		 "optdone": 1, 
		 "sigma_profile": "yes", 
		 "theory": "DFT", 
		 "functional": "B3LYP", 
		 "basiset": "6-31G**", 
		 "properties": { 
			 "R2extent": 6922.5786, 
			 "electric_dipole_moment_norm": 1.60021167662, 
			 "electric_quadrupole_moment_norm": 19.7970388917, 
			 "total_energy": -844.830130203, 
			 "HOMO_LUMO_gap": 0.16269, 
			 "cosmo_polarized_energy": -10.53, 
			 "cosmo_cavitation_energy": 38.44, 
			 "cosmo_dispersion_energy": -27.4, 
			 "cosmo_repulsion_energy": 2.08, 
			 "cosmo_total_nonelectrostatic_energy": 13.12, 
			 "SMD_solvation_energy": 7.3 
		},
		"coords": [
			{
				"x": -1.46542183,
				"y": -4.2276653632,
				"z": 2.4184307148,
				"element": "C" 
			},
			{
				"x": -0.8526168049,
				"y": -2.9264242277,
				"z": 1.9618782704,
				"element": "C" 
			},
			{
				"x": -0.798261285,
				"y": -1.9064954929,
				"z": 2.6012993119,
				"element": "O" 
			},
			{
				"x": -0.3563406967,
				"y": -3.0793528267,
				"z": 0.6904329073,
				"element": "O" 
			},
			{
				"x": 0.2933915027,
				"y": -2.0404846709,
				"z": 0.0215692029,
				"element": "C" 
			},
			{
				"x": -0.1999386505,
				"y": -0.7591067177,
				"z": -0.0123490783,
				"element": "C" 
			},
			{
				"x": 0.4715248244,
				"y": 0.2527034971,
				"z": -0.7571898916,
				"element": "C" 
			},
			{
				"x": 1.6222769754,
				"y": -0.0801363945,
				"z": -1.4504839899,
				"element": "C" 
			},
			{
				"x": 2.1449474732,
				"y": -1.3980638153,
				"z": -1.4333880011,
				"element": "C" 
			},
			{
				"x": 1.4738688868,
				"y": -2.4156576081,
				"z": -0.6816431799,
				"element": "C" 
			},
			{
				"x": 1.9995479818,
				"y": -3.7339770386,
				"z": -0.6692249746,
				"element": "C" 
			},
			{
				"x": 3.1449562835,
				"y": -4.0353988891,
				"z": -1.3724457808,
				"element": "C" 
			},
			{
				"x": 3.8120400786,
				"y": -3.0348979289,
				"z": -2.1204204082,
				"element": "C" 
			},
			{
				"x": 3.3218193869,
				"y": -1.7492701557,
				"z": -2.1500359035,
				"element": "C" 
			},
			{
				"x": -0.0718677227,
				"y": 1.6349554267,
				"z": -0.7848163388,
				"element": "C" 
			},
			{
				"x": -1.4573240692,
				"y": 1.8669896205,
				"z": -0.8248757825,
				"element": "C" 
			},
			{
				"x": -1.9656388754,
				"y": 3.1646515523,
				"z": -0.8616553019,
				"element": "C" 
			},
			{
				"x": -1.0998474648,
				"y": 4.2597891394,
				"z": -0.8576261084,
				"element": "C" 
			},
			{
				"x": 0.2791040991,
				"y": 4.0449669711,
				"z": -0.8149138955,
				"element": "C" 
			},
			{
				"x": 0.7870220994,
				"y": 2.7474028871,
				"z": -0.7771501013,
				"element": "C" 
			},
			{
				"x": -2.2287017534,
				"y": -4.5547582788,
				"z": 1.7066467861,
				"element": "H" 
			},
			{
				"x": -1.9054468357,
				"y": -4.091814754,
				"z": 3.4056732905,
				"element": "H" 
			},
			{
				"x": -0.699919201,
				"y": -5.0085488528,
				"z": 2.4577953545,
				"element": "H" 
			},
			{
				"x": -1.080652867,
				"y": -0.5072080037,
				"z": 0.5623748219,
				"element": "H" 
			},
			{
				"x": 2.1308289569,
				"y": 0.6706881757,
				"z": -2.0482133683,
				"element": "H" 
			},
			{
				"x": 1.4828817079,
				"y": -4.4978936326,
				"z": -0.0995840586,
				"element": "H" 
			},
			{
				"x": 3.5399759611,
				"y": -5.0470171552,
				"z": -1.3562904581,
				"element": "H" 
			},
			{
				"x": 4.7131762354,
				"y": -3.2868818532,
				"z": -2.6719719537,
				"element": "H" 
			},
			{
				"x": 3.8303068262,
				"y": -0.978516247,
				"z": -2.7233378159,
				"element": "H" 
			},
			{
				"x": -2.1405333148,
				"y": 1.0232519861,
				"z": -0.8519756131,
				"element": "H" 
			},
			{
				"x": -3.0401936881,
				"y": 3.3198302908,
				"z": -0.9002522861,
				"element": "H" 
			},
			{
				"x": -1.4958559795,
				"y": 5.270796705,
				"z": -0.8844050595,
				"element": "H" 
			},
			{
				"x": 0.9618127167,
				"y": 4.8899379129,
				"z": -0.7995422382,
				"element": "H" 
			},
			{
				"x": 1.8597790427,
				"y": 2.5912057421,
				"z": -0.7138090727,
				"element": "H" 
			}
		],
		 "valence_orbital": [ 
			{
				"type": "occ",
				"energy": -0.27502,
				"method": "rhf"
			},
			{
				"type": "occ",
				"energy": -0.26266,
				"method": "rhf"
			},
			{
				"type": "occ",
				"energy": -0.24946,
				"method": "rhf"
			},
			{
				"type": "occ",
				"energy": -0.23159,
				"method": "rhf"
			},
			{
				"type": "occ",
				"energy": -0.20846,
				"method": "rhf"
			},
			{
				"type": "unocc",
				"energy": -0.04577,
				"method": "rhf"
			},
			{
				"type": "unocc",
				"energy": -0.02336,
				"method": "rhf"
			},
			{
				"type": "unocc",
				"energy": -0.00097,
				"method": "rhf"
			},
			{
				"type": "unocc",
				"energy": 0.00204,
				"method": "rhf"
			},
			{
				"type": "unocc",
				"energy": 0.0149,
				"method": "rhf"
			}
		],
		"cosmo_sigma_profile": { 
			"-0.025": 0.0,
			"-0.024": 0.0,
			"-0.023": 0.0,
			"-0.022": 0.0,
			"-0.021": 0.0,
			"-0.02": 0.0,
			"-0.019": 0.0,
			"-0.018": 0.0,
			"-0.017": 0.0,
			"-0.016": 0.0,
			"-0.015": 0.0,
			"-0.014": 0.0,
			"-0.013": 0.0,
			"-0.012": 0.0,
			"-0.011": 0.0,
			"-0.01": 0.0,
			"-0.009": 0.0,
			"-0.008": 0.0,
			"-0.007": 2.62209686521,
			"-0.006": 19.8332918197,
			"-0.005": 29.4836877472,
			"-0.004": 30.9114908689,
			"-0.003": 26.2254821751,
			"-0.002": 24.1246450379,
			"-0.001": 19.0028921047,
			"0.0": 15.1140082059,
			"0.001": 17.9015142389,
			"0.002": 23.5714617047,
			"0.003": 31.4932617037,
			"0.004": 26.3668430253,
			"0.005": 19.7525793878,
			"0.006": 7.64311495329,
			"0.007": 1.72377292789,
			"0.008": 1.605968501,
			"0.009": 2.05066710653,
			"0.01": 2.85834267638,
			"0.011": 4.48918643476,
			"0.012": 1.69805229269,
			"0.013": 0.0760783524688,
			"0.014": 0.0,
			"0.015": 0.0,
			"0.016": 0.0,
			"0.017": 0.0,
			"0.018": 0.0,
			"0.019": 0.0,
			"0.02": 0.0,
			"0.021": 0.0,
			"0.022": 0.0,
			"0.023": 0.0,
			"0.024": 0.0,
			"0.025": 0.0
		}
	}
}
