{
	 "smiles": "CC(=O)C1=CC(C)=CC(C(C)=O)=C1O", 
	 "Tm": 324.15, 
	 "num_atms": 26, 
	 "gaussian": { 
		 "optdone": 1, 
		 "sigma_profile": "yes", 
		 "theory": "DFT", 
		 "functional": "B3LYP", 
		 "basiset": "6-31G**", 
		 "properties": { 
			 "R2extent": 3211.2056, 
			 "electric_dipole_moment_norm": 4.24960838784, 
			 "electric_quadrupole_moment_norm": 9.47744463608, 
			 "total_energy": -652.099545971, 
			 "HOMO_LUMO_gap": 0.15603, 
			 "cosmo_polarized_energy": -10.55, 
			 "cosmo_cavitation_energy": 29.37, 
			 "cosmo_dispersion_energy": -21.52, 
			 "cosmo_repulsion_energy": 1.68, 
			 "cosmo_total_nonelectrostatic_energy": 9.53, 
			 "SMD_solvation_energy": 6.62 
		},
		"coords": [
			{
				"x": -3.8654705704,
				"y": 0.436584113,
				"z": 0.2389249503,
				"element": "C" 
			},
			{
				"x": -2.8281145804,
				"y": -0.125957364,
				"z": 1.1859581619,
				"element": "C" 
			},
			{
				"x": -3.1804278293,
				"y": -0.733938101,
				"z": 2.1881620925,
				"element": "O" 
			},
			{
				"x": -1.3534325376,
				"y": 0.0489738174,
				"z": 0.9178918353,
				"element": "C" 
			},
			{
				"x": -0.4851017749,
				"y": -0.5101327991,
				"z": 1.8595956353,
				"element": "C" 
			},
			{
				"x": 0.9108649438,
				"y": -0.4393159927,
				"z": 1.7631536161,
				"element": "C" 
			},
			{
				"x": 1.793369963,
				"y": -1.0655642968,
				"z": 2.8175036089,
				"element": "C" 
			},
			{
				"x": 1.4403087519,
				"y": 0.2272023324,
				"z": 0.6637746692,
				"element": "C" 
			},
			{
				"x": 0.6240949549,
				"y": 0.8133875874,
				"z": -0.3221839329,
				"element": "C" 
			},
			{
				"x": 1.1992480981,
				"y": 1.515070561,
				"z": -1.4792618856,
				"element": "C" 
			},
			{
				"x": 2.7008350837,
				"y": 1.6267344847,
				"z": -1.6426453019,
				"element": "C" 
			},
			{
				"x": 0.4696957114,
				"y": 2.0298755877,
				"z": -2.3450410874,
				"element": "O" 
			},
			{
				"x": -0.7959005293,
				"y": 0.7251242861,
				"z": -0.1966247057,
				"element": "C" 
			},
			{
				"x": -1.5928990598,
				"y": 1.2727458088,
				"z": -1.1178318365,
				"element": "O" 
			},
			{
				"x": -3.7422533429,
				"y": 0.0241524782,
				"z": -0.7666193319,
				"element": "H" 
			},
			{
				"x": -4.8524266873,
				"y": 0.1907905922,
				"z": 0.6331707283,
				"element": "H" 
			},
			{
				"x": -3.7544315868,
				"y": 1.519786537,
				"z": 0.1352342014,
				"element": "H" 
			},
			{
				"x": -0.9530620768,
				"y": -1.0190934283,
				"z": 2.6977025744,
				"element": "H" 
			},
			{
				"x": 2.8528682882,
				"y": -0.9204142328,
				"z": 2.5882996631,
				"element": "H" 
			},
			{
				"x": 1.6036783788,
				"y": -0.6324349843,
				"z": 3.8060243787,
				"element": "H" 
			},
			{
				"x": 1.6144884648,
				"y": -2.1435167558,
				"z": 2.8995280819,
				"element": "H" 
			},
			{
				"x": 2.5191852754,
				"y": 0.2974323677,
				"z": 0.563218079,
				"element": "H" 
			},
			{
				"x": 2.907613049,
				"y": 2.1796445094,
				"z": -2.5591239205,
				"element": "H" 
			},
			{
				"x": 3.1514241965,
				"y": 2.1506242498,
				"z": -0.7932864631,
				"element": "H" 
			},
			{
				"x": 3.1651076205,
				"y": 0.6369568434,
				"z": -1.7033211635,
				"element": "H" 
			},
			{
				"x": -0.9866622046,
				"y": 1.6879817986,
				"z": -1.7985026473,
				"element": "H" 
			}
		],
		 "valence_orbital": [ 
			{
				"type": "occ",
				"energy": -0.33233,
				"method": "rhf"
			},
			{
				"type": "occ",
				"energy": -0.27354,
				"method": "rhf"
			},
			{
				"type": "occ",
				"energy": -0.26916,
				"method": "rhf"
			},
			{
				"type": "occ",
				"energy": -0.2442,
				"method": "rhf"
			},
			{
				"type": "occ",
				"energy": -0.23217,
				"method": "rhf"
			},
			{
				"type": "unocc",
				"energy": -0.07614,
				"method": "rhf"
			},
			{
				"type": "unocc",
				"energy": -0.03903,
				"method": "rhf"
			},
			{
				"type": "unocc",
				"energy": 0.01349,
				"method": "rhf"
			},
			{
				"type": "unocc",
				"energy": 0.05246,
				"method": "rhf"
			},
			{
				"type": "unocc",
				"energy": 0.08294,
				"method": "rhf"
			}
		],
		"cosmo_sigma_profile": { 
			"-0.025": 0.0,
			"-0.024": 0.0,
			"-0.023": 0.0,
			"-0.022": 0.0,
			"-0.021": 0.0,
			"-0.02": 0.0,
			"-0.019": 0.0,
			"-0.018": 0.0,
			"-0.017": 0.0,
			"-0.016": 0.0,
			"-0.015": 0.0,
			"-0.014": 0.0,
			"-0.013": 0.0,
			"-0.012": 0.0,
			"-0.011": 0.0,
			"-0.01": 0.0,
			"-0.009": 0.0,
			"-0.008": 0.130531567705,
			"-0.007": 5.59551328779,
			"-0.006": 10.350291902,
			"-0.005": 13.6910676022,
			"-0.004": 20.2149077727,
			"-0.003": 24.2206529631,
			"-0.002": 26.4312508617,
			"-0.001": 25.206029369,
			"0.0": 25.0051352732,
			"0.001": 15.8521352443,
			"0.002": 16.2507177717,
			"0.003": 9.80816301639,
			"0.004": 4.87494966563,
			"0.005": 5.39784635637,
			"0.006": 6.22670869388,
			"0.007": 2.68631652143,
			"0.008": 3.14253922809,
			"0.009": 3.18408517988,
			"0.01": 3.35876494964,
			"0.011": 4.44297580981,
			"0.012": 4.71137061759,
			"0.013": 1.96220447747,
			"0.014": 0.300279526282,
			"0.015": 0.0,
			"0.016": 0.0,
			"0.017": 0.0,
			"0.018": 0.0,
			"0.019": 0.0,
			"0.02": 0.0,
			"0.021": 0.0,
			"0.022": 0.0,
			"0.023": 0.0,
			"0.024": 0.0,
			"0.025": 0.0
		}
	}
}
