{
	 "smiles": "COC1=CC2=C(C3C=COC3O2)C2=C1C1=C(C(=O)CC1)C(=O)O2", 
	 "Tm": 541.15, 
	 "num_atms": 35, 
	 "gaussian": { 
		 "optdone": 1, 
		 "sigma_profile": "yes", 
		 "theory": "DFT", 
		 "functional": "B3LYP", 
		 "basiset": "6-31G**", 
		 "properties": { 
			 "R2extent": 7472.0527, 
			 "electric_dipole_moment_norm": 8.24890118076, 
			 "electric_quadrupole_moment_norm": 27.8843802312, 
			 "total_energy": -1106.34650415, 
			 "HOMO_LUMO_gap": 0.15158, 
			 "cosmo_polarized_energy": -23.9, 
			 "cosmo_cavitation_energy": 38.92, 
			 "cosmo_dispersion_energy": -28.36, 
			 "cosmo_repulsion_energy": 2.12, 
			 "cosmo_total_nonelectrostatic_energy": 12.67, 
			 "SMD_solvation_energy": 8.99 
		},
		"coords": [
			{
				"x": -0.5655515543,
				"y": -1.0321239999,
				"z": 4.1762089909,
				"element": "C" 
			},
			{
				"x": 0.0313163422,
				"y": -1.091105093,
				"z": 2.8845607456,
				"element": "O" 
			},
			{
				"x": -0.1775667973,
				"y": -0.0675558344,
				"z": 2.0184335312,
				"element": "C" 
			},
			{
				"x": -0.9513576404,
				"y": 1.0480271417,
				"z": 2.3390247974,
				"element": "C" 
			},
			{
				"x": -1.0891675803,
				"y": 2.0331308941,
				"z": 1.3596238644,
				"element": "C" 
			},
			{
				"x": -0.4967715904,
				"y": 1.9604877732,
				"z": 0.1055718742,
				"element": "C" 
			},
			{
				"x": -0.890877931,
				"y": 3.1757515585,
				"z": -0.6975110433,
				"element": "C" 
			},
			{
				"x": -1.9358364935,
				"y": 2.9328901812,
				"z": -1.7686443101,
				"element": "C" 
			},
			{
				"x": -3.0735441558,
				"y": 3.5073363943,
				"z": -1.3854735036,
				"element": "C" 
			},
			{
				"x": -3.0116879145,
				"y": 4.1869747193,
				"z": -0.1828383187,
				"element": "O" 
			},
			{
				"x": -1.7197117811,
				"y": 3.9829012432,
				"z": 0.3561805589,
				"element": "C" 
			},
			{
				"x": -1.8048095315,
				"y": 3.1710088496,
				"z": 1.5515947476,
				"element": "O" 
			},
			{
				"x": 0.2634012133,
				"y": 0.8446801227,
				"z": -0.2073977297,
				"element": "C" 
			},
			{
				"x": 0.4514336648,
				"y": -0.1999013125,
				"z": 0.7411897716,
				"element": "C" 
			},
			{
				"x": 1.2622244276,
				"y": -1.3008138021,
				"z": 0.3125646018,
				"element": "C" 
			},
			{
				"x": 1.8113849905,
				"y": -1.3237630453,
				"z": -0.9470338465,
				"element": "C" 
			},
			{
				"x": 2.6072286374,
				"y": -2.5536969313,
				"z": -1.16527612,
				"element": "C" 
			},
			{
				"x": 3.2195751567,
				"y": -2.8861094811,
				"z": -2.1593106737,
				"element": "O" 
			},
			{
				"x": 2.5180714935,
				"y": -3.3656707976,
				"z": 0.138596497,
				"element": "C" 
			},
			{
				"x": 1.6373770463,
				"y": -2.5429487243,
				"z": 1.0969372257,
				"element": "C" 
			},
			{
				"x": 1.6156718079,
				"y": -0.2648103412,
				"z": -1.9191233786,
				"element": "C" 
			},
			{
				"x": 2.0326471763,
				"y": -0.1734946642,
				"z": -3.0423522251,
				"element": "O" 
			},
			{
				"x": 0.8095734404,
				"y": 0.8052990632,
				"z": -1.4478249949,
				"element": "O" 
			},
			{
				"x": -0.2639036971,
				"y": -1.9487706997,
				"z": 4.6838129767,
				"element": "H" 
			},
			{
				"x": -1.65894224,
				"y": -0.9950313672,
				"z": 4.1086504275,
				"element": "H" 
			},
			{
				"x": -0.2050091583,
				"y": -0.1657252216,
				"z": 4.7426838402,
				"element": "H" 
			},
			{
				"x": -1.4345051897,
				"y": 1.1683168612,
				"z": 3.2981732206,
				"element": "H" 
			},
			{
				"x": -0.0222781462,
				"y": 3.726974534,
				"z": -1.0742158468,
				"element": "H" 
			},
			{
				"x": -1.7683145757,
				"y": 2.35938095,
				"z": -2.668369708,
				"element": "H" 
			},
			{
				"x": -4.041846697,
				"y": 3.5502575955,
				"z": -1.866071631,
				"element": "H" 
			},
			{
				"x": -1.3234020434,
				"y": 4.9515514437,
				"z": 0.6650434308,
				"element": "H" 
			},
			{
				"x": 3.5286614199,
				"y": -3.5309901803,
				"z": 0.5246355191,
				"element": "H" 
			},
			{
				"x": 2.099610574,
				"y": -4.3520045421,
				"z": -0.0841865248,
				"element": "H" 
			},
			{
				"x": 0.7348550323,
				"y": -3.074682801,
				"z": 1.4130132055,
				"element": "H" 
			},
			{
				"x": 2.1532522942,
				"y": -2.2631704868,
				"z": 2.0204300286,
				"element": "H" 
			}
		],
		 "valence_orbital": [ 
			{
				"type": "occ",
				"energy": -0.27552,
				"method": "rhf"
			},
			{
				"type": "occ",
				"energy": -0.24666,
				"method": "rhf"
			},
			{
				"type": "occ",
				"energy": -0.23887,
				"method": "rhf"
			},
			{
				"type": "occ",
				"energy": -0.2327,
				"method": "rhf"
			},
			{
				"type": "occ",
				"energy": -0.22455,
				"method": "rhf"
			},
			{
				"type": "unocc",
				"energy": -0.07297,
				"method": "rhf"
			},
			{
				"type": "unocc",
				"energy": -0.02136,
				"method": "rhf"
			},
			{
				"type": "unocc",
				"energy": -0.00395,
				"method": "rhf"
			},
			{
				"type": "unocc",
				"energy": 0.01105,
				"method": "rhf"
			},
			{
				"type": "unocc",
				"energy": 0.02345,
				"method": "rhf"
			}
		],
		"cosmo_sigma_profile": { 
			"-0.025": 0.0,
			"-0.024": 0.0,
			"-0.023": 0.0,
			"-0.022": 0.0,
			"-0.021": 0.0,
			"-0.02": 0.0,
			"-0.019": 0.0,
			"-0.018": 0.0,
			"-0.017": 0.0,
			"-0.016": 0.0,
			"-0.015": 0.0,
			"-0.014": 0.0,
			"-0.013": 0.0,
			"-0.012": 0.0,
			"-0.011": 0.0,
			"-0.01": 0.0518434839162,
			"-0.009": 2.35125798684,
			"-0.008": 7.5280120646,
			"-0.007": 13.0815914894,
			"-0.006": 22.0876940466,
			"-0.005": 28.8131570994,
			"-0.004": 27.9290099605,
			"-0.003": 22.470728025,
			"-0.002": 23.7099840152,
			"-0.001": 23.5069080268,
			"0.0": 25.6358878202,
			"0.001": 19.5321559546,
			"0.002": 15.9538877907,
			"0.003": 9.51998058577,
			"0.004": 7.2356217887,
			"0.005": 6.21601663399,
			"0.006": 5.45429943178,
			"0.007": 4.93602689283,
			"0.008": 6.26919540043,
			"0.009": 7.17068089604,
			"0.01": 6.22749488109,
			"0.011": 7.78943047144,
			"0.012": 9.01158886205,
			"0.013": 5.3957267404,
			"0.014": 1.88550922365,
			"0.015": 1.68980390634,
			"0.016": 0.273162023579,
			"0.017": 0.0,
			"0.018": 0.0,
			"0.019": 0.0,
			"0.02": 0.0,
			"0.021": 0.0,
			"0.022": 0.0,
			"0.023": 0.0,
			"0.024": 0.0,
			"0.025": 0.0
		}
	}
}
