{
	 "smiles": "OC1=NN=C(S)N1CCC1=CC=CC=C1", 
	 "Tm": 441.15, 
	 "num_atms": 26, 
	 "gaussian": { 
		 "optdone": 1, 
		 "sigma_profile": "yes", 
		 "theory": "DFT", 
		 "functional": "B3LYP", 
		 "basiset": "6-31G**", 
		 "properties": { 
			 "R2extent": 3624.894, 
			 "electric_dipole_moment_norm": 4.42545403207, 
			 "electric_quadrupole_moment_norm": 18.9262024553, 
			 "total_energy": -1025.33033726, 
			 "HOMO_LUMO_gap": 0.22742, 
			 "cosmo_polarized_energy": -19.12, 
			 "cosmo_cavitation_energy": 31.88, 
			 "cosmo_dispersion_energy": -22.22, 
			 "cosmo_repulsion_energy": 1.71, 
			 "cosmo_total_nonelectrostatic_energy": 11.37, 
			 "SMD_solvation_energy": 3.08 
		},
		"coords": [
			{
				"x": -1.2329102273,
				"y": -1.3169544472,
				"z": 2.1096711952,
				"element": "O" 
			},
			{
				"x": -0.3196254047,
				"y": -0.3450711468,
				"z": 2.2447577256,
				"element": "C" 
			},
			{
				"x": 0.7226909719,
				"y": -0.3520811486,
				"z": 3.0390579513,
				"element": "N" 
			},
			{
				"x": 1.3682074789,
				"y": 0.8571899166,
				"z": 2.8477407529,
				"element": "N" 
			},
			{
				"x": 0.681213335,
				"y": 1.5395255312,
				"z": 1.9652254949,
				"element": "C" 
			},
			{
				"x": 1.0765167111,
				"y": 3.1555274999,
				"z": 1.3655354949,
				"element": "S" 
			},
			{
				"x": -0.4242728678,
				"y": 0.8102044378,
				"z": 1.5346398061,
				"element": "N" 
			},
			{
				"x": -1.4272348921,
				"y": 1.1447416136,
				"z": 0.5263140864,
				"element": "C" 
			},
			{
				"x": -0.9447492462,
				"y": 0.9209412018,
				"z": -0.9228471926,
				"element": "C" 
			},
			{
				"x": -0.6019596834,
				"y": -0.5161869093,
				"z": -1.2508583604,
				"element": "C" 
			},
			{
				"x": 0.7128825631,
				"y": -0.9861113294,
				"z": -1.1344487551,
				"element": "C" 
			},
			{
				"x": 1.0225103113,
				"y": -2.3192874166,
				"z": -1.4103773987,
				"element": "C" 
			},
			{
				"x": 0.0195791309,
				"y": -3.2025920257,
				"z": -1.8118955206,
				"element": "C" 
			},
			{
				"x": -1.2941540994,
				"y": -2.7450432548,
				"z": -1.9362203956,
				"element": "C" 
			},
			{
				"x": -1.5997009017,
				"y": -1.4132278865,
				"z": -1.6572010546,
				"element": "C" 
			},
			{
				"x": -0.9462929359,
				"y": -2.0451562711,
				"z": 2.6815116613,
				"element": "H" 
			},
			{
				"x": 0.6242778608,
				"y": 3.8468669131,
				"z": 2.4338840918,
				"element": "H" 
			},
			{
				"x": -1.7009203544,
				"y": 2.1940811976,
				"z": 0.6648133135,
				"element": "H" 
			},
			{
				"x": -2.3041978372,
				"y": 0.5284356579,
				"z": 0.7375679988,
				"element": "H" 
			},
			{
				"x": -0.081170106,
				"y": 1.5692845438,
				"z": -1.1052539176,
				"element": "H" 
			},
			{
				"x": -1.7478014922,
				"y": 1.2752655879,
				"z": -1.5803701301,
				"element": "H" 
			},
			{
				"x": 1.5018581975,
				"y": -0.3032824063,
				"z": -0.8293589696,
				"element": "H" 
			},
			{
				"x": 2.0479429562,
				"y": -2.6646094401,
				"z": -1.3148984048,
				"element": "H" 
			},
			{
				"x": 0.2600144512,
				"y": -4.2387635734,
				"z": -2.0318867041,
				"element": "H" 
			},
			{
				"x": -2.0799263509,
				"y": -3.4241144239,
				"z": -2.2552158613,
				"element": "H" 
			},
			{
				"x": -2.6244775688,
				"y": -1.0632824216,
				"z": -1.7613869076,
				"element": "H" 
			}
		],
		 "valence_orbital": [ 
			{
				"type": "occ",
				"energy": -0.27219,
				"method": "rhf"
			},
			{
				"type": "occ",
				"energy": -0.2559,
				"method": "rhf"
			},
			{
				"type": "occ",
				"energy": -0.25323,
				"method": "rhf"
			},
			{
				"type": "occ",
				"energy": -0.24735,
				"method": "rhf"
			},
			{
				"type": "occ",
				"energy": -0.23636,
				"method": "rhf"
			},
			{
				"type": "unocc",
				"energy": -0.00894,
				"method": "rhf"
			},
			{
				"type": "unocc",
				"energy": -0.00525,
				"method": "rhf"
			},
			{
				"type": "unocc",
				"energy": -0.00372,
				"method": "rhf"
			},
			{
				"type": "unocc",
				"energy": 0.03549,
				"method": "rhf"
			},
			{
				"type": "unocc",
				"energy": 0.05479,
				"method": "rhf"
			}
		],
		"cosmo_sigma_profile": { 
			"-0.025": 0.0,
			"-0.024": 0.0,
			"-0.023": 0.0,
			"-0.022": 0.0,
			"-0.021": 0.0,
			"-0.02": 0.108636063096,
			"-0.019": 0.803639289836,
			"-0.018": 1.04073037984,
			"-0.017": 0.837385688777,
			"-0.016": 0.615611196253,
			"-0.015": 0.738268737509,
			"-0.014": 0.479754473202,
			"-0.013": 0.685159355228,
			"-0.012": 1.22932892647,
			"-0.011": 3.43694252844,
			"-0.01": 2.13465106028,
			"-0.009": 2.20491954831,
			"-0.008": 2.45435274446,
			"-0.007": 2.81004024012,
			"-0.006": 12.1953728712,
			"-0.005": 27.5015018327,
			"-0.004": 21.8859122045,
			"-0.003": 21.4979070749,
			"-0.002": 15.8732352446,
			"-0.001": 16.114083229,
			"0.0": 11.1370121784,
			"0.001": 12.8180685533,
			"0.002": 13.1194338873,
			"0.003": 13.5701406434,
			"0.004": 13.0571488681,
			"0.005": 11.299968828,
			"0.006": 12.6016844131,
			"0.007": 7.62463959415,
			"0.008": 4.12061310104,
			"0.009": 1.92480183249,
			"0.01": 2.3795535094,
			"0.011": 2.91544593912,
			"0.012": 2.88644280797,
			"0.013": 3.64921853275,
			"0.014": 2.76109509394,
			"0.015": 3.10709677811,
			"0.016": 2.02669209861,
			"0.017": 0.413263597159,
			"0.018": 0.0,
			"0.019": 0.0,
			"0.02": 0.0,
			"0.021": 0.0,
			"0.022": 0.0,
			"0.023": 0.0,
			"0.024": 0.0,
			"0.025": 0.0
		}
	}
}
