{
	 "smiles": "FC(F)(F)C1=CC=CC(C#N)=C1Cl", 
	 "Tm": 312.65, 
	 "num_atms": 16, 
	 "gaussian": { 
		 "optdone": 1, 
		 "sigma_profile": "yes", 
		 "theory": "DFT", 
		 "functional": "B3LYP", 
		 "basiset": "6-31G**", 
		 "properties": { 
			 "R2extent": 3689.9075, 
			 "electric_dipole_moment_norm": 4.52813837024, 
			 "electric_quadrupole_moment_norm": 16.1814957597, 
			 "total_energy": -1121.10294134, 
			 "HOMO_LUMO_gap": 0.20377, 
			 "cosmo_polarized_energy": -9.12, 
			 "cosmo_cavitation_energy": 24.73, 
			 "cosmo_dispersion_energy": -17.3, 
			 "cosmo_repulsion_energy": 1.3, 
			 "cosmo_total_nonelectrostatic_energy": 8.73, 
			 "SMD_solvation_energy": 6.46 
		},
		"coords": [
			{
				"x": 2.6259751935,
				"y": 0.2609106048,
				"z": -0.5872997017,
				"element": "F" 
			},
			{
				"x": 2.0511068753,
				"y": -0.959133051,
				"z": -0.6661291017,
				"element": "C" 
			},
			{
				"x": 2.3829367636,
				"y": -1.6282989713,
				"z": 0.4544288213,
				"element": "F" 
			},
			{
				"x": 2.6155085421,
				"y": -1.5981792183,
				"z": -1.7085488419,
				"element": "F" 
			},
			{
				"x": 0.5483017943,
				"y": -0.8423456967,
				"z": -0.8261014486,
				"element": "C" 
			},
			{
				"x": -0.0313659695,
				"y": 0.4289348328,
				"z": -0.8704979106,
				"element": "C" 
			},
			{
				"x": -1.4084079202,
				"y": 0.5877946653,
				"z": -1.0164114177,
				"element": "C" 
			},
			{
				"x": -2.2241878688,
				"y": -0.5311609136,
				"z": -1.1200345019,
				"element": "C" 
			},
			{
				"x": -1.6656574094,
				"y": -1.8200578935,
				"z": -1.0781303832,
				"element": "C" 
			},
			{
				"x": -2.5338574844,
				"y": -2.9548202068,
				"z": -1.187642371,
				"element": "C" 
			},
			{
				"x": -3.2789469641,
				"y": -3.8423980781,
				"z": -1.280434141,
				"element": "N" 
			},
			{
				"x": -0.2731390353,
				"y": -1.974936043,
				"z": -0.9304265903,
				"element": "C" 
			},
			{
				"x": 0.3878630519,
				"y": -3.5843143107,
				"z": -0.8818117219,
				"element": "Cl" 
			},
			{
				"x": 0.6127482518,
				"y": 1.2959782286,
				"z": -0.7889233005,
				"element": "H" 
			},
			{
				"x": -1.8402774589,
				"y": 1.5822170824,
				"z": -1.0488222161,
				"element": "H" 
			},
			{
				"x": -3.2981003619,
				"y": -0.4311910307,
				"z": -1.2342151733,
				"element": "H" 
			}
		],
		 "valence_orbital": [ 
			{
				"type": "occ",
				"energy": -0.36416,
				"method": "rhf"
			},
			{
				"type": "occ",
				"energy": -0.34874,
				"method": "rhf"
			},
			{
				"type": "occ",
				"energy": -0.33304,
				"method": "rhf"
			},
			{
				"type": "occ",
				"energy": -0.2961,
				"method": "rhf"
			},
			{
				"type": "occ",
				"energy": -0.27991,
				"method": "rhf"
			},
			{
				"type": "unocc",
				"energy": -0.07614,
				"method": "rhf"
			},
			{
				"type": "unocc",
				"energy": -0.05964,
				"method": "rhf"
			},
			{
				"type": "unocc",
				"energy": 0.00355,
				"method": "rhf"
			},
			{
				"type": "unocc",
				"energy": 0.02151,
				"method": "rhf"
			},
			{
				"type": "unocc",
				"energy": 0.04942,
				"method": "rhf"
			}
		],
		"cosmo_sigma_profile": { 
			"-0.025": 0.0,
			"-0.024": 0.0,
			"-0.023": 0.0,
			"-0.022": 0.0,
			"-0.021": 0.0,
			"-0.02": 0.0,
			"-0.019": 0.0,
			"-0.018": 0.0,
			"-0.017": 0.0,
			"-0.016": 0.0,
			"-0.015": 0.0,
			"-0.014": 0.0,
			"-0.013": 0.0,
			"-0.012": 0.0,
			"-0.011": 0.0,
			"-0.01": 0.486817834139,
			"-0.009": 3.64121899051,
			"-0.008": 7.43737992865,
			"-0.007": 7.15731348195,
			"-0.006": 4.61928836712,
			"-0.005": 5.75448262966,
			"-0.004": 11.4546220178,
			"-0.003": 14.8876889077,
			"-0.002": 18.5175529128,
			"-0.001": 17.1641990304,
			"0.0": 16.5974660352,
			"0.001": 15.5957937186,
			"0.002": 31.9909155689,
			"0.003": 21.8664685695,
			"0.004": 3.17231431154,
			"0.005": 2.83339059777,
			"0.006": 2.91301841087,
			"0.007": 3.14580013737,
			"0.008": 3.42721662142,
			"0.009": 3.06481993988,
			"0.01": 2.83775789537,
			"0.011": 2.4514753449,
			"0.012": 1.86270432118,
			"0.013": 0.229009191789,
			"0.014": 0.0,
			"0.015": 0.0,
			"0.016": 0.0,
			"0.017": 0.0,
			"0.018": 0.0,
			"0.019": 0.0,
			"0.02": 0.0,
			"0.021": 0.0,
			"0.022": 0.0,
			"0.023": 0.0,
			"0.024": 0.0,
			"0.025": 0.0
		}
	}
}
