{
	 "smiles": "COC(=O)C1=CC=C(N)O1", 
	 "Tm": 406.15, 
	 "num_atms": 17, 
	 "gaussian": { 
		 "optdone": 1, 
		 "sigma_profile": "yes", 
		 "theory": "DFT", 
		 "functional": "B3LYP", 
		 "basiset": "6-31G**", 
		 "properties": { 
			 "R2extent": 2046.6345, 
			 "electric_dipole_moment_norm": 3.29295439841, 
			 "electric_quadrupole_moment_norm": 15.3626069285, 
			 "total_energy": -513.262861546, 
			 "HOMO_LUMO_gap": 0.17735, 
			 "cosmo_polarized_energy": -14.55, 
			 "cosmo_cavitation_energy": 22.21, 
			 "cosmo_dispersion_energy": -16.48, 
			 "cosmo_repulsion_energy": 1.37, 
			 "cosmo_total_nonelectrostatic_energy": 7.09, 
			 "SMD_solvation_energy": 6.2 
		},
		"coords": [
			{
				"x": 4.1245855241,
				"y": -1.5337714653,
				"z": 0.3970631429,
				"element": "C" 
			},
			{
				"x": 2.7180836835,
				"y": -1.2596648592,
				"z": 0.4035703117,
				"element": "O" 
			},
			{
				"x": 2.3896206965,
				"y": 0.0342127127,
				"z": 0.135049359,
				"element": "C" 
			},
			{
				"x": 3.2062072717,
				"y": 0.9063639892,
				"z": -0.0939721882,
				"element": "O" 
			},
			{
				"x": 0.9465375245,
				"y": 0.2075382254,
				"z": 0.1659699793,
				"element": "C" 
			},
			{
				"x": -0.1125152047,
				"y": -0.6280778106,
				"z": 0.4066474005,
				"element": "C" 
			},
			{
				"x": -1.2988067313,
				"y": 0.1466906377,
				"z": 0.2953788519,
				"element": "C" 
			},
			{
				"x": -0.8752534814,
				"y": 1.4224724328,
				"z": -0.0129040585,
				"element": "C" 
			},
			{
				"x": -1.5447522573,
				"y": 2.5891273198,
				"z": -0.3028483895,
				"element": "N" 
			},
			{
				"x": 0.4674557002,
				"y": 1.4824431765,
				"z": -0.0936055537,
				"element": "O" 
			},
			{
				"x": 4.5599475523,
				"y": -1.3133628352,
				"z": -0.5813911912,
				"element": "H" 
			},
			{
				"x": 4.2183954736,
				"y": -2.596013881,
				"z": 0.6246766235,
				"element": "H" 
			},
			{
				"x": 4.6419345205,
				"y": -0.9347869874,
				"z": 1.15148457,
				"element": "H" 
			},
			{
				"x": -0.036192055,
				"y": -1.6801289443,
				"z": 0.6389134362,
				"element": "H" 
			},
			{
				"x": -2.3200556514,
				"y": -0.1825420064,
				"z": 0.4154851038,
				"element": "H" 
			},
			{
				"x": -2.4660955741,
				"y": 2.6632161965,
				"z": 0.1039372285,
				"element": "H" 
			},
			{
				"x": -0.9888969917,
				"y": 3.4263840989,
				"z": -0.1870546261,
				"element": "H" 
			}
		],
		 "valence_orbital": [ 
			{
				"type": "occ",
				"energy": -0.32937,
				"method": "rhf"
			},
			{
				"type": "occ",
				"energy": -0.2885,
				"method": "rhf"
			},
			{
				"type": "occ",
				"energy": -0.28195,
				"method": "rhf"
			},
			{
				"type": "occ",
				"energy": -0.26129,
				"method": "rhf"
			},
			{
				"type": "occ",
				"energy": -0.20066,
				"method": "rhf"
			},
			{
				"type": "unocc",
				"energy": -0.02331,
				"method": "rhf"
			},
			{
				"type": "unocc",
				"energy": 0.05635,
				"method": "rhf"
			},
			{
				"type": "unocc",
				"energy": 0.07639,
				"method": "rhf"
			},
			{
				"type": "unocc",
				"energy": 0.10843,
				"method": "rhf"
			},
			{
				"type": "unocc",
				"energy": 0.12023,
				"method": "rhf"
			}
		],
		"cosmo_sigma_profile": { 
			"-0.025": 0.0,
			"-0.024": 0.0,
			"-0.023": 0.0,
			"-0.022": 0.0,
			"-0.021": 0.0,
			"-0.02": 0.0,
			"-0.019": 0.0,
			"-0.018": 0.0,
			"-0.017": 0.0,
			"-0.016": 0.0,
			"-0.015": 0.421760428773,
			"-0.014": 2.50289402899,
			"-0.013": 3.06784342341,
			"-0.012": 2.17435755879,
			"-0.011": 3.10344521976,
			"-0.01": 2.30535426442,
			"-0.009": 2.16628043738,
			"-0.008": 2.71392737395,
			"-0.007": 5.38854102111,
			"-0.006": 7.63581897932,
			"-0.005": 10.1685152922,
			"-0.004": 11.4348108338,
			"-0.003": 13.3381852284,
			"-0.002": 9.7546624382,
			"-0.001": 8.68978385951,
			"0.0": 7.84908709949,
			"0.001": 11.3087212637,
			"0.002": 11.8986506615,
			"0.003": 11.978797958,
			"0.004": 9.23999554092,
			"0.005": 6.79881061767,
			"0.006": 5.59731763403,
			"0.007": 4.97841589175,
			"0.008": 3.0571144495,
			"0.009": 3.23171607678,
			"0.01": 2.3267357696,
			"0.011": 3.39155463344,
			"0.012": 4.76650039722,
			"0.013": 4.71028270196,
			"0.014": 0.744365624317,
			"0.015": 0.0,
			"0.016": 0.0,
			"0.017": 0.0,
			"0.018": 0.0,
			"0.019": 0.0,
			"0.02": 0.0,
			"0.021": 0.0,
			"0.022": 0.0,
			"0.023": 0.0,
			"0.024": 0.0,
			"0.025": 0.0
		}
	}
}
