{
	 "smiles": "CN1C(=NC2=C1C=CC=C2)C(=NNC1=CC(C)=CC=C1C)C#N", 
	 "Tm": 533.15, 
	 "num_atms": 40, 
	 "gaussian": { 
		 "optdone": 1, 
		 "sigma_profile": "yes", 
		 "theory": "DFT", 
		 "functional": "B3LYP", 
		 "basiset": "6-31G**", 
		 "properties": { 
			 "R2extent": 10438.2901, 
			 "electric_dipole_moment_norm": 5.71176213265, 
			 "electric_quadrupole_moment_norm": 17.7876233466, 
			 "total_energy": -969.895732357, 
			 "HOMO_LUMO_gap": 0.12503, 
			 "cosmo_polarized_energy": -16.45, 
			 "cosmo_cavitation_energy": 44.99, 
			 "cosmo_dispersion_energy": -30.9, 
			 "cosmo_repulsion_energy": 2.3, 
			 "cosmo_total_nonelectrostatic_energy": 16.4, 
			 "SMD_solvation_energy": 6.42 
		},
		"coords": [
			{
				"x": -0.9986454117,
				"y": 0.5422775085,
				"z": -1.5508506266,
				"element": "C" 
			},
			{
				"x": -1.0463805718,
				"y": 1.8953801213,
				"z": -1.0167784058,
				"element": "N" 
			},
			{
				"x": -0.5350762916,
				"y": 2.3743181418,
				"z": 0.1799449557,
				"element": "C" 
			},
			{
				"x": -0.7525286195,
				"y": 3.6636285231,
				"z": 0.3665893795,
				"element": "N" 
			},
			{
				"x": -1.4397566888,
				"y": 4.0775550764,
				"z": -0.7522363036,
				"element": "C" 
			},
			{
				"x": -1.6366897359,
				"y": 2.9877419226,
				"z": -1.637022553,
				"element": "C" 
			},
			{
				"x": -2.308518614,
				"y": 3.1315977965,
				"z": -2.8545502371,
				"element": "C" 
			},
			{
				"x": -2.7821392689,
				"y": 4.4033326363,
				"z": -3.1651491779,
				"element": "C" 
			},
			{
				"x": -2.5941659394,
				"y": 5.4976762086,
				"z": -2.2942596728,
				"element": "C" 
			},
			{
				"x": -1.9257073219,
				"y": 5.3508224015,
				"z": -1.0857173484,
				"element": "C" 
			},
			{
				"x": 0.180060884,
				"y": 1.5863849072,
				"z": 1.1724651077,
				"element": "C" 
			},
			{
				"x": 0.4266712088,
				"y": 0.3092556646,
				"z": 1.0160532361,
				"element": "N" 
			},
			{
				"x": 1.0829880322,
				"y": -0.3491150134,
				"z": 1.9572252293,
				"element": "N" 
			},
			{
				"x": 1.379911064,
				"y": -1.7174682253,
				"z": 1.8490306872,
				"element": "C" 
			},
			{
				"x": 0.9818341032,
				"y": -2.4537009787,
				"z": 0.7264119998,
				"element": "C" 
			},
			{
				"x": 1.2761352763,
				"y": -3.8147297683,
				"z": 0.6213100612,
				"element": "C" 
			},
			{
				"x": 0.8725319815,
				"y": -4.5949330431,
				"z": -0.6079756071,
				"element": "C" 
			},
			{
				"x": 1.9742939277,
				"y": -4.4300560401,
				"z": 1.6680831392,
				"element": "C" 
			},
			{
				"x": 2.3679188223,
				"y": -3.6917969037,
				"z": 2.7827302618,
				"element": "C" 
			},
			{
				"x": 2.086962789,
				"y": -2.3288015111,
				"z": 2.9064603827,
				"element": "C" 
			},
			{
				"x": 2.5209686671,
				"y": -1.550716889,
				"z": 4.1264931121,
				"element": "C" 
			},
			{
				"x": 0.6233193906,
				"y": 2.2673868245,
				"z": 2.3612150734,
				"element": "C" 
			},
			{
				"x": 1.0595743974,
				"y": 2.6272065768,
				"z": 3.3794901085,
				"element": "N" 
			},
			{
				"x": -1.5339506838,
				"y": 0.5294718162,
				"z": -2.5007056894,
				"element": "H" 
			},
			{
				"x": 0.0328139883,
				"y": 0.2230124646,
				"z": -1.7184584701,
				"element": "H" 
			},
			{
				"x": -1.4726980334,
				"y": -0.1636466946,
				"z": -0.8655304553,
				"element": "H" 
			},
			{
				"x": -2.4604230636,
				"y": 2.3003755,
				"z": -3.5360441614,
				"element": "H" 
			},
			{
				"x": -3.3092917348,
				"y": 4.5560829347,
				"z": -4.1022262978,
				"element": "H" 
			},
			{
				"x": -2.9813576256,
				"y": 6.4712547973,
				"z": -2.5793874048,
				"element": "H" 
			},
			{
				"x": -1.7749225377,
				"y": 6.1847521725,
				"z": -0.4081657661,
				"element": "H" 
			},
			{
				"x": 1.3864961312,
				"y": 0.1515778061,
				"z": 2.7901639943,
				"element": "H" 
			},
			{
				"x": 0.4383104986,
				"y": -1.9490920447,
				"z": -0.06371936,
				"element": "H" 
			},
			{
				"x": 0.6352928975,
				"y": -5.6340051647,
				"z": -0.3603395249,
				"element": "H" 
			},
			{
				"x": 1.6825537518,
				"y": -4.6146135531,
				"z": -1.3478304404,
				"element": "H" 
			},
			{
				"x": -0.0027761121,
				"y": -4.154323981,
				"z": -1.0942793027,
				"element": "H" 
			},
			{
				"x": 2.2095105955,
				"y": -5.4893475568,
				"z": 1.6122554331,
				"element": "H" 
			},
			{
				"x": 2.9075127543,
				"y": -4.1845092288,
				"z": 3.5875198336,
				"element": "H" 
			},
			{
				"x": 3.0525043258,
				"y": -2.2004782752,
				"z": 4.8255262476,
				"element": "H" 
			},
			{
				"x": 1.6699994328,
				"y": -1.1189665328,
				"z": 4.6694985832,
				"element": "H" 
			},
			{
				"x": 3.1984633345,
				"y": -0.7245903971,
				"z": 3.8737599794,
				"element": "H" 
			}
		],
		 "valence_orbital": [ 
			{
				"type": "occ",
				"energy": -0.27497,
				"method": "rhf"
			},
			{
				"type": "occ",
				"energy": -0.24903,
				"method": "rhf"
			},
			{
				"type": "occ",
				"energy": -0.23925,
				"method": "rhf"
			},
			{
				"type": "occ",
				"energy": -0.2254,
				"method": "rhf"
			},
			{
				"type": "occ",
				"energy": -0.20221,
				"method": "rhf"
			},
			{
				"type": "unocc",
				"energy": -0.07718,
				"method": "rhf"
			},
			{
				"type": "unocc",
				"energy": -0.00799,
				"method": "rhf"
			},
			{
				"type": "unocc",
				"energy": -0.00577,
				"method": "rhf"
			},
			{
				"type": "unocc",
				"energy": 0.00944,
				"method": "rhf"
			},
			{
				"type": "unocc",
				"energy": 0.01878,
				"method": "rhf"
			}
		],
		"cosmo_sigma_profile": { 
			"-0.025": 0.0,
			"-0.024": 0.0,
			"-0.023": 0.0,
			"-0.022": 0.0,
			"-0.021": 0.0,
			"-0.02": 0.0,
			"-0.019": 0.0,
			"-0.018": 0.0,
			"-0.017": 0.0,
			"-0.016": 0.0,
			"-0.015": 0.0,
			"-0.014": 0.0,
			"-0.013": 0.0,
			"-0.012": 0.0,
			"-0.011": 0.311363675925,
			"-0.01": 0.616751186736,
			"-0.009": 1.9098772806,
			"-0.008": 4.68470185816,
			"-0.007": 6.83434499968,
			"-0.006": 12.3174664156,
			"-0.005": 25.1327105491,
			"-0.004": 36.0699140585,
			"-0.003": 37.9146108042,
			"-0.002": 30.9052756545,
			"-0.001": 30.0396968419,
			"0.0": 31.5829213322,
			"0.001": 23.1388656845,
			"0.002": 17.9102661448,
			"0.003": 18.3482432791,
			"0.004": 19.3018543889,
			"0.005": 21.3790338951,
			"0.006": 14.5884332544,
			"0.007": 5.52739684179,
			"0.008": 4.3385396942,
			"0.009": 4.49399428432,
			"0.01": 3.64126534384,
			"0.011": 3.70024467045,
			"0.012": 2.88706799117,
			"0.013": 0.870292662688,
			"0.014": 1.0319548894,
			"0.015": 1.01141102284,
			"0.016": 0.118746928231,
			"0.017": 0.0,
			"0.018": 0.0,
			"0.019": 0.0,
			"0.02": 0.0,
			"0.021": 0.0,
			"0.022": 0.0,
			"0.023": 0.0,
			"0.024": 0.0,
			"0.025": 0.0
		}
	}
}
