{
	 "smiles": "NNC(=O)N1CCOCC1", 
	 "Tm": 395.15, 
	 "num_atms": 21, 
	 "gaussian": { 
		 "optdone": 1, 
		 "sigma_profile": "yes", 
		 "theory": "DFT", 
		 "functional": "B3LYP", 
		 "basiset": "6-31G**", 
		 "properties": { 
			 "R2extent": 1673.0484, 
			 "electric_dipole_moment_norm": 2.64769924274, 
			 "electric_quadrupole_moment_norm": 10.0333407517, 
			 "total_energy": -511.819144587, 
			 "HOMO_LUMO_gap": 0.27159, 
			 "cosmo_polarized_energy": -15.35, 
			 "cosmo_cavitation_energy": 23.0, 
			 "cosmo_dispersion_energy": -17.34, 
			 "cosmo_repulsion_energy": 1.42, 
			 "cosmo_total_nonelectrostatic_energy": 7.09, 
			 "SMD_solvation_energy": 4.14 
		},
		"coords": [
			{
				"x": -1.3815958852,
				"y": 2.0417453028,
				"z": -2.1317621121,
				"element": "N" 
			},
			{
				"x": -0.6473497663,
				"y": 0.8301897244,
				"z": -2.2291742245,
				"element": "N" 
			},
			{
				"x": 0.2970624484,
				"y": 0.4459070763,
				"z": -1.2670818386,
				"element": "C" 
			},
			{
				"x": 1.3757582414,
				"y": -0.0351988626,
				"z": -1.5980758062,
				"element": "O" 
			},
			{
				"x": -0.0608639454,
				"y": 0.6386713343,
				"z": 0.0545150279,
				"element": "N" 
			},
			{
				"x": -1.4560259382,
				"y": 0.5722586396,
				"z": 0.5194039439,
				"element": "C" 
			},
			{
				"x": -1.529847293,
				"y": -0.2366241625,
				"z": 1.8143517443,
				"element": "C" 
			},
			{
				"x": -0.7320807837,
				"y": 0.3188373119,
				"z": 2.8483836047,
				"element": "O" 
			},
			{
				"x": 0.5359134455,
				"y": 0.8207711209,
				"z": 2.4132625857,
				"element": "C" 
			},
			{
				"x": 0.9593278503,
				"y": 0.2892035023,
				"z": 1.0501944126,
				"element": "C" 
			},
			{
				"x": -2.266993987,
				"y": 1.864865519,
				"z": -1.6679698751,
				"element": "H" 
			},
			{
				"x": -0.8676635779,
				"y": 2.724940748,
				"z": -1.5778448906,
				"element": "H" 
			},
			{
				"x": -0.2404797002,
				"y": 0.7234528419,
				"z": -3.1511261427,
				"element": "H" 
			},
			{
				"x": -2.0746676296,
				"y": 0.085756105,
				"z": -0.2420757439,
				"element": "H" 
			},
			{
				"x": -1.861813985,
				"y": 1.5767531846,
				"z": 0.7019837417,
				"element": "H" 
			},
			{
				"x": -1.2415680795,
				"y": -1.2797578812,
				"z": 1.6108244431,
				"element": "H" 
			},
			{
				"x": -2.5593717487,
				"y": -0.2440580101,
				"z": 2.1857702003,
				"element": "H" 
			},
			{
				"x": 1.2783455831,
				"y": 0.5364016081,
				"z": 3.1672650002,
				"element": "H" 
			},
			{
				"x": 0.4952034909,
				"y": 1.9198374937,
				"z": 2.3790106068,
				"element": "H" 
			},
			{
				"x": 1.122669742,
				"y": -0.7963839468,
				"z": 1.0891331935,
				"element": "H" 
			},
			{
				"x": 1.9090415183,
				"y": 0.7369313505,
				"z": 0.7489121289,
				"element": "H" 
			}
		],
		 "valence_orbital": [ 
			{
				"type": "occ",
				"energy": -0.29487,
				"method": "rhf"
			},
			{
				"type": "occ",
				"energy": -0.26519,
				"method": "rhf"
			},
			{
				"type": "occ",
				"energy": -0.25562,
				"method": "rhf"
			},
			{
				"type": "occ",
				"energy": -0.24904,
				"method": "rhf"
			},
			{
				"type": "occ",
				"energy": -0.23916,
				"method": "rhf"
			},
			{
				"type": "unocc",
				"energy": 0.03243,
				"method": "rhf"
			},
			{
				"type": "unocc",
				"energy": 0.06302,
				"method": "rhf"
			},
			{
				"type": "unocc",
				"energy": 0.09288,
				"method": "rhf"
			},
			{
				"type": "unocc",
				"energy": 0.09973,
				"method": "rhf"
			},
			{
				"type": "unocc",
				"energy": 0.1186,
				"method": "rhf"
			}
		],
		"cosmo_sigma_profile": { 
			"-0.025": 0.0,
			"-0.024": 0.0,
			"-0.023": 0.0,
			"-0.022": 0.0,
			"-0.021": 0.0,
			"-0.02": 0.0,
			"-0.019": 0.0,
			"-0.018": 0.0,
			"-0.017": 0.0,
			"-0.016": 0.0,
			"-0.015": 0.0,
			"-0.014": 0.0,
			"-0.013": 0.114174506296,
			"-0.012": 0.717318127058,
			"-0.011": 2.5767740561,
			"-0.01": 3.78147416766,
			"-0.009": 4.38764087486,
			"-0.008": 4.30697454579,
			"-0.007": 3.26806040492,
			"-0.006": 7.90798942463,
			"-0.005": 19.8505888974,
			"-0.004": 24.3229169894,
			"-0.003": 16.0813836276,
			"-0.002": 11.998729047,
			"-0.001": 8.07394078782,
			"0.0": 6.71564190315,
			"0.001": 6.11901166937,
			"0.002": 4.97411688766,
			"0.003": 5.09470625242,
			"0.004": 4.71653580089,
			"0.005": 4.44425028413,
			"0.006": 3.99843563518,
			"0.007": 3.1445158045,
			"0.008": 3.44963257438,
			"0.009": 4.25488272749,
			"0.01": 2.79362849904,
			"0.011": 3.26949514912,
			"0.012": 3.55246369651,
			"0.013": 4.56302297,
			"0.014": 7.16906092082,
			"0.015": 2.32100833043,
			"0.016": 0.484246662495,
			"0.017": 0.141645105873,
			"0.018": 0.0,
			"0.019": 0.0,
			"0.02": 0.0,
			"0.021": 0.0,
			"0.022": 0.0,
			"0.023": 0.0,
			"0.024": 0.0,
			"0.025": 0.0
		}
	}
}
