{
	 "smiles": "CC(C)COC(C)C(N)=NO", 
	 "Tm": 337.15, 
	 "num_atms": 27, 
	 "gaussian": { 
		 "optdone": 1, 
		 "sigma_profile": "yes", 
		 "theory": "DFT", 
		 "functional": "B3LYP", 
		 "basiset": "6-31G**", 
		 "properties": { 
			 "R2extent": 2450.5223, 
			 "electric_dipole_moment_norm": 2.64694956695, 
			 "electric_quadrupole_moment_norm": 2.86075727562, 
			 "total_energy": -536.28496179, 
			 "HOMO_LUMO_gap": 0.24367, 
			 "cosmo_polarized_energy": -13.06, 
			 "cosmo_cavitation_energy": 28.88, 
			 "cosmo_dispersion_energy": -20.27, 
			 "cosmo_repulsion_energy": 1.7, 
			 "cosmo_total_nonelectrostatic_energy": 10.31, 
			 "SMD_solvation_energy": 5.14 
		},
		"coords": [
			{
				"x": -0.3098132235,
				"y": -3.3878461203,
				"z": 0.6102425661,
				"element": "C" 
			},
			{
				"x": -0.9254927731,
				"y": -2.1821805496,
				"z": 1.3351609965,
				"element": "C" 
			},
			{
				"x": -2.390068115,
				"y": -1.963839901,
				"z": 0.9279348662,
				"element": "C" 
			},
			{
				"x": -0.0924312862,
				"y": -0.9126941679,
				"z": 1.1216063226,
				"element": "C" 
			},
			{
				"x": -0.0890125332,
				"y": -0.6115652688,
				"z": -0.2709926801,
				"element": "O" 
			},
			{
				"x": 0.6173898657,
				"y": 0.5433393492,
				"z": -0.722358724,
				"element": "C" 
			},
			{
				"x": 2.1236858687,
				"y": 0.4722034041,
				"z": -0.4374850221,
				"element": "C" 
			},
			{
				"x": -0.0143482566,
				"y": 1.8509645161,
				"z": -0.2677227393,
				"element": "C" 
			},
			{
				"x": 0.1542335117,
				"y": 2.2933045132,
				"z": 1.0278079221,
				"element": "N" 
			},
			{
				"x": -0.7345164736,
				"y": 2.4564281349,
				"z": -1.1507234364,
				"element": "N" 
			},
			{
				"x": -1.262886299,
				"y": 3.6593794294,
				"z": -0.5913544018,
				"element": "O" 
			},
			{
				"x": 0.7184666915,
				"y": -3.5705751636,
				"z": 0.9433134741,
				"element": "H" 
			},
			{
				"x": -0.8895432025,
				"y": -4.2973646406,
				"z": 0.7999155378,
				"element": "H" 
			},
			{
				"x": -0.2871821275,
				"y": -3.2159334823,
				"z": -0.4697003052,
				"element": "H" 
			},
			{
				"x": -0.8934153225,
				"y": -2.3776775795,
				"z": 2.417432109,
				"element": "H" 
			},
			{
				"x": -2.9868675678,
				"y": -2.8627664907,
				"z": 1.1157031117,
				"element": "H" 
			},
			{
				"x": -2.4602270613,
				"y": -1.7205070281,
				"z": -0.1359325946,
				"element": "H" 
			},
			{
				"x": -2.839438334,
				"y": -1.1376362351,
				"z": 1.4900146526,
				"element": "H" 
			},
			{
				"x": -0.522216501,
				"y": -0.08041139,
				"z": 1.6952934389,
				"element": "H" 
			},
			{
				"x": 0.9330188141,
				"y": -1.0839788864,
				"z": 1.4872221229,
				"element": "H" 
			},
			{
				"x": 0.4695968617,
				"y": 0.5274097091,
				"z": -1.8051291414,
				"element": "H" 
			},
			{
				"x": 2.5205201237,
				"y": -0.4730526448,
				"z": -0.8177502315,
				"element": "H" 
			},
			{
				"x": 2.6416279145,
				"y": 1.2946221694,
				"z": -0.9404468697,
				"element": "H" 
			},
			{
				"x": 2.3653613455,
				"y": 0.5246270869,
				"z": 0.6293879302,
				"element": "H" 
			},
			{
				"x": -0.1347680605,
				"y": 3.2515279025,
				"z": 1.1747887615,
				"element": "H" 
			},
			{
				"x": 1.0072252916,
				"y": 2.0277462166,
				"z": 1.4954124203,
				"element": "H" 
			},
			{
				"x": -1.7354991512,
				"y": 4.0354771172,
				"z": -1.3433400861,
				"element": "H" 
			}
		],
		 "valence_orbital": [ 
			{
				"type": "occ",
				"energy": -0.31101,
				"method": "rhf"
			},
			{
				"type": "occ",
				"energy": -0.29569,
				"method": "rhf"
			},
			{
				"type": "occ",
				"energy": -0.27212,
				"method": "rhf"
			},
			{
				"type": "occ",
				"energy": -0.25115,
				"method": "rhf"
			},
			{
				"type": "occ",
				"energy": -0.21195,
				"method": "rhf"
			},
			{
				"type": "unocc",
				"energy": 0.03172,
				"method": "rhf"
			},
			{
				"type": "unocc",
				"energy": 0.06224,
				"method": "rhf"
			},
			{
				"type": "unocc",
				"energy": 0.08868,
				"method": "rhf"
			},
			{
				"type": "unocc",
				"energy": 0.09869,
				"method": "rhf"
			},
			{
				"type": "unocc",
				"energy": 0.11927,
				"method": "rhf"
			}
		],
		"cosmo_sigma_profile": { 
			"-0.025": 0.0,
			"-0.024": 0.0,
			"-0.023": 0.0,
			"-0.022": 0.0,
			"-0.021": 0.0,
			"-0.02": 0.0,
			"-0.019": 0.0,
			"-0.018": 0.0,
			"-0.017": 0.258357596702,
			"-0.016": 0.960714766039,
			"-0.015": 0.836104294369,
			"-0.014": 0.806362964977,
			"-0.013": 2.03496773916,
			"-0.012": 1.75942335593,
			"-0.011": 2.45231108476,
			"-0.01": 3.39104207259,
			"-0.009": 2.73708423911,
			"-0.008": 2.43859644615,
			"-0.007": 3.05308875952,
			"-0.006": 3.64365348151,
			"-0.005": 4.64689383266,
			"-0.004": 10.0173191355,
			"-0.003": 16.4771232752,
			"-0.002": 30.9559269155,
			"-0.001": 25.3297939207,
			"0.0": 22.2416365443,
			"0.001": 19.1423888468,
			"0.002": 15.5390186675,
			"0.003": 6.47290770647,
			"0.004": 6.02021963486,
			"0.005": 5.15906967322,
			"0.006": 4.77363513218,
			"0.007": 7.43235111024,
			"0.008": 6.96789994149,
			"0.009": 6.74300781566,
			"0.01": 4.78563789179,
			"0.011": 2.0454099443,
			"0.012": 1.27393722183,
			"0.013": 1.12688107129,
			"0.014": 1.11006456606,
			"0.015": 0.569745503989,
			"0.016": 0.0181964994918,
			"0.017": 0.0,
			"0.018": 0.0,
			"0.019": 0.0,
			"0.02": 0.0,
			"0.021": 0.0,
			"0.022": 0.0,
			"0.023": 0.0,
			"0.024": 0.0,
			"0.025": 0.0
		}
	}
}
