{
	 "smiles": "ClC1=CC2=CC=CN=C2C=C1", 
	 "Tm": 316.95, 
	 "num_atms": 17, 
	 "gaussian": { 
		 "optdone": 1, 
		 "sigma_profile": "yes", 
		 "theory": "DFT", 
		 "functional": "B3LYP", 
		 "basiset": "6-31G**", 
		 "properties": { 
			 "R2extent": 4762.4741, 
			 "electric_dipole_moment_norm": 1.92495615794, 
			 "electric_quadrupole_moment_norm": 6.08779498259, 
			 "total_energy": -861.52343027, 
			 "HOMO_LUMO_gap": 0.17682, 
			 "cosmo_polarized_energy": -6.65, 
			 "cosmo_cavitation_energy": 22.96, 
			 "cosmo_dispersion_energy": -17.47, 
			 "cosmo_repulsion_energy": 1.38, 
			 "cosmo_total_nonelectrostatic_energy": 6.87, 
			 "SMD_solvation_energy": 2.03 
		},
		"coords": [
			{
				"x": 3.376824374,
				"y": 5.0931048622,
				"z": -0.8676952643,
				"element": "Cl" 
			},
			{
				"x": 2.3156587315,
				"y": 3.7252947873,
				"z": -1.1701827085,
				"element": "C" 
			},
			{
				"x": 2.5827982651,
				"y": 2.5105856367,
				"z": -0.5841101659,
				"element": "C" 
			},
			{
				"x": 1.7208479961,
				"y": 1.4110117759,
				"z": -0.833545833,
				"element": "C" 
			},
			{
				"x": 1.9255465598,
				"y": 0.1255008551,
				"z": -0.2684567077,
				"element": "C" 
			},
			{
				"x": 1.0411249706,
				"y": -0.8844852216,
				"z": -0.5630396677,
				"element": "C" 
			},
			{
				"x": -0.0508707993,
				"y": -0.6076231085,
				"z": -1.4251849189,
				"element": "C" 
			},
			{
				"x": -0.2820683753,
				"y": 0.5685454608,
				"z": -1.9732692722,
				"element": "N" 
			},
			{
				"x": 0.5869058866,
				"y": 1.5816189635,
				"z": -1.6906232045,
				"element": "C" 
			},
			{
				"x": 0.3537931179,
				"y": 2.8566063142,
				"z": -2.2723939883,
				"element": "C" 
			},
			{
				"x": 1.1983959691,
				"y": 3.9125088948,
				"z": -2.0209374939,
				"element": "C" 
			},
			{
				"x": 3.4438672885,
				"y": 2.3871272556,
				"z": 0.0647162234,
				"element": "H" 
			},
			{
				"x": 2.775849304,
				"y": -0.0428449857,
				"z": 0.3874322792,
				"element": "H" 
			},
			{
				"x": 1.1639609832,
				"y": -1.8807858933,
				"z": -0.1503583438,
				"element": "H" 
			},
			{
				"x": -0.7581087757,
				"y": -1.4007370564,
				"z": -1.6654675721,
				"element": "H" 
			},
			{
				"x": -0.510510327,
				"y": 2.9660823329,
				"z": -2.9189455425,
				"element": "H" 
			},
			{
				"x": 1.0238848308,
				"y": 4.8870891263,
				"z": -2.4630378193,
				"element": "H" 
			}
		],
		 "valence_orbital": [ 
			{
				"type": "occ",
				"energy": -0.31678,
				"method": "rhf"
			},
			{
				"type": "occ",
				"energy": -0.31498,
				"method": "rhf"
			},
			{
				"type": "occ",
				"energy": -0.26144,
				"method": "rhf"
			},
			{
				"type": "occ",
				"energy": -0.25586,
				"method": "rhf"
			},
			{
				"type": "occ",
				"energy": -0.23893,
				"method": "rhf"
			},
			{
				"type": "unocc",
				"energy": -0.06211,
				"method": "rhf"
			},
			{
				"type": "unocc",
				"energy": -0.0262,
				"method": "rhf"
			},
			{
				"type": "unocc",
				"energy": 0.00932,
				"method": "rhf"
			},
			{
				"type": "unocc",
				"energy": 0.02607,
				"method": "rhf"
			},
			{
				"type": "unocc",
				"energy": 0.07836,
				"method": "rhf"
			}
		],
		"cosmo_sigma_profile": { 
			"-0.025": 0.0,
			"-0.024": 0.0,
			"-0.023": 0.0,
			"-0.022": 0.0,
			"-0.021": 0.0,
			"-0.02": 0.0,
			"-0.019": 0.0,
			"-0.018": 0.0,
			"-0.017": 0.0,
			"-0.016": 0.0,
			"-0.015": 0.0,
			"-0.014": 0.0,
			"-0.013": 0.0,
			"-0.012": 0.0,
			"-0.011": 0.0,
			"-0.01": 0.0,
			"-0.009": 0.0167230889034,
			"-0.008": 3.8376644411,
			"-0.007": 9.70795756308,
			"-0.006": 11.6682742781,
			"-0.005": 11.526018233,
			"-0.004": 9.10992303938,
			"-0.003": 9.49708779718,
			"-0.002": 9.00515181293,
			"-0.001": 9.78469474512,
			"0.0": 14.1302348851,
			"0.001": 27.7319538326,
			"0.002": 27.9480085414,
			"0.003": 14.4024047546,
			"0.004": 11.6461472143,
			"0.005": 6.97213535694,
			"0.006": 1.15728758853,
			"0.007": 1.28740446026,
			"0.008": 1.83353744528,
			"0.009": 1.09240257812,
			"0.01": 0.453333501281,
			"0.011": 1.07615743201,
			"0.012": 1.0077206963,
			"0.013": 0.422179910977,
			"0.014": 1.15622012469,
			"0.015": 0.623295649855,
			"0.016": 0.566914741963,
			"0.017": 0.0,
			"0.018": 0.0,
			"0.019": 0.0,
			"0.02": 0.0,
			"0.021": 0.0,
			"0.022": 0.0,
			"0.023": 0.0,
			"0.024": 0.0,
			"0.025": 0.0
		}
	}
}
