{
	 "smiles": "COC1=C(OCC(=O)C2=CC=CC=C2)C=CC(C=O)=C1", 
	 "Tm": 401.15, 
	 "num_atms": 34, 
	 "gaussian": { 
		 "optdone": 1, 
		 "sigma_profile": "yes", 
		 "theory": "DFT", 
		 "functional": "B3LYP", 
		 "basiset": "6-31G**", 
		 "properties": { 
			 "R2extent": 7822.658, 
			 "electric_dipole_moment_norm": 5.06802780182, 
			 "electric_quadrupole_moment_norm": 25.8494051436, 
			 "total_energy": -918.989805196, 
			 "HOMO_LUMO_gap": 0.17236, 
			 "cosmo_polarized_energy": -14.84, 
			 "cosmo_cavitation_energy": 39.49, 
			 "cosmo_dispersion_energy": -27.13, 
			 "cosmo_repulsion_energy": 2.08, 
			 "cosmo_total_nonelectrostatic_energy": 14.44, 
			 "SMD_solvation_energy": 9.02 
		},
		"coords": [
			{
				"x": 1.4480933926,
				"y": 3.5605321066,
				"z": -0.539940069,
				"element": "C" 
			},
			{
				"x": 2.3765161356,
				"y": 2.4716804383,
				"z": -0.5048734045,
				"element": "O" 
			},
			{
				"x": 2.2260466427,
				"y": 1.6411497389,
				"z": 0.5850910714,
				"element": "C" 
			},
			{
				"x": 1.2280449853,
				"y": 0.6457612275,
				"z": 0.601066012,
				"element": "C" 
			},
			{
				"x": 0.3448197514,
				"y": 0.4707132521,
				"z": -0.4292399156,
				"element": "O" 
			},
			{
				"x": 0.8715745614,
				"y": 0.3376753086,
				"z": -1.7636830271,
				"element": "C" 
			},
			{
				"x": 0.1440273178,
				"y": -0.788163539,
				"z": -2.5101683232,
				"element": "C" 
			},
			{
				"x": 0.8246658093,
				"y": -1.6050904308,
				"z": -3.1122629239,
				"element": "O" 
			},
			{
				"x": -1.3476870019,
				"y": -0.8365483709,
				"z": -2.5472473768,
				"element": "C" 
			},
			{
				"x": -2.1631077899,
				"y": 0.1556343084,
				"z": -1.9794761943,
				"element": "C" 
			},
			{
				"x": -3.5507790209,
				"y": 0.0670107673,
				"z": -2.0863164615,
				"element": "C" 
			},
			{
				"x": -4.1355938286,
				"y": -1.0115300278,
				"z": -2.7526729448,
				"element": "C" 
			},
			{
				"x": -3.3301698461,
				"y": -2.0056197315,
				"z": -3.3178260571,
				"element": "C" 
			},
			{
				"x": -1.94595904,
				"y": -1.9168270156,
				"z": -3.2181419631,
				"element": "C" 
			},
			{
				"x": 1.0806743099,
				"y": -0.1765507041,
				"z": 1.727008702,
				"element": "C" 
			},
			{
				"x": 1.9265978945,
				"y": -0.0315024706,
				"z": 2.8172759575,
				"element": "C" 
			},
			{
				"x": 2.9453033951,
				"y": 0.9341817606,
				"z": 2.7927908326,
				"element": "C" 
			},
			{
				"x": 3.8638912266,
				"y": 1.0847761997,
				"z": 3.9403738395,
				"element": "C" 
			},
			{
				"x": 3.8121617521,
				"y": 0.4222724936,
				"z": 4.9598911932,
				"element": "O" 
			},
			{
				"x": 3.0833920131,
				"y": 1.7664121244,
				"z": 1.6747725769,
				"element": "C" 
			},
			{
				"x": 1.6795940608,
				"y": 4.1355392809,
				"z": -1.4385863329,
				"element": "H" 
			},
			{
				"x": 0.4125489196,
				"y": 3.2024921803,
				"z": -0.5893714079,
				"element": "H" 
			},
			{
				"x": 1.5621641628,
				"y": 4.2022255759,
				"z": 0.3424131541,
				"element": "H" 
			},
			{
				"x": 0.7525251662,
				"y": 1.2825870833,
				"z": -2.3085499692,
				"element": "H" 
			},
			{
				"x": 1.9309641482,
				"y": 0.0787673639,
				"z": -1.7446414341,
				"element": "H" 
			},
			{
				"x": -1.7183716716,
				"y": 0.9852716184,
				"z": -1.4426161257,
				"element": "H" 
			},
			{
				"x": -4.176053997,
				"y": 0.8381500031,
				"z": -1.6460519241,
				"element": "H" 
			},
			{
				"x": -5.2170502489,
				"y": -1.0787057317,
				"z": -2.8313629631,
				"element": "H" 
			},
			{
				"x": -3.7845387081,
				"y": -2.8449277508,
				"z": -3.836119657,
				"element": "H" 
			},
			{
				"x": -1.2991368075,
				"y": -2.6700995374,
				"z": -3.6552830313,
				"element": "H" 
			},
			{
				"x": 0.2977956311,
				"y": -0.9277010291,
				"z": 1.7095115131,
				"element": "H" 
			},
			{
				"x": 1.831981075,
				"y": -0.6652430552,
				"z": 3.6928565751,
				"element": "H" 
			},
			{
				"x": 4.6383461907,
				"y": 1.8741257135,
				"z": 3.8114063843,
				"element": "H" 
			},
			{
				"x": 3.8580194186,
				"y": 2.5283508492,
				"z": 1.6396736943,
				"element": "H" 
			}
		],
		 "valence_orbital": [ 
			{
				"type": "occ",
				"energy": -0.26482,
				"method": "rhf"
			},
			{
				"type": "occ",
				"energy": -0.26275,
				"method": "rhf"
			},
			{
				"type": "occ",
				"energy": -0.25851,
				"method": "rhf"
			},
			{
				"type": "occ",
				"energy": -0.25349,
				"method": "rhf"
			},
			{
				"type": "occ",
				"energy": -0.24012,
				"method": "rhf"
			},
			{
				"type": "unocc",
				"energy": -0.06776,
				"method": "rhf"
			},
			{
				"type": "unocc",
				"energy": -0.05936,
				"method": "rhf"
			},
			{
				"type": "unocc",
				"energy": -0.01703,
				"method": "rhf"
			},
			{
				"type": "unocc",
				"energy": -0.01259,
				"method": "rhf"
			},
			{
				"type": "unocc",
				"energy": 0.02489,
				"method": "rhf"
			}
		],
		"cosmo_sigma_profile": { 
			"-0.025": 0.0,
			"-0.024": 0.0,
			"-0.023": 0.0,
			"-0.022": 0.0,
			"-0.021": 0.0,
			"-0.02": 0.0,
			"-0.019": 0.0,
			"-0.018": 0.0,
			"-0.017": 0.0,
			"-0.016": 0.0,
			"-0.015": 0.0,
			"-0.014": 0.0,
			"-0.013": 0.0,
			"-0.012": 0.0,
			"-0.011": 0.0,
			"-0.01": 0.0,
			"-0.009": 0.0112196999578,
			"-0.008": 2.53677780941,
			"-0.007": 9.88002516028,
			"-0.006": 20.9836206086,
			"-0.005": 27.9280327277,
			"-0.004": 28.5625007358,
			"-0.003": 29.5614179442,
			"-0.002": 21.1066284933,
			"-0.001": 20.0948629888,
			"0.0": 19.9019716551,
			"0.001": 23.3651751602,
			"0.002": 25.2786980188,
			"0.003": 21.8077260133,
			"0.004": 18.670597308,
			"0.005": 6.49167876737,
			"0.006": 5.20593397941,
			"0.007": 4.0511721631,
			"0.008": 4.48926033036,
			"0.009": 4.09738930415,
			"0.01": 6.1524379783,
			"0.011": 8.85020502426,
			"0.012": 5.71154196994,
			"0.013": 1.20013273088,
			"0.014": 0.0228417008317,
			"0.015": 0.0,
			"0.016": 0.0,
			"0.017": 0.0,
			"0.018": 0.0,
			"0.019": 0.0,
			"0.02": 0.0,
			"0.021": 0.0,
			"0.022": 0.0,
			"0.023": 0.0,
			"0.024": 0.0,
			"0.025": 0.0
		}
	}
}
