{
	 "smiles": "ClC1=CN=CC(Cl)=C1N1CCNCC1", 
	 "Tm": 351.65, 
	 "num_atms": 25, 
	 "gaussian": { 
		 "optdone": 1, 
		 "sigma_profile": "yes", 
		 "theory": "DFT", 
		 "functional": "B3LYP", 
		 "basiset": "6-31G**", 
		 "properties": { 
			 "R2extent": 3649.8779, 
			 "electric_dipole_moment_norm": 2.06097369707, 
			 "electric_quadrupole_moment_norm": 9.44655592425, 
			 "total_energy": -1434.18472055, 
			 "HOMO_LUMO_gap": 0.17679, 
			 "cosmo_polarized_energy": -7.82, 
			 "cosmo_cavitation_energy": 30.08, 
			 "cosmo_dispersion_energy": -22.09, 
			 "cosmo_repulsion_energy": 1.71, 
			 "cosmo_total_nonelectrostatic_energy": 9.7, 
			 "SMD_solvation_energy": 0.4 
		},
		"coords": [
			{
				"x": 0.2370335726,
				"y": -0.1098166653,
				"z": -2.4752594719,
				"element": "Cl" 
			},
			{
				"x": -1.2092057974,
				"y": -0.2534119979,
				"z": -1.4943958787,
				"element": "C" 
			},
			{
				"x": -2.42992376,
				"y": -0.3975784965,
				"z": -2.151563616,
				"element": "C" 
			},
			{
				"x": -3.5836699814,
				"y": -0.5981217081,
				"z": -1.5107521133,
				"element": "N" 
			},
			{
				"x": -3.5458032707,
				"y": -0.6430572946,
				"z": -0.177403324,
				"element": "C" 
			},
			{
				"x": -2.372906085,
				"y": -0.4749051877,
				"z": 0.557139231,
				"element": "C" 
			},
			{
				"x": -2.5030289842,
				"y": -0.4480420393,
				"z": 2.3071028778,
				"element": "Cl" 
			},
			{
				"x": -1.1239417112,
				"y": -0.2780121658,
				"z": -0.0807138031,
				"element": "C" 
			},
			{
				"x": 0.0757521362,
				"y": -0.119140643,
				"z": 0.6030449993,
				"element": "N" 
			},
			{
				"x": 0.8212651901,
				"y": 1.1431405287,
				"z": 0.5306531753,
				"element": "C" 
			},
			{
				"x": 2.2674221677,
				"y": 0.8904135786,
				"z": 0.9714769121,
				"element": "C" 
			},
			{
				"x": 2.3898800554,
				"y": 0.3290559762,
				"z": 2.3237695834,
				"element": "N" 
			},
			{
				"x": 1.25334219,
				"y": -0.5149440349,
				"z": 2.7341456322,
				"element": "C" 
			},
			{
				"x": 0.5856322788,
				"y": -1.149180373,
				"z": 1.5154453218,
				"element": "C" 
			},
			{
				"x": -2.4610514389,
				"y": -0.3714839124,
				"z": -3.2377894608,
				"element": "H" 
			},
			{
				"x": -4.4877074358,
				"y": -0.7962441682,
				"z": 0.3431497547,
				"element": "H" 
			},
			{
				"x": 0.359167656,
				"y": 1.9044601731,
				"z": 1.1809486724,
				"element": "H" 
			},
			{
				"x": 0.8077218241,
				"y": 1.5340516041,
				"z": -0.4913335118,
				"element": "H" 
			},
			{
				"x": 2.8327082619,
				"y": 1.8262959235,
				"z": 0.9262847771,
				"element": "H" 
			},
			{
				"x": 2.731654042,
				"y": 0.2078680067,
				"z": 0.2474960153,
				"element": "H" 
			},
			{
				"x": 2.5096444197,
				"y": 1.0789211664,
				"z": 2.9958582545,
				"element": "H" 
			},
			{
				"x": 0.484392538,
				"y": 0.0487256247,
				"z": 3.2850364338,
				"element": "H" 
			},
			{
				"x": 1.6096802459,
				"y": -1.3125943312,
				"z": 3.3990839456,
				"element": "H" 
			},
			{
				"x": -0.2348715138,
				"y": -1.7900076555,
				"z": 1.843904069,
				"element": "H" 
			},
			{
				"x": 1.3109134,
				"y": -1.7930919085,
				"z": 0.9944715243,
				"element": "H" 
			}
		],
		 "valence_orbital": [ 
			{
				"type": "occ",
				"energy": -0.28763,
				"method": "rhf"
			},
			{
				"type": "occ",
				"energy": -0.27133,
				"method": "rhf"
			},
			{
				"type": "occ",
				"energy": -0.25771,
				"method": "rhf"
			},
			{
				"type": "occ",
				"energy": -0.22094,
				"method": "rhf"
			},
			{
				"type": "occ",
				"energy": -0.2174,
				"method": "rhf"
			},
			{
				"type": "unocc",
				"energy": -0.04061,
				"method": "rhf"
			},
			{
				"type": "unocc",
				"energy": -0.03004,
				"method": "rhf"
			},
			{
				"type": "unocc",
				"energy": 0.00466,
				"method": "rhf"
			},
			{
				"type": "unocc",
				"energy": 0.04585,
				"method": "rhf"
			},
			{
				"type": "unocc",
				"energy": 0.07187,
				"method": "rhf"
			}
		],
		"cosmo_sigma_profile": { 
			"-0.025": 0.0,
			"-0.024": 0.0,
			"-0.023": 0.0,
			"-0.022": 0.0,
			"-0.021": 0.0,
			"-0.02": 0.0,
			"-0.019": 0.0,
			"-0.018": 0.0,
			"-0.017": 0.0,
			"-0.016": 0.0,
			"-0.015": 0.0,
			"-0.014": 0.0,
			"-0.013": 0.0,
			"-0.012": 0.0,
			"-0.011": 0.0166693076231,
			"-0.01": 1.18152401273,
			"-0.009": 1.35565401348,
			"-0.008": 3.33663982748,
			"-0.007": 4.69284426327,
			"-0.006": 4.13386683627,
			"-0.005": 8.19104352921,
			"-0.004": 12.574462451,
			"-0.003": 28.2636574653,
			"-0.002": 29.8007685609,
			"-0.001": 31.2519358743,
			"0.0": 28.8983266045,
			"0.001": 20.2306099579,
			"0.002": 15.0958423254,
			"0.003": 15.4284683767,
			"0.004": 15.699069535,
			"0.005": 3.7006954507,
			"0.006": 1.97008414625,
			"0.007": 2.20012958886,
			"0.008": 1.98473490468,
			"0.009": 2.01338747346,
			"0.01": 0.887653795897,
			"0.011": 1.62700886131,
			"0.012": 1.86176157802,
			"0.013": 1.69615469097,
			"0.014": 1.15851938958,
			"0.015": 1.26093073164,
			"0.016": 0.400967603702,
			"0.017": 0.682404991363,
			"0.018": 0.503708712027,
			"0.019": 0.0620731484868,
			"0.02": 0.0,
			"0.021": 0.0,
			"0.022": 0.0,
			"0.023": 0.0,
			"0.024": 0.0,
			"0.025": 0.0
		}
	}
}
