{
	 "smiles": "FC1=C(C=CC=C1)N1C=C(C=N1)S(Cl)(=O)=O", 
	 "Tm": 355.15, 
	 "num_atms": 22, 
	 "gaussian": { 
		 "optdone": 1, 
		 "sigma_profile": "yes", 
		 "theory": "DFT", 
		 "functional": "B3LYP", 
		 "basiset": "6-31G**", 
		 "properties": { 
			 "R2extent": 5526.2118, 
			 "electric_dipole_moment_norm": 6.94074970951, 
			 "electric_quadrupole_moment_norm": 7.38378933475, 
			 "total_energy": -1564.63837147, 
			 "HOMO_LUMO_gap": 0.17556, 
			 "cosmo_polarized_energy": -10.7, 
			 "cosmo_cavitation_energy": 31.23, 
			 "cosmo_dispersion_energy": -23.25, 
			 "cosmo_repulsion_energy": 1.73, 
			 "cosmo_total_nonelectrostatic_energy": 9.72, 
			 "SMD_solvation_energy": 4.13 
		},
		"coords": [
			{
				"x": -1.1818906411,
				"y": -0.9992466773,
				"z": 1.6686659854,
				"element": "F" 
			},
			{
				"x": -0.8352147947,
				"y": 0.195006627,
				"z": 2.2014606889,
				"element": "C" 
			},
			{
				"x": -0.0554574144,
				"y": 1.0883636961,
				"z": 1.4587549531,
				"element": "C" 
			},
			{
				"x": 0.2973209227,
				"y": 2.3105906984,
				"z": 2.0431875768,
				"element": "C" 
			},
			{
				"x": -0.1261107716,
				"y": 2.6199048218,
				"z": 3.3330100739,
				"element": "C" 
			},
			{
				"x": -0.9112463293,
				"y": 1.7184761059,
				"z": 4.0552601041,
				"element": "C" 
			},
			{
				"x": -1.2686857645,
				"y": 0.4979634741,
				"z": 3.4842763413,
				"element": "C" 
			},
			{
				"x": 0.3948743796,
				"y": 0.7795391468,
				"z": 0.1447783264,
				"element": "N" 
			},
			{
				"x": -0.1052225881,
				"y": -0.1187025769,
				"z": -0.7415277518,
				"element": "C" 
			},
			{
				"x": 0.6612296235,
				"y": 0.0177631365,
				"z": -1.8850559648,
				"element": "C" 
			},
			{
				"x": 1.6127628651,
				"y": 1.0264276399,
				"z": -1.5993399508,
				"element": "C" 
			},
			{
				"x": 1.4455390374,
				"y": 1.4880388527,
				"z": -0.3729409133,
				"element": "N" 
			},
			{
				"x": 0.454628117,
				"y": -0.8801809532,
				"z": -3.3666830347,
				"element": "S" 
			},
			{
				"x": 1.7972292654,
				"y": -2.517239344,
				"z": -3.0904104387,
				"element": "Cl" 
			},
			{
				"x": 1.0000080903,
				"y": -0.101902555,
				"z": -4.4704470105,
				"element": "O" 
			},
			{
				"x": -0.8823543326,
				"y": -1.4593370393,
				"z": -3.3905008315,
				"element": "O" 
			},
			{
				"x": 0.9089066885,
				"y": 2.9954992606,
				"z": 1.469635664,
				"element": "H" 
			},
			{
				"x": 0.1560162047,
				"y": 3.5715676715,
				"z": 3.7710337651,
				"element": "H" 
			},
			{
				"x": -1.2457628718,
				"y": 1.9607567021,
				"z": 5.0586561884,
				"element": "H" 
			},
			{
				"x": -1.8716544198,
				"y": -0.232161263,
				"z": 4.0127125698,
				"element": "H" 
			},
			{
				"x": -0.9407584129,
				"y": -0.7608724112,
				"z": -0.5235243088,
				"element": "H" 
			},
			{
				"x": 2.3886431467,
				"y": 1.4188449865,
				"z": -2.2409020323,
				"element": "H" 
			}
		],
		 "valence_orbital": [ 
			{
				"type": "occ",
				"energy": -0.31912,
				"method": "rhf"
			},
			{
				"type": "occ",
				"energy": -0.31086,
				"method": "rhf"
			},
			{
				"type": "occ",
				"energy": -0.29345,
				"method": "rhf"
			},
			{
				"type": "occ",
				"energy": -0.27856,
				"method": "rhf"
			},
			{
				"type": "occ",
				"energy": -0.26076,
				"method": "rhf"
			},
			{
				"type": "unocc",
				"energy": -0.0852,
				"method": "rhf"
			},
			{
				"type": "unocc",
				"energy": -0.05598,
				"method": "rhf"
			},
			{
				"type": "unocc",
				"energy": -0.02982,
				"method": "rhf"
			},
			{
				"type": "unocc",
				"energy": -0.0012,
				"method": "rhf"
			},
			{
				"type": "unocc",
				"energy": 0.00476,
				"method": "rhf"
			}
		],
		"cosmo_sigma_profile": { 
			"-0.025": 0.0,
			"-0.024": 0.0,
			"-0.023": 0.0,
			"-0.022": 0.0,
			"-0.021": 0.0,
			"-0.02": 0.0,
			"-0.019": 0.0,
			"-0.018": 0.0,
			"-0.017": 0.0,
			"-0.016": 0.0,
			"-0.015": 0.0,
			"-0.014": 0.0,
			"-0.013": 0.0,
			"-0.012": 0.0,
			"-0.011": 0.128126403783,
			"-0.01": 2.0905190195,
			"-0.009": 3.01997904355,
			"-0.008": 5.3711155558,
			"-0.007": 10.0377748709,
			"-0.006": 12.582106713,
			"-0.005": 13.1292708955,
			"-0.004": 13.3312092407,
			"-0.003": 15.5289302873,
			"-0.002": 19.0040492653,
			"-0.001": 21.3422661937,
			"0.0": 21.0846268865,
			"0.001": 20.2711948443,
			"0.002": 21.7278146335,
			"0.003": 28.3209482228,
			"0.004": 12.8740723133,
			"0.005": 5.30659693598,
			"0.006": 4.52397647784,
			"0.007": 7.25896632583,
			"0.008": 12.0414921469,
			"0.009": 5.38362997759,
			"0.01": 0.746444312397,
			"0.011": 0.428557441124,
			"0.012": 0.0,
			"0.013": 0.0,
			"0.014": 0.0,
			"0.015": 0.0,
			"0.016": 0.0,
			"0.017": 0.0,
			"0.018": 0.0,
			"0.019": 0.0,
			"0.02": 0.0,
			"0.021": 0.0,
			"0.022": 0.0,
			"0.023": 0.0,
			"0.024": 0.0,
			"0.025": 0.0
		}
	}
}
