{
	 "smiles": "CC1=CC=C(C=C1)S(=O)(=O)NC1=CC(N)=C(C=C1NS(=O)(=O)C1=CC=C(C)C=C1)[N+]([O-])=O", 
	 "Tm": 438.15, 
	 "num_atms": 52, 
	 "gaussian": { 
		 "optdone": 1, 
		 "sigma_profile": "yes", 
		 "theory": "DFT", 
		 "functional": "B3LYP", 
		 "basiset": "6-31G**", 
		 "properties": { 
			 "R2extent": 14674.0543, 
			 "electric_dipole_moment_norm": 8.75900950622, 
			 "electric_quadrupole_moment_norm": 44.030839875, 
			 "total_energy": -2240.69390368, 
			 "HOMO_LUMO_gap": 0.14947, 
			 "cosmo_polarized_energy": -31.59, 
			 "cosmo_cavitation_energy": 59.24, 
			 "cosmo_dispersion_energy": -38.13, 
			 "cosmo_repulsion_energy": 2.78, 
			 "cosmo_total_nonelectrostatic_energy": 23.89, 
			 "SMD_solvation_energy": 10.35 
		},
		"coords": [
			{
				"x": 3.9049234418,
				"y": -4.1467981256,
				"z": -0.5174355464,
				"element": "C" 
			},
			{
				"x": 2.5831757628,
				"y": -3.5800770159,
				"z": -0.0598688896,
				"element": "C" 
			},
			{
				"x": 1.3883452017,
				"y": -4.2820956726,
				"z": -0.2616099955,
				"element": "C" 
			},
			{
				"x": 0.1616766561,
				"y": -3.7478888139,
				"z": 0.1331754324,
				"element": "C" 
			},
			{
				"x": 0.1326202157,
				"y": -2.4935927472,
				"z": 0.7416765205,
				"element": "C" 
			},
			{
				"x": 1.3101541599,
				"y": -1.7764463598,
				"z": 0.9707531545,
				"element": "C" 
			},
			{
				"x": 2.5224841007,
				"y": -2.3231326538,
				"z": 0.5642723396,
				"element": "C" 
			},
			{
				"x": -1.4329302924,
				"y": -1.8232414158,
				"z": 1.2942423535,
				"element": "S" 
			},
			{
				"x": -1.3074693351,
				"y": -1.3694734551,
				"z": 2.6785243512,
				"element": "O" 
			},
			{
				"x": -2.4789954579,
				"y": -2.755793164,
				"z": 0.8735255847,
				"element": "O" 
			},
			{
				"x": -1.6170702005,
				"y": -0.3773036822,
				"z": 0.4415762515,
				"element": "N" 
			},
			{
				"x": -1.7714198263,
				"y": -0.1762303339,
				"z": -0.9251174626,
				"element": "C" 
			},
			{
				"x": -1.9948821536,
				"y": -1.2062230312,
				"z": -1.8282368568,
				"element": "C" 
			},
			{
				"x": -2.1391965727,
				"y": -0.964125081,
				"z": -3.2130375816,
				"element": "C" 
			},
			{
				"x": -2.3372595547,
				"y": -2.008185423,
				"z": -4.0515455286,
				"element": "N" 
			},
			{
				"x": -2.062658767,
				"y": 0.3912823796,
				"z": -3.653890408,
				"element": "C" 
			},
			{
				"x": -1.8598547305,
				"y": 1.4279334531,
				"z": -2.7334709378,
				"element": "C" 
			},
			{
				"x": -1.7118423641,
				"y": 1.1749768598,
				"z": -1.3846061682,
				"element": "C" 
			},
			{
				"x": -1.5582810978,
				"y": 2.2090194403,
				"z": -0.4016962786,
				"element": "N" 
			},
			{
				"x": -0.2231656297,
				"y": 3.2957463922,
				"z": -0.4520383236,
				"element": "S" 
			},
			{
				"x": -0.7564571626,
				"y": 4.4990008152,
				"z": 0.1933725257,
				"element": "O" 
			},
			{
				"x": 0.3597702037,
				"y": 3.3315294228,
				"z": -1.7947002696,
				"element": "O" 
			},
			{
				"x": 0.9788460941,
				"y": 2.5400155279,
				"z": 0.6389205968,
				"element": "C" 
			},
			{
				"x": 2.1997328598,
				"y": 2.1164592567,
				"z": 0.1192383985,
				"element": "C" 
			},
			{
				"x": 3.1625725143,
				"y": 1.5991521976,
				"z": 0.9892997832,
				"element": "C" 
			},
			{
				"x": 2.9192151325,
				"y": 1.4968730771,
				"z": 2.3646753036,
				"element": "C" 
			},
			{
				"x": 3.9655771655,
				"y": 0.9537972804,
				"z": 3.307719872,
				"element": "C" 
			},
			{
				"x": 1.6747120969,
				"y": 1.9280534764,
				"z": 2.8587472055,
				"element": "C" 
			},
			{
				"x": 0.7090589705,
				"y": 2.4575497736,
				"z": 2.0096602807,
				"element": "C" 
			},
			{
				"x": -2.2191710574,
				"y": 0.7648393957,
				"z": -5.0390980539,
				"element": "N" 
			},
			{
				"x": -2.1667612825,
				"y": 1.9585453751,
				"z": -5.3382027587,
				"element": "O" 
			},
			{
				"x": -2.4052526101,
				"y": -0.1315981678,
				"z": -5.8874309933,
				"element": "O" 
			},
			{
				"x": 4.2152725951,
				"y": -3.6954550141,
				"z": -1.4677959478,
				"element": "H" 
			},
			{
				"x": 4.6982657194,
				"y": -3.947343355,
				"z": 0.2095263361,
				"element": "H" 
			},
			{
				"x": 3.8464667732,
				"y": -5.2276093479,
				"z": -0.6704192359,
				"element": "H" 
			},
			{
				"x": 1.4156529819,
				"y": -5.261404808,
				"z": -0.7315066139,
				"element": "H" 
			},
			{
				"x": -0.7626706212,
				"y": -4.2952108178,
				"z": -0.0131166892,
				"element": "H" 
			},
			{
				"x": 1.2822992178,
				"y": -0.8093768382,
				"z": 1.4613608261,
				"element": "H" 
			},
			{
				"x": 3.4393135098,
				"y": -1.7659014306,
				"z": 0.736215745,
				"element": "H" 
			},
			{
				"x": -1.4476428443,
				"y": 0.4560024015,
				"z": 0.9965279103,
				"element": "H" 
			},
			{
				"x": -2.0952288543,
				"y": -2.2231646954,
				"z": -1.470607246,
				"element": "H" 
			},
			{
				"x": -2.4794410018,
				"y": -2.9298016419,
				"z": -3.67359546,
				"element": "H" 
			},
			{
				"x": -2.4969931514,
				"y": -1.80666101,
				"z": -5.0289787304,
				"element": "H" 
			},
			{
				"x": -1.8081137548,
				"y": 2.4403122842,
				"z": -3.1116709583,
				"element": "H" 
			},
			{
				"x": -2.3775026904,
				"y": 2.8004379046,
				"z": -0.2699467215,
				"element": "H" 
			},
			{
				"x": 2.3900458781,
				"y": 2.2062060933,
				"z": -0.9443828653,
				"element": "H" 
			},
			{
				"x": 4.121772245,
				"y": 1.2803562949,
				"z": 0.5903090154,
				"element": "H" 
			},
			{
				"x": 4.8478684683,
				"y": 0.5996758087,
				"z": 2.7683126741,
				"element": "H" 
			},
			{
				"x": 4.293661756,
				"y": 1.724597805,
				"z": 4.0143707962,
				"element": "H" 
			},
			{
				"x": 3.571957579,
				"y": 0.1214390942,
				"z": 3.9010941481,
				"element": "H" 
			},
			{
				"x": 1.4676492479,
				"y": 1.8587196776,
				"z": 3.9231360035,
				"element": "H" 
			},
			{
				"x": -0.2357295346,
				"y": 2.816812614,
				"z": 2.4044731124,
				"element": "H" 
			}
		],
		 "valence_orbital": [ 
			{
				"type": "occ",
				"energy": -0.27992,
				"method": "rhf"
			},
			{
				"type": "occ",
				"energy": -0.27489,
				"method": "rhf"
			},
			{
				"type": "occ",
				"energy": -0.27105,
				"method": "rhf"
			},
			{
				"type": "occ",
				"energy": -0.24793,
				"method": "rhf"
			},
			{
				"type": "occ",
				"energy": -0.22792,
				"method": "rhf"
			},
			{
				"type": "unocc",
				"energy": -0.07845,
				"method": "rhf"
			},
			{
				"type": "unocc",
				"energy": -0.05154,
				"method": "rhf"
			},
			{
				"type": "unocc",
				"energy": -0.04902,
				"method": "rhf"
			},
			{
				"type": "unocc",
				"energy": -0.03456,
				"method": "rhf"
			},
			{
				"type": "unocc",
				"energy": -0.03219,
				"method": "rhf"
			}
		],
		"cosmo_sigma_profile": { 
			"-0.025": 0.0,
			"-0.024": 0.0,
			"-0.023": 0.0,
			"-0.022": 0.0,
			"-0.021": 0.0,
			"-0.02": 0.0,
			"-0.019": 0.0,
			"-0.018": 0.0,
			"-0.017": 0.0,
			"-0.016": 0.110037747584,
			"-0.015": 1.53577273473,
			"-0.014": 2.56861974176,
			"-0.013": 2.54980615772,
			"-0.012": 2.35133978475,
			"-0.011": 2.25247984064,
			"-0.01": 3.57602063935,
			"-0.009": 4.69730480162,
			"-0.008": 4.64929452907,
			"-0.007": 11.3875689857,
			"-0.006": 21.7853246857,
			"-0.005": 32.0455979993,
			"-0.004": 33.4973397176,
			"-0.003": 37.612023624,
			"-0.002": 40.2212685424,
			"-0.001": 40.4561594844,
			"0.0": 39.2237962271,
			"0.001": 32.7526323117,
			"0.002": 29.9577414385,
			"0.003": 29.0661603166,
			"0.004": 8.83731613707,
			"0.005": 8.71425686804,
			"0.006": 10.4492047425,
			"0.007": 9.25863662024,
			"0.008": 12.989745912,
			"0.009": 14.2078427193,
			"0.01": 20.4964535554,
			"0.011": 15.1551661369,
			"0.012": 1.07259406414,
			"0.013": 0.0,
			"0.014": 0.0,
			"0.015": 0.0,
			"0.016": 0.0,
			"0.017": 0.0,
			"0.018": 0.0,
			"0.019": 0.0,
			"0.02": 0.0,
			"0.021": 0.0,
			"0.022": 0.0,
			"0.023": 0.0,
			"0.024": 0.0,
			"0.025": 0.0
		}
	}
}
