{
	 "smiles": "CCOC(=O)NNC(=O)NC1=CC=C(Cl)C=C1", 
	 "Tm": 467.15, 
	 "num_atms": 29, 
	 "gaussian": { 
		 "optdone": 1, 
		 "sigma_profile": "yes", 
		 "theory": "DFT", 
		 "functional": "B3LYP", 
		 "basiset": "6-31G**", 
		 "properties": { 
			 "R2extent": 6717.0096, 
			 "electric_dipole_moment_norm": 3.2574059265, 
			 "electric_quadrupole_moment_norm": 21.1762061758, 
			 "total_energy": -1238.42869759, 
			 "HOMO_LUMO_gap": 0.20202, 
			 "cosmo_polarized_energy": -18.95, 
			 "cosmo_cavitation_energy": 36.33, 
			 "cosmo_dispersion_energy": -25.27, 
			 "cosmo_repulsion_energy": 2.03, 
			 "cosmo_total_nonelectrostatic_energy": 13.09, 
			 "SMD_solvation_energy": 7.96 
		},
		"coords": [
			{
				"x": -1.5883834253,
				"y": 1.3388743084,
				"z": -3.9942971327,
				"element": "C" 
			},
			{
				"x": -2.4094308704,
				"y": 0.0859020616,
				"z": -3.7587622439,
				"element": "C" 
			},
			{
				"x": -2.215490483,
				"y": -0.3050329765,
				"z": -2.3798067395,
				"element": "O" 
			},
			{
				"x": -2.8736061586,
				"y": -1.4207419079,
				"z": -2.0099307694,
				"element": "C" 
			},
			{
				"x": -3.6386788644,
				"y": -2.0577931596,
				"z": -2.7013709566,
				"element": "O" 
			},
			{
				"x": -2.6432106854,
				"y": -1.7201142625,
				"z": -0.6682821699,
				"element": "N" 
			},
			{
				"x": -1.5100254325,
				"y": -1.2651888753,
				"z": -0.0061050698,
				"element": "N" 
			},
			{
				"x": -0.2655323396,
				"y": -1.6399234324,
				"z": -0.5213943584,
				"element": "C" 
			},
			{
				"x": -0.1343082748,
				"y": -2.5017329652,
				"z": -1.3731340909,
				"element": "O" 
			},
			{
				"x": 0.8323078014,
				"y": -0.9871770627,
				"z": 0.0213597786,
				"element": "N" 
			},
			{
				"x": 0.9345890826,
				"y": -0.0207205961,
				"z": 1.0439309392,
				"element": "C" 
			},
			{
				"x": 0.1475789659,
				"y": -0.0636607191,
				"z": 2.2058417094,
				"element": "C" 
			},
			{
				"x": 0.3021803813,
				"y": 0.9024628976,
				"z": 3.1993738948,
				"element": "C" 
			},
			{
				"x": 1.2653141977,
				"y": 1.8988024666,
				"z": 3.0529395565,
				"element": "C" 
			},
			{
				"x": 1.466393402,
				"y": 3.1081690895,
				"z": 4.3102029601,
				"element": "Cl" 
			},
			{
				"x": 2.0760403604,
				"y": 1.9403455934,
				"z": 1.9184335854,
				"element": "C" 
			},
			{
				"x": 1.9017512561,
				"y": 0.9890543166,
				"z": 0.9176411149,
				"element": "C" 
			},
			{
				"x": -1.9117083906,
				"y": 2.1500616668,
				"z": -3.3353569252,
				"element": "H" 
			},
			{
				"x": -0.526174152,
				"y": 1.1492857749,
				"z": -3.8149164939,
				"element": "H" 
			},
			{
				"x": -1.7083485675,
				"y": 1.6696118228,
				"z": -5.0305717705,
				"element": "H" 
			},
			{
				"x": -3.4768392054,
				"y": 0.2545025348,
				"z": -3.9307004818,
				"element": "H" 
			},
			{
				"x": -2.0943901256,
				"y": -0.739046643,
				"z": -4.4045290816,
				"element": "H" 
			},
			{
				"x": -2.9043731293,
				"y": -2.6694028126,
				"z": -0.4360276049,
				"element": "H" 
			},
			{
				"x": -1.6062516526,
				"y": -0.3263217063,
				"z": 0.3587463269,
				"element": "H" 
			},
			{
				"x": 1.6764967497,
				"y": -1.2182828436,
				"z": -0.4839615963,
				"element": "H" 
			},
			{
				"x": -0.570213131,
				"y": -0.8638509811,
				"z": 2.3447839313,
				"element": "H" 
			},
			{
				"x": -0.3098722224,
				"y": 0.8658353437,
				"z": 4.0937869253,
				"element": "H" 
			},
			{
				"x": 2.8261429929,
				"y": 2.7162583337,
				"z": 1.8132642931,
				"element": "H" 
			},
			{
				"x": 2.5169419204,
				"y": 1.0315247333,
				"z": 0.0232424698,
				"element": "H" 
			}
		],
		 "valence_orbital": [ 
			{
				"type": "occ",
				"energy": -0.28429,
				"method": "rhf"
			},
			{
				"type": "occ",
				"energy": -0.28035,
				"method": "rhf"
			},
			{
				"type": "occ",
				"energy": -0.27828,
				"method": "rhf"
			},
			{
				"type": "occ",
				"energy": -0.26283,
				"method": "rhf"
			},
			{
				"type": "occ",
				"energy": -0.23401,
				"method": "rhf"
			},
			{
				"type": "unocc",
				"energy": -0.03199,
				"method": "rhf"
			},
			{
				"type": "unocc",
				"energy": -0.02885,
				"method": "rhf"
			},
			{
				"type": "unocc",
				"energy": 0.02023,
				"method": "rhf"
			},
			{
				"type": "unocc",
				"energy": 0.04001,
				"method": "rhf"
			},
			{
				"type": "unocc",
				"energy": 0.04767,
				"method": "rhf"
			}
		],
		"cosmo_sigma_profile": { 
			"-0.025": 0.0,
			"-0.024": 0.0,
			"-0.023": 0.0,
			"-0.022": 0.0,
			"-0.021": 0.0,
			"-0.02": 0.0,
			"-0.019": 0.0,
			"-0.018": 0.0,
			"-0.017": 0.0,
			"-0.016": 0.00449209648728,
			"-0.015": 1.13445257683,
			"-0.014": 2.24634099987,
			"-0.013": 2.78576549876,
			"-0.012": 2.72101630982,
			"-0.011": 2.55194931834,
			"-0.01": 2.847523629,
			"-0.009": 2.93010210006,
			"-0.008": 4.62070747437,
			"-0.007": 9.07856724153,
			"-0.006": 10.0916987033,
			"-0.005": 16.2937761281,
			"-0.004": 19.9453116972,
			"-0.003": 19.7466181518,
			"-0.002": 19.8377152439,
			"-0.001": 19.9980167996,
			"0.0": 21.3219980232,
			"0.001": 21.0215224274,
			"0.002": 23.8855664023,
			"0.003": 22.6571190589,
			"0.004": 16.2432346774,
			"0.005": 11.775946188,
			"0.006": 4.05383600808,
			"0.007": 4.22200330248,
			"0.008": 2.63398241364,
			"0.009": 2.244661353,
			"0.01": 3.92472840734,
			"0.011": 3.30797027065,
			"0.012": 7.99202715826,
			"0.013": 7.78223102352,
			"0.014": 0.717885018895,
			"0.015": 0.0,
			"0.016": 0.0,
			"0.017": 0.0,
			"0.018": 0.0,
			"0.019": 0.0,
			"0.02": 0.0,
			"0.021": 0.0,
			"0.022": 0.0,
			"0.023": 0.0,
			"0.024": 0.0,
			"0.025": 0.0
		}
	}
}
