{
	 "smiles": "COC1=CC=C2C=CNC2=C1", 
	 "Tm": 365.15, 
	 "num_atms": 20, 
	 "gaussian": { 
		 "optdone": 1, 
		 "sigma_profile": "yes", 
		 "theory": "DFT", 
		 "functional": "B3LYP", 
		 "basiset": "6-31G**", 
		 "properties": { 
			 "R2extent": 2467.7197, 
			 "electric_dipole_moment_norm": 0.754020218562, 
			 "electric_quadrupole_moment_norm": 12.2554290406, 
			 "total_energy": -478.34360747, 
			 "HOMO_LUMO_gap": 0.18365, 
			 "cosmo_polarized_energy": -9.82, 
			 "cosmo_cavitation_energy": 23.45, 
			 "cosmo_dispersion_energy": -17.85, 
			 "cosmo_repulsion_energy": 1.42, 
			 "cosmo_total_nonelectrostatic_energy": 7.01, 
			 "SMD_solvation_energy": 4.73 
		},
		"coords": [
			{
				"x": -1.3903093969,
				"y": -3.9563585098,
				"z": 0.9392458314,
				"element": "C" 
			},
			{
				"x": -0.8494143215,
				"y": -3.0384082956,
				"z": 0.006672264,
				"element": "O" 
			},
			{
				"x": -1.2302979648,
				"y": -1.7229604804,
				"z": 0.0875895884,
				"element": "C" 
			},
			{
				"x": -2.1361543534,
				"y": -1.2247078634,
				"z": 1.0516039042,
				"element": "C" 
			},
			{
				"x": -2.4769164207,
				"y": 0.1242252322,
				"z": 1.0733183798,
				"element": "C" 
			},
			{
				"x": -1.9198616971,
				"y": 1.0019141009,
				"z": 0.1330252757,
				"element": "C" 
			},
			{
				"x": -2.0372356733,
				"y": 2.4108962569,
				"z": -0.1366201465,
				"element": "C" 
			},
			{
				"x": -1.229752437,
				"y": 2.6843687813,
				"z": -1.2062515815,
				"element": "C" 
			},
			{
				"x": -0.6069307995,
				"y": 1.5183014537,
				"z": -1.6273750837,
				"element": "N" 
			},
			{
				"x": -1.0100120466,
				"y": 0.4704764341,
				"z": -0.8259966246,
				"element": "C" 
			},
			{
				"x": -0.6564085801,
				"y": -0.8786027243,
				"z": -0.8634805423,
				"element": "C" 
			},
			{
				"x": -1.1224593242,
				"y": -3.6967532452,
				"z": 1.9721480484,
				"element": "H" 
			},
			{
				"x": -2.48378583,
				"y": -4.0224635586,
				"z": 0.8620105202,
				"element": "H" 
			},
			{
				"x": -0.9568699067,
				"y": -4.9274209994,
				"z": 0.6926373198,
				"element": "H" 
			},
			{
				"x": -2.5740105446,
				"y": -1.8916839616,
				"z": 1.7841255921,
				"element": "H" 
			},
			{
				"x": -3.1749381645,
				"y": 0.4898645011,
				"z": 1.8214990387,
				"element": "H" 
			},
			{
				"x": -2.6453610943,
				"y": 3.1262708463,
				"z": 0.3986474988,
				"element": "H" 
			},
			{
				"x": -1.0390944809,
				"y": 3.6189496423,
				"z": -1.7140710423,
				"element": "H" 
			},
			{
				"x": 0.0378574541,
				"y": 1.448229274,
				"z": -2.3969119601,
				"element": "H" 
			},
			{
				"x": 0.0360555821,
				"y": -1.2868368847,
				"z": -1.5923162805,
				"element": "H" 
			}
		],
		 "valence_orbital": [ 
			{
				"type": "occ",
				"energy": -0.31562,
				"method": "rhf"
			},
			{
				"type": "occ",
				"energy": -0.29561,
				"method": "rhf"
			},
			{
				"type": "occ",
				"energy": -0.25733,
				"method": "rhf"
			},
			{
				"type": "occ",
				"energy": -0.21183,
				"method": "rhf"
			},
			{
				"type": "occ",
				"energy": -0.1839,
				"method": "rhf"
			},
			{
				"type": "unocc",
				"energy": -0.00025,
				"method": "rhf"
			},
			{
				"type": "unocc",
				"energy": 0.04132,
				"method": "rhf"
			},
			{
				"type": "unocc",
				"energy": 0.08033,
				"method": "rhf"
			},
			{
				"type": "unocc",
				"energy": 0.08519,
				"method": "rhf"
			},
			{
				"type": "unocc",
				"energy": 0.10514,
				"method": "rhf"
			}
		],
		"cosmo_sigma_profile": { 
			"-0.025": 0.0,
			"-0.024": 0.0,
			"-0.023": 0.0,
			"-0.022": 0.0,
			"-0.021": 0.0,
			"-0.02": 0.0,
			"-0.019": 0.0,
			"-0.018": 0.0,
			"-0.017": 0.0,
			"-0.016": 0.0896353570855,
			"-0.015": 1.43691259395,
			"-0.014": 1.48384741912,
			"-0.013": 1.44153899043,
			"-0.012": 0.869854908173,
			"-0.011": 0.955706646593,
			"-0.01": 1.25069498328,
			"-0.009": 1.67901593566,
			"-0.008": 2.08318070643,
			"-0.007": 3.79856982416,
			"-0.006": 5.96369380138,
			"-0.005": 16.2027490426,
			"-0.004": 16.0282538752,
			"-0.003": 16.9805989491,
			"-0.002": 13.5424780031,
			"-0.001": 9.47220669255,
			"0.0": 8.96755980291,
			"0.001": 5.66755409366,
			"0.002": 8.60802804181,
			"0.003": 8.84114478651,
			"0.004": 9.12774242909,
			"0.005": 16.1282882031,
			"0.006": 17.4655930445,
			"0.007": 12.0388977414,
			"0.008": 2.64356990441,
			"0.009": 1.00915788739,
			"0.01": 1.84564200088,
			"0.011": 1.43434284081,
			"0.012": 0.0662293588564,
			"0.013": 0.0,
			"0.014": 0.0,
			"0.015": 0.0,
			"0.016": 0.0,
			"0.017": 0.0,
			"0.018": 0.0,
			"0.019": 0.0,
			"0.02": 0.0,
			"0.021": 0.0,
			"0.022": 0.0,
			"0.023": 0.0,
			"0.024": 0.0,
			"0.025": 0.0
		}
	}
}
