{
	 "smiles": "ClC1=C2COC(=O)C2=C(Cl)C(Cl)=C1Cl", 
	 "Tm": 482.15, 
	 "num_atms": 16, 
	 "gaussian": { 
		 "optdone": 1, 
		 "sigma_profile": "yes", 
		 "theory": "DFT", 
		 "functional": "B3LYP", 
		 "basiset": "6-31G**", 
		 "properties": { 
			 "R2extent": 5413.9813, 
			 "electric_dipole_moment_norm": 3.38141595489, 
			 "electric_quadrupole_moment_norm": 10.4130936767, 
			 "total_energy": -2297.26009787, 
			 "HOMO_LUMO_gap": 0.18908, 
			 "cosmo_polarized_energy": -10.3, 
			 "cosmo_cavitation_energy": 27.78, 
			 "cosmo_dispersion_energy": -21.23, 
			 "cosmo_repulsion_energy": 1.65, 
			 "cosmo_total_nonelectrostatic_energy": 8.2, 
			 "SMD_solvation_energy": 4.62 
		},
		"coords": [
			{
				"x": 1.0963339698,
				"y": -2.7088935279,
				"z": 2.3131850411,
				"element": "Cl" 
			},
			{
				"x": 1.3898782965,
				"y": -1.5002091241,
				"z": 1.094224333,
				"element": "C" 
			},
			{
				"x": 0.562109856,
				"y": -0.3898073484,
				"z": 1.0271628325,
				"element": "C" 
			},
			{
				"x": -0.6230733986,
				"y": -0.0112347126,
				"z": 1.8703297998,
				"element": "C" 
			},
			{
				"x": -1.0699620374,
				"y": 1.2380762027,
				"z": 1.3301308048,
				"element": "O" 
			},
			{
				"x": -0.2921089878,
				"y": 1.6436867993,
				"z": 0.2702208501,
				"element": "C" 
			},
			{
				"x": -0.4946749055,
				"y": 2.6644914849,
				"z": -0.328406264,
				"element": "O" 
			},
			{
				"x": 0.7570505782,
				"y": 0.5993707113,
				"z": 0.0730204874,
				"element": "C" 
			},
			{
				"x": 1.7943269748,
				"y": 0.5152600868,
				"z": -0.8572070684,
				"element": "C" 
			},
			{
				"x": 2.0221626991,
				"y": 1.7577989345,
				"z": -2.039591367,
				"element": "Cl" 
			},
			{
				"x": 2.6443116636,
				"y": -0.6048338533,
				"z": -0.8039618782,
				"element": "C" 
			},
			{
				"x": 3.9475005628,
				"y": -0.7547646294,
				"z": -1.9381743401,
				"element": "Cl" 
			},
			{
				"x": 2.4428354562,
				"y": -1.6112522409,
				"z": 0.1700884267,
				"element": "C" 
			},
			{
				"x": 3.4932102271,
				"y": -2.9867480288,
				"z": 0.2291052446,
				"element": "Cl" 
			},
			{
				"x": -0.3630509998,
				"y": 0.1260999147,
				"z": 2.9258317111,
				"element": "H" 
			},
			{
				"x": -1.436849955,
				"y": -0.742140669,
				"z": 1.8062413867,
				"element": "H" 
			}
		],
		 "valence_orbital": [ 
			{
				"type": "occ",
				"energy": -0.32099,
				"method": "rhf"
			},
			{
				"type": "occ",
				"energy": -0.31647,
				"method": "rhf"
			},
			{
				"type": "occ",
				"energy": -0.29044,
				"method": "rhf"
			},
			{
				"type": "occ",
				"energy": -0.28202,
				"method": "rhf"
			},
			{
				"type": "occ",
				"energy": -0.27213,
				"method": "rhf"
			},
			{
				"type": "unocc",
				"energy": -0.08305,
				"method": "rhf"
			},
			{
				"type": "unocc",
				"energy": -0.05981,
				"method": "rhf"
			},
			{
				"type": "unocc",
				"energy": -0.04345,
				"method": "rhf"
			},
			{
				"type": "unocc",
				"energy": 0.00639,
				"method": "rhf"
			},
			{
				"type": "unocc",
				"energy": 0.02028,
				"method": "rhf"
			}
		],
		"cosmo_sigma_profile": { 
			"-0.025": 0.0,
			"-0.024": 0.0,
			"-0.023": 0.0,
			"-0.022": 0.0,
			"-0.021": 0.0,
			"-0.02": 0.0,
			"-0.019": 0.0,
			"-0.018": 0.0,
			"-0.017": 0.0,
			"-0.016": 0.0,
			"-0.015": 0.0,
			"-0.014": 0.0,
			"-0.013": 0.0,
			"-0.012": 0.0,
			"-0.011": 0.0,
			"-0.01": 0.0399245454273,
			"-0.009": 4.00909581023,
			"-0.008": 6.63739053132,
			"-0.007": 6.74029391443,
			"-0.006": 7.34389032376,
			"-0.005": 6.38867348056,
			"-0.004": 16.0586220746,
			"-0.003": 29.3611407582,
			"-0.002": 18.7762298094,
			"-0.001": 14.1282502574,
			"0.0": 15.7102815297,
			"0.001": 19.9611753965,
			"0.002": 26.8143703839,
			"0.003": 26.8197777581,
			"0.004": 6.54201371261,
			"0.005": 2.79723069545,
			"0.006": 2.33611369707,
			"0.007": 3.21414124914,
			"0.008": 4.42239287683,
			"0.009": 4.64068241412,
			"0.01": 4.7792628427,
			"0.011": 4.95186614932,
			"0.012": 0.807414367142,
			"0.013": 0.0,
			"0.014": 0.0,
			"0.015": 0.0,
			"0.016": 0.0,
			"0.017": 0.0,
			"0.018": 0.0,
			"0.019": 0.0,
			"0.02": 0.0,
			"0.021": 0.0,
			"0.022": 0.0,
			"0.023": 0.0,
			"0.024": 0.0,
			"0.025": 0.0
		}
	}
}
