{
	 "smiles": "CCC(O)CC", 
	 "Tm": 265.15, 
	 "num_atms": 18, 
	 "gaussian": { 
		 "optdone": 1, 
		 "sigma_profile": "yes", 
		 "theory": "DFT", 
		 "functional": "B3LYP", 
		 "basiset": "6-31G**", 
		 "properties": { 
			 "R2extent": 867.0273, 
			 "electric_dipole_moment_norm": 1.4731248759, 
			 "electric_quadrupole_moment_norm": 7.1433174352, 
			 "total_energy": -272.991272247, 
			 "HOMO_LUMO_gap": 0.33823, 
			 "cosmo_polarized_energy": -5.67, 
			 "cosmo_cavitation_energy": 19.37, 
			 "cosmo_dispersion_energy": -14.33, 
			 "cosmo_repulsion_energy": 1.25, 
			 "cosmo_total_nonelectrostatic_energy": 6.29, 
			 "SMD_solvation_energy": 3.38 
		},
		"coords": [
			{
				"x": 1.586370324,
				"y": 0.4487021408,
				"z": -0.6398420069,
				"element": "C" 
			},
			{
				"x": 0.4605806772,
				"y": 0.0653001279,
				"z": -1.6048262174,
				"element": "C" 
			},
			{
				"x": -0.8256419407,
				"y": -0.4835213212,
				"z": -0.9741789549,
				"element": "C" 
			},
			{
				"x": -1.6140283514,
				"y": -0.8985857161,
				"z": -2.0946541082,
				"element": "O" 
			},
			{
				"x": -1.619145335,
				"y": 0.510263179,
				"z": -0.100110645,
				"element": "C" 
			},
			{
				"x": -1.1744708661,
				"y": 0.6122394673,
				"z": 1.3646301575,
				"element": "C" 
			},
			{
				"x": 2.5010866383,
				"y": 0.6765986901,
				"z": -1.196500714,
				"element": "H" 
			},
			{
				"x": 1.8194940287,
				"y": -0.3666509648,
				"z": 0.0546144527,
				"element": "H" 
			},
			{
				"x": 1.3420250103,
				"y": 1.3343150356,
				"z": -0.046126286,
				"element": "H" 
			},
			{
				"x": 0.8194622719,
				"y": -0.7075219728,
				"z": -2.2941050021,
				"element": "H" 
			},
			{
				"x": 0.1871123587,
				"y": 0.9264308262,
				"z": -2.2277971222,
				"element": "H" 
			},
			{
				"x": -0.5664637928,
				"y": -1.3615521982,
				"z": -0.3539852224,
				"element": "H" 
			},
			{
				"x": -2.4389158107,
				"y": -1.2690788182,
				"z": -1.7557920389,
				"element": "H" 
			},
			{
				"x": -2.6693452208,
				"y": 0.1851296476,
				"z": -0.110048551,
				"element": "H" 
			},
			{
				"x": -1.6092071576,
				"y": 1.4981958247,
				"z": -0.5783232069,
				"element": "H" 
			},
			{
				"x": -1.1966891969,
				"y": -0.3700178886,
				"z": 1.8507880618,
				"element": "H" 
			},
			{
				"x": -0.1613635634,
				"y": 1.0070879262,
				"z": 1.470163808,
				"element": "H" 
			},
			{
				"x": -1.8440600738,
				"y": 1.2721660146,
				"z": 1.925693596,
				"element": "H" 
			}
		],
		 "valence_orbital": [ 
			{
				"type": "occ",
				"energy": -0.3485,
				"method": "rhf"
			},
			{
				"type": "occ",
				"energy": -0.33565,
				"method": "rhf"
			},
			{
				"type": "occ",
				"energy": -0.32203,
				"method": "rhf"
			},
			{
				"type": "occ",
				"energy": -0.30378,
				"method": "rhf"
			},
			{
				"type": "occ",
				"energy": -0.2584,
				"method": "rhf"
			},
			{
				"type": "unocc",
				"energy": 0.07983,
				"method": "rhf"
			},
			{
				"type": "unocc",
				"energy": 0.09048,
				"method": "rhf"
			},
			{
				"type": "unocc",
				"energy": 0.12374,
				"method": "rhf"
			},
			{
				"type": "unocc",
				"energy": 0.13125,
				"method": "rhf"
			},
			{
				"type": "unocc",
				"energy": 0.13261,
				"method": "rhf"
			}
		],
		"cosmo_sigma_profile": { 
			"-0.025": 0.0,
			"-0.024": 0.0,
			"-0.023": 0.0,
			"-0.022": 0.0,
			"-0.021": 0.0,
			"-0.02": 0.0,
			"-0.019": 0.0,
			"-0.018": 0.0,
			"-0.017": 0.0,
			"-0.016": 0.0,
			"-0.015": 0.3088276748,
			"-0.014": 1.18815211507,
			"-0.013": 0.516729569891,
			"-0.012": 0.980270053148,
			"-0.011": 0.992265838401,
			"-0.01": 1.30956192792,
			"-0.009": 0.992214957032,
			"-0.008": 0.616979284766,
			"-0.007": 0.602883061459,
			"-0.006": 1.71002224491,
			"-0.005": 1.33145312143,
			"-0.004": 1.85645284145,
			"-0.003": 10.0550844797,
			"-0.002": 25.1429649531,
			"-0.001": 25.2210537104,
			"0.0": 25.0333549741,
			"0.001": 23.3909164371,
			"0.002": 8.27416453223,
			"0.003": 1.68698372158,
			"0.004": 1.71396104726,
			"0.005": 1.40750496983,
			"0.006": 1.38972651075,
			"0.007": 1.40043854305,
			"0.008": 1.43370547685,
			"0.009": 1.29259408421,
			"0.01": 1.00686912648,
			"0.011": 1.54575359862,
			"0.012": 0.93629304003,
			"0.013": 2.0314098338,
			"0.014": 1.84451056525,
			"0.015": 1.38324679432,
			"0.016": 0.0,
			"0.017": 0.0,
			"0.018": 0.0,
			"0.019": 0.0,
			"0.02": 0.0,
			"0.021": 0.0,
			"0.022": 0.0,
			"0.023": 0.0,
			"0.024": 0.0,
			"0.025": 0.0
		}
	}
}
