{
	 "smiles": "CC(Cl)C(=O)NC1=C(OC2=CC=CC=C2)C=CC=C1", 
	 "Tm": 338.15, 
	 "num_atms": 33, 
	 "gaussian": { 
		 "optdone": 1, 
		 "sigma_profile": "yes", 
		 "theory": "DFT", 
		 "functional": "B3LYP", 
		 "basiset": "6-31G**", 
		 "properties": { 
			 "R2extent": 6410.3246, 
			 "electric_dipole_moment_norm": 5.21843351495, 
			 "electric_quadrupole_moment_norm": 15.5494384886, 
			 "total_energy": -1245.43223135, 
			 "HOMO_LUMO_gap": 0.20227, 
			 "cosmo_polarized_energy": -13.75, 
			 "cosmo_cavitation_energy": 39.1, 
			 "cosmo_dispersion_energy": -26.22, 
			 "cosmo_repulsion_energy": 2.05, 
			 "cosmo_total_nonelectrostatic_energy": 14.93, 
			 "SMD_solvation_energy": 7.21 
		},
		"coords": [
			{
				"x": 1.5069299939,
				"y": 3.9228377113,
				"z": 1.2959592279,
				"element": "C" 
			},
			{
				"x": 0.8517409272,
				"y": 2.6400406784,
				"z": 1.7715183163,
				"element": "C" 
			},
			{
				"x": 0.432397395,
				"y": 2.7632710693,
				"z": 3.5585473307,
				"element": "Cl" 
			},
			{
				"x": 1.7882080249,
				"y": 1.432869381,
				"z": 1.6130735131,
				"element": "C" 
			},
			{
				"x": 3.0016081521,
				"y": 1.5660729078,
				"z": 1.5919819837,
				"element": "O" 
			},
			{
				"x": 1.210924418,
				"y": 0.186881965,
				"z": 1.5403968202,
				"element": "N" 
			},
			{
				"x": -0.1592404355,
				"y": -0.1792660128,
				"z": 1.4358243574,
				"element": "C" 
			},
			{
				"x": -0.9189444503,
				"y": 0.1590185832,
				"z": 0.3000440237,
				"element": "C" 
			},
			{
				"x": -0.318597853,
				"y": 0.9767538268,
				"z": -0.6332088315,
				"element": "O" 
			},
			{
				"x": -0.5897459337,
				"y": 0.8246354386,
				"z": -1.9852879287,
				"element": "C" 
			},
			{
				"x": -0.731642723,
				"y": 1.9931009078,
				"z": -2.7340323037,
				"element": "C" 
			},
			{
				"x": -0.9242725994,
				"y": 1.9029052515,
				"z": -4.1128464595,
				"element": "C" 
			},
			{
				"x": -0.9828664673,
				"y": 0.6556593241,
				"z": -4.7378619393,
				"element": "C" 
			},
			{
				"x": -0.838820628,
				"y": -0.505763052,
				"z": -3.9755359685,
				"element": "C" 
			},
			{
				"x": -0.6365935932,
				"y": -0.4305733449,
				"z": -2.5970365649,
				"element": "C" 
			},
			{
				"x": -2.2491328381,
				"y": -0.2557325237,
				"z": 0.191339227,
				"element": "C" 
			},
			{
				"x": -2.8160736236,
				"y": -1.0388111796,
				"z": 1.195563174,
				"element": "C" 
			},
			{
				"x": -2.0683229348,
				"y": -1.3954375723,
				"z": 2.3194603498,
				"element": "C" 
			},
			{
				"x": -0.7515163015,
				"y": -0.9556181358,
				"z": 2.4380458852,
				"element": "C" 
			},
			{
				"x": 0.8608243749,
				"y": 4.7807489409,
				"z": 1.4939089759,
				"element": "H" 
			},
			{
				"x": 2.470685964,
				"y": 4.0619518588,
				"z": 1.7872954036,
				"element": "H" 
			},
			{
				"x": 1.6821457162,
				"y": 3.8531287617,
				"z": 0.216811017,
				"element": "H" 
			},
			{
				"x": -0.1031516845,
				"y": 2.4739516214,
				"z": 1.2784196946,
				"element": "H" 
			},
			{
				"x": 1.897619084,
				"y": -0.5578208275,
				"z": 1.5413753585,
				"element": "H" 
			},
			{
				"x": -0.6842939888,
				"y": 2.952289146,
				"z": -2.2291392817,
				"element": "H" 
			},
			{
				"x": -1.0329212254,
				"y": 2.8118450385,
				"z": -4.6971590963,
				"element": "H" 
			},
			{
				"x": -1.1364290236,
				"y": 0.5887330518,
				"z": -5.8103969695,
				"element": "H" 
			},
			{
				"x": -0.8745524858,
				"y": -1.4797180056,
				"z": -4.4549230625,
				"element": "H" 
			},
			{
				"x": -0.512906935,
				"y": -1.3296130891,
				"z": -2.0029328452,
				"element": "H" 
			},
			{
				"x": -2.8250633739,
				"y": 0.0287700106,
				"z": -0.6823958556,
				"element": "H" 
			},
			{
				"x": -3.8484926908,
				"y": -1.3615002575,
				"z": 1.1005459073,
				"element": "H" 
			},
			{
				"x": -2.510668871,
				"y": -2.0001628814,
				"z": 3.1045426006,
				"element": "H" 
			},
			{
				"x": -0.1586333901,
				"y": -1.2046485923,
				"z": 3.3127039404,
				"element": "H" 
			}
		],
		 "valence_orbital": [ 
			{
				"type": "occ",
				"energy": -0.26786,
				"method": "rhf"
			},
			{
				"type": "occ",
				"energy": -0.2621,
				"method": "rhf"
			},
			{
				"type": "occ",
				"energy": -0.25385,
				"method": "rhf"
			},
			{
				"type": "occ",
				"energy": -0.24715,
				"method": "rhf"
			},
			{
				"type": "occ",
				"energy": -0.23069,
				"method": "rhf"
			},
			{
				"type": "unocc",
				"energy": -0.02842,
				"method": "rhf"
			},
			{
				"type": "unocc",
				"energy": -0.01919,
				"method": "rhf"
			},
			{
				"type": "unocc",
				"energy": -0.01301,
				"method": "rhf"
			},
			{
				"type": "unocc",
				"energy": -0.00759,
				"method": "rhf"
			},
			{
				"type": "unocc",
				"energy": -2e-05,
				"method": "rhf"
			}
		],
		"cosmo_sigma_profile": { 
			"-0.025": 0.0,
			"-0.024": 0.0,
			"-0.023": 0.0,
			"-0.022": 0.0,
			"-0.021": 0.0,
			"-0.02": 0.0,
			"-0.019": 0.0,
			"-0.018": 0.0,
			"-0.017": 0.0,
			"-0.016": 0.0,
			"-0.015": 0.336982568858,
			"-0.014": 0.903460761747,
			"-0.013": 1.325159958,
			"-0.012": 1.11873682023,
			"-0.011": 0.3432339748,
			"-0.01": 1.08529177012,
			"-0.009": 1.00478455397,
			"-0.008": 0.974729082957,
			"-0.007": 4.71206384387,
			"-0.006": 18.6715406356,
			"-0.005": 24.9659089987,
			"-0.004": 26.7381009059,
			"-0.003": 23.3366691754,
			"-0.002": 20.5937110172,
			"-0.001": 23.1500214069,
			"0.0": 22.2447763348,
			"0.001": 22.1748314559,
			"0.002": 20.608408858,
			"0.003": 25.1773062904,
			"0.004": 26.7089098483,
			"0.005": 21.376413366,
			"0.006": 9.72555961808,
			"0.007": 1.4736499776,
			"0.008": 2.05769439227,
			"0.009": 1.39478818829,
			"0.01": 0.954500317513,
			"0.011": 2.54546195617,
			"0.012": 3.69804031762,
			"0.013": 4.40056722489,
			"0.014": 0.212062928757,
			"0.015": 0.0,
			"0.016": 0.0,
			"0.017": 0.0,
			"0.018": 0.0,
			"0.019": 0.0,
			"0.02": 0.0,
			"0.021": 0.0,
			"0.022": 0.0,
			"0.023": 0.0,
			"0.024": 0.0,
			"0.025": 0.0
		}
	}
}
