{
	 "smiles": "CC(NC1=CC=CC=N1)=C(C#N)C(=O)C1=CC=CC=C1", 
	 "Tm": 425.15, 
	 "num_atms": 33, 
	 "gaussian": { 
		 "optdone": 1, 
		 "sigma_profile": "yes", 
		 "theory": "DFT", 
		 "functional": "B3LYP", 
		 "basiset": "6-31G**", 
		 "properties": { 
			 "R2extent": 8067.0908, 
			 "electric_dipole_moment_norm": 4.27413417197, 
			 "electric_quadrupole_moment_norm": 25.4160387272, 
			 "total_energy": -856.998382543, 
			 "HOMO_LUMO_gap": 0.15401, 
			 "cosmo_polarized_energy": -15.86, 
			 "cosmo_cavitation_energy": 38.34, 
			 "cosmo_dispersion_energy": -27.01, 
			 "cosmo_repulsion_energy": 2.05, 
			 "cosmo_total_nonelectrostatic_energy": 13.38, 
			 "SMD_solvation_energy": 7.24 
		},
		"coords": [
			{
				"x": -0.3898754515,
				"y": -0.4053754036,
				"z": 1.6978820756,
				"element": "C" 
			},
			{
				"x": 0.2562760591,
				"y": -0.0042812484,
				"z": 0.4062152915,
				"element": "C" 
			},
			{
				"x": 0.9957471677,
				"y": -0.9249775306,
				"z": -0.2862877955,
				"element": "N" 
			},
			{
				"x": 1.4017244266,
				"y": -2.2365300811,
				"z": 0.0085091683,
				"element": "C" 
			},
			{
				"x": 2.0401590877,
				"y": -2.9547336954,
				"z": -1.0226555399,
				"element": "C" 
			},
			{
				"x": 2.4752530073,
				"y": -4.243639097,
				"z": -0.7525220631,
				"element": "C" 
			},
			{
				"x": 2.2624743487,
				"y": -4.7848288651,
				"z": 0.5193455684,
				"element": "C" 
			},
			{
				"x": 1.6186877815,
				"y": -3.9899201645,
				"z": 1.4625248918,
				"element": "C" 
			},
			{
				"x": 1.1981613413,
				"y": -2.740000019,
				"z": 1.2261833841,
				"element": "N" 
			},
			{
				"x": 0.0935849995,
				"y": 1.2586389423,
				"z": -0.1720510353,
				"element": "C" 
			},
			{
				"x": 0.7315997925,
				"y": 1.4642002858,
				"z": -1.4304413374,
				"element": "C" 
			},
			{
				"x": 1.3076851891,
				"y": 1.5156054395,
				"z": -2.4454039706,
				"element": "N" 
			},
			{
				"x": -0.6088868357,
				"y": 2.3943184876,
				"z": 0.4845961728,
				"element": "C" 
			},
			{
				"x": -0.7638023431,
				"y": 2.4431211182,
				"z": 1.7040663289,
				"element": "O" 
			},
			{
				"x": -1.1217968909,
				"y": 3.5254407448,
				"z": -0.3602262467,
				"element": "C" 
			},
			{
				"x": -1.5646475918,
				"y": 3.3651354327,
				"z": -1.681552395,
				"element": "C" 
			},
			{
				"x": -2.0925636632,
				"y": 4.4496071143,
				"z": -2.3826331232,
				"element": "C" 
			},
			{
				"x": -2.1744306402,
				"y": 5.7037714635,
				"z": -1.7759908438,
				"element": "C" 
			},
			{
				"x": -1.7425068269,
				"y": 5.8701131393,
				"z": -0.456639119,
				"element": "C" 
			},
			{
				"x": -1.2313401486,
				"y": 4.7856931013,
				"z": 0.2496518104,
				"element": "C" 
			},
			{
				"x": -1.1016926603,
				"y": 0.3500033657,
				"z": 2.0144562658,
				"element": "H" 
			},
			{
				"x": -0.8589522801,
				"y": -1.384731797,
				"z": 1.5906820304,
				"element": "H" 
			},
			{
				"x": 0.3682385772,
				"y": -0.5161243188,
				"z": 2.4784343042,
				"element": "H" 
			},
			{
				"x": 1.3456131309,
				"y": -0.5902846802,
				"z": -1.178805972,
				"element": "H" 
			},
			{
				"x": 2.1838923675,
				"y": -2.5081175988,
				"z": -2.0021485706,
				"element": "H" 
			},
			{
				"x": 2.9721325096,
				"y": -4.8214717766,
				"z": -1.5260231185,
				"element": "H" 
			},
			{
				"x": 2.5858330306,
				"y": -5.7889766914,
				"z": 0.7704260826,
				"element": "H" 
			},
			{
				"x": 1.4310812698,
				"y": -4.3657775986,
				"z": 2.466396418,
				"element": "H" 
			},
			{
				"x": -1.5171180026,
				"y": 2.3941659358,
				"z": -2.1618692899,
				"element": "H" 
			},
			{
				"x": -2.4402232228,
				"y": 4.3130902577,
				"z": -3.4023362235,
				"element": "H" 
			},
			{
				"x": -2.5773979863,
				"y": 6.5487261452,
				"z": -2.3272675828,
				"element": "H" 
			},
			{
				"x": -1.8094707097,
				"y": 6.8440356703,
				"z": 0.0195611705,
				"element": "H" 
			},
			{
				"x": -0.910338833,
				"y": 4.8893039222,
				"z": 1.2806232636,
				"element": "H" 
			}
		],
		 "valence_orbital": [ 
			{
				"type": "occ",
				"energy": -0.27843,
				"method": "rhf"
			},
			{
				"type": "occ",
				"energy": -0.25598,
				"method": "rhf"
			},
			{
				"type": "occ",
				"energy": -0.25253,
				"method": "rhf"
			},
			{
				"type": "occ",
				"energy": -0.24271,
				"method": "rhf"
			},
			{
				"type": "occ",
				"energy": -0.22344,
				"method": "rhf"
			},
			{
				"type": "unocc",
				"energy": -0.06943,
				"method": "rhf"
			},
			{
				"type": "unocc",
				"energy": -0.03966,
				"method": "rhf"
			},
			{
				"type": "unocc",
				"energy": -0.02948,
				"method": "rhf"
			},
			{
				"type": "unocc",
				"energy": -0.00374,
				"method": "rhf"
			},
			{
				"type": "unocc",
				"energy": 0.00107,
				"method": "rhf"
			}
		],
		"cosmo_sigma_profile": { 
			"-0.025": 0.0,
			"-0.024": 0.0,
			"-0.023": 0.0,
			"-0.022": 0.0,
			"-0.021": 0.0,
			"-0.02": 0.0,
			"-0.019": 0.0,
			"-0.018": 0.0,
			"-0.017": 0.0,
			"-0.016": 0.0,
			"-0.015": 0.0,
			"-0.014": 0.270518733151,
			"-0.013": 0.862721432472,
			"-0.012": 0.948607189398,
			"-0.011": 1.01016188634,
			"-0.01": 1.85537362843,
			"-0.009": 1.295091076,
			"-0.008": 3.36066116215,
			"-0.007": 9.09832593978,
			"-0.006": 18.4793427825,
			"-0.005": 23.0784650071,
			"-0.004": 22.8772172844,
			"-0.003": 20.6374555865,
			"-0.002": 26.3413455248,
			"-0.001": 25.9920819158,
			"0.0": 22.6895342719,
			"0.001": 20.2617067277,
			"0.002": 23.0615183961,
			"0.003": 19.8388419393,
			"0.004": 19.0405252964,
			"0.005": 9.19126737253,
			"0.006": 4.86623177543,
			"0.007": 5.34763255209,
			"0.008": 5.30908705261,
			"0.009": 4.70281809059,
			"0.01": 4.4421889496,
			"0.011": 4.92704134818,
			"0.012": 6.14671292057,
			"0.013": 2.85447334084,
			"0.014": 0.398760278326,
			"0.015": 0.0,
			"0.016": 0.0,
			"0.017": 0.0,
			"0.018": 0.0,
			"0.019": 0.0,
			"0.02": 0.0,
			"0.021": 0.0,
			"0.022": 0.0,
			"0.023": 0.0,
			"0.024": 0.0,
			"0.025": 0.0
		}
	}
}
