{
	 "smiles": "ClC1=C(C=CC=C1)C1=CSC(=O)N1", 
	 "Tm": 456.15, 
	 "num_atms": 19, 
	 "gaussian": { 
		 "optdone": 1, 
		 "sigma_profile": "yes", 
		 "theory": "DFT", 
		 "functional": "B3LYP", 
		 "basiset": "6-31G**", 
		 "properties": { 
			 "R2extent": 3546.6729, 
			 "electric_dipole_moment_norm": 5.74202687298, 
			 "electric_quadrupole_moment_norm": 14.6757138429, 
			 "total_energy": -1334.93414516, 
			 "HOMO_LUMO_gap": 0.16595, 
			 "cosmo_polarized_energy": -11.36, 
			 "cosmo_cavitation_energy": 27.0, 
			 "cosmo_dispersion_energy": -20.48, 
			 "cosmo_repulsion_energy": 1.56, 
			 "cosmo_total_nonelectrostatic_energy": 8.08, 
			 "SMD_solvation_energy": 5.06 
		},
		"coords": [
			{
				"x": -1.6489487465,
				"y": 1.5197587489,
				"z": -0.4726880578,
				"element": "Cl" 
			},
			{
				"x": -0.9854733435,
				"y": -0.1139349776,
				"z": -0.4930562551,
				"element": "C" 
			},
			{
				"x": 0.1720407137,
				"y": -0.4429186515,
				"z": 0.238964351,
				"element": "C" 
			},
			{
				"x": 0.6423323377,
				"y": -1.7660625615,
				"z": 0.1256441547,
				"element": "C" 
			},
			{
				"x": 0.0074855811,
				"y": -2.7059204434,
				"z": -0.6796589031,
				"element": "C" 
			},
			{
				"x": -1.1407398751,
				"y": -2.3503755994,
				"z": -1.3881526826,
				"element": "C" 
			},
			{
				"x": -1.6379683483,
				"y": -1.0522227629,
				"z": -1.2922310302,
				"element": "C" 
			},
			{
				"x": 0.9297697607,
				"y": 0.4949163378,
				"z": 1.0900046339,
				"element": "C" 
			},
			{
				"x": 2.2805172646,
				"y": 0.5796476318,
				"z": 1.1574192648,
				"element": "C" 
			},
			{
				"x": 2.8230315507,
				"y": 1.7648243477,
				"z": 2.3287026271,
				"element": "S" 
			},
			{
				"x": 1.1014289633,
				"y": 2.1784265777,
				"z": 2.7592968415,
				"element": "C" 
			},
			{
				"x": 0.7411470357,
				"y": 2.9981913915,
				"z": 3.5731129589,
				"element": "O" 
			},
			{
				"x": 0.3003816304,
				"y": 1.3671072274,
				"z": 1.9810180424,
				"element": "N" 
			},
			{
				"x": 1.5135854866,
				"y": -2.0492250286,
				"z": 0.7068937832,
				"element": "H" 
			},
			{
				"x": 0.3992956896,
				"y": -3.7163761419,
				"z": -0.7398414372,
				"element": "H" 
			},
			{
				"x": -1.6527747345,
				"y": -3.0764504976,
				"z": -2.0118320492,
				"element": "H" 
			},
			{
				"x": -2.5243065177,
				"y": -0.7544628042,
				"z": -1.8411849235,
				"element": "H" 
			},
			{
				"x": 2.9841012718,
				"y": 0.0265012975,
				"z": 0.5535624176,
				"element": "H" 
			},
			{
				"x": -0.7018057202,
				"y": 1.4785759084,
				"z": 2.0397262635,
				"element": "H" 
			}
		],
		 "valence_orbital": [ 
			{
				"type": "occ",
				"energy": -0.29916,
				"method": "rhf"
			},
			{
				"type": "occ",
				"energy": -0.28166,
				"method": "rhf"
			},
			{
				"type": "occ",
				"energy": -0.26935,
				"method": "rhf"
			},
			{
				"type": "occ",
				"energy": -0.26504,
				"method": "rhf"
			},
			{
				"type": "occ",
				"energy": -0.21433,
				"method": "rhf"
			},
			{
				"type": "unocc",
				"energy": -0.04838,
				"method": "rhf"
			},
			{
				"type": "unocc",
				"energy": -0.03053,
				"method": "rhf"
			},
			{
				"type": "unocc",
				"energy": 0.00838,
				"method": "rhf"
			},
			{
				"type": "unocc",
				"energy": 0.00978,
				"method": "rhf"
			},
			{
				"type": "unocc",
				"energy": 0.01924,
				"method": "rhf"
			}
		],
		"cosmo_sigma_profile": { 
			"-0.025": 0.0,
			"-0.024": 0.0,
			"-0.023": 0.0,
			"-0.022": 0.0,
			"-0.021": 0.0,
			"-0.02": 0.0,
			"-0.019": 0.0,
			"-0.018": 0.0,
			"-0.017": 0.0,
			"-0.016": 0.0135429961754,
			"-0.015": 0.439702945779,
			"-0.014": 0.639121125731,
			"-0.013": 1.27336706246,
			"-0.012": 0.515913027303,
			"-0.011": 1.36548075711,
			"-0.01": 1.2319691906,
			"-0.009": 2.62816753503,
			"-0.008": 3.50649406654,
			"-0.007": 8.71468779722,
			"-0.006": 12.6486488118,
			"-0.005": 11.3972563045,
			"-0.004": 10.0305939601,
			"-0.003": 9.44196934643,
			"-0.002": 10.1486354989,
			"-0.001": 16.7158696917,
			"0.0": 22.0821766022,
			"0.001": 24.0951675092,
			"0.002": 24.9562150115,
			"0.003": 23.9418192966,
			"0.004": 13.5041732447,
			"0.005": 4.57577171178,
			"0.006": 1.52840945765,
			"0.007": 1.08861235705,
			"0.008": 0.703809239084,
			"0.009": 1.56541522592,
			"0.01": 1.87779653746,
			"0.011": 2.8009949553,
			"0.012": 6.65430005564,
			"0.013": 1.9404405695,
			"0.014": 0.0,
			"0.015": 0.0,
			"0.016": 0.0,
			"0.017": 0.0,
			"0.018": 0.0,
			"0.019": 0.0,
			"0.02": 0.0,
			"0.021": 0.0,
			"0.022": 0.0,
			"0.023": 0.0,
			"0.024": 0.0,
			"0.025": 0.0
		}
	}
}
