{
	 "smiles": "CC(C)C1=CC2=CCC3C(C)(CCCC3(C)C(O)=O)C2CC1", 
	 "Tm": 447.15, 
	 "num_atms": 52, 
	 "gaussian": { 
		 "optdone": 1, 
		 "sigma_profile": "yes", 
		 "theory": "DFT", 
		 "functional": "B3LYP", 
		 "basiset": "6-31G**", 
		 "properties": { 
			 "R2extent": 8567.9282, 
			 "electric_dipole_moment_norm": 1.51321079827, 
			 "electric_quadrupole_moment_norm": 8.8007146011, 
			 "total_energy": -930.668097618, 
			 "HOMO_LUMO_gap": 0.19422, 
			 "cosmo_polarized_energy": -9.1, 
			 "cosmo_cavitation_energy": 46.03, 
			 "cosmo_dispersion_energy": -32.16, 
			 "cosmo_repulsion_energy": 2.4, 
			 "cosmo_total_nonelectrostatic_energy": 16.26, 
			 "SMD_solvation_energy": 7.63 
		},
		"coords": [
			{
				"x": 0.3347833739,
				"y": -4.1931577843,
				"z": -3.6104756983,
				"element": "C" 
			},
			{
				"x": 0.819395906,
				"y": -2.7469577596,
				"z": -3.8561606933,
				"element": "C" 
			},
			{
				"x": 0.1922605907,
				"y": -2.1834540083,
				"z": -5.137154684,
				"element": "C" 
			},
			{
				"x": 0.6098546755,
				"y": -1.8885919823,
				"z": -2.6222265475,
				"element": "C" 
			},
			{
				"x": -0.2407097517,
				"y": -0.8481447407,
				"z": -2.5491649796,
				"element": "C" 
			},
			{
				"x": -0.4534827525,
				"y": -0.092696362,
				"z": -1.3097181883,
				"element": "C" 
			},
			{
				"x": -1.6406889027,
				"y": 0.4810527368,
				"z": -1.0485653812,
				"element": "C" 
			},
			{
				"x": -1.9931036201,
				"y": 1.1431123503,
				"z": 0.2508087549,
				"element": "C" 
			},
			{
				"x": -0.7926960005,
				"y": 1.348722487,
				"z": 1.1966510866,
				"element": "C" 
			},
			{
				"x": 0.2225415016,
				"y": 0.1558757422,
				"z": 1.1660146351,
				"element": "C" 
			},
			{
				"x": -0.4065361031,
				"y": -1.172945499,
				"z": 1.6343572183,
				"element": "C" 
			},
			{
				"x": 1.4699245461,
				"y": 0.5004306592,
				"z": 2.0577723757,
				"element": "C" 
			},
			{
				"x": 1.2690876147,
				"y": 1.6766506545,
				"z": 3.0284756643,
				"element": "C" 
			},
			{
				"x": -0.1123951451,
				"y": 1.6103815821,
				"z": 3.6717301187,
				"element": "C" 
			},
			{
				"x": -1.2472657273,
				"y": 1.8398959769,
				"z": 2.6201471054,
				"element": "C" 
			},
			{
				"x": -2.5448115736,
				"y": 1.1946385565,
				"z": 3.1595339182,
				"element": "C" 
			},
			{
				"x": -1.4423204175,
				"y": 3.363808224,
				"z": 2.5410798879,
				"element": "C" 
			},
			{
				"x": -2.1660783014,
				"y": 3.8503725103,
				"z": 3.5821891521,
				"element": "O" 
			},
			{
				"x": -0.9861282452,
				"y": 4.1087828004,
				"z": 1.69773844,
				"element": "O" 
			},
			{
				"x": 0.7039065091,
				"y": 0.0309621612,
				"z": -0.3208226804,
				"element": "C" 
			},
			{
				"x": 1.8151077192,
				"y": -1.0326619429,
				"z": -0.5723209785,
				"element": "C" 
			},
			{
				"x": 1.366644148,
				"y": -2.270791818,
				"z": -1.3669180391,
				"element": "C" 
			},
			{
				"x": 0.5641209904,
				"y": -4.8303543649,
				"z": -4.4715671554,
				"element": "H" 
			},
			{
				"x": -0.7495305829,
				"y": -4.2118686235,
				"z": -3.4534233737,
				"element": "H" 
			},
			{
				"x": 0.8084781526,
				"y": -4.638984981,
				"z": -2.730567158,
				"element": "H" 
			},
			{
				"x": 1.9089831122,
				"y": -2.8001936057,
				"z": -4.0167224554,
				"element": "H" 
			},
			{
				"x": 0.535342254,
				"y": -1.1639649801,
				"z": -5.3385813713,
				"element": "H" 
			},
			{
				"x": -0.9015346296,
				"y": -2.1653405565,
				"z": -5.0727013129,
				"element": "H" 
			},
			{
				"x": 0.4588732558,
				"y": -2.8073136285,
				"z": -5.9965398823,
				"element": "H" 
			},
			{
				"x": -0.8613477822,
				"y": -0.5775972756,
				"z": -3.3998597396,
				"element": "H" 
			},
			{
				"x": -2.4409275359,
				"y": 0.3981831712,
				"z": -1.7840185725,
				"element": "H" 
			},
			{
				"x": -2.7733191824,
				"y": 0.5342112147,
				"z": 0.7285877917,
				"element": "H" 
			},
			{
				"x": -2.4654908819,
				"y": 2.1184812906,
				"z": 0.0643720287,
				"element": "H" 
			},
			{
				"x": -0.234405491,
				"y": 2.1937758164,
				"z": 0.7822925797,
				"element": "H" 
			},
			{
				"x": -1.2902792881,
				"y": -1.4350949194,
				"z": 1.0455434104,
				"element": "H" 
			},
			{
				"x": -0.6969641011,
				"y": -1.1359768231,
				"z": 2.6882468442,
				"element": "H" 
			},
			{
				"x": 0.3114514129,
				"y": -1.9943682319,
				"z": 1.5351486678,
				"element": "H" 
			},
			{
				"x": 2.3356010351,
				"y": 0.7189503814,
				"z": 1.4231911031,
				"element": "H" 
			},
			{
				"x": 1.7435627073,
				"y": -0.386672686,
				"z": 2.6422462019,
				"element": "H" 
			},
			{
				"x": 2.050541774,
				"y": 1.6545468118,
				"z": 3.7968624353,
				"element": "H" 
			},
			{
				"x": 1.3807663954,
				"y": 2.6339685666,
				"z": 2.5046845929,
				"element": "H" 
			},
			{
				"x": -0.217147082,
				"y": 2.3355876946,
				"z": 4.4859580444,
				"element": "H" 
			},
			{
				"x": -0.2561318242,
				"y": 0.6219594556,
				"z": 4.1258005692,
				"element": "H" 
			},
			{
				"x": -3.4316594223,
				"y": 1.4994346002,
				"z": 2.5984170633,
				"element": "H" 
			},
			{
				"x": -2.7025568511,
				"y": 1.4871276031,
				"z": 4.2002817555,
				"element": "H" 
			},
			{
				"x": -2.474943221,
				"y": 0.1051649816,
				"z": 3.1187001823,
				"element": "H" 
			},
			{
				"x": -2.1863953146,
				"y": 4.8140641978,
				"z": 3.4579242093,
				"element": "H" 
			},
			{
				"x": 1.1691185933,
				"y": 1.0022100528,
				"z": -0.5418182997,
				"element": "H" 
			},
			{
				"x": 2.2624216566,
				"y": -1.3520300417,
				"z": 0.3743266912,
				"element": "H" 
			},
			{
				"x": 2.6222205466,
				"y": -0.5574685091,
				"z": -1.1408435582,
				"element": "H" 
			},
			{
				"x": 0.7314233266,
				"y": -2.9112891498,
				"z": -0.737992934,
				"element": "H" 
			},
			{
				"x": 2.2478379333,
				"y": -2.8749320056,
				"z": -1.6175188453,
				"element": "H" 
			}
		],
		 "valence_orbital": [ 
			{
				"type": "occ",
				"energy": -0.28328,
				"method": "rhf"
			},
			{
				"type": "occ",
				"energy": -0.27829,
				"method": "rhf"
			},
			{
				"type": "occ",
				"energy": -0.26609,
				"method": "rhf"
			},
			{
				"type": "occ",
				"energy": -0.26185,
				"method": "rhf"
			},
			{
				"type": "occ",
				"energy": -0.19633,
				"method": "rhf"
			},
			{
				"type": "unocc",
				"energy": -0.00211,
				"method": "rhf"
			},
			{
				"type": "unocc",
				"energy": 0.01096,
				"method": "rhf"
			},
			{
				"type": "unocc",
				"energy": 0.0643,
				"method": "rhf"
			},
			{
				"type": "unocc",
				"energy": 0.07624,
				"method": "rhf"
			},
			{
				"type": "unocc",
				"energy": 0.08571,
				"method": "rhf"
			}
		],
		"cosmo_sigma_profile": { 
			"-0.025": 0.0,
			"-0.024": 0.0,
			"-0.023": 0.0,
			"-0.022": 0.0,
			"-0.021": 0.0,
			"-0.02": 0.0,
			"-0.019": 0.0,
			"-0.018": 0.362140441344,
			"-0.017": 0.884277074656,
			"-0.016": 0.610103633958,
			"-0.015": 0.869433486607,
			"-0.014": 1.12017060045,
			"-0.013": 0.91510318354,
			"-0.012": 0.324147628317,
			"-0.011": 0.36830849775,
			"-0.01": 0.761720285911,
			"-0.009": 0.815099462836,
			"-0.008": 0.218677853966,
			"-0.007": 0.920859991784,
			"-0.006": 1.45468275914,
			"-0.005": 1.32648526959,
			"-0.004": 5.03405528023,
			"-0.003": 27.769424035,
			"-0.002": 67.1007964368,
			"-0.001": 67.261964141,
			"0.0": 56.7248978262,
			"0.001": 43.4677021313,
			"0.002": 22.1118755485,
			"0.003": 10.3566656662,
			"0.004": 8.32651793855,
			"0.005": 7.49893212509,
			"0.006": 7.23261489635,
			"0.007": 5.61850459301,
			"0.008": 3.58373456347,
			"0.009": 1.95272212616,
			"0.01": 1.91712045665,
			"0.011": 2.27100934867,
			"0.012": 4.54064877362,
			"0.013": 0.387966970503,
			"0.014": 0.0,
			"0.015": 0.0,
			"0.016": 0.0,
			"0.017": 0.0,
			"0.018": 0.0,
			"0.019": 0.0,
			"0.02": 0.0,
			"0.021": 0.0,
			"0.022": 0.0,
			"0.023": 0.0,
			"0.024": 0.0,
			"0.025": 0.0
		}
	}
}
