{
	 "smiles": "CC1=NC(=C(O1)C1=CC=C(C=C1)S(=O)(=O)NN)C1=CC=C(C=C1)S(=O)(=O)NN", 
	 "Tm": 452.15, 
	 "num_atms": 45, 
	 "gaussian": { 
		 "optdone": 1, 
		 "sigma_profile": "yes", 
		 "theory": "DFT", 
		 "functional": "B3LYP", 
		 "basiset": "6-31G**", 
		 "properties": { 
			 "R2extent": 18062.5257, 
			 "electric_dipole_moment_norm": 4.84979373891, 
			 "electric_quadrupole_moment_norm": 57.4638390353, 
			 "total_energy": -2065.99225883, 
			 "HOMO_LUMO_gap": 0.15012, 
			 "cosmo_polarized_energy": -37.03, 
			 "cosmo_cavitation_energy": 53.5, 
			 "cosmo_dispersion_energy": -38.22, 
			 "cosmo_repulsion_energy": 2.85, 
			 "cosmo_total_nonelectrostatic_energy": 18.12, 
			 "SMD_solvation_energy": 7.55 
		},
		"coords": [
			{
				"x": -0.8047590291,
				"y": 5.1587411567,
				"z": -2.8948750953,
				"element": "C" 
			},
			{
				"x": -0.7283641754,
				"y": 3.7768841747,
				"z": -2.3519250355,
				"element": "C" 
			},
			{
				"x": -1.5456998842,
				"y": 2.7877777266,
				"z": -2.5359141059,
				"element": "N" 
			},
			{
				"x": -1.0086960685,
				"y": 1.7195059398,
				"z": -1.8190754114,
				"element": "C" 
			},
			{
				"x": 0.1408131987,
				"y": 2.1464999127,
				"z": -1.1877197472,
				"element": "C" 
			},
			{
				"x": 0.3249070475,
				"y": 3.4665670451,
				"z": -1.5510065447,
				"element": "O" 
			},
			{
				"x": 1.1198076245,
				"y": 1.607287968,
				"z": -0.2489723701,
				"element": "C" 
			},
			{
				"x": 0.7864032028,
				"y": 0.5674966596,
				"z": 0.6424012729,
				"element": "C" 
			},
			{
				"x": 1.7223499631,
				"y": 0.0799680828,
				"z": 1.545120812,
				"element": "C" 
			},
			{
				"x": 3.0050367177,
				"y": 0.6364015464,
				"z": 1.5683154374,
				"element": "C" 
			},
			{
				"x": 3.353464875,
				"y": 1.6828331415,
				"z": 0.7133997046,
				"element": "C" 
			},
			{
				"x": 2.4111893092,
				"y": 2.1650930296,
				"z": -0.1901500419,
				"element": "C" 
			},
			{
				"x": 4.2076174988,
				"y": 0.020997499,
				"z": 2.7360914691,
				"element": "S" 
			},
			{
				"x": 3.5640005165,
				"y": -0.2817855438,
				"z": 4.0186410893,
				"element": "O" 
			},
			{
				"x": 5.388597132,
				"y": 0.899047721,
				"z": 2.6938297376,
				"element": "O" 
			},
			{
				"x": 4.5527974833,
				"y": -1.5316166201,
				"z": 2.043307078,
				"element": "N" 
			},
			{
				"x": 5.3561784631,
				"y": -2.3633531907,
				"z": 2.8666276347,
				"element": "N" 
			},
			{
				"x": -1.6709610756,
				"y": 0.40707915,
				"z": -1.882114785,
				"element": "C" 
			},
			{
				"x": -0.9539160005,
				"y": -0.8001231217,
				"z": -1.807801857,
				"element": "C" 
			},
			{
				"x": -1.610678207,
				"y": -2.0241919322,
				"z": -1.9004048415,
				"element": "C" 
			},
			{
				"x": -2.9953954583,
				"y": -2.0455300706,
				"z": -2.0845678129,
				"element": "C" 
			},
			{
				"x": -3.7261255618,
				"y": -0.8586711073,
				"z": -2.1924684076,
				"element": "C" 
			},
			{
				"x": -3.0610615585,
				"y": 0.3595166226,
				"z": -2.0921629084,
				"element": "C" 
			},
			{
				"x": -3.8407980504,
				"y": -3.6247641384,
				"z": -2.190342265,
				"element": "S" 
			},
			{
				"x": -4.9778844984,
				"y": -3.4573485913,
				"z": -3.0888964495,
				"element": "O" 
			},
			{
				"x": -2.8334290121,
				"y": -4.6747823343,
				"z": -2.3698439474,
				"element": "O" 
			},
			{
				"x": -4.4607403832,
				"y": -3.9397303838,
				"z": -0.6336307694,
				"element": "N" 
			},
			{
				"x": -5.2667759646,
				"y": -2.9220312858,
				"z": -0.0979862513,
				"element": "N" 
			},
			{
				"x": -1.7044039612,
				"y": 5.2499401616,
				"z": -3.5036710051,
				"element": "H" 
			},
			{
				"x": -0.8401290676,
				"y": 5.8960602041,
				"z": -2.0862318777,
				"element": "H" 
			},
			{
				"x": 0.0703411005,
				"y": 5.3854676474,
				"z": -3.5127407552,
				"element": "H" 
			},
			{
				"x": -0.2160544472,
				"y": 0.1558729225,
				"z": 0.6376189369,
				"element": "H" 
			},
			{
				"x": 1.46126716,
				"y": -0.7096062958,
				"z": 2.2409953914,
				"element": "H" 
			},
			{
				"x": 4.3481012461,
				"y": 2.1115621374,
				"z": 0.7681771696,
				"element": "H" 
			},
			{
				"x": 2.6703990509,
				"y": 2.9801108565,
				"z": -0.8562696234,
				"element": "H" 
			},
			{
				"x": 5.0244873331,
				"y": -1.3939514847,
				"z": 1.1497901216,
				"element": "H" 
			},
			{
				"x": 6.1410113783,
				"y": -1.8463265142,
				"z": 3.2687780636,
				"element": "H" 
			},
			{
				"x": 4.7655221105,
				"y": -2.683432102,
				"z": 3.6289986239,
				"element": "H" 
			},
			{
				"x": 0.1256537132,
				"y": -0.7828462444,
				"z": -1.7048638885,
				"element": "H" 
			},
			{
				"x": -1.0595494237,
				"y": -2.9578202265,
				"z": -1.8668598285,
				"element": "H" 
			},
			{
				"x": -4.7949098089,
				"y": -0.8995691995,
				"z": -2.3663349955,
				"element": "H" 
			},
			{
				"x": -3.6071417803,
				"y": 1.2910229026,
				"z": -2.1904949649,
				"element": "H" 
			},
			{
				"x": -3.7274413928,
				"y": -4.3250676201,
				"z": -0.0403654174,
				"element": "H" 
			},
			{
				"x": -4.7919387277,
				"y": -2.3934317398,
				"z": 0.6279989334,
				"element": "H" 
			},
			{
				"x": -6.1219925881,
				"y": -3.330154461,
				"z": 0.2631995272,
				"element": "H" 
			}
		],
		 "valence_orbital": [ 
			{
				"type": "occ",
				"energy": -0.27635,
				"method": "rhf"
			},
			{
				"type": "occ",
				"energy": -0.27473,
				"method": "rhf"
			},
			{
				"type": "occ",
				"energy": -0.2672,
				"method": "rhf"
			},
			{
				"type": "occ",
				"energy": -0.26336,
				"method": "rhf"
			},
			{
				"type": "occ",
				"energy": -0.23218,
				"method": "rhf"
			},
			{
				"type": "unocc",
				"energy": -0.08206,
				"method": "rhf"
			},
			{
				"type": "unocc",
				"energy": -0.04135,
				"method": "rhf"
			},
			{
				"type": "unocc",
				"energy": -0.03602,
				"method": "rhf"
			},
			{
				"type": "unocc",
				"energy": -0.02341,
				"method": "rhf"
			},
			{
				"type": "unocc",
				"energy": -0.00359,
				"method": "rhf"
			}
		],
		"cosmo_sigma_profile": { 
			"-0.025": 0.0,
			"-0.024": 0.0,
			"-0.023": 0.0,
			"-0.022": 0.0,
			"-0.021": 0.0,
			"-0.02": 0.0,
			"-0.019": 0.0,
			"-0.018": 0.0,
			"-0.017": 0.0,
			"-0.016": 0.0221183135759,
			"-0.015": 1.72638296362,
			"-0.014": 3.32709106517,
			"-0.013": 3.73279970181,
			"-0.012": 7.42778077166,
			"-0.011": 7.53558563024,
			"-0.01": 8.44372019971,
			"-0.009": 5.70112363453,
			"-0.008": 7.77180868971,
			"-0.007": 16.110142941,
			"-0.006": 24.7138182466,
			"-0.005": 23.2002100525,
			"-0.004": 21.4048424109,
			"-0.003": 24.3215803728,
			"-0.002": 28.3473265599,
			"-0.001": 26.8958998401,
			"0.0": 26.4142872666,
			"0.001": 32.0300715157,
			"0.002": 29.0183984487,
			"0.003": 14.5973190671,
			"0.004": 11.0216803873,
			"0.005": 8.47551438505,
			"0.006": 10.1839625178,
			"0.007": 10.8713441923,
			"0.008": 10.0219926517,
			"0.009": 10.9621457488,
			"0.01": 18.7452614669,
			"0.011": 22.1187325079,
			"0.012": 8.32377119131,
			"0.013": 1.46938373438,
			"0.014": 1.048627526,
			"0.015": 0.510179061968,
			"0.016": 0.101650877795,
			"0.017": 0.0,
			"0.018": 0.0,
			"0.019": 0.0,
			"0.02": 0.0,
			"0.021": 0.0,
			"0.022": 0.0,
			"0.023": 0.0,
			"0.024": 0.0,
			"0.025": 0.0
		}
	}
}
