{
	 "smiles": "CN(N=O)C(N)=O", 
	 "Tm": 394.15, 
	 "num_atms": 12, 
	 "gaussian": { 
		 "optdone": 1, 
		 "sigma_profile": "yes", 
		 "theory": "DFT", 
		 "functional": "B3LYP", 
		 "basiset": "6-31G**", 
		 "properties": { 
			 "R2extent": 1144.6723, 
			 "electric_dipole_moment_norm": 1.11247204459, 
			 "electric_quadrupole_moment_norm": 10.7165076713, 
			 "total_energy": -393.846250509, 
			 "HOMO_LUMO_gap": 0.1713, 
			 "cosmo_polarized_energy": -12.39, 
			 "cosmo_cavitation_energy": 16.78, 
			 "cosmo_dispersion_energy": -12.34, 
			 "cosmo_repulsion_energy": 1.07, 
			 "cosmo_total_nonelectrostatic_energy": 5.51, 
			 "SMD_solvation_energy": 4.85 
		},
		"coords": [
			{
				"x": -1.9504502771,
				"y": 1.1382041936,
				"z": -1.1536345046,
				"element": "C" 
			},
			{
				"x": -0.6089362339,
				"y": 1.3830591982,
				"z": -0.6288382671,
				"element": "N" 
			},
			{
				"x": -0.3743557256,
				"y": 2.4517099151,
				"z": 0.1862464226,
				"element": "N" 
			},
			{
				"x": -1.3627384857,
				"y": 3.1290896526,
				"z": 0.4033185228,
				"element": "O" 
			},
			{
				"x": 0.4929243423,
				"y": 0.5322799023,
				"z": -0.9394958016,
				"element": "C" 
			},
			{
				"x": 1.7544377325,
				"y": 0.8757172397,
				"z": -0.3661548517,
				"element": "N" 
			},
			{
				"x": 0.3236807987,
				"y": -0.4227449666,
				"z": -1.6574414453,
				"element": "O" 
			},
			{
				"x": -2.2781442508,
				"y": 1.9998538599,
				"z": -1.7404049152,
				"element": "H" 
			},
			{
				"x": -2.6495800896,
				"y": 1.0012310476,
				"z": -0.3250311112,
				"element": "H" 
			},
			{
				"x": -1.8996367655,
				"y": 0.2448376569,
				"z": -1.7706088106,
				"element": "H" 
			},
			{
				"x": 1.9959138298,
				"y": 1.8280064478,
				"z": -0.6383571221,
				"element": "H" 
			},
			{
				"x": 1.658585125,
				"y": 0.9200558529,
				"z": 0.6478018841,
				"element": "H" 
			}
		],
		 "valence_orbital": [ 
			{
				"type": "occ",
				"energy": -0.40059,
				"method": "rhf"
			},
			{
				"type": "occ",
				"energy": -0.30811,
				"method": "rhf"
			},
			{
				"type": "occ",
				"energy": -0.30054,
				"method": "rhf"
			},
			{
				"type": "occ",
				"energy": -0.29098,
				"method": "rhf"
			},
			{
				"type": "occ",
				"energy": -0.25543,
				"method": "rhf"
			},
			{
				"type": "unocc",
				"energy": -0.08413,
				"method": "rhf"
			},
			{
				"type": "unocc",
				"energy": 0.0046,
				"method": "rhf"
			},
			{
				"type": "unocc",
				"energy": 0.07151,
				"method": "rhf"
			},
			{
				"type": "unocc",
				"energy": 0.1091,
				"method": "rhf"
			},
			{
				"type": "unocc",
				"energy": 0.14019,
				"method": "rhf"
			}
		],
		"cosmo_sigma_profile": { 
			"-0.025": 0.0,
			"-0.024": 0.0,
			"-0.023": 0.0,
			"-0.022": 0.0,
			"-0.021": 0.0,
			"-0.02": 0.0,
			"-0.019": 0.0,
			"-0.018": 0.0,
			"-0.017": 0.0,
			"-0.016": 0.0,
			"-0.015": 0.0,
			"-0.014": 0.720095440784,
			"-0.013": 3.39393721274,
			"-0.012": 2.66236214589,
			"-0.011": 2.9078091254,
			"-0.01": 2.54356922235,
			"-0.009": 2.59946663502,
			"-0.008": 2.41127912391,
			"-0.007": 5.00160409594,
			"-0.006": 8.29476952543,
			"-0.005": 11.2595043091,
			"-0.004": 9.91123110632,
			"-0.003": 10.940398385,
			"-0.002": 5.17856460566,
			"-0.001": 3.76834856485,
			"0.0": 4.00458059771,
			"0.001": 3.12438725521,
			"0.002": 3.42756874815,
			"0.003": 3.99430412973,
			"0.004": 3.78703459815,
			"0.005": 4.91635758331,
			"0.006": 5.20520457516,
			"0.007": 5.69569095954,
			"0.008": 6.97383558429,
			"0.009": 4.48176947052,
			"0.01": 5.78652139745,
			"0.011": 3.29308167232,
			"0.012": 2.13490951541,
			"0.013": 1.75913503829,
			"0.014": 0.88128322377,
			"0.015": 0.789767639207,
			"0.016": 0.966588576868,
			"0.017": 0.12224038953,
			"0.018": 0.0,
			"0.019": 0.0,
			"0.02": 0.0,
			"0.021": 0.0,
			"0.022": 0.0,
			"0.023": 0.0,
			"0.024": 0.0,
			"0.025": 0.0
		}
	}
}
