{
	 "smiles": "NC1=CC(=C(OCC(F)(F)F)C=C1)C(F)(F)F", 
	 "Tm": 322.15, 
	 "num_atms": 24, 
	 "gaussian": { 
		 "optdone": 1, 
		 "sigma_profile": "yes", 
		 "theory": "DFT", 
		 "functional": "B3LYP", 
		 "basiset": "6-31G**", 
		 "properties": { 
			 "R2extent": 5040.3617, 
			 "electric_dipole_moment_norm": 4.74761781423, 
			 "electric_quadrupole_moment_norm": 18.0148479236, 
			 "total_energy": -1076.19298697, 
			 "HOMO_LUMO_gap": 0.18827, 
			 "cosmo_polarized_energy": -11.1, 
			 "cosmo_cavitation_energy": 31.0, 
			 "cosmo_dispersion_energy": -21.41, 
			 "cosmo_repulsion_energy": 1.55, 
			 "cosmo_total_nonelectrostatic_energy": 11.14, 
			 "SMD_solvation_energy": 7.49 
		},
		"coords": [
			{
				"x": -2.2209785956,
				"y": 2.1145676168,
				"z": 4.2714774935,
				"element": "N" 
			},
			{
				"x": -1.4128565001,
				"y": 1.4166981469,
				"z": 3.3766004576,
				"element": "C" 
			},
			{
				"x": -1.9131661251,
				"y": 1.0084329985,
				"z": 2.1291348046,
				"element": "C" 
			},
			{
				"x": -1.127533114,
				"y": 0.260969539,
				"z": 1.2536317818,
				"element": "C" 
			},
			{
				"x": 0.1783342629,
				"y": -0.1019561289,
				"z": 1.6137873756,
				"element": "C" 
			},
			{
				"x": 0.9223865372,
				"y": -0.9014044999,
				"z": 0.7633242825,
				"element": "O" 
			},
			{
				"x": 1.8854896217,
				"y": -0.2568024048,
				"z": -0.0540711573,
				"element": "C" 
			},
			{
				"x": 3.2911021892,
				"y": -0.6685253737,
				"z": 0.3526850757,
				"element": "C" 
			},
			{
				"x": 3.5947226558,
				"y": -0.2719139098,
				"z": 1.609880736,
				"element": "F" 
			},
			{
				"x": 4.1852170071,
				"y": -0.0928984533,
				"z": -0.4817698792,
				"element": "F" 
			},
			{
				"x": 3.4617575893,
				"y": -1.9989378661,
				"z": 0.294743133,
				"element": "F" 
			},
			{
				"x": 0.6828461081,
				"y": 0.3002064116,
				"z": 2.8496607611,
				"element": "C" 
			},
			{
				"x": -0.1003279763,
				"y": 1.0512974522,
				"z": 3.7211001,
				"element": "C" 
			},
			{
				"x": -1.6816919947,
				"y": -0.1670742773,
				"z": -0.0804436689,
				"element": "C" 
			},
			{
				"x": -2.9162985973,
				"y": 0.3403681302,
				"z": -0.299181888,
				"element": "F" 
			},
			{
				"x": -0.8988782076,
				"y": 0.2606359573,
				"z": -1.1056654582,
				"element": "F" 
			},
			{
				"x": -1.7770145349,
				"y": -1.5054393944,
				"z": -0.1906600134,
				"element": "F" 
			},
			{
				"x": -2.9929007767,
				"y": 2.6207765078,
				"z": 3.8610261921,
				"element": "H" 
			},
			{
				"x": -1.7321651625,
				"y": 2.6602600931,
				"z": 4.9670309895,
				"element": "H" 
			},
			{
				"x": -2.9233800068,
				"y": 1.2745567348,
				"z": 1.8376806561,
				"element": "H" 
			},
			{
				"x": 1.8143195811,
				"y": 0.833136476,
				"z": 0.0051670581,
				"element": "H" 
			},
			{
				"x": 1.7318643832,
				"y": -0.5650929776,
				"z": -1.0924311329,
				"element": "H" 
			},
			{
				"x": 1.692923233,
				"y": 0.0143619195,
				"z": 3.1188741513,
				"element": "H" 
			},
			{
				"x": 0.3047284233,
				"y": 1.3511773021,
				"z": 4.6841181493,
				"element": "H" 
			}
		],
		 "valence_orbital": [ 
			{
				"type": "occ",
				"energy": -0.36014,
				"method": "rhf"
			},
			{
				"type": "occ",
				"energy": -0.31557,
				"method": "rhf"
			},
			{
				"type": "occ",
				"energy": -0.29155,
				"method": "rhf"
			},
			{
				"type": "occ",
				"energy": -0.27057,
				"method": "rhf"
			},
			{
				"type": "occ",
				"energy": -0.21558,
				"method": "rhf"
			},
			{
				"type": "unocc",
				"energy": -0.02731,
				"method": "rhf"
			},
			{
				"type": "unocc",
				"energy": -0.00228,
				"method": "rhf"
			},
			{
				"type": "unocc",
				"energy": 0.06423,
				"method": "rhf"
			},
			{
				"type": "unocc",
				"energy": 0.08329,
				"method": "rhf"
			},
			{
				"type": "unocc",
				"energy": 0.10261,
				"method": "rhf"
			}
		],
		"cosmo_sigma_profile": { 
			"-0.025": 0.0,
			"-0.024": 0.0,
			"-0.023": 0.0,
			"-0.022": 0.0,
			"-0.021": 0.0,
			"-0.02": 0.0,
			"-0.019": 0.0,
			"-0.018": 0.0,
			"-0.017": 0.0,
			"-0.016": 0.0,
			"-0.015": 0.0,
			"-0.014": 0.0,
			"-0.013": 1.46707736716,
			"-0.012": 3.04667015054,
			"-0.011": 3.43948418702,
			"-0.01": 3.04673842422,
			"-0.009": 4.91498306041,
			"-0.008": 6.39942080849,
			"-0.007": 7.96722239724,
			"-0.006": 7.80693565344,
			"-0.005": 9.38296756334,
			"-0.004": 8.29507916677,
			"-0.003": 8.24151351075,
			"-0.002": 10.1815427802,
			"-0.001": 11.9687063631,
			"0.0": 15.4827568122,
			"0.001": 19.067824124,
			"0.002": 38.5668212006,
			"0.003": 55.445697445,
			"0.004": 14.7158059591,
			"0.005": 5.02394047676,
			"0.006": 2.66894443658,
			"0.007": 2.85146370867,
			"0.008": 1.93115267911,
			"0.009": 2.16446305956,
			"0.01": 1.29570409372,
			"0.011": 0.326647583722,
			"0.012": 0.869596691302,
			"0.013": 0.514298883333,
			"0.014": 0.287443812661,
			"0.015": 0.0,
			"0.016": 0.0,
			"0.017": 0.0,
			"0.018": 0.0,
			"0.019": 0.0,
			"0.02": 0.0,
			"0.021": 0.0,
			"0.022": 0.0,
			"0.023": 0.0,
			"0.024": 0.0,
			"0.025": 0.0
		}
	}
}
