{
	 "smiles": "CC(C)(N)C#C", 
	 "Tm": 291.15, 
	 "num_atms": 15, 
	 "gaussian": { 
		 "optdone": 1, 
		 "sigma_profile": "yes", 
		 "theory": "DFT", 
		 "functional": "B3LYP", 
		 "basiset": "6-31G**", 
		 "properties": { 
			 "R2extent": 1193.5927, 
			 "electric_dipole_moment_norm": 0.667224857151, 
			 "electric_quadrupole_moment_norm": 2.85979311664, 
			 "total_energy": -250.636851392, 
			 "HOMO_LUMO_gap": 0.29155, 
			 "cosmo_polarized_energy": -6.45, 
			 "cosmo_cavitation_energy": 18.5, 
			 "cosmo_dispersion_energy": -12.7, 
			 "cosmo_repulsion_energy": 1.1, 
			 "cosmo_total_nonelectrostatic_energy": 6.9, 
			 "SMD_solvation_energy": 4.1 
		},
		"coords": [
			{
				"x": 0.3715741583,
				"y": -0.5892869715,
				"z": 0.943379543,
				"element": "C" 
			},
			{
				"x": -1.1649843522,
				"y": -0.5237575263,
				"z": 1.0408716704,
				"element": "C" 
			},
			{
				"x": -1.5913450094,
				"y": 0.619559642,
				"z": 1.9819697206,
				"element": "C" 
			},
			{
				"x": -1.6883978477,
				"y": -0.215338217,
				"z": -0.3073503991,
				"element": "N" 
			},
			{
				"x": -1.6852390516,
				"y": -1.8122908755,
				"z": 1.5570661697,
				"element": "C" 
			},
			{
				"x": -2.1291767982,
				"y": -2.8677885508,
				"z": 1.9462584984,
				"element": "C" 
			},
			{
				"x": 0.6835544926,
				"y": -1.3945759436,
				"z": 0.2706254293,
				"element": "H" 
			},
			{
				"x": 0.7492917413,
				"y": 0.358808224,
				"z": 0.5505798017,
				"element": "H" 
			},
			{
				"x": 0.8161660621,
				"y": -0.7777921897,
				"z": 1.9242658756,
				"element": "H" 
			},
			{
				"x": -1.1973405176,
				"y": 0.4618209039,
				"z": 2.989544228,
				"element": "H" 
			},
			{
				"x": -2.6822876903,
				"y": 0.6785696007,
				"z": 2.0512164395,
				"element": "H" 
			},
			{
				"x": -1.2153075233,
				"y": 1.5688434925,
				"z": 1.590435135,
				"element": "H" 
			},
			{
				"x": -1.4457666965,
				"y": -0.9763491321,
				"z": -0.939548709,
				"element": "H" 
			},
			{
				"x": -2.7063586476,
				"y": -0.2002136465,
				"z": -0.272597538,
				"element": "H" 
			},
			{
				"x": -2.5182823198,
				"y": -3.7971088101,
				"z": 2.2924841349,
				"element": "H" 
			}
		],
		 "valence_orbital": [ 
			{
				"type": "occ",
				"energy": -0.36485,
				"method": "rhf"
			},
			{
				"type": "occ",
				"energy": -0.3473,
				"method": "rhf"
			},
			{
				"type": "occ",
				"energy": -0.27856,
				"method": "rhf"
			},
			{
				"type": "occ",
				"energy": -0.26158,
				"method": "rhf"
			},
			{
				"type": "occ",
				"energy": -0.2384,
				"method": "rhf"
			},
			{
				"type": "unocc",
				"energy": 0.05315,
				"method": "rhf"
			},
			{
				"type": "unocc",
				"energy": 0.05877,
				"method": "rhf"
			},
			{
				"type": "unocc",
				"energy": 0.08037,
				"method": "rhf"
			},
			{
				"type": "unocc",
				"energy": 0.12834,
				"method": "rhf"
			},
			{
				"type": "unocc",
				"energy": 0.1403,
				"method": "rhf"
			}
		],
		"cosmo_sigma_profile": { 
			"-0.025": 0.0,
			"-0.024": 0.0,
			"-0.023": 0.0,
			"-0.022": 0.0,
			"-0.021": 0.0,
			"-0.02": 0.0,
			"-0.019": 0.0,
			"-0.018": 0.0,
			"-0.017": 0.0,
			"-0.016": 0.0,
			"-0.015": 0.0,
			"-0.014": 0.0,
			"-0.013": 0.0,
			"-0.012": 0.0129104806587,
			"-0.011": 1.17657559734,
			"-0.01": 2.27142799822,
			"-0.009": 3.67358093788,
			"-0.008": 3.44373782022,
			"-0.007": 5.01582971757,
			"-0.006": 3.15235522168,
			"-0.005": 4.25040022891,
			"-0.004": 9.4798886457,
			"-0.003": 13.942160787,
			"-0.002": 11.6899501629,
			"-0.001": 13.9644904186,
			"0.0": 15.344399162,
			"0.001": 13.2380164055,
			"0.002": 5.56358568838,
			"0.003": 4.64620930165,
			"0.004": 4.19879548528,
			"0.005": 5.91650464391,
			"0.006": 6.60032455191,
			"0.007": 8.42651119783,
			"0.008": 2.66010535753,
			"0.009": 0.959529993651,
			"0.01": 0.8985899381,
			"0.011": 0.557871898786,
			"0.012": 0.299791647716,
			"0.013": 0.495870297295,
			"0.014": 0.820491970559,
			"0.015": 0.364653599445,
			"0.016": 0.940655989058,
			"0.017": 0.191938154783,
			"0.018": 0.610394960759,
			"0.019": 0.178752573248,
			"0.02": 0.0,
			"0.021": 0.0,
			"0.022": 0.0,
			"0.023": 0.0,
			"0.024": 0.0,
			"0.025": 0.0
		}
	}
}
