{
	 "smiles": "[O-][N+](=O)C1=CC2=C(C=C1)N=CO2", 
	 "Tm": 424.15, 
	 "num_atms": 16, 
	 "gaussian": { 
		 "optdone": 1, 
		 "sigma_profile": "yes", 
		 "theory": "DFT", 
		 "functional": "B3LYP", 
		 "basiset": "6-31G**", 
		 "properties": { 
			 "R2extent": 2506.52, 
			 "electric_dipole_moment_norm": 3.81806299188, 
			 "electric_quadrupole_moment_norm": 13.0349739068, 
			 "total_energy": -604.217992735, 
			 "HOMO_LUMO_gap": 0.17674, 
			 "cosmo_polarized_energy": -9.97, 
			 "cosmo_cavitation_energy": 21.75, 
			 "cosmo_dispersion_energy": -16.45, 
			 "cosmo_repulsion_energy": 1.27, 
			 "cosmo_total_nonelectrostatic_energy": 6.58, 
			 "SMD_solvation_energy": 5.1 
		},
		"coords": [
			{
				"x": 2.1065236402,
				"y": 1.4212011308,
				"z": -3.0641297351,
				"element": "O" 
			},
			{
				"x": 2.2355464787,
				"y": 1.6285819446,
				"z": -1.8576193149,
				"element": "N" 
			},
			{
				"x": 2.8109663767,
				"y": 2.6009725422,
				"z": -1.3709241241,
				"element": "O" 
			},
			{
				"x": 1.6587517221,
				"y": 0.6404931898,
				"z": -0.9319584582,
				"element": "C" 
			},
			{
				"x": 1.0054963545,
				"y": -0.463437639,
				"z": -1.4823193059,
				"element": "C" 
			},
			{
				"x": 0.492873386,
				"y": -1.3427818414,
				"z": -0.5468913229,
				"element": "C" 
			},
			{
				"x": 0.602886179,
				"y": -1.169263411,
				"z": 0.8426325148,
				"element": "C" 
			},
			{
				"x": 1.264824647,
				"y": -0.050236241,
				"z": 1.3589145206,
				"element": "C" 
			},
			{
				"x": 1.7949687458,
				"y": 0.8586141246,
				"z": 0.44981446,
				"element": "C" 
			},
			{
				"x": -0.0246939842,
				"y": -2.2409620793,
				"z": 1.4780892806,
				"element": "N" 
			},
			{
				"x": -0.4573639193,
				"y": -2.9661714634,
				"z": 0.5009039505,
				"element": "C" 
			},
			{
				"x": -0.1959466712,
				"y": -2.510313326,
				"z": -0.7623974523,
				"element": "O" 
			},
			{
				"x": 0.9225203649,
				"y": -0.5940881126,
				"z": -2.5527745067,
				"element": "H" 
			},
			{
				"x": 1.3580936154,
				"y": 0.0979158435,
				"z": 2.4287034629,
				"element": "H" 
			},
			{
				"x": 2.3195478419,
				"y": 1.7461954197,
				"z": 0.7792658959,
				"element": "H" 
			},
			{
				"x": -1.0048947773,
				"y": -3.8964200815,
				"z": 0.5599901349,
				"element": "H" 
			}
		],
		 "valence_orbital": [ 
			{
				"type": "occ",
				"energy": -0.31398,
				"method": "rhf"
			},
			{
				"type": "occ",
				"energy": -0.31224,
				"method": "rhf"
			},
			{
				"type": "occ",
				"energy": -0.29517,
				"method": "rhf"
			},
			{
				"type": "occ",
				"energy": -0.27845,
				"method": "rhf"
			},
			{
				"type": "occ",
				"energy": -0.27324,
				"method": "rhf"
			},
			{
				"type": "unocc",
				"energy": -0.0965,
				"method": "rhf"
			},
			{
				"type": "unocc",
				"energy": -0.04233,
				"method": "rhf"
			},
			{
				"type": "unocc",
				"energy": -0.01525,
				"method": "rhf"
			},
			{
				"type": "unocc",
				"energy": 0.02174,
				"method": "rhf"
			},
			{
				"type": "unocc",
				"energy": 0.07738,
				"method": "rhf"
			}
		],
		"cosmo_sigma_profile": { 
			"-0.025": 0.0,
			"-0.024": 0.0,
			"-0.023": 0.0,
			"-0.022": 0.0,
			"-0.021": 0.0,
			"-0.02": 0.0,
			"-0.019": 0.0,
			"-0.018": 0.0,
			"-0.017": 0.0,
			"-0.016": 0.0,
			"-0.015": 0.0,
			"-0.014": 0.0,
			"-0.013": 0.121221149677,
			"-0.012": 2.39099860702,
			"-0.011": 1.59984166532,
			"-0.01": 2.03220679028,
			"-0.009": 2.83406623733,
			"-0.008": 4.83471933495,
			"-0.007": 5.96677482036,
			"-0.006": 8.28759866236,
			"-0.005": 8.13029291597,
			"-0.004": 10.9059097778,
			"-0.003": 10.4437721233,
			"-0.002": 16.1524930907,
			"-0.001": 17.701014932,
			"0.0": 15.1658988767,
			"0.001": 11.1415442068,
			"0.002": 7.21121187855,
			"0.003": 4.51631422092,
			"0.004": 4.92402962272,
			"0.005": 6.12560567098,
			"0.006": 6.20998209612,
			"0.007": 9.15479796074,
			"0.008": 8.26822598201,
			"0.009": 5.14847124201,
			"0.01": 3.24107418364,
			"0.011": 1.12228346465,
			"0.012": 1.1172129846,
			"0.013": 0.863936421592,
			"0.014": 0.951582893983,
			"0.015": 0.119660692949,
			"0.016": 0.0,
			"0.017": 0.0,
			"0.018": 0.0,
			"0.019": 0.0,
			"0.02": 0.0,
			"0.021": 0.0,
			"0.022": 0.0,
			"0.023": 0.0,
			"0.024": 0.0,
			"0.025": 0.0
		}
	}
}
