{
	 "smiles": "CC(=O)C1=CC=C(Br)C=C1", 
	 "Tm": 323.95, 
	 "num_atms": 17, 
	 "gaussian": { 
		 "optdone": 1, 
		 "sigma_profile": "yes", 
		 "theory": "DFT", 
		 "functional": "B3LYP", 
		 "basiset": "6-31G**", 
		 "properties": { 
			 "R2extent": 4247.064, 
			 "electric_dipole_moment_norm": 2.26085242552, 
			 "electric_quadrupole_moment_norm": 12.3445602255, 
			 "total_energy": -2955.70190357, 
			 "HOMO_LUMO_gap": 0.18827, 
			 "cosmo_polarized_energy": -7.84, 
			 "cosmo_cavitation_energy": 23.63, 
			 "cosmo_dispersion_energy": -17.76, 
			 "cosmo_repulsion_energy": 1.43, 
			 "cosmo_total_nonelectrostatic_energy": 7.3, 
			 "SMD_solvation_energy": 3.65 
		},
		"coords": [
			{
				"x": 2.1100386037,
				"y": 2.2430805745,
				"z": -0.9451341204,
				"element": "C" 
			},
			{
				"x": 1.8794936961,
				"y": 0.7416022325,
				"z": -0.9582417624,
				"element": "C" 
			},
			{
				"x": 2.800576401,
				"y": -0.0322249205,
				"z": -0.7470949667,
				"element": "O" 
			},
			{
				"x": 0.4997730515,
				"y": 0.2226105112,
				"z": -1.2368178713,
				"element": "C" 
			},
			{
				"x": -0.5958860295,
				"y": 1.0617207081,
				"z": -1.4868115259,
				"element": "C" 
			},
			{
				"x": -1.8592943504,
				"y": 0.5299824897,
				"z": -1.7407089401,
				"element": "C" 
			},
			{
				"x": -2.0227336335,
				"y": -0.8547846664,
				"z": -1.7434222541,
				"element": "C" 
			},
			{
				"x": -3.7487558172,
				"y": -1.5909824587,
				"z": -2.0901696218,
				"element": "Br" 
			},
			{
				"x": -0.9485256009,
				"y": -1.7128501325,
				"z": -1.4975156354,
				"element": "C" 
			},
			{
				"x": 0.3053596411,
				"y": -1.1674797704,
				"z": -1.2459087966,
				"element": "C" 
			},
			{
				"x": 3.1616686438,
				"y": 2.4319715558,
				"z": -0.7288913299,
				"element": "H" 
			},
			{
				"x": 1.8516638099,
				"y": 2.6896787791,
				"z": -1.9117727524,
				"element": "H" 
			},
			{
				"x": 1.4893217941,
				"y": 2.7302291157,
				"z": -0.1848736408,
				"element": "H" 
			},
			{
				"x": -0.4750485069,
				"y": 2.1400917758,
				"z": -1.486077033,
				"element": "H" 
			},
			{
				"x": -2.7054968281,
				"y": 1.1791163966,
				"z": -1.9337987466,
				"element": "H" 
			},
			{
				"x": -1.0969375263,
				"y": -2.786627379,
				"z": -1.5042174798,
				"element": "H" 
			},
			{
				"x": 1.1607826516,
				"y": -1.8057348117,
				"z": -1.0511435229,
				"element": "H" 
			}
		],
		 "valence_orbital": [ 
			{
				"type": "occ",
				"energy": -0.31828,
				"method": "rhf"
			},
			{
				"type": "occ",
				"energy": -0.29556,
				"method": "rhf"
			},
			{
				"type": "occ",
				"energy": -0.2745,
				"method": "rhf"
			},
			{
				"type": "occ",
				"energy": -0.25487,
				"method": "rhf"
			},
			{
				"type": "occ",
				"energy": -0.25302,
				"method": "rhf"
			},
			{
				"type": "unocc",
				"energy": -0.06475,
				"method": "rhf"
			},
			{
				"type": "unocc",
				"energy": -0.02353,
				"method": "rhf"
			},
			{
				"type": "unocc",
				"energy": -0.00048,
				"method": "rhf"
			},
			{
				"type": "unocc",
				"energy": 0.02774,
				"method": "rhf"
			},
			{
				"type": "unocc",
				"energy": 0.09241,
				"method": "rhf"
			}
		],
		"cosmo_sigma_profile": { 
			"-0.025": 0.0,
			"-0.024": 0.0,
			"-0.023": 0.0,
			"-0.022": 0.0,
			"-0.021": 0.0,
			"-0.02": 0.0,
			"-0.019": 0.0,
			"-0.018": 0.0,
			"-0.017": 0.0,
			"-0.016": 0.0,
			"-0.015": 0.0,
			"-0.014": 0.0,
			"-0.013": 0.0,
			"-0.012": 0.0,
			"-0.011": 0.0,
			"-0.01": 0.0,
			"-0.009": 0.0,
			"-0.008": 1.31236987385,
			"-0.007": 7.39934310552,
			"-0.006": 14.1100543018,
			"-0.005": 13.3802801145,
			"-0.004": 12.5743679508,
			"-0.003": 12.0889204425,
			"-0.002": 13.8277302275,
			"-0.001": 15.5717140096,
			"0.0": 12.8439422635,
			"0.001": 19.0041912311,
			"0.002": 22.2526918263,
			"0.003": 15.1475552809,
			"0.004": 12.7077143754,
			"0.005": 3.74999477276,
			"0.006": 2.05795489039,
			"0.007": 1.34790651752,
			"0.008": 1.18428834395,
			"0.009": 1.48929138488,
			"0.01": 2.33990966519,
			"0.011": 3.09129695111,
			"0.012": 3.55641327018,
			"0.013": 1.3722510685,
			"0.014": 0.0572544571816,
			"0.015": 0.0,
			"0.016": 0.0,
			"0.017": 0.0,
			"0.018": 0.0,
			"0.019": 0.0,
			"0.02": 0.0,
			"0.021": 0.0,
			"0.022": 0.0,
			"0.023": 0.0,
			"0.024": 0.0,
			"0.025": 0.0
		}
	}
}
