{
	 "smiles": "COC(=O)C1=CN=C(C=C1)C(=O)OC", 
	 "Tm": 437.15, 
	 "num_atms": 23, 
	 "gaussian": { 
		 "optdone": 1, 
		 "sigma_profile": "yes", 
		 "theory": "DFT", 
		 "functional": "B3LYP", 
		 "basiset": "6-31G**", 
		 "properties": { 
			 "R2extent": 4279.2879, 
			 "electric_dipole_moment_norm": 2.04603949864, 
			 "electric_quadrupole_moment_norm": 19.7130922848, 
			 "total_energy": -704.037871786, 
			 "HOMO_LUMO_gap": 0.1816, 
			 "cosmo_polarized_energy": -12.72, 
			 "cosmo_cavitation_energy": 28.86, 
			 "cosmo_dispersion_energy": -21.09, 
			 "cosmo_repulsion_energy": 1.66, 
			 "cosmo_total_nonelectrostatic_energy": 9.43, 
			 "SMD_solvation_energy": 7.12 
		},
		"coords": [
			{
				"x": -3.690272435,
				"y": 2.7927733512,
				"z": -1.4324800442,
				"element": "C" 
			},
			{
				"x": -2.7992779303,
				"y": 1.7378496253,
				"z": -1.0320718002,
				"element": "O" 
			},
			{
				"x": -1.951828617,
				"y": 2.0503572254,
				"z": -0.0279516958,
				"element": "C" 
			},
			{
				"x": -1.9243094702,
				"y": 3.1371471836,
				"z": 0.513868845,
				"element": "O" 
			},
			{
				"x": -1.0608997122,
				"y": 0.9104503317,
				"z": 0.3311920045,
				"element": "C" 
			},
			{
				"x": -0.1258075058,
				"y": 1.0948233452,
				"z": 1.361882575,
				"element": "C" 
			},
			{
				"x": 0.7207555415,
				"y": 0.1493602239,
				"z": 1.7682591237,
				"element": "N" 
			},
			{
				"x": 0.6627377418,
				"y": -1.0382894168,
				"z": 1.1473865858,
				"element": "C" 
			},
			{
				"x": -0.2303128868,
				"y": -1.3278624322,
				"z": 0.1093698404,
				"element": "C" 
			},
			{
				"x": -1.109007651,
				"y": -0.3335898272,
				"z": -0.3063702271,
				"element": "C" 
			},
			{
				"x": 1.6043117863,
				"y": -2.1310298739,
				"z": 1.5798014423,
				"element": "C" 
			},
			{
				"x": 1.6127646504,
				"y": -3.2344006114,
				"z": 1.0667253223,
				"element": "O" 
			},
			{
				"x": 2.417802286,
				"y": -1.758833855,
				"z": 2.5765123465,
				"element": "O" 
			},
			{
				"x": 3.3349662752,
				"y": -2.7704706477,
				"z": 3.0230024216,
				"element": "C" 
			},
			{
				"x": -4.2934895644,
				"y": 2.3769932202,
				"z": -2.2390515009,
				"element": "H" 
			},
			{
				"x": -4.3231737818,
				"y": 3.0978757696,
				"z": -0.5956261759,
				"element": "H" 
			},
			{
				"x": -3.1246243336,
				"y": 3.65997191,
				"z": -1.7817321644,
				"element": "H" 
			},
			{
				"x": -0.0772855394,
				"y": 2.056373474,
				"z": 1.8661473483,
				"element": "H" 
			},
			{
				"x": -0.215392272,
				"y": -2.3128056044,
				"z": -0.3418918082,
				"element": "H" 
			},
			{
				"x": -1.8194111197,
				"y": -0.5091002819,
				"z": -1.1061878546,
				"element": "H" 
			},
			{
				"x": 3.9903725255,
				"y": -3.0830569421,
				"z": 2.2060401468,
				"element": "H" 
			},
			{
				"x": 2.7931222541,
				"y": -3.6445748798,
				"z": 3.3931964089,
				"element": "H" 
			},
			{
				"x": 3.9117597586,
				"y": -2.3081612875,
				"z": 3.8233788603,
				"element": "H" 
			}
		],
		 "valence_orbital": [ 
			{
				"type": "occ",
				"energy": -0.30107,
				"method": "rhf"
			},
			{
				"type": "occ",
				"energy": -0.2939,
				"method": "rhf"
			},
			{
				"type": "occ",
				"energy": -0.28389,
				"method": "rhf"
			},
			{
				"type": "occ",
				"energy": -0.27695,
				"method": "rhf"
			},
			{
				"type": "occ",
				"energy": -0.26178,
				"method": "rhf"
			},
			{
				"type": "unocc",
				"energy": -0.08018,
				"method": "rhf"
			},
			{
				"type": "unocc",
				"energy": -0.03438,
				"method": "rhf"
			},
			{
				"type": "unocc",
				"energy": 0.00394,
				"method": "rhf"
			},
			{
				"type": "unocc",
				"energy": 0.07488,
				"method": "rhf"
			},
			{
				"type": "unocc",
				"energy": 0.09539,
				"method": "rhf"
			}
		],
		"cosmo_sigma_profile": { 
			"-0.025": 0.0,
			"-0.024": 0.0,
			"-0.023": 0.0,
			"-0.022": 0.0,
			"-0.021": 0.0,
			"-0.02": 0.0,
			"-0.019": 0.0,
			"-0.018": 0.0,
			"-0.017": 0.0,
			"-0.016": 0.0,
			"-0.015": 0.0,
			"-0.014": 0.0,
			"-0.013": 0.0,
			"-0.012": 0.0,
			"-0.011": 0.0,
			"-0.01": 0.0,
			"-0.009": 0.0816055321571,
			"-0.008": 1.75948739085,
			"-0.007": 7.40728116141,
			"-0.006": 15.8409477813,
			"-0.005": 18.7398420551,
			"-0.004": 24.7477886548,
			"-0.003": 25.6019959661,
			"-0.002": 21.3514398059,
			"-0.001": 22.0192224967,
			"0.0": 15.6358473276,
			"0.001": 9.9386836447,
			"0.002": 7.62679474664,
			"0.003": 6.99935326477,
			"0.004": 7.69830467964,
			"0.005": 4.96756503326,
			"0.006": 3.71689802974,
			"0.007": 4.6217195105,
			"0.008": 4.94878944438,
			"0.009": 3.84209906764,
			"0.01": 6.04177676653,
			"0.011": 9.46012947326,
			"0.012": 4.01796091085,
			"0.013": 1.48694696001,
			"0.014": 0.295403405089,
			"0.015": 1.3687705149,
			"0.016": 0.664098642164,
			"0.017": 0.0815247100792,
			"0.018": 0.0,
			"0.019": 0.0,
			"0.02": 0.0,
			"0.021": 0.0,
			"0.022": 0.0,
			"0.023": 0.0,
			"0.024": 0.0,
			"0.025": 0.0
		}
	}
}
