{
	 "smiles": "CC1=CC(=NN1)C1=C(C)C=C(C)C=C1C", 
	 "Tm": 402.15, 
	 "num_atms": 31, 
	 "gaussian": { 
		 "optdone": 1, 
		 "sigma_profile": "yes", 
		 "theory": "DFT", 
		 "functional": "B3LYP", 
		 "basiset": "6-31G**", 
		 "properties": { 
			 "R2extent": 4850.4091, 
			 "electric_dipole_moment_norm": 2.89600356353, 
			 "electric_quadrupole_moment_norm": 16.0284231701, 
			 "total_energy": -614.538504252, 
			 "HOMO_LUMO_gap": 0.21634, 
			 "cosmo_polarized_energy": -11.11, 
			 "cosmo_cavitation_energy": 33.59, 
			 "cosmo_dispersion_energy": -23.72, 
			 "cosmo_repulsion_energy": 1.88, 
			 "cosmo_total_nonelectrostatic_energy": 11.76, 
			 "SMD_solvation_energy": 4.91 
		},
		"coords": [
			{
				"x": 3.7145315542,
				"y": 0.1784648279,
				"z": -1.7766487874,
				"element": "C" 
			},
			{
				"x": 2.6863686567,
				"y": -0.6057192625,
				"z": -1.0241196565,
				"element": "C" 
			},
			{
				"x": 1.5779883333,
				"y": -0.2169244416,
				"z": -0.2948022613,
				"element": "C" 
			},
			{
				"x": 0.9895428822,
				"y": -1.418714471,
				"z": 0.1857468538,
				"element": "C" 
			},
			{
				"x": 1.6876363015,
				"y": -2.4849205985,
				"z": -0.2196473954,
				"element": "N" 
			},
			{
				"x": 2.7038008978,
				"y": -1.9661019368,
				"z": -0.9467368922,
				"element": "N" 
			},
			{
				"x": -0.2399645976,
				"y": -1.5698391639,
				"z": 1.0086871961,
				"element": "C" 
			},
			{
				"x": -0.2721286099,
				"y": -1.0809890116,
				"z": 2.3315248104,
				"element": "C" 
			},
			{
				"x": 0.9378198692,
				"y": -0.4266564076,
				"z": 2.9620748034,
				"element": "C" 
			},
			{
				"x": -1.4431097754,
				"y": -1.224887294,
				"z": 3.0836738565,
				"element": "C" 
			},
			{
				"x": -2.5851396238,
				"y": -1.8377522011,
				"z": 2.5628251461,
				"element": "C" 
			},
			{
				"x": -3.8497896475,
				"y": -1.9536341539,
				"z": 3.3813636048,
				"element": "C" 
			},
			{
				"x": -2.5295268774,
				"y": -2.3227852397,
				"z": 1.2528577853,
				"element": "C" 
			},
			{
				"x": -1.3803005437,
				"y": -2.2014825418,
				"z": 0.4661286501,
				"element": "C" 
			},
			{
				"x": -1.3818106329,
				"y": -2.7413627744,
				"z": -0.9464771518,
				"element": "C" 
			},
			{
				"x": 3.4830206774,
				"y": 1.2443580299,
				"z": -1.7242284361,
				"element": "H" 
			},
			{
				"x": 3.7486375459,
				"y": -0.1035187331,
				"z": -2.8356485363,
				"element": "H" 
			},
			{
				"x": 4.720218017,
				"y": 0.0355155182,
				"z": -1.3635166473,
				"element": "H" 
			},
			{
				"x": 1.230211814,
				"y": 0.7938669449,
				"z": -0.1397482639,
				"element": "H" 
			},
			{
				"x": 3.3776394104,
				"y": -2.5949627048,
				"z": -1.3555280638,
				"element": "H" 
			},
			{
				"x": 1.8433047458,
				"y": -1.020227746,
				"z": 2.8024500622,
				"element": "H" 
			},
			{
				"x": 1.1332952849,
				"y": 0.5660511439,
				"z": 2.5408020094,
				"element": "H" 
			},
			{
				"x": 0.7937043495,
				"y": -0.3049955674,
				"z": 4.0393294803,
				"element": "H" 
			},
			{
				"x": -1.4581408797,
				"y": -0.8551524202,
				"z": 4.1069836944,
				"element": "H" 
			},
			{
				"x": -3.6330900671,
				"y": -1.9646792429,
				"z": 4.4539264178,
				"element": "H" 
			},
			{
				"x": -4.5239565857,
				"y": -1.1078538135,
				"z": 3.1945124884,
				"element": "H" 
			},
			{
				"x": -4.4025729181,
				"y": -2.8664707629,
				"z": 3.1379461654,
				"element": "H" 
			},
			{
				"x": -3.4053451712,
				"y": -2.8103730985,
				"z": 0.82941914,
				"element": "H" 
			},
			{
				"x": -2.3724583978,
				"y": -3.117095376,
				"z": -1.2173786946,
				"element": "H" 
			},
			{
				"x": -0.6578471873,
				"y": -3.5529129846,
				"z": -1.0622502861,
				"element": "H" 
			},
			{
				"x": -1.1016388248,
				"y": -1.9667445167,
				"z": -1.6692210916,
				"element": "H" 
			}
		],
		 "valence_orbital": [ 
			{
				"type": "occ",
				"energy": -0.27676,
				"method": "rhf"
			},
			{
				"type": "occ",
				"energy": -0.24945,
				"method": "rhf"
			},
			{
				"type": "occ",
				"energy": -0.23337,
				"method": "rhf"
			},
			{
				"type": "occ",
				"energy": -0.2222,
				"method": "rhf"
			},
			{
				"type": "occ",
				"energy": -0.21344,
				"method": "rhf"
			},
			{
				"type": "unocc",
				"energy": 0.0029,
				"method": "rhf"
			},
			{
				"type": "unocc",
				"energy": 0.01859,
				"method": "rhf"
			},
			{
				"type": "unocc",
				"energy": 0.02762,
				"method": "rhf"
			},
			{
				"type": "unocc",
				"energy": 0.07944,
				"method": "rhf"
			},
			{
				"type": "unocc",
				"energy": 0.08122,
				"method": "rhf"
			}
		],
		"cosmo_sigma_profile": { 
			"-0.025": 0.0,
			"-0.024": 0.0,
			"-0.023": 0.0,
			"-0.022": 0.0,
			"-0.021": 0.0,
			"-0.02": 0.0,
			"-0.019": 0.0,
			"-0.018": 0.0,
			"-0.017": 0.0,
			"-0.016": 0.676384619602,
			"-0.015": 1.51518633385,
			"-0.014": 1.32934498695,
			"-0.013": 0.718124420231,
			"-0.012": 0.859797504715,
			"-0.011": 1.16695556921,
			"-0.01": 1.09649997972,
			"-0.009": 0.97083948456,
			"-0.008": 1.05139092302,
			"-0.007": 0.922324643386,
			"-0.006": 2.3080626505,
			"-0.005": 10.0788476204,
			"-0.004": 22.3523282387,
			"-0.003": 28.8974606287,
			"-0.002": 26.359196721,
			"-0.001": 27.9861114201,
			"0.0": 30.6636095585,
			"0.001": 24.6624456305,
			"0.002": 14.5657034311,
			"0.003": 12.5986292004,
			"0.004": 12.8078240928,
			"0.005": 12.8457923411,
			"0.006": 10.8392381153,
			"0.007": 6.89792195016,
			"0.008": 2.09767455941,
			"0.009": 1.34522528835,
			"0.01": 1.10919076238,
			"0.011": 1.09666970738,
			"0.012": 1.35026539392,
			"0.013": 0.786910005248,
			"0.014": 0.60867521954,
			"0.015": 0.845526951268,
			"0.016": 0.966907214173,
			"0.017": 0.188187169805,
			"0.018": 0.0,
			"0.019": 0.0,
			"0.02": 0.0,
			"0.021": 0.0,
			"0.022": 0.0,
			"0.023": 0.0,
			"0.024": 0.0,
			"0.025": 0.0
		}
	}
}
