{
	 "smiles": "OC(=O)C1=C(N(N=C1)C1=NC=C(C=C1)C(F)(F)F)C(F)(F)F", 
	 "Tm": 436.15, 
	 "num_atms": 27, 
	 "gaussian": { 
		 "optdone": 1, 
		 "sigma_profile": "yes", 
		 "theory": "DFT", 
		 "functional": "B3LYP", 
		 "basiset": "6-31G**", 
		 "properties": { 
			 "R2extent": 8334.304, 
			 "electric_dipole_moment_norm": 4.00605973246, 
			 "electric_quadrupole_moment_norm": 22.935350228, 
			 "total_energy": -1335.91099241, 
			 "HOMO_LUMO_gap": 0.18903, 
			 "cosmo_polarized_energy": -13.91, 
			 "cosmo_cavitation_energy": 35.61, 
			 "cosmo_dispersion_energy": -24.83, 
			 "cosmo_repulsion_energy": 1.74, 
			 "cosmo_total_nonelectrostatic_energy": 12.52, 
			 "SMD_solvation_energy": 8.34 
		},
		"coords": [
			{
				"x": -0.9704273387,
				"y": -1.1189638275,
				"z": 4.918188557,
				"element": "O" 
			},
			{
				"x": -1.3320409178,
				"y": -1.8980493802,
				"z": 3.8851014473,
				"element": "C" 
			},
			{
				"x": -1.8927240695,
				"y": -2.9533643783,
				"z": 4.0819035164,
				"element": "O" 
			},
			{
				"x": -1.0027629161,
				"y": -1.491143334,
				"z": 2.4802942607,
				"element": "C" 
			},
			{
				"x": -0.3840862288,
				"y": -0.4161382528,
				"z": 1.8385638057,
				"element": "C" 
			},
			{
				"x": -0.357334383,
				"y": -0.7289304245,
				"z": 0.4985008382,
				"element": "N" 
			},
			{
				"x": -0.941212007,
				"y": -1.9299117709,
				"z": 0.2468856417,
				"element": "N" 
			},
			{
				"x": -1.3215555619,
				"y": -2.3841494749,
				"z": 1.4237821261,
				"element": "C" 
			},
			{
				"x": 0.24319992,
				"y": -0.0514671506,
				"z": -0.602829501,
				"element": "C" 
			},
			{
				"x": 1.3060182494,
				"y": 0.6943257346,
				"z": -0.3299840992,
				"element": "N" 
			},
			{
				"x": 1.899089336,
				"y": 1.3239553488,
				"z": -1.3483101417,
				"element": "C" 
			},
			{
				"x": 1.4634275386,
				"y": 1.2086684278,
				"z": -2.6682706902,
				"element": "C" 
			},
			{
				"x": 0.3468007222,
				"y": 0.4095417743,
				"z": -2.9349096564,
				"element": "C" 
			},
			{
				"x": -0.2895372023,
				"y": -0.2362032204,
				"z": -1.8843478688,
				"element": "C" 
			},
			{
				"x": 2.2029528795,
				"y": 1.8867224261,
				"z": -3.7891120068,
				"element": "C" 
			},
			{
				"x": 1.3524050747,
				"y": 2.3263501969,
				"z": -4.741655455,
				"element": "F" 
			},
			{
				"x": 3.0679336463,
				"y": 1.0417828587,
				"z": -4.3913414184,
				"element": "F" 
			},
			{
				"x": 2.9149573673,
				"y": 2.9441758326,
				"z": -3.3492351224,
				"element": "F" 
			},
			{
				"x": 0.100064828,
				"y": 0.9061832261,
				"z": 2.3715966299,
				"element": "C" 
			},
			{
				"x": 1.4162677368,
				"y": 0.9380446132,
				"z": 2.6039700471,
				"element": "F" 
			},
			{
				"x": -0.2315763293,
				"y": 1.9292152398,
				"z": 1.573412052,
				"element": "F" 
			},
			{
				"x": -0.507229495,
				"y": 1.1666392012,
				"z": 3.5759014339,
				"element": "F" 
			},
			{
				"x": -0.6164635916,
				"y": -0.2691543608,
				"z": 4.6191877343,
				"element": "H" 
			},
			{
				"x": -1.8124797184,
				"y": -3.3406691317,
				"z": 1.526589663,
				"element": "H" 
			},
			{
				"x": 2.7578758755,
				"y": 1.9406648888,
				"z": -1.100480245,
				"element": "H" 
			},
			{
				"x": -0.0254521473,
				"y": 0.3093973659,
				"z": -3.9489274436,
				"element": "H" 
			},
			{
				"x": -1.1577112677,
				"y": -0.8647224281,
				"z": -2.0313741046,
				"element": "H" 
			}
		],
		 "valence_orbital": [ 
			{
				"type": "occ",
				"energy": -0.31543,
				"method": "rhf"
			},
			{
				"type": "occ",
				"energy": -0.30623,
				"method": "rhf"
			},
			{
				"type": "occ",
				"energy": -0.29796,
				"method": "rhf"
			},
			{
				"type": "occ",
				"energy": -0.28326,
				"method": "rhf"
			},
			{
				"type": "occ",
				"energy": -0.27512,
				"method": "rhf"
			},
			{
				"type": "unocc",
				"energy": -0.08609,
				"method": "rhf"
			},
			{
				"type": "unocc",
				"energy": -0.0603,
				"method": "rhf"
			},
			{
				"type": "unocc",
				"energy": -0.03894,
				"method": "rhf"
			},
			{
				"type": "unocc",
				"energy": -0.00958,
				"method": "rhf"
			},
			{
				"type": "unocc",
				"energy": 0.06729,
				"method": "rhf"
			}
		],
		"cosmo_sigma_profile": { 
			"-0.025": 0.0,
			"-0.024": 0.0,
			"-0.023": 0.0,
			"-0.022": 0.0,
			"-0.021": 0.0,
			"-0.02": 0.0,
			"-0.019": 0.0,
			"-0.018": 0.0,
			"-0.017": 0.115631202591,
			"-0.016": 0.257889274227,
			"-0.015": 0.306656184632,
			"-0.014": 0.208621736901,
			"-0.013": 0.733367505236,
			"-0.012": 1.13490661399,
			"-0.011": 1.1478989928,
			"-0.01": 1.09054633713,
			"-0.009": 5.02089949506,
			"-0.008": 8.24888135198,
			"-0.007": 7.77873710872,
			"-0.006": 10.0265948781,
			"-0.005": 12.7591061609,
			"-0.004": 12.3688738853,
			"-0.003": 18.3430784223,
			"-0.002": 25.1711225637,
			"-0.001": 28.2946900119,
			"0.0": 22.048083556,
			"0.001": 28.3823883056,
			"0.002": 37.8582661954,
			"0.003": 21.4215462314,
			"0.004": 5.7087224545,
			"0.005": 4.87715172129,
			"0.006": 5.36278375791,
			"0.007": 5.28668955653,
			"0.008": 4.15737020144,
			"0.009": 4.91798704257,
			"0.01": 5.78539567198,
			"0.011": 5.84066986593,
			"0.012": 2.89839233037,
			"0.013": 1.01102270263,
			"0.014": 0.0,
			"0.015": 0.0,
			"0.016": 0.0,
			"0.017": 0.0,
			"0.018": 0.0,
			"0.019": 0.0,
			"0.02": 0.0,
			"0.021": 0.0,
			"0.022": 0.0,
			"0.023": 0.0,
			"0.024": 0.0,
			"0.025": 0.0
		}
	}
}
