{
	 "smiles": "CC1CC(=O)NC(=O)N1", 
	 "Tm": 492.15, 
	 "num_atms": 17, 
	 "gaussian": { 
		 "optdone": 1, 
		 "sigma_profile": "yes", 
		 "theory": "DFT", 
		 "functional": "B3LYP", 
		 "basiset": "6-31G**", 
		 "properties": { 
			 "R2extent": 1601.9284, 
			 "electric_dipole_moment_norm": 4.1182361297, 
			 "electric_quadrupole_moment_norm": 7.81682472107, 
			 "total_energy": -455.353216646, 
			 "HOMO_LUMO_gap": 0.24566, 
			 "cosmo_polarized_energy": -15.27, 
			 "cosmo_cavitation_energy": 20.48, 
			 "cosmo_dispersion_energy": -15.39, 
			 "cosmo_repulsion_energy": 1.28, 
			 "cosmo_total_nonelectrostatic_energy": 6.37, 
			 "SMD_solvation_energy": 4.51 
		},
		"coords": [
			{
				"x": -1.0839838126,
				"y": 0.0470548121,
				"z": -1.6453440435,
				"element": "C" 
			},
			{
				"x": -0.1369609782,
				"y": 0.3006669343,
				"z": -0.4746017047,
				"element": "C" 
			},
			{
				"x": -0.8778488702,
				"y": 0.4137608512,
				"z": 0.8614022654,
				"element": "C" 
			},
			{
				"x": 0.023568356,
				"y": 0.8747141216,
				"z": 1.9953379367,
				"element": "C" 
			},
			{
				"x": -0.1576574012,
				"y": 0.5990560942,
				"z": 3.1660579434,
				"element": "O" 
			},
			{
				"x": 1.0765460871,
				"y": 1.6832362047,
				"z": 1.5902055753,
				"element": "N" 
			},
			{
				"x": 1.3705616121,
				"y": 2.1259283745,
				"z": 0.2878653119,
				"element": "C" 
			},
			{
				"x": 2.2335219641,
				"y": 2.9621401187,
				"z": 0.0828527267,
				"element": "O" 
			},
			{
				"x": 0.5953193654,
				"y": 1.552018331,
				"z": -0.688890851,
				"element": "N" 
			},
			{
				"x": -1.6276440721,
				"y": -0.8906306558,
				"z": -1.4987963316,
				"element": "H" 
			},
			{
				"x": -1.8099091931,
				"y": 0.8609423576,
				"z": -1.7391435243,
				"element": "H" 
			},
			{
				"x": -0.5319389022,
				"y": -0.0328625279,
				"z": -2.5881927213,
				"element": "H" 
			},
			{
				"x": 0.5716320655,
				"y": -0.5413203708,
				"z": -0.4071588614,
				"element": "H" 
			},
			{
				"x": -1.3232275889,
				"y": -0.5392522107,
				"z": 1.1545192316,
				"element": "H" 
			},
			{
				"x": -1.6895152179,
				"y": 1.147922,
				"z": 0.7690562234,
				"element": "H" 
			},
			{
				"x": 1.653460387,
				"y": 2.085752768,
				"z": 2.3188202185,
				"element": "H" 
			},
			{
				"x": 0.9268761992,
				"y": 1.7599727975,
				"z": -1.6212893952,
				"element": "H" 
			}
		],
		 "valence_orbital": [ 
			{
				"type": "occ",
				"energy": -0.36118,
				"method": "rhf"
			},
			{
				"type": "occ",
				"energy": -0.28689,
				"method": "rhf"
			},
			{
				"type": "occ",
				"energy": -0.28264,
				"method": "rhf"
			},
			{
				"type": "occ",
				"energy": -0.26869,
				"method": "rhf"
			},
			{
				"type": "occ",
				"energy": -0.25857,
				"method": "rhf"
			},
			{
				"type": "unocc",
				"energy": -0.01291,
				"method": "rhf"
			},
			{
				"type": "unocc",
				"energy": 0.05351,
				"method": "rhf"
			},
			{
				"type": "unocc",
				"energy": 0.06698,
				"method": "rhf"
			},
			{
				"type": "unocc",
				"energy": 0.10708,
				"method": "rhf"
			},
			{
				"type": "unocc",
				"energy": 0.11074,
				"method": "rhf"
			}
		],
		"cosmo_sigma_profile": { 
			"-0.025": 0.0,
			"-0.024": 0.0,
			"-0.023": 0.0,
			"-0.022": 0.0,
			"-0.021": 0.0,
			"-0.02": 0.0,
			"-0.019": 0.0,
			"-0.018": 0.0,
			"-0.017": 0.0,
			"-0.016": 0.0455890052483,
			"-0.015": 0.720024700217,
			"-0.014": 1.55713662418,
			"-0.013": 1.59243417951,
			"-0.012": 1.89597631602,
			"-0.011": 1.91445377563,
			"-0.01": 1.48091454952,
			"-0.009": 2.35904323051,
			"-0.008": 1.56444472352,
			"-0.007": 3.85535576929,
			"-0.006": 9.9758789048,
			"-0.005": 16.0472064047,
			"-0.004": 15.8400773789,
			"-0.003": 14.0166414264,
			"-0.002": 11.9502003996,
			"-0.001": 12.2321630508,
			"0.0": 9.63091936342,
			"0.001": 4.23261144619,
			"0.002": 2.7235931276,
			"0.003": 4.08659323893,
			"0.004": 2.51796159015,
			"0.005": 2.93281243213,
			"0.006": 2.86196893505,
			"0.007": 2.74474347814,
			"0.008": 1.22127336101,
			"0.009": 3.22715549452,
			"0.01": 3.58157423618,
			"0.011": 3.70320528577,
			"0.012": 7.66535496744,
			"0.013": 10.0651413539,
			"0.014": 2.26772586273,
			"0.015": 0.0,
			"0.016": 0.0,
			"0.017": 0.0,
			"0.018": 0.0,
			"0.019": 0.0,
			"0.02": 0.0,
			"0.021": 0.0,
			"0.022": 0.0,
			"0.023": 0.0,
			"0.024": 0.0,
			"0.025": 0.0
		}
	}
}
