{
	 "smiles": "CCOC(=O)NC1C(O)C2(C)CCC1C2(C)C", 
	 "Tm": 349.15, 
	 "num_atms": 40, 
	 "gaussian": { 
		 "optdone": 1, 
		 "sigma_profile": "yes", 
		 "theory": "DFT", 
		 "functional": "B3LYP", 
		 "basiset": "6-31G**", 
		 "properties": { 
			 "R2extent": 5172.8992, 
			 "electric_dipole_moment_norm": 1.90781580348, 
			 "electric_quadrupole_moment_norm": 12.9534216935, 
			 "total_energy": -789.695031111, 
			 "HOMO_LUMO_gap": 0.29729, 
			 "cosmo_polarized_energy": -10.6, 
			 "cosmo_cavitation_energy": 37.62, 
			 "cosmo_dispersion_energy": -26.78, 
			 "cosmo_repulsion_energy": 2.07, 
			 "cosmo_total_nonelectrostatic_energy": 12.92, 
			 "SMD_solvation_energy": 7.35 
		},
		"coords": [
			{
				"x": 4.3860429762,
				"y": -1.5638489741,
				"z": 2.9213905775,
				"element": "C" 
			},
			{
				"x": 3.9974679957,
				"y": -0.1400882611,
				"z": 2.5530721935,
				"element": "C" 
			},
			{
				"x": 3.2419894396,
				"y": -0.0986783983,
				"z": 1.3213780128,
				"element": "O" 
			},
			{
				"x": 1.9058243973,
				"y": -0.3177702494,
				"z": 1.4393356303,
				"element": "C" 
			},
			{
				"x": 1.3205427527,
				"y": -0.5069772344,
				"z": 2.4898363988,
				"element": "O" 
			},
			{
				"x": 1.3317930845,
				"y": -0.3179131162,
				"z": 0.1889529984,
				"element": "N" 
			},
			{
				"x": -0.1169348482,
				"y": -0.2397553483,
				"z": 0.0294676441,
				"element": "C" 
			},
			{
				"x": -0.7067226253,
				"y": -1.4146337444,
				"z": -0.8497500858,
				"element": "C" 
			},
			{
				"x": 0.2909161485,
				"y": -2.2607194257,
				"z": -1.3966308041,
				"element": "O" 
			},
			{
				"x": -1.5128627277,
				"y": -0.6671019748,
				"z": -1.9550177533,
				"element": "C" 
			},
			{
				"x": -1.8583559423,
				"y": -1.5391488555,
				"z": -3.1547899382,
				"element": "C" 
			},
			{
				"x": -2.7471829762,
				"y": -0.0824585419,
				"z": -1.210135591,
				"element": "C" 
			},
			{
				"x": -2.1577005598,
				"y": 1.0835720077,
				"z": -0.3564797242,
				"element": "C" 
			},
			{
				"x": -0.6467694233,
				"y": 1.0244430887,
				"z": -0.6953810988,
				"element": "C" 
			},
			{
				"x": -0.6569236903,
				"y": 0.6330603108,
				"z": -2.2081909197,
				"element": "C" 
			},
			{
				"x": -1.3444428587,
				"y": 1.6857115985,
				"z": -3.1015232798,
				"element": "C" 
			},
			{
				"x": 0.7319500387,
				"y": 0.3877146691,
				"z": -2.8349512973,
				"element": "C" 
			},
			{
				"x": 5.0187875043,
				"y": -1.5580357727,
				"z": 3.8153129901,
				"element": "H" 
			},
			{
				"x": 4.9438674132,
				"y": -2.0392900186,
				"z": 2.1090239441,
				"element": "H" 
			},
			{
				"x": 3.4949169559,
				"y": -2.1585433816,
				"z": 3.1370109301,
				"element": "H" 
			},
			{
				"x": 4.8773202346,
				"y": 0.4758013382,
				"z": 2.3508338067,
				"element": "H" 
			},
			{
				"x": 3.4055050909,
				"y": 0.3232973473,
				"z": 3.3458242,
				"element": "H" 
			},
			{
				"x": 1.9203395927,
				"y": 0.0392415813,
				"z": -0.5503902264,
				"element": "H" 
			},
			{
				"x": -0.5084713225,
				"y": -0.2946006179,
				"z": 1.0463964267,
				"element": "H" 
			},
			{
				"x": -1.3930225771,
				"y": -2.0268216987,
				"z": -0.2449646133,
				"element": "H" 
			},
			{
				"x": 1.0311702265,
				"y": -2.2484196731,
				"z": -0.7702755244,
				"element": "H" 
			},
			{
				"x": -2.396041657,
				"y": -0.9658344875,
				"z": -3.9179705344,
				"element": "H" 
			},
			{
				"x": -2.5026548109,
				"y": -2.3739596154,
				"z": -2.8555759613,
				"element": "H" 
			},
			{
				"x": -0.9591189365,
				"y": -1.9656947779,
				"z": -3.6060776264,
				"element": "H" 
			},
			{
				"x": -3.2387783351,
				"y": -0.8453245716,
				"z": -0.5970998264,
				"element": "H" 
			},
			{
				"x": -3.4953940985,
				"y": 0.2758544967,
				"z": -1.9233049755,
				"element": "H" 
			},
			{
				"x": -2.3361709521,
				"y": 0.9540057429,
				"z": 0.715372403,
				"element": "H" 
			},
			{
				"x": -2.5901996333,
				"y": 2.0483767827,
				"z": -0.6331680038,
				"element": "H" 
			},
			{
				"x": -0.0943320441,
				"y": 1.9334022735,
				"z": -0.4357776808,
				"element": "H" 
			},
			{
				"x": -2.3413694666,
				"y": 1.9773447295,
				"z": -2.7679335587,
				"element": "H" 
			},
			{
				"x": -0.7339246642,
				"y": 2.5953038762,
				"z": -3.1447516886,
				"element": "H" 
			},
			{
				"x": -1.4374150895,
				"y": 1.3127469617,
				"z": -4.1271699744,
				"element": "H" 
			},
			{
				"x": 1.2440643304,
				"y": -0.4827724015,
				"z": -2.4279088361,
				"element": "H" 
			},
			{
				"x": 1.3650998948,
				"y": 1.2774221348,
				"z": -2.7260995248,
				"element": "H" 
			},
			{
				"x": 0.6293911625,
				"y": 0.2028922008,
				"z": -3.9097891087,
				"element": "H" 
			}
		],
		 "valence_orbital": [ 
			{
				"type": "occ",
				"energy": -0.29486,
				"method": "rhf"
			},
			{
				"type": "occ",
				"energy": -0.28617,
				"method": "rhf"
			},
			{
				"type": "occ",
				"energy": -0.27507,
				"method": "rhf"
			},
			{
				"type": "occ",
				"energy": -0.26213,
				"method": "rhf"
			},
			{
				"type": "occ",
				"energy": -0.25081,
				"method": "rhf"
			},
			{
				"type": "unocc",
				"energy": 0.04648,
				"method": "rhf"
			},
			{
				"type": "unocc",
				"energy": 0.07365,
				"method": "rhf"
			},
			{
				"type": "unocc",
				"energy": 0.08067,
				"method": "rhf"
			},
			{
				"type": "unocc",
				"energy": 0.08851,
				"method": "rhf"
			},
			{
				"type": "unocc",
				"energy": 0.10871,
				"method": "rhf"
			}
		],
		"cosmo_sigma_profile": { 
			"-0.025": 0.0,
			"-0.024": 0.0,
			"-0.023": 0.0,
			"-0.022": 0.0,
			"-0.021": 0.0,
			"-0.02": 0.0,
			"-0.019": 0.0,
			"-0.018": 0.0,
			"-0.017": 0.0,
			"-0.016": 0.0,
			"-0.015": 0.0,
			"-0.014": 0.0,
			"-0.013": 0.0,
			"-0.012": 0.0791220881836,
			"-0.011": 0.87453706055,
			"-0.01": 1.95792810931,
			"-0.009": 1.63077253462,
			"-0.008": 2.09880062439,
			"-0.007": 3.25947872033,
			"-0.006": 3.29467927811,
			"-0.005": 7.12748379944,
			"-0.004": 15.2402944328,
			"-0.003": 35.5807544891,
			"-0.002": 43.3307554492,
			"-0.001": 42.4850788662,
			"0.0": 36.815687527,
			"0.001": 32.1041708073,
			"0.002": 18.2002799109,
			"0.003": 4.33525567689,
			"0.004": 6.17462066839,
			"0.005": 4.18509268648,
			"0.006": 3.557821531,
			"0.007": 4.90089063089,
			"0.008": 4.39340032662,
			"0.009": 2.16735126652,
			"0.01": 3.10532355022,
			"0.011": 2.89379603845,
			"0.012": 3.71314684346,
			"0.013": 5.60186522995,
			"0.014": 1.11583358861,
			"0.015": 0.137501750969,
			"0.016": 0.0,
			"0.017": 0.0,
			"0.018": 0.0,
			"0.019": 0.0,
			"0.02": 0.0,
			"0.021": 0.0,
			"0.022": 0.0,
			"0.023": 0.0,
			"0.024": 0.0,
			"0.025": 0.0
		}
	}
}
