{
	 "smiles": "O=C1NC(=O)C2(CCS(=O)(=O)CC2)N1", 
	 "Tm": 601.15, 
	 "num_atms": 24, 
	 "gaussian": { 
		 "optdone": 1, 
		 "sigma_profile": "yes", 
		 "theory": "DFT", 
		 "functional": "B3LYP", 
		 "basiset": "6-31G**", 
		 "properties": { 
			 "R2extent": 3173.7205, 
			 "electric_dipole_moment_norm": 3.49681162632, 
			 "electric_quadrupole_moment_norm": 19.4576473537, 
			 "total_energy": -1081.33855407, 
			 "HOMO_LUMO_gap": 0.24731, 
			 "cosmo_polarized_energy": -24.81, 
			 "cosmo_cavitation_energy": 27.51, 
			 "cosmo_dispersion_energy": -20.99, 
			 "cosmo_repulsion_energy": 1.59, 
			 "cosmo_total_nonelectrostatic_energy": 8.11, 
			 "SMD_solvation_energy": 4.78 
		},
		"coords": [
			{
				"x": -2.6360881162,
				"y": -3.1161861254,
				"z": -1.5980954871,
				"element": "O" 
			},
			{
				"x": -2.1516574243,
				"y": -2.0152701984,
				"z": -1.4553982472,
				"element": "C" 
			},
			{
				"x": -2.7834884108,
				"y": -0.7890566845,
				"z": -1.791125703,
				"element": "N" 
			},
			{
				"x": -2.0480830999,
				"y": 0.3137970804,
				"z": -1.4425731375,
				"element": "C" 
			},
			{
				"x": -2.3465402676,
				"y": 1.4845778102,
				"z": -1.5649201788,
				"element": "O" 
			},
			{
				"x": -0.722123955,
				"y": -0.22471411,
				"z": -0.8536367541,
				"element": "C" 
			},
			{
				"x": -0.5694238548,
				"y": 0.2831648497,
				"z": 0.6136415249,
				"element": "C" 
			},
			{
				"x": 0.8783315005,
				"y": 0.5394791167,
				"z": 1.069117855,
				"element": "C" 
			},
			{
				"x": 2.0219145323,
				"y": -0.6871728856,
				"z": 0.3884072083,
				"element": "S" 
			},
			{
				"x": 1.4591088104,
				"y": -2.0236115068,
				"z": 0.6854431116,
				"element": "O" 
			},
			{
				"x": 3.3971744042,
				"y": -0.3576097028,
				"z": 0.7829893552,
				"element": "O" 
			},
			{
				"x": 1.8002607467,
				"y": -0.3906466463,
				"z": -1.4028832032,
				"element": "C" 
			},
			{
				"x": 0.4474616187,
				"y": 0.2661897038,
				"z": -1.7412271677,
				"element": "C" 
			},
			{
				"x": -0.9203056484,
				"y": -1.6665590996,
				"z": -0.9642709827,
				"element": "N" 
			},
			{
				"x": -3.7101507708,
				"y": -0.7548471405,
				"z": -2.1916739983,
				"element": "H" 
			},
			{
				"x": -1.1130420444,
				"y": 1.2294112433,
				"z": 0.7000994296,
				"element": "H" 
			},
			{
				"x": -1.0477239794,
				"y": -0.4406065428,
				"z": 1.2770744469,
				"element": "H" 
			},
			{
				"x": 1.2566630817,
				"y": 1.5141972431,
				"z": 0.7477700372,
				"element": "H" 
			},
			{
				"x": 0.9851300471,
				"y": 0.4761028228,
				"z": 2.1549389759,
				"element": "H" 
			},
			{
				"x": 1.8943778016,
				"y": -1.3834135607,
				"z": -1.8496116274,
				"element": "H" 
			},
			{
				"x": 2.6408154168,
				"y": 0.2272552426,
				"z": -1.7257712867,
				"element": "H" 
			},
			{
				"x": 0.2208771704,
				"y": 0.0521192832,
				"z": -2.7902620639,
				"element": "H" 
			},
			{
				"x": 0.5098241928,
				"y": 1.3546701986,
				"z": -1.646295292,
				"element": "H" 
			},
			{
				"x": -0.3375117516,
				"y": -2.3277703908,
				"z": -0.4641368151,
				"element": "H" 
			}
		],
		 "valence_orbital": [ 
			{
				"type": "occ",
				"energy": -0.30259,
				"method": "rhf"
			},
			{
				"type": "occ",
				"energy": -0.30031,
				"method": "rhf"
			},
			{
				"type": "occ",
				"energy": -0.2989,
				"method": "rhf"
			},
			{
				"type": "occ",
				"energy": -0.27646,
				"method": "rhf"
			},
			{
				"type": "occ",
				"energy": -0.2708,
				"method": "rhf"
			},
			{
				"type": "unocc",
				"energy": -0.02349,
				"method": "rhf"
			},
			{
				"type": "unocc",
				"energy": 0.03996,
				"method": "rhf"
			},
			{
				"type": "unocc",
				"energy": 0.04603,
				"method": "rhf"
			},
			{
				"type": "unocc",
				"energy": 0.05017,
				"method": "rhf"
			},
			{
				"type": "unocc",
				"energy": 0.05436,
				"method": "rhf"
			}
		],
		"cosmo_sigma_profile": { 
			"-0.025": 0.0,
			"-0.024": 0.0,
			"-0.023": 0.0,
			"-0.022": 0.0,
			"-0.021": 0.0,
			"-0.02": 0.0,
			"-0.019": 0.0,
			"-0.018": 0.0,
			"-0.017": 0.641485240741,
			"-0.016": 1.29741320434,
			"-0.015": 1.46702597176,
			"-0.014": 0.630769719969,
			"-0.013": 0.613290548656,
			"-0.012": 0.920756388905,
			"-0.011": 1.68741228337,
			"-0.01": 3.16616349219,
			"-0.009": 7.27690475788,
			"-0.008": 12.4071897504,
			"-0.007": 15.3179987866,
			"-0.006": 18.5854230455,
			"-0.005": 19.4697528658,
			"-0.004": 15.1479972284,
			"-0.003": 10.9669893401,
			"-0.002": 8.7115883473,
			"-0.001": 6.19003834976,
			"0.0": 4.95885065329,
			"0.001": 5.22909090274,
			"0.002": 5.38753400054,
			"0.003": 3.78369039716,
			"0.004": 4.37475987914,
			"0.005": 4.43253292599,
			"0.006": 4.33296949011,
			"0.007": 4.0750304424,
			"0.008": 4.57539661262,
			"0.009": 5.98383706697,
			"0.01": 8.56518742465,
			"0.011": 14.0367775371,
			"0.012": 16.0820077547,
			"0.013": 5.8857653062,
			"0.014": 0.453133345619,
			"0.015": 0.0,
			"0.016": 0.0,
			"0.017": 0.0,
			"0.018": 0.0,
			"0.019": 0.0,
			"0.02": 0.0,
			"0.021": 0.0,
			"0.022": 0.0,
			"0.023": 0.0,
			"0.024": 0.0,
			"0.025": 0.0
		}
	}
}
