{
	 "smiles": "N#CCCCCCC#N", 
	 "Tm": 241.75, 
	 "num_atms": 19, 
	 "gaussian": { 
		 "optdone": 1, 
		 "sigma_profile": "yes", 
		 "theory": "DFT", 
		 "functional": "B3LYP", 
		 "basiset": "6-31G**", 
		 "properties": { 
			 "R2extent": 1652.451, 
			 "electric_dipole_moment_norm": 7.37541449276, 
			 "electric_quadrupole_moment_norm": 10.5597756122, 
			 "total_energy": -382.248687278, 
			 "HOMO_LUMO_gap": 0.33321, 
			 "cosmo_polarized_energy": -16.67, 
			 "cosmo_cavitation_energy": 23.63, 
			 "cosmo_dispersion_energy": -15.7, 
			 "cosmo_repulsion_energy": 1.32, 
			 "cosmo_total_nonelectrostatic_energy": 9.24, 
			 "SMD_solvation_energy": 6.32 
		},
		"coords": [
			{
				"x": 2.7975593783,
				"y": 0.314002317,
				"z": 0.8716089081,
				"element": "N" 
			},
			{
				"x": 2.5829457754,
				"y": -0.4240947201,
				"z": 0.0012055642,
				"element": "C" 
			},
			{
				"x": 2.2855350925,
				"y": -1.3747465303,
				"z": -1.0743875189,
				"element": "C" 
			},
			{
				"x": 0.7759703824,
				"y": -1.6589322492,
				"z": -1.2622451147,
				"element": "C" 
			},
			{
				"x": -0.0211515213,
				"y": -0.5610533167,
				"z": -1.9878249119,
				"element": "C" 
			},
			{
				"x": -0.1468126558,
				"y": 0.8075834982,
				"z": -1.2971073486,
				"element": "C" 
			},
			{
				"x": -0.8416362148,
				"y": 0.7425425606,
				"z": 0.0812996965,
				"element": "C" 
			},
			{
				"x": -1.1832522922,
				"y": 2.0724390837,
				"z": 0.5926315228,
				"element": "C" 
			},
			{
				"x": -1.4591918606,
				"y": 3.132128416,
				"z": 0.9774333443,
				"element": "N" 
			},
			{
				"x": 2.8096741365,
				"y": -2.3079774353,
				"z": -0.838030314,
				"element": "H" 
			},
			{
				"x": 2.7225655205,
				"y": -0.9968249744,
				"z": -2.0068214668,
				"element": "H" 
			},
			{
				"x": 0.6976179724,
				"y": -2.577897767,
				"z": -1.8537853435,
				"element": "H" 
			},
			{
				"x": 0.3315402129,
				"y": -1.8876913448,
				"z": -0.2870422719,
				"element": "H" 
			},
			{
				"x": 0.4255002704,
				"y": -0.4024846954,
				"z": -2.9781451565,
				"element": "H" 
			},
			{
				"x": -1.0299511305,
				"y": -0.9525822404,
				"z": -2.1741873588,
				"element": "H" 
			},
			{
				"x": 0.8326993916,
				"y": 1.2798686967,
				"z": -1.1741089273,
				"element": "H" 
			},
			{
				"x": -0.7271733835,
				"y": 1.4661518056,
				"z": -1.9521615761,
				"element": "H" 
			},
			{
				"x": -1.7674035976,
				"y": 0.1566714516,
				"z": 0.0151944556,
				"element": "H" 
			},
			{
				"x": -0.1972354766,
				"y": 0.2515974438,
				"z": 0.8183738173,
				"element": "H" 
			}
		],
		 "valence_orbital": [ 
			{
				"type": "occ",
				"energy": -0.34784,
				"method": "rhf"
			},
			{
				"type": "occ",
				"energy": -0.3325,
				"method": "rhf"
			},
			{
				"type": "occ",
				"energy": -0.3268,
				"method": "rhf"
			},
			{
				"type": "occ",
				"energy": -0.31636,
				"method": "rhf"
			},
			{
				"type": "occ",
				"energy": -0.31479,
				"method": "rhf"
			},
			{
				"type": "unocc",
				"energy": 0.01842,
				"method": "rhf"
			},
			{
				"type": "unocc",
				"energy": 0.02764,
				"method": "rhf"
			},
			{
				"type": "unocc",
				"energy": 0.03773,
				"method": "rhf"
			},
			{
				"type": "unocc",
				"energy": 0.04565,
				"method": "rhf"
			},
			{
				"type": "unocc",
				"energy": 0.06436,
				"method": "rhf"
			}
		],
		"cosmo_sigma_profile": { 
			"-0.025": 0.0,
			"-0.024": 0.0,
			"-0.023": 0.0,
			"-0.022": 0.0,
			"-0.021": 0.0,
			"-0.02": 0.0,
			"-0.019": 0.0,
			"-0.018": 0.0,
			"-0.017": 0.0,
			"-0.016": 0.0,
			"-0.015": 0.0,
			"-0.014": 0.0,
			"-0.013": 0.0,
			"-0.012": 0.0,
			"-0.011": 0.0,
			"-0.01": 0.0,
			"-0.009": 0.013840544369,
			"-0.008": 4.01253820143,
			"-0.007": 10.5434940449,
			"-0.006": 13.2845187346,
			"-0.005": 20.6092592066,
			"-0.004": 24.487452221,
			"-0.003": 17.4118762605,
			"-0.002": 15.5239348324,
			"-0.001": 11.9639556222,
			"0.0": 6.5027969957,
			"0.001": 4.04899060002,
			"0.002": 3.02551125104,
			"0.003": 3.45812905268,
			"0.004": 4.85575345087,
			"0.005": 3.27277571049,
			"0.006": 4.76690195988,
			"0.007": 4.07475316904,
			"0.008": 6.75685902526,
			"0.009": 5.72378198613,
			"0.01": 6.57608447854,
			"0.011": 5.60340245486,
			"0.012": 4.87974079166,
			"0.013": 4.41679986128,
			"0.014": 1.27216225259,
			"0.015": 0.0,
			"0.016": 0.0,
			"0.017": 0.0,
			"0.018": 0.0,
			"0.019": 0.0,
			"0.02": 0.0,
			"0.021": 0.0,
			"0.022": 0.0,
			"0.023": 0.0,
			"0.024": 0.0,
			"0.025": 0.0
		}
	}
}
