{
	 "smiles": "COC1=CC(OC)=NC(NC(=O)NS(=O)(=O)C2=C(C=NN2C)C2=NN(C)N=N2)=N1", 
	 "Tm": 443.15, 
	 "num_atms": 45, 
	 "gaussian": { 
		 "optdone": 1, 
		 "sigma_profile": "yes", 
		 "theory": "DFT", 
		 "functional": "B3LYP", 
		 "basiset": "6-31G**", 
		 "properties": { 
			 "R2extent": 12131.2689, 
			 "electric_dipole_moment_norm": 2.43489578216, 
			 "electric_quadrupole_moment_norm": 23.210211448, 
			 "total_energy": -1826.72025021, 
			 "HOMO_LUMO_gap": 0.18151, 
			 "cosmo_polarized_energy": -23.79, 
			 "cosmo_cavitation_energy": 51.32, 
			 "cosmo_dispersion_energy": -33.86, 
			 "cosmo_repulsion_energy": 2.52, 
			 "cosmo_total_nonelectrostatic_energy": 19.98, 
			 "SMD_solvation_energy": 7.16 
		},
		"coords": [
			{
				"x": 2.2169865277,
				"y": -1.1104990103,
				"z": -2.0217366898,
				"element": "C" 
			},
			{
				"x": 2.7353263952,
				"y": 0.2210283483,
				"z": -1.8899755764,
				"element": "O" 
			},
			{
				"x": 2.3034612305,
				"y": 0.968006268,
				"z": -0.8622218841,
				"element": "C" 
			},
			{
				"x": 2.9434433594,
				"y": 2.1888082472,
				"z": -0.6442344543,
				"element": "C" 
			},
			{
				"x": 2.4971551572,
				"y": 2.9019175405,
				"z": 0.4700967681,
				"element": "C" 
			},
			{
				"x": 3.0954090278,
				"y": 4.0716752277,
				"z": 0.7404914346,
				"element": "O" 
			},
			{
				"x": 2.6358595076,
				"y": 4.8057988002,
				"z": 1.8831644656,
				"element": "C" 
			},
			{
				"x": 1.5169100921,
				"y": 2.4694968237,
				"z": 1.2695847055,
				"element": "N" 
			},
			{
				"x": 0.9669709713,
				"y": 1.3001407909,
				"z": 0.9262223598,
				"element": "C" 
			},
			{
				"x": -0.0207977474,
				"y": 0.8721811727,
				"z": 1.8148866283,
				"element": "N" 
			},
			{
				"x": -0.8775074893,
				"y": -0.2137428847,
				"z": 1.7864792375,
				"element": "C" 
			},
			{
				"x": -1.1908058168,
				"y": -0.8073366008,
				"z": 2.8027721925,
				"element": "O" 
			},
			{
				"x": -1.4055378259,
				"y": -0.6202089785,
				"z": 0.5447459365,
				"element": "N" 
			},
			{
				"x": -2.14904407,
				"y": 0.3731723032,
				"z": -0.6181836661,
				"element": "S" 
			},
			{
				"x": -3.5891088275,
				"y": 0.1500531985,
				"z": -0.5314226511,
				"element": "O" 
			},
			{
				"x": -1.5887734296,
				"y": 1.7179386192,
				"z": -0.5274499952,
				"element": "O" 
			},
			{
				"x": -1.6116453508,
				"y": -0.3747926602,
				"z": -2.1457613576,
				"element": "C" 
			},
			{
				"x": -1.8084606033,
				"y": -1.6821799541,
				"z": -2.6021057809,
				"element": "C" 
			},
			{
				"x": -1.2947256851,
				"y": -1.6582789219,
				"z": -3.9168462214,
				"element": "C" 
			},
			{
				"x": -0.8318290872,
				"y": -0.4557588793,
				"z": -4.2454239774,
				"element": "N" 
			},
			{
				"x": -1.0286228201,
				"y": 0.3231886503,
				"z": -3.1624534645,
				"element": "N" 
			},
			{
				"x": -0.6433191298,
				"y": 1.7320835204,
				"z": -3.2475638176,
				"element": "C" 
			},
			{
				"x": -2.3904669933,
				"y": -2.8436936666,
				"z": -1.954107571,
				"element": "C" 
			},
			{
				"x": -2.7012544522,
				"y": -2.9504528005,
				"z": -0.6587771354,
				"element": "N" 
			},
			{
				"x": -3.1874680558,
				"y": -4.1857988223,
				"z": -0.5924905968,
				"element": "N" 
			},
			{
				"x": -3.6928008325,
				"y": -4.7813257651,
				"z": 0.6333487796,
				"element": "C" 
			},
			{
				"x": -3.182086465,
				"y": -4.8228645557,
				"z": -1.7583827969,
				"element": "N" 
			},
			{
				"x": -2.6794045851,
				"y": -3.9890722407,
				"z": -2.6326502842,
				"element": "N" 
			},
			{
				"x": 1.3036890816,
				"y": 0.5124976134,
				"z": -0.0948293677,
				"element": "N" 
			},
			{
				"x": 2.745581827,
				"y": -1.5370841017,
				"z": -2.8744336068,
				"element": "H" 
			},
			{
				"x": 1.1427164383,
				"y": -1.1041604339,
				"z": -2.2097510981,
				"element": "H" 
			},
			{
				"x": 2.4154994947,
				"y": -1.6946877646,
				"z": -1.1190781243,
				"element": "H" 
			},
			{
				"x": 3.7515725507,
				"y": 2.5384803513,
				"z": -1.2709942246,
				"element": "H" 
			},
			{
				"x": 3.2409877349,
				"y": 5.7126112971,
				"z": 1.9017054869,
				"element": "H" 
			},
			{
				"x": 2.7824483624,
				"y": 4.2329756524,
				"z": 2.8027458001,
				"element": "H" 
			},
			{
				"x": 1.5760626013,
				"y": 5.055783359,
				"z": 1.7885040395,
				"element": "H" 
			},
			{
				"x": 0.0510002807,
				"y": 1.2913461554,
				"z": 2.7324279133,
				"element": "H" 
			},
			{
				"x": -1.9516807875,
				"y": -1.4807487538,
				"z": 0.6350584729,
				"element": "H" 
			},
			{
				"x": -1.2532880248,
				"y": -2.4782952956,
				"z": -4.6192012254,
				"element": "H" 
			},
			{
				"x": 0.0616888845,
				"y": 1.9840484851,
				"z": -2.4567298374,
				"element": "H" 
			},
			{
				"x": -1.5200832247,
				"y": 2.3753270431,
				"z": -3.1573404248,
				"element": "H" 
			},
			{
				"x": -0.1840173095,
				"y": 1.8534522139,
				"z": -4.2268773757,
				"element": "H" 
			},
			{
				"x": -4.5396418378,
				"y": -4.1989824293,
				"z": 1.001969371,
				"element": "H" 
			},
			{
				"x": -2.9028127272,
				"y": -4.7973626798,
				"z": 1.3868511387,
				"element": "H" 
			},
			{
				"x": -4.0068863468,
				"y": -5.7956844822,
				"z": 0.391868475,
				"element": "H" 
			}
		],
		 "valence_orbital": [ 
			{
				"type": "occ",
				"energy": -0.27706,
				"method": "rhf"
			},
			{
				"type": "occ",
				"energy": -0.27554,
				"method": "rhf"
			},
			{
				"type": "occ",
				"energy": -0.27063,
				"method": "rhf"
			},
			{
				"type": "occ",
				"energy": -0.2555,
				"method": "rhf"
			},
			{
				"type": "occ",
				"energy": -0.23628,
				"method": "rhf"
			},
			{
				"type": "unocc",
				"energy": -0.05477,
				"method": "rhf"
			},
			{
				"type": "unocc",
				"energy": -0.03238,
				"method": "rhf"
			},
			{
				"type": "unocc",
				"energy": -0.03052,
				"method": "rhf"
			},
			{
				"type": "unocc",
				"energy": -0.01144,
				"method": "rhf"
			},
			{
				"type": "unocc",
				"energy": -0.00058,
				"method": "rhf"
			}
		],
		"cosmo_sigma_profile": { 
			"-0.025": 0.0,
			"-0.024": 0.0,
			"-0.023": 0.0,
			"-0.022": 0.0,
			"-0.021": 0.0,
			"-0.02": 0.0,
			"-0.019": 0.0,
			"-0.018": 0.0,
			"-0.017": 0.0,
			"-0.016": 0.217646776558,
			"-0.015": 0.696714940741,
			"-0.014": 0.71094352014,
			"-0.013": 0.577169341069,
			"-0.012": 0.901555757481,
			"-0.011": 0.662619760548,
			"-0.01": 0.846878342582,
			"-0.009": 3.72797141532,
			"-0.008": 10.5486968006,
			"-0.007": 15.9221825101,
			"-0.006": 24.1156417601,
			"-0.005": 33.0108192526,
			"-0.004": 35.4662766182,
			"-0.003": 35.2537284568,
			"-0.002": 29.5080713603,
			"-0.001": 29.9261260761,
			"0.0": 24.4704546799,
			"0.001": 22.7118894893,
			"0.002": 18.0689789654,
			"0.003": 14.4395875491,
			"0.004": 13.8539511024,
			"0.005": 12.722471751,
			"0.006": 12.4562078596,
			"0.007": 13.9711421178,
			"0.008": 13.3380199787,
			"0.009": 18.3243602408,
			"0.01": 10.7747661463,
			"0.011": 8.27038942216,
			"0.012": 4.47931114543,
			"0.013": 1.22449111794,
			"0.014": 0.0,
			"0.015": 0.0,
			"0.016": 0.0,
			"0.017": 0.0,
			"0.018": 0.0,
			"0.019": 0.0,
			"0.02": 0.0,
			"0.021": 0.0,
			"0.022": 0.0,
			"0.023": 0.0,
			"0.024": 0.0,
			"0.025": 0.0
		}
	}
}
