{
	 "smiles": "CC1(CC(C1)C(=N/OCC(=O)C1=CC=CC=C1)C1=CC2=C(O1)C=CC=C2)C1=CC=CC=C1", 
	 "Tm": 427.15, 
	 "num_atms": 57, 
	 "gaussian": { 
		 "optdone": 1, 
		 "sigma_profile": "yes", 
		 "theory": "DFT", 
		 "functional": "B3LYP", 
		 "basiset": "6-31G**", 
		 "properties": { 
			 "R2extent": 16296.2478, 
			 "electric_dipole_moment_norm": 2.9362478046, 
			 "electric_quadrupole_moment_norm": 23.6138959007, 
			 "total_energy": -1362.37686075, 
			 "HOMO_LUMO_gap": 0.15385, 
			 "cosmo_polarized_energy": -14.86, 
			 "cosmo_cavitation_energy": 60.38, 
			 "cosmo_dispersion_energy": -39.01, 
			 "cosmo_repulsion_energy": 2.95, 
			 "cosmo_total_nonelectrostatic_energy": 24.31, 
			 "SMD_solvation_energy": 9.95 
		},
		"coords": [
			{
				"x": -2.576125137,
				"y": -0.0324870115,
				"z": -0.6000356693,
				"element": "C" 
			},
			{
				"x": -1.675913268,
				"y": -0.5294333882,
				"z": -1.746400981,
				"element": "C" 
			},
			{
				"x": -0.2485604489,
				"y": 0.1022352052,
				"z": -1.674771951,
				"element": "C" 
			},
			{
				"x": 0.3253490081,
				"y": -1.2443707777,
				"z": -1.1116157056,
				"element": "C" 
			},
			{
				"x": -1.0415179619,
				"y": -1.9214849999,
				"z": -1.4243001389,
				"element": "C" 
			},
			{
				"x": 0.8535436653,
				"y": -1.1620960332,
				"z": 0.3030435855,
				"element": "C" 
			},
			{
				"x": 1.9351494608,
				"y": -0.52191568,
				"z": 0.610185901,
				"element": "N" 
			},
			{
				"x": 2.4980472198,
				"y": 0.1118326858,
				"z": -0.5104716665,
				"element": "O" 
			},
			{
				"x": 3.7763413603,
				"y": 0.6217128814,
				"z": -0.1378526246,
				"element": "C" 
			},
			{
				"x": 3.7693116497,
				"y": 1.6894988337,
				"z": 0.9673791607,
				"element": "C" 
			},
			{
				"x": 4.635944145,
				"y": 1.6304737873,
				"z": 1.8253755772,
				"element": "O" 
			},
			{
				"x": 2.772851171,
				"y": 2.8038218785,
				"z": 0.9451449805,
				"element": "C" 
			},
			{
				"x": 2.7225441883,
				"y": 3.6542060417,
				"z": 2.0619114799,
				"element": "C" 
			},
			{
				"x": 1.8462635865,
				"y": 4.7344208391,
				"z": 2.0873908434,
				"element": "C" 
			},
			{
				"x": 1.017155126,
				"y": 4.9868975535,
				"z": 0.989829621,
				"element": "C" 
			},
			{
				"x": 1.067000794,
				"y": 4.1532411803,
				"z": -0.1291278077,
				"element": "C" 
			},
			{
				"x": 1.9361878398,
				"y": 3.0621976165,
				"z": -0.1522077605,
				"element": "C" 
			},
			{
				"x": 0.2047467817,
				"y": -1.7584816128,
				"z": 1.4756633053,
				"element": "C" 
			},
			{
				"x": 0.1349466514,
				"y": -1.3245764658,
				"z": 2.7683004314,
				"element": "C" 
			},
			{
				"x": -0.5657818217,
				"y": -2.3397599191,
				"z": 3.5059243883,
				"element": "C" 
			},
			{
				"x": -0.8752975906,
				"y": -3.3407210362,
				"z": 2.5641742302,
				"element": "C" 
			},
			{
				"x": -0.4079847575,
				"y": -2.9895823409,
				"z": 1.3266538409,
				"element": "O" 
			},
			{
				"x": -1.5625968797,
				"y": -4.5080721049,
				"z": 2.874493703,
				"element": "C" 
			},
			{
				"x": -1.9504297382,
				"y": -4.6625866159,
				"z": 4.2046874642,
				"element": "C" 
			},
			{
				"x": -1.6577808317,
				"y": -3.6809780937,
				"z": 5.1720499471,
				"element": "C" 
			},
			{
				"x": -0.9700640028,
				"y": -2.5184879244,
				"z": 4.8395386184,
				"element": "C" 
			},
			{
				"x": -2.4126335207,
				"y": -0.4026134155,
				"z": -3.068451306,
				"element": "C" 
			},
			{
				"x": -3.2176363748,
				"y": -1.4459548084,
				"z": -3.5474725072,
				"element": "C" 
			},
			{
				"x": -3.9329022559,
				"y": -1.3145599108,
				"z": -4.7388040294,
				"element": "C" 
			},
			{
				"x": -3.8583203174,
				"y": -0.1314859703,
				"z": -5.4757720316,
				"element": "C" 
			},
			{
				"x": -3.0657084515,
				"y": 0.9181172047,
				"z": -5.0083655941,
				"element": "C" 
			},
			{
				"x": -2.3524984604,
				"y": 0.7818746181,
				"z": -3.8164023701,
				"element": "C" 
			},
			{
				"x": -2.8548386198,
				"y": 1.0159202345,
				"z": -0.7524151259,
				"element": "H" 
			},
			{
				"x": -2.067160153,
				"y": -0.1118665018,
				"z": 0.3670562292,
				"element": "H" 
			},
			{
				"x": -3.4978788035,
				"y": -0.6217700906,
				"z": -0.5475632487,
				"element": "H" 
			},
			{
				"x": -0.1475621776,
				"y": 0.9739385629,
				"z": -1.0233607226,
				"element": "H" 
			},
			{
				"x": 0.1749816698,
				"y": 0.3436815838,
				"z": -2.6526124978,
				"element": "H" 
			},
			{
				"x": 1.1481457562,
				"y": -1.6191564236,
				"z": -1.7277920921,
				"element": "H" 
			},
			{
				"x": -0.9632386094,
				"y": -2.5656896965,
				"z": -2.3038356443,
				"element": "H" 
			},
			{
				"x": -1.5137678863,
				"y": -2.4880301502,
				"z": -0.6225053012,
				"element": "H" 
			},
			{
				"x": 4.4341980165,
				"y": -0.1823758861,
				"z": 0.203549321,
				"element": "H" 
			},
			{
				"x": 4.1844170856,
				"y": 1.0521870098,
				"z": -1.0598097688,
				"element": "H" 
			},
			{
				"x": 3.3862547921,
				"y": 3.4461064496,
				"z": 2.8945370077,
				"element": "H" 
			},
			{
				"x": 1.8099522064,
				"y": 5.3836748574,
				"z": 2.9573837947,
				"element": "H" 
			},
			{
				"x": 0.3351547931,
				"y": 5.8323993649,
				"z": 1.0068465857,
				"element": "H" 
			},
			{
				"x": 0.4275491725,
				"y": 4.351856808,
				"z": -0.984333465,
				"element": "H" 
			},
			{
				"x": 1.9584088365,
				"y": 2.4111382997,
				"z": -1.0181075801,
				"element": "H" 
			},
			{
				"x": 0.5390964738,
				"y": -0.3922866219,
				"z": 3.1330728542,
				"element": "H" 
			},
			{
				"x": -1.7796846023,
				"y": -5.2544517415,
				"z": 2.1181488461,
				"element": "H" 
			},
			{
				"x": -2.4888253388,
				"y": -5.5578950171,
				"z": 4.5003922878,
				"element": "H" 
			},
			{
				"x": -1.97679814,
				"y": -3.8390236699,
				"z": 6.197954974,
				"element": "H" 
			},
			{
				"x": -0.747798495,
				"y": -1.7684039524,
				"z": 5.592450354,
				"element": "H" 
			},
			{
				"x": -3.2857898446,
				"y": -2.3726931678,
				"z": -2.9834920673,
				"element": "H" 
			},
			{
				"x": -4.5468883206,
				"y": -2.138516245,
				"z": -5.0922390831,
				"element": "H" 
			},
			{
				"x": -4.4111357218,
				"y": -0.0289382761,
				"z": -6.4051455576,
				"element": "H" 
			},
			{
				"x": -2.9998529416,
				"y": 1.8441264312,
				"z": -5.5732120471,
				"element": "H" 
			},
			{
				"x": -1.7397699775,
				"y": 1.6077856219,
				"z": -3.4638629874,
				"element": "H" 
			}
		],
		 "valence_orbital": [ 
			{
				"type": "occ",
				"energy": -0.24722,
				"method": "rhf"
			},
			{
				"type": "occ",
				"energy": -0.24555,
				"method": "rhf"
			},
			{
				"type": "occ",
				"energy": -0.23892,
				"method": "rhf"
			},
			{
				"type": "occ",
				"energy": -0.23706,
				"method": "rhf"
			},
			{
				"type": "occ",
				"energy": -0.21342,
				"method": "rhf"
			},
			{
				"type": "unocc",
				"energy": -0.05957,
				"method": "rhf"
			},
			{
				"type": "unocc",
				"energy": -0.04749,
				"method": "rhf"
			},
			{
				"type": "unocc",
				"energy": -0.00939,
				"method": "rhf"
			},
			{
				"type": "unocc",
				"energy": 0.0002,
				"method": "rhf"
			},
			{
				"type": "unocc",
				"energy": 0.00191,
				"method": "rhf"
			}
		],
		"cosmo_sigma_profile": { 
			"-0.025": 0.0,
			"-0.024": 0.0,
			"-0.023": 0.0,
			"-0.022": 0.0,
			"-0.021": 0.0,
			"-0.02": 0.0,
			"-0.019": 0.0,
			"-0.018": 0.0,
			"-0.017": 0.0,
			"-0.016": 0.0,
			"-0.015": 0.0,
			"-0.014": 0.0,
			"-0.013": 0.0,
			"-0.012": 0.0,
			"-0.011": 0.0,
			"-0.01": 0.0,
			"-0.009": 0.410385752004,
			"-0.008": 4.00672615159,
			"-0.007": 6.77393455483,
			"-0.006": 19.9250365761,
			"-0.005": 31.9349289457,
			"-0.004": 39.3196422051,
			"-0.003": 43.9123935576,
			"-0.002": 44.5161252346,
			"-0.001": 43.8133630442,
			"0.0": 38.2262472105,
			"0.001": 37.3675284186,
			"0.002": 36.3184283758,
			"0.003": 37.1798157082,
			"0.004": 36.1410816855,
			"0.005": 22.896887089,
			"0.006": 15.0472620925,
			"0.007": 7.32299614719,
			"0.008": 3.3479510129,
			"0.009": 2.91629488338,
			"0.01": 2.63091628036,
			"0.011": 4.43188129731,
			"0.012": 2.70492848022,
			"0.013": 0.328284968912,
			"0.014": 0.0,
			"0.015": 0.0,
			"0.016": 0.0,
			"0.017": 0.0,
			"0.018": 0.0,
			"0.019": 0.0,
			"0.02": 0.0,
			"0.021": 0.0,
			"0.022": 0.0,
			"0.023": 0.0,
			"0.024": 0.0,
			"0.025": 0.0
		}
	}
}
