{
	 "smiles": "O=C1C=C(NCC2=CN=CC=C2)C(=O)C2=CC=CC=C12", 
	 "Tm": 482.15, 
	 "num_atms": 32, 
	 "gaussian": { 
		 "optdone": 1, 
		 "sigma_profile": "yes", 
		 "theory": "DFT", 
		 "functional": "B3LYP", 
		 "basiset": "6-31G**", 
		 "properties": { 
			 "R2extent": 7564.4055, 
			 "electric_dipole_moment_norm": 2.46180300187, 
			 "electric_quadrupole_moment_norm": 25.6664767609, 
			 "total_energy": -876.883314324, 
			 "HOMO_LUMO_gap": 0.12404, 
			 "cosmo_polarized_energy": -17.66, 
			 "cosmo_cavitation_energy": 36.98, 
			 "cosmo_dispersion_energy": -26.29, 
			 "cosmo_repulsion_energy": 1.98, 
			 "cosmo_total_nonelectrostatic_energy": 12.67, 
			 "SMD_solvation_energy": 5.28 
		},
		"coords": [
			{
				"x": 0.6745619819,
				"y": -1.2631351012,
				"z": 4.0748435485,
				"element": "O" 
			},
			{
				"x": 1.0545892373,
				"y": -0.9715134526,
				"z": 2.9399202562,
				"element": "C" 
			},
			{
				"x": 0.5476683901,
				"y": -1.6526585935,
				"z": 1.7590813138,
				"element": "C" 
			},
			{
				"x": 0.9760625597,
				"y": -1.344705149,
				"z": 0.4979615395,
				"element": "C" 
			},
			{
				"x": 0.579133888,
				"y": -1.9348537525,
				"z": -0.6557011891,
				"element": "N" 
			},
			{
				"x": -0.3151443972,
				"y": -3.0707776092,
				"z": -0.7384421745,
				"element": "C" 
			},
			{
				"x": -1.7860653617,
				"y": -2.7506358205,
				"z": -0.5092732702,
				"element": "C" 
			},
			{
				"x": -2.3624632718,
				"y": -1.5661561263,
				"z": -0.984867196,
				"element": "C" 
			},
			{
				"x": -3.6560489054,
				"y": -1.2547351396,
				"z": -0.8538650527,
				"element": "N" 
			},
			{
				"x": -4.441988263,
				"y": -2.1379688453,
				"z": -0.2250272595,
				"element": "C" 
			},
			{
				"x": -3.9764484767,
				"y": -3.3465348501,
				"z": 0.2935764519,
				"element": "C" 
			},
			{
				"x": -2.6248957544,
				"y": -3.6538236779,
				"z": 0.1480966002,
				"element": "C" 
			},
			{
				"x": 1.9991507273,
				"y": -0.2596273576,
				"z": 0.2680065987,
				"element": "C" 
			},
			{
				"x": 2.3624559582,
				"y": -0.0154537845,
				"z": -0.8797697148,
				"element": "O" 
			},
			{
				"x": 2.5207819107,
				"y": 0.4584492108,
				"z": 1.4496556401,
				"element": "C" 
			},
			{
				"x": 3.467244657,
				"y": 1.4765050313,
				"z": 1.278722719,
				"element": "C" 
			},
			{
				"x": 3.9641707779,
				"y": 2.1539989828,
				"z": 2.389702635,
				"element": "C" 
			},
			{
				"x": 3.5179469359,
				"y": 1.8157588043,
				"z": 3.6720594509,
				"element": "C" 
			},
			{
				"x": 2.5755238895,
				"y": 0.8015300895,
				"z": 3.8459969625,
				"element": "C" 
			},
			{
				"x": 2.0711269231,
				"y": 0.1178313052,
				"z": 2.7391295525,
				"element": "C" 
			},
			{
				"x": -0.2035857033,
				"y": -2.4131885145,
				"z": 1.93852281,
				"element": "H" 
			},
			{
				"x": 1.0432444277,
				"y": -1.5806933746,
				"z": -1.482999871,
				"element": "H" 
			},
			{
				"x": -0.1866960105,
				"y": -3.5060971045,
				"z": -1.7359275601,
				"element": "H" 
			},
			{
				"x": 0.0007360823,
				"y": -3.8399097951,
				"z": -0.0198171596,
				"element": "H" 
			},
			{
				"x": -1.7406949087,
				"y": -0.8281993292,
				"z": -1.4891505137,
				"element": "H" 
			},
			{
				"x": -5.4911319267,
				"y": -1.8643201852,
				"z": -0.1292520398,
				"element": "H" 
			},
			{
				"x": -4.6538594605,
				"y": -4.0238870936,
				"z": 0.8039941553,
				"element": "H" 
			},
			{
				"x": -2.2246615301,
				"y": -4.5842086373,
				"z": 0.5452239615,
				"element": "H" 
			},
			{
				"x": 3.796310172,
				"y": 1.7178797362,
				"z": 0.2734625647,
				"element": "H" 
			},
			{
				"x": 4.6975620784,
				"y": 2.944180842,
				"z": 2.2595707302,
				"element": "H" 
			},
			{
				"x": 3.906823216,
				"y": 2.3454858193,
				"z": 4.5370031083,
				"element": "H" 
			},
			{
				"x": 2.2131901568,
				"y": 0.5201634724,
				"z": 4.8290624022,
				"element": "H" 
			}
		],
		 "valence_orbital": [ 
			{
				"type": "occ",
				"energy": -0.26432,
				"method": "rhf"
			},
			{
				"type": "occ",
				"energy": -0.26334,
				"method": "rhf"
			},
			{
				"type": "occ",
				"energy": -0.25761,
				"method": "rhf"
			},
			{
				"type": "occ",
				"energy": -0.24552,
				"method": "rhf"
			},
			{
				"type": "occ",
				"energy": -0.22631,
				"method": "rhf"
			},
			{
				"type": "unocc",
				"energy": -0.10227,
				"method": "rhf"
			},
			{
				"type": "unocc",
				"energy": -0.03502,
				"method": "rhf"
			},
			{
				"type": "unocc",
				"energy": -0.03027,
				"method": "rhf"
			},
			{
				"type": "unocc",
				"energy": -0.02008,
				"method": "rhf"
			},
			{
				"type": "unocc",
				"energy": -0.00628,
				"method": "rhf"
			}
		],
		"cosmo_sigma_profile": { 
			"-0.025": 0.0,
			"-0.024": 0.0,
			"-0.023": 0.0,
			"-0.022": 0.0,
			"-0.021": 0.0,
			"-0.02": 0.0,
			"-0.019": 0.0,
			"-0.018": 0.0,
			"-0.017": 0.0,
			"-0.016": 0.0,
			"-0.015": 0.0,
			"-0.014": 0.14862295216,
			"-0.013": 0.758147968541,
			"-0.012": 0.892132111185,
			"-0.011": 0.738648310929,
			"-0.01": 1.47418678752,
			"-0.009": 1.2603082357,
			"-0.008": 2.83241712543,
			"-0.007": 14.4476449039,
			"-0.006": 20.1122557343,
			"-0.005": 25.6923300497,
			"-0.004": 21.910432402,
			"-0.003": 19.3578561248,
			"-0.002": 17.5878479377,
			"-0.001": 17.5237558164,
			"0.0": 22.1949887715,
			"0.001": 23.473229194,
			"0.002": 31.6669064745,
			"0.003": 21.8027701652,
			"0.004": 6.25006590862,
			"0.005": 5.27522130218,
			"0.006": 4.04627519136,
			"0.007": 4.13563318311,
			"0.008": 5.62033218021,
			"0.009": 4.21754885743,
			"0.01": 5.59706294606,
			"0.011": 4.28826015172,
			"0.012": 4.56147259596,
			"0.013": 4.94865799802,
			"0.014": 2.24477079301,
			"0.015": 0.902432659968,
			"0.016": 1.01454925888,
			"0.017": 0.324903884106,
			"0.018": 0.0,
			"0.019": 0.0,
			"0.02": 0.0,
			"0.021": 0.0,
			"0.022": 0.0,
			"0.023": 0.0,
			"0.024": 0.0,
			"0.025": 0.0
		}
	}
}
