{
	 "smiles": "NC1=C(C#N)C(C2=C(NN=C2C(F)(F)F)O1)C1=CC=C(Cl)C=C1Cl", 
	 "Tm": 472.15, 
	 "num_atms": 31, 
	 "gaussian": { 
		 "optdone": 1, 
		 "sigma_profile": "yes", 
		 "theory": "DFT", 
		 "functional": "B3LYP", 
		 "basiset": "6-31G**", 
		 "properties": { 
			 "R2extent": 8285.9295, 
			 "electric_dipole_moment_norm": 5.79133737404, 
			 "electric_quadrupole_moment_norm": 31.256460683, 
			 "total_energy": -2051.78623436, 
			 "HOMO_LUMO_gap": 0.19371, 
			 "cosmo_polarized_energy": -22.23, 
			 "cosmo_cavitation_energy": 41.51, 
			 "cosmo_dispersion_energy": -27.6, 
			 "cosmo_repulsion_energy": 2.06, 
			 "cosmo_total_nonelectrostatic_energy": 15.97, 
			 "SMD_solvation_energy": 8.0 
		},
		"coords": [
			{
				"x": -4.0598372148,
				"y": 1.4742207218,
				"z": 2.2426813447,
				"element": "N" 
			},
			{
				"x": -3.0146454335,
				"y": 0.6537600276,
				"z": 1.947092809,
				"element": "C" 
			},
			{
				"x": -2.8261726308,
				"y": -0.0343883382,
				"z": 0.77929337,
				"element": "C" 
			},
			{
				"x": -3.8823414252,
				"y": 0.0144959258,
				"z": -0.1662584577,
				"element": "C" 
			},
			{
				"x": -4.7742781762,
				"y": 0.062409559,
				"z": -0.9177413062,
				"element": "N" 
			},
			{
				"x": -1.5637215046,
				"y": -0.8336713458,
				"z": 0.4307461547,
				"element": "C" 
			},
			{
				"x": -0.7219071149,
				"y": -0.8883719033,
				"z": 1.6746210475,
				"element": "C" 
			},
			{
				"x": -1.0586933609,
				"y": -0.1857231127,
				"z": 2.8011336396,
				"element": "C" 
			},
			{
				"x": -0.1414233471,
				"y": -0.434191578,
				"z": 3.7621344529,
				"element": "N" 
			},
			{
				"x": 0.8124616413,
				"y": -1.2908546989,
				"z": 3.3246813563,
				"element": "N" 
			},
			{
				"x": 0.4585152125,
				"y": -1.5657173732,
				"z": 2.07166405,
				"element": "C" 
			},
			{
				"x": 1.3025298298,
				"y": -2.4683141038,
				"z": 1.2261587254,
				"element": "C" 
			},
			{
				"x": 2.0787062882,
				"y": -3.2762759104,
				"z": 1.9608514633,
				"element": "F" 
			},
			{
				"x": 2.1034939569,
				"y": -1.7677771444,
				"z": 0.3950416322,
				"element": "F" 
			},
			{
				"x": 0.5096745881,
				"y": -3.2440943038,
				"z": 0.4418607457,
				"element": "F" 
			},
			{
				"x": -2.122728221,
				"y": 0.6329466398,
				"z": 2.99543708,
				"element": "O" 
			},
			{
				"x": -0.8296552297,
				"y": -0.3214279457,
				"z": -0.8145929145,
				"element": "C" 
			},
			{
				"x": -0.7137949705,
				"y": -1.184951088,
				"z": -1.9128083156,
				"element": "C" 
			},
			{
				"x": -0.0728519812,
				"y": -0.8185443214,
				"z": -3.09308748,
				"element": "C" 
			},
			{
				"x": 0.4760533417,
				"y": 0.4575154367,
				"z": -3.1850082138,
				"element": "C" 
			},
			{
				"x": 1.2904285736,
				"y": 0.9552569549,
				"z": -4.6559765093,
				"element": "Cl" 
			},
			{
				"x": 0.3897294959,
				"y": 1.3521689426,
				"z": -2.1212988707,
				"element": "C" 
			},
			{
				"x": -0.2591468759,
				"y": 0.9539123087,
				"z": -0.9527628767,
				"element": "C" 
			},
			{
				"x": -0.3226268907,
				"y": 2.1422098582,
				"z": 0.3452933092,
				"element": "Cl" 
			},
			{
				"x": -4.8350051166,
				"y": 1.4769530671,
				"z": 1.5951677414,
				"element": "H" 
			},
			{
				"x": -4.2864149217,
				"y": 1.5930492381,
				"z": 3.219167556,
				"element": "H" 
			},
			{
				"x": -1.8766576977,
				"y": -1.8543682077,
				"z": 0.1797867939,
				"element": "H" 
			},
			{
				"x": -0.1014939925,
				"y": -0.0711385729,
				"z": 4.7022472908,
				"element": "H" 
			},
			{
				"x": -1.1394603237,
				"y": -2.1810079076,
				"z": -1.8355594708,
				"element": "H" 
			},
			{
				"x": -0.0006931053,
				"y": -1.5096236758,
				"z": -3.9247527709,
				"element": "H" 
			},
			{
				"x": 0.8186566067,
				"y": 2.3437428513,
				"z": -2.1951133764,
				"element": "H" 
			}
		],
		 "valence_orbital": [ 
			{
				"type": "occ",
				"energy": -0.28996,
				"method": "rhf"
			},
			{
				"type": "occ",
				"energy": -0.2667,
				"method": "rhf"
			},
			{
				"type": "occ",
				"energy": -0.26019,
				"method": "rhf"
			},
			{
				"type": "occ",
				"energy": -0.25142,
				"method": "rhf"
			},
			{
				"type": "occ",
				"energy": -0.23199,
				"method": "rhf"
			},
			{
				"type": "unocc",
				"energy": -0.03828,
				"method": "rhf"
			},
			{
				"type": "unocc",
				"energy": -0.02855,
				"method": "rhf"
			},
			{
				"type": "unocc",
				"energy": -0.01816,
				"method": "rhf"
			},
			{
				"type": "unocc",
				"energy": -0.00852,
				"method": "rhf"
			},
			{
				"type": "unocc",
				"energy": 0.00345,
				"method": "rhf"
			}
		],
		"cosmo_sigma_profile": { 
			"-0.025": 0.0,
			"-0.024": 0.0,
			"-0.023": 0.0,
			"-0.022": 0.0,
			"-0.021": 0.0,
			"-0.02": 0.0,
			"-0.019": 0.286725018581,
			"-0.018": 1.67879339815,
			"-0.017": 1.90219695993,
			"-0.016": 0.933521447986,
			"-0.015": 2.61292899514,
			"-0.014": 2.9491889868,
			"-0.013": 4.10984910939,
			"-0.012": 3.1513713293,
			"-0.011": 2.08170885404,
			"-0.01": 3.0955879764,
			"-0.009": 1.81142068233,
			"-0.008": 8.06156954564,
			"-0.007": 10.0571122128,
			"-0.006": 9.59411043562,
			"-0.005": 9.49295501196,
			"-0.004": 10.374943612,
			"-0.003": 13.4926810496,
			"-0.002": 16.0531618152,
			"-0.001": 20.2635550741,
			"0.0": 29.5332063676,
			"0.001": 40.3648489711,
			"0.002": 45.9340506254,
			"0.003": 39.1552702364,
			"0.004": 20.5445773969,
			"0.005": 7.18171454595,
			"0.006": 4.17472898627,
			"0.007": 4.496895739,
			"0.008": 3.93360096992,
			"0.009": 3.95114019582,
			"0.01": 4.0799244869,
			"0.011": 4.71589010346,
			"0.012": 3.50894932356,
			"0.013": 3.68481353582,
			"0.014": 1.43884619754,
			"0.015": 0.000154891399919,
			"0.016": 0.0,
			"0.017": 0.0,
			"0.018": 0.0,
			"0.019": 0.0,
			"0.02": 0.0,
			"0.021": 0.0,
			"0.022": 0.0,
			"0.023": 0.0,
			"0.024": 0.0,
			"0.025": 0.0
		}
	}
}
