{
	 "smiles": "OC1=CC(Cl)=CC=C1", 
	 "Tm": 306.15, 
	 "num_atms": 13, 
	 "gaussian": { 
		 "optdone": 1, 
		 "sigma_profile": "yes", 
		 "theory": "DFT", 
		 "functional": "B3LYP", 
		 "basiset": "6-31G**", 
		 "properties": { 
			 "R2extent": 1788.8428, 
			 "electric_dipole_moment_norm": 1.13608461833, 
			 "electric_quadrupole_moment_norm": 10.0372936701, 
			 "total_energy": -767.063591828, 
			 "HOMO_LUMO_gap": 0.21697, 
			 "cosmo_polarized_energy": -7.99, 
			 "cosmo_cavitation_energy": 18.93, 
			 "cosmo_dispersion_energy": -14.45, 
			 "cosmo_repulsion_energy": 1.2, 
			 "cosmo_total_nonelectrostatic_energy": 5.68, 
			 "SMD_solvation_energy": 3.4 
		},
		"coords": [
			{
				"x": 1.9058234092,
				"y": 0.2630343106,
				"z": 0.4092196512,
				"element": "O" 
			},
			{
				"x": 1.042244271,
				"y": -0.7901357518,
				"z": 0.3342659927,
				"element": "C" 
			},
			{
				"x": -0.2796324364,
				"y": -0.6427993891,
				"z": -0.1004954044,
				"element": "C" 
			},
			{
				"x": -1.1018375764,
				"y": -1.7676993539,
				"z": -0.1496079724,
				"element": "C" 
			},
			{
				"x": -2.7627720289,
				"y": -1.5744739537,
				"z": -0.697457005,
				"element": "Cl" 
			},
			{
				"x": -0.6448200566,
				"y": -3.0299646163,
				"z": 0.2210771627,
				"element": "C" 
			},
			{
				"x": 0.6793460053,
				"y": -3.1517045641,
				"z": 0.6518648816,
				"element": "C" 
			},
			{
				"x": 1.5255533472,
				"y": -2.0486406329,
				"z": 0.7123442782,
				"element": "C" 
			},
			{
				"x": 1.4564157008,
				"y": 1.0691365825,
				"z": 0.1240555341,
				"element": "H" 
			},
			{
				"x": -0.66513279,
				"y": 0.3284843692,
				"z": -0.3961739785,
				"element": "H" 
			},
			{
				"x": -1.3045356934,
				"y": -3.8880054872,
				"z": 0.173562368,
				"element": "H" 
			},
			{
				"x": 1.0540881421,
				"y": -4.1279690355,
				"z": 0.945112862,
				"element": "H" 
			},
			{
				"x": 2.5535597062,
				"y": -2.1372624779,
				"z": 1.0457316298,
				"element": "H" 
			}
		],
		 "valence_orbital": [ 
			{
				"type": "occ",
				"energy": -0.3566,
				"method": "rhf"
			},
			{
				"type": "occ",
				"energy": -0.31862,
				"method": "rhf"
			},
			{
				"type": "occ",
				"energy": -0.31288,
				"method": "rhf"
			},
			{
				"type": "occ",
				"energy": -0.25364,
				"method": "rhf"
			},
			{
				"type": "occ",
				"energy": -0.23099,
				"method": "rhf"
			},
			{
				"type": "unocc",
				"energy": -0.01402,
				"method": "rhf"
			},
			{
				"type": "unocc",
				"energy": 0.00129,
				"method": "rhf"
			},
			{
				"type": "unocc",
				"energy": 0.02762,
				"method": "rhf"
			},
			{
				"type": "unocc",
				"energy": 0.06314,
				"method": "rhf"
			},
			{
				"type": "unocc",
				"energy": 0.11311,
				"method": "rhf"
			}
		],
		"cosmo_sigma_profile": { 
			"-0.025": 0.0,
			"-0.024": 0.0,
			"-0.023": 0.0,
			"-0.022": 0.0,
			"-0.021": 0.0,
			"-0.02": 0.0,
			"-0.019": 0.0561316966147,
			"-0.018": 1.15838961497,
			"-0.017": 0.823339134098,
			"-0.016": 0.944020949053,
			"-0.015": 1.37515936124,
			"-0.014": 1.46421985423,
			"-0.013": 1.10311102999,
			"-0.012": 0.250301193661,
			"-0.011": 0.900074311247,
			"-0.01": 1.27350433312,
			"-0.009": 1.5807598513,
			"-0.008": 1.3121401801,
			"-0.007": 2.97000799019,
			"-0.006": 7.11825729891,
			"-0.005": 7.6005820681,
			"-0.004": 7.65863204033,
			"-0.003": 5.88722387542,
			"-0.002": 7.04295710207,
			"-0.001": 7.97011553936,
			"0.0": 8.01329108536,
			"0.001": 9.15253690123,
			"0.002": 16.157753541,
			"0.003": 19.8261215456,
			"0.004": 19.7330353116,
			"0.005": 13.3395785187,
			"0.006": 1.705350775,
			"0.007": 1.19473911019,
			"0.008": 0.849548834622,
			"0.009": 1.90816764711,
			"0.01": 1.56964072699,
			"0.011": 1.75235051322,
			"0.012": 0.0915798383607,
			"0.013": 0.0,
			"0.014": 0.0,
			"0.015": 0.0,
			"0.016": 0.0,
			"0.017": 0.0,
			"0.018": 0.0,
			"0.019": 0.0,
			"0.02": 0.0,
			"0.021": 0.0,
			"0.022": 0.0,
			"0.023": 0.0,
			"0.024": 0.0,
			"0.025": 0.0
		}
	}
}
