{
	 "smiles": "CCCCCCCC", 
	 "Tm": 216.25, 
	 "num_atms": 26, 
	 "gaussian": { 
		 "optdone": 1, 
		 "sigma_profile": "yes", 
		 "theory": "DFT", 
		 "functional": "B3LYP", 
		 "basiset": "6-31G**", 
		 "properties": { 
			 "R2extent": 1849.227, 
			 "electric_dipole_moment_norm": 0.0439053527488, 
			 "electric_quadrupole_moment_norm": 0.229325772647, 
			 "total_energy": -315.728157543, 
			 "HOMO_LUMO_gap": 0.38021, 
			 "cosmo_polarized_energy": -0.64, 
			 "cosmo_cavitation_energy": 26.45, 
			 "cosmo_dispersion_energy": -18.82, 
			 "cosmo_repulsion_energy": 1.62, 
			 "cosmo_total_nonelectrostatic_energy": 9.24, 
			 "SMD_solvation_energy": 4.0 
		},
		"coords": [
			{
				"x": -0.2565291636,
				"y": 1.74642533,
				"z": -3.0478592179,
				"element": "C" 
			},
			{
				"x": 0.9354832975,
				"y": 1.9156679398,
				"z": -2.0980460815,
				"element": "C" 
			},
			{
				"x": 0.6387241752,
				"y": 1.5604655825,
				"z": -0.6316064055,
				"element": "C" 
			},
			{
				"x": 0.3268025797,
				"y": 0.0785788097,
				"z": -0.3783521485,
				"element": "C" 
			},
			{
				"x": 0.099767584,
				"y": -0.2394014026,
				"z": 1.1063872907,
				"element": "C" 
			},
			{
				"x": -0.1249598247,
				"y": -1.7295228944,
				"z": 1.4182158509,
				"element": "C" 
			},
			{
				"x": -1.3850238522,
				"y": -2.3644292588,
				"z": 0.803086546,
				"element": "C" 
			},
			{
				"x": -2.7035509795,
				"y": -1.7548443658,
				"z": 1.2937111169,
				"element": "C" 
			},
			{
				"x": -0.5888802234,
				"y": 0.704923272,
				"z": -3.1064066454,
				"element": "H" 
			},
			{
				"x": -1.1116260811,
				"y": 2.3483044517,
				"z": -2.7179925452,
				"element": "H" 
			},
			{
				"x": 0.0004962456,
				"y": 2.0650335172,
				"z": -4.0635538971,
				"element": "H" 
			},
			{
				"x": 1.2798652453,
				"y": 2.9568965134,
				"z": -2.1433111171,
				"element": "H" 
			},
			{
				"x": 1.7759712549,
				"y": 1.3039012437,
				"z": -2.4541356694,
				"element": "H" 
			},
			{
				"x": 1.5030140275,
				"y": 1.8478558131,
				"z": -0.0171268729,
				"element": "H" 
			},
			{
				"x": -0.2018843613,
				"y": 2.1737052309,
				"z": -0.2751574358,
				"element": "H" 
			},
			{
				"x": -0.5563369157,
				"y": -0.2163751287,
				"z": -0.958096335,
				"element": "H" 
			},
			{
				"x": 1.15804524,
				"y": -0.5349313251,
				"z": -0.7566495951,
				"element": "H" 
			},
			{
				"x": 0.9729749686,
				"y": 0.1042816692,
				"z": 1.6777488678,
				"element": "H" 
			},
			{
				"x": -0.7478668001,
				"y": 0.3522460305,
				"z": 1.4778598188,
				"element": "H" 
			},
			{
				"x": -0.1667726523,
				"y": -1.8567500273,
				"z": 2.5088810115,
				"element": "H" 
			},
			{
				"x": 0.7544105227,
				"y": -2.2957176854,
				"z": 1.0813384166,
				"element": "H" 
			},
			{
				"x": -1.3383528291,
				"y": -2.3009622296,
				"z": -0.2915750586,
				"element": "H" 
			},
			{
				"x": -1.3789295334,
				"y": -3.4364111275,
				"z": 1.0388911172,
				"element": "H" 
			},
			{
				"x": -3.5640436968,
				"y": -2.2862465809,
				"z": 0.8737762585,
				"element": "H" 
			},
			{
				"x": -2.7810234326,
				"y": -1.8084907132,
				"z": 2.3861101989,
				"element": "H" 
			},
			{
				"x": -2.7989747949,
				"y": -0.7019026643,
				"z": 1.0084625313,
				"element": "H" 
			}
		],
		 "valence_orbital": [ 
			{
				"type": "occ",
				"energy": -0.32149,
				"method": "rhf"
			},
			{
				"type": "occ",
				"energy": -0.31893,
				"method": "rhf"
			},
			{
				"type": "occ",
				"energy": -0.31083,
				"method": "rhf"
			},
			{
				"type": "occ",
				"energy": -0.3046,
				"method": "rhf"
			},
			{
				"type": "occ",
				"energy": -0.29869,
				"method": "rhf"
			},
			{
				"type": "unocc",
				"energy": 0.08152,
				"method": "rhf"
			},
			{
				"type": "unocc",
				"energy": 0.10082,
				"method": "rhf"
			},
			{
				"type": "unocc",
				"energy": 0.11415,
				"method": "rhf"
			},
			{
				"type": "unocc",
				"energy": 0.11943,
				"method": "rhf"
			},
			{
				"type": "unocc",
				"energy": 0.13586,
				"method": "rhf"
			}
		],
		"cosmo_sigma_profile": { 
			"-0.025": 0.0,
			"-0.024": 0.0,
			"-0.023": 0.0,
			"-0.022": 0.0,
			"-0.021": 0.0,
			"-0.02": 0.0,
			"-0.019": 0.0,
			"-0.018": 0.0,
			"-0.017": 0.0,
			"-0.016": 0.0,
			"-0.015": 0.0,
			"-0.014": 0.0,
			"-0.013": 0.0,
			"-0.012": 0.0,
			"-0.011": 0.0,
			"-0.01": 0.0,
			"-0.009": 0.0,
			"-0.008": 0.0,
			"-0.007": 0.0,
			"-0.006": 0.0,
			"-0.005": 0.0,
			"-0.004": 0.0,
			"-0.003": 2.49640217946,
			"-0.002": 26.1511765275,
			"-0.001": 42.5181081281,
			"0.0": 53.5987485676,
			"0.001": 52.5513440453,
			"0.002": 24.0647288595,
			"0.003": 0.855319394417,
			"0.004": 0.0,
			"0.005": 0.0,
			"0.006": 0.0,
			"0.007": 0.0,
			"0.008": 0.0,
			"0.009": 0.0,
			"0.01": 0.0,
			"0.011": 0.0,
			"0.012": 0.0,
			"0.013": 0.0,
			"0.014": 0.0,
			"0.015": 0.0,
			"0.016": 0.0,
			"0.017": 0.0,
			"0.018": 0.0,
			"0.019": 0.0,
			"0.02": 0.0,
			"0.021": 0.0,
			"0.022": 0.0,
			"0.023": 0.0,
			"0.024": 0.0,
			"0.025": 0.0
		}
	}
}
