{
	 "smiles": "BrC1=C(C=CN=C1)C#N", 
	 "Tm": 366.15, 
	 "num_atms": 12, 
	 "gaussian": { 
		 "optdone": 1, 
		 "sigma_profile": "yes", 
		 "theory": "DFT", 
		 "functional": "B3LYP", 
		 "basiset": "6-31G**", 
		 "properties": { 
			 "R2extent": 3441.3501, 
			 "electric_dipole_moment_norm": 2.47223651579, 
			 "electric_quadrupole_moment_norm": 13.1100501479, 
			 "total_energy": -2911.31901305, 
			 "HOMO_LUMO_gap": 0.18958, 
			 "cosmo_polarized_energy": -8.67, 
			 "cosmo_cavitation_energy": 20.16, 
			 "cosmo_dispersion_energy": -14.78, 
			 "cosmo_repulsion_energy": 1.21, 
			 "cosmo_total_nonelectrostatic_energy": 6.58, 
			 "SMD_solvation_energy": 2.43 
		},
		"coords": [
			{
				"x": -1.6465332995,
				"y": 2.6110006492,
				"z": -2.2270443682,
				"element": "Br" 
			},
			{
				"x": -1.8528579247,
				"y": 0.8638240936,
				"z": -1.5266444809,
				"element": "C" 
			},
			{
				"x": -0.8480222689,
				"y": -0.1071178551,
				"z": -1.6671179681,
				"element": "C" 
			},
			{
				"x": -1.0851837216,
				"y": -1.3770413563,
				"z": -1.1170321714,
				"element": "C" 
			},
			{
				"x": -2.2924280001,
				"y": -1.6105751657,
				"z": -0.4654620386,
				"element": "C" 
			},
			{
				"x": -3.249819105,
				"y": -0.6836126027,
				"z": -0.3321967025,
				"element": "N" 
			},
			{
				"x": -3.0295286706,
				"y": 0.5250193764,
				"z": -0.8531859425,
				"element": "C" 
			},
			{
				"x": 0.3873414852,
				"y": 0.1579863913,
				"z": -2.342864477,
				"element": "C" 
			},
			{
				"x": 1.4019269781,
				"y": 0.3318814315,
				"z": -2.882705125,
				"element": "N" 
			},
			{
				"x": -0.3348661325,
				"y": -2.1550206053,
				"z": -1.203683611,
				"element": "H" 
			},
			{
				"x": -2.5003649266,
				"y": -2.5853390507,
				"z": -0.0310154808,
				"element": "H" 
			},
			{
				"x": -3.8156644139,
				"y": 1.2662946938,
				"z": -0.7369476343,
				"element": "H" 
			}
		],
		 "valence_orbital": [ 
			{
				"type": "occ",
				"energy": -0.34949,
				"method": "rhf"
			},
			{
				"type": "occ",
				"energy": -0.31541,
				"method": "rhf"
			},
			{
				"type": "occ",
				"energy": -0.30611,
				"method": "rhf"
			},
			{
				"type": "occ",
				"energy": -0.28706,
				"method": "rhf"
			},
			{
				"type": "occ",
				"energy": -0.27584,
				"method": "rhf"
			},
			{
				"type": "unocc",
				"energy": -0.08626,
				"method": "rhf"
			},
			{
				"type": "unocc",
				"energy": -0.04848,
				"method": "rhf"
			},
			{
				"type": "unocc",
				"energy": -0.01723,
				"method": "rhf"
			},
			{
				"type": "unocc",
				"energy": 0.01681,
				"method": "rhf"
			},
			{
				"type": "unocc",
				"energy": 0.05252,
				"method": "rhf"
			}
		],
		"cosmo_sigma_profile": { 
			"-0.025": 0.0,
			"-0.024": 0.0,
			"-0.023": 0.0,
			"-0.022": 0.0,
			"-0.021": 0.0,
			"-0.02": 0.0,
			"-0.019": 0.0,
			"-0.018": 0.0,
			"-0.017": 0.0,
			"-0.016": 0.0,
			"-0.015": 0.0,
			"-0.014": 0.0,
			"-0.013": 0.0,
			"-0.012": 0.0,
			"-0.011": 0.0,
			"-0.01": 0.988054881431,
			"-0.009": 3.63655944689,
			"-0.008": 7.3204460275,
			"-0.007": 5.17911339953,
			"-0.006": 6.42710858338,
			"-0.005": 8.25645169944,
			"-0.004": 10.4500736268,
			"-0.003": 14.6449481172,
			"-0.002": 17.2763521616,
			"-0.001": 14.9233195932,
			"0.0": 10.2932878787,
			"0.001": 7.72599420121,
			"0.002": 13.1246910668,
			"0.003": 11.7385583203,
			"0.004": 4.43987967887,
			"0.005": 4.01077748099,
			"0.006": 4.65692329947,
			"0.007": 3.97671367419,
			"0.008": 4.2121872929,
			"0.009": 3.58869927208,
			"0.01": 3.54512696477,
			"0.011": 3.60385600903,
			"0.012": 1.81157092772,
			"0.013": 0.934391634558,
			"0.014": 0.647633205701,
			"0.015": 0.190234159753,
			"0.016": 0.0,
			"0.017": 0.0,
			"0.018": 0.0,
			"0.019": 0.0,
			"0.02": 0.0,
			"0.021": 0.0,
			"0.022": 0.0,
			"0.023": 0.0,
			"0.024": 0.0,
			"0.025": 0.0
		}
	}
}
