{
	 "smiles": "N#CCCCN1CCOCC1", 
	 "Tm": 341.15, 
	 "num_atms": 25, 
	 "gaussian": { 
		 "optdone": 1, 
		 "sigma_profile": "yes", 
		 "theory": "DFT", 
		 "functional": "B3LYP", 
		 "basiset": "6-31G**", 
		 "properties": { 
			 "R2extent": 2775.2401, 
			 "electric_dipole_moment_norm": 3.17336276212, 
			 "electric_quadrupole_moment_norm": 23.1903854761, 
			 "total_energy": -497.966663209, 
			 "HOMO_LUMO_gap": 0.24491, 
			 "cosmo_polarized_energy": -12.79, 
			 "cosmo_cavitation_energy": 27.2, 
			 "cosmo_dispersion_energy": -19.48, 
			 "cosmo_repulsion_energy": 1.59, 
			 "cosmo_total_nonelectrostatic_energy": 9.31, 
			 "SMD_solvation_energy": 3.15 
		},
		"coords": [
			{
				"x": -4.1019553952,
				"y": -0.2478371261,
				"z": -3.0248781682,
				"element": "N" 
			},
			{
				"x": -3.0565077974,
				"y": 0.2532435081,
				"z": -3.0858637374,
				"element": "C" 
			},
			{
				"x": -1.7266527057,
				"y": 0.869448788,
				"z": -3.1467398355,
				"element": "C" 
			},
			{
				"x": -0.6323455036,
				"y": 0.0201935944,
				"z": -2.4655175933,
				"element": "C" 
			},
			{
				"x": -0.8817700468,
				"y": -0.1801132911,
				"z": -0.9650804117,
				"element": "C" 
			},
			{
				"x": 0.1323449663,
				"y": -1.0258597703,
				"z": -0.3475131456,
				"element": "N" 
			},
			{
				"x": 1.4461963676,
				"y": -0.3709271218,
				"z": -0.2632856748,
				"element": "C" 
			},
			{
				"x": 2.3056462835,
				"y": -1.0284720494,
				"z": 0.8107672618,
				"element": "C" 
			},
			{
				"x": 1.7495483825,
				"y": -0.8872675228,
				"z": 2.1145520933,
				"element": "O" 
			},
			{
				"x": 0.3211439432,
				"y": -0.8927253144,
				"z": 2.1430434826,
				"element": "C" 
			},
			{
				"x": -0.2675630034,
				"y": -1.6270299139,
				"z": 0.9389462545,
				"element": "C" 
			},
			{
				"x": -1.7889285812,
				"y": 1.8594534549,
				"z": -2.6781278484,
				"element": "H" 
			},
			{
				"x": -1.4753423263,
				"y": 1.0343798398,
				"z": -4.2003726469,
				"element": "H" 
			},
			{
				"x": 0.3230831338,
				"y": 0.5289768796,
				"z": -2.632155915,
				"element": "H" 
			},
			{
				"x": -0.56485268,
				"y": -0.9601308522,
				"z": -2.9481180883,
				"element": "H" 
			},
			{
				"x": -0.9551022597,
				"y": 0.8156459963,
				"z": -0.478574688,
				"element": "H" 
			},
			{
				"x": -1.8547818042,
				"y": -0.6670689287,
				"z": -0.8403462377,
				"element": "H" 
			},
			{
				"x": 1.3492151377,
				"y": 0.7050556328,
				"z": -0.0204639886,
				"element": "H" 
			},
			{
				"x": 1.9663833674,
				"y": -0.4350016815,
				"z": -1.227692398,
				"element": "H" 
			},
			{
				"x": 3.2937408407,
				"y": -0.5583331287,
				"z": 0.8393712885,
				"element": "H" 
			},
			{
				"x": 2.4498783711,
				"y": -2.0919374287,
				"z": 0.563123748,
				"element": "H" 
			},
			{
				"x": -0.0556085359,
				"y": 0.1423043564,
				"z": 2.1720188349,
				"element": "H" 
			},
			{
				"x": 0.0194871339,
				"y": -1.3798386324,
				"z": 3.0776347994,
				"element": "H" 
			},
			{
				"x": -1.3594401382,
				"y": -1.6374381736,
				"z": 1.0107147856,
				"element": "H" 
			},
			{
				"x": 0.05988285,
				"y": -2.6749211149,
				"z": 0.9710578288,
				"element": "H" 
			}
		],
		 "valence_orbital": [ 
			{
				"type": "occ",
				"energy": -0.32358,
				"method": "rhf"
			},
			{
				"type": "occ",
				"energy": -0.32175,
				"method": "rhf"
			},
			{
				"type": "occ",
				"energy": -0.30528,
				"method": "rhf"
			},
			{
				"type": "occ",
				"energy": -0.24869,
				"method": "rhf"
			},
			{
				"type": "occ",
				"energy": -0.21494,
				"method": "rhf"
			},
			{
				"type": "unocc",
				"energy": 0.02997,
				"method": "rhf"
			},
			{
				"type": "unocc",
				"energy": 0.03707,
				"method": "rhf"
			},
			{
				"type": "unocc",
				"energy": 0.07745,
				"method": "rhf"
			},
			{
				"type": "unocc",
				"energy": 0.08509,
				"method": "rhf"
			},
			{
				"type": "unocc",
				"energy": 0.10399,
				"method": "rhf"
			}
		],
		"cosmo_sigma_profile": { 
			"-0.025": 0.0,
			"-0.024": 0.0,
			"-0.023": 0.0,
			"-0.022": 0.0,
			"-0.021": 0.0,
			"-0.02": 0.0,
			"-0.019": 0.0,
			"-0.018": 0.0,
			"-0.017": 0.0,
			"-0.016": 0.0,
			"-0.015": 0.0,
			"-0.014": 0.0,
			"-0.013": 0.0,
			"-0.012": 0.0,
			"-0.011": 0.0,
			"-0.01": 0.0,
			"-0.009": 0.056330726011,
			"-0.008": 3.09215076424,
			"-0.007": 5.46458698644,
			"-0.006": 6.63541671229,
			"-0.005": 15.464494144,
			"-0.004": 26.7757464261,
			"-0.003": 32.4952765938,
			"-0.002": 32.6287700571,
			"-0.001": 16.6268692012,
			"0.0": 8.93606453118,
			"0.001": 5.78346021293,
			"0.002": 3.99161442274,
			"0.003": 5.26699147843,
			"0.004": 4.37197318361,
			"0.005": 3.93009890981,
			"0.006": 4.56990602259,
			"0.007": 4.47540447107,
			"0.008": 4.982549826,
			"0.009": 5.57461760544,
			"0.01": 5.23574876457,
			"0.011": 3.6893175888,
			"0.012": 4.78247887453,
			"0.013": 4.30246428314,
			"0.014": 2.71340872855,
			"0.015": 0.333187472487,
			"0.016": 0.0,
			"0.017": 0.0,
			"0.018": 0.0,
			"0.019": 0.0,
			"0.02": 0.0,
			"0.021": 0.0,
			"0.022": 0.0,
			"0.023": 0.0,
			"0.024": 0.0,
			"0.025": 0.0
		}
	}
}
