{
	 "smiles": "CCCC=NO", 
	 "Tm": 243.65, 
	 "num_atms": 15, 
	 "gaussian": { 
		 "optdone": 1, 
		 "sigma_profile": "yes", 
		 "theory": "DFT", 
		 "functional": "B3LYP", 
		 "basiset": "6-31G**", 
		 "properties": { 
			 "R2extent": 903.9983, 
			 "electric_dipole_moment_norm": 0.513756391688, 
			 "electric_quadrupole_moment_norm": 5.12237171923, 
			 "total_energy": -287.767770704, 
			 "HOMO_LUMO_gap": 0.25785, 
			 "cosmo_polarized_energy": -6.26, 
			 "cosmo_cavitation_energy": 18.06, 
			 "cosmo_dispersion_energy": -13.37, 
			 "cosmo_repulsion_energy": 1.2, 
			 "cosmo_total_nonelectrostatic_energy": 5.89, 
			 "SMD_solvation_energy": 3.91 
		},
		"coords": [
			{
				"x": -2.0825853928,
				"y": -0.6234855152,
				"z": -1.9936538099,
				"element": "C" 
			},
			{
				"x": -0.8839663695,
				"y": 0.2945573188,
				"z": -2.258056336,
				"element": "C" 
			},
			{
				"x": -0.7851401983,
				"y": 1.4878259572,
				"z": -1.2955642592,
				"element": "C" 
			},
			{
				"x": -0.3920452511,
				"y": 1.171168524,
				"z": 0.121193281,
				"element": "C" 
			},
			{
				"x": -0.0518306406,
				"y": -0.0065387282,
				"z": 0.472749317,
				"element": "N" 
			},
			{
				"x": 0.301419101,
				"y": -0.0447086567,
				"z": 1.8354448351,
				"element": "O" 
			},
			{
				"x": -2.1234099372,
				"y": -1.433391442,
				"z": -2.7294892131,
				"element": "H" 
			},
			{
				"x": -2.0204027835,
				"y": -1.0731626215,
				"z": -0.9997746561,
				"element": "H" 
			},
			{
				"x": -3.0265910448,
				"y": -0.0694517129,
				"z": -2.0587276298,
				"element": "H" 
			},
			{
				"x": -0.947655814,
				"y": 0.6894767928,
				"z": -3.2793919296,
				"element": "H" 
			},
			{
				"x": 0.0435389396,
				"y": -0.2858226304,
				"z": -2.2027595995,
				"element": "H" 
			},
			{
				"x": -1.7420614009,
				"y": 2.0303084223,
				"z": -1.2700618421,
				"element": "H" 
			},
			{
				"x": -0.0561145213,
				"y": 2.2169339818,
				"z": -1.6799544104,
				"element": "H" 
			},
			{
				"x": -0.3837133999,
				"y": 1.9853951455,
				"z": 0.8527337108,
				"element": "H" 
			},
			{
				"x": 0.5257587134,
				"y": -0.9758048356,
				"z": 1.963312542,
				"element": "H" 
			}
		],
		 "valence_orbital": [ 
			{
				"type": "occ",
				"energy": -0.34091,
				"method": "rhf"
			},
			{
				"type": "occ",
				"energy": -0.33554,
				"method": "rhf"
			},
			{
				"type": "occ",
				"energy": -0.32915,
				"method": "rhf"
			},
			{
				"type": "occ",
				"energy": -0.27119,
				"method": "rhf"
			},
			{
				"type": "occ",
				"energy": -0.24743,
				"method": "rhf"
			},
			{
				"type": "unocc",
				"energy": 0.01042,
				"method": "rhf"
			},
			{
				"type": "unocc",
				"energy": 0.07788,
				"method": "rhf"
			},
			{
				"type": "unocc",
				"energy": 0.09695,
				"method": "rhf"
			},
			{
				"type": "unocc",
				"energy": 0.13129,
				"method": "rhf"
			},
			{
				"type": "unocc",
				"energy": 0.1467,
				"method": "rhf"
			}
		],
		"cosmo_sigma_profile": { 
			"-0.025": 0.0,
			"-0.024": 0.0,
			"-0.023": 0.0,
			"-0.022": 0.0,
			"-0.021": 0.0,
			"-0.02": 0.0,
			"-0.019": 0.0,
			"-0.018": 0.0,
			"-0.017": 0.48182514317,
			"-0.016": 1.08010076232,
			"-0.015": 0.641579377996,
			"-0.014": 0.902031276413,
			"-0.013": 0.960260525073,
			"-0.012": 0.723901136546,
			"-0.011": 0.974354349789,
			"-0.01": 0.164155668729,
			"-0.009": 0.435357634051,
			"-0.008": 0.486957234175,
			"-0.007": 1.46247126987,
			"-0.006": 2.8076521515,
			"-0.005": 4.06964713105,
			"-0.004": 9.08952587819,
			"-0.003": 11.0407786246,
			"-0.002": 17.0466347933,
			"-0.001": 16.6127633908,
			"0.0": 14.9739418875,
			"0.001": 14.4184446276,
			"0.002": 8.98648937218,
			"0.003": 4.25292340671,
			"0.004": 4.17107621202,
			"0.005": 3.99994912717,
			"0.006": 4.1688785157,
			"0.007": 3.57616971661,
			"0.008": 3.46422877218,
			"0.009": 2.03628255936,
			"0.01": 3.23805517924,
			"0.011": 2.73063733011,
			"0.012": 1.23343176662,
			"0.013": 0.15237605046,
			"0.014": 0.0,
			"0.015": 0.0,
			"0.016": 0.0,
			"0.017": 0.0,
			"0.018": 0.0,
			"0.019": 0.0,
			"0.02": 0.0,
			"0.021": 0.0,
			"0.022": 0.0,
			"0.023": 0.0,
			"0.024": 0.0,
			"0.025": 0.0
		}
	}
}
