{
	 "smiles": "COC1C=C/C=C(C)/CC2=CC(N(C)C(=O)CC(OC(=O)C(C)N(C)C(C)=O)[C@]3(C)O[C@H]3C(C)C3CC1(O)NC(=O)O3)=C(Cl)C(OC)=C2", 
	 "Tm": 445.15, 
	 "num_atms": 94, 
	 "gaussian": { 
		 "optdone": 1, 
		 "sigma_profile": "yes", 
		 "theory": "DFT", 
		 "functional": "B3LYP", 
		 "basiset": "6-31G**", 
		 "properties": { 
			 "R2extent": 28542.1857, 
			 "electric_dipole_moment_norm": 16.6054394106, 
			 "electric_quadrupole_moment_norm": 28.8802919639, 
			 "total_energy": -2699.98019504, 
			 "HOMO_LUMO_gap": 0.16486, 
			 "cosmo_polarized_energy": -47.59, 
			 "cosmo_cavitation_energy": 89.96, 
			 "cosmo_dispersion_energy": -49.82, 
			 "cosmo_repulsion_energy": 3.67, 
			 "cosmo_total_nonelectrostatic_energy": 43.81, 
			 "SMD_solvation_energy": 17.81 
		},
		"coords": [
			{
				"x": 2.9300135562,
				"y": -4.4768564511,
				"z": 0.1650554868,
				"element": "C" 
			},
			{
				"x": 2.3269843943,
				"y": -3.5055884369,
				"z": 1.000731012,
				"element": "O" 
			},
			{
				"x": 2.7271783251,
				"y": -2.1715991697,
				"z": 0.7140835244,
				"element": "C" 
			},
			{
				"x": 4.1439078502,
				"y": -1.9643871483,
				"z": 1.2061086596,
				"element": "C" 
			},
			{
				"x": 5.1093296837,
				"y": -1.0731230581,
				"z": 0.9122596365,
				"element": "C" 
			},
			{
				"x": 5.2769989592,
				"y": 0.0502465251,
				"z": -0.0242670326,
				"element": "C" 
			},
			{
				"x": 5.0487810206,
				"y": 0.1796011499,
				"z": -1.3463631848,
				"element": "C" 
			},
			{
				"x": 5.5766400751,
				"y": 1.3880246451,
				"z": -2.0869829631,
				"element": "C" 
			},
			{
				"x": 4.3891664092,
				"y": -0.8740123659,
				"z": -2.202974049,
				"element": "C" 
			},
			{
				"x": 3.0347033617,
				"y": -0.4912232645,
				"z": -2.8043933672,
				"element": "C" 
			},
			{
				"x": 2.3595529098,
				"y": 0.6866380231,
				"z": -2.4733214856,
				"element": "C" 
			},
			{
				"x": 1.151306508,
				"y": 1.0365290366,
				"z": -3.1030342295,
				"element": "C" 
			},
			{
				"x": 0.5619902842,
				"y": 2.3104890732,
				"z": -2.8353991453,
				"element": "N" 
			},
			{
				"x": 1.0393772485,
				"y": 3.4263945622,
				"z": -3.6579463554,
				"element": "C" 
			},
			{
				"x": -0.4897644504,
				"y": 2.5271377888,
				"z": -1.9557742482,
				"element": "C" 
			},
			{
				"x": -1.000182047,
				"y": 3.6325165199,
				"z": -1.8314877996,
				"element": "O" 
			},
			{
				"x": -0.9194840676,
				"y": 1.3256220217,
				"z": -1.1231276374,
				"element": "C" 
			},
			{
				"x": -2.3368737292,
				"y": 1.4268796671,
				"z": -0.5496730234,
				"element": "C" 
			},
			{
				"x": -2.3195462021,
				"y": 2.4294488171,
				"z": 0.4726123313,
				"element": "O" 
			},
			{
				"x": -3.3339434637,
				"y": 3.327935259,
				"z": 0.4984828463,
				"element": "C" 
			},
			{
				"x": -4.2288100701,
				"y": 3.372742926,
				"z": -0.3136698867,
				"element": "O" 
			},
			{
				"x": -3.2398287055,
				"y": 4.2699047584,
				"z": 1.7028072549,
				"element": "C" 
			},
			{
				"x": -3.6043162183,
				"y": 5.7033844141,
				"z": 1.2903201631,
				"element": "C" 
			},
			{
				"x": -1.9797652033,
				"y": 4.1782955904,
				"z": 2.4337883825,
				"element": "N" 
			},
			{
				"x": -0.7538398372,
				"y": 4.6317732644,
				"z": 1.7835527205,
				"element": "C" 
			},
			{
				"x": -2.0210648495,
				"y": 3.6999679514,
				"z": 3.7282212802,
				"element": "C" 
			},
			{
				"x": -0.7092093212,
				"y": 3.6337036624,
				"z": 4.4951439831,
				"element": "C" 
			},
			{
				"x": -3.0712630302,
				"y": 3.330481056,
				"z": 4.2491391621,
				"element": "O" 
			},
			{
				"x": -2.7537887018,
				"y": 0.0869607626,
				"z": 0.0826085547,
				"element": "C" 
			},
			{
				"x": -2.9675496954,
				"y": -1.0485472124,
				"z": -0.9014349761,
				"element": "C" 
			},
			{
				"x": -3.7595324597,
				"y": 0.1749020531,
				"z": 1.0986933976,
				"element": "O" 
			},
			{
				"x": -2.4105848325,
				"y": -0.1237558977,
				"z": 1.5067437948,
				"element": "C" 
			},
			{
				"x": -2.1202581657,
				"y": -1.4570208688,
				"z": 2.1780756953,
				"element": "C" 
			},
			{
				"x": -2.9263691601,
				"y": -1.5812527304,
				"z": 3.480950891,
				"element": "C" 
			},
			{
				"x": -0.6045179365,
				"y": -1.586721068,
				"z": 2.4301759135,
				"element": "C" 
			},
			{
				"x": 0.2377311128,
				"y": -1.6499682615,
				"z": 1.1504444182,
				"element": "C" 
			},
			{
				"x": 1.7004835219,
				"y": -1.1993000589,
				"z": 1.3821958837,
				"element": "C" 
			},
			{
				"x": 1.9348423122,
				"y": 0.104608127,
				"z": 0.8304649588,
				"element": "O" 
			},
			{
				"x": 1.9530112581,
				"y": -1.0856801492,
				"z": 2.8019825237,
				"element": "N" 
			},
			{
				"x": 1.0832964079,
				"y": -0.3190739827,
				"z": 3.5735785819,
				"element": "C" 
			},
			{
				"x": 1.43811617,
				"y": 0.3978767081,
				"z": 4.4821267269,
				"element": "O" 
			},
			{
				"x": -0.2233230685,
				"y": -0.4527975978,
				"z": 3.2500766415,
				"element": "O" 
			},
			{
				"x": 0.6002786581,
				"y": 0.173279748,
				"z": -4.0562900327,
				"element": "C" 
			},
			{
				"x": -0.8896091667,
				"y": 0.5767879162,
				"z": -4.8662380499,
				"element": "Cl" 
			},
			{
				"x": 1.2484189691,
				"y": -1.0415340496,
				"z": -4.3764185157,
				"element": "C" 
			},
			{
				"x": 0.6369586698,
				"y": -1.823279227,
				"z": -5.2952762071,
				"element": "O" 
			},
			{
				"x": 1.2573751136,
				"y": -3.0443146245,
				"z": -5.6792549144,
				"element": "C" 
			},
			{
				"x": 2.4610103286,
				"y": -1.3502086109,
				"z": -3.7541529796,
				"element": "C" 
			},
			{
				"x": 2.5385723035,
				"y": -5.4487600703,
				"z": 0.4730426032,
				"element": "H" 
			},
			{
				"x": 4.0245189185,
				"y": -4.4860290546,
				"z": 0.2634193655,
				"element": "H" 
			},
			{
				"x": 2.6778052821,
				"y": -4.3097845727,
				"z": -0.8943142222,
				"element": "H" 
			},
			{
				"x": 2.6340558115,
				"y": -1.9943781891,
				"z": -0.3683935784,
				"element": "H" 
			},
			{
				"x": 4.375172665,
				"y": -2.664508817,
				"z": 2.0084197168,
				"element": "H" 
			},
			{
				"x": 5.9885475937,
				"y": -1.1637688415,
				"z": 1.5542921074,
				"element": "H" 
			},
			{
				"x": 5.8241096166,
				"y": 0.8737876782,
				"z": 0.4368515508,
				"element": "H" 
			},
			{
				"x": 5.9577205109,
				"y": 2.1494506405,
				"z": -1.4019325985,
				"element": "H" 
			},
			{
				"x": 4.8170791015,
				"y": 1.8498055822,
				"z": -2.7264290794,
				"element": "H" 
			},
			{
				"x": 6.3992328796,
				"y": 1.0914754509,
				"z": -2.7521871084,
				"element": "H" 
			},
			{
				"x": 4.2914885277,
				"y": -1.807197265,
				"z": -1.6391128282,
				"element": "H" 
			},
			{
				"x": 5.0580326511,
				"y": -1.1056476982,
				"z": -3.0450965859,
				"element": "H" 
			},
			{
				"x": 2.7747459931,
				"y": 1.3803210603,
				"z": -1.7497277361,
				"element": "H" 
			},
			{
				"x": 0.5164847683,
				"y": 4.3234173776,
				"z": -3.3291360648,
				"element": "H" 
			},
			{
				"x": 2.1190232418,
				"y": 3.5571376953,
				"z": -3.5322950994,
				"element": "H" 
			},
			{
				"x": 0.8230324446,
				"y": 3.2463124897,
				"z": -4.7163894814,
				"element": "H" 
			},
			{
				"x": -0.8352531263,
				"y": 0.4147610384,
				"z": -1.7188988184,
				"element": "H" 
			},
			{
				"x": -0.2123722945,
				"y": 1.228172036,
				"z": -0.2892349697,
				"element": "H" 
			},
			{
				"x": -3.0588412893,
				"y": 1.7228116443,
				"z": -1.3160393781,
				"element": "H" 
			},
			{
				"x": -3.9941324979,
				"y": 3.901738476,
				"z": 2.4070807492,
				"element": "H" 
			},
			{
				"x": -4.5586341518,
				"y": 5.6991240879,
				"z": 0.7605335564,
				"element": "H" 
			},
			{
				"x": -2.8522779063,
				"y": 6.1371055008,
				"z": 0.6237380444,
				"element": "H" 
			},
			{
				"x": -3.6898510727,
				"y": 6.3341776798,
				"z": 2.1791134945,
				"element": "H" 
			},
			{
				"x": -0.8671019656,
				"y": 4.5517484978,
				"z": 0.700757777,
				"element": "H" 
			},
			{
				"x": 0.0889018976,
				"y": 3.9984842481,
				"z": 2.0670754118,
				"element": "H" 
			},
			{
				"x": -0.5073633538,
				"y": 5.6727083153,
				"z": 2.0336269456,
				"element": "H" 
			},
			{
				"x": -0.1174612931,
				"y": 2.7628286001,
				"z": 4.1894811894,
				"element": "H" 
			},
			{
				"x": -0.0916182921,
				"y": 4.5272825639,
				"z": 4.3694086807,
				"element": "H" 
			},
			{
				"x": -0.9589040831,
				"y": 3.5111182463,
				"z": 5.5489270077,
				"element": "H" 
			},
			{
				"x": -2.036898242,
				"y": -1.395501986,
				"z": -1.3623105294,
				"element": "H" 
			},
			{
				"x": -3.6373744778,
				"y": -0.723394283,
				"z": -1.705022748,
				"element": "H" 
			},
			{
				"x": -3.4403946384,
				"y": -1.8944579863,
				"z": -0.4000397727,
				"element": "H" 
			},
			{
				"x": -1.9431393972,
				"y": 0.7170216318,
				"z": 2.0143176716,
				"element": "H" 
			},
			{
				"x": -2.3979210063,
				"y": -2.2841983604,
				"z": 1.5130712075,
				"element": "H" 
			},
			{
				"x": -2.6498722915,
				"y": -0.7924469327,
				"z": 4.1855089116,
				"element": "H" 
			},
			{
				"x": -2.7488911681,
				"y": -2.5496635492,
				"z": 3.9611784445,
				"element": "H" 
			},
			{
				"x": -3.9942274418,
				"y": -1.4903730894,
				"z": 3.2675231831,
				"element": "H" 
			},
			{
				"x": -0.4134155285,
				"y": -2.4892171951,
				"z": 3.0238838957,
				"element": "H" 
			},
			{
				"x": -0.1920314214,
				"y": -1.0044461604,
				"z": 0.3840518523,
				"element": "H" 
			},
			{
				"x": 0.221177987,
				"y": -2.6784282689,
				"z": 0.7846841585,
				"element": "H" 
			},
			{
				"x": 1.8605718715,
				"y": 0.0548160169,
				"z": -0.1344834494,
				"element": "H" 
			},
			{
				"x": 2.9119573339,
				"y": -0.8293572923,
				"z": 3.0117482036,
				"element": "H" 
			},
			{
				"x": 0.5923982182,
				"y": -3.4929676916,
				"z": -6.4174247056,
				"element": "H" 
			},
			{
				"x": 1.365630992,
				"y": -3.7254809573,
				"z": -4.8263277702,
				"element": "H" 
			},
			{
				"x": 2.240092034,
				"y": -2.8698906151,
				"z": -6.1337425472,
				"element": "H" 
			},
			{
				"x": 2.9807955692,
				"y": -2.2647954751,
				"z": -4.0170409985,
				"element": "H" 
			}
		],
		 "valence_orbital": [ 
			{
				"type": "occ",
				"energy": -0.25247,
				"method": "rhf"
			},
			{
				"type": "occ",
				"energy": -0.251,
				"method": "rhf"
			},
			{
				"type": "occ",
				"energy": -0.24638,
				"method": "rhf"
			},
			{
				"type": "occ",
				"energy": -0.22192,
				"method": "rhf"
			},
			{
				"type": "occ",
				"energy": -0.21356,
				"method": "rhf"
			},
			{
				"type": "unocc",
				"energy": -0.0487,
				"method": "rhf"
			},
			{
				"type": "unocc",
				"energy": -0.04593,
				"method": "rhf"
			},
			{
				"type": "unocc",
				"energy": -0.03288,
				"method": "rhf"
			},
			{
				"type": "unocc",
				"energy": 0.01128,
				"method": "rhf"
			},
			{
				"type": "unocc",
				"energy": 0.0145,
				"method": "rhf"
			}
		],
		"cosmo_sigma_profile": { 
			"-0.025": 0.0,
			"-0.024": 0.0,
			"-0.023": 0.0,
			"-0.022": 0.0,
			"-0.021": 0.0,
			"-0.02": 0.0,
			"-0.019": 0.0,
			"-0.018": 0.0,
			"-0.017": 0.0,
			"-0.016": 0.0,
			"-0.015": 0.0754489120088,
			"-0.014": 0.166943368,
			"-0.013": 0.0809763333676,
			"-0.012": 0.572429859449,
			"-0.011": 2.21102263059,
			"-0.01": 2.42629434243,
			"-0.009": 2.57735592204,
			"-0.008": 3.83922503849,
			"-0.007": 7.91480191432,
			"-0.006": 27.829565443,
			"-0.005": 56.761702568,
			"-0.004": 77.9386649577,
			"-0.003": 74.8935472398,
			"-0.002": 74.6420960426,
			"-0.001": 66.1150209546,
			"0.0": 56.9563247266,
			"0.001": 44.2801335592,
			"0.002": 33.3839124983,
			"0.003": 28.8216469061,
			"0.004": 22.9447612,
			"0.005": 20.2246123767,
			"0.006": 11.655302356,
			"0.007": 13.2696623439,
			"0.008": 13.7251393216,
			"0.009": 12.0086974659,
			"0.01": 13.0842320123,
			"0.011": 13.9688167572,
			"0.012": 12.2630088859,
			"0.013": 7.23386540554,
			"0.014": 4.05926292714,
			"0.015": 1.40340391539,
			"0.016": 0.0405642068548,
			"0.017": 0.0,
			"0.018": 0.0,
			"0.019": 0.0,
			"0.02": 0.0,
			"0.021": 0.0,
			"0.022": 0.0,
			"0.023": 0.0,
			"0.024": 0.0,
			"0.025": 0.0
		}
	}
}
