{
	 "smiles": "CC1=CC=CC(C(O)=O)=C1C", 
	 "Tm": 419.15, 
	 "num_atms": 21, 
	 "gaussian": { 
		 "optdone": 1, 
		 "sigma_profile": "yes", 
		 "theory": "DFT", 
		 "functional": "B3LYP", 
		 "basiset": "6-31G**", 
		 "properties": { 
			 "R2extent": 2013.7331, 
			 "electric_dipole_moment_norm": 1.53084539063, 
			 "electric_quadrupole_moment_norm": 6.86207701137, 
			 "total_energy": -499.460706368, 
			 "HOMO_LUMO_gap": 0.19803, 
			 "cosmo_polarized_energy": -7.86, 
			 "cosmo_cavitation_energy": 24.04, 
			 "cosmo_dispersion_energy": -17.94, 
			 "cosmo_repulsion_energy": 1.42, 
			 "cosmo_total_nonelectrostatic_energy": 7.52, 
			 "SMD_solvation_energy": 5.3 
		},
		"coords": [
			{
				"x": 1.7919468534,
				"y": 1.4222836205,
				"z": -0.7297007749,
				"element": "C" 
			},
			{
				"x": 0.3626787645,
				"y": 0.9845784744,
				"z": -0.484775228,
				"element": "C" 
			},
			{
				"x": -0.6585800284,
				"y": 1.6078357853,
				"z": -1.2115984095,
				"element": "C" 
			},
			{
				"x": -1.9964025565,
				"y": 1.2589155817,
				"z": -1.0410220357,
				"element": "C" 
			},
			{
				"x": -2.3267880646,
				"y": 0.2683967617,
				"z": -0.1277191896,
				"element": "C" 
			},
			{
				"x": -1.3244377151,
				"y": -0.3761199088,
				"z": 0.6171710621,
				"element": "C" 
			},
			{
				"x": -1.7356213208,
				"y": -1.4320615132,
				"z": 1.5832544011,
				"element": "C" 
			},
			{
				"x": -3.0828788592,
				"y": -1.6303332418,
				"z": 1.6081535534,
				"element": "O" 
			},
			{
				"x": -1.0038649053,
				"y": -2.0865287817,
				"z": 2.3035990905,
				"element": "O" 
			},
			{
				"x": 0.0403263931,
				"y": -0.0268980656,
				"z": 0.4497185116,
				"element": "C" 
			},
			{
				"x": 1.1377946174,
				"y": -0.7051995962,
				"z": 1.2388062929,
				"element": "C" 
			},
			{
				"x": 1.8253877975,
				"y": 2.2113586832,
				"z": -1.4854035186,
				"element": "H" 
			},
			{
				"x": 2.2634657628,
				"y": 1.8159421399,
				"z": 0.1776556914,
				"element": "H" 
			},
			{
				"x": 2.4196090216,
				"y": 0.5982197298,
				"z": -1.0868896281,
				"element": "H" 
			},
			{
				"x": -0.3942845054,
				"y": 2.3834741027,
				"z": -1.9260855589,
				"element": "H" 
			},
			{
				"x": -2.7714951678,
				"y": 1.7563194282,
				"z": -1.6161015561,
				"element": "H" 
			},
			{
				"x": -3.3601232945,
				"y": -0.0187303102,
				"z": 0.0209948965,
				"element": "H" 
			},
			{
				"x": -3.2212009097,
				"y": -2.331047305,
				"z": 2.2657550714,
				"element": "H" 
			},
			{
				"x": 2.1192486798,
				"y": -0.3088254553,
				"z": 0.9802995535,
				"element": "H" 
			},
			{
				"x": 1.1413321608,
				"y": -1.7844956795,
				"z": 1.0651637373,
				"element": "H" 
			},
			{
				"x": 0.9852872766,
				"y": -0.58378445,
				"z": 2.3144240378,
				"element": "H" 
			}
		],
		 "valence_orbital": [ 
			{
				"type": "occ",
				"energy": -0.33628,
				"method": "rhf"
			},
			{
				"type": "occ",
				"energy": -0.31335,
				"method": "rhf"
			},
			{
				"type": "occ",
				"energy": -0.26739,
				"method": "rhf"
			},
			{
				"type": "occ",
				"energy": -0.25336,
				"method": "rhf"
			},
			{
				"type": "occ",
				"energy": -0.24128,
				"method": "rhf"
			},
			{
				"type": "unocc",
				"energy": -0.04325,
				"method": "rhf"
			},
			{
				"type": "unocc",
				"energy": -0.0032,
				"method": "rhf"
			},
			{
				"type": "unocc",
				"energy": 0.06122,
				"method": "rhf"
			},
			{
				"type": "unocc",
				"energy": 0.08391,
				"method": "rhf"
			},
			{
				"type": "unocc",
				"energy": 0.09997,
				"method": "rhf"
			}
		],
		"cosmo_sigma_profile": { 
			"-0.025": 0.0,
			"-0.024": 0.0,
			"-0.023": 0.0,
			"-0.022": 0.0,
			"-0.021": 0.0,
			"-0.02": 0.0,
			"-0.019": 0.0,
			"-0.018": 0.314725646685,
			"-0.017": 0.920874528064,
			"-0.016": 1.26715883997,
			"-0.015": 0.13233184124,
			"-0.014": 0.761279857096,
			"-0.013": 0.644657787354,
			"-0.012": 0.626987981798,
			"-0.011": 0.858904343566,
			"-0.01": 0.826018267756,
			"-0.009": 0.670091242421,
			"-0.008": 0.247777138143,
			"-0.007": 0.797932013579,
			"-0.006": 4.98102371927,
			"-0.005": 8.45261101381,
			"-0.004": 14.2298989215,
			"-0.003": 15.2137761024,
			"-0.002": 18.0515787141,
			"-0.001": 19.1339165031,
			"0.0": 23.2379180538,
			"0.001": 16.8435005635,
			"0.002": 12.0635475391,
			"0.003": 10.9265311138,
			"0.004": 12.0897178083,
			"0.005": 8.35698042558,
			"0.006": 3.55447100485,
			"0.007": 3.36594361672,
			"0.008": 2.16411838172,
			"0.009": 1.71721291144,
			"0.01": 1.78318556453,
			"0.011": 2.32650477491,
			"0.012": 3.43258194527,
			"0.013": 0.405628376665,
			"0.014": 0.0,
			"0.015": 0.0,
			"0.016": 0.0,
			"0.017": 0.0,
			"0.018": 0.0,
			"0.019": 0.0,
			"0.02": 0.0,
			"0.021": 0.0,
			"0.022": 0.0,
			"0.023": 0.0,
			"0.024": 0.0,
			"0.025": 0.0
		}
	}
}
