{
	 "smiles": "CN1N=C2C=CC=CC2=C1C(Cl)=O", 
	 "Tm": 362.65, 
	 "num_atms": 20, 
	 "gaussian": { 
		 "optdone": 1, 
		 "sigma_profile": "yes", 
		 "theory": "DFT", 
		 "functional": "B3LYP", 
		 "basiset": "6-31G**", 
		 "properties": { 
			 "R2extent": 4022.1579, 
			 "electric_dipole_moment_norm": 2.59101574484, 
			 "electric_quadrupole_moment_norm": 14.8758879409, 
			 "total_energy": -992.081638522, 
			 "HOMO_LUMO_gap": 0.14639, 
			 "cosmo_polarized_energy": -7.69, 
			 "cosmo_cavitation_energy": 26.0, 
			 "cosmo_dispersion_energy": -19.51, 
			 "cosmo_repulsion_energy": 1.51, 
			 "cosmo_total_nonelectrostatic_energy": 8.0, 
			 "SMD_solvation_energy": 3.85 
		},
		"coords": [
			{
				"x": -3.112905018,
				"y": 1.618553045,
				"z": -0.606420774,
				"element": "C" 
			},
			{
				"x": -2.005955543,
				"y": 0.9723725261,
				"z": 0.1001518785,
				"element": "N" 
			},
			{
				"x": -0.7856264904,
				"y": 1.2308982899,
				"z": -0.3625609818,
				"element": "N" 
			},
			{
				"x": 0.0652374065,
				"y": 0.5377492133,
				"z": 0.4322832541,
				"element": "C" 
			},
			{
				"x": 1.4760451104,
				"y": 0.4858577548,
				"z": 0.3457863111,
				"element": "C" 
			},
			{
				"x": 2.1368558963,
				"y": -0.2924865248,
				"z": 1.2703368047,
				"element": "C" 
			},
			{
				"x": 1.4296877716,
				"y": -1.0160498945,
				"z": 2.2731306272,
				"element": "C" 
			},
			{
				"x": 0.0531422655,
				"y": -0.9763075825,
				"z": 2.3713963709,
				"element": "C" 
			},
			{
				"x": -0.6446465357,
				"y": -0.1843052137,
				"z": 1.4332461521,
				"element": "C" 
			},
			{
				"x": -2.0072885863,
				"y": 0.1219405982,
				"z": 1.1886654681,
				"element": "C" 
			},
			{
				"x": -3.098181252,
				"y": -0.4047552287,
				"z": 1.9807555423,
				"element": "C" 
			},
			{
				"x": -4.8015641308,
				"y": 0.0998605949,
				"z": 1.5149559225,
				"element": "Cl" 
			},
			{
				"x": -2.9668012885,
				"y": -1.1447561777,
				"z": 2.91555976,
				"element": "O" 
			},
			{
				"x": -3.6714956906,
				"y": 2.2673210478,
				"z": 0.0689095084,
				"element": "H" 
			},
			{
				"x": -3.7891841231,
				"y": 0.8716443037,
				"z": -1.0232038661,
				"element": "H" 
			},
			{
				"x": -2.6541354635,
				"y": 2.2024320859,
				"z": -1.4019936971,
				"element": "H" 
			},
			{
				"x": 1.9995816085,
				"y": 1.0428510897,
				"z": -0.4238239247,
				"element": "H" 
			},
			{
				"x": 3.2201368731,
				"y": -0.3610548921,
				"z": 1.2406720741,
				"element": "H" 
			},
			{
				"x": 1.9961384933,
				"y": -1.615809353,
				"z": 2.9795008415,
				"element": "H" 
			},
			{
				"x": -0.4837413033,
				"y": -1.5266556824,
				"z": 3.1342527283,
				"element": "H" 
			}
		],
		 "valence_orbital": [ 
			{
				"type": "occ",
				"energy": -0.31182,
				"method": "rhf"
			},
			{
				"type": "occ",
				"energy": -0.30155,
				"method": "rhf"
			},
			{
				"type": "occ",
				"energy": -0.29365,
				"method": "rhf"
			},
			{
				"type": "occ",
				"energy": -0.26142,
				"method": "rhf"
			},
			{
				"type": "occ",
				"energy": -0.23157,
				"method": "rhf"
			},
			{
				"type": "unocc",
				"energy": -0.08518,
				"method": "rhf"
			},
			{
				"type": "unocc",
				"energy": -0.02286,
				"method": "rhf"
			},
			{
				"type": "unocc",
				"energy": 0.01216,
				"method": "rhf"
			},
			{
				"type": "unocc",
				"energy": 0.01719,
				"method": "rhf"
			},
			{
				"type": "unocc",
				"energy": 0.06741,
				"method": "rhf"
			}
		],
		"cosmo_sigma_profile": { 
			"-0.025": 0.0,
			"-0.024": 0.0,
			"-0.023": 0.0,
			"-0.022": 0.0,
			"-0.021": 0.0,
			"-0.02": 0.0,
			"-0.019": 0.0,
			"-0.018": 0.0,
			"-0.017": 0.0,
			"-0.016": 0.0,
			"-0.015": 0.0,
			"-0.014": 0.0,
			"-0.013": 0.0,
			"-0.012": 0.0,
			"-0.011": 0.0,
			"-0.01": 0.0,
			"-0.009": 0.0,
			"-0.008": 0.190238827361,
			"-0.007": 8.36664398561,
			"-0.006": 14.1835157007,
			"-0.005": 16.2049825155,
			"-0.004": 19.15401932,
			"-0.003": 13.007609709,
			"-0.002": 12.2504463437,
			"-0.001": 14.4139154487,
			"0.0": 15.3237725746,
			"0.001": 17.1608248676,
			"0.002": 17.5781984888,
			"0.003": 18.3564613203,
			"0.004": 17.3892295281,
			"0.005": 8.06291819225,
			"0.006": 4.53711305925,
			"0.007": 3.35670742396,
			"0.008": 3.55511547145,
			"0.009": 4.15905087774,
			"0.01": 2.16813363472,
			"0.011": 0.876778074062,
			"0.012": 0.940860983429,
			"0.013": 0.302074461178,
			"0.014": 0.0,
			"0.015": 0.0,
			"0.016": 0.0,
			"0.017": 0.0,
			"0.018": 0.0,
			"0.019": 0.0,
			"0.02": 0.0,
			"0.021": 0.0,
			"0.022": 0.0,
			"0.023": 0.0,
			"0.024": 0.0,
			"0.025": 0.0
		}
	}
}
