{
	 "smiles": "COC1=C(C)C(C)=C(OC)C2=C1CC2=O", 
	 "Tm": 382.15, 
	 "num_atms": 29, 
	 "gaussian": { 
		 "optdone": 1, 
		 "sigma_profile": "yes", 
		 "theory": "DFT", 
		 "functional": "B3LYP", 
		 "basiset": "6-31G**", 
		 "properties": { 
			 "R2extent": 3445.13, 
			 "electric_dipole_moment_norm": 2.26427996061, 
			 "electric_quadrupole_moment_norm": 11.7826590717, 
			 "total_energy": -691.333874859, 
			 "HOMO_LUMO_gap": 0.15859, 
			 "cosmo_polarized_energy": -8.63, 
			 "cosmo_cavitation_energy": 31.22, 
			 "cosmo_dispersion_energy": -22.75, 
			 "cosmo_repulsion_energy": 1.77, 
			 "cosmo_total_nonelectrostatic_energy": 10.24, 
			 "SMD_solvation_energy": 7.17 
		},
		"coords": [
			{
				"x": -2.4571538989,
				"y": 2.8757784865,
				"z": -0.0935048423,
				"element": "C" 
			},
			{
				"x": -2.1760449894,
				"y": 1.7063264849,
				"z": -0.8457521738,
				"element": "O" 
			},
			{
				"x": -0.9902297614,
				"y": 1.0620981109,
				"z": -0.6069776069,
				"element": "C" 
			},
			{
				"x": -0.728284648,
				"y": -0.0944981273,
				"z": -1.3929440679,
				"element": "C" 
			},
			{
				"x": -1.7481307387,
				"y": -0.5269179139,
				"z": -2.420227654,
				"element": "C" 
			},
			{
				"x": 0.4529218213,
				"y": -0.8463810479,
				"z": -1.2324317607,
				"element": "C" 
			},
			{
				"x": 0.687116039,
				"y": -2.0745009213,
				"z": -2.0822841246,
				"element": "C" 
			},
			{
				"x": 1.4313871788,
				"y": -0.466810509,
				"z": -0.2810641845,
				"element": "C" 
			},
			{
				"x": 2.5426855144,
				"y": -1.2370261721,
				"z": -0.1874015496,
				"element": "O" 
			},
			{
				"x": 3.4685397813,
				"y": -0.9402389245,
				"z": 0.8595292941,
				"element": "C" 
			},
			{
				"x": 1.1601608408,
				"y": 0.6771756961,
				"z": 0.476297534,
				"element": "C" 
			},
			{
				"x": -0.0284880093,
				"y": 1.4229436009,
				"z": 0.318522977,
				"element": "C" 
			},
			{
				"x": 0.3349499932,
				"y": 2.4536107367,
				"z": 1.3901982467,
				"element": "C" 
			},
			{
				"x": 1.6494068489,
				"y": 1.6167398348,
				"z": 1.5270052013,
				"element": "C" 
			},
			{
				"x": 2.6355699114,
				"y": 1.7494451901,
				"z": 2.2142991215,
				"element": "O" 
			},
			{
				"x": -1.7101330669,
				"y": 3.6593707135,
				"z": -0.2684987334,
				"element": "H" 
			},
			{
				"x": -2.5092765097,
				"y": 2.663670791,
				"z": 0.9811595469,
				"element": "H" 
			},
			{
				"x": -3.4318420294,
				"y": 3.2282577448,
				"z": -0.4357153964,
				"element": "H" 
			},
			{
				"x": -2.5671901064,
				"y": 0.1872270059,
				"z": -2.4864391745,
				"element": "H" 
			},
			{
				"x": -1.2920023522,
				"y": -0.6256013659,
				"z": -3.4116042416,
				"element": "H" 
			},
			{
				"x": -2.16985106,
				"y": -1.5077311636,
				"z": -2.168289262,
				"element": "H" 
			},
			{
				"x": 0.7759170907,
				"y": -1.8141170121,
				"z": -3.1441368237,
				"element": "H" 
			},
			{
				"x": 1.601784529,
				"y": -2.5849808173,
				"z": -1.7837485853,
				"element": "H" 
			},
			{
				"x": -0.1450132101,
				"y": -2.7825299903,
				"z": -1.9979572602,
				"element": "H" 
			},
			{
				"x": 2.9971307218,
				"y": -1.0508610213,
				"z": 1.8417454839,
				"element": "H" 
			},
			{
				"x": 3.8594053574,
				"y": 0.0769332968,
				"z": 0.7768988878,
				"element": "H" 
			},
			{
				"x": 4.2775323043,
				"y": -1.6643593544,
				"z": 0.7537807361,
				"element": "H" 
			},
			{
				"x": 0.4985372656,
				"y": 3.4844834672,
				"z": 1.0579455079,
				"element": "H" 
			},
			{
				"x": -0.2805048177,
				"y": 2.4654931807,
				"z": 2.2963949041,
				"element": "H" 
			}
		],
		 "valence_orbital": [ 
			{
				"type": "occ",
				"energy": -0.32265,
				"method": "rhf"
			},
			{
				"type": "occ",
				"energy": -0.28672,
				"method": "rhf"
			},
			{
				"type": "occ",
				"energy": -0.24563,
				"method": "rhf"
			},
			{
				"type": "occ",
				"energy": -0.23958,
				"method": "rhf"
			},
			{
				"type": "occ",
				"energy": -0.20393,
				"method": "rhf"
			},
			{
				"type": "unocc",
				"energy": -0.04534,
				"method": "rhf"
			},
			{
				"type": "unocc",
				"energy": 0.00358,
				"method": "rhf"
			},
			{
				"type": "unocc",
				"energy": 0.06213,
				"method": "rhf"
			},
			{
				"type": "unocc",
				"energy": 0.08474,
				"method": "rhf"
			},
			{
				"type": "unocc",
				"energy": 0.09034,
				"method": "rhf"
			}
		],
		"cosmo_sigma_profile": { 
			"-0.025": 0.0,
			"-0.024": 0.0,
			"-0.023": 0.0,
			"-0.022": 0.0,
			"-0.021": 0.0,
			"-0.02": 0.0,
			"-0.019": 0.0,
			"-0.018": 0.0,
			"-0.017": 0.0,
			"-0.016": 0.0,
			"-0.015": 0.0,
			"-0.014": 0.0,
			"-0.013": 0.0,
			"-0.012": 0.0,
			"-0.011": 0.0,
			"-0.01": 0.0,
			"-0.009": 0.0,
			"-0.008": 0.0,
			"-0.007": 0.067585576519,
			"-0.006": 6.90013667193,
			"-0.005": 19.7538050358,
			"-0.004": 28.4010070949,
			"-0.003": 29.5679081913,
			"-0.002": 24.2921857399,
			"-0.001": 21.416265702,
			"0.0": 23.7132132697,
			"0.001": 15.5336248849,
			"0.002": 13.8082663794,
			"0.003": 18.046878431,
			"0.004": 11.5486724611,
			"0.005": 5.78545214927,
			"0.006": 6.06795103382,
			"0.007": 5.35901245587,
			"0.008": 4.12057991875,
			"0.009": 2.30261637679,
			"0.01": 2.19175085021,
			"0.011": 3.69604843974,
			"0.012": 3.13623049945,
			"0.013": 1.04385570433,
			"0.014": 0.00870727235808,
			"0.015": 0.0,
			"0.016": 0.0,
			"0.017": 0.0,
			"0.018": 0.0,
			"0.019": 0.0,
			"0.02": 0.0,
			"0.021": 0.0,
			"0.022": 0.0,
			"0.023": 0.0,
			"0.024": 0.0,
			"0.025": 0.0
		}
	}
}
