{
	 "smiles": "NC1=NN2C(NC(=O)C=C2C2=CC=CC=C2)=C1N=NC1=C(Br)C=C(Br)C=C1Br", 
	 "Tm": 589.15, 
	 "num_atms": 39, 
	 "gaussian": { 
		 "optdone": 1, 
		 "sigma_profile": "yes", 
		 "theory": "DFT", 
		 "functional": "B3LYP", 
		 "basiset": "6-31G**", 
		 "properties": { 
			 "R2extent": 24236.7732, 
			 "electric_dipole_moment_norm": 5.75371609397, 
			 "electric_quadrupole_moment_norm": 18.3406975175, 
			 "total_energy": -8810.41618555, 
			 "HOMO_LUMO_gap": 0.1502, 
			 "cosmo_polarized_energy": -20.98, 
			 "cosmo_cavitation_energy": 51.57, 
			 "cosmo_dispersion_energy": -36.53, 
			 "cosmo_repulsion_energy": 2.77, 
			 "cosmo_total_nonelectrostatic_energy": 17.82, 
			 "SMD_solvation_energy": 3.65 
		},
		"coords": [
			{
				"x": -0.4053334715,
				"y": -1.8624388444,
				"z": 1.0259017803,
				"element": "N" 
			},
			{
				"x": -0.3542995999,
				"y": -1.0708694361,
				"z": -0.0896536761,
				"element": "C" 
			},
			{
				"x": 0.4813782606,
				"y": -0.041502785,
				"z": -0.0978244939,
				"element": "N" 
			},
			{
				"x": 0.2795059416,
				"y": 0.5912647248,
				"z": -1.3178882054,
				"element": "N" 
			},
			{
				"x": -0.6327799288,
				"y": -0.0676431584,
				"z": -2.0719836009,
				"element": "C" 
			},
			{
				"x": -0.9237550691,
				"y": 0.3602312067,
				"z": -3.3190705141,
				"element": "N" 
			},
			{
				"x": -0.298449052,
				"y": 1.4749137565,
				"z": -3.9233820431,
				"element": "C" 
			},
			{
				"x": -0.5884817185,
				"y": 1.8087163197,
				"z": -5.0611224364,
				"element": "O" 
			},
			{
				"x": 0.6663869464,
				"y": 2.1340069943,
				"z": -3.0507615723,
				"element": "C" 
			},
			{
				"x": 0.9607467138,
				"y": 1.7110788648,
				"z": -1.7848067385,
				"element": "C" 
			},
			{
				"x": 1.9447094645,
				"y": 2.3933904142,
				"z": -0.9160231936,
				"element": "C" 
			},
			{
				"x": 3.124703547,
				"y": 2.8939089816,
				"z": -1.4916886809,
				"element": "C" 
			},
			{
				"x": 4.0446611439,
				"y": 3.5996363918,
				"z": -0.7192899197,
				"element": "C" 
			},
			{
				"x": 3.7966662971,
				"y": 3.8188674171,
				"z": 0.636804963,
				"element": "C" 
			},
			{
				"x": 2.6271645395,
				"y": 3.3229432247,
				"z": 1.2169285455,
				"element": "C" 
			},
			{
				"x": 1.7070099715,
				"y": 2.6094639722,
				"z": 0.45196771,
				"element": "C" 
			},
			{
				"x": -1.1216463325,
				"y": -1.1609365546,
				"z": -1.3312003736,
				"element": "C" 
			},
			{
				"x": -2.0607178837,
				"y": -1.9229464936,
				"z": -1.9891738434,
				"element": "N" 
			},
			{
				"x": -2.7537659597,
				"y": -2.8882792339,
				"z": -1.577563188,
				"element": "N" 
			},
			{
				"x": -2.7612828048,
				"y": -3.358397695,
				"z": -0.2356413415,
				"element": "C" 
			},
			{
				"x": -2.1730503831,
				"y": -4.5957364143,
				"z": 0.0811522327,
				"element": "C" 
			},
			{
				"x": -1.1185682364,
				"y": -5.4866297812,
				"z": -1.2349493242,
				"element": "Br" 
			},
			{
				"x": -2.3167488758,
				"y": -5.187777027,
				"z": 1.3346808745,
				"element": "C" 
			},
			{
				"x": -3.087935018,
				"y": -4.5380861234,
				"z": 2.2962088678,
				"element": "C" 
			},
			{
				"x": -3.3060271995,
				"y": -5.3336606886,
				"z": 4.0140861348,
				"element": "Br" 
			},
			{
				"x": -3.7044413145,
				"y": -3.3197321341,
				"z": 2.0219161753,
				"element": "C" 
			},
			{
				"x": -3.5360896142,
				"y": -2.7447755471,
				"z": 0.7647203697,
				"element": "C" 
			},
			{
				"x": -4.4056601538,
				"y": -1.0879577854,
				"z": 0.4107237009,
				"element": "Br" 
			},
			{
				"x": 0.3656416603,
				"y": -1.7127561313,
				"z": 1.6628710245,
				"element": "H" 
			},
			{
				"x": -0.6684998534,
				"y": -2.8273955665,
				"z": 0.9016474336,
				"element": "H" 
			},
			{
				"x": -1.6105692935,
				"y": -0.1665506668,
				"z": -3.8489879361,
				"element": "H" 
			},
			{
				"x": 1.1360674533,
				"y": 3.0240227861,
				"z": -3.4455761146,
				"element": "H" 
			},
			{
				"x": 3.3283087171,
				"y": 2.7084926929,
				"z": -2.5415468353,
				"element": "H" 
			},
			{
				"x": 4.9567572715,
				"y": 3.9718610132,
				"z": -1.1759254041,
				"element": "H" 
			},
			{
				"x": 4.5131821301,
				"y": 4.3689241896,
				"z": 1.2397809233,
				"element": "H" 
			},
			{
				"x": 2.4289828491,
				"y": 3.4914320822,
				"z": 2.2712216819,
				"element": "H" 
			},
			{
				"x": 0.8076412624,
				"y": 2.2168742203,
				"z": 0.9091747234,
				"element": "H" 
			},
			{
				"x": -1.8406226887,
				"y": -6.1358031432,
				"z": 1.549344384,
				"element": "H" 
			},
			{
				"x": -4.3037897183,
				"y": -2.820554043,
				"z": 2.7721279108,
				"element": "H" 
			}
		],
		 "valence_orbital": [ 
			{
				"type": "occ",
				"energy": -0.26232,
				"method": "rhf"
			},
			{
				"type": "occ",
				"energy": -0.25826,
				"method": "rhf"
			},
			{
				"type": "occ",
				"energy": -0.24325,
				"method": "rhf"
			},
			{
				"type": "occ",
				"energy": -0.22728,
				"method": "rhf"
			},
			{
				"type": "occ",
				"energy": -0.22596,
				"method": "rhf"
			},
			{
				"type": "unocc",
				"energy": -0.07576,
				"method": "rhf"
			},
			{
				"type": "unocc",
				"energy": -0.06398,
				"method": "rhf"
			},
			{
				"type": "unocc",
				"energy": -0.04261,
				"method": "rhf"
			},
			{
				"type": "unocc",
				"energy": -0.04037,
				"method": "rhf"
			},
			{
				"type": "unocc",
				"energy": -0.03603,
				"method": "rhf"
			}
		],
		"cosmo_sigma_profile": { 
			"-0.025": 0.0,
			"-0.024": 0.0,
			"-0.023": 0.0,
			"-0.022": 0.0,
			"-0.021": 0.0,
			"-0.02": 0.0,
			"-0.019": 0.0,
			"-0.018": 0.0,
			"-0.017": 0.0,
			"-0.016": 0.059078269638,
			"-0.015": 0.61871173743,
			"-0.014": 1.33510549174,
			"-0.013": 1.74420288346,
			"-0.012": 2.08005868211,
			"-0.011": 1.65616980031,
			"-0.01": 3.31587551705,
			"-0.009": 4.43933458143,
			"-0.008": 7.08520234227,
			"-0.007": 11.9173071826,
			"-0.006": 18.7818925738,
			"-0.005": 25.4018726598,
			"-0.004": 28.8329071237,
			"-0.003": 27.6541882505,
			"-0.002": 28.2111273448,
			"-0.001": 31.1560033629,
			"0.0": 38.1453917147,
			"0.001": 31.9996838749,
			"0.002": 31.6453121466,
			"0.003": 40.5921134787,
			"0.004": 34.4542893697,
			"0.005": 10.2620287273,
			"0.006": 6.80326760708,
			"0.007": 5.84976719315,
			"0.008": 4.84343800334,
			"0.009": 3.19739617906,
			"0.01": 5.09554261247,
			"0.011": 4.63295117363,
			"0.012": 5.32321689993,
			"0.013": 6.75899492782,
			"0.014": 1.86750373818,
			"0.015": 0.0,
			"0.016": 0.0,
			"0.017": 0.0,
			"0.018": 0.0,
			"0.019": 0.0,
			"0.02": 0.0,
			"0.021": 0.0,
			"0.022": 0.0,
			"0.023": 0.0,
			"0.024": 0.0,
			"0.025": 0.0
		}
	}
}
