{
	 "smiles": "OC(=O)C1CC1C1=CC(F)=CC=C1", 
	 "Tm": 352.15, 
	 "num_atms": 22, 
	 "gaussian": { 
		 "optdone": 1, 
		 "sigma_profile": "yes", 
		 "theory": "DFT", 
		 "functional": "B3LYP", 
		 "basiset": "6-31G**", 
		 "properties": { 
			 "R2extent": 2814.5748, 
			 "electric_dipole_moment_norm": 4.57845394102, 
			 "electric_quadrupole_moment_norm": 17.6753560612, 
			 "total_energy": -636.749053571, 
			 "HOMO_LUMO_gap": 0.22347, 
			 "cosmo_polarized_energy": -13.67, 
			 "cosmo_cavitation_energy": 26.39, 
			 "cosmo_dispersion_energy": -18.7, 
			 "cosmo_repulsion_energy": 1.46, 
			 "cosmo_total_nonelectrostatic_energy": 9.16, 
			 "SMD_solvation_energy": 5.64 
		},
		"coords": [
			{
				"x": -2.280510373,
				"y": 0.1531293397,
				"z": 0.3383547341,
				"element": "O" 
			},
			{
				"x": -1.9913301108,
				"y": 0.2025793034,
				"z": -0.9868443806,
				"element": "C" 
			},
			{
				"x": -2.7097740472,
				"y": 0.815066522,
				"z": -1.7408965541,
				"element": "O" 
			},
			{
				"x": -0.7967326473,
				"y": -0.5581638591,
				"z": -1.4853055848,
				"element": "C" 
			},
			{
				"x": -0.5278707054,
				"y": -1.9817262346,
				"z": -1.0216173089,
				"element": "C" 
			},
			{
				"x": 0.4478509836,
				"y": -0.9049127207,
				"z": -0.6615125566,
				"element": "C" 
			},
			{
				"x": 0.6620816364,
				"y": -0.4392600046,
				"z": 0.7500911657,
				"element": "C" 
			},
			{
				"x": 0.5502402745,
				"y": -1.3271792013,
				"z": 1.8302195857,
				"element": "C" 
			},
			{
				"x": 0.8006004135,
				"y": -0.8675333839,
				"z": 3.1206285489,
				"element": "C" 
			},
			{
				"x": 0.6904995441,
				"y": -1.7348706371,
				"z": 4.1459739212,
				"element": "F" 
			},
			{
				"x": 1.1628183416,
				"y": 0.4471281262,
				"z": 3.3825439359,
				"element": "C" 
			},
			{
				"x": 1.2754392985,
				"y": 1.3279382565,
				"z": 2.3039203549,
				"element": "C" 
			},
			{
				"x": 1.0271995991,
				"y": 0.8944282866,
				"z": 1.0027564887,
				"element": "C" 
			},
			{
				"x": -1.5451146608,
				"y": -0.2209925949,
				"z": 0.8493453953,
				"element": "H" 
			},
			{
				"x": -0.6269786725,
				"y": -0.3491678947,
				"z": -2.5354704546,
				"element": "H" 
			},
			{
				"x": -0.2550946825,
				"y": -2.7147964219,
				"z": -1.7734726475,
				"element": "H" 
			},
			{
				"x": -1.1776306944,
				"y": -2.3672905859,
				"z": -0.2409743907,
				"element": "H" 
			},
			{
				"x": 1.3572080095,
				"y": -0.8777796679,
				"z": -1.259669738,
				"element": "H" 
			},
			{
				"x": 0.2913385056,
				"y": -2.3696740707,
				"z": 1.6797524011,
				"element": "H" 
			},
			{
				"x": 1.3459798225,
				"y": 0.7618655655,
				"z": 4.403883985,
				"element": "H" 
			},
			{
				"x": 1.5528102509,
				"y": 2.3617910411,
				"z": 2.4850726329,
				"element": "H" 
			},
			{
				"x": 1.1087699138,
				"y": 1.5902208365,
				"z": 0.1731204663,
				"element": "H" 
			}
		],
		 "valence_orbital": [ 
			{
				"type": "occ",
				"energy": -0.32681,
				"method": "rhf"
			},
			{
				"type": "occ",
				"energy": -0.30306,
				"method": "rhf"
			},
			{
				"type": "occ",
				"energy": -0.27444,
				"method": "rhf"
			},
			{
				"type": "occ",
				"energy": -0.26172,
				"method": "rhf"
			},
			{
				"type": "occ",
				"energy": -0.25862,
				"method": "rhf"
			},
			{
				"type": "unocc",
				"energy": -0.03515,
				"method": "rhf"
			},
			{
				"type": "unocc",
				"energy": -0.0224,
				"method": "rhf"
			},
			{
				"type": "unocc",
				"energy": 0.0124,
				"method": "rhf"
			},
			{
				"type": "unocc",
				"energy": 0.07268,
				"method": "rhf"
			},
			{
				"type": "unocc",
				"energy": 0.0774,
				"method": "rhf"
			}
		],
		"cosmo_sigma_profile": { 
			"-0.025": 0.0,
			"-0.024": 0.0,
			"-0.023": 0.0,
			"-0.022": 0.0,
			"-0.021": 0.0,
			"-0.02": 0.0,
			"-0.019": 0.0,
			"-0.018": 0.0,
			"-0.017": 0.0,
			"-0.016": 0.0,
			"-0.015": 0.0,
			"-0.014": 0.0,
			"-0.013": 0.0919946592035,
			"-0.012": 0.237290332502,
			"-0.011": 0.800340617606,
			"-0.01": 0.933867199567,
			"-0.009": 1.21963493727,
			"-0.008": 2.56628503848,
			"-0.007": 11.2959408847,
			"-0.006": 18.2169587733,
			"-0.005": 15.1126655981,
			"-0.004": 15.2108052756,
			"-0.003": 13.9026801679,
			"-0.002": 13.2154963405,
			"-0.001": 12.7906935895,
			"0.0": 16.8979380228,
			"0.001": 14.7319572366,
			"0.002": 13.8375422926,
			"0.003": 11.867254262,
			"0.004": 14.1550888794,
			"0.005": 4.14928637976,
			"0.006": 2.51915659617,
			"0.007": 1.88398428489,
			"0.008": 2.76643627867,
			"0.009": 2.80514389835,
			"0.01": 3.9266327417,
			"0.011": 5.03967419727,
			"0.012": 6.09626836251,
			"0.013": 3.79381528558,
			"0.014": 0.614233497569,
			"0.015": 0.0,
			"0.016": 0.0,
			"0.017": 0.0,
			"0.018": 0.0,
			"0.019": 0.0,
			"0.02": 0.0,
			"0.021": 0.0,
			"0.022": 0.0,
			"0.023": 0.0,
			"0.024": 0.0,
			"0.025": 0.0
		}
	}
}
