{
	 "smiles": "CCCCCCCCCC1(C)N=C(C=[N+]1[O-])C1=CC=CC=C1", 
	 "Tm": 317.65, 
	 "num_atms": 50, 
	 "gaussian": { 
		 "optdone": 1, 
		 "sigma_profile": "yes", 
		 "theory": "DFT", 
		 "functional": "B3LYP", 
		 "basiset": "6-31G**", 
		 "properties": { 
			 "R2extent": 8598.0892, 
			 "electric_dipole_moment_norm": 2.46991632652, 
			 "electric_quadrupole_moment_norm": 15.451465789, 
			 "total_energy": -925.589552939, 
			 "HOMO_LUMO_gap": 0.1561, 
			 "cosmo_polarized_energy": -11.17, 
			 "cosmo_cavitation_energy": 50.6, 
			 "cosmo_dispersion_energy": -31.57, 
			 "cosmo_repulsion_energy": 2.44, 
			 "cosmo_total_nonelectrostatic_energy": 21.46, 
			 "SMD_solvation_energy": 7.07 
		},
		"coords": [
			{
				"x": 0.2312143811,
				"y": 2.3429750565,
				"z": 2.7239854808,
				"element": "C" 
			},
			{
				"x": 1.3074236544,
				"y": 2.61702986,
				"z": 1.6665459325,
				"element": "C" 
			},
			{
				"x": 0.7713382809,
				"y": 3.1987767468,
				"z": 0.3479208101,
				"element": "C" 
			},
			{
				"x": -0.1193867671,
				"y": 2.2465543935,
				"z": -0.4631888801,
				"element": "C" 
			},
			{
				"x": -0.6319612241,
				"y": 2.8828836137,
				"z": -1.7654080262,
				"element": "C" 
			},
			{
				"x": -1.5620663488,
				"y": 1.993121166,
				"z": -2.6209187828,
				"element": "C" 
			},
			{
				"x": -0.8761570031,
				"y": 1.1835720677,
				"z": -3.738416341,
				"element": "C" 
			},
			{
				"x": 0.1455493418,
				"y": 0.1125616627,
				"z": -3.3159543003,
				"element": "C" 
			},
			{
				"x": -0.4792516126,
				"y": -1.0486161495,
				"z": -2.5338260339,
				"element": "C" 
			},
			{
				"x": 0.524598034,
				"y": -2.1254443865,
				"z": -2.0749124291,
				"element": "C" 
			},
			{
				"x": 1.2823201955,
				"y": -2.8136131894,
				"z": -3.2138717291,
				"element": "C" 
			},
			{
				"x": 1.4211886191,
				"y": -1.6341881651,
				"z": -1.0583373795,
				"element": "N" 
			},
			{
				"x": 1.186421488,
				"y": -2.3017788438,
				"z": 0.0359167191,
				"element": "C" 
			},
			{
				"x": 0.1296106937,
				"y": -3.2870871695,
				"z": -0.1218243973,
				"element": "C" 
			},
			{
				"x": -0.2933747895,
				"y": -3.2128600085,
				"z": -1.371680462,
				"element": "N" 
			},
			{
				"x": -1.1823497892,
				"y": -3.8664889998,
				"z": -1.9671984302,
				"element": "O" 
			},
			{
				"x": 1.9377595837,
				"y": -2.0682008603,
				"z": 1.2844321623,
				"element": "C" 
			},
			{
				"x": 3.0312967184,
				"y": -1.1859913414,
				"z": 1.2768763389,
				"element": "C" 
			},
			{
				"x": 3.7555096022,
				"y": -0.9526484164,
				"z": 2.4420266513,
				"element": "C" 
			},
			{
				"x": 3.3998356993,
				"y": -1.5956697967,
				"z": 3.6321428235,
				"element": "C" 
			},
			{
				"x": 2.3154170766,
				"y": -2.4735140014,
				"z": 3.6488537526,
				"element": "C" 
			},
			{
				"x": 1.588558831,
				"y": -2.7099147339,
				"z": 2.4819074713,
				"element": "C" 
			},
			{
				"x": -0.3305719972,
				"y": 3.2542665501,
				"z": 2.9616015448,
				"element": "H" 
			},
			{
				"x": 0.6784098237,
				"y": 1.9759749789,
				"z": 3.6537228058,
				"element": "H" 
			},
			{
				"x": -0.4880499567,
				"y": 1.5887505675,
				"z": 2.3889048292,
				"element": "H" 
			},
			{
				"x": 2.0431433037,
				"y": 3.3170783557,
				"z": 2.0837298494,
				"element": "H" 
			},
			{
				"x": 1.8553402062,
				"y": 1.6885688677,
				"z": 1.4580649253,
				"element": "H" 
			},
			{
				"x": 0.2129907393,
				"y": 4.1222072982,
				"z": 0.5620779551,
				"element": "H" 
			},
			{
				"x": 1.6230220448,
				"y": 3.5002538333,
				"z": -0.2775480525,
				"element": "H" 
			},
			{
				"x": -0.9864970689,
				"y": 1.9441175673,
				"z": 0.1392973589,
				"element": "H" 
			},
			{
				"x": 0.4401791937,
				"y": 1.3262090303,
				"z": -0.6741734785,
				"element": "H" 
			},
			{
				"x": 0.2220885949,
				"y": 3.2108937874,
				"z": -2.375628638,
				"element": "H" 
			},
			{
				"x": -1.1710123252,
				"y": 3.8012919391,
				"z": -1.497219372,
				"element": "H" 
			},
			{
				"x": -2.1367362174,
				"y": 1.3264002228,
				"z": -1.9640782671,
				"element": "H" 
			},
			{
				"x": -2.3086087986,
				"y": 2.632171597,
				"z": -3.1087171391,
				"element": "H" 
			},
			{
				"x": -1.6551949131,
				"y": 0.7014909032,
				"z": -4.3453435812,
				"element": "H" 
			},
			{
				"x": -0.3689175733,
				"y": 1.8905107453,
				"z": -4.4087404617,
				"element": "H" 
			},
			{
				"x": 0.6167855803,
				"y": -0.2749225906,
				"z": -4.2272339517,
				"element": "H" 
			},
			{
				"x": 0.9497510324,
				"y": 0.5614552519,
				"z": -2.7232762648,
				"element": "H" 
			},
			{
				"x": -1.2421043641,
				"y": -1.5590434389,
				"z": -3.1336917388,
				"element": "H" 
			},
			{
				"x": -0.9785675276,
				"y": -0.6716093519,
				"z": -1.6344770635,
				"element": "H" 
			},
			{
				"x": 1.9575618514,
				"y": -3.5716067823,
				"z": -2.8081498619,
				"element": "H" 
			},
			{
				"x": 0.5664311786,
				"y": -3.2968173084,
				"z": -3.8836913034,
				"element": "H" 
			},
			{
				"x": 1.8763583247,
				"y": -2.0842735519,
				"z": -3.7659313329,
				"element": "H" 
			},
			{
				"x": -0.2972221661,
				"y": -3.9979387056,
				"z": 0.568538628,
				"element": "H" 
			},
			{
				"x": 3.2961842072,
				"y": -0.6994454802,
				"z": 0.34435285,
				"element": "H" 
			},
			{
				"x": 4.6007238433,
				"y": -0.2707945684,
				"z": 2.4242359966,
				"element": "H" 
			},
			{
				"x": 3.9666118217,
				"y": -1.4132433745,
				"z": 4.5405680443,
				"element": "H" 
			},
			{
				"x": 2.0334016419,
				"y": -2.9748351975,
				"z": 4.5700043052,
				"element": "H" 
			},
			{
				"x": 0.7438048554,
				"y": -3.3909696505,
				"z": 2.5120304638,
				"element": "H" 
			}
		],
		 "valence_orbital": [ 
			{
				"type": "occ",
				"energy": -0.29248,
				"method": "rhf"
			},
			{
				"type": "occ",
				"energy": -0.26118,
				"method": "rhf"
			},
			{
				"type": "occ",
				"energy": -0.25198,
				"method": "rhf"
			},
			{
				"type": "occ",
				"energy": -0.24326,
				"method": "rhf"
			},
			{
				"type": "occ",
				"energy": -0.22334,
				"method": "rhf"
			},
			{
				"type": "unocc",
				"energy": -0.06724,
				"method": "rhf"
			},
			{
				"type": "unocc",
				"energy": -0.01832,
				"method": "rhf"
			},
			{
				"type": "unocc",
				"energy": -0.00837,
				"method": "rhf"
			},
			{
				"type": "unocc",
				"energy": 0.06884,
				"method": "rhf"
			},
			{
				"type": "unocc",
				"energy": 0.08193,
				"method": "rhf"
			}
		],
		"cosmo_sigma_profile": { 
			"-0.025": 0.0,
			"-0.024": 0.0,
			"-0.023": 0.0,
			"-0.022": 0.0,
			"-0.021": 0.0,
			"-0.02": 0.0,
			"-0.019": 0.0,
			"-0.018": 0.0,
			"-0.017": 0.0,
			"-0.016": 0.0,
			"-0.015": 0.0,
			"-0.014": 0.0,
			"-0.013": 0.0,
			"-0.012": 0.0,
			"-0.011": 0.552092139195,
			"-0.01": 2.416738739,
			"-0.009": 1.93745618533,
			"-0.008": 1.85750614143,
			"-0.007": 2.95828982413,
			"-0.006": 8.28912579427,
			"-0.005": 14.0892064684,
			"-0.004": 20.1654308583,
			"-0.003": 24.5015092882,
			"-0.002": 47.173197557,
			"-0.001": 61.993512359,
			"0.0": 60.143980262,
			"0.001": 49.4908999853,
			"0.002": 33.4209158045,
			"0.003": 16.4049089928,
			"0.004": 16.4482549388,
			"0.005": 8.12201880555,
			"0.006": 3.39164772299,
			"0.007": 2.26713624285,
			"0.008": 2.27238496652,
			"0.009": 1.71184080084,
			"0.01": 2.56110079062,
			"0.011": 5.06633703904,
			"0.012": 5.60730456449,
			"0.013": 1.84426935095,
			"0.014": 0.153285214427,
			"0.015": 0.0,
			"0.016": 0.0,
			"0.017": 0.0,
			"0.018": 0.0,
			"0.019": 0.0,
			"0.02": 0.0,
			"0.021": 0.0,
			"0.022": 0.0,
			"0.023": 0.0,
			"0.024": 0.0,
			"0.025": 0.0
		}
	}
}
