{
	 "smiles": "COC1=CC(=CC=C1N)C(O)=O", 
	 "Tm": 460.15, 
	 "num_atms": 21, 
	 "gaussian": { 
		 "optdone": 1, 
		 "sigma_profile": "yes", 
		 "theory": "DFT", 
		 "functional": "B3LYP", 
		 "basiset": "6-31G**", 
		 "properties": { 
			 "R2extent": 2941.4783, 
			 "electric_dipole_moment_norm": 3.00808737905, 
			 "electric_quadrupole_moment_norm": 11.0821950966, 
			 "total_energy": -590.712517669, 
			 "HOMO_LUMO_gap": 0.17197, 
			 "cosmo_polarized_energy": -13.92, 
			 "cosmo_cavitation_energy": 25.31, 
			 "cosmo_dispersion_energy": -18.83, 
			 "cosmo_repulsion_energy": 1.51, 
			 "cosmo_total_nonelectrostatic_energy": 7.99, 
			 "SMD_solvation_energy": 6.28 
		},
		"coords": [
			{
				"x": 0.1169209829,
				"y": -1.3978871885,
				"z": 2.6618566751,
				"element": "C" 
			},
			{
				"x": -0.4301093007,
				"y": -0.1461709449,
				"z": 2.2756953924,
				"element": "O" 
			},
			{
				"x": 0.2108839639,
				"y": 0.554421917,
				"z": 1.2845725978,
				"element": "C" 
			},
			{
				"x": 1.3548048427,
				"y": 0.1436339427,
				"z": 0.6233590979,
				"element": "C" 
			},
			{
				"x": 1.9316119887,
				"y": 0.9569974633,
				"z": -0.3720854599,
				"element": "C" 
			},
			{
				"x": 1.3426877482,
				"y": 2.185901329,
				"z": -0.6863448846,
				"element": "C" 
			},
			{
				"x": 0.1922994137,
				"y": 2.5992980839,
				"z": -0.020631099,
				"element": "C" 
			},
			{
				"x": -0.3968951686,
				"y": 1.7998387985,
				"z": 0.9686437285,
				"element": "C" 
			},
			{
				"x": -1.5645695784,
				"y": 2.1548154457,
				"z": 1.614101972,
				"element": "N" 
			},
			{
				"x": 3.1503600047,
				"y": 0.4601959112,
				"z": -1.0376025575,
				"element": "C" 
			},
			{
				"x": 3.636330067,
				"y": 1.3122668261,
				"z": -1.9816007718,
				"element": "O" 
			},
			{
				"x": 3.7011192181,
				"y": -0.6006346536,
				"z": -0.7971873579,
				"element": "O" 
			},
			{
				"x": 0.1289151657,
				"y": -2.1052064,
				"z": 1.8234076771,
				"element": "H" 
			},
			{
				"x": -0.5321705607,
				"y": -1.7827689225,
				"z": 3.4499667817,
				"element": "H" 
			},
			{
				"x": 1.1369372792,
				"y": -1.2881013349,
				"z": 3.0512632135,
				"element": "H" 
			},
			{
				"x": 1.837493643,
				"y": -0.7991269059,
				"z": 0.8487804793,
				"element": "H" 
			},
			{
				"x": 1.784935893,
				"y": 2.8154785285,
				"z": -1.4494697385,
				"element": "H" 
			},
			{
				"x": -0.2681812265,
				"y": 3.5522312599,
				"z": -0.2680103566,
				"element": "H" 
			},
			{
				"x": -1.7579516277,
				"y": 1.652575762,
				"z": 2.4680038143,
				"element": "H" 
			},
			{
				"x": -1.7941836839,
				"y": 3.1367545008,
				"z": 1.6342915619,
				"element": "H" 
			},
			{
				"x": 4.4256609357,
				"y": 0.8738865816,
				"z": -2.3381107656,
				"element": "H" 
			}
		],
		 "valence_orbital": [ 
			{
				"type": "occ",
				"energy": -0.31533,
				"method": "rhf"
			},
			{
				"type": "occ",
				"energy": -0.2995,
				"method": "rhf"
			},
			{
				"type": "occ",
				"energy": -0.2623,
				"method": "rhf"
			},
			{
				"type": "occ",
				"energy": -0.23637,
				"method": "rhf"
			},
			{
				"type": "occ",
				"energy": -0.19939,
				"method": "rhf"
			},
			{
				"type": "unocc",
				"energy": -0.02742,
				"method": "rhf"
			},
			{
				"type": "unocc",
				"energy": 0.01006,
				"method": "rhf"
			},
			{
				"type": "unocc",
				"energy": 0.0746,
				"method": "rhf"
			},
			{
				"type": "unocc",
				"energy": 0.08342,
				"method": "rhf"
			},
			{
				"type": "unocc",
				"energy": 0.09016,
				"method": "rhf"
			}
		],
		"cosmo_sigma_profile": { 
			"-0.025": 0.0,
			"-0.024": 0.0,
			"-0.023": 0.0,
			"-0.022": 0.0,
			"-0.021": 0.0,
			"-0.02": 0.0,
			"-0.019": 0.0,
			"-0.018": 0.284290492014,
			"-0.017": 0.754661316308,
			"-0.016": 0.81953950826,
			"-0.015": 0.940368733221,
			"-0.014": 1.07599150455,
			"-0.013": 1.91066813191,
			"-0.012": 1.9379794109,
			"-0.011": 2.45261673079,
			"-0.01": 3.43026795182,
			"-0.009": 3.28104191765,
			"-0.008": 2.69544307222,
			"-0.007": 3.44158023157,
			"-0.006": 9.33168277073,
			"-0.005": 15.1958870433,
			"-0.004": 13.8937047399,
			"-0.003": 13.0472857257,
			"-0.002": 8.67994498939,
			"-0.001": 9.51400371367,
			"0.0": 10.0190275562,
			"0.001": 9.41422860723,
			"0.002": 12.4685553065,
			"0.003": 16.3910337994,
			"0.004": 15.7182842673,
			"0.005": 12.303342233,
			"0.006": 6.61073336513,
			"0.007": 4.60355882433,
			"0.008": 4.6001088213,
			"0.009": 2.68016911152,
			"0.01": 2.46133830929,
			"0.011": 2.45280922202,
			"0.012": 5.44606019278,
			"0.013": 2.94666839336,
			"0.014": 8.02279869705e-06,
			"0.015": 0.0,
			"0.016": 0.0,
			"0.017": 0.0,
			"0.018": 0.0,
			"0.019": 0.0,
			"0.02": 0.0,
			"0.021": 0.0,
			"0.022": 0.0,
			"0.023": 0.0,
			"0.024": 0.0,
			"0.025": 0.0
		}
	}
}
