{
	 "smiles": "[O-][N+](=O)C1=CC=C(OC(=O)CCl)C=C1", 
	 "Tm": 347.15, 
	 "num_atms": 20, 
	 "gaussian": { 
		 "optdone": 1, 
		 "sigma_profile": "yes", 
		 "theory": "DFT", 
		 "functional": "B3LYP", 
		 "basiset": "6-31G**", 
		 "properties": { 
			 "R2extent": 5674.2986, 
			 "electric_dipole_moment_norm": 4.42285573583, 
			 "electric_quadrupole_moment_norm": 19.9097420249, 
			 "total_energy": -1124.20348568, 
			 "HOMO_LUMO_gap": 0.19083, 
			 "cosmo_polarized_energy": -15.0, 
			 "cosmo_cavitation_energy": 28.53, 
			 "cosmo_dispersion_energy": -20.58, 
			 "cosmo_repulsion_energy": 1.65, 
			 "cosmo_total_nonelectrostatic_energy": 9.6, 
			 "SMD_solvation_energy": 8.01 
		},
		"coords": [
			{
				"x": -1.896478503,
				"y": -1.5093142514,
				"z": 2.4692387504,
				"element": "O" 
			},
			{
				"x": -2.198015478,
				"y": -1.2303494848,
				"z": 1.3098227368,
				"element": "N" 
			},
			{
				"x": -3.2892177618,
				"y": -1.46171129,
				"z": 0.79142475,
				"element": "O" 
			},
			{
				"x": -1.1759923738,
				"y": -0.5715373526,
				"z": 0.4801515735,
				"element": "C" 
			},
			{
				"x": 0.0713111482,
				"y": -0.2984765204,
				"z": 1.0391282022,
				"element": "C" 
			},
			{
				"x": 1.0369513762,
				"y": 0.3210547612,
				"z": 0.2517101501,
				"element": "C" 
			},
			{
				"x": 0.7311184376,
				"y": 0.6491057915,
				"z": -1.0682666072,
				"element": "C" 
			},
			{
				"x": 1.7244668702,
				"y": 1.2038133117,
				"z": -1.8770598974,
				"element": "O" 
			},
			{
				"x": 1.8244650092,
				"y": 2.5748061911,
				"z": -1.920572169,
				"element": "C" 
			},
			{
				"x": 1.119425717,
				"y": 3.3295154472,
				"z": -1.3136574932,
				"element": "O" 
			},
			{
				"x": 2.9708156322,
				"y": 2.9120237866,
				"z": -2.8625217714,
				"element": "C" 
			},
			{
				"x": 3.2329109835,
				"y": 4.6689446083,
				"z": -3.0298856216,
				"element": "Cl" 
			},
			{
				"x": -0.5184564203,
				"y": 0.3744200946,
				"z": -1.6219637481,
				"element": "C" 
			},
			{
				"x": -1.4874681385,
				"y": -0.24503106,
				"z": -0.8386250659,
				"element": "C" 
			},
			{
				"x": 0.2653555469,
				"y": -0.5712112983,
				"z": 2.0686286795,
				"element": "H" 
			},
			{
				"x": 2.0203738298,
				"y": 0.5470864743,
				"z": 0.6484823976,
				"element": "H" 
			},
			{
				"x": 3.8886315484,
				"y": 2.4533810822,
				"z": -2.4887747773,
				"element": "H" 
			},
			{
				"x": 2.7601092618,
				"y": 2.4922255846,
				"z": -3.8483187576,
				"element": "H" 
			},
			{
				"x": -0.7205794373,
				"y": 0.6411657896,
				"z": -2.6532886459,
				"element": "H" 
			},
			{
				"x": -2.4707272484,
				"y": -0.4774116654,
				"z": -1.2273526853,
				"element": "H" 
			}
		],
		 "valence_orbital": [ 
			{
				"type": "occ",
				"energy": -0.31441,
				"method": "rhf"
			},
			{
				"type": "occ",
				"energy": -0.3111,
				"method": "rhf"
			},
			{
				"type": "occ",
				"energy": -0.29787,
				"method": "rhf"
			},
			{
				"type": "occ",
				"energy": -0.29259,
				"method": "rhf"
			},
			{
				"type": "occ",
				"energy": -0.28752,
				"method": "rhf"
			},
			{
				"type": "unocc",
				"energy": -0.09669,
				"method": "rhf"
			},
			{
				"type": "unocc",
				"energy": -0.04218,
				"method": "rhf"
			},
			{
				"type": "unocc",
				"energy": -0.02334,
				"method": "rhf"
			},
			{
				"type": "unocc",
				"energy": -0.00965,
				"method": "rhf"
			},
			{
				"type": "unocc",
				"energy": 0.00811,
				"method": "rhf"
			}
		],
		"cosmo_sigma_profile": { 
			"-0.025": 0.0,
			"-0.024": 0.0,
			"-0.023": 0.0,
			"-0.022": 0.0,
			"-0.021": 0.0,
			"-0.02": 0.0,
			"-0.019": 0.0,
			"-0.018": 0.0,
			"-0.017": 0.0,
			"-0.016": 0.0,
			"-0.015": 0.0,
			"-0.014": 0.0,
			"-0.013": 0.0,
			"-0.012": 0.0,
			"-0.011": 0.328282543159,
			"-0.01": 5.15029600478,
			"-0.009": 6.5367001871,
			"-0.008": 11.727985332,
			"-0.007": 14.1659289662,
			"-0.006": 12.5126037388,
			"-0.005": 9.02715665524,
			"-0.004": 10.3718125606,
			"-0.003": 9.26982420202,
			"-0.002": 13.1462620111,
			"-0.001": 17.2434784954,
			"0.0": 18.702245204,
			"0.001": 14.3297030653,
			"0.002": 9.58789514092,
			"0.003": 8.66450339786,
			"0.004": 10.9717213638,
			"0.005": 13.4988326082,
			"0.006": 9.16983668488,
			"0.007": 11.0435495517,
			"0.008": 9.525434103,
			"0.009": 7.58079660494,
			"0.01": 7.23094017501,
			"0.011": 1.70719240585,
			"0.012": 0.143862620255,
			"0.013": 0.0,
			"0.014": 0.0,
			"0.015": 0.0,
			"0.016": 0.0,
			"0.017": 0.0,
			"0.018": 0.0,
			"0.019": 0.0,
			"0.02": 0.0,
			"0.021": 0.0,
			"0.022": 0.0,
			"0.023": 0.0,
			"0.024": 0.0,
			"0.025": 0.0
		}
	}
}
