{
	 "smiles": "CC1CCOCO1", 
	 "Tm": 228.65, 
	 "num_atms": 17, 
	 "gaussian": { 
		 "optdone": 1, 
		 "sigma_profile": "yes", 
		 "theory": "DFT", 
		 "functional": "B3LYP", 
		 "basiset": "6-31G**", 
		 "properties": { 
			 "R2extent": 1172.7837, 
			 "electric_dipole_moment_norm": 1.932981689, 
			 "electric_quadrupole_moment_norm": 4.85359715675, 
			 "total_energy": -346.983660272, 
			 "HOMO_LUMO_gap": 0.32448, 
			 "cosmo_polarized_energy": -5.78, 
			 "cosmo_cavitation_energy": 18.49, 
			 "cosmo_dispersion_energy": -14.33, 
			 "cosmo_repulsion_energy": 1.21, 
			 "cosmo_total_nonelectrostatic_energy": 5.36, 
			 "SMD_solvation_energy": 3.33 
		},
		"coords": [
			{
				"x": 0.8796017641,
				"y": -0.7835809817,
				"z": -3.3450412365,
				"element": "C" 
			},
			{
				"x": 1.1648688418,
				"y": -0.4952518828,
				"z": -1.8785258578,
				"element": "C" 
			},
			{
				"x": 1.7419929046,
				"y": 0.9220178498,
				"z": -1.626594458,
				"element": "C" 
			},
			{
				"x": 0.6203835912,
				"y": 1.8446659616,
				"z": -1.146023898,
				"element": "C" 
			},
			{
				"x": 0.0238220547,
				"y": 1.3548054053,
				"z": 0.0545413676,
				"element": "O" 
			},
			{
				"x": -0.0543368139,
				"y": -0.0621851426,
				"z": 0.0905900893,
				"element": "C" 
			},
			{
				"x": -0.0913605425,
				"y": -0.6354556162,
				"z": -1.1861842942,
				"element": "O" 
			},
			{
				"x": 0.2258723361,
				"y": -0.0143854567,
				"z": -3.7692066273,
				"element": "H" 
			},
			{
				"x": 1.8115191613,
				"y": -0.8038112683,
				"z": -3.918783894,
				"element": "H" 
			},
			{
				"x": 0.3819893912,
				"y": -1.7513786988,
				"z": -3.4523774794,
				"element": "H" 
			},
			{
				"x": 1.8610472932,
				"y": -1.2529811443,
				"z": -1.4842644408,
				"element": "H" 
			},
			{
				"x": 2.1987171557,
				"y": 1.3233305713,
				"z": -2.5381423647,
				"element": "H" 
			},
			{
				"x": 2.5258989516,
				"y": 0.8890090394,
				"z": -0.8620061866,
				"element": "H" 
			},
			{
				"x": -0.1428028196,
				"y": 1.9471807692,
				"z": -1.9314011874,
				"element": "H" 
			},
			{
				"x": 0.9994262747,
				"y": 2.8446321755,
				"z": -0.9150267383,
				"element": "H" 
			},
			{
				"x": 0.800780184,
				"y": -0.4652983277,
				"z": 0.6650974255,
				"element": "H" 
			},
			{
				"x": -0.9872197285,
				"y": -0.3281132533,
				"z": 0.5963497808,
				"element": "H" 
			}
		],
		 "valence_orbital": [ 
			{
				"type": "occ",
				"energy": -0.35755,
				"method": "rhf"
			},
			{
				"type": "occ",
				"energy": -0.33881,
				"method": "rhf"
			},
			{
				"type": "occ",
				"energy": -0.30909,
				"method": "rhf"
			},
			{
				"type": "occ",
				"energy": -0.26342,
				"method": "rhf"
			},
			{
				"type": "occ",
				"energy": -0.24333,
				"method": "rhf"
			},
			{
				"type": "unocc",
				"energy": 0.08115,
				"method": "rhf"
			},
			{
				"type": "unocc",
				"energy": 0.11082,
				"method": "rhf"
			},
			{
				"type": "unocc",
				"energy": 0.11994,
				"method": "rhf"
			},
			{
				"type": "unocc",
				"energy": 0.13776,
				"method": "rhf"
			},
			{
				"type": "unocc",
				"energy": 0.13838,
				"method": "rhf"
			}
		],
		"cosmo_sigma_profile": { 
			"-0.025": 0.0,
			"-0.024": 0.0,
			"-0.023": 0.0,
			"-0.022": 0.0,
			"-0.021": 0.0,
			"-0.02": 0.0,
			"-0.019": 0.0,
			"-0.018": 0.0,
			"-0.017": 0.0,
			"-0.016": 0.0,
			"-0.015": 0.0,
			"-0.014": 0.0,
			"-0.013": 0.0,
			"-0.012": 0.0,
			"-0.011": 0.0,
			"-0.01": 0.0,
			"-0.009": 0.0,
			"-0.008": 0.0,
			"-0.007": 0.0,
			"-0.006": 1.30417979103,
			"-0.005": 4.12675518703,
			"-0.004": 20.329026184,
			"-0.003": 30.485660949,
			"-0.002": 19.6574602653,
			"-0.001": 14.9560698526,
			"0.0": 11.0527171361,
			"0.001": 7.69594037641,
			"0.002": 3.40415687947,
			"0.003": 2.89428338096,
			"0.004": 2.64039133866,
			"0.005": 3.25243169914,
			"0.006": 2.71647019302,
			"0.007": 2.52934784009,
			"0.008": 3.0490316255,
			"0.009": 2.30843198176,
			"0.01": 2.21444661582,
			"0.011": 2.31605849706,
			"0.012": 3.40482667635,
			"0.013": 2.24628044986,
			"0.014": 0.548006503855,
			"0.015": 0.0,
			"0.016": 0.0,
			"0.017": 0.0,
			"0.018": 0.0,
			"0.019": 0.0,
			"0.02": 0.0,
			"0.021": 0.0,
			"0.022": 0.0,
			"0.023": 0.0,
			"0.024": 0.0,
			"0.025": 0.0
		}
	}
}
