{
	 "smiles": "OC(=O)COC1=CC=C(O)C=C1", 
	 "Tm": 428.65, 
	 "num_atms": 20, 
	 "gaussian": { 
		 "optdone": 1, 
		 "sigma_profile": "yes", 
		 "theory": "DFT", 
		 "functional": "B3LYP", 
		 "basiset": "6-31G**", 
		 "properties": { 
			 "R2extent": 3025.9683, 
			 "electric_dipole_moment_norm": 1.21400450164, 
			 "electric_quadrupole_moment_norm": 17.9364615794, 
			 "total_energy": -610.555550494, 
			 "HOMO_LUMO_gap": 0.19618, 
			 "cosmo_polarized_energy": -16.77, 
			 "cosmo_cavitation_energy": 25.26, 
			 "cosmo_dispersion_energy": -18.72, 
			 "cosmo_repulsion_energy": 1.51, 
			 "cosmo_total_nonelectrostatic_energy": 8.06, 
			 "SMD_solvation_energy": 6.34 
		},
		"coords": [
			{
				"x": -3.8188348644,
				"y": 0.2461382972,
				"z": -0.7858607009,
				"element": "O" 
			},
			{
				"x": -2.973961679,
				"y": 1.0996458935,
				"z": -1.3871893128,
				"element": "C" 
			},
			{
				"x": -3.3242196206,
				"y": 1.9784212092,
				"z": -2.1435245397,
				"element": "O" 
			},
			{
				"x": -1.5118058557,
				"y": 0.8786767499,
				"z": -1.0416671075,
				"element": "C" 
			},
			{
				"x": -1.3473290291,
				"y": -0.1964189522,
				"z": -0.1509512421,
				"element": "O" 
			},
			{
				"x": -0.0692410799,
				"y": -0.5082738282,
				"z": 0.2484111595,
				"element": "C" 
			},
			{
				"x": 0.0395537384,
				"y": -1.5881417522,
				"z": 1.1368910831,
				"element": "C" 
			},
			{
				"x": 1.2808041306,
				"y": -1.9917813531,
				"z": 1.6065425457,
				"element": "C" 
			},
			{
				"x": 2.4413494607,
				"y": -1.3209468554,
				"z": 1.1953128312,
				"element": "C" 
			},
			{
				"x": 3.6367830194,
				"y": -1.7667225042,
				"z": 1.6938960424,
				"element": "O" 
			},
			{
				"x": 2.3349950123,
				"y": -0.2477792113,
				"z": 0.3125121401,
				"element": "C" 
			},
			{
				"x": 1.0833666017,
				"y": 0.1625921609,
				"z": -0.1638132188,
				"element": "C" 
			},
			{
				"x": -4.7081301381,
				"y": 0.4964308327,
				"z": -1.0901807283,
				"element": "H" 
			},
			{
				"x": -0.9804558381,
				"y": 0.7128541237,
				"z": -1.9903741326,
				"element": "H" 
			},
			{
				"x": -1.1362702015,
				"y": 1.8232145362,
				"z": -0.6211810179,
				"element": "H" 
			},
			{
				"x": -0.8673000749,
				"y": -2.097260393,
				"z": 1.4460638293,
				"element": "H" 
			},
			{
				"x": 1.3729105576,
				"y": -2.8261042349,
				"z": 2.2939300406,
				"element": "H" 
			},
			{
				"x": 4.3502349039,
				"y": -1.2237744216,
				"z": 1.3352564812,
				"element": "H" 
			},
			{
				"x": 3.2280310991,
				"y": 0.2809218565,
				"z": -0.0141527254,
				"element": "H" 
			},
			{
				"x": 1.0348198575,
				"y": 1.0005078462,
				"z": -0.849221427,
				"element": "H" 
			}
		],
		 "valence_orbital": [ 
			{
				"type": "occ",
				"energy": -0.3251,
				"method": "rhf"
			},
			{
				"type": "occ",
				"energy": -0.29943,
				"method": "rhf"
			},
			{
				"type": "occ",
				"energy": -0.28453,
				"method": "rhf"
			},
			{
				"type": "occ",
				"energy": -0.2558,
				"method": "rhf"
			},
			{
				"type": "occ",
				"energy": -0.20525,
				"method": "rhf"
			},
			{
				"type": "unocc",
				"energy": -0.00907,
				"method": "rhf"
			},
			{
				"type": "unocc",
				"energy": 0.00365,
				"method": "rhf"
			},
			{
				"type": "unocc",
				"energy": 0.02306,
				"method": "rhf"
			},
			{
				"type": "unocc",
				"energy": 0.06819,
				"method": "rhf"
			},
			{
				"type": "unocc",
				"energy": 0.07057,
				"method": "rhf"
			}
		],
		"cosmo_sigma_profile": { 
			"-0.025": 0.0,
			"-0.024": 0.0,
			"-0.023": 0.0,
			"-0.022": 0.0,
			"-0.021": 0.0,
			"-0.02": 0.0,
			"-0.019": 0.348777314648,
			"-0.018": 1.04976052349,
			"-0.017": 1.96548762922,
			"-0.016": 1.96806295987,
			"-0.015": 1.73068520717,
			"-0.014": 1.62710596895,
			"-0.013": 1.80231127891,
			"-0.012": 1.39225421834,
			"-0.011": 2.40424232255,
			"-0.01": 1.35449700176,
			"-0.009": 1.82382744688,
			"-0.008": 6.30370940427,
			"-0.007": 11.7954454658,
			"-0.006": 11.1940407306,
			"-0.005": 10.782687325,
			"-0.004": 10.1528660079,
			"-0.003": 9.9608441922,
			"-0.002": 7.77998077065,
			"-0.001": 7.42994734122,
			"0.0": 7.06834311852,
			"0.001": 7.61178706436,
			"0.002": 9.69689021576,
			"0.003": 11.1640609312,
			"0.004": 16.3311229458,
			"0.005": 15.1190748414,
			"0.006": 6.41008511718,
			"0.007": 4.81419327158,
			"0.008": 4.86545431494,
			"0.009": 4.21468065332,
			"0.01": 5.61112488416,
			"0.011": 7.84336151287,
			"0.012": 6.37491270852,
			"0.013": 0.813507725896,
			"0.014": 0.0,
			"0.015": 0.0,
			"0.016": 0.0,
			"0.017": 0.0,
			"0.018": 0.0,
			"0.019": 0.0,
			"0.02": 0.0,
			"0.021": 0.0,
			"0.022": 0.0,
			"0.023": 0.0,
			"0.024": 0.0,
			"0.025": 0.0
		}
	}
}
