{
	 "smiles": "COC1=C(OC)C=C2C(CC2=C1)C(O)=O", 
	 "Tm": 411.15, 
	 "num_atms": 27, 
	 "gaussian": { 
		 "optdone": 1, 
		 "sigma_profile": "yes", 
		 "theory": "DFT", 
		 "functional": "B3LYP", 
		 "basiset": "6-31G**", 
		 "properties": { 
			 "R2extent": 4145.0899, 
			 "electric_dipole_moment_norm": 5.23336982546, 
			 "electric_quadrupole_moment_norm": 26.3093420655, 
			 "total_energy": -727.237426962, 
			 "HOMO_LUMO_gap": 0.19751, 
			 "cosmo_polarized_energy": -16.7, 
			 "cosmo_cavitation_energy": 30.95, 
			 "cosmo_dispersion_energy": -22.35, 
			 "cosmo_repulsion_energy": 1.79, 
			 "cosmo_total_nonelectrostatic_energy": 10.38, 
			 "SMD_solvation_energy": 7.65 
		},
		"coords": [
			{
				"x": 1.3565755678,
				"y": -2.2394802227,
				"z": -1.9723253922,
				"element": "C" 
			},
			{
				"x": 1.8481430343,
				"y": -1.1990814173,
				"z": -1.1437476889,
				"element": "O" 
			},
			{
				"x": 0.9450285727,
				"y": -0.4145502595,
				"z": -0.495851876,
				"element": "C" 
			},
			{
				"x": 1.5308871787,
				"y": 0.6048374033,
				"z": 0.323406869,
				"element": "C" 
			},
			{
				"x": 2.8921423605,
				"y": 0.6178493662,
				"z": 0.3164342281,
				"element": "O" 
			},
			{
				"x": 3.5526264378,
				"y": 1.5917907156,
				"z": 1.1075499548,
				"element": "C" 
			},
			{
				"x": 0.7334166421,
				"y": 1.4922962554,
				"z": 1.0539671485,
				"element": "C" 
			},
			{
				"x": -0.6484917509,
				"y": 1.3268964593,
				"z": 0.9295154797,
				"element": "C" 
			},
			{
				"x": -1.9914186795,
				"y": 1.8616587327,
				"z": 1.4173946317,
				"element": "C" 
			},
			{
				"x": -2.6400063189,
				"y": 0.7286851206,
				"z": 0.4962015971,
				"element": "C" 
			},
			{
				"x": -1.2140508308,
				"y": 0.3443924471,
				"z": 0.1358419245,
				"element": "C" 
			},
			{
				"x": -0.4441568664,
				"y": -0.5581430891,
				"z": -0.5966155169,
				"element": "C" 
			},
			{
				"x": -2.3904160239,
				"y": 3.27991322,
				"z": 1.0306412569,
				"element": "C" 
			},
			{
				"x": -1.866059335,
				"y": 3.734958806,
				"z": -0.1369045001,
				"element": "O" 
			},
			{
				"x": -3.1515708744,
				"y": 3.9618628084,
				"z": 1.6719931737,
				"element": "O" 
			},
			{
				"x": 0.7437756568,
				"y": -1.847645315,
				"z": -2.7946776284,
				"element": "H" 
			},
			{
				"x": 0.7663163516,
				"y": -2.9678901938,
				"z": -1.4011830768,
				"element": "H" 
			},
			{
				"x": 2.2367823748,
				"y": -2.7346250646,
				"z": -2.3847258654,
				"element": "H" 
			},
			{
				"x": 3.298602194,
				"y": 2.611933386,
				"z": 0.7909401355,
				"element": "H" 
			},
			{
				"x": 3.3145182312,
				"y": 1.4779767062,
				"z": 2.1732285681,
				"element": "H" 
			},
			{
				"x": 4.6202771984,
				"y": 1.4249723302,
				"z": 0.9582194673,
				"element": "H" 
			},
			{
				"x": 1.1751155126,
				"y": 2.2582798064,
				"z": 1.6801800202,
				"element": "H" 
			},
			{
				"x": -2.2080380147,
				"y": 1.7348454003,
				"z": 2.4806468118,
				"element": "H" 
			},
			{
				"x": -3.2147190693,
				"y": -0.0132098583,
				"z": 1.0593136896,
				"element": "H" 
			},
			{
				"x": -3.2645337284,
				"y": 1.1088063199,
				"z": -0.3193659794,
				"element": "H" 
			},
			{
				"x": -0.8825704175,
				"y": -1.3331118977,
				"z": -1.2139029757,
				"element": "H" 
			},
			{
				"x": -1.2318754034,
				"y": 3.0802820344,
				"z": -0.4728744565,
				"element": "H" 
			}
		],
		 "valence_orbital": [ 
			{
				"type": "occ",
				"energy": -0.32141,
				"method": "rhf"
			},
			{
				"type": "occ",
				"energy": -0.30376,
				"method": "rhf"
			},
			{
				"type": "occ",
				"energy": -0.26153,
				"method": "rhf"
			},
			{
				"type": "occ",
				"energy": -0.24944,
				"method": "rhf"
			},
			{
				"type": "occ",
				"energy": -0.21029,
				"method": "rhf"
			},
			{
				"type": "unocc",
				"energy": -0.01278,
				"method": "rhf"
			},
			{
				"type": "unocc",
				"energy": 0.00234,
				"method": "rhf"
			},
			{
				"type": "unocc",
				"energy": 0.0118,
				"method": "rhf"
			},
			{
				"type": "unocc",
				"energy": 0.08026,
				"method": "rhf"
			},
			{
				"type": "unocc",
				"energy": 0.08647,
				"method": "rhf"
			}
		],
		"cosmo_sigma_profile": { 
			"-0.025": 0.0,
			"-0.024": 0.0,
			"-0.023": 0.0,
			"-0.022": 0.0,
			"-0.021": 0.0,
			"-0.02": 0.0,
			"-0.019": 0.0,
			"-0.018": 0.0,
			"-0.017": 0.0,
			"-0.016": 0.0,
			"-0.015": 0.211887091368,
			"-0.014": 0.512485001828,
			"-0.013": 0.711597031354,
			"-0.012": 0.503176700182,
			"-0.011": 0.856532126003,
			"-0.01": 0.810565786599,
			"-0.009": 1.03069566837,
			"-0.008": 1.07851314135,
			"-0.007": 4.19924091263,
			"-0.006": 17.2921334099,
			"-0.005": 30.7668799005,
			"-0.004": 26.2543443036,
			"-0.003": 26.671775293,
			"-0.002": 18.3581704665,
			"-0.001": 13.8134063877,
			"0.0": 11.2508925667,
			"0.001": 8.02323766775,
			"0.002": 11.5287089929,
			"0.003": 11.2034767879,
			"0.004": 9.28360422156,
			"0.005": 6.36166321632,
			"0.006": 5.26132246357,
			"0.007": 3.54048575608,
			"0.008": 3.96609992393,
			"0.009": 5.187387623,
			"0.01": 5.79082141745,
			"0.011": 7.01147628446,
			"0.012": 7.25645900094,
			"0.013": 4.54086944078,
			"0.014": 1.40920775749,
			"0.015": 0.730808750857,
			"0.016": 7.11313195683e-05,
			"0.017": 0.0,
			"0.018": 0.0,
			"0.019": 0.0,
			"0.02": 0.0,
			"0.021": 0.0,
			"0.022": 0.0,
			"0.023": 0.0,
			"0.024": 0.0,
			"0.025": 0.0
		}
	}
}
