{
	 "smiles": "CCCCCCCC(N)P(O)(O)=O", 
	 "Tm": 543.15, 
	 "num_atms": 33, 
	 "gaussian": { 
		 "optdone": 1, 
		 "sigma_profile": "yes", 
		 "theory": "DFT", 
		 "functional": "B3LYP", 
		 "basiset": "6-31G**", 
		 "properties": { 
			 "R2extent": 5089.3832, 
			 "electric_dipole_moment_norm": 2.02833795508, 
			 "electric_quadrupole_moment_norm": 6.27859166215, 
			 "total_energy": -938.761942207, 
			 "HOMO_LUMO_gap": 0.2886, 
			 "cosmo_polarized_energy": -18.04, 
			 "cosmo_cavitation_energy": 35.27, 
			 "cosmo_dispersion_energy": -24.57, 
			 "cosmo_repulsion_energy": 1.98, 
			 "cosmo_total_nonelectrostatic_energy": 12.69, 
			 "SMD_solvation_energy": 6.61 
		},
		"coords": [
			{
				"x": -1.635711694,
				"y": 2.2591127405,
				"z": 0.1769006173,
				"element": "C" 
			},
			{
				"x": -2.0047587024,
				"y": 1.4536912257,
				"z": -1.0761223543,
				"element": "C" 
			},
			{
				"x": -2.9980505201,
				"y": 0.2950715926,
				"z": -0.8368386587,
				"element": "C" 
			},
			{
				"x": -2.4152015335,
				"y": -1.0922688038,
				"z": -0.5010199116,
				"element": "C" 
			},
			{
				"x": -1.6134796431,
				"y": -1.2353185797,
				"z": 0.8120047739,
				"element": "C" 
			},
			{
				"x": -0.0989258179,
				"y": -1.0239752785,
				"z": 0.663392564,
				"element": "C" 
			},
			{
				"x": 0.6365317555,
				"y": -1.1607148319,
				"z": 2.0043859738,
				"element": "C" 
			},
			{
				"x": 2.1648999038,
				"y": -0.9642165748,
				"z": 1.9556626433,
				"element": "C" 
			},
			{
				"x": 2.5214568409,
				"y": 0.3022244818,
				"z": 1.3146612625,
				"element": "N" 
			},
			{
				"x": 3.0167432079,
				"y": -2.3208023493,
				"z": 1.0579724014,
				"element": "P" 
			},
			{
				"x": 4.5622148544,
				"y": -1.7898018849,
				"z": 1.074050885,
				"element": "O" 
			},
			{
				"x": 2.9649465082,
				"y": -3.482656953,
				"z": 2.1986842341,
				"element": "O" 
			},
			{
				"x": 2.5820195812,
				"y": -2.7828334195,
				"z": -0.2880627525,
				"element": "O" 
			},
			{
				"x": -2.5292960206,
				"y": 2.7079123001,
				"z": 0.6261629011,
				"element": "H" 
			},
			{
				"x": -1.1608891708,
				"y": 1.6400214624,
				"z": 0.9436919947,
				"element": "H" 
			},
			{
				"x": -0.9435995739,
				"y": 3.0726771457,
				"z": -0.0667643595,
				"element": "H" 
			},
			{
				"x": -2.4481233077,
				"y": 2.1482562014,
				"z": -1.8010306837,
				"element": "H" 
			},
			{
				"x": -1.0957894118,
				"y": 1.0667658817,
				"z": -1.5547137925,
				"element": "H" 
			},
			{
				"x": -3.7051030849,
				"y": 0.5883524685,
				"z": -0.0471565683,
				"element": "H" 
			},
			{
				"x": -3.6052824741,
				"y": 0.1697664351,
				"z": -1.7426503004,
				"element": "H" 
			},
			{
				"x": -1.7886745882,
				"y": -1.4299584641,
				"z": -1.3383146699,
				"element": "H" 
			},
			{
				"x": -3.2619702139,
				"y": -1.78975285,
				"z": -0.4674477114,
				"element": "H" 
			},
			{
				"x": -2.0206112688,
				"y": -0.5504628753,
				"z": 1.5698115971,
				"element": "H" 
			},
			{
				"x": -1.7739676873,
				"y": -2.2453778261,
				"z": 1.2132284621,
				"element": "H" 
			},
			{
				"x": 0.3021574886,
				"y": -1.7558251586,
				"z": -0.0460113293,
				"element": "H" 
			},
			{
				"x": 0.1191365994,
				"y": -0.0417286989,
				"z": 0.2341893897,
				"element": "H" 
			},
			{
				"x": 0.2412326187,
				"y": -0.4189126239,
				"z": 2.7146270381,
				"element": "H" 
			},
			{
				"x": 0.4298873044,
				"y": -2.1403274812,
				"z": 2.4530914071,
				"element": "H" 
			},
			{
				"x": 2.5403782456,
				"y": -1.0616226138,
				"z": 2.9907322912,
				"element": "H" 
			},
			{
				"x": 2.0218549535,
				"y": 1.0649872822,
				"z": 1.7652299629,
				"element": "H" 
			},
			{
				"x": 3.5159192305,
				"y": 0.480101753,
				"z": 1.4213242197,
				"element": "H" 
			},
			{
				"x": 4.9506992968,
				"y": -1.9263492062,
				"z": 0.1977128706,
				"element": "H" 
			},
			{
				"x": 2.9745563238,
				"y": -4.3547344973,
				"z": 1.7782156025,
				"element": "H" 
			}
		],
		 "valence_orbital": [ 
			{
				"type": "occ",
				"energy": -0.29888,
				"method": "rhf"
			},
			{
				"type": "occ",
				"energy": -0.29711,
				"method": "rhf"
			},
			{
				"type": "occ",
				"energy": -0.28729,
				"method": "rhf"
			},
			{
				"type": "occ",
				"energy": -0.28239,
				"method": "rhf"
			},
			{
				"type": "occ",
				"energy": -0.24222,
				"method": "rhf"
			},
			{
				"type": "unocc",
				"energy": 0.04638,
				"method": "rhf"
			},
			{
				"type": "unocc",
				"energy": 0.06135,
				"method": "rhf"
			},
			{
				"type": "unocc",
				"energy": 0.07056,
				"method": "rhf"
			},
			{
				"type": "unocc",
				"energy": 0.09034,
				"method": "rhf"
			},
			{
				"type": "unocc",
				"energy": 0.10334,
				"method": "rhf"
			}
		],
		"cosmo_sigma_profile": { 
			"-0.025": 0.0,
			"-0.024": 0.0,
			"-0.023": 0.0,
			"-0.022": 0.0,
			"-0.021": 0.0,
			"-0.02": 0.0,
			"-0.019": 0.573361172054,
			"-0.018": 1.48631171868,
			"-0.017": 2.26036229862,
			"-0.016": 1.37312002873,
			"-0.015": 1.81285310259,
			"-0.014": 0.784141590024,
			"-0.013": 1.33205950324,
			"-0.012": 1.19746636705,
			"-0.011": 1.95864222769,
			"-0.01": 3.1980608987,
			"-0.009": 3.73653739606,
			"-0.008": 3.87998160812,
			"-0.007": 4.40738258454,
			"-0.006": 4.72414937442,
			"-0.005": 7.40859161595,
			"-0.004": 8.33269358664,
			"-0.003": 10.2252009237,
			"-0.002": 27.4726795959,
			"-0.001": 38.982183011,
			"0.0": 40.4594451075,
			"0.001": 34.7118499137,
			"0.002": 16.9867491725,
			"0.003": 3.94949649028,
			"0.004": 3.30287016649,
			"0.005": 3.48230744536,
			"0.006": 2.85236579665,
			"0.007": 3.96110507269,
			"0.008": 4.65783607503,
			"0.009": 4.46316028211,
			"0.01": 5.57850986732,
			"0.011": 4.43901129274,
			"0.012": 2.09897372199,
			"0.013": 1.69815207915,
			"0.014": 4.75459816096,
			"0.015": 4.73523044685,
			"0.016": 0.473690378853,
			"0.017": 0.429521227132,
			"0.018": 0.0969453890358,
			"0.019": 0.0,
			"0.02": 0.0,
			"0.021": 0.0,
			"0.022": 0.0,
			"0.023": 0.0,
			"0.024": 0.0,
			"0.025": 0.0
		}
	}
}
