{
	 "smiles": "CC1CCCN1C(=O)C1=C(N)C=C2C=CC=CC2=C1", 
	 "Tm": 397.15, 
	 "num_atms": 37, 
	 "gaussian": { 
		 "optdone": 1, 
		 "sigma_profile": "yes", 
		 "theory": "DFT", 
		 "functional": "B3LYP", 
		 "basiset": "6-31G**", 
		 "properties": { 
			 "R2extent": 6327.6734, 
			 "electric_dipole_moment_norm": 3.45678685776, 
			 "electric_quadrupole_moment_norm": 14.4133008902, 
			 "total_energy": -805.317343213, 
			 "HOMO_LUMO_gap": 0.15515, 
			 "cosmo_polarized_energy": -14.2, 
			 "cosmo_cavitation_energy": 38.1, 
			 "cosmo_dispersion_energy": -27.29, 
			 "cosmo_repulsion_energy": 2.08, 
			 "cosmo_total_nonelectrostatic_energy": 12.9, 
			 "SMD_solvation_energy": 6.31 
		},
		"coords": [
			{
				"x": 0.9852932704,
				"y": -4.4054722182,
				"z": 1.7271432533,
				"element": "C" 
			},
			{
				"x": -0.2479073536,
				"y": -3.7963875813,
				"z": 1.0616289151,
				"element": "C" 
			},
			{
				"x": -1.5287844245,
				"y": -3.86192934,
				"z": 1.9138425751,
				"element": "C" 
			},
			{
				"x": -2.3342177744,
				"y": -2.6323576318,
				"z": 1.4726030629,
				"element": "C" 
			},
			{
				"x": -1.2444293673,
				"y": -1.5679405299,
				"z": 1.2923032405,
				"element": "C" 
			},
			{
				"x": -0.087648904,
				"y": -2.3423828221,
				"z": 0.789149307,
				"element": "N" 
			},
			{
				"x": 0.6844491046,
				"y": -1.9733242449,
				"z": -0.2908777105,
				"element": "C" 
			},
			{
				"x": 1.2821381847,
				"y": -2.8117333937,
				"z": -0.9663641874,
				"element": "O" 
			},
			{
				"x": 0.7859477714,
				"y": -0.5065806231,
				"z": -0.6205455707,
				"element": "C" 
			},
			{
				"x": 1.0952822804,
				"y": 0.5088149168,
				"z": 0.3485074816,
				"element": "C" 
			},
			{
				"x": 1.2438301655,
				"y": 0.1870251262,
				"z": 1.6979394383,
				"element": "N" 
			},
			{
				"x": 1.2244212197,
				"y": 1.8230995125,
				"z": -0.0768088187,
				"element": "C" 
			},
			{
				"x": 1.0655132492,
				"y": 2.19250339,
				"z": -1.4326481218,
				"element": "C" 
			},
			{
				"x": 1.1855287647,
				"y": 3.5386926454,
				"z": -1.8779222668,
				"element": "C" 
			},
			{
				"x": 1.0361836879,
				"y": 3.8564397315,
				"z": -3.2090582116,
				"element": "C" 
			},
			{
				"x": 0.7611739636,
				"y": 2.8481870577,
				"z": -4.1675221286,
				"element": "C" 
			},
			{
				"x": 0.6395026517,
				"y": 1.5363449243,
				"z": -3.7689783028,
				"element": "C" 
			},
			{
				"x": 0.7852667005,
				"y": 1.1753615,
				"z": -2.402620161,
				"element": "C" 
			},
			{
				"x": 0.671863285,
				"y": -0.161414121,
				"z": -1.9532412663,
				"element": "C" 
			},
			{
				"x": 1.8532657852,
				"y": -4.3157368909,
				"z": 1.0708138918,
				"element": "H" 
			},
			{
				"x": 0.8175733416,
				"y": -5.4685140351,
				"z": 1.9324103211,
				"element": "H" 
			},
			{
				"x": 1.2014181423,
				"y": -3.9056906317,
				"z": 2.6783701948,
				"element": "H" 
			},
			{
				"x": -0.403224523,
				"y": -4.2963056532,
				"z": 0.0972372666,
				"element": "H" 
			},
			{
				"x": -2.0617799915,
				"y": -4.8065022628,
				"z": 1.7739411856,
				"element": "H" 
			},
			{
				"x": -1.2732835353,
				"y": -3.7806197331,
				"z": 2.9781392096,
				"element": "H" 
			},
			{
				"x": -3.0972209088,
				"y": -2.3289439151,
				"z": 2.1951022367,
				"element": "H" 
			},
			{
				"x": -2.8327957168,
				"y": -2.8267995832,
				"z": 0.515938358,
				"element": "H" 
			},
			{
				"x": -1.5153120107,
				"y": -0.7806303597,
				"z": 0.5860796364,
				"element": "H" 
			},
			{
				"x": -0.9994060714,
				"y": -1.085977864,
				"z": 2.2452264262,
				"element": "H" 
			},
			{
				"x": 1.4652341402,
				"y": -0.7796751702,
				"z": 1.893772279,
				"element": "H" 
			},
			{
				"x": 1.808935976,
				"y": 0.8355796733,
				"z": 2.2279626245,
				"element": "H" 
			},
			{
				"x": 1.4624983613,
				"y": 2.5954408014,
				"z": 0.6517400998,
				"element": "H" 
			},
			{
				"x": 1.3979510041,
				"y": 4.3156041154,
				"z": -1.1477627841,
				"element": "H" 
			},
			{
				"x": 1.1303806178,
				"y": 4.889575472,
				"z": -3.532100837,
				"element": "H" 
			},
			{
				"x": 0.6484416072,
				"y": 3.1159176244,
				"z": -5.2138695667,
				"element": "H" 
			},
			{
				"x": 0.4304731142,
				"y": 0.7548489013,
				"z": -4.4952777774,
				"element": "H" 
			},
			{
				"x": 0.493544192,
				"y": -0.9536167871,
				"z": -2.6746532926,
				"element": "H" 
			}
		],
		 "valence_orbital": [ 
			{
				"type": "occ",
				"energy": -0.2709,
				"method": "rhf"
			},
			{
				"type": "occ",
				"energy": -0.24772,
				"method": "rhf"
			},
			{
				"type": "occ",
				"energy": -0.23695,
				"method": "rhf"
			},
			{
				"type": "occ",
				"energy": -0.22029,
				"method": "rhf"
			},
			{
				"type": "occ",
				"energy": -0.19405,
				"method": "rhf"
			},
			{
				"type": "unocc",
				"energy": -0.0389,
				"method": "rhf"
			},
			{
				"type": "unocc",
				"energy": -0.00573,
				"method": "rhf"
			},
			{
				"type": "unocc",
				"energy": 0.03303,
				"method": "rhf"
			},
			{
				"type": "unocc",
				"energy": 0.0432,
				"method": "rhf"
			},
			{
				"type": "unocc",
				"energy": 0.07418,
				"method": "rhf"
			}
		],
		"cosmo_sigma_profile": { 
			"-0.025": 0.0,
			"-0.024": 0.0,
			"-0.023": 0.0,
			"-0.022": 0.0,
			"-0.021": 0.0,
			"-0.02": 0.0,
			"-0.019": 0.0,
			"-0.018": 0.0,
			"-0.017": 0.0,
			"-0.016": 0.0,
			"-0.015": 0.0,
			"-0.014": 0.0,
			"-0.013": 0.398499694306,
			"-0.012": 1.27212705663,
			"-0.011": 1.78657758361,
			"-0.01": 2.19854917546,
			"-0.009": 2.99289422065,
			"-0.008": 2.57161852991,
			"-0.007": 2.33669178321,
			"-0.006": 8.28830102595,
			"-0.005": 15.4168168617,
			"-0.004": 18.3430313135,
			"-0.003": 40.3363986467,
			"-0.002": 37.7712489212,
			"-0.001": 28.8059537296,
			"0.0": 24.4948949732,
			"0.001": 17.0758936438,
			"0.002": 12.5520797717,
			"0.003": 12.9673455559,
			"0.004": 19.9913930234,
			"0.005": 19.5675552997,
			"0.006": 9.28975021061,
			"0.007": 3.20396264747,
			"0.008": 2.30190454867,
			"0.009": 2.76815226011,
			"0.01": 2.09325065676,
			"0.011": 1.22968099947,
			"0.012": 2.54251081416,
			"0.013": 2.58646704505,
			"0.014": 3.85718056402,
			"0.015": 1.20729009755,
			"0.016": 0.0148110369197,
			"0.017": 0.0,
			"0.018": 0.0,
			"0.019": 0.0,
			"0.02": 0.0,
			"0.021": 0.0,
			"0.022": 0.0,
			"0.023": 0.0,
			"0.024": 0.0,
			"0.025": 0.0
		}
	}
}
