{
	 "smiles": "NC1=CC(=CC(=C1)C(O)=O)[N+]([O-])=O", 
	 "Tm": 489.15, 
	 "num_atms": 19, 
	 "gaussian": { 
		 "optdone": 1, 
		 "sigma_profile": "yes", 
		 "theory": "DFT", 
		 "functional": "B3LYP", 
		 "basiset": "6-31G**", 
		 "properties": { 
			 "R2extent": 3307.2427, 
			 "electric_dipole_moment_norm": 6.66543083529, 
			 "electric_quadrupole_moment_norm": 15.5141487801, 
			 "total_energy": -680.679623936, 
			 "HOMO_LUMO_gap": 0.14403, 
			 "cosmo_polarized_energy": -17.84, 
			 "cosmo_cavitation_energy": 25.11, 
			 "cosmo_dispersion_energy": -18.46, 
			 "cosmo_repulsion_energy": 1.47, 
			 "cosmo_total_nonelectrostatic_energy": 8.12, 
			 "SMD_solvation_energy": 7.88 
		},
		"coords": [
			{
				"x": -2.1515248605,
				"y": 2.131098768,
				"z": -0.237862797,
				"element": "N" 
			},
			{
				"x": -1.6385699855,
				"y": 0.8577938475,
				"z": -0.4372121525,
				"element": "C" 
			},
			{
				"x": -1.6170454154,
				"y": -0.078187561,
				"z": 0.6091638919,
				"element": "C" 
			},
			{
				"x": -1.0448688806,
				"y": -1.3276499438,
				"z": 0.392856361,
				"element": "C" 
			},
			{
				"x": -0.4854332073,
				"y": -1.7062769258,
				"z": -0.8201085958,
				"element": "C" 
			},
			{
				"x": -0.5099470934,
				"y": -0.7702064699,
				"z": -1.8595039653,
				"element": "C" 
			},
			{
				"x": -1.0768851765,
				"y": 0.4937812387,
				"z": -1.6749749798,
				"element": "C" 
			},
			{
				"x": 0.0878955163,
				"y": -1.1754534789,
				"z": -3.1640555548,
				"element": "C" 
			},
			{
				"x": 0.0108075616,
				"y": -0.2033189932,
				"z": -4.1064355175,
				"element": "O" 
			},
			{
				"x": 0.5951840743,
				"y": -2.2551997727,
				"z": -3.3848000417,
				"element": "O" 
			},
			{
				"x": -1.0405622135,
				"y": -2.2927222615,
				"z": 1.510503706,
				"element": "N" 
			},
			{
				"x": -0.529278644,
				"y": -3.391997625,
				"z": 1.311537605,
				"element": "O" 
			},
			{
				"x": -1.550327989,
				"y": -1.9366746784,
				"z": 2.5728602159,
				"element": "O" 
			},
			{
				"x": -2.4309875539,
				"y": 2.6366747814,
				"z": -1.0657929294,
				"element": "H" 
			},
			{
				"x": -2.7977445865,
				"y": 2.2398895877,
				"z": 0.5301657761,
				"element": "H" 
			},
			{
				"x": -2.0328217223,
				"y": 0.1504667311,
				"z": 1.5832284011,
				"element": "H" 
			},
			{
				"x": -0.0486104219,
				"y": -2.6851927939,
				"z": -0.9612609004,
				"element": "H" 
			},
			{
				"x": -1.0784341889,
				"y": 1.2010769125,
				"z": -2.4973405727,
				"element": "H" 
			},
			{
				"x": 0.4270547869,
				"y": -0.572601363,
				"z": -4.90276795,
				"element": "H" 
			}
		],
		 "valence_orbital": [ 
			{
				"type": "occ",
				"energy": -0.30778,
				"method": "rhf"
			},
			{
				"type": "occ",
				"energy": -0.29149,
				"method": "rhf"
			},
			{
				"type": "occ",
				"energy": -0.28874,
				"method": "rhf"
			},
			{
				"type": "occ",
				"energy": -0.2861,
				"method": "rhf"
			},
			{
				"type": "occ",
				"energy": -0.23425,
				"method": "rhf"
			},
			{
				"type": "unocc",
				"energy": -0.09022,
				"method": "rhf"
			},
			{
				"type": "unocc",
				"energy": -0.05816,
				"method": "rhf"
			},
			{
				"type": "unocc",
				"energy": 0.00331,
				"method": "rhf"
			},
			{
				"type": "unocc",
				"energy": 0.05012,
				"method": "rhf"
			},
			{
				"type": "unocc",
				"energy": 0.06174,
				"method": "rhf"
			}
		],
		"cosmo_sigma_profile": { 
			"-0.025": 0.0,
			"-0.024": 0.0,
			"-0.023": 0.0,
			"-0.022": 0.0,
			"-0.021": 0.0,
			"-0.02": 0.0,
			"-0.019": 0.213404332531,
			"-0.018": 0.838627962616,
			"-0.017": 0.821728088063,
			"-0.016": 0.887747857398,
			"-0.015": 1.1149399765,
			"-0.014": 1.64877734791,
			"-0.013": 3.35567780889,
			"-0.012": 3.87895856423,
			"-0.011": 4.89067312287,
			"-0.01": 5.02159995473,
			"-0.009": 3.11742907303,
			"-0.008": 3.47942042294,
			"-0.007": 4.57373828625,
			"-0.006": 5.05182992971,
			"-0.005": 5.17257538784,
			"-0.004": 6.42030367534,
			"-0.003": 10.1322047682,
			"-0.002": 11.6443695913,
			"-0.001": 13.8491352323,
			"0.0": 18.3401937634,
			"0.001": 19.6127546784,
			"0.002": 9.51428168493,
			"0.003": 5.99290613508,
			"0.004": 5.79107220326,
			"0.005": 7.37479402557,
			"0.006": 7.73647584209,
			"0.007": 11.9253666606,
			"0.008": 9.09290248868,
			"0.009": 6.26977536185,
			"0.01": 5.15392257981,
			"0.011": 5.43492481128,
			"0.012": 2.21799011276,
			"0.013": 0.0943458996123,
			"0.014": 0.0,
			"0.015": 0.0,
			"0.016": 0.0,
			"0.017": 0.0,
			"0.018": 0.0,
			"0.019": 0.0,
			"0.02": 0.0,
			"0.021": 0.0,
			"0.022": 0.0,
			"0.023": 0.0,
			"0.024": 0.0,
			"0.025": 0.0
		}
	}
}
