{
	 "smiles": "COC1=CC2=C(C=CC(C)(C)O2)C=C1OC", 
	 "Tm": 319.15, 
	 "num_atms": 32, 
	 "gaussian": { 
		 "optdone": 1, 
		 "sigma_profile": "yes", 
		 "theory": "DFT", 
		 "functional": "B3LYP", 
		 "basiset": "6-31G**", 
		 "properties": { 
			 "R2extent": 4541.791, 
			 "electric_dipole_moment_norm": 1.08421378427, 
			 "electric_quadrupole_moment_norm": 10.4012715891, 
			 "total_energy": -730.657145972, 
			 "HOMO_LUMO_gap": 0.16904, 
			 "cosmo_polarized_energy": -7.82, 
			 "cosmo_cavitation_energy": 34.23, 
			 "cosmo_dispersion_energy": -24.25, 
			 "cosmo_repulsion_energy": 1.9, 
			 "cosmo_total_nonelectrostatic_energy": 11.88, 
			 "SMD_solvation_energy": 7.42 
		},
		"coords": [
			{
				"x": 3.3796177765,
				"y": -1.7870708774,
				"z": 0.6908454316,
				"element": "C" 
			},
			{
				"x": 2.8718442681,
				"y": -1.3008583836,
				"z": -0.5577165358,
				"element": "O" 
			},
			{
				"x": 1.7711374058,
				"y": -0.4806211866,
				"z": -0.4559111807,
				"element": "C" 
			},
			{
				"x": 0.5548933885,
				"y": -0.9325685705,
				"z": -0.9709907844,
				"element": "C" 
			},
			{
				"x": -0.5734283619,
				"y": -0.1147063923,
				"z": -0.920712732,
				"element": "C" 
			},
			{
				"x": -0.5065514391,
				"y": 1.1635308685,
				"z": -0.3317648172,
				"element": "C" 
			},
			{
				"x": -1.7433128744,
				"y": 1.9310253282,
				"z": -0.2490555702,
				"element": "C" 
			},
			{
				"x": -2.8395086139,
				"y": 1.5163187905,
				"z": -0.8980916253,
				"element": "C" 
			},
			{
				"x": -2.8117205973,
				"y": 0.2902083789,
				"z": -1.7876457569,
				"element": "C" 
			},
			{
				"x": -4.0972814569,
				"y": -0.529333526,
				"z": -1.6493188717,
				"element": "C" 
			},
			{
				"x": -2.562346268,
				"y": 0.6910122494,
				"z": -3.2520840355,
				"element": "C" 
			},
			{
				"x": -1.7521240304,
				"y": -0.6251452395,
				"z": -1.3823538213,
				"element": "O" 
			},
			{
				"x": 0.7246823404,
				"y": 1.6072518274,
				"z": 0.1676422739,
				"element": "C" 
			},
			{
				"x": 1.8639321794,
				"y": 0.8089732234,
				"z": 0.104156502,
				"element": "C" 
			},
			{
				"x": 3.0511425035,
				"y": 1.2806909488,
				"z": 0.629642658,
				"element": "O" 
			},
			{
				"x": 4.0410780256,
				"y": 1.607818788,
				"z": -0.3507534712,
				"element": "C" 
			},
			{
				"x": 3.686883448,
				"y": -0.9646992267,
				"z": 1.343699914,
				"element": "H" 
			},
			{
				"x": 4.2431302647,
				"y": -2.4094961684,
				"z": 0.4469427937,
				"element": "H" 
			},
			{
				"x": 2.6261221819,
				"y": -2.3989240391,
				"z": 1.202672172,
				"element": "H" 
			},
			{
				"x": 0.4920038415,
				"y": -1.9233238174,
				"z": -1.4067111649,
				"element": "H" 
			},
			{
				"x": -1.7563810972,
				"y": 2.8314940623,
				"z": 0.3600734806,
				"element": "H" 
			},
			{
				"x": -3.7747063192,
				"y": 2.0671618471,
				"z": -0.8445699107,
				"element": "H" 
			},
			{
				"x": -4.9605007059,
				"y": 0.0556105587,
				"z": -1.9817975572,
				"element": "H" 
			},
			{
				"x": -4.0345208042,
				"y": -1.4344180652,
				"z": -2.2600554599,
				"element": "H" 
			},
			{
				"x": -4.2524878581,
				"y": -0.8220765097,
				"z": -0.6075887427,
				"element": "H" 
			},
			{
				"x": -1.6058877253,
				"y": 1.2128654357,
				"z": -3.3460599201,
				"element": "H" 
			},
			{
				"x": -3.3522251252,
				"y": 1.3605981352,
				"z": -3.6080807552,
				"element": "H" 
			},
			{
				"x": -2.5424735793,
				"y": -0.1981047338,
				"z": -3.890476642,
				"element": "H" 
			},
			{
				"x": 0.8092709425,
				"y": 2.590614446,
				"z": 0.6215490299,
				"element": "H" 
			},
			{
				"x": 4.9146772794,
				"y": 1.9640230826,
				"z": 0.1998987954,
				"element": "H" 
			},
			{
				"x": 4.3143610283,
				"y": 0.7322828115,
				"z": -0.9488831495,
				"element": "H" 
			},
			{
				"x": 3.6833799823,
				"y": 2.4045659537,
				"z": -1.0157005465,
				"element": "H" 
			}
		],
		 "valence_orbital": [ 
			{
				"type": "occ",
				"energy": -0.29562,
				"method": "rhf"
			},
			{
				"type": "occ",
				"energy": -0.26793,
				"method": "rhf"
			},
			{
				"type": "occ",
				"energy": -0.2581,
				"method": "rhf"
			},
			{
				"type": "occ",
				"energy": -0.22797,
				"method": "rhf"
			},
			{
				"type": "occ",
				"energy": -0.19457,
				"method": "rhf"
			},
			{
				"type": "unocc",
				"energy": -0.02553,
				"method": "rhf"
			},
			{
				"type": "unocc",
				"energy": 0.01243,
				"method": "rhf"
			},
			{
				"type": "unocc",
				"energy": 0.05853,
				"method": "rhf"
			},
			{
				"type": "unocc",
				"energy": 0.08989,
				"method": "rhf"
			},
			{
				"type": "unocc",
				"energy": 0.09225,
				"method": "rhf"
			}
		],
		"cosmo_sigma_profile": { 
			"-0.025": 0.0,
			"-0.024": 0.0,
			"-0.023": 0.0,
			"-0.022": 0.0,
			"-0.021": 0.0,
			"-0.02": 0.0,
			"-0.019": 0.0,
			"-0.018": 0.0,
			"-0.017": 0.0,
			"-0.016": 0.0,
			"-0.015": 0.0,
			"-0.014": 0.0,
			"-0.013": 0.0,
			"-0.012": 0.0,
			"-0.011": 0.0,
			"-0.01": 0.0,
			"-0.009": 0.0,
			"-0.008": 0.0,
			"-0.007": 0.375355448969,
			"-0.006": 8.14211132442,
			"-0.005": 15.5733020626,
			"-0.004": 25.3495266198,
			"-0.003": 32.3004592792,
			"-0.002": 31.3736910736,
			"-0.001": 25.8373805457,
			"0.0": 28.3944339283,
			"0.001": 18.8718750912,
			"0.002": 12.8491841772,
			"0.003": 18.7801468638,
			"0.004": 21.2662922084,
			"0.005": 8.18857575785,
			"0.006": 5.55546561122,
			"0.007": 3.6718020623,
			"0.008": 3.11906824157,
			"0.009": 2.25478809945,
			"0.01": 3.657971962,
			"0.011": 2.44027567037,
			"0.012": 1.63630423277,
			"0.013": 0.124754495306,
			"0.014": 0.0,
			"0.015": 0.0,
			"0.016": 0.0,
			"0.017": 0.0,
			"0.018": 0.0,
			"0.019": 0.0,
			"0.02": 0.0,
			"0.021": 0.0,
			"0.022": 0.0,
			"0.023": 0.0,
			"0.024": 0.0,
			"0.025": 0.0
		}
	}
}
