{
	 "smiles": "OC(=O)C1=C(NC(=O)C2=CC=C(OC3=CC=CC=C3)C=C2)C=CC=C1", 
	 "Tm": 463.15, 
	 "num_atms": 40, 
	 "gaussian": { 
		 "optdone": 1, 
		 "sigma_profile": "yes", 
		 "theory": "DFT", 
		 "functional": "B3LYP", 
		 "basiset": "6-31G**", 
		 "properties": { 
			 "R2extent": 12187.8902, 
			 "electric_dipole_moment_norm": 3.650797039, 
			 "electric_quadrupole_moment_norm": 11.1381011775, 
			 "total_energy": -1126.83860392, 
			 "HOMO_LUMO_gap": 0.16858, 
			 "cosmo_polarized_energy": -17.41, 
			 "cosmo_cavitation_energy": 45.51, 
			 "cosmo_dispersion_energy": -31.57, 
			 "cosmo_repulsion_energy": 2.4, 
			 "cosmo_total_nonelectrostatic_energy": 16.34, 
			 "SMD_solvation_energy": 9.53 
		},
		"coords": [
			{
				"x": -0.0263480957,
				"y": 0.5821705333,
				"z": 5.9053185413,
				"element": "O" 
			},
			{
				"x": -1.1238331116,
				"y": 1.3326649029,
				"z": 5.6020739312,
				"element": "C" 
			},
			{
				"x": -2.000812743,
				"y": 1.5047314191,
				"z": 6.4251978251,
				"element": "O" 
			},
			{
				"x": -1.1199081785,
				"y": 1.921042194,
				"z": 4.2362056541,
				"element": "C" 
			},
			{
				"x": -0.2314304527,
				"y": 1.5810646935,
				"z": 3.1782389561,
				"element": "C" 
			},
			{
				"x": 0.7536418147,
				"y": 0.6001052523,
				"z": 3.3441319005,
				"element": "N" 
			},
			{
				"x": 1.5029656309,
				"y": -0.1310406359,
				"z": 2.4215481022,
				"element": "C" 
			},
			{
				"x": 2.6048828363,
				"y": -0.5477462548,
				"z": 2.7587318778,
				"element": "O" 
			},
			{
				"x": 0.9201211927,
				"y": -0.4838218411,
				"z": 1.092302462,
				"element": "C" 
			},
			{
				"x": 1.8091911949,
				"y": -0.7176910814,
				"z": 0.0309952972,
				"element": "C" 
			},
			{
				"x": 1.3429810896,
				"y": -1.1288569173,
				"z": -1.2099236944,
				"element": "C" 
			},
			{
				"x": -0.0279180264,
				"y": -1.3470875793,
				"z": -1.3982601252,
				"element": "C" 
			},
			{
				"x": -0.3959493255,
				"y": -1.8060080791,
				"z": -2.6385400981,
				"element": "O" 
			},
			{
				"x": -1.7121869685,
				"y": -1.719667057,
				"z": -3.0681148296,
				"element": "C" 
			},
			{
				"x": -2.3638950492,
				"y": -0.4877235031,
				"z": -3.1674211463,
				"element": "C" 
			},
			{
				"x": -3.6585509141,
				"y": -0.443741467,
				"z": -3.6851859212,
				"element": "C" 
			},
			{
				"x": -4.2924732247,
				"y": -1.614593955,
				"z": -4.1087950596,
				"element": "C" 
			},
			{
				"x": -3.6250039543,
				"y": -2.8370703195,
				"z": -4.0125145142,
				"element": "C" 
			},
			{
				"x": -2.3326069265,
				"y": -2.8956429962,
				"z": -3.4883143644,
				"element": "C" 
			},
			{
				"x": -0.9261612907,
				"y": -1.1556555472,
				"z": -0.3417597762,
				"element": "C" 
			},
			{
				"x": -0.4471731038,
				"y": -0.7196929888,
				"z": 0.8912334213,
				"element": "C" 
			},
			{
				"x": -0.3427567394,
				"y": 2.2879577406,
				"z": 1.9651627308,
				"element": "C" 
			},
			{
				"x": -1.3224464296,
				"y": 3.2547961903,
				"z": 1.7816320353,
				"element": "C" 
			},
			{
				"x": -2.2183340143,
				"y": 3.5677583385,
				"z": 2.8087510564,
				"element": "C" 
			},
			{
				"x": -2.1015822145,
				"y": 2.9056488233,
				"z": 4.0209888274,
				"element": "C" 
			},
			{
				"x": -0.1576674539,
				"y": 0.2770608882,
				"z": 6.8185245842,
				"element": "H" 
			},
			{
				"x": 1.1032113179,
				"y": 0.4826603607,
				"z": 4.2875226277,
				"element": "H" 
			},
			{
				"x": 2.8708395542,
				"y": -0.5737905952,
				"z": 0.2011320677,
				"element": "H" 
			},
			{
				"x": 2.0184268589,
				"y": -1.299458693,
				"z": -2.0414538255,
				"element": "H" 
			},
			{
				"x": -1.8577412779,
				"y": 0.4172301347,
				"z": -2.8476811039,
				"element": "H" 
			},
			{
				"x": -4.1691581172,
				"y": 0.511529096,
				"z": -3.765372322,
				"element": "H" 
			},
			{
				"x": -5.2985460198,
				"y": -1.5728895832,
				"z": -4.5146676161,
				"element": "H" 
			},
			{
				"x": -4.110104239,
				"y": -3.7508855669,
				"z": -4.3427692756,
				"element": "H" 
			},
			{
				"x": -1.7945054597,
				"y": -3.834060721,
				"z": -3.4052642416,
				"element": "H" 
			},
			{
				"x": -1.9824554613,
				"y": -1.3546253277,
				"z": -0.4796830415,
				"element": "H" 
			},
			{
				"x": -1.1471599737,
				"y": -0.5849570665,
				"z": 1.7088431697,
				"element": "H" 
			},
			{
				"x": 0.3582315068,
				"y": 2.0764225219,
				"z": 1.1678700133,
				"element": "H" 
			},
			{
				"x": -1.3736561166,
				"y": 3.780440425,
				"z": 0.8322951955,
				"element": "H" 
			},
			{
				"x": -2.9815823298,
				"y": 4.3259012278,
				"z": 2.6677076913,
				"element": "H" 
			},
			{
				"x": -2.7667457851,
				"y": 3.129523034,
				"z": 4.8475129874,
				"element": "H" 
			}
		],
		 "valence_orbital": [ 
			{
				"type": "occ",
				"energy": -0.26208,
				"method": "rhf"
			},
			{
				"type": "occ",
				"energy": -0.25959,
				"method": "rhf"
			},
			{
				"type": "occ",
				"energy": -0.25368,
				"method": "rhf"
			},
			{
				"type": "occ",
				"energy": -0.23091,
				"method": "rhf"
			},
			{
				"type": "occ",
				"energy": -0.22525,
				"method": "rhf"
			},
			{
				"type": "unocc",
				"energy": -0.05667,
				"method": "rhf"
			},
			{
				"type": "unocc",
				"energy": -0.04022,
				"method": "rhf"
			},
			{
				"type": "unocc",
				"energy": -0.01892,
				"method": "rhf"
			},
			{
				"type": "unocc",
				"energy": -0.01076,
				"method": "rhf"
			},
			{
				"type": "unocc",
				"energy": -0.0061,
				"method": "rhf"
			}
		],
		"cosmo_sigma_profile": { 
			"-0.025": 0.0,
			"-0.024": 0.0,
			"-0.023": 0.0,
			"-0.022": 0.0,
			"-0.021": 0.0,
			"-0.02": 0.0,
			"-0.019": 0.226163888325,
			"-0.018": 0.990805242227,
			"-0.017": 0.892918475329,
			"-0.016": 0.57321493049,
			"-0.015": 0.751346711072,
			"-0.014": 0.469067863815,
			"-0.013": 1.17326718991,
			"-0.012": 1.0888550097,
			"-0.011": 0.641138601399,
			"-0.01": 0.259259230738,
			"-0.009": 0.416169427335,
			"-0.008": 0.742616150712,
			"-0.007": 7.87251618952,
			"-0.006": 24.083470435,
			"-0.005": 28.4035280921,
			"-0.004": 27.1194375786,
			"-0.003": 25.02802405,
			"-0.002": 26.7068028113,
			"-0.001": 26.3005917505,
			"0.0": 24.9341640242,
			"0.001": 28.0856139595,
			"0.002": 31.3676570355,
			"0.003": 34.8314809935,
			"0.004": 23.5659680467,
			"0.005": 11.4935589132,
			"0.006": 4.28870307833,
			"0.007": 4.43281869583,
			"0.008": 3.68577717664,
			"0.009": 3.94156073365,
			"0.01": 3.66003525076,
			"0.011": 6.33569690632,
			"0.012": 6.18163161582,
			"0.013": 4.60887405994,
			"0.014": 0.451196372104,
			"0.015": 0.0,
			"0.016": 0.0,
			"0.017": 0.0,
			"0.018": 0.0,
			"0.019": 0.0,
			"0.02": 0.0,
			"0.021": 0.0,
			"0.022": 0.0,
			"0.023": 0.0,
			"0.024": 0.0,
			"0.025": 0.0
		}
	}
}
