{
	 "smiles": "FC1=CN=C(C=C1)C(=O)C1=CC=CC=C1", 
	 "Tm": 316.15, 
	 "num_atms": 23, 
	 "gaussian": { 
		 "optdone": 1, 
		 "sigma_profile": "yes", 
		 "theory": "DFT", 
		 "functional": "B3LYP", 
		 "basiset": "6-31G**", 
		 "properties": { 
			 "R2extent": 5224.9816, 
			 "electric_dipole_moment_norm": 1.47608533967, 
			 "electric_quadrupole_moment_norm": 10.8600393305, 
			 "total_energy": -691.900092493, 
			 "HOMO_LUMO_gap": 0.17188, 
			 "cosmo_polarized_energy": -8.26, 
			 "cosmo_cavitation_energy": 28.47, 
			 "cosmo_dispersion_energy": -20.82, 
			 "cosmo_repulsion_energy": 1.57, 
			 "cosmo_total_nonelectrostatic_energy": 9.23, 
			 "SMD_solvation_energy": 5.28 
		},
		"coords": [
			{
				"x": 2.1741844811,
				"y": 4.5518109594,
				"z": 4.3499926988,
				"element": "F" 
			},
			{
				"x": 1.995884846,
				"y": 3.8140323985,
				"z": 3.2423377403,
				"element": "C" 
			},
			{
				"x": 1.1942404711,
				"y": 2.6756681086,
				"z": 3.3012861304,
				"element": "C" 
			},
			{
				"x": 0.9799215723,
				"y": 1.9083614509,
				"z": 2.2320649618,
				"element": "N" 
			},
			{
				"x": 1.5612943709,
				"y": 2.2465957428,
				"z": 1.0696835565,
				"element": "C" 
			},
			{
				"x": 2.385104822,
				"y": 3.3767646944,
				"z": 0.9423091083,
				"element": "C" 
			},
			{
				"x": 2.6060636628,
				"y": 4.1856355307,
				"z": 2.0507627922,
				"element": "C" 
			},
			{
				"x": 1.3900914987,
				"y": 1.3700169549,
				"z": -0.1514424518,
				"element": "C" 
			},
			{
				"x": 2.1608236353,
				"y": 1.5552495392,
				"z": -1.0894777519,
				"element": "O" 
			},
			{
				"x": 0.3421151834,
				"y": 0.3050317052,
				"z": -0.2468466429,
				"element": "C" 
			},
			{
				"x": -0.8033813057,
				"y": 0.2324460915,
				"z": 0.5640147549,
				"element": "C" 
			},
			{
				"x": -1.750875378,
				"y": -0.7687347924,
				"z": 0.3496267327,
				"element": "C" 
			},
			{
				"x": -1.5659628237,
				"y": -1.71160443,
				"z": -0.6623964239,
				"element": "C" 
			},
			{
				"x": -0.4298889771,
				"y": -1.6468252827,
				"z": -1.4748722792,
				"element": "C" 
			},
			{
				"x": 0.5098884075,
				"y": -0.642003226,
				"z": -1.2740127548,
				"element": "C" 
			},
			{
				"x": 0.7239959242,
				"y": 2.3903939272,
				"z": 4.2394458322,
				"element": "H" 
			},
			{
				"x": 2.8377011698,
				"y": 3.588169143,
				"z": -0.0189162416,
				"element": "H" 
			},
			{
				"x": 3.2293649406,
				"y": 5.0725843887,
				"z": 2.0081684293,
				"element": "H" 
			},
			{
				"x": -0.9448308757,
				"y": 0.9496270003,
				"z": 1.360463638,
				"element": "H" 
			},
			{
				"x": -2.6357394844,
				"y": -0.8122019866,
				"z": 0.9780407625,
				"element": "H" 
			},
			{
				"x": -2.3041201967,
				"y": -2.4932094751,
				"z": -0.8197649493,
				"element": "H" 
			},
			{
				"x": -0.2820876686,
				"y": -2.3769865265,
				"z": -2.265293046,
				"element": "H" 
			},
			{
				"x": 1.389011724,
				"y": -0.5647219163,
				"z": -1.9042745964,
				"element": "H" 
			}
		],
		 "valence_orbital": [ 
			{
				"type": "occ",
				"energy": -0.28414,
				"method": "rhf"
			},
			{
				"type": "occ",
				"energy": -0.26867,
				"method": "rhf"
			},
			{
				"type": "occ",
				"energy": -0.25736,
				"method": "rhf"
			},
			{
				"type": "occ",
				"energy": -0.25255,
				"method": "rhf"
			},
			{
				"type": "occ",
				"energy": -0.24734,
				"method": "rhf"
			},
			{
				"type": "unocc",
				"energy": -0.07546,
				"method": "rhf"
			},
			{
				"type": "unocc",
				"energy": -0.04226,
				"method": "rhf"
			},
			{
				"type": "unocc",
				"energy": -0.0148,
				"method": "rhf"
			},
			{
				"type": "unocc",
				"energy": -0.00167,
				"method": "rhf"
			},
			{
				"type": "unocc",
				"energy": 0.05685,
				"method": "rhf"
			}
		],
		"cosmo_sigma_profile": { 
			"-0.025": 0.0,
			"-0.024": 0.0,
			"-0.023": 0.0,
			"-0.022": 0.0,
			"-0.021": 0.0,
			"-0.02": 0.0,
			"-0.019": 0.0,
			"-0.018": 0.0,
			"-0.017": 0.0,
			"-0.016": 0.0,
			"-0.015": 0.0,
			"-0.014": 0.0,
			"-0.013": 0.0,
			"-0.012": 0.0,
			"-0.011": 0.0,
			"-0.01": 0.000958277737124,
			"-0.009": 1.58582329538,
			"-0.008": 4.07957675482,
			"-0.007": 5.54805244892,
			"-0.006": 11.5680214711,
			"-0.005": 13.249460294,
			"-0.004": 15.4645700626,
			"-0.003": 15.0991403944,
			"-0.002": 22.2561584619,
			"-0.001": 23.1847890623,
			"0.0": 19.2115761472,
			"0.001": 17.6942594609,
			"0.002": 13.9663723938,
			"0.003": 22.3898328353,
			"0.004": 18.8278746448,
			"0.005": 6.28208392813,
			"0.006": 3.04971920594,
			"0.007": 2.96028552556,
			"0.008": 2.54592913233,
			"0.009": 2.65625176365,
			"0.01": 2.94439208613,
			"0.011": 3.98923686825,
			"0.012": 1.81579696788,
			"0.013": 0.0,
			"0.014": 0.0,
			"0.015": 0.0,
			"0.016": 0.0,
			"0.017": 0.0,
			"0.018": 0.0,
			"0.019": 0.0,
			"0.02": 0.0,
			"0.021": 0.0,
			"0.022": 0.0,
			"0.023": 0.0,
			"0.024": 0.0,
			"0.025": 0.0
		}
	}
}
