{
	 "smiles": "CC(C)OC(=O)NC(C(C)C)C(=O)N[C@@H](C)C1=CC=C(C)C=C1", 
	 "Tm": 437.15, 
	 "num_atms": 51, 
	 "gaussian": { 
		 "optdone": 1, 
		 "sigma_profile": "yes", 
		 "theory": "DFT", 
		 "functional": "B3LYP", 
		 "basiset": "6-31G**", 
		 "properties": { 
			 "R2extent": 10045.0607, 
			 "electric_dipole_moment_norm": 2.04920563634, 
			 "electric_quadrupole_moment_norm": 16.2108091849, 
			 "total_energy": -1038.03831183, 
			 "HOMO_LUMO_gap": 0.22704, 
			 "cosmo_polarized_energy": -17.08, 
			 "cosmo_cavitation_energy": 51.93, 
			 "cosmo_dispersion_energy": -33.14, 
			 "cosmo_repulsion_energy": 2.56, 
			 "cosmo_total_nonelectrostatic_energy": 21.35, 
			 "SMD_solvation_energy": 9.64 
		},
		"coords": [
			{
				"x": -2.6026800841,
				"y": -1.4088664277,
				"z": 1.9992627327,
				"element": "C" 
			},
			{
				"x": -1.2228654312,
				"y": -1.9997638104,
				"z": 2.2770719485,
				"element": "C" 
			},
			{
				"x": -1.0340699774,
				"y": -2.4974345306,
				"z": 3.7078130396,
				"element": "C" 
			},
			{
				"x": -0.1544757998,
				"y": -1.0816401729,
				"z": 1.8838195993,
				"element": "O" 
			},
			{
				"x": -0.0235416497,
				"y": 0.1034638772,
				"z": 2.5149900144,
				"element": "C" 
			},
			{
				"x": -0.7282521769,
				"y": 0.5232442773,
				"z": 3.4175451402,
				"element": "O" 
			},
			{
				"x": 1.0184571839,
				"y": 0.833925466,
				"z": 1.9782086747,
				"element": "N" 
			},
			{
				"x": 2.1054553958,
				"y": 0.2911954171,
				"z": 1.1493165105,
				"element": "C" 
			},
			{
				"x": 2.9816359025,
				"y": -0.8024345214,
				"z": 1.818321352,
				"element": "C" 
			},
			{
				"x": 3.2206949967,
				"y": -0.5045814225,
				"z": 3.3065761826,
				"element": "C" 
			},
			{
				"x": 4.328506723,
				"y": -0.9343697355,
				"z": 1.0875613004,
				"element": "C" 
			},
			{
				"x": 1.5643162105,
				"y": -0.1362725229,
				"z": -0.2423888408,
				"element": "C" 
			},
			{
				"x": 2.0094173024,
				"y": -1.0991315032,
				"z": -0.859516256,
				"element": "O" 
			},
			{
				"x": 0.6203942012,
				"y": 0.6951328512,
				"z": -0.7566833599,
				"element": "N" 
			},
			{
				"x": 0.0412873258,
				"y": 0.4866776228,
				"z": -2.0899345429,
				"element": "C" 
			},
			{
				"x": -1.0338362352,
				"y": -0.6131644925,
				"z": -2.0727146963,
				"element": "C" 
			},
			{
				"x": -0.4619221531,
				"y": 1.8121646193,
				"z": -2.6385204412,
				"element": "C" 
			},
			{
				"x": -1.5605384635,
				"y": 2.4697317789,
				"z": -2.0667603193,
				"element": "C" 
			},
			{
				"x": -2.0025481043,
				"y": 3.6939120692,
				"z": -2.5661258704,
				"element": "C" 
			},
			{
				"x": -1.3715050633,
				"y": 4.3007631302,
				"z": -3.6606213331,
				"element": "C" 
			},
			{
				"x": -1.8759320207,
				"y": 5.6089561498,
				"z": -4.2230129163,
				"element": "C" 
			},
			{
				"x": -0.2750042026,
				"y": 3.6420019102,
				"z": -4.2299670242,
				"element": "C" 
			},
			{
				"x": 0.1733484149,
				"y": 2.4206889294,
				"z": -3.7262453039,
				"element": "C" 
			},
			{
				"x": -3.3637987981,
				"y": -2.1833037371,
				"z": 2.1409378939,
				"element": "H" 
			},
			{
				"x": -2.6662759686,
				"y": -1.0587771517,
				"z": 0.9645435285,
				"element": "H" 
			},
			{
				"x": -2.815631052,
				"y": -0.5764425186,
				"z": 2.671383708,
				"element": "H" 
			},
			{
				"x": -1.0478767369,
				"y": -2.8304564348,
				"z": 1.5867606881,
				"element": "H" 
			},
			{
				"x": -0.023084123,
				"y": -2.892799963,
				"z": 3.8453153464,
				"element": "H" 
			},
			{
				"x": -1.2036829696,
				"y": -1.6954833129,
				"z": 4.4277183213,
				"element": "H" 
			},
			{
				"x": -1.7434931941,
				"y": -3.3076376498,
				"z": 3.9063898968,
				"element": "H" 
			},
			{
				"x": 1.2398260472,
				"y": 1.6290582088,
				"z": 2.5606045947,
				"element": "H" 
			},
			{
				"x": 2.7548119235,
				"y": 1.1563735685,
				"z": 0.9546983793,
				"element": "H" 
			},
			{
				"x": 2.4461103706,
				"y": -1.7531825926,
				"z": 1.7276754473,
				"element": "H" 
			},
			{
				"x": 3.7209070507,
				"y": 0.463051748,
				"z": 3.4444787423,
				"element": "H" 
			},
			{
				"x": 2.2971081857,
				"y": -0.4905262439,
				"z": 3.891898189,
				"element": "H" 
			},
			{
				"x": 3.873052198,
				"y": -1.2698917991,
				"z": 3.7392424289,
				"element": "H" 
			},
			{
				"x": 4.9314456729,
				"y": -1.7267497033,
				"z": 1.5438110891,
				"element": "H" 
			},
			{
				"x": 4.1810836018,
				"y": -1.1755072945,
				"z": 0.0347912079,
				"element": "H" 
			},
			{
				"x": 4.9044046095,
				"y": -0.0020682498,
				"z": 1.1609154069,
				"element": "H" 
			},
			{
				"x": 0.2368800638,
				"y": 1.412148419,
				"z": -0.1577686043,
				"element": "H" 
			},
			{
				"x": 0.8647488716,
				"y": 0.1341537049,
				"z": -2.7187790646,
				"element": "H" 
			},
			{
				"x": -1.4125792166,
				"y": -0.7918944348,
				"z": -3.0841113575,
				"element": "H" 
			},
			{
				"x": -0.5987781789,
				"y": -1.5398754987,
				"z": -1.6910730195,
				"element": "H" 
			},
			{
				"x": -1.8803441731,
				"y": -0.334587941,
				"z": -1.4369047437,
				"element": "H" 
			},
			{
				"x": -2.0817269649,
				"y": 2.0253744929,
				"z": -1.2219415725,
				"element": "H" 
			},
			{
				"x": -2.8538468421,
				"y": 4.1850008432,
				"z": -2.1005388542,
				"element": "H" 
			},
			{
				"x": -2.6634924312,
				"y": 5.4427681571,
				"z": -4.9688580198,
				"element": "H" 
			},
			{
				"x": -1.0751250501,
				"y": 6.1682954429,
				"z": -4.715816789,
				"element": "H" 
			},
			{
				"x": -2.3011608364,
				"y": 6.2445064262,
				"z": -3.440138512,
				"element": "H" 
			},
			{
				"x": 0.2384059424,
				"y": 4.0918549092,
				"z": -5.0764638023,
				"element": "H" 
			},
			{
				"x": 1.032169703,
				"y": 1.934699646,
				"z": -4.1825661194,
				"element": "H" 
			}
		],
		 "valence_orbital": [ 
			{
				"type": "occ",
				"energy": -0.26626,
				"method": "rhf"
			},
			{
				"type": "occ",
				"energy": -0.25262,
				"method": "rhf"
			},
			{
				"type": "occ",
				"energy": -0.24551,
				"method": "rhf"
			},
			{
				"type": "occ",
				"energy": -0.24224,
				"method": "rhf"
			},
			{
				"type": "occ",
				"energy": -0.23408,
				"method": "rhf"
			},
			{
				"type": "unocc",
				"energy": -0.00704,
				"method": "rhf"
			},
			{
				"type": "unocc",
				"energy": -0.0041,
				"method": "rhf"
			},
			{
				"type": "unocc",
				"energy": 0.02639,
				"method": "rhf"
			},
			{
				"type": "unocc",
				"energy": 0.04344,
				"method": "rhf"
			},
			{
				"type": "unocc",
				"energy": 0.06952,
				"method": "rhf"
			}
		],
		"cosmo_sigma_profile": { 
			"-0.025": 0.0,
			"-0.024": 0.0,
			"-0.023": 0.0,
			"-0.022": 0.0,
			"-0.021": 0.0,
			"-0.02": 0.0,
			"-0.019": 0.0,
			"-0.018": 0.0,
			"-0.017": 0.0,
			"-0.016": 0.0,
			"-0.015": 0.0,
			"-0.014": 0.527237073383,
			"-0.013": 1.2176548346,
			"-0.012": 0.54752666201,
			"-0.011": 1.12623246376,
			"-0.01": 1.30004722167,
			"-0.009": 3.01238575147,
			"-0.008": 2.93471845084,
			"-0.007": 4.83028870055,
			"-0.006": 8.18559970036,
			"-0.005": 17.1915960104,
			"-0.004": 32.6271141597,
			"-0.003": 40.3677361729,
			"-0.002": 45.1674848873,
			"-0.001": 45.8307234091,
			"0.0": 51.0118210072,
			"0.001": 41.7248930494,
			"0.002": 22.9371459349,
			"0.003": 14.3280716064,
			"0.004": 13.1006144982,
			"0.005": 14.1427277229,
			"0.006": 11.224700687,
			"0.007": 4.71451788953,
			"0.008": 3.49292527889,
			"0.009": 2.5691648415,
			"0.01": 2.97955102983,
			"0.011": 3.46327439669,
			"0.012": 4.00790182533,
			"0.013": 5.74212365894,
			"0.014": 4.46414856201,
			"0.015": 0.0929982170961,
			"0.016": 0.0,
			"0.017": 0.0,
			"0.018": 0.0,
			"0.019": 0.0,
			"0.02": 0.0,
			"0.021": 0.0,
			"0.022": 0.0,
			"0.023": 0.0,
			"0.024": 0.0,
			"0.025": 0.0
		}
	}
}
