{
	 "smiles": "ClC1=CC=CC(O[Si]23OCCN(CCO2)CCO3)=C1", 
	 "Tm": 518.15, 
	 "num_atms": 35, 
	 "gaussian": { 
		 "optdone": 1, 
		 "sigma_profile": "yes", 
		 "theory": "DFT", 
		 "functional": "B3LYP", 
		 "basiset": "6-31G**", 
		 "properties": { 
			 "R2extent": 7396.5993, 
			 "electric_dipole_moment_norm": 7.66235990606, 
			 "electric_quadrupole_moment_norm": 20.027058257, 
			 "total_energy": -1572.3999135, 
			 "HOMO_LUMO_gap": 0.2227, 
			 "cosmo_polarized_energy": -17.93, 
			 "cosmo_cavitation_energy": 38.18, 
			 "cosmo_dispersion_energy": -26.72, 
			 "cosmo_repulsion_energy": 2.12, 
			 "cosmo_total_nonelectrostatic_energy": 13.58, 
			 "SMD_solvation_energy": 5.99 
		},
		"coords": [
			{
				"x": 4.1560346783,
				"y": 0.1281159326,
				"z": -2.4428712699,
				"element": "Cl" 
			},
			{
				"x": 2.4714056848,
				"y": -0.3313050037,
				"z": -2.706996209,
				"element": "C" 
			},
			{
				"x": 2.0811500671,
				"y": -0.7754313251,
				"z": -3.9688089471,
				"element": "C" 
			},
			{
				"x": 0.7430783817,
				"y": -1.1298130974,
				"z": -4.1562061344,
				"element": "C" 
			},
			{
				"x": -0.1752550017,
				"y": -1.0472148337,
				"z": -3.1121077209,
				"element": "C" 
			},
			{
				"x": 0.2414791137,
				"y": -0.6022669915,
				"z": -1.8512789166,
				"element": "C" 
			},
			{
				"x": -0.6929715789,
				"y": -0.4797807504,
				"z": -0.8671443137,
				"element": "O" 
			},
			{
				"x": -0.7252383233,
				"y": -1.180997233,
				"z": 0.6471013595,
				"element": "Si" 
			},
			{
				"x": -0.7109153734,
				"y": -2.8122905849,
				"z": 0.2912349191,
				"element": "O" 
			},
			{
				"x": -0.3585193418,
				"y": -3.8232516056,
				"z": 1.212334965,
				"element": "C" 
			},
			{
				"x": -0.9948753629,
				"y": -3.5438154014,
				"z": 2.5860219275,
				"element": "C" 
			},
			{
				"x": -0.8979669608,
				"y": -2.1123461899,
				"z": 2.8913043474,
				"element": "N" 
			},
			{
				"x": 0.352000594,
				"y": -1.6499262265,
				"z": 3.502875203,
				"element": "C" 
			},
			{
				"x": 1.3507738259,
				"y": -1.2568935859,
				"z": 2.3966035713,
				"element": "C" 
			},
			{
				"x": 0.6799941769,
				"y": -0.5984422693,
				"z": 1.340502884,
				"element": "O" 
			},
			{
				"x": -2.1451079418,
				"y": -1.4787348669,
				"z": 3.3412992512,
				"element": "C" 
			},
			{
				"x": -2.9893982771,
				"y": -1.1621597938,
				"z": 2.1015533363,
				"element": "C" 
			},
			{
				"x": -2.184410694,
				"y": -0.54159593,
				"z": 1.1231614285,
				"element": "O" 
			},
			{
				"x": 1.5774455303,
				"y": -0.231477236,
				"z": -1.6441085807,
				"element": "C" 
			},
			{
				"x": 2.8008780995,
				"y": -0.8388717014,
				"z": -4.776575648,
				"element": "H" 
			},
			{
				"x": 0.4159132796,
				"y": -1.4761802802,
				"z": -5.1324356817,
				"element": "H" 
			},
			{
				"x": -1.2159117274,
				"y": -1.3195548554,
				"z": -3.2500455768,
				"element": "H" 
			},
			{
				"x": -0.715321074,
				"y": -4.7846105517,
				"z": 0.8259526464,
				"element": "H" 
			},
			{
				"x": 0.7341778286,
				"y": -3.8959493679,
				"z": 1.2983673051,
				"element": "H" 
			},
			{
				"x": -0.5306152029,
				"y": -4.1637055549,
				"z": 3.3669850969,
				"element": "H" 
			},
			{
				"x": -2.0554666178,
				"y": -3.8074321669,
				"z": 2.5422698093,
				"element": "H" 
			},
			{
				"x": 0.7891335735,
				"y": -2.4053892757,
				"z": 4.1713863681,
				"element": "H" 
			},
			{
				"x": 0.1287316441,
				"y": -0.7661100097,
				"z": 4.1052218515,
				"element": "H" 
			},
			{
				"x": 1.8831740748,
				"y": -2.1393197401,
				"z": 2.0167705632,
				"element": "H" 
			},
			{
				"x": 2.1061127179,
				"y": -0.5758259264,
				"z": 2.8036490748,
				"element": "H" 
			},
			{
				"x": -1.8883937991,
				"y": -0.5403420151,
				"z": 3.8385707076,
				"element": "H" 
			},
			{
				"x": -2.702032869,
				"y": -2.1001825264,
				"z": 4.0575625412,
				"element": "H" 
			},
			{
				"x": -3.4424897665,
				"y": -2.079718383,
				"z": 1.6970209485,
				"element": "H" 
			},
			{
				"x": -3.8067842201,
				"y": -0.4816064118,
				"z": 2.3635502872,
				"element": "H" 
			},
			{
				"x": 1.8925908618,
				"y": 0.124025759,
				"z": -0.6719213938,
				"element": "H" 
			}
		],
		 "valence_orbital": [ 
			{
				"type": "occ",
				"energy": -0.28422,
				"method": "rhf"
			},
			{
				"type": "occ",
				"energy": -0.2713,
				"method": "rhf"
			},
			{
				"type": "occ",
				"energy": -0.26444,
				"method": "rhf"
			},
			{
				"type": "occ",
				"energy": -0.23292,
				"method": "rhf"
			},
			{
				"type": "occ",
				"energy": -0.21597,
				"method": "rhf"
			},
			{
				"type": "unocc",
				"energy": 0.00673,
				"method": "rhf"
			},
			{
				"type": "unocc",
				"energy": 0.01653,
				"method": "rhf"
			},
			{
				"type": "unocc",
				"energy": 0.04462,
				"method": "rhf"
			},
			{
				"type": "unocc",
				"energy": 0.05449,
				"method": "rhf"
			},
			{
				"type": "unocc",
				"energy": 0.07371,
				"method": "rhf"
			}
		],
		"cosmo_sigma_profile": { 
			"-0.025": 0.0,
			"-0.024": 0.0,
			"-0.023": 0.0,
			"-0.022": 0.0,
			"-0.021": 0.0,
			"-0.02": 0.0,
			"-0.019": 0.0,
			"-0.018": 0.0,
			"-0.017": 0.0,
			"-0.016": 0.0,
			"-0.015": 0.0,
			"-0.014": 0.0,
			"-0.013": 0.0,
			"-0.012": 0.0,
			"-0.011": 0.0,
			"-0.01": 0.0,
			"-0.009": 0.0,
			"-0.008": 0.00192566617641,
			"-0.007": 4.39545437305,
			"-0.006": 18.3629419593,
			"-0.005": 40.846248142,
			"-0.004": 36.2699204427,
			"-0.003": 26.6173120959,
			"-0.002": 21.2728248017,
			"-0.001": 12.4158177462,
			"0.0": 11.499205712,
			"0.001": 12.2083114493,
			"0.002": 18.1161187824,
			"0.003": 23.7423556722,
			"0.004": 22.6744599563,
			"0.005": 18.0562638313,
			"0.006": 6.59777748844,
			"0.007": 5.2952878787,
			"0.008": 3.80102309761,
			"0.009": 3.79570022646,
			"0.01": 3.52558883255,
			"0.011": 3.49805650505,
			"0.012": 3.41014002954,
			"0.013": 1.97889001217,
			"0.014": 1.96426128763,
			"0.015": 0.884926773827,
			"0.016": 0.0068281324837,
			"0.017": 0.0,
			"0.018": 0.0,
			"0.019": 0.0,
			"0.02": 0.0,
			"0.021": 0.0,
			"0.022": 0.0,
			"0.023": 0.0,
			"0.024": 0.0,
			"0.025": 0.0
		}
	}
}
