{
	 "smiles": "O=CC1=CN=C(S1)N1CCCCC1", 
	 "Tm": 322.15, 
	 "num_atms": 25, 
	 "gaussian": { 
		 "optdone": 1, 
		 "sigma_profile": "yes", 
		 "theory": "DFT", 
		 "functional": "B3LYP", 
		 "basiset": "6-31G**", 
		 "properties": { 
			 "R2extent": 3905.3849, 
			 "electric_dipole_moment_norm": 6.59160730095, 
			 "electric_quadrupole_moment_norm": 15.8370110172, 
			 "total_energy": -933.097488165, 
			 "HOMO_LUMO_gap": 0.15734, 
			 "cosmo_polarized_energy": -11.08, 
			 "cosmo_cavitation_energy": 28.84, 
			 "cosmo_dispersion_energy": -21.93, 
			 "cosmo_repulsion_energy": 1.69, 
			 "cosmo_total_nonelectrostatic_energy": 8.6, 
			 "SMD_solvation_energy": 3.38 
		},
		"coords": [
			{
				"x": 5.0713000296,
				"y": -0.1194620795,
				"z": -1.6284742205,
				"element": "O" 
			},
			{
				"x": 4.4250209499,
				"y": -0.520678678,
				"z": -0.6715079852,
				"element": "C" 
			},
			{
				"x": 2.974588987,
				"y": -0.6106748922,
				"z": -0.6594786361,
				"element": "C" 
			},
			{
				"x": 2.1029854717,
				"y": -0.2727450913,
				"z": -1.6693871621,
				"element": "C" 
			},
			{
				"x": 0.7757166191,
				"y": -0.437382036,
				"z": -1.4413287782,
				"element": "N" 
			},
			{
				"x": 0.5628586214,
				"y": -0.9063035148,
				"z": -0.2225729649,
				"element": "C" 
			},
			{
				"x": 2.038396709,
				"y": -1.201810124,
				"z": 0.7182376958,
				"element": "S" 
			},
			{
				"x": -0.675825013,
				"y": -1.1264003541,
				"z": 0.2882000584,
				"element": "N" 
			},
			{
				"x": -0.8779918332,
				"y": -1.8115285813,
				"z": 1.5651105989,
				"element": "C" 
			},
			{
				"x": -2.1027536218,
				"y": -1.2547392952,
				"z": 2.3012236203,
				"element": "C" 
			},
			{
				"x": -3.3477301482,
				"y": -1.2632682292,
				"z": 1.4048818187,
				"element": "C" 
			},
			{
				"x": -3.0635191622,
				"y": -0.5132990258,
				"z": 0.0969212559,
				"element": "C" 
			},
			{
				"x": -1.8365890313,
				"y": -1.087485089,
				"z": -0.616116847,
				"element": "C" 
			},
			{
				"x": 4.9323950846,
				"y": -0.8453575742,
				"z": 0.263163979,
				"element": "H" 
			},
			{
				"x": 2.4408664374,
				"y": 0.1136763189,
				"z": -2.6243610206,
				"element": "H" 
			},
			{
				"x": 0.013847098,
				"y": -1.6825859994,
				"z": 2.1833933866,
				"element": "H" 
			},
			{
				"x": -1.0020506084,
				"y": -2.8926931162,
				"z": 1.3889680448,
				"element": "H" 
			},
			{
				"x": -2.2676119518,
				"y": -1.8483594296,
				"z": 3.2073621962,
				"element": "H" 
			},
			{
				"x": -1.8857571498,
				"y": -0.2278861227,
				"z": 2.6204182234,
				"element": "H" 
			},
			{
				"x": -4.1973336949,
				"y": -0.8141034886,
				"z": 1.9305279028,
				"element": "H" 
			},
			{
				"x": -3.6292587094,
				"y": -2.3013610193,
				"z": 1.1782344159,
				"element": "H" 
			},
			{
				"x": -2.8897046472,
				"y": 0.5489598923,
				"z": 0.3092031186,
				"element": "H" 
			},
			{
				"x": -3.9227852663,
				"y": -0.5713477504,
				"z": -0.580655016,
				"element": "H" 
			},
			{
				"x": -2.0500768955,
				"y": -2.1106109585,
				"z": -0.9658197317,
				"element": "H" 
			},
			{
				"x": -1.556388275,
				"y": -0.4928537618,
				"z": -1.4845439529,
				"element": "H" 
			}
		],
		 "valence_orbital": [ 
			{
				"type": "occ",
				"energy": -0.2983,
				"method": "rhf"
			},
			{
				"type": "occ",
				"energy": -0.28477,
				"method": "rhf"
			},
			{
				"type": "occ",
				"energy": -0.28237,
				"method": "rhf"
			},
			{
				"type": "occ",
				"energy": -0.24165,
				"method": "rhf"
			},
			{
				"type": "occ",
				"energy": -0.20916,
				"method": "rhf"
			},
			{
				"type": "unocc",
				"energy": -0.05182,
				"method": "rhf"
			},
			{
				"type": "unocc",
				"energy": 0.00469,
				"method": "rhf"
			},
			{
				"type": "unocc",
				"energy": 0.02123,
				"method": "rhf"
			},
			{
				"type": "unocc",
				"energy": 0.06688,
				"method": "rhf"
			},
			{
				"type": "unocc",
				"energy": 0.08686,
				"method": "rhf"
			}
		],
		"cosmo_sigma_profile": { 
			"-0.025": 0.0,
			"-0.024": 0.0,
			"-0.023": 0.0,
			"-0.022": 0.0,
			"-0.021": 0.0,
			"-0.02": 0.0,
			"-0.019": 0.0,
			"-0.018": 0.0,
			"-0.017": 0.0,
			"-0.016": 0.0,
			"-0.015": 0.0,
			"-0.014": 0.0,
			"-0.013": 0.0,
			"-0.012": 0.0,
			"-0.011": 0.0,
			"-0.01": 0.0,
			"-0.009": 0.0218699872277,
			"-0.008": 1.12169577084,
			"-0.007": 3.8063035484,
			"-0.006": 6.09476027212,
			"-0.005": 11.7337473257,
			"-0.004": 22.1746023335,
			"-0.003": 34.3647632365,
			"-0.002": 27.0866235657,
			"-0.001": 24.4823129632,
			"0.0": 21.4009129535,
			"0.001": 14.6813546827,
			"0.002": 14.1290636547,
			"0.003": 9.21212234666,
			"0.004": 7.14622544005,
			"0.005": 3.33544427231,
			"0.006": 3.2584855749,
			"0.007": 2.65666798604,
			"0.008": 3.47284172831,
			"0.009": 2.77455945492,
			"0.01": 3.66755311075,
			"0.011": 3.19544937584,
			"0.012": 6.09656300195,
			"0.013": 3.05310262022,
			"0.014": 0.670502823837,
			"0.015": 0.0,
			"0.016": 0.0,
			"0.017": 0.0,
			"0.018": 0.0,
			"0.019": 0.0,
			"0.02": 0.0,
			"0.021": 0.0,
			"0.022": 0.0,
			"0.023": 0.0,
			"0.024": 0.0,
			"0.025": 0.0
		}
	}
}
