{
	 "smiles": "NC(=S)NN=C1/C2CCCC1C1(O)CCCCC1C2C1=CC=CC=C1", 
	 "Tm": 478.15, 
	 "num_atms": 52, 
	 "gaussian": { 
		 "optdone": 1, 
		 "sigma_profile": "yes", 
		 "theory": "DFT", 
		 "functional": "B3LYP", 
		 "basiset": "6-31G**", 
		 "properties": { 
			 "R2extent": 9244.9181, 
			 "electric_dipole_moment_norm": 5.40148044614, 
			 "electric_quadrupole_moment_norm": 23.4454321732, 
			 "total_energy": -1416.03308419, 
			 "HOMO_LUMO_gap": 0.17113, 
			 "cosmo_polarized_energy": -29.94, 
			 "cosmo_cavitation_energy": 49.62, 
			 "cosmo_dispersion_energy": -33.78, 
			 "cosmo_repulsion_energy": 2.54, 
			 "cosmo_total_nonelectrostatic_energy": 18.38, 
			 "SMD_solvation_energy": 5.8 
		},
		"coords": [
			{
				"x": -0.0573403499,
				"y": -4.2835384696,
				"z": 1.8870720211,
				"element": "N" 
			},
			{
				"x": 0.9050543185,
				"y": -3.3106035062,
				"z": 2.0503954244,
				"element": "C" 
			},
			{
				"x": 2.4564590116,
				"y": -3.6660927334,
				"z": 2.5404769532,
				"element": "S" 
			},
			{
				"x": 0.429588668,
				"y": -2.0656682632,
				"z": 1.718143951,
				"element": "N" 
			},
			{
				"x": 1.1904813793,
				"y": -0.9409830046,
				"z": 1.8741244464,
				"element": "N" 
			},
			{
				"x": 0.775066245,
				"y": 0.1621359624,
				"z": 1.3649776151,
				"element": "C" 
			},
			{
				"x": -0.5190339932,
				"y": 0.4642405637,
				"z": 0.6462898508,
				"element": "C" 
			},
			{
				"x": -1.4763462051,
				"y": 1.0522355811,
				"z": 1.7337133443,
				"element": "C" 
			},
			{
				"x": -0.6807081835,
				"y": 1.781526853,
				"z": 2.8467617605,
				"element": "C" 
			},
			{
				"x": 0.6171745286,
				"y": 2.4423393654,
				"z": 2.3429119905,
				"element": "C" 
			},
			{
				"x": 1.5644873099,
				"y": 1.4185691619,
				"z": 1.6132536813,
				"element": "C" 
			},
			{
				"x": 2.1528840366,
				"y": 1.9564911556,
				"z": 0.2518335546,
				"element": "C" 
			},
			{
				"x": 2.2858760833,
				"y": 3.3874806139,
				"z": 0.3054856121,
				"element": "O" 
			},
			{
				"x": 3.5473618111,
				"y": 1.3567843464,
				"z": -0.0200586921,
				"element": "C" 
			},
			{
				"x": 3.5713407261,
				"y": -0.1561190775,
				"z": -0.3133978026,
				"element": "C" 
			},
			{
				"x": 2.4416085629,
				"y": -0.5851251998,
				"z": -1.287331017,
				"element": "C" 
			},
			{
				"x": 1.7587549579,
				"y": 0.6218806975,
				"z": -1.9448246556,
				"element": "C" 
			},
			{
				"x": 1.1984723708,
				"y": 1.6864538338,
				"z": -0.9650744963,
				"element": "C" 
			},
			{
				"x": -0.2838511665,
				"y": 1.522165174,
				"z": -0.4898598565,
				"element": "C" 
			},
			{
				"x": -1.2782363573,
				"y": 1.3857253552,
				"z": -1.6362390409,
				"element": "C" 
			},
			{
				"x": -1.5820026428,
				"y": 0.1587510504,
				"z": -2.2476085858,
				"element": "C" 
			},
			{
				"x": -2.4854155247,
				"y": 0.0841729721,
				"z": -3.3091364164,
				"element": "C" 
			},
			{
				"x": -3.1081120299,
				"y": 1.2385723993,
				"z": -3.7858006812,
				"element": "C" 
			},
			{
				"x": -2.8173543361,
				"y": 2.467219296,
				"z": -3.1916990359,
				"element": "C" 
			},
			{
				"x": -1.9141971379,
				"y": 2.5349153685,
				"z": -2.1301919302,
				"element": "C" 
			},
			{
				"x": -1.0248776762,
				"y": -4.0429594857,
				"z": 2.0661404024,
				"element": "H" 
			},
			{
				"x": 0.2259023849,
				"y": -5.1916856199,
				"z": 2.2252846685,
				"element": "H" 
			},
			{
				"x": -0.4518091873,
				"y": -2.012631822,
				"z": 1.2157324507,
				"element": "H" 
			},
			{
				"x": -0.9678418458,
				"y": -0.4318029293,
				"z": 0.2078195539,
				"element": "H" 
			},
			{
				"x": -2.0727201091,
				"y": 0.2516121325,
				"z": 2.18588811,
				"element": "H" 
			},
			{
				"x": -2.1859382931,
				"y": 1.7281448625,
				"z": 1.2433736876,
				"element": "H" 
			},
			{
				"x": -0.4180930095,
				"y": 1.0536266558,
				"z": 3.6235877849,
				"element": "H" 
			},
			{
				"x": -1.3170427517,
				"y": 2.5307128106,
				"z": 3.3306013604,
				"element": "H" 
			},
			{
				"x": 1.1501389238,
				"y": 2.8714609197,
				"z": 3.1981192877,
				"element": "H" 
			},
			{
				"x": 0.3987296634,
				"y": 3.2813844784,
				"z": 1.6790890707,
				"element": "H" 
			},
			{
				"x": 2.3986289136,
				"y": 1.1657372351,
				"z": 2.2745086733,
				"element": "H" 
			},
			{
				"x": 2.9316102727,
				"y": 3.5974556637,
				"z": 0.9952043581,
				"element": "H" 
			},
			{
				"x": 3.9592608696,
				"y": 1.9098423037,
				"z": -0.8723579005,
				"element": "H" 
			},
			{
				"x": 4.2001772454,
				"y": 1.5788306214,
				"z": 0.8356796476,
				"element": "H" 
			},
			{
				"x": 3.4904321901,
				"y": -0.7243239122,
				"z": 0.6166943508,
				"element": "H" 
			},
			{
				"x": 4.5506543977,
				"y": -0.3996961159,
				"z": -0.7400685944,
				"element": "H" 
			},
			{
				"x": 2.8437303576,
				"y": -1.236225155,
				"z": -2.0714247237,
				"element": "H" 
			},
			{
				"x": 1.7020313743,
				"y": -1.1897193355,
				"z": -0.7526455563,
				"element": "H" 
			},
			{
				"x": 2.4940030612,
				"y": 1.1234161609,
				"z": -2.5860813021,
				"element": "H" 
			},
			{
				"x": 0.9652123258,
				"y": 0.2912874604,
				"z": -2.6210418529,
				"element": "H" 
			},
			{
				"x": 1.1987724217,
				"y": 2.631141204,
				"z": -1.5183728221,
				"element": "H" 
			},
			{
				"x": -0.5089891792,
				"y": 2.4919170767,
				"z": -0.0372511944,
				"element": "H" 
			},
			{
				"x": -1.1066603325,
				"y": -0.754767636,
				"z": -1.9006217345,
				"element": "H" 
			},
			{
				"x": -2.7007495113,
				"y": -0.8785269714,
				"z": -3.7644444574,
				"element": "H" 
			},
			{
				"x": -3.8130201718,
				"y": 1.1803857683,
				"z": -4.6100254862,
				"element": "H" 
			},
			{
				"x": -3.2968175194,
				"y": 3.3739280512,
				"z": -3.549924502,
				"element": "H" 
			},
			{
				"x": -1.6968368975,
				"y": 3.4976260824,
				"z": -1.6732812751,
				"element": "H" 
			}
		],
		 "valence_orbital": [ 
			{
				"type": "occ",
				"energy": -0.25385,
				"method": "rhf"
			},
			{
				"type": "occ",
				"energy": -0.24825,
				"method": "rhf"
			},
			{
				"type": "occ",
				"energy": -0.24027,
				"method": "rhf"
			},
			{
				"type": "occ",
				"energy": -0.21076,
				"method": "rhf"
			},
			{
				"type": "occ",
				"energy": -0.19591,
				"method": "rhf"
			},
			{
				"type": "unocc",
				"energy": -0.02478,
				"method": "rhf"
			},
			{
				"type": "unocc",
				"energy": -0.00936,
				"method": "rhf"
			},
			{
				"type": "unocc",
				"energy": -0.00669,
				"method": "rhf"
			},
			{
				"type": "unocc",
				"energy": 0.02385,
				"method": "rhf"
			},
			{
				"type": "unocc",
				"energy": 0.0409,
				"method": "rhf"
			}
		],
		"cosmo_sigma_profile": { 
			"-0.025": 0.0,
			"-0.024": 0.0,
			"-0.023": 0.0,
			"-0.022": 0.0,
			"-0.021": 0.0,
			"-0.02": 0.0,
			"-0.019": 0.0,
			"-0.018": 0.0213922927902,
			"-0.017": 0.734802910565,
			"-0.016": 1.30508913071,
			"-0.015": 3.10768600269,
			"-0.014": 3.20761496621,
			"-0.013": 4.33928148927,
			"-0.012": 4.30560172592,
			"-0.011": 4.34634207766,
			"-0.01": 3.47444352044,
			"-0.009": 3.39527328438,
			"-0.008": 4.82406185088,
			"-0.007": 4.55023370032,
			"-0.006": 7.38713390831,
			"-0.005": 14.9914096533,
			"-0.004": 20.1247595966,
			"-0.003": 33.5853771264,
			"-0.002": 39.1064078891,
			"-0.001": 40.5798293194,
			"0.0": 39.2902161549,
			"0.001": 31.0174060293,
			"0.002": 17.9471433518,
			"0.003": 13.6142809668,
			"0.004": 13.8369483177,
			"0.005": 14.9570205437,
			"0.006": 14.7401020233,
			"0.007": 7.88097590545,
			"0.008": 5.92713717174,
			"0.009": 8.54325524473,
			"0.01": 8.82677606715,
			"0.011": 7.30698969255,
			"0.012": 5.13708235047,
			"0.013": 2.32940249758,
			"0.014": 1.89559689099,
			"0.015": 0.975933404552,
			"0.016": 0.77644630535,
			"0.017": 0.659525541813,
			"0.018": 0.230680615259,
			"0.019": 0.0,
			"0.02": 0.0,
			"0.021": 0.0,
			"0.022": 0.0,
			"0.023": 0.0,
			"0.024": 0.0,
			"0.025": 0.0
		}
	}
}
