{
	 "smiles": "NC1=CC(C#N)=C(N)N=C1", 
	 "Tm": 403.15, 
	 "num_atms": 16, 
	 "gaussian": { 
		 "optdone": 1, 
		 "sigma_profile": "yes", 
		 "theory": "DFT", 
		 "functional": "B3LYP", 
		 "basiset": "6-31G**", 
		 "properties": { 
			 "R2extent": 1733.2712, 
			 "electric_dipole_moment_norm": 3.7666933589, 
			 "electric_quadrupole_moment_norm": 20.7294317829, 
			 "total_energy": -451.249523938, 
			 "HOMO_LUMO_gap": 0.14874, 
			 "cosmo_polarized_energy": -15.93, 
			 "cosmo_cavitation_energy": 21.47, 
			 "cosmo_dispersion_energy": -15.6, 
			 "cosmo_repulsion_energy": 1.28, 
			 "cosmo_total_nonelectrostatic_energy": 7.15, 
			 "SMD_solvation_energy": 3.56 
		},
		"coords": [
			{
				"x": -0.453129056,
				"y": -1.300943173,
				"z": -3.1598134611,
				"element": "N" 
			},
			{
				"x": -0.5158187682,
				"y": -0.7192260765,
				"z": -1.8866596523,
				"element": "C" 
			},
			{
				"x": -1.5644277213,
				"y": 0.117297049,
				"z": -1.499993859,
				"element": "C" 
			},
			{
				"x": -1.544641475,
				"y": 0.7222779485,
				"z": -0.2364602852,
				"element": "C" 
			},
			{
				"x": -2.596332239,
				"y": 1.5884350327,
				"z": 0.1856104392,
				"element": "C" 
			},
			{
				"x": -3.424485009,
				"y": 2.3096637046,
				"z": 0.5752261621,
				"element": "N" 
			},
			{
				"x": -0.447421,
				"y": 0.471162791,
				"z": 0.6308554639,
				"element": "C" 
			},
			{
				"x": -0.3927744093,
				"y": 0.987495539,
				"z": 1.9030699586,
				"element": "N" 
			},
			{
				"x": 0.5632563788,
				"y": -0.3223256482,
				"z": 0.2504524111,
				"element": "N" 
			},
			{
				"x": 0.5226258339,
				"y": -0.889560372,
				"z": -0.9531300919,
				"element": "C" 
			},
			{
				"x": 0.1221511652,
				"y": -2.1318516468,
				"z": -3.2078345845,
				"element": "H" 
			},
			{
				"x": -1.3536622759,
				"y": -1.4630450015,
				"z": -3.5911693172,
				"element": "H" 
			},
			{
				"x": -2.3971273755,
				"y": 0.3120916753,
				"z": -2.1693123016,
				"element": "H" 
			},
			{
				"x": 0.5137303366,
				"y": 0.9402040265,
				"z": 2.3435175025,
				"element": "H" 
			},
			{
				"x": -0.9588396956,
				"y": 1.7941335687,
				"z": 2.1198426995,
				"element": "H" 
			},
			{
				"x": 1.3730953104,
				"y": -1.5223094174,
				"z": -1.2091010841,
				"element": "H" 
			}
		],
		 "valence_orbital": [ 
			{
				"type": "occ",
				"energy": -0.33569,
				"method": "rhf"
			},
			{
				"type": "occ",
				"energy": -0.29598,
				"method": "rhf"
			},
			{
				"type": "occ",
				"energy": -0.27585,
				"method": "rhf"
			},
			{
				"type": "occ",
				"energy": -0.27145,
				"method": "rhf"
			},
			{
				"type": "occ",
				"energy": -0.20126,
				"method": "rhf"
			},
			{
				"type": "unocc",
				"energy": -0.05252,
				"method": "rhf"
			},
			{
				"type": "unocc",
				"energy": -0.00011,
				"method": "rhf"
			},
			{
				"type": "unocc",
				"energy": 0.03156,
				"method": "rhf"
			},
			{
				"type": "unocc",
				"energy": 0.06552,
				"method": "rhf"
			},
			{
				"type": "unocc",
				"energy": 0.08395,
				"method": "rhf"
			}
		],
		"cosmo_sigma_profile": { 
			"-0.025": 0.0,
			"-0.024": 0.0,
			"-0.023": 0.0,
			"-0.022": 0.0,
			"-0.021": 0.0,
			"-0.02": 0.0,
			"-0.019": 0.0,
			"-0.018": 0.0,
			"-0.017": 0.0,
			"-0.016": 0.0,
			"-0.015": 0.0,
			"-0.014": 0.0997831891289,
			"-0.013": 2.53753431917,
			"-0.012": 5.45224517192,
			"-0.011": 5.1898130245,
			"-0.01": 6.01717035676,
			"-0.009": 6.3846029196,
			"-0.008": 6.76702632372,
			"-0.007": 7.14743411185,
			"-0.006": 5.9723048794,
			"-0.005": 5.67928956226,
			"-0.004": 5.67288954105,
			"-0.003": 5.0589767718,
			"-0.002": 5.92021589495,
			"-0.001": 8.55858078148,
			"0.0": 11.518123595,
			"0.001": 14.3923205588,
			"0.002": 12.0391299489,
			"0.003": 5.15308191357,
			"0.004": 5.58134982938,
			"0.005": 5.58247206684,
			"0.006": 5.13150338209,
			"0.007": 5.57274239645,
			"0.008": 5.64575387893,
			"0.009": 5.42029726241,
			"0.01": 5.43343041286,
			"0.011": 4.91681652199,
			"0.012": 3.88874815341,
			"0.013": 3.03624155645,
			"0.014": 1.55570032447,
			"0.015": 0.72892859572,
			"0.016": 0.00139750709403,
			"0.017": 0.0,
			"0.018": 0.0,
			"0.019": 0.0,
			"0.02": 0.0,
			"0.021": 0.0,
			"0.022": 0.0,
			"0.023": 0.0,
			"0.024": 0.0,
			"0.025": 0.0
		}
	}
}
