{
	 "smiles": "CC(=NC1=CC=C(C=C1)N=NC1=CC=CC=C1)C1=C(O)C2=CC=CC=C2N(C2=CC=CC=C2)C1=O", 
	 "Tm": 464.15, 
	 "num_atms": 57, 
	 "gaussian": { 
		 "optdone": 1, 
		 "sigma_profile": "yes", 
		 "theory": "DFT", 
		 "functional": "B3LYP", 
		 "basiset": "6-31G**", 
		 "properties": { 
			 "R2extent": 22973.6509, 
			 "electric_dipole_moment_norm": 4.24815235838, 
			 "electric_quadrupole_moment_norm": 21.8861517785, 
			 "total_energy": -1487.77292111, 
			 "HOMO_LUMO_gap": 0.13108, 
			 "cosmo_polarized_energy": -19.65, 
			 "cosmo_cavitation_energy": 62.26, 
			 "cosmo_dispersion_energy": -41.77, 
			 "cosmo_repulsion_energy": 3.12, 
			 "cosmo_total_nonelectrostatic_energy": 23.61, 
			 "SMD_solvation_energy": 8.45 
		},
		"coords": [
			{
				"x": 2.6065993711,
				"y": 4.2572293885,
				"z": -2.2186706728,
				"element": "C" 
			},
			{
				"x": 2.2607788686,
				"y": 2.8097586679,
				"z": -1.9845620125,
				"element": "C" 
			},
			{
				"x": 2.6238927876,
				"y": 1.9463636662,
				"z": -2.8660799593,
				"element": "N" 
			},
			{
				"x": 2.2139774134,
				"y": 0.604049402,
				"z": -2.8528731242,
				"element": "C" 
			},
			{
				"x": 3.1886315648,
				"y": -0.4009232081,
				"z": -3.0294554251,
				"element": "C" 
			},
			{
				"x": 2.827346996,
				"y": -1.737387096,
				"z": -3.0848555448,
				"element": "C" 
			},
			{
				"x": 1.4704343409,
				"y": -2.1021613855,
				"z": -3.0051203394,
				"element": "C" 
			},
			{
				"x": 0.4964890878,
				"y": -1.100866516,
				"z": -2.8714901796,
				"element": "C" 
			},
			{
				"x": 0.8565835578,
				"y": 0.2385309668,
				"z": -2.7911996145,
				"element": "C" 
			},
			{
				"x": 0.983924421,
				"y": -3.4263742794,
				"z": -3.0662550027,
				"element": "N" 
			},
			{
				"x": 1.8722878055,
				"y": -4.3165524394,
				"z": -3.1775333377,
				"element": "N" 
			},
			{
				"x": 1.3782251972,
				"y": -5.6436947023,
				"z": -3.2395062088,
				"element": "C" 
			},
			{
				"x": 2.3531316129,
				"y": -6.6439505654,
				"z": -3.3574361279,
				"element": "C" 
			},
			{
				"x": 1.9795797623,
				"y": -7.9850941404,
				"z": -3.4268713526,
				"element": "C" 
			},
			{
				"x": 0.628553872,
				"y": -8.3335535086,
				"z": -3.3790809008,
				"element": "C" 
			},
			{
				"x": -0.3479599928,
				"y": -7.3356905046,
				"z": -3.2616309337,
				"element": "C" 
			},
			{
				"x": 0.0178223904,
				"y": -5.9965403941,
				"z": -3.1917952746,
				"element": "C" 
			},
			{
				"x": 1.5827454615,
				"y": 2.4855526271,
				"z": -0.6863146322,
				"element": "C" 
			},
			{
				"x": 2.187092179,
				"y": 1.6936016209,
				"z": 0.2559129509,
				"element": "C" 
			},
			{
				"x": 3.3826682971,
				"y": 1.0929336319,
				"z": 0.0764075821,
				"element": "O" 
			},
			{
				"x": 1.5802360747,
				"y": 1.4700632629,
				"z": 1.547934828,
				"element": "C" 
			},
			{
				"x": 2.1964699761,
				"y": 0.6684737845,
				"z": 2.5276270058,
				"element": "C" 
			},
			{
				"x": 1.5981956719,
				"y": 0.4740017228,
				"z": 3.761449861,
				"element": "C" 
			},
			{
				"x": 0.3647078594,
				"y": 1.0845945128,
				"z": 4.0311303271,
				"element": "C" 
			},
			{
				"x": -0.2644236063,
				"y": 1.8776462665,
				"z": 3.0817699223,
				"element": "C" 
			},
			{
				"x": 0.3329930895,
				"y": 2.082933184,
				"z": 1.8231861763,
				"element": "C" 
			},
			{
				"x": -0.2761573702,
				"y": 2.8710769241,
				"z": 0.845396883,
				"element": "N" 
			},
			{
				"x": -1.5613219793,
				"y": 3.4808108292,
				"z": 1.0973173022,
				"element": "C" 
			},
			{
				"x": -1.6228246816,
				"y": 4.7644374444,
				"z": 1.6414064961,
				"element": "C" 
			},
			{
				"x": -2.8648816256,
				"y": 5.3496169836,
				"z": 1.8898363579,
				"element": "C" 
			},
			{
				"x": -4.0388442329,
				"y": 4.6537282834,
				"z": 1.5944067123,
				"element": "C" 
			},
			{
				"x": -3.9705658465,
				"y": 3.3704763413,
				"z": 1.0479123617,
				"element": "C" 
			},
			{
				"x": -2.7310671595,
				"y": 2.7810438769,
				"z": 0.7975717993,
				"element": "C" 
			},
			{
				"x": 0.2855572853,
				"y": 3.0999594398,
				"z": -0.4283855329,
				"element": "C" 
			},
			{
				"x": -0.3206097636,
				"y": 3.7724553343,
				"z": -1.2619109127,
				"element": "O" 
			},
			{
				"x": 3.2352909566,
				"y": 4.6420083206,
				"z": -1.4067552646,
				"element": "H" 
			},
			{
				"x": 3.1249150008,
				"y": 4.3673914074,
				"z": -3.1722825737,
				"element": "H" 
			},
			{
				"x": 1.6823618414,
				"y": 4.8425901876,
				"z": -2.2234259234,
				"element": "H" 
			},
			{
				"x": 4.2295334806,
				"y": -0.1052857237,
				"z": -3.1296562668,
				"element": "H" 
			},
			{
				"x": 3.5706600227,
				"y": -2.5169447611,
				"z": -3.2057461821,
				"element": "H" 
			},
			{
				"x": -0.5452435572,
				"y": -1.4036742679,
				"z": -2.8315252297,
				"element": "H" 
			},
			{
				"x": 0.1024063393,
				"y": 1.0139624678,
				"z": -2.703925028,
				"element": "H" 
			},
			{
				"x": 3.3950750704,
				"y": -6.3416623583,
				"z": -3.392525218,
				"element": "H" 
			},
			{
				"x": 2.7393384653,
				"y": -8.7557716171,
				"z": -3.5183112098,
				"element": "H" 
			},
			{
				"x": 0.3333233617,
				"y": -9.3775408029,
				"z": -3.4333233619,
				"element": "H" 
			},
			{
				"x": -1.3986809002,
				"y": -7.6099736367,
				"z": -3.2253359098,
				"element": "H" 
			},
			{
				"x": -0.7218635255,
				"y": -5.209440305,
				"z": -3.1012996914,
				"element": "H" 
			},
			{
				"x": 3.6837140414,
				"y": 1.2282603216,
				"z": -0.8349301665,
				"element": "H" 
			},
			{
				"x": 3.148005285,
				"y": 0.2070644824,
				"z": 2.2909021997,
				"element": "H" 
			},
			{
				"x": 2.0789260976,
				"y": -0.1461521696,
				"z": 4.5109656712,
				"element": "H" 
			},
			{
				"x": -0.1130061537,
				"y": 0.9383451592,
				"z": 4.9955590775,
				"element": "H" 
			},
			{
				"x": -1.2171998495,
				"y": 2.3409235415,
				"z": 3.303900158,
				"element": "H" 
			},
			{
				"x": -0.7023010689,
				"y": 5.2959377457,
				"z": 1.8608453834,
				"element": "H" 
			},
			{
				"x": -2.9142991184,
				"y": 6.3493189859,
				"z": 2.3109142434,
				"element": "H" 
			},
			{
				"x": -5.0046784018,
				"y": 5.1113576022,
				"z": 1.7870747785,
				"element": "H" 
			},
			{
				"x": -4.8815515931,
				"y": 2.8283363113,
				"z": 0.8127257273,
				"element": "H" 
			},
			{
				"x": -2.66329448,
				"y": 1.7866996872,
				"z": 0.3679153098,
				"element": "H" 
			}
		],
		 "valence_orbital": [ 
			{
				"type": "occ",
				"energy": -0.25091,
				"method": "rhf"
			},
			{
				"type": "occ",
				"energy": -0.23904,
				"method": "rhf"
			},
			{
				"type": "occ",
				"energy": -0.22312,
				"method": "rhf"
			},
			{
				"type": "occ",
				"energy": -0.22033,
				"method": "rhf"
			},
			{
				"type": "occ",
				"energy": -0.20949,
				"method": "rhf"
			},
			{
				"type": "unocc",
				"energy": -0.07841,
				"method": "rhf"
			},
			{
				"type": "unocc",
				"energy": -0.05577,
				"method": "rhf"
			},
			{
				"type": "unocc",
				"energy": -0.02588,
				"method": "rhf"
			},
			{
				"type": "unocc",
				"energy": -0.01534,
				"method": "rhf"
			},
			{
				"type": "unocc",
				"energy": -0.01319,
				"method": "rhf"
			}
		],
		"cosmo_sigma_profile": { 
			"-0.025": 0.0,
			"-0.024": 0.0,
			"-0.023": 0.0,
			"-0.022": 0.0,
			"-0.021": 0.0,
			"-0.02": 0.0,
			"-0.019": 0.0,
			"-0.018": 0.0,
			"-0.017": 0.0,
			"-0.016": 0.0216184333277,
			"-0.015": 0.381834276196,
			"-0.014": 0.430637832905,
			"-0.013": 0.857739867362,
			"-0.012": 0.566000002814,
			"-0.011": 1.41090935328,
			"-0.01": 0.853096906456,
			"-0.009": 1.07859972052,
			"-0.008": 1.31471665805,
			"-0.007": 7.11656424758,
			"-0.006": 30.4368508773,
			"-0.005": 37.760645604,
			"-0.004": 42.383927664,
			"-0.003": 33.8191277808,
			"-0.002": 39.4834672678,
			"-0.001": 32.5567417396,
			"0.0": 34.5202086738,
			"0.001": 41.1226944052,
			"0.002": 47.347862406,
			"0.003": 53.182192235,
			"0.004": 37.9436774673,
			"0.005": 16.3859009831,
			"0.006": 8.61825514836,
			"0.007": 9.07185023045,
			"0.008": 4.92535912965,
			"0.009": 2.30499005821,
			"0.01": 2.50729208253,
			"0.011": 3.1410250298,
			"0.012": 2.13406995377,
			"0.013": 4.09877823855,
			"0.014": 2.74342747726,
			"0.015": 0.0787300311331,
			"0.016": 0.0,
			"0.017": 0.0,
			"0.018": 0.0,
			"0.019": 0.0,
			"0.02": 0.0,
			"0.021": 0.0,
			"0.022": 0.0,
			"0.023": 0.0,
			"0.024": 0.0,
			"0.025": 0.0
		}
	}
}
