{
	 "smiles": "NC(C(O)=O)(C1=C(F)C=CC=C1)C(F)(F)F", 
	 "Tm": 387.15, 
	 "num_atms": 23, 
	 "gaussian": { 
		 "optdone": 1, 
		 "sigma_profile": "yes", 
		 "theory": "DFT", 
		 "functional": "B3LYP", 
		 "basiset": "6-31G**", 
		 "properties": { 
			 "R2extent": 4213.0295, 
			 "electric_dipole_moment_norm": 2.12102109608, 
			 "electric_quadrupole_moment_norm": 6.69638333431, 
			 "total_energy": -951.739081631, 
			 "HOMO_LUMO_gap": 0.22609, 
			 "cosmo_polarized_energy": -12.56, 
			 "cosmo_cavitation_energy": 28.26, 
			 "cosmo_dispersion_energy": -19.82, 
			 "cosmo_repulsion_energy": 1.47, 
			 "cosmo_total_nonelectrostatic_energy": 9.91, 
			 "SMD_solvation_energy": 6.61 
		},
		"coords": [
			{
				"x": 1.4900331791,
				"y": 2.1470153361,
				"z": -1.6323640968,
				"element": "N" 
			},
			{
				"x": 1.5703334085,
				"y": 0.6958557631,
				"z": -1.6586067233,
				"element": "C" 
			},
			{
				"x": 2.9132568879,
				"y": 0.311934225,
				"z": -0.9831197277,
				"element": "C" 
			},
			{
				"x": 2.9580466711,
				"y": -0.9870103452,
				"z": -0.6427386825,
				"element": "O" 
			},
			{
				"x": 3.8333491711,
				"y": 1.0800170153,
				"z": -0.8400987944,
				"element": "O" 
			},
			{
				"x": 0.363362311,
				"y": 0.10522061,
				"z": -0.9227852084,
				"element": "C" 
			},
			{
				"x": 0.298941523,
				"y": 0.2536237246,
				"z": 0.4674672418,
				"element": "C" 
			},
			{
				"x": 1.3450672767,
				"y": 0.820807816,
				"z": 1.1072782915,
				"element": "F" 
			},
			{
				"x": -0.7781724513,
				"y": -0.1748435257,
				"z": 1.2282466957,
				"element": "C" 
			},
			{
				"x": -1.8592749573,
				"y": -0.7761880479,
				"z": 0.5830515016,
				"element": "C" 
			},
			{
				"x": -1.8351520223,
				"y": -0.9379605996,
				"z": -0.8009767238,
				"element": "C" 
			},
			{
				"x": -0.7367401215,
				"y": -0.4989828461,
				"z": -1.5440202723,
				"element": "C" 
			},
			{
				"x": 1.6836658808,
				"y": 0.1748257793,
				"z": -3.1202361876,
				"element": "C" 
			},
			{
				"x": 0.6762380277,
				"y": 0.6659114681,
				"z": -3.8843171846,
				"element": "F" 
			},
			{
				"x": 1.6524132855,
				"y": -1.1652052748,
				"z": -3.2204795822,
				"element": "F" 
			},
			{
				"x": 2.8369446165,
				"y": 0.599765563,
				"z": -3.6774196024,
				"element": "F" 
			},
			{
				"x": 0.7849286579,
				"y": 2.4744356528,
				"z": -2.2842503008,
				"element": "H" 
			},
			{
				"x": 2.3938525493,
				"y": 2.5500895,
				"z": -1.8631988608,
				"element": "H" 
			},
			{
				"x": 3.8400678415,
				"y": -1.1421120523,
				"z": -0.2640117302,
				"element": "H" 
			},
			{
				"x": -0.7527113549,
				"y": -0.0318582194,
				"z": 2.3029616464,
				"element": "H" 
			},
			{
				"x": -2.711803582,
				"y": -1.1161640018,
				"z": 1.1629342831,
				"element": "H" 
			},
			{
				"x": -2.6717933578,
				"y": -1.4042236113,
				"z": -1.3114968257,
				"element": "H" 
			},
			{
				"x": -0.7474534404,
				"y": -0.6325539294,
				"z": -2.6176191564,
				"element": "H" 
			}
		],
		 "valence_orbital": [ 
			{
				"type": "occ",
				"energy": -0.33212,
				"method": "rhf"
			},
			{
				"type": "occ",
				"energy": -0.29747,
				"method": "rhf"
			},
			{
				"type": "occ",
				"energy": -0.26673,
				"method": "rhf"
			},
			{
				"type": "occ",
				"energy": -0.25821,
				"method": "rhf"
			},
			{
				"type": "occ",
				"energy": -0.24673,
				"method": "rhf"
			},
			{
				"type": "unocc",
				"energy": -0.02064,
				"method": "rhf"
			},
			{
				"type": "unocc",
				"energy": -0.00677,
				"method": "rhf"
			},
			{
				"type": "unocc",
				"energy": -0.00533,
				"method": "rhf"
			},
			{
				"type": "unocc",
				"energy": 0.06723,
				"method": "rhf"
			},
			{
				"type": "unocc",
				"energy": 0.08089,
				"method": "rhf"
			}
		],
		"cosmo_sigma_profile": { 
			"-0.025": 0.0,
			"-0.024": 0.0,
			"-0.023": 0.0,
			"-0.022": 0.0,
			"-0.021": 0.0,
			"-0.02": 0.281462560742,
			"-0.019": 1.09727180453,
			"-0.018": 0.801541243314,
			"-0.017": 1.20333645275,
			"-0.016": 0.720835878943,
			"-0.015": 0.314187068033,
			"-0.014": 0.226700624661,
			"-0.013": 0.897175077196,
			"-0.012": 1.01265002189,
			"-0.011": 1.53594717614,
			"-0.01": 3.42854601823,
			"-0.009": 2.93451998089,
			"-0.008": 3.58682549754,
			"-0.007": 6.85055488858,
			"-0.006": 10.5234522571,
			"-0.005": 11.8898499854,
			"-0.004": 9.37543587914,
			"-0.003": 8.93352189818,
			"-0.002": 10.5050219608,
			"-0.001": 10.9539282777,
			"0.0": 14.1989260811,
			"0.001": 19.1863014377,
			"0.002": 33.6130538343,
			"0.003": 22.8446984441,
			"0.004": 16.264168354,
			"0.005": 5.75062479603,
			"0.006": 4.78591655687,
			"0.007": 3.9783247703,
			"0.008": 4.18018963761,
			"0.009": 4.10717360289,
			"0.01": 4.82200117364,
			"0.011": 2.16173203942,
			"0.012": 1.25000075451,
			"0.013": 0.358348248213,
			"0.014": 0.523289477996,
			"0.015": 0.290091391543,
			"0.016": 0.0,
			"0.017": 0.0,
			"0.018": 0.0,
			"0.019": 0.0,
			"0.02": 0.0,
			"0.021": 0.0,
			"0.022": 0.0,
			"0.023": 0.0,
			"0.024": 0.0,
			"0.025": 0.0
		}
	}
}
