{
	 "smiles": "N#CC1=CC(=NC=C1)N1C=CN=C1", 
	 "Tm": 422.15, 
	 "num_atms": 19, 
	 "gaussian": { 
		 "optdone": 1, 
		 "sigma_profile": "yes", 
		 "theory": "DFT", 
		 "functional": "B3LYP", 
		 "basiset": "6-31G**", 
		 "properties": { 
			 "R2extent": 2869.4489, 
			 "electric_dipole_moment_norm": 3.29764888064, 
			 "electric_quadrupole_moment_norm": 15.0327296447, 
			 "total_energy": -565.543552268, 
			 "HOMO_LUMO_gap": 0.15374, 
			 "cosmo_polarized_energy": -14.45, 
			 "cosmo_cavitation_energy": 25.27, 
			 "cosmo_dispersion_energy": -18.13, 
			 "cosmo_repulsion_energy": 1.39, 
			 "cosmo_total_nonelectrostatic_energy": 8.54, 
			 "SMD_solvation_energy": 4.09 
		},
		"coords": [
			{
				"x": 1.5074407687,
				"y": -3.9713017278,
				"z": 0.572221497,
				"element": "N" 
			},
			{
				"x": 0.7012289397,
				"y": -3.134133441,
				"z": 0.5582811588,
				"element": "C" 
			},
			{
				"x": -0.2971796372,
				"y": -2.1022797596,
				"z": 0.5435916412,
				"element": "C" 
			},
			{
				"x": -0.1000471134,
				"y": -0.9540192941,
				"z": -0.2283038015,
				"element": "C" 
			},
			{
				"x": -1.1039791536,
				"y": 0.025016565,
				"z": -0.209564636,
				"element": "C" 
			},
			{
				"x": -2.2253649496,
				"y": -0.0939075684,
				"z": 0.5062798167,
				"element": "N" 
			},
			{
				"x": -2.3953331107,
				"y": -1.1993080618,
				"z": 1.237961774,
				"element": "C" 
			},
			{
				"x": -1.4718516811,
				"y": -2.2379612434,
				"z": 1.2998011223,
				"element": "C" 
			},
			{
				"x": -0.9810698826,
				"y": 1.2095340629,
				"z": -0.9594443142,
				"element": "N" 
			},
			{
				"x": -1.9190886279,
				"y": 2.2375781683,
				"z": -1.0069723031,
				"element": "C" 
			},
			{
				"x": -1.3908358398,
				"y": 3.1738885918,
				"z": -1.8485734983,
				"element": "C" 
			},
			{
				"x": -0.1567940375,
				"y": 2.7701303275,
				"z": -2.3298273117,
				"element": "N" 
			},
			{
				"x": 0.0599046398,
				"y": 1.6020388766,
				"z": -1.7854933552,
				"element": "C" 
			},
			{
				"x": 0.803170885,
				"y": -0.8432071225,
				"z": -0.8134462201,
				"element": "H" 
			},
			{
				"x": -3.321485384,
				"y": -1.2556340639,
				"z": 1.8051931864,
				"element": "H" 
			},
			{
				"x": -1.6495407354,
				"y": -3.1175567226,
				"z": 1.9064980198,
				"element": "H" 
			},
			{
				"x": -2.8341898639,
				"y": 2.1769080451,
				"z": -0.4437643342,
				"element": "H" 
			},
			{
				"x": -1.8238191201,
				"y": 4.1201446271,
				"z": -2.1408312208,
				"element": "H" 
			},
			{
				"x": 0.9385339036,
				"y": 0.9947697408,
				"z": -1.9448072211,
				"element": "H" 
			}
		],
		 "valence_orbital": [ 
			{
				"type": "occ",
				"energy": -0.31114,
				"method": "rhf"
			},
			{
				"type": "occ",
				"energy": -0.30327,
				"method": "rhf"
			},
			{
				"type": "occ",
				"energy": -0.27772,
				"method": "rhf"
			},
			{
				"type": "occ",
				"energy": -0.26795,
				"method": "rhf"
			},
			{
				"type": "occ",
				"energy": -0.24105,
				"method": "rhf"
			},
			{
				"type": "unocc",
				"energy": -0.08731,
				"method": "rhf"
			},
			{
				"type": "unocc",
				"energy": -0.05607,
				"method": "rhf"
			},
			{
				"type": "unocc",
				"energy": 0.01374,
				"method": "rhf"
			},
			{
				"type": "unocc",
				"energy": 0.01541,
				"method": "rhf"
			},
			{
				"type": "unocc",
				"energy": 0.05867,
				"method": "rhf"
			}
		],
		"cosmo_sigma_profile": { 
			"-0.025": 0.0,
			"-0.024": 0.0,
			"-0.023": 0.0,
			"-0.022": 0.0,
			"-0.021": 0.0,
			"-0.02": 0.0,
			"-0.019": 0.0,
			"-0.018": 0.0,
			"-0.017": 0.0,
			"-0.016": 0.0,
			"-0.015": 0.0,
			"-0.014": 0.0,
			"-0.013": 0.471485946686,
			"-0.012": 1.67033312515,
			"-0.011": 2.1417448577,
			"-0.01": 2.99634187569,
			"-0.009": 5.02979409578,
			"-0.008": 7.94698984386,
			"-0.007": 9.96046005247,
			"-0.006": 8.42772481345,
			"-0.005": 9.073853385,
			"-0.004": 11.5066550718,
			"-0.003": 15.5796276846,
			"-0.002": 19.111860885,
			"-0.001": 15.4678232513,
			"0.0": 12.5455955387,
			"0.001": 10.0435616735,
			"0.002": 9.24100153299,
			"0.003": 8.85191392922,
			"0.004": 10.0436748429,
			"0.005": 7.39046401462,
			"0.006": 5.81661136689,
			"0.007": 5.60163752795,
			"0.008": 5.98184266491,
			"0.009": 5.84536252782,
			"0.01": 3.81517953581,
			"0.011": 3.37624429743,
			"0.012": 3.01501156778,
			"0.013": 1.24813411259,
			"0.014": 0.875250198546,
			"0.015": 1.08643070851,
			"0.016": 1.25271632601,
			"0.017": 0.74486434478,
			"0.018": 0.116334938568,
			"0.019": 0.0,
			"0.02": 0.0,
			"0.021": 0.0,
			"0.022": 0.0,
			"0.023": 0.0,
			"0.024": 0.0,
			"0.025": 0.0
		}
	}
}
