{
	 "smiles": "NC1=NC2=C(O1)C=C(C=C2)C(O)=O", 
	 "Tm": 611.15, 
	 "num_atms": 19, 
	 "gaussian": { 
		 "optdone": 1, 
		 "sigma_profile": "yes", 
		 "theory": "DFT", 
		 "functional": "B3LYP", 
		 "basiset": "6-31G**", 
		 "properties": { 
			 "R2extent": 2905.4344, 
			 "electric_dipole_moment_norm": 5.89103482421, 
			 "electric_quadrupole_moment_norm": 25.8818555969, 
			 "total_energy": -643.656783912, 
			 "HOMO_LUMO_gap": 0.18306, 
			 "cosmo_polarized_energy": -20.52, 
			 "cosmo_cavitation_energy": 24.39, 
			 "cosmo_dispersion_energy": -18.6, 
			 "cosmo_repulsion_energy": 1.46, 
			 "cosmo_total_nonelectrostatic_energy": 7.25, 
			 "SMD_solvation_energy": 3.71 
		},
		"coords": [
			{
				"x": -2.9119495088,
				"y": -0.6974602828,
				"z": -3.8983712159,
				"element": "N" 
			},
			{
				"x": -2.3160109019,
				"y": -0.6583519963,
				"z": -2.681511616,
				"element": "C" 
			},
			{
				"x": -2.8917837007,
				"y": -0.6823587074,
				"z": -1.5130050066,
				"element": "N" 
			},
			{
				"x": -1.8273048718,
				"y": -0.5546661166,
				"z": -0.6271092557,
				"element": "C" 
			},
			{
				"x": -0.6237652937,
				"y": -0.4648871344,
				"z": -1.3502408435,
				"element": "C" 
			},
			{
				"x": -0.9514657265,
				"y": -0.5332170854,
				"z": -2.6935425986,
				"element": "O" 
			},
			{
				"x": 0.6210546433,
				"y": -0.333355223,
				"z": -0.7812372198,
				"element": "C" 
			},
			{
				"x": 0.6572611815,
				"y": -0.3054657026,
				"z": 0.6262203682,
				"element": "C" 
			},
			{
				"x": -0.5364048207,
				"y": -0.3783065671,
				"z": 1.3736929788,
				"element": "C" 
			},
			{
				"x": -1.787087824,
				"y": -0.5027634834,
				"z": 0.7672817897,
				"element": "C" 
			},
			{
				"x": 2.0050893426,
				"y": -0.1598931757,
				"z": 1.2577994147,
				"element": "C" 
			},
			{
				"x": 2.1095667218,
				"y": -0.4955762796,
				"z": 2.5732722658,
				"element": "O" 
			},
			{
				"x": 2.9820050026,
				"y": 0.2295068519,
				"z": 0.6593359536,
				"element": "O" 
			},
			{
				"x": -2.3447036678,
				"y": -0.962737456,
				"z": -4.6887227036,
				"element": "H" 
			},
			{
				"x": -3.8762226406,
				"y": -0.9920630154,
				"z": -3.9041957488,
				"element": "H" 
			},
			{
				"x": 1.5382634172,
				"y": -0.2525640443,
				"z": -1.35181744,
				"element": "H" 
			},
			{
				"x": -0.5023567521,
				"y": -0.2917693379,
				"z": 2.4569010612,
				"element": "H" 
			},
			{
				"x": -2.6991168313,
				"y": -0.5464837463,
				"z": 1.3520445683,
				"element": "H" 
			},
			{
				"x": 1.3067322311,
				"y": -0.9487874977,
				"z": 2.8648052482,
				"element": "H" 
			}
		],
		 "valence_orbital": [ 
			{
				"type": "occ",
				"energy": -0.30408,
				"method": "rhf"
			},
			{
				"type": "occ",
				"energy": -0.30018,
				"method": "rhf"
			},
			{
				"type": "occ",
				"energy": -0.26821,
				"method": "rhf"
			},
			{
				"type": "occ",
				"energy": -0.2589,
				"method": "rhf"
			},
			{
				"type": "occ",
				"energy": -0.22831,
				"method": "rhf"
			},
			{
				"type": "unocc",
				"energy": -0.04525,
				"method": "rhf"
			},
			{
				"type": "unocc",
				"energy": -0.01524,
				"method": "rhf"
			},
			{
				"type": "unocc",
				"energy": 0.03061,
				"method": "rhf"
			},
			{
				"type": "unocc",
				"energy": 0.05577,
				"method": "rhf"
			},
			{
				"type": "unocc",
				"energy": 0.06696,
				"method": "rhf"
			}
		],
		"cosmo_sigma_profile": { 
			"-0.025": 0.0,
			"-0.024": 0.0,
			"-0.023": 0.0,
			"-0.022": 0.0,
			"-0.021": 0.0,
			"-0.02": 0.0,
			"-0.019": 0.186238753888,
			"-0.018": 0.613808348173,
			"-0.017": 1.07170971357,
			"-0.016": 2.00229699856,
			"-0.015": 3.53108255954,
			"-0.014": 2.76525675474,
			"-0.013": 3.19507282035,
			"-0.012": 3.58602234618,
			"-0.011": 3.38832798888,
			"-0.01": 2.69950677698,
			"-0.009": 3.44314660205,
			"-0.008": 3.74988261727,
			"-0.007": 5.54270035612,
			"-0.006": 7.01045511073,
			"-0.005": 6.89577931606,
			"-0.004": 6.59031446949,
			"-0.003": 10.1607674945,
			"-0.002": 9.49104211628,
			"-0.001": 9.68488391285,
			"0.0": 12.0574439619,
			"0.001": 13.8456532171,
			"0.002": 15.3274004023,
			"0.003": 13.1097414701,
			"0.004": 7.88650602116,
			"0.005": 5.8193836942,
			"0.006": 5.11051364315,
			"0.007": 4.32537765753,
			"0.008": 4.96041296321,
			"0.009": 4.46376264231,
			"0.01": 4.84562777833,
			"0.011": 6.69515134678,
			"0.012": 6.16707226886,
			"0.013": 3.23402947744,
			"0.014": 0.958426235844,
			"0.015": 1.13992136463,
			"0.016": 0.452815816855,
			"0.017": 0.0,
			"0.018": 0.0,
			"0.019": 0.0,
			"0.02": 0.0,
			"0.021": 0.0,
			"0.022": 0.0,
			"0.023": 0.0,
			"0.024": 0.0,
			"0.025": 0.0
		}
	}
}
