{
	 "smiles": "CC1=CC=C(C)N1C1=CC=C(N)C=C1", 
	 "Tm": 367.15, 
	 "num_atms": 28, 
	 "gaussian": { 
		 "optdone": 1, 
		 "sigma_profile": "yes", 
		 "theory": "DFT", 
		 "functional": "B3LYP", 
		 "basiset": "6-31G**", 
		 "properties": { 
			 "R2extent": 3333.7251, 
			 "electric_dipole_moment_norm": 4.10149605144, 
			 "electric_quadrupole_moment_norm": 14.6511959358, 
			 "total_energy": -575.221495896, 
			 "HOMO_LUMO_gap": 0.17145, 
			 "cosmo_polarized_energy": -10.57, 
			 "cosmo_cavitation_energy": 31.26, 
			 "cosmo_dispersion_energy": -21.67, 
			 "cosmo_repulsion_energy": 1.73, 
			 "cosmo_total_nonelectrostatic_energy": 11.32, 
			 "SMD_solvation_energy": 5.53 
		},
		"coords": [
			{
				"x": 2.4659969279,
				"y": 1.7240154262,
				"z": 0.4044677147,
				"element": "C" 
			},
			{
				"x": 1.2710240751,
				"y": 1.1819505303,
				"z": 1.1214885055,
				"element": "C" 
			},
			{
				"x": 0.973660171,
				"y": 1.1517370624,
				"z": 2.4662101907,
				"element": "C" 
			},
			{
				"x": -0.3015985624,
				"y": 0.535338217,
				"z": 2.6204171407,
				"element": "C" 
			},
			{
				"x": -0.7654354387,
				"y": 0.1992866646,
				"z": 1.3675717665,
				"element": "C" 
			},
			{
				"x": -2.0329835348,
				"y": -0.4761068451,
				"z": 0.9514565854,
				"element": "C" 
			},
			{
				"x": 0.2017419671,
				"y": 0.596877575,
				"z": 0.4478049335,
				"element": "N" 
			},
			{
				"x": 0.1109438075,
				"y": 0.4297681084,
				"z": -0.9687120919,
				"element": "C" 
			},
			{
				"x": 0.7267646291,
				"y": -0.6576274077,
				"z": -1.5978868549,
				"element": "C" 
			},
			{
				"x": 0.6446468892,
				"y": -0.8205710335,
				"z": -2.9772450126,
				"element": "C" 
			},
			{
				"x": -0.0652244814,
				"y": 0.1018113502,
				"z": -3.7669225004,
				"element": "C" 
			},
			{
				"x": -0.1995951981,
				"y": -0.0908914266,
				"z": -5.1408153428,
				"element": "N" 
			},
			{
				"x": -0.68474791,
				"y": 1.1917787773,
				"z": -3.1294173573,
				"element": "C" 
			},
			{
				"x": -0.593909401,
				"y": 1.3516856962,
				"z": -1.7502525711,
				"element": "C" 
			},
			{
				"x": 2.2002602705,
				"y": 2.5094359443,
				"z": -0.3141292735,
				"element": "H" 
			},
			{
				"x": 3.0084932861,
				"y": 0.9518234536,
				"z": -0.1551260631,
				"element": "H" 
			},
			{
				"x": 3.1583827645,
				"y": 2.1566051953,
				"z": 1.131121181,
				"element": "H" 
			},
			{
				"x": 1.6094077036,
				"y": 1.5363646399,
				"z": 3.2525428676,
				"element": "H" 
			},
			{
				"x": -0.8275767043,
				"y": 0.3524759363,
				"z": 3.5479432973,
				"element": "H" 
			},
			{
				"x": -1.8481921268,
				"y": -1.4102039864,
				"z": 0.4064932881,
				"element": "H" 
			},
			{
				"x": -2.6525330202,
				"y": 0.1535739576,
				"z": 0.3009184317,
				"element": "H" 
			},
			{
				"x": -2.6221414368,
				"y": -0.718291221,
				"z": 1.8395820074,
				"element": "H" 
			},
			{
				"x": 1.27271665,
				"y": -1.3773768651,
				"z": -0.9954030286,
				"element": "H" 
			},
			{
				"x": 1.1258076197,
				"y": -1.6726717588,
				"z": -3.4508732072,
				"element": "H" 
			},
			{
				"x": -0.4060512574,
				"y": 0.7393734721,
				"z": -5.6783367875,
				"element": "H" 
			},
			{
				"x": 0.5179278344,
				"y": -0.655882294,
				"z": -5.5730389822,
				"element": "H" 
			},
			{
				"x": -1.24019745,
				"y": 1.9141906715,
				"z": -3.7223156418,
				"element": "H" 
			},
			{
				"x": -1.0681880738,
				"y": 2.2008301601,
				"z": -1.2674431954,
				"element": "H" 
			}
		],
		 "valence_orbital": [ 
			{
				"type": "occ",
				"energy": -0.31176,
				"method": "rhf"
			},
			{
				"type": "occ",
				"energy": -0.25486,
				"method": "rhf"
			},
			{
				"type": "occ",
				"energy": -0.21828,
				"method": "rhf"
			},
			{
				"type": "occ",
				"energy": -0.20765,
				"method": "rhf"
			},
			{
				"type": "occ",
				"energy": -0.17777,
				"method": "rhf"
			},
			{
				"type": "unocc",
				"energy": -0.00632,
				"method": "rhf"
			},
			{
				"type": "unocc",
				"energy": 0.0072,
				"method": "rhf"
			},
			{
				"type": "unocc",
				"energy": 0.05508,
				"method": "rhf"
			},
			{
				"type": "unocc",
				"energy": 0.07445,
				"method": "rhf"
			},
			{
				"type": "unocc",
				"energy": 0.09745,
				"method": "rhf"
			}
		],
		"cosmo_sigma_profile": { 
			"-0.025": 0.0,
			"-0.024": 0.0,
			"-0.023": 0.0,
			"-0.022": 0.0,
			"-0.021": 0.0,
			"-0.02": 0.0,
			"-0.019": 0.0,
			"-0.018": 0.0,
			"-0.017": 0.0,
			"-0.016": 0.0,
			"-0.015": 0.0,
			"-0.014": 0.0,
			"-0.013": 0.559275975293,
			"-0.012": 2.88145430213,
			"-0.011": 2.68299808506,
			"-0.01": 3.15197966397,
			"-0.009": 3.17800899534,
			"-0.008": 2.64503162098,
			"-0.007": 3.70425984961,
			"-0.006": 6.68431862737,
			"-0.005": 8.70923560933,
			"-0.004": 16.2468581894,
			"-0.003": 21.1718544457,
			"-0.002": 21.6535890292,
			"-0.001": 24.0474612678,
			"0.0": 26.3006264155,
			"0.001": 20.4708831866,
			"0.002": 13.3803409463,
			"0.003": 11.5622462182,
			"0.004": 11.9240450487,
			"0.005": 14.0297219648,
			"0.006": 11.0860980876,
			"0.007": 4.32861503007,
			"0.008": 4.98048889246,
			"0.009": 4.52767049008,
			"0.01": 4.6140113608,
			"0.011": 0.650755116043,
			"0.012": 0.874254082774,
			"0.013": 0.445988585791,
			"0.014": 0.541704800069,
			"0.015": 0.0110876559889,
			"0.016": 0.0,
			"0.017": 0.0,
			"0.018": 0.0,
			"0.019": 0.0,
			"0.02": 0.0,
			"0.021": 0.0,
			"0.022": 0.0,
			"0.023": 0.0,
			"0.024": 0.0,
			"0.025": 0.0
		}
	}
}
