{
	 "smiles": "NC1=CC(=O)NC(S)=N1", 
	 "Tm": 574.15, 
	 "num_atms": 14, 
	 "gaussian": { 
		 "optdone": 1, 
		 "sigma_profile": "yes", 
		 "theory": "DFT", 
		 "functional": "B3LYP", 
		 "basiset": "6-31G**", 
		 "properties": { 
			 "R2extent": 2034.2826, 
			 "electric_dipole_moment_norm": 4.300776638, 
			 "electric_quadrupole_moment_norm": 14.0909982954, 
			 "total_energy": -793.121717481, 
			 "HOMO_LUMO_gap": 0.18869, 
			 "cosmo_polarized_energy": -17.22, 
			 "cosmo_cavitation_energy": 20.47, 
			 "cosmo_dispersion_energy": -16.1, 
			 "cosmo_repulsion_energy": 1.3, 
			 "cosmo_total_nonelectrostatic_energy": 5.67, 
			 "SMD_solvation_energy": 2.68 
		},
		"coords": [
			{
				"x": 2.4207987658,
				"y": 2.911159248,
				"z": 0.3944908356,
				"element": "N" 
			},
			{
				"x": 1.2968441435,
				"y": 2.1331159945,
				"z": 0.4430196329,
				"element": "C" 
			},
			{
				"x": 1.1019722693,
				"y": 1.1492743704,
				"z": 1.3929517274,
				"element": "C" 
			},
			{
				"x": -0.0746338819,
				"y": 0.3354239345,
				"z": 1.3627830291,
				"element": "C" 
			},
			{
				"x": -0.4094602714,
				"y": -0.5725116624,
				"z": 2.1116446332,
				"element": "O" 
			},
			{
				"x": -0.9473826846,
				"y": 0.6840169525,
				"z": 0.2751941347,
				"element": "N" 
			},
			{
				"x": -0.6758944286,
				"y": 1.6757243655,
				"z": -0.6050290304,
				"element": "C" 
			},
			{
				"x": -1.9039885472,
				"y": 1.9495260588,
				"z": -1.8679099448,
				"element": "S" 
			},
			{
				"x": 0.3967977775,
				"y": 2.4091424051,
				"z": -0.5680067551,
				"element": "N" 
			},
			{
				"x": 2.3708905246,
				"y": 3.7328555903,
				"z": -0.1877291379,
				"element": "H" 
			},
			{
				"x": 3.0161012691,
				"y": 2.9583076566,
				"z": 1.2056263172,
				"element": "H" 
			},
			{
				"x": 1.8258764747,
				"y": 0.9568235625,
				"z": 2.1749251663,
				"element": "H" 
			},
			{
				"x": -1.7932363806,
				"y": 0.1300287511,
				"z": 0.2137046662,
				"element": "H" 
			},
			{
				"x": -1.2028850301,
				"y": 2.9367127727,
				"z": -2.4539652743,
				"element": "H" 
			}
		],
		 "valence_orbital": [ 
			{
				"type": "occ",
				"energy": -0.29526,
				"method": "rhf"
			},
			{
				"type": "occ",
				"energy": -0.2797,
				"method": "rhf"
			},
			{
				"type": "occ",
				"energy": -0.26671,
				"method": "rhf"
			},
			{
				"type": "occ",
				"energy": -0.25003,
				"method": "rhf"
			},
			{
				"type": "occ",
				"energy": -0.217,
				"method": "rhf"
			},
			{
				"type": "unocc",
				"energy": -0.02831,
				"method": "rhf"
			},
			{
				"type": "unocc",
				"energy": -0.01164,
				"method": "rhf"
			},
			{
				"type": "unocc",
				"energy": 0.01215,
				"method": "rhf"
			},
			{
				"type": "unocc",
				"energy": 0.05801,
				"method": "rhf"
			},
			{
				"type": "unocc",
				"energy": 0.07521,
				"method": "rhf"
			}
		],
		"cosmo_sigma_profile": { 
			"-0.025": 0.0,
			"-0.024": 0.0,
			"-0.023": 0.0,
			"-0.022": 0.0,
			"-0.021": 0.0,
			"-0.02": 0.0,
			"-0.019": 0.0,
			"-0.018": 0.0,
			"-0.017": 0.277167134899,
			"-0.016": 0.869982005779,
			"-0.015": 1.29587809513,
			"-0.014": 2.48382595587,
			"-0.013": 3.17134668446,
			"-0.012": 4.84432673249,
			"-0.011": 4.69324782148,
			"-0.01": 5.12044516121,
			"-0.009": 3.51730745738,
			"-0.008": 3.82796304195,
			"-0.007": 5.13505348619,
			"-0.006": 4.57037329122,
			"-0.005": 5.13821530879,
			"-0.004": 4.46112211275,
			"-0.003": 4.83918062846,
			"-0.002": 9.06018263226,
			"-0.001": 10.5068821934,
			"0.0": 9.94168806519,
			"0.001": 12.0089906381,
			"0.002": 10.9662018915,
			"0.003": 8.38470868343,
			"0.004": 8.90830946171,
			"0.005": 8.1181491621,
			"0.006": 6.05052265398,
			"0.007": 3.2091248303,
			"0.008": 3.33309581415,
			"0.009": 3.09817454868,
			"0.01": 2.53069427679,
			"0.011": 1.19790831326,
			"0.012": 1.88574013719,
			"0.013": 2.6477920883,
			"0.014": 6.64540506499,
			"0.015": 2.71192704853,
			"0.016": 0.287178362046,
			"0.017": 0.0,
			"0.018": 0.0,
			"0.019": 0.0,
			"0.02": 0.0,
			"0.021": 0.0,
			"0.022": 0.0,
			"0.023": 0.0,
			"0.024": 0.0,
			"0.025": 0.0
		}
	}
}
