{
	 "smiles": "CC1CCCCC11NC(=O)N(CC(O)=O)C1=O", 
	 "Tm": 430.15, 
	 "num_atms": 33, 
	 "gaussian": { 
		 "optdone": 1, 
		 "sigma_profile": "yes", 
		 "theory": "DFT", 
		 "functional": "B3LYP", 
		 "basiset": "6-31G**", 
		 "properties": { 
			 "R2extent": 4507.4317, 
			 "electric_dipole_moment_norm": 7.27246979024, 
			 "electric_quadrupole_moment_norm": 23.6040685987, 
			 "total_energy": -839.277412096, 
			 "HOMO_LUMO_gap": 0.22508, 
			 "cosmo_polarized_energy": -19.79, 
			 "cosmo_cavitation_energy": 33.7, 
			 "cosmo_dispersion_energy": -23.75, 
			 "cosmo_repulsion_energy": 1.83, 
			 "cosmo_total_nonelectrostatic_energy": 11.78, 
			 "SMD_solvation_energy": 7.3 
		},
		"coords": [
			{
				"x": -2.5885417281,
				"y": -0.5031936288,
				"z": -1.0175606124,
				"element": "C" 
			},
			{
				"x": -1.4883925678,
				"y": -1.0145716938,
				"z": -0.078494577,
				"element": "C" 
			},
			{
				"x": -0.659761048,
				"y": -2.1317728566,
				"z": -0.7599938334,
				"element": "C" 
			},
			{
				"x": 0.688518705,
				"y": -2.4377796353,
				"z": -0.0680119512,
				"element": "C" 
			},
			{
				"x": 0.674227769,
				"y": -1.9807176282,
				"z": 1.3930285199,
				"element": "C" 
			},
			{
				"x": 0.4898396332,
				"y": -0.4557052466,
				"z": 1.4846411106,
				"element": "C" 
			},
			{
				"x": -0.5834516512,
				"y": 0.1205632451,
				"z": 0.5001095032,
				"element": "C" 
			},
			{
				"x": -1.3716298274,
				"y": 1.1784469028,
				"z": 1.1349783649,
				"element": "N" 
			},
			{
				"x": -1.3165145069,
				"y": 2.3867166075,
				"z": 0.5072668744,
				"element": "C" 
			},
			{
				"x": -1.8638814781,
				"y": 3.430651438,
				"z": 0.7877169548,
				"element": "O" 
			},
			{
				"x": -0.4250907953,
				"y": 2.1972449297,
				"z": -0.5956958587,
				"element": "N" 
			},
			{
				"x": -0.0243928997,
				"y": 3.2954991283,
				"z": -1.4697953376,
				"element": "C" 
			},
			{
				"x": -0.451310878,
				"y": 3.1326269892,
				"z": -2.9418361622,
				"element": "C" 
			},
			{
				"x": -0.1101453146,
				"y": 1.9755914297,
				"z": -3.5317013617,
				"element": "O" 
			},
			{
				"x": -1.0242555247,
				"y": 4.0126234438,
				"z": -3.5346834762,
				"element": "O" 
			},
			{
				"x": 0.0627987287,
				"y": 0.9239695456,
				"z": -0.6364154839,
				"element": "C" 
			},
			{
				"x": 0.8677189176,
				"y": 0.5023347717,
				"z": -1.4670184688,
				"element": "O" 
			},
			{
				"x": -2.1672591375,
				"y": -0.0491466672,
				"z": -1.9215553344,
				"element": "H" 
			},
			{
				"x": -3.236170621,
				"y": 0.2336101432,
				"z": -0.5344676081,
				"element": "H" 
			},
			{
				"x": -3.2183892589,
				"y": -1.3383664258,
				"z": -1.3393964702,
				"element": "H" 
			},
			{
				"x": -1.9773730073,
				"y": -1.4480224468,
				"z": 0.8059597351,
				"element": "H" 
			},
			{
				"x": -0.48081081,
				"y": -1.8583030172,
				"z": -1.8043324281,
				"element": "H" 
			},
			{
				"x": -1.2895154348,
				"y": -3.0290618814,
				"z": -0.7780426889,
				"element": "H" 
			},
			{
				"x": 0.9136354964,
				"y": -3.5074083891,
				"z": -0.1337280971,
				"element": "H" 
			},
			{
				"x": 1.4914925589,
				"y": -1.9092418065,
				"z": -0.592507779,
				"element": "H" 
			},
			{
				"x": -0.1302797149,
				"y": -2.4923462157,
				"z": 1.9370686513,
				"element": "H" 
			},
			{
				"x": 1.6067503799,
				"y": -2.2554126432,
				"z": 1.8979148773,
				"element": "H" 
			},
			{
				"x": 0.197514213,
				"y": -0.1691732788,
				"z": 2.5001162895,
				"element": "H" 
			},
			{
				"x": 1.4484197814,
				"y": 0.0372496432,
				"z": 1.2897882141,
				"element": "H" 
			},
			{
				"x": -1.9833648177,
				"y": 1.0384206443,
				"z": 1.9240692066,
				"element": "H" 
			},
			{
				"x": 1.0665192832,
				"y": 3.4034996304,
				"z": -1.4287459661,
				"element": "H" 
			},
			{
				"x": -0.4934782328,
				"y": 4.1974005117,
				"z": -1.0790096361,
				"element": "H" 
			},
			{
				"x": 0.4094737886,
				"y": 1.4030744571,
				"z": -2.9216651706,
				"element": "H" 
			}
		],
		 "valence_orbital": [ 
			{
				"type": "occ",
				"energy": -0.307,
				"method": "rhf"
			},
			{
				"type": "occ",
				"energy": -0.30374,
				"method": "rhf"
			},
			{
				"type": "occ",
				"energy": -0.28798,
				"method": "rhf"
			},
			{
				"type": "occ",
				"energy": -0.278,
				"method": "rhf"
			},
			{
				"type": "occ",
				"energy": -0.2619,
				"method": "rhf"
			},
			{
				"type": "unocc",
				"energy": -0.03682,
				"method": "rhf"
			},
			{
				"type": "unocc",
				"energy": 0.00749,
				"method": "rhf"
			},
			{
				"type": "unocc",
				"energy": 0.04193,
				"method": "rhf"
			},
			{
				"type": "unocc",
				"energy": 0.05458,
				"method": "rhf"
			},
			{
				"type": "unocc",
				"energy": 0.07292,
				"method": "rhf"
			}
		],
		"cosmo_sigma_profile": { 
			"-0.025": 0.0,
			"-0.024": 0.0,
			"-0.023": 0.0,
			"-0.022": 0.0,
			"-0.021": 0.0,
			"-0.02": 0.0,
			"-0.019": 0.0,
			"-0.018": 0.0,
			"-0.017": 0.0,
			"-0.016": 0.36759947367,
			"-0.015": 1.64097664206,
			"-0.014": 0.723781374344,
			"-0.013": 1.07814983621,
			"-0.012": 1.55804577587,
			"-0.011": 0.794024166458,
			"-0.01": 2.94813196538,
			"-0.009": 4.09830897145,
			"-0.008": 4.10866909438,
			"-0.007": 5.45617908712,
			"-0.006": 9.81482997774,
			"-0.005": 13.4486753608,
			"-0.004": 15.2684841642,
			"-0.003": 27.5541745076,
			"-0.002": 32.2559392955,
			"-0.001": 28.9097135828,
			"0.0": 24.8704465021,
			"0.001": 17.9237963512,
			"0.002": 5.16070621193,
			"0.003": 5.14423402149,
			"0.004": 5.16859692576,
			"0.005": 4.59457773516,
			"0.006": 3.30909897476,
			"0.007": 5.08204984032,
			"0.008": 5.48905951658,
			"0.009": 7.26182185454,
			"0.01": 6.68873968462,
			"0.011": 9.28343576732,
			"0.012": 10.3253435743,
			"0.013": 2.80224476361,
			"0.014": 0.00206844246938,
			"0.015": 0.0,
			"0.016": 0.0,
			"0.017": 0.0,
			"0.018": 0.0,
			"0.019": 0.0,
			"0.02": 0.0,
			"0.021": 0.0,
			"0.022": 0.0,
			"0.023": 0.0,
			"0.024": 0.0,
			"0.025": 0.0
		}
	}
}
