{
	 "smiles": "[O-][N+](=O)C1=CC(OCCN2CCOCC2)=CC=C1", 
	 "Tm": 324.65, 
	 "num_atms": 34, 
	 "gaussian": { 
		 "optdone": 1, 
		 "sigma_profile": "yes", 
		 "theory": "DFT", 
		 "functional": "B3LYP", 
		 "basiset": "6-31G**", 
		 "properties": { 
			 "R2extent": 6622.1587, 
			 "electric_dipole_moment_norm": 3.73407348749, 
			 "electric_quadrupole_moment_norm": 28.4862112988, 
			 "total_energy": -877.173511136, 
			 "HOMO_LUMO_gap": 0.11992, 
			 "cosmo_polarized_energy": -12.76, 
			 "cosmo_cavitation_energy": 36.74, 
			 "cosmo_dispersion_energy": -26.15, 
			 "cosmo_repulsion_energy": 2.02, 
			 "cosmo_total_nonelectrostatic_energy": 12.62, 
			 "SMD_solvation_energy": 6.24 
		},
		"coords": [
			{
				"x": 0.8842726071,
				"y": -1.7025815897,
				"z": -4.3112466226,
				"element": "O" 
			},
			{
				"x": -0.2022404405,
				"y": -1.1817520266,
				"z": -4.5647275021,
				"element": "N" 
			},
			{
				"x": -0.7039429709,
				"y": -1.1219598123,
				"z": -5.6861239567,
				"element": "O" 
			},
			{
				"x": -0.9557039952,
				"y": -0.5878994981,
				"z": -3.4449848844,
				"element": "C" 
			},
			{
				"x": -0.391212672,
				"y": -0.6531407577,
				"z": -2.1701724787,
				"element": "C" 
			},
			{
				"x": -1.1006307739,
				"y": -0.09223709,
				"z": -1.1052154665,
				"element": "C" 
			},
			{
				"x": -0.6696917795,
				"y": -0.0866796554,
				"z": 0.1851446539,
				"element": "O" 
			},
			{
				"x": 0.5898837068,
				"y": -0.6930557719,
				"z": 0.4954653176,
				"element": "C" 
			},
			{
				"x": 0.8296596459,
				"y": -0.5819907183,
				"z": 2.0076008927,
				"element": "C" 
			},
			{
				"x": 1.058672249,
				"y": 0.7317642091,
				"z": 2.574380429,
				"element": "N" 
			},
			{
				"x": 2.287071733,
				"y": 1.3995057451,
				"z": 2.1520717083,
				"element": "C" 
			},
			{
				"x": 2.3061066357,
				"y": 2.8208480069,
				"z": 2.7052596758,
				"element": "C" 
			},
			{
				"x": 1.2474182576,
				"y": 3.620740465,
				"z": 2.1846013615,
				"element": "O" 
			},
			{
				"x": 0.0569061716,
				"y": 2.8956954552,
				"z": 1.8713145194,
				"element": "C" 
			},
			{
				"x": -0.0951409263,
				"y": 1.6342452696,
				"z": 2.7197029142,
				"element": "C" 
			},
			{
				"x": -2.3473402383,
				"y": 0.5142849069,
				"z": -1.340316671,
				"element": "C" 
			},
			{
				"x": -2.8775312397,
				"y": 0.5598346053,
				"z": -2.6247525751,
				"element": "C" 
			},
			{
				"x": -2.184844612,
				"y": 0.005731118,
				"z": -3.7043026799,
				"element": "C" 
			},
			{
				"x": 0.5694489613,
				"y": -1.1327318777,
				"z": -2.0509519138,
				"element": "H" 
			},
			{
				"x": 1.3883014154,
				"y": -0.200489411,
				"z": -0.0743494665,
				"element": "H" 
			},
			{
				"x": 0.5724066863,
				"y": -1.7539037853,
				"z": 0.2080252978,
				"element": "H" 
			},
			{
				"x": -0.0218548509,
				"y": -1.0433712649,
				"z": 2.5213584344,
				"element": "H" 
			},
			{
				"x": 1.7060644636,
				"y": -1.2080829969,
				"z": 2.2289789893,
				"element": "H" 
			},
			{
				"x": 3.1562692815,
				"y": 0.8436062693,
				"z": 2.5318966166,
				"element": "H" 
			},
			{
				"x": 2.4027403072,
				"y": 1.4600438784,
				"z": 1.0538326536,
				"element": "H" 
			},
			{
				"x": 3.2414185579,
				"y": 3.3203033799,
				"z": 2.4327748926,
				"element": "H" 
			},
			{
				"x": 2.252712703,
				"y": 2.7805577441,
				"z": 3.8045423341,
				"element": "H" 
			},
			{
				"x": 0.0514167455,
				"y": 2.622529427,
				"z": 0.8054047617,
				"element": "H" 
			},
			{
				"x": -0.7836686796,
				"y": 3.5773183648,
				"z": 2.0456166873,
				"element": "H" 
			},
			{
				"x": -0.2079748888,
				"y": 1.9294808964,
				"z": 3.7737538883,
				"element": "H" 
			},
			{
				"x": -1.0110688211,
				"y": 1.1156190556,
				"z": 2.4269766064,
				"element": "H" 
			},
			{
				"x": -2.8801652819,
				"y": 0.9409799494,
				"z": -0.4969900282,
				"element": "H" 
			},
			{
				"x": -3.8409800324,
				"y": 1.0315541411,
				"z": -2.7898267742,
				"element": "H" 
			},
			{
				"x": -2.5722779253,
				"y": 0.0262333685,
				"z": -4.714141615,
				"element": "H" 
			}
		],
		 "valence_orbital": [ 
			{
				"type": "occ",
				"energy": -0.29063,
				"method": "rhf"
			},
			{
				"type": "occ",
				"energy": -0.28202,
				"method": "rhf"
			},
			{
				"type": "occ",
				"energy": -0.24816,
				"method": "rhf"
			},
			{
				"type": "occ",
				"energy": -0.24563,
				"method": "rhf"
			},
			{
				"type": "occ",
				"energy": -0.20899,
				"method": "rhf"
			},
			{
				"type": "unocc",
				"energy": -0.08907,
				"method": "rhf"
			},
			{
				"type": "unocc",
				"energy": -0.01763,
				"method": "rhf"
			},
			{
				"type": "unocc",
				"energy": 0.00406,
				"method": "rhf"
			},
			{
				"type": "unocc",
				"energy": 0.06797,
				"method": "rhf"
			},
			{
				"type": "unocc",
				"energy": 0.07657,
				"method": "rhf"
			}
		],
		"cosmo_sigma_profile": { 
			"-0.025": 0.0,
			"-0.024": 0.0,
			"-0.023": 0.0,
			"-0.022": 0.0,
			"-0.021": 0.0,
			"-0.02": 0.0,
			"-0.019": 0.0,
			"-0.018": 0.0,
			"-0.017": 0.0,
			"-0.016": 0.0,
			"-0.015": 0.0,
			"-0.014": 0.0,
			"-0.013": 0.0,
			"-0.012": 0.0,
			"-0.011": 0.0,
			"-0.01": 0.0,
			"-0.009": 0.0,
			"-0.008": 0.733273270974,
			"-0.007": 7.20490645818,
			"-0.006": 11.556540001,
			"-0.005": 20.5703091087,
			"-0.004": 29.6530282865,
			"-0.003": 32.3526303531,
			"-0.002": 31.2325527364,
			"-0.001": 26.2902926367,
			"0.0": 21.3202729852,
			"0.001": 22.3769290279,
			"0.002": 18.9528831813,
			"0.003": 10.2863509524,
			"0.004": 6.10701701169,
			"0.005": 5.60811845726,
			"0.006": 6.61938031635,
			"0.007": 9.85020887509,
			"0.008": 9.90561612712,
			"0.009": 6.56948959669,
			"0.01": 4.59172569058,
			"0.011": 2.26992604406,
			"0.012": 1.36860246388,
			"0.013": 1.94231943927,
			"0.014": 1.89856293949,
			"0.015": 0.12073697831,
			"0.016": 0.0,
			"0.017": 0.0,
			"0.018": 0.0,
			"0.019": 0.0,
			"0.02": 0.0,
			"0.021": 0.0,
			"0.022": 0.0,
			"0.023": 0.0,
			"0.024": 0.0,
			"0.025": 0.0
		}
	}
}
