{
	 "smiles": "CCC1=CC=C(C=C1)N1CCC(=O)CC1", 
	 "Tm": 317.15, 
	 "num_atms": 32, 
	 "gaussian": { 
		 "optdone": 1, 
		 "sigma_profile": "yes", 
		 "theory": "DFT", 
		 "functional": "B3LYP", 
		 "basiset": "6-31G**", 
		 "properties": { 
			 "R2extent": 5149.1067, 
			 "electric_dipole_moment_norm": 2.56314228438, 
			 "electric_quadrupole_moment_norm": 19.2924350228, 
			 "total_energy": -635.602949644, 
			 "HOMO_LUMO_gap": 0.17195, 
			 "cosmo_polarized_energy": -10.64, 
			 "cosmo_cavitation_energy": 33.43, 
			 "cosmo_dispersion_energy": -24.27, 
			 "cosmo_repulsion_energy": 1.91, 
			 "cosmo_total_nonelectrostatic_energy": 11.07, 
			 "SMD_solvation_energy": 5.0 
		},
		"coords": [
			{
				"x": 0.4433708729,
				"y": -0.8422150086,
				"z": 4.6179363666,
				"element": "C" 
			},
			{
				"x": 1.5574444113,
				"y": -0.0665498125,
				"z": 3.8918666486,
				"element": "C" 
			},
			{
				"x": 1.2880338538,
				"y": 0.1189960462,
				"z": 2.4141569991,
				"element": "C" 
			},
			{
				"x": 1.6614061271,
				"y": -0.853274234,
				"z": 1.4752242758,
				"element": "C" 
			},
			{
				"x": 1.390313926,
				"y": -0.7098038884,
				"z": 0.1195853618,
				"element": "C" 
			},
			{
				"x": 0.7082044473,
				"y": 0.4245135964,
				"z": -0.3714978064,
				"element": "C" 
			},
			{
				"x": 0.3390897392,
				"y": 1.4072355945,
				"z": 0.5682301409,
				"element": "C" 
			},
			{
				"x": 0.630646436,
				"y": 1.2500303774,
				"z": 1.9237088387,
				"element": "C" 
			},
			{
				"x": 0.4647615462,
				"y": 0.5929421343,
				"z": -1.7437472481,
				"element": "N" 
			},
			{
				"x": 0.2053750872,
				"y": -0.5491440355,
				"z": -2.6185833664,
				"element": "C" 
			},
			{
				"x": 0.957455877,
				"y": -0.3495674978,
				"z": -3.9399999474,
				"element": "C" 
			},
			{
				"x": 0.799253536,
				"y": 1.0791576104,
				"z": -4.4543257856,
				"element": "C" 
			},
			{
				"x": 1.4557411304,
				"y": 1.5177587303,
				"z": -5.3767884626,
				"element": "O" 
			},
			{
				"x": -0.2731591185,
				"y": 1.8859312949,
				"z": -3.7376490077,
				"element": "C" 
			},
			{
				"x": -0.132078999,
				"y": 1.8465904826,
				"z": -2.1988126569,
				"element": "C" 
			},
			{
				"x": 0.6727918767,
				"y": -0.9594651034,
				"z": 5.6827104703,
				"element": "H" 
			},
			{
				"x": 0.3158827429,
				"y": -1.8405986033,
				"z": 4.1864877412,
				"element": "H" 
			},
			{
				"x": -0.5158350203,
				"y": -0.321073417,
				"z": 4.5321518498,
				"element": "H" 
			},
			{
				"x": 2.5090222532,
				"y": -0.5957358823,
				"z": 4.0274299017,
				"element": "H" 
			},
			{
				"x": 1.6804791329,
				"y": 0.9143170987,
				"z": 4.3670338594,
				"element": "H" 
			},
			{
				"x": 2.1949357248,
				"y": -1.7406601789,
				"z": 1.8095289004,
				"element": "H" 
			},
			{
				"x": 1.7444885994,
				"y": -1.4742345768,
				"z": -0.5636302974,
				"element": "H" 
			},
			{
				"x": -0.1821070906,
				"y": 2.302792113,
				"z": 0.2529452455,
				"element": "H" 
			},
			{
				"x": 0.3297589687,
				"y": 2.0345887032,
				"z": 2.6149000723,
				"element": "H" 
			},
			{
				"x": -0.8771388907,
				"y": -0.6597235908,
				"z": -2.8043073948,
				"element": "H" 
			},
			{
				"x": 0.5215714222,
				"y": -1.4702026905,
				"z": -2.1323282094,
				"element": "H" 
			},
			{
				"x": 0.5988480882,
				"y": -1.0393517055,
				"z": -4.7157404549,
				"element": "H" 
			},
			{
				"x": 2.0285380965,
				"y": -0.538730996,
				"z": -3.8133045912,
				"element": "H" 
			},
			{
				"x": -1.23823782,
				"y": 1.4474755375,
				"z": -4.0285468942,
				"element": "H" 
			},
			{
				"x": -0.2583499441,
				"y": 2.9140103147,
				"z": -4.1045560611,
				"element": "H" 
			},
			{
				"x": 0.5126713861,
				"y": 2.6706287894,
				"z": -1.8738103595,
				"element": "H" 
			},
			{
				"x": -1.1242783986,
				"y": 2.0190627978,
				"z": -1.7466681285,
				"element": "H" 
			}
		],
		 "valence_orbital": [ 
			{
				"type": "occ",
				"energy": -0.32396,
				"method": "rhf"
			},
			{
				"type": "occ",
				"energy": -0.27437,
				"method": "rhf"
			},
			{
				"type": "occ",
				"energy": -0.24498,
				"method": "rhf"
			},
			{
				"type": "occ",
				"energy": -0.24183,
				"method": "rhf"
			},
			{
				"type": "occ",
				"energy": -0.19054,
				"method": "rhf"
			},
			{
				"type": "unocc",
				"energy": -0.01859,
				"method": "rhf"
			},
			{
				"type": "unocc",
				"energy": 0.00341,
				"method": "rhf"
			},
			{
				"type": "unocc",
				"energy": 0.01691,
				"method": "rhf"
			},
			{
				"type": "unocc",
				"energy": 0.07676,
				"method": "rhf"
			},
			{
				"type": "unocc",
				"energy": 0.09491,
				"method": "rhf"
			}
		],
		"cosmo_sigma_profile": { 
			"-0.025": 0.0,
			"-0.024": 0.0,
			"-0.023": 0.0,
			"-0.022": 0.0,
			"-0.021": 0.0,
			"-0.02": 0.0,
			"-0.019": 0.0,
			"-0.018": 0.0,
			"-0.017": 0.0,
			"-0.016": 0.0,
			"-0.015": 0.0,
			"-0.014": 0.0,
			"-0.013": 0.0,
			"-0.012": 0.0,
			"-0.011": 0.0,
			"-0.01": 0.0,
			"-0.009": 0.0,
			"-0.008": 0.195960100764,
			"-0.007": 3.60638931035,
			"-0.006": 10.2334825161,
			"-0.005": 17.8320942199,
			"-0.004": 27.4620148393,
			"-0.003": 32.171140182,
			"-0.002": 31.9727363819,
			"-0.001": 23.5552206986,
			"0.0": 20.4756921668,
			"0.001": 18.5829710015,
			"0.002": 13.0109220984,
			"0.003": 8.55313773259,
			"0.004": 7.3850798199,
			"0.005": 9.16798653887,
			"0.006": 9.74714539465,
			"0.007": 9.7025075722,
			"0.008": 3.83185292693,
			"0.009": 1.70132697185,
			"0.01": 2.02210580191,
			"0.011": 2.91614538223,
			"0.012": 4.96128536032,
			"0.013": 2.67848069919,
			"0.014": 0.359929737743,
			"0.015": 0.0,
			"0.016": 0.0,
			"0.017": 0.0,
			"0.018": 0.0,
			"0.019": 0.0,
			"0.02": 0.0,
			"0.021": 0.0,
			"0.022": 0.0,
			"0.023": 0.0,
			"0.024": 0.0,
			"0.025": 0.0
		}
	}
}
