{
	 "smiles": "CCOC(=O)C1=C(NN=C1)S(N)(=O)=O", 
	 "Tm": 445.15, 
	 "num_atms": 23, 
	 "gaussian": { 
		 "optdone": 1, 
		 "sigma_profile": "yes", 
		 "theory": "DFT", 
		 "functional": "B3LYP", 
		 "basiset": "6-31G**", 
		 "properties": { 
			 "R2extent": 3137.8977, 
			 "electric_dipole_moment_norm": 3.70454343206, 
			 "electric_quadrupole_moment_norm": 16.8706049302, 
			 "total_energy": -1097.31867317, 
			 "HOMO_LUMO_gap": 0.22251, 
			 "cosmo_polarized_energy": -20.81, 
			 "cosmo_cavitation_energy": 29.05, 
			 "cosmo_dispersion_energy": -21.14, 
			 "cosmo_repulsion_energy": 1.62, 
			 "cosmo_total_nonelectrostatic_energy": 9.53, 
			 "SMD_solvation_energy": 4.65 
		},
		"coords": [
			{
				"x": -3.2590601406,
				"y": -0.742697126,
				"z": 1.89673523,
				"element": "C" 
			},
			{
				"x": -3.128304099,
				"y": 0.6162691839,
				"z": 1.2369402238,
				"element": "C" 
			},
			{
				"x": -1.8162636218,
				"y": 0.6783902845,
				"z": 0.6151756565,
				"element": "O" 
			},
			{
				"x": -1.5767395559,
				"y": 1.7789198305,
				"z": -0.1454489261,
				"element": "C" 
			},
			{
				"x": -2.3388650356,
				"y": 2.7200535471,
				"z": -0.2184926346,
				"element": "O" 
			},
			{
				"x": -0.2964106006,
				"y": 1.7015393934,
				"z": -0.8631341387,
				"element": "C" 
			},
			{
				"x": 0.6059856561,
				"y": 0.6508804873,
				"z": -1.0306762153,
				"element": "C" 
			},
			{
				"x": 1.6135546484,
				"y": 1.1335192622,
				"z": -1.79183178,
				"element": "N" 
			},
			{
				"x": 1.4482806016,
				"y": 2.4236528513,
				"z": -2.1415491242,
				"element": "N" 
			},
			{
				"x": 0.2924483373,
				"y": 2.7710888555,
				"z": -1.583357502,
				"element": "C" 
			},
			{
				"x": 0.6620449139,
				"y": -1.0698231516,
				"z": -0.5430759616,
				"element": "S" 
			},
			{
				"x": 0.5893290274,
				"y": -1.0834213198,
				"z": 1.1187385377,
				"element": "N" 
			},
			{
				"x": 2.0115726567,
				"y": -1.4996951322,
				"z": -0.9179104614,
				"element": "O" 
			},
			{
				"x": -0.5375070225,
				"y": -1.7272682238,
				"z": -1.0394653177,
				"element": "O" 
			},
			{
				"x": -2.5318401045,
				"y": -0.868192686,
				"z": 2.705733487,
				"element": "H" 
			},
			{
				"x": -4.2588405116,
				"y": -0.8457914965,
				"z": 2.3292704842,
				"element": "H" 
			},
			{
				"x": -3.1114387903,
				"y": -1.5438829806,
				"z": 1.1675850895,
				"element": "H" 
			},
			{
				"x": -3.2152574194,
				"y": 1.4397123067,
				"z": 1.9522210706,
				"element": "H" 
			},
			{
				"x": -3.881724474,
				"y": 0.7694711229,
				"z": 0.4597286063,
				"element": "H" 
			},
			{
				"x": 2.422308299,
				"y": 0.6044943824,
				"z": -2.0931747324,
				"element": "H" 
			},
			{
				"x": -0.1012898621,
				"y": 3.7709965869,
				"z": -1.6979953044,
				"element": "H" 
			},
			{
				"x": -0.2614585392,
				"y": -0.6291971272,
				"z": 1.4452619322,
				"element": "H" 
			},
			{
				"x": 1.4367756369,
				"y": -0.7176188509,
				"z": 1.5423217804,
				"element": "H" 
			}
		],
		 "valence_orbital": [ 
			{
				"type": "occ",
				"energy": -0.31673,
				"method": "rhf"
			},
			{
				"type": "occ",
				"energy": -0.31312,
				"method": "rhf"
			},
			{
				"type": "occ",
				"energy": -0.29551,
				"method": "rhf"
			},
			{
				"type": "occ",
				"energy": -0.29034,
				"method": "rhf"
			},
			{
				"type": "occ",
				"energy": -0.28042,
				"method": "rhf"
			},
			{
				"type": "unocc",
				"energy": -0.05791,
				"method": "rhf"
			},
			{
				"type": "unocc",
				"energy": -0.00937,
				"method": "rhf"
			},
			{
				"type": "unocc",
				"energy": 0.04362,
				"method": "rhf"
			},
			{
				"type": "unocc",
				"energy": 0.05473,
				"method": "rhf"
			},
			{
				"type": "unocc",
				"energy": 0.06408,
				"method": "rhf"
			}
		],
		"cosmo_sigma_profile": { 
			"-0.025": 0.0,
			"-0.024": 0.0,
			"-0.023": 0.0,
			"-0.022": 0.0,
			"-0.021": 0.0,
			"-0.02": 0.0,
			"-0.019": 0.0,
			"-0.018": 0.260665269439,
			"-0.017": 0.688577846508,
			"-0.016": 2.03540710762,
			"-0.015": 2.49746552305,
			"-0.014": 2.64974512904,
			"-0.013": 2.13244242507,
			"-0.012": 2.63680001977,
			"-0.011": 2.23696420902,
			"-0.01": 2.22464261217,
			"-0.009": 4.07713321848,
			"-0.008": 5.93833989885,
			"-0.007": 4.46685080932,
			"-0.006": 7.57405339129,
			"-0.005": 14.1411427311,
			"-0.004": 18.0946097636,
			"-0.003": 16.7525021574,
			"-0.002": 16.6092145029,
			"-0.001": 17.1279826684,
			"0.0": 14.5941146787,
			"0.001": 8.22407307393,
			"0.002": 7.60343230186,
			"0.003": 6.53095649171,
			"0.004": 7.34875396732,
			"0.005": 5.86365755418,
			"0.006": 7.09656263766,
			"0.007": 7.92002535221,
			"0.008": 7.32883368679,
			"0.009": 9.44517158973,
			"0.01": 13.5231073258,
			"0.011": 9.27439728411,
			"0.012": 3.02201233257,
			"0.013": 0.822501208055,
			"0.014": 0.43466753838,
			"0.015": 0.0,
			"0.016": 0.0,
			"0.017": 0.0,
			"0.018": 0.0,
			"0.019": 0.0,
			"0.02": 0.0,
			"0.021": 0.0,
			"0.022": 0.0,
			"0.023": 0.0,
			"0.024": 0.0,
			"0.025": 0.0
		}
	}
}
