{
	 "smiles": "COC1=C(OC)C(Br)=C(Br)C(C)=C1Br", 
	 "Tm": 363.15, 
	 "num_atms": 23, 
	 "gaussian": { 
		 "optdone": 1, 
		 "sigma_profile": "yes", 
		 "theory": "DFT", 
		 "functional": "B3LYP", 
		 "basiset": "6-31G**", 
		 "properties": { 
			 "R2extent": 6660.0251, 
			 "electric_dipole_moment_norm": 1.51341463585, 
			 "electric_quadrupole_moment_norm": 8.73430733544, 
			 "total_energy": -8213.00189656, 
			 "HOMO_LUMO_gap": 0.20676, 
			 "cosmo_polarized_energy": -5.93, 
			 "cosmo_cavitation_energy": 32.59, 
			 "cosmo_dispersion_energy": -24.21, 
			 "cosmo_repulsion_energy": 1.9, 
			 "cosmo_total_nonelectrostatic_energy": 10.29, 
			 "SMD_solvation_energy": 4.23 
		},
		"coords": [
			{
				"x": -1.5800718483,
				"y": 2.29129303,
				"z": 1.8932196882,
				"element": "C" 
			},
			{
				"x": -0.7067903959,
				"y": 1.1679075548,
				"z": 2.0941471493,
				"element": "O" 
			},
			{
				"x": -0.1174156071,
				"y": 0.6861302932,
				"z": 0.9597437074,
				"element": "C" 
			},
			{
				"x": 0.9904486148,
				"y": 1.3584633731,
				"z": 0.4204565612,
				"element": "C" 
			},
			{
				"x": 1.3984750086,
				"y": 2.5382638076,
				"z": 0.9754412235,
				"element": "O" 
			},
			{
				"x": 2.1787083878,
				"y": 2.4035429762,
				"z": 2.1747125552,
				"element": "C" 
			},
			{
				"x": 1.6325261458,
				"y": 0.8366318284,
				"z": -0.7092685356,
				"element": "C" 
			},
			{
				"x": 3.131680749,
				"y": 1.7832763187,
				"z": -1.3850310721,
				"element": "Br" 
			},
			{
				"x": 1.1614137285,
				"y": -0.3451657001,
				"z": -1.2942075766,
				"element": "C" 
			},
			{
				"x": 2.0343901282,
				"y": -1.0468705133,
				"z": -2.838409551,
				"element": "Br" 
			},
			{
				"x": 0.0549794003,
				"y": -1.0453352037,
				"z": -0.7746673128,
				"element": "C" 
			},
			{
				"x": -0.4208055992,
				"y": -2.3183377102,
				"z": -1.4274801619,
				"element": "C" 
			},
			{
				"x": -0.5680588618,
				"y": -0.4953146618,
				"z": 0.3581804661,
				"element": "C" 
			},
			{
				"x": -2.090376325,
				"y": -1.3300549617,
				"z": 1.160208672,
				"element": "Br" 
			},
			{
				"x": -1.0359183534,
				"y": 3.1337766101,
				"z": 1.456532241,
				"element": "H" 
			},
			{
				"x": -2.42350194,
				"y": 2.0130875081,
				"z": 1.2515525761,
				"element": "H" 
			},
			{
				"x": -1.9521058073,
				"y": 2.5628749682,
				"z": 2.8823900657,
				"element": "H" 
			},
			{
				"x": 1.6089185529,
				"y": 1.8875197162,
				"z": 2.9531109,
				"element": "H" 
			},
			{
				"x": 3.1106318146,
				"y": 1.8653583177,
				"z": 1.9691488086,
				"element": "H" 
			},
			{
				"x": 2.4110721588,
				"y": 3.4196890308,
				"z": 2.4973060589,
				"element": "H" 
			},
			{
				"x": -0.7077793911,
				"y": -2.1343796652,
				"z": -2.4676116525,
				"element": "H" 
			},
			{
				"x": -1.2749819732,
				"y": -2.7369181671,
				"z": -0.8992047558,
				"element": "H" 
			},
			{
				"x": 0.380361413,
				"y": -3.06363875,
				"z": -1.4459700549,
				"element": "H" 
			}
		],
		 "valence_orbital": [ 
			{
				"type": "occ",
				"energy": -0.28765,
				"method": "rhf"
			},
			{
				"type": "occ",
				"energy": -0.27955,
				"method": "rhf"
			},
			{
				"type": "occ",
				"energy": -0.27023,
				"method": "rhf"
			},
			{
				"type": "occ",
				"energy": -0.24293,
				"method": "rhf"
			},
			{
				"type": "occ",
				"energy": -0.23816,
				"method": "rhf"
			},
			{
				"type": "unocc",
				"energy": -0.0314,
				"method": "rhf"
			},
			{
				"type": "unocc",
				"energy": -0.02845,
				"method": "rhf"
			},
			{
				"type": "unocc",
				"energy": -0.02412,
				"method": "rhf"
			},
			{
				"type": "unocc",
				"energy": 0.00698,
				"method": "rhf"
			},
			{
				"type": "unocc",
				"energy": 0.0412,
				"method": "rhf"
			}
		],
		"cosmo_sigma_profile": { 
			"-0.025": 0.0,
			"-0.024": 0.0,
			"-0.023": 0.0,
			"-0.022": 0.0,
			"-0.021": 0.0,
			"-0.02": 0.0,
			"-0.019": 0.0,
			"-0.018": 0.0,
			"-0.017": 0.0,
			"-0.016": 0.0,
			"-0.015": 0.0,
			"-0.014": 0.0,
			"-0.013": 0.0,
			"-0.012": 0.0,
			"-0.011": 0.0,
			"-0.01": 0.0,
			"-0.009": 0.0,
			"-0.008": 0.0,
			"-0.007": 0.302922392403,
			"-0.006": 4.33367886622,
			"-0.005": 14.445885091,
			"-0.004": 22.7352146672,
			"-0.003": 32.0879266578,
			"-0.002": 23.872053101,
			"-0.001": 27.9949602185,
			"0.0": 32.9141037981,
			"0.001": 24.7260583124,
			"0.002": 20.6045596902,
			"0.003": 21.3769541154,
			"0.004": 20.42097007,
			"0.005": 8.89606607225,
			"0.006": 3.96661695844,
			"0.007": 2.87155691665,
			"0.008": 1.57811661054,
			"0.009": 2.84066056899,
			"0.01": 2.02216480321,
			"0.011": 0.841068745548,
			"0.012": 0.0,
			"0.013": 0.0,
			"0.014": 0.0,
			"0.015": 0.0,
			"0.016": 0.0,
			"0.017": 0.0,
			"0.018": 0.0,
			"0.019": 0.0,
			"0.02": 0.0,
			"0.021": 0.0,
			"0.022": 0.0,
			"0.023": 0.0,
			"0.024": 0.0,
			"0.025": 0.0
		}
	}
}
