{
	 "smiles": "COC(=O)[C@]1(O)C2=C(C=CC=C2)C2=C1C=C(Cl)C=C2", 
	 "Tm": 428.15, 
	 "num_atms": 30, 
	 "gaussian": { 
		 "optdone": 1, 
		 "sigma_profile": "yes", 
		 "theory": "DFT", 
		 "functional": "B3LYP", 
		 "basiset": "6-31G**", 
		 "properties": { 
			 "R2extent": 6682.428, 
			 "electric_dipole_moment_norm": 3.87938324222, 
			 "electric_quadrupole_moment_norm": 22.9278950554, 
			 "total_energy": -1264.09378946, 
			 "HOMO_LUMO_gap": 0.17474, 
			 "cosmo_polarized_energy": -13.67, 
			 "cosmo_cavitation_energy": 36.39, 
			 "cosmo_dispersion_energy": -25.45, 
			 "cosmo_repulsion_energy": 1.96, 
			 "cosmo_total_nonelectrostatic_energy": 12.9, 
			 "SMD_solvation_energy": 6.88 
		},
		"coords": [
			{
				"x": 0.0505033719,
				"y": 1.2532606246,
				"z": -4.1550467966,
				"element": "C" 
			},
			{
				"x": 0.4433796267,
				"y": 1.4142110398,
				"z": -2.7786403215,
				"element": "O" 
			},
			{
				"x": -0.5580481237,
				"y": 1.2992907671,
				"z": -1.8689746044,
				"element": "C" 
			},
			{
				"x": -1.7072459743,
				"y": 1.076124173,
				"z": -2.1615246026,
				"element": "O" 
			},
			{
				"x": 0.0160881847,
				"y": 1.4368947906,
				"z": -0.442767921,
				"element": "C" 
			},
			{
				"x": 1.0935172519,
				"y": 2.3583856298,
				"z": -0.4157125241,
				"element": "O" 
			},
			{
				"x": 0.3658454056,
				"y": 0.0267318012,
				"z": 0.0619287152,
				"element": "C" 
			},
			{
				"x": -0.4344181133,
				"y": -0.3051327741,
				"z": 1.171130446,
				"element": "C" 
			},
			{
				"x": -0.2896385024,
				"y": -1.5445061022,
				"z": 1.7933052122,
				"element": "C" 
			},
			{
				"x": 0.6643414544,
				"y": -2.4394770272,
				"z": 1.2974904163,
				"element": "C" 
			},
			{
				"x": 1.4592405855,
				"y": -2.1036033897,
				"z": 0.197795843,
				"element": "C" 
			},
			{
				"x": 1.3091884714,
				"y": -0.8618330858,
				"z": -0.4336758138,
				"element": "C" 
			},
			{
				"x": -1.3139139959,
				"y": 0.83525271,
				"z": 1.4741894724,
				"element": "C" 
			},
			{
				"x": -1.0534452445,
				"y": 1.8634895092,
				"z": 0.5528285623,
				"element": "C" 
			},
			{
				"x": -1.7033209827,
				"y": 3.0850117093,
				"z": 0.6227445334,
				"element": "C" 
			},
			{
				"x": -2.6491684829,
				"y": 3.257947288,
				"z": 1.6379393595,
				"element": "C" 
			},
			{
				"x": -3.4968991792,
				"y": 4.793407775,
				"z": 1.7640027727,
				"element": "Cl" 
			},
			{
				"x": -2.9374183119,
				"y": 2.2453467796,
				"z": 2.556262571,
				"element": "C" 
			},
			{
				"x": -2.2642932159,
				"y": 1.0237741209,
				"z": 2.4771721755,
				"element": "C" 
			},
			{
				"x": -0.3820384369,
				"y": 0.2626673921,
				"z": -4.3123727194,
				"element": "H" 
			},
			{
				"x": 0.9627422883,
				"y": 1.3738471193,
				"z": -4.7385670691,
				"element": "H" 
			},
			{
				"x": -0.6863614705,
				"y": 2.011235393,
				"z": -4.4296109668,
				"element": "H" 
			},
			{
				"x": 1.611451129,
				"y": 2.2115315375,
				"z": -1.2199215832,
				"element": "H" 
			},
			{
				"x": -0.9012415996,
				"y": -1.8147856802,
				"z": 2.6494321771,
				"element": "H" 
			},
			{
				"x": 0.7892741283,
				"y": -3.4075431307,
				"z": 1.7739698693,
				"element": "H" 
			},
			{
				"x": 2.1961552142,
				"y": -2.8108301751,
				"z": -0.1711099821,
				"element": "H" 
			},
			{
				"x": 1.9209131605,
				"y": -0.6038707482,
				"z": -1.2938098586,
				"element": "H" 
			},
			{
				"x": -1.4892761014,
				"y": 3.884430175,
				"z": -0.0773786023,
				"element": "H" 
			},
			{
				"x": -3.679192324,
				"y": 2.4176590323,
				"z": 3.3281946903,
				"element": "H" 
			},
			{
				"x": -2.4842202133,
				"y": 0.2409827458,
				"z": 3.1970265494,
				"element": "H" 
			}
		],
		 "valence_orbital": [ 
			{
				"type": "occ",
				"energy": -0.27837,
				"method": "rhf"
			},
			{
				"type": "occ",
				"energy": -0.26833,
				"method": "rhf"
			},
			{
				"type": "occ",
				"energy": -0.261,
				"method": "rhf"
			},
			{
				"type": "occ",
				"energy": -0.25608,
				"method": "rhf"
			},
			{
				"type": "occ",
				"energy": -0.21963,
				"method": "rhf"
			},
			{
				"type": "unocc",
				"energy": -0.04489,
				"method": "rhf"
			},
			{
				"type": "unocc",
				"energy": -0.0306,
				"method": "rhf"
			},
			{
				"type": "unocc",
				"energy": -0.00979,
				"method": "rhf"
			},
			{
				"type": "unocc",
				"energy": 0.01092,
				"method": "rhf"
			},
			{
				"type": "unocc",
				"energy": 0.03176,
				"method": "rhf"
			}
		],
		"cosmo_sigma_profile": { 
			"-0.025": 0.0,
			"-0.024": 0.0,
			"-0.023": 0.0,
			"-0.022": 0.0,
			"-0.021": 0.0,
			"-0.02": 0.0,
			"-0.019": 0.0,
			"-0.018": 0.0,
			"-0.017": 0.0,
			"-0.016": 0.0,
			"-0.015": 0.0,
			"-0.014": 0.274602671468,
			"-0.013": 0.478638551241,
			"-0.012": 0.56547791253,
			"-0.011": 0.577930434629,
			"-0.01": 0.451843340359,
			"-0.009": 0.940168799187,
			"-0.008": 2.31926827188,
			"-0.007": 11.1997976211,
			"-0.006": 21.3366367263,
			"-0.005": 21.9426107767,
			"-0.004": 23.7674686966,
			"-0.003": 18.2933836242,
			"-0.002": 16.7200271523,
			"-0.001": 15.9713742338,
			"0.0": 18.1884458206,
			"0.001": 22.3477038508,
			"0.002": 26.48370023,
			"0.003": 26.0227798168,
			"0.004": 25.126578374,
			"0.005": 13.3310968356,
			"0.006": 3.78019530455,
			"0.007": 3.39028799506,
			"0.008": 3.74994191352,
			"0.009": 2.68797089127,
			"0.01": 4.24743694826,
			"0.011": 6.38659563859,
			"0.012": 2.62027471841,
			"0.013": 0.441210455301,
			"0.014": 0.0,
			"0.015": 0.0,
			"0.016": 0.0,
			"0.017": 0.0,
			"0.018": 0.0,
			"0.019": 0.0,
			"0.02": 0.0,
			"0.021": 0.0,
			"0.022": 0.0,
			"0.023": 0.0,
			"0.024": 0.0,
			"0.025": 0.0
		}
	}
}
