{
	 "smiles": "NC1=CC=C(SSC2=CC=C(N)C=C2)C=C1", 
	 "Tm": 350.15, 
	 "num_atms": 28, 
	 "gaussian": { 
		 "optdone": 1, 
		 "sigma_profile": "yes", 
		 "theory": "DFT", 
		 "functional": "B3LYP", 
		 "basiset": "6-31G**", 
		 "properties": { 
			 "R2extent": 6660.9546, 
			 "electric_dipole_moment_norm": 5.86147257777, 
			 "electric_quadrupole_moment_norm": 29.3058579997, 
			 "total_energy": -1370.39695108, 
			 "HOMO_LUMO_gap": 0.1568, 
			 "cosmo_polarized_energy": -18.8, 
			 "cosmo_cavitation_energy": 36.1, 
			 "cosmo_dispersion_energy": -25.8, 
			 "cosmo_repulsion_energy": 1.97, 
			 "cosmo_total_nonelectrostatic_energy": 12.26, 
			 "SMD_solvation_energy": 4.7 
		},
		"coords": [
			{
				"x": 1.9596854807,
				"y": -2.5750730787,
				"z": -3.9360066754,
				"element": "N" 
			},
			{
				"x": 1.5826731592,
				"y": -1.3227741998,
				"z": -3.4647816255,
				"element": "C" 
			},
			{
				"x": 2.534529534,
				"y": -0.2959172839,
				"z": -3.3147373684,
				"element": "C" 
			},
			{
				"x": 2.1477783416,
				"y": 0.970875179,
				"z": -2.8965021023,
				"element": "C" 
			},
			{
				"x": 0.8029410344,
				"y": 1.2563481776,
				"z": -2.6126506305,
				"element": "C" 
			},
			{
				"x": 0.2978085237,
				"y": 2.8961458275,
				"z": -2.1266838982,
				"element": "S" 
			},
			{
				"x": 0.5043791982,
				"y": 2.9380005612,
				"z": 0.0002509805,
				"element": "S" 
			},
			{
				"x": -1.0027268585,
				"y": 2.2224076553,
				"z": 0.6301056978,
				"element": "C" 
			},
			{
				"x": -2.1274240891,
				"y": 3.0220064265,
				"z": 0.8876281156,
				"element": "C" 
			},
			{
				"x": -3.2873154288,
				"y": 2.471133255,
				"z": 1.4172274567,
				"element": "C" 
			},
			{
				"x": -3.3589214045,
				"y": 1.095379519,
				"z": 1.7089721087,
				"element": "C" 
			},
			{
				"x": -4.4992130352,
				"y": 0.5527116629,
				"z": 2.290084285,
				"element": "N" 
			},
			{
				"x": -2.2309174958,
				"y": 0.2938584647,
				"z": 1.4528272653,
				"element": "C" 
			},
			{
				"x": -1.0728729993,
				"y": 0.8512437421,
				"z": 0.9225545365,
				"element": "C" 
			},
			{
				"x": -0.146634657,
				"y": 0.2336268881,
				"z": -2.7639072553,
				"element": "C" 
			},
			{
				"x": 0.2340913841,
				"y": -1.0363352716,
				"z": -3.182507765,
				"element": "C" 
			},
			{
				"x": 2.9311407606,
				"y": -2.8211899375,
				"z": -3.8102739484,
				"element": "H" 
			},
			{
				"x": 1.3331862849,
				"y": -3.3370019997,
				"z": -3.719221389,
				"element": "H" 
			},
			{
				"x": 3.5797048249,
				"y": -0.4988602829,
				"z": -3.5355463515,
				"element": "H" 
			},
			{
				"x": 2.8927579942,
				"y": 1.7522732061,
				"z": -2.7836048652,
				"element": "H" 
			},
			{
				"x": -2.087214694,
				"y": 4.0838775214,
				"z": 0.6659546707,
				"element": "H" 
			},
			{
				"x": -4.1477720273,
				"y": 3.1055927509,
				"z": 1.6157432172,
				"element": "H" 
			},
			{
				"x": -5.3554905672,
				"y": 1.0701633889,
				"z": 2.1517244116,
				"element": "H" 
			},
			{
				"x": -4.6228830758,
				"y": -0.4432584848,
				"z": 2.1770309654,
				"element": "H" 
			},
			{
				"x": -2.2668596451,
				"y": -0.7689650616,
				"z": 1.6800400103,
				"element": "H" 
			},
			{
				"x": -0.2098972047,
				"y": 0.2216151069,
				"z": 0.7307244701,
				"element": "H" 
			},
			{
				"x": -1.1903668691,
				"y": 0.4409684779,
				"z": -2.5503833115,
				"element": "H" 
			},
			{
				"x": -0.514766469,
				"y": -1.8158522107,
				"z": -3.3011610053,
				"element": "H" 
			}
		],
		 "valence_orbital": [ 
			{
				"type": "occ",
				"energy": -0.24983,
				"method": "rhf"
			},
			{
				"type": "occ",
				"energy": -0.23393,
				"method": "rhf"
			},
			{
				"type": "occ",
				"energy": -0.22248,
				"method": "rhf"
			},
			{
				"type": "occ",
				"energy": -0.21301,
				"method": "rhf"
			},
			{
				"type": "occ",
				"energy": -0.19868,
				"method": "rhf"
			},
			{
				"type": "unocc",
				"energy": -0.04188,
				"method": "rhf"
			},
			{
				"type": "unocc",
				"energy": -0.00397,
				"method": "rhf"
			},
			{
				"type": "unocc",
				"energy": 0.00257,
				"method": "rhf"
			},
			{
				"type": "unocc",
				"energy": 0.01222,
				"method": "rhf"
			},
			{
				"type": "unocc",
				"energy": 0.03666,
				"method": "rhf"
			}
		],
		"cosmo_sigma_profile": { 
			"-0.025": 0.0,
			"-0.024": 0.0,
			"-0.023": 0.0,
			"-0.022": 0.0,
			"-0.021": 0.0,
			"-0.02": 0.0,
			"-0.019": 0.0,
			"-0.018": 0.0,
			"-0.017": 0.0,
			"-0.016": 0.0,
			"-0.015": 0.0,
			"-0.014": 0.0220035642737,
			"-0.013": 3.19570358493,
			"-0.012": 5.8236507113,
			"-0.011": 5.83857578263,
			"-0.01": 5.3518261218,
			"-0.009": 7.01948355456,
			"-0.008": 6.2839886339,
			"-0.007": 7.65803567572,
			"-0.006": 12.0272127974,
			"-0.005": 14.711429817,
			"-0.004": 15.2091879435,
			"-0.003": 12.479978196,
			"-0.002": 13.0308718372,
			"-0.001": 12.0599728407,
			"0.0": 10.8455666243,
			"0.001": 17.7060949476,
			"0.002": 25.7060139847,
			"0.003": 22.1244174839,
			"0.004": 26.185931744,
			"0.005": 31.4995641368,
			"0.006": 15.5895016584,
			"0.007": 6.44298249314,
			"0.008": 6.11957245179,
			"0.009": 3.34129408128,
			"0.01": 1.17431438608,
			"0.011": 1.40401041287,
			"0.012": 1.29150409286,
			"0.013": 1.07183672017,
			"0.014": 0.10398526316,
			"0.015": 0.0,
			"0.016": 0.0,
			"0.017": 0.0,
			"0.018": 0.0,
			"0.019": 0.0,
			"0.02": 0.0,
			"0.021": 0.0,
			"0.022": 0.0,
			"0.023": 0.0,
			"0.024": 0.0,
			"0.025": 0.0
		}
	}
}
