{
	 "smiles": "CC(C)(C)OC(=O)N1CCC(CC(O)=O)CC1", 
	 "Tm": 372.15, 
	 "num_atms": 38, 
	 "gaussian": { 
		 "optdone": 1, 
		 "sigma_profile": "yes", 
		 "theory": "DFT", 
		 "functional": "B3LYP", 
		 "basiset": "6-31G**", 
		 "properties": { 
			 "R2extent": 6059.4195, 
			 "electric_dipole_moment_norm": 3.67041077538, 
			 "electric_quadrupole_moment_norm": 31.8628664597, 
			 "total_energy": -825.630803999, 
			 "HOMO_LUMO_gap": 0.22529, 
			 "cosmo_polarized_energy": -18.92, 
			 "cosmo_cavitation_energy": 37.73, 
			 "cosmo_dispersion_energy": -26.21, 
			 "cosmo_repulsion_energy": 2.04, 
			 "cosmo_total_nonelectrostatic_energy": 13.55, 
			 "SMD_solvation_energy": 7.42 
		},
		"coords": [
			{
				"x": -0.2570893749,
				"y": -3.3098610286,
				"z": -0.2032056486,
				"element": "C" 
			},
			{
				"x": -0.0215388311,
				"y": -2.4501626537,
				"z": 1.0435732397,
				"element": "C" 
			},
			{
				"x": -1.2910021797,
				"y": -2.2899076796,
				"z": 1.8873828213,
				"element": "C" 
			},
			{
				"x": 1.1203563305,
				"y": -3.0236974629,
				"z": 1.8875612484,
				"element": "C" 
			},
			{
				"x": 0.5000716774,
				"y": -1.1309947687,
				"z": 0.6580262779,
				"element": "O" 
			},
			{
				"x": -0.2299884076,
				"y": -0.2958585722,
				"z": -0.1234501199,
				"element": "C" 
			},
			{
				"x": -1.3530924356,
				"y": -0.5325113887,
				"z": -0.5516185446,
				"element": "O" 
			},
			{
				"x": 0.4528621969,
				"y": 0.8638792383,
				"z": -0.3822735315,
				"element": "N" 
			},
			{
				"x": 1.7755227561,
				"y": 1.2096118166,
				"z": 0.1379022257,
				"element": "C" 
			},
			{
				"x": 1.7016746981,
				"y": 2.4912469749,
				"z": 0.985807923,
				"element": "C" 
			},
			{
				"x": 0.9787292806,
				"y": 3.67529183,
				"z": 0.2971408089,
				"element": "C" 
			},
			{
				"x": 1.8945737279,
				"y": 4.5472312828,
				"z": -0.611332347,
				"element": "C" 
			},
			{
				"x": 2.5397233651,
				"y": 3.8725083267,
				"z": -1.8144839721,
				"element": "C" 
			},
			{
				"x": 1.8709622842,
				"y": 3.9724081441,
				"z": -2.9987596231,
				"element": "O" 
			},
			{
				"x": 3.5834218902,
				"y": 3.2683921632,
				"z": -1.7696915716,
				"element": "O" 
			},
			{
				"x": -0.3302726759,
				"y": 3.1952987469,
				"z": -0.3750156167,
				"element": "C" 
			},
			{
				"x": -0.1806985339,
				"y": 1.8999000484,
				"z": -1.1893330838,
				"element": "C" 
			},
			{
				"x": -1.0548531141,
				"y": -2.8936988678,
				"z": -0.8183168341,
				"element": "H" 
			},
			{
				"x": 0.6582301634,
				"y": -3.3695742715,
				"z": -0.8006649167,
				"element": "H" 
			},
			{
				"x": -0.5329399284,
				"y": -4.3258719123,
				"z": 0.0978809282,
				"element": "H" 
			},
			{
				"x": -1.0955848529,
				"y": -1.6398735698,
				"z": 2.7464776352,
				"element": "H" 
			},
			{
				"x": -2.099825122,
				"y": -1.8616235707,
				"z": 1.2954611348,
				"element": "H" 
			},
			{
				"x": -1.6062674469,
				"y": -3.2674415845,
				"z": 2.2669331374,
				"element": "H" 
			},
			{
				"x": 1.3177453339,
				"y": -2.3869933836,
				"z": 2.7551471088,
				"element": "H" 
			},
			{
				"x": 2.0382544084,
				"y": -3.0968140279,
				"z": 1.2969385768,
				"element": "H" 
			},
			{
				"x": 0.8580279165,
				"y": -4.0238680903,
				"z": 2.2451456404,
				"element": "H" 
			},
			{
				"x": 2.1438341814,
				"y": 0.3822958821,
				"z": 0.7406603973,
				"element": "H" 
			},
			{
				"x": 2.4664216565,
				"y": 1.3460254185,
				"z": -0.7015796752,
				"element": "H" 
			},
			{
				"x": 2.7149498827,
				"y": 2.7866608228,
				"z": 1.2808156069,
				"element": "H" 
			},
			{
				"x": 1.1540074768,
				"y": 2.2539947284,
				"z": 1.9063306905,
				"element": "H" 
			},
			{
				"x": 0.686801173,
				"y": 4.3711713652,
				"z": 1.0938670265,
				"element": "H" 
			},
			{
				"x": 2.7233148899,
				"y": 4.9173923335,
				"z": -0.0011125929,
				"element": "H" 
			},
			{
				"x": 1.3180651428,
				"y": 5.4225122767,
				"z": -0.9389466643,
				"element": "H" 
			},
			{
				"x": 1.0628853129,
				"y": 4.4913611786,
				"z": -2.8840293955,
				"element": "H" 
			},
			{
				"x": -0.7500600633,
				"y": 3.987962698,
				"z": -1.0100755594,
				"element": "H" 
			},
			{
				"x": -1.0701298946,
				"y": 3.0090790861,
				"z": 0.4126604292,
				"element": "H" 
			},
			{
				"x": 0.4228167439,
				"y": 2.0708667463,
				"z": -2.0904567953,
				"element": "H" 
			},
			{
				"x": -1.1556096282,
				"y": 1.527061725,
				"z": -1.5030663645,
				"element": "H" 
			}
		],
		 "valence_orbital": [ 
			{
				"type": "occ",
				"energy": -0.31717,
				"method": "rhf"
			},
			{
				"type": "occ",
				"energy": -0.28188,
				"method": "rhf"
			},
			{
				"type": "occ",
				"energy": -0.27407,
				"method": "rhf"
			},
			{
				"type": "occ",
				"energy": -0.25431,
				"method": "rhf"
			},
			{
				"type": "occ",
				"energy": -0.23021,
				"method": "rhf"
			},
			{
				"type": "unocc",
				"energy": -0.00492,
				"method": "rhf"
			},
			{
				"type": "unocc",
				"energy": 0.03616,
				"method": "rhf"
			},
			{
				"type": "unocc",
				"energy": 0.06305,
				"method": "rhf"
			},
			{
				"type": "unocc",
				"energy": 0.08031,
				"method": "rhf"
			},
			{
				"type": "unocc",
				"energy": 0.09302,
				"method": "rhf"
			}
		],
		"cosmo_sigma_profile": { 
			"-0.025": 0.0,
			"-0.024": 0.0,
			"-0.023": 0.0,
			"-0.022": 0.0,
			"-0.021": 0.0,
			"-0.02": 0.0,
			"-0.019": 0.0010686951566,
			"-0.018": 0.501696343614,
			"-0.017": 1.03371251787,
			"-0.016": 1.24261340402,
			"-0.015": 0.941749255112,
			"-0.014": 1.63999800609,
			"-0.013": 0.749813122785,
			"-0.012": 1.78200890481,
			"-0.011": 1.23148218784,
			"-0.01": 1.53451294268,
			"-0.009": 1.29766685389,
			"-0.008": 1.48374231515,
			"-0.007": 2.32828065494,
			"-0.006": 3.32935147945,
			"-0.005": 6.05576519276,
			"-0.004": 25.1109129303,
			"-0.003": 39.1757805794,
			"-0.002": 34.9078431527,
			"-0.001": 32.7494393719,
			"0.0": 33.6561639236,
			"0.001": 26.3509924854,
			"0.002": 11.2750008237,
			"0.003": 7.71887952072,
			"0.004": 6.53758723078,
			"0.005": 7.31179707539,
			"0.006": 5.41969370454,
			"0.007": 4.26451600545,
			"0.008": 3.40587643139,
			"0.009": 4.25062572123,
			"0.01": 5.89405793219,
			"0.011": 6.33605003824,
			"0.012": 5.96291650005,
			"0.013": 5.09267708198,
			"0.014": 1.88665348484,
			"0.015": 0.0,
			"0.016": 0.0,
			"0.017": 0.0,
			"0.018": 0.0,
			"0.019": 0.0,
			"0.02": 0.0,
			"0.021": 0.0,
			"0.022": 0.0,
			"0.023": 0.0,
			"0.024": 0.0,
			"0.025": 0.0
		}
	}
}
