{
	 "smiles": "CC1=C(N)C=CC(OC2=CC=CC=C2)=C1", 
	 "Tm": 334.15, 
	 "num_atms": 28, 
	 "gaussian": { 
		 "optdone": 1, 
		 "sigma_profile": "yes", 
		 "theory": "DFT", 
		 "functional": "B3LYP", 
		 "basiset": "6-31G**", 
		 "properties": { 
			 "R2extent": 4091.5228, 
			 "electric_dipole_moment_norm": 3.11639183993, 
			 "electric_quadrupole_moment_norm": 9.47743964581, 
			 "total_energy": -633.19353953, 
			 "HOMO_LUMO_gap": 0.19628, 
			 "cosmo_polarized_energy": -10.53, 
			 "cosmo_cavitation_energy": 31.71, 
			 "cosmo_dispersion_energy": -22.91, 
			 "cosmo_repulsion_energy": 1.8, 
			 "cosmo_total_nonelectrostatic_energy": 10.6, 
			 "SMD_solvation_energy": 5.47 
		},
		"coords": [
			{
				"x": -0.1344860939,
				"y": 1.6714864779,
				"z": -3.0278231282,
				"element": "C" 
			},
			{
				"x": 0.5528538343,
				"y": 0.8543474811,
				"z": -1.9622771134,
				"element": "C" 
			},
			{
				"x": 1.9494084454,
				"y": 0.9712279308,
				"z": -1.7669687105,
				"element": "C" 
			},
			{
				"x": 2.7063036316,
				"y": 1.8135067888,
				"z": -2.5911940929,
				"element": "N" 
			},
			{
				"x": 2.575349352,
				"y": 0.1851977908,
				"z": -0.7874038578,
				"element": "C" 
			},
			{
				"x": 1.8441545803,
				"y": -0.7048688949,
				"z": -0.0036900874,
				"element": "C" 
			},
			{
				"x": 0.4693370875,
				"y": -0.8122104383,
				"z": -0.1934886792,
				"element": "C" 
			},
			{
				"x": -0.255564385,
				"y": -1.7544709468,
				"z": 0.5290344808,
				"element": "O" 
			},
			{
				"x": -0.9399832639,
				"y": -1.3676868928,
				"z": 1.6599507981,
				"element": "C" 
			},
			{
				"x": -1.7105174357,
				"y": -2.3639259222,
				"z": 2.2719618792,
				"element": "C" 
			},
			{
				"x": -2.4299225426,
				"y": -2.068577093,
				"z": 3.4265501667,
				"element": "C" 
			},
			{
				"x": -2.3903470943,
				"y": -0.7849017134,
				"z": 3.9798453498,
				"element": "C" 
			},
			{
				"x": -1.6191982677,
				"y": 0.1992726811,
				"z": 3.3621682996,
				"element": "C" 
			},
			{
				"x": -0.8902423624,
				"y": -0.0805375025,
				"z": 2.2033052663,
				"element": "C" 
			},
			{
				"x": -0.1657979585,
				"y": -0.0389522088,
				"z": -1.1653273825,
				"element": "C" 
			},
			{
				"x": 0.3170065356,
				"y": 1.5028817519,
				"z": -4.0132804648,
				"element": "H" 
			},
			{
				"x": -1.1955627389,
				"y": 1.4196208969,
				"z": -3.0943898239,
				"element": "H" 
			},
			{
				"x": -0.0701209923,
				"y": 2.7505030424,
				"z": -2.8256924732,
				"element": "H" 
			},
			{
				"x": 3.6208930626,
				"y": 2.0431157975,
				"z": -2.2263331747,
				"element": "H" 
			},
			{
				"x": 2.2255308737,
				"y": 2.6383972233,
				"z": -2.9232083642,
				"element": "H" 
			},
			{
				"x": 3.6499730826,
				"y": 0.2698456471,
				"z": -0.6441287075,
				"element": "H" 
			},
			{
				"x": 2.3312259805,
				"y": -1.3169857065,
				"z": 0.7483268621,
				"element": "H" 
			},
			{
				"x": -1.7291640002,
				"y": -3.3538578574,
				"z": 1.8277550627,
				"element": "H" 
			},
			{
				"x": -3.02586266,
				"y": -2.8462937665,
				"z": 3.8961328576,
				"element": "H" 
			},
			{
				"x": -2.953220493,
				"y": -0.5573614418,
				"z": 4.8798676031,
				"element": "H" 
			},
			{
				"x": -1.5779184214,
				"y": 1.2006910033,
				"z": 3.7820969211,
				"element": "H" 
			},
			{
				"x": -0.2911207638,
				"y": 0.6877788238,
				"z": 1.7287904431,
				"element": "H" 
			},
			{
				"x": -1.2373069927,
				"y": -0.1483429515,
				"z": -1.30587993,
				"element": "H" 
			}
		],
		 "valence_orbital": [ 
			{
				"type": "occ",
				"energy": -0.29722,
				"method": "rhf"
			},
			{
				"type": "occ",
				"energy": -0.24644,
				"method": "rhf"
			},
			{
				"type": "occ",
				"energy": -0.24171,
				"method": "rhf"
			},
			{
				"type": "occ",
				"energy": -0.21377,
				"method": "rhf"
			},
			{
				"type": "occ",
				"energy": -0.19903,
				"method": "rhf"
			},
			{
				"type": "unocc",
				"energy": -0.00275,
				"method": "rhf"
			},
			{
				"type": "unocc",
				"energy": 0.01023,
				"method": "rhf"
			},
			{
				"type": "unocc",
				"energy": 0.01681,
				"method": "rhf"
			},
			{
				"type": "unocc",
				"energy": 0.02105,
				"method": "rhf"
			},
			{
				"type": "unocc",
				"energy": 0.07319,
				"method": "rhf"
			}
		],
		"cosmo_sigma_profile": { 
			"-0.025": 0.0,
			"-0.024": 0.0,
			"-0.023": 0.0,
			"-0.022": 0.0,
			"-0.021": 0.0,
			"-0.02": 0.0,
			"-0.019": 0.0,
			"-0.018": 0.0,
			"-0.017": 0.0,
			"-0.016": 0.0,
			"-0.015": 0.0,
			"-0.014": 0.0,
			"-0.013": 0.0348990473606,
			"-0.012": 1.52095423775,
			"-0.011": 2.2748792396,
			"-0.01": 2.47227377181,
			"-0.009": 4.12362789084,
			"-0.008": 2.65759704446,
			"-0.007": 3.15923314519,
			"-0.006": 9.50398294657,
			"-0.005": 17.0940418306,
			"-0.004": 21.0184634225,
			"-0.003": 20.5551708243,
			"-0.002": 16.4516456293,
			"-0.001": 16.0680567789,
			"0.0": 20.1201008227,
			"0.001": 16.6102063901,
			"0.002": 14.4278053648,
			"0.003": 16.9434329673,
			"0.004": 18.3996207331,
			"0.005": 20.439664531,
			"0.006": 15.6127185336,
			"0.007": 3.81873784213,
			"0.008": 2.21550302967,
			"0.009": 1.7981460865,
			"0.01": 1.91627760418,
			"0.011": 0.592346071303,
			"0.012": 1.16915254755,
			"0.013": 0.277936886434,
			"0.014": 0.568011536591,
			"0.015": 0.33116680787,
			"0.016": 0.0,
			"0.017": 0.0,
			"0.018": 0.0,
			"0.019": 0.0,
			"0.02": 0.0,
			"0.021": 0.0,
			"0.022": 0.0,
			"0.023": 0.0,
			"0.024": 0.0,
			"0.025": 0.0
		}
	}
}
