{
	 "smiles": "CC1=C(N)C(C)=NN1", 
	 "Tm": 465.15, 
	 "num_atms": 17, 
	 "gaussian": { 
		 "optdone": 1, 
		 "sigma_profile": "yes", 
		 "theory": "DFT", 
		 "functional": "B3LYP", 
		 "basiset": "6-31G**", 
		 "properties": { 
			 "R2extent": 1208.7101, 
			 "electric_dipole_moment_norm": 1.23407240063, 
			 "electric_quadrupole_moment_norm": 10.7969227931, 
			 "total_energy": -360.196559503, 
			 "HOMO_LUMO_gap": 0.25485, 
			 "cosmo_polarized_energy": -11.37, 
			 "cosmo_cavitation_energy": 20.43, 
			 "cosmo_dispersion_energy": -15.14, 
			 "cosmo_repulsion_energy": 1.3, 
			 "cosmo_total_nonelectrostatic_energy": 6.59, 
			 "SMD_solvation_energy": 2.98 
		},
		"coords": [
			{
				"x": 1.6346159867,
				"y": 0.8126992582,
				"z": -0.9592574165,
				"element": "C" 
			},
			{
				"x": 0.157983164,
				"y": 0.7276367949,
				"z": -0.7625341596,
				"element": "C" 
			},
			{
				"x": -0.6524815439,
				"y": -0.3741252439,
				"z": -0.5298114224,
				"element": "C" 
			},
			{
				"x": -0.1804398401,
				"y": -1.7171138643,
				"z": -0.4308242546,
				"element": "N" 
			},
			{
				"x": -1.9755890319,
				"y": 0.1456729038,
				"z": -0.4245445375,
				"element": "C" 
			},
			{
				"x": -3.244714801,
				"y": -0.6095707423,
				"z": -0.1756375132,
				"element": "C" 
			},
			{
				"x": -1.985938538,
				"y": 1.4683483989,
				"z": -0.5799654886,
				"element": "N" 
			},
			{
				"x": -0.6843280822,
				"y": 1.7955907616,
				"z": -0.7823554925,
				"element": "N" 
			},
			{
				"x": 1.8963220836,
				"y": 1.2363731484,
				"z": -1.9362689467,
				"element": "H" 
			},
			{
				"x": 2.04734783,
				"y": -0.1968302126,
				"z": -0.9009649253,
				"element": "H" 
			},
			{
				"x": 2.1182609445,
				"y": 1.4275048941,
				"z": -0.1906635195,
				"element": "H" 
			},
			{
				"x": -0.3963103644,
				"y": -2.117182093,
				"z": 0.4790369356,
				"element": "H" 
			},
			{
				"x": -0.6226813726,
				"y": -2.3144733189,
				"z": -1.1250506985,
				"element": "H" 
			},
			{
				"x": -3.4345978357,
				"y": -1.3523997221,
				"z": -0.9600368788,
				"element": "H" 
			},
			{
				"x": -3.2138550842,
				"y": -1.1499688317,
				"z": 0.7783454223,
				"element": "H" 
			},
			{
				"x": -4.0890246788,
				"y": 0.082666316,
				"z": -0.149222761,
				"element": "H" 
			},
			{
				"x": -0.445368836,
				"y": 2.7636715531,
				"z": -0.9270443432,
				"element": "H" 
			}
		],
		 "valence_orbital": [ 
			{
				"type": "occ",
				"energy": -0.35993,
				"method": "rhf"
			},
			{
				"type": "occ",
				"energy": -0.28635,
				"method": "rhf"
			},
			{
				"type": "occ",
				"energy": -0.23752,
				"method": "rhf"
			},
			{
				"type": "occ",
				"energy": -0.23157,
				"method": "rhf"
			},
			{
				"type": "occ",
				"energy": -0.22112,
				"method": "rhf"
			},
			{
				"type": "unocc",
				"energy": 0.03373,
				"method": "rhf"
			},
			{
				"type": "unocc",
				"energy": 0.07904,
				"method": "rhf"
			},
			{
				"type": "unocc",
				"energy": 0.08002,
				"method": "rhf"
			},
			{
				"type": "unocc",
				"energy": 0.09279,
				"method": "rhf"
			},
			{
				"type": "unocc",
				"energy": 0.12848,
				"method": "rhf"
			}
		],
		"cosmo_sigma_profile": { 
			"-0.025": 0.0,
			"-0.024": 0.0,
			"-0.023": 0.0,
			"-0.022": 0.0,
			"-0.021": 0.0,
			"-0.02": 0.0,
			"-0.019": 0.0,
			"-0.018": 0.0,
			"-0.017": 0.0,
			"-0.016": 0.361869802082,
			"-0.015": 1.14454389979,
			"-0.014": 1.38151868229,
			"-0.013": 1.04815731196,
			"-0.012": 0.934217248759,
			"-0.011": 0.965434651063,
			"-0.01": 3.18100535541,
			"-0.009": 3.9753895848,
			"-0.008": 3.68651179695,
			"-0.007": 3.63155594601,
			"-0.006": 2.6372211601,
			"-0.005": 5.9808700322,
			"-0.004": 13.6561656708,
			"-0.003": 14.5339210625,
			"-0.002": 12.8466085941,
			"-0.001": 13.7589803637,
			"0.0": 14.684709343,
			"0.001": 8.55712111651,
			"0.002": 4.81762447186,
			"0.003": 6.06155861869,
			"0.004": 6.19577442878,
			"0.005": 6.81579742568,
			"0.006": 6.19023801177,
			"0.007": 3.78839392319,
			"0.008": 2.78796567857,
			"0.009": 2.92607350205,
			"0.01": 2.33925242511,
			"0.011": 2.10100184085,
			"0.012": 1.55568332935,
			"0.013": 1.90274491264,
			"0.014": 1.72019918937,
			"0.015": 1.72346613605,
			"0.016": 1.38862661186,
			"0.017": 0.696260262085,
			"0.018": 0.142411338101,
			"0.019": 0.0,
			"0.02": 0.0,
			"0.021": 0.0,
			"0.022": 0.0,
			"0.023": 0.0,
			"0.024": 0.0,
			"0.025": 0.0
		}
	}
}
