{
	 "smiles": "CC(=O)C1=CC=C(C(C)=O)C(=C1)[N+]([O-])=O", 
	 "Tm": 319.15, 
	 "num_atms": 24, 
	 "gaussian": { 
		 "optdone": 1, 
		 "sigma_profile": "yes", 
		 "theory": "DFT", 
		 "functional": "B3LYP", 
		 "basiset": "6-31G**", 
		 "properties": { 
			 "R2extent": 3582.0584, 
			 "electric_dipole_moment_norm": 2.86845700682, 
			 "electric_quadrupole_moment_norm": 16.5475406309, 
			 "total_energy": -742.028703944, 
			 "HOMO_LUMO_gap": 0.15503, 
			 "cosmo_polarized_energy": -15.21, 
			 "cosmo_cavitation_energy": 29.62, 
			 "cosmo_dispersion_energy": -20.78, 
			 "cosmo_repulsion_energy": 1.63, 
			 "cosmo_total_nonelectrostatic_energy": 10.48, 
			 "SMD_solvation_energy": 8.55 
		},
		"coords": [
			{
				"x": 2.31815576,
				"y": 3.4361751327,
				"z": -1.0180833083,
				"element": "C" 
			},
			{
				"x": 0.9278316831,
				"y": 3.4262113931,
				"z": -0.4137876125,
				"element": "C" 
			},
			{
				"x": 0.3955838019,
				"y": 4.4541089852,
				"z": -0.0289553235,
				"element": "O" 
			},
			{
				"x": 0.198592448,
				"y": 2.1148467333,
				"z": -0.2902540674,
				"element": "C" 
			},
			{
				"x": -1.0982482653,
				"y": 2.1198700215,
				"z": 0.2481784387,
				"element": "C" 
			},
			{
				"x": -1.8167114919,
				"y": 0.9380205375,
				"z": 0.3828282159,
				"element": "C" 
			},
			{
				"x": -1.2657063775,
				"y": -0.2949921294,
				"z": 0.0035136682,
				"element": "C" 
			},
			{
				"x": -2.1361311251,
				"y": -1.5293822848,
				"z": 0.2068049985,
				"element": "C" 
			},
			{
				"x": -1.7753256637,
				"y": -2.4668535647,
				"z": 1.3387318228,
				"element": "C" 
			},
			{
				"x": -3.1654282956,
				"y": -1.6244383774,
				"z": -0.4290965699,
				"element": "O" 
			},
			{
				"x": 0.0219364507,
				"y": -0.2761418702,
				"z": -0.5475211449,
				"element": "C" 
			},
			{
				"x": 0.7538471634,
				"y": 0.9008983693,
				"z": -0.6975664076,
				"element": "C" 
			},
			{
				"x": 0.6345427087,
				"y": -1.5209332671,
				"z": -1.0382751779,
				"element": "N" 
			},
			{
				"x": 1.8028322124,
				"y": -1.4800070149,
				"z": -1.4166018391,
				"element": "O" 
			},
			{
				"x": -0.068106709,
				"y": -2.533815147,
				"z": -1.0474802712,
				"element": "O" 
			},
			{
				"x": 2.6885665396,
				"y": 4.461316804,
				"z": -1.0251180201,
				"element": "H" 
			},
			{
				"x": 2.3038655039,
				"y": 3.0477185304,
				"z": -2.0424946663,
				"element": "H" 
			},
			{
				"x": 3.0031217967,
				"y": 2.8060268113,
				"z": -0.4398965357,
				"element": "H" 
			},
			{
				"x": -1.5226901423,
				"y": 3.0717837235,
				"z": 0.5493354971,
				"element": "H" 
			},
			{
				"x": -2.823733375,
				"y": 0.9552609396,
				"z": 0.7873532086,
				"element": "H" 
			},
			{
				"x": -2.0879862418,
				"y": -2.001074054,
				"z": 2.2823922957,
				"element": "H" 
			},
			{
				"x": -2.3185631149,
				"y": -3.4053006974,
				"z": 1.2161981495,
				"element": "H" 
			},
			{
				"x": -0.7026444315,
				"y": -2.6574894448,
				"z": 1.3964534663,
				"element": "H" 
			},
			{
				"x": 1.7396991654,
				"y": 0.8350898703,
				"z": -1.1393588169,
				"element": "H" 
			}
		],
		 "valence_orbital": [ 
			{
				"type": "occ",
				"energy": -0.31055,
				"method": "rhf"
			},
			{
				"type": "occ",
				"energy": -0.29874,
				"method": "rhf"
			},
			{
				"type": "occ",
				"energy": -0.29411,
				"method": "rhf"
			},
			{
				"type": "occ",
				"energy": -0.27093,
				"method": "rhf"
			},
			{
				"type": "occ",
				"energy": -0.26358,
				"method": "rhf"
			},
			{
				"type": "unocc",
				"energy": -0.10855,
				"method": "rhf"
			},
			{
				"type": "unocc",
				"energy": -0.08249,
				"method": "rhf"
			},
			{
				"type": "unocc",
				"energy": -0.02672,
				"method": "rhf"
			},
			{
				"type": "unocc",
				"energy": -0.02431,
				"method": "rhf"
			},
			{
				"type": "unocc",
				"energy": 0.02017,
				"method": "rhf"
			}
		],
		"cosmo_sigma_profile": { 
			"-0.025": 0.0,
			"-0.024": 0.0,
			"-0.023": 0.0,
			"-0.022": 0.0,
			"-0.021": 0.0,
			"-0.02": 0.0,
			"-0.019": 0.0,
			"-0.018": 0.0,
			"-0.017": 0.0,
			"-0.016": 0.0,
			"-0.015": 0.0,
			"-0.014": 0.0,
			"-0.013": 0.0,
			"-0.012": 0.0,
			"-0.011": 0.0,
			"-0.01": 0.189197183258,
			"-0.009": 1.45532243022,
			"-0.008": 8.30405934249,
			"-0.007": 15.4935531432,
			"-0.006": 15.0514367983,
			"-0.005": 17.8017333579,
			"-0.004": 16.1337330083,
			"-0.003": 17.3933633867,
			"-0.002": 22.258081359,
			"-0.001": 24.2270121233,
			"0.0": 12.8050906829,
			"0.001": 8.30591729645,
			"0.002": 5.29048679905,
			"0.003": 5.94450242732,
			"0.004": 6.42514388082,
			"0.005": 6.54698538819,
			"0.006": 9.19570737938,
			"0.007": 9.52786086639,
			"0.008": 8.45276504421,
			"0.009": 7.12044294844,
			"0.01": 5.8909225278,
			"0.011": 8.62328879016,
			"0.012": 3.74541209195,
			"0.013": 0.415538335167,
			"0.014": 0.0,
			"0.015": 0.0,
			"0.016": 0.0,
			"0.017": 0.0,
			"0.018": 0.0,
			"0.019": 0.0,
			"0.02": 0.0,
			"0.021": 0.0,
			"0.022": 0.0,
			"0.023": 0.0,
			"0.024": 0.0,
			"0.025": 0.0
		}
	}
}
