{
	 "smiles": "COC1=CC=C(NC(=O)OCC(F)(F)F)C=C1", 
	 "Tm": 353.15, 
	 "num_atms": 27, 
	 "gaussian": { 
		 "optdone": 1, 
		 "sigma_profile": "yes", 
		 "theory": "DFT", 
		 "functional": "B3LYP", 
		 "basiset": "6-31G**", 
		 "properties": { 
			 "R2extent": 6537.6466, 
			 "electric_dipole_moment_norm": 3.74170870325, 
			 "electric_quadrupole_moment_norm": 8.29938753041, 
			 "total_energy": -967.045851685, 
			 "HOMO_LUMO_gap": 0.1997, 
			 "cosmo_polarized_energy": -12.69, 
			 "cosmo_cavitation_energy": 33.36, 
			 "cosmo_dispersion_energy": -23.37, 
			 "cosmo_repulsion_energy": 1.76, 
			 "cosmo_total_nonelectrostatic_energy": 11.75, 
			 "SMD_solvation_energy": 8.7 
		},
		"coords": [
			{
				"x": -0.075277505,
				"y": -5.5765717742,
				"z": 0.0668502417,
				"element": "C" 
			},
			{
				"x": -1.0380330481,
				"y": -4.5379281361,
				"z": 0.1355789454,
				"element": "O" 
			},
			{
				"x": -0.6076813625,
				"y": -3.2506475052,
				"z": -0.0144157188,
				"element": "C" 
			},
			{
				"x": -1.5979952876,
				"y": -2.2605751463,
				"z": 0.0613112214,
				"element": "C" 
			},
			{
				"x": -1.2782016734,
				"y": -0.9159870571,
				"z": -0.0681427891,
				"element": "C" 
			},
			{
				"x": 0.0523227318,
				"y": -0.5306257905,
				"z": -0.3017775319,
				"element": "C" 
			},
			{
				"x": 0.4698331939,
				"y": 0.8240078613,
				"z": -0.4028329871,
				"element": "N" 
			},
			{
				"x": -0.1658687983,
				"y": 1.9371188982,
				"z": -0.8739475817,
				"element": "C" 
			},
			{
				"x": 0.3328590178,
				"y": 3.0457743431,
				"z": -0.8888666232,
				"element": "O" 
			},
			{
				"x": -1.4175124398,
				"y": 1.6467546843,
				"z": -1.3457811429,
				"element": "O" 
			},
			{
				"x": -2.2313825636,
				"y": 2.7617795552,
				"z": -1.6805243642,
				"element": "C" 
			},
			{
				"x": -3.2485733188,
				"y": 2.9827822615,
				"z": -0.5740929512,
				"element": "C" 
			},
			{
				"x": -4.0728417179,
				"y": 3.9962869584,
				"z": -0.9083923662,
				"element": "F" 
			},
			{
				"x": -2.6529426122,
				"y": 3.2873976385,
				"z": 0.5930178936,
				"element": "F" 
			},
			{
				"x": -4.0042171292,
				"y": 1.882527212,
				"z": -0.3689508635,
				"element": "F" 
			},
			{
				"x": 1.036815605,
				"y": -1.518924252,
				"z": -0.378248725,
				"element": "C" 
			},
			{
				"x": 0.7207926649,
				"y": -2.870947068,
				"z": -0.2293589365,
				"element": "C" 
			},
			{
				"x": 0.6820344847,
				"y": -5.481239353,
				"z": 0.8561695849,
				"element": "H" 
			},
			{
				"x": -0.6248614501,
				"y": -6.508277831,
				"z": 0.2094008243,
				"element": "H" 
			},
			{
				"x": 0.4269818764,
				"y": -5.6007197737,
				"z": -0.9092202815,
				"element": "H" 
			},
			{
				"x": -2.6234333972,
				"y": -2.5686127233,
				"z": 0.2368891193,
				"element": "H" 
			},
			{
				"x": -2.058892182,
				"y": -0.1706257974,
				"z": 0.0024576848,
				"element": "H" 
			},
			{
				"x": 1.4265659755,
				"y": 1.0235943297,
				"z": -0.1479710393,
				"element": "H" 
			},
			{
				"x": -2.7617318011,
				"y": 2.5245738116,
				"z": -2.6048255141,
				"element": "H" 
			},
			{
				"x": -1.6263756599,
				"y": 3.6619796383,
				"z": -1.801699313,
				"element": "H" 
			},
			{
				"x": 2.0699852274,
				"y": -1.2337610885,
				"z": -0.5605428836,
				"element": "H" 
			},
			{
				"x": 1.5132311694,
				"y": -3.6069338958,
				"z": -0.2919839025,
				"element": "H" 
			}
		],
		 "valence_orbital": [ 
			{
				"type": "occ",
				"energy": -0.31194,
				"method": "rhf"
			},
			{
				"type": "occ",
				"energy": -0.28909,
				"method": "rhf"
			},
			{
				"type": "occ",
				"energy": -0.28573,
				"method": "rhf"
			},
			{
				"type": "occ",
				"energy": -0.25766,
				"method": "rhf"
			},
			{
				"type": "occ",
				"energy": -0.20872,
				"method": "rhf"
			},
			{
				"type": "unocc",
				"energy": -0.00902,
				"method": "rhf"
			},
			{
				"type": "unocc",
				"energy": -0.00047,
				"method": "rhf"
			},
			{
				"type": "unocc",
				"energy": 0.05496,
				"method": "rhf"
			},
			{
				"type": "unocc",
				"energy": 0.0731,
				"method": "rhf"
			},
			{
				"type": "unocc",
				"energy": 0.08967,
				"method": "rhf"
			}
		],
		"cosmo_sigma_profile": { 
			"-0.025": 0.0,
			"-0.024": 0.0,
			"-0.023": 0.0,
			"-0.022": 0.0,
			"-0.021": 0.0,
			"-0.02": 0.0,
			"-0.019": 0.0,
			"-0.018": 0.0,
			"-0.017": 0.0,
			"-0.016": 0.140559423822,
			"-0.015": 0.724739611554,
			"-0.014": 1.08006600449,
			"-0.013": 1.27260546392,
			"-0.012": 1.0733383815,
			"-0.011": 0.779724490033,
			"-0.01": 1.59247827903,
			"-0.009": 4.43030781221,
			"-0.008": 4.33788018577,
			"-0.007": 6.00017204026,
			"-0.006": 13.6844576156,
			"-0.005": 17.8201936645,
			"-0.004": 16.1432371858,
			"-0.003": 19.425775257,
			"-0.002": 14.9730415906,
			"-0.001": 13.2146609441,
			"0.0": 16.155935116,
			"0.001": 17.699003736,
			"0.002": 33.0641511818,
			"0.003": 28.5088300405,
			"0.004": 14.3898897255,
			"0.005": 14.2301032682,
			"0.006": 4.91587538077,
			"0.007": 3.30636419429,
			"0.008": 2.47274935095,
			"0.009": 2.71905913531,
			"0.01": 3.0938343614,
			"0.011": 2.84995323894,
			"0.012": 4.71358834314,
			"0.013": 1.33764560212,
			"0.014": 0.0,
			"0.015": 0.0,
			"0.016": 0.0,
			"0.017": 0.0,
			"0.018": 0.0,
			"0.019": 0.0,
			"0.02": 0.0,
			"0.021": 0.0,
			"0.022": 0.0,
			"0.023": 0.0,
			"0.024": 0.0,
			"0.025": 0.0
		}
	}
}
