{
	 "smiles": "CC1=NC=CN1C1=C(F)C=C(N)C=C1", 
	 "Tm": 358.15, 
	 "num_atms": 24, 
	 "gaussian": { 
		 "optdone": 1, 
		 "sigma_profile": "yes", 
		 "theory": "DFT", 
		 "functional": "B3LYP", 
		 "basiset": "6-31G**", 
		 "properties": { 
			 "R2extent": 3038.2879, 
			 "electric_dipole_moment_norm": 6.44623999398, 
			 "electric_quadrupole_moment_norm": 6.05326819825, 
			 "total_energy": -651.178586599, 
			 "HOMO_LUMO_gap": 0.19192, 
			 "cosmo_polarized_energy": -15.17, 
			 "cosmo_cavitation_energy": 28.63, 
			 "cosmo_dispersion_energy": -20.28, 
			 "cosmo_repulsion_energy": 1.58, 
			 "cosmo_total_nonelectrostatic_energy": 9.93, 
			 "SMD_solvation_energy": 4.27 
		},
		"coords": [
			{
				"x": 0.9517507737,
				"y": 2.2780808413,
				"z": 0.9959659032,
				"element": "C" 
			},
			{
				"x": 1.1334541964,
				"y": 1.0837832618,
				"z": 1.8767897581,
				"element": "C" 
			},
			{
				"x": 1.6541712114,
				"y": 1.1065665315,
				"z": 3.0862013352,
				"element": "N" 
			},
			{
				"x": 1.6029725084,
				"y": -0.1921177752,
				"z": 3.5458243762,
				"element": "C" 
			},
			{
				"x": 1.0427513911,
				"y": -1.0148029278,
				"z": 2.6082956549,
				"element": "C" 
			},
			{
				"x": 0.744442137,
				"y": -0.1974880906,
				"z": 1.5250038386,
				"element": "N" 
			},
			{
				"x": 0.1325641372,
				"y": -0.6131796762,
				"z": 0.3115712713,
				"element": "C" 
			},
			{
				"x": -1.1605161232,
				"y": -1.1477362659,
				"z": 0.3077207406,
				"element": "C" 
			},
			{
				"x": -1.8178164429,
				"y": -1.2726920021,
				"z": 1.4758238992,
				"element": "F" 
			},
			{
				"x": -1.7914134516,
				"y": -1.5654074057,
				"z": -0.8532985555,
				"element": "C" 
			},
			{
				"x": -1.1291130561,
				"y": -1.4439548707,
				"z": -2.0871869904,
				"element": "C" 
			},
			{
				"x": -1.7679293557,
				"y": -1.7981317353,
				"z": -3.2687174728,
				"element": "N" 
			},
			{
				"x": 0.1728702959,
				"y": -0.908155589,
				"z": -2.1028350682,
				"element": "C" 
			},
			{
				"x": 0.7872139251,
				"y": -0.5112395237,
				"z": -0.9208964601,
				"element": "C" 
			},
			{
				"x": 1.6189057764,
				"y": 2.2661920946,
				"z": 0.1263567697,
				"element": "H" 
			},
			{
				"x": 1.1788229325,
				"y": 3.1668717601,
				"z": 1.5863190039,
				"element": "H" 
			},
			{
				"x": -0.0740127134,
				"y": 2.3552688251,
				"z": 0.6196975835,
				"element": "H" 
			},
			{
				"x": 1.9717052162,
				"y": -0.4574774819,
				"z": 4.5271380011,
				"element": "H" 
			},
			{
				"x": 0.8310945292,
				"y": -2.0722991994,
				"z": 2.588040027,
				"element": "H" 
			},
			{
				"x": -2.7964825788,
				"y": -1.9691213209,
				"z": -0.7867314247,
				"element": "H" 
			},
			{
				"x": -2.5289932985,
				"y": -2.4563854594,
				"z": -3.1838184926,
				"element": "H" 
			},
			{
				"x": -1.1652253405,
				"y": -1.9973850756,
				"z": -4.0541260147,
				"element": "H" 
			},
			{
				"x": 0.7024527614,
				"y": -0.8109508648,
				"z": -3.0461821174,
				"element": "H" 
			},
			{
				"x": 1.7996305683,
				"y": -0.1208380502,
				"z": -0.940455566,
				"element": "H" 
			}
		],
		 "valence_orbital": [ 
			{
				"type": "occ",
				"energy": -0.26492,
				"method": "rhf"
			},
			{
				"type": "occ",
				"energy": -0.2586,
				"method": "rhf"
			},
			{
				"type": "occ",
				"energy": -0.25227,
				"method": "rhf"
			},
			{
				"type": "occ",
				"energy": -0.21708,
				"method": "rhf"
			},
			{
				"type": "occ",
				"energy": -0.20683,
				"method": "rhf"
			},
			{
				"type": "unocc",
				"energy": -0.01491,
				"method": "rhf"
			},
			{
				"type": "unocc",
				"energy": -0.00316,
				"method": "rhf"
			},
			{
				"type": "unocc",
				"energy": 0.04205,
				"method": "rhf"
			},
			{
				"type": "unocc",
				"energy": 0.066,
				"method": "rhf"
			},
			{
				"type": "unocc",
				"energy": 0.08318,
				"method": "rhf"
			}
		],
		"cosmo_sigma_profile": { 
			"-0.025": 0.0,
			"-0.024": 0.0,
			"-0.023": 0.0,
			"-0.022": 0.0,
			"-0.021": 0.0,
			"-0.02": 0.0,
			"-0.019": 0.0,
			"-0.018": 0.0,
			"-0.017": 0.0,
			"-0.016": 0.0,
			"-0.015": 0.0,
			"-0.014": 0.000902027440709,
			"-0.013": 2.08582374138,
			"-0.012": 3.08740486448,
			"-0.011": 2.57267593345,
			"-0.01": 3.44049722242,
			"-0.009": 3.59686957939,
			"-0.008": 4.92976983876,
			"-0.007": 6.19582728156,
			"-0.006": 11.0455503596,
			"-0.005": 12.9960132778,
			"-0.004": 14.3020193387,
			"-0.003": 13.9623114727,
			"-0.002": 13.5564752146,
			"-0.001": 16.764130901,
			"0.0": 14.7514762444,
			"0.001": 14.890977062,
			"0.002": 12.8804126015,
			"0.003": 15.4599853171,
			"0.004": 22.1150731946,
			"0.005": 11.0614256512,
			"0.006": 7.40043218233,
			"0.007": 3.24453361297,
			"0.008": 2.52471583429,
			"0.009": 2.12976910316,
			"0.01": 2.68252346359,
			"0.011": 1.99744622912,
			"0.012": 1.89844492923,
			"0.013": 1.18354351322,
			"0.014": 1.42720214545,
			"0.015": 0.765644370869,
			"0.016": 1.06438101574,
			"0.017": 1.20687472126,
			"0.018": 0.75404107975,
			"0.019": 0.303614113903,
			"0.02": 0.0,
			"0.021": 0.0,
			"0.022": 0.0,
			"0.023": 0.0,
			"0.024": 0.0,
			"0.025": 0.0
		}
	}
}
