{
	 "smiles": "CC(=O)OC1=CC=C(N)C=C1", 
	 "Tm": 347.15, 
	 "num_atms": 20, 
	 "gaussian": { 
		 "optdone": 1, 
		 "sigma_profile": "yes", 
		 "theory": "DFT", 
		 "functional": "B3LYP", 
		 "basiset": "6-31G**", 
		 "properties": { 
			 "R2extent": 3279.4494, 
			 "electric_dipole_moment_norm": 1.62144273103, 
			 "electric_quadrupole_moment_norm": 20.3229491074, 
			 "total_energy": -515.485296853, 
			 "HOMO_LUMO_gap": 0.1988, 
			 "cosmo_polarized_energy": -12.29, 
			 "cosmo_cavitation_energy": 24.53, 
			 "cosmo_dispersion_energy": -18.06, 
			 "cosmo_repulsion_energy": 1.48, 
			 "cosmo_total_nonelectrostatic_energy": 7.95, 
			 "SMD_solvation_energy": 5.54 
		},
		"coords": [
			{
				"x": -3.4915521296,
				"y": 1.611639045,
				"z": 2.9023168518,
				"element": "C" 
			},
			{
				"x": -3.3047890175,
				"y": 1.263345251,
				"z": 1.4448144177,
				"element": "C" 
			},
			{
				"x": -4.0211756863,
				"y": 1.6141873915,
				"z": 0.5386312576,
				"element": "O" 
			},
			{
				"x": -2.1938935851,
				"y": 0.4801187947,
				"z": 1.3011822601,
				"element": "O" 
			},
			{
				"x": -1.7818562748,
				"y": 0.0403140644,
				"z": 0.0364692433,
				"element": "C" 
			},
			{
				"x": -2.6470275027,
				"y": -0.5399703665,
				"z": -0.8903167704,
				"element": "C" 
			},
			{
				"x": -2.1383206599,
				"y": -1.0177107605,
				"z": -2.0953407097,
				"element": "C" 
			},
			{
				"x": -0.7676013995,
				"y": -0.9308871958,
				"z": -2.3929710693,
				"element": "C" 
			},
			{
				"x": -0.2577501674,
				"y": -1.4656301822,
				"z": -3.5807109747,
				"element": "N" 
			},
			{
				"x": 0.0859826526,
				"y": -0.3496073752,
				"z": -1.4403557555,
				"element": "C" 
			},
			{
				"x": -0.4193844858,
				"y": 0.1331037086,
				"z": -0.2364143871,
				"element": "C" 
			},
			{
				"x": -2.6170255829,
				"y": 2.1540044826,
				"z": 3.2737307769,
				"element": "H" 
			},
			{
				"x": -3.5845244519,
				"y": 0.6984077846,
				"z": 3.4973867274,
				"element": "H" 
			},
			{
				"x": -4.3853749882,
				"y": 2.2240701922,
				"z": 3.0158169749,
				"element": "H" 
			},
			{
				"x": -3.7071604713,
				"y": -0.6062232065,
				"z": -0.6824952586,
				"element": "H" 
			},
			{
				"x": -2.8147071296,
				"y": -1.469043104,
				"z": -2.8168520578,
				"element": "H" 
			},
			{
				"x": 0.6155089413,
				"y": -1.0592516237,
				"z": -3.888007906,
				"element": "H" 
			},
			{
				"x": -0.9240893677,
				"y": -1.5246343676,
				"z": -4.3387750138,
				"element": "H" 
			},
			{
				"x": 1.1514316166,
				"y": -0.2789913629,
				"z": -1.6438582611,
				"element": "H" 
			},
			{
				"x": 0.2384096896,
				"y": 0.5821588303,
				"z": 0.5007496544,
				"element": "H" 
			}
		],
		 "valence_orbital": [ 
			{
				"type": "occ",
				"energy": -0.32142,
				"method": "rhf"
			},
			{
				"type": "occ",
				"energy": -0.29083,
				"method": "rhf"
			},
			{
				"type": "occ",
				"energy": -0.27097,
				"method": "rhf"
			},
			{
				"type": "occ",
				"energy": -0.24763,
				"method": "rhf"
			},
			{
				"type": "occ",
				"energy": -0.19804,
				"method": "rhf"
			},
			{
				"type": "unocc",
				"energy": 0.00076,
				"method": "rhf"
			},
			{
				"type": "unocc",
				"energy": 0.00253,
				"method": "rhf"
			},
			{
				"type": "unocc",
				"energy": 0.03174,
				"method": "rhf"
			},
			{
				"type": "unocc",
				"energy": 0.07961,
				"method": "rhf"
			},
			{
				"type": "unocc",
				"energy": 0.10178,
				"method": "rhf"
			}
		],
		"cosmo_sigma_profile": { 
			"-0.025": 0.0,
			"-0.024": 0.0,
			"-0.023": 0.0,
			"-0.022": 0.0,
			"-0.021": 0.0,
			"-0.02": 0.0,
			"-0.019": 0.0,
			"-0.018": 0.0,
			"-0.017": 0.0,
			"-0.016": 0.0,
			"-0.015": 0.0,
			"-0.014": 0.0,
			"-0.013": 0.139594860381,
			"-0.012": 2.54092088302,
			"-0.011": 2.58269011107,
			"-0.01": 3.73001883403,
			"-0.009": 3.20779236773,
			"-0.008": 2.33402963728,
			"-0.007": 5.09152663229,
			"-0.006": 12.6906839598,
			"-0.005": 14.3682227688,
			"-0.004": 14.4357428229,
			"-0.003": 14.6407676345,
			"-0.002": 15.400913631,
			"-0.001": 10.7594102215,
			"0.0": 7.98147893606,
			"0.001": 8.13045794418,
			"0.002": 8.77845188253,
			"0.003": 9.49032159221,
			"0.004": 10.5119190914,
			"0.005": 12.5393496771,
			"0.006": 10.3094520293,
			"0.007": 4.6989907518,
			"0.008": 3.22214016269,
			"0.009": 3.24773720505,
			"0.01": 2.94508951026,
			"0.011": 4.35073519421,
			"0.012": 4.53757987313,
			"0.013": 1.40082333591,
			"0.014": 0.456652161755,
			"0.015": 0.324225342148,
			"0.016": 0.0,
			"0.017": 0.0,
			"0.018": 0.0,
			"0.019": 0.0,
			"0.02": 0.0,
			"0.021": 0.0,
			"0.022": 0.0,
			"0.023": 0.0,
			"0.024": 0.0,
			"0.025": 0.0
		}
	}
}
