{
	 "smiles": "FC(F)(F)C(F)(F)C(F)(F)C(F)(F)I", 
	 "Tm": 205.15, 
	 "num_atms": 14, 
	 "gaussian": { 
		 "optdone": 1, 
		 "sigma_profile": "no", 
		 "theory": "DFT", 
		 "functional": "B3LYP", 
		 "basiset": "6-31G**", 
		 "properties": { 
			 "R2extent": 2160.9194, 
			 "electric_dipole_moment_norm": 0.502285635869, 
			 "electric_quadrupole_moment_norm": 4.58703660657, 
			 "total_energy": -1062.33322643, 
			 "HOMO_LUMO_gap": 0.20645, 
			 "cosmo_polarized_energy": -94643.15, 
			 "cosmo_cavitation_energy": 24.86, 
			 "cosmo_dispersion_energy": -18.33, 
			 "cosmo_repulsion_energy": 1.26, 
			 "cosmo_total_nonelectrostatic_energy": 7.78, 
			 "SMD_solvation_energy": 6.42 
		},
		"coords": [
			{
				"x": -2.5408847643,
				"y": -0.5164466077,
				"z": -1.2687670012,
				"element": "F" 
			},
			{
				"x": -1.3697466219,
				"y": -0.6548989959,
				"z": -0.6382834973,
				"element": "C" 
			},
			{
				"x": -0.5647820176,
				"y": -1.4251545728,
				"z": -1.3799576153,
				"element": "F" 
			},
			{
				"x": -1.5866407605,
				"y": -1.250215632,
				"z": 0.5420924142,
				"element": "F" 
			},
			{
				"x": -0.7459040056,
				"y": 0.7461702476,
				"z": -0.4253166017,
				"element": "C" 
			},
			{
				"x": -0.8127906746,
				"y": 1.401149091,
				"z": -1.6073623771,
				"element": "F" 
			},
			{
				"x": -1.4982422898,
				"y": 1.4009968359,
				"z": 0.4854268695,
				"element": "F" 
			},
			{
				"x": 0.7497390777,
				"y": 0.8148814389,
				"z": 0.0196288913,
				"element": "C" 
			},
			{
				"x": 1.5119107571,
				"y": 0.3407473547,
				"z": -0.9881101843,
				"element": "F" 
			},
			{
				"x": 1.0137565253,
				"y": 2.1278134282,
				"z": 0.2008735976,
				"element": "F" 
			},
			{
				"x": 1.1152851659,
				"y": 0.0449223541,
				"z": 1.3150630576,
				"element": "C" 
			},
			{
				"x": 1.0196754836,
				"y": -1.2747332367,
				"z": 1.0718903439,
				"element": "F" 
			},
			{
				"x": 0.2467223632,
				"y": 0.3703435525,
				"z": 2.2861086491,
				"element": "F" 
			},
			{
				"x": 3.1517017615,
				"y": 0.4935247424,
				"z": 1.9788134536,
				"element": "I" 
			}
		],
		 "valence_orbital": [ 
			{
				"type": "occ",
				"energy": -0.41743,
				"method": "rhf"
			},
			{
				"type": "occ",
				"energy": -0.38183,
				"method": "rhf"
			},
			{
				"type": "occ",
				"energy": -0.35041,
				"method": "rhf"
			},
			{
				"type": "occ",
				"energy": -0.29454,
				"method": "rhf"
			},
			{
				"type": "occ",
				"energy": -0.29273,
				"method": "rhf"
			},
			{
				"type": "unocc",
				"energy": -0.08628,
				"method": "rhf"
			},
			{
				"type": "unocc",
				"energy": 0.02635,
				"method": "rhf"
			},
			{
				"type": "unocc",
				"energy": 0.03834,
				"method": "rhf"
			},
			{
				"type": "unocc",
				"energy": 0.04512,
				"method": "rhf"
			},
			{
				"type": "unocc",
				"energy": 0.04813,
				"method": "rhf"
			}
		],
		"cosmo_sigma_profile": { 
			"0.0": 0.0,
			"0.0": 0.0,
			"0.0": 0.0,
			"0.0": 0.0,
			"0.0": 0.0,
			"0.0": 0.0,
			"0.0": 0.0,
			"0.0": 0.0,
			"0.0": 0.0,
			"0.0": 0.0,
			"0.0": 0.0,
			"0.0": 0.0,
			"0.0": 0.0,
			"0.0": 0.0,
			"0.0": 0.0,
			"0.0": 0.0,
			"0.0": 0.0,
			"0.0": 0.0,
			"0.0": 0.0,
			"0.0": 0.0,
			"0.0": 0.0,
			"0.0": 0.0,
			"0.0": 0.0,
			"0.0": 0.0,
			"0.0": 0.0,
			"0.0": 0.0,
			"0.0": 0.0,
			"0.0": 0.0,
			"0.0": 0.0,
			"0.0": 0.0,
			"0.0": 0.0,
			"0.0": 0.0,
			"0.0": 0.0,
			"0.0": 0.0,
			"0.0": 0.0,
			"0.0": 0.0,
			"0.0": 0.0,
			"0.0": 0.0,
			"0.0": 0.0,
			"0.0": 0.0,
			"0.0": 0.0,
			"0.0": 0.0,
			"0.0": 0.0,
			"0.0": 0.0,
			"0.0": 0.0,
			"0.0": 0.0,
			"0.0": 0.0,
			"0.0": 0.0,
			"0.0": 0.0,
			"0.0": 0.0,
			"0.0": 0.0
		}
	}
}
