{
	 "smiles": "CC1=CC(Br)=C(N)N=C1", 
	 "Tm": 345.15, 
	 "num_atms": 16, 
	 "gaussian": { 
		 "optdone": 1, 
		 "sigma_profile": "yes", 
		 "theory": "DFT", 
		 "functional": "B3LYP", 
		 "basiset": "6-31G**", 
		 "properties": { 
			 "R2extent": 3345.9777, 
			 "electric_dipole_moment_norm": 0.930498242879, 
			 "electric_quadrupole_moment_norm": 9.85764361245, 
			 "total_energy": -2913.77719749, 
			 "HOMO_LUMO_gap": 0.18789, 
			 "cosmo_polarized_energy": -7.36, 
			 "cosmo_cavitation_energy": 21.94, 
			 "cosmo_dispersion_energy": -16.95, 
			 "cosmo_repulsion_energy": 1.39, 
			 "cosmo_total_nonelectrostatic_energy": 6.38, 
			 "SMD_solvation_energy": 1.38 
		},
		"coords": [
			{
				"x": -1.8156674316,
				"y": -1.776476985,
				"z": 1.0728248542,
				"element": "C" 
			},
			{
				"x": -0.3791958068,
				"y": -1.4791969269,
				"z": 0.7221578915,
				"element": "C" 
			},
			{
				"x": 0.4654142584,
				"y": -0.7723895653,
				"z": 1.5922124865,
				"element": "C" 
			},
			{
				"x": 1.7776729906,
				"y": -0.5278460515,
				"z": 1.229357328,
				"element": "C" 
			},
			{
				"x": 2.9313176765,
				"y": 0.4454399541,
				"z": 2.4113960728,
				"element": "Br" 
			},
			{
				"x": 2.2648638811,
				"y": -0.9887459071,
				"z": -0.0150278216,
				"element": "C" 
			},
			{
				"x": 3.5692177812,
				"y": -0.8221095034,
				"z": -0.4094768379,
				"element": "N" 
			},
			{
				"x": 1.4547211162,
				"y": -1.6519670026,
				"z": -0.8519946044,
				"element": "N" 
			},
			{
				"x": 0.1905294118,
				"y": -1.8848908611,
				"z": -0.485616794,
				"element": "C" 
			},
			{
				"x": -2.3140901211,
				"y": -2.3098987785,
				"z": 0.2583698748,
				"element": "H" 
			},
			{
				"x": -2.3839926678,
				"y": -0.8591377107,
				"z": 1.2652681214,
				"element": "H" 
			},
			{
				"x": -1.8922161739,
				"y": -2.3993133112,
				"z": 1.9717572997,
				"element": "H" 
			},
			{
				"x": 0.0985726196,
				"y": -0.4134183971,
				"z": 2.5489881336,
				"element": "H" 
			},
			{
				"x": 3.7355562573,
				"y": -0.9872856722,
				"z": -1.3909256228,
				"element": "H" 
			},
			{
				"x": 4.1060076005,
				"y": -0.0892734619,
				"z": 0.0282548212,
				"element": "H" 
			},
			{
				"x": -0.4129113922,
				"y": -2.4305898199,
				"z": -1.2105452031,
				"element": "H" 
			}
		],
		 "valence_orbital": [ 
			{
				"type": "occ",
				"energy": -0.31447,
				"method": "rhf"
			},
			{
				"type": "occ",
				"energy": -0.29746,
				"method": "rhf"
			},
			{
				"type": "occ",
				"energy": -0.26405,
				"method": "rhf"
			},
			{
				"type": "occ",
				"energy": -0.25854,
				"method": "rhf"
			},
			{
				"type": "occ",
				"energy": -0.21126,
				"method": "rhf"
			},
			{
				"type": "unocc",
				"energy": -0.02337,
				"method": "rhf"
			},
			{
				"type": "unocc",
				"energy": 0.00502,
				"method": "rhf"
			},
			{
				"type": "unocc",
				"energy": 0.00697,
				"method": "rhf"
			},
			{
				"type": "unocc",
				"energy": 0.09565,
				"method": "rhf"
			},
			{
				"type": "unocc",
				"energy": 0.1066,
				"method": "rhf"
			}
		],
		"cosmo_sigma_profile": { 
			"-0.025": 0.0,
			"-0.024": 0.0,
			"-0.023": 0.0,
			"-0.022": 0.0,
			"-0.021": 0.0,
			"-0.02": 0.0,
			"-0.019": 0.0,
			"-0.018": 0.0,
			"-0.017": 0.0,
			"-0.016": 0.0,
			"-0.015": 0.0,
			"-0.014": 0.0327231051621,
			"-0.013": 0.587222658922,
			"-0.012": 1.74341933186,
			"-0.011": 2.39226199019,
			"-0.01": 1.33389163502,
			"-0.009": 1.80161374382,
			"-0.008": 1.67106135395,
			"-0.007": 4.08907808486,
			"-0.006": 4.69232673418,
			"-0.005": 8.23389699709,
			"-0.004": 13.4370538071,
			"-0.003": 11.941805883,
			"-0.002": 13.6050411753,
			"-0.001": 13.7981116338,
			"0.0": 15.4575852372,
			"0.001": 14.4574245904,
			"0.002": 17.8249764259,
			"0.003": 17.7481214653,
			"0.004": 11.6066548841,
			"0.005": 5.88765567146,
			"0.006": 2.29054352355,
			"0.007": 2.44713464971,
			"0.008": 2.16126500475,
			"0.009": 2.00404749921,
			"0.01": 1.27218199157,
			"0.011": 1.71351108127,
			"0.012": 1.23436860369,
			"0.013": 0.791806258465,
			"0.014": 0.701449963112,
			"0.015": 0.65633478246,
			"0.016": 0.130765113565,
			"0.017": 0.0,
			"0.018": 0.0,
			"0.019": 0.0,
			"0.02": 0.0,
			"0.021": 0.0,
			"0.022": 0.0,
			"0.023": 0.0,
			"0.024": 0.0,
			"0.025": 0.0
		}
	}
}
