{
	 "smiles": "ClC1=CC2=C(SCCN2)C=C1", 
	 "Tm": 384.15, 
	 "num_atms": 19, 
	 "gaussian": { 
		 "optdone": 1, 
		 "sigma_profile": "yes", 
		 "theory": "DFT", 
		 "functional": "B3LYP", 
		 "basiset": "6-31G**", 
		 "properties": { 
			 "R2extent": 4369.3046, 
			 "electric_dipole_moment_norm": 3.64762932601, 
			 "electric_quadrupole_moment_norm": 5.73794347219, 
			 "total_energy": -1222.80587868, 
			 "HOMO_LUMO_gap": 0.18604, 
			 "cosmo_polarized_energy": -9.15, 
			 "cosmo_cavitation_energy": 24.99, 
			 "cosmo_dispersion_energy": -19.75, 
			 "cosmo_repulsion_energy": 1.53, 
			 "cosmo_total_nonelectrostatic_energy": 6.77, 
			 "SMD_solvation_energy": 2.34 
		},
		"coords": [
			{
				"x": -1.9903233217,
				"y": -4.858748151,
				"z": -1.3721515121,
				"element": "Cl" 
			},
			{
				"x": -0.8085634512,
				"y": -3.8320835245,
				"z": -0.5661999175,
				"element": "C" 
			},
			{
				"x": -1.0946791952,
				"y": -2.4837886328,
				"z": -0.3975192466,
				"element": "C" 
			},
			{
				"x": -0.1724597555,
				"y": -1.6307474869,
				"z": 0.2362662193,
				"element": "C" 
			},
			{
				"x": 1.0442110984,
				"y": -2.1802077056,
				"z": 0.7036656739,
				"element": "C" 
			},
			{
				"x": 2.3142147901,
				"y": -1.1993807044,
				"z": 1.4889269553,
				"element": "S" 
			},
			{
				"x": 1.349282255,
				"y": 0.3025551392,
				"z": 1.8929895918,
				"element": "C" 
			},
			{
				"x": 0.477199001,
				"y": 0.7275799402,
				"z": 0.7140258175,
				"element": "C" 
			},
			{
				"x": -0.5160958514,
				"y": -0.2949175987,
				"z": 0.4278636676,
				"element": "N" 
			},
			{
				"x": 1.2955233341,
				"y": -3.5444287379,
				"z": 0.5263698047,
				"element": "C" 
			},
			{
				"x": 0.3875432936,
				"y": -4.3851336395,
				"z": -0.1131137982,
				"element": "C" 
			},
			{
				"x": -2.0370310881,
				"y": -2.081389506,
				"z": -0.7565090777,
				"element": "H" 
			},
			{
				"x": 0.733207558,
				"y": 0.1250739331,
				"z": 2.7780721077,
				"element": "H" 
			},
			{
				"x": 2.0873845246,
				"y": 1.0743151903,
				"z": 2.1245041744,
				"element": "H" 
			},
			{
				"x": 1.1206133915,
				"y": 0.9531896534,
				"z": -0.1501403618,
				"element": "H" 
			},
			{
				"x": -0.0616857099,
				"y": 1.6452003773,
				"z": 0.976660942,
				"element": "H" 
			},
			{
				"x": -1.2922603,
				"y": 0.0166121122,
				"z": -0.1378465305,
				"element": "H" 
			},
			{
				"x": 2.2286502238,
				"y": -3.9578176544,
				"z": 0.8990556177,
				"element": "H" 
			},
			{
				"x": 0.5987692027,
				"y": -5.4390830038,
				"z": -0.2474201274,
				"element": "H" 
			}
		],
		 "valence_orbital": [ 
			{
				"type": "occ",
				"energy": -0.30679,
				"method": "rhf"
			},
			{
				"type": "occ",
				"energy": -0.30043,
				"method": "rhf"
			},
			{
				"type": "occ",
				"energy": -0.27203,
				"method": "rhf"
			},
			{
				"type": "occ",
				"energy": -0.22579,
				"method": "rhf"
			},
			{
				"type": "occ",
				"energy": -0.19453,
				"method": "rhf"
			},
			{
				"type": "unocc",
				"energy": -0.00849,
				"method": "rhf"
			},
			{
				"type": "unocc",
				"energy": 0.00221,
				"method": "rhf"
			},
			{
				"type": "unocc",
				"energy": 0.02682,
				"method": "rhf"
			},
			{
				"type": "unocc",
				"energy": 0.04161,
				"method": "rhf"
			},
			{
				"type": "unocc",
				"energy": 0.06819,
				"method": "rhf"
			}
		],
		"cosmo_sigma_profile": { 
			"-0.025": 0.0,
			"-0.024": 0.0,
			"-0.023": 0.0,
			"-0.022": 0.0,
			"-0.021": 0.0,
			"-0.02": 0.0,
			"-0.019": 0.0,
			"-0.018": 0.0,
			"-0.017": 0.0,
			"-0.016": 0.0,
			"-0.015": 0.0,
			"-0.014": 0.219315394469,
			"-0.013": 1.39255861234,
			"-0.012": 1.50147776616,
			"-0.011": 1.56545911482,
			"-0.01": 1.73445339484,
			"-0.009": 1.23610327978,
			"-0.008": 2.15230333326,
			"-0.007": 5.46610267175,
			"-0.006": 11.093764198,
			"-0.005": 13.4563984667,
			"-0.004": 14.3318219125,
			"-0.003": 14.6678502057,
			"-0.002": 12.476289604,
			"-0.001": 9.3616614255,
			"0.0": 10.2520633163,
			"0.001": 9.85562604881,
			"0.002": 13.3492122592,
			"0.003": 18.2299966119,
			"0.004": 22.1030765691,
			"0.005": 23.7629521821,
			"0.006": 5.74951338325,
			"0.007": 3.3869314254,
			"0.008": 2.50979191721,
			"0.009": 2.56018320935,
			"0.01": 0.606040115536,
			"0.011": 0.0,
			"0.012": 0.0,
			"0.013": 0.0,
			"0.014": 0.0,
			"0.015": 0.0,
			"0.016": 0.0,
			"0.017": 0.0,
			"0.018": 0.0,
			"0.019": 0.0,
			"0.02": 0.0,
			"0.021": 0.0,
			"0.022": 0.0,
			"0.023": 0.0,
			"0.024": 0.0,
			"0.025": 0.0
		}
	}
}
