{
	 "smiles": "ClC1=NN=C(C=C1)N1CCCC1", 
	 "Tm": 389.15, 
	 "num_atms": 22, 
	 "gaussian": { 
		 "optdone": 1, 
		 "sigma_profile": "yes", 
		 "theory": "DFT", 
		 "functional": "B3LYP", 
		 "basiset": "6-31G**", 
		 "properties": { 
			 "R2extent": 4013.9938, 
			 "electric_dipole_moment_norm": 6.12980879473, 
			 "electric_quadrupole_moment_norm": 11.5720477738, 
			 "total_energy": -935.28906751, 
			 "HOMO_LUMO_gap": 0.1643, 
			 "cosmo_polarized_energy": -12.5, 
			 "cosmo_cavitation_energy": 26.55, 
			 "cosmo_dispersion_energy": -20.27, 
			 "cosmo_repulsion_energy": 1.63, 
			 "cosmo_total_nonelectrostatic_energy": 7.9, 
			 "SMD_solvation_energy": 1.49 
		},
		"coords": [
			{
				"x": 2.4535991638,
				"y": -4.80419253,
				"z": -0.3192420948,
				"element": "Cl" 
			},
			{
				"x": 1.436302094,
				"y": -3.4268143225,
				"z": 0.0777967427,
				"element": "C" 
			},
			{
				"x": 2.0185105956,
				"y": -2.2447836297,
				"z": 0.0908322438,
				"element": "N" 
			},
			{
				"x": 1.3068405207,
				"y": -1.1562190818,
				"z": 0.3775928724,
				"element": "N" 
			},
			{
				"x": -0.0112943394,
				"y": -1.2640543858,
				"z": 0.6620006382,
				"element": "C" 
			},
			{
				"x": -0.6728324569,
				"y": -2.5222400532,
				"z": 0.6663530437,
				"element": "C" 
			},
			{
				"x": 0.0762795138,
				"y": -3.6335067442,
				"z": 0.3619712845,
				"element": "C" 
			},
			{
				"x": -0.6585122434,
				"y": -0.1011811583,
				"z": 0.9462263547,
				"element": "N" 
			},
			{
				"x": -2.0915825451,
				"y": 0.0021460715,
				"z": 1.2174819838,
				"element": "C" 
			},
			{
				"x": -2.3483717559,
				"y": 1.5182001767,
				"z": 1.2056788692,
				"element": "C" 
			},
			{
				"x": -1.0057645902,
				"y": 2.1111809299,
				"z": 1.6654186566,
				"element": "C" 
			},
			{
				"x": 0.0344288784,
				"y": 1.1928016614,
				"z": 1.0089234293,
				"element": "C" 
			},
			{
				"x": -1.7259260108,
				"y": -2.607413037,
				"z": 0.9082348263,
				"element": "H" 
			},
			{
				"x": -0.3521189384,
				"y": -4.6291981507,
				"z": 0.3446904108,
				"element": "H" 
			},
			{
				"x": -2.6815829035,
				"y": -0.5219355671,
				"z": 0.4552232195,
				"element": "H" 
			},
			{
				"x": -2.3441033754,
				"y": -0.4401296026,
				"z": 2.1939532942,
				"element": "H" 
			},
			{
				"x": -3.1904199537,
				"y": 1.8004780591,
				"z": 1.8428898117,
				"element": "H" 
			},
			{
				"x": -2.5751558353,
				"y": 1.8465195419,
				"z": 0.1853198488,
				"element": "H" 
			},
			{
				"x": -0.9216977792,
				"y": 2.0524878818,
				"z": 2.7565680049,
				"element": "H" 
			},
			{
				"x": -0.8784179457,
				"y": 3.1576318077,
				"z": 1.3766188948,
				"element": "H" 
			},
			{
				"x": 0.3077360312,
				"y": 1.5332606379,
				"z": 0.0008964342,
				"element": "H" 
			},
			{
				"x": 0.9626838753,
				"y": 1.1018614952,
				"z": 1.5783712308,
				"element": "H" 
			}
		],
		 "valence_orbital": [ 
			{
				"type": "occ",
				"energy": -0.31008,
				"method": "rhf"
			},
			{
				"type": "occ",
				"energy": -0.30667,
				"method": "rhf"
			},
			{
				"type": "occ",
				"energy": -0.28873,
				"method": "rhf"
			},
			{
				"type": "occ",
				"energy": -0.23087,
				"method": "rhf"
			},
			{
				"type": "occ",
				"energy": -0.21126,
				"method": "rhf"
			},
			{
				"type": "unocc",
				"energy": -0.04696,
				"method": "rhf"
			},
			{
				"type": "unocc",
				"energy": -0.00621,
				"method": "rhf"
			},
			{
				"type": "unocc",
				"energy": 0.03785,
				"method": "rhf"
			},
			{
				"type": "unocc",
				"energy": 0.07219,
				"method": "rhf"
			},
			{
				"type": "unocc",
				"energy": 0.10093,
				"method": "rhf"
			}
		],
		"cosmo_sigma_profile": { 
			"-0.025": 0.0,
			"-0.024": 0.0,
			"-0.023": 0.0,
			"-0.022": 0.0,
			"-0.021": 0.0,
			"-0.02": 0.0,
			"-0.019": 0.0,
			"-0.018": 0.0,
			"-0.017": 0.0,
			"-0.016": 0.0,
			"-0.015": 0.0,
			"-0.014": 0.0,
			"-0.013": 0.0,
			"-0.012": 0.0,
			"-0.011": 0.0,
			"-0.01": 0.0,
			"-0.009": 1.30288436032,
			"-0.008": 4.35975202854,
			"-0.007": 4.75119145993,
			"-0.006": 4.93710432314,
			"-0.005": 7.51446360295,
			"-0.004": 18.3365176518,
			"-0.003": 28.1044279645,
			"-0.002": 26.3537140143,
			"-0.001": 24.1082423071,
			"0.0": 21.6460417821,
			"0.001": 12.4594692326,
			"0.002": 9.07069639652,
			"0.003": 7.36679597082,
			"0.004": 10.4025484282,
			"0.005": 7.79497862483,
			"0.006": 3.88356243959,
			"0.007": 1.92276711285,
			"0.008": 2.43973946747,
			"0.009": 2.41037894739,
			"0.01": 1.73410162889,
			"0.011": 2.43511368044,
			"0.012": 2.18619304362,
			"0.013": 2.15337244594,
			"0.014": 3.3728596793,
			"0.015": 1.50238477157,
			"0.016": 0.113600832402,
			"0.017": 0.0,
			"0.018": 0.0,
			"0.019": 0.0,
			"0.02": 0.0,
			"0.021": 0.0,
			"0.022": 0.0,
			"0.023": 0.0,
			"0.024": 0.0,
			"0.025": 0.0
		}
	}
}
