{
	 "smiles": "CC(=O)NC1=C(CC(O)=O)C=CC=C1", 
	 "Tm": 418.15, 
	 "num_atms": 25, 
	 "gaussian": { 
		 "optdone": 1, 
		 "sigma_profile": "yes", 
		 "theory": "DFT", 
		 "functional": "B3LYP", 
		 "basiset": "6-31G**", 
		 "properties": { 
			 "R2extent": 3004.9102, 
			 "electric_dipole_moment_norm": 4.40891124088, 
			 "electric_quadrupole_moment_norm": 16.5644764261, 
			 "total_energy": -668.151494603, 
			 "HOMO_LUMO_gap": 0.19712, 
			 "cosmo_polarized_energy": -19.38, 
			 "cosmo_cavitation_energy": 29.06, 
			 "cosmo_dispersion_energy": -20.7, 
			 "cosmo_repulsion_energy": 1.62, 
			 "cosmo_total_nonelectrostatic_energy": 9.99, 
			 "SMD_solvation_energy": 6.68 
		},
		"coords": [
			{
				"x": 1.175382028,
				"y": -0.1345679252,
				"z": 3.6765847574,
				"element": "C" 
			},
			{
				"x": 0.3367523332,
				"y": -0.8620111874,
				"z": 2.635147777,
				"element": "C" 
			},
			{
				"x": -0.428547387,
				"y": -1.7641222236,
				"z": 2.9443808384,
				"element": "O" 
			},
			{
				"x": 0.5390524403,
				"y": -0.4167212698,
				"z": 1.3429063355,
				"element": "N" 
			},
			{
				"x": -0.1087796466,
				"y": -0.8516917489,
				"z": 0.1683315295,
				"element": "C" 
			},
			{
				"x": 0.469173591,
				"y": -0.527113046,
				"z": -1.0834058697,
				"element": "C" 
			},
			{
				"x": 1.8085476902,
				"y": 0.1895626185,
				"z": -1.1749275962,
				"element": "C" 
			},
			{
				"x": 1.7139836339,
				"y": 1.6587950381,
				"z": -0.7672106861,
				"element": "C" 
			},
			{
				"x": 1.439071298,
				"y": 2.5518999621,
				"z": -1.7396433767,
				"element": "O" 
			},
			{
				"x": 1.8390261612,
				"y": 2.0354556358,
				"z": 0.3794275921,
				"element": "O" 
			},
			{
				"x": -0.1873587028,
				"y": -0.91124076,
				"z": -2.2569675318,
				"element": "C" 
			},
			{
				"x": -1.3854224346,
				"y": -1.6218062094,
				"z": -2.2214681848,
				"element": "C" 
			},
			{
				"x": -1.9334925839,
				"y": -1.9601732895,
				"z": -0.9845652473,
				"element": "C" 
			},
			{
				"x": -1.3073455595,
				"y": -1.5837863243,
				"z": 0.2014604525,
				"element": "C" 
			},
			{
				"x": 1.7727425477,
				"y": 0.6864932679,
				"z": 3.2725807836,
				"element": "H" 
			},
			{
				"x": 0.5070840647,
				"y": 0.2543075901,
				"z": 4.4493892081,
				"element": "H" 
			},
			{
				"x": 1.8396937709,
				"y": -0.8585947312,
				"z": 4.1574523083,
				"element": "H" 
			},
			{
				"x": 1.1507969281,
				"y": 0.3882355106,
				"z": 1.2423741577,
				"element": "H" 
			},
			{
				"x": 2.1986610785,
				"y": 0.0993292207,
				"z": -2.1943056239,
				"element": "H" 
			},
			{
				"x": 2.5384444636,
				"y": -0.2739260664,
				"z": -0.5035166969,
				"element": "H" 
			},
			{
				"x": 1.3251223378,
				"y": 2.1018151348,
				"z": -2.5885488986,
				"element": "H" 
			},
			{
				"x": 0.2659350602,
				"y": -0.66987032,
				"z": -3.2162129801,
				"element": "H" 
			},
			{
				"x": -1.8734025869,
				"y": -1.9172866832,
				"z": -3.1449765895,
				"element": "H" 
			},
			{
				"x": -2.8614404403,
				"y": -2.5224993303,
				"z": -0.9352951988,
				"element": "H" 
			},
			{
				"x": -1.7229800859,
				"y": -1.8546828633,
				"z": 1.1614087401,
				"element": "H" 
			}
		],
		 "valence_orbital": [ 
			{
				"type": "occ",
				"energy": -0.3017,
				"method": "rhf"
			},
			{
				"type": "occ",
				"energy": -0.29939,
				"method": "rhf"
			},
			{
				"type": "occ",
				"energy": -0.25572,
				"method": "rhf"
			},
			{
				"type": "occ",
				"energy": -0.24582,
				"method": "rhf"
			},
			{
				"type": "occ",
				"energy": -0.22323,
				"method": "rhf"
			},
			{
				"type": "unocc",
				"energy": -0.02611,
				"method": "rhf"
			},
			{
				"type": "unocc",
				"energy": -0.01601,
				"method": "rhf"
			},
			{
				"type": "unocc",
				"energy": 0.00172,
				"method": "rhf"
			},
			{
				"type": "unocc",
				"energy": 0.03546,
				"method": "rhf"
			},
			{
				"type": "unocc",
				"energy": 0.0453,
				"method": "rhf"
			}
		],
		"cosmo_sigma_profile": { 
			"-0.025": 0.0,
			"-0.024": 0.0,
			"-0.023": 0.0,
			"-0.022": 0.0,
			"-0.021": 0.0,
			"-0.02": 0.0238538963549,
			"-0.019": 0.674462391295,
			"-0.018": 0.961840779419,
			"-0.017": 1.1421237915,
			"-0.016": 1.51355322151,
			"-0.015": 0.618070004354,
			"-0.014": 1.09613329516,
			"-0.013": 1.71018541615,
			"-0.012": 1.53936148695,
			"-0.011": 1.38044258196,
			"-0.01": 1.43433871522,
			"-0.009": 1.77686910411,
			"-0.008": 2.3997823658,
			"-0.007": 4.73011905912,
			"-0.006": 12.5001080123,
			"-0.005": 15.516622488,
			"-0.004": 17.7070605673,
			"-0.003": 21.0084814116,
			"-0.002": 18.2508391517,
			"-0.001": 15.3335099608,
			"0.0": 11.4710806485,
			"0.001": 10.5584283958,
			"0.002": 10.7716985374,
			"0.003": 11.2393674935,
			"0.004": 11.5003635221,
			"0.005": 12.487393999,
			"0.006": 7.00482122411,
			"0.007": 3.89234574586,
			"0.008": 4.56318079746,
			"0.009": 5.89202426977,
			"0.01": 5.88744718421,
			"0.011": 4.38407572967,
			"0.012": 3.99482466986,
			"0.013": 3.77680940566,
			"0.014": 2.18764640217,
			"0.015": 0.330855934434,
			"0.016": 0.0,
			"0.017": 0.0,
			"0.018": 0.0,
			"0.019": 0.0,
			"0.02": 0.0,
			"0.021": 0.0,
			"0.022": 0.0,
			"0.023": 0.0,
			"0.024": 0.0,
			"0.025": 0.0
		}
	}
}
