{
	 "smiles": "OC(=O)CC1=C(F)C(F)=CC=C1F", 
	 "Tm": 385.15, 
	 "num_atms": 18, 
	 "gaussian": { 
		 "optdone": 1, 
		 "sigma_profile": "yes", 
		 "theory": "DFT", 
		 "functional": "B3LYP", 
		 "basiset": "6-31G**", 
		 "properties": { 
			 "R2extent": 3274.5029, 
			 "electric_dipole_moment_norm": 4.61593664168, 
			 "electric_quadrupole_moment_norm": 9.29111624779, 
			 "total_energy": -757.816140976, 
			 "HOMO_LUMO_gap": 0.21559, 
			 "cosmo_polarized_energy": -12.11, 
			 "cosmo_cavitation_energy": 24.17, 
			 "cosmo_dispersion_energy": -17.25, 
			 "cosmo_repulsion_energy": 1.3, 
			 "cosmo_total_nonelectrostatic_energy": 8.22, 
			 "SMD_solvation_energy": 6.61 
		},
		"coords": [
			{
				"x": -3.4141618949,
				"y": 0.6845557178,
				"z": -0.9091855937,
				"element": "O" 
			},
			{
				"x": -2.9517509773,
				"y": -0.4684268169,
				"z": -0.3726807199,
				"element": "C" 
			},
			{
				"x": -3.3267638407,
				"y": -0.8436028986,
				"z": 0.7077389336,
				"element": "O" 
			},
			{
				"x": -1.9501575109,
				"y": -1.2574854702,
				"z": -1.2356288226,
				"element": "C" 
			},
			{
				"x": -0.6615078283,
				"y": -0.5184310713,
				"z": -1.5159974179,
				"element": "C" 
			},
			{
				"x": -0.5736190951,
				"y": 0.4698364922,
				"z": -2.493700259,
				"element": "C" 
			},
			{
				"x": -1.6904618059,
				"y": 0.7877074984,
				"z": -3.2039154207,
				"element": "F" 
			},
			{
				"x": 0.6059051107,
				"y": 1.1551537533,
				"z": -2.7670230748,
				"element": "C" 
			},
			{
				"x": 0.6085709886,
				"y": 2.0965098781,
				"z": -3.7234144252,
				"element": "F" 
			},
			{
				"x": 1.7580230752,
				"y": 0.8571542414,
				"z": -2.0516752316,
				"element": "C" 
			},
			{
				"x": 1.715058648,
				"y": -0.1274756173,
				"z": -1.0636767623,
				"element": "C" 
			},
			{
				"x": 0.519103201,
				"y": -0.7895414545,
				"z": -0.8143252607,
				"element": "C" 
			},
			{
				"x": 0.4911689486,
				"y": -1.744508832,
				"z": 0.1344967719,
				"element": "F" 
			},
			{
				"x": -3.035081857,
				"y": 0.8368352672,
				"z": -1.7889947859,
				"element": "H" 
			},
			{
				"x": -2.4389057782,
				"y": -1.5126764531,
				"z": -2.1834877146,
				"element": "H" 
			},
			{
				"x": -1.7346964791,
				"y": -2.1796177583,
				"z": -0.6986570624,
				"element": "H" 
			},
			{
				"x": 2.6707922615,
				"y": 1.3987363922,
				"z": -2.2722536354,
				"element": "H" 
			},
			{
				"x": 2.5950848337,
				"y": -0.3863228683,
				"z": -0.4867195191,
				"element": "H" 
			}
		],
		 "valence_orbital": [ 
			{
				"type": "occ",
				"energy": -0.36663,
				"method": "rhf"
			},
			{
				"type": "occ",
				"energy": -0.31699,
				"method": "rhf"
			},
			{
				"type": "occ",
				"energy": -0.29534,
				"method": "rhf"
			},
			{
				"type": "occ",
				"energy": -0.2692,
				"method": "rhf"
			},
			{
				"type": "occ",
				"energy": -0.25982,
				"method": "rhf"
			},
			{
				"type": "unocc",
				"energy": -0.04423,
				"method": "rhf"
			},
			{
				"type": "unocc",
				"energy": -0.02092,
				"method": "rhf"
			},
			{
				"type": "unocc",
				"energy": 0.00764,
				"method": "rhf"
			},
			{
				"type": "unocc",
				"energy": 0.03646,
				"method": "rhf"
			},
			{
				"type": "unocc",
				"energy": 0.09216,
				"method": "rhf"
			}
		],
		"cosmo_sigma_profile": { 
			"-0.025": 0.0,
			"-0.024": 0.0,
			"-0.023": 0.0,
			"-0.022": 0.0,
			"-0.021": 0.0,
			"-0.02": 0.0,
			"-0.019": 0.0,
			"-0.018": 0.0,
			"-0.017": 0.0,
			"-0.016": 0.0,
			"-0.015": 0.0,
			"-0.014": 0.0,
			"-0.013": 0.192426097468,
			"-0.012": 0.930139299991,
			"-0.011": 2.13975092164,
			"-0.01": 1.62733716792,
			"-0.009": 4.09690005368,
			"-0.008": 7.38592132353,
			"-0.007": 6.97975202514,
			"-0.006": 9.03210482927,
			"-0.005": 8.58154762486,
			"-0.004": 10.9079450858,
			"-0.003": 10.4604044327,
			"-0.002": 14.5383448682,
			"-0.001": 16.5861478658,
			"0.0": 15.4201069911,
			"0.001": 13.9806140174,
			"0.002": 13.189422859,
			"0.003": 19.7396959126,
			"0.004": 9.79280421934,
			"0.005": 1.98328497621,
			"0.006": 2.20115241136,
			"0.007": 2.25947983959,
			"0.008": 2.5526564711,
			"0.009": 3.95505404259,
			"0.01": 5.15596883963,
			"0.011": 6.00202564044,
			"0.012": 4.22788910125,
			"0.013": 0.798606085375,
			"0.014": 0.0,
			"0.015": 0.0,
			"0.016": 0.0,
			"0.017": 0.0,
			"0.018": 0.0,
			"0.019": 0.0,
			"0.02": 0.0,
			"0.021": 0.0,
			"0.022": 0.0,
			"0.023": 0.0,
			"0.024": 0.0,
			"0.025": 0.0
		}
	}
}
