{
	 "smiles": "COC1=C(OC)C(=O)OC1C(CBr)OC(C)=O", 
	 "Tm": 347.15, 
	 "num_atms": 30, 
	 "gaussian": { 
		 "optdone": 1, 
		 "sigma_profile": "yes", 
		 "theory": "DFT", 
		 "functional": "B3LYP", 
		 "basiset": "6-31G**", 
		 "properties": { 
			 "R2extent": 5756.2556, 
			 "electric_dipole_moment_norm": 6.96707400133, 
			 "electric_quadrupole_moment_norm": 24.418649557, 
			 "total_energy": -3411.61131714, 
			 "HOMO_LUMO_gap": 0.20582, 
			 "cosmo_polarized_energy": -22.88, 
			 "cosmo_cavitation_energy": 36.97, 
			 "cosmo_dispersion_energy": -24.52, 
			 "cosmo_repulsion_energy": 1.97, 
			 "cosmo_total_nonelectrostatic_energy": 14.42, 
			 "SMD_solvation_energy": 8.66 
		},
		"coords": [
			{
				"x": 3.4466367824,
				"y": -0.9506076876,
				"z": 0.1619854613,
				"element": "C" 
			},
			{
				"x": 2.119266711,
				"y": -0.7615207884,
				"z": 0.6728687126,
				"element": "O" 
			},
			{
				"x": 1.1102145913,
				"y": -1.2281855437,
				"z": -0.1218117872,
				"element": "C" 
			},
			{
				"x": 0.2263646366,
				"y": -2.2111105626,
				"z": 0.1388484392,
				"element": "C" 
			},
			{
				"x": 0.0360293069,
				"y": -3.0700549093,
				"z": 1.1492372311,
				"element": "O" 
			},
			{
				"x": 0.9264097539,
				"y": -2.9965082416,
				"z": 2.2656768713,
				"element": "C" 
			},
			{
				"x": -0.7204511117,
				"y": -2.3001978067,
				"z": -1.0045156389,
				"element": "C" 
			},
			{
				"x": -1.6497008841,
				"y": -3.0443906528,
				"z": -1.164743003,
				"element": "O" 
			},
			{
				"x": -0.3450861248,
				"y": -1.3595922926,
				"z": -1.937909777,
				"element": "O" 
			},
			{
				"x": 0.7409165091,
				"y": -0.5720620896,
				"z": -1.4359480763,
				"element": "C" 
			},
			{
				"x": 0.253785993,
				"y": 0.896563156,
				"z": -1.339883336,
				"element": "C" 
			},
			{
				"x": 1.35567701,
				"y": 1.8281286075,
				"z": -0.8579388697,
				"element": "C" 
			},
			{
				"x": 0.8266020741,
				"y": 3.7237692621,
				"z": -0.9775559046,
				"element": "Br" 
			},
			{
				"x": -0.8405701118,
				"y": 0.9412807453,
				"z": -0.4218789543,
				"element": "O" 
			},
			{
				"x": -2.0651139512,
				"y": 1.3142418077,
				"z": -0.9183725243,
				"element": "C" 
			},
			{
				"x": -3.1042129322,
				"y": 1.2428973922,
				"z": 0.1700644737,
				"element": "C" 
			},
			{
				"x": -2.2554601363,
				"y": 1.639223733,
				"z": -2.0639111252,
				"element": "O" 
			},
			{
				"x": 4.1233502029,
				"y": -0.5469346924,
				"z": 0.916360982,
				"element": "H" 
			},
			{
				"x": 3.6021074334,
				"y": -0.4140246263,
				"z": -0.7813904375,
				"element": "H" 
			},
			{
				"x": 3.6566099709,
				"y": -2.0154456383,
				"z": 0.0085059816,
				"element": "H" 
			},
			{
				"x": 1.9509471601,
				"y": -3.2488390638,
				"z": 1.9705590749,
				"element": "H" 
			},
			{
				"x": 0.9161438799,
				"y": -1.9998809245,
				"z": 2.7157353115,
				"element": "H" 
			},
			{
				"x": 0.5610492633,
				"y": -3.7342532695,
				"z": 2.980734794,
				"element": "H" 
			},
			{
				"x": 1.5533528745,
				"y": -0.6137655856,
				"z": -2.1740734805,
				"element": "H" 
			},
			{
				"x": -0.1046820861,
				"y": 1.195533789,
				"z": -2.3283118312,
				"element": "H" 
			},
			{
				"x": 2.2481186076,
				"y": 1.733210891,
				"z": -1.4777292477,
				"element": "H" 
			},
			{
				"x": 1.6043122247,
				"y": 1.6471655473,
				"z": 0.1853443037,
				"element": "H" 
			},
			{
				"x": -4.0419322906,
				"y": 1.6562822167,
				"z": -0.1992618277,
				"element": "H" 
			},
			{
				"x": -3.2538424383,
				"y": 0.1991726699,
				"z": 0.4639584987,
				"element": "H" 
			},
			{
				"x": -2.7670429184,
				"y": 1.7913045573,
				"z": 1.0535556851,
				"element": "H" 
			}
		],
		 "valence_orbital": [ 
			{
				"type": "occ",
				"energy": -0.28125,
				"method": "rhf"
			},
			{
				"type": "occ",
				"energy": -0.28034,
				"method": "rhf"
			},
			{
				"type": "occ",
				"energy": -0.27536,
				"method": "rhf"
			},
			{
				"type": "occ",
				"energy": -0.27481,
				"method": "rhf"
			},
			{
				"type": "occ",
				"energy": -0.24305,
				"method": "rhf"
			},
			{
				"type": "unocc",
				"energy": -0.03723,
				"method": "rhf"
			},
			{
				"type": "unocc",
				"energy": -0.01271,
				"method": "rhf"
			},
			{
				"type": "unocc",
				"energy": 0.00925,
				"method": "rhf"
			},
			{
				"type": "unocc",
				"energy": 0.0488,
				"method": "rhf"
			},
			{
				"type": "unocc",
				"energy": 0.06314,
				"method": "rhf"
			}
		],
		"cosmo_sigma_profile": { 
			"-0.025": 0.0,
			"-0.024": 0.0,
			"-0.023": 0.0,
			"-0.022": 0.0,
			"-0.021": 0.0,
			"-0.02": 0.0,
			"-0.019": 0.0,
			"-0.018": 0.0,
			"-0.017": 0.0,
			"-0.016": 0.0,
			"-0.015": 0.0,
			"-0.014": 0.0,
			"-0.013": 0.000614589827807,
			"-0.012": 0.534456830257,
			"-0.011": 1.91836280834,
			"-0.01": 2.84094531763,
			"-0.009": 5.50792140195,
			"-0.008": 5.56631005442,
			"-0.007": 7.63556265929,
			"-0.006": 19.0132459228,
			"-0.005": 26.4082295992,
			"-0.004": 30.9786539256,
			"-0.003": 27.2098946548,
			"-0.002": 20.5722719883,
			"-0.001": 14.6100037836,
			"0.0": 11.7183633263,
			"0.001": 11.8915273348,
			"0.002": 10.9516561653,
			"0.003": 11.5747864781,
			"0.004": 14.1740359185,
			"0.005": 16.0603815459,
			"0.006": 11.8302793612,
			"0.007": 6.04308820542,
			"0.008": 6.38348945375,
			"0.009": 6.7630450379,
			"0.01": 7.09711672774,
			"0.011": 11.1168086577,
			"0.012": 6.58628565133,
			"0.013": 0.534966270002,
			"0.014": 0.0,
			"0.015": 0.0,
			"0.016": 0.0,
			"0.017": 0.0,
			"0.018": 0.0,
			"0.019": 0.0,
			"0.02": 0.0,
			"0.021": 0.0,
			"0.022": 0.0,
			"0.023": 0.0,
			"0.024": 0.0,
			"0.025": 0.0
		}
	}
}
