{
	 "smiles": "CCOC1=CC=C(OCC2=CC=C(C=C2)C(=O)NN)C=C1", 
	 "Tm": 401.15, 
	 "num_atms": 39, 
	 "gaussian": { 
		 "optdone": 1, 
		 "sigma_profile": "yes", 
		 "theory": "DFT", 
		 "functional": "B3LYP", 
		 "basiset": "6-31G**", 
		 "properties": { 
			 "R2extent": 10675.9522, 
			 "electric_dipole_moment_norm": 3.25309350158, 
			 "electric_quadrupole_moment_norm": 29.612620071, 
			 "total_energy": -955.686951727, 
			 "HOMO_LUMO_gap": 0.16029, 
			 "cosmo_polarized_energy": -19.66, 
			 "cosmo_cavitation_energy": 43.26, 
			 "cosmo_dispersion_energy": -30.47, 
			 "cosmo_repulsion_energy": 2.39, 
			 "cosmo_total_nonelectrostatic_energy": 15.18, 
			 "SMD_solvation_energy": 8.76 
		},
		"coords": [
			{
				"x": -4.470034468,
				"y": -4.2943871904,
				"z": -3.6023798652,
				"element": "C" 
			},
			{
				"x": -3.4450442919,
				"y": -3.3741248235,
				"z": -2.9621688863,
				"element": "C" 
			},
			{
				"x": -3.3324728629,
				"y": -3.7420067229,
				"z": -1.5907070356,
				"element": "O" 
			},
			{
				"x": -2.4525573724,
				"y": -3.0541537154,
				"z": -0.8004685582,
				"element": "C" 
			},
			{
				"x": -1.6483558318,
				"y": -1.9962720959,
				"z": -1.2279064771,
				"element": "C" 
			},
			{
				"x": -0.7795222174,
				"y": -1.3583523895,
				"z": -0.3301838914,
				"element": "C" 
			},
			{
				"x": -0.7076816224,
				"y": -1.7810528585,
				"z": 0.9963399549,
				"element": "C" 
			},
			{
				"x": 0.1133243518,
				"y": -1.239168537,
				"z": 1.9603468943,
				"element": "O" 
			},
			{
				"x": 1.0849541651,
				"y": -0.2788074875,
				"z": 1.5719947611,
				"element": "C" 
			},
			{
				"x": 0.5339460052,
				"y": 1.1225002872,
				"z": 1.3802165277,
				"element": "C" 
			},
			{
				"x": 1.1945249574,
				"y": 2.0309553335,
				"z": 0.543440737,
				"element": "C" 
			},
			{
				"x": 0.7348483517,
				"y": 3.3383921925,
				"z": 0.41211831,
				"element": "C" 
			},
			{
				"x": -0.419033832,
				"y": 3.7569285777,
				"z": 1.0882620537,
				"element": "C" 
			},
			{
				"x": -1.0748357138,
				"y": 2.8496205476,
				"z": 1.9329679779,
				"element": "C" 
			},
			{
				"x": -0.5976288776,
				"y": 1.549284143,
				"z": 2.0837928688,
				"element": "C" 
			},
			{
				"x": -0.8250447247,
				"y": 5.194582231,
				"z": 0.9345000504,
				"element": "C" 
			},
			{
				"x": 0.009228738,
				"y": 6.0852410984,
				"z": 0.8184630139,
				"element": "O" 
			},
			{
				"x": -2.1732531364,
				"y": 5.5031592826,
				"z": 0.9423205349,
				"element": "N" 
			},
			{
				"x": -3.2231853038,
				"y": 4.652759925,
				"z": 0.5272879225,
				"element": "N" 
			},
			{
				"x": -1.5193371998,
				"y": -2.8427613789,
				"z": 1.4252959913,
				"element": "C" 
			},
			{
				"x": -2.3808622828,
				"y": -3.4697934903,
				"z": 0.5395696355,
				"element": "C" 
			},
			{
				"x": -5.440717003,
				"y": -4.1918404595,
				"z": -3.1092130055,
				"element": "H" 
			},
			{
				"x": -4.5901871689,
				"y": -4.0465735026,
				"z": -4.6615166038,
				"element": "H" 
			},
			{
				"x": -4.152775558,
				"y": -5.337947602,
				"z": -3.5234097775,
				"element": "H" 
			},
			{
				"x": -2.4684969004,
				"y": -3.4710584074,
				"z": -3.4589655881,
				"element": "H" 
			},
			{
				"x": -3.7582732576,
				"y": -2.3229360916,
				"z": -3.045423623,
				"element": "H" 
			},
			{
				"x": -1.6840107478,
				"y": -1.6465174065,
				"z": -2.2527391135,
				"element": "H" 
			},
			{
				"x": -0.1847807824,
				"y": -0.5251511022,
				"z": -0.6847887514,
				"element": "H" 
			},
			{
				"x": 1.6180656364,
				"y": -0.6082773862,
				"z": 0.6696898298,
				"element": "H" 
			},
			{
				"x": 1.8093603934,
				"y": -0.2762385021,
				"z": 2.3946603212,
				"element": "H" 
			},
			{
				"x": 2.0800065888,
				"y": 1.7154739258,
				"z": -0.0038687422,
				"element": "H" 
			},
			{
				"x": 1.2593761383,
				"y": 4.0536016082,
				"z": -0.2128229407,
				"element": "H" 
			},
			{
				"x": -1.9393041301,
				"y": 3.1670188412,
				"z": 2.5076255257,
				"element": "H" 
			},
			{
				"x": -1.1028311169,
				"y": 0.8535668368,
				"z": 2.7457866384,
				"element": "H" 
			},
			{
				"x": -2.3419614332,
				"y": 6.4790904795,
				"z": 0.7268346579,
				"element": "H" 
			},
			{
				"x": -3.5479119931,
				"y": 4.0998101397,
				"z": 1.3147657515,
				"element": "H" 
			},
			{
				"x": -2.8943272517,
				"y": 4.0107418617,
				"z": -0.1900152223,
				"element": "H" 
			},
			{
				"x": -1.4524633602,
				"y": -3.1633090519,
				"z": 2.4599471838,
				"element": "H" 
			},
			{
				"x": -3.0100448852,
				"y": -4.2933971096,
				"z": 0.8610509397,
				"element": "H" 
			}
		],
		 "valence_orbital": [ 
			{
				"type": "occ",
				"energy": -0.26415,
				"method": "rhf"
			},
			{
				"type": "occ",
				"energy": -0.2525,
				"method": "rhf"
			},
			{
				"type": "occ",
				"energy": -0.25175,
				"method": "rhf"
			},
			{
				"type": "occ",
				"energy": -0.24236,
				"method": "rhf"
			},
			{
				"type": "occ",
				"energy": -0.20154,
				"method": "rhf"
			},
			{
				"type": "unocc",
				"energy": -0.04125,
				"method": "rhf"
			},
			{
				"type": "unocc",
				"energy": -0.01619,
				"method": "rhf"
			},
			{
				"type": "unocc",
				"energy": -0.00297,
				"method": "rhf"
			},
			{
				"type": "unocc",
				"energy": 0.02385,
				"method": "rhf"
			},
			{
				"type": "unocc",
				"energy": 0.04202,
				"method": "rhf"
			}
		],
		"cosmo_sigma_profile": { 
			"-0.025": 0.0,
			"-0.024": 0.0,
			"-0.023": 0.0,
			"-0.022": 0.0,
			"-0.021": 0.0,
			"-0.02": 0.0,
			"-0.019": 0.0865244314958,
			"-0.018": 0.0650230621257,
			"-0.017": 0.316992876552,
			"-0.016": 0.714407602426,
			"-0.015": 0.429799789569,
			"-0.014": 0.0708562479917,
			"-0.013": 1.2208124931,
			"-0.012": 1.66334089974,
			"-0.011": 3.77752942727,
			"-0.01": 2.81178415549,
			"-0.009": 2.95432627949,
			"-0.008": 3.9382310232,
			"-0.007": 6.60770015738,
			"-0.006": 18.2540849992,
			"-0.005": 23.9945080225,
			"-0.004": 30.8046390086,
			"-0.003": 28.1233115754,
			"-0.002": 25.6899997187,
			"-0.001": 21.7667512533,
			"0.0": 22.0442438957,
			"0.001": 19.7381007832,
			"0.002": 16.7165714173,
			"0.003": 19.9295308785,
			"0.004": 27.5287195484,
			"0.005": 18.1304138333,
			"0.006": 9.7465860028,
			"0.007": 5.45036792791,
			"0.008": 4.07372294789,
			"0.009": 4.84462581749,
			"0.01": 4.60880246774,
			"0.011": 2.81713946921,
			"0.012": 2.84185822089,
			"0.013": 5.76890299258,
			"0.014": 3.79767434953,
			"0.015": 0.679451300511,
			"0.016": 0.451127807993,
			"0.017": 0.0525789825765,
			"0.018": 0.0,
			"0.019": 0.0,
			"0.02": 0.0,
			"0.021": 0.0,
			"0.022": 0.0,
			"0.023": 0.0,
			"0.024": 0.0,
			"0.025": 0.0
		}
	}
}
