{
	 "smiles": "NC(=O)C1=NC(Cl)=CN=C1", 
	 "Tm": 440.15, 
	 "num_atms": 14, 
	 "gaussian": { 
		 "optdone": 1, 
		 "sigma_profile": "yes", 
		 "theory": "DFT", 
		 "functional": "B3LYP", 
		 "basiset": "6-31G**", 
		 "properties": { 
			 "R2extent": 2152.0566, 
			 "electric_dipole_moment_norm": 2.22350897007, 
			 "electric_quadrupole_moment_norm": 10.4452592462, 
			 "total_energy": -892.61884173, 
			 "HOMO_LUMO_gap": 0.17653, 
			 "cosmo_polarized_energy": -11.22, 
			 "cosmo_cavitation_energy": 21.17, 
			 "cosmo_dispersion_energy": -16.03, 
			 "cosmo_repulsion_energy": 1.32, 
			 "cosmo_total_nonelectrostatic_energy": 6.46, 
			 "SMD_solvation_energy": 1.95 
		},
		"coords": [
			{
				"x": -0.5156920029,
				"y": 1.7369138564,
				"z": -1.4526240791,
				"element": "N" 
			},
			{
				"x": 0.4115552109,
				"y": 0.7766232505,
				"z": -1.688305801,
				"element": "C" 
			},
			{
				"x": 1.3940801636,
				"y": 0.911095687,
				"z": -2.4076674863,
				"element": "O" 
			},
			{
				"x": 0.1458070254,
				"y": -0.5289217737,
				"z": -0.9768148745,
				"element": "C" 
			},
			{
				"x": -0.9450753854,
				"y": -0.6285949552,
				"z": -0.1983508323,
				"element": "N" 
			},
			{
				"x": -1.136888386,
				"y": -1.786575436,
				"z": 0.4029795644,
				"element": "C" 
			},
			{
				"x": -2.5494466186,
				"y": -1.9557315057,
				"z": 1.427250704,
				"element": "Cl" 
			},
			{
				"x": -0.2604692869,
				"y": -2.872082482,
				"z": 0.2522406898,
				"element": "C" 
			},
			{
				"x": 0.8209348281,
				"y": -2.7729029677,
				"z": -0.5196360948,
				"element": "N" 
			},
			{
				"x": 1.0261854521,
				"y": -1.6012339395,
				"z": -1.135620548,
				"element": "C" 
			},
			{
				"x": -1.2992012256,
				"y": 1.5477928261,
				"z": -0.8458464004,
				"element": "H" 
			},
			{
				"x": -0.4055167982,
				"y": 2.6360480253,
				"z": -1.8936420694,
				"element": "H" 
			},
			{
				"x": -0.4445377398,
				"y": -3.814286115,
				"z": 0.7604403889,
				"element": "H" 
			},
			{
				"x": 1.9001647634,
				"y": -1.4963444705,
				"z": -1.7695031612,
				"element": "H" 
			}
		],
		 "valence_orbital": [ 
			{
				"type": "occ",
				"energy": -0.33108,
				"method": "rhf"
			},
			{
				"type": "occ",
				"energy": -0.28996,
				"method": "rhf"
			},
			{
				"type": "occ",
				"energy": -0.28367,
				"method": "rhf"
			},
			{
				"type": "occ",
				"energy": -0.27743,
				"method": "rhf"
			},
			{
				"type": "occ",
				"energy": -0.26032,
				"method": "rhf"
			},
			{
				"type": "unocc",
				"energy": -0.08379,
				"method": "rhf"
			},
			{
				"type": "unocc",
				"energy": -0.05763,
				"method": "rhf"
			},
			{
				"type": "unocc",
				"energy": 0.01667,
				"method": "rhf"
			},
			{
				"type": "unocc",
				"energy": 0.03841,
				"method": "rhf"
			},
			{
				"type": "unocc",
				"energy": 0.08523,
				"method": "rhf"
			}
		],
		"cosmo_sigma_profile": { 
			"-0.025": 0.0,
			"-0.024": 0.0,
			"-0.023": 0.0,
			"-0.022": 0.0,
			"-0.021": 0.0,
			"-0.02": 0.0,
			"-0.019": 0.0,
			"-0.018": 0.0,
			"-0.017": 0.0,
			"-0.016": 0.0,
			"-0.015": 0.495285655291,
			"-0.014": 1.24486111501,
			"-0.013": 1.96749735201,
			"-0.012": 2.1074776302,
			"-0.011": 1.372805024,
			"-0.01": 2.54803500676,
			"-0.009": 3.01005095653,
			"-0.008": 3.99936058079,
			"-0.007": 4.69694972757,
			"-0.006": 4.83832942113,
			"-0.005": 6.48426917802,
			"-0.004": 11.5995745924,
			"-0.003": 15.6632603411,
			"-0.002": 15.1758318845,
			"-0.001": 11.322497066,
			"0.0": 8.84909712707,
			"0.001": 11.4822433016,
			"0.002": 12.6793294615,
			"0.003": 13.8018291757,
			"0.004": 8.92665278214,
			"0.005": 5.35909080832,
			"0.006": 2.74476350997,
			"0.007": 2.36908207465,
			"0.008": 2.51183452937,
			"0.009": 1.37996307759,
			"0.01": 2.15184420485,
			"0.011": 2.76025076348,
			"0.012": 4.39023839976,
			"0.013": 5.21028585946,
			"0.014": 1.71911921415,
			"0.015": 0.0258607879646,
			"0.016": 0.0,
			"0.017": 0.0,
			"0.018": 0.0,
			"0.019": 0.0,
			"0.02": 0.0,
			"0.021": 0.0,
			"0.022": 0.0,
			"0.023": 0.0,
			"0.024": 0.0,
			"0.025": 0.0
		}
	}
}
