{
	 "smiles": "C1CN(CCO1)SSN1CCOCC1", 
	 "Tm": 397.15, 
	 "num_atms": 30, 
	 "gaussian": { 
		 "optdone": 1, 
		 "sigma_profile": "yes", 
		 "theory": "DFT", 
		 "functional": "B3LYP", 
		 "basiset": "6-31G**", 
		 "properties": { 
			 "R2extent": 4955.5928, 
			 "electric_dipole_moment_norm": 0.736013858565, 
			 "electric_quadrupole_moment_norm": 5.44242571653, 
			 "total_energy": -1370.74667039, 
			 "HOMO_LUMO_gap": 0.18067, 
			 "cosmo_polarized_energy": -10.3, 
			 "cosmo_cavitation_energy": 33.9, 
			 "cosmo_dispersion_energy": -24.87, 
			 "cosmo_repulsion_energy": 1.89, 
			 "cosmo_total_nonelectrostatic_energy": 10.91, 
			 "SMD_solvation_energy": 2.13 
		},
		"coords": [
			{
				"x": 0.4137252104,
				"y": -2.2194932618,
				"z": -2.335754287,
				"element": "C" 
			},
			{
				"x": -0.899049737,
				"y": -1.523152917,
				"z": -2.6870337076,
				"element": "C" 
			},
			{
				"x": -0.7316590945,
				"y": -0.0526562667,
				"z": -2.696700057,
				"element": "N" 
			},
			{
				"x": 0.6550899364,
				"y": 0.4001521946,
				"z": -2.8811511992,
				"element": "C" 
			},
			{
				"x": 1.3879125115,
				"y": -0.5809949844,
				"z": -3.7914453875,
				"element": "C" 
			},
			{
				"x": 1.4628306533,
				"y": -1.8965387934,
				"z": -3.2439011766,
				"element": "O" 
			},
			{
				"x": -1.7586074452,
				"y": 0.9088207019,
				"z": -1.7672761301,
				"element": "S" 
			},
			{
				"x": -1.1914842125,
				"y": 0.8713621143,
				"z": 0.292879511,
				"element": "S" 
			},
			{
				"x": -1.950592542,
				"y": -0.5464405229,
				"z": 0.9363097019,
				"element": "N" 
			},
			{
				"x": -3.1582941466,
				"y": -0.3180793258,
				"z": 1.7508568004,
				"element": "C" 
			},
			{
				"x": -2.8088883716,
				"y": 0.0362956816,
				"z": 3.1977811876,
				"element": "C" 
			},
			{
				"x": -1.9751117535,
				"y": -0.9626789257,
				"z": 3.7770357955,
				"element": "O" 
			},
			{
				"x": -0.7641914121,
				"y": -1.1237671576,
				"z": 3.0478410148,
				"element": "C" 
			},
			{
				"x": -1.0489233937,
				"y": -1.5090557263,
				"z": 1.5934463092,
				"element": "C" 
			},
			{
				"x": 0.7069471888,
				"y": -1.95715595,
				"z": -1.3069881851,
				"element": "H" 
			},
			{
				"x": 0.2842803493,
				"y": -3.3063512674,
				"z": -2.3768234021,
				"element": "H" 
			},
			{
				"x": -1.2307237034,
				"y": -1.8553712806,
				"z": -3.6803363308,
				"element": "H" 
			},
			{
				"x": -1.6729696123,
				"y": -1.7954484399,
				"z": -1.9662897623,
				"element": "H" 
			},
			{
				"x": 0.6465229305,
				"y": 1.3972939601,
				"z": -3.3327943544,
				"element": "H" 
			},
			{
				"x": 1.1845421596,
				"y": 0.4744663544,
				"z": -1.9185461805,
				"element": "H" 
			},
			{
				"x": 0.8883977415,
				"y": -0.6088877179,
				"z": -4.7720348568,
				"element": "H" 
			},
			{
				"x": 2.4167425923,
				"y": -0.2401779871,
				"z": -3.9494818912,
				"element": "H" 
			},
			{
				"x": -3.7625029982,
				"y": 0.4640091648,
				"z": 1.2848122364,
				"element": "H" 
			},
			{
				"x": -3.7398914153,
				"y": -1.2499150108,
				"z": 1.7422576368,
				"element": "H" 
			},
			{
				"x": -2.3062831424,
				"y": 1.0178973708,
				"z": 3.2291859593,
				"element": "H" 
			},
			{
				"x": -3.707876299,
				"y": 0.0884804736,
				"z": 3.820100916,
				"element": "H" 
			},
			{
				"x": -0.1740936255,
				"y": -0.1916206584,
				"z": 3.0756402865,
				"element": "H" 
			},
			{
				"x": -0.1956168575,
				"y": -1.9074176264,
				"z": 3.5589272827,
				"element": "H" 
			},
			{
				"x": -0.1203834799,
				"y": -1.5839610748,
				"z": 1.0210320034,
				"element": "H" 
			},
			{
				"x": -1.5452480313,
				"y": -2.4893131212,
				"z": 1.576250267,
				"element": "H" 
			}
		],
		 "valence_orbital": [ 
			{
				"type": "occ",
				"energy": -0.25732,
				"method": "rhf"
			},
			{
				"type": "occ",
				"energy": -0.25396,
				"method": "rhf"
			},
			{
				"type": "occ",
				"energy": -0.2453,
				"method": "rhf"
			},
			{
				"type": "occ",
				"energy": -0.24393,
				"method": "rhf"
			},
			{
				"type": "occ",
				"energy": -0.20521,
				"method": "rhf"
			},
			{
				"type": "unocc",
				"energy": -0.02454,
				"method": "rhf"
			},
			{
				"type": "unocc",
				"energy": 0.02183,
				"method": "rhf"
			},
			{
				"type": "unocc",
				"energy": 0.02912,
				"method": "rhf"
			},
			{
				"type": "unocc",
				"energy": 0.07001,
				"method": "rhf"
			},
			{
				"type": "unocc",
				"energy": 0.10127,
				"method": "rhf"
			}
		],
		"cosmo_sigma_profile": { 
			"-0.025": 0.0,
			"-0.024": 0.0,
			"-0.023": 0.0,
			"-0.022": 0.0,
			"-0.021": 0.0,
			"-0.02": 0.0,
			"-0.019": 0.0,
			"-0.018": 0.0,
			"-0.017": 0.0,
			"-0.016": 0.0,
			"-0.015": 0.0,
			"-0.014": 0.0,
			"-0.013": 0.0,
			"-0.012": 0.0,
			"-0.011": 0.0,
			"-0.01": 0.0,
			"-0.009": 0.0,
			"-0.008": 0.0,
			"-0.007": 0.0,
			"-0.006": 3.09831459131,
			"-0.005": 23.4209033495,
			"-0.004": 39.9586986736,
			"-0.003": 41.85961416,
			"-0.002": 29.258292909,
			"-0.001": 18.9597730334,
			"0.0": 13.295772536,
			"0.001": 12.527077638,
			"0.002": 11.8438120722,
			"0.003": 14.9668478349,
			"0.004": 12.7140821331,
			"0.005": 9.6406433528,
			"0.006": 8.4809589039,
			"0.007": 7.81227677444,
			"0.008": 5.8425663824,
			"0.009": 1.98446221161,
			"0.01": 1.59461081291,
			"0.011": 3.32966224843,
			"0.012": 2.79532782897,
			"0.013": 3.54340620602,
			"0.014": 1.03401501658,
			"0.015": 0.0,
			"0.016": 0.0,
			"0.017": 0.0,
			"0.018": 0.0,
			"0.019": 0.0,
			"0.02": 0.0,
			"0.021": 0.0,
			"0.022": 0.0,
			"0.023": 0.0,
			"0.024": 0.0,
			"0.025": 0.0
		}
	}
}
