{
	 "smiles": "CCN1C=C(Br)C=C1C(O)=O", 
	 "Tm": 422.15, 
	 "num_atms": 19, 
	 "gaussian": { 
		 "optdone": 1, 
		 "sigma_profile": "yes", 
		 "theory": "DFT", 
		 "functional": "B3LYP", 
		 "basiset": "6-31G**", 
		 "properties": { 
			 "R2extent": 3943.2816, 
			 "electric_dipole_moment_norm": 2.32037449995, 
			 "electric_quadrupole_moment_norm": 14.7801933824, 
			 "total_energy": -3048.17253967, 
			 "HOMO_LUMO_gap": 0.19344, 
			 "cosmo_polarized_energy": -13.11, 
			 "cosmo_cavitation_energy": 25.29, 
			 "cosmo_dispersion_energy": -18.88, 
			 "cosmo_repulsion_energy": 1.53, 
			 "cosmo_total_nonelectrostatic_energy": 7.94, 
			 "SMD_solvation_energy": 4.52 
		},
		"coords": [
			{
				"x": 1.186877241,
				"y": -1.5937651,
				"z": 0.983967095,
				"element": "C" 
			},
			{
				"x": 0.6682262579,
				"y": -0.2023523303,
				"z": 1.3442896283,
				"element": "C" 
			},
			{
				"x": -0.4147942128,
				"y": 0.2485159832,
				"z": 0.4545274367,
				"element": "N" 
			},
			{
				"x": -1.7375287411,
				"y": 0.0629776654,
				"z": 0.7299773444,
				"element": "C" 
			},
			{
				"x": -2.4800113346,
				"y": 0.5669804276,
				"z": -0.3241067079,
				"element": "C" 
			},
			{
				"x": -4.3628890432,
				"y": 0.5518003388,
				"z": -0.4415706411,
				"element": "Br" 
			},
			{
				"x": -1.5839132205,
				"y": 1.0819752898,
				"z": -1.276533468,
				"element": "C" 
			},
			{
				"x": -0.2978265884,
				"y": 0.8766161472,
				"z": -0.7758593395,
				"element": "C" 
			},
			{
				"x": 1.0002309078,
				"y": 1.2111957236,
				"z": -1.3793707843,
				"element": "C" 
			},
			{
				"x": 0.9510738944,
				"y": 2.0537432793,
				"z": -2.4451377436,
				"element": "O" 
			},
			{
				"x": 2.0729101368,
				"y": 0.7862498905,
				"z": -0.9998599044,
				"element": "O" 
			},
			{
				"x": 1.6378858888,
				"y": -1.579713796,
				"z": -0.0099344941,
				"element": "H" 
			},
			{
				"x": 0.3818929258,
				"y": -2.3349089102,
				"z": 1.0056324645,
				"element": "H" 
			},
			{
				"x": 1.9533199147,
				"y": -1.8970289829,
				"z": 1.7042679613,
				"element": "H" 
			},
			{
				"x": 1.4751761123,
				"y": 0.5273158884,
				"z": 1.2874907259,
				"element": "H" 
			},
			{
				"x": 0.2582925705,
				"y": -0.1869380119,
				"z": 2.3585312377,
				"element": "H" 
			},
			{
				"x": -2.0629472004,
				"y": -0.4031675994,
				"z": 1.6475040717,
				"element": "H" 
			},
			{
				"x": -1.8551361928,
				"y": 1.5144475696,
				"z": -2.2295581492,
				"element": "H" 
			},
			{
				"x": 0.0627606838,
				"y": 2.4246565273,
				"z": -2.5399567333,
				"element": "H" 
			}
		],
		 "valence_orbital": [ 
			{
				"type": "occ",
				"energy": -0.31683,
				"method": "rhf"
			},
			{
				"type": "occ",
				"energy": -0.29541,
				"method": "rhf"
			},
			{
				"type": "occ",
				"energy": -0.27834,
				"method": "rhf"
			},
			{
				"type": "occ",
				"energy": -0.2579,
				"method": "rhf"
			},
			{
				"type": "occ",
				"energy": -0.23358,
				"method": "rhf"
			},
			{
				"type": "unocc",
				"energy": -0.04014,
				"method": "rhf"
			},
			{
				"type": "unocc",
				"energy": 0.0095,
				"method": "rhf"
			},
			{
				"type": "unocc",
				"energy": 0.03299,
				"method": "rhf"
			},
			{
				"type": "unocc",
				"energy": 0.06188,
				"method": "rhf"
			},
			{
				"type": "unocc",
				"energy": 0.09053,
				"method": "rhf"
			}
		],
		"cosmo_sigma_profile": { 
			"-0.025": 0.0,
			"-0.024": 0.0,
			"-0.023": 0.0,
			"-0.022": 0.0,
			"-0.021": 0.0,
			"-0.02": 0.0,
			"-0.019": 0.0935789492346,
			"-0.018": 0.831173437476,
			"-0.017": 0.996687759749,
			"-0.016": 0.847440181027,
			"-0.015": 1.35331634464,
			"-0.014": 1.05401113603,
			"-0.013": 0.811139703348,
			"-0.012": 0.86004539409,
			"-0.011": 1.7170532708,
			"-0.01": 1.54195132595,
			"-0.009": 4.25737951403,
			"-0.008": 3.17638995373,
			"-0.007": 4.10382129757,
			"-0.006": 5.62252995075,
			"-0.005": 6.61140602435,
			"-0.004": 14.8802354968,
			"-0.003": 16.6166713467,
			"-0.002": 13.2554267948,
			"-0.001": 13.9205187109,
			"0.0": 17.2240551992,
			"0.001": 14.6058749875,
			"0.002": 12.1963888421,
			"0.003": 17.5273076522,
			"0.004": 17.6220604009,
			"0.005": 8.84534490324,
			"0.006": 1.81024908499,
			"0.007": 2.74469657319,
			"0.008": 2.51724057516,
			"0.009": 3.56061804011,
			"0.01": 3.54163990494,
			"0.011": 4.3823739343,
			"0.012": 3.18128878157,
			"0.013": 2.19895650318,
			"0.014": 0.223374690583,
			"0.015": 0.0,
			"0.016": 0.0,
			"0.017": 0.0,
			"0.018": 0.0,
			"0.019": 0.0,
			"0.02": 0.0,
			"0.021": 0.0,
			"0.022": 0.0,
			"0.023": 0.0,
			"0.024": 0.0,
			"0.025": 0.0
		}
	}
}
