{
	 "smiles": "CC(=O)NC1=C(SC=C1)C(O)=O", 
	 "Tm": 474.15, 
	 "num_atms": 19, 
	 "gaussian": { 
		 "optdone": 1, 
		 "sigma_profile": "yes", 
		 "theory": "DFT", 
		 "functional": "B3LYP", 
		 "basiset": "6-31G**", 
		 "properties": { 
			 "R2extent": 2380.5006, 
			 "electric_dipole_moment_norm": 2.73138618654, 
			 "electric_quadrupole_moment_norm": 19.377044327, 
			 "total_energy": -949.585206753, 
			 "HOMO_LUMO_gap": 0.17573, 
			 "cosmo_polarized_energy": -17.0, 
			 "cosmo_cavitation_energy": 25.29, 
			 "cosmo_dispersion_energy": -18.68, 
			 "cosmo_repulsion_energy": 1.46, 
			 "cosmo_total_nonelectrostatic_energy": 8.07, 
			 "SMD_solvation_energy": 6.65 
		},
		"coords": [
			{
				"x": 1.2856579757,
				"y": -2.3902320536,
				"z": -1.3508094698,
				"element": "C" 
			},
			{
				"x": 0.0065136211,
				"y": -1.8426643939,
				"z": -1.9505429276,
				"element": "C" 
			},
			{
				"x": -0.5745940712,
				"y": -2.3858596244,
				"z": -2.875509467,
				"element": "O" 
			},
			{
				"x": -0.4949130676,
				"y": -0.6521006038,
				"z": -1.4365034874,
				"element": "N" 
			},
			{
				"x": -0.0020306327,
				"y": 0.163792952,
				"z": -0.4017209074,
				"element": "C" 
			},
			{
				"x": 0.1221076441,
				"y": -0.1854220101,
				"z": 0.9386699828,
				"element": "C" 
			},
			{
				"x": 0.7874520937,
				"y": 1.1283587204,
				"z": 1.8734775536,
				"element": "S" 
			},
			{
				"x": 0.8547785226,
				"y": 2.1424382074,
				"z": 0.4817055544,
				"element": "C" 
			},
			{
				"x": 0.412333633,
				"y": 1.5096147674,
				"z": -0.6475940734,
				"element": "C" 
			},
			{
				"x": -0.2867800285,
				"y": -1.3715688668,
				"z": 1.7001099034,
				"element": "C" 
			},
			{
				"x": -0.8911916093,
				"y": -2.3259402637,
				"z": 0.9527516915,
				"element": "O" 
			},
			{
				"x": -0.1235972899,
				"y": -1.4905798915,
				"z": 2.9007521424,
				"element": "O" 
			},
			{
				"x": 1.9553236952,
				"y": -1.6076450782,
				"z": -0.9868715484,
				"element": "H" 
			},
			{
				"x": 1.7830893733,
				"y": -2.9809469394,
				"z": -2.1207390574,
				"element": "H" 
			},
			{
				"x": 1.0412549291,
				"y": -3.0480002283,
				"z": -0.5129050495,
				"element": "H" 
			},
			{
				"x": -1.2717886685,
				"y": -0.2964152184,
				"z": -1.9808883965,
				"element": "H" 
			},
			{
				"x": 1.2416043894,
				"y": 3.1490943465,
				"z": 0.5650913908,
				"element": "H" 
			},
			{
				"x": 0.3947287232,
				"y": 1.9589828653,
				"z": -1.6337728362,
				"element": "H" 
			},
			{
				"x": -1.1370492326,
				"y": -3.0292066868,
				"z": 1.5771990016,
				"element": "H" 
			}
		],
		 "valence_orbital": [ 
			{
				"type": "occ",
				"energy": -0.29455,
				"method": "rhf"
			},
			{
				"type": "occ",
				"energy": -0.28958,
				"method": "rhf"
			},
			{
				"type": "occ",
				"energy": -0.26512,
				"method": "rhf"
			},
			{
				"type": "occ",
				"energy": -0.25491,
				"method": "rhf"
			},
			{
				"type": "occ",
				"energy": -0.24403,
				"method": "rhf"
			},
			{
				"type": "unocc",
				"energy": -0.0683,
				"method": "rhf"
			},
			{
				"type": "unocc",
				"energy": 0.00783,
				"method": "rhf"
			},
			{
				"type": "unocc",
				"energy": 0.01357,
				"method": "rhf"
			},
			{
				"type": "unocc",
				"energy": 0.03045,
				"method": "rhf"
			},
			{
				"type": "unocc",
				"energy": 0.06654,
				"method": "rhf"
			}
		],
		"cosmo_sigma_profile": { 
			"-0.025": 0.0,
			"-0.024": 0.0,
			"-0.023": 0.0,
			"-0.022": 0.0,
			"-0.021": 0.0,
			"-0.02": 0.0,
			"-0.019": 0.0798889783432,
			"-0.018": 1.36871748953,
			"-0.017": 0.397035066595,
			"-0.016": 0.783735631298,
			"-0.015": 1.07870046537,
			"-0.014": 2.10259759311,
			"-0.013": 1.79958118507,
			"-0.012": 1.61072845116,
			"-0.011": 1.69396777493,
			"-0.01": 2.80714356416,
			"-0.009": 4.23890962701,
			"-0.008": 5.91121071562,
			"-0.007": 5.24496478904,
			"-0.006": 5.12380337812,
			"-0.005": 9.78329635843,
			"-0.004": 12.0698365419,
			"-0.003": 13.8415127757,
			"-0.002": 16.6860416737,
			"-0.001": 15.8318500215,
			"0.0": 12.9884140216,
			"0.001": 14.515075615,
			"0.002": 14.3298533318,
			"0.003": 11.1586015632,
			"0.004": 4.21856710752,
			"0.005": 3.7826222064,
			"0.006": 4.39483884772,
			"0.007": 4.15362883226,
			"0.008": 4.6073573084,
			"0.009": 2.85537156943,
			"0.01": 3.51009164001,
			"0.011": 6.12868238557,
			"0.012": 5.22403326365,
			"0.013": 5.84334602574,
			"0.014": 3.15027815047,
			"0.015": 0.35571714364,
			"0.016": 0.0,
			"0.017": 0.0,
			"0.018": 0.0,
			"0.019": 0.0,
			"0.02": 0.0,
			"0.021": 0.0,
			"0.022": 0.0,
			"0.023": 0.0,
			"0.024": 0.0,
			"0.025": 0.0
		}
	}
}
