{
	 "smiles": "CS(=O)(=O)CC(O)C1=CC=CC=C1", 
	 "Tm": 377.15, 
	 "num_atms": 25, 
	 "gaussian": { 
		 "optdone": 1, 
		 "sigma_profile": "yes", 
		 "theory": "DFT", 
		 "functional": "B3LYP", 
		 "basiset": "6-31G**", 
		 "properties": { 
			 "R2extent": 3308.7319, 
			 "electric_dipole_moment_norm": 3.97861428766, 
			 "electric_quadrupole_moment_norm": 16.9147995873, 
			 "total_energy": -973.981743239, 
			 "HOMO_LUMO_gap": 0.23729, 
			 "cosmo_polarized_energy": -19.81, 
			 "cosmo_cavitation_energy": 29.05, 
			 "cosmo_dispersion_energy": -21.13, 
			 "cosmo_repulsion_energy": 1.62, 
			 "cosmo_total_nonelectrostatic_energy": 9.54, 
			 "SMD_solvation_energy": 4.41 
		},
		"coords": [
			{
				"x": -3.325647653,
				"y": 0.557113958,
				"z": -2.4295765701,
				"element": "C" 
			},
			{
				"x": -1.9345583057,
				"y": 1.1489222002,
				"z": -1.4371420754,
				"element": "S" 
			},
			{
				"x": -0.9637528593,
				"y": 1.7639266982,
				"z": -2.3505020313,
				"element": "O" 
			},
			{
				"x": -2.5040822236,
				"y": 1.9357909293,
				"z": -0.3173489494,
				"element": "O" 
			},
			{
				"x": -1.2406883285,
				"y": -0.3860773973,
				"z": -0.724327864,
				"element": "C" 
			},
			{
				"x": -0.5199060888,
				"y": -0.1527646449,
				"z": 0.6293315805,
				"element": "C" 
			},
			{
				"x": -1.4448303226,
				"y": 0.224148955,
				"z": 1.6245342966,
				"element": "O" 
			},
			{
				"x": 0.7008587774,
				"y": 0.7647977157,
				"z": 0.5309803205,
				"element": "C" 
			},
			{
				"x": 0.8253258706,
				"y": 1.8722738774,
				"z": 1.3738951342,
				"element": "C" 
			},
			{
				"x": 1.9560287397,
				"y": 2.689375283,
				"z": 1.3086943226,
				"element": "C" 
			},
			{
				"x": 2.9797872032,
				"y": 2.4029562914,
				"z": 0.4066105667,
				"element": "C" 
			},
			{
				"x": 2.8694276272,
				"y": 1.2894927749,
				"z": -0.4296802324,
				"element": "C" 
			},
			{
				"x": 1.7391301484,
				"y": 0.4770987582,
				"z": -0.3658284742,
				"element": "C" 
			},
			{
				"x": -2.9569834068,
				"y": -0.1236773955,
				"z": -3.1987987751,
				"element": "H" 
			},
			{
				"x": -3.7590267473,
				"y": 1.4454672308,
				"z": -2.8931251234,
				"element": "H" 
			},
			{
				"x": -4.0576799691,
				"y": 0.071946291,
				"z": -1.782560376,
				"element": "H" 
			},
			{
				"x": -0.5813097425,
				"y": -0.8047341784,
				"z": -1.4874773395,
				"element": "H" 
			},
			{
				"x": -2.0842360096,
				"y": -1.0612081842,
				"z": -0.5536213893,
				"element": "H" 
			},
			{
				"x": -0.1633244027,
				"y": -1.1482655982,
				"z": 0.9283899129,
				"element": "H" 
			},
			{
				"x": -1.9094849736,
				"y": 1.0141036614,
				"z": 1.2949724907,
				"element": "H" 
			},
			{
				"x": 0.0381823053,
				"y": 2.081906635,
				"z": 2.088983625,
				"element": "H" 
			},
			{
				"x": 2.0351318737,
				"y": 3.5492651943,
				"z": 1.9678502593,
				"element": "H" 
			},
			{
				"x": 3.8591767137,
				"y": 3.0384697837,
				"z": 0.355888208,
				"element": "H" 
			},
			{
				"x": 3.6633010046,
				"y": 1.0542441827,
				"z": -1.1328501861,
				"element": "H" 
			},
			{
				"x": 1.6732607693,
				"y": -0.3892730218,
				"z": -1.0200913307,
				"element": "H" 
			}
		],
		 "valence_orbital": [ 
			{
				"type": "occ",
				"energy": -0.30379,
				"method": "rhf"
			},
			{
				"type": "occ",
				"energy": -0.2912,
				"method": "rhf"
			},
			{
				"type": "occ",
				"energy": -0.27777,
				"method": "rhf"
			},
			{
				"type": "occ",
				"energy": -0.24518,
				"method": "rhf"
			},
			{
				"type": "occ",
				"energy": -0.23948,
				"method": "rhf"
			},
			{
				"type": "unocc",
				"energy": -0.00219,
				"method": "rhf"
			},
			{
				"type": "unocc",
				"energy": 0.0042,
				"method": "rhf"
			},
			{
				"type": "unocc",
				"energy": 0.03944,
				"method": "rhf"
			},
			{
				"type": "unocc",
				"energy": 0.06648,
				"method": "rhf"
			},
			{
				"type": "unocc",
				"energy": 0.07142,
				"method": "rhf"
			}
		],
		"cosmo_sigma_profile": { 
			"-0.025": 0.0,
			"-0.024": 0.0,
			"-0.023": 0.0,
			"-0.022": 0.0,
			"-0.021": 0.0,
			"-0.02": 0.0,
			"-0.019": 0.0,
			"-0.018": 0.0,
			"-0.017": 0.0,
			"-0.016": 0.0,
			"-0.015": 0.0,
			"-0.014": 0.0,
			"-0.013": 0.0,
			"-0.012": 0.149693421759,
			"-0.011": 1.08014268247,
			"-0.01": 2.39866641609,
			"-0.009": 9.34920320429,
			"-0.008": 10.9125820555,
			"-0.007": 12.3688484168,
			"-0.006": 15.4430537447,
			"-0.005": 18.3741973855,
			"-0.004": 17.7943304068,
			"-0.003": 15.0394978388,
			"-0.002": 10.1490706689,
			"-0.001": 9.08370667026,
			"0.0": 7.69234819529,
			"0.001": 8.31695983463,
			"0.002": 8.79554273073,
			"0.003": 10.1219234559,
			"0.004": 11.934870824,
			"0.005": 10.5049627838,
			"0.006": 9.32815044074,
			"0.007": 5.79006961326,
			"0.008": 4.28021271464,
			"0.009": 5.29253626063,
			"0.01": 6.27231615392,
			"0.011": 9.30755702481,
			"0.012": 6.78325275734,
			"0.013": 2.16743659212,
			"0.014": 1.17523675727,
			"0.015": 0.0,
			"0.016": 0.0,
			"0.017": 0.0,
			"0.018": 0.0,
			"0.019": 0.0,
			"0.02": 0.0,
			"0.021": 0.0,
			"0.022": 0.0,
			"0.023": 0.0,
			"0.024": 0.0,
			"0.025": 0.0
		}
	}
}
