{
	 "smiles": "NC1=CC2=C(NC(=O)N2)C=C1", 
	 "Tm": 441.15, 
	 "num_atms": 18, 
	 "gaussian": { 
		 "optdone": 1, 
		 "sigma_profile": "yes", 
		 "theory": "DFT", 
		 "functional": "B3LYP", 
		 "basiset": "6-31G**", 
		 "properties": { 
			 "R2extent": 2017.8558, 
			 "electric_dipole_moment_norm": 4.12111197373, 
			 "electric_quadrupole_moment_norm": 12.9919729772, 
			 "total_energy": -510.475400984, 
			 "HOMO_LUMO_gap": 0.18329, 
			 "cosmo_polarized_energy": -18.07, 
			 "cosmo_cavitation_energy": 22.23, 
			 "cosmo_dispersion_energy": -17.11, 
			 "cosmo_repulsion_energy": 1.38, 
			 "cosmo_total_nonelectrostatic_energy": 6.51, 
			 "SMD_solvation_energy": 4.28 
		},
		"coords": [
			{
				"x": -1.8136583802,
				"y": -0.5065202957,
				"z": 2.969911991,
				"element": "N" 
			},
			{
				"x": -1.523871493,
				"y": 0.0018025461,
				"z": 1.6941556996,
				"element": "C" 
			},
			{
				"x": -0.556928308,
				"y": -0.6330710047,
				"z": 0.8897347033,
				"element": "C" 
			},
			{
				"x": -0.3436980951,
				"y": -0.1395895037,
				"z": -0.3895266538,
				"element": "C" 
			},
			{
				"x": -1.0637121206,
				"y": 0.9650474533,
				"z": -0.8888465723,
				"element": "C" 
			},
			{
				"x": -0.598330339,
				"y": 1.1892880468,
				"z": -2.1869170098,
				"element": "N" 
			},
			{
				"x": 0.3869787107,
				"y": 0.2712261426,
				"z": -2.5371200286,
				"element": "C" 
			},
			{
				"x": 0.9966341443,
				"y": 0.1833190799,
				"z": -3.5883628022,
				"element": "O" 
			},
			{
				"x": 0.5228646359,
				"y": -0.5349514813,
				"z": -1.4014292074,
				"element": "N" 
			},
			{
				"x": -2.0163715496,
				"y": 1.5938346211,
				"z": -0.1020355076,
				"element": "C" 
			},
			{
				"x": -2.2380538426,
				"y": 1.1039684719,
				"z": 1.1902924412,
				"element": "C" 
			},
			{
				"x": -2.2228191257,
				"y": 0.169263917,
				"z": 3.6014352321,
				"element": "H" 
			},
			{
				"x": -1.0434624884,
				"y": -0.9911709369,
				"z": 3.4115116322,
				"element": "H" 
			},
			{
				"x": -0.0030553997,
				"y": -1.4897732804,
				"z": 1.2628482788,
				"element": "H" 
			},
			{
				"x": -0.9055273344,
				"y": 1.9004056774,
				"z": -2.8295903124,
				"element": "H" 
			},
			{
				"x": 1.1750710084,
				"y": -1.3016893529,
				"z": -1.3794836033,
				"element": "H" 
			},
			{
				"x": -2.5785470839,
				"y": 2.4468064815,
				"z": -0.4693798604,
				"element": "H" 
			},
			{
				"x": -2.984612939,
				"y": 1.581803418,
				"z": 1.8185015796,
				"element": "H" 
			}
		],
		 "valence_orbital": [ 
			{
				"type": "occ",
				"energy": -0.32368,
				"method": "rhf"
			},
			{
				"type": "occ",
				"energy": -0.26778,
				"method": "rhf"
			},
			{
				"type": "occ",
				"energy": -0.2608,
				"method": "rhf"
			},
			{
				"type": "occ",
				"energy": -0.22657,
				"method": "rhf"
			},
			{
				"type": "occ",
				"energy": -0.18442,
				"method": "rhf"
			},
			{
				"type": "unocc",
				"energy": -0.00113,
				"method": "rhf"
			},
			{
				"type": "unocc",
				"energy": 0.02878,
				"method": "rhf"
			},
			{
				"type": "unocc",
				"energy": 0.07593,
				"method": "rhf"
			},
			{
				"type": "unocc",
				"energy": 0.07836,
				"method": "rhf"
			},
			{
				"type": "unocc",
				"energy": 0.08428,
				"method": "rhf"
			}
		],
		"cosmo_sigma_profile": { 
			"-0.025": 0.0,
			"-0.024": 0.0,
			"-0.023": 0.0,
			"-0.022": 0.0,
			"-0.021": 0.0,
			"-0.02": 0.0,
			"-0.019": 0.0,
			"-0.018": 0.0,
			"-0.017": 0.0,
			"-0.016": 0.941212640679,
			"-0.015": 2.79037017962,
			"-0.014": 2.57338530299,
			"-0.013": 1.81722181544,
			"-0.012": 3.46521263707,
			"-0.011": 4.95742018722,
			"-0.01": 4.546560604,
			"-0.009": 5.53942502708,
			"-0.008": 4.5387719749,
			"-0.007": 7.21203173598,
			"-0.006": 9.32428875766,
			"-0.005": 6.97123044247,
			"-0.004": 7.18942445463,
			"-0.003": 6.26088319814,
			"-0.002": 5.31886845893,
			"-0.001": 5.7023859032,
			"0.0": 9.19930401806,
			"0.001": 10.1965248053,
			"0.002": 10.1842477599,
			"0.003": 10.2118321334,
			"0.004": 8.95407251323,
			"0.005": 8.85709654994,
			"0.006": 10.0404096834,
			"0.007": 4.90915153904,
			"0.008": 1.80387586951,
			"0.009": 2.47488334127,
			"0.01": 2.30756369702,
			"0.011": 1.59850381782,
			"0.012": 2.55155788999,
			"0.013": 3.58916937899,
			"0.014": 8.25198016324,
			"0.015": 2.41686935686,
			"0.016": 0.194245942035,
			"0.017": 0.0,
			"0.018": 0.0,
			"0.019": 0.0,
			"0.02": 0.0,
			"0.021": 0.0,
			"0.022": 0.0,
			"0.023": 0.0,
			"0.024": 0.0,
			"0.025": 0.0
		}
	}
}
