{
	 "smiles": "NNC(=O)C1=NNC(=O)C2=C1C=CC=C2", 
	 "Tm": 513.15, 
	 "num_atms": 23, 
	 "gaussian": { 
		 "optdone": 1, 
		 "sigma_profile": "yes", 
		 "theory": "DFT", 
		 "functional": "B3LYP", 
		 "basiset": "6-31G**", 
		 "properties": { 
			 "R2extent": 3204.9861, 
			 "electric_dipole_moment_norm": 1.94707849097, 
			 "electric_quadrupole_moment_norm": 17.3066863535, 
			 "total_energy": -717.204909845, 
			 "HOMO_LUMO_gap": 0.17293, 
			 "cosmo_polarized_energy": -17.5, 
			 "cosmo_cavitation_energy": 27.71, 
			 "cosmo_dispersion_energy": -20.71, 
			 "cosmo_repulsion_energy": 1.62, 
			 "cosmo_total_nonelectrostatic_energy": 8.62, 
			 "SMD_solvation_energy": 5.96 
		},
		"coords": [
			{
				"x": 1.2888175285,
				"y": -2.4515811229,
				"z": 1.9445644826,
				"element": "N" 
			},
			{
				"x": 0.8945947515,
				"y": -1.2350468835,
				"z": 2.5317763031,
				"element": "N" 
			},
			{
				"x": 0.1322745492,
				"y": -0.2157824745,
				"z": 2.0325653623,
				"element": "C" 
			},
			{
				"x": -0.0451302654,
				"y": 0.8069597176,
				"z": 2.6906288737,
				"element": "O" 
			},
			{
				"x": -0.5081339971,
				"y": -0.3807391135,
				"z": 0.6731750734,
				"element": "C" 
			},
			{
				"x": -0.9521457396,
				"y": -1.5752681719,
				"z": 0.3934465606,
				"element": "N" 
			},
			{
				"x": -1.6138888253,
				"y": -1.7544876576,
				"z": -0.7646918614,
				"element": "N" 
			},
			{
				"x": -1.8904995283,
				"y": -0.8133688141,
				"z": -1.756175274,
				"element": "C" 
			},
			{
				"x": -2.5039023559,
				"y": -1.1381384665,
				"z": -2.7645937736,
				"element": "O" 
			},
			{
				"x": -1.3728675748,
				"y": 0.5256812453,
				"z": -1.4415339866,
				"element": "C" 
			},
			{
				"x": -0.6951392921,
				"y": 0.7579690031,
				"z": -0.2195451202,
				"element": "C" 
			},
			{
				"x": -0.2190119779,
				"y": 2.0590470792,
				"z": 0.0491149114,
				"element": "C" 
			},
			{
				"x": -0.4150653575,
				"y": 3.0741531779,
				"z": -0.8765207925,
				"element": "C" 
			},
			{
				"x": -1.0879863504,
				"y": 2.8321173775,
				"z": -2.0852819072,
				"element": "C" 
			},
			{
				"x": -1.5672790683,
				"y": 1.5616128647,
				"z": -2.3655466039,
				"element": "C" 
			},
			{
				"x": 1.8981878028,
				"y": -2.2597120568,
				"z": 1.1510130086,
				"element": "H" 
			},
			{
				"x": 0.457756071,
				"y": -2.9113603529,
				"z": 1.5838534782,
				"element": "H" 
			},
			{
				"x": 1.2334669947,
				"y": -1.0764510884,
				"z": 3.472089084,
				"element": "H" 
			},
			{
				"x": -1.9582518377,
				"y": -2.6930713231,
				"z": -0.9261088374,
				"element": "H" 
			},
			{
				"x": 0.275705997,
				"y": 2.2561244394,
				"z": 0.990717437,
				"element": "H" 
			},
			{
				"x": -0.045091001,
				"y": 4.0714494579,
				"z": -0.6573042959,
				"element": "H" 
			},
			{
				"x": -1.2340505838,
				"y": 3.6395015637,
				"z": -2.7964912278,
				"element": "H" 
			},
			{
				"x": -2.0941599393,
				"y": 1.3348915994,
				"z": -3.2860508942,
				"element": "H" 
			}
		],
		 "valence_orbital": [ 
			{
				"type": "occ",
				"energy": -0.27236,
				"method": "rhf"
			},
			{
				"type": "occ",
				"energy": -0.26864,
				"method": "rhf"
			},
			{
				"type": "occ",
				"energy": -0.2642,
				"method": "rhf"
			},
			{
				"type": "occ",
				"energy": -0.25068,
				"method": "rhf"
			},
			{
				"type": "occ",
				"energy": -0.24346,
				"method": "rhf"
			},
			{
				"type": "unocc",
				"energy": -0.07053,
				"method": "rhf"
			},
			{
				"type": "unocc",
				"energy": -0.05208,
				"method": "rhf"
			},
			{
				"type": "unocc",
				"energy": -0.01198,
				"method": "rhf"
			},
			{
				"type": "unocc",
				"energy": 0.05178,
				"method": "rhf"
			},
			{
				"type": "unocc",
				"energy": 0.06601,
				"method": "rhf"
			}
		],
		"cosmo_sigma_profile": { 
			"-0.025": 0.0,
			"-0.024": 0.0,
			"-0.023": 0.0,
			"-0.022": 0.0,
			"-0.021": 0.0,
			"-0.02": 0.0,
			"-0.019": 0.0,
			"-0.018": 0.0,
			"-0.017": 0.124218667002,
			"-0.016": 0.998821363351,
			"-0.015": 0.98990395035,
			"-0.014": 1.85320830988,
			"-0.013": 1.68571787374,
			"-0.012": 2.10504702973,
			"-0.011": 3.67478578675,
			"-0.01": 3.00618195232,
			"-0.009": 2.7566793286,
			"-0.008": 4.47432365359,
			"-0.007": 9.07180322817,
			"-0.006": 9.86926006898,
			"-0.005": 12.596155438,
			"-0.004": 12.7170483795,
			"-0.003": 15.2883743064,
			"-0.002": 13.5656038201,
			"-0.001": 15.9876525879,
			"0.0": 14.0528543551,
			"0.001": 17.3405353564,
			"0.002": 18.0160333726,
			"0.003": 11.9330880308,
			"0.004": 4.67089982606,
			"0.005": 3.95826458005,
			"0.006": 3.26936494032,
			"0.007": 3.30858534456,
			"0.008": 3.81427702818,
			"0.009": 3.62378850056,
			"0.01": 3.59082921271,
			"0.011": 4.1963931882,
			"0.012": 7.71503479434,
			"0.013": 8.95022694464,
			"0.014": 1.15996403331,
			"0.015": 0.921439397144,
			"0.016": 0.431969930932,
			"0.017": 0.0471561478281,
			"0.018": 0.0,
			"0.019": 0.0,
			"0.02": 0.0,
			"0.021": 0.0,
			"0.022": 0.0,
			"0.023": 0.0,
			"0.024": 0.0,
			"0.025": 0.0
		}
	}
}
