{
	 "smiles": "CN(C)S(=O)(=O)C1=CC(N)=C(F)C=C1", 
	 "Tm": 378.15, 
	 "num_atms": 25, 
	 "gaussian": { 
		 "optdone": 1, 
		 "sigma_profile": "yes", 
		 "theory": "DFT", 
		 "functional": "B3LYP", 
		 "basiset": "6-31G**", 
		 "properties": { 
			 "R2extent": 3685.8521, 
			 "electric_dipole_moment_norm": 6.10042013389, 
			 "electric_quadrupole_moment_norm": 20.133294255, 
			 "total_energy": -1069.38110575, 
			 "HOMO_LUMO_gap": 0.19276, 
			 "cosmo_polarized_energy": -17.16, 
			 "cosmo_cavitation_energy": 29.8, 
			 "cosmo_dispersion_energy": -21.69, 
			 "cosmo_repulsion_energy": 1.64, 
			 "cosmo_total_nonelectrostatic_energy": 9.74, 
			 "SMD_solvation_energy": 3.99 
		},
		"coords": [
			{
				"x": -1.8282946561,
				"y": -1.0175246218,
				"z": 1.5212121258,
				"element": "C" 
			},
			{
				"x": -1.829963772,
				"y": -1.5208631,
				"z": 0.1468502854,
				"element": "N" 
			},
			{
				"x": -0.8204136529,
				"y": -2.5418700698,
				"z": -0.1392670617,
				"element": "C" 
			},
			{
				"x": -2.0986248391,
				"y": -0.3733817729,
				"z": -1.0682537107,
				"element": "S" 
			},
			{
				"x": -2.1595799053,
				"y": -1.1209216488,
				"z": -2.3256199193,
				"element": "O" 
			},
			{
				"x": -3.2097262009,
				"y": 0.4587529201,
				"z": -0.6003137704,
				"element": "O" 
			},
			{
				"x": -0.6334391218,
				"y": 0.6677746562,
				"z": -1.1298448275,
				"element": "C" 
			},
			{
				"x": -0.5994398469,
				"y": 1.8240167857,
				"z": -0.3457698502,
				"element": "C" 
			},
			{
				"x": 0.5459037896,
				"y": 2.6324070106,
				"z": -0.3379013924,
				"element": "C" 
			},
			{
				"x": 0.6260159435,
				"y": 3.8277750175,
				"z": 0.3565409611,
				"element": "N" 
			},
			{
				"x": 1.6269389145,
				"y": 2.2131625366,
				"z": -1.1334612603,
				"element": "C" 
			},
			{
				"x": 2.7404022336,
				"y": 2.9871639784,
				"z": -1.1112247421,
				"element": "F" 
			},
			{
				"x": 1.5958291286,
				"y": 1.0745833021,
				"z": -1.918160587,
				"element": "C" 
			},
			{
				"x": 0.4469709713,
				"y": 0.2794278207,
				"z": -1.9247997525,
				"element": "C" 
			},
			{
				"x": -2.6602788516,
				"y": -0.3263185161,
				"z": 1.6532130274,
				"element": "H" 
			},
			{
				"x": -0.8851535796,
				"y": -0.517205025,
				"z": 1.7916405286,
				"element": "H" 
			},
			{
				"x": -1.9737967373,
				"y": -1.8682595494,
				"z": 2.193450103,
				"element": "H" 
			},
			{
				"x": -0.9532513688,
				"y": -2.9049043687,
				"z": -1.1580177244,
				"element": "H" 
			},
			{
				"x": -0.9788076063,
				"y": -3.3763933739,
				"z": 0.5501535932,
				"element": "H" 
			},
			{
				"x": 0.2087841342,
				"y": -2.1723968956,
				"z": -0.0101253182,
				"element": "H" 
			},
			{
				"x": -1.4767630098,
				"y": 2.1134145691,
				"z": 0.2231227158,
				"element": "H" 
			},
			{
				"x": 0.0144644681,
				"y": 3.9278948662,
				"z": 1.1527932269,
				"element": "H" 
			},
			{
				"x": 1.5605166238,
				"y": 4.1784576346,
				"z": 0.5074701388,
				"element": "H" 
			},
			{
				"x": 2.4648589247,
				"y": 0.825399361,
				"z": -2.5174954808,
				"element": "H" 
			},
			{
				"x": 0.3779480164,
				"y": -0.5996915168,
				"z": -2.5534913084,
				"element": "H" 
			}
		],
		 "valence_orbital": [ 
			{
				"type": "occ",
				"energy": -0.30014,
				"method": "rhf"
			},
			{
				"type": "occ",
				"energy": -0.29685,
				"method": "rhf"
			},
			{
				"type": "occ",
				"energy": -0.27268,
				"method": "rhf"
			},
			{
				"type": "occ",
				"energy": -0.25259,
				"method": "rhf"
			},
			{
				"type": "occ",
				"energy": -0.22349,
				"method": "rhf"
			},
			{
				"type": "unocc",
				"energy": -0.03073,
				"method": "rhf"
			},
			{
				"type": "unocc",
				"energy": -0.01293,
				"method": "rhf"
			},
			{
				"type": "unocc",
				"energy": 0.05958,
				"method": "rhf"
			},
			{
				"type": "unocc",
				"energy": 0.06882,
				"method": "rhf"
			},
			{
				"type": "unocc",
				"energy": 0.08453,
				"method": "rhf"
			}
		],
		"cosmo_sigma_profile": { 
			"-0.025": 0.0,
			"-0.024": 0.0,
			"-0.023": 0.0,
			"-0.022": 0.0,
			"-0.021": 0.0,
			"-0.02": 0.0,
			"-0.019": 0.0,
			"-0.018": 0.0,
			"-0.017": 0.0,
			"-0.016": 0.0,
			"-0.015": 0.0,
			"-0.014": 0.428004972406,
			"-0.013": 2.03362327719,
			"-0.012": 2.38710647584,
			"-0.011": 2.20616773459,
			"-0.01": 3.16462146304,
			"-0.009": 3.05469865313,
			"-0.008": 3.68804764863,
			"-0.007": 4.99848945991,
			"-0.006": 10.6569896791,
			"-0.005": 12.9450932865,
			"-0.004": 18.4114552143,
			"-0.003": 23.4498452929,
			"-0.002": 22.4088962421,
			"-0.001": 11.837627774,
			"0.0": 11.8540979412,
			"0.001": 15.2454575445,
			"0.002": 15.3777026024,
			"0.003": 15.2622680361,
			"0.004": 11.1386168678,
			"0.005": 4.55378533839,
			"0.006": 4.88407720937,
			"0.007": 5.54669987656,
			"0.008": 5.24101167674,
			"0.009": 4.86096637269,
			"0.01": 6.95585721463,
			"0.011": 8.13406637391,
			"0.012": 5.4209558526,
			"0.013": 0.0898946052978,
			"0.014": 0.0,
			"0.015": 0.0,
			"0.016": 0.0,
			"0.017": 0.0,
			"0.018": 0.0,
			"0.019": 0.0,
			"0.02": 0.0,
			"0.021": 0.0,
			"0.022": 0.0,
			"0.023": 0.0,
			"0.024": 0.0,
			"0.025": 0.0
		}
	}
}
