{
	 "smiles": "ClC1=CC2=C(C=C1)C(=O)NC(CC#N)=N2", 
	 "Tm": 556.15, 
	 "num_atms": 21, 
	 "gaussian": { 
		 "optdone": 1, 
		 "sigma_profile": "yes", 
		 "theory": "DFT", 
		 "functional": "B3LYP", 
		 "basiset": "6-31G**", 
		 "properties": { 
			 "R2extent": 5258.769, 
			 "electric_dipole_moment_norm": 2.70659545001, 
			 "electric_quadrupole_moment_norm": 13.0917609018, 
			 "total_energy": -1084.36293671, 
			 "HOMO_LUMO_gap": 0.19022, 
			 "cosmo_polarized_energy": -16.25, 
			 "cosmo_cavitation_energy": 29.07, 
			 "cosmo_dispersion_energy": -21.1, 
			 "cosmo_repulsion_energy": 1.64, 
			 "cosmo_total_nonelectrostatic_energy": 9.61, 
			 "SMD_solvation_energy": 4.95 
		},
		"coords": [
			{
				"x": -5.5108187978,
				"y": 1.3269045906,
				"z": -1.736866563,
				"element": "Cl" 
			},
			{
				"x": -3.9841222819,
				"y": 0.5039984277,
				"z": -1.4779373722,
				"element": "C" 
			},
			{
				"x": -2.84614006,
				"y": 1.2536143196,
				"z": -1.2254819647,
				"element": "C" 
			},
			{
				"x": -1.6206843611,
				"y": 0.5936528809,
				"z": -1.0186554633,
				"element": "C" 
			},
			{
				"x": -1.5800327923,
				"y": -0.8198724306,
				"z": -1.0729433424,
				"element": "C" 
			},
			{
				"x": -2.7486628049,
				"y": -1.5522721524,
				"z": -1.3291462964,
				"element": "C" 
			},
			{
				"x": -3.9537821322,
				"y": -0.9001791922,
				"z": -1.5332964224,
				"element": "C" 
			},
			{
				"x": -0.3072598248,
				"y": -1.514149617,
				"z": -0.8535860123,
				"element": "C" 
			},
			{
				"x": -0.1195317147,
				"y": -2.7197525581,
				"z": -0.8620708534,
				"element": "O" 
			},
			{
				"x": 0.7582895538,
				"y": -0.6236979329,
				"z": -0.6144128172,
				"element": "N" 
			},
			{
				"x": 0.6215879649,
				"y": 0.7392735803,
				"z": -0.5815602784,
				"element": "C" 
			},
			{
				"x": 1.8745965674,
				"y": 1.5789656953,
				"z": -0.3661253126,
				"element": "C" 
			},
			{
				"x": 2.9743877368,
				"y": 0.8669567987,
				"z": 0.2851943051,
				"element": "C" 
			},
			{
				"x": 3.8324716917,
				"y": 0.2644758183,
				"z": 0.7826326336,
				"element": "N" 
			},
			{
				"x": -0.4924339545,
				"y": 1.3664716945,
				"z": -0.7660048205,
				"element": "N" 
			},
			{
				"x": -2.8756267014,
				"y": 2.3356096855,
				"z": -1.1834042527,
				"element": "H" 
			},
			{
				"x": -2.6826336006,
				"y": -2.6346591894,
				"z": -1.362481278,
				"element": "H" 
			},
			{
				"x": -4.8643808598,
				"y": -1.4530753378,
				"z": -1.7327439424,
				"element": "H" 
			},
			{
				"x": 1.6558212347,
				"y": -1.0586045639,
				"z": -0.4245047551,
				"element": "H" 
			},
			{
				"x": 1.5920056146,
				"y": 2.4570734803,
				"z": 0.2208065354,
				"element": "H" 
			},
			{
				"x": 2.2240495223,
				"y": 1.9468660026,
				"z": -1.3393117271,
				"element": "H" 
			}
		],
		 "valence_orbital": [ 
			{
				"type": "occ",
				"energy": -0.30935,
				"method": "rhf"
			},
			{
				"type": "occ",
				"energy": -0.30094,
				"method": "rhf"
			},
			{
				"type": "occ",
				"energy": -0.28089,
				"method": "rhf"
			},
			{
				"type": "occ",
				"energy": -0.26798,
				"method": "rhf"
			},
			{
				"type": "occ",
				"energy": -0.25071,
				"method": "rhf"
			},
			{
				"type": "unocc",
				"energy": -0.06049,
				"method": "rhf"
			},
			{
				"type": "unocc",
				"energy": -0.05877,
				"method": "rhf"
			},
			{
				"type": "unocc",
				"energy": -0.00031,
				"method": "rhf"
			},
			{
				"type": "unocc",
				"energy": 0.00105,
				"method": "rhf"
			},
			{
				"type": "unocc",
				"energy": 0.0162,
				"method": "rhf"
			}
		],
		"cosmo_sigma_profile": { 
			"-0.025": 0.0,
			"-0.024": 0.0,
			"-0.023": 0.0,
			"-0.022": 0.0,
			"-0.021": 0.0,
			"-0.02": 0.0,
			"-0.019": 0.0,
			"-0.018": 0.0,
			"-0.017": 0.0,
			"-0.016": 0.0,
			"-0.015": 0.0745005726127,
			"-0.014": 0.661601641675,
			"-0.013": 0.882485838851,
			"-0.012": 1.7044207536,
			"-0.011": 4.47350675147,
			"-0.01": 6.91608291321,
			"-0.009": 5.08954667939,
			"-0.008": 8.69758800996,
			"-0.007": 9.28279401853,
			"-0.006": 9.72023822046,
			"-0.005": 11.1294067776,
			"-0.004": 10.2931291129,
			"-0.003": 11.3728549393,
			"-0.002": 11.0435450692,
			"-0.001": 14.4961455573,
			"0.0": 18.5924405165,
			"0.001": 25.0107311165,
			"0.002": 16.3907993552,
			"0.003": 11.6503507406,
			"0.004": 13.8994198634,
			"0.005": 5.49237679409,
			"0.006": 5.03653771362,
			"0.007": 4.41769020783,
			"0.008": 5.7484401243,
			"0.009": 4.62260230339,
			"0.01": 5.09838685013,
			"0.011": 5.54381787235,
			"0.012": 8.07256650442,
			"0.013": 2.25992000254,
			"0.014": 0.0,
			"0.015": 0.0,
			"0.016": 0.0,
			"0.017": 0.0,
			"0.018": 0.0,
			"0.019": 0.0,
			"0.02": 0.0,
			"0.021": 0.0,
			"0.022": 0.0,
			"0.023": 0.0,
			"0.024": 0.0,
			"0.025": 0.0
		}
	}
}
