{
	 "smiles": "NNC1=NC2=C(N1)C=CC=C2", 
	 "Tm": 354.15, 
	 "num_atms": 19, 
	 "gaussian": { 
		 "optdone": 1, 
		 "sigma_profile": "yes", 
		 "theory": "DFT", 
		 "functional": "B3LYP", 
		 "basiset": "6-31G**", 
		 "properties": { 
			 "R2extent": 1964.2723, 
			 "electric_dipole_moment_norm": 3.91650575386, 
			 "electric_quadrupole_moment_norm": 7.55565936898, 
			 "total_energy": -490.547424575, 
			 "HOMO_LUMO_gap": 0.199, 
			 "cosmo_polarized_energy": -18.22, 
			 "cosmo_cavitation_energy": 23.07, 
			 "cosmo_dispersion_energy": -17.55, 
			 "cosmo_repulsion_energy": 1.41, 
			 "cosmo_total_nonelectrostatic_energy": 6.94, 
			 "SMD_solvation_energy": 2.04 
		},
		"coords": [
			{
				"x": 1.3979948333,
				"y": -2.2842512147,
				"z": 2.5274317575,
				"element": "N" 
			},
			{
				"x": 0.1319132884,
				"y": -2.379347793,
				"z": 1.9098362842,
				"element": "N" 
			},
			{
				"x": -0.2573430369,
				"y": -1.4515818168,
				"z": 0.9620411846,
				"element": "C" 
			},
			{
				"x": -1.4971084995,
				"y": -1.0816443308,
				"z": 0.7501345817,
				"element": "N" 
			},
			{
				"x": -1.4212497027,
				"y": -0.2154992925,
				"z": -0.3360159607,
				"element": "C" 
			},
			{
				"x": -0.0784827969,
				"y": -0.0606174626,
				"z": -0.7606313983,
				"element": "C" 
			},
			{
				"x": 0.6571630552,
				"y": -0.8633755117,
				"z": 0.1106423348,
				"element": "N" 
			},
			{
				"x": 0.2887802566,
				"y": 0.7602446126,
				"z": -1.8221236989,
				"element": "C" 
			},
			{
				"x": -0.7408963178,
				"y": 1.4413504443,
				"z": -2.4763526799,
				"element": "C" 
			},
			{
				"x": -2.0791161848,
				"y": 1.3034176867,
				"z": -2.0697493324,
				"element": "C" 
			},
			{
				"x": -2.4352792528,
				"y": 0.4807127049,
				"z": -1.0009958807,
				"element": "C" 
			},
			{
				"x": 1.6877810458,
				"y": -1.3136688803,
				"z": 2.6439679932,
				"element": "H" 
			},
			{
				"x": 2.0873996398,
				"y": -2.7794000984,
				"z": 1.9698084729,
				"element": "H" 
			},
			{
				"x": -0.6088063597,
				"y": -2.5708197171,
				"z": 2.573099176,
				"element": "H" 
			},
			{
				"x": 1.6342213761,
				"y": -1.0959444117,
				"z": 0.0385615425,
				"element": "H" 
			},
			{
				"x": 1.3233405837,
				"y": 0.8681726794,
				"z": -2.1350605231,
				"element": "H" 
			},
			{
				"x": -0.5002178848,
				"y": 2.0889543669,
				"z": -3.3140966517,
				"element": "H" 
			},
			{
				"x": -2.8521268574,
				"y": 1.8506597078,
				"z": -2.601481506,
				"element": "H" 
			},
			{
				"x": -3.4680671856,
				"y": 0.3733383269,
				"z": -0.6856156957,
				"element": "H" 
			}
		],
		 "valence_orbital": [ 
			{
				"type": "occ",
				"energy": -0.28615,
				"method": "rhf"
			},
			{
				"type": "occ",
				"energy": -0.27775,
				"method": "rhf"
			},
			{
				"type": "occ",
				"energy": -0.2684,
				"method": "rhf"
			},
			{
				"type": "occ",
				"energy": -0.22137,
				"method": "rhf"
			},
			{
				"type": "occ",
				"energy": -0.19893,
				"method": "rhf"
			},
			{
				"type": "unocc",
				"energy": 7e-05,
				"method": "rhf"
			},
			{
				"type": "unocc",
				"energy": 0.02804,
				"method": "rhf"
			},
			{
				"type": "unocc",
				"energy": 0.04421,
				"method": "rhf"
			},
			{
				"type": "unocc",
				"energy": 0.07102,
				"method": "rhf"
			},
			{
				"type": "unocc",
				"energy": 0.10081,
				"method": "rhf"
			}
		],
		"cosmo_sigma_profile": { 
			"-0.025": 0.0,
			"-0.024": 0.0,
			"-0.023": 0.0,
			"-0.022": 0.0,
			"-0.021": 0.0,
			"-0.02": 0.0,
			"-0.019": 0.0,
			"-0.018": 0.0,
			"-0.017": 0.0780127395956,
			"-0.016": 0.92053128659,
			"-0.015": 1.55661521297,
			"-0.014": 2.08298584879,
			"-0.013": 2.24169977196,
			"-0.012": 4.83913411464,
			"-0.011": 6.05914140289,
			"-0.01": 4.96189484969,
			"-0.009": 3.07697585166,
			"-0.008": 3.63879599605,
			"-0.007": 3.9761797359,
			"-0.006": 5.75363584285,
			"-0.005": 7.97970805034,
			"-0.004": 9.82351802783,
			"-0.003": 10.9758257393,
			"-0.002": 9.17558059645,
			"-0.001": 7.63997746239,
			"0.0": 7.83377175437,
			"0.001": 7.84395104819,
			"0.002": 9.48488477235,
			"0.003": 10.2723797567,
			"0.004": 11.0031257467,
			"0.005": 11.8793318329,
			"0.006": 11.7369000505,
			"0.007": 8.66056425889,
			"0.008": 3.87350254608,
			"0.009": 2.42671600394,
			"0.01": 2.10348353062,
			"0.011": 1.96706315553,
			"0.012": 1.98737774299,
			"0.013": 1.37359034757,
			"0.014": 2.0398193632,
			"0.015": 1.30289087588,
			"0.016": 1.17859676087,
			"0.017": 1.26134866773,
			"0.018": 0.458593947213,
			"0.019": 0.0,
			"0.02": 0.0,
			"0.021": 0.0,
			"0.022": 0.0,
			"0.023": 0.0,
			"0.024": 0.0,
			"0.025": 0.0
		}
	}
}
