{
	 "smiles": "OC(=O)C1(CC2=CC=CC=C2)CC1", 
	 "Tm": 376.15, 
	 "num_atms": 25, 
	 "gaussian": { 
		 "optdone": 1, 
		 "sigma_profile": "yes", 
		 "theory": "DFT", 
		 "functional": "B3LYP", 
		 "basiset": "6-31G**", 
		 "properties": { 
			 "R2extent": 2688.8527, 
			 "electric_dipole_moment_norm": 4.88705565857, 
			 "electric_quadrupole_moment_norm": 12.8999764294, 
			 "total_energy": -576.836401209, 
			 "HOMO_LUMO_gap": 0.23382, 
			 "cosmo_polarized_energy": -12.41, 
			 "cosmo_cavitation_energy": 27.77, 
			 "cosmo_dispersion_energy": -19.77, 
			 "cosmo_repulsion_energy": 1.54, 
			 "cosmo_total_nonelectrostatic_energy": 9.54, 
			 "SMD_solvation_energy": 5.42 
		},
		"coords": [
			{
				"x": 0.6398858043,
				"y": -0.6265990781,
				"z": 1.6096649254,
				"element": "O" 
			},
			{
				"x": 1.1992487361,
				"y": 0.5888008124,
				"z": 1.8129308174,
				"element": "C" 
			},
			{
				"x": 2.2042377238,
				"y": 0.6832552803,
				"z": 2.4818686077,
				"element": "O" 
			},
			{
				"x": 0.5230131792,
				"y": 1.7887912116,
				"z": 1.1867400417,
				"element": "C" 
			},
			{
				"x": -0.8691775921,
				"y": 1.6479598622,
				"z": 0.5702715682,
				"element": "C" 
			},
			{
				"x": -1.0219018401,
				"y": 0.6388202524,
				"z": -0.560417482,
				"element": "C" 
			},
			{
				"x": -2.0756132958,
				"y": -0.2880361378,
				"z": -0.5384552577,
				"element": "C" 
			},
			{
				"x": -2.2504701136,
				"y": -1.2053303724,
				"z": -1.578402323,
				"element": "C" 
			},
			{
				"x": -1.3702776545,
				"y": -1.2100647925,
				"z": -2.6593178569,
				"element": "C" 
			},
			{
				"x": -0.3139743132,
				"y": -0.2953357174,
				"z": -2.6927567172,
				"element": "C" 
			},
			{
				"x": -0.140409519,
				"y": 0.6182108938,
				"z": -1.6546329894,
				"element": "C" 
			},
			{
				"x": 1.4997925029,
				"y": 2.8105419336,
				"z": 0.602692497,
				"element": "C" 
			},
			{
				"x": 0.8305683472,
				"y": 3.0947216443,
				"z": 1.906209139,
				"element": "C" 
			},
			{
				"x": -0.0657929704,
				"y": -0.5853419301,
				"z": 0.9436024435,
				"element": "H" 
			},
			{
				"x": -1.5882607968,
				"y": 1.401165629,
				"z": 1.3616240257,
				"element": "H" 
			},
			{
				"x": -1.1655936959,
				"y": 2.6382205587,
				"z": 0.2015507331,
				"element": "H" 
			},
			{
				"x": -2.769457619,
				"y": -0.2862014526,
				"z": 0.2991488782,
				"element": "H" 
			},
			{
				"x": -3.0729553606,
				"y": -1.9135844077,
				"z": -1.5393710164,
				"element": "H" 
			},
			{
				"x": -1.5012153248,
				"y": -1.9226592339,
				"z": -3.4682308649,
				"element": "H" 
			},
			{
				"x": 0.3784963729,
				"y": -0.2957387057,
				"z": -3.5296445203,
				"element": "H" 
			},
			{
				"x": 0.6881094284,
				"y": 1.3186516546,
				"z": -1.6886062559,
				"element": "H" 
			},
			{
				"x": 2.5504896299,
				"y": 2.5424210034,
				"z": 0.6252296896,
				"element": "H" 
			},
			{
				"x": 1.1756631326,
				"y": 3.3565891185,
				"z": -0.2785147158,
				"element": "H" 
			},
			{
				"x": 0.0371128033,
				"y": 3.8357303555,
				"z": 1.9334635458,
				"element": "H" 
			},
			{
				"x": 1.4299824353,
				"y": 3.0111116182,
				"z": 2.8052530875,
				"element": "H" 
			}
		],
		 "valence_orbital": [ 
			{
				"type": "occ",
				"energy": -0.30592,
				"method": "rhf"
			},
			{
				"type": "occ",
				"energy": -0.2867,
				"method": "rhf"
			},
			{
				"type": "occ",
				"energy": -0.2663,
				"method": "rhf"
			},
			{
				"type": "occ",
				"energy": -0.26368,
				"method": "rhf"
			},
			{
				"type": "occ",
				"energy": -0.25669,
				"method": "rhf"
			},
			{
				"type": "unocc",
				"energy": -0.02287,
				"method": "rhf"
			},
			{
				"type": "unocc",
				"energy": -0.0182,
				"method": "rhf"
			},
			{
				"type": "unocc",
				"energy": 0.0173,
				"method": "rhf"
			},
			{
				"type": "unocc",
				"energy": 0.0768,
				"method": "rhf"
			},
			{
				"type": "unocc",
				"energy": 0.08929,
				"method": "rhf"
			}
		],
		"cosmo_sigma_profile": { 
			"-0.025": 0.0,
			"-0.024": 0.0,
			"-0.023": 0.0,
			"-0.022": 0.0,
			"-0.021": 0.0,
			"-0.02": 0.0,
			"-0.019": 0.0,
			"-0.018": 0.0,
			"-0.017": 0.0,
			"-0.016": 0.0,
			"-0.015": 0.0,
			"-0.014": 0.0,
			"-0.013": 0.0,
			"-0.012": 0.0,
			"-0.011": 0.0,
			"-0.01": 0.0247021602836,
			"-0.009": 0.569339116775,
			"-0.008": 1.37768536988,
			"-0.007": 2.42819495893,
			"-0.006": 16.9258934173,
			"-0.005": 22.6236550799,
			"-0.004": 20.8948847166,
			"-0.003": 18.922280575,
			"-0.002": 19.8561027493,
			"-0.001": 18.4395153512,
			"0.0": 13.5740665685,
			"0.001": 13.3081569948,
			"0.002": 11.0450113979,
			"0.003": 12.2052295519,
			"0.004": 10.8457351894,
			"0.005": 8.86991228294,
			"0.006": 3.25121785563,
			"0.007": 2.58009654991,
			"0.008": 2.2161676527,
			"0.009": 2.8255701391,
			"0.01": 3.28175251573,
			"0.011": 4.71897102468,
			"0.012": 4.99178217678,
			"0.013": 3.61662715009,
			"0.014": 0.839726361802,
			"0.015": 0.0,
			"0.016": 0.0,
			"0.017": 0.0,
			"0.018": 0.0,
			"0.019": 0.0,
			"0.02": 0.0,
			"0.021": 0.0,
			"0.022": 0.0,
			"0.023": 0.0,
			"0.024": 0.0,
			"0.025": 0.0
		}
	}
}
