{
	 "smiles": "[O-][N+](=O)C1=CC=CC(=C1)C1OCCO1", 
	 "Tm": 327.15, 
	 "num_atms": 23, 
	 "gaussian": { 
		 "optdone": 1, 
		 "sigma_profile": "yes", 
		 "theory": "DFT", 
		 "functional": "B3LYP", 
		 "basiset": "6-31G**", 
		 "properties": { 
			 "R2extent": 4061.7421, 
			 "electric_dipole_moment_norm": 4.91224205735, 
			 "electric_quadrupole_moment_norm": 22.4380308102, 
			 "total_energy": -703.903088772, 
			 "HOMO_LUMO_gap": 0.1851, 
			 "cosmo_polarized_energy": -10.73, 
			 "cosmo_cavitation_energy": 27.39, 
			 "cosmo_dispersion_energy": -20.14, 
			 "cosmo_repulsion_energy": 1.6, 
			 "cosmo_total_nonelectrostatic_energy": 8.84, 
			 "SMD_solvation_energy": 6.98 
		},
		"coords": [
			{
				"x": -0.3836783532,
				"y": 2.3437122653,
				"z": 4.2417279163,
				"element": "O" 
			},
			{
				"x": 0.0675817576,
				"y": 2.2394758852,
				"z": 3.1012221809,
				"element": "N" 
			},
			{
				"x": 0.4000994101,
				"y": 3.187004387,
				"z": 2.3906501847,
				"element": "O" 
			},
			{
				"x": 0.2205642399,
				"y": 0.8818499999,
				"z": 2.5486963753,
				"element": "C" 
			},
			{
				"x": -0.1335150302,
				"y": -0.2078360638,
				"z": 3.341310217,
				"element": "C" 
			},
			{
				"x": 0.0232937256,
				"y": -1.4871504241,
				"z": 2.8111185402,
				"element": "C" 
			},
			{
				"x": 0.5200401143,
				"y": -1.6568494887,
				"z": 1.5174483336,
				"element": "C" 
			},
			{
				"x": 0.8709238384,
				"y": -0.5485900904,
				"z": 0.7353009929,
				"element": "C" 
			},
			{
				"x": 0.7200398053,
				"y": 0.7365769648,
				"z": 1.2561307121,
				"element": "C" 
			},
			{
				"x": 1.3763009497,
				"y": -0.7616185516,
				"z": -0.6897022047,
				"element": "C" 
			},
			{
				"x": 2.2626120826,
				"y": -1.8617883506,
				"z": -0.7806814493,
				"element": "O" 
			},
			{
				"x": 3.5694993711,
				"y": -1.3070044435,
				"z": -0.6166380782,
				"element": "C" 
			},
			{
				"x": 3.4445652199,
				"y": 0.0266318985,
				"z": -1.3544625572,
				"element": "C" 
			},
			{
				"x": 2.0720902989,
				"y": 0.3857275937,
				"z": -1.1571087498,
				"element": "O" 
			},
			{
				"x": -0.5157921813,
				"y": -0.0400495016,
				"z": 4.3401707423,
				"element": "H" 
			},
			{
				"x": -0.2398242865,
				"y": -2.3535092095,
				"z": 3.409909961,
				"element": "H" 
			},
			{
				"x": 0.6538445438,
				"y": -2.6540118025,
				"z": 1.1097919875,
				"element": "H" 
			},
			{
				"x": 0.9918770158,
				"y": 1.6079541715,
				"z": 0.6753592249,
				"element": "H" 
			},
			{
				"x": 0.5344479146,
				"y": -0.9755425388,
				"z": -1.3619339397,
				"element": "H" 
			},
			{
				"x": 3.803800547,
				"y": -1.1596944174,
				"z": 0.446967545,
				"element": "H" 
			},
			{
				"x": 4.291111083,
				"y": -1.9978705147,
				"z": -1.0569029907,
				"element": "H" 
			},
			{
				"x": 4.0842797312,
				"y": 0.8138582373,
				"z": -0.9451617699,
				"element": "H" 
			},
			{
				"x": 3.6485382026,
				"y": -0.0841760059,
				"z": -2.4271131742,
				"element": "H" 
			}
		],
		 "valence_orbital": [ 
			{
				"type": "occ",
				"energy": -0.28968,
				"method": "rhf"
			},
			{
				"type": "occ",
				"energy": -0.28753,
				"method": "rhf"
			},
			{
				"type": "occ",
				"energy": -0.27879,
				"method": "rhf"
			},
			{
				"type": "occ",
				"energy": -0.274,
				"method": "rhf"
			},
			{
				"type": "occ",
				"energy": -0.27146,
				"method": "rhf"
			},
			{
				"type": "unocc",
				"energy": -0.08636,
				"method": "rhf"
			},
			{
				"type": "unocc",
				"energy": -0.02759,
				"method": "rhf"
			},
			{
				"type": "unocc",
				"energy": 0.00043,
				"method": "rhf"
			},
			{
				"type": "unocc",
				"energy": 0.08464,
				"method": "rhf"
			},
			{
				"type": "unocc",
				"energy": 0.09086,
				"method": "rhf"
			}
		],
		"cosmo_sigma_profile": { 
			"-0.025": 0.0,
			"-0.024": 0.0,
			"-0.023": 0.0,
			"-0.022": 0.0,
			"-0.021": 0.0,
			"-0.02": 0.0,
			"-0.019": 0.0,
			"-0.018": 0.0,
			"-0.017": 0.0,
			"-0.016": 0.0,
			"-0.015": 0.0,
			"-0.014": 0.0,
			"-0.013": 0.0,
			"-0.012": 0.0,
			"-0.011": 0.0,
			"-0.01": 0.0,
			"-0.009": 0.0,
			"-0.008": 0.665167582622,
			"-0.007": 8.189083532,
			"-0.006": 16.075721052,
			"-0.005": 22.9835295195,
			"-0.004": 18.3347760064,
			"-0.003": 16.0073628793,
			"-0.002": 14.8290551829,
			"-0.001": 15.461334535,
			"0.0": 16.0469052508,
			"0.001": 17.8156978464,
			"0.002": 14.039313236,
			"0.003": 6.83206065871,
			"0.004": 5.56807601353,
			"0.005": 5.51838149215,
			"0.006": 5.8639304057,
			"0.007": 9.68716792123,
			"0.008": 9.98484459218,
			"0.009": 6.0918267927,
			"0.01": 4.75257950535,
			"0.011": 2.48999165709,
			"0.012": 0.986698089615,
			"0.013": 0.00728989691006,
			"0.014": 0.0,
			"0.015": 0.0,
			"0.016": 0.0,
			"0.017": 0.0,
			"0.018": 0.0,
			"0.019": 0.0,
			"0.02": 0.0,
			"0.021": 0.0,
			"0.022": 0.0,
			"0.023": 0.0,
			"0.024": 0.0,
			"0.025": 0.0
		}
	}
}
