{
	 "smiles": "CC(C)C1CCC(C)CC1OC(=O)C(C(=O)C1=CC=CC=C1)C1=CC=CC=C1", 
	 "Tm": 388.15, 
	 "num_atms": 58, 
	 "gaussian": { 
		 "optdone": 1, 
		 "sigma_profile": "yes", 
		 "theory": "DFT", 
		 "functional": "B3LYP", 
		 "basiset": "6-31G**", 
		 "properties": { 
			 "R2extent": 12361.543, 
			 "electric_dipole_moment_norm": 3.94379718545, 
			 "electric_quadrupole_moment_norm": 14.0703187387, 
			 "total_energy": -1196.44886504, 
			 "HOMO_LUMO_gap": 0.17804, 
			 "cosmo_polarized_energy": -14.23, 
			 "cosmo_cavitation_energy": 57.79, 
			 "cosmo_dispersion_energy": -36.51, 
			 "cosmo_repulsion_energy": 2.78, 
			 "cosmo_total_nonelectrostatic_energy": 24.07, 
			 "SMD_solvation_energy": 9.88 
		},
		"coords": [
			{
				"x": -0.441543137,
				"y": -4.0339955774,
				"z": 0.3811433854,
				"element": "C" 
			},
			{
				"x": 0.2950973678,
				"y": -2.9278910445,
				"z": 1.1527993652,
				"element": "C" 
			},
			{
				"x": 0.5493454229,
				"y": -3.3643740863,
				"z": 2.6056112294,
				"element": "C" 
			},
			{
				"x": -0.4241055173,
				"y": -1.5571386332,
				"z": 1.0172886979,
				"element": "C" 
			},
			{
				"x": -1.8540550199,
				"y": -1.5145042481,
				"z": 1.6000641588,
				"element": "C" 
			},
			{
				"x": -2.3955271117,
				"y": -0.0779979155,
				"z": 1.6283100354,
				"element": "C" 
			},
			{
				"x": -1.5756453858,
				"y": 0.8460700834,
				"z": 2.5730709398,
				"element": "C" 
			},
			{
				"x": -2.2849567608,
				"y": 1.0737294062,
				"z": 3.9148394676,
				"element": "C" 
			},
			{
				"x": -0.1567630435,
				"y": 0.2786286968,
				"z": 2.8057096501,
				"element": "C" 
			},
			{
				"x": 0.4447787262,
				"y": -0.3924203328,
				"z": 1.5757130049,
				"element": "C" 
			},
			{
				"x": 0.587686095,
				"y": 0.6710092283,
				"z": 0.5726338453,
				"element": "O" 
			},
			{
				"x": 1.5493366137,
				"y": 0.505679391,
				"z": -0.3545172828,
				"element": "C" 
			},
			{
				"x": 2.2586487687,
				"y": -0.4747793268,
				"z": -0.4462734911,
				"element": "O" 
			},
			{
				"x": 1.6595125083,
				"y": 1.7326345233,
				"z": -1.2655401682,
				"element": "C" 
			},
			{
				"x": 1.7416478808,
				"y": 1.2561700878,
				"z": -2.7394294941,
				"element": "C" 
			},
			{
				"x": 2.7884862308,
				"y": 1.3076381714,
				"z": -3.3569680371,
				"element": "O" 
			},
			{
				"x": 0.4920989057,
				"y": 0.7361252659,
				"z": -3.3863902293,
				"element": "C" 
			},
			{
				"x": 0.5823058987,
				"y": 0.3177504357,
				"z": -4.7245412349,
				"element": "C" 
			},
			{
				"x": -0.5368539823,
				"y": -0.172715498,
				"z": -5.3889778547,
				"element": "C" 
			},
			{
				"x": -1.7645507713,
				"y": -0.2547745971,
				"z": -4.7243705833,
				"element": "C" 
			},
			{
				"x": -1.8653557231,
				"y": 0.1551467788,
				"z": -3.3940644001,
				"element": "C" 
			},
			{
				"x": -0.7444496876,
				"y": 0.6505550184,
				"z": -2.7266849846,
				"element": "C" 
			},
			{
				"x": 2.8439862051,
				"y": 2.589639937,
				"z": -0.8459544525,
				"element": "C" 
			},
			{
				"x": 4.1445758989,
				"y": 2.0686898729,
				"z": -0.8086283305,
				"element": "C" 
			},
			{
				"x": 5.2119407486,
				"y": 2.8764404354,
				"z": -0.4179992017,
				"element": "C" 
			},
			{
				"x": 4.9970239776,
				"y": 4.2098095257,
				"z": -0.0615984916,
				"element": "C" 
			},
			{
				"x": 3.7045154659,
				"y": 4.7338588158,
				"z": -0.0955863637,
				"element": "C" 
			},
			{
				"x": 2.6350439384,
				"y": 3.9256016504,
				"z": -0.4846205111,
				"element": "C" 
			},
			{
				"x": -1.4117481522,
				"y": -4.2697869083,
				"z": 0.8330091119,
				"element": "H" 
			},
			{
				"x": 0.1473510409,
				"y": -4.957434867,
				"z": 0.3749458168,
				"element": "H" 
			},
			{
				"x": -0.6170912501,
				"y": -3.7450027018,
				"z": -0.6610368343,
				"element": "H" 
			},
			{
				"x": 1.2727343437,
				"y": -2.7883857686,
				"z": 0.6734096853,
				"element": "H" 
			},
			{
				"x": 1.1348081571,
				"y": -4.2897251267,
				"z": 2.6256116845,
				"element": "H" 
			},
			{
				"x": 1.1116267135,
				"y": -2.6153060709,
				"z": 3.1735247243,
				"element": "H" 
			},
			{
				"x": -0.3849058437,
				"y": -3.5614582905,
				"z": 3.143284655,
				"element": "H" 
			},
			{
				"x": -0.5175197624,
				"y": -1.3715053327,
				"z": -0.0603005309,
				"element": "H" 
			},
			{
				"x": -1.8712678826,
				"y": -1.931331748,
				"z": 2.6151254044,
				"element": "H" 
			},
			{
				"x": -2.5133998048,
				"y": -2.1502732743,
				"z": 1.0000238975,
				"element": "H" 
			},
			{
				"x": -2.3678289156,
				"y": 0.3228297838,
				"z": 0.6069851226,
				"element": "H" 
			},
			{
				"x": -3.4500696766,
				"y": -0.0766172653,
				"z": 1.9285107237,
				"element": "H" 
			},
			{
				"x": -1.4653604719,
				"y": 1.8199456249,
				"z": 2.08223687,
				"element": "H" 
			},
			{
				"x": -1.6820525016,
				"y": 1.695910562,
				"z": 4.5860335103,
				"element": "H" 
			},
			{
				"x": -2.4741080787,
				"y": 0.1221456927,
				"z": 4.4270569668,
				"element": "H" 
			},
			{
				"x": -3.249809938,
				"y": 1.5723879625,
				"z": 3.7730921741,
				"element": "H" 
			},
			{
				"x": -0.1896900062,
				"y": -0.4790725374,
				"z": 3.5991728038,
				"element": "H" 
			},
			{
				"x": 0.5143728306,
				"y": 1.0687450331,
				"z": 3.159633967,
				"element": "H" 
			},
			{
				"x": 1.4551088695,
				"y": -0.7500933737,
				"z": 1.7878426618,
				"element": "H" 
			},
			{
				"x": 0.7476289126,
				"y": 2.3213859374,
				"z": -1.13996362,
				"element": "H" 
			},
			{
				"x": 1.5456761483,
				"y": 0.3887130752,
				"z": -5.2178214487,
				"element": "H" 
			},
			{
				"x": -0.4559349501,
				"y": -0.4925398729,
				"z": -6.4237580189,
				"element": "H" 
			},
			{
				"x": -2.6393496933,
				"y": -0.6374429823,
				"z": -5.2424505621,
				"element": "H" 
			},
			{
				"x": -2.8171216284,
				"y": 0.0917407992,
				"z": -2.8748399785,
				"element": "H" 
			},
			{
				"x": -0.8432899481,
				"y": 0.9579381043,
				"z": -1.6912187049,
				"element": "H" 
			},
			{
				"x": 4.3112775979,
				"y": 1.0333158949,
				"z": -1.0812350079,
				"element": "H" 
			},
			{
				"x": 6.216038516,
				"y": 2.462538374,
				"z": -0.3938950477,
				"element": "H" 
			},
			{
				"x": 5.8318927101,
				"y": 4.8355357918,
				"z": 0.2411329568,
				"element": "H" 
			},
			{
				"x": 3.5258896713,
				"y": 5.7691451257,
				"z": 0.1808642674,
				"element": "H" 
			},
			{
				"x": 1.6292184798,
				"y": 4.3381122945,
				"z": -0.5094159185,
				"element": "H" 
			}
		],
		 "valence_orbital": [ 
			{
				"type": "occ",
				"energy": -0.26378,
				"method": "rhf"
			},
			{
				"type": "occ",
				"energy": -0.2604,
				"method": "rhf"
			},
			{
				"type": "occ",
				"energy": -0.25706,
				"method": "rhf"
			},
			{
				"type": "occ",
				"energy": -0.24106,
				"method": "rhf"
			},
			{
				"type": "occ",
				"energy": -0.23796,
				"method": "rhf"
			},
			{
				"type": "unocc",
				"energy": -0.05992,
				"method": "rhf"
			},
			{
				"type": "unocc",
				"energy": -0.01552,
				"method": "rhf"
			},
			{
				"type": "unocc",
				"energy": -0.0068,
				"method": "rhf"
			},
			{
				"type": "unocc",
				"energy": 0.00511,
				"method": "rhf"
			},
			{
				"type": "unocc",
				"energy": 0.01949,
				"method": "rhf"
			}
		],
		"cosmo_sigma_profile": { 
			"-0.025": 0.0,
			"-0.024": 0.0,
			"-0.023": 0.0,
			"-0.022": 0.0,
			"-0.021": 0.0,
			"-0.02": 0.0,
			"-0.019": 0.0,
			"-0.018": 0.0,
			"-0.017": 0.0,
			"-0.016": 0.0,
			"-0.015": 0.0,
			"-0.014": 0.0,
			"-0.013": 0.0,
			"-0.012": 0.0,
			"-0.011": 0.0,
			"-0.01": 0.0,
			"-0.009": 0.00757158343085,
			"-0.008": 2.43859112869,
			"-0.007": 5.05492919358,
			"-0.006": 13.882665382,
			"-0.005": 21.6396466694,
			"-0.004": 25.7984305658,
			"-0.003": 39.1925955862,
			"-0.002": 58.4179681774,
			"-0.001": 54.9558925677,
			"0.0": 53.093062186,
			"0.001": 50.1258316723,
			"0.002": 33.6044855769,
			"0.003": 24.552406476,
			"0.004": 21.9597750148,
			"0.005": 14.0395544614,
			"0.006": 9.54651600624,
			"0.007": 4.66971095396,
			"0.008": 4.04103560467,
			"0.009": 3.61219580828,
			"0.01": 4.50976845749,
			"0.011": 6.6140647068,
			"0.012": 1.50732322497,
			"0.013": 0.0,
			"0.014": 0.0,
			"0.015": 0.0,
			"0.016": 0.0,
			"0.017": 0.0,
			"0.018": 0.0,
			"0.019": 0.0,
			"0.02": 0.0,
			"0.021": 0.0,
			"0.022": 0.0,
			"0.023": 0.0,
			"0.024": 0.0,
			"0.025": 0.0
		}
	}
}
