{
	 "smiles": "CC(C)(C)NCC1=CC=CC=C1", 
	 "Tm": 248.15, 
	 "num_atms": 29, 
	 "gaussian": { 
		 "optdone": 1, 
		 "sigma_profile": "yes", 
		 "theory": "DFT", 
		 "functional": "B3LYP", 
		 "basiset": "6-31G**", 
		 "properties": { 
			 "R2extent": 3602.8503, 
			 "electric_dipole_moment_norm": 0.983306101883, 
			 "electric_quadrupole_moment_norm": 2.49678218914, 
			 "total_energy": -484.176834479, 
			 "HOMO_LUMO_gap": 0.22053, 
			 "cosmo_polarized_energy": -5.19, 
			 "cosmo_cavitation_energy": 30.35, 
			 "cosmo_dispersion_energy": -21.42, 
			 "cosmo_repulsion_energy": 1.7, 
			 "cosmo_total_nonelectrostatic_energy": 10.63, 
			 "SMD_solvation_energy": 4.53 
		},
		"coords": [
			{
				"x": -0.9418575137,
				"y": -2.6331990884,
				"z": 0.7762029435,
				"element": "C" 
			},
			{
				"x": 0.2379736112,
				"y": -1.927625,
				"z": 1.4686902677,
				"element": "C" 
			},
			{
				"x": -0.2899571003,
				"y": -0.9648250837,
				"z": 2.5565032362,
				"element": "C" 
			},
			{
				"x": 1.1431449804,
				"y": -2.9865728052,
				"z": 2.1213233558,
				"element": "C" 
			},
			{
				"x": 1.0721227666,
				"y": -1.253572927,
				"z": 0.4485908256,
				"element": "N" 
			},
			{
				"x": 0.4934346575,
				"y": -0.1321093324,
				"z": -0.2904145945,
				"element": "C" 
			},
			{
				"x": 1.4579975321,
				"y": 0.3928068324,
				"z": -1.3392693778,
				"element": "C" 
			},
			{
				"x": 2.251681583,
				"y": -0.4859202452,
				"z": -2.0894696192,
				"element": "C" 
			},
			{
				"x": 3.1101000998,
				"y": -0.0005969257,
				"z": -3.0761102592,
				"element": "C" 
			},
			{
				"x": 3.1880095655,
				"y": 1.3709330956,
				"z": -3.3303620503,
				"element": "C" 
			},
			{
				"x": 2.4039222835,
				"y": 2.2539496049,
				"z": -2.5867625676,
				"element": "C" 
			},
			{
				"x": 1.5489823865,
				"y": 1.765908254,
				"z": -1.5964392496,
				"element": "C" 
			},
			{
				"x": -1.652056409,
				"y": -1.920558139,
				"z": 0.3450017807,
				"element": "H" 
			},
			{
				"x": -0.5780265764,
				"y": -3.2820820554,
				"z": -0.0260374094,
				"element": "H" 
			},
			{
				"x": -1.4936013292,
				"y": -3.2458039433,
				"z": 1.4964761881,
				"element": "H" 
			},
			{
				"x": -0.8554935765,
				"y": -1.5084577337,
				"z": 3.3212118549,
				"element": "H" 
			},
			{
				"x": -0.9552759825,
				"y": -0.2039012547,
				"z": 2.1361727684,
				"element": "H" 
			},
			{
				"x": 0.5388747461,
				"y": -0.4502679831,
				"z": 3.0568031714,
				"element": "H" 
			},
			{
				"x": 1.5322340483,
				"y": -3.6741940061,
				"z": 1.3647584914,
				"element": "H" 
			},
			{
				"x": 0.593719054,
				"y": -3.5637989354,
				"z": 2.8716019014,
				"element": "H" 
			},
			{
				"x": 1.9971267918,
				"y": -2.5164132414,
				"z": 2.6242278177,
				"element": "H" 
			},
			{
				"x": 1.9346201828,
				"y": -0.9382993173,
				"z": 0.8881464833,
				"element": "H" 
			},
			{
				"x": -0.4142362424,
				"y": -0.4902045717,
				"z": -0.7932936766,
				"element": "H" 
			},
			{
				"x": 0.1744419659,
				"y": 0.7120616826,
				"z": 0.3458837818,
				"element": "H" 
			},
			{
				"x": 2.193534038,
				"y": -1.548761126,
				"z": -1.8775147005,
				"element": "H" 
			},
			{
				"x": 3.7201041423,
				"y": -0.6944032813,
				"z": -3.6485241651,
				"element": "H" 
			},
			{
				"x": 3.8576054287,
				"y": 1.7480279241,
				"z": -4.0983312638,
				"element": "H" 
			},
			{
				"x": 2.4621250392,
				"y": 3.3232153746,
				"z": -2.7712470906,
				"element": "H" 
			},
			{
				"x": 0.9461498269,
				"y": 2.4595642281,
				"z": -1.0144188439,
				"element": "H" 
			}
		],
		 "valence_orbital": [ 
			{
				"type": "occ",
				"energy": -0.32411,
				"method": "rhf"
			},
			{
				"type": "occ",
				"energy": -0.32152,
				"method": "rhf"
			},
			{
				"type": "occ",
				"energy": -0.2421,
				"method": "rhf"
			},
			{
				"type": "occ",
				"energy": -0.23742,
				"method": "rhf"
			},
			{
				"type": "occ",
				"energy": -0.21535,
				"method": "rhf"
			},
			{
				"type": "unocc",
				"energy": 0.00518,
				"method": "rhf"
			},
			{
				"type": "unocc",
				"energy": 0.00652,
				"method": "rhf"
			},
			{
				"type": "unocc",
				"energy": 0.07573,
				"method": "rhf"
			},
			{
				"type": "unocc",
				"energy": 0.10214,
				"method": "rhf"
			},
			{
				"type": "unocc",
				"energy": 0.11693,
				"method": "rhf"
			}
		],
		"cosmo_sigma_profile": { 
			"-0.025": 0.0,
			"-0.024": 0.0,
			"-0.023": 0.0,
			"-0.022": 0.0,
			"-0.021": 0.0,
			"-0.02": 0.0,
			"-0.019": 0.0,
			"-0.018": 0.0,
			"-0.017": 0.0,
			"-0.016": 0.0,
			"-0.015": 0.0,
			"-0.014": 0.0,
			"-0.013": 0.0,
			"-0.012": 0.0,
			"-0.011": 0.0,
			"-0.01": 0.0,
			"-0.009": 0.389265002871,
			"-0.008": 1.28204013898,
			"-0.007": 0.810624330653,
			"-0.006": 2.35798432046,
			"-0.005": 9.45385759591,
			"-0.004": 13.7308164893,
			"-0.003": 27.5790196284,
			"-0.002": 33.7620785215,
			"-0.001": 27.296834854,
			"0.0": 25.1107178058,
			"0.001": 27.7778675839,
			"0.002": 20.1855016766,
			"0.003": 9.25776792965,
			"0.004": 10.2635823777,
			"0.005": 8.71463925067,
			"0.006": 9.21275303745,
			"0.007": 5.09216993955,
			"0.008": 1.13692096406,
			"0.009": 1.09485726765,
			"0.01": 0.940134191074,
			"0.011": 0.493019419934,
			"0.012": 0.477846720893,
			"0.013": 0.294247254956,
			"0.014": 0.0,
			"0.015": 0.0,
			"0.016": 0.0,
			"0.017": 0.0,
			"0.018": 0.0,
			"0.019": 0.0,
			"0.02": 0.0,
			"0.021": 0.0,
			"0.022": 0.0,
			"0.023": 0.0,
			"0.024": 0.0,
			"0.025": 0.0
		}
	}
}
