{
	 "smiles": "CC(=O)C1=CC=C(OCCCC(O)=O)C=C1", 
	 "Tm": 410.15, 
	 "num_atms": 30, 
	 "gaussian": { 
		 "optdone": 1, 
		 "sigma_profile": "yes", 
		 "theory": "DFT", 
		 "functional": "B3LYP", 
		 "basiset": "6-31G**", 
		 "properties": { 
			 "R2extent": 5779.524, 
			 "electric_dipole_moment_norm": 6.47496505087, 
			 "electric_quadrupole_moment_norm": 14.5166426191, 
			 "total_energy": -766.62968727, 
			 "HOMO_LUMO_gap": 0.18383, 
			 "cosmo_polarized_energy": -15.92, 
			 "cosmo_cavitation_energy": 33.93, 
			 "cosmo_dispersion_energy": -24.37, 
			 "cosmo_repulsion_energy": 1.91, 
			 "cosmo_total_nonelectrostatic_energy": 11.47, 
			 "SMD_solvation_energy": 7.62 
		},
		"coords": [
			{
				"x": 0.6298960729,
				"y": 4.1656118405,
				"z": -3.2314882058,
				"element": "C" 
			},
			{
				"x": 1.697848749,
				"y": 3.9643496067,
				"z": -2.1659691543,
				"element": "C" 
			},
			{
				"x": 2.5744648111,
				"y": 4.8040468737,
				"z": -2.0074090995,
				"element": "O" 
			},
			{
				"x": 1.6546310256,
				"y": 2.7328112358,
				"z": -1.326581457,
				"element": "C" 
			},
			{
				"x": 0.6724864772,
				"y": 1.7429658127,
				"z": -1.4635254363,
				"element": "C" 
			},
			{
				"x": 0.6641032937,
				"y": 0.6037810468,
				"z": -0.6580832795,
				"element": "C" 
			},
			{
				"x": 1.6663377011,
				"y": 0.4440366368,
				"z": 0.3103697592,
				"element": "C" 
			},
			{
				"x": 1.7808909585,
				"y": -0.6245543173,
				"z": 1.1484721216,
				"element": "O" 
			},
			{
				"x": 0.8438223565,
				"y": -1.6989516428,
				"z": 1.059082733,
				"element": "C" 
			},
			{
				"x": -0.4464523707,
				"y": -1.4006323278,
				"z": 1.8281125644,
				"element": "C" 
			},
			{
				"x": -1.4657124941,
				"y": -2.5393498272,
				"z": 1.7355774354,
				"element": "C" 
			},
			{
				"x": -2.1010161578,
				"y": -2.670826153,
				"z": 0.3663882664,
				"element": "C" 
			},
			{
				"x": -2.9627221119,
				"y": -3.7106277716,
				"z": 0.3173384484,
				"element": "O" 
			},
			{
				"x": -1.8977464287,
				"y": -1.9502757952,
				"z": -0.5894440651,
				"element": "O" 
			},
			{
				"x": 2.6575015722,
				"y": 1.4308960051,
				"z": 0.4623759317,
				"element": "C" 
			},
			{
				"x": 2.6479941736,
				"y": 2.5542085616,
				"z": -0.3447596732,
				"element": "C" 
			},
			{
				"x": 0.821877558,
				"y": 5.1102501762,
				"z": -3.7411474493,
				"element": "H" 
			},
			{
				"x": -0.3713285724,
				"y": 4.190059236,
				"z": -2.7872234381,
				"element": "H" 
			},
			{
				"x": 0.6426052392,
				"y": 3.3495696481,
				"z": -3.9624187,
				"element": "H" 
			},
			{
				"x": -0.1112352343,
				"y": 1.8497715487,
				"z": -2.2069447131,
				"element": "H" 
			},
			{
				"x": -0.1212494964,
				"y": -0.1322479863,
				"z": -0.7868061899,
				"element": "H" 
			},
			{
				"x": 1.3586508145,
				"y": -2.554645486,
				"z": 1.5081808409,
				"element": "H" 
			},
			{
				"x": 0.6352805243,
				"y": -1.9410435593,
				"z": 0.0120997535,
				"element": "H" 
			},
			{
				"x": -0.8967141785,
				"y": -0.4792777563,
				"z": 1.4478709486,
				"element": "H" 
			},
			{
				"x": -0.1920093164,
				"y": -1.2263281832,
				"z": 2.8786879036,
				"element": "H" 
			},
			{
				"x": -2.2800198957,
				"y": -2.3929289109,
				"z": 2.4551162528,
				"element": "H" 
			},
			{
				"x": -1.0212573587,
				"y": -3.5088867771,
				"z": 1.994994422,
				"element": "H" 
			},
			{
				"x": -3.3312713469,
				"y": -3.7208209809,
				"z": -0.5823338409,
				"element": "H" 
			},
			{
				"x": 3.420810312,
				"y": 1.2820251311,
				"z": 1.2192438174,
				"element": "H" 
			},
			{
				"x": 3.4070333232,
				"y": 3.3224141154,
				"z": -0.2409764971,
				"element": "H" 
			}
		],
		 "valence_orbital": [ 
			{
				"type": "occ",
				"energy": -0.31236,
				"method": "rhf"
			},
			{
				"type": "occ",
				"energy": -0.29425,
				"method": "rhf"
			},
			{
				"type": "occ",
				"energy": -0.2524,
				"method": "rhf"
			},
			{
				"type": "occ",
				"energy": -0.2348,
				"method": "rhf"
			},
			{
				"type": "occ",
				"energy": -0.22165,
				"method": "rhf"
			},
			{
				"type": "unocc",
				"energy": -0.03782,
				"method": "rhf"
			},
			{
				"type": "unocc",
				"energy": -0.00907,
				"method": "rhf"
			},
			{
				"type": "unocc",
				"energy": -0.00156,
				"method": "rhf"
			},
			{
				"type": "unocc",
				"energy": 0.05736,
				"method": "rhf"
			},
			{
				"type": "unocc",
				"energy": 0.06375,
				"method": "rhf"
			}
		],
		"cosmo_sigma_profile": { 
			"-0.025": 0.0,
			"-0.024": 0.0,
			"-0.023": 0.0,
			"-0.022": 0.0,
			"-0.021": 0.0,
			"-0.02": 0.0,
			"-0.019": 0.0101614703756,
			"-0.018": 0.578506701196,
			"-0.017": 1.19262768263,
			"-0.016": 0.84322319542,
			"-0.015": 0.431372592314,
			"-0.014": 0.942531712616,
			"-0.013": 0.597030186595,
			"-0.012": 0.946327966412,
			"-0.011": 0.765717118081,
			"-0.01": 0.774247529318,
			"-0.009": 0.601148745955,
			"-0.008": 0.340866739048,
			"-0.007": 4.77627172985,
			"-0.006": 18.8829342861,
			"-0.005": 20.0660873318,
			"-0.004": 24.2949958933,
			"-0.003": 23.7530730366,
			"-0.002": 20.8557899436,
			"-0.001": 20.1197809492,
			"0.0": 16.494064608,
			"0.001": 12.4240443669,
			"0.002": 16.0054046172,
			"0.003": 17.5955496575,
			"0.004": 17.2576991595,
			"0.005": 6.26192266964,
			"0.006": 6.07716949168,
			"0.007": 5.67755904183,
			"0.008": 5.48517978945,
			"0.009": 6.19052943166,
			"0.01": 4.89676357472,
			"0.011": 4.08947722945,
			"0.012": 5.31506077085,
			"0.013": 3.20026502617,
			"0.014": 0.690504793916,
			"0.015": 0.0,
			"0.016": 0.0,
			"0.017": 0.0,
			"0.018": 0.0,
			"0.019": 0.0,
			"0.02": 0.0,
			"0.021": 0.0,
			"0.022": 0.0,
			"0.023": 0.0,
			"0.024": 0.0,
			"0.0": 0.0
		}
	}
}
