{
	 "smiles": "CS(=O)(=O)C1=CC=C(O1)C(O)=O", 
	 "Tm": 447.15, 
	 "num_atms": 18, 
	 "gaussian": { 
		 "optdone": 1, 
		 "sigma_profile": "yes", 
		 "theory": "DFT", 
		 "functional": "B3LYP", 
		 "basiset": "6-31G**", 
		 "properties": { 
			 "R2extent": 4071.5197, 
			 "electric_dipole_moment_norm": 3.67906551722, 
			 "electric_quadrupole_moment_norm": 19.6114814966, 
			 "total_energy": -1006.46805103, 
			 "HOMO_LUMO_gap": 0.19293, 
			 "cosmo_polarized_energy": -19.02, 
			 "cosmo_cavitation_energy": 25.4, 
			 "cosmo_dispersion_energy": -18.69, 
			 "cosmo_repulsion_energy": 1.46, 
			 "cosmo_total_nonelectrostatic_energy": 8.17, 
			 "SMD_solvation_energy": 6.04 
		},
		"coords": [
			{
				"x": -2.4852498102,
				"y": -0.7012050333,
				"z": 1.1243045865,
				"element": "C" 
			},
			{
				"x": -2.1879036773,
				"y": -2.4582234126,
				"z": 0.8609675277,
				"element": "S" 
			},
			{
				"x": -3.3944954301,
				"y": -3.0630677421,
				"z": 0.2846807183,
				"element": "O" 
			},
			{
				"x": -1.5883692295,
				"y": -3.025664763,
				"z": 2.0743823328,
				"element": "O" 
			},
			{
				"x": -0.9233911898,
				"y": -2.4530238131,
				"z": -0.4152385515,
				"element": "C" 
			},
			{
				"x": -0.2838614629,
				"y": -3.4891401924,
				"z": -1.0388779781,
				"element": "C" 
			},
			{
				"x": 0.6146314053,
				"y": -2.8779395361,
				"z": -1.9585469351,
				"element": "C" 
			},
			{
				"x": 0.4540896379,
				"y": -1.5230418766,
				"z": -1.8248180955,
				"element": "C" 
			},
			{
				"x": -0.4939178259,
				"y": -1.2555265333,
				"z": -0.873740406,
				"element": "O" 
			},
			{
				"x": 1.0709858425,
				"y": -0.3604133936,
				"z": -2.4716685762,
				"element": "C" 
			},
			{
				"x": 1.9880119409,
				"y": -0.7509731012,
				"z": -3.3893274212,
				"element": "O" 
			},
			{
				"x": 0.806009075,
				"y": 0.797008971,
				"z": -2.2286912197,
				"element": "O" 
			},
			{
				"x": -3.2536771851,
				"y": -0.6615869365,
				"z": 1.8989423773,
				"element": "H" 
			},
			{
				"x": -1.5681663188,
				"y": -0.222061297,
				"z": 1.4671126415,
				"element": "H" 
			},
			{
				"x": -2.846145426,
				"y": -0.2485448755,
				"z": 0.2007290077,
				"element": "H" 
			},
			{
				"x": -0.4391917719,
				"y": -4.5425019392,
				"z": -0.8600127841,
				"element": "H" 
			},
			{
				"x": 1.2970481956,
				"y": -3.3678772863,
				"z": -2.6370015638,
				"element": "H" 
			},
			{
				"x": 2.3502932301,
				"y": 0.0650827608,
				"z": -3.7721956606,
				"element": "H" 
			}
		],
		 "valence_orbital": [ 
			{
				"type": "occ",
				"energy": -0.3177,
				"method": "rhf"
			},
			{
				"type": "occ",
				"energy": -0.30989,
				"method": "rhf"
			},
			{
				"type": "occ",
				"energy": -0.30827,
				"method": "rhf"
			},
			{
				"type": "occ",
				"energy": -0.29785,
				"method": "rhf"
			},
			{
				"type": "occ",
				"energy": -0.26403,
				"method": "rhf"
			},
			{
				"type": "unocc",
				"energy": -0.0711,
				"method": "rhf"
			},
			{
				"type": "unocc",
				"energy": 0.00111,
				"method": "rhf"
			},
			{
				"type": "unocc",
				"energy": 0.03676,
				"method": "rhf"
			},
			{
				"type": "unocc",
				"energy": 0.05466,
				"method": "rhf"
			},
			{
				"type": "unocc",
				"energy": 0.07132,
				"method": "rhf"
			}
		],
		"cosmo_sigma_profile": { 
			"-0.025": 0.0,
			"-0.024": 0.0,
			"-0.023": 0.0,
			"-0.022": 0.0,
			"-0.021": 0.0,
			"-0.02": 0.0,
			"-0.019": 0.623242263396,
			"-0.018": 0.783964353041,
			"-0.017": 1.35307803209,
			"-0.016": 0.835888644476,
			"-0.015": 0.113272824503,
			"-0.014": 0.71402392195,
			"-0.013": 0.838365859976,
			"-0.012": 0.897656647469,
			"-0.011": 0.928139537603,
			"-0.01": 4.69129517026,
			"-0.009": 10.0576825698,
			"-0.008": 8.86463021939,
			"-0.007": 10.0104505304,
			"-0.006": 9.04059001198,
			"-0.005": 10.3650140152,
			"-0.004": 13.041679835,
			"-0.003": 11.4521506363,
			"-0.002": 9.71139897973,
			"-0.001": 11.2862967379,
			"0.0": 11.9373055635,
			"0.001": 9.55134654158,
			"0.002": 6.07339802069,
			"0.003": 5.22622432558,
			"0.004": 4.71221201682,
			"0.005": 4.91782073789,
			"0.006": 5.41863216435,
			"0.007": 5.31368707377,
			"0.008": 5.40240627599,
			"0.009": 5.22551084976,
			"0.01": 13.4619097214,
			"0.011": 17.4798672805,
			"0.012": 3.18286789281,
			"0.013": 0.0,
			"0.014": 0.0,
			"0.015": 0.0,
			"0.016": 0.0,
			"0.017": 0.0,
			"0.018": 0.0,
			"0.019": 0.0,
			"0.02": 0.0,
			"0.021": 0.0,
			"0.022": 0.0,
			"0.023": 0.0,
			"0.024": 0.0,
			"0.025": 0.0
		}
	}
}
