{
	 "smiles": "COC1=CC=C(C=CC(=O)C2=CC=C(O)C=C2)C=C1", 
	 "Tm": 461.15, 
	 "num_atms": 33, 
	 "gaussian": { 
		 "optdone": 1, 
		 "sigma_profile": "yes", 
		 "theory": "DFT", 
		 "functional": "B3LYP", 
		 "basiset": "6-31G**", 
		 "properties": { 
			 "R2extent": 10994.5628, 
			 "electric_dipole_moment_norm": 3.4407300766, 
			 "electric_quadrupole_moment_norm": 23.761993183, 
			 "total_energy": -843.78938751, 
			 "HOMO_LUMO_gap": 0.14453, 
			 "cosmo_polarized_energy": -18.14, 
			 "cosmo_cavitation_energy": 38.26, 
			 "cosmo_dispersion_energy": -27.86, 
			 "cosmo_repulsion_energy": 2.1, 
			 "cosmo_total_nonelectrostatic_energy": 12.5, 
			 "SMD_solvation_energy": 8.09 
		},
		"coords": [
			{
				"x": -2.3067131204,
				"y": -0.5060934273,
				"z": -4.6786848203,
				"element": "C" 
			},
			{
				"x": -1.759587946,
				"y": -1.5834215224,
				"z": -3.9319760893,
				"element": "O" 
			},
			{
				"x": -1.1152741163,
				"y": -1.3055841036,
				"z": -2.7666004052,
				"element": "C" 
			},
			{
				"x": -0.9464864945,
				"y": -0.0169064165,
				"z": -2.2359073549,
				"element": "C" 
			},
			{
				"x": -0.2682362465,
				"y": 0.1507761895,
				"z": -1.0326114507,
				"element": "C" 
			},
			{
				"x": 0.2599896484,
				"y": -0.9421190104,
				"z": -0.322247119,
				"element": "C" 
			},
			{
				"x": 0.9778973249,
				"y": -0.8168434382,
				"z": 0.9402886754,
				"element": "C" 
			},
			{
				"x": 1.2576463922,
				"y": 0.3044088112,
				"z": 1.6380560007,
				"element": "C" 
			},
			{
				"x": 2.0155643112,
				"y": 0.2153301135,
				"z": 2.9085085311,
				"element": "C" 
			},
			{
				"x": 2.4362673361,
				"y": -0.8673970568,
				"z": 3.32127579,
				"element": "O" 
			},
			{
				"x": 2.2803144532,
				"y": 1.4625067851,
				"z": 3.6939880982,
				"element": "C" 
			},
			{
				"x": 3.1074897639,
				"y": 1.3519197893,
				"z": 4.8243193972,
				"element": "C" 
			},
			{
				"x": 3.403917396,
				"y": 2.4554865779,
				"z": 5.6120751714,
				"element": "C" 
			},
			{
				"x": 2.8670149721,
				"y": 3.7088075055,
				"z": 5.285075523,
				"element": "C" 
			},
			{
				"x": 3.1185107645,
				"y": 4.8294435204,
				"z": 6.0166996812,
				"element": "O" 
			},
			{
				"x": 2.0344803625,
				"y": 3.8403073809,
				"z": 4.1673843122,
				"element": "C" 
			},
			{
				"x": 1.7497839314,
				"y": 2.7273075236,
				"z": 3.3846501441,
				"element": "C" 
			},
			{
				"x": 0.0760567678,
				"y": -2.2262138406,
				"z": -0.8783656114,
				"element": "C" 
			},
			{
				"x": -0.5966890745,
				"y": -2.411449825,
				"z": -2.0753686854,
				"element": "C" 
			},
			{
				"x": -1.5296251833,
				"y": 0.1995536238,
				"z": -4.9983891282,
				"element": "H" 
			},
			{
				"x": -3.0711661433,
				"y": 0.0347526818,
				"z": -4.1067481108,
				"element": "H" 
			},
			{
				"x": -2.7680362823,
				"y": -0.9551849989,
				"z": -5.5592470584,
				"element": "H" 
			},
			{
				"x": -1.3375281126,
				"y": 0.8524038443,
				"z": -2.7509885413,
				"element": "H" 
			},
			{
				"x": -0.149723496,
				"y": 1.1566646838,
				"z": -0.6415579834,
				"element": "H" 
			},
			{
				"x": 1.3374415125,
				"y": -1.746112677,
				"z": 1.3806548118,
				"element": "H" 
			},
			{
				"x": 0.9468684497,
				"y": 1.278122737,
				"z": 1.2765151307,
				"element": "H" 
			},
			{
				"x": 3.5086447143,
				"y": 0.3729421463,
				"z": 5.0633184192,
				"element": "H" 
			},
			{
				"x": 4.0500015528,
				"y": 2.3516400431,
				"z": 6.4817590864,
				"element": "H" 
			},
			{
				"x": 3.6987309708,
				"y": 4.6035205166,
				"z": 6.7557186644,
				"element": "H" 
			},
			{
				"x": 1.6227474678,
				"y": 4.8161684313,
				"z": 3.9327348874,
				"element": "H" 
			},
			{
				"x": 1.0937287308,
				"y": 2.8582820186,
				"z": 2.5312049356,
				"element": "H" 
			},
			{
				"x": 0.4737417206,
				"y": -3.0895861616,
				"z": -0.3516444302,
				"element": "H" 
			},
			{
				"x": -0.735972328,
				"y": -3.4001324451,
				"z": -2.4997904716,
				"element": "H" 
			}
		],
		 "valence_orbital": [ 
			{
				"type": "occ",
				"energy": -0.25987,
				"method": "rhf"
			},
			{
				"type": "occ",
				"energy": -0.25736,
				"method": "rhf"
			},
			{
				"type": "occ",
				"energy": -0.23615,
				"method": "rhf"
			},
			{
				"type": "occ",
				"energy": -0.22658,
				"method": "rhf"
			},
			{
				"type": "occ",
				"energy": -0.21075,
				"method": "rhf"
			},
			{
				"type": "unocc",
				"energy": -0.06622,
				"method": "rhf"
			},
			{
				"type": "unocc",
				"energy": -0.01309,
				"method": "rhf"
			},
			{
				"type": "unocc",
				"energy": -0.00634,
				"method": "rhf"
			},
			{
				"type": "unocc",
				"energy": -0.00303,
				"method": "rhf"
			},
			{
				"type": "unocc",
				"energy": 0.04703,
				"method": "rhf"
			}
		],
		"cosmo_sigma_profile": { 
			"-0.025": 0.0,
			"-0.024": 0.0,
			"-0.023": 0.0,
			"-0.022": 0.0,
			"-0.021": 0.0,
			"-0.02": 0.0,
			"-0.019": 0.0247411202936,
			"-0.018": 0.887236722082,
			"-0.017": 1.21228825554,
			"-0.016": 1.22947671858,
			"-0.015": 0.891553534035,
			"-0.014": 1.03914185266,
			"-0.013": 1.18550126856,
			"-0.012": 0.304509784419,
			"-0.011": 1.48892341154,
			"-0.01": 1.33183527523,
			"-0.009": 1.92323550543,
			"-0.008": 3.57330189,
			"-0.007": 9.17290885635,
			"-0.006": 19.9894186498,
			"-0.005": 23.8158239419,
			"-0.004": 22.4776482891,
			"-0.003": 19.4143525335,
			"-0.002": 13.5947268083,
			"-0.001": 13.8664156079,
			"0.0": 17.0229669188,
			"0.001": 17.9374187371,
			"0.002": 23.9385062563,
			"0.003": 31.9842337916,
			"0.004": 34.0356409748,
			"0.005": 9.72309413038,
			"0.006": 4.99526175251,
			"0.007": 4.74780748009,
			"0.008": 4.24794889292,
			"0.009": 4.79988706734,
			"0.01": 4.16884960087,
			"0.011": 3.35214768409,
			"0.012": 2.58700926942,
			"0.013": 4.19832128874,
			"0.014": 1.07323001379,
			"0.015": 0.0,
			"0.016": 0.0,
			"0.017": 0.0,
			"0.018": 0.0,
			"0.019": 0.0,
			"0.02": 0.0,
			"0.021": 0.0,
			"0.022": 0.0,
			"0.023": 0.0,
			"0.024": 0.0,
			"0.025": 0.0
		}
	}
}
