{
	 "smiles": "OC(=O)CC1=CC=C(OCC#N)C=C1", 
	 "Tm": 385.15, 
	 "num_atms": 23, 
	 "gaussian": { 
		 "optdone": 1, 
		 "sigma_profile": "yes", 
		 "theory": "DFT", 
		 "functional": "B3LYP", 
		 "basiset": "6-31G**", 
		 "properties": { 
			 "R2extent": 4332.0367, 
			 "electric_dipole_moment_norm": 6.40260633258, 
			 "electric_quadrupole_moment_norm": 22.0457487609, 
			 "total_energy": -666.881400833, 
			 "HOMO_LUMO_gap": 0.21059, 
			 "cosmo_polarized_energy": -20.26, 
			 "cosmo_cavitation_energy": 28.97, 
			 "cosmo_dispersion_energy": -20.15, 
			 "cosmo_repulsion_energy": 1.61, 
			 "cosmo_total_nonelectrostatic_energy": 10.44, 
			 "SMD_solvation_energy": 7.79 
		},
		"coords": [
			{
				"x": 2.0361212117,
				"y": 1.6109140901,
				"z": -3.5421237078,
				"element": "O" 
			},
			{
				"x": 0.7970702834,
				"y": 1.6183065754,
				"z": -4.0838297609,
				"element": "C" 
			},
			{
				"x": 0.6402358108,
				"y": 1.6935675262,
				"z": -5.2764384426,
				"element": "O" 
			},
			{
				"x": -0.3848337826,
				"y": 1.575566045,
				"z": -3.098172897,
				"element": "C" 
			},
			{
				"x": -0.0833128251,
				"y": 1.026089576,
				"z": -1.7225705897,
				"element": "C" 
			},
			{
				"x": 0.2422435004,
				"y": 1.8722412607,
				"z": -0.6565357731,
				"element": "C" 
			},
			{
				"x": 0.5492741407,
				"y": 1.3721046822,
				"z": 0.6137750187,
				"element": "C" 
			},
			{
				"x": 0.5259839526,
				"y": -0.00746882,
				"z": 0.8262893278,
				"element": "C" 
			},
			{
				"x": 0.7945892692,
				"y": -0.6258588601,
				"z": 2.0256081103,
				"element": "O" 
			},
			{
				"x": 0.999680345,
				"y": 0.1691460176,
				"z": 3.1764846928,
				"element": "C" 
			},
			{
				"x": 2.3194492867,
				"y": 0.8308045211,
				"z": 3.2033657953,
				"element": "C" 
			},
			{
				"x": 3.35465833,
				"y": 1.3534872258,
				"z": 3.2316257687,
				"element": "N" 
			},
			{
				"x": 0.2067325108,
				"y": -0.8745253379,
				"z": -0.2277093933,
				"element": "C" 
			},
			{
				"x": -0.0913386436,
				"y": -0.3600499324,
				"z": -1.4816733773,
				"element": "C" 
			},
			{
				"x": 1.9699337557,
				"y": 1.5035536242,
				"z": -2.5793921276,
				"element": "H" 
			},
			{
				"x": -1.1725521552,
				"y": 1.0042635904,
				"z": -3.5960255134,
				"element": "H" 
			},
			{
				"x": -0.752446567,
				"y": 2.6063312181,
				"z": -3.024680991,
				"element": "H" 
			},
			{
				"x": 0.2517260119,
				"y": 2.9487582828,
				"z": -0.8088797902,
				"element": "H" 
			},
			{
				"x": 0.8119349927,
				"y": 2.0659779364,
				"z": 1.4033838063,
				"element": "H" 
			},
			{
				"x": 0.2157626379,
				"y": 0.9295973072,
				"z": 3.2902909269,
				"element": "H" 
			},
			{
				"x": 0.9359851467,
				"y": -0.5158269505,
				"z": 4.0262061158,
				"element": "H" 
			},
			{
				"x": 0.1951699938,
				"y": -1.9425789928,
				"z": -0.038111351,
				"element": "H" 
			},
			{
				"x": -0.3402672065,
				"y": -1.0426005855,
				"z": -2.2899858478,
				"element": "H" 
			}
		],
		 "valence_orbital": [ 
			{
				"type": "occ",
				"energy": -0.3457,
				"method": "rhf"
			},
			{
				"type": "occ",
				"energy": -0.3102,
				"method": "rhf"
			},
			{
				"type": "occ",
				"energy": -0.28029,
				"method": "rhf"
			},
			{
				"type": "occ",
				"energy": -0.27529,
				"method": "rhf"
			},
			{
				"type": "occ",
				"energy": -0.24525,
				"method": "rhf"
			},
			{
				"type": "unocc",
				"energy": -0.03466,
				"method": "rhf"
			},
			{
				"type": "unocc",
				"energy": -0.0233,
				"method": "rhf"
			},
			{
				"type": "unocc",
				"energy": -0.0092,
				"method": "rhf"
			},
			{
				"type": "unocc",
				"energy": 0.01433,
				"method": "rhf"
			},
			{
				"type": "unocc",
				"energy": 0.01615,
				"method": "rhf"
			}
		],
		"cosmo_sigma_profile": { 
			"-0.025": 0.0,
			"-0.024": 0.0,
			"-0.023": 0.0,
			"-0.022": 0.0,
			"-0.021": 0.0,
			"-0.02": 0.0,
			"-0.019": 0.0,
			"-0.018": 0.0,
			"-0.017": 0.0,
			"-0.016": 0.0,
			"-0.015": 0.0,
			"-0.014": 0.326716072283,
			"-0.013": 0.334439806818,
			"-0.012": 1.1624379981,
			"-0.011": 3.04429893337,
			"-0.01": 7.53979675248,
			"-0.009": 6.86755954514,
			"-0.008": 9.34702763352,
			"-0.007": 14.1644224364,
			"-0.006": 16.9010112118,
			"-0.005": 13.5667854372,
			"-0.004": 11.6055263617,
			"-0.003": 10.1455513092,
			"-0.002": 10.1089368883,
			"-0.001": 9.5819522579,
			"0.0": 10.2925849002,
			"0.001": 11.6523164752,
			"0.002": 15.0814432234,
			"0.003": 12.3900711362,
			"0.004": 10.1156364755,
			"0.005": 5.54638145364,
			"0.006": 6.89644139052,
			"0.007": 6.79878140683,
			"0.008": 6.44893832623,
			"0.009": 6.39160779217,
			"0.01": 7.50434488033,
			"0.011": 7.11773251829,
			"0.012": 7.96950779805,
			"0.013": 3.20789880896,
			"0.014": 0.1589525893,
			"0.015": 0.0,
			"0.016": 0.0,
			"0.017": 0.0,
			"0.018": 0.0,
			"0.019": 0.0,
			"0.02": 0.0,
			"0.021": 0.0,
			"0.022": 0.0,
			"0.023": 0.0,
			"0.024": 0.0,
			"0.025": 0.0
		}
	}
}
