{
	 "smiles": "OC(=O)C=CC1=CN(CC2=C(Cl)C=CC=C2)N=C1C1=CC=CC=C1", 
	 "Tm": 422.15, 
	 "num_atms": 39, 
	 "gaussian": { 
		 "optdone": 1, 
		 "sigma_profile": "yes", 
		 "theory": "DFT", 
		 "functional": "B3LYP", 
		 "basiset": "6-31G**", 
		 "properties": { 
			 "R2extent": 11475.1092, 
			 "electric_dipole_moment_norm": 4.41471096902, 
			 "electric_quadrupole_moment_norm": 21.3521516466, 
			 "total_energy": -1453.19813551, 
			 "HOMO_LUMO_gap": 0.16785, 
			 "cosmo_polarized_energy": -16.92, 
			 "cosmo_cavitation_energy": 46.81, 
			 "cosmo_dispersion_energy": -31.97, 
			 "cosmo_repulsion_energy": 2.44, 
			 "cosmo_total_nonelectrostatic_energy": 17.28, 
			 "SMD_solvation_energy": 7.91 
		},
		"coords": [
			{
				"x": 2.62061442,
				"y": 2.5672591848,
				"z": 2.4015994569,
				"element": "O" 
			},
			{
				"x": 3.2996817527,
				"y": 1.4086133513,
				"z": 2.1668076102,
				"element": "C" 
			},
			{
				"x": 4.3253985706,
				"y": 1.1363626705,
				"z": 2.7641912054,
				"element": "O" 
			},
			{
				"x": 2.6833093752,
				"y": 0.5531051951,
				"z": 1.1457493582,
				"element": "C" 
			},
			{
				"x": 1.5413861665,
				"y": 0.8591662903,
				"z": 0.4946706246,
				"element": "C" 
			},
			{
				"x": 0.8745880829,
				"y": 0.0326860659,
				"z": -0.490402789,
				"element": "C" 
			},
			{
				"x": 1.08104352,
				"y": -1.3200887858,
				"z": -0.7532119058,
				"element": "C" 
			},
			{
				"x": 0.1898759411,
				"y": -1.6819248475,
				"z": -1.7010995366,
				"element": "N" 
			},
			{
				"x": -0.0457754555,
				"y": -3.0130537608,
				"z": -2.2580095472,
				"element": "C" 
			},
			{
				"x": -1.1265987099,
				"y": -3.7798290088,
				"z": -1.5207595458,
				"element": "C" 
			},
			{
				"x": -0.852242377,
				"y": -4.7422818911,
				"z": -0.5396642528,
				"element": "C" 
			},
			{
				"x": 0.813755497,
				"y": -5.1323974224,
				"z": -0.0992600397,
				"element": "Cl" 
			},
			{
				"x": -1.8712265141,
				"y": -5.4262701314,
				"z": 0.1241380854,
				"element": "C" 
			},
			{
				"x": -3.2001949025,
				"y": -5.1439951783,
				"z": -0.1864468124,
				"element": "C" 
			},
			{
				"x": -3.5032552999,
				"y": -4.1848798237,
				"z": -1.1543035902,
				"element": "C" 
			},
			{
				"x": -2.4732144942,
				"y": -3.5161914447,
				"z": -1.8109212653,
				"element": "C" 
			},
			{
				"x": -0.6058981338,
				"y": -0.6577220047,
				"z": -2.0868926712,
				"element": "N" 
			},
			{
				"x": -0.2031846787,
				"y": 0.3939482777,
				"z": -1.3667779764,
				"element": "C" 
			},
			{
				"x": -0.8596362331,
				"y": 1.7015418604,
				"z": -1.5492984435,
				"element": "C" 
			},
			{
				"x": -0.1377886617,
				"y": 2.9046190701,
				"z": -1.4798433702,
				"element": "C" 
			},
			{
				"x": -0.7809306362,
				"y": 4.1295894151,
				"z": -1.6601912814,
				"element": "C" 
			},
			{
				"x": -2.1506432956,
				"y": 4.1727785294,
				"z": -1.9226363354,
				"element": "C" 
			},
			{
				"x": -2.8749950708,
				"y": 2.980799316,
				"z": -2.0091140645,
				"element": "C" 
			},
			{
				"x": -2.2371206034,
				"y": 1.756933903,
				"z": -1.8235632647,
				"element": "C" 
			},
			{
				"x": 3.1319709618,
				"y": 3.0278647334,
				"z": 3.0860671432,
				"element": "H" 
			},
			{
				"x": 3.2348985853,
				"y": -0.3610294198,
				"z": 0.9506221394,
				"element": "H" 
			},
			{
				"x": 1.0615685638,
				"y": 1.8044127711,
				"z": 0.7319192391,
				"element": "H" 
			},
			{
				"x": 1.7613872535,
				"y": -2.0355037684,
				"z": -0.3153384668,
				"element": "H" 
			},
			{
				"x": -0.3414985616,
				"y": -2.8596011725,
				"z": -3.2976454153,
				"element": "H" 
			},
			{
				"x": 0.9009932063,
				"y": -3.5535783169,
				"z": -2.2437592502,
				"element": "H" 
			},
			{
				"x": -1.6189641134,
				"y": -6.1673036789,
				"z": 0.8743113954,
				"element": "H" 
			},
			{
				"x": -3.9942057048,
				"y": -5.6751709552,
				"z": 0.3295975651,
				"element": "H" 
			},
			{
				"x": -4.5369552549,
				"y": -3.9608491943,
				"z": -1.3984299078,
				"element": "H" 
			},
			{
				"x": -2.699741556,
				"y": -2.7617815828,
				"z": -2.5584847624,
				"element": "H" 
			},
			{
				"x": 0.9343011624,
				"y": 2.8817773395,
				"z": -1.3134542078,
				"element": "H" 
			},
			{
				"x": -0.2066628998,
				"y": 5.0499889952,
				"z": -1.6059118391,
				"element": "H" 
			},
			{
				"x": -2.6499978342,
				"y": 5.1270693863,
				"z": -2.0633153354,
				"element": "H" 
			},
			{
				"x": -3.9411753509,
				"y": 3.0060990195,
				"z": -2.216274325,
				"element": "H" 
			},
			{
				"x": -2.795666717,
				"y": 0.8288370137,
				"z": -1.8838636212,
				"element": "H" 
			}
		],
		 "valence_orbital": [ 
			{
				"type": "occ",
				"energy": -0.26219,
				"method": "rhf"
			},
			{
				"type": "occ",
				"energy": -0.25947,
				"method": "rhf"
			},
			{
				"type": "occ",
				"energy": -0.25108,
				"method": "rhf"
			},
			{
				"type": "occ",
				"energy": -0.23748,
				"method": "rhf"
			},
			{
				"type": "occ",
				"energy": -0.2215,
				"method": "rhf"
			},
			{
				"type": "unocc",
				"energy": -0.05365,
				"method": "rhf"
			},
			{
				"type": "unocc",
				"energy": -0.03328,
				"method": "rhf"
			},
			{
				"type": "unocc",
				"energy": -0.02415,
				"method": "rhf"
			},
			{
				"type": "unocc",
				"energy": -0.01741,
				"method": "rhf"
			},
			{
				"type": "unocc",
				"energy": -0.00216,
				"method": "rhf"
			}
		],
		"cosmo_sigma_profile": { 
			"-0.025": 0.0,
			"-0.024": 0.0,
			"-0.023": 0.0,
			"-0.022": 0.0,
			"-0.021": 0.0,
			"-0.02": 0.0,
			"-0.019": 0.0,
			"-0.018": 0.261784506527,
			"-0.017": 0.863018583688,
			"-0.016": 0.927006855227,
			"-0.015": 0.969047310194,
			"-0.014": 0.394869705652,
			"-0.013": 0.787459283751,
			"-0.012": 0.359306834383,
			"-0.011": 0.809489655865,
			"-0.01": 0.803319476877,
			"-0.009": 1.90104431106,
			"-0.008": 4.23526687079,
			"-0.007": 11.263661684,
			"-0.006": 21.6099190774,
			"-0.005": 27.2625233735,
			"-0.004": 26.5879298196,
			"-0.003": 23.8536919761,
			"-0.002": 21.7609780036,
			"-0.001": 22.3553482568,
			"0.0": 27.3810241287,
			"0.001": 33.6147960517,
			"0.002": 36.044940104,
			"0.003": 33.5964266713,
			"0.004": 28.593797238,
			"0.005": 18.3756240403,
			"0.006": 6.55795917596,
			"0.007": 3.89878165659,
			"0.008": 4.4219869596,
			"0.009": 2.61608907584,
			"0.01": 2.59459355524,
			"0.011": 2.60210292425,
			"0.012": 5.82595628109,
			"0.013": 4.16048128796,
			"0.014": 0.506050895387,
			"0.015": 0.0,
			"0.016": 0.0,
			"0.017": 0.0,
			"0.018": 0.0,
			"0.019": 0.0,
			"0.02": 0.0,
			"0.021": 0.0,
			"0.022": 0.0,
			"0.023": 0.0,
			"0.024": 0.0,
			"0.025": 0.0
		}
	}
}
