{
	 "smiles": "OC(=O)C1CCC(CC1)NC(=O)CC1CCCCC1", 
	 "Tm": 410.15, 
	 "num_atms": 44, 
	 "gaussian": { 
		 "optdone": 1, 
		 "sigma_profile": "yes", 
		 "theory": "DFT", 
		 "functional": "B3LYP", 
		 "basiset": "6-31G**", 
		 "properties": { 
			 "R2extent": 8973.5119, 
			 "electric_dipole_moment_norm": 6.36711345823, 
			 "electric_quadrupole_moment_norm": 26.723320211, 
			 "total_energy": -867.133860459, 
			 "HOMO_LUMO_gap": 0.24258, 
			 "cosmo_polarized_energy": -23.39, 
			 "cosmo_cavitation_energy": 42.51, 
			 "cosmo_dispersion_energy": -29.67, 
			 "cosmo_repulsion_energy": 2.3, 
			 "cosmo_total_nonelectrostatic_energy": 15.14, 
			 "SMD_solvation_energy": 6.82 
		},
		"coords": [
			{
				"x": 3.8245677033,
				"y": -2.6249176229,
				"z": 4.9268682476,
				"element": "O" 
			},
			{
				"x": 2.9861712822,
				"y": -3.2513405845,
				"z": 4.0551196187,
				"element": "C" 
			},
			{
				"x": 2.3312026607,
				"y": -4.1932709264,
				"z": 4.4258073204,
				"element": "O" 
			},
			{
				"x": 2.939441809,
				"y": -2.6615577713,
				"z": 2.6458094692,
				"element": "C" 
			},
			{
				"x": 2.3022963727,
				"y": -1.2491592099,
				"z": 2.6570014861,
				"element": "C" 
			},
			{
				"x": 2.2279224951,
				"y": -0.6605013765,
				"z": 1.2418786976,
				"element": "C" 
			},
			{
				"x": 1.4552279589,
				"y": -1.5776341045,
				"z": 0.2677516288,
				"element": "C" 
			},
			{
				"x": 2.0746081812,
				"y": -2.9894455847,
				"z": 0.2762825636,
				"element": "C" 
			},
			{
				"x": 2.1835085536,
				"y": -3.5919412883,
				"z": 1.6859518663,
				"element": "C" 
			},
			{
				"x": 0.0283819697,
				"y": -1.6635444394,
				"z": 0.5840670424,
				"element": "N" 
			},
			{
				"x": -1.0227658726,
				"y": -0.8574763041,
				"z": 0.2111510242,
				"element": "C" 
			},
			{
				"x": -2.1676853351,
				"y": -1.1614561244,
				"z": 0.5326622866,
				"element": "O" 
			},
			{
				"x": -0.7320688947,
				"y": 0.4102592976,
				"z": -0.5830809425,
				"element": "C" 
			},
			{
				"x": -0.8843606609,
				"y": 1.7112212951,
				"z": 0.2472668827,
				"element": "C" 
			},
			{
				"x": -0.5193333809,
				"y": 2.9533692739,
				"z": -0.6182617881,
				"element": "C" 
			},
			{
				"x": -1.7646419876,
				"y": 3.6139045168,
				"z": -1.2249397877,
				"element": "C" 
			},
			{
				"x": -2.6857579855,
				"y": 4.1774745307,
				"z": -0.1178956288,
				"element": "C" 
			},
			{
				"x": -2.6131810351,
				"y": 3.3311010483,
				"z": 1.1759497124,
				"element": "C" 
			},
			{
				"x": -2.2992888968,
				"y": 1.8619110223,
				"z": 0.8632665789,
				"element": "C" 
			},
			{
				"x": 4.2916902013,
				"y": -1.9031155056,
				"z": 4.4829409671,
				"element": "H" 
			},
			{
				"x": 3.979545691,
				"y": -2.5596197176,
				"z": 2.2949926705,
				"element": "H" 
			},
			{
				"x": 1.2922533744,
				"y": -1.3189140751,
				"z": 3.0792818912,
				"element": "H" 
			},
			{
				"x": 2.864354337,
				"y": -0.571226522,
				"z": 3.3107145915,
				"element": "H" 
			},
			{
				"x": 1.7568118583,
				"y": 0.3273189714,
				"z": 1.2728714196,
				"element": "H" 
			},
			{
				"x": 3.2440899917,
				"y": -0.5162062193,
				"z": 0.8490344822,
				"element": "H" 
			},
			{
				"x": 1.5558229286,
				"y": -1.1727796227,
				"z": -0.744440862,
				"element": "H" 
			},
			{
				"x": 3.0774525945,
				"y": -2.9184494528,
				"z": -0.164013708,
				"element": "H" 
			},
			{
				"x": 1.4908430259,
				"y": -3.6493140448,
				"z": -0.3746757347,
				"element": "H" 
			},
			{
				"x": 1.1941129308,
				"y": -3.795359418,
				"z": 2.1121201576,
				"element": "H" 
			},
			{
				"x": 2.6834686222,
				"y": -4.5643431843,
				"z": 1.6392746116,
				"element": "H" 
			},
			{
				"x": -0.2894270681,
				"y": -2.4673890657,
				"z": 1.111341568,
				"element": "H" 
			},
			{
				"x": -1.4560550501,
				"y": 0.426456504,
				"z": -1.4056256184,
				"element": "H" 
			},
			{
				"x": 0.2668316006,
				"y": 0.3918165084,
				"z": -1.0291579527,
				"element": "H" 
			},
			{
				"x": -0.162349086,
				"y": 1.6616643147,
				"z": 1.0747860555,
				"element": "H" 
			},
			{
				"x": 0.1895539788,
				"y": 2.6701275277,
				"z": -1.4059075932,
				"element": "H" 
			},
			{
				"x": 0.001295678,
				"y": 3.691471467,
				"z": 0.0052799249,
				"element": "H" 
			},
			{
				"x": -2.3098558753,
				"y": 2.8710993017,
				"z": -1.8213540404,
				"element": "H" 
			},
			{
				"x": -1.4759468249,
				"y": 4.4081313863,
				"z": -1.9226103709,
				"element": "H" 
			},
			{
				"x": -3.7177004285,
				"y": 4.2093058413,
				"z": -0.4868988141,
				"element": "H" 
			},
			{
				"x": -2.4077940043,
				"y": 5.2145590102,
				"z": 0.1058650308,
				"element": "H" 
			},
			{
				"x": -1.8350936332,
				"y": 3.7304134358,
				"z": 1.8405816054,
				"element": "H" 
			},
			{
				"x": -3.5536442474,
				"y": 3.4093309212,
				"z": 1.7323530089,
				"element": "H" 
			},
			{
				"x": -3.0482023533,
				"y": 1.4669476759,
				"z": 0.16663788,
				"element": "H" 
			},
			{
				"x": -2.3846031794,
				"y": 1.2410783145,
				"z": 1.7588525509,
				"element": "H" 
			}
		],
		 "valence_orbital": [ 
			{
				"type": "occ",
				"energy": -0.29601,
				"method": "rhf"
			},
			{
				"type": "occ",
				"energy": -0.29347,
				"method": "rhf"
			},
			{
				"type": "occ",
				"energy": -0.27281,
				"method": "rhf"
			},
			{
				"type": "occ",
				"energy": -0.24628,
				"method": "rhf"
			},
			{
				"type": "occ",
				"energy": -0.23846,
				"method": "rhf"
			},
			{
				"type": "unocc",
				"energy": 0.00412,
				"method": "rhf"
			},
			{
				"type": "unocc",
				"energy": 0.02499,
				"method": "rhf"
			},
			{
				"type": "unocc",
				"energy": 0.03859,
				"method": "rhf"
			},
			{
				"type": "unocc",
				"energy": 0.06313,
				"method": "rhf"
			},
			{
				"type": "unocc",
				"energy": 0.07636,
				"method": "rhf"
			}
		],
		"cosmo_sigma_profile": { 
			"-0.025": 0.0,
			"-0.024": 0.0,
			"-0.023": 0.0,
			"-0.022": 0.0,
			"-0.021": 0.0,
			"-0.02": 0.0,
			"-0.019": 0.112283592236,
			"-0.018": 0.771298934346,
			"-0.017": 1.29502038393,
			"-0.016": 0.652613669358,
			"-0.015": 0.959517326509,
			"-0.014": 1.37210502647,
			"-0.013": 0.763507652398,
			"-0.012": 1.32027801569,
			"-0.011": 2.11094885681,
			"-0.01": 2.81013868348,
			"-0.009": 2.00123476627,
			"-0.008": 2.00960503155,
			"-0.007": 3.70154162911,
			"-0.006": 6.36175920261,
			"-0.005": 10.2153190153,
			"-0.004": 23.6482978047,
			"-0.003": 32.1059847942,
			"-0.002": 42.5763116431,
			"-0.001": 49.2182146495,
			"0.0": 40.965787929,
			"0.001": 26.6067093411,
			"0.002": 13.7817788511,
			"0.003": 5.05591951751,
			"0.004": 3.09704334188,
			"0.005": 3.77944982412,
			"0.006": 4.22554057723,
			"0.007": 3.88744602882,
			"0.008": 4.42542213233,
			"0.009": 4.17827410737,
			"0.01": 6.20256289868,
			"0.011": 6.86061154686,
			"0.012": 7.2771537158,
			"0.013": 4.15494152603,
			"0.014": 3.96211073541,
			"0.015": 4.49386562594,
			"0.016": 0.283325062208,
			"0.017": 0.0,
			"0.018": 0.0,
			"0.019": 0.0,
			"0.02": 0.0,
			"0.021": 0.0,
			"0.022": 0.0,
			"0.023": 0.0,
			"0.024": 0.0,
			"0.025": 0.0
		}
	}
}
