{
	 "smiles": "COC(=O)C1=C(F)C=CC(N)=C1", 
	 "Tm": 358.15, 
	 "num_atms": 20, 
	 "gaussian": { 
		 "optdone": 1, 
		 "sigma_profile": "yes", 
		 "theory": "DFT", 
		 "functional": "B3LYP", 
		 "basiset": "6-31G**", 
		 "properties": { 
			 "R2extent": 2525.3789, 
			 "electric_dipole_moment_norm": 4.47640797627, 
			 "electric_quadrupole_moment_norm": 10.9218774036, 
			 "total_energy": -614.712197129, 
			 "HOMO_LUMO_gap": 0.16398, 
			 "cosmo_polarized_energy": -13.5, 
			 "cosmo_cavitation_energy": 25.04, 
			 "cosmo_dispersion_energy": -18.41, 
			 "cosmo_repulsion_energy": 1.46, 
			 "cosmo_total_nonelectrostatic_energy": 8.09, 
			 "SMD_solvation_energy": 6.31 
		},
		"coords": [
			{
				"x": -3.3688637771,
				"y": 0.4189110524,
				"z": -2.8808657957,
				"element": "C" 
			},
			{
				"x": -2.3209878242,
				"y": 0.8142876482,
				"z": -1.984935071,
				"element": "O" 
			},
			{
				"x": -1.8914221021,
				"y": -0.1620244879,
				"z": -1.1420409826,
				"element": "C" 
			},
			{
				"x": -2.361963775,
				"y": -1.2798810619,
				"z": -1.1451830023,
				"element": "O" 
			},
			{
				"x": -0.8006365423,
				"y": 0.3254566276,
				"z": -0.2500530703,
				"element": "C" 
			},
			{
				"x": -0.2253692855,
				"y": -0.5173659196,
				"z": 0.7120861808,
				"element": "C" 
			},
			{
				"x": -0.6378805905,
				"y": -1.7866495631,
				"z": 0.8634111628,
				"element": "F" 
			},
			{
				"x": 0.790612947,
				"y": -0.0608879416,
				"z": 1.5448389894,
				"element": "C" 
			},
			{
				"x": 1.2521981102,
				"y": 1.2455714616,
				"z": 1.4311466304,
				"element": "C" 
			},
			{
				"x": 0.6995530642,
				"y": 2.1208322865,
				"z": 0.4790719745,
				"element": "C" 
			},
			{
				"x": 1.2030086889,
				"y": 3.4169059233,
				"z": 0.3222047372,
				"element": "N" 
			},
			{
				"x": -0.3228006277,
				"y": 1.6422414173,
				"z": -0.348546573,
				"element": "C" 
			},
			{
				"x": -4.2526825103,
				"y": 0.0966271447,
				"z": -2.3242887543,
				"element": "H" 
			},
			{
				"x": -3.0404833186,
				"y": -0.4040047078,
				"z": -3.5209551087,
				"element": "H" 
			},
			{
				"x": -3.5938744088,
				"y": 1.3024082476,
				"z": -3.4786963347,
				"element": "H" 
			},
			{
				"x": 1.2083585761,
				"y": -0.7427055795,
				"z": 2.2776349114,
				"element": "H" 
			},
			{
				"x": 2.0512126028,
				"y": 1.5915614455,
				"z": 2.081741029,
				"element": "H" 
			},
			{
				"x": 1.6269271959,
				"y": 3.8112380115,
				"z": 1.1509780229,
				"element": "H" 
			},
			{
				"x": 0.5639677535,
				"y": 4.0693038827,
				"z": -0.1114086748,
				"element": "H" 
			},
			{
				"x": -0.7640741762,
				"y": 2.2943741124,
				"z": -1.093540271,
				"element": "H" 
			}
		],
		 "valence_orbital": [ 
			{
				"type": "occ",
				"energy": -0.30636,
				"method": "rhf"
			},
			{
				"type": "occ",
				"energy": -0.29691,
				"method": "rhf"
			},
			{
				"type": "occ",
				"energy": -0.26489,
				"method": "rhf"
			},
			{
				"type": "occ",
				"energy": -0.26306,
				"method": "rhf"
			},
			{
				"type": "occ",
				"energy": -0.20794,
				"method": "rhf"
			},
			{
				"type": "unocc",
				"energy": -0.04396,
				"method": "rhf"
			},
			{
				"type": "unocc",
				"energy": 0.00854,
				"method": "rhf"
			},
			{
				"type": "unocc",
				"energy": 0.0598,
				"method": "rhf"
			},
			{
				"type": "unocc",
				"energy": 0.07541,
				"method": "rhf"
			},
			{
				"type": "unocc",
				"energy": 0.0971,
				"method": "rhf"
			}
		],
		"cosmo_sigma_profile": { 
			"-0.025": 0.0,
			"-0.024": 0.0,
			"-0.023": 0.0,
			"-0.022": 0.0,
			"-0.021": 0.0,
			"-0.02": 0.0,
			"-0.019": 0.0,
			"-0.018": 0.0,
			"-0.017": 0.0,
			"-0.016": 0.0,
			"-0.015": 0.0,
			"-0.014": 0.0,
			"-0.013": 0.820307932936,
			"-0.012": 3.04164499737,
			"-0.011": 3.04322466244,
			"-0.01": 3.54130357798,
			"-0.009": 3.02241095677,
			"-0.008": 3.9464844222,
			"-0.007": 6.57195276513,
			"-0.006": 9.6614042187,
			"-0.005": 11.1690784957,
			"-0.004": 13.1011401277,
			"-0.003": 14.0728211472,
			"-0.002": 10.0414922234,
			"-0.001": 9.08757005529,
			"0.0": 12.3873039698,
			"0.001": 13.7411111131,
			"0.002": 14.6142946711,
			"0.003": 17.129278766,
			"0.004": 14.9667692115,
			"0.005": 8.24839728562,
			"0.006": 4.26907976876,
			"0.007": 2.84275805853,
			"0.008": 2.761840231,
			"0.009": 2.95132384899,
			"0.01": 2.68311580054,
			"0.011": 3.6533304541,
			"0.012": 5.67559854885,
			"0.013": 1.75075367631,
			"0.014": 0.592691002965,
			"0.015": 0.15583030608,
			"0.016": 0.0,
			"0.017": 0.0,
			"0.018": 0.0,
			"0.019": 0.0,
			"0.02": 0.0,
			"0.021": 0.0,
			"0.022": 0.0,
			"0.023": 0.0,
			"0.024": 0.0,
			"0.025": 0.0
		}
	}
}
