{
	 "smiles": "CC12CCC(=O)C1(C)CCC1=C3C=CC(O)=CC3=CC=C21", 
	 "Tm": 534.15, 
	 "num_atms": 41, 
	 "gaussian": { 
		 "optdone": 1, 
		 "sigma_profile": "yes", 
		 "theory": "DFT", 
		 "functional": "B3LYP", 
		 "basiset": "6-31G**", 
		 "properties": { 
			 "R2extent": 8162.0054, 
			 "electric_dipole_moment_norm": 3.34520842251, 
			 "electric_quadrupole_moment_norm": 18.0687126251, 
			 "total_energy": -886.549980639, 
			 "HOMO_LUMO_gap": 0.16875, 
			 "cosmo_polarized_energy": -14.07, 
			 "cosmo_cavitation_energy": 39.59, 
			 "cosmo_dispersion_energy": -28.31, 
			 "cosmo_repulsion_energy": 2.09, 
			 "cosmo_total_nonelectrostatic_energy": 13.36, 
			 "SMD_solvation_energy": 6.58 
		},
		"coords": [
			{
				"x": 1.5466239012,
				"y": 0.3345734662,
				"z": 0.2082194683,
				"element": "C" 
			},
			{
				"x": 0.4724726426,
				"y": -0.7560019796,
				"z": 0.3903748647,
				"element": "C" 
			},
			{
				"x": 0.8839702194,
				"y": -1.7859000282,
				"z": 1.4948275177,
				"element": "C" 
			},
			{
				"x": 0.0210326415,
				"y": -3.0263564024,
				"z": 1.2291825576,
				"element": "C" 
			},
			{
				"x": -0.2548480039,
				"y": -2.9881710975,
				"z": -0.2727386046,
				"element": "C" 
			},
			{
				"x": -0.8069195902,
				"y": -3.8562547299,
				"z": -0.9163957686,
				"element": "O" 
			},
			{
				"x": 0.2981569799,
				"y": -1.6736862633,
				"z": -0.8648502941,
				"element": "C" 
			},
			{
				"x": 1.6347456233,
				"y": -2.0485952648,
				"z": -1.549938039,
				"element": "C" 
			},
			{
				"x": -0.6494079055,
				"y": -1.0796040121,
				"z": -1.9095084672,
				"element": "C" 
			},
			{
				"x": -2.0404878174,
				"y": -0.8018171193,
				"z": -1.344085671,
				"element": "C" 
			},
			{
				"x": -2.0165527423,
				"y": -0.1197591792,
				"z": 0.0095445307,
				"element": "C" 
			},
			{
				"x": -3.2257525721,
				"y": 0.4939052535,
				"z": 0.4926616928,
				"element": "C" 
			},
			{
				"x": -4.4524078116,
				"y": 0.4462950043,
				"z": -0.229975582,
				"element": "C" 
			},
			{
				"x": -5.5998906392,
				"y": 1.0366449937,
				"z": 0.2456557227,
				"element": "C" 
			},
			{
				"x": -5.5879836411,
				"y": 1.7203020313,
				"z": 1.4852713258,
				"element": "C" 
			},
			{
				"x": -6.767813384,
				"y": 2.2828924151,
				"z": 1.8815899596,
				"element": "O" 
			},
			{
				"x": -4.4238479923,
				"y": 1.7863903952,
				"z": 2.2220660555,
				"element": "C" 
			},
			{
				"x": -3.2334714737,
				"y": 1.1770415361,
				"z": 1.7498063929,
				"element": "C" 
			},
			{
				"x": -2.029120106,
				"y": 1.2220409631,
				"z": 2.4997377784,
				"element": "C" 
			},
			{
				"x": -0.8984773812,
				"y": 0.605842062,
				"z": 2.0326724513,
				"element": "C" 
			},
			{
				"x": -0.863689027,
				"y": -0.0879088033,
				"z": 0.786264474,
				"element": "C" 
			},
			{
				"x": 1.6314227825,
				"y": 0.9539692727,
				"z": 1.1056697509,
				"element": "H" 
			},
			{
				"x": 1.2960385977,
				"y": 1.0021383018,
				"z": -0.6229820661,
				"element": "H" 
			},
			{
				"x": 2.5321480685,
				"y": -0.0987195766,
				"z": 0.0153109969,
				"element": "H" 
			},
			{
				"x": 1.9458781598,
				"y": -2.0309994289,
				"z": 1.3789316859,
				"element": "H" 
			},
			{
				"x": 0.759100552,
				"y": -1.3907338299,
				"z": 2.5050337956,
				"element": "H" 
			},
			{
				"x": -0.9456192505,
				"y": -2.9649808771,
				"z": 1.7442394737,
				"element": "H" 
			},
			{
				"x": 0.4768086961,
				"y": -3.9779083236,
				"z": 1.5181260821,
				"element": "H" 
			},
			{
				"x": 2.0679620862,
				"y": -1.1817230133,
				"z": -2.0579830933,
				"element": "H" 
			},
			{
				"x": 2.3804653418,
				"y": -2.436500696,
				"z": -0.8490218304,
				"element": "H" 
			},
			{
				"x": 1.4467026304,
				"y": -2.8233579225,
				"z": -2.2990443103,
				"element": "H" 
			},
			{
				"x": -0.2073524188,
				"y": -0.1505542702,
				"z": -2.2922324726,
				"element": "H" 
			},
			{
				"x": -0.7306834985,
				"y": -1.7694440382,
				"z": -2.755783973,
				"element": "H" 
			},
			{
				"x": -2.5932093355,
				"y": -0.1830566335,
				"z": -2.0591773952,
				"element": "H" 
			},
			{
				"x": -2.596456971,
				"y": -1.74635514,
				"z": -1.2709655426,
				"element": "H" 
			},
			{
				"x": -4.4985355337,
				"y": -0.0771460194,
				"z": -1.1777067756,
				"element": "H" 
			},
			{
				"x": -6.5302551666,
				"y": 0.9913142799,
				"z": -0.3109096562,
				"element": "H" 
			},
			{
				"x": -6.6394025935,
				"y": 2.7157993104,
				"z": 2.7357818007,
				"element": "H" 
			},
			{
				"x": -4.4056523891,
				"y": 2.3045402117,
				"z": 3.1794244871,
				"element": "H" 
			},
			{
				"x": -2.017218563,
				"y": 1.7445547878,
				"z": 3.4528927509,
				"element": "H" 
			},
			{
				"x": 0.0043268848,
				"y": 0.6528903643,
				"z": 2.6344139261,
				"element": "H" 
			}
		],
		 "valence_orbital": [ 
			{
				"type": "occ",
				"energy": -0.29619,
				"method": "rhf"
			},
			{
				"type": "occ",
				"energy": -0.2678,
				"method": "rhf"
			},
			{
				"type": "occ",
				"energy": -0.23299,
				"method": "rhf"
			},
			{
				"type": "occ",
				"energy": -0.226,
				"method": "rhf"
			},
			{
				"type": "occ",
				"energy": -0.20416,
				"method": "rhf"
			},
			{
				"type": "unocc",
				"energy": -0.03541,
				"method": "rhf"
			},
			{
				"type": "unocc",
				"energy": -0.01713,
				"method": "rhf"
			},
			{
				"type": "unocc",
				"energy": 0.00162,
				"method": "rhf"
			},
			{
				"type": "unocc",
				"energy": 0.03681,
				"method": "rhf"
			},
			{
				"type": "unocc",
				"energy": 0.07009,
				"method": "rhf"
			}
		],
		"cosmo_sigma_profile": { 
			"-0.025": 0.0,
			"-0.024": 0.0,
			"-0.023": 0.0,
			"-0.022": 0.0,
			"-0.021": 0.0,
			"-0.02": 0.0,
			"-0.019": 0.0,
			"-0.018": 0.228404461524,
			"-0.017": 0.85866599927,
			"-0.016": 1.35998548328,
			"-0.015": 1.127863359,
			"-0.014": 0.967140008099,
			"-0.013": 1.02909260377,
			"-0.012": 0.570561172872,
			"-0.011": 0.652837913078,
			"-0.01": 1.26029250151,
			"-0.009": 1.6284010413,
			"-0.008": 0.639780506918,
			"-0.007": 1.21649090352,
			"-0.006": 7.25663667395,
			"-0.005": 18.2260526572,
			"-0.004": 22.5419486956,
			"-0.003": 35.1241935008,
			"-0.002": 34.9673047269,
			"-0.001": 31.526392321,
			"0.0": 30.8900628903,
			"0.001": 18.6747560895,
			"0.002": 12.0413883544,
			"0.003": 14.2002903068,
			"0.004": 18.481764484,
			"0.005": 23.1701319857,
			"0.006": 6.94139259531,
			"0.007": 4.0973170593,
			"0.008": 1.89059278537,
			"0.009": 3.36428362701,
			"0.01": 3.47584765976,
			"0.011": 4.38452203,
			"0.012": 5.16997841359,
			"0.013": 2.22945935119,
			"0.014": 0.203873030076,
			"0.015": 0.0,
			"0.016": 0.0,
			"0.017": 0.0,
			"0.018": 0.0,
			"0.019": 0.0,
			"0.02": 0.0,
			"0.021": 0.0,
			"0.022": 0.0,
			"0.023": 0.0,
			"0.024": 0.0,
			"0.025": 0.0
		}
	}
}
