{
	 "smiles": "NNC(=O)CSC1=NN=C(N1C1=CC=CC=C1)C1=CC=CC=C1", 
	 "Tm": 516.15, 
	 "num_atms": 38, 
	 "gaussian": { 
		 "optdone": 1, 
		 "sigma_profile": "yes", 
		 "theory": "DFT", 
		 "functional": "B3LYP", 
		 "basiset": "6-31G**", 
		 "properties": { 
			 "R2extent": 8973.571, 
			 "electric_dipole_moment_norm": 6.29839816461, 
			 "electric_quadrupole_moment_norm": 9.66923453227, 
			 "total_energy": -1365.87702829, 
			 "HOMO_LUMO_gap": 0.17954, 
			 "cosmo_polarized_energy": -19.71, 
			 "cosmo_cavitation_energy": 44.08, 
			 "cosmo_dispersion_energy": -30.74, 
			 "cosmo_repulsion_energy": 2.34, 
			 "cosmo_total_nonelectrostatic_energy": 15.69, 
			 "SMD_solvation_energy": 6.68 
		},
		"coords": [
			{
				"x": -4.6426007337,
				"y": 0.5879424768,
				"z": 2.7075796612,
				"element": "N" 
			},
			{
				"x": -4.0975811941,
				"y": -0.2812931051,
				"z": 1.7357887941,
				"element": "N" 
			},
			{
				"x": -3.7357826641,
				"y": -1.5457360173,
				"z": 2.0770517359,
				"element": "C" 
			},
			{
				"x": -3.9829498418,
				"y": -2.0554801108,
				"z": 3.1656823718,
				"element": "O" 
			},
			{
				"x": -2.9879530998,
				"y": -2.3089168218,
				"z": 0.9810707602,
				"element": "C" 
			},
			{
				"x": -1.1626204663,
				"y": -2.050757209,
				"z": 1.0038434764,
				"element": "S" 
			},
			{
				"x": -1.0629665494,
				"y": -0.5909693534,
				"z": 0.0203523956,
				"element": "C" 
			},
			{
				"x": -2.0615418888,
				"y": 0.1680341873,
				"z": -0.3753165386,
				"element": "N" 
			},
			{
				"x": -1.5380993941,
				"y": 1.1776492302,
				"z": -1.1490746666,
				"element": "N" 
			},
			{
				"x": -0.2339093823,
				"y": 1.0184002002,
				"z": -1.2069844773,
				"element": "C" 
			},
			{
				"x": 0.1301426889,
				"y": -0.1056590609,
				"z": -0.4674603706,
				"element": "N" 
			},
			{
				"x": 1.4083415755,
				"y": -0.7444275818,
				"z": -0.3426861484,
				"element": "C" 
			},
			{
				"x": 2.0068541776,
				"y": -1.3194987306,
				"z": -1.4671485981,
				"element": "C" 
			},
			{
				"x": 3.2458828386,
				"y": -1.9451875846,
				"z": -1.3371603613,
				"element": "C" 
			},
			{
				"x": 3.8756591978,
				"y": -2.007209427,
				"z": -0.0916543673,
				"element": "C" 
			},
			{
				"x": 3.2671175022,
				"y": -1.4377956229,
				"z": 1.0282738327,
				"element": "C" 
			},
			{
				"x": 2.0323908224,
				"y": -0.7985467921,
				"z": 0.9068268568,
				"element": "C" 
			},
			{
				"x": 0.6660659965,
				"y": 1.9200232845,
				"z": -1.9406777314,
				"element": "C" 
			},
			{
				"x": 0.1419360852,
				"y": 2.6108881886,
				"z": -3.0476192643,
				"element": "C" 
			},
			{
				"x": 0.9350375284,
				"y": 3.5072466537,
				"z": -3.7581413726,
				"element": "C" 
			},
			{
				"x": 2.2617105521,
				"y": 3.7275904163,
				"z": -3.3787230366,
				"element": "C" 
			},
			{
				"x": 2.7860404204,
				"y": 3.0519004861,
				"z": -2.2760361256,
				"element": "C" 
			},
			{
				"x": 1.9962124156,
				"y": 2.1552659549,
				"z": -1.5568468083,
				"element": "C" 
			},
			{
				"x": -4.290070039,
				"y": 0.2631576921,
				"z": 3.609378995,
				"element": "H" 
			},
			{
				"x": -5.6480824254,
				"y": 0.4179023361,
				"z": 2.7392163235,
				"element": "H" 
			},
			{
				"x": -3.6475906615,
				"y": 0.1618072074,
				"z": 0.9339066844,
				"element": "H" 
			},
			{
				"x": -3.1138392986,
				"y": -3.3739371271,
				"z": 1.17973301,
				"element": "H" 
			},
			{
				"x": -3.3477066796,
				"y": -2.0676646795,
				"z": -0.0211284578,
				"element": "H" 
			},
			{
				"x": 1.5027041692,
				"y": -1.2718360422,
				"z": -2.4265778202,
				"element": "H" 
			},
			{
				"x": 3.7155314837,
				"y": -2.39052208,
				"z": -2.2087529206,
				"element": "H" 
			},
			{
				"x": 4.8381956616,
				"y": -2.5000565785,
				"z": 0.0055705112,
				"element": "H" 
			},
			{
				"x": 3.7529904741,
				"y": -1.4851028289,
				"z": 1.9978644395,
				"element": "H" 
			},
			{
				"x": 1.5537677636,
				"y": -0.342047669,
				"z": 1.7672070354,
				"element": "H" 
			},
			{
				"x": -0.89017039,
				"y": 2.4355749417,
				"z": -3.3305113598,
				"element": "H" 
			},
			{
				"x": 0.5177776077,
				"y": 4.0327892874,
				"z": -4.6120881208,
				"element": "H" 
			},
			{
				"x": 2.8807062532,
				"y": 4.4244344672,
				"z": -3.936252445,
				"element": "H" 
			},
			{
				"x": 3.8121742031,
				"y": 3.2274264931,
				"z": -1.9665248909,
				"element": "H" 
			},
			{
				"x": 2.412425291,
				"y": 1.6553109187,
				"z": -0.6899810017,
				"element": "H" 
			}
		],
		 "valence_orbital": [ 
			{
				"type": "occ",
				"energy": -0.26263,
				"method": "rhf"
			},
			{
				"type": "occ",
				"energy": -0.25907,
				"method": "rhf"
			},
			{
				"type": "occ",
				"energy": -0.24612,
				"method": "rhf"
			},
			{
				"type": "occ",
				"energy": -0.23305,
				"method": "rhf"
			},
			{
				"type": "occ",
				"energy": -0.22156,
				"method": "rhf"
			},
			{
				"type": "unocc",
				"energy": -0.04202,
				"method": "rhf"
			},
			{
				"type": "unocc",
				"energy": -0.03366,
				"method": "rhf"
			},
			{
				"type": "unocc",
				"energy": -0.03045,
				"method": "rhf"
			},
			{
				"type": "unocc",
				"energy": -0.00857,
				"method": "rhf"
			},
			{
				"type": "unocc",
				"energy": -0.00139,
				"method": "rhf"
			}
		],
		"cosmo_sigma_profile": { 
			"-0.025": 0.0,
			"-0.024": 0.0,
			"-0.023": 0.0,
			"-0.022": 0.0,
			"-0.021": 0.0,
			"-0.02": 0.0,
			"-0.019": 0.0,
			"-0.018": 0.0,
			"-0.017": 0.0,
			"-0.016": 0.0,
			"-0.015": 0.0,
			"-0.014": 0.0,
			"-0.013": 0.0,
			"-0.012": 0.498959192457,
			"-0.011": 1.40559860269,
			"-0.01": 2.45945883232,
			"-0.009": 3.2729560562,
			"-0.008": 4.39593458983,
			"-0.007": 13.3238794268,
			"-0.006": 25.0555544681,
			"-0.005": 30.4963274254,
			"-0.004": 29.2461684823,
			"-0.003": 22.8873862159,
			"-0.002": 21.703717012,
			"-0.001": 22.0571068125,
			"0.0": 22.5255869924,
			"0.001": 24.494026908,
			"0.002": 25.4210727993,
			"0.003": 27.9728799826,
			"0.004": 23.9098429705,
			"0.005": 12.1900833123,
			"0.006": 4.56394530407,
			"0.007": 3.27490947403,
			"0.008": 3.70625358269,
			"0.009": 4.29045956761,
			"0.01": 3.52699974313,
			"0.011": 4.13454381016,
			"0.012": 4.44401031826,
			"0.013": 6.38573995686,
			"0.014": 4.26793417123,
			"0.015": 1.79510916633,
			"0.016": 0.725738037011,
			"0.017": 0.353192120009,
			"0.018": 0.0,
			"0.019": 0.0,
			"0.02": 0.0,
			"0.021": 0.0,
			"0.022": 0.0,
			"0.023": 0.0,
			"0.024": 0.0,
			"0.025": 0.0
		}
	}
}
