{
	 "smiles": "IC1=CC=C(C=O)C=C1", 
	 "Tm": 350.65, 
	 "num_atms": 14, 
	 "gaussian": { 
		 "optdone": 1, 
		 "sigma_profile": "no", 
		 "theory": "DFT", 
		 "functional": "B3LYP", 
		 "basiset": "6-31G**", 
		 "properties": { 
			 "R2extent": 1848.7426, 
			 "electric_dipole_moment_norm": 2.05579887392, 
			 "electric_quadrupole_moment_norm": 13.4094314391, 
			 "total_energy": -356.357272179, 
			 "HOMO_LUMO_gap": 0.17825, 
			 "cosmo_polarized_energy": -100428.62, 
			 "cosmo_cavitation_energy": 21.98, 
			 "cosmo_dispersion_energy": -17.54, 
			 "cosmo_repulsion_energy": 1.39, 
			 "cosmo_total_nonelectrostatic_energy": 5.84, 
			 "SMD_solvation_energy": 3.99 
		},
		"coords": [
			{
				"x": 0.8912699895,
				"y": 2.2995627095,
				"z": 0.4687015905,
				"element": "I" 
			},
			{
				"x": -0.0929992472,
				"y": 0.50509733,
				"z": -0.0733259261,
				"element": "C" 
			},
			{
				"x": -1.1596635431,
				"y": 0.047146939,
				"z": 0.7046883331,
				"element": "C" 
			},
			{
				"x": -1.8009274264,
				"y": -1.1354815655,
				"z": 0.3391704933,
				"element": "C" 
			},
			{
				"x": -1.3842360002,
				"y": -1.8532613367,
				"z": -0.7881908766,
				"element": "C" 
			},
			{
				"x": -2.0734357589,
				"y": -3.1083833734,
				"z": -1.1664080987,
				"element": "C" 
			},
			{
				"x": -1.7776512329,
				"y": -3.7926156016,
				"z": -2.1269680665,
				"element": "O" 
			},
			{
				"x": -0.3115509629,
				"y": -1.3774578676,
				"z": -1.5565360283,
				"element": "C" 
			},
			{
				"x": 0.3380565828,
				"y": -0.1994501808,
				"z": -1.2046757324,
				"element": "C" 
			},
			{
				"x": -1.4838237269,
				"y": 0.601419862,
				"z": 1.5779744219,
				"element": "H" 
			},
			{
				"x": -2.632593686,
				"y": -1.5033831748,
				"z": 0.9358051774,
				"element": "H" 
			},
			{
				"x": -2.910253221,
				"y": -3.3983701954,
				"z": -0.4926274798,
				"element": "H" 
			},
			{
				"x": -0.0024882493,
				"y": -1.947458371,
				"z": -2.427210767,
				"element": "H" 
			},
			{
				"x": 1.1671964827,
				"y": 0.1687348263,
				"z": -1.7981970408,
				"element": "H" 
			}
		],
		 "valence_orbital": [ 
			{
				"type": "occ",
				"energy": -0.30764,
				"method": "rhf"
			},
			{
				"type": "occ",
				"energy": -0.28052,
				"method": "rhf"
			},
			{
				"type": "occ",
				"energy": -0.27932,
				"method": "rhf"
			},
			{
				"type": "occ",
				"energy": -0.26375,
				"method": "rhf"
			},
			{
				"type": "occ",
				"energy": -0.25371,
				"method": "rhf"
			},
			{
				"type": "unocc",
				"energy": -0.07546,
				"method": "rhf"
			},
			{
				"type": "unocc",
				"energy": -0.04928,
				"method": "rhf"
			},
			{
				"type": "unocc",
				"energy": -0.02933,
				"method": "rhf"
			},
			{
				"type": "unocc",
				"energy": 0.02042,
				"method": "rhf"
			},
			{
				"type": "unocc",
				"energy": 0.03674,
				"method": "rhf"
			}
		],
		"cosmo_sigma_profile": { 
			"0.0": 0.0,
			"0.0": 0.0,
			"0.0": 0.0,
			"0.0": 0.0,
			"0.0": 0.0,
			"0.0": 0.0,
			"0.0": 0.0,
			"0.0": 0.0,
			"0.0": 0.0,
			"0.0": 0.0,
			"0.0": 0.0,
			"0.0": 0.0,
			"0.0": 0.0,
			"0.0": 0.0,
			"0.0": 0.0,
			"0.0": 0.0,
			"0.0": 0.0,
			"0.0": 0.0,
			"0.0": 0.0,
			"0.0": 0.0,
			"0.0": 0.0,
			"0.0": 0.0,
			"0.0": 0.0,
			"0.0": 0.0,
			"0.0": 0.0,
			"0.0": 0.0,
			"0.0": 0.0,
			"0.0": 0.0,
			"0.0": 0.0,
			"0.0": 0.0,
			"0.0": 0.0,
			"0.0": 0.0,
			"0.0": 0.0,
			"0.0": 0.0,
			"0.0": 0.0,
			"0.0": 0.0,
			"0.0": 0.0,
			"0.0": 0.0,
			"0.0": 0.0,
			"0.0": 0.0,
			"0.0": 0.0,
			"0.0": 0.0,
			"0.0": 0.0,
			"0.0": 0.0,
			"0.0": 0.0,
			"0.0": 0.0,
			"0.0": 0.0,
			"0.0": 0.0,
			"0.0": 0.0,
			"0.0": 0.0,
			"0.0": 0.0
		}
	}
}
