{
	 "smiles": "ON=C1CCCC2=NON=C12", 
	 "Tm": 440.15, 
	 "num_atms": 18, 
	 "gaussian": { 
		 "optdone": 1, 
		 "sigma_profile": "yes", 
		 "theory": "DFT", 
		 "functional": "B3LYP", 
		 "basiset": "6-31G**", 
		 "properties": { 
			 "R2extent": 4032.8943, 
			 "electric_dipole_moment_norm": 4.20809302773, 
			 "electric_quadrupole_moment_norm": 15.5330142777, 
			 "total_energy": -547.418033277, 
			 "HOMO_LUMO_gap": 0.17929, 
			 "cosmo_polarized_energy": -10.9, 
			 "cosmo_cavitation_energy": 21.49, 
			 "cosmo_dispersion_energy": -16.69, 
			 "cosmo_repulsion_energy": 1.34, 
			 "cosmo_total_nonelectrostatic_energy": 6.14, 
			 "SMD_solvation_energy": 3.01 
		},
		"coords": [
			{
				"x": -4.7706682527,
				"y": -1.8085826433,
				"z": -2.1261603199,
				"element": "O" 
			},
			{
				"x": -3.7902665515,
				"y": -2.2045028598,
				"z": -1.263101653,
				"element": "N" 
			},
			{
				"x": -2.6016773447,
				"y": -1.7229242436,
				"z": -1.4124132259,
				"element": "C" 
			},
			{
				"x": -1.5020594368,
				"y": -2.1864424341,
				"z": -0.4738997234,
				"element": "C" 
			},
			{
				"x": -0.5104518429,
				"y": -1.05523324,
				"z": -0.1261930847,
				"element": "C" 
			},
			{
				"x": 0.16952897,
				"y": -0.4634931357,
				"z": -1.3819825836,
				"element": "C" 
			},
			{
				"x": -0.8837212365,
				"y": -0.1225592545,
				"z": -2.3908318859,
				"element": "C" 
			},
			{
				"x": -0.8246652739,
				"y": 0.7462193056,
				"z": -3.3621439699,
				"element": "N" 
			},
			{
				"x": -2.0552938656,
				"y": 0.6946285406,
				"z": -3.987708982,
				"element": "O" 
			},
			{
				"x": -2.8821241425,
				"y": -0.2196122011,
				"z": -3.3811925534,
				"element": "N" 
			},
			{
				"x": -2.179148446,
				"y": -0.7334654055,
				"z": -2.399104047,
				"element": "C" 
			},
			{
				"x": -4.4214543793,
				"y": -1.1800030658,
				"z": -2.7960966789,
				"element": "H" 
			},
			{
				"x": -0.9500286946,
				"y": -3.0100667638,
				"z": -0.9497448655,
				"element": "H" 
			},
			{
				"x": -1.964689302,
				"y": -2.5946347788,
				"z": 0.4278124735,
				"element": "H" 
			},
			{
				"x": 0.2560809825,
				"y": -1.4380348582,
				"z": 0.5541684083,
				"element": "H" 
			},
			{
				"x": -1.0412498344,
				"y": -0.2576094578,
				"z": 0.4073995482,
				"element": "H" 
			},
			{
				"x": 0.7673597927,
				"y": 0.4192645653,
				"z": -1.1386130632,
				"element": "H" 
			},
			{
				"x": 0.8550288579,
				"y": -1.2028480696,
				"z": -1.8169937938,
				"element": "H" 
			}
		],
		 "valence_orbital": [ 
			{
				"type": "occ",
				"energy": -0.34198,
				"method": "rhf"
			},
			{
				"type": "occ",
				"energy": -0.3364,
				"method": "rhf"
			},
			{
				"type": "occ",
				"energy": -0.31916,
				"method": "rhf"
			},
			{
				"type": "occ",
				"energy": -0.29099,
				"method": "rhf"
			},
			{
				"type": "occ",
				"energy": -0.25927,
				"method": "rhf"
			},
			{
				"type": "unocc",
				"energy": -0.07998,
				"method": "rhf"
			},
			{
				"type": "unocc",
				"energy": -0.02413,
				"method": "rhf"
			},
			{
				"type": "unocc",
				"energy": 0.05772,
				"method": "rhf"
			},
			{
				"type": "unocc",
				"energy": 0.07053,
				"method": "rhf"
			},
			{
				"type": "unocc",
				"energy": 0.08751,
				"method": "rhf"
			}
		],
		"cosmo_sigma_profile": { 
			"-0.025": 0.0,
			"-0.024": 0.0,
			"-0.023": 0.0,
			"-0.022": 0.0,
			"-0.021": 0.0,
			"-0.02": 0.0,
			"-0.019": 0.0,
			"-0.018": 0.0,
			"-0.017": 0.0,
			"-0.016": 0.0,
			"-0.015": 0.0,
			"-0.014": 0.0,
			"-0.013": 0.0,
			"-0.012": 0.0,
			"-0.011": 0.0,
			"-0.01": 0.0766655009228,
			"-0.009": 0.416851197594,
			"-0.008": 1.41320479221,
			"-0.007": 4.39240049599,
			"-0.006": 13.0957807224,
			"-0.005": 19.6907870998,
			"-0.004": 22.8064432613,
			"-0.003": 18.5931057885,
			"-0.002": 11.608887011,
			"-0.001": 8.11575785727,
			"0.0": 4.58019307116,
			"0.001": 4.78815189668,
			"0.002": 5.42345733364,
			"0.003": 5.99617237941,
			"0.004": 9.43407159212,
			"0.005": 8.65133950427,
			"0.006": 6.59509507074,
			"0.007": 2.80458273622,
			"0.008": 4.39748114384,
			"0.009": 4.8817802691,
			"0.01": 5.01430807296,
			"0.011": 5.54318214715,
			"0.012": 1.42122313369,
			"0.013": 1.07010578291,
			"0.014": 0.223801502002,
			"0.015": 0.0,
			"0.016": 0.0,
			"0.017": 0.0,
			"0.018": 0.0,
			"0.019": 0.0,
			"0.02": 0.0,
			"0.021": 0.0,
			"0.022": 0.0,
			"0.023": 0.0,
			"0.024": 0.0,
			"0.025": 0.0
		}
	}
}
