{
	 "smiles": "CC(C)C(C(O)=O)C(O)=O", 
	 "Tm": 364.65, 
	 "num_atms": 20, 
	 "gaussian": { 
		 "optdone": 1, 
		 "sigma_profile": "yes", 
		 "theory": "DFT", 
		 "functional": "B3LYP", 
		 "basiset": "6-31G**", 
		 "properties": { 
			 "R2extent": 2254.2965, 
			 "electric_dipole_moment_norm": 2.15228579887, 
			 "electric_quadrupole_moment_norm": 7.02749869441, 
			 "total_energy": -535.59590745, 
			 "HOMO_LUMO_gap": 0.27252, 
			 "cosmo_polarized_energy": -13.59, 
			 "cosmo_cavitation_energy": 23.48, 
			 "cosmo_dispersion_energy": -16.64, 
			 "cosmo_repulsion_energy": 1.38, 
			 "cosmo_total_nonelectrostatic_energy": 8.23, 
			 "SMD_solvation_energy": 6.43 
		},
		"coords": [
			{
				"x": 0.070091935,
				"y": -0.3163768653,
				"z": -0.9398505097,
				"element": "C" 
			},
			{
				"x": -1.1186276681,
				"y": 0.343252336,
				"z": -0.223401877,
				"element": "C" 
			},
			{
				"x": -1.5084556198,
				"y": -0.4203058281,
				"z": 1.0512430805,
				"element": "C" 
			},
			{
				"x": -0.9001981039,
				"y": 1.8570207337,
				"z": 0.0776427943,
				"element": "C" 
			},
			{
				"x": -0.6568086077,
				"y": 2.637260814,
				"z": -1.2083579361,
				"element": "C" 
			},
			{
				"x": -1.8053129021,
				"y": 2.7918500121,
				"z": -1.9080743433,
				"element": "O" 
			},
			{
				"x": 0.412761159,
				"y": 3.0454937792,
				"z": -1.6001833265,
				"element": "O" 
			},
			{
				"x": 0.2234061783,
				"y": 2.1689883273,
				"z": 1.0608850966,
				"element": "C" 
			},
			{
				"x": 0.1250497464,
				"y": 3.4459012687,
				"z": 1.4958640245,
				"element": "O" 
			},
			{
				"x": 1.086875455,
				"y": 1.4139424763,
				"z": 1.4461920677,
				"element": "O" 
			},
			{
				"x": -0.1818903755,
				"y": -1.3501005035,
				"z": -1.1984673856,
				"element": "H" 
			},
			{
				"x": 0.328370003,
				"y": 0.2043026872,
				"z": -1.8673785864,
				"element": "H" 
			},
			{
				"x": 0.954627691,
				"y": -0.3252260168,
				"z": -0.3000495704,
				"element": "H" 
			},
			{
				"x": -1.9797019064,
				"y": 0.3186207793,
				"z": -0.9033034603,
				"element": "H" 
			},
			{
				"x": -1.7649514151,
				"y": -1.4558198758,
				"z": 0.8053629848,
				"element": "H" 
			},
			{
				"x": -2.3802925652,
				"y": 0.0308916985,
				"z": 1.5387456441,
				"element": "H" 
			},
			{
				"x": -0.6828311707,
				"y": -0.4385071211,
				"z": 1.7673599928,
				"element": "H" 
			},
			{
				"x": -1.8242665614,
				"y": 2.252013994,
				"z": 0.5157571215,
				"element": "H" 
			},
			{
				"x": -1.5632153776,
				"y": 3.255382696,
				"z": -2.7278359311,
				"element": "H" 
			},
			{
				"x": 0.8854701058,
				"y": 3.5945146083,
				"z": 2.0830501196,
				"element": "H" 
			}
		],
		 "valence_orbital": [ 
			{
				"type": "occ",
				"energy": -0.33972,
				"method": "rhf"
			},
			{
				"type": "occ",
				"energy": -0.32731,
				"method": "rhf"
			},
			{
				"type": "occ",
				"energy": -0.32148,
				"method": "rhf"
			},
			{
				"type": "occ",
				"energy": -0.28291,
				"method": "rhf"
			},
			{
				"type": "occ",
				"energy": -0.27839,
				"method": "rhf"
			},
			{
				"type": "unocc",
				"energy": -0.00587,
				"method": "rhf"
			},
			{
				"type": "unocc",
				"energy": 0.00314,
				"method": "rhf"
			},
			{
				"type": "unocc",
				"energy": 0.06689,
				"method": "rhf"
			},
			{
				"type": "unocc",
				"energy": 0.07778,
				"method": "rhf"
			},
			{
				"type": "unocc",
				"energy": 0.09272,
				"method": "rhf"
			}
		],
		"cosmo_sigma_profile": { 
			"-0.025": 0.0,
			"-0.024": 0.0,
			"-0.023": 0.0,
			"-0.022": 0.0,
			"-0.021": 0.0,
			"-0.02": 0.0,
			"-0.019": 0.465469082815,
			"-0.018": 1.82675407919,
			"-0.017": 2.28794390858,
			"-0.016": 1.36065879713,
			"-0.015": 1.28035033478,
			"-0.014": 1.11357578632,
			"-0.013": 1.71578105149,
			"-0.012": 1.54921889329,
			"-0.011": 2.16454112529,
			"-0.01": 0.856164403586,
			"-0.009": 0.595930266905,
			"-0.008": 2.22174042785,
			"-0.007": 4.31676683365,
			"-0.006": 4.28032538365,
			"-0.005": 3.94624488744,
			"-0.004": 7.684905681,
			"-0.003": 15.8623551653,
			"-0.002": 16.3519237324,
			"-0.001": 15.9420414525,
			"0.0": 16.0503060364,
			"0.001": 17.4195577516,
			"0.002": 8.53992664045,
			"0.003": 5.39984224414,
			"0.004": 5.35489996808,
			"0.005": 6.08309121134,
			"0.006": 5.90449716917,
			"0.007": 7.66409926362,
			"0.008": 5.11914210911,
			"0.009": 5.13080863342,
			"0.01": 4.63437114034,
			"0.011": 8.52888267516,
			"0.012": 1.35586114713,
			"0.013": 0.0,
			"0.014": 0.0,
			"0.015": 0.0,
			"0.016": 0.0,
			"0.017": 0.0,
			"0.018": 0.0,
			"0.019": 0.0,
			"0.02": 0.0,
			"0.021": 0.0,
			"0.022": 0.0,
			"0.023": 0.0,
			"0.024": 0.0,
			"0.025": 0.0
		}
	}
}
