{
	 "smiles": "ON=C1C(=O)NC(=O)NC1=O", 
	 "Tm": 512.15, 
	 "num_atms": 14, 
	 "gaussian": { 
		 "optdone": 1, 
		 "sigma_profile": "yes", 
		 "theory": "DFT", 
		 "functional": "B3LYP", 
		 "basiset": "6-31G**", 
		 "properties": { 
			 "R2extent": 2025.9304, 
			 "electric_dipole_moment_norm": 1.42471761062, 
			 "electric_quadrupole_moment_norm": 7.98884776673, 
			 "total_energy": -619.35198116, 
			 "HOMO_LUMO_gap": 0.16383, 
			 "cosmo_polarized_energy": -21.05, 
			 "cosmo_cavitation_energy": 20.42, 
			 "cosmo_dispersion_energy": -15.4, 
			 "cosmo_repulsion_energy": 1.26, 
			 "cosmo_total_nonelectrostatic_energy": 6.28, 
			 "SMD_solvation_energy": 6.42 
		},
		"coords": [
			{
				"x": -0.7769161433,
				"y": 1.8642908507,
				"z": 0.0043969872,
				"element": "O" 
			},
			{
				"x": 0.3447831111,
				"y": 1.1422215718,
				"z": 0.2290114931,
				"element": "N" 
			},
			{
				"x": 0.159889132,
				"y": -0.0936736049,
				"z": 0.5620779636,
				"element": "C" 
			},
			{
				"x": -1.163397657,
				"y": -0.7797184412,
				"z": 0.7173332625,
				"element": "C" 
			},
			{
				"x": -2.2490028153,
				"y": -0.2611128586,
				"z": 0.5493848994,
				"element": "O" 
			},
			{
				"x": -1.0641358651,
				"y": -2.1217033338,
				"z": 1.0863251674,
				"element": "N" 
			},
			{
				"x": 0.0798066416,
				"y": -2.8774373912,
				"z": 1.3196100964,
				"element": "C" 
			},
			{
				"x": 0.0410686034,
				"y": -4.0478987357,
				"z": 1.6382263066,
				"element": "O" 
			},
			{
				"x": 1.2685226268,
				"y": -2.1769079479,
				"z": 1.1562751627,
				"element": "N" 
			},
			{
				"x": 1.4442846831,
				"y": -0.8418402728,
				"z": 0.7972634035,
				"element": "C" 
			},
			{
				"x": 2.553754889,
				"y": -0.3622513203,
				"z": 0.6938311905,
				"element": "O" 
			},
			{
				"x": -0.4238348178,
				"y": 2.7383106002,
				"z": -0.2257292388,
				"element": "H" 
			},
			{
				"x": -1.9412600255,
				"y": -2.6161107795,
				"z": 1.2000860904,
				"element": "H" 
			},
			{
				"x": 2.1142376371,
				"y": -2.7093683367,
				"z": 1.3219072156,
				"element": "H" 
			}
		],
		 "valence_orbital": [ 
			{
				"type": "occ",
				"energy": -0.31038,
				"method": "rhf"
			},
			{
				"type": "occ",
				"energy": -0.30556,
				"method": "rhf"
			},
			{
				"type": "occ",
				"energy": -0.30258,
				"method": "rhf"
			},
			{
				"type": "occ",
				"energy": -0.29712,
				"method": "rhf"
			},
			{
				"type": "occ",
				"energy": -0.27146,
				"method": "rhf"
			},
			{
				"type": "unocc",
				"energy": -0.10763,
				"method": "rhf"
			},
			{
				"type": "unocc",
				"energy": -0.01335,
				"method": "rhf"
			},
			{
				"type": "unocc",
				"energy": 0.00541,
				"method": "rhf"
			},
			{
				"type": "unocc",
				"energy": 0.04442,
				"method": "rhf"
			},
			{
				"type": "unocc",
				"energy": 0.07054,
				"method": "rhf"
			}
		],
		"cosmo_sigma_profile": { 
			"-0.025": 0.0,
			"-0.024": 0.0,
			"-0.023": 0.0,
			"-0.022": 0.0,
			"-0.021": 0.0487248627349,
			"-0.02": 1.19135338971,
			"-0.019": 0.926445486674,
			"-0.018": 1.21350976563,
			"-0.017": 1.83992031412,
			"-0.016": 3.05229439332,
			"-0.015": 2.42602121037,
			"-0.014": 2.2418138627,
			"-0.013": 2.50119850883,
			"-0.012": 2.56894925586,
			"-0.011": 3.04115608125,
			"-0.01": 2.89398965906,
			"-0.009": 4.53443179611,
			"-0.008": 4.45567201348,
			"-0.007": 4.43025694184,
			"-0.006": 7.10390910677,
			"-0.005": 6.67793492407,
			"-0.004": 8.66419592747,
			"-0.003": 10.029694991,
			"-0.002": 6.56305692048,
			"-0.001": 5.43825092134,
			"0.0": 5.14294824856,
			"0.001": 5.34353740517,
			"0.002": 4.02609473261,
			"0.003": 3.83153127405,
			"0.004": 4.35032942898,
			"0.005": 3.93388382088,
			"0.006": 4.87161807992,
			"0.007": 4.16642641846,
			"0.008": 4.77904121594,
			"0.009": 6.74207599415,
			"0.01": 10.1249147935,
			"0.011": 15.0761431702,
			"0.012": 5.98450391102,
			"0.013": 2.8986208752,
			"0.014": 0.622253659601,
			"0.015": 0.0,
			"0.016": 0.0,
			"0.017": 0.0,
			"0.018": 0.0,
			"0.019": 0.0,
			"0.02": 0.0,
			"0.021": 0.0,
			"0.022": 0.0,
			"0.023": 0.0,
			"0.024": 0.0,
			"0.025": 0.0
		}
	}
}
