{
	 "smiles": "CC1=CC(CC#N)=C(C)N1C1=CC=C(Cl)C=C1", 
	 "Tm": 348.15, 
	 "num_atms": 30, 
	 "gaussian": { 
		 "optdone": 1, 
		 "sigma_profile": "yes", 
		 "theory": "DFT", 
		 "functional": "B3LYP", 
		 "basiset": "6-31G**", 
		 "properties": { 
			 "R2extent": 6082.5283, 
			 "electric_dipole_moment_norm": 4.35536687433, 
			 "electric_quadrupole_moment_norm": 25.3026471105, 
			 "total_energy": -1111.00651788, 
			 "HOMO_LUMO_gap": 0.17037, 
			 "cosmo_polarized_energy": -12.79, 
			 "cosmo_cavitation_energy": 36.87, 
			 "cosmo_dispersion_energy": -24.6, 
			 "cosmo_repulsion_energy": 1.95, 
			 "cosmo_total_nonelectrostatic_energy": 14.21, 
			 "SMD_solvation_energy": 7.58 
		},
		"coords": [
			{
				"x": 0.8820989705,
				"y": 1.6647218867,
				"z": 1.9844523729,
				"element": "C" 
			},
			{
				"x": 0.9499793596,
				"y": 0.3249822385,
				"z": 1.3237275806,
				"element": "C" 
			},
			{
				"x": 1.6217283418,
				"y": -0.8152056191,
				"z": 1.6966883409,
				"element": "C" 
			},
			{
				"x": 1.3361777969,
				"y": -1.8347945289,
				"z": 0.7403313747,
				"element": "C" 
			},
			{
				"x": 1.8654702981,
				"y": -3.2480797083,
				"z": 0.7719888597,
				"element": "C" 
			},
			{
				"x": 0.9913481394,
				"y": -4.1838292944,
				"z": 1.4993103856,
				"element": "C" 
			},
			{
				"x": 0.2920468306,
				"y": -4.915397369,
				"z": 2.068148002,
				"element": "N" 
			},
			{
				"x": 0.480251366,
				"y": -1.3000875602,
				"z": -0.2033211548,
				"element": "C" 
			},
			{
				"x": -0.1281023293,
				"y": -1.9099715453,
				"z": -1.4259807419,
				"element": "C" 
			},
			{
				"x": 0.249326255,
				"y": 0.0247582785,
				"z": 0.1576034536,
				"element": "N" 
			},
			{
				"x": -0.5857281487,
				"y": 0.9354990774,
				"z": -0.5569705907,
				"element": "C" 
			},
			{
				"x": -1.9768399909,
				"y": 0.7927485785,
				"z": -0.5156472392,
				"element": "C" 
			},
			{
				"x": -2.7973329364,
				"y": 1.676898356,
				"z": -1.2147327944,
				"element": "C" 
			},
			{
				"x": -2.21502972,
				"y": 2.712136289,
				"z": -1.9464947736,
				"element": "C" 
			},
			{
				"x": -3.242829541,
				"y": 3.8330466956,
				"z": -2.823389549,
				"element": "Cl" 
			},
			{
				"x": -0.8300105492,
				"y": 2.8721429677,
				"z": -1.9936679908,
				"element": "C" 
			},
			{
				"x": -0.0178884482,
				"y": 1.9757931727,
				"z": -1.3002361856,
				"element": "C" 
			},
			{
				"x": -0.1480297203,
				"y": 1.9550080749,
				"z": 2.223320565,
				"element": "H" 
			},
			{
				"x": 1.4453280927,
				"y": 1.6326685823,
				"z": 2.9200115312,
				"element": "H" 
			},
			{
				"x": 1.3067348988,
				"y": 2.4659954826,
				"z": 1.3679170751,
				"element": "H" 
			},
			{
				"x": 2.2511043288,
				"y": -0.9125529385,
				"z": 2.5713565287,
				"element": "H" 
			},
			{
				"x": 2.8521621937,
				"y": -3.2713176578,
				"z": 1.2492717841,
				"element": "H" 
			},
			{
				"x": 2.0058075148,
				"y": -3.6440341163,
				"z": -0.2408780852,
				"element": "H" 
			},
			{
				"x": 0.0095743797,
				"y": -1.2777659327,
				"z": -2.3104242645,
				"element": "H" 
			},
			{
				"x": -1.2051538606,
				"y": -2.0874219605,
				"z": -1.3191530398,
				"element": "H" 
			},
			{
				"x": 0.3366829598,
				"y": -2.8771236831,
				"z": -1.6328194121,
				"element": "H" 
			},
			{
				"x": -2.4130971392,
				"y": -0.0082860074,
				"z": 0.0723558279,
				"element": "H" 
			},
			{
				"x": -3.8759028565,
				"y": 1.5704642384,
				"z": -1.1861233395,
				"element": "H" 
			},
			{
				"x": -0.3950827897,
				"y": 3.6803097955,
				"z": -2.5708932301,
				"element": "H" 
			},
			{
				"x": 1.0621063037,
				"y": 2.075094207,
				"z": -1.3391512909,
				"element": "H" 
			}
		],
		 "valence_orbital": [ 
			{
				"type": "occ",
				"energy": -0.31214,
				"method": "rhf"
			},
			{
				"type": "occ",
				"energy": -0.28144,
				"method": "rhf"
			},
			{
				"type": "occ",
				"energy": -0.26559,
				"method": "rhf"
			},
			{
				"type": "occ",
				"energy": -0.23923,
				"method": "rhf"
			},
			{
				"type": "occ",
				"energy": -0.20461,
				"method": "rhf"
			},
			{
				"type": "unocc",
				"energy": -0.03424,
				"method": "rhf"
			},
			{
				"type": "unocc",
				"energy": -0.03254,
				"method": "rhf"
			},
			{
				"type": "unocc",
				"energy": 0.01722,
				"method": "rhf"
			},
			{
				"type": "unocc",
				"energy": 0.02393,
				"method": "rhf"
			},
			{
				"type": "unocc",
				"energy": 0.04302,
				"method": "rhf"
			}
		],
		"cosmo_sigma_profile": { 
			"-0.025": 0.0,
			"-0.024": 0.0,
			"-0.023": 0.0,
			"-0.022": 0.0,
			"-0.021": 0.0,
			"-0.02": 0.0,
			"-0.019": 0.0,
			"-0.018": 0.0,
			"-0.017": 0.0,
			"-0.016": 0.0,
			"-0.015": 0.0,
			"-0.014": 0.0,
			"-0.013": 0.0,
			"-0.012": 0.0,
			"-0.011": 0.0,
			"-0.01": 0.0,
			"-0.009": 0.201369204576,
			"-0.008": 6.56186089596,
			"-0.007": 12.7005965925,
			"-0.006": 13.2383424546,
			"-0.005": 17.7670733244,
			"-0.004": 22.9759821248,
			"-0.003": 21.3149988895,
			"-0.002": 24.08532274,
			"-0.001": 27.8950333576,
			"0.0": 25.8439770425,
			"0.001": 23.370500563,
			"0.002": 22.8183003145,
			"0.003": 17.3876113212,
			"0.004": 16.1098954826,
			"0.005": 10.9642049655,
			"0.006": 5.74664322768,
			"0.007": 6.55038513037,
			"0.008": 4.8552370324,
			"0.009": 4.02864627073,
			"0.01": 3.50513489792,
			"0.011": 3.26317988137,
			"0.012": 2.43680312311,
			"0.013": 2.35283222885,
			"0.014": 0.9102291854,
			"0.015": 0.0,
			"0.016": 0.0,
			"0.017": 0.0,
			"0.018": 0.0,
			"0.019": 0.0,
			"0.02": 0.0,
			"0.021": 0.0,
			"0.022": 0.0,
			"0.023": 0.0,
			"0.024": 0.0,
			"0.025": 0.0
		}
	}
}
