{
	 "smiles": "CC1=C(C=C(N)C=C1)N1C(=O)CCC1=O", 
	 "Tm": 473.15, 
	 "num_atms": 27, 
	 "gaussian": { 
		 "optdone": 1, 
		 "sigma_profile": "yes", 
		 "theory": "DFT", 
		 "functional": "B3LYP", 
		 "basiset": "6-31G**", 
		 "properties": { 
			 "R2extent": 3418.7952, 
			 "electric_dipole_moment_norm": 1.57713708979, 
			 "electric_quadrupole_moment_norm": 27.4551006962, 
			 "total_energy": -686.393139879, 
			 "HOMO_LUMO_gap": 0.18367, 
			 "cosmo_polarized_energy": -18.88, 
			 "cosmo_cavitation_energy": 30.58, 
			 "cosmo_dispersion_energy": -21.71, 
			 "cosmo_repulsion_energy": 1.73, 
			 "cosmo_total_nonelectrostatic_energy": 10.59, 
			 "SMD_solvation_energy": 6.64 
		},
		"coords": [
			{
				"x": 2.289532327,
				"y": 1.0478604697,
				"z": 1.1858613171,
				"element": "C" 
			},
			{
				"x": 1.0890496152,
				"y": 1.8416938469,
				"z": 0.734981266,
				"element": "C" 
			},
			{
				"x": 0.035642306,
				"y": 1.2732965743,
				"z": 0.0004356086,
				"element": "C" 
			},
			{
				"x": -1.0626445481,
				"y": 2.0213679999,
				"z": -0.421000543,
				"element": "C" 
			},
			{
				"x": -1.15640296,
				"y": 3.3860384018,
				"z": -0.1155650656,
				"element": "C" 
			},
			{
				"x": -2.2239097759,
				"y": 4.1538699309,
				"z": -0.5860131238,
				"element": "N" 
			},
			{
				"x": -0.1187531986,
				"y": 3.9676170352,
				"z": 0.6300739073,
				"element": "C" 
			},
			{
				"x": 0.9700664881,
				"y": 3.2041129082,
				"z": 1.0372891932,
				"element": "C" 
			},
			{
				"x": 0.0692052967,
				"y": -0.1191845081,
				"z": -0.3526849396,
				"element": "N" 
			},
			{
				"x": -0.0079214668,
				"y": -1.1598674342,
				"z": 0.5861164975,
				"element": "C" 
			},
			{
				"x": -0.0929634214,
				"y": -1.0133510667,
				"z": 1.7858036178,
				"element": "O" 
			},
			{
				"x": 0.0345177421,
				"y": -2.4832085647,
				"z": -0.1727580272,
				"element": "C" 
			},
			{
				"x": 0.1208968952,
				"y": -2.1015045938,
				"z": -1.6554071709,
				"element": "C" 
			},
			{
				"x": 0.1175761788,
				"y": -0.5753896036,
				"z": -1.6840303833,
				"element": "C" 
			},
			{
				"x": 0.1484114403,
				"y": 0.1334965917,
				"z": -2.6638397395,
				"element": "O" 
			},
			{
				"x": 2.031039795,
				"y": 0.3677738737,
				"z": 2.0042941294,
				"element": "H" 
			},
			{
				"x": 3.0819946398,
				"y": 1.7159898259,
				"z": 1.5334677255,
				"element": "H" 
			},
			{
				"x": 2.7012921758,
				"y": 0.439378967,
				"z": 0.372706338,
				"element": "H" 
			},
			{
				"x": -1.8436637995,
				"y": 1.5380761552,
				"z": -0.9996214486,
				"element": "H" 
			},
			{
				"x": -3.0626649961,
				"y": 3.6347199437,
				"z": -0.8058861223,
				"element": "H" 
			},
			{
				"x": -2.4269358608,
				"y": 4.9815317324,
				"z": -0.0426363577,
				"element": "H" 
			},
			{
				"x": -0.1635333663,
				"y": 5.0247021843,
				"z": 0.8799459279,
				"element": "H" 
			},
			{
				"x": 1.7618867362,
				"y": 3.6816208535,
				"z": 1.6086302283,
				"element": "H" 
			},
			{
				"x": 0.8931265042,
				"y": -3.060620418,
				"z": 0.1819152187,
				"element": "H" 
			},
			{
				"x": -0.8611399208,
				"y": -3.0570865113,
				"z": 0.0812264131,
				"element": "H" 
			},
			{
				"x": 1.0323170585,
				"y": -2.4548493892,
				"z": -2.1461283239,
				"element": "H" 
			},
			{
				"x": -0.7215218845,
				"y": -2.4627852046,
				"z": -2.251976143,
				"element": "H" 
			}
		],
		 "valence_orbital": [ 
			{
				"type": "occ",
				"energy": -0.28341,
				"method": "rhf"
			},
			{
				"type": "occ",
				"energy": -0.28062,
				"method": "rhf"
			},
			{
				"type": "occ",
				"energy": -0.25528,
				"method": "rhf"
			},
			{
				"type": "occ",
				"energy": -0.24297,
				"method": "rhf"
			},
			{
				"type": "occ",
				"energy": -0.19966,
				"method": "rhf"
			},
			{
				"type": "unocc",
				"energy": -0.01599,
				"method": "rhf"
			},
			{
				"type": "unocc",
				"energy": -0.00756,
				"method": "rhf"
			},
			{
				"type": "unocc",
				"energy": 0.01651,
				"method": "rhf"
			},
			{
				"type": "unocc",
				"energy": 0.03098,
				"method": "rhf"
			},
			{
				"type": "unocc",
				"energy": 0.08087,
				"method": "rhf"
			}
		],
		"cosmo_sigma_profile": { 
			"-0.025": 0.0,
			"-0.024": 0.0,
			"-0.023": 0.0,
			"-0.022": 0.0,
			"-0.021": 0.0,
			"-0.02": 0.0,
			"-0.019": 0.0,
			"-0.018": 0.0,
			"-0.017": 0.0,
			"-0.016": 0.0,
			"-0.015": 0.0,
			"-0.014": 0.0,
			"-0.013": 0.494877519623,
			"-0.012": 2.66172540552,
			"-0.011": 2.85477144086,
			"-0.01": 3.18794282185,
			"-0.009": 3.07414003228,
			"-0.008": 3.65792975657,
			"-0.007": 15.7401682782,
			"-0.006": 19.5913647893,
			"-0.005": 18.7242040741,
			"-0.004": 17.8251482837,
			"-0.003": 15.5264042086,
			"-0.002": 14.787133087,
			"-0.001": 12.1166080125,
			"0.0": 12.8040603675,
			"0.001": 10.3267207288,
			"0.002": 8.74844043202,
			"0.003": 7.79742787598,
			"0.004": 8.00985798696,
			"0.005": 11.117246335,
			"0.006": 11.7388276101,
			"0.007": 4.06484325542,
			"0.008": 3.74320169698,
			"0.009": 5.38772673279,
			"0.01": 6.02534364861,
			"0.011": 7.4195136757,
			"0.012": 10.3155657598,
			"0.013": 3.3175509506,
			"0.014": 0.761512450986,
			"0.015": 0.0874812296984,
			"0.016": 0.0,
			"0.017": 0.0,
			"0.018": 0.0,
			"0.019": 0.0,
			"0.02": 0.0,
			"0.021": 0.0,
			"0.022": 0.0,
			"0.023": 0.0,
			"0.024": 0.0,
			"0.025": 0.0
		}
	}
}
