{
	 "smiles": "O=C(NC1=NC=CS1)C1CCCNC1", 
	 "Tm": 452.15, 
	 "num_atms": 27, 
	 "gaussian": { 
		 "optdone": 1, 
		 "sigma_profile": "yes", 
		 "theory": "DFT", 
		 "functional": "B3LYP", 
		 "basiset": "6-31G**", 
		 "properties": { 
			 "R2extent": 5058.738, 
			 "electric_dipole_moment_norm": 4.12789697788, 
			 "electric_quadrupole_moment_norm": 11.307979258, 
			 "total_energy": -988.439930842, 
			 "HOMO_LUMO_gap": 0.1941, 
			 "cosmo_polarized_energy": -16.44, 
			 "cosmo_cavitation_energy": 31.12, 
			 "cosmo_dispersion_energy": -23.07, 
			 "cosmo_repulsion_energy": 1.78, 
			 "cosmo_total_nonelectrostatic_energy": 9.83, 
			 "SMD_solvation_energy": 1.98 
		},
		"coords": [
			{
				"x": 0.8818669676,
				"y": 2.2880225983,
				"z": -0.834298671,
				"element": "O" 
			},
			{
				"x": 0.1459046945,
				"y": 1.4419207474,
				"z": -0.369853665,
				"element": "C" 
			},
			{
				"x": -1.2023546828,
				"y": 1.6793023292,
				"z": -0.0742813614,
				"element": "N" 
			},
			{
				"x": -1.8919663293,
				"y": 2.8705850104,
				"z": -0.2730163805,
				"element": "C" 
			},
			{
				"x": -1.6445375825,
				"y": 3.7582551089,
				"z": -1.1842637715,
				"element": "N" 
			},
			{
				"x": -2.5269365293,
				"y": 4.8109493259,
				"z": -1.0869114145,
				"element": "C" 
			},
			{
				"x": -3.4715405919,
				"y": 4.7322131003,
				"z": -0.10845883,
				"element": "C" 
			},
			{
				"x": -3.2518555228,
				"y": 3.2645320784,
				"z": 0.8013005466,
				"element": "S" 
			},
			{
				"x": 0.6289481536,
				"y": 0.0080018232,
				"z": -0.133644925,
				"element": "C" 
			},
			{
				"x": -0.133475166,
				"y": -0.8697151755,
				"z": 0.8955565596,
				"element": "C" 
			},
			{
				"x": -1.1692294463,
				"y": -1.7824451032,
				"z": 0.218829607,
				"element": "C" 
			},
			{
				"x": -0.4854640516,
				"y": -2.737980714,
				"z": -0.7879571902,
				"element": "C" 
			},
			{
				"x": 0.7757838924,
				"y": -2.1531761981,
				"z": -1.261249518,
				"element": "N" 
			},
			{
				"x": 0.6717293522,
				"y": -0.7195841614,
				"z": -1.5094910403,
				"element": "C" 
			},
			{
				"x": -1.7059173288,
				"y": 0.9465245218,
				"z": 0.4017200777,
				"element": "H" 
			},
			{
				"x": -2.4400918629,
				"y": 5.63019922,
				"z": -1.7910713134,
				"element": "H" 
			},
			{
				"x": -4.270545784,
				"y": 5.4208667102,
				"z": 0.1240314611,
				"element": "H" 
			},
			{
				"x": 1.660861243,
				"y": 0.1272922481,
				"z": 0.2072037573,
				"element": "H" 
			},
			{
				"x": -0.5952874734,
				"y": -0.2555253505,
				"z": 1.6789268535,
				"element": "H" 
			},
			{
				"x": 0.59978708,
				"y": -1.4981785591,
				"z": 1.4091703027,
				"element": "H" 
			},
			{
				"x": -1.7196000999,
				"y": -2.3628713423,
				"z": 0.9663068617,
				"element": "H" 
			},
			{
				"x": -1.917460822,
				"y": -1.1751846959,
				"z": -0.3070070195,
				"element": "H" 
			},
			{
				"x": -0.2548339111,
				"y": -3.6932836856,
				"z": -0.3004611449,
				"element": "H" 
			},
			{
				"x": -1.1935455256,
				"y": -2.9572953202,
				"z": -1.6069082704,
				"element": "H" 
			},
			{
				"x": 1.104477096,
				"y": -2.6405786022,
				"z": -2.088119877,
				"element": "H" 
			},
			{
				"x": 1.5441916223,
				"y": -0.3774666982,
				"z": -2.0706937043,
				"element": "H" 
			},
			{
				"x": -0.2185073913,
				"y": -0.4444792157,
				"z": -2.1064579304,
				"element": "H" 
			}
		],
		 "valence_orbital": [ 
			{
				"type": "occ",
				"energy": -0.28234,
				"method": "rhf"
			},
			{
				"type": "occ",
				"energy": -0.28031,
				"method": "rhf"
			},
			{
				"type": "occ",
				"energy": -0.24414,
				"method": "rhf"
			},
			{
				"type": "occ",
				"energy": -0.22495,
				"method": "rhf"
			},
			{
				"type": "occ",
				"energy": -0.22253,
				"method": "rhf"
			},
			{
				"type": "unocc",
				"energy": -0.02843,
				"method": "rhf"
			},
			{
				"type": "unocc",
				"energy": 0.00274,
				"method": "rhf"
			},
			{
				"type": "unocc",
				"energy": 0.02641,
				"method": "rhf"
			},
			{
				"type": "unocc",
				"energy": 0.06167,
				"method": "rhf"
			},
			{
				"type": "unocc",
				"energy": 0.06554,
				"method": "rhf"
			}
		],
		"cosmo_sigma_profile": { 
			"-0.025": 0.0,
			"-0.024": 0.0,
			"-0.023": 0.0,
			"-0.022": 0.0,
			"-0.021": 0.0,
			"-0.02": 0.0,
			"-0.019": 0.0,
			"-0.018": 0.117675252946,
			"-0.017": 0.0170952070542,
			"-0.016": 0.41239189372,
			"-0.015": 0.823091739109,
			"-0.014": 0.79876464966,
			"-0.013": 1.04767645781,
			"-0.012": 0.961743865338,
			"-0.011": 1.58115964801,
			"-0.01": 4.51701439735,
			"-0.009": 4.44365312536,
			"-0.008": 4.99505822792,
			"-0.007": 7.94975262066,
			"-0.006": 8.20871193846,
			"-0.005": 15.1665685666,
			"-0.004": 19.3183887586,
			"-0.003": 24.1001362448,
			"-0.002": 26.1683065598,
			"-0.001": 21.4676794796,
			"0.0": 14.4909183395,
			"0.001": 12.914786395,
			"0.002": 13.7298558351,
			"0.003": 13.9734791189,
			"0.004": 8.21547678317,
			"0.005": 4.63148971359,
			"0.006": 4.51919801992,
			"0.007": 3.5232778971,
			"0.008": 3.05120253946,
			"0.009": 3.03129105264,
			"0.01": 3.00054002138,
			"0.011": 3.62574492367,
			"0.012": 5.61010176903,
			"0.013": 4.23729713731,
			"0.014": 1.92382966128,
			"0.015": 1.83496595842,
			"0.016": 1.66836431913,
			"0.017": 1.08733888347,
			"0.018": 0.10909201327,
			"0.019": 0.0,
			"0.02": 0.0,
			"0.021": 0.0,
			"0.022": 0.0,
			"0.023": 0.0,
			"0.024": 0.0,
			"0.025": 0.0
		}
	}
}
