{
	 "smiles": "CCC(=O)C(C)(C)C", 
	 "Tm": 228.15, 
	 "num_atms": 22, 
	 "gaussian": { 
		 "optdone": 1, 
		 "sigma_profile": "yes", 
		 "theory": "DFT", 
		 "functional": "B3LYP", 
		 "basiset": "6-31G**", 
		 "properties": { 
			 "R2extent": 1459.1074, 
			 "electric_dipole_moment_norm": 2.54028254137, 
			 "electric_quadrupole_moment_norm": 7.59485006501, 
			 "total_energy": -350.422916019, 
			 "HOMO_LUMO_gap": 0.22819, 
			 "cosmo_polarized_energy": -6.27, 
			 "cosmo_cavitation_energy": 23.37, 
			 "cosmo_dispersion_energy": -16.51, 
			 "cosmo_repulsion_energy": 1.37, 
			 "cosmo_total_nonelectrostatic_energy": 8.23, 
			 "SMD_solvation_energy": 4.83 
		},
		"coords": [
			{
				"x": -1.1326562199,
				"y": 0.1863640401,
				"z": -3.22365543,
				"element": "C" 
			},
			{
				"x": -0.9995317321,
				"y": 0.0621463659,
				"z": -1.7065634079,
				"element": "C" 
			},
			{
				"x": -0.0667062214,
				"y": -1.0688419446,
				"z": -1.275767823,
				"element": "C" 
			},
			{
				"x": 0.3295870581,
				"y": -1.8846263118,
				"z": -2.0889036111,
				"element": "O" 
			},
			{
				"x": 0.3885258881,
				"y": -1.1366808485,
				"z": 0.2014547517,
				"element": "C" 
			},
			{
				"x": 1.544529917,
				"y": -0.118536428,
				"z": 0.3667046814,
				"element": "C" 
			},
			{
				"x": 0.9076219218,
				"y": -2.5517324159,
				"z": 0.5062625603,
				"element": "C" 
			},
			{
				"x": -0.7574552477,
				"y": -0.7779952611,
				"z": 1.1695094175,
				"element": "C" 
			},
			{
				"x": -1.4788906751,
				"y": -0.7531452839,
				"z": -3.660448989,
				"element": "H" 
			},
			{
				"x": -0.1688394637,
				"y": 0.4212488859,
				"z": -3.684360492,
				"element": "H" 
			},
			{
				"x": -1.8415000366,
				"y": 0.9775053339,
				"z": -3.4858161945,
				"element": "H" 
			},
			{
				"x": -1.9806397925,
				"y": -0.1311306151,
				"z": -1.2501616273,
				"element": "H" 
			},
			{
				"x": -0.6590306655,
				"y": 1.0045373148,
				"z": -1.2590063206,
				"element": "H" 
			},
			{
				"x": 2.3743557036,
				"y": -0.3547334284,
				"z": -0.3068209789,
				"element": "H" 
			},
			{
				"x": 1.2213275431,
				"y": 0.9080304763,
				"z": 0.1645187985,
				"element": "H" 
			},
			{
				"x": 1.9226429916,
				"y": -0.1504628111,
				"z": 1.394384442,
				"element": "H" 
			},
			{
				"x": 1.2981790985,
				"y": -2.5981737609,
				"z": 1.5284037159,
				"element": "H" 
			},
			{
				"x": 1.7006059188,
				"y": -2.8353685387,
				"z": -0.1883934809,
				"element": "H" 
			},
			{
				"x": 0.1081161459,
				"y": -3.2935031821,
				"z": 0.4122376161,
				"element": "H" 
			},
			{
				"x": -1.608330773,
				"y": -1.4584553956,
				"z": 1.0537437053,
				"element": "H" 
			},
			{
				"x": -1.1180703321,
				"y": 0.2452096069,
				"z": 1.0282286529,
				"element": "H" 
			},
			{
				"x": -0.4072410267,
				"y": -0.8616557981,
				"z": 2.2039500134,
				"element": "H" 
			}
		],
		 "valence_orbital": [ 
			{
				"type": "occ",
				"energy": -0.34697,
				"method": "rhf"
			},
			{
				"type": "occ",
				"energy": -0.34271,
				"method": "rhf"
			},
			{
				"type": "occ",
				"energy": -0.32958,
				"method": "rhf"
			},
			{
				"type": "occ",
				"energy": -0.32575,
				"method": "rhf"
			},
			{
				"type": "occ",
				"energy": -0.23653,
				"method": "rhf"
			},
			{
				"type": "unocc",
				"energy": -0.00834,
				"method": "rhf"
			},
			{
				"type": "unocc",
				"energy": 0.07142,
				"method": "rhf"
			},
			{
				"type": "unocc",
				"energy": 0.11382,
				"method": "rhf"
			},
			{
				"type": "unocc",
				"energy": 0.12246,
				"method": "rhf"
			},
			{
				"type": "unocc",
				"energy": 0.1304,
				"method": "rhf"
			}
		],
		"cosmo_sigma_profile": { 
			"-0.025": 0.0,
			"-0.024": 0.0,
			"-0.023": 0.0,
			"-0.022": 0.0,
			"-0.021": 0.0,
			"-0.02": 0.0,
			"-0.019": 0.0,
			"-0.018": 0.0,
			"-0.017": 0.0,
			"-0.016": 0.0,
			"-0.015": 0.0,
			"-0.014": 0.0,
			"-0.013": 0.0,
			"-0.012": 0.0,
			"-0.011": 0.0,
			"-0.01": 0.0,
			"-0.009": 0.0,
			"-0.008": 0.0,
			"-0.007": 0.0,
			"-0.006": 0.475788647006,
			"-0.005": 6.25031078414,
			"-0.004": 10.8591939702,
			"-0.003": 27.8764383056,
			"-0.002": 27.7757375238,
			"-0.001": 26.5721608263,
			"0.0": 23.7197558687,
			"0.001": 24.9894401401,
			"0.002": 8.03619502241,
			"0.003": 1.64495913628,
			"0.004": 1.82280601673,
			"0.005": 2.25327900777,
			"0.006": 1.74821654008,
			"0.007": 1.62173136079,
			"0.008": 1.47344814028,
			"0.009": 2.0851401779,
			"0.01": 2.07890880962,
			"0.011": 2.40527803564,
			"0.012": 3.75668129874,
			"0.013": 2.69944175352,
			"0.014": 0.0248418893088,
			"0.015": 0.0,
			"0.016": 0.0,
			"0.017": 0.0,
			"0.018": 0.0,
			"0.019": 0.0,
			"0.02": 0.0,
			"0.021": 0.0,
			"0.022": 0.0,
			"0.023": 0.0,
			"0.024": 0.0,
			"0.025": 0.0
		}
	}
}
