{
	 "smiles": "CC(=O)N(NC1=CC=CC=C1)C1=CC=C(C=C1)C1=CC=C(C=C1)N=NC1=CC=CC=C1", 
	 "Tm": 517.15, 
	 "num_atms": 53, 
	 "gaussian": { 
		 "optdone": 1, 
		 "sigma_profile": "yes", 
		 "theory": "DFT", 
		 "functional": "B3LYP", 
		 "basiset": "6-31G**", 
		 "properties": { 
			 "R2extent": 27671.7556, 
			 "electric_dipole_moment_norm": 3.32043433605, 
			 "electric_quadrupole_moment_norm": 24.90398042, 
			 "total_energy": -1298.20782132, 
			 "HOMO_LUMO_gap": 0.12661, 
			 "cosmo_polarized_energy": -17.22, 
			 "cosmo_cavitation_energy": 58.05, 
			 "cosmo_dispersion_energy": -40.78, 
			 "cosmo_repulsion_energy": 3.02, 
			 "cosmo_total_nonelectrostatic_energy": 20.29, 
			 "SMD_solvation_energy": 9.35 
		},
		"coords": [
			{
				"x": 6.1841275247,
				"y": 2.1311185295,
				"z": 3.928958619,
				"element": "C" 
			},
			{
				"x": 5.1992787271,
				"y": 2.1182949672,
				"z": 2.7730062711,
				"element": "C" 
			},
			{
				"x": 5.307200465,
				"y": 2.8878609737,
				"z": 1.8327994161,
				"element": "O" 
			},
			{
				"x": 4.1737035934,
				"y": 1.1599443465,
				"z": 2.8496342927,
				"element": "N" 
			},
			{
				"x": 4.1911673643,
				"y": 0.346272277,
				"z": 3.9810465067,
				"element": "N" 
			},
			{
				"x": 4.6570085499,
				"y": -0.9836695653,
				"z": 3.886044502,
				"element": "C" 
			},
			{
				"x": 4.3514111777,
				"y": -1.874189511,
				"z": 4.9274679703,
				"element": "C" 
			},
			{
				"x": 4.8476270037,
				"y": -3.1751975129,
				"z": 4.9026488932,
				"element": "C" 
			},
			{
				"x": 5.6518319594,
				"y": -3.609055833,
				"z": 3.8459032847,
				"element": "C" 
			},
			{
				"x": 5.9511288285,
				"y": -2.7210257087,
				"z": 2.8122089573,
				"element": "C" 
			},
			{
				"x": 5.4617939164,
				"y": -1.4142650179,
				"z": 2.8232165538,
				"element": "C" 
			},
			{
				"x": 3.08783807,
				"y": 1.0138814069,
				"z": 1.9249392285,
				"element": "C" 
			},
			{
				"x": 2.8948358327,
				"y": 1.8792810298,
				"z": 0.8316629877,
				"element": "C" 
			},
			{
				"x": 1.8002465922,
				"y": 1.7065237824,
				"z": -0.009164968,
				"element": "C" 
			},
			{
				"x": 0.8588477163,
				"y": 0.6822836656,
				"z": 0.1831037526,
				"element": "C" 
			},
			{
				"x": 1.069374805,
				"y": -0.175790906,
				"z": 1.2727935739,
				"element": "C" 
			},
			{
				"x": 2.1551855102,
				"y": -0.0184824234,
				"z": 2.1279345249,
				"element": "C" 
			},
			{
				"x": -0.2996349601,
				"y": 0.5123938337,
				"z": -0.7232410942,
				"element": "C" 
			},
			{
				"x": -0.7932394774,
				"y": -0.7655992644,
				"z": -1.040206674,
				"element": "C" 
			},
			{
				"x": -1.883455904,
				"y": -0.9190676708,
				"z": -1.8894013181,
				"element": "C" 
			},
			{
				"x": -2.5127890058,
				"y": 0.2005035491,
				"z": -2.4504046553,
				"element": "C" 
			},
			{
				"x": -2.0295884587,
				"y": 1.4851929866,
				"z": -2.1439639292,
				"element": "C" 
			},
			{
				"x": -0.9434747546,
				"y": 1.6311008235,
				"z": -1.2948086279,
				"element": "C" 
			},
			{
				"x": -3.6099765592,
				"y": -0.0728074179,
				"z": -3.2997584488,
				"element": "N" 
			},
			{
				"x": -4.1675885377,
				"y": 0.947143468,
				"z": -3.7910906616,
				"element": "N" 
			},
			{
				"x": -5.266694708,
				"y": 0.6717608754,
				"z": -4.6426356021,
				"element": "C" 
			},
			{
				"x": -5.739013473,
				"y": -0.6162380301,
				"z": -4.9515751076,
				"element": "C" 
			},
			{
				"x": -6.8283684147,
				"y": -0.7626901855,
				"z": -5.8022177114,
				"element": "C" 
			},
			{
				"x": -7.4564534417,
				"y": 0.3628348327,
				"z": -6.3517973532,
				"element": "C" 
			},
			{
				"x": -6.9887767566,
				"y": 1.6422148224,
				"z": -6.0461204995,
				"element": "C" 
			},
			{
				"x": -5.8966609515,
				"y": 1.7961322811,
				"z": -5.1937492732,
				"element": "C" 
			},
			{
				"x": 5.6836049077,
				"y": 2.3286273485,
				"z": 4.8803772404,
				"element": "H" 
			},
			{
				"x": 6.7014555948,
				"y": 1.1732243736,
				"z": 4.0299208316,
				"element": "H" 
			},
			{
				"x": 6.9065370264,
				"y": 2.9198017274,
				"z": 3.7184829612,
				"element": "H" 
			},
			{
				"x": 3.3702875688,
				"y": 0.4720706222,
				"z": 4.56265624,
				"element": "H" 
			},
			{
				"x": 3.7321733853,
				"y": -1.541171413,
				"z": 5.7573789641,
				"element": "H" 
			},
			{
				"x": 4.6015042808,
				"y": -3.8529007893,
				"z": 5.715180141,
				"element": "H" 
			},
			{
				"x": 6.0361864813,
				"y": -4.6238760472,
				"z": 3.8284774749,
				"element": "H" 
			},
			{
				"x": 6.5704747706,
				"y": -3.0441840099,
				"z": 1.9803258944,
				"element": "H" 
			},
			{
				"x": 5.6896600312,
				"y": -0.7370994838,
				"z": 2.0075488862,
				"element": "H" 
			},
			{
				"x": 3.6053942708,
				"y": 2.6679665053,
				"z": 0.6431635093,
				"element": "H" 
			},
			{
				"x": 1.6950666748,
				"y": 2.3769471516,
				"z": -0.8569023991,
				"element": "H" 
			},
			{
				"x": 0.358883986,
				"y": -0.970916167,
				"z": 1.4772991282,
				"element": "H" 
			},
			{
				"x": 2.2704353044,
				"y": -0.7170568121,
				"z": 2.9460254959,
				"element": "H" 
			},
			{
				"x": -0.2995001567,
				"y": -1.6453789209,
				"z": -0.6393414377,
				"element": "H" 
			},
			{
				"x": -2.2636537025,
				"y": -1.9031495173,
				"z": -2.1450419188,
				"element": "H" 
			},
			{
				"x": -2.5274190869,
				"y": 2.3465596692,
				"z": -2.5742623304,
				"element": "H" 
			},
			{
				"x": -0.596160603,
				"y": 2.6285505341,
				"z": -1.042377663,
				"element": "H" 
			},
			{
				"x": -5.2388018391,
				"y": -1.4734674975,
				"z": -4.515929591,
				"element": "H" 
			},
			{
				"x": -7.1949606492,
				"y": -1.7568440539,
				"z": -6.0424699246,
				"element": "H" 
			},
			{
				"x": -8.307180543,
				"y": 0.2386395937,
				"z": -7.0157438636,
				"element": "H" 
			},
			{
				"x": -7.4733138709,
				"y": 2.5166011221,
				"z": -6.4704950485,
				"element": "H" 
			},
			{
				"x": -5.5095660654,
				"y": 2.7771966597,
				"z": -4.9371060009,
				"element": "H" 
			}
		],
		 "valence_orbital": [ 
			{
				"type": "occ",
				"energy": -0.25369,
				"method": "rhf"
			},
			{
				"type": "occ",
				"energy": -0.23877,
				"method": "rhf"
			},
			{
				"type": "occ",
				"energy": -0.22254,
				"method": "rhf"
			},
			{
				"type": "occ",
				"energy": -0.22141,
				"method": "rhf"
			},
			{
				"type": "occ",
				"energy": -0.20753,
				"method": "rhf"
			},
			{
				"type": "unocc",
				"energy": -0.08092,
				"method": "rhf"
			},
			{
				"type": "unocc",
				"energy": -0.02346,
				"method": "rhf"
			},
			{
				"type": "unocc",
				"energy": -0.01335,
				"method": "rhf"
			},
			{
				"type": "unocc",
				"energy": -0.00682,
				"method": "rhf"
			},
			{
				"type": "unocc",
				"energy": -0.00297,
				"method": "rhf"
			}
		],
		"cosmo_sigma_profile": { 
			"-0.025": 0.0,
			"-0.024": 0.0,
			"-0.023": 0.0,
			"-0.022": 0.0,
			"-0.021": 0.0,
			"-0.02": 0.0,
			"-0.019": 0.0,
			"-0.018": 0.0,
			"-0.017": 0.0,
			"-0.016": 0.0,
			"-0.015": 0.0119467673542,
			"-0.014": 1.11756575444,
			"-0.013": 1.00952956215,
			"-0.012": 1.72911724918,
			"-0.011": 1.7812241374,
			"-0.01": 1.41414072916,
			"-0.009": 1.2676658017,
			"-0.008": 1.96867959225,
			"-0.007": 3.61777418294,
			"-0.006": 23.445036005,
			"-0.005": 38.6890057847,
			"-0.004": 39.4929792625,
			"-0.003": 36.5638269033,
			"-0.002": 31.2587080834,
			"-0.001": 27.3992275708,
			"0.0": 27.8355046914,
			"0.001": 33.693118369,
			"0.002": 43.7662067979,
			"0.003": 48.4218457055,
			"0.004": 46.1395926858,
			"0.005": 22.4912897918,
			"0.006": 12.2733817885,
			"0.007": 6.40983076913,
			"0.008": 3.35806901157,
			"0.009": 1.92290221058,
			"0.01": 1.96131678251,
			"0.011": 1.87182450076,
			"0.012": 2.69992657805,
			"0.013": 1.93043921259,
			"0.014": 0.318630985569,
			"0.015": 0.0,
			"0.016": 0.0,
			"0.017": 0.0,
			"0.018": 0.0,
			"0.019": 0.0,
			"0.02": 0.0,
			"0.021": 0.0,
			"0.022": 0.0,
			"0.023": 0.0,
			"0.024": 0.0,
			"0.025": 0.0
		}
	}
}
