{
	 "smiles": "COC(=O)C1=CC2=C(N1)C=CC=C2OC", 
	 "Tm": 414.15, 
	 "num_atms": 26, 
	 "gaussian": { 
		 "optdone": 1, 
		 "sigma_profile": "yes", 
		 "theory": "DFT", 
		 "functional": "B3LYP", 
		 "basiset": "6-31G**", 
		 "properties": { 
			 "R2extent": 4827.8152, 
			 "electric_dipole_moment_norm": 3.21213041298, 
			 "electric_quadrupole_moment_norm": 15.8622354862, 
			 "total_energy": -706.222715885, 
			 "HOMO_LUMO_gap": 0.16187, 
			 "cosmo_polarized_energy": -12.45, 
			 "cosmo_cavitation_energy": 30.66, 
			 "cosmo_dispersion_energy": -22.29, 
			 "cosmo_repulsion_energy": 1.75, 
			 "cosmo_total_nonelectrostatic_energy": 10.12, 
			 "SMD_solvation_energy": 7.21 
		},
		"coords": [
			{
				"x": 1.2836491267,
				"y": -4.1921305862,
				"z": -2.3764920513,
				"element": "C" 
			},
			{
				"x": 1.1985443041,
				"y": -2.7760882586,
				"z": -2.1539451705,
				"element": "O" 
			},
			{
				"x": -0.0672463201,
				"y": -2.2863778823,
				"z": -2.035474509,
				"element": "C" 
			},
			{
				"x": -1.0648171261,
				"y": -2.9755533309,
				"z": -2.107459646,
				"element": "O" 
			},
			{
				"x": -0.0532022227,
				"y": -0.8394757849,
				"z": -1.8129190176,
				"element": "C" 
			},
			{
				"x": -1.1290712511,
				"y": 0.0080729252,
				"z": -1.6554486622,
				"element": "C" 
			},
			{
				"x": -0.6000400225,
				"y": 1.3203520716,
				"z": -1.4699782618,
				"element": "C" 
			},
			{
				"x": 0.8214501573,
				"y": 1.2165156278,
				"z": -1.5331823323,
				"element": "C" 
			},
			{
				"x": 1.122610023,
				"y": -0.1078992726,
				"z": -1.7357202981,
				"element": "N" 
			},
			{
				"x": 1.6642343243,
				"y": 2.3320589859,
				"z": -1.4165485491,
				"element": "C" 
			},
			{
				"x": 1.0576876157,
				"y": 3.5666175337,
				"z": -1.2386817256,
				"element": "C" 
			},
			{
				"x": -0.3466433104,
				"y": 3.7019490714,
				"z": -1.1630755954,
				"element": "C" 
			},
			{
				"x": -1.1760062711,
				"y": 2.5969203358,
				"z": -1.2735981832,
				"element": "C" 
			},
			{
				"x": -2.5427248767,
				"y": 2.7575844127,
				"z": -1.2391460473,
				"element": "O" 
			},
			{
				"x": -3.1685215654,
				"y": 2.335163922,
				"z": -0.0272774144,
				"element": "C" 
			},
			{
				"x": 0.77150242,
				"y": -4.4675303663,
				"z": -3.3018016573,
				"element": "H" 
			},
			{
				"x": 2.3479196499,
				"y": -4.4171356226,
				"z": -2.4465747042,
				"element": "H" 
			},
			{
				"x": 0.8293951525,
				"y": -4.7399813152,
				"z": -1.5471005071,
				"element": "H" 
			},
			{
				"x": -2.1643515221,
				"y": -0.2949409628,
				"z": -1.6889876211,
				"element": "H" 
			},
			{
				"x": 2.0390738769,
				"y": -0.5131519175,
				"z": -1.8382823942,
				"element": "H" 
			},
			{
				"x": 2.7440047954,
				"y": 2.2348289373,
				"z": -1.4715322444,
				"element": "H" 
			},
			{
				"x": 1.6755140328,
				"y": 4.4553600812,
				"z": -1.1500314205,
				"element": "H" 
			},
			{
				"x": -0.7995013822,
				"y": 4.6780003865,
				"z": -1.0235418466,
				"element": "H" 
			},
			{
				"x": -2.8222357336,
				"y": 2.9347898314,
				"z": 0.824772957,
				"element": "H" 
			},
			{
				"x": -4.2413256405,
				"y": 2.4862159496,
				"z": -0.1633233968,
				"element": "H" 
			},
			{
				"x": -2.9762982341,
				"y": 1.2765352279,
				"z": 0.1848502988,
				"element": "H" 
			}
		],
		 "valence_orbital": [ 
			{
				"type": "occ",
				"energy": -0.2836,
				"method": "rhf"
			},
			{
				"type": "occ",
				"energy": -0.27761,
				"method": "rhf"
			},
			{
				"type": "occ",
				"energy": -0.26448,
				"method": "rhf"
			},
			{
				"type": "occ",
				"energy": -0.22879,
				"method": "rhf"
			},
			{
				"type": "occ",
				"energy": -0.20768,
				"method": "rhf"
			},
			{
				"type": "unocc",
				"energy": -0.04581,
				"method": "rhf"
			},
			{
				"type": "unocc",
				"energy": 0.01913,
				"method": "rhf"
			},
			{
				"type": "unocc",
				"energy": 0.02797,
				"method": "rhf"
			},
			{
				"type": "unocc",
				"energy": 0.08448,
				"method": "rhf"
			},
			{
				"type": "unocc",
				"energy": 0.10206,
				"method": "rhf"
			}
		],
		"cosmo_sigma_profile": { 
			"-0.025": 0.0,
			"-0.024": 0.0,
			"-0.023": 0.0,
			"-0.022": 0.0,
			"-0.021": 0.0,
			"-0.02": 0.0,
			"-0.019": 0.0,
			"-0.018": 0.0,
			"-0.017": 0.0,
			"-0.016": 0.133416371367,
			"-0.015": 0.930243679966,
			"-0.014": 0.873372400496,
			"-0.013": 0.713521425638,
			"-0.012": 1.17052152918,
			"-0.011": 0.526788530795,
			"-0.01": 1.2073823764,
			"-0.009": 1.20301562669,
			"-0.008": 1.19241207334,
			"-0.007": 3.28342063367,
			"-0.006": 11.9532664404,
			"-0.005": 17.5918934496,
			"-0.004": 24.708619549,
			"-0.003": 24.5244753227,
			"-0.002": 18.8774531447,
			"-0.001": 17.3395190627,
			"0.0": 13.7737873171,
			"0.001": 10.3484470439,
			"0.002": 16.4194286986,
			"0.003": 17.9734799203,
			"0.004": 18.670897155,
			"0.005": 12.4533915784,
			"0.006": 5.98952351644,
			"0.007": 2.05952757423,
			"0.008": 3.05735664587,
			"0.009": 3.10899506201,
			"0.01": 2.9976556517,
			"0.011": 4.79250190431,
			"0.012": 6.06331155703,
			"0.013": 0.554098335545,
			"0.014": 0.0,
			"0.015": 0.0,
			"0.016": 0.0,
			"0.017": 0.0,
			"0.018": 0.0,
			"0.019": 0.0,
			"0.02": 0.0,
			"0.021": 0.0,
			"0.022": 0.0,
			"0.023": 0.0,
			"0.024": 0.0,
			"0.025": 0.0
		}
	}
}
