{
	 "smiles": "ClCC(=O)NC1=CC=C(OC2=CC(Cl)=CC=C2)C=C1", 
	 "Tm": 391.15, 
	 "num_atms": 30, 
	 "gaussian": { 
		 "optdone": 1, 
		 "sigma_profile": "yes", 
		 "theory": "DFT", 
		 "functional": "B3LYP", 
		 "basiset": "6-31G**", 
		 "properties": { 
			 "R2extent": 11899.8572, 
			 "electric_dipole_moment_norm": 2.98873695062, 
			 "electric_quadrupole_moment_norm": 13.0734203933, 
			 "total_energy": -1665.71434472, 
			 "HOMO_LUMO_gap": 0.19243, 
			 "cosmo_polarized_energy": -12.91, 
			 "cosmo_cavitation_energy": 38.86, 
			 "cosmo_dispersion_energy": -28.4, 
			 "cosmo_repulsion_energy": 2.2, 
			 "cosmo_total_nonelectrostatic_energy": 12.66, 
			 "SMD_solvation_energy": 6.68 
		},
		"coords": [
			{
				"x": -3.6599765444,
				"y": -1.8584736594,
				"z": -4.4310302629,
				"element": "Cl" 
			},
			{
				"x": -4.282117029,
				"y": -0.499940391,
				"z": -3.3970144161,
				"element": "C" 
			},
			{
				"x": -3.3642480527,
				"y": 0.0093274475,
				"z": -2.2789602341,
				"element": "C" 
			},
			{
				"x": -3.8029672837,
				"y": 0.9164324516,
				"z": -1.5843219129,
				"element": "O" 
			},
			{
				"x": -2.1471957043,
				"y": -0.5857538166,
				"z": -2.1563613326,
				"element": "N" 
			},
			{
				"x": -1.1240663662,
				"y": -0.3037808804,
				"z": -1.2227978183,
				"element": "C" 
			},
			{
				"x": 0.0460358833,
				"y": -1.0751627267,
				"z": -1.2991874729,
				"element": "C" 
			},
			{
				"x": 1.1013167192,
				"y": -0.8577059582,
				"z": -0.4200296762,
				"element": "C" 
			},
			{
				"x": 0.9865593576,
				"y": 0.1344035347,
				"z": 0.5572350885,
				"element": "C" 
			},
			{
				"x": 2.0338540078,
				"y": 0.4524974265,
				"z": 1.40573524,
				"element": "O" 
			},
			{
				"x": 2.6656276016,
				"y": -0.5286675306,
				"z": 2.1358977154,
				"element": "C" 
			},
			{
				"x": 3.9868297179,
				"y": -0.2537074185,
				"z": 2.5024079429,
				"element": "C" 
			},
			{
				"x": 4.6667294325,
				"y": -1.1743778167,
				"z": 3.2938447546,
				"element": "C" 
			},
			{
				"x": 6.3283479907,
				"y": -0.8319930183,
				"z": 3.7568446698,
				"element": "Cl" 
			},
			{
				"x": 4.0686387316,
				"y": -2.3601781098,
				"z": 3.7214225421,
				"element": "C" 
			},
			{
				"x": 2.7495136308,
				"y": -2.6100786378,
				"z": 3.3418559958,
				"element": "C" 
			},
			{
				"x": 2.0365793516,
				"y": -1.705358704,
				"z": 2.5548003785,
				"element": "C" 
			},
			{
				"x": -0.1712367635,
				"y": 0.9056289063,
				"z": 0.6398340454,
				"element": "C" 
			},
			{
				"x": -1.2274349363,
				"y": 0.6974506069,
				"z": -0.2459126229,
				"element": "C" 
			},
			{
				"x": -4.5017052356,
				"y": 0.3346127403,
				"z": -4.0632679278,
				"element": "H" 
			},
			{
				"x": -5.211980161,
				"y": -0.8427238566,
				"z": -2.9429598492,
				"element": "H" 
			},
			{
				"x": -1.9500885935,
				"y": -1.3241198808,
				"z": -2.8198896966,
				"element": "H" 
			},
			{
				"x": 0.1363324967,
				"y": -1.8468784515,
				"z": -2.0599087096,
				"element": "H" 
			},
			{
				"x": 2.0075892594,
				"y": -1.4491582147,
				"z": -0.4929379563,
				"element": "H" 
			},
			{
				"x": 4.455311476,
				"y": 0.6648076018,
				"z": 2.1703450377,
				"element": "H" 
			},
			{
				"x": 4.6208727271,
				"y": -3.0624612964,
				"z": 4.3345908649,
				"element": "H" 
			},
			{
				"x": 2.2648301533,
				"y": -3.5241040311,
				"z": 3.6720240952,
				"element": "H" 
			},
			{
				"x": 1.0086796962,
				"y": -1.9042041295,
				"z": 2.2752110822,
				"element": "H" 
			},
			{
				"x": -0.2353214335,
				"y": 1.6763930311,
				"z": 1.4006310241,
				"element": "H" 
			},
			{
				"x": -2.1265101298,
				"y": 1.2941747819,
				"z": -0.1862005888,
				"element": "H" 
			}
		],
		 "valence_orbital": [ 
			{
				"type": "occ",
				"energy": -0.27153,
				"method": "rhf"
			},
			{
				"type": "occ",
				"energy": -0.26776,
				"method": "rhf"
			},
			{
				"type": "occ",
				"energy": -0.25544,
				"method": "rhf"
			},
			{
				"type": "occ",
				"energy": -0.24567,
				"method": "rhf"
			},
			{
				"type": "occ",
				"energy": -0.22043,
				"method": "rhf"
			},
			{
				"type": "unocc",
				"energy": -0.028,
				"method": "rhf"
			},
			{
				"type": "unocc",
				"energy": -0.02312,
				"method": "rhf"
			},
			{
				"type": "unocc",
				"energy": -0.01114,
				"method": "rhf"
			},
			{
				"type": "unocc",
				"energy": -0.00556,
				"method": "rhf"
			},
			{
				"type": "unocc",
				"energy": 0.00319,
				"method": "rhf"
			}
		],
		"cosmo_sigma_profile": { 
			"-0.025": 0.0,
			"-0.024": 0.0,
			"-0.023": 0.0,
			"-0.022": 0.0,
			"-0.021": 0.0,
			"-0.02": 0.0,
			"-0.019": 0.0,
			"-0.018": 0.0,
			"-0.017": 0.0,
			"-0.016": 0.0,
			"-0.015": 0.0,
			"-0.014": 0.235508555,
			"-0.013": 0.891335684206,
			"-0.012": 1.41187465109,
			"-0.011": 0.680211359463,
			"-0.01": 1.39264677929,
			"-0.009": 5.14704985346,
			"-0.008": 5.70916165881,
			"-0.007": 13.4889693929,
			"-0.006": 16.5176287689,
			"-0.005": 19.0998320408,
			"-0.004": 16.4020992246,
			"-0.003": 15.6450650721,
			"-0.002": 16.1158802354,
			"-0.001": 18.4317264806,
			"0.0": 22.5796903414,
			"0.001": 26.0511216745,
			"0.002": 32.5139775857,
			"0.003": 36.6700453438,
			"0.004": 31.305243605,
			"0.005": 16.3489486443,
			"0.006": 4.02483750914,
			"0.007": 1.92261234995,
			"0.008": 2.9584570513,
			"0.009": 2.11954433554,
			"0.01": 1.71850902273,
			"0.011": 2.30116629096,
			"0.012": 3.09200875936,
			"0.013": 1.82760302786,
			"0.014": 0.0324146557591,
			"0.015": 0.0,
			"0.016": 0.0,
			"0.017": 0.0,
			"0.018": 0.0,
			"0.019": 0.0,
			"0.02": 0.0,
			"0.021": 0.0,
			"0.022": 0.0,
			"0.023": 0.0,
			"0.024": 0.0,
			"0.025": 0.0
		}
	}
}
