{
	 "smiles": "OCCN1CCN(CC2=CC=C(F)C=C2)CC1", 
	 "Tm": 328.65, 
	 "num_atms": 36, 
	 "gaussian": { 
		 "optdone": 1, 
		 "sigma_profile": "yes", 
		 "theory": "DFT", 
		 "functional": "B3LYP", 
		 "basiset": "6-31G**", 
		 "properties": { 
			 "R2extent": 6092.2229, 
			 "electric_dipole_moment_norm": 1.95659817029, 
			 "electric_quadrupole_moment_norm": 15.0634381119, 
			 "total_energy": -791.362253537, 
			 "HOMO_LUMO_gap": 0.18261, 
			 "cosmo_polarized_energy": -11.78, 
			 "cosmo_cavitation_energy": 37.18, 
			 "cosmo_dispersion_energy": -26.01, 
			 "cosmo_repulsion_energy": 2.02, 
			 "cosmo_total_nonelectrostatic_energy": 13.18, 
			 "SMD_solvation_energy": 1.56 
		},
		"coords": [
			{
				"x": -2.4735711436,
				"y": -2.5377855472,
				"z": -2.7206195583,
				"element": "O" 
			},
			{
				"x": -2.710639836,
				"y": -1.8394307244,
				"z": -1.5055036429,
				"element": "C" 
			},
			{
				"x": -1.4264369378,
				"y": -1.6599851173,
				"z": -0.6852491121,
				"element": "C" 
			},
			{
				"x": -1.6915678796,
				"y": -0.9639967981,
				"z": 0.5747335041,
				"element": "N" 
			},
			{
				"x": -1.6967503515,
				"y": 0.4991396884,
				"z": 0.478439986,
				"element": "C" 
			},
			{
				"x": -0.2885096329,
				"y": 1.1169734538,
				"z": 0.4568211725,
				"element": "C" 
			},
			{
				"x": 0.4652630666,
				"y": 0.676258179,
				"z": 1.6306110846,
				"element": "N" 
			},
			{
				"x": 1.7454964518,
				"y": 1.3686870665,
				"z": 1.8239911945,
				"element": "C" 
			},
			{
				"x": 2.8172280126,
				"y": 1.1570922397,
				"z": 0.7608618488,
				"element": "C" 
			},
			{
				"x": 3.7312926507,
				"y": 0.0974198472,
				"z": 0.8572335765,
				"element": "C" 
			},
			{
				"x": 4.6956980948,
				"y": -0.1246663547,
				"z": -0.12611525,
				"element": "C" 
			},
			{
				"x": 4.7415323087,
				"y": 0.7336081109,
				"z": -1.2184965237,
				"element": "C" 
			},
			{
				"x": 5.6728572311,
				"y": 0.529941117,
				"z": -2.1745914216,
				"element": "F" 
			},
			{
				"x": 3.8615381,
				"y": 1.8015083982,
				"z": -1.3493081927,
				"element": "C" 
			},
			{
				"x": 2.9052775461,
				"y": 2.0040540387,
				"z": -0.3537431017,
				"element": "C" 
			},
			{
				"x": 0.5491543198,
				"y": -0.7832339007,
				"z": 1.6966290272,
				"element": "C" 
			},
			{
				"x": -0.8676245117,
				"y": -1.3770401624,
				"z": 1.7124052845,
				"element": "C" 
			},
			{
				"x": -1.8920090929,
				"y": -1.9923724431,
				"z": -3.266001557,
				"element": "H" 
			},
			{
				"x": -3.420308266,
				"y": -2.4434206365,
				"z": -0.933606946,
				"element": "H" 
			},
			{
				"x": -3.1905677516,
				"y": -0.8646489975,
				"z": -1.687980633,
				"element": "H" 
			},
			{
				"x": -0.6662205586,
				"y": -1.15929281,
				"z": -1.3141239652,
				"element": "H" 
			},
			{
				"x": -1.0288313294,
				"y": -2.6560554842,
				"z": -0.4651164796,
				"element": "H" 
			},
			{
				"x": -2.2498190436,
				"y": 0.8036826586,
				"z": -0.4160413306,
				"element": "H" 
			},
			{
				"x": -2.2358746167,
				"y": 0.8949343607,
				"z": 1.3485860323,
				"element": "H" 
			},
			{
				"x": -0.3731795047,
				"y": 2.2108809919,
				"z": 0.4851881334,
				"element": "H" 
			},
			{
				"x": 0.2214790438,
				"y": 0.858763471,
				"z": -0.4903825053,
				"element": "H" 
			},
			{
				"x": 2.1383454898,
				"y": 1.0523032358,
				"z": 2.7980628939,
				"element": "H" 
			},
			{
				"x": 1.5239849303,
				"y": 2.440298274,
				"z": 1.9014852362,
				"element": "H" 
			},
			{
				"x": 3.6978523743,
				"y": -0.5607525151,
				"z": 1.7215667811,
				"element": "H" 
			},
			{
				"x": 5.4081160713,
				"y": -0.9395588957,
				"z": -0.0543137605,
				"element": "H" 
			},
			{
				"x": 3.9378794814,
				"y": 2.4566809278,
				"z": -2.2105387863,
				"element": "H" 
			},
			{
				"x": 2.2223998532,
				"y": 2.8452406571,
				"z": -0.4413036854,
				"element": "H" 
			},
			{
				"x": 1.0724843917,
				"y": -1.0614359732,
				"z": 2.6204793583,
				"element": "H" 
			},
			{
				"x": 1.1248622526,
				"y": -1.2128732515,
				"z": 0.8549640125,
				"element": "H" 
			},
			{
				"x": -0.8186326111,
				"y": -2.4705929725,
				"z": 1.7413217773,
				"element": "H" 
			},
			{
				"x": -1.3693986031,
				"y": -1.0412241324,
				"z": 2.6295555481,
				"element": "H" 
			}
		],
		 "valence_orbital": [ 
			{
				"type": "occ",
				"energy": -0.26551,
				"method": "rhf"
			},
			{
				"type": "occ",
				"energy": -0.26207,
				"method": "rhf"
			},
			{
				"type": "occ",
				"energy": -0.24315,
				"method": "rhf"
			},
			{
				"type": "occ",
				"energy": -0.22331,
				"method": "rhf"
			},
			{
				"type": "occ",
				"energy": -0.19693,
				"method": "rhf"
			},
			{
				"type": "unocc",
				"energy": -0.01432,
				"method": "rhf"
			},
			{
				"type": "unocc",
				"energy": -0.00358,
				"method": "rhf"
			},
			{
				"type": "unocc",
				"energy": 0.07004,
				"method": "rhf"
			},
			{
				"type": "unocc",
				"energy": 0.077,
				"method": "rhf"
			},
			{
				"type": "unocc",
				"energy": 0.09172,
				"method": "rhf"
			}
		],
		"cosmo_sigma_profile": { 
			"-0.025": 0.0,
			"-0.024": 0.0,
			"-0.023": 0.0,
			"-0.022": 0.0,
			"-0.021": 0.0,
			"-0.02": 0.0,
			"-0.019": 0.0,
			"-0.018": 0.0,
			"-0.017": 0.0,
			"-0.016": 0.0,
			"-0.015": 0.684139197162,
			"-0.014": 1.13541293108,
			"-0.013": 0.873159480505,
			"-0.012": 1.14149664733,
			"-0.011": 1.14136012357,
			"-0.01": 0.708938368428,
			"-0.009": 0.583603389508,
			"-0.008": 0.715597487436,
			"-0.007": 3.42931168051,
			"-0.006": 6.27520916607,
			"-0.005": 14.239597523,
			"-0.004": 29.5569487807,
			"-0.003": 28.9404584942,
			"-0.002": 32.3651886279,
			"-0.001": 32.5818573105,
			"0.0": 24.4895179978,
			"0.001": 19.0072554291,
			"0.002": 16.9823139256,
			"0.003": 14.4565698382,
			"0.004": 21.6421735867,
			"0.005": 13.567923116,
			"0.006": 2.48006199198,
			"0.007": 2.53322261045,
			"0.008": 2.97876168896,
			"0.009": 2.8436816549,
			"0.01": 1.86603118405,
			"0.011": 2.351260444,
			"0.012": 2.32662798149,
			"0.013": 2.93285711342,
			"0.014": 2.92553989662,
			"0.015": 1.98601609038,
			"0.016": 0.086638986503,
			"0.017": 0.0,
			"0.018": 0.0,
			"0.019": 0.0,
			"0.02": 0.0,
			"0.021": 0.0,
			"0.022": 0.0,
			"0.023": 0.0,
			"0.024": 0.0,
			"0.025": 0.0
		}
	}
}
