{
	 "smiles": "CC(C)OC1=CC=CC=C1", 
	 "Tm": 240.15, 
	 "num_atms": 22, 
	 "gaussian": { 
		 "optdone": 1, 
		 "sigma_profile": "yes", 
		 "theory": "DFT", 
		 "functional": "B3LYP", 
		 "basiset": "6-31G**", 
		 "properties": { 
			 "R2extent": 1671.4571, 
			 "electric_dipole_moment_norm": 1.40309545292, 
			 "electric_quadrupole_moment_norm": 6.86551251401, 
			 "total_energy": -425.409946161, 
			 "HOMO_LUMO_gap": 0.23291, 
			 "cosmo_polarized_energy": -5.04, 
			 "cosmo_cavitation_energy": 24.35, 
			 "cosmo_dispersion_energy": -17.64, 
			 "cosmo_repulsion_energy": 1.43, 
			 "cosmo_total_nonelectrostatic_energy": 8.15, 
			 "SMD_solvation_energy": 4.29 
		},
		"coords": [
			{
				"x": 0.8471158661,
				"y": -2.1127556413,
				"z": 1.4437188618,
				"element": "C" 
			},
			{
				"x": 1.3680208038,
				"y": -0.7336535821,
				"z": 1.8489191963,
				"element": "C" 
			},
			{
				"x": 2.5075856632,
				"y": -0.2514693008,
				"z": 0.9509670672,
				"element": "C" 
			},
			{
				"x": 0.3039937228,
				"y": 0.2452425833,
				"z": 1.9605788968,
				"element": "O" 
			},
			{
				"x": -0.4149049454,
				"y": 0.5895085143,
				"z": 0.8347137291,
				"element": "C" 
			},
			{
				"x": -0.0197355214,
				"y": 1.6853862818,
				"z": 0.0578900487,
				"element": "C" 
			},
			{
				"x": -0.7942081461,
				"y": 2.0834262658,
				"z": -1.0327354043,
				"element": "C" 
			},
			{
				"x": -1.9677215332,
				"y": 1.3976770857,
				"z": -1.3532766509,
				"element": "C" 
			},
			{
				"x": -2.3692482969,
				"y": 0.314827811,
				"z": -0.5682018312,
				"element": "C" 
			},
			{
				"x": -1.5997997864,
				"y": -0.0887653091,
				"z": 0.5239405333,
				"element": "C" 
			},
			{
				"x": 0.0460270306,
				"y": -2.4362787128,
				"z": 2.1145911529,
				"element": "H" 
			},
			{
				"x": 1.6566841279,
				"y": -2.8480978237,
				"z": 1.4982041354,
				"element": "H" 
			},
			{
				"x": 0.4625664425,
				"y": -2.1102833103,
				"z": 0.4192058898,
				"element": "H" 
			},
			{
				"x": 1.7346677275,
				"y": -0.7878661591,
				"z": 2.8797041296,
				"element": "H" 
			},
			{
				"x": 3.3434499592,
				"y": -0.9573393731,
				"z": 0.9975628018,
				"element": "H" 
			},
			{
				"x": 2.1893884495,
				"y": -0.1744733996,
				"z": -0.0932344069,
				"element": "H" 
			},
			{
				"x": 2.8691281948,
				"y": 0.7280793089,
				"z": 1.2769494625,
				"element": "H" 
			},
			{
				"x": 0.8820422783,
				"y": 2.2244772665,
				"z": 0.3284929843,
				"element": "H" 
			},
			{
				"x": -0.4817923414,
				"y": 2.9361654265,
				"z": -1.6292045892,
				"element": "H" 
			},
			{
				"x": -2.569866433,
				"y": 1.7112912882,
				"z": -2.2008592987,
				"element": "H" 
			},
			{
				"x": -3.2884680932,
				"y": -0.2154490202,
				"z": -0.8014093998,
				"element": "H" 
			},
			{
				"x": -1.9139251695,
				"y": -0.9148502,
				"z": 1.1531826914,
				"element": "H" 
			}
		],
		 "valence_orbital": [ 
			{
				"type": "occ",
				"energy": -0.34072,
				"method": "rhf"
			},
			{
				"type": "occ",
				"energy": -0.31644,
				"method": "rhf"
			},
			{
				"type": "occ",
				"energy": -0.26259,
				"method": "rhf"
			},
			{
				"type": "occ",
				"energy": -0.24718,
				"method": "rhf"
			},
			{
				"type": "occ",
				"energy": -0.23167,
				"method": "rhf"
			},
			{
				"type": "unocc",
				"energy": 0.00124,
				"method": "rhf"
			},
			{
				"type": "unocc",
				"energy": 0.00651,
				"method": "rhf"
			},
			{
				"type": "unocc",
				"energy": 0.08617,
				"method": "rhf"
			},
			{
				"type": "unocc",
				"energy": 0.09858,
				"method": "rhf"
			},
			{
				"type": "unocc",
				"energy": 0.1276,
				"method": "rhf"
			}
		],
		"cosmo_sigma_profile": { 
			"-0.025": 0.0,
			"-0.024": 0.0,
			"-0.023": 0.0,
			"-0.022": 0.0,
			"-0.021": 0.0,
			"-0.02": 0.0,
			"-0.019": 0.0,
			"-0.018": 0.0,
			"-0.017": 0.0,
			"-0.016": 0.0,
			"-0.015": 0.0,
			"-0.014": 0.0,
			"-0.013": 0.0,
			"-0.012": 0.0,
			"-0.011": 0.0,
			"-0.01": 0.0,
			"-0.009": 0.0,
			"-0.008": 0.0,
			"-0.007": 0.0,
			"-0.006": 3.11918086041,
			"-0.005": 9.73473713409,
			"-0.004": 18.3288754861,
			"-0.003": 26.331084766,
			"-0.002": 21.5759197031,
			"-0.001": 20.2375558975,
			"0.0": 22.533951025,
			"0.001": 16.0153579437,
			"0.002": 8.13199901167,
			"0.003": 8.66435665801,
			"0.004": 10.5306147158,
			"0.005": 9.95623092125,
			"0.006": 7.50111393307,
			"0.007": 1.9865148889,
			"0.008": 1.15139579646,
			"0.009": 0.626232596807,
			"0.01": 1.25792669268,
			"0.011": 1.60046803685,
			"0.012": 1.52615085883,
			"0.013": 0.721209299768,
			"0.014": 0.0,
			"0.015": 0.0,
			"0.016": 0.0,
			"0.017": 0.0,
			"0.018": 0.0,
			"0.019": 0.0,
			"0.02": 0.0,
			"0.021": 0.0,
			"0.022": 0.0,
			"0.023": 0.0,
			"0.024": 0.0,
			"0.025": 0.0
		}
	}
}
