{
	 "smiles": "CC1=C(C)C2=C(CCC(C)(COC3=CC=C(CC4SC(=O)NC4=O)C=C3)O2)C(C)=C1O", 
	 "Tm": 458.15, 
	 "num_atms": 58, 
	 "gaussian": { 
		 "optdone": 1, 
		 "sigma_profile": "yes", 
		 "theory": "DFT", 
		 "functional": "B3LYP", 
		 "basiset": "6-31G**", 
		 "properties": { 
			 "R2extent": 12383.8522, 
			 "electric_dipole_moment_norm": 2.59776737219, 
			 "electric_quadrupole_moment_norm": 21.4107478655, 
			 "total_energy": -1759.93080291, 
			 "HOMO_LUMO_gap": 0.13946, 
			 "cosmo_polarized_energy": -19.75, 
			 "cosmo_cavitation_energy": 57.46, 
			 "cosmo_dispersion_energy": -36.53, 
			 "cosmo_repulsion_energy": 2.61, 
			 "cosmo_total_nonelectrostatic_energy": 23.54, 
			 "SMD_solvation_energy": 9.59 
		},
		"coords": [
			{
				"x": 3.6851766782,
				"y": -0.7240826529,
				"z": -0.4614651302,
				"element": "C" 
			},
			{
				"x": 2.2926872626,
				"y": -0.4496742274,
				"z": -0.9791264478,
				"element": "C" 
			},
			{
				"x": 1.2291894919,
				"y": -1.3120242194,
				"z": -0.6706478927,
				"element": "C" 
			},
			{
				"x": 1.4494103933,
				"y": -2.5272151619,
				"z": 0.1998813743,
				"element": "C" 
			},
			{
				"x": -0.0465642507,
				"y": -1.0212763285,
				"z": -1.1876549299,
				"element": "C" 
			},
			{
				"x": -0.2599355532,
				"y": 0.0449623823,
				"z": -2.0702579132,
				"element": "C" 
			},
			{
				"x": -1.6416796016,
				"y": 0.2407487943,
				"z": -2.6518277199,
				"element": "C" 
			},
			{
				"x": -2.7072666885,
				"y": -0.2548720529,
				"z": -1.6716481662,
				"element": "C" 
			},
			{
				"x": -2.429010994,
				"y": -1.6863456983,
				"z": -1.195063552,
				"element": "C" 
			},
			{
				"x": -2.6794450724,
				"y": -2.7318957662,
				"z": -2.2927468237,
				"element": "C" 
			},
			{
				"x": -3.2944373776,
				"y": -2.0451837012,
				"z": 0.0346359465,
				"element": "C" 
			},
			{
				"x": -3.5109830673,
				"y": -0.9767110507,
				"z": 0.9530309233,
				"element": "O" 
			},
			{
				"x": -2.5588183981,
				"y": -0.5728249813,
				"z": 1.8529708352,
				"element": "C" 
			},
			{
				"x": -1.4503012734,
				"y": -1.3220859837,
				"z": 2.2589389314,
				"element": "C" 
			},
			{
				"x": -0.571490984,
				"y": -0.7911118384,
				"z": 3.2044679077,
				"element": "C" 
			},
			{
				"x": -0.7640088875,
				"y": 0.4780554571,
				"z": 3.762410301,
				"element": "C" 
			},
			{
				"x": 0.2002549228,
				"y": 1.0480164702,
				"z": 4.7796111281,
				"element": "C" 
			},
			{
				"x": 1.3416726873,
				"y": 1.9418724288,
				"z": 4.2319844914,
				"element": "C" 
			},
			{
				"x": 2.5601384613,
				"y": 1.0955595029,
				"z": 3.1324008531,
				"element": "S" 
			},
			{
				"x": 2.4133580831,
				"y": 2.3431359328,
				"z": 1.8570745311,
				"element": "C" 
			},
			{
				"x": 3.0497200088,
				"y": 2.3782718345,
				"z": 0.8276785983,
				"element": "O" 
			},
			{
				"x": 1.4668918964,
				"y": 3.285554729,
				"z": 2.2372074504,
				"element": "N" 
			},
			{
				"x": 0.8237984191,
				"y": 3.158509126,
				"z": 3.4584188574,
				"element": "C" 
			},
			{
				"x": -0.0215500121,
				"y": 3.9240681754,
				"z": 3.8692713633,
				"element": "O" 
			},
			{
				"x": -1.8957049055,
				"y": 1.2050808267,
				"z": 3.3596483715,
				"element": "C" 
			},
			{
				"x": -2.7813911725,
				"y": 0.6899164527,
				"z": 2.4201634036,
				"element": "C" 
			},
			{
				"x": -1.0628638214,
				"y": -1.8513224875,
				"z": -0.7567287644,
				"element": "O" 
			},
			{
				"x": 0.8034113564,
				"y": 0.920011305,
				"z": -2.3629985232,
				"element": "C" 
			},
			{
				"x": 0.6111008442,
				"y": 2.1075340022,
				"z": -3.2778579007,
				"element": "C" 
			},
			{
				"x": 2.0538861299,
				"y": 0.6849673706,
				"z": -1.7758468846,
				"element": "C" 
			},
			{
				"x": 3.0778712449,
				"y": 1.5872832356,
				"z": -2.0180853708,
				"element": "O" 
			},
			{
				"x": 3.7761762739,
				"y": -0.5094861592,
				"z": 0.6107295002,
				"element": "H" 
			},
			{
				"x": 3.9606579294,
				"y": -1.7746504578,
				"z": -0.5996442113,
				"element": "H" 
			},
			{
				"x": 4.4185746606,
				"y": -0.1110182056,
				"z": -0.9872764553,
				"element": "H" 
			},
			{
				"x": 2.2759632887,
				"y": -3.1403190705,
				"z": -0.1771397407,
				"element": "H" 
			},
			{
				"x": 0.5577076104,
				"y": -3.152133518,
				"z": 0.2345088639,
				"element": "H" 
			},
			{
				"x": 1.7093726228,
				"y": -2.244628963,
				"z": 1.2276284992,
				"element": "H" 
			},
			{
				"x": -1.8223994874,
				"y": 1.2969649028,
				"z": -2.8712754662,
				"element": "H" 
			},
			{
				"x": -1.7295377481,
				"y": -0.2821707176,
				"z": -3.6154904439,
				"element": "H" 
			},
			{
				"x": -2.7257023722,
				"y": 0.4079651379,
				"z": -0.803347139,
				"element": "H" 
			},
			{
				"x": -3.7059519793,
				"y": -0.220471983,
				"z": -2.1213531739,
				"element": "H" 
			},
			{
				"x": -2.5068773738,
				"y": -3.7406034917,
				"z": -1.9041304895,
				"element": "H" 
			},
			{
				"x": -3.7046552923,
				"y": -2.6735002047,
				"z": -2.6726799529,
				"element": "H" 
			},
			{
				"x": -1.9917977225,
				"y": -2.5778236666,
				"z": -3.1280396655,
				"element": "H" 
			},
			{
				"x": -4.3007255622,
				"y": -2.3070797512,
				"z": -0.3041260886,
				"element": "H" 
			},
			{
				"x": -2.8634238773,
				"y": -2.9245532377,
				"z": 0.5275663063,
				"element": "H" 
			},
			{
				"x": -1.247345253,
				"y": -2.2927912636,
				"z": 1.8276481365,
				"element": "H" 
			},
			{
				"x": 0.2860251838,
				"y": -1.3857577509,
				"z": 3.5089031151,
				"element": "H" 
			},
			{
				"x": -0.3423916023,
				"y": 1.6785818001,
				"z": 5.4926346776,
				"element": "H" 
			},
			{
				"x": 0.6620171343,
				"y": 0.2424020496,
				"z": 5.3604363429,
				"element": "H" 
			},
			{
				"x": 1.9021026821,
				"y": 2.3358480281,
				"z": 5.0871453389,
				"element": "H" 
			},
			{
				"x": 1.2400675987,
				"y": 4.047203058,
				"z": 1.6085025415,
				"element": "H" 
			},
			{
				"x": -2.0797658912,
				"y": 2.1884335805,
				"z": 3.7824336956,
				"element": "H" 
			},
			{
				"x": -3.6571738921,
				"y": 1.2503069745,
				"z": 2.1091070836,
				"element": "H" 
			},
			{
				"x": 1.5477821098,
				"y": 2.6539717496,
				"z": -3.3845019542,
				"element": "H" 
			},
			{
				"x": -0.1461618817,
				"y": 2.8019537728,
				"z": -2.891809398,
				"element": "H" 
			},
			{
				"x": 0.2782920438,
				"y": 1.7979562697,
				"z": -4.2757154378,
				"element": "H" 
			},
			{
				"x": 3.3710549766,
				"y": 1.9201792415,
				"z": -1.1554537329,
				"element": "H" 
			}
		],
		 "valence_orbital": [ 
			{
				"type": "occ",
				"energy": -0.268,
				"method": "rhf"
			},
			{
				"type": "occ",
				"energy": -0.2498,
				"method": "rhf"
			},
			{
				"type": "occ",
				"energy": -0.21773,
				"method": "rhf"
			},
			{
				"type": "occ",
				"energy": -0.21132,
				"method": "rhf"
			},
			{
				"type": "occ",
				"energy": -0.18401,
				"method": "rhf"
			},
			{
				"type": "unocc",
				"energy": -0.04455,
				"method": "rhf"
			},
			{
				"type": "unocc",
				"energy": -0.01351,
				"method": "rhf"
			},
			{
				"type": "unocc",
				"energy": -0.005,
				"method": "rhf"
			},
			{
				"type": "unocc",
				"energy": 0.00352,
				"method": "rhf"
			},
			{
				"type": "unocc",
				"energy": 0.01469,
				"method": "rhf"
			}
		],
		"cosmo_sigma_profile": { 
			"-0.025": 0.0,
			"-0.024": 0.0,
			"-0.023": 0.0,
			"-0.022": 0.0,
			"-0.021": 0.0,
			"-0.02": 0.0,
			"-0.019": 0.0,
			"-0.018": 0.207063811003,
			"-0.017": 1.20201232525,
			"-0.016": 1.50015054777,
			"-0.015": 0.662366482353,
			"-0.014": 0.703531475283,
			"-0.013": 0.604599171291,
			"-0.012": 1.07459888146,
			"-0.011": 1.17360738384,
			"-0.01": 0.81787024822,
			"-0.009": 4.99124490356,
			"-0.008": 4.48281049861,
			"-0.007": 5.43840021168,
			"-0.006": 12.4404966426,
			"-0.005": 21.4255912484,
			"-0.004": 35.2985553526,
			"-0.003": 40.1507972726,
			"-0.002": 43.3423435692,
			"-0.001": 43.5743040037,
			"0.0": 43.2332293878,
			"0.001": 38.6751342745,
			"0.002": 28.2773641027,
			"0.003": 24.5882079935,
			"0.004": 25.163779206,
			"0.005": 24.0151288731,
			"0.006": 18.6051123417,
			"0.007": 9.23195470173,
			"0.008": 5.19837154896,
			"0.009": 4.68314986238,
			"0.01": 4.57803986672,
			"0.011": 5.70377730363,
			"0.012": 1.63827014042,
			"0.013": 1.3444963503,
			"0.014": 0.225530665893,
			"0.015": 0.0,
			"0.016": 0.0,
			"0.017": 0.0,
			"0.018": 0.0,
			"0.019": 0.0,
			"0.02": 0.0,
			"0.021": 0.0,
			"0.022": 0.0,
			"0.023": 0.0,
			"0.024": 0.0,
			"0.025": 0.0
		}
	}
}
