{
	 "smiles": "OC(=O)CCCCCCCCCCCCCCCCCCCCC(O)=O", 
	 "Tm": 399.15, 
	 "num_atms": 68, 
	 "gaussian": { 
		 "optdone": 1, 
		 "sigma_profile": "yes", 
		 "theory": "DFT", 
		 "functional": "B3LYP", 
		 "basiset": "6-31G**", 
		 "properties": { 
			 "R2extent": 20050.641, 
			 "electric_dipole_moment_norm": 4.71943535818, 
			 "electric_quadrupole_moment_norm": 37.5096675012, 
			 "total_energy": -1164.62739444, 
			 "HOMO_LUMO_gap": 0.27704, 
			 "cosmo_polarized_energy": -21.66, 
			 "cosmo_cavitation_energy": 67.5, 
			 "cosmo_dispersion_energy": -41.86, 
			 "cosmo_repulsion_energy": 3.35, 
			 "cosmo_total_nonelectrostatic_energy": 28.99, 
			 "SMD_solvation_energy": 10.85 
		},
		"coords": [
			{
				"x": 3.1426111543,
				"y": 4.7559774425,
				"z": 1.7105500531,
				"element": "O" 
			},
			{
				"x": 2.297352354,
				"y": 4.4106895786,
				"z": 2.7168725972,
				"element": "C" 
			},
			{
				"x": 2.2885026783,
				"y": 4.9927606766,
				"z": 3.7788694095,
				"element": "O" 
			},
			{
				"x": 1.3959092884,
				"y": 3.258144774,
				"z": 2.32761506,
				"element": "C" 
			},
			{
				"x": 2.1438659515,
				"y": 2.0231913169,
				"z": 1.7915626654,
				"element": "C" 
			},
			{
				"x": 3.0891891169,
				"y": 1.3883823253,
				"z": 2.8214045773,
				"element": "C" 
			},
			{
				"x": 3.8706044683,
				"y": 0.1708970804,
				"z": 2.3007546194,
				"element": "C" 
			},
			{
				"x": 3.0095549947,
				"y": -1.0566055532,
				"z": 1.9668828792,
				"element": "C" 
			},
			{
				"x": 3.8501556368,
				"y": -2.2734739632,
				"z": 1.5548768235,
				"element": "C" 
			},
			{
				"x": 3.0632072471,
				"y": -3.5163049815,
				"z": 1.101204896,
				"element": "C" 
			},
			{
				"x": 2.1703074504,
				"y": -4.170496915,
				"z": 2.1819054984,
				"element": "C" 
			},
			{
				"x": 0.6975001583,
				"y": -3.7164754097,
				"z": 2.2038541319,
				"element": "C" 
			},
			{
				"x": -0.1341454232,
				"y": -4.2552611418,
				"z": 1.0296602671,
				"element": "C" 
			},
			{
				"x": -1.6235346478,
				"y": -3.8685744674,
				"z": 1.0737048278,
				"element": "C" 
			},
			{
				"x": -1.9372921456,
				"y": -2.3670668056,
				"z": 0.9436232203,
				"element": "C" 
			},
			{
				"x": -1.527298521,
				"y": -1.7409637158,
				"z": -0.3966142564,
				"element": "C" 
			},
			{
				"x": -1.9304645255,
				"y": -0.266254157,
				"z": -0.5264664247,
				"element": "C" 
			},
			{
				"x": -1.5266537493,
				"y": 0.3670682212,
				"z": -1.8645555088,
				"element": "C" 
			},
			{
				"x": -1.9267438897,
				"y": 1.8440249942,
				"z": -1.984037397,
				"element": "C" 
			},
			{
				"x": -1.460709216,
				"y": 2.5385043393,
				"z": -3.2757026395,
				"element": "C" 
			},
			{
				"x": -2.0032668193,
				"y": 2.0036178853,
				"z": -4.6160519261,
				"element": "C" 
			},
			{
				"x": -3.5148322484,
				"y": 2.1840991333,
				"z": -4.8647971138,
				"element": "C" 
			},
			{
				"x": -4.4020129752,
				"y": 1.0520335622,
				"z": -4.3354427116,
				"element": "C" 
			},
			{
				"x": -5.8715916569,
				"y": 1.2354429915,
				"z": -4.6958935798,
				"element": "C" 
			},
			{
				"x": -6.7095939669,
				"y": 0.2697625786,
				"z": -4.2226430842,
				"element": "O" 
			},
			{
				"x": -6.3136633868,
				"y": 2.1453946104,
				"z": -5.3503876089,
				"element": "O" 
			},
			{
				"x": 3.6678194101,
				"y": 5.5006667645,
				"z": 2.0486527518,
				"element": "H" 
			},
			{
				"x": 0.7084750384,
				"y": 3.6301356405,
				"z": 1.557189232,
				"element": "H" 
			},
			{
				"x": 0.8016794541,
				"y": 3.0101311243,
				"z": 3.2108381689,
				"element": "H" 
			},
			{
				"x": 2.710932137,
				"y": 2.3081621841,
				"z": 0.8977416056,
				"element": "H" 
			},
			{
				"x": 1.3935499352,
				"y": 1.2923414234,
				"z": 1.4685830315,
				"element": "H" 
			},
			{
				"x": 3.8084104061,
				"y": 2.1463887118,
				"z": 3.1584459445,
				"element": "H" 
			},
			{
				"x": 2.5140778757,
				"y": 1.0991312346,
				"z": 3.7124247237,
				"element": "H" 
			},
			{
				"x": 4.6117514197,
				"y": -0.1166009747,
				"z": 3.0585842853,
				"element": "H" 
			},
			{
				"x": 4.4471419856,
				"y": 0.4631910636,
				"z": 1.4114126781,
				"element": "H" 
			},
			{
				"x": 2.3947180412,
				"y": -1.3058132399,
				"z": 2.8419727577,
				"element": "H" 
			},
			{
				"x": 2.3081285425,
				"y": -0.8152222414,
				"z": 1.1566760595,
				"element": "H" 
			},
			{
				"x": 4.5219596263,
				"y": -1.9733390865,
				"z": 0.7385027196,
				"element": "H" 
			},
			{
				"x": 4.5043020189,
				"y": -2.5540973342,
				"z": 2.393072583,
				"element": "H" 
			},
			{
				"x": 3.7931276584,
				"y": -4.2560804279,
				"z": 0.7500558137,
				"element": "H" 
			},
			{
				"x": 2.4585883754,
				"y": -3.2605059531,
				"z": 0.2204427781,
				"element": "H" 
			},
			{
				"x": 2.1840063659,
				"y": -5.2603631045,
				"z": 2.0482120337,
				"element": "H" 
			},
			{
				"x": 2.6189135856,
				"y": -3.9891944392,
				"z": 3.1679928083,
				"element": "H" 
			},
			{
				"x": 0.2363762651,
				"y": -4.0593029069,
				"z": 3.1406141399,
				"element": "H" 
			},
			{
				"x": 0.647779391,
				"y": -2.6217522862,
				"z": 2.2264695521,
				"element": "H" 
			},
			{
				"x": 0.3040903201,
				"y": -3.9293381114,
				"z": 0.0777987307,
				"element": "H" 
			},
			{
				"x": -0.0629383049,
				"y": -5.3516406529,
				"z": 1.0276782941,
				"element": "H" 
			},
			{
				"x": -2.053921646,
				"y": -4.2355108729,
				"z": 2.0155498911,
				"element": "H" 
			},
			{
				"x": -2.1494186785,
				"y": -4.4061422192,
				"z": 0.2725800741,
				"element": "H" 
			},
			{
				"x": -1.4615527476,
				"y": -1.8118186109,
				"z": 1.7629582258,
				"element": "H" 
			},
			{
				"x": -3.0184720185,
				"y": -2.2282771381,
				"z": 1.0810531152,
				"element": "H" 
			},
			{
				"x": -1.9800957353,
				"y": -2.3159486476,
				"z": -1.2178576059,
				"element": "H" 
			},
			{
				"x": -0.4410138784,
				"y": -1.8252822793,
				"z": -0.5336194111,
				"element": "H" 
			},
			{
				"x": -3.0182724469,
				"y": -0.1736211879,
				"z": -0.3924104592,
				"element": "H" 
			},
			{
				"x": -1.4791161783,
				"y": 0.3070775014,
				"z": 0.2961990622,
				"element": "H" 
			},
			{
				"x": -1.9733876796,
				"y": -0.212923454,
				"z": -2.6835732378,
				"element": "H" 
			},
			{
				"x": -0.4384704256,
				"y": 0.2783941387,
				"z": -1.9948121638,
				"element": "H" 
			},
			{
				"x": -3.0149843188,
				"y": 1.9425766284,
				"z": -1.8718082229,
				"element": "H" 
			},
			{
				"x": -1.4987815386,
				"y": 2.3910423559,
				"z": -1.1326403195,
				"element": "H" 
			},
			{
				"x": -0.3635446241,
				"y": 2.4917075293,
				"z": -3.3127153287,
				"element": "H" 
			},
			{
				"x": -1.712490311,
				"y": 3.6053924537,
				"z": -3.2070782428,
				"element": "H" 
			},
			{
				"x": -1.7291564753,
				"y": 0.9475652408,
				"z": -4.7436019397,
				"element": "H" 
			},
			{
				"x": -1.4684460698,
				"y": 2.5395824616,
				"z": -5.4095065063,
				"element": "H" 
			},
			{
				"x": -3.8560276943,
				"y": 3.1353627212,
				"z": -4.4396381299,
				"element": "H" 
			},
			{
				"x": -3.7001211979,
				"y": 2.2640837175,
				"z": -5.940799432,
				"element": "H" 
			},
			{
				"x": -4.0721821546,
				"y": 0.0866354908,
				"z": -4.7468647408,
				"element": "H" 
			},
			{
				"x": -4.3291934101,
				"y": 0.9542746057,
				"z": -3.2449381124,
				"element": "H" 
			},
			{
				"x": -6.2086976457,
				"y": -0.3875822233,
				"z": -3.7190864833,
				"element": "H" 
			}
		],
		 "valence_orbital": [ 
			{
				"type": "occ",
				"energy": -0.30526,
				"method": "rhf"
			},
			{
				"type": "occ",
				"energy": -0.30208,
				"method": "rhf"
			},
			{
				"type": "occ",
				"energy": -0.30125,
				"method": "rhf"
			},
			{
				"type": "occ",
				"energy": -0.27106,
				"method": "rhf"
			},
			{
				"type": "occ",
				"energy": -0.26982,
				"method": "rhf"
			},
			{
				"type": "unocc",
				"energy": 0.00722,
				"method": "rhf"
			},
			{
				"type": "unocc",
				"energy": 0.01171,
				"method": "rhf"
			},
			{
				"type": "unocc",
				"energy": 0.04891,
				"method": "rhf"
			},
			{
				"type": "unocc",
				"energy": 0.05659,
				"method": "rhf"
			},
			{
				"type": "unocc",
				"energy": 0.07038,
				"method": "rhf"
			}
		],
		"cosmo_sigma_profile": { 
			"-0.025": 0.0,
			"-0.024": 0.0,
			"-0.023": 0.0,
			"-0.022": 0.0,
			"-0.021": 0.0,
			"-0.02": 0.0,
			"-0.019": 0.254726538331,
			"-0.018": 1.41118019543,
			"-0.017": 1.95194390829,
			"-0.016": 1.99741137037,
			"-0.015": 1.7704364814,
			"-0.014": 1.2460163222,
			"-0.013": 1.90209502024,
			"-0.012": 2.40812430158,
			"-0.011": 1.68138672569,
			"-0.01": 1.89143314963,
			"-0.009": 1.42155457925,
			"-0.008": 2.24582427243,
			"-0.007": 3.46159759423,
			"-0.006": 6.39555256315,
			"-0.005": 8.4580672303,
			"-0.004": 11.0149285077,
			"-0.003": 20.1954881023,
			"-0.002": 67.9277657968,
			"-0.001": 104.832780429,
			"0.0": 105.828036541,
			"0.001": 71.9853787754,
			"0.002": 30.7457856664,
			"0.003": 4.83366795684,
			"0.004": 4.51749454761,
			"0.005": 4.45274767818,
			"0.006": 4.91646119512,
			"0.007": 5.67353175987,
			"0.008": 4.55532212389,
			"0.009": 5.73999523215,
			"0.01": 7.01358924403,
			"0.011": 8.77887493684,
			"0.012": 11.2681492991,
			"0.013": 4.56335604365,
			"0.014": 0.272304469568,
			"0.015": 0.0,
			"0.016": 0.0,
			"0.017": 0.0,
			"0.018": 0.0,
			"0.019": 0.0,
			"0.02": 0.0,
			"0.021": 0.0,
			"0.022": 0.0,
			"0.023": 0.0,
			"0.024": 0.0,
			"0.025": 0.0
		}
	}
}
