{
	 "smiles": "NC1=CC(=CC=C1)C(=O)C1=CC=CC=C1", 
	 "Tm": 359.15, 
	 "num_atms": 26, 
	 "gaussian": { 
		 "optdone": 1, 
		 "sigma_profile": "yes", 
		 "theory": "DFT", 
		 "functional": "B3LYP", 
		 "basiset": "6-31G**", 
		 "properties": { 
			 "R2extent": 3804.818, 
			 "electric_dipole_moment_norm": 4.00874660836, 
			 "electric_quadrupole_moment_norm": 15.8809656882, 
			 "total_energy": -631.99340151, 
			 "HOMO_LUMO_gap": 0.15069, 
			 "cosmo_polarized_energy": -13.6, 
			 "cosmo_cavitation_energy": 30.24, 
			 "cosmo_dispersion_energy": -21.95, 
			 "cosmo_repulsion_energy": 1.72, 
			 "cosmo_total_nonelectrostatic_energy": 10.01, 
			 "SMD_solvation_energy": 5.47 
		},
		"coords": [
			{
				"x": 2.344513434,
				"y": 2.6385042588,
				"z": 0.2303608589,
				"element": "N" 
			},
			{
				"x": 2.2550050557,
				"y": 1.5200535048,
				"z": -0.6015116048,
				"element": "C" 
			},
			{
				"x": 1.0761492511,
				"y": 0.7574612531,
				"z": -0.6491955466,
				"element": "C" 
			},
			{
				"x": 0.993760982,
				"y": -0.3879605017,
				"z": -1.4510235353,
				"element": "C" 
			},
			{
				"x": 2.0955965422,
				"y": -0.7785426261,
				"z": -2.2272552761,
				"element": "C" 
			},
			{
				"x": 3.2722046467,
				"y": -0.0374199451,
				"z": -2.1650121547,
				"element": "C" 
			},
			{
				"x": 3.3586562332,
				"y": 1.0999574569,
				"z": -1.3628989449,
				"element": "C" 
			},
			{
				"x": -0.2716940122,
				"y": -1.1847567219,
				"z": -1.5833869161,
				"element": "C" 
			},
			{
				"x": -0.5134360005,
				"y": -1.7748812431,
				"z": -2.6309734374,
				"element": "O" 
			},
			{
				"x": -1.2466489929,
				"y": -1.2700970272,
				"z": -0.4436893794,
				"element": "C" 
			},
			{
				"x": -0.8606618671,
				"y": -1.1876573815,
				"z": 0.9032897499,
				"element": "C" 
			},
			{
				"x": -1.8062426696,
				"y": -1.346695503,
				"z": 1.9176387558,
				"element": "C" 
			},
			{
				"x": -3.1450109358,
				"y": -1.5770232659,
				"z": 1.5975070627,
				"element": "C" 
			},
			{
				"x": -3.5365053787,
				"y": -1.6680840966,
				"z": 0.2579151414,
				"element": "C" 
			},
			{
				"x": -2.5916488335,
				"y": -1.5290124583,
				"z": -0.7541434906,
				"element": "C" 
			},
			{
				"x": 1.4613361726,
				"y": 3.0725137382,
				"z": 0.4614372943,
				"element": "H" 
			},
			{
				"x": 3.0371968881,
				"y": 3.3219391282,
				"z": -0.043001459,
				"element": "H" 
			},
			{
				"x": 0.2140402851,
				"y": 1.0794449528,
				"z": -0.0727957892,
				"element": "H" 
			},
			{
				"x": 2.0061293522,
				"y": -1.6510476269,
				"z": -2.8639855849,
				"element": "H" 
			},
			{
				"x": 4.1349362267,
				"y": -0.3396736687,
				"z": -2.752037516,
				"element": "H" 
			},
			{
				"x": 4.2827269376,
				"y": 1.6719051812,
				"z": -1.3251519212,
				"element": "H" 
			},
			{
				"x": 0.1808742869,
				"y": -1.0236659312,
				"z": 1.1582061315,
				"element": "H" 
			},
			{
				"x": -1.4957154672,
				"y": -1.2943519836,
				"z": 2.9571969066,
				"element": "H" 
			},
			{
				"x": -3.8809639662,
				"y": -1.6925098764,
				"z": 2.3883039598,
				"element": "H" 
			},
			{
				"x": -4.5767514677,
				"y": -1.8544638379,
				"z": 0.0067764642,
				"element": "H" 
			},
			{
				"x": -2.8701467027,
				"y": -1.6203357791,
				"z": -1.7987697688,
				"element": "H" 
			}
		],
		 "valence_orbital": [ 
			{
				"type": "occ",
				"energy": -0.25732,
				"method": "rhf"
			},
			{
				"type": "occ",
				"energy": -0.25702,
				"method": "rhf"
			},
			{
				"type": "occ",
				"energy": -0.25338,
				"method": "rhf"
			},
			{
				"type": "occ",
				"energy": -0.24024,
				"method": "rhf"
			},
			{
				"type": "occ",
				"energy": -0.20836,
				"method": "rhf"
			},
			{
				"type": "unocc",
				"energy": -0.05767,
				"method": "rhf"
			},
			{
				"type": "unocc",
				"energy": -0.01115,
				"method": "rhf"
			},
			{
				"type": "unocc",
				"energy": -0.00395,
				"method": "rhf"
			},
			{
				"type": "unocc",
				"energy": 0.01101,
				"method": "rhf"
			},
			{
				"type": "unocc",
				"energy": 0.06238,
				"method": "rhf"
			}
		],
		"cosmo_sigma_profile": { 
			"-0.025": 0.0,
			"-0.024": 0.0,
			"-0.023": 0.0,
			"-0.022": 0.0,
			"-0.021": 0.0,
			"-0.02": 0.0,
			"-0.019": 0.0,
			"-0.018": 0.0,
			"-0.017": 0.0,
			"-0.016": 0.0,
			"-0.015": 0.0,
			"-0.014": 0.0,
			"-0.013": 0.483234110537,
			"-0.012": 3.01646784091,
			"-0.011": 2.74017969519,
			"-0.01": 3.14159588137,
			"-0.009": 3.39142232973,
			"-0.008": 3.08588845769,
			"-0.007": 4.74770203599,
			"-0.006": 12.3141319431,
			"-0.005": 16.3421523458,
			"-0.004": 19.1293337431,
			"-0.003": 16.588804387,
			"-0.002": 16.8421289971,
			"-0.001": 14.5041299886,
			"0.0": 14.9007851512,
			"0.001": 13.1314611143,
			"0.002": 15.4726681261,
			"0.003": 17.3070902278,
			"0.004": 21.7287924126,
			"0.005": 15.3190626804,
			"0.006": 5.95673483195,
			"0.007": 2.14350750233,
			"0.008": 2.88360961002,
			"0.009": 2.85653652234,
			"0.01": 2.8696368663,
			"0.011": 3.46694092428,
			"0.012": 4.60239374182,
			"0.013": 2.00199901743,
			"0.014": 0.914552907961,
			"0.015": 0.044276174208,
			"0.016": 0.0,
			"0.017": 0.0,
			"0.018": 0.0,
			"0.019": 0.0,
			"0.02": 0.0,
			"0.021": 0.0,
			"0.022": 0.0,
			"0.023": 0.0,
			"0.024": 0.0,
			"0.025": 0.0
		}
	}
}
