{
	 "smiles": "FC1=C(F)C=C(C=C1)C#N", 
	 "Tm": 323.15, 
	 "num_atms": 13, 
	 "gaussian": { 
		 "optdone": 1, 
		 "sigma_profile": "yes", 
		 "theory": "DFT", 
		 "functional": "B3LYP", 
		 "basiset": "6-31G**", 
		 "properties": { 
			 "R2extent": 1519.0552, 
			 "electric_dipole_moment_norm": 2.80965940107, 
			 "electric_quadrupole_moment_norm": 16.2750290061, 
			 "total_energy": -522.945265951, 
			 "HOMO_LUMO_gap": 0.20673, 
			 "cosmo_polarized_energy": -8.11, 
			 "cosmo_cavitation_energy": 20.02, 
			 "cosmo_dispersion_energy": -13.91, 
			 "cosmo_repulsion_energy": 1.09, 
			 "cosmo_total_nonelectrostatic_energy": 7.19, 
			 "SMD_solvation_energy": 5.98 
		},
		"coords": [
			{
				"x": 1.2298223491,
				"y": 1.9150258709,
				"z": 1.8736963961,
				"element": "F" 
			},
			{
				"x": 0.603870181,
				"y": 1.3070804498,
				"z": 0.8589362379,
				"element": "C" 
			},
			{
				"x": -0.0030783969,
				"y": 0.0690132455,
				"z": 1.085194444,
				"element": "C" 
			},
			{
				"x": 0.0604872982,
				"y": -0.4703908412,
				"z": 2.3100301836,
				"element": "F" 
			},
			{
				"x": -0.6602278834,
				"y": -0.5913163064,
				"z": 0.0609168462,
				"element": "C" 
			},
			{
				"x": -0.7091399312,
				"y": 0.0015335919,
				"z": -1.2133424914,
				"element": "C" 
			},
			{
				"x": -0.0984205807,
				"y": 1.2463103064,
				"z": -1.4390269019,
				"element": "C" 
			},
			{
				"x": 0.5586895607,
				"y": 1.8974592734,
				"z": -0.3978268287,
				"element": "C" 
			},
			{
				"x": -1.3860000546,
				"y": -0.6705527869,
				"z": -2.2833281646,
				"element": "C" 
			},
			{
				"x": -1.9341928932,
				"y": -1.2124872558,
				"z": -3.1543351197,
				"element": "N" 
			},
			{
				"x": -1.1246941585,
				"y": -1.5507101944,
				"z": 0.2563826247,
				"element": "H" 
			},
			{
				"x": -0.1413635905,
				"y": 1.6954578022,
				"z": -2.4244741746,
				"element": "H" 
			},
			{
				"x": 1.0390481,
				"y": 2.8587768447,
				"z": -0.5422230515,
				"element": "H" 
			}
		],
		 "valence_orbital": [ 
			{
				"type": "occ",
				"energy": -0.36698,
				"method": "rhf"
			},
			{
				"type": "occ",
				"energy": -0.34923,
				"method": "rhf"
			},
			{
				"type": "occ",
				"energy": -0.34176,
				"method": "rhf"
			},
			{
				"type": "occ",
				"energy": -0.28907,
				"method": "rhf"
			},
			{
				"type": "occ",
				"energy": -0.2687,
				"method": "rhf"
			},
			{
				"type": "unocc",
				"energy": -0.06197,
				"method": "rhf"
			},
			{
				"type": "unocc",
				"energy": -0.03797,
				"method": "rhf"
			},
			{
				"type": "unocc",
				"energy": 0.02514,
				"method": "rhf"
			},
			{
				"type": "unocc",
				"energy": 0.04805,
				"method": "rhf"
			},
			{
				"type": "unocc",
				"energy": 0.07203,
				"method": "rhf"
			}
		],
		"cosmo_sigma_profile": { 
			"-0.025": 0.0,
			"-0.024": 0.0,
			"-0.023": 0.0,
			"-0.022": 0.0,
			"-0.021": 0.0,
			"-0.02": 0.0,
			"-0.019": 0.0,
			"-0.018": 0.0,
			"-0.017": 0.0,
			"-0.016": 0.0,
			"-0.015": 0.0,
			"-0.014": 0.0,
			"-0.013": 0.0,
			"-0.012": 0.0,
			"-0.011": 0.0,
			"-0.01": 1.08719789021,
			"-0.009": 5.00238791786,
			"-0.008": 6.12430500811,
			"-0.007": 6.69331737642,
			"-0.006": 4.91103563009,
			"-0.005": 5.34705561119,
			"-0.004": 5.59309238262,
			"-0.003": 11.0161138164,
			"-0.002": 18.4293415491,
			"-0.001": 17.3988303723,
			"0.0": 13.8431869066,
			"0.001": 9.09596265084,
			"0.002": 9.34346324496,
			"0.003": 21.8378934204,
			"0.004": 3.9289249207,
			"0.005": 2.46966196319,
			"0.006": 2.14565650943,
			"0.007": 3.63738173744,
			"0.008": 2.98850822115,
			"0.009": 3.98018998633,
			"0.01": 2.48516757328,
			"0.011": 2.81131864038,
			"0.012": 2.24374414045,
			"0.013": 1.00014622055,
			"0.014": 0.0,
			"0.015": 0.0,
			"0.016": 0.0,
			"0.017": 0.0,
			"0.018": 0.0,
			"0.019": 0.0,
			"0.02": 0.0,
			"0.021": 0.0,
			"0.022": 0.0,
			"0.023": 0.0,
			"0.024": 0.0,
			"0.025": 0.0
		}
	}
}
