{
	 "smiles": "CC1=CC(C(=O)CCl)=C(C)N1C1=CC=C(C=C1)C(F)(F)F", 
	 "Tm": 389.15, 
	 "num_atms": 34, 
	 "gaussian": { 
		 "optdone": 1, 
		 "sigma_profile": "yes", 
		 "theory": "DFT", 
		 "functional": "B3LYP", 
		 "basiset": "6-31G**", 
		 "properties": { 
			 "R2extent": 10683.6421, 
			 "electric_dipole_moment_norm": 3.47967530813, 
			 "electric_quadrupole_moment_norm": 27.2263435039, 
			 "total_energy": -1469.13401431, 
			 "HOMO_LUMO_gap": 0.16243, 
			 "cosmo_polarized_energy": -12.28, 
			 "cosmo_cavitation_energy": 41.41, 
			 "cosmo_dispersion_energy": -27.95, 
			 "cosmo_repulsion_energy": 2.1, 
			 "cosmo_total_nonelectrostatic_energy": 15.56, 
			 "SMD_solvation_energy": 8.56 
		},
		"coords": [
			{
				"x": -2.5925080708,
				"y": -1.7377368361,
				"z": 1.0249288616,
				"element": "C" 
			},
			{
				"x": -1.6398665063,
				"y": -1.8492587374,
				"z": -0.1214192404,
				"element": "C" 
			},
			{
				"x": -1.8222478561,
				"y": -2.3423655964,
				"z": -1.3838971378,
				"element": "C" 
			},
			{
				"x": -0.5966595568,
				"y": -2.17887493,
				"z": -2.1161378124,
				"element": "C" 
			},
			{
				"x": -0.3251350808,
				"y": -2.597295643,
				"z": -3.4898609925,
				"element": "C" 
			},
			{
				"x": 0.7572981232,
				"y": -2.4709820681,
				"z": -4.0551928331,
				"element": "O" 
			},
			{
				"x": -1.4552177418,
				"y": -3.2848976412,
				"z": -4.2694441917,
				"element": "C" 
			},
			{
				"x": -2.7830884191,
				"y": -2.1256857842,
				"z": -4.7166607811,
				"element": "Cl" 
			},
			{
				"x": 0.3209824871,
				"y": -1.5697075535,
				"z": -1.2560529828,
				"element": "C" 
			},
			{
				"x": 1.7499494247,
				"y": -1.1871503753,
				"z": -1.469079996,
				"element": "C" 
			},
			{
				"x": -0.3206681195,
				"y": -1.3753170031,
				"z": -0.0518310395,
				"element": "N" 
			},
			{
				"x": 0.2688798375,
				"y": -0.7772838648,
				"z": 1.1054032329,
				"element": "C" 
			},
			{
				"x": 0.6272257461,
				"y": -1.5749870514,
				"z": 2.1968592844,
				"element": "C" 
			},
			{
				"x": 1.1939094355,
				"y": -0.9913100781,
				"z": 3.327699164,
				"element": "C" 
			},
			{
				"x": 1.4110779493,
				"y": 0.3884425535,
				"z": 3.3650684706,
				"element": "C" 
			},
			{
				"x": 1.0588612658,
				"y": 1.185350483,
				"z": 2.2727547669,
				"element": "C" 
			},
			{
				"x": 0.484371154,
				"y": 0.6038722965,
				"z": 1.1446933854,
				"element": "C" 
			},
			{
				"x": 1.9742201459,
				"y": 1.0256564038,
				"z": 4.6085933073,
				"element": "C" 
			},
			{
				"x": 0.992958007,
				"y": 1.3794843054,
				"z": 5.4696965415,
				"element": "F" 
			},
			{
				"x": 2.672853465,
				"y": 2.1456996833,
				"z": 4.3247614656,
				"element": "F" 
			},
			{
				"x": 2.7973400945,
				"y": 0.1856987217,
				"z": 5.2724721819,
				"element": "F" 
			},
			{
				"x": -3.5713487114,
				"y": -2.1101077478,
				"z": 0.7145678269,
				"element": "H" 
			},
			{
				"x": -2.2751044922,
				"y": -2.319825031,
				"z": 1.8980644392,
				"element": "H" 
			},
			{
				"x": -2.7181523142,
				"y": -0.7004267327,
				"z": 1.3573818137,
				"element": "H" 
			},
			{
				"x": -2.7490549863,
				"y": -2.7510942205,
				"z": -1.75968032,
				"element": "H" 
			},
			{
				"x": -1.9207791882,
				"y": -4.0882975923,
				"z": -3.6953741401,
				"element": "H" 
			},
			{
				"x": -1.0401196947,
				"y": -3.6680129902,
				"z": -5.1997120344,
				"element": "H" 
			},
			{
				"x": 2.3960963844,
				"y": -1.6017352982,
				"z": -0.6867303767,
				"element": "H" 
			},
			{
				"x": 2.0701837651,
				"y": -1.5620622977,
				"z": -2.4398055241,
				"element": "H" 
			},
			{
				"x": 1.8869194551,
				"y": -0.0991541152,
				"z": -1.4576276522,
				"element": "H" 
			},
			{
				"x": 0.4705234162,
				"y": -2.6475550575,
				"z": 2.1481770284,
				"element": "H" 
			},
			{
				"x": 1.4813985072,
				"y": -1.6064529647,
				"z": 4.1732184242,
				"element": "H" 
			},
			{
				"x": 1.2352695391,
				"y": 2.2548300019,
				"z": 2.3049259931,
				"element": "H" 
			},
			{
				"x": 0.1970325356,
				"y": 1.2132427614,
				"z": 0.2942408672,
				"element": "H" 
			}
		],
		 "valence_orbital": [ 
			{
				"type": "occ",
				"energy": -0.2891,
				"method": "rhf"
			},
			{
				"type": "occ",
				"energy": -0.28796,
				"method": "rhf"
			},
			{
				"type": "occ",
				"energy": -0.25305,
				"method": "rhf"
			},
			{
				"type": "occ",
				"energy": -0.24497,
				"method": "rhf"
			},
			{
				"type": "occ",
				"energy": -0.21615,
				"method": "rhf"
			},
			{
				"type": "unocc",
				"energy": -0.05372,
				"method": "rhf"
			},
			{
				"type": "unocc",
				"energy": -0.04383,
				"method": "rhf"
			},
			{
				"type": "unocc",
				"energy": -0.0387,
				"method": "rhf"
			},
			{
				"type": "unocc",
				"energy": 0.0226,
				"method": "rhf"
			},
			{
				"type": "unocc",
				"energy": 0.03839,
				"method": "rhf"
			}
		],
		"cosmo_sigma_profile": { 
			"-0.025": 0.0,
			"-0.024": 0.0,
			"-0.023": 0.0,
			"-0.022": 0.0,
			"-0.021": 0.0,
			"-0.02": 0.0,
			"-0.019": 0.0,
			"-0.018": 0.0,
			"-0.017": 0.0,
			"-0.016": 0.0,
			"-0.015": 0.0,
			"-0.014": 0.0,
			"-0.013": 0.0,
			"-0.012": 0.0,
			"-0.011": 0.0,
			"-0.01": 0.0,
			"-0.009": 0.13597893603,
			"-0.008": 5.50916143581,
			"-0.007": 11.7338177779,
			"-0.006": 15.6470157133,
			"-0.005": 20.283793553,
			"-0.004": 21.7271858701,
			"-0.003": 23.2409310436,
			"-0.002": 23.1383322146,
			"-0.001": 27.7378980543,
			"0.0": 28.5661092111,
			"0.001": 27.9986850501,
			"0.002": 37.8132924019,
			"0.003": 36.1999122412,
			"0.004": 11.5562148373,
			"0.005": 13.8833152805,
			"0.006": 13.6277568067,
			"0.007": 1.72874749572,
			"0.008": 1.13177501139,
			"0.009": 2.37183301822,
			"0.01": 1.47046076737,
			"0.011": 2.65611953698,
			"0.012": 2.69754493619,
			"0.013": 1.61526301156,
			"0.014": 0.0901154562726,
			"0.015": 0.0,
			"0.016": 0.0,
			"0.017": 0.0,
			"0.018": 0.0,
			"0.019": 0.0,
			"0.02": 0.0,
			"0.021": 0.0,
			"0.022": 0.0,
			"0.023": 0.0,
			"0.024": 0.0,
			"0.025": 0.0
		}
	}
}
