{
	 "smiles": "ON=C(C=CC1=CC=CC=C1)C1=CC=CC=C1", 
	 "Tm": 389.15, 
	 "num_atms": 30, 
	 "gaussian": { 
		 "optdone": 1, 
		 "sigma_profile": "yes", 
		 "theory": "DFT", 
		 "functional": "B3LYP", 
		 "basiset": "6-31G**", 
		 "properties": { 
			 "R2extent": 4088.8843, 
			 "electric_dipole_moment_norm": 0.750819146, 
			 "electric_quadrupole_moment_norm": 7.3326147035, 
			 "total_energy": -709.326963257, 
			 "HOMO_LUMO_gap": 0.16371, 
			 "cosmo_polarized_energy": -10.53, 
			 "cosmo_cavitation_energy": 33.95, 
			 "cosmo_dispersion_energy": -23.25, 
			 "cosmo_repulsion_energy": 1.84, 
			 "cosmo_total_nonelectrostatic_energy": 12.55, 
			 "SMD_solvation_energy": 5.63 
		},
		"coords": [
			{
				"x": 0.0566933564,
				"y": 3.975443291,
				"z": 1.8174576604,
				"element": "O" 
			},
			{
				"x": -0.4037988233,
				"y": 2.729968303,
				"z": 2.2532889766,
				"element": "N" 
			},
			{
				"x": -0.4151132673,
				"y": 1.8223933688,
				"z": 1.3254439906,
				"element": "C" 
			},
			{
				"x": -0.9744721099,
				"y": 0.5468048557,
				"z": 1.8143990732,
				"element": "C" 
			},
			{
				"x": -0.8273317894,
				"y": -0.7261433044,
				"z": 1.3851576677,
				"element": "C" 
			},
			{
				"x": 0.0396444952,
				"y": -1.3245216241,
				"z": 0.3573184324,
				"element": "C" 
			},
			{
				"x": -0.4131953087,
				"y": -2.4691928373,
				"z": -0.3252697722,
				"element": "C" 
			},
			{
				"x": 0.3789394909,
				"y": -3.0964661073,
				"z": -1.2842108105,
				"element": "C" 
			},
			{
				"x": 1.6556190364,
				"y": -2.6052942963,
				"z": -1.5658242984,
				"element": "C" 
			},
			{
				"x": 2.1317590669,
				"y": -1.4883057713,
				"z": -0.8755276247,
				"element": "C" 
			},
			{
				"x": 1.3359414632,
				"y": -0.8566821191,
				"z": 0.0776759756,
				"element": "C" 
			},
			{
				"x": -0.0409960998,
				"y": 2.0439963715,
				"z": -0.1010962344,
				"element": "C" 
			},
			{
				"x": -0.8928257499,
				"y": 1.5756496025,
				"z": -1.1133448805,
				"element": "C" 
			},
			{
				"x": -0.5845729278,
				"y": 1.7866210461,
				"z": -2.4561944613,
				"element": "C" 
			},
			{
				"x": 0.5880096088,
				"y": 2.4564753552,
				"z": -2.8086610304,
				"element": "C" 
			},
			{
				"x": 1.4449916299,
				"y": 2.9220582684,
				"z": -1.8090879865,
				"element": "C" 
			},
			{
				"x": 1.1305984284,
				"y": 2.7270305742,
				"z": -0.4653688393,
				"element": "C" 
			},
			{
				"x": -0.0468499332,
				"y": 4.5127229344,
				"z": 2.6142660846,
				"element": "H" 
			},
			{
				"x": -1.6124911324,
				"y": 0.6893929952,
				"z": 2.6832625493,
				"element": "H" 
			},
			{
				"x": -1.4483848793,
				"y": -1.4560754349,
				"z": 1.9045486207,
				"element": "H" 
			},
			{
				"x": -1.4029979772,
				"y": -2.8604891292,
				"z": -0.1029960504,
				"element": "H" 
			},
			{
				"x": 0.0034871792,
				"y": -3.9720780532,
				"z": -1.8063490616,
				"element": "H" 
			},
			{
				"x": 2.2791436875,
				"y": -3.0963854243,
				"z": -2.3074068202,
				"element": "H" 
			},
			{
				"x": 3.1309710452,
				"y": -1.1113457323,
				"z": -1.0742835275,
				"element": "H" 
			},
			{
				"x": 1.7255904392,
				"y": -0.0057344557,
				"z": 0.6242034224,
				"element": "H" 
			},
			{
				"x": -1.7989950293,
				"y": 1.0440006081,
				"z": -0.8418472763,
				"element": "H" 
			},
			{
				"x": -1.2578421962,
				"y": 1.4221878489,
				"z": -3.22673112,
				"element": "H" 
			},
			{
				"x": 0.8327283629,
				"y": 2.6153662996,
				"z": -3.8550846651,
				"element": "H" 
			},
			{
				"x": 2.3593566183,
				"y": 3.4445092134,
				"z": -2.0759769088,
				"element": "H" 
			},
			{
				"x": 1.7908933154,
				"y": 3.1044933532,
				"z": 0.3062389146,
				"element": "H" 
			}
		],
		 "valence_orbital": [ 
			{
				"type": "occ",
				"energy": -0.26823,
				"method": "rhf"
			},
			{
				"type": "occ",
				"energy": -0.24851,
				"method": "rhf"
			},
			{
				"type": "occ",
				"energy": -0.24652,
				"method": "rhf"
			},
			{
				"type": "occ",
				"energy": -0.23404,
				"method": "rhf"
			},
			{
				"type": "occ",
				"energy": -0.21249,
				"method": "rhf"
			},
			{
				"type": "unocc",
				"energy": -0.04878,
				"method": "rhf"
			},
			{
				"type": "unocc",
				"energy": -0.0166,
				"method": "rhf"
			},
			{
				"type": "unocc",
				"energy": 0.00105,
				"method": "rhf"
			},
			{
				"type": "unocc",
				"energy": 0.00374,
				"method": "rhf"
			},
			{
				"type": "unocc",
				"energy": 0.02774,
				"method": "rhf"
			}
		],
		"cosmo_sigma_profile": { 
			"-0.025": 0.0,
			"-0.024": 0.0,
			"-0.023": 0.0,
			"-0.022": 0.0,
			"-0.021": 0.0,
			"-0.02": 0.0,
			"-0.019": 0.0,
			"-0.018": 0.0828786776432,
			"-0.017": 1.09743649924,
			"-0.016": 0.695646355629,
			"-0.015": 1.23465672749,
			"-0.014": 0.667731152523,
			"-0.013": 0.822581508827,
			"-0.012": 0.93699607856,
			"-0.011": 0.154086038692,
			"-0.01": 0.26712360237,
			"-0.009": 0.747998795227,
			"-0.008": 1.19473462196,
			"-0.007": 0.674144762016,
			"-0.006": 10.8375740144,
			"-0.005": 24.946851442,
			"-0.004": 25.2701322673,
			"-0.003": 24.2196533514,
			"-0.002": 18.2647819971,
			"-0.001": 15.729030235,
			"0.0": 15.4134663662,
			"0.001": 17.990341403,
			"0.002": 18.4345194492,
			"0.003": 19.2340342568,
			"0.004": 21.4841606094,
			"0.005": 22.0626657183,
			"0.006": 13.8763328362,
			"0.007": 4.67210118534,
			"0.008": 2.65870886788,
			"0.009": 1.9965237242,
			"0.01": 2.89471382968,
			"0.011": 1.31828923494,
			"0.012": 0.787170051332,
			"0.013": 0.503395112285,
			"0.014": 0.0219385328782,
			"0.015": 0.0,
			"0.016": 0.0,
			"0.017": 0.0,
			"0.018": 0.0,
			"0.019": 0.0,
			"0.02": 0.0,
			"0.021": 0.0,
			"0.022": 0.0,
			"0.023": 0.0,
			"0.024": 0.0,
			"0.025": 0.0
		}
	}
}
