{
	 "smiles": "OCC1=NNC(=C1)C1=CC=CC=C1", 
	 "Tm": 418.15, 
	 "num_atms": 23, 
	 "gaussian": { 
		 "optdone": 1, 
		 "sigma_profile": "yes", 
		 "theory": "DFT", 
		 "functional": "B3LYP", 
		 "basiset": "6-31G**", 
		 "properties": { 
			 "R2extent": 3390.2373, 
			 "electric_dipole_moment_norm": 4.5349976968, 
			 "electric_quadrupole_moment_norm": 13.0986474035, 
			 "total_energy": -571.79330692, 
			 "HOMO_LUMO_gap": 0.1927, 
			 "cosmo_polarized_energy": -12.06, 
			 "cosmo_cavitation_energy": 27.07, 
			 "cosmo_dispersion_energy": -20.32, 
			 "cosmo_repulsion_energy": 1.61, 
			 "cosmo_total_nonelectrostatic_energy": 8.36, 
			 "SMD_solvation_energy": 3.65 
		},
		"coords": [
			{
				"x": -2.9555180855,
				"y": -1.5401636757,
				"z": -3.8820756931,
				"element": "O" 
			},
			{
				"x": -2.8930822664,
				"y": -2.0025990547,
				"z": -2.549263568,
				"element": "C" 
			},
			{
				"x": -1.7951398912,
				"y": -1.3368758244,
				"z": -1.7607164688,
				"element": "C" 
			},
			{
				"x": -0.8939506792,
				"y": -0.6077257376,
				"z": -2.4170640396,
				"element": "N" 
			},
			{
				"x": -0.0249630633,
				"y": -0.1975961579,
				"z": -1.4685811467,
				"element": "N" 
			},
			{
				"x": -0.3563185201,
				"y": -0.6246882249,
				"z": -0.2142407311,
				"element": "C" 
			},
			{
				"x": -1.510745771,
				"y": -1.3806411408,
				"z": -0.3767411289,
				"element": "C" 
			},
			{
				"x": 0.4357631759,
				"y": -0.2920383395,
				"z": 0.9743711849,
				"element": "C" 
			},
			{
				"x": 1.8169088288,
				"y": -0.045950377,
				"z": 0.8840783498,
				"element": "C" 
			},
			{
				"x": 2.5565711986,
				"y": 0.2787072155,
				"z": 2.020025616,
				"element": "C" 
			},
			{
				"x": 1.9338613302,
				"y": 0.3510432382,
				"z": 3.2673784245,
				"element": "C" 
			},
			{
				"x": 0.563763219,
				"y": 0.0983336344,
				"z": 3.3700969925,
				"element": "C" 
			},
			{
				"x": -0.1802610722,
				"y": -0.2153345642,
				"z": 2.2351085239,
				"element": "C" 
			},
			{
				"x": -2.1113898841,
				"y": -1.0975066776,
				"z": -4.0582851775,
				"element": "H" 
			},
			{
				"x": -3.8613135146,
				"y": -1.8140153179,
				"z": -2.0647394449,
				"element": "H" 
			},
			{
				"x": -2.7389914106,
				"y": -3.0953809747,
				"z": -2.522995693,
				"element": "H" 
			},
			{
				"x": 0.696522687,
				"y": 0.4615299933,
				"z": -1.7155174829,
				"element": "H" 
			},
			{
				"x": -2.0459348067,
				"y": -1.9151868765,
				"z": 0.3939739756,
				"element": "H" 
			},
			{
				"x": 2.3214881846,
				"y": -0.1393200604,
				"z": -0.0738379806,
				"element": "H" 
			},
			{
				"x": 3.6233542051,
				"y": 0.4628170012,
				"z": 1.931805946,
				"element": "H" 
			},
			{
				"x": 2.5115565434,
				"y": 0.599825586,
				"z": 4.152548341,
				"element": "H" 
			},
			{
				"x": 0.0708659461,
				"y": 0.1552932818,
				"z": 4.3362888585,
				"element": "H" 
			},
			{
				"x": -1.2495463538,
				"y": -0.3850269466,
				"z": 2.3156823424,
				"element": "H" 
			}
		],
		 "valence_orbital": [ 
			{
				"type": "occ",
				"energy": -0.28804,
				"method": "rhf"
			},
			{
				"type": "occ",
				"energy": -0.26642,
				"method": "rhf"
			},
			{
				"type": "occ",
				"energy": -0.26387,
				"method": "rhf"
			},
			{
				"type": "occ",
				"energy": -0.24237,
				"method": "rhf"
			},
			{
				"type": "occ",
				"energy": -0.22851,
				"method": "rhf"
			},
			{
				"type": "unocc",
				"energy": -0.03581,
				"method": "rhf"
			},
			{
				"type": "unocc",
				"energy": -0.01505,
				"method": "rhf"
			},
			{
				"type": "unocc",
				"energy": 0.03565,
				"method": "rhf"
			},
			{
				"type": "unocc",
				"energy": 0.06567,
				"method": "rhf"
			},
			{
				"type": "unocc",
				"energy": 0.07512,
				"method": "rhf"
			}
		],
		"cosmo_sigma_profile": { 
			"-0.025": 0.0,
			"-0.024": 0.0,
			"-0.023": 0.0,
			"-0.022": 0.0,
			"-0.021": 0.0,
			"-0.02": 0.0,
			"-0.019": 0.0,
			"-0.018": 0.0,
			"-0.017": 0.0550605980415,
			"-0.016": 1.03273167545,
			"-0.015": 0.985808280079,
			"-0.014": 1.28368990995,
			"-0.013": 0.822422348728,
			"-0.012": 0.709957091834,
			"-0.011": 1.81814268808,
			"-0.01": 1.68828097122,
			"-0.009": 1.50644212949,
			"-0.008": 1.96603311733,
			"-0.007": 3.04038114398,
			"-0.006": 10.9227432892,
			"-0.005": 16.8826328081,
			"-0.004": 20.143621017,
			"-0.003": 15.3940366434,
			"-0.002": 14.5939489912,
			"-0.001": 11.3805548792,
			"0.0": 11.150376066,
			"0.001": 12.0169551303,
			"0.002": 15.1566306842,
			"0.003": 14.6403412162,
			"0.004": 18.8890388285,
			"0.005": 17.2236385355,
			"0.006": 3.42160165442,
			"0.007": 2.30789902976,
			"0.008": 2.94241174317,
			"0.009": 3.03430412951,
			"0.01": 2.30805271486,
			"0.011": 2.12888091224,
			"0.012": 1.42074237306,
			"0.013": 1.8872151185,
			"0.014": 2.33766151152,
			"0.015": 0.881016900003,
			"0.016": 0.0,
			"0.017": 0.0,
			"0.018": 0.0,
			"0.019": 0.0,
			"0.02": 0.0,
			"0.021": 0.0,
			"0.022": 0.0,
			"0.023": 0.0,
			"0.024": 0.0,
			"0.025": 0.0
		}
	}
}
