{
	 "smiles": "OC1=CC=CC2=CC=CC(O)=C12", 
	 "Tm": 415.15, 
	 "num_atms": 20, 
	 "gaussian": { 
		 "optdone": 1, 
		 "sigma_profile": "yes", 
		 "theory": "DFT", 
		 "functional": "B3LYP", 
		 "basiset": "6-31G**", 
		 "properties": { 
			 "R2extent": 1888.7366, 
			 "electric_dipole_moment_norm": 2.90612208106, 
			 "electric_quadrupole_moment_norm": 15.1988709837, 
			 "total_energy": -536.339419475, 
			 "HOMO_LUMO_gap": 0.16499, 
			 "cosmo_polarized_energy": -10.96, 
			 "cosmo_cavitation_energy": 23.25, 
			 "cosmo_dispersion_energy": -18.02, 
			 "cosmo_repulsion_energy": 1.4, 
			 "cosmo_total_nonelectrostatic_energy": 6.63, 
			 "SMD_solvation_energy": 4.22 
		},
		"coords": [
			{
				"x": 2.061291068,
				"y": -1.9355507449,
				"z": -0.9591747272,
				"element": "O" 
			},
			{
				"x": 1.2247701898,
				"y": -1.5160992122,
				"z": 0.0240527195,
				"element": "C" 
			},
			{
				"x": 1.4506982847,
				"y": -2.0154824397,
				"z": 1.2965303991,
				"element": "C" 
			},
			{
				"x": 0.6322526057,
				"y": -1.6343914424,
				"z": 2.3749762727,
				"element": "C" 
			},
			{
				"x": -0.4137215563,
				"y": -0.755765968,
				"z": 2.1933601161,
				"element": "C" 
			},
			{
				"x": -0.6827336954,
				"y": -0.2191058328,
				"z": 0.9091805324,
				"element": "C" 
			},
			{
				"x": -1.7587226864,
				"y": 0.68954372,
				"z": 0.703230507,
				"element": "C" 
			},
			{
				"x": -2.0181836643,
				"y": 1.208688914,
				"z": -0.5414413456,
				"element": "C" 
			},
			{
				"x": -1.215403245,
				"y": 0.8469470589,
				"z": -1.6470331357,
				"element": "C" 
			},
			{
				"x": -0.1672495624,
				"y": -0.0304048297,
				"z": -1.477413552,
				"element": "C" 
			},
			{
				"x": 0.6319703481,
				"y": -0.3995833905,
				"z": -2.542032801,
				"element": "O" 
			},
			{
				"x": 0.1449211421,
				"y": -0.5986245231,
				"z": -0.2046283398,
				"element": "C" 
			},
			{
				"x": 1.8014630263,
				"y": -1.518306167,
				"z": -1.7967471621,
				"element": "H" 
			},
			{
				"x": 2.2754737948,
				"y": -2.706656478,
				"z": 1.4330559153,
				"element": "H" 
			},
			{
				"x": 0.834555545,
				"y": -2.0430667873,
				"z": 3.3610472713,
				"element": "H" 
			},
			{
				"x": -1.0456557625,
				"y": -0.4615156773,
				"z": 3.0259691996,
				"element": "H" 
			},
			{
				"x": -2.3734260416,
				"y": 0.9652282382,
				"z": 1.555138029,
				"element": "H" 
			},
			{
				"x": -2.8413557285,
				"y": 1.9013090864,
				"z": -0.6888503885,
				"element": "H" 
			},
			{
				"x": -1.4216998475,
				"y": 1.2587235141,
				"z": -2.632589766,
				"element": "H" 
			},
			{
				"x": 0.3333557855,
				"y": 0.0406129615,
				"z": -3.3476297439,
				"element": "H" 
			}
		],
		 "valence_orbital": [ 
			{
				"type": "occ",
				"energy": -0.32293,
				"method": "rhf"
			},
			{
				"type": "occ",
				"energy": -0.30594,
				"method": "rhf"
			},
			{
				"type": "occ",
				"energy": -0.25022,
				"method": "rhf"
			},
			{
				"type": "occ",
				"energy": -0.24379,
				"method": "rhf"
			},
			{
				"type": "occ",
				"energy": -0.19013,
				"method": "rhf"
			},
			{
				"type": "unocc",
				"energy": -0.02514,
				"method": "rhf"
			},
			{
				"type": "unocc",
				"energy": -0.00911,
				"method": "rhf"
			},
			{
				"type": "unocc",
				"energy": 0.04968,
				"method": "rhf"
			},
			{
				"type": "unocc",
				"energy": 0.05072,
				"method": "rhf"
			},
			{
				"type": "unocc",
				"energy": 0.09443,
				"method": "rhf"
			}
		],
		"cosmo_sigma_profile": { 
			"-0.025": 0.0,
			"-0.024": 0.0,
			"-0.023": 0.0,
			"-0.022": 0.0,
			"-0.021": 0.0,
			"-0.02": 0.0,
			"-0.019": 0.506799770046,
			"-0.018": 1.03151778798,
			"-0.017": 1.23596737014,
			"-0.016": 0.943477489882,
			"-0.015": 1.25636345417,
			"-0.014": 0.885485445444,
			"-0.013": 0.546769240309,
			"-0.012": 0.484194752479,
			"-0.011": 2.01681553983,
			"-0.01": 1.05620516846,
			"-0.009": 0.596790718908,
			"-0.008": 1.43294215095,
			"-0.007": 2.70952384195,
			"-0.006": 6.85600520714,
			"-0.005": 13.4029041729,
			"-0.004": 12.4913393679,
			"-0.003": 11.8941943818,
			"-0.002": 11.0211540173,
			"-0.001": 9.46376519195,
			"0.0": 9.92693091664,
			"0.001": 10.7110969799,
			"0.002": 12.815895224,
			"0.003": 15.4638822594,
			"0.004": 20.3506783052,
			"0.005": 20.0452617156,
			"0.006": 8.06192211512,
			"0.007": 1.06918329461,
			"0.008": 1.63806622346,
			"0.009": 1.41948932939,
			"0.01": 1.46623174648,
			"0.011": 2.00347123807,
			"0.012": 1.38870868389,
			"0.013": 0.0244670267263,
			"0.014": 0.0,
			"0.015": 0.0,
			"0.016": 0.0,
			"0.017": 0.0,
			"0.018": 0.0,
			"0.019": 0.0,
			"0.02": 0.0,
			"0.021": 0.0,
			"0.022": 0.0,
			"0.023": 0.0,
			"0.024": 0.0,
			"0.025": 0.0
		}
	}
}
