{
	 "smiles": "CC1=CC=C(OP2(=S)OC3=CC=C(Cl)C=C3SC3=C(O2)C=CC(Cl)=C3)C(C)=C1", 
	 "Tm": 422.15, 
	 "num_atms": 43, 
	 "gaussian": { 
		 "optdone": 1, 
		 "sigma_profile": "yes", 
		 "theory": "DFT", 
		 "functional": "B3LYP", 
		 "basiset": "6-31G**", 
		 "properties": { 
			 "R2extent": 16860.1931, 
			 "electric_dipole_moment_norm": 1.87326607827, 
			 "electric_quadrupole_moment_norm": 14.9735319895, 
			 "total_energy": -3055.01265348, 
			 "HOMO_LUMO_gap": 0.1885, 
			 "cosmo_polarized_energy": -12.11, 
			 "cosmo_cavitation_energy": 55.78, 
			 "cosmo_dispersion_energy": -37.67, 
			 "cosmo_repulsion_energy": 2.76, 
			 "cosmo_total_nonelectrostatic_energy": 20.88, 
			 "SMD_solvation_energy": 8.0 
		},
		"coords": [
			{
				"x": -0.971717326,
				"y": -1.3679626517,
				"z": 6.0773777419,
				"element": "C" 
			},
			{
				"x": -0.9308667778,
				"y": -1.0959533842,
				"z": 4.591746097,
				"element": "C" 
			},
			{
				"x": -1.4300118398,
				"y": 0.0999955181,
				"z": 4.0633412521,
				"element": "C" 
			},
			{
				"x": -1.3601689097,
				"y": 0.3576070922,
				"z": 2.6951716418,
				"element": "C" 
			},
			{
				"x": -0.796087707,
				"y": -0.5937273509,
				"z": 1.8544754271,
				"element": "C" 
			},
			{
				"x": -0.6582256696,
				"y": -0.2993887327,
				"z": 0.4844309047,
				"element": "O" 
			},
			{
				"x": -1.8107196399,
				"y": -0.442962054,
				"z": -0.635324393,
				"element": "P" 
			},
			{
				"x": -3.6572965746,
				"y": -0.4441971769,
				"z": -0.1032041194,
				"element": "S" 
			},
			{
				"x": -1.4196142365,
				"y": 0.7412929224,
				"z": -1.6791340507,
				"element": "O" 
			},
			{
				"x": -0.2593953534,
				"y": 1.5039138096,
				"z": -1.7338274318,
				"element": "C" 
			},
			{
				"x": -0.3780771753,
				"y": 2.8467209436,
				"z": -1.3799702155,
				"element": "C" 
			},
			{
				"x": 0.7142594373,
				"y": 3.704989681,
				"z": -1.4702271,
				"element": "C" 
			},
			{
				"x": 1.9258649013,
				"y": 3.1985776934,
				"z": -1.9377357223,
				"element": "C" 
			},
			{
				"x": 3.3170955678,
				"y": 4.2601981059,
				"z": -2.0696116093,
				"element": "Cl" 
			},
			{
				"x": 2.0487170165,
				"y": 1.8664849533,
				"z": -2.323821925,
				"element": "C" 
			},
			{
				"x": 0.9544119962,
				"y": 0.9949524941,
				"z": -2.2223129646,
				"element": "C" 
			},
			{
				"x": 1.2880828343,
				"y": -0.7207741688,
				"z": -2.615486876,
				"element": "S" 
			},
			{
				"x": -0.1511037833,
				"y": -1.3149648686,
				"z": -3.503017933,
				"element": "C" 
			},
			{
				"x": -1.2673666794,
				"y": -1.8253848869,
				"z": -2.8211821281,
				"element": "C" 
			},
			{
				"x": -1.3129318189,
				"y": -1.786944033,
				"z": -1.4374608517,
				"element": "O" 
			},
			{
				"x": -2.3249899704,
				"y": -2.4080904918,
				"z": -3.5155674915,
				"element": "C" 
			},
			{
				"x": -2.2811726144,
				"y": -2.4933424805,
				"z": -4.9059301683,
				"element": "C" 
			},
			{
				"x": -1.1747124075,
				"y": -1.9856838691,
				"z": -5.5867316537,
				"element": "C" 
			},
			{
				"x": -1.1116535815,
				"y": -2.0904052689,
				"z": -7.33723876,
				"element": "Cl" 
			},
			{
				"x": -0.1117896058,
				"y": -1.4009305099,
				"z": -4.8995609498,
				"element": "C" 
			},
			{
				"x": -0.2816338714,
				"y": -1.8051740024,
				"z": 2.3300419441,
				"element": "C" 
			},
			{
				"x": 0.3309015328,
				"y": -2.8195748671,
				"z": 1.3981505267,
				"element": "C" 
			},
			{
				"x": -0.3652350025,
				"y": -2.0257313625,
				"z": 3.7094696811,
				"element": "C" 
			},
			{
				"x": -1.0940867839,
				"y": -2.4351020762,
				"z": 6.2859252304,
				"element": "H" 
			},
			{
				"x": -0.0432427209,
				"y": -1.0458847066,
				"z": 6.5654130746,
				"element": "H" 
			},
			{
				"x": -1.7952187905,
				"y": -0.8326200962,
				"z": 6.5588693261,
				"element": "H" 
			},
			{
				"x": -1.8773769632,
				"y": 0.8383967165,
				"z": 4.7229862532,
				"element": "H" 
			},
			{
				"x": -1.7427673811,
				"y": 1.282150307,
				"z": 2.2774077207,
				"element": "H" 
			},
			{
				"x": -1.3412690014,
				"y": 3.2048098517,
				"z": -1.0328045399,
				"element": "H" 
			},
			{
				"x": 0.6251007583,
				"y": 4.7475023531,
				"z": -1.1881460498,
				"element": "H" 
			},
			{
				"x": 2.9922849217,
				"y": 1.499217158,
				"z": -2.7110614125,
				"element": "H" 
			},
			{
				"x": -3.1736945562,
				"y": -2.7883753104,
				"z": -2.9580798622,
				"element": "H" 
			},
			{
				"x": -3.0981081819,
				"y": -2.9471431726,
				"z": -5.4553543498,
				"element": "H" 
			},
			{
				"x": 0.7470044793,
				"y": -1.0197807927,
				"z": -5.4390945597,
				"element": "H" 
			},
			{
				"x": -0.4132243584,
				"y": -3.2337541915,
				"z": 0.7096534437,
				"element": "H" 
			},
			{
				"x": 0.7685963736,
				"y": -3.646129413,
				"z": 1.9632534737,
				"element": "H" 
			},
			{
				"x": 1.1120420549,
				"y": -2.3687713071,
				"z": 0.7780277616,
				"element": "H" 
			},
			{
				"x": 0.0263974081,
				"y": -2.9600563738,
				"z": 4.105545617,
				"element": "H" 
			}
		],
		 "valence_orbital": [ 
			{
				"type": "occ",
				"energy": -0.25725,
				"method": "rhf"
			},
			{
				"type": "occ",
				"energy": -0.25198,
				"method": "rhf"
			},
			{
				"type": "occ",
				"energy": -0.24766,
				"method": "rhf"
			},
			{
				"type": "occ",
				"energy": -0.23935,
				"method": "rhf"
			},
			{
				"type": "occ",
				"energy": -0.2382,
				"method": "rhf"
			},
			{
				"type": "unocc",
				"energy": -0.0497,
				"method": "rhf"
			},
			{
				"type": "unocc",
				"energy": -0.03712,
				"method": "rhf"
			},
			{
				"type": "unocc",
				"energy": -0.03379,
				"method": "rhf"
			},
			{
				"type": "unocc",
				"energy": -0.02878,
				"method": "rhf"
			},
			{
				"type": "unocc",
				"energy": -0.007,
				"method": "rhf"
			}
		],
		"cosmo_sigma_profile": { 
			"-0.025": 0.0,
			"-0.024": 0.0,
			"-0.023": 0.0,
			"-0.022": 0.0,
			"-0.021": 0.0,
			"-0.02": 0.0,
			"-0.019": 0.0,
			"-0.018": 0.0,
			"-0.017": 0.0,
			"-0.016": 0.0,
			"-0.015": 0.0,
			"-0.014": 0.0,
			"-0.013": 0.0,
			"-0.012": 0.0,
			"-0.011": 0.0,
			"-0.01": 0.0,
			"-0.009": 0.914421677575,
			"-0.008": 9.02681459233,
			"-0.007": 12.2217185157,
			"-0.006": 15.5029592059,
			"-0.005": 20.1903065189,
			"-0.004": 27.4071289079,
			"-0.003": 28.0170948809,
			"-0.002": 34.3279398686,
			"-0.001": 40.7030587702,
			"0.0": 55.8308005482,
			"0.001": 52.4129339464,
			"0.002": 38.8274833321,
			"0.003": 34.6430501863,
			"0.004": 38.2927482807,
			"0.005": 21.6846173972,
			"0.006": 11.0789106135,
			"0.007": 9.36103970678,
			"0.008": 4.51580144502,
			"0.009": 0.0424580999311,
			"0.01": 0.0,
			"0.011": 0.0,
			"0.012": 0.0,
			"0.013": 0.0,
			"0.014": 0.0,
			"0.015": 0.0,
			"0.016": 0.0,
			"0.017": 0.0,
			"0.018": 0.0,
			"0.019": 0.0,
			"0.02": 0.0,
			"0.021": 0.0,
			"0.022": 0.0,
			"0.023": 0.0,
			"0.024": 0.0,
			"0.025": 0.0
		}
	}
}
