{
	 "smiles": "CC1CN(CC(C)O1)C(=O)CC#N", 
	 "Tm": 399.15, 
	 "num_atms": 27, 
	 "gaussian": { 
		 "optdone": 1, 
		 "sigma_profile": "yes", 
		 "theory": "DFT", 
		 "functional": "B3LYP", 
		 "basiset": "6-31G**", 
		 "properties": { 
			 "R2extent": 3114.396, 
			 "electric_dipole_moment_norm": 6.83545635419, 
			 "electric_quadrupole_moment_norm": 25.5378627434, 
			 "total_energy": -611.32973176, 
			 "HOMO_LUMO_gap": 0.26154, 
			 "cosmo_polarized_energy": -20.28, 
			 "cosmo_cavitation_energy": 29.98, 
			 "cosmo_dispersion_energy": -20.78, 
			 "cosmo_repulsion_energy": 1.67, 
			 "cosmo_total_nonelectrostatic_energy": 10.87, 
			 "SMD_solvation_energy": 6.67 
		},
		"coords": [
			{
				"x": 1.6706681597,
				"y": -1.117363354,
				"z": 2.7008868553,
				"element": "C" 
			},
			{
				"x": 1.79197953,
				"y": 0.1867818403,
				"z": 1.9235390713,
				"element": "C" 
			},
			{
				"x": 2.1542597641,
				"y": -0.0248712988,
				"z": 0.4383373216,
				"element": "C" 
			},
			{
				"x": 0.9514616519,
				"y": -0.2917196566,
				"z": -0.3479622282,
				"element": "N" 
			},
			{
				"x": -0.118710022,
				"y": 0.7072531283,
				"z": -0.2543911868,
				"element": "C" 
			},
			{
				"x": 0.1543136519,
				"y": 1.6459664891,
				"z": 0.9354159047,
				"element": "C" 
			},
			{
				"x": -1.0816039962,
				"y": 2.4470734422,
				"z": 1.3190007399,
				"element": "C" 
			},
			{
				"x": 0.5318734223,
				"y": 0.8674655163,
				"z": 2.0597802481,
				"element": "O" 
			},
			{
				"x": 0.9010464449,
				"y": -1.415845826,
				"z": -1.1296638159,
				"element": "C" 
			},
			{
				"x": 1.8108274641,
				"y": -2.2275642319,
				"z": -1.2072629692,
				"element": "O" 
			},
			{
				"x": -0.4123581607,
				"y": -1.6028859686,
				"z": -1.9188069484,
				"element": "C" 
			},
			{
				"x": -0.3525616386,
				"y": -2.7447911937,
				"z": -2.8287858364,
				"element": "C" 
			},
			{
				"x": -0.3586995071,
				"y": -3.6361173044,
				"z": -3.5700530699,
				"element": "N" 
			},
			{
				"x": 2.6413303974,
				"y": -1.6179752737,
				"z": 2.7700678046,
				"element": "H" 
			},
			{
				"x": 1.3083793481,
				"y": -0.9168927119,
				"z": 3.7128838085,
				"element": "H" 
			},
			{
				"x": 0.9641040745,
				"y": -1.7931055482,
				"z": 2.2096499098,
				"element": "H" 
			},
			{
				"x": 2.578730005,
				"y": 0.8125161885,
				"z": 2.3753524038,
				"element": "H" 
			},
			{
				"x": 2.6670089483,
				"y": 0.8577362994,
				"z": 0.0353583528,
				"element": "H" 
			},
			{
				"x": 2.8209346043,
				"y": -0.8786168037,
				"z": 0.3164759056,
				"element": "H" 
			},
			{
				"x": -0.2034390006,
				"y": 1.2973308198,
				"z": -1.1797277955,
				"element": "H" 
			},
			{
				"x": -1.0800975198,
				"y": 0.2103564829,
				"z": -0.0809702313,
				"element": "H" 
			},
			{
				"x": 0.9621508201,
				"y": 2.346356814,
				"z": 0.667293769,
				"element": "H" 
			},
			{
				"x": -0.8478903756,
				"y": 3.1257648671,
				"z": 2.142786227,
				"element": "H" 
			},
			{
				"x": -1.4417447101,
				"y": 3.0394874973,
				"z": 0.47181483,
				"element": "H" 
			},
			{
				"x": -1.8817622653,
				"y": 1.77565512,
				"z": 1.6451489162,
				"element": "H" 
			},
			{
				"x": -0.6501866023,
				"y": -0.7022679013,
				"z": -2.4969936,
				"element": "H" 
			},
			{
				"x": -1.2463144882,
				"y": -1.7517274327,
				"z": -1.2214743864,
				"element": "H" 
			}
		],
		 "valence_orbital": [ 
			{
				"type": "occ",
				"energy": -0.32413,
				"method": "rhf"
			},
			{
				"type": "occ",
				"energy": -0.32265,
				"method": "rhf"
			},
			{
				"type": "occ",
				"energy": -0.27073,
				"method": "rhf"
			},
			{
				"type": "occ",
				"energy": -0.26605,
				"method": "rhf"
			},
			{
				"type": "occ",
				"energy": -0.25334,
				"method": "rhf"
			},
			{
				"type": "unocc",
				"energy": 0.0082,
				"method": "rhf"
			},
			{
				"type": "unocc",
				"energy": 0.03287,
				"method": "rhf"
			},
			{
				"type": "unocc",
				"energy": 0.03647,
				"method": "rhf"
			},
			{
				"type": "unocc",
				"energy": 0.06022,
				"method": "rhf"
			},
			{
				"type": "unocc",
				"energy": 0.08071,
				"method": "rhf"
			}
		],
		"cosmo_sigma_profile": { 
			"-0.025": 0.0,
			"-0.024": 0.0,
			"-0.023": 0.0,
			"-0.022": 0.0,
			"-0.021": 0.0,
			"-0.02": 0.0,
			"-0.019": 0.0,
			"-0.018": 0.0,
			"-0.017": 0.0,
			"-0.016": 0.0,
			"-0.015": 0.0,
			"-0.014": 0.0,
			"-0.013": 0.0,
			"-0.012": 0.0,
			"-0.011": 0.287967772611,
			"-0.01": 6.13795706864,
			"-0.009": 6.60262490678,
			"-0.008": 5.01875613981,
			"-0.007": 6.00208089274,
			"-0.006": 10.1357317598,
			"-0.005": 17.6281831934,
			"-0.004": 25.5339084119,
			"-0.003": 22.0936560031,
			"-0.002": 18.4005018636,
			"-0.001": 16.8500811796,
			"0.0": 19.120131228,
			"0.001": 10.3950084125,
			"0.002": 5.37394951053,
			"0.003": 5.77691413618,
			"0.004": 3.84868904243,
			"0.005": 5.02869837762,
			"0.006": 4.83262777605,
			"0.007": 4.98795759594,
			"0.008": 7.50475134663,
			"0.009": 6.86236604335,
			"0.01": 6.42268733567,
			"0.011": 5.53546141878,
			"0.012": 7.14929371549,
			"0.013": 7.08596028751,
			"0.014": 0.566723909261,
			"0.015": 0.0,
			"0.016": 0.0,
			"0.017": 0.0,
			"0.018": 0.0,
			"0.019": 0.0,
			"0.02": 0.0,
			"0.021": 0.0,
			"0.022": 0.0,
			"0.023": 0.0,
			"0.024": 0.0,
			"0.025": 0.0
		}
	}
}
