{
	 "smiles": "CCOC(=O)C1=C(C)OC(N)=C1C#N", 
	 "Tm": 372.15, 
	 "num_atms": 24, 
	 "gaussian": { 
		 "optdone": 1, 
		 "sigma_profile": "yes", 
		 "theory": "DFT", 
		 "functional": "B3LYP", 
		 "basiset": "6-31G**", 
		 "properties": { 
			 "R2extent": 3514.7454, 
			 "electric_dipole_moment_norm": 6.22055260085, 
			 "electric_quadrupole_moment_norm": 25.9212746228, 
			 "total_energy": -684.14769768, 
			 "HOMO_LUMO_gap": 0.17559, 
			 "cosmo_polarized_energy": -19.36, 
			 "cosmo_cavitation_energy": 29.75, 
			 "cosmo_dispersion_energy": -20.79, 
			 "cosmo_repulsion_energy": 1.69, 
			 "cosmo_total_nonelectrostatic_energy": 10.64, 
			 "SMD_solvation_energy": 8.1 
		},
		"coords": [
			{
				"x": -1.7920827131,
				"y": -1.0740153216,
				"z": -3.7408264139,
				"element": "C" 
			},
			{
				"x": -1.5432764997,
				"y": 0.1691507477,
				"z": -2.9003598365,
				"element": "C" 
			},
			{
				"x": -0.5919981318,
				"y": -0.0911082648,
				"z": -1.8377796697,
				"element": "O" 
			},
			{
				"x": -1.1007486536,
				"y": -0.6213071392,
				"z": -0.6976985891,
				"element": "C" 
			},
			{
				"x": -2.2785473342,
				"y": -0.8711909269,
				"z": -0.53627206,
				"element": "O" 
			},
			{
				"x": -0.0745814085,
				"y": -0.8596736483,
				"z": 0.3322383605,
				"element": "C" 
			},
			{
				"x": 1.2744883394,
				"y": -0.6430817541,
				"z": 0.2943191006,
				"element": "C" 
			},
			{
				"x": 2.2445098484,
				"y": -0.1188243259,
				"z": -0.700552538,
				"element": "C" 
			},
			{
				"x": 1.8275528773,
				"y": -1.0243420397,
				"z": 1.5058635422,
				"element": "O" 
			},
			{
				"x": 0.8319372379,
				"y": -1.4825007088,
				"z": 2.3003989187,
				"element": "C" 
			},
			{
				"x": 1.1738981935,
				"y": -1.8452843269,
				"z": 3.5722522251,
				"element": "N" 
			},
			{
				"x": -0.3750806952,
				"y": -1.4181898457,
				"z": 1.6434848122,
				"element": "C" 
			},
			{
				"x": -1.5954318417,
				"y": -1.853128191,
				"z": 2.2101793172,
				"element": "C" 
			},
			{
				"x": -2.5371238956,
				"y": -2.2466728142,
				"z": 2.7732028327,
				"element": "N" 
			},
			{
				"x": -0.8547769406,
				"y": -1.465324368,
				"z": -4.1475994878,
				"element": "H" 
			},
			{
				"x": -2.2723764866,
				"y": -1.8517422254,
				"z": -3.1425433996,
				"element": "H" 
			},
			{
				"x": -2.4533931084,
				"y": -0.8278333933,
				"z": -4.5782853841,
				"element": "H" 
			},
			{
				"x": -1.0788193423,
				"y": 0.9651580396,
				"z": -3.4872832575,
				"element": "H" 
			},
			{
				"x": -2.4709303994,
				"y": 0.5377147386,
				"z": -2.4571206121,
				"element": "H" 
			},
			{
				"x": 1.7244810198,
				"y": 0.1313989146,
				"z": -1.6229584909,
				"element": "H" 
			},
			{
				"x": 2.7477043085,
				"y": 0.7775136878,
				"z": -0.3192439444,
				"element": "H" 
			},
			{
				"x": 3.0198595505,
				"y": -0.8632898526,
				"z": -0.9160094914,
				"element": "H" 
			},
			{
				"x": 2.1117605541,
				"y": -2.2026611159,
				"z": 3.692224561,
				"element": "H" 
			},
			{
				"x": 0.4610755215,
				"y": -2.3604658662,
				"z": 4.070969505,
				"element": "H" 
			}
		],
		 "valence_orbital": [ 
			{
				"type": "occ",
				"energy": -0.31656,
				"method": "rhf"
			},
			{
				"type": "occ",
				"energy": -0.30145,
				"method": "rhf"
			},
			{
				"type": "occ",
				"energy": -0.28229,
				"method": "rhf"
			},
			{
				"type": "occ",
				"energy": -0.27582,
				"method": "rhf"
			},
			{
				"type": "occ",
				"energy": -0.21219,
				"method": "rhf"
			},
			{
				"type": "unocc",
				"energy": -0.0366,
				"method": "rhf"
			},
			{
				"type": "unocc",
				"energy": -0.00387,
				"method": "rhf"
			},
			{
				"type": "unocc",
				"energy": 0.0371,
				"method": "rhf"
			},
			{
				"type": "unocc",
				"energy": 0.06648,
				"method": "rhf"
			},
			{
				"type": "unocc",
				"energy": 0.08007,
				"method": "rhf"
			}
		],
		"cosmo_sigma_profile": { 
			"-0.025": 0.0,
			"-0.024": 0.0,
			"-0.023": 0.0,
			"-0.022": 0.0,
			"-0.021": 0.0,
			"-0.02": 0.0,
			"-0.019": 0.0,
			"-0.018": 0.0,
			"-0.017": 0.0,
			"-0.016": 0.156598531805,
			"-0.015": 1.88384075224,
			"-0.014": 2.73878315005,
			"-0.013": 2.58270949851,
			"-0.012": 2.30307594781,
			"-0.011": 2.41038016137,
			"-0.01": 1.50892422311,
			"-0.009": 2.04464883012,
			"-0.008": 2.91081447511,
			"-0.007": 1.70357788342,
			"-0.006": 7.22522337444,
			"-0.005": 10.180694967,
			"-0.004": 18.0907587046,
			"-0.003": 19.2226313701,
			"-0.002": 26.9307940365,
			"-0.001": 22.5197576544,
			"0.0": 23.8627450907,
			"0.001": 17.6372825661,
			"0.002": 8.94036566751,
			"0.003": 7.65824346058,
			"0.004": 6.64000704963,
			"0.005": 5.41012643936,
			"0.006": 4.13724090955,
			"0.007": 4.5241128853,
			"0.008": 3.83158156859,
			"0.009": 6.4147119042,
			"0.01": 7.09090331517,
			"0.011": 6.7758963318,
			"0.012": 6.06303766053,
			"0.013": 2.56916272218,
			"0.014": 1.18986594926,
			"0.015": 0.0,
			"0.016": 0.0,
			"0.017": 0.0,
			"0.018": 0.0,
			"0.019": 0.0,
			"0.02": 0.0,
			"0.021": 0.0,
			"0.022": 0.0,
			"0.023": 0.0,
			"0.024": 0.0,
			"0.025": 0.0
		}
	}
}
