{
	 "smiles": "NNC(=S)NC1=CC(Cl)=CC=C1", 
	 "Tm": 404.65, 
	 "num_atms": 20, 
	 "gaussian": { 
		 "optdone": 1, 
		 "sigma_profile": "yes", 
		 "theory": "DFT", 
		 "functional": "B3LYP", 
		 "basiset": "6-31G**", 
		 "properties": { 
			 "R2extent": 3966.4973, 
			 "electric_dipole_moment_norm": 3.38286841748, 
			 "electric_quadrupole_moment_norm": 11.7023732238, 
			 "total_energy": -1294.18214756, 
			 "HOMO_LUMO_gap": 0.17464, 
			 "cosmo_polarized_energy": -15.4, 
			 "cosmo_cavitation_energy": 27.82, 
			 "cosmo_dispersion_energy": -21.03, 
			 "cosmo_repulsion_energy": 1.65, 
			 "cosmo_total_nonelectrostatic_energy": 8.44, 
			 "SMD_solvation_energy": 4.01 
		},
		"coords": [
			{
				"x": -1.2418964275,
				"y": -3.8188829907,
				"z": 0.6811693269,
				"element": "N" 
			},
			{
				"x": -0.6327562052,
				"y": -2.6904013113,
				"z": 0.1028930388,
				"element": "N" 
			},
			{
				"x": -1.1817579079,
				"y": -1.9978558881,
				"z": -0.9314459439,
				"element": "C" 
			},
			{
				"x": -2.5703696898,
				"y": -2.4950081236,
				"z": -1.7375263955,
				"element": "S" 
			},
			{
				"x": -0.5497354501,
				"y": -0.8305933086,
				"z": -1.2926644126,
				"element": "N" 
			},
			{
				"x": 0.6594541777,
				"y": -0.2610045577,
				"z": -0.8344346978,
				"element": "C" 
			},
			{
				"x": 0.7213259077,
				"y": 1.137090113,
				"z": -0.7239923261,
				"element": "C" 
			},
			{
				"x": 1.9112398112,
				"y": 1.7405899891,
				"z": -0.3292627001,
				"element": "C" 
			},
			{
				"x": 1.9741499053,
				"y": 3.4904017472,
				"z": -0.2024498621,
				"element": "Cl" 
			},
			{
				"x": 3.0455094638,
				"y": 0.9897585576,
				"z": -0.0190257873,
				"element": "C" 
			},
			{
				"x": 2.9714557637,
				"y": -0.3980376232,
				"z": -0.1331444192,
				"element": "C" 
			},
			{
				"x": 1.7995017624,
				"y": -1.0296335686,
				"z": -0.5487254529,
				"element": "C" 
			},
			{
				"x": -2.2496423179,
				"y": -3.6469150792,
				"z": 0.691413948,
				"element": "H" 
			},
			{
				"x": -1.114036546,
				"y": -4.5968527882,
				"z": 0.0343293722,
				"element": "H" 
			},
			{
				"x": 0.0227063561,
				"y": -2.2241348372,
				"z": 0.7158754647,
				"element": "H" 
			},
			{
				"x": -1.0884452894,
				"y": -0.2940872837,
				"z": -1.9587817862,
				"element": "H" 
			},
			{
				"x": -0.153810815,
				"y": 1.7416360087,
				"z": -0.936466383,
				"element": "H" 
			},
			{
				"x": 3.958970911,
				"y": 1.4813778784,
				"z": 0.294194276,
				"element": "H" 
			},
			{
				"x": 3.8493838957,
				"y": -0.9982912278,
				"z": 0.085547855,
				"element": "H" 
			},
			{
				"x": 1.7787526944,
				"y": -2.1047557061,
				"z": -0.6825031149,
				"element": "H" 
			}
		],
		 "valence_orbital": [ 
			{
				"type": "occ",
				"energy": -0.28863,
				"method": "rhf"
			},
			{
				"type": "occ",
				"energy": -0.2692,
				"method": "rhf"
			},
			{
				"type": "occ",
				"energy": -0.25342,
				"method": "rhf"
			},
			{
				"type": "occ",
				"energy": -0.22389,
				"method": "rhf"
			},
			{
				"type": "occ",
				"energy": -0.21761,
				"method": "rhf"
			},
			{
				"type": "unocc",
				"energy": -0.04297,
				"method": "rhf"
			},
			{
				"type": "unocc",
				"energy": -0.03449,
				"method": "rhf"
			},
			{
				"type": "unocc",
				"energy": 0.00513,
				"method": "rhf"
			},
			{
				"type": "unocc",
				"energy": 0.01579,
				"method": "rhf"
			},
			{
				"type": "unocc",
				"energy": 0.0693,
				"method": "rhf"
			}
		],
		"cosmo_sigma_profile": { 
			"-0.025": 0.0,
			"-0.024": 0.0,
			"-0.023": 0.0,
			"-0.022": 0.0,
			"-0.021": 0.0,
			"-0.02": 0.0,
			"-0.019": 0.0,
			"-0.018": 0.0,
			"-0.017": 0.0,
			"-0.016": 0.0,
			"-0.015": 0.387218828228,
			"-0.014": 1.76179036442,
			"-0.013": 1.4990829751,
			"-0.012": 2.46855209026,
			"-0.011": 3.08777655172,
			"-0.01": 3.69446186776,
			"-0.009": 5.24959331489,
			"-0.008": 5.85853184402,
			"-0.007": 10.4741639567,
			"-0.006": 11.1768105851,
			"-0.005": 10.5095639548,
			"-0.004": 9.9372438878,
			"-0.003": 10.519051025,
			"-0.002": 10.8751385457,
			"-0.001": 11.906867788,
			"0.0": 15.21215103,
			"0.001": 17.6096029208,
			"0.002": 18.9534174527,
			"0.003": 16.9114951437,
			"0.004": 15.1948369821,
			"0.005": 8.42991579087,
			"0.006": 3.82741154073,
			"0.007": 3.4458690693,
			"0.008": 4.73143479175,
			"0.009": 6.37365832706,
			"0.01": 7.72889336781,
			"0.011": 5.27854816294,
			"0.012": 1.87557153202,
			"0.013": 0.379535285278,
			"0.014": 0.388746222694,
			"0.015": 0.903343528443,
			"0.016": 0.255479782173,
			"0.017": 0.0,
			"0.018": 0.0,
			"0.019": 0.0,
			"0.02": 0.0,
			"0.021": 0.0,
			"0.022": 0.0,
			"0.023": 0.0,
			"0.024": 0.0,
			"0.025": 0.0
		}
	}
}
