{
	 "smiles": "NC(=S)CC1=C(F)C=CC=C1", 
	 "Tm": 366.15, 
	 "num_atms": 19, 
	 "gaussian": { 
		 "optdone": 1, 
		 "sigma_profile": "yes", 
		 "theory": "DFT", 
		 "functional": "B3LYP", 
		 "basiset": "6-31G**", 
		 "properties": { 
			 "R2extent": 2683.5701, 
			 "electric_dipole_moment_norm": 4.35264304303, 
			 "electric_quadrupole_moment_norm": 18.126251794, 
			 "total_energy": -862.460285073, 
			 "HOMO_LUMO_gap": 0.1698, 
			 "cosmo_polarized_energy": -13.17, 
			 "cosmo_cavitation_energy": 24.88, 
			 "cosmo_dispersion_energy": -18.42, 
			 "cosmo_repulsion_energy": 1.42, 
			 "cosmo_total_nonelectrostatic_energy": 7.88, 
			 "SMD_solvation_energy": 3.47 
		},
		"coords": [
			{
				"x": -0.2676587234,
				"y": -2.6022403293,
				"z": 1.2040500902,
				"element": "N" 
			},
			{
				"x": 0.5921386725,
				"y": -2.5640921822,
				"z": 0.170148285,
				"element": "C" 
			},
			{
				"x": 1.677674534,
				"y": -3.7800306766,
				"z": -0.1576492446,
				"element": "S" 
			},
			{
				"x": 0.4894540329,
				"y": -1.2978054625,
				"z": -0.6825389535,
				"element": "C" 
			},
			{
				"x": 1.0082846371,
				"y": -0.0641792195,
				"z": 0.0318453239,
				"element": "C" 
			},
			{
				"x": 0.193414376,
				"y": 0.675784726,
				"z": 0.8885027807,
				"element": "C" 
			},
			{
				"x": -1.0938050871,
				"y": 0.2520825467,
				"z": 1.081079975,
				"element": "F" 
			},
			{
				"x": 0.6165539898,
				"y": 1.8117377615,
				"z": 1.5618406219,
				"element": "C" 
			},
			{
				"x": 1.9335210654,
				"y": 2.2375946973,
				"z": 1.3787646318,
				"element": "C" 
			},
			{
				"x": 2.7872009128,
				"y": 1.5222197933,
				"z": 0.5368360405,
				"element": "C" 
			},
			{
				"x": 2.3252943332,
				"y": 0.3850044654,
				"z": -0.1277273562,
				"element": "C" 
			},
			{
				"x": -0.2309738224,
				"y": -3.3845845214,
				"z": 1.8409099336,
				"element": "H" 
			},
			{
				"x": -0.8767556514,
				"y": -1.8218513611,
				"z": 1.409563216,
				"element": "H" 
			},
			{
				"x": -0.5608100148,
				"y": -1.1470056853,
				"z": -0.9596503487,
				"element": "H" 
			},
			{
				"x": 1.0605599599,
				"y": -1.462584391,
				"z": -1.5949308558,
				"element": "H" 
			},
			{
				"x": -0.0762657148,
				"y": 2.3394757771,
				"z": 2.2082042901,
				"element": "H" 
			},
			{
				"x": 2.2875440352,
				"y": 3.1242714849,
				"z": 1.895436458,
				"element": "H" 
			},
			{
				"x": 3.8121276965,
				"y": 1.8501402119,
				"z": 0.3948726764,
				"element": "H" 
			},
			{
				"x": 2.9895007687,
				"y": -0.172637635,
				"z": -0.7816575644,
				"element": "H" 
			}
		],
		 "valence_orbital": [ 
			{
				"type": "occ",
				"energy": -0.34727,
				"method": "rhf"
			},
			{
				"type": "occ",
				"energy": -0.26637,
				"method": "rhf"
			},
			{
				"type": "occ",
				"energy": -0.2568,
				"method": "rhf"
			},
			{
				"type": "occ",
				"energy": -0.22981,
				"method": "rhf"
			},
			{
				"type": "occ",
				"energy": -0.20486,
				"method": "rhf"
			},
			{
				"type": "unocc",
				"energy": -0.03506,
				"method": "rhf"
			},
			{
				"type": "unocc",
				"energy": -0.01765,
				"method": "rhf"
			},
			{
				"type": "unocc",
				"energy": -0.00765,
				"method": "rhf"
			},
			{
				"type": "unocc",
				"energy": 0.07247,
				"method": "rhf"
			},
			{
				"type": "unocc",
				"energy": 0.07852,
				"method": "rhf"
			}
		],
		"cosmo_sigma_profile": { 
			"-0.025": 0.0,
			"-0.024": 0.0,
			"-0.023": 0.0,
			"-0.022": 0.0,
			"-0.021": 0.0,
			"-0.02": 0.0,
			"-0.019": 0.0,
			"-0.018": 0.0,
			"-0.017": 0.0,
			"-0.016": 0.0,
			"-0.015": 0.6791156823,
			"-0.014": 1.48710272357,
			"-0.013": 1.4702777203,
			"-0.012": 2.49624737846,
			"-0.011": 1.42337105801,
			"-0.01": 1.2667687026,
			"-0.009": 1.89635962368,
			"-0.008": 2.72571848771,
			"-0.007": 5.62346686453,
			"-0.006": 13.4834368776,
			"-0.005": 14.3515139331,
			"-0.004": 13.8633844463,
			"-0.003": 12.9887379409,
			"-0.002": 9.99270022623,
			"-0.001": 9.08881539766,
			"0.0": 13.0629205752,
			"0.001": 11.9132962231,
			"0.002": 14.6434065928,
			"0.003": 16.535644941,
			"0.004": 15.2470707012,
			"0.005": 5.92168153247,
			"0.006": 3.49463468695,
			"0.007": 4.10841886894,
			"0.008": 6.09456099902,
			"0.009": 6.38379523278,
			"0.01": 4.65251491849,
			"0.011": 3.7063238644,
			"0.012": 2.62071583131,
			"0.013": 0.323016262511,
			"0.014": 0.0,
			"0.015": 0.0,
			"0.016": 0.0,
			"0.017": 0.0,
			"0.018": 0.0,
			"0.019": 0.0,
			"0.02": 0.0,
			"0.021": 0.0,
			"0.022": 0.0,
			"0.023": 0.0,
			"0.024": 0.0,
			"0.025": 0.0
		}
	}
}
