{
	 "smiles": "CCOC(=O)C(=CC1=CC=C(O1)C1=CC=CC=C1Br)C#N", 
	 "Tm": 397.15, 
	 "num_atms": 33, 
	 "gaussian": { 
		 "optdone": 1, 
		 "sigma_profile": "yes", 
		 "theory": "DFT", 
		 "functional": "B3LYP", 
		 "basiset": "6-31G**", 
		 "properties": { 
			 "R2extent": 10615.3764, 
			 "electric_dipole_moment_norm": 4.05403707186, 
			 "electric_quadrupole_moment_norm": 31.2671872489, 
			 "total_energy": -3468.72908212, 
			 "HOMO_LUMO_gap": 0.13219, 
			 "cosmo_polarized_energy": -18.61, 
			 "cosmo_cavitation_energy": 42.38, 
			 "cosmo_dispersion_energy": -29.06, 
			 "cosmo_repulsion_energy": 2.23, 
			 "cosmo_total_nonelectrostatic_energy": 15.54, 
			 "SMD_solvation_energy": 8.72 
		},
		"coords": [
			{
				"x": 5.4773889924,
				"y": -0.7371144683,
				"z": 2.2865705673,
				"element": "C" 
			},
			{
				"x": 4.9237166894,
				"y": -0.8998857772,
				"z": 0.8843558738,
				"element": "C" 
			},
			{
				"x": 3.5190865022,
				"y": -0.5545977507,
				"z": 0.9320339146,
				"element": "O" 
			},
			{
				"x": 2.850807216,
				"y": -0.6421315919,
				"z": -0.2293842356,
				"element": "C" 
			},
			{
				"x": 3.3519470883,
				"y": -0.9858528865,
				"z": -1.2839760103,
				"element": "O" 
			},
			{
				"x": 1.4123798167,
				"y": -0.2662545414,
				"z": -0.0718219464,
				"element": "C" 
			},
			{
				"x": 0.6390820266,
				"y": -0.3230954238,
				"z": -1.1951504186,
				"element": "C" 
			},
			{
				"x": -0.7390271847,
				"y": -0.033503206,
				"z": -1.3790050056,
				"element": "C" 
			},
			{
				"x": -1.5170846068,
				"y": -0.1177793224,
				"z": -2.5199807316,
				"element": "C" 
			},
			{
				"x": -2.8229006407,
				"y": 0.2749074414,
				"z": -2.1529559795,
				"element": "C" 
			},
			{
				"x": -2.7774400198,
				"y": 0.5849072135,
				"z": -0.807922265,
				"element": "C" 
			},
			{
				"x": -1.5181354266,
				"y": 0.3947632935,
				"z": -0.3361633487,
				"element": "O" 
			},
			{
				"x": -3.8395943565,
				"y": 1.0070971325,
				"z": 0.1058763912,
				"element": "C" 
			},
			{
				"x": -5.1045080934,
				"y": 0.4058275863,
				"z": -0.0541545383,
				"element": "C" 
			},
			{
				"x": -6.1844007652,
				"y": 0.7478407648,
				"z": 0.7513618094,
				"element": "C" 
			},
			{
				"x": -6.0201751752,
				"y": 1.7039274018,
				"z": 1.754761099,
				"element": "C" 
			},
			{
				"x": -4.7826078883,
				"y": 2.3191393575,
				"z": 1.9324190593,
				"element": "C" 
			},
			{
				"x": -3.7037054801,
				"y": 1.9833100803,
				"z": 1.1135943274,
				"element": "C" 
			},
			{
				"x": -2.0814908543,
				"y": 2.9443631361,
				"z": 1.3834031908,
				"element": "Br" 
			},
			{
				"x": 0.9402568636,
				"y": 0.1149546128,
				"z": 1.2192624036,
				"element": "C" 
			},
			{
				"x": 0.5809560067,
				"y": 0.4177780489,
				"z": 2.2844768669,
				"element": "N" 
			},
			{
				"x": 6.5422760165,
				"y": -0.98975126,
				"z": 2.2946215022,
				"element": "H" 
			},
			{
				"x": 5.3634447116,
				"y": 0.2933347252,
				"z": 2.6342026605,
				"element": "H" 
			},
			{
				"x": 4.9599993534,
				"y": -1.3958287231,
				"z": 2.9894726474,
				"element": "H" 
			},
			{
				"x": 5.0195390537,
				"y": -1.9265589092,
				"z": 0.5171147534,
				"element": "H" 
			},
			{
				"x": 5.4211961216,
				"y": -0.2438118042,
				"z": 0.1630996796,
				"element": "H" 
			},
			{
				"x": 1.1630623941,
				"y": -0.64484808,
				"z": -2.0917686098,
				"element": "H" 
			},
			{
				"x": -1.1695193671,
				"y": -0.4200837827,
				"z": -3.4978087442,
				"element": "H" 
			},
			{
				"x": -3.6900029042,
				"y": 0.3541135545,
				"z": -2.7918234977,
				"element": "H" 
			},
			{
				"x": -5.2174088641,
				"y": -0.3616577307,
				"z": -0.8132757605,
				"element": "H" 
			},
			{
				"x": -7.1432096945,
				"y": 0.2602521534,
				"z": 0.6064457516,
				"element": "H" 
			},
			{
				"x": -6.8506966006,
				"y": 1.975596308,
				"z": 2.3991482602,
				"element": "H" 
			},
			{
				"x": -4.6469309306,
				"y": 3.0726424475,
				"z": 2.6995703334,
				"element": "H" 
			}
		],
		 "valence_orbital": [ 
			{
				"type": "occ",
				"energy": -0.28103,
				"method": "rhf"
			},
			{
				"type": "occ",
				"energy": -0.27592,
				"method": "rhf"
			},
			{
				"type": "occ",
				"energy": -0.27534,
				"method": "rhf"
			},
			{
				"type": "occ",
				"energy": -0.2486,
				"method": "rhf"
			},
			{
				"type": "occ",
				"energy": -0.22178,
				"method": "rhf"
			},
			{
				"type": "unocc",
				"energy": -0.08959,
				"method": "rhf"
			},
			{
				"type": "unocc",
				"energy": -0.03459,
				"method": "rhf"
			},
			{
				"type": "unocc",
				"energy": -0.02309,
				"method": "rhf"
			},
			{
				"type": "unocc",
				"energy": 0.00773,
				"method": "rhf"
			},
			{
				"type": "unocc",
				"energy": 0.02568,
				"method": "rhf"
			}
		],
		"cosmo_sigma_profile": { 
			"-0.025": 0.0,
			"-0.024": 0.0,
			"-0.023": 0.0,
			"-0.022": 0.0,
			"-0.021": 0.0,
			"-0.02": 0.0,
			"-0.019": 0.0,
			"-0.018": 0.0,
			"-0.017": 0.0,
			"-0.016": 0.0,
			"-0.015": 0.0,
			"-0.014": 0.0,
			"-0.013": 0.0,
			"-0.012": 0.0,
			"-0.011": 0.0,
			"-0.01": 1.0574757625,
			"-0.009": 4.23087776902,
			"-0.008": 5.63505795678,
			"-0.007": 12.6864646372,
			"-0.006": 14.5950053862,
			"-0.005": 21.1727539004,
			"-0.004": 25.4758525699,
			"-0.003": 26.3564570418,
			"-0.002": 25.8912923727,
			"-0.001": 35.3837989257,
			"0.0": 31.2662918909,
			"0.001": 27.2825065169,
			"0.002": 26.1092901515,
			"0.003": 19.2074068336,
			"0.004": 14.4705917257,
			"0.005": 7.72438296174,
			"0.006": 5.63823491437,
			"0.007": 5.99890781678,
			"0.008": 9.17214912346,
			"0.009": 6.29113955621,
			"0.01": 5.28087421465,
			"0.011": 6.54001575626,
			"0.012": 4.53671763027,
			"0.013": 1.84792558958,
			"0.014": 0.242491633899,
			"0.015": 0.0,
			"0.016": 0.0,
			"0.017": 0.0,
			"0.018": 0.0,
			"0.019": 0.0,
			"0.02": 0.0,
			"0.021": 0.0,
			"0.022": 0.0,
			"0.023": 0.0,
			"0.024": 0.0,
			"0.025": 0.0
		}
	}
}
