{
	 "smiles": "O=C1CN(N=CC2=CC=C(O2)N(=O)=O)C(=O)N1CN1CCOCC1", 
	 "Tm": 479.15, 
	 "num_atms": 39, 
	 "gaussian": { 
		 "optdone": 1, 
		 "sigma_profile": "yes", 
		 "theory": "DFT", 
		 "functional": "B3LYP", 
		 "basiset": "6-31G**", 
		 "properties": { 
			 "R2extent": 12413.9492, 
			 "electric_dipole_moment_norm": 6.79378152431, 
			 "electric_quadrupole_moment_norm": 37.7184705837, 
			 "total_energy": -1229.35528644, 
			 "HOMO_LUMO_gap": 0.11268, 
			 "cosmo_polarized_energy": -29.96, 
			 "cosmo_cavitation_energy": 44.13, 
			 "cosmo_dispersion_energy": -31.01, 
			 "cosmo_repulsion_energy": 2.35, 
			 "cosmo_total_nonelectrostatic_energy": 15.47, 
			 "SMD_solvation_energy": 8.79 
		},
		"coords": [
			{
				"x": 0.7593812363,
				"y": -3.8481320437,
				"z": 1.1958418583,
				"element": "O" 
			},
			{
				"x": 0.3682605933,
				"y": -2.7757012569,
				"z": 0.7821932159,
				"element": "C" 
			},
			{
				"x": 1.1466599023,
				"y": -1.4569707982,
				"z": 0.803468535,
				"element": "C" 
			},
			{
				"x": 0.2037234977,
				"y": -0.5272816688,
				"z": 0.194333475,
				"element": "N" 
			},
			{
				"x": 0.3705968012,
				"y": 0.7825260658,
				"z": -0.0495362619,
				"element": "N" 
			},
			{
				"x": 1.4849830033,
				"y": 1.3383059657,
				"z": 0.2859008439,
				"element": "C" 
			},
			{
				"x": 1.7179526315,
				"y": 2.7421922834,
				"z": 0.0468845542,
				"element": "C" 
			},
			{
				"x": 2.8233835662,
				"y": 3.5232762465,
				"z": 0.3235497683,
				"element": "C" 
			},
			{
				"x": 2.5160306417,
				"y": 4.8340204377,
				"z": -0.1203926511,
				"element": "C" 
			},
			{
				"x": 1.249589284,
				"y": 4.7474863049,
				"z": -0.6316558831,
				"element": "C" 
			},
			{
				"x": 0.7484095526,
				"y": 3.4953950694,
				"z": -0.5413806992,
				"element": "O" 
			},
			{
				"x": 0.42344189,
				"y": 5.7542113975,
				"z": -1.2206759831,
				"element": "N" 
			},
			{
				"x": -0.694823837,
				"y": 5.429879522,
				"z": -1.6130383281,
				"element": "O" 
			},
			{
				"x": 0.9225423844,
				"y": 6.8832655911,
				"z": -1.2818707018,
				"element": "O" 
			},
			{
				"x": -0.9997184355,
				"y": -1.1559498914,
				"z": -0.1643890312,
				"element": "C" 
			},
			{
				"x": -1.9702665215,
				"y": -0.6581952958,
				"z": -0.6826038658,
				"element": "O" 
			},
			{
				"x": -0.8527038159,
				"y": -2.5066547675,
				"z": 0.2016752662,
				"element": "N" 
			},
			{
				"x": -1.9561040608,
				"y": -3.5119931859,
				"z": 0.035174743,
				"element": "C" 
			},
			{
				"x": -2.0148361859,
				"y": -4.2587145965,
				"z": -1.171296283,
				"element": "N" 
			},
			{
				"x": -2.4509448735,
				"y": -3.5962681382,
				"z": -2.4037321801,
				"element": "C" 
			},
			{
				"x": -1.2716390744,
				"y": -3.1961572473,
				"z": -3.2969516668,
				"element": "C" 
			},
			{
				"x": -0.4219700655,
				"y": -4.3108634374,
				"z": -3.5484844367,
				"element": "O" 
			},
			{
				"x": 0.102507711,
				"y": -4.8489573223,
				"z": -2.3411123736,
				"element": "C" 
			},
			{
				"x": -1.0242633943,
				"y": -5.310962753,
				"z": -1.4097371494,
				"element": "C" 
			},
			{
				"x": 2.0733835021,
				"y": -1.5517394652,
				"z": 0.2245709442,
				"element": "H" 
			},
			{
				"x": 1.4012568096,
				"y": -1.1812989155,
				"z": 1.8339064674,
				"element": "H" 
			},
			{
				"x": 2.3134600691,
				"y": 0.8079591442,
				"z": 0.761513738,
				"element": "H" 
			},
			{
				"x": 3.7391653917,
				"y": 3.1876503295,
				"z": 0.7886869253,
				"element": "H" 
			},
			{
				"x": 3.1230197063,
				"y": 5.7245679122,
				"z": -0.0794334384,
				"element": "H" 
			},
			{
				"x": -2.8742324224,
				"y": -2.9325267783,
				"z": 0.1529387437,
				"element": "H" 
			},
			{
				"x": -1.8353943644,
				"y": -4.1918314011,
				"z": 0.8816476241,
				"element": "H" 
			},
			{
				"x": -3.0495329337,
				"y": -2.7167345886,
				"z": -2.1513571843,
				"element": "H" 
			},
			{
				"x": -3.0851680347,
				"y": -4.2973061101,
				"z": -2.9645663752,
				"element": "H" 
			},
			{
				"x": -0.698216846,
				"y": -2.3780916689,
				"z": -2.8309739874,
				"element": "H" 
			},
			{
				"x": -1.62545903,
				"y": -2.8491890997,
				"z": -4.2725734004,
				"element": "H" 
			},
			{
				"x": 0.7383181433,
				"y": -5.6929165619,
				"z": -2.6267407265,
				"element": "H" 
			},
			{
				"x": 0.7347664896,
				"y": -4.1010001097,
				"z": -1.833960514,
				"element": "H" 
			},
			{
				"x": -0.6121520162,
				"y": -5.6456726793,
				"z": -0.4534269748,
				"element": "H" 
			},
			{
				"x": -1.5332068953,
				"y": -6.1626264888,
				"z": -1.8830966064,
				"element": "H" 
			}
		],
		 "valence_orbital": [ 
			{
				"type": "occ",
				"energy": -0.29363,
				"method": "rhf"
			},
			{
				"type": "occ",
				"energy": -0.28604,
				"method": "rhf"
			},
			{
				"type": "occ",
				"energy": -0.27361,
				"method": "rhf"
			},
			{
				"type": "occ",
				"energy": -0.2417,
				"method": "rhf"
			},
			{
				"type": "occ",
				"energy": -0.21573,
				"method": "rhf"
			},
			{
				"type": "unocc",
				"energy": -0.10305,
				"method": "rhf"
			},
			{
				"type": "unocc",
				"energy": -0.05469,
				"method": "rhf"
			},
			{
				"type": "unocc",
				"energy": -0.03029,
				"method": "rhf"
			},
			{
				"type": "unocc",
				"energy": 0.03391,
				"method": "rhf"
			},
			{
				"type": "unocc",
				"energy": 0.0465,
				"method": "rhf"
			}
		],
		"cosmo_sigma_profile": { 
			"-0.025": 0.0,
			"-0.024": 0.0,
			"-0.023": 0.0,
			"-0.022": 0.0,
			"-0.021": 0.0,
			"-0.02": 0.0,
			"-0.019": 0.0,
			"-0.018": 0.0,
			"-0.017": 0.0,
			"-0.016": 0.0,
			"-0.015": 0.0,
			"-0.014": 0.0,
			"-0.013": 0.0,
			"-0.012": 0.0,
			"-0.011": 1.05537388696,
			"-0.01": 10.4357850143,
			"-0.009": 14.2407863228,
			"-0.008": 10.6373704867,
			"-0.007": 12.6208391629,
			"-0.006": 14.220266539,
			"-0.005": 21.0705411987,
			"-0.004": 28.8115218398,
			"-0.003": 30.3992102615,
			"-0.002": 29.9212008164,
			"-0.001": 25.2555760919,
			"0.0": 18.4802625602,
			"0.001": 13.7206196963,
			"0.002": 10.4644949279,
			"0.003": 8.4135586813,
			"0.004": 8.95312562746,
			"0.005": 8.97535827809,
			"0.006": 8.77995180168,
			"0.007": 11.6405474419,
			"0.008": 17.8324415693,
			"0.009": 12.7832003068,
			"0.01": 9.15434397203,
			"0.011": 10.2843168384,
			"0.012": 6.76022879994,
			"0.013": 3.67880932772,
			"0.014": 2.01684158972,
			"0.015": 0.275797376211,
			"0.016": 0.0,
			"0.017": 0.0,
			"0.018": 0.0,
			"0.019": 0.0,
			"0.02": 0.0,
			"0.021": 0.0,
			"0.022": 0.0,
			"0.023": 0.0,
			"0.024": 0.0,
			"0.025": 0.0
		}
	}
}
