{
	 "smiles": "CCN(C(C)=O)C1=CC=CC(=C1)C1=CC=NC2=C(C=NN12)C#N", 
	 "Tm": 431.15, 
	 "num_atms": 38, 
	 "gaussian": { 
		 "optdone": 1, 
		 "sigma_profile": "yes", 
		 "theory": "DFT", 
		 "functional": "B3LYP", 
		 "basiset": "6-31G**", 
		 "properties": { 
			 "R2extent": 10141.0647, 
			 "electric_dipole_moment_norm": 10.302454262, 
			 "electric_quadrupole_moment_norm": 44.9460358264, 
			 "total_energy": -1005.80534614, 
			 "HOMO_LUMO_gap": 0.15023, 
			 "cosmo_polarized_energy": -21.59, 
			 "cosmo_cavitation_energy": 43.45, 
			 "cosmo_dispersion_energy": -29.69, 
			 "cosmo_repulsion_energy": 2.24, 
			 "cosmo_total_nonelectrostatic_energy": 16.0, 
			 "SMD_solvation_energy": 7.46 
		},
		"coords": [
			{
				"x": 2.8158318724,
				"y": 1.4036870605,
				"z": -2.6753029611,
				"element": "C" 
			},
			{
				"x": 1.5206007491,
				"y": 1.9413181124,
				"z": -3.2911820346,
				"element": "C" 
			},
			{
				"x": 0.312378058,
				"y": 1.2992324131,
				"z": -2.7452883077,
				"element": "N" 
			},
			{
				"x": -0.288265945,
				"y": 0.1913116205,
				"z": -3.3336240635,
				"element": "C" 
			},
			{
				"x": 0.2422381634,
				"y": -0.2529685562,
				"z": -4.6903400354,
				"element": "C" 
			},
			{
				"x": -1.2205695892,
				"y": -0.3998703913,
				"z": -2.8045556172,
				"element": "O" 
			},
			{
				"x": -0.1548155558,
				"y": 1.7516041167,
				"z": -1.4684304863,
				"element": "C" 
			},
			{
				"x": -0.4260822442,
				"y": 3.108690096,
				"z": -1.2594163007,
				"element": "C" 
			},
			{
				"x": -0.8528747383,
				"y": 3.5536033752,
				"z": -0.0077861808,
				"element": "C" 
			},
			{
				"x": -1.0402128588,
				"y": 2.658816782,
				"z": 1.0416148054,
				"element": "C" 
			},
			{
				"x": -0.7992980961,
				"y": 1.2895791175,
				"z": 0.8339528993,
				"element": "C" 
			},
			{
				"x": -0.3391605675,
				"y": 0.8511589295,
				"z": -0.4166193244,
				"element": "C" 
			},
			{
				"x": -1.079134502,
				"y": 0.2655648025,
				"z": 1.860135538,
				"element": "C" 
			},
			{
				"x": -1.5935330472,
				"y": -0.9826960689,
				"z": 1.5581249491,
				"element": "C" 
			},
			{
				"x": -1.8415971086,
				"y": -1.9202888931,
				"z": 2.5868822202,
				"element": "C" 
			},
			{
				"x": -1.6145934223,
				"y": -1.6893174178,
				"z": 3.8677665757,
				"element": "N" 
			},
			{
				"x": -1.1164986132,
				"y": -0.4806351009,
				"z": 4.167640061,
				"element": "C" 
			},
			{
				"x": -0.7391869242,
				"y": 0.1041620016,
				"z": 5.389678486,
				"element": "C" 
			},
			{
				"x": -0.2722686558,
				"y": 1.3886782585,
				"z": 5.0418000173,
				"element": "C" 
			},
			{
				"x": -0.3307083188,
				"y": 1.6354843825,
				"z": 3.7341502389,
				"element": "N" 
			},
			{
				"x": -0.8492938734,
				"y": 0.4990615198,
				"z": 3.196909713,
				"element": "N" 
			},
			{
				"x": -0.8105269425,
				"y": -0.4780972757,
				"z": 6.6772594797,
				"element": "C" 
			},
			{
				"x": -0.8590487394,
				"y": -0.9349203003,
				"z": 7.7470789619,
				"element": "N" 
			},
			{
				"x": 2.9386384881,
				"y": 0.3351610728,
				"z": -2.8786653328,
				"element": "H" 
			},
			{
				"x": 3.6814043044,
				"y": 1.9318053301,
				"z": -3.0884134091,
				"element": "H" 
			},
			{
				"x": 2.8174994233,
				"y": 1.543982508,
				"z": -1.5903661803,
				"element": "H" 
			},
			{
				"x": 1.4469052607,
				"y": 3.0170102996,
				"z": -3.1119280348,
				"element": "H" 
			},
			{
				"x": 1.5281448844,
				"y": 1.8144706818,
				"z": -4.3743176395,
				"element": "H" 
			},
			{
				"x": 0.0811449921,
				"y": 0.5129660668,
				"z": -5.4563783978,
				"element": "H" 
			},
			{
				"x": -0.3104410248,
				"y": -1.1493705569,
				"z": -4.9693664365,
				"element": "H" 
			},
			{
				"x": 1.3115244833,
				"y": -0.4841464996,
				"z": -4.6669992303,
				"element": "H" 
			},
			{
				"x": -0.3150485581,
				"y": 3.8163305663,
				"z": -2.0749776349,
				"element": "H" 
			},
			{
				"x": -1.0560172146,
				"y": 4.6090767129,
				"z": 0.1447234843,
				"element": "H" 
			},
			{
				"x": -1.3714691557,
				"y": 3.0096941201,
				"z": 2.0095916818,
				"element": "H" 
			},
			{
				"x": -0.1240433552,
				"y": -0.1962417573,
				"z": -0.5775801309,
				"element": "H" 
			},
			{
				"x": -1.8346278183,
				"y": -1.2195619207,
				"z": 0.5293517226,
				"element": "H" 
			},
			{
				"x": -2.2519509225,
				"y": -2.8958232952,
				"z": 2.3350260519,
				"element": "H" 
			},
			{
				"x": 0.1102571123,
				"y": 2.1481880872,
				"z": 5.7101508525,
				"element": "H" 
			}
		],
		 "valence_orbital": [ 
			{
				"type": "occ",
				"energy": -0.27952,
				"method": "rhf"
			},
			{
				"type": "occ",
				"energy": -0.27403,
				"method": "rhf"
			},
			{
				"type": "occ",
				"energy": -0.2591,
				"method": "rhf"
			},
			{
				"type": "occ",
				"energy": -0.24028,
				"method": "rhf"
			},
			{
				"type": "occ",
				"energy": -0.23056,
				"method": "rhf"
			},
			{
				"type": "unocc",
				"energy": -0.08033,
				"method": "rhf"
			},
			{
				"type": "unocc",
				"energy": -0.03333,
				"method": "rhf"
			},
			{
				"type": "unocc",
				"energy": -0.02656,
				"method": "rhf"
			},
			{
				"type": "unocc",
				"energy": -0.01131,
				"method": "rhf"
			},
			{
				"type": "unocc",
				"energy": 0.00869,
				"method": "rhf"
			}
		],
		"cosmo_sigma_profile": { 
			"-0.025": 0.0,
			"-0.024": 0.0,
			"-0.023": 0.0,
			"-0.022": 0.0,
			"-0.021": 0.0,
			"-0.02": 0.0,
			"-0.019": 0.0,
			"-0.018": 0.0,
			"-0.017": 0.0,
			"-0.016": 0.0,
			"-0.015": 0.0,
			"-0.014": 0.0,
			"-0.013": 0.0,
			"-0.012": 0.0,
			"-0.011": 0.0,
			"-0.01": 1.15695997846,
			"-0.009": 2.92699502372,
			"-0.008": 6.59879986196,
			"-0.007": 11.6877346925,
			"-0.006": 18.3666769454,
			"-0.005": 27.8656496568,
			"-0.004": 27.4701537922,
			"-0.003": 30.2448427929,
			"-0.002": 33.8568368102,
			"-0.001": 34.6630825381,
			"0.0": 31.1251726382,
			"0.001": 18.2518137742,
			"0.002": 13.5756922023,
			"0.003": 14.898471592,
			"0.004": 11.8502933077,
			"0.005": 7.72326318029,
			"0.006": 7.54762010115,
			"0.007": 7.81260887641,
			"0.008": 6.67102103517,
			"0.009": 6.97795687059,
			"0.01": 6.6367396567,
			"0.011": 5.74610440536,
			"0.012": 6.11504938066,
			"0.013": 6.00995044347,
			"0.014": 2.80769302653,
			"0.015": 0.675026538199,
			"0.016": 0.0,
			"0.017": 0.0,
			"0.018": 0.0,
			"0.019": 0.0,
			"0.02": 0.0,
			"0.021": 0.0,
			"0.022": 0.0,
			"0.023": 0.0,
			"0.024": 0.0,
			"0.025": 0.0
		}
	}
}
