{
	 "smiles": "NC1=CC=NN1C1CCCCC1", 
	 "Tm": 354.15, 
	 "num_atms": 27, 
	 "gaussian": { 
		 "optdone": 1, 
		 "sigma_profile": "yes", 
		 "theory": "DFT", 
		 "functional": "B3LYP", 
		 "basiset": "6-31G**", 
		 "properties": { 
			 "R2extent": 2322.1505, 
			 "electric_dipole_moment_norm": 3.21426117638, 
			 "electric_quadrupole_moment_norm": 8.77095433519, 
			 "total_energy": -516.24533446, 
			 "HOMO_LUMO_gap": 0.24297, 
			 "cosmo_polarized_energy": -11.27, 
			 "cosmo_cavitation_energy": 27.53, 
			 "cosmo_dispersion_energy": -20.38, 
			 "cosmo_repulsion_energy": 1.63, 
			 "cosmo_total_nonelectrostatic_energy": 8.78, 
			 "SMD_solvation_energy": 3.19 
		},
		"coords": [
			{
				"x": 1.9901727881,
				"y": -0.9791410662,
				"z": -1.3944077064,
				"element": "N" 
			},
			{
				"x": 1.686720474,
				"y": 0.3787883252,
				"z": -1.1947533118,
				"element": "C" 
			},
			{
				"x": 2.1480498597,
				"y": 1.5120735606,
				"z": -1.8486864427,
				"element": "C" 
			},
			{
				"x": 1.4219211268,
				"y": 2.5729180317,
				"z": -1.268730049,
				"element": "C" 
			},
			{
				"x": 0.5842722442,
				"y": 2.152354217,
				"z": -0.3273427696,
				"element": "N" 
			},
			{
				"x": 0.7437027067,
				"y": 0.7957018509,
				"z": -0.2968496018,
				"element": "N" 
			},
			{
				"x": -0.1020465399,
				"y": 0.0258179954,
				"z": 0.6201353874,
				"element": "C" 
			},
			{
				"x": -1.0255825996,
				"y": -0.9600547803,
				"z": -0.1177520859,
				"element": "C" 
			},
			{
				"x": -1.9565177381,
				"y": -1.6786642667,
				"z": 0.8727486931,
				"element": "C" 
			},
			{
				"x": -1.1696749818,
				"y": -2.3707306977,
				"z": 1.9965180088,
				"element": "C" 
			},
			{
				"x": -0.2439754755,
				"y": -1.3808326259,
				"z": 2.7201268059,
				"element": "C" 
			},
			{
				"x": 0.6992663331,
				"y": -0.6700127779,
				"z": 1.7357406503,
				"element": "C" 
			},
			{
				"x": 2.3606923969,
				"y": -1.4322224165,
				"z": -0.5649997741,
				"element": "H" 
			},
			{
				"x": 2.6556493535,
				"y": -1.0877354864,
				"z": -2.1505020713,
				"element": "H" 
			},
			{
				"x": 2.9050625493,
				"y": 1.5531194069,
				"z": -2.6185748911,
				"element": "H" 
			},
			{
				"x": 1.4841622754,
				"y": 3.6299052974,
				"z": -1.4938422972,
				"element": "H" 
			},
			{
				"x": -0.7211629323,
				"y": 0.7991586033,
				"z": 1.0859706156,
				"element": "H" 
			},
			{
				"x": -0.4155287597,
				"y": -1.690382714,
				"z": -0.661465591,
				"element": "H" 
			},
			{
				"x": -1.6078614783,
				"y": -0.4112873439,
				"z": -0.8660333133,
				"element": "H" 
			},
			{
				"x": -2.6482013856,
				"y": -0.9481429784,
				"z": 1.315906556,
				"element": "H" 
			},
			{
				"x": -2.5767847285,
				"y": -2.4066738234,
				"z": 0.3371362137,
				"element": "H" 
			},
			{
				"x": -0.5659867255,
				"y": -3.1841502957,
				"z": 1.5690700615,
				"element": "H" 
			},
			{
				"x": -1.858219999,
				"y": -2.8363824734,
				"z": 2.7114668729,
				"element": "H" 
			},
			{
				"x": 0.3410195358,
				"y": -1.8946534003,
				"z": 3.4918090548,
				"element": "H" 
			},
			{
				"x": -0.8527832311,
				"y": -0.6283147178,
				"z": 3.2405401601,
				"element": "H" 
			},
			{
				"x": 1.3786398158,
				"y": -1.417151633,
				"z": 1.3023176451,
				"element": "H" 
			},
			{
				"x": 1.3212951156,
				"y": 0.068796209,
				"z": 2.25285318,
				"element": "H" 
			}
		],
		 "valence_orbital": [ 
			{
				"type": "occ",
				"energy": -0.30703,
				"method": "rhf"
			},
			{
				"type": "occ",
				"energy": -0.30181,
				"method": "rhf"
			},
			{
				"type": "occ",
				"energy": -0.26785,
				"method": "rhf"
			},
			{
				"type": "occ",
				"energy": -0.23046,
				"method": "rhf"
			},
			{
				"type": "occ",
				"energy": -0.20306,
				"method": "rhf"
			},
			{
				"type": "unocc",
				"energy": 0.03991,
				"method": "rhf"
			},
			{
				"type": "unocc",
				"energy": 0.0642,
				"method": "rhf"
			},
			{
				"type": "unocc",
				"energy": 0.08695,
				"method": "rhf"
			},
			{
				"type": "unocc",
				"energy": 0.08911,
				"method": "rhf"
			},
			{
				"type": "unocc",
				"energy": 0.10275,
				"method": "rhf"
			}
		],
		"cosmo_sigma_profile": { 
			"-0.025": 0.0,
			"-0.024": 0.0,
			"-0.023": 0.0,
			"-0.022": 0.0,
			"-0.021": 0.0,
			"-0.02": 0.0,
			"-0.019": 0.0,
			"-0.018": 0.0,
			"-0.017": 0.0,
			"-0.016": 0.0,
			"-0.015": 0.0,
			"-0.014": 0.0,
			"-0.013": 0.557076372777,
			"-0.012": 2.62806364648,
			"-0.011": 2.37514386302,
			"-0.01": 3.55247692793,
			"-0.009": 2.30436817025,
			"-0.008": 2.5369856969,
			"-0.007": 3.14179349221,
			"-0.006": 4.83195377391,
			"-0.005": 5.28683462074,
			"-0.004": 7.05033562109,
			"-0.003": 18.1583953089,
			"-0.002": 28.8710092924,
			"-0.001": 29.6271997729,
			"0.0": 30.1004203514,
			"0.001": 17.4786220688,
			"0.002": 6.03463794694,
			"0.003": 6.55339764609,
			"0.004": 4.67373941364,
			"0.005": 7.31939813327,
			"0.006": 7.1187832783,
			"0.007": 6.99318345459,
			"0.008": 3.00981392163,
			"0.009": 2.37181253738,
			"0.01": 2.63982132738,
			"0.011": 1.9089903288,
			"0.012": 1.96417370904,
			"0.013": 1.59288502414,
			"0.014": 0.970565800699,
			"0.015": 1.01948417029,
			"0.016": 1.04999336435,
			"0.017": 0.595994253749,
			"0.018": 0.0,
			"0.019": 0.0,
			"0.02": 0.0,
			"0.021": 0.0,
			"0.022": 0.0,
			"0.023": 0.0,
			"0.024": 0.0,
			"0.025": 0.0
		}
	}
}
