{
	 "smiles": "CC1(C)OC2OC(C(COC(=O)C3=CC=CC=C3)OC(=O)C3=CC=CC=C3)C(OC(=O)C3=CC=CC=C3)C2O1", 
	 "Tm": 472.15, 
	 "num_atms": 67, 
	 "gaussian": { 
		 "optdone": 1, 
		 "sigma_profile": "yes", 
		 "theory": "DFT", 
		 "functional": "B3LYP", 
		 "basiset": "6-31G**", 
		 "properties": { 
			 "R2extent": 18531.1644, 
			 "electric_dipole_moment_norm": 4.37164013729, 
			 "electric_quadrupole_moment_norm": 9.82957246018, 
			 "total_energy": -1837.11093148, 
			 "HOMO_LUMO_gap": 0.20047, 
			 "cosmo_polarized_energy": -24.18, 
			 "cosmo_cavitation_energy": 70.65, 
			 "cosmo_dispersion_energy": -42.16, 
			 "cosmo_repulsion_energy": 3.2, 
			 "cosmo_total_nonelectrostatic_energy": 31.69, 
			 "SMD_solvation_energy": 13.17 
		},
		"coords": [
			{
				"x": -0.6130962486,
				"y": -3.1470109547,
				"z": -3.3405293312,
				"element": "C" 
			},
			{
				"x": -0.8048737497,
				"y": -4.1611465817,
				"z": -2.2193031459,
				"element": "C" 
			},
			{
				"x": -1.7067229659,
				"y": -5.3278393116,
				"z": -2.6142783097,
				"element": "C" 
			},
			{
				"x": 0.4612602044,
				"y": -4.6950033092,
				"z": -1.8020230571,
				"element": "O" 
			},
			{
				"x": 0.77280038,
				"y": -4.2781832814,
				"z": -0.5043556232,
				"element": "C" 
			},
			{
				"x": 1.7041666893,
				"y": -3.203202641,
				"z": -0.4340100377,
				"element": "O" 
			},
			{
				"x": 1.0352878903,
				"y": -1.9650853555,
				"z": -0.1397308411,
				"element": "C" 
			},
			{
				"x": 2.0746255041,
				"y": -1.0871103742,
				"z": 0.563328128,
				"element": "C" 
			},
			{
				"x": 3.1451608765,
				"y": -0.5399195629,
				"z": -0.3753149213,
				"element": "C" 
			},
			{
				"x": 2.6358034654,
				"y": 0.50600195,
				"z": -1.2227457185,
				"element": "O" 
			},
			{
				"x": 2.3521146825,
				"y": 0.2018766534,
				"z": -2.5137915318,
				"element": "C" 
			},
			{
				"x": 2.4559549457,
				"y": -0.9162744054,
				"z": -2.9807342005,
				"element": "O" 
			},
			{
				"x": 1.9113802809,
				"y": 1.3969739733,
				"z": -3.2862659494,
				"element": "C" 
			},
			{
				"x": 1.8216890087,
				"y": 2.6723851417,
				"z": -2.7111860018,
				"element": "C" 
			},
			{
				"x": 1.4095035207,
				"y": 3.7552014573,
				"z": -3.4860175254,
				"element": "C" 
			},
			{
				"x": 1.0863211191,
				"y": 3.5714707684,
				"z": -4.8327860686,
				"element": "C" 
			},
			{
				"x": 1.1751849388,
				"y": 2.3008152459,
				"z": -5.4078430216,
				"element": "C" 
			},
			{
				"x": 1.5864756303,
				"y": 1.2160970678,
				"z": -4.6376530703,
				"element": "C" 
			},
			{
				"x": 1.4263801771,
				"y": 0.0362306817,
				"z": 1.1941354609,
				"element": "O" 
			},
			{
				"x": 1.260052655,
				"y": 0.0007975281,
				"z": 2.5413249766,
				"element": "C" 
			},
			{
				"x": 1.6029511864,
				"y": -0.9353402241,
				"z": 3.2391582586,
				"element": "O" 
			},
			{
				"x": 0.6164987514,
				"y": 1.2411295287,
				"z": 3.0534930904,
				"element": "C" 
			},
			{
				"x": 0.1846254556,
				"y": 2.2657283474,
				"z": 2.1987199522,
				"element": "C" 
			},
			{
				"x": -0.4134964107,
				"y": 3.4055483812,
				"z": 2.7332878356,
				"element": "C" 
			},
			{
				"x": -0.5793501695,
				"y": 3.5289608798,
				"z": 4.1149962235,
				"element": "C" 
			},
			{
				"x": -0.1494657103,
				"y": 2.5082802784,
				"z": 4.9677441428,
				"element": "C" 
			},
			{
				"x": 0.4451564468,
				"y": 1.3655880317,
				"z": 4.4392967993,
				"element": "C" 
			},
			{
				"x": -0.1341009628,
				"y": -2.4391080924,
				"z": 0.7515335782,
				"element": "C" 
			},
			{
				"x": -1.2382012283,
				"y": -1.5735009281,
				"z": 1.0378862209,
				"element": "O" 
			},
			{
				"x": -1.7468659245,
				"y": -0.6671879803,
				"z": 0.161748253,
				"element": "C" 
			},
			{
				"x": -1.2482487984,
				"y": -0.3575836057,
				"z": -0.8998675159,
				"element": "O" 
			},
			{
				"x": -3.0041564156,
				"y": -0.0585255482,
				"z": 0.6909903937,
				"element": "C" 
			},
			{
				"x": -3.5634728413,
				"y": -0.421943542,
				"z": 1.9240359529,
				"element": "C" 
			},
			{
				"x": -4.7425786255,
				"y": 0.1822839097,
				"z": 2.357600911,
				"element": "C" 
			},
			{
				"x": -5.3688144068,
				"y": 1.1477166375,
				"z": 1.5657727716,
				"element": "C" 
			},
			{
				"x": -4.8138810304,
				"y": 1.5113680989,
				"z": 0.3356891146,
				"element": "C" 
			},
			{
				"x": -3.6355150519,
				"y": 0.91132247,
				"z": -0.1005171359,
				"element": "C" 
			},
			{
				"x": -0.5530047627,
				"y": -3.7479905703,
				"z": 0.0706762854,
				"element": "C" 
			},
			{
				"x": -1.3540688249,
				"y": -3.4987087397,
				"z": -1.0673386356,
				"element": "O" 
			},
			{
				"x": -0.2699373125,
				"y": -3.6555026794,
				"z": -4.2459852053,
				"element": "H" 
			},
			{
				"x": -1.5599214501,
				"y": -2.6440284644,
				"z": -3.5543490066,
				"element": "H" 
			},
			{
				"x": 0.1331301593,
				"y": -2.401090193,
				"z": -3.0625849679,
				"element": "H" 
			},
			{
				"x": -1.2640393187,
				"y": -5.8845078164,
				"z": -3.4447914775,
				"element": "H" 
			},
			{
				"x": -2.6890585908,
				"y": -4.9584521783,
				"z": -2.9211988119,
				"element": "H" 
			},
			{
				"x": -1.8336645004,
				"y": -6.0061842128,
				"z": -1.7663941184,
				"element": "H" 
			},
			{
				"x": 1.2294842721,
				"y": -5.1227668934,
				"z": 0.0174938326,
				"element": "H" 
			},
			{
				"x": 0.6637535355,
				"y": -1.4902294671,
				"z": -1.0449857948,
				"element": "H" 
			},
			{
				"x": 2.5630420815,
				"y": -1.6944760697,
				"z": 1.3311155651,
				"element": "H" 
			},
			{
				"x": 3.9428802926,
				"y": -0.0738099674,
				"z": 0.2081774392,
				"element": "H" 
			},
			{
				"x": 3.543848661,
				"y": -1.3553179882,
				"z": -0.9827184715,
				"element": "H" 
			},
			{
				"x": 2.0751178542,
				"y": 2.8051425685,
				"z": -1.6659071617,
				"element": "H" 
			},
			{
				"x": 1.3407416946,
				"y": 4.7432004903,
				"z": -3.0401822147,
				"element": "H" 
			},
			{
				"x": 0.7657643519,
				"y": 4.4178857846,
				"z": -5.4337842164,
				"element": "H" 
			},
			{
				"x": 0.9239342243,
				"y": 2.1578325999,
				"z": -6.454663814,
				"element": "H" 
			},
			{
				"x": 1.6643130564,
				"y": 0.220416676,
				"z": -5.0607389798,
				"element": "H" 
			},
			{
				"x": 0.3150907031,
				"y": 2.1579137916,
				"z": 1.128099272,
				"element": "H" 
			},
			{
				"x": -0.7524355779,
				"y": 4.1973608931,
				"z": 2.0719448355,
				"element": "H" 
			},
			{
				"x": -1.0449714101,
				"y": 4.4197123541,
				"z": 4.5273739435,
				"element": "H" 
			},
			{
				"x": -0.2793351879,
				"y": 2.6046566306,
				"z": 6.0416288947,
				"element": "H" 
			},
			{
				"x": 0.7853187321,
				"y": 0.5585906148,
				"z": 5.0793834892,
				"element": "H" 
			},
			{
				"x": 0.2702152137,
				"y": -2.6801199578,
				"z": 1.740041609,
				"element": "H" 
			},
			{
				"x": -3.0728185655,
				"y": -1.1718104196,
				"z": 2.5330025954,
				"element": "H" 
			},
			{
				"x": -5.1735262875,
				"y": -0.1004359528,
				"z": 3.3135801883,
				"element": "H" 
			},
			{
				"x": -6.2884712768,
				"y": 1.6153761527,
				"z": 1.9062410429,
				"element": "H" 
			},
			{
				"x": -5.3009187574,
				"y": 2.2607233616,
				"z": -0.2814721649,
				"element": "H" 
			},
			{
				"x": -3.1860922182,
				"y": 1.1754955127,
				"z": -1.0517122378,
				"element": "H" 
			},
			{
				"x": -1.0514240595,
				"y": -4.4402871932,
				"z": 0.7602592292,
				"element": "H" 
			}
		],
		 "valence_orbital": [ 
			{
				"type": "occ",
				"energy": -0.25712,
				"method": "rhf"
			},
			{
				"type": "occ",
				"energy": -0.25695,
				"method": "rhf"
			},
			{
				"type": "occ",
				"energy": -0.25569,
				"method": "rhf"
			},
			{
				"type": "occ",
				"energy": -0.25547,
				"method": "rhf"
			},
			{
				"type": "occ",
				"energy": -0.24895,
				"method": "rhf"
			},
			{
				"type": "unocc",
				"energy": -0.04848,
				"method": "rhf"
			},
			{
				"type": "unocc",
				"energy": -0.04384,
				"method": "rhf"
			},
			{
				"type": "unocc",
				"energy": -0.04319,
				"method": "rhf"
			},
			{
				"type": "unocc",
				"energy": -0.00837,
				"method": "rhf"
			},
			{
				"type": "unocc",
				"energy": -0.00548,
				"method": "rhf"
			}
		],
		"cosmo_sigma_profile": { 
			"-0.025": 0.0,
			"-0.024": 0.0,
			"-0.023": 0.0,
			"-0.022": 0.0,
			"-0.021": 0.0,
			"-0.02": 0.0,
			"-0.019": 0.0,
			"-0.018": 0.0,
			"-0.017": 0.0,
			"-0.016": 0.0,
			"-0.015": 0.0,
			"-0.014": 0.0,
			"-0.013": 0.0,
			"-0.012": 0.0,
			"-0.011": 0.0,
			"-0.01": 0.0,
			"-0.009": 0.805075564071,
			"-0.008": 4.63728989208,
			"-0.007": 17.8283668038,
			"-0.006": 33.9461726038,
			"-0.005": 42.6748989385,
			"-0.004": 51.3804900273,
			"-0.003": 36.7415988313,
			"-0.002": 35.6424282079,
			"-0.001": 38.2703369257,
			"0.0": 44.2581959663,
			"0.001": 47.9736888192,
			"0.002": 46.4973948793,
			"0.003": 45.703196578,
			"0.004": 45.5675422454,
			"0.005": 13.4136526443,
			"0.006": 10.4301662121,
			"0.007": 9.04993694667,
			"0.008": 9.1806651054,
			"0.009": 8.79474076661,
			"0.01": 9.26623124382,
			"0.011": 8.91242354414,
			"0.012": 2.1159969973,
			"0.013": 0.0,
			"0.014": 0.0,
			"0.015": 0.0,
			"0.016": 0.0,
			"0.017": 0.0,
			"0.018": 0.0,
			"0.019": 0.0,
			"0.02": 0.0,
			"0.021": 0.0,
			"0.022": 0.0,
			"0.023": 0.0,
			"0.024": 0.0,
			"0.025": 0.0
		}
	}
}
