{
	 "smiles": "CC(Cl)C(=O)NC1=C(Cl)C=C(Cl)C=C1Cl", 
	 "Tm": 427.15, 
	 "num_atms": 22, 
	 "gaussian": { 
		 "optdone": 1, 
		 "sigma_profile": "yes", 
		 "theory": "DFT", 
		 "functional": "B3LYP", 
		 "basiset": "6-31G**", 
		 "properties": { 
			 "R2extent": 7627.1058, 
			 "electric_dipole_moment_norm": 1.19981734443, 
			 "electric_quadrupole_moment_norm": 7.01692933412, 
			 "total_energy": -2317.93617532, 
			 "HOMO_LUMO_gap": 0.20977, 
			 "cosmo_polarized_energy": -10.09, 
			 "cosmo_cavitation_energy": 33.73, 
			 "cosmo_dispersion_energy": -23.83, 
			 "cosmo_repulsion_energy": 1.89, 
			 "cosmo_total_nonelectrostatic_energy": 11.79, 
			 "SMD_solvation_energy": 5.2 
		},
		"coords": [
			{
				"x": 1.4556195728,
				"y": -0.8342781418,
				"z": 2.5767261274,
				"element": "C" 
			},
			{
				"x": 1.4447291725,
				"y": 0.64112182,
				"z": 2.1849270201,
				"element": "C" 
			},
			{
				"x": 3.1538911847,
				"y": 1.3111066052,
				"z": 2.2074551709,
				"element": "Cl" 
			},
			{
				"x": 0.7054394625,
				"y": 0.8442639953,
				"z": 0.8526476524,
				"element": "C" 
			},
			{
				"x": -0.4908034871,
				"y": 0.6165640463,
				"z": 0.8227436086,
				"element": "O" 
			},
			{
				"x": 1.4506111829,
				"y": 1.2230528046,
				"z": -0.2373396411,
				"element": "N" 
			},
			{
				"x": 0.8795931875,
				"y": 1.4847141686,
				"z": -1.4999223979,
				"element": "C" 
			},
			{
				"x": 0.2808487579,
				"y": 0.4748419277,
				"z": -2.2757747907,
				"element": "C" 
			},
			{
				"x": 0.2801765668,
				"y": -1.1797820756,
				"z": -1.7249709656,
				"element": "Cl" 
			},
			{
				"x": -0.2878644234,
				"y": 0.7472683559,
				"z": -3.5191142932,
				"element": "C" 
			},
			{
				"x": -0.2302216405,
				"y": 2.0453923561,
				"z": -4.0182644116,
				"element": "C" 
			},
			{
				"x": -0.9314246829,
				"y": 2.3940709551,
				"z": -5.5837969036,
				"element": "Cl" 
			},
			{
				"x": 0.3837373418,
				"y": 3.0708599909,
				"z": -3.3036263073,
				"element": "C" 
			},
			{
				"x": 0.9224664197,
				"y": 2.7767749039,
				"z": -2.0542908092,
				"element": "C" 
			},
			{
				"x": 1.6820083141,
				"y": 4.0715385969,
				"z": -1.1517499375,
				"element": "Cl" 
			},
			{
				"x": 2.037261058,
				"y": -1.4230563826,
				"z": 1.8626848748,
				"element": "H" 
			},
			{
				"x": 0.4242888764,
				"y": -1.1967962675,
				"z": 2.5766676565,
				"element": "H" 
			},
			{
				"x": 1.8830619787,
				"y": -0.9632737431,
				"z": 3.573223541,
				"element": "H" 
			},
			{
				"x": 0.9060684857,
				"y": 1.2325422334,
				"z": 2.9265016,
				"element": "H" 
			},
			{
				"x": 2.3834068386,
				"y": 1.5742090305,
				"z": -0.0578041826,
				"element": "H" 
			},
			{
				"x": -0.7494472796,
				"y": -0.0475328706,
				"z": -4.0909474224,
				"element": "H" 
			},
			{
				"x": 0.4328531131,
				"y": 4.0769976908,
				"z": -3.6997751889,
				"element": "H" 
			}
		],
		 "valence_orbital": [ 
			{
				"type": "occ",
				"energy": -0.31522,
				"method": "rhf"
			},
			{
				"type": "occ",
				"energy": -0.2995,
				"method": "rhf"
			},
			{
				"type": "occ",
				"energy": -0.2717,
				"method": "rhf"
			},
			{
				"type": "occ",
				"energy": -0.26803,
				"method": "rhf"
			},
			{
				"type": "occ",
				"energy": -0.25572,
				"method": "rhf"
			},
			{
				"type": "unocc",
				"energy": -0.04595,
				"method": "rhf"
			},
			{
				"type": "unocc",
				"energy": -0.0423,
				"method": "rhf"
			},
			{
				"type": "unocc",
				"energy": -0.02076,
				"method": "rhf"
			},
			{
				"type": "unocc",
				"energy": -0.00021,
				"method": "rhf"
			},
			{
				"type": "unocc",
				"energy": 0.01178,
				"method": "rhf"
			}
		],
		"cosmo_sigma_profile": { 
			"-0.025": 0.0,
			"-0.024": 0.0,
			"-0.023": 0.0,
			"-0.022": 0.0,
			"-0.021": 0.0,
			"-0.02": 0.0,
			"-0.019": 0.0,
			"-0.018": 0.0,
			"-0.017": 0.0,
			"-0.016": 0.0,
			"-0.015": 0.0,
			"-0.014": 0.00467253990343,
			"-0.013": 0.757184236311,
			"-0.012": 0.5612794018,
			"-0.011": 0.439426373742,
			"-0.01": 0.954963013088,
			"-0.009": 3.98053352938,
			"-0.008": 6.94518254457,
			"-0.007": 5.66364598773,
			"-0.006": 6.3724893957,
			"-0.005": 11.8389813167,
			"-0.004": 15.0218292556,
			"-0.003": 17.8477882607,
			"-0.002": 22.4939082786,
			"-0.001": 33.7820323387,
			"0.0": 32.3756164218,
			"0.001": 23.6226756927,
			"0.002": 22.3665027271,
			"0.003": 26.6586333518,
			"0.004": 18.8824402143,
			"0.005": 9.25576394315,
			"0.006": 3.15294302972,
			"0.007": 1.44448156642,
			"0.008": 2.33422300239,
			"0.009": 1.47775020596,
			"0.01": 2.18555066157,
			"0.011": 2.75991593886,
			"0.012": 4.45221885043,
			"0.013": 1.01469871817,
			"0.014": 0.0,
			"0.015": 0.0,
			"0.016": 0.0,
			"0.017": 0.0,
			"0.018": 0.0,
			"0.019": 0.0,
			"0.02": 0.0,
			"0.021": 0.0,
			"0.022": 0.0,
			"0.023": 0.0,
			"0.024": 0.0,
			"0.025": 0.0
		}
	}
}
