{
	 "smiles": "CN1CCCN(CC1)C1=C(Cl)C=C(C=C1)C#N", 
	 "Tm": 314.15, 
	 "num_atms": 33, 
	 "gaussian": { 
		 "optdone": 1, 
		 "sigma_profile": "yes", 
		 "theory": "DFT", 
		 "functional": "B3LYP", 
		 "basiset": "6-31G**", 
		 "properties": { 
			 "R2extent": 6315.471, 
			 "electric_dipole_moment_norm": 7.075541657, 
			 "electric_quadrupole_moment_norm": 29.8754297889, 
			 "total_energy": -1129.4302269, 
			 "HOMO_LUMO_gap": 0.16707, 
			 "cosmo_polarized_energy": -10.74, 
			 "cosmo_cavitation_energy": 36.33, 
			 "cosmo_dispersion_energy": -25.72, 
			 "cosmo_repulsion_energy": 1.99, 
			 "cosmo_total_nonelectrostatic_energy": 12.61, 
			 "SMD_solvation_energy": 5.06 
		},
		"coords": [
			{
				"x": 2.9223151153,
				"y": -1.3785040956,
				"z": 1.5590587927,
				"element": "C" 
			},
			{
				"x": 1.7494685844,
				"y": -1.2607817753,
				"z": 0.706121421,
				"element": "N" 
			},
			{
				"x": 1.697789757,
				"y": -2.2700487253,
				"z": -0.3503012849,
				"element": "C" 
			},
			{
				"x": 0.8223534683,
				"y": -1.8207268159,
				"z": -1.5622811067,
				"element": "C" 
			},
			{
				"x": 0.224944487,
				"y": -0.4167542518,
				"z": -1.4175172319,
				"element": "C" 
			},
			{
				"x": -0.8818292698,
				"y": -0.3785186537,
				"z": -0.4493300185,
				"element": "N" 
			},
			{
				"x": -0.7713606177,
				"y": -1.2899815376,
				"z": 0.6960086685,
				"element": "C" 
			},
			{
				"x": 0.528280214,
				"y": -1.1727239556,
				"z": 1.5055991775,
				"element": "C" 
			},
			{
				"x": -1.6295526287,
				"y": 0.7919527698,
				"z": -0.358300303,
				"element": "C" 
			},
			{
				"x": -2.9910606162,
				"y": 0.8125404062,
				"z": 0.052986412,
				"element": "C" 
			},
			{
				"x": -3.8753044004,
				"y": -0.6785874772,
				"z": 0.3682125315,
				"element": "Cl" 
			},
			{
				"x": -3.7176180079,
				"y": 1.9915577068,
				"z": 0.1382073753,
				"element": "C" 
			},
			{
				"x": -3.1337156035,
				"y": 3.2151214559,
				"z": -0.2271021507,
				"element": "C" 
			},
			{
				"x": -1.8098111429,
				"y": 3.2196695746,
				"z": -0.6921191023,
				"element": "C" 
			},
			{
				"x": -1.0866340341,
				"y": 2.0384903719,
				"z": -0.7508683672,
				"element": "C" 
			},
			{
				"x": -3.8883515107,
				"y": 4.4275651031,
				"z": -0.1448635018,
				"element": "C" 
			},
			{
				"x": -4.4985150671,
				"y": 5.41660293,
				"z": -0.0770417066,
				"element": "N" 
			},
			{
				"x": 2.9460546086,
				"y": -2.3149566957,
				"z": 2.1491560805,
				"element": "H" 
			},
			{
				"x": 3.8326572821,
				"y": -1.3344073879,
				"z": 0.9531538498,
				"element": "H" 
			},
			{
				"x": 2.9465995957,
				"y": -0.541892636,
				"z": 2.2655530586,
				"element": "H" 
			},
			{
				"x": 1.3532379984,
				"y": -3.2520804118,
				"z": 0.0247221429,
				"element": "H" 
			},
			{
				"x": 2.7259559492,
				"y": -2.4232158461,
				"z": -0.6916495371,
				"element": "H" 
			},
			{
				"x": 1.4440497929,
				"y": -1.8043427762,
				"z": -2.4636272018,
				"element": "H" 
			},
			{
				"x": 0.0226070069,
				"y": -2.5425780058,
				"z": -1.7573183846,
				"element": "H" 
			},
			{
				"x": -0.1721898879,
				"y": -0.0916880102,
				"z": -2.3859172023,
				"element": "H" 
			},
			{
				"x": 1.0377084983,
				"y": 0.2647068239,
				"z": -1.1353807497,
				"element": "H" 
			},
			{
				"x": -1.5976072049,
				"y": -1.1043908647,
				"z": 1.3792301751,
				"element": "H" 
			},
			{
				"x": -0.8960242457,
				"y": -2.3210378453,
				"z": 0.3476000466,
				"element": "H" 
			},
			{
				"x": 0.5453685916,
				"y": -0.2184316229,
				"z": 2.0476018294,
				"element": "H" 
			},
			{
				"x": 0.4839657633,
				"y": -1.9757012321,
				"z": 2.2710682393,
				"element": "H" 
			},
			{
				"x": -4.7531229923,
				"y": 1.9568974293,
				"z": 0.455723761,
				"element": "H" 
			},
			{
				"x": -1.3461845316,
				"y": 4.1547153756,
				"z": -0.9879792255,
				"element": "H" 
			},
			{
				"x": -0.0575749514,
				"y": 2.0762306757,
				"z": -1.0852064869,
				"element": "H" 
			}
		],
		 "valence_orbital": [ 
			{
				"type": "occ",
				"energy": -0.31619,
				"method": "rhf"
			},
			{
				"type": "occ",
				"energy": -0.28347,
				"method": "rhf"
			},
			{
				"type": "occ",
				"energy": -0.26319,
				"method": "rhf"
			},
			{
				"type": "occ",
				"energy": -0.22429,
				"method": "rhf"
			},
			{
				"type": "occ",
				"energy": -0.21068,
				"method": "rhf"
			},
			{
				"type": "unocc",
				"energy": -0.04361,
				"method": "rhf"
			},
			{
				"type": "unocc",
				"energy": -0.02539,
				"method": "rhf"
			},
			{
				"type": "unocc",
				"energy": 0.01826,
				"method": "rhf"
			},
			{
				"type": "unocc",
				"energy": 0.04499,
				"method": "rhf"
			},
			{
				"type": "unocc",
				"energy": 0.0648,
				"method": "rhf"
			}
		],
		"cosmo_sigma_profile": { 
			"-0.025": 0.0,
			"-0.024": 0.0,
			"-0.023": 0.0,
			"-0.022": 0.0,
			"-0.021": 0.0,
			"-0.02": 0.0,
			"-0.019": 0.0,
			"-0.018": 0.0,
			"-0.017": 0.0,
			"-0.016": 0.0,
			"-0.015": 0.0,
			"-0.014": 0.0,
			"-0.013": 0.0,
			"-0.012": 0.0,
			"-0.011": 0.0,
			"-0.01": 0.0,
			"-0.009": 0.410267913794,
			"-0.008": 3.03528965381,
			"-0.007": 5.83541788653,
			"-0.006": 6.118948155,
			"-0.005": 8.00573746507,
			"-0.004": 23.1730513505,
			"-0.003": 34.0069696683,
			"-0.002": 36.0114573378,
			"-0.001": 38.3263161659,
			"0.0": 32.719430143,
			"0.001": 21.8499729024,
			"0.002": 19.8877858078,
			"0.003": 12.729171576,
			"0.004": 9.31237367214,
			"0.005": 7.02028803702,
			"0.006": 5.28851685146,
			"0.007": 4.30567500778,
			"0.008": 4.04198378186,
			"0.009": 4.21190105462,
			"0.01": 3.92391925934,
			"0.011": 3.53190393509,
			"0.012": 2.89492310998,
			"0.013": 1.97997933895,
			"0.014": 0.394379156875,
			"0.015": 0.0,
			"0.016": 0.0,
			"0.017": 0.0,
			"0.018": 0.0,
			"0.019": 0.0,
			"0.02": 0.0,
			"0.021": 0.0,
			"0.022": 0.0,
			"0.023": 0.0,
			"0.024": 0.0,
			"0.025": 0.0
		}
	}
}
