{
	 "smiles": "CCCCCCCCCCCCCC(C)CC", 
	 "Tm": 258.15, 
	 "num_atms": 53, 
	 "gaussian": { 
		 "optdone": 1, 
		 "sigma_profile": "yes", 
		 "theory": "DFT", 
		 "functional": "B3LYP", 
		 "basiset": "6-31G**", 
		 "properties": { 
			 "R2extent": 8632.8217, 
			 "electric_dipole_moment_norm": 0.0465295604965, 
			 "electric_quadrupole_moment_norm": 0.274927444974, 
			 "total_energy": -669.562560784, 
			 "HOMO_LUMO_gap": 0.37081, 
			 "cosmo_polarized_energy": -1.16, 
			 "cosmo_cavitation_energy": 50.45, 
			 "cosmo_dispersion_energy": -32.85, 
			 "cosmo_repulsion_energy": 2.7, 
			 "cosmo_total_nonelectrostatic_energy": 20.3, 
			 "SMD_solvation_energy": 6.82 
		},
		"coords": [
			{
				"x": 1.8422164771,
				"y": 4.1141098371,
				"z": -1.0751500106,
				"element": "C" 
			},
			{
				"x": 0.6139495002,
				"y": 4.8777166062,
				"z": -1.584206777,
				"element": "C" 
			},
			{
				"x": -0.7205001386,
				"y": 4.4107817945,
				"z": -0.9754679304,
				"element": "C" 
			},
			{
				"x": -1.12210377,
				"y": 2.9549105954,
				"z": -1.2721111828,
				"element": "C" 
			},
			{
				"x": -1.366736762,
				"y": 2.6565141132,
				"z": -2.7592983112,
				"element": "C" 
			},
			{
				"x": -1.9301149099,
				"y": 1.2539698843,
				"z": -3.0441352123,
				"element": "C" 
			},
			{
				"x": -0.9733431772,
				"y": 0.0968183673,
				"z": -2.7214403758,
				"element": "C" 
			},
			{
				"x": -1.5514249152,
				"y": -1.2771298285,
				"z": -3.0891501445,
				"element": "C" 
			},
			{
				"x": -0.5897616477,
				"y": -2.4591230539,
				"z": -2.8713258037,
				"element": "C" 
			},
			{
				"x": -0.1485415728,
				"y": -2.7125997607,
				"z": -1.4183606345,
				"element": "C" 
			},
			{
				"x": -1.2935199934,
				"y": -3.0948466332,
				"z": -0.4679152673,
				"element": "C" 
			},
			{
				"x": -0.843523205,
				"y": -3.5122651553,
				"z": 0.9433505537,
				"element": "C" 
			},
			{
				"x": -0.2196239529,
				"y": -2.3798624488,
				"z": 1.7737197734,
				"element": "C" 
			},
			{
				"x": 0.2327061162,
				"y": -2.7954062637,
				"z": 3.1901837456,
				"element": "C" 
			},
			{
				"x": -0.9495856558,
				"y": -3.1659613082,
				"z": 4.1013917746,
				"element": "C" 
			},
			{
				"x": 1.1461020061,
				"y": -1.7296562988,
				"z": 3.8397160718,
				"element": "C" 
			},
			{
				"x": 0.5060896362,
				"y": -0.3579121446,
				"z": 4.0927860124,
				"element": "C" 
			},
			{
				"x": 1.8092264103,
				"y": 3.0550213211,
				"z": -1.3515466149,
				"element": "H" 
			},
			{
				"x": 2.7657084576,
				"y": 4.5312187597,
				"z": -1.4903474204,
				"element": "H" 
			},
			{
				"x": 1.9157215904,
				"y": 4.1675639222,
				"z": 0.0175304317,
				"element": "H" 
			},
			{
				"x": 0.7391541357,
				"y": 5.9445517246,
				"z": -1.3584295067,
				"element": "H" 
			},
			{
				"x": 0.5688877127,
				"y": 4.8087786584,
				"z": -2.6785601379,
				"element": "H" 
			},
			{
				"x": -0.6742249287,
				"y": 4.5470198266,
				"z": 0.1139408833,
				"element": "H" 
			},
			{
				"x": -1.5203591096,
				"y": 5.0755144205,
				"z": -1.3301813582,
				"element": "H" 
			},
			{
				"x": -0.3591673327,
				"y": 2.2748661313,
				"z": -0.873821021,
				"element": "H" 
			},
			{
				"x": -2.0419166139,
				"y": 2.7305840444,
				"z": -0.7140578854,
				"element": "H" 
			},
			{
				"x": -0.4349056893,
				"y": 2.7869812546,
				"z": -3.3261512256,
				"element": "H" 
			},
			{
				"x": -2.0680358724,
				"y": 3.4042859801,
				"z": -3.1553105909,
				"element": "H" 
			},
			{
				"x": -2.8648185314,
				"y": 1.118640512,
				"z": -2.480657196,
				"element": "H" 
			},
			{
				"x": -2.2071388513,
				"y": 1.1944661284,
				"z": -4.1056329057,
				"element": "H" 
			},
			{
				"x": -0.7185559243,
				"y": 0.1161828275,
				"z": -1.6548856375,
				"element": "H" 
			},
			{
				"x": -0.028049713,
				"y": 0.2484045746,
				"z": -3.2636275781,
				"element": "H" 
			},
			{
				"x": -2.4799684413,
				"y": -1.4414055178,
				"z": -2.5260491856,
				"element": "H" 
			},
			{
				"x": -1.8455047072,
				"y": -1.2636300204,
				"z": -4.1476574635,
				"element": "H" 
			},
			{
				"x": -1.0638010732,
				"y": -3.3718827768,
				"z": -3.2580226794,
				"element": "H" 
			},
			{
				"x": 0.3060956784,
				"y": -2.299975144,
				"z": -3.4872604345,
				"element": "H" 
			},
			{
				"x": 0.3797080419,
				"y": -1.8309194985,
				"z": -1.0356293085,
				"element": "H" 
			},
			{
				"x": 0.590778582,
				"y": -3.5257207403,
				"z": -1.4200984001,
				"element": "H" 
			},
			{
				"x": -2.0040087342,
				"y": -2.2614711126,
				"z": -0.382193453,
				"element": "H" 
			},
			{
				"x": -1.8562284572,
				"y": -3.9254346009,
				"z": -0.9165598711,
				"element": "H" 
			},
			{
				"x": -0.1236743427,
				"y": -4.3399823798,
				"z": 0.8627596831,
				"element": "H" 
			},
			{
				"x": -1.7129475146,
				"y": -3.9174900689,
				"z": 1.4753777803,
				"element": "H" 
			},
			{
				"x": 0.6511878781,
				"y": -1.9784040751,
				"z": 1.2389261372,
				"element": "H" 
			},
			{
				"x": -0.941011087,
				"y": -1.5533793411,
				"z": 1.844839427,
				"element": "H" 
			},
			{
				"x": 0.8526971863,
				"y": -3.6980864856,
				"z": 3.0774517494,
				"element": "H" 
			},
			{
				"x": -1.6561563921,
				"y": -2.3343497668,
				"z": 4.2025211529,
				"element": "H" 
			},
			{
				"x": -0.6017987577,
				"y": -3.4305665313,
				"z": 5.1063682065,
				"element": "H" 
			},
			{
				"x": -1.5074238005,
				"y": -4.0233456662,
				"z": 3.7130367534,
				"element": "H" 
			},
			{
				"x": 1.5187717816,
				"y": -2.1281949642,
				"z": 4.792937858,
				"element": "H" 
			},
			{
				"x": 2.0301397874,
				"y": -1.5958325678,
				"z": 3.2017654872,
				"element": "H" 
			},
			{
				"x": 1.2276673891,
				"y": 0.3227811907,
				"z": 4.5566459391,
				"element": "H" 
			},
			{
				"x": 0.1657009896,
				"y": 0.1109550971,
				"z": 3.1637906621,
				"element": "H" 
			},
			{
				"x": -0.3553337821,
				"y": -0.4268034181,
				"z": 4.7651014416,
				"element": "H" 
			}
		],
		 "valence_orbital": [ 
			{
				"type": "occ",
				"energy": -0.30575,
				"method": "rhf"
			},
			{
				"type": "occ",
				"energy": -0.30138,
				"method": "rhf"
			},
			{
				"type": "occ",
				"energy": -0.29876,
				"method": "rhf"
			},
			{
				"type": "occ",
				"energy": -0.29501,
				"method": "rhf"
			},
			{
				"type": "occ",
				"energy": -0.29264,
				"method": "rhf"
			},
			{
				"type": "unocc",
				"energy": 0.07817,
				"method": "rhf"
			},
			{
				"type": "unocc",
				"energy": 0.0853,
				"method": "rhf"
			},
			{
				"type": "unocc",
				"energy": 0.08978,
				"method": "rhf"
			},
			{
				"type": "unocc",
				"energy": 0.10521,
				"method": "rhf"
			},
			{
				"type": "unocc",
				"energy": 0.10826,
				"method": "rhf"
			}
		],
		"cosmo_sigma_profile": { 
			"-0.025": 0.0,
			"-0.024": 0.0,
			"-0.023": 0.0,
			"-0.022": 0.0,
			"-0.021": 0.0,
			"-0.02": 0.0,
			"-0.019": 0.0,
			"-0.018": 0.0,
			"-0.017": 0.0,
			"-0.016": 0.0,
			"-0.015": 0.0,
			"-0.014": 0.0,
			"-0.013": 0.0,
			"-0.012": 0.0,
			"-0.011": 0.0,
			"-0.01": 0.0,
			"-0.009": 0.0,
			"-0.008": 0.0,
			"-0.007": 0.0,
			"-0.006": 0.0,
			"-0.005": 0.0,
			"-0.004": 0.0,
			"-0.003": 2.84019119994,
			"-0.002": 42.7236915345,
			"-0.001": 92.8634136026,
			"0.0": 104.788677329,
			"0.001": 97.1114081424,
			"0.002": 42.1131498306,
			"0.003": 1.90150748291,
			"0.004": 0.0,
			"0.005": 0.0,
			"0.006": 0.0,
			"0.007": 0.0,
			"0.008": 0.0,
			"0.009": 0.0,
			"0.01": 0.0,
			"0.011": 0.0,
			"0.012": 0.0,
			"0.013": 0.0,
			"0.014": 0.0,
			"0.015": 0.0,
			"0.016": 0.0,
			"0.017": 0.0,
			"0.018": 0.0,
			"0.019": 0.0,
			"0.02": 0.0,
			"0.021": 0.0,
			"0.022": 0.0,
			"0.023": 0.0,
			"0.024": 0.0,
			"0.025": 0.0
		}
	}
}
