{
	 "smiles": "ClS(=O)(=O)C1CCS(=O)(=O)C1", 
	 "Tm": 388.15, 
	 "num_atms": 18, 
	 "gaussian": { 
		 "optdone": 1, 
		 "sigma_profile": "yes", 
		 "theory": "DFT", 
		 "functional": "B3LYP", 
		 "basiset": "6-31G**", 
		 "properties": { 
			 "R2extent": 3351.7933, 
			 "electric_dipole_moment_norm": 2.86123953733, 
			 "electric_quadrupole_moment_norm": 19.1530815186, 
			 "total_energy": -1713.97335444, 
			 "HOMO_LUMO_gap": 0.20204, 
			 "cosmo_polarized_energy": -20.03, 
			 "cosmo_cavitation_energy": 25.58, 
			 "cosmo_dispersion_energy": -19.98, 
			 "cosmo_repulsion_energy": 1.5, 
			 "cosmo_total_nonelectrostatic_energy": 7.1, 
			 "SMD_solvation_energy": 1.87 
		},
		"coords": [
			{
				"x": -1.6132152079,
				"y": 0.6621685308,
				"z": 1.7670109239,
				"element": "Cl" 
			},
			{
				"x": -1.3478155229,
				"y": -1.2365304898,
				"z": 0.8289644155,
				"element": "S" 
			},
			{
				"x": -0.2513180733,
				"y": -1.9019689281,
				"z": 1.5201183751,
				"element": "O" 
			},
			{
				"x": -2.6693101524,
				"y": -1.8347497792,
				"z": 0.7023437621,
				"element": "O" 
			},
			{
				"x": -0.7627213783,
				"y": -0.7479698767,
				"z": -0.8381003479,
				"element": "C" 
			},
			{
				"x": 0.5842123091,
				"y": -0.0006827229,
				"z": -0.813890073,
				"element": "C" 
			},
			{
				"x": 0.8647970998,
				"y": 0.4208800999,
				"z": -2.2641668411,
				"element": "C" 
			},
			{
				"x": -0.7804444949,
				"y": 0.7201535542,
				"z": -3.0442882488,
				"element": "S" 
			},
			{
				"x": -1.0191932236,
				"y": 2.1592434418,
				"z": -3.2024759308,
				"element": "O" 
			},
			{
				"x": -0.9418957804,
				"y": -0.2115473624,
				"z": -4.1683164319,
				"element": "O" 
			},
			{
				"x": -1.7680486829,
				"y": 0.0903498569,
				"z": -1.6152286555,
				"element": "C" 
			},
			{
				"x": -0.6465540101,
				"y": -1.734789649,
				"z": -1.3038290184,
				"element": "H" 
			},
			{
				"x": 0.498115935,
				"y": 0.8825638772,
				"z": -0.1744036404,
				"element": "H" 
			},
			{
				"x": 1.3800706932,
				"y": -0.6327172324,
				"z": -0.4156267139,
				"element": "H" 
			},
			{
				"x": 1.3334124063,
				"y": -0.371401694,
				"z": -2.8516084753,
				"element": "H" 
			},
			{
				"x": 1.4441271992,
				"y": 1.3412750825,
				"z": -2.3472055309,
				"element": "H" 
			},
			{
				"x": -2.6160773278,
				"y": -0.4700533213,
				"z": -2.0075403625,
				"element": "H" 
			},
			{
				"x": -2.106341788,
				"y": 0.9615766128,
				"z": -1.0502572061,
				"element": "H" 
			}
		],
		 "valence_orbital": [ 
			{
				"type": "occ",
				"energy": -0.33906,
				"method": "rhf"
			},
			{
				"type": "occ",
				"energy": -0.33584,
				"method": "rhf"
			},
			{
				"type": "occ",
				"energy": -0.33098,
				"method": "rhf"
			},
			{
				"type": "occ",
				"energy": -0.31846,
				"method": "rhf"
			},
			{
				"type": "occ",
				"energy": -0.30577,
				"method": "rhf"
			},
			{
				"type": "unocc",
				"energy": -0.10373,
				"method": "rhf"
			},
			{
				"type": "unocc",
				"energy": 0.00582,
				"method": "rhf"
			},
			{
				"type": "unocc",
				"energy": 0.02004,
				"method": "rhf"
			},
			{
				"type": "unocc",
				"energy": 0.03059,
				"method": "rhf"
			},
			{
				"type": "unocc",
				"energy": 0.03751,
				"method": "rhf"
			}
		],
		"cosmo_sigma_profile": { 
			"-0.025": 0.0,
			"-0.024": 0.0,
			"-0.023": 0.0,
			"-0.022": 0.0,
			"-0.021": 0.0,
			"-0.02": 0.0,
			"-0.019": 0.0,
			"-0.018": 0.0,
			"-0.017": 0.0,
			"-0.016": 0.0,
			"-0.015": 0.0,
			"-0.014": 0.208486330692,
			"-0.013": 1.21253438109,
			"-0.012": 3.45531087957,
			"-0.011": 2.91023510781,
			"-0.01": 4.43791367634,
			"-0.009": 8.10993106778,
			"-0.008": 13.548685461,
			"-0.007": 12.712025155,
			"-0.006": 12.1194633767,
			"-0.005": 11.0315503651,
			"-0.004": 9.45717278349,
			"-0.003": 5.42716919769,
			"-0.002": 6.78992136526,
			"-0.001": 7.92381407761,
			"0.0": 8.72499167424,
			"0.001": 9.00589252713,
			"0.002": 9.62147133486,
			"0.003": 12.5050370398,
			"0.004": 5.42970602775,
			"0.005": 4.16253472421,
			"0.006": 5.104128455,
			"0.007": 10.5897156031,
			"0.008": 12.2252514041,
			"0.009": 5.65085388962,
			"0.01": 7.86248519487,
			"0.011": 11.9224575728,
			"0.012": 3.11538885633,
			"0.013": 0.0,
			"0.014": 0.0,
			"0.015": 0.0,
			"0.016": 0.0,
			"0.017": 0.0,
			"0.018": 0.0,
			"0.019": 0.0,
			"0.02": 0.0,
			"0.021": 0.0,
			"0.022": 0.0,
			"0.023": 0.0,
			"0.024": 0.0,
			"0.025": 0.0
		}
	}
}
