{
	 "smiles": "CCCCCCCCCCCCCCCCCCCCCCCCCCCC", 
	 "Tm": 336.35, 
	 "num_atms": 86, 
	 "gaussian": { 
		 "optdone": 1, 
		 "sigma_profile": "yes", 
		 "theory": "DFT", 
		 "functional": "B3LYP", 
		 "basiset": "6-31G**", 
		 "properties": { 
			 "R2extent": 25030.4321, 
			 "electric_dipole_moment_norm": 0.0599636556591, 
			 "electric_quadrupole_moment_norm": 0.927392398071, 
			 "total_energy": -1102.02273353, 
			 "HOMO_LUMO_gap": 0.3651, 
			 "cosmo_polarized_energy": -1.66, 
			 "cosmo_cavitation_energy": 80.68, 
			 "cosmo_dispersion_energy": -50.79, 
			 "cosmo_repulsion_energy": 4.17, 
			 "cosmo_total_nonelectrostatic_energy": 34.06, 
			 "SMD_solvation_energy": 9.79 
		},
		"coords": [
			{
				"x": -2.4235487527,
				"y": 1.5784044482,
				"z": 3.5898610913,
				"element": "C" 
			},
			{
				"x": -1.6660452827,
				"y": 1.314712285,
				"z": 4.8952058796,
				"element": "C" 
			},
			{
				"x": -1.053931128,
				"y": -0.0903113942,
				"z": 4.9684373132,
				"element": "C" 
			},
			{
				"x": -0.3162497037,
				"y": -0.3604110411,
				"z": 6.2890492345,
				"element": "C" 
			},
			{
				"x": 0.2873075437,
				"y": -1.7739856266,
				"z": 6.4421748123,
				"element": "C" 
			},
			{
				"x": 1.7386873442,
				"y": -1.9504355709,
				"z": 5.953216681,
				"element": "C" 
			},
			{
				"x": 2.0103387551,
				"y": -1.7851771819,
				"z": 4.4480408845,
				"element": "C" 
			},
			{
				"x": 1.3112219046,
				"y": -2.8155775675,
				"z": 3.550375636,
				"element": "C" 
			},
			{
				"x": 1.6867532112,
				"y": -2.6694204182,
				"z": 2.0682840208,
				"element": "C" 
			},
			{
				"x": 1.0824177231,
				"y": -3.7333406632,
				"z": 1.1363618411,
				"element": "C" 
			},
			{
				"x": -0.4497892192,
				"y": -3.6817575569,
				"z": 1.0131774105,
				"element": "C" 
			},
			{
				"x": -1.0549242011,
				"y": -4.698889623,
				"z": 0.0183133014,
				"element": "C" 
			},
			{
				"x": -1.2765959644,
				"y": -4.1894310902,
				"z": -1.4176302326,
				"element": "C" 
			},
			{
				"x": -0.0165337384,
				"y": -3.7970265197,
				"z": -2.201063154,
				"element": "C" 
			},
			{
				"x": -0.3166067484,
				"y": -3.4390860467,
				"z": -3.6658626555,
				"element": "C" 
			},
			{
				"x": 0.9116443938,
				"y": -3.0293824981,
				"z": -4.5091221314,
				"element": "C" 
			},
			{
				"x": 1.224727315,
				"y": -1.5229333577,
				"z": -4.5626435404,
				"element": "C" 
			},
			{
				"x": 1.6069690439,
				"y": -0.8599355158,
				"z": -3.2321515606,
				"element": "C" 
			},
			{
				"x": 2.0269077559,
				"y": 0.6076282929,
				"z": -3.3920169822,
				"element": "C" 
			},
			{
				"x": 2.4189802158,
				"y": 1.2742026973,
				"z": -2.0640703333,
				"element": "C" 
			},
			{
				"x": 2.869981641,
				"y": 2.7481997061,
				"z": -2.1715672148,
				"element": "C" 
			},
			{
				"x": 1.769035314,
				"y": 3.8100294171,
				"z": -1.9961361578,
				"element": "C" 
			},
			{
				"x": 0.6615856883,
				"y": 3.8235569065,
				"z": -3.0587733344,
				"element": "C" 
			},
			{
				"x": -0.320334531,
				"y": 4.9906935501,
				"z": -2.888623075,
				"element": "C" 
			},
			{
				"x": -1.4395215285,
				"y": 5.0094696722,
				"z": -3.9379246053,
				"element": "C" 
			},
			{
				"x": -2.4143635138,
				"y": 6.1826309815,
				"z": -3.7645810827,
				"element": "C" 
			},
			{
				"x": -3.512207451,
				"y": 6.2713122496,
				"z": -4.8377276476,
				"element": "C" 
			},
			{
				"x": -4.5122471675,
				"y": 5.1088364449,
				"z": -4.8220654597,
				"element": "C" 
			},
			{
				"x": -3.2486502576,
				"y": 0.868577644,
				"z": 3.4602215122,
				"element": "H" 
			},
			{
				"x": -1.763231131,
				"y": 1.4770467989,
				"z": 2.7208253437,
				"element": "H" 
			},
			{
				"x": -2.8475459537,
				"y": 2.5878034867,
				"z": 3.5684916972,
				"element": "H" 
			},
			{
				"x": -2.3441571186,
				"y": 1.4582475502,
				"z": 5.7477545867,
				"element": "H" 
			},
			{
				"x": -0.8698110776,
				"y": 2.0624245058,
				"z": 5.0137755027,
				"element": "H" 
			},
			{
				"x": -1.8516786558,
				"y": -0.8373864114,
				"z": 4.8465074589,
				"element": "H" 
			},
			{
				"x": -0.3779564359,
				"y": -0.2298676114,
				"z": 4.115664271,
				"element": "H" 
			},
			{
				"x": 0.4752153878,
				"y": 0.3904481162,
				"z": 6.4274650102,
				"element": "H" 
			},
			{
				"x": -1.0286150307,
				"y": -0.1921364512,
				"z": 7.1080325345,
				"element": "H" 
			},
			{
				"x": -0.3694739157,
				"y": -2.5061840349,
				"z": 5.9536364406,
				"element": "H" 
			},
			{
				"x": 0.2782615504,
				"y": -2.0396178654,
				"z": 7.5068650838,
				"element": "H" 
			},
			{
				"x": 2.0811615471,
				"y": -2.94977202,
				"z": 6.2568034385,
				"element": "H" 
			},
			{
				"x": 2.3720177453,
				"y": -1.2387279484,
				"z": 6.5007496007,
				"element": "H" 
			},
			{
				"x": 3.0949827959,
				"y": -1.8613664124,
				"z": 4.2884454599,
				"element": "H" 
			},
			{
				"x": 1.7369276936,
				"y": -0.7719319771,
				"z": 4.1253207598,
				"element": "H" 
			},
			{
				"x": 0.2244892791,
				"y": -2.7296543111,
				"z": 3.6674836307,
				"element": "H" 
			},
			{
				"x": 1.575334445,
				"y": -3.8277527482,
				"z": 3.8910939639,
				"element": "H" 
			},
			{
				"x": 1.390695209,
				"y": -1.6703266826,
				"z": 1.7162105969,
				"element": "H" 
			},
			{
				"x": 2.7812517597,
				"y": -2.706155972,
				"z": 1.9791814013,
				"element": "H" 
			},
			{
				"x": 1.5344792185,
				"y": -3.6245555344,
				"z": 0.1438547926,
				"element": "H" 
			},
			{
				"x": 1.375209871,
				"y": -4.7321943658,
				"z": 1.4913065137,
				"element": "H" 
			},
			{
				"x": -0.7597214113,
				"y": -2.664994951,
				"z": 0.7301001358,
				"element": "H" 
			},
			{
				"x": -0.8852800544,
				"y": -3.8588494672,
				"z": 2.0037221123,
				"element": "H" 
			},
			{
				"x": -0.4260907971,
				"y": -5.6003303028,
				"z": -0.0070754286,
				"element": "H" 
			},
			{
				"x": -2.0291138202,
				"y": -5.028946378,
				"z": 0.4002969055,
				"element": "H" 
			},
			{
				"x": -1.8081295988,
				"y": -4.9701335007,
				"z": -1.9800946015,
				"element": "H" 
			},
			{
				"x": -1.9593418855,
				"y": -3.3277972082,
				"z": -1.3855879802,
				"element": "H" 
			},
			{
				"x": 0.4811988968,
				"y": -2.9557202353,
				"z": -1.7069580423,
				"element": "H" 
			},
			{
				"x": 0.7003952628,
				"y": -4.6305441791,
				"z": -2.1800658488,
				"element": "H" 
			},
			{
				"x": -1.0682501984,
				"y": -2.6370743499,
				"z": -3.7018766192,
				"element": "H" 
			},
			{
				"x": -0.7940651846,
				"y": -4.3110584633,
				"z": -4.1325233595,
				"element": "H" 
			},
			{
				"x": 1.7965853681,
				"y": -3.5741698835,
				"z": -4.1503276403,
				"element": "H" 
			},
			{
				"x": 0.7560176713,
				"y": -3.3657407357,
				"z": -5.5418960184,
				"element": "H" 
			},
			{
				"x": 0.3577183488,
				"y": -0.9962175151,
				"z": -4.9871369989,
				"element": "H" 
			},
			{
				"x": 2.0460250879,
				"y": -1.3695060602,
				"z": -5.2767041701,
				"element": "H" 
			},
			{
				"x": 0.7627270268,
				"y": -0.9131325981,
				"z": -2.5323110563,
				"element": "H" 
			},
			{
				"x": 2.4273605427,
				"y": -1.4235609745,
				"z": -2.7644324843,
				"element": "H" 
			},
			{
				"x": 2.8796515298,
				"y": 0.6659620079,
				"z": -4.0837016479,
				"element": "H" 
			},
			{
				"x": 1.2129677638,
				"y": 1.1645786894,
				"z": -3.8722440302,
				"element": "H" 
			},
			{
				"x": 3.2341758421,
				"y": 0.6856045772,
				"z": -1.6223893621,
				"element": "H" 
			},
			{
				"x": 1.5828498921,
				"y": 1.1995064448,
				"z": -1.3536571426,
				"element": "H" 
			},
			{
				"x": 3.6296804942,
				"y": 2.9383148732,
				"z": -1.4029977312,
				"element": "H" 
			},
			{
				"x": 3.3773177068,
				"y": 2.9035620815,
				"z": -3.1344416683,
				"element": "H" 
			},
			{
				"x": 1.3105541851,
				"y": 3.6846832623,
				"z": -1.0044645079,
				"element": "H" 
			},
			{
				"x": 2.2480891542,
				"y": 4.7990961656,
				"z": -1.9804709932,
				"element": "H" 
			},
			{
				"x": 0.1004273598,
				"y": 2.8807007374,
				"z": -3.0258695523,
				"element": "H" 
			},
			{
				"x": 1.1154393928,
				"y": 3.8744308226,
				"z": -4.0590450573,
				"element": "H" 
			},
			{
				"x": -0.7657661892,
				"y": 4.9464505922,
				"z": -1.8842414177,
				"element": "H" 
			},
			{
				"x": 0.2334895328,
				"y": 5.939628381,
				"z": -2.9308792217,
				"element": "H" 
			},
			{
				"x": -1.9862190304,
				"y": 4.058248641,
				"z": -3.8930366419,
				"element": "H" 
			},
			{
				"x": -0.9940218408,
				"y": 5.0564136921,
				"z": -4.9424250443,
				"element": "H" 
			},
			{
				"x": -2.884086721,
				"y": 6.1199042394,
				"z": -2.772132523,
				"element": "H" 
			},
			{
				"x": -1.8409862942,
				"y": 7.1198156865,
				"z": -3.7683498264,
				"element": "H" 
			},
			{
				"x": -4.0601941636,
				"y": 7.2125575707,
				"z": -4.7015234807,
				"element": "H" 
			},
			{
				"x": -3.0426475094,
				"y": 6.335866962,
				"z": -5.8290889559,
				"element": "H" 
			},
			{
				"x": -5.0000847999,
				"y": 5.0221330382,
				"z": -3.8439434909,
				"element": "H" 
			},
			{
				"x": -4.0288662798,
				"y": 4.1501145326,
				"z": -5.0360679955,
				"element": "H" 
			},
			{
				"x": -5.2970711253,
				"y": 5.2539110693,
				"z": -5.571887153,
				"element": "H" 
			}
		],
		 "valence_orbital": [ 
			{
				"type": "occ",
				"energy": -0.29767,
				"method": "rhf"
			},
			{
				"type": "occ",
				"energy": -0.2926,
				"method": "rhf"
			},
			{
				"type": "occ",
				"energy": -0.29067,
				"method": "rhf"
			},
			{
				"type": "occ",
				"energy": -0.29004,
				"method": "rhf"
			},
			{
				"type": "occ",
				"energy": -0.28808,
				"method": "rhf"
			},
			{
				"type": "unocc",
				"energy": 0.07702,
				"method": "rhf"
			},
			{
				"type": "unocc",
				"energy": 0.0842,
				"method": "rhf"
			},
			{
				"type": "unocc",
				"energy": 0.08998,
				"method": "rhf"
			},
			{
				"type": "unocc",
				"energy": 0.09376,
				"method": "rhf"
			},
			{
				"type": "unocc",
				"energy": 0.09738,
				"method": "rhf"
			}
		],
		"cosmo_sigma_profile": { 
			"-0.025": 0.0,
			"-0.024": 0.0,
			"-0.023": 0.0,
			"-0.022": 0.0,
			"-0.021": 0.0,
			"-0.02": 0.0,
			"-0.019": 0.0,
			"-0.018": 0.0,
			"-0.017": 0.0,
			"-0.016": 0.0,
			"-0.015": 0.0,
			"-0.014": 0.0,
			"-0.013": 0.0,
			"-0.012": 0.0,
			"-0.011": 0.0,
			"-0.01": 0.0,
			"-0.009": 0.0,
			"-0.008": 0.0,
			"-0.007": 0.0,
			"-0.006": 0.0,
			"-0.005": 0.0,
			"-0.004": 0.0,
			"-0.003": 2.44965375737,
			"-0.002": 54.9219353002,
			"-0.001": 163.852321191,
			"0.0": 182.281458601,
			"0.001": 139.783504564,
			"0.002": 67.8967058932,
			"0.003": 2.64101578008,
			"0.004": 0.0,
			"0.005": 0.0,
			"0.006": 0.0,
			"0.007": 0.0,
			"0.008": 0.0,
			"0.009": 0.0,
			"0.01": 0.0,
			"0.011": 0.0,
			"0.012": 0.0,
			"0.013": 0.0,
			"0.014": 0.0,
			"0.015": 0.0,
			"0.016": 0.0,
			"0.017": 0.0,
			"0.018": 0.0,
			"0.019": 0.0,
			"0.02": 0.0,
			"0.021": 0.0,
			"0.022": 0.0,
			"0.023": 0.0,
			"0.024": 0.0,
			"0.025": 0.0
		}
	}
}
