{
	 "smiles": "OC(=O)CC1=CC=C(Br)C=C1", 
	 "Tm": 389.15, 
	 "num_atms": 18, 
	 "gaussian": { 
		 "optdone": 1, 
		 "sigma_profile": "yes", 
		 "theory": "DFT", 
		 "functional": "B3LYP", 
		 "basiset": "6-31G**", 
		 "properties": { 
			 "R2extent": 4586.8077, 
			 "electric_dipole_moment_norm": 2.27619031058, 
			 "electric_quadrupole_moment_norm": 5.78827542883, 
			 "total_energy": -3030.93916618, 
			 "HOMO_LUMO_gap": 0.21759, 
			 "cosmo_polarized_energy": -9.97, 
			 "cosmo_cavitation_energy": 25.16, 
			 "cosmo_dispersion_energy": -18.68, 
			 "cosmo_repulsion_energy": 1.52, 
			 "cosmo_total_nonelectrostatic_energy": 8.0, 
			 "SMD_solvation_energy": 4.27 
		},
		"coords": [
			{
				"x": -1.3204672303,
				"y": 0.4287321951,
				"z": 2.7855892781,
				"element": "O" 
			},
			{
				"x": -1.3264384269,
				"y": 0.7942728737,
				"z": 1.4838412563,
				"element": "C" 
			},
			{
				"x": -1.1181463158,
				"y": 1.9309209292,
				"z": 1.1194096639,
				"element": "O" 
			},
			{
				"x": -1.5962590819,
				"y": -0.3812377198,
				"z": 0.5603275057,
				"element": "C" 
			},
			{
				"x": -0.3243901838,
				"y": -0.8558682357,
				"z": -0.1259711821,
				"element": "C" 
			},
			{
				"x": 0.4118306752,
				"y": 0.0119393102,
				"z": -0.9442088719,
				"element": "C" 
			},
			{
				"x": 1.5707651232,
				"y": -0.4216831685,
				"z": -1.585521903,
				"element": "C" 
			},
			{
				"x": 1.9971485957,
				"y": -1.7374038363,
				"z": -1.4062517963,
				"element": "C" 
			},
			{
				"x": 3.5835654501,
				"y": -2.3408915567,
				"z": -2.2869030135,
				"element": "Br" 
			},
			{
				"x": 1.2857836546,
				"y": -2.6181461456,
				"z": -0.5957995588,
				"element": "C" 
			},
			{
				"x": 0.1281146991,
				"y": -2.1684138455,
				"z": 0.0419204124,
				"element": "C" 
			},
			{
				"x": -1.1133265761,
				"y": 1.2323707013,
				"z": 3.2929585829,
				"element": "H" 
			},
			{
				"x": -2.3173605155,
				"y": -0.0337845271,
				"z": -0.1872482269,
				"element": "H" 
			},
			{
				"x": -2.0500857443,
				"y": -1.1973405718,
				"z": 1.1256740563,
				"element": "H" 
			},
			{
				"x": 0.0807953494,
				"y": 1.0385037024,
				"z": -1.0675626191,
				"element": "H" 
			},
			{
				"x": 2.1362749715,
				"y": 0.2537131383,
				"z": -2.21737203,
				"element": "H" 
			},
			{
				"x": 1.6288187226,
				"y": -3.6377404747,
				"z": -0.4622632213,
				"element": "H" 
			},
			{
				"x": -0.4272231669,
				"y": -2.8543427684,
				"z": 0.6759816674,
				"element": "H" 
			}
		],
		 "valence_orbital": [ 
			{
				"type": "occ",
				"energy": -0.31137,
				"method": "rhf"
			},
			{
				"type": "occ",
				"energy": -0.28715,
				"method": "rhf"
			},
			{
				"type": "occ",
				"energy": -0.28311,
				"method": "rhf"
			},
			{
				"type": "occ",
				"energy": -0.26533,
				"method": "rhf"
			},
			{
				"type": "occ",
				"energy": -0.2408,
				"method": "rhf"
			},
			{
				"type": "unocc",
				"energy": -0.02321,
				"method": "rhf"
			},
			{
				"type": "unocc",
				"energy": -0.01693,
				"method": "rhf"
			},
			{
				"type": "unocc",
				"energy": 0.00553,
				"method": "rhf"
			},
			{
				"type": "unocc",
				"energy": 0.00909,
				"method": "rhf"
			},
			{
				"type": "unocc",
				"energy": 0.07261,
				"method": "rhf"
			}
		],
		"cosmo_sigma_profile": { 
			"-0.025": 0.0,
			"-0.024": 0.0,
			"-0.023": 0.0,
			"-0.022": 0.0,
			"-0.021": 0.0,
			"-0.02": 0.0,
			"-0.019": 0.0483811187757,
			"-0.018": 0.7307236254,
			"-0.017": 1.05397590135,
			"-0.016": 0.866056114255,
			"-0.015": 0.476296219762,
			"-0.014": 1.11742364852,
			"-0.013": 0.753073713175,
			"-0.012": 0.362514979473,
			"-0.011": 0.841395120022,
			"-0.01": 0.821508953418,
			"-0.009": 0.640291988792,
			"-0.008": 0.833169671259,
			"-0.007": 7.933718584,
			"-0.006": 12.375692155,
			"-0.005": 12.5573880893,
			"-0.004": 12.7101542462,
			"-0.003": 13.1311730315,
			"-0.002": 10.9934052746,
			"-0.001": 11.3748769164,
			"0.0": 11.5674848586,
			"0.001": 13.7744680129,
			"0.002": 19.0684984693,
			"0.003": 20.6252003939,
			"0.004": 19.9155822462,
			"0.005": 9.801588371,
			"0.006": 2.13412820301,
			"0.007": 2.41395680937,
			"0.008": 2.82677982689,
			"0.009": 3.10534531062,
			"0.01": 2.12649425397,
			"0.011": 3.77513267684,
			"0.012": 3.23863615228,
			"0.013": 0.0732783697125,
			"0.014": 0.0,
			"0.015": 0.0,
			"0.016": 0.0,
			"0.017": 0.0,
			"0.018": 0.0,
			"0.019": 0.0,
			"0.02": 0.0,
			"0.021": 0.0,
			"0.022": 0.0,
			"0.023": 0.0,
			"0.024": 0.0,
			"0.025": 0.0
		}
	}
}
