{
	 "smiles": "COC1=CC=C(C=C1OC)C1N(CCC2=C1C=C(OC)C(OC)=C2)C(C)=O", 
	 "Tm": 437.15, 
	 "num_atms": 52, 
	 "gaussian": { 
		 "optdone": 1, 
		 "sigma_profile": "yes", 
		 "theory": "DFT", 
		 "functional": "B3LYP", 
		 "basiset": "6-31G**", 
		 "properties": { 
			 "R2extent": 11399.4145, 
			 "electric_dipole_moment_norm": 5.50564334206, 
			 "electric_quadrupole_moment_norm": 14.3870219941, 
			 "total_energy": -1246.13088233, 
			 "HOMO_LUMO_gap": 0.20273, 
			 "cosmo_polarized_energy": -20.19, 
			 "cosmo_cavitation_energy": 53.3, 
			 "cosmo_dispersion_energy": -34.87, 
			 "cosmo_repulsion_energy": 2.69, 
			 "cosmo_total_nonelectrostatic_energy": 21.12, 
			 "SMD_solvation_energy": 12.15 
		},
		"coords": [
			{
				"x": -3.875407495,
				"y": -0.248911657,
				"z": 4.4696138738,
				"element": "C" 
			},
			{
				"x": -2.4546863707,
				"y": -0.383861216,
				"z": 4.5503221109,
				"element": "O" 
			},
			{
				"x": -1.77770841,
				"y": -0.4037882143,
				"z": 3.3567548207,
				"element": "C" 
			},
			{
				"x": -1.0877972178,
				"y": -1.5585371311,
				"z": 2.9967660545,
				"element": "C" 
			},
			{
				"x": -0.3317320922,
				"y": -1.6090791546,
				"z": 1.8250986951,
				"element": "C" 
			},
			{
				"x": -0.2610656465,
				"y": -0.4981705608,
				"z": 0.9813249163,
				"element": "C" 
			},
			{
				"x": -0.9586283418,
				"y": 0.665959545,
				"z": 1.3360805638,
				"element": "C" 
			},
			{
				"x": -1.7051473332,
				"y": 0.7296326778,
				"z": 2.51661199,
				"element": "C" 
			},
			{
				"x": -2.386410494,
				"y": 1.8362889574,
				"z": 2.9377379686,
				"element": "O" 
			},
			{
				"x": -2.3113046185,
				"y": 3.0136532755,
				"z": 2.1475158996,
				"element": "C" 
			},
			{
				"x": 0.6031626561,
				"y": -0.5670331463,
				"z": -0.2889234433,
				"element": "C" 
			},
			{
				"x": 2.0269991596,
				"y": -0.3805261223,
				"z": 0.0260428275,
				"element": "N" 
			},
			{
				"x": 2.4051486433,
				"y": 1.0082104343,
				"z": 0.2852087455,
				"element": "C" 
			},
			{
				"x": 2.250469015,
				"y": 1.8267532678,
				"z": -1.000038579,
				"element": "C" 
			},
			{
				"x": 0.9318482615,
				"y": 1.5423447517,
				"z": -1.6956353065,
				"element": "C" 
			},
			{
				"x": 0.1680435166,
				"y": 0.413477724,
				"z": -1.3783315866,
				"element": "C" 
			},
			{
				"x": -1.0379272986,
				"y": 0.1678663606,
				"z": -2.0568518218,
				"element": "C" 
			},
			{
				"x": -1.4964434848,
				"y": 1.0275762095,
				"z": -3.0523000001,
				"element": "C" 
			},
			{
				"x": -2.6653769499,
				"y": 0.8699350598,
				"z": -3.7426410925,
				"element": "O" 
			},
			{
				"x": -3.4930699037,
				"y": -0.2337784774,
				"z": -3.4116113769,
				"element": "C" 
			},
			{
				"x": -0.7213528465,
				"y": 2.1641998798,
				"z": -3.3858347858,
				"element": "C" 
			},
			{
				"x": -1.1486387469,
				"y": 3.0822547736,
				"z": -4.3131205902,
				"element": "O" 
			},
			{
				"x": -1.1865599322,
				"y": 2.6313566627,
				"z": -5.6694793454,
				"element": "C" 
			},
			{
				"x": 0.466867817,
				"y": 2.3977929551,
				"z": -2.7078028095,
				"element": "C" 
			},
			{
				"x": 3.0271082398,
				"y": -1.2989009216,
				"z": -0.2131695694,
				"element": "C" 
			},
			{
				"x": 2.6267700438,
				"y": -2.7097912872,
				"z": -0.6296255282,
				"element": "C" 
			},
			{
				"x": 4.2119626339,
				"y": -1.0030252976,
				"z": -0.0880544426,
				"element": "O" 
			},
			{
				"x": -4.2433810242,
				"y": -0.3068441909,
				"z": 5.4961174068,
				"element": "H" 
			},
			{
				"x": -4.3134871684,
				"y": -1.0680857969,
				"z": 3.8840146331,
				"element": "H" 
			},
			{
				"x": -4.1653568955,
				"y": 0.7096923739,
				"z": 4.0303992474,
				"element": "H" 
			},
			{
				"x": -1.1538571618,
				"y": -2.414328321,
				"z": 3.6611908874,
				"element": "H" 
			},
			{
				"x": 0.2001316786,
				"y": -2.521899561,
				"z": 1.5726790548,
				"element": "H" 
			},
			{
				"x": -0.9173025796,
				"y": 1.5231658624,
				"z": 0.6760123555,
				"element": "H" 
			},
			{
				"x": -1.2774519006,
				"y": 3.367756856,
				"z": 2.0500622118,
				"element": "H" 
			},
			{
				"x": -2.900578165,
				"y": 3.7658143836,
				"z": 2.6740485986,
				"element": "H" 
			},
			{
				"x": -2.732477891,
				"y": 2.859610722,
				"z": 1.145933178,
				"element": "H" 
			},
			{
				"x": 0.4896104325,
				"y": -1.5755761143,
				"z": -0.6902826657,
				"element": "H" 
			},
			{
				"x": 3.4352755106,
				"y": 1.0123483983,
				"z": 0.6382982048,
				"element": "H" 
			},
			{
				"x": 1.7572510626,
				"y": 1.4000597855,
				"z": 1.0768970312,
				"element": "H" 
			},
			{
				"x": 2.3376673645,
				"y": 2.8976736818,
				"z": -0.7789804609,
				"element": "H" 
			},
			{
				"x": 3.0816169958,
				"y": 1.5798013797,
				"z": -1.6741412402,
				"element": "H" 
			},
			{
				"x": -1.6226691258,
				"y": -0.7023532379,
				"z": -1.7784950763,
				"element": "H" 
			},
			{
				"x": -2.9878245978,
				"y": -1.1906979917,
				"z": -3.5966700661,
				"element": "H" 
			},
			{
				"x": -4.3680479795,
				"y": -0.1588042868,
				"z": -4.0590180402,
				"element": "H" 
			},
			{
				"x": -3.814796505,
				"y": -0.1964350368,
				"z": -2.3630304674,
				"element": "H" 
			},
			{
				"x": -0.1919968938,
				"y": 2.3053257429,
				"z": -6.0010318312,
				"element": "H" 
			},
			{
				"x": -1.9020900453,
				"y": 1.8148466966,
				"z": -5.8025973197,
				"element": "H" 
			},
			{
				"x": -1.4989030733,
				"y": 3.4911237938,
				"z": -6.2658960088,
				"element": "H" 
			},
			{
				"x": 1.0329113792,
				"y": 3.2843637913,
				"z": -2.9805026093,
				"element": "H" 
			},
			{
				"x": 2.1646537647,
				"y": -2.7204619359,
				"z": -1.6228828813,
				"element": "H" 
			},
			{
				"x": 3.5412963227,
				"y": -3.301069381,
				"z": -0.6652740965,
				"element": "H" 
			},
			{
				"x": 1.9282836912,
				"y": -3.1747269619,
				"z": 0.072091766,
				"element": "H" 
			}
		],
		 "valence_orbital": [ 
			{
				"type": "occ",
				"energy": -0.23991,
				"method": "rhf"
			},
			{
				"type": "occ",
				"energy": -0.23578,
				"method": "rhf"
			},
			{
				"type": "occ",
				"energy": -0.23264,
				"method": "rhf"
			},
			{
				"type": "occ",
				"energy": -0.21651,
				"method": "rhf"
			},
			{
				"type": "occ",
				"energy": -0.21056,
				"method": "rhf"
			},
			{
				"type": "unocc",
				"energy": -0.00783,
				"method": "rhf"
			},
			{
				"type": "unocc",
				"energy": -0.00462,
				"method": "rhf"
			},
			{
				"type": "unocc",
				"energy": 0.00236,
				"method": "rhf"
			},
			{
				"type": "unocc",
				"energy": 0.01301,
				"method": "rhf"
			},
			{
				"type": "unocc",
				"energy": 0.03443,
				"method": "rhf"
			}
		],
		"cosmo_sigma_profile": { 
			"-0.025": 0.0,
			"-0.024": 0.0,
			"-0.023": 0.0,
			"-0.022": 0.0,
			"-0.021": 0.0,
			"-0.02": 0.0,
			"-0.019": 0.0,
			"-0.018": 0.0,
			"-0.017": 0.0,
			"-0.016": 0.0,
			"-0.015": 0.0,
			"-0.014": 0.0,
			"-0.013": 0.0,
			"-0.012": 0.0,
			"-0.011": 0.0339481806808,
			"-0.01": 0.206447342976,
			"-0.009": 0.286701859916,
			"-0.008": 1.06519710481,
			"-0.007": 4.91200376387,
			"-0.006": 18.6728696489,
			"-0.005": 36.9980484846,
			"-0.004": 43.4808967453,
			"-0.003": 53.9783513153,
			"-0.002": 46.5041377503,
			"-0.001": 35.0921027488,
			"0.0": 22.3471186319,
			"0.001": 21.9191441325,
			"0.002": 19.5909193611,
			"0.003": 25.2313215589,
			"0.004": 22.4760003911,
			"0.005": 16.6710091508,
			"0.006": 8.90476594237,
			"0.007": 5.11845955939,
			"0.008": 5.82123134725,
			"0.009": 4.84124574224,
			"0.01": 6.15165815713,
			"0.011": 6.35245351985,
			"0.012": 4.4119638051,
			"0.013": 2.67326771434,
			"0.014": 5.12228296019,
			"0.015": 1.93236077218,
			"0.016": 0.0677043211268,
			"0.017": 0.0,
			"0.018": 0.0,
			"0.019": 0.0,
			"0.02": 0.0,
			"0.021": 0.0,
			"0.022": 0.0,
			"0.023": 0.0,
			"0.024": 0.0,
			"0.025": 0.0
		}
	}
}
