{
	 "smiles": "CCN(C(C)=O)C1=NC(CCl)=CS1", 
	 "Tm": 356.15, 
	 "num_atms": 24, 
	 "gaussian": { 
		 "optdone": 1, 
		 "sigma_profile": "yes", 
		 "theory": "DFT", 
		 "functional": "B3LYP", 
		 "basiset": "6-31G**", 
		 "properties": { 
			 "R2extent": 4413.9866, 
			 "electric_dipole_moment_norm": 3.28829276373, 
			 "electric_quadrupole_moment_norm": 14.2602349658, 
			 "total_energy": -1354.59700353, 
			 "HOMO_LUMO_gap": 0.18728, 
			 "cosmo_polarized_energy": -12.42, 
			 "cosmo_cavitation_energy": 31.0, 
			 "cosmo_dispersion_energy": -22.26, 
			 "cosmo_repulsion_energy": 1.77, 
			 "cosmo_total_nonelectrostatic_energy": 10.51, 
			 "SMD_solvation_energy": 4.39 
		},
		"coords": [
			{
				"x": -0.9479759948,
				"y": -1.8173315452,
				"z": 2.425943061,
				"element": "C" 
			},
			{
				"x": -0.6055199713,
				"y": -2.1328849801,
				"z": 0.9710100637,
				"element": "C" 
			},
			{
				"x": -0.4150140811,
				"y": -0.9049635,
				"z": 0.1577698538,
				"element": "N" 
			},
			{
				"x": -1.5460343978,
				"y": -0.3862640042,
				"z": -0.4841968056,
				"element": "C" 
			},
			{
				"x": -1.3744992815,
				"y": 0.7391205394,
				"z": -1.489053834,
				"element": "C" 
			},
			{
				"x": -2.6458274771,
				"y": -0.8668106367,
				"z": -0.2582289242,
				"element": "O" 
			},
			{
				"x": 0.871904467,
				"y": -0.3699315868,
				"z": 0.1129886989,
				"element": "C" 
			},
			{
				"x": 1.9448387195,
				"y": -1.1076431042,
				"z": 0.0856670866,
				"element": "N" 
			},
			{
				"x": 3.090420198,
				"y": -0.34759924,
				"z": 0.1617798077,
				"element": "C" 
			},
			{
				"x": 4.418823512,
				"y": -1.0224504652,
				"z": 0.1102638752,
				"element": "C" 
			},
			{
				"x": 4.9024135241,
				"y": -1.4863495672,
				"z": -1.5952137692,
				"element": "Cl" 
			},
			{
				"x": 2.8995756083,
				"y": 1.0024912214,
				"z": 0.262882314,
				"element": "C" 
			},
			{
				"x": 1.207382634,
				"y": 1.3661614223,
				"z": 0.2930778571,
				"element": "S" 
			},
			{
				"x": -1.8841067246,
				"y": -1.2565251604,
				"z": 2.4860641059,
				"element": "H" 
			},
			{
				"x": -1.0693805632,
				"y": -2.7483569705,
				"z": 2.9895000548,
				"element": "H" 
			},
			{
				"x": -0.1550068967,
				"y": -1.2343415651,
				"z": 2.9056107146,
				"element": "H" 
			},
			{
				"x": -1.4155203428,
				"y": -2.6915832408,
				"z": 0.5022594582,
				"element": "H" 
			},
			{
				"x": 0.3166429079,
				"y": -2.708847449,
				"z": 0.8915326699,
				"element": "H" 
			},
			{
				"x": -1.3792929987,
				"y": 1.7137627982,
				"z": -0.9908397369,
				"element": "H" 
			},
			{
				"x": -0.4562921846,
				"y": 0.6596374619,
				"z": -2.0744702094,
				"element": "H" 
			},
			{
				"x": -2.2414698214,
				"y": 0.6988156575,
				"z": -2.1492663255,
				"element": "H" 
			},
			{
				"x": 5.2127831673,
				"y": -0.3759967498,
				"z": 0.4821568528,
				"element": "H" 
			},
			{
				"x": 4.4016675289,
				"y": -1.9555634723,
				"z": 0.67273352,
				"element": "H" 
			},
			{
				"x": 3.6424884685,
				"y": 1.7874541368,
				"z": 0.2803296107,
				"element": "H" 
			}
		],
		 "valence_orbital": [ 
			{
				"type": "occ",
				"energy": -0.29838,
				"method": "rhf"
			},
			{
				"type": "occ",
				"energy": -0.29299,
				"method": "rhf"
			},
			{
				"type": "occ",
				"energy": -0.2854,
				"method": "rhf"
			},
			{
				"type": "occ",
				"energy": -0.26337,
				"method": "rhf"
			},
			{
				"type": "occ",
				"energy": -0.23534,
				"method": "rhf"
			},
			{
				"type": "unocc",
				"energy": -0.04806,
				"method": "rhf"
			},
			{
				"type": "unocc",
				"energy": -0.01374,
				"method": "rhf"
			},
			{
				"type": "unocc",
				"energy": -0.00467,
				"method": "rhf"
			},
			{
				"type": "unocc",
				"energy": 0.02301,
				"method": "rhf"
			},
			{
				"type": "unocc",
				"energy": 0.0657,
				"method": "rhf"
			}
		],
		"cosmo_sigma_profile": { 
			"-0.025": 0.0,
			"-0.024": 0.0,
			"-0.023": 0.0,
			"-0.022": 0.0,
			"-0.021": 0.0,
			"-0.02": 0.0,
			"-0.019": 0.0,
			"-0.018": 0.0,
			"-0.017": 0.0,
			"-0.016": 0.0,
			"-0.015": 0.0,
			"-0.014": 0.0,
			"-0.013": 0.0,
			"-0.012": 0.0,
			"-0.011": 0.0,
			"-0.01": 1.17100469261,
			"-0.009": 3.86446499937,
			"-0.008": 6.9922707473,
			"-0.007": 6.68029276414,
			"-0.006": 10.1108150993,
			"-0.005": 12.166387982,
			"-0.004": 17.8429711164,
			"-0.003": 21.6297883786,
			"-0.002": 26.9374217626,
			"-0.001": 23.0877077968,
			"0.0": 23.5450733251,
			"0.001": 16.9263414751,
			"0.002": 13.0658958025,
			"0.003": 9.52058203273,
			"0.004": 7.33421872018,
			"0.005": 9.38125229898,
			"0.006": 12.77702945,
			"0.007": 9.3209308986,
			"0.008": 1.93425198399,
			"0.009": 2.96348884008,
			"0.01": 2.16102927452,
			"0.011": 2.64441557107,
			"0.012": 3.9942795673,
			"0.013": 3.35224767681,
			"0.014": 0.587476545052,
			"0.015": 0.0,
			"0.016": 0.0,
			"0.017": 0.0,
			"0.018": 0.0,
			"0.019": 0.0,
			"0.02": 0.0,
			"0.021": 0.0,
			"0.022": 0.0,
			"0.023": 0.0,
			"0.024": 0.0,
			"0.025": 0.0
		}
	}
}
