{
	 "smiles": "O=N(=O)C1=CC=C2C(=C1)C(=C(C#N)C#N)C1=C2C(=CC(=C1)N(=O)=O)N(=O)=O", 
	 "Tm": 540.15, 
	 "num_atms": 32, 
	 "gaussian": { 
		 "optdone": 1, 
		 "sigma_profile": "yes", 
		 "theory": "DFT", 
		 "functional": "B3LYP", 
		 "basiset": "6-31G**", 
		 "properties": { 
			 "R2extent": 10829.8885, 
			 "electric_dipole_moment_norm": 3.08779413336, 
			 "electric_quadrupole_moment_norm": 31.6042411799, 
			 "total_energy": -1337.44947466, 
			 "HOMO_LUMO_gap": 0.13057, 
			 "cosmo_polarized_energy": -23.92, 
			 "cosmo_cavitation_energy": 42.04, 
			 "cosmo_dispersion_energy": -28.51, 
			 "cosmo_repulsion_energy": 2.05, 
			 "cosmo_total_nonelectrostatic_energy": 15.57, 
			 "SMD_solvation_energy": 15.59 
		},
		"coords": [
			{
				"x": 2.4172454695,
				"y": 3.1009961177,
				"z": 4.4882109624,
				"element": "O" 
			},
			{
				"x": 2.4707937085,
				"y": 3.1493935639,
				"z": 3.2615576881,
				"element": "N" 
			},
			{
				"x": 2.9726166599,
				"y": 4.0586338935,
				"z": 2.6064533998,
				"element": "O" 
			},
			{
				"x": 1.8831418961,
				"y": 2.0185670011,
				"z": 2.5137357345,
				"element": "C" 
			},
			{
				"x": 1.3105579948,
				"y": 0.9699118156,
				"z": 3.2272554951,
				"element": "C" 
			},
			{
				"x": 0.7457360818,
				"y": -0.1045117442,
				"z": 2.5380477299,
				"element": "C" 
			},
			{
				"x": 0.7723825652,
				"y": -0.1094981256,
				"z": 1.1428233246,
				"element": "C" 
			},
			{
				"x": 1.3755307456,
				"y": 0.9685329314,
				"z": 0.4353528886,
				"element": "C" 
			},
			{
				"x": 1.9315346346,
				"y": 2.0473114348,
				"z": 1.1215285264,
				"element": "C" 
			},
			{
				"x": 1.3056682545,
				"y": 0.6968241147,
				"z": -1.009664974,
				"element": "C" 
			},
			{
				"x": 1.7399037734,
				"y": 1.5081585476,
				"z": -2.0273660815,
				"element": "C" 
			},
			{
				"x": 2.3429588134,
				"y": 2.7877491122,
				"z": -1.8082510226,
				"element": "C" 
			},
			{
				"x": 2.8374532547,
				"y": 3.8325834413,
				"z": -1.6742266141,
				"element": "N" 
			},
			{
				"x": 1.6301650938,
				"y": 1.1691953452,
				"z": -3.4136815961,
				"element": "C" 
			},
			{
				"x": 1.5590235143,
				"y": 0.9301269668,
				"z": -4.5504287235,
				"element": "N" 
			},
			{
				"x": 0.6606021211,
				"y": -0.6263269657,
				"z": -1.1469574229,
				"element": "C" 
			},
			{
				"x": 0.3073420281,
				"y": -1.1010571199,
				"z": 0.1512148214,
				"element": "C" 
			},
			{
				"x": -0.3108242698,
				"y": -2.3554399027,
				"z": 0.2371420995,
				"element": "C" 
			},
			{
				"x": -0.5431777207,
				"y": -3.1320772326,
				"z": -0.897989517,
				"element": "C" 
			},
			{
				"x": -0.1908708831,
				"y": -2.6238640249,
				"z": -2.1380127603,
				"element": "C" 
			},
			{
				"x": 0.4061446231,
				"y": -1.3742089516,
				"z": -2.2935863386,
				"element": "C" 
			},
			{
				"x": -0.4580321988,
				"y": -3.4421053626,
				"z": -3.338035028,
				"element": "N" 
			},
			{
				"x": -0.1233155862,
				"y": -2.9722893768,
				"z": -4.4212119183,
				"element": "O" 
			},
			{
				"x": -0.995026739,
				"y": -4.5328444698,
				"z": -3.1646776747,
				"element": "O" 
			},
			{
				"x": -0.7853257085,
				"y": -2.9435166373,
				"z": 1.5037148988,
				"element": "N" 
			},
			{
				"x": -0.7200792417,
				"y": -4.1629032223,
				"z": 1.6110473475,
				"element": "O" 
			},
			{
				"x": -1.2511841932,
				"y": -2.1776884824,
				"z": 2.3458179853,
				"element": "O" 
			},
			{
				"x": 1.3082743336,
				"y": 1.0064656395,
				"z": 4.3094287061,
				"element": "H" 
			},
			{
				"x": 0.2865043217,
				"y": -0.9090756356,
				"z": 3.0927675433,
				"element": "H" 
			},
			{
				"x": 2.3986605293,
				"y": 2.8911145112,
				"z": 0.6330722382,
				"element": "H" 
			},
			{
				"x": -0.9966987501,
				"y": -4.1106097988,
				"z": -0.8129270204,
				"element": "H" 
			},
			{
				"x": 0.656494874,
				"y": -1.039147384,
				"z": -3.2907546974,
				"element": "H" 
			}
		],
		 "valence_orbital": [ 
			{
				"type": "occ",
				"energy": -0.32451,
				"method": "rhf"
			},
			{
				"type": "occ",
				"energy": -0.32124,
				"method": "rhf"
			},
			{
				"type": "occ",
				"energy": -0.31649,
				"method": "rhf"
			},
			{
				"type": "occ",
				"energy": -0.29751,
				"method": "rhf"
			},
			{
				"type": "occ",
				"energy": -0.29542,
				"method": "rhf"
			},
			{
				"type": "unocc",
				"energy": -0.16485,
				"method": "rhf"
			},
			{
				"type": "unocc",
				"energy": -0.14033,
				"method": "rhf"
			},
			{
				"type": "unocc",
				"energy": -0.1176,
				"method": "rhf"
			},
			{
				"type": "unocc",
				"energy": -0.10788,
				"method": "rhf"
			},
			{
				"type": "unocc",
				"energy": -0.06225,
				"method": "rhf"
			}
		],
		"cosmo_sigma_profile": { 
			"-0.025": 0.0,
			"-0.024": 0.0,
			"-0.023": 0.0,
			"-0.022": 0.0,
			"-0.021": 0.0,
			"-0.02": 0.0,
			"-0.019": 0.0,
			"-0.018": 0.0,
			"-0.017": 0.0,
			"-0.016": 0.0,
			"-0.015": 0.0,
			"-0.014": 0.0,
			"-0.013": 0.102179662354,
			"-0.012": 0.459264146797,
			"-0.011": 0.927185744329,
			"-0.01": 1.61590377785,
			"-0.009": 5.72656074043,
			"-0.008": 9.21783304147,
			"-0.007": 17.2069239811,
			"-0.006": 27.8521620603,
			"-0.005": 31.4352751529,
			"-0.004": 27.628905327,
			"-0.003": 25.8539015403,
			"-0.002": 20.3884857907,
			"-0.001": 14.9667129717,
			"0.0": 12.4121149757,
			"0.001": 10.1892302342,
			"0.002": 11.2120614873,
			"0.003": 11.4140351239,
			"0.004": 13.9097841659,
			"0.005": 16.036591344,
			"0.006": 26.575665164,
			"0.007": 24.9465898258,
			"0.008": 17.1687212908,
			"0.009": 10.3905979541,
			"0.01": 4.92751972829,
			"0.011": 2.14961656802,
			"0.012": 0.00557594555421,
			"0.013": 0.0,
			"0.014": 0.0,
			"0.015": 0.0,
			"0.016": 0.0,
			"0.017": 0.0,
			"0.018": 0.0,
			"0.019": 0.0,
			"0.02": 0.0,
			"0.021": 0.0,
			"0.022": 0.0,
			"0.023": 0.0,
			"0.024": 0.0,
			"0.025": 0.0
		}
	}
}
