{
	 "smiles": "ClC1=C(C=C(C=C1)S(Cl)(=O)=O)C#N", 
	 "Tm": 323.15, 
	 "num_atms": 16, 
	 "gaussian": { 
		 "optdone": 1, 
		 "sigma_profile": "yes", 
		 "theory": "DFT", 
		 "functional": "B3LYP", 
		 "basiset": "6-31G**", 
		 "properties": { 
			 "R2extent": 4672.419, 
			 "electric_dipole_moment_norm": 3.97198831066, 
			 "electric_quadrupole_moment_norm": 14.3597584851, 
			 "total_energy": -1792.22679238, 
			 "HOMO_LUMO_gap": 0.18796, 
			 "cosmo_polarized_energy": -13.04, 
			 "cosmo_cavitation_energy": 27.69, 
			 "cosmo_dispersion_energy": -20.15, 
			 "cosmo_repulsion_energy": 1.56, 
			 "cosmo_total_nonelectrostatic_energy": 9.1, 
			 "SMD_solvation_energy": 4.52 
		},
		"coords": [
			{
				"x": 0.5448888028,
				"y": -1.7623593545,
				"z": 2.0802303468,
				"element": "Cl" 
			},
			{
				"x": -0.2787044979,
				"y": -0.7320934774,
				"z": 0.9510581685,
				"element": "C" 
			},
			{
				"x": -0.3288650161,
				"y": -1.0774475201,
				"z": -0.416126937,
				"element": "C" 
			},
			{
				"x": -0.9994298733,
				"y": -0.2289620704,
				"z": -1.3106805683,
				"element": "C" 
			},
			{
				"x": -1.5949040143,
				"y": 0.9285984653,
				"z": -0.8237843597,
				"element": "C" 
			},
			{
				"x": -1.5538983221,
				"y": 1.2743577793,
				"z": 0.5279840466,
				"element": "C" 
			},
			{
				"x": -0.8895197065,
				"y": 0.434112982,
				"z": 1.41638255,
				"element": "C" 
			},
			{
				"x": -2.4675500363,
				"y": 1.9948939341,
				"z": -1.9673497408,
				"element": "S" 
			},
			{
				"x": -0.9187907015,
				"y": 3.3305973094,
				"z": -2.5407182084,
				"element": "Cl" 
			},
			{
				"x": -3.4387858964,
				"y": 2.7843586221,
				"z": -1.2224267967,
				"element": "O" 
			},
			{
				"x": -2.8166256862,
				"y": 1.2293242604,
				"z": -3.1557930821,
				"element": "O" 
			},
			{
				"x": 0.2835073436,
				"y": -2.2737312499,
				"z": -0.9112529237,
				"element": "C" 
			},
			{
				"x": 0.7706264452,
				"y": -3.2363408319,
				"z": -1.3436846217,
				"element": "N" 
			},
			{
				"x": -1.0563526535,
				"y": -0.4827303458,
				"z": -2.3629188666,
				"element": "H" 
			},
			{
				"x": -2.0412026716,
				"y": 2.1778881691,
				"z": 0.8768842072,
				"element": "H" 
			},
			{
				"x": -0.8441935157,
				"y": 0.6748333284,
				"z": 2.4720967859,
				"element": "H" 
			}
		],
		 "valence_orbital": [ 
			{
				"type": "occ",
				"energy": -0.34984,
				"method": "rhf"
			},
			{
				"type": "occ",
				"energy": -0.34683,
				"method": "rhf"
			},
			{
				"type": "occ",
				"energy": -0.3307,
				"method": "rhf"
			},
			{
				"type": "occ",
				"energy": -0.31271,
				"method": "rhf"
			},
			{
				"type": "occ",
				"energy": -0.29902,
				"method": "rhf"
			},
			{
				"type": "unocc",
				"energy": -0.11106,
				"method": "rhf"
			},
			{
				"type": "unocc",
				"energy": -0.09171,
				"method": "rhf"
			},
			{
				"type": "unocc",
				"energy": -0.07072,
				"method": "rhf"
			},
			{
				"type": "unocc",
				"energy": -0.01082,
				"method": "rhf"
			},
			{
				"type": "unocc",
				"energy": 0.00578,
				"method": "rhf"
			}
		],
		"cosmo_sigma_profile": { 
			"-0.025": 0.0,
			"-0.024": 0.0,
			"-0.023": 0.0,
			"-0.022": 0.0,
			"-0.021": 0.0,
			"-0.02": 0.0,
			"-0.019": 0.0,
			"-0.018": 0.0,
			"-0.017": 0.0,
			"-0.016": 0.0,
			"-0.015": 0.0,
			"-0.014": 0.0,
			"-0.013": 0.0,
			"-0.012": 0.0,
			"-0.011": 0.955559405519,
			"-0.01": 5.25979119278,
			"-0.009": 5.75344781198,
			"-0.008": 6.04935045242,
			"-0.007": 5.90858898826,
			"-0.006": 6.88148815788,
			"-0.005": 9.9041065095,
			"-0.004": 17.0429889802,
			"-0.003": 22.1028256192,
			"-0.002": 18.7726113844,
			"-0.001": 13.6381259648,
			"0.0": 12.5364602158,
			"0.001": 13.0662372204,
			"0.002": 23.6343939463,
			"0.003": 16.3943279139,
			"0.004": 6.71598540919,
			"0.005": 5.91297830215,
			"0.006": 6.36912444965,
			"0.007": 11.5156013643,
			"0.008": 11.1082480674,
			"0.009": 4.35707824377,
			"0.01": 2.56759391348,
			"0.011": 2.32298541545,
			"0.012": 1.20887516636,
			"0.013": 0.0,
			"0.014": 0.0,
			"0.015": 0.0,
			"0.016": 0.0,
			"0.017": 0.0,
			"0.018": 0.0,
			"0.019": 0.0,
			"0.02": 0.0,
			"0.021": 0.0,
			"0.022": 0.0,
			"0.023": 0.0,
			"0.024": 0.0,
			"0.025": 0.0
		}
	}
}
