{
	 "smiles": "CC(N(C)C1=NC=CN2C=NN=C12)C(O)=O", 
	 "Tm": 427.15, 
	 "num_atms": 27, 
	 "gaussian": { 
		 "optdone": 1, 
		 "sigma_profile": "yes", 
		 "theory": "DFT", 
		 "functional": "B3LYP", 
		 "basiset": "6-31G**", 
		 "properties": { 
			 "R2extent": 3259.6358, 
			 "electric_dipole_moment_norm": 2.05996498271, 
			 "electric_quadrupole_moment_norm": 18.7834472425, 
			 "total_energy": -773.764083087, 
			 "HOMO_LUMO_gap": 0.17302, 
			 "cosmo_polarized_energy": -19.82, 
			 "cosmo_cavitation_energy": 30.22, 
			 "cosmo_dispersion_energy": -21.65, 
			 "cosmo_repulsion_energy": 1.66, 
			 "cosmo_total_nonelectrostatic_energy": 10.24, 
			 "SMD_solvation_energy": 5.11 
		},
		"coords": [
			{
				"x": 1.9338704097,
				"y": -2.4410051115,
				"z": 0.7857605022,
				"element": "C" 
			},
			{
				"x": 2.394640464,
				"y": -1.0824965801,
				"z": 0.2365176378,
				"element": "C" 
			},
			{
				"x": 1.698483461,
				"y": 0.0688078992,
				"z": 0.8246323341,
				"element": "N" 
			},
			{
				"x": 2.481882782,
				"y": 0.8923079358,
				"z": 1.7476016148,
				"element": "C" 
			},
			{
				"x": 0.4966552231,
				"y": 0.5690266898,
				"z": 0.4018319577,
				"element": "C" 
			},
			{
				"x": 0.1208664495,
				"y": 1.7540113248,
				"z": 0.8641592001,
				"element": "N" 
			},
			{
				"x": -1.0828061677,
				"y": 2.2773012251,
				"z": 0.4964013159,
				"element": "C" 
			},
			{
				"x": -1.9640402481,
				"y": 1.6765318903,
				"z": -0.3472384276,
				"element": "C" 
			},
			{
				"x": -1.5837975846,
				"y": 0.435596812,
				"z": -0.8362192519,
				"element": "N" 
			},
			{
				"x": -2.1823752825,
				"y": -0.4677607353,
				"z": -1.6690252555,
				"element": "C" 
			},
			{
				"x": -1.4165111391,
				"y": -1.5313611166,
				"z": -1.8202081413,
				"element": "N" 
			},
			{
				"x": -0.2883472128,
				"y": -1.3469666647,
				"z": -1.0831439737,
				"element": "N" 
			},
			{
				"x": -0.382504645,
				"y": -0.1617637072,
				"z": -0.4893858994,
				"element": "C" 
			},
			{
				"x": 2.4875938429,
				"y": -0.9765435954,
				"z": -1.2912889568,
				"element": "C" 
			},
			{
				"x": 2.8574232943,
				"y": -2.1497918022,
				"z": -1.8439499031,
				"element": "O" 
			},
			{
				"x": 2.3660968106,
				"y": 0.0475002573,
				"z": -1.9236577257,
				"element": "O" 
			},
			{
				"x": 1.983908533,
				"y": -2.4222053607,
				"z": 1.87860501,
				"element": "H" 
			},
			{
				"x": 2.5923010837,
				"y": -3.2316370126,
				"z": 0.419422981,
				"element": "H" 
			},
			{
				"x": 0.9158595329,
				"y": -2.6621278954,
				"z": 0.4680043365,
				"element": "H" 
			},
			{
				"x": 3.4417288405,
				"y": -0.9583028844,
				"z": 0.5413610003,
				"element": "H" 
			},
			{
				"x": 3.1615690922,
				"y": 0.2435549198,
				"z": 2.3050844607,
				"element": "H" 
			},
			{
				"x": 3.0648688353,
				"y": 1.6527637595,
				"z": 1.2120602279,
				"element": "H" 
			},
			{
				"x": 1.8171271973,
				"y": 1.4038641069,
				"z": 2.4412852572,
				"element": "H" 
			},
			{
				"x": -1.3234987712,
				"y": 3.2497455471,
				"z": 0.9161282677,
				"element": "H" 
			},
			{
				"x": -2.9166687188,
				"y": 2.0782428848,
				"z": -0.6623898293,
				"element": "H" 
			},
			{
				"x": -3.1478448098,
				"y": -0.308800315,
				"z": -2.1249638195,
				"element": "H" 
			},
			{
				"x": 2.9231187277,
				"y": -1.9871924715,
				"z": -2.7997849201,
				"element": "H" 
			}
		],
		 "valence_orbital": [ 
			{
				"type": "occ",
				"energy": -0.27384,
				"method": "rhf"
			},
			{
				"type": "occ",
				"energy": -0.26771,
				"method": "rhf"
			},
			{
				"type": "occ",
				"energy": -0.25827,
				"method": "rhf"
			},
			{
				"type": "occ",
				"energy": -0.257,
				"method": "rhf"
			},
			{
				"type": "occ",
				"energy": -0.20829,
				"method": "rhf"
			},
			{
				"type": "unocc",
				"energy": -0.03527,
				"method": "rhf"
			},
			{
				"type": "unocc",
				"energy": -0.00712,
				"method": "rhf"
			},
			{
				"type": "unocc",
				"energy": 0.01292,
				"method": "rhf"
			},
			{
				"type": "unocc",
				"energy": 0.04488,
				"method": "rhf"
			},
			{
				"type": "unocc",
				"energy": 0.07999,
				"method": "rhf"
			}
		],
		"cosmo_sigma_profile": { 
			"-0.025": 0.0,
			"-0.024": 0.0,
			"-0.023": 0.0,
			"-0.022": 0.0,
			"-0.021": 0.0,
			"-0.02": 0.0,
			"-0.019": 0.109792396975,
			"-0.018": 0.940211660257,
			"-0.017": 0.756844270349,
			"-0.016": 0.801291275791,
			"-0.015": 0.822664536272,
			"-0.014": 1.03040339357,
			"-0.013": 0.362075744431,
			"-0.012": 0.566055028031,
			"-0.011": 3.7941738896,
			"-0.01": 4.55683006735,
			"-0.009": 5.73078785717,
			"-0.008": 6.79917880628,
			"-0.007": 8.5077346736,
			"-0.006": 9.81518642653,
			"-0.005": 9.53622934479,
			"-0.004": 14.9178956122,
			"-0.003": 17.6893795978,
			"-0.002": 21.1933832675,
			"-0.001": 17.2687068146,
			"0.0": 16.8516024248,
			"0.001": 14.2684115131,
			"0.002": 10.5020089071,
			"0.003": 7.97430658793,
			"0.004": 6.82482949777,
			"0.005": 7.01933858515,
			"0.006": 6.50874314897,
			"0.007": 9.12538199331,
			"0.008": 5.98278065865,
			"0.009": 4.64128059548,
			"0.01": 6.19165244759,
			"0.011": 6.91773497009,
			"0.012": 6.92821965072,
			"0.013": 2.07255124283,
			"0.014": 1.51930741108,
			"0.015": 1.07708808074,
			"0.016": 0.911975025474,
			"0.017": 0.0502242300267,
			"0.018": 0.0,
			"0.019": 0.0,
			"0.02": 0.0,
			"0.021": 0.0,
			"0.022": 0.0,
			"0.023": 0.0,
			"0.024": 0.0,
			"0.025": 0.0
		}
	}
}
