{
	 "smiles": "CCC1=C(C)C=C(O1)C(O)=O", 
	 "Tm": 407.15, 
	 "num_atms": 21, 
	 "gaussian": { 
		 "optdone": 1, 
		 "sigma_profile": "yes", 
		 "theory": "DFT", 
		 "functional": "B3LYP", 
		 "basiset": "6-31G**", 
		 "properties": { 
			 "R2extent": 2246.7945, 
			 "electric_dipole_moment_norm": 5.81449327543, 
			 "electric_quadrupole_moment_norm": 18.7157769938, 
			 "total_energy": -536.547930768, 
			 "HOMO_LUMO_gap": 0.19224, 
			 "cosmo_polarized_energy": -16.05, 
			 "cosmo_cavitation_energy": 25.34, 
			 "cosmo_dispersion_energy": -18.21, 
			 "cosmo_repulsion_energy": 1.51, 
			 "cosmo_total_nonelectrostatic_energy": 8.63, 
			 "SMD_solvation_energy": 6.26 
		},
		"coords": [
			{
				"x": 1.426649381,
				"y": -1.6894421356,
				"z": 2.4104473953,
				"element": "C" 
			},
			{
				"x": 1.1661614429,
				"y": -0.2780265422,
				"z": 1.8527030274,
				"element": "C" 
			},
			{
				"x": 0.510697329,
				"y": -0.283750093,
				"z": 0.5112718938,
				"element": "C" 
			},
			{
				"x": 0.8967581997,
				"y": 0.1422718435,
				"z": -0.7384647533,
				"element": "C" 
			},
			{
				"x": 2.191311419,
				"y": 0.7875772046,
				"z": -1.1371268807,
				"element": "C" 
			},
			{
				"x": -0.2020477445,
				"y": -0.1631852578,
				"z": -1.6017559804,
				"element": "C" 
			},
			{
				"x": -1.172422547,
				"y": -0.7483528732,
				"z": -0.8297151395,
				"element": "C" 
			},
			{
				"x": -0.7378121775,
				"y": -0.8261548339,
				"z": 0.4608522429,
				"element": "O" 
			},
			{
				"x": -2.5047622591,
				"y": -1.311744094,
				"z": -1.1081516267,
				"element": "C" 
			},
			{
				"x": -2.9865872712,
				"y": -1.0660711003,
				"z": -2.3603911665,
				"element": "O" 
			},
			{
				"x": -3.1474102227,
				"y": -1.9584162086,
				"z": -0.3170457589,
				"element": "O" 
			},
			{
				"x": 1.8822638212,
				"y": -1.6305739232,
				"z": 3.403482663,
				"element": "H" 
			},
			{
				"x": 0.4919252693,
				"y": -2.2499752186,
				"z": 2.4950568139,
				"element": "H" 
			},
			{
				"x": 2.1009462309,
				"y": -2.2517636311,
				"z": 1.7572327649,
				"element": "H" 
			},
			{
				"x": 0.5313098984,
				"y": 0.2778445488,
				"z": 2.5548480156,
				"element": "H" 
			},
			{
				"x": 2.1060885793,
				"y": 0.2773293679,
				"z": 1.7754039015,
				"element": "H" 
			},
			{
				"x": 2.7209690857,
				"y": 0.18942822,
				"z": -1.8872653596,
				"element": "H" 
			},
			{
				"x": 2.0262630375,
				"y": 1.7803353089,
				"z": -1.5709474025,
				"element": "H" 
			},
			{
				"x": 2.8603386275,
				"y": 0.9092139649,
				"z": -0.2815476578,
				"element": "H" 
			},
			{
				"x": -0.2350005257,
				"y": 0.0169770033,
				"z": -2.6690953016,
				"element": "H" 
			},
			{
				"x": -2.4152395737,
				"y": -0.4406215505,
				"z": -2.8271916909,
				"element": "H" 
			}
		],
		 "valence_orbital": [ 
			{
				"type": "occ",
				"energy": -0.35511,
				"method": "rhf"
			},
			{
				"type": "occ",
				"energy": -0.31101,
				"method": "rhf"
			},
			{
				"type": "occ",
				"energy": -0.28598,
				"method": "rhf"
			},
			{
				"type": "occ",
				"energy": -0.27039,
				"method": "rhf"
			},
			{
				"type": "occ",
				"energy": -0.23389,
				"method": "rhf"
			},
			{
				"type": "unocc",
				"energy": -0.04165,
				"method": "rhf"
			},
			{
				"type": "unocc",
				"energy": 0.03671,
				"method": "rhf"
			},
			{
				"type": "unocc",
				"energy": 0.05757,
				"method": "rhf"
			},
			{
				"type": "unocc",
				"energy": 0.08127,
				"method": "rhf"
			},
			{
				"type": "unocc",
				"energy": 0.10117,
				"method": "rhf"
			}
		],
		"cosmo_sigma_profile": { 
			"-0.025": 0.0,
			"-0.024": 0.0,
			"-0.023": 0.0,
			"-0.022": 0.0,
			"-0.021": 0.0,
			"-0.02": 0.0,
			"-0.019": 0.214612206221,
			"-0.018": 0.909632575738,
			"-0.017": 1.21314923624,
			"-0.016": 1.1012626206,
			"-0.015": 1.1294972147,
			"-0.014": 0.549119114645,
			"-0.013": 0.627447214436,
			"-0.012": 1.7418953816,
			"-0.011": 1.45072363129,
			"-0.01": 1.09516040949,
			"-0.009": 1.75205229729,
			"-0.008": 1.3095176272,
			"-0.007": 2.18460583619,
			"-0.006": 3.56657167186,
			"-0.005": 7.63323393443,
			"-0.004": 14.7694255406,
			"-0.003": 20.3288544911,
			"-0.002": 22.7677901033,
			"-0.001": 22.6263429536,
			"0.0": 20.441850384,
			"0.001": 16.3865670238,
			"0.002": 8.83343044427,
			"0.003": 7.94997487038,
			"0.004": 2.69992894769,
			"0.005": 2.72463875692,
			"0.006": 3.02313335706,
			"0.007": 3.22844119477,
			"0.008": 3.01740689074,
			"0.009": 4.01173803281,
			"0.01": 4.75151388548,
			"0.011": 5.84801103006,
			"0.012": 6.62256524636,
			"0.013": 3.6791983242,
			"0.014": 0.177273382893,
			"0.015": 0.0,
			"0.016": 0.0,
			"0.017": 0.0,
			"0.018": 0.0,
			"0.019": 0.0,
			"0.02": 0.0,
			"0.021": 0.0,
			"0.022": 0.0,
			"0.023": 0.0,
			"0.024": 0.0,
			"0.025": 0.0
		}
	}
}
