{
	 "smiles": "CN1C=C(C=C1C(O)=O)S(Cl)(=O)=O", 
	 "Tm": 438.15, 
	 "num_atms": 19, 
	 "gaussian": { 
		 "optdone": 1, 
		 "sigma_profile": "yes", 
		 "theory": "DFT", 
		 "functional": "B3LYP", 
		 "basiset": "6-31G**", 
		 "properties": { 
			 "R2extent": 4663.6642, 
			 "electric_dipole_moment_norm": 7.36612783897, 
			 "electric_quadrupole_moment_norm": 19.9090700001, 
			 "total_energy": -1446.20029696, 
			 "HOMO_LUMO_gap": 0.18493, 
			 "cosmo_polarized_energy": -23.81, 
			 "cosmo_cavitation_energy": 27.73, 
			 "cosmo_dispersion_energy": -20.48, 
			 "cosmo_repulsion_energy": 1.58, 
			 "cosmo_total_nonelectrostatic_energy": 8.83, 
			 "SMD_solvation_energy": 4.85 
		},
		"coords": [
			{
				"x": -1.5690778879,
				"y": -1.0925053786,
				"z": -0.045026278,
				"element": "C" 
			},
			{
				"x": -0.3205337619,
				"y": -0.4249899694,
				"z": 0.3207919821,
				"element": "N" 
			},
			{
				"x": 0.2740876244,
				"y": -0.5710157394,
				"z": 1.5332737785,
				"element": "C" 
			},
			{
				"x": 1.3951949146,
				"y": 0.2447133945,
				"z": 1.5571339465,
				"element": "C" 
			},
			{
				"x": 1.4774340294,
				"y": 0.9334117019,
				"z": 0.3267189005,
				"element": "C" 
			},
			{
				"x": 0.4118229688,
				"y": 0.496586355,
				"z": -0.4374891156,
				"element": "C" 
			},
			{
				"x": 0.1203389102,
				"y": 0.9599759788,
				"z": -1.8136918906,
				"element": "C" 
			},
			{
				"x": -0.6175755007,
				"y": 0.1382499617,
				"z": -2.6181204897,
				"element": "O" 
			},
			{
				"x": 0.5115143453,
				"y": 2.0221582989,
				"z": -2.2294812026,
				"element": "O" 
			},
			{
				"x": 2.4865065152,
				"y": 0.3583333257,
				"z": 2.9189723259,
				"element": "S" 
			},
			{
				"x": 1.7595068848,
				"y": 2.0901569071,
				"z": 3.9315243369,
				"element": "Cl" 
			},
			{
				"x": 2.2319705916,
				"y": -0.765022039,
				"z": 3.8137685901,
				"element": "O" 
			},
			{
				"x": 3.8196493739,
				"y": 0.7040284427,
				"z": 2.4466839326,
				"element": "O" 
			},
			{
				"x": -2.206618298,
				"y": -0.4136240878,
				"z": -0.612240819,
				"element": "H" 
			},
			{
				"x": -1.3830422425,
				"y": -1.9996434152,
				"z": -0.6323135604,
				"element": "H" 
			},
			{
				"x": -2.090251328,
				"y": -1.3829464129,
				"z": 0.8676464662,
				"element": "H" 
			},
			{
				"x": -0.1225721239,
				"y": -1.2232474845,
				"z": 2.2966009081,
				"element": "H" 
			},
			{
				"x": 2.2222934968,
				"y": 1.6492762251,
				"z": 0.0144369359,
				"element": "H" 
			},
			{
				"x": -0.6087485124,
				"y": -0.7698960646,
				"z": -2.2875887475,
				"element": "H" 
			}
		],
		 "valence_orbital": [ 
			{
				"type": "occ",
				"energy": -0.33474,
				"method": "rhf"
			},
			{
				"type": "occ",
				"energy": -0.31232,
				"method": "rhf"
			},
			{
				"type": "occ",
				"energy": -0.301,
				"method": "rhf"
			},
			{
				"type": "occ",
				"energy": -0.29484,
				"method": "rhf"
			},
			{
				"type": "occ",
				"energy": -0.26995,
				"method": "rhf"
			},
			{
				"type": "unocc",
				"energy": -0.08502,
				"method": "rhf"
			},
			{
				"type": "unocc",
				"energy": -0.06035,
				"method": "rhf"
			},
			{
				"type": "unocc",
				"energy": -0.01206,
				"method": "rhf"
			},
			{
				"type": "unocc",
				"energy": 0.01694,
				"method": "rhf"
			},
			{
				"type": "unocc",
				"energy": 0.05773,
				"method": "rhf"
			}
		],
		"cosmo_sigma_profile": { 
			"-0.025": 0.0,
			"-0.024": 0.0,
			"-0.023": 0.0,
			"-0.022": 0.0,
			"-0.021": 0.0,
			"-0.02": 0.0416973415056,
			"-0.019": 0.814087488314,
			"-0.018": 1.12523481692,
			"-0.017": 1.29015163596,
			"-0.016": 0.773709533477,
			"-0.015": 1.242894068,
			"-0.014": 0.60499210095,
			"-0.013": 0.939700358115,
			"-0.012": 1.90877326952,
			"-0.011": 4.05456177202,
			"-0.01": 2.7884262049,
			"-0.009": 5.93994511587,
			"-0.008": 8.55600990041,
			"-0.007": 10.3131444665,
			"-0.006": 10.4621620243,
			"-0.005": 11.7752940869,
			"-0.004": 8.84206994258,
			"-0.003": 8.41898924158,
			"-0.002": 10.7167269857,
			"-0.001": 11.8617178862,
			"0.0": 11.7362237851,
			"0.001": 12.8563707133,
			"0.002": 11.6522238696,
			"0.003": 15.2158081432,
			"0.004": 13.5512332242,
			"0.005": 6.5713338225,
			"0.006": 4.96829966481,
			"0.007": 7.43077236555,
			"0.008": 13.7816293367,
			"0.009": 9.93879923679,
			"0.01": 5.23903987332,
			"0.011": 5.92958230585,
			"0.012": 3.10539155688,
			"0.013": 0.407802739513,
			"0.014": 0.0,
			"0.015": 0.0,
			"0.016": 0.0,
			"0.017": 0.0,
			"0.018": 0.0,
			"0.019": 0.0,
			"0.02": 0.0,
			"0.021": 0.0,
			"0.022": 0.0,
			"0.023": 0.0,
			"0.024": 0.0,
			"0.025": 0.0
		}
	}
}
