{
	 "smiles": "CC(C)(C)C1=C(O)C=C(O)C(=C1)C(=O)C1=CC=CC=C1", 
	 "Tm": 419.15, 
	 "num_atms": 38, 
	 "gaussian": { 
		 "optdone": 1, 
		 "sigma_profile": "yes", 
		 "theory": "DFT", 
		 "functional": "B3LYP", 
		 "basiset": "6-31G**", 
		 "properties": { 
			 "R2extent": 6576.0503, 
			 "electric_dipole_moment_norm": 2.54650313567, 
			 "electric_quadrupole_moment_norm": 18.0923406175, 
			 "total_energy": -884.352887935, 
			 "HOMO_LUMO_gap": 0.15481, 
			 "cosmo_polarized_energy": -12.31, 
			 "cosmo_cavitation_energy": 39.51, 
			 "cosmo_dispersion_energy": -27.76, 
			 "cosmo_repulsion_energy": 2.1, 
			 "cosmo_total_nonelectrostatic_energy": 13.85, 
			 "SMD_solvation_energy": 7.76 
		},
		"coords": [
			{
				"x": 2.4534361095,
				"y": 1.0874043598,
				"z": 1.7306541277,
				"element": "C" 
			},
			{
				"x": 3.0628147738,
				"y": 1.06029301,
				"z": 0.3144019295,
				"element": "C" 
			},
			{
				"x": 3.3071947577,
				"y": 2.528708776,
				"z": -0.1137244929,
				"element": "C" 
			},
			{
				"x": 4.4128006081,
				"y": 0.305748294,
				"z": 0.4023216056,
				"element": "C" 
			},
			{
				"x": 2.1281359824,
				"y": 0.3595822872,
				"z": -0.692844702,
				"element": "C" 
			},
			{
				"x": 2.4627662696,
				"y": 0.2239324461,
				"z": -2.0710077966,
				"element": "C" 
			},
			{
				"x": 3.6636560961,
				"y": 0.7106915908,
				"z": -2.4968460727,
				"element": "O" 
			},
			{
				"x": 1.5999827234,
				"y": -0.3693990531,
				"z": -2.9876809961,
				"element": "C" 
			},
			{
				"x": 0.3595137317,
				"y": -0.872976494,
				"z": -2.5872429167,
				"element": "C" 
			},
			{
				"x": -0.4458332459,
				"y": -1.3945962925,
				"z": -3.5171051918,
				"element": "O" 
			},
			{
				"x": 0.0054023437,
				"y": -0.8169116297,
				"z": -1.2088547902,
				"element": "C" 
			},
			{
				"x": 0.901407239,
				"y": -0.1754027307,
				"z": -0.3214834863,
				"element": "C" 
			},
			{
				"x": -1.2807050016,
				"y": -1.3797387071,
				"z": -0.79351609,
				"element": "C" 
			},
			{
				"x": -2.1278960231,
				"y": -1.7261563413,
				"z": -1.6454457336,
				"element": "O" 
			},
			{
				"x": -1.641973622,
				"y": -1.5691514584,
				"z": 0.648368632,
				"element": "C" 
			},
			{
				"x": -0.7389498817,
				"y": -2.0668394421,
				"z": 1.6005849694,
				"element": "C" 
			},
			{
				"x": -1.1556035102,
				"y": -2.2981205534,
				"z": 2.9122093327,
				"element": "C" 
			},
			{
				"x": -2.4714073877,
				"y": -2.023941479,
				"z": 3.2882564174,
				"element": "C" 
			},
			{
				"x": -3.3795031388,
				"y": -1.538992907,
				"z": 2.3426546444,
				"element": "C" 
			},
			{
				"x": -2.9719153481,
				"y": -1.3284414159,
				"z": 1.0281758458,
				"element": "C" 
			},
			{
				"x": 3.147088052,
				"y": 1.5913965382,
				"z": 2.4110179884,
				"element": "H" 
			},
			{
				"x": 1.5064305756,
				"y": 1.6365259654,
				"z": 1.7620739449,
				"element": "H" 
			},
			{
				"x": 2.2807670761,
				"y": 0.0807665751,
				"z": 2.1261212562,
				"element": "H" 
			},
			{
				"x": 3.9608993974,
				"y": 3.0260336626,
				"z": 0.611984323,
				"element": "H" 
			},
			{
				"x": 2.3629615187,
				"y": 3.0827333925,
				"z": -0.1499810138,
				"element": "H" 
			},
			{
				"x": 3.7795052847,
				"y": 2.5916808397,
				"z": -1.0949967183,
				"element": "H" 
			},
			{
				"x": 4.9260104052,
				"y": 0.280155251,
				"z": -0.5599612677,
				"element": "H" 
			},
			{
				"x": 4.2581102905,
				"y": -0.7259109805,
				"z": 0.7368065371,
				"element": "H" 
			},
			{
				"x": 5.0707019293,
				"y": 0.7988422773,
				"z": 1.1271529361,
				"element": "H" 
			},
			{
				"x": 3.7474833451,
				"y": 0.5539530128,
				"z": -3.4469952108,
				"element": "H" 
			},
			{
				"x": 1.8653063816,
				"y": -0.4349598124,
				"z": -4.0397307112,
				"element": "H" 
			},
			{
				"x": -1.2918315686,
				"y": -1.6219411369,
				"z": -3.0391834012,
				"element": "H" 
			},
			{
				"x": 0.5882102758,
				"y": -0.0812556076,
				"z": 0.7084539642,
				"element": "H" 
			},
			{
				"x": 0.2787675622,
				"y": -2.3036561118,
				"z": 1.3085499147,
				"element": "H" 
			},
			{
				"x": -0.4530390633,
				"y": -2.6973812259,
				"z": 3.6378654073,
				"element": "H" 
			},
			{
				"x": -2.7915507427,
				"y": -2.1961647315,
				"z": 4.3118733944,
				"element": "H" 
			},
			{
				"x": -4.4067048569,
				"y": -1.3338248049,
				"z": 2.629690132,
				"element": "H" 
			},
			{
				"x": -3.6728393386,
				"y": -0.9779853629,
				"z": 0.2778832893,
				"element": "H" 
			}
		],
		 "valence_orbital": [ 
			{
				"type": "occ",
				"energy": -0.26654,
				"method": "rhf"
			},
			{
				"type": "occ",
				"energy": -0.26041,
				"method": "rhf"
			},
			{
				"type": "occ",
				"energy": -0.25182,
				"method": "rhf"
			},
			{
				"type": "occ",
				"energy": -0.24159,
				"method": "rhf"
			},
			{
				"type": "occ",
				"energy": -0.21775,
				"method": "rhf"
			},
			{
				"type": "unocc",
				"energy": -0.06294,
				"method": "rhf"
			},
			{
				"type": "unocc",
				"energy": -0.01343,
				"method": "rhf"
			},
			{
				"type": "unocc",
				"energy": -0.00886,
				"method": "rhf"
			},
			{
				"type": "unocc",
				"energy": 0.00824,
				"method": "rhf"
			},
			{
				"type": "unocc",
				"energy": 0.05538,
				"method": "rhf"
			}
		],
		"cosmo_sigma_profile": { 
			"-0.025": 0.0,
			"-0.024": 0.0,
			"-0.023": 0.0,
			"-0.022": 0.0,
			"-0.021": 0.0,
			"-0.02": 0.0,
			"-0.019": 0.116300132574,
			"-0.018": 0.943038864927,
			"-0.017": 1.17764100024,
			"-0.016": 1.04042902262,
			"-0.015": 0.765370786149,
			"-0.014": 1.35891319289,
			"-0.013": 0.861705156119,
			"-0.012": 1.08756272977,
			"-0.011": 0.450792380588,
			"-0.01": 1.46666703548,
			"-0.009": 1.14158180925,
			"-0.008": 0.930071714737,
			"-0.007": 2.44408964592,
			"-0.006": 9.95561779271,
			"-0.005": 12.4854424923,
			"-0.004": 16.4585133229,
			"-0.003": 22.1608422771,
			"-0.002": 33.2642457092,
			"-0.001": 28.0331204699,
			"0.0": 28.6970225198,
			"0.001": 33.6405564901,
			"0.002": 35.0976041007,
			"0.003": 25.6498518015,
			"0.004": 21.8970049714,
			"0.005": 9.01960290843,
			"0.006": 3.87821875013,
			"0.007": 3.35857514314,
			"0.008": 3.85642228815,
			"0.009": 2.4689885023,
			"0.01": 3.41942998897,
			"0.011": 3.17382455016,
			"0.012": 2.00006827301,
			"0.013": 0.416290562734,
			"0.014": 0.0,
			"0.015": 0.0,
			"0.016": 0.0,
			"0.017": 0.0,
			"0.018": 0.0,
			"0.019": 0.0,
			"0.02": 0.0,
			"0.021": 0.0,
			"0.022": 0.0,
			"0.023": 0.0,
			"0.024": 0.0,
			"0.025": 0.0
		}
	}
}
