{
	 "smiles": "ClC1=CC(C=O)=C(Cl)C=C1", 
	 "Tm": 330.15, 
	 "num_atms": 14, 
	 "gaussian": { 
		 "optdone": 1, 
		 "sigma_profile": "yes", 
		 "theory": "DFT", 
		 "functional": "B3LYP", 
		 "basiset": "6-31G**", 
		 "properties": { 
			 "R2extent": 2831.7332, 
			 "electric_dipole_moment_norm": 2.89466416359, 
			 "electric_quadrupole_moment_norm": 5.35846407845, 
			 "total_energy": -1264.75095987, 
			 "HOMO_LUMO_gap": 0.17659, 
			 "cosmo_polarized_energy": -6.42, 
			 "cosmo_cavitation_energy": 22.51, 
			 "cosmo_dispersion_energy": -16.82, 
			 "cosmo_repulsion_energy": 1.36, 
			 "cosmo_total_nonelectrostatic_energy": 7.04, 
			 "SMD_solvation_energy": 4.44 
		},
		"coords": [
			{
				"x": -2.3705417037,
				"y": 1.6661365751,
				"z": -2.8563003644,
				"element": "Cl" 
			},
			{
				"x": -1.2638372139,
				"y": 1.3901514437,
				"z": -1.5254120317,
				"element": "C" 
			},
			{
				"x": 0.0982761261,
				"y": 1.577535918,
				"z": -1.7089825328,
				"element": "C" 
			},
			{
				"x": 0.9922211355,
				"y": 1.3589109286,
				"z": -0.648775775,
				"element": "C" 
			},
			{
				"x": 2.4426019162,
				"y": 1.5785039047,
				"z": -0.9136332815,
				"element": "C" 
			},
			{
				"x": 2.8692356374,
				"y": 1.933408985,
				"z": -1.9954487375,
				"element": "O" 
			},
			{
				"x": 0.479596191,
				"y": 0.9493703498,
				"z": 0.592064463,
				"element": "C" 
			},
			{
				"x": 1.5357252371,
				"y": 0.6558984185,
				"z": 1.965986741,
				"element": "Cl" 
			},
			{
				"x": -0.8909440744,
				"y": 0.7619302076,
				"z": 0.7729587387,
				"element": "C" 
			},
			{
				"x": -1.767615437,
				"y": 0.9821234033,
				"z": -0.2867937128,
				"element": "C" 
			},
			{
				"x": 0.5086904819,
				"y": 1.893652181,
				"z": -2.6618006234,
				"element": "H" 
			},
			{
				"x": 3.1215467269,
				"y": 1.3988866832,
				"z": -0.0609334104,
				"element": "H" 
			},
			{
				"x": -1.2685282042,
				"y": 0.4453129937,
				"z": 1.738709028,
				"element": "H" 
			},
			{
				"x": -2.8340268189,
				"y": 0.8382780078,
				"z": -0.1529385011,
				"element": "H" 
			}
		],
		 "valence_orbital": [ 
			{
				"type": "occ",
				"energy": -0.33082,
				"method": "rhf"
			},
			{
				"type": "occ",
				"energy": -0.32816,
				"method": "rhf"
			},
			{
				"type": "occ",
				"energy": -0.28876,
				"method": "rhf"
			},
			{
				"type": "occ",
				"energy": -0.27009,
				"method": "rhf"
			},
			{
				"type": "occ",
				"energy": -0.26159,
				"method": "rhf"
			},
			{
				"type": "unocc",
				"energy": -0.085,
				"method": "rhf"
			},
			{
				"type": "unocc",
				"energy": -0.03849,
				"method": "rhf"
			},
			{
				"type": "unocc",
				"energy": 0.00483,
				"method": "rhf"
			},
			{
				"type": "unocc",
				"energy": 0.01619,
				"method": "rhf"
			},
			{
				"type": "unocc",
				"energy": 0.02204,
				"method": "rhf"
			}
		],
		"cosmo_sigma_profile": { 
			"-0.025": 0.0,
			"-0.024": 0.0,
			"-0.023": 0.0,
			"-0.022": 0.0,
			"-0.021": 0.0,
			"-0.02": 0.0,
			"-0.019": 0.0,
			"-0.018": 0.0,
			"-0.017": 0.0,
			"-0.016": 0.0,
			"-0.015": 0.0,
			"-0.014": 0.0,
			"-0.013": 0.0,
			"-0.012": 0.0,
			"-0.011": 0.0,
			"-0.01": 0.0,
			"-0.009": 1.80981136564,
			"-0.008": 4.6131804097,
			"-0.007": 5.66170918107,
			"-0.006": 7.06147079918,
			"-0.005": 9.20027367802,
			"-0.004": 8.71349640036,
			"-0.003": 10.7766262072,
			"-0.002": 14.2925498723,
			"-0.001": 20.4500769566,
			"0.0": 27.0486661971,
			"0.001": 16.85653747,
			"0.002": 12.9751875671,
			"0.003": 15.3426377094,
			"0.004": 14.2692244394,
			"0.005": 2.3461813301,
			"0.006": 1.5482131204,
			"0.007": 1.30002954456,
			"0.008": 2.45692721112,
			"0.009": 1.75918060481,
			"0.01": 3.95046510305,
			"0.011": 2.84163493813,
			"0.012": 1.05091495321,
			"0.013": 0.027608768495,
			"0.014": 0.0,
			"0.015": 0.0,
			"0.016": 0.0,
			"0.017": 0.0,
			"0.018": 0.0,
			"0.019": 0.0,
			"0.02": 0.0,
			"0.021": 0.0,
			"0.022": 0.0,
			"0.023": 0.0,
			"0.024": 0.0,
			"0.025": 0.0
		}
	}
}
