{
	 "smiles": "CN(C)S(=O)(=O)OC1=CC=C(C=C1)C#N", 
	 "Tm": 344.65, 
	 "num_atms": 25, 
	 "gaussian": { 
		 "optdone": 1, 
		 "sigma_profile": "yes", 
		 "theory": "DFT", 
		 "functional": "B3LYP", 
		 "basiset": "6-31G**", 
		 "properties": { 
			 "R2extent": 5782.2064, 
			 "electric_dipole_moment_norm": 6.89683355751, 
			 "electric_quadrupole_moment_norm": 17.2340290939, 
			 "total_energy": -1082.24676012, 
			 "HOMO_LUMO_gap": 0.20477, 
			 "cosmo_polarized_energy": -15.14, 
			 "cosmo_cavitation_energy": 31.99, 
			 "cosmo_dispersion_energy": -22.47, 
			 "cosmo_repulsion_energy": 1.71, 
			 "cosmo_total_nonelectrostatic_energy": 11.23, 
			 "SMD_solvation_energy": 5.53 
		},
		"coords": [
			{
				"x": 1.0139036142,
				"y": -0.5549983787,
				"z": -3.1346465749,
				"element": "C" 
			},
			{
				"x": -0.4309562996,
				"y": -0.7405687646,
				"z": -3.326979641,
				"element": "N" 
			},
			{
				"x": -0.8621986652,
				"y": -2.1201247979,
				"z": -3.5929809462,
				"element": "C" 
			},
			{
				"x": -1.4227210291,
				"y": 0.1710670492,
				"z": -2.3714649389,
				"element": "S" 
			},
			{
				"x": -2.807131898,
				"y": -0.0838582278,
				"z": -2.7403560563,
				"element": "O" 
			},
			{
				"x": -0.8937224014,
				"y": 1.5211311025,
				"z": -2.2688566402,
				"element": "O" 
			},
			{
				"x": -1.1423861374,
				"y": -0.591344926,
				"z": -0.8895757497,
				"element": "O" 
			},
			{
				"x": -1.7580897972,
				"y": -0.055387152,
				"z": 0.2409860064,
				"element": "C" 
			},
			{
				"x": -3.1317282776,
				"y": -0.2108209409,
				"z": 0.4393504005,
				"element": "C" 
			},
			{
				"x": -3.7047504149,
				"y": 0.2739959312,
				"z": 1.6104302659,
				"element": "C" 
			},
			{
				"x": -2.9050786149,
				"y": 0.9033957175,
				"z": 2.5801840136,
				"element": "C" 
			},
			{
				"x": -1.5240084087,
				"y": 1.0502875842,
				"z": 2.3634598844,
				"element": "C" 
			},
			{
				"x": -0.9512947087,
				"y": 0.5742736605,
				"z": 1.1891052957,
				"element": "C" 
			},
			{
				"x": -3.4967739383,
				"y": 1.3929230485,
				"z": 3.791058858,
				"element": "C" 
			},
			{
				"x": -3.9755839409,
				"y": 1.7880750523,
				"z": 4.7748439828,
				"element": "N" 
			},
			{
				"x": 1.5172663028,
				"y": -0.9103948702,
				"z": -4.037380361,
				"element": "H" 
			},
			{
				"x": 1.228919082,
				"y": 0.5053320989,
				"z": -3.0081123346,
				"element": "H" 
			},
			{
				"x": 1.3886662846,
				"y": -1.1152412353,
				"z": -2.2681304899,
				"element": "H" 
			},
			{
				"x": -1.9349018784,
				"y": -2.1341764231,
				"z": -3.7810451861,
				"element": "H" 
			},
			{
				"x": -0.6234536905,
				"y": -2.7935509016,
				"z": -2.7595792162,
				"element": "H" 
			},
			{
				"x": -0.3429231596,
				"y": -2.4624530586,
				"z": -4.4917952144,
				"element": "H" 
			},
			{
				"x": -3.7314977112,
				"y": -0.6986582993,
				"z": -0.3195821088,
				"element": "H" 
			},
			{
				"x": -4.7698680544,
				"y": 0.1638756519,
				"z": 1.7827910276,
				"element": "H" 
			},
			{
				"x": -0.9114735541,
				"y": 1.5397292558,
				"z": 3.1127801507,
				"element": "H" 
			},
			{
				"x": 0.1100872966,
				"y": 0.6817918237,
				"z": 0.9965955728,
				"element": "H" 
			}
		],
		 "valence_orbital": [ 
			{
				"type": "occ",
				"energy": -0.33226,
				"method": "rhf"
			},
			{
				"type": "occ",
				"energy": -0.31106,
				"method": "rhf"
			},
			{
				"type": "occ",
				"energy": -0.28756,
				"method": "rhf"
			},
			{
				"type": "occ",
				"energy": -0.2832,
				"method": "rhf"
			},
			{
				"type": "occ",
				"energy": -0.26295,
				"method": "rhf"
			},
			{
				"type": "unocc",
				"energy": -0.05818,
				"method": "rhf"
			},
			{
				"type": "unocc",
				"energy": -0.03227,
				"method": "rhf"
			},
			{
				"type": "unocc",
				"energy": 0.01958,
				"method": "rhf"
			},
			{
				"type": "unocc",
				"energy": 0.03466,
				"method": "rhf"
			},
			{
				"type": "unocc",
				"energy": 0.05506,
				"method": "rhf"
			}
		],
		"cosmo_sigma_profile": { 
			"-0.025": 0.0,
			"-0.024": 0.0,
			"-0.023": 0.0,
			"-0.022": 0.0,
			"-0.021": 0.0,
			"-0.02": 0.0,
			"-0.019": 0.0,
			"-0.018": 0.0,
			"-0.017": 0.0,
			"-0.016": 0.0,
			"-0.015": 0.0,
			"-0.014": 0.0,
			"-0.013": 0.0,
			"-0.012": 0.0,
			"-0.011": 0.0,
			"-0.01": 0.0,
			"-0.009": 1.49131233623,
			"-0.008": 7.50216629687,
			"-0.007": 12.8919560351,
			"-0.006": 14.125941888,
			"-0.005": 18.7063398312,
			"-0.004": 20.2518396188,
			"-0.003": 23.3729866211,
			"-0.002": 16.4545113317,
			"-0.001": 16.5111334508,
			"0.0": 21.5464989142,
			"0.001": 21.0376707948,
			"0.002": 13.0305315116,
			"0.003": 7.18594402403,
			"0.004": 7.9721599599,
			"0.005": 7.40419909563,
			"0.006": 7.47758089058,
			"0.007": 5.51117312317,
			"0.008": 9.49167735278,
			"0.009": 11.4475619243,
			"0.01": 6.96639705392,
			"0.011": 2.56234889821,
			"0.012": 2.43517970747,
			"0.013": 1.24257041159,
			"0.014": 0.0,
			"0.015": 0.0,
			"0.016": 0.0,
			"0.017": 0.0,
			"0.018": 0.0,
			"0.019": 0.0,
			"0.02": 0.0,
			"0.021": 0.0,
			"0.022": 0.0,
			"0.023": 0.0,
			"0.024": 0.0,
			"0.025": 0.0
		}
	}
}
