{
	 "smiles": "CCCCC(O)C(O)CO", 
	 "Tm": 367.65, 
	 "num_atms": 26, 
	 "gaussian": { 
		 "optdone": 1, 
		 "sigma_profile": "yes", 
		 "theory": "DFT", 
		 "functional": "B3LYP", 
		 "basiset": "6-31G**", 
		 "properties": { 
			 "R2extent": 3024.005, 
			 "electric_dipole_moment_norm": 3.46426685173, 
			 "electric_quadrupole_moment_norm": 12.7135813456, 
			 "total_energy": -502.051971389, 
			 "HOMO_LUMO_gap": 0.29396, 
			 "cosmo_polarized_energy": -10.73, 
			 "cosmo_cavitation_energy": 26.61, 
			 "cosmo_dispersion_energy": -19.44, 
			 "cosmo_repulsion_energy": 1.6, 
			 "cosmo_total_nonelectrostatic_energy": 8.78, 
			 "SMD_solvation_energy": 4.08 
		},
		"coords": [
			{
				"x": 0.2800282601,
				"y": -0.9509972027,
				"z": -2.3220869972,
				"element": "C" 
			},
			{
				"x": 1.0527077185,
				"y": 0.3690906149,
				"z": -2.21866512,
				"element": "C" 
			},
			{
				"x": 0.3570883718,
				"y": 1.4471123703,
				"z": -1.3673985394,
				"element": "C" 
			},
			{
				"x": 0.1518986652,
				"y": 1.1058035147,
				"z": 0.1196105087,
				"element": "C" 
			},
			{
				"x": 1.4477552147,
				"y": 0.8711532113,
				"z": 0.9075144289,
				"element": "C" 
			},
			{
				"x": 2.3236643419,
				"y": 2.0140787492,
				"z": 0.8167981344,
				"element": "O" 
			},
			{
				"x": 1.2098142096,
				"y": 0.592047552,
				"z": 2.4058437221,
				"element": "C" 
			},
			{
				"x": 2.3258843594,
				"y": -0.0665230012,
				"z": 2.9795056053,
				"element": "O" 
			},
			{
				"x": 0.910525255,
				"y": 1.8627300002,
				"z": 3.2250473018,
				"element": "C" 
			},
			{
				"x": 2.1125879924,
				"y": 2.5881474189,
				"z": 3.4637756616,
				"element": "O" 
			},
			{
				"x": 0.7866898135,
				"y": -1.651220727,
				"z": -2.9938446945,
				"element": "H" 
			},
			{
				"x": -0.7300280099,
				"y": -0.7853596775,
				"z": -2.7144730374,
				"element": "H" 
			},
			{
				"x": 0.1802752276,
				"y": -1.4456690116,
				"z": -1.3504706869,
				"element": "H" 
			},
			{
				"x": 1.2033548792,
				"y": 0.7750648618,
				"z": -3.2268666347,
				"element": "H" 
			},
			{
				"x": 2.0600997497,
				"y": 0.1675673149,
				"z": -1.8282118487,
				"element": "H" 
			},
			{
				"x": 0.9247446311,
				"y": 2.3846859178,
				"z": -1.4365040639,
				"element": "H" 
			},
			{
				"x": -0.6235189098,
				"y": 1.6651683666,
				"z": -1.8096458034,
				"element": "H" 
			},
			{
				"x": -0.405654139,
				"y": 1.9264851281,
				"z": 0.5877944192,
				"element": "H" 
			},
			{
				"x": -0.4747623032,
				"y": 0.2102695658,
				"z": 0.2160909784,
				"element": "H" 
			},
			{
				"x": 1.9691223985,
				"y": -0.0137324526,
				"z": 0.5180646979,
				"element": "H" 
			},
			{
				"x": 2.7239751706,
				"y": 2.0372722915,
				"z": -0.0596466758,
				"element": "H" 
			},
			{
				"x": 0.3540359056,
				"y": -0.0929089128,
				"z": 2.4762974304,
				"element": "H" 
			},
			{
				"x": 2.8766400242,
				"y": 0.6521746236,
				"z": 3.3330261888,
				"element": "H" 
			},
			{
				"x": 0.5264885273,
				"y": 1.574550665,
				"z": 4.2080739478,
				"element": "H" 
			},
			{
				"x": 0.149836254,
				"y": 2.485636817,
				"z": 2.7329901813,
				"element": "H" 
			},
			{
				"x": 2.4450463919,
				"y": 2.8266720015,
				"z": 2.5821808951,
				"element": "H" 
			}
		],
		 "valence_orbital": [ 
			{
				"type": "occ",
				"energy": -0.32474,
				"method": "rhf"
			},
			{
				"type": "occ",
				"energy": -0.31126,
				"method": "rhf"
			},
			{
				"type": "occ",
				"energy": -0.28712,
				"method": "rhf"
			},
			{
				"type": "occ",
				"energy": -0.2729,
				"method": "rhf"
			},
			{
				"type": "occ",
				"energy": -0.25043,
				"method": "rhf"
			},
			{
				"type": "unocc",
				"energy": 0.04353,
				"method": "rhf"
			},
			{
				"type": "unocc",
				"energy": 0.08872,
				"method": "rhf"
			},
			{
				"type": "unocc",
				"energy": 0.10222,
				"method": "rhf"
			},
			{
				"type": "unocc",
				"energy": 0.10523,
				"method": "rhf"
			},
			{
				"type": "unocc",
				"energy": 0.11922,
				"method": "rhf"
			}
		],
		"cosmo_sigma_profile": { 
			"-0.025": 0.0,
			"-0.024": 0.0,
			"-0.023": 0.0,
			"-0.022": 0.0,
			"-0.021": 0.0,
			"-0.02": 0.0,
			"-0.019": 0.0,
			"-0.018": 0.0,
			"-0.017": 0.0,
			"-0.016": 0.0,
			"-0.015": 0.225698076438,
			"-0.014": 0.901801971707,
			"-0.013": 0.906607937622,
			"-0.012": 0.718750478433,
			"-0.011": 1.13159339687,
			"-0.01": 2.0997313775,
			"-0.009": 1.71559316808,
			"-0.008": 2.21652905679,
			"-0.007": 2.38352118525,
			"-0.006": 1.9586111333,
			"-0.005": 5.74657151009,
			"-0.004": 16.4184635087,
			"-0.003": 22.5550002155,
			"-0.002": 25.6620725077,
			"-0.001": 23.1818236644,
			"0.0": 26.8251261508,
			"0.001": 21.0159488649,
			"0.002": 10.1128105807,
			"0.003": 5.06358444452,
			"0.004": 3.30423281115,
			"0.005": 2.36287517968,
			"0.006": 2.65849497635,
			"0.007": 4.22808045714,
			"0.008": 2.82772921037,
			"0.009": 3.27984092868,
			"0.01": 1.97638014944,
			"0.011": 1.72264559452,
			"0.012": 2.98561714031,
			"0.013": 2.78857127252,
			"0.014": 3.53735828963,
			"0.015": 1.73026100893,
			"0.016": 0.0,
			"0.017": 0.0,
			"0.018": 0.0,
			"0.019": 0.0,
			"0.02": 0.0,
			"0.021": 0.0,
			"0.022": 0.0,
			"0.023": 0.0,
			"0.024": 0.0,
			"0.025": 0.0
		}
	}
}
