{
	 "smiles": "CNC1=NC=C(S1)C(O)=O", 
	 "Tm": 433.15, 
	 "num_atms": 16, 
	 "gaussian": { 
		 "optdone": 1, 
		 "sigma_profile": "yes", 
		 "theory": "DFT", 
		 "functional": "B3LYP", 
		 "basiset": "6-31G**", 
		 "properties": { 
			 "R2extent": 2036.3476, 
			 "electric_dipole_moment_norm": 7.46201206445, 
			 "electric_quadrupole_moment_norm": 7.96476882339, 
			 "total_energy": -852.282224712, 
			 "HOMO_LUMO_gap": 0.17647, 
			 "cosmo_polarized_energy": -18.59, 
			 "cosmo_cavitation_energy": 22.32, 
			 "cosmo_dispersion_energy": -17.24, 
			 "cosmo_repulsion_energy": 1.36, 
			 "cosmo_total_nonelectrostatic_energy": 6.44, 
			 "SMD_solvation_energy": 2.9 
		},
		"coords": [
			{
				"x": -1.7953818397,
				"y": -2.0395341124,
				"z": 1.1214388954,
				"element": "C" 
			},
			{
				"x": -1.7262391637,
				"y": -0.6162596247,
				"z": 1.3853625703,
				"element": "N" 
			},
			{
				"x": -0.8689263578,
				"y": 0.2332973936,
				"z": 0.7742536028,
				"element": "C" 
			},
			{
				"x": -0.7335225932,
				"y": 1.4973951619,
				"z": 1.1078167679,
				"element": "N" 
			},
			{
				"x": 0.1850316099,
				"y": 2.1055230691,
				"z": 0.3079025164,
				"element": "C" 
			},
			{
				"x": 0.7919208177,
				"y": 1.3488144496,
				"z": -0.6631168799,
				"element": "C" 
			},
			{
				"x": 0.1598718383,
				"y": -0.3012364421,
				"z": -0.5665736107,
				"element": "S" 
			},
			{
				"x": 1.798548922,
				"y": 1.8503201716,
				"z": -1.6103322544,
				"element": "C" 
			},
			{
				"x": 2.2525644356,
				"y": 0.9935937198,
				"z": -2.5693867335,
				"element": "O" 
			},
			{
				"x": 2.2294138882,
				"y": 2.9810250158,
				"z": -1.5639986483,
				"element": "O" 
			},
			{
				"x": -2.6042757676,
				"y": -2.4671832589,
				"z": 1.7153226401,
				"element": "H" 
			},
			{
				"x": -2.016482013,
				"y": -2.2274452615,
				"z": 0.0641535171,
				"element": "H" 
			},
			{
				"x": -0.8611614704,
				"y": -2.5569887639,
				"z": 1.3787961274,
				"element": "H" 
			},
			{
				"x": -2.1833171534,
				"y": -0.2327686625,
				"z": 2.2000653908,
				"element": "H" 
			},
			{
				"x": 0.4140723767,
				"y": 3.1554212847,
				"z": 0.4483453361,
				"element": "H" 
			},
			{
				"x": 1.7902824703,
				"y": 0.1443258599,
				"z": -2.5380492372,
				"element": "H" 
			}
		],
		 "valence_orbital": [ 
			{
				"type": "occ",
				"energy": -0.30627,
				"method": "rhf"
			},
			{
				"type": "occ",
				"energy": -0.2934,
				"method": "rhf"
			},
			{
				"type": "occ",
				"energy": -0.29068,
				"method": "rhf"
			},
			{
				"type": "occ",
				"energy": -0.2678,
				"method": "rhf"
			},
			{
				"type": "occ",
				"energy": -0.22237,
				"method": "rhf"
			},
			{
				"type": "unocc",
				"energy": -0.0459,
				"method": "rhf"
			},
			{
				"type": "unocc",
				"energy": -0.01672,
				"method": "rhf"
			},
			{
				"type": "unocc",
				"energy": 0.02618,
				"method": "rhf"
			},
			{
				"type": "unocc",
				"energy": 0.03957,
				"method": "rhf"
			},
			{
				"type": "unocc",
				"energy": 0.0819,
				"method": "rhf"
			}
		],
		"cosmo_sigma_profile": { 
			"-0.025": 0.0,
			"-0.024": 0.0,
			"-0.023": 0.0,
			"-0.022": 0.0,
			"-0.021": 0.0,
			"-0.02": 0.0,
			"-0.019": 0.0,
			"-0.018": 0.432723682167,
			"-0.017": 0.721649010205,
			"-0.016": 1.10939217595,
			"-0.015": 2.0131156211,
			"-0.014": 1.88451628378,
			"-0.013": 2.21652720177,
			"-0.012": 2.46592862024,
			"-0.011": 1.52139913702,
			"-0.01": 1.85846283798,
			"-0.009": 2.25082312949,
			"-0.008": 3.51797844673,
			"-0.007": 5.41647416484,
			"-0.006": 7.77547808302,
			"-0.005": 10.147676757,
			"-0.004": 12.3808437573,
			"-0.003": 14.0381661237,
			"-0.002": 8.93988519919,
			"-0.001": 9.0605221691,
			"0.0": 12.3102726643,
			"0.001": 12.7807967209,
			"0.002": 11.9986930937,
			"0.003": 8.06974365443,
			"0.004": 5.669886875,
			"0.005": 2.72048245018,
			"0.006": 3.61687658934,
			"0.007": 4.38417964564,
			"0.008": 3.20243580398,
			"0.009": 4.13510986175,
			"0.01": 4.93750137558,
			"0.011": 5.55339706858,
			"0.012": 7.59840635348,
			"0.013": 3.72068645909,
			"0.014": 1.16564380201,
			"0.015": 0.437545886346,
			"0.016": 0.0,
			"0.017": 0.0,
			"0.018": 0.0,
			"0.019": 0.0,
			"0.02": 0.0,
			"0.021": 0.0,
			"0.022": 0.0,
			"0.023": 0.0,
			"0.024": 0.0,
			"0.025": 0.0
		}
	}
}
