{
	 "smiles": "CC1=CC=C(CN2C(N)=CC(=O)NC2=O)C=C1", 
	 "Tm": 553.15, 
	 "num_atms": 30, 
	 "gaussian": { 
		 "optdone": 1, 
		 "sigma_profile": "yes", 
		 "theory": "DFT", 
		 "functional": "B3LYP", 
		 "basiset": "6-31G**", 
		 "properties": { 
			 "R2extent": 5738.1286, 
			 "electric_dipole_moment_norm": 6.5649505695, 
			 "electric_quadrupole_moment_norm": 12.8026896838, 
			 "total_energy": -779.86687643, 
			 "HOMO_LUMO_gap": 0.20083, 
			 "cosmo_polarized_energy": -19.92, 
			 "cosmo_cavitation_energy": 33.51, 
			 "cosmo_dispersion_energy": -24.21, 
			 "cosmo_repulsion_energy": 1.87, 
			 "cosmo_total_nonelectrostatic_energy": 11.17, 
			 "SMD_solvation_energy": 6.95 
		},
		"coords": [
			{
				"x": 4.3957532233,
				"y": -0.8021072011,
				"z": 2.6188306765,
				"element": "C" 
			},
			{
				"x": 3.0495295161,
				"y": -1.261381409,
				"z": 2.1111264417,
				"element": "C" 
			},
			{
				"x": 2.8896623834,
				"y": -1.6733480291,
				"z": 0.7770755599,
				"element": "C" 
			},
			{
				"x": 1.6554143614,
				"y": -2.0925541583,
				"z": 0.2923271657,
				"element": "C" 
			},
			{
				"x": 0.5300216454,
				"y": -2.1099676031,
				"z": 1.1309444892,
				"element": "C" 
			},
			{
				"x": -0.8136077692,
				"y": -2.5878168473,
				"z": 0.6118689228,
				"element": "C" 
			},
			{
				"x": -1.2991706376,
				"y": -1.856378184,
				"z": -0.5742553207,
				"element": "N" 
			},
			{
				"x": -1.8763338437,
				"y": -0.5950264141,
				"z": -0.4701106445,
				"element": "C" 
			},
			{
				"x": -1.8855300048,
				"y": -0.0464766997,
				"z": 0.7969653965,
				"element": "N" 
			},
			{
				"x": -2.4456885157,
				"y": 0.0216112587,
				"z": -1.5508432085,
				"element": "C" 
			},
			{
				"x": -2.4696352629,
				"y": -0.61009683,
				"z": -2.8428977794,
				"element": "C" 
			},
			{
				"x": -2.9487304054,
				"y": -0.1673227573,
				"z": -3.8777960602,
				"element": "O" 
			},
			{
				"x": -1.8245789252,
				"y": -1.8726229375,
				"z": -2.8551873983,
				"element": "N" 
			},
			{
				"x": -1.2237646825,
				"y": -2.5271076644,
				"z": -1.8086323936,
				"element": "C" 
			},
			{
				"x": -0.6685507904,
				"y": -3.6114567688,
				"z": -1.9268390951,
				"element": "O" 
			},
			{
				"x": 0.6835263199,
				"y": -1.7084443584,
				"z": 2.4616611104,
				"element": "C" 
			},
			{
				"x": 1.9278355283,
				"y": -1.2903790547,
				"z": 2.9442820691,
				"element": "C" 
			},
			{
				"x": 5.1681244935,
				"y": -1.557741915,
				"z": 2.4375441732,
				"element": "H" 
			},
			{
				"x": 4.7198691036,
				"y": 0.1150593883,
				"z": 2.1130498693,
				"element": "H" 
			},
			{
				"x": 4.3707745382,
				"y": -0.5988488414,
				"z": 3.6928049634,
				"element": "H" 
			},
			{
				"x": 3.7501796542,
				"y": -1.6706510215,
				"z": 0.1122109403,
				"element": "H" 
			},
			{
				"x": 1.5570790236,
				"y": -2.4253514784,
				"z": -0.7370021883,
				"element": "H" 
			},
			{
				"x": -0.7448906107,
				"y": -3.6290724579,
				"z": 0.2934310114,
				"element": "H" 
			},
			{
				"x": -1.5751738497,
				"y": -2.5109398549,
				"z": 1.3926500182,
				"element": "H" 
			},
			{
				"x": -1.04853118,
				"y": -0.1885557934,
				"z": 1.3501121986,
				"element": "H" 
			},
			{
				"x": -2.210214198,
				"y": 0.9101342075,
				"z": 0.8205977296,
				"element": "H" 
			},
			{
				"x": -2.8706851821,
				"y": 1.0124991995,
				"z": -1.4624756911,
				"element": "H" 
			},
			{
				"x": -1.7818501482,
				"y": -2.3466914141,
				"z": -3.7485232107,
				"element": "H" 
			},
			{
				"x": -0.1709580953,
				"y": -1.7357108544,
				"z": 3.1355448438,
				"element": "H" 
			},
			{
				"x": 2.0236243104,
				"y": -0.9852535062,
				"z": 3.9832354107,
				"element": "H" 
			}
		],
		 "valence_orbital": [ 
			{
				"type": "occ",
				"energy": -0.27181,
				"method": "rhf"
			},
			{
				"type": "occ",
				"energy": -0.26397,
				"method": "rhf"
			},
			{
				"type": "occ",
				"energy": -0.25218,
				"method": "rhf"
			},
			{
				"type": "occ",
				"energy": -0.24524,
				"method": "rhf"
			},
			{
				"type": "occ",
				"energy": -0.22023,
				"method": "rhf"
			},
			{
				"type": "unocc",
				"energy": -0.0194,
				"method": "rhf"
			},
			{
				"type": "unocc",
				"energy": -0.01793,
				"method": "rhf"
			},
			{
				"type": "unocc",
				"energy": -0.0114,
				"method": "rhf"
			},
			{
				"type": "unocc",
				"energy": 0.02082,
				"method": "rhf"
			},
			{
				"type": "unocc",
				"energy": 0.06998,
				"method": "rhf"
			}
		],
		"cosmo_sigma_profile": { 
			"-0.025": 0.0,
			"-0.024": 0.0,
			"-0.023": 0.0,
			"-0.022": 0.0,
			"-0.021": 0.0,
			"-0.02": 0.0,
			"-0.019": 0.0,
			"-0.018": 0.0,
			"-0.017": 0.0,
			"-0.016": 0.0934830974689,
			"-0.015": 1.29042161171,
			"-0.014": 1.94573373987,
			"-0.013": 2.84809456793,
			"-0.012": 2.32847781152,
			"-0.011": 2.48165871628,
			"-0.01": 2.97620227275,
			"-0.009": 2.71307980031,
			"-0.008": 3.65638335309,
			"-0.007": 6.21359628644,
			"-0.006": 8.82405666475,
			"-0.005": 15.2232437105,
			"-0.004": 23.3962341134,
			"-0.003": 24.1022838003,
			"-0.002": 21.5969735274,
			"-0.001": 19.7803201459,
			"0.0": 21.7697038694,
			"0.001": 13.9715059373,
			"0.002": 12.8961212941,
			"0.003": 13.6755142703,
			"0.004": 13.5242470958,
			"0.005": 10.4554729112,
			"0.006": 4.91711810611,
			"0.007": 3.46758501649,
			"0.008": 3.614746788,
			"0.009": 2.11909019107,
			"0.01": 2.5440935117,
			"0.011": 3.37267622231,
			"0.012": 5.7824250023,
			"0.013": 6.67069498103,
			"0.014": 6.10650060241,
			"0.015": 1.86586481817,
			"0.016": 0.00389652366031,
			"0.017": 0.0,
			"0.018": 0.0,
			"0.019": 0.0,
			"0.02": 0.0,
			"0.021": 0.0,
			"0.022": 0.0,
			"0.023": 0.0,
			"0.024": 0.0,
			"0.025": 0.0
		}
	}
}
