{
	 "smiles": "NS(=O)(=O)C1=CC2=C(S1)S(=O)(=O)CCC2=O", 
	 "Tm": 515.15, 
	 "num_atms": 23, 
	 "gaussian": { 
		 "optdone": 1, 
		 "sigma_profile": "yes", 
		 "theory": "DFT", 
		 "functional": "B3LYP", 
		 "basiset": "6-31G**", 
		 "properties": { 
			 "R2extent": 5068.3977, 
			 "electric_dipole_moment_norm": 3.95219465361, 
			 "electric_quadrupole_moment_norm": 28.887752824, 
			 "total_energy": -1896.22902167, 
			 "HOMO_LUMO_gap": 0.18109, 
			 "cosmo_polarized_energy": -28.67, 
			 "cosmo_cavitation_energy": 32.03, 
			 "cosmo_dispersion_energy": -24.67, 
			 "cosmo_repulsion_energy": 1.79, 
			 "cosmo_total_nonelectrostatic_energy": 9.15, 
			 "SMD_solvation_energy": 4.32 
		},
		"coords": [
			{
				"x": -3.8234952171,
				"y": -0.4391232045,
				"z": -0.1830788513,
				"element": "N" 
			},
			{
				"x": -2.5915980498,
				"y": -1.5600759365,
				"z": -0.2455524441,
				"element": "S" 
			},
			{
				"x": -2.7402425501,
				"y": -2.3956954841,
				"z": 0.9389993835,
				"element": "O" 
			},
			{
				"x": -2.5772831132,
				"y": -2.0673576494,
				"z": -1.6133741864,
				"element": "O" 
			},
			{
				"x": -1.0565315934,
				"y": -0.6649407457,
				"z": -0.0325564804,
				"element": "C" 
			},
			{
				"x": -0.4160494868,
				"y": -0.4338111319,
				"z": 1.1530844381,
				"element": "C" 
			},
			{
				"x": 0.7749520917,
				"y": 0.3335772321,
				"z": 0.9763159272,
				"element": "C" 
			},
			{
				"x": 0.9932353003,
				"y": 0.6414316691,
				"z": -0.3544722839,
				"element": "C" 
			},
			{
				"x": -0.212671995,
				"y": 0.0005576327,
				"z": -1.4097686794,
				"element": "S" 
			},
			{
				"x": 2.3722382761,
				"y": 1.6203586297,
				"z": -0.9447817367,
				"element": "S" 
			},
			{
				"x": 2.8369137256,
				"y": 1.0442760497,
				"z": -2.2103728384,
				"element": "O" 
			},
			{
				"x": 2.0114554272,
				"y": 3.041393448,
				"z": -0.8550516348,
				"element": "O" 
			},
			{
				"x": 3.5411447423,
				"y": 1.2481186889,
				"z": 0.3912214057,
				"element": "C" 
			},
			{
				"x": 2.9196004999,
				"y": 1.5396158592,
				"z": 1.7617381653,
				"element": "C" 
			},
			{
				"x": 1.6751176456,
				"y": 0.71942686,
				"z": 2.0970568213,
				"element": "C" 
			},
			{
				"x": 1.408162119,
				"y": 0.4114701198,
				"z": 3.2449438396,
				"element": "O" 
			},
			{
				"x": -3.9429607374,
				"y": 0.0007837553,
				"z": 0.7228547809,
				"element": "H" 
			},
			{
				"x": -3.8499739417,
				"y": 0.1983261632,
				"z": -0.9714826269,
				"element": "H" 
			},
			{
				"x": -0.7553317767,
				"y": -0.7983595535,
				"z": 2.1145874578,
				"element": "H" 
			},
			{
				"x": 3.8356781371,
				"y": 0.2027534471,
				"z": 0.2667878875,
				"element": "H" 
			},
			{
				"x": 4.407159615,
				"y": 1.8864816123,
				"z": 0.1941273349,
				"element": "H" 
			},
			{
				"x": 2.6364293698,
				"y": 2.5992357093,
				"z": 1.80857914,
				"element": "H" 
			},
			{
				"x": 3.6518515118,
				"y": 1.3663568292,
				"z": 2.5546951805,
				"element": "H" 
			}
		],
		 "valence_orbital": [ 
			{
				"type": "occ",
				"energy": -0.32539,
				"method": "rhf"
			},
			{
				"type": "occ",
				"energy": -0.31693,
				"method": "rhf"
			},
			{
				"type": "occ",
				"energy": -0.30354,
				"method": "rhf"
			},
			{
				"type": "occ",
				"energy": -0.28587,
				"method": "rhf"
			},
			{
				"type": "occ",
				"energy": -0.28435,
				"method": "rhf"
			},
			{
				"type": "unocc",
				"energy": -0.10326,
				"method": "rhf"
			},
			{
				"type": "unocc",
				"energy": -0.06242,
				"method": "rhf"
			},
			{
				"type": "unocc",
				"energy": -0.01929,
				"method": "rhf"
			},
			{
				"type": "unocc",
				"energy": 0.00054,
				"method": "rhf"
			},
			{
				"type": "unocc",
				"energy": 0.03413,
				"method": "rhf"
			}
		],
		"cosmo_sigma_profile": { 
			"-0.025": 0.0,
			"-0.024": 0.0,
			"-0.023": 0.0,
			"-0.022": 0.0,
			"-0.021": 0.0,
			"-0.02": 0.0,
			"-0.019": 0.0,
			"-0.018": 0.0,
			"-0.017": 0.0360905355684,
			"-0.016": 1.95564769155,
			"-0.015": 2.94083927264,
			"-0.014": 3.50251619287,
			"-0.013": 2.96935090171,
			"-0.012": 2.52282482864,
			"-0.011": 3.8985643219,
			"-0.01": 6.99989631878,
			"-0.009": 7.59178797316,
			"-0.008": 11.4204148169,
			"-0.007": 13.2517985058,
			"-0.006": 12.9359983048,
			"-0.005": 8.96451878867,
			"-0.004": 10.1855158095,
			"-0.003": 14.9756512421,
			"-0.002": 17.1414818366,
			"-0.001": 13.7097987633,
			"0.0": 9.85775242787,
			"0.001": 7.3056063689,
			"0.002": 7.29500996617,
			"0.003": 6.18629937553,
			"0.004": 7.26182816017,
			"0.005": 7.63330036315,
			"0.006": 6.84073599112,
			"0.007": 7.74243164705,
			"0.008": 9.29268002815,
			"0.009": 15.5777657452,
			"0.01": 25.2412179921,
			"0.011": 12.3392586164,
			"0.012": 0.556564367546,
			"0.013": 0.0,
			"0.014": 0.0,
			"0.015": 0.0,
			"0.016": 0.0,
			"0.017": 0.0,
			"0.018": 0.0,
			"0.019": 0.0,
			"0.02": 0.0,
			"0.021": 0.0,
			"0.022": 0.0,
			"0.023": 0.0,
			"0.024": 0.0,
			"0.025": 0.0
		}
	}
}
