{
	 "smiles": "FC1=CC(C(=O)CCl)=C(F)C=C1", 
	 "Tm": 391.15, 
	 "num_atms": 17, 
	 "gaussian": { 
		 "optdone": 1, 
		 "sigma_profile": "yes", 
		 "theory": "DFT", 
		 "functional": "B3LYP", 
		 "basiset": "6-31G**", 
		 "properties": { 
			 "R2extent": 2704.7445, 
			 "electric_dipole_moment_norm": 2.62360235364, 
			 "electric_quadrupole_moment_norm": 11.7981710116, 
			 "total_energy": -1042.93582593, 
			 "HOMO_LUMO_gap": 0.1748, 
			 "cosmo_polarized_energy": -9.62, 
			 "cosmo_cavitation_energy": 24.49, 
			 "cosmo_dispersion_energy": -17.63, 
			 "cosmo_repulsion_energy": 1.37, 
			 "cosmo_total_nonelectrostatic_energy": 8.24, 
			 "SMD_solvation_energy": 5.48 
		},
		"coords": [
			{
				"x": -1.0944976831,
				"y": -0.9598075474,
				"z": -2.853287997,
				"element": "F" 
			},
			{
				"x": -0.1582216809,
				"y": -0.8460229285,
				"z": -1.8906929521,
				"element": "C" 
			},
			{
				"x": -0.5613946554,
				"y": -0.6239861004,
				"z": -0.5841243574,
				"element": "C" 
			},
			{
				"x": 0.3941546259,
				"y": -0.4925011505,
				"z": 0.4405735772,
				"element": "C" 
			},
			{
				"x": -0.0081895771,
				"y": -0.2014292614,
				"z": 1.8494537711,
				"element": "C" 
			},
			{
				"x": 0.7858123544,
				"y": 0.145495863,
				"z": 2.7041371151,
				"element": "O" 
			},
			{
				"x": -1.4896144128,
				"y": -0.2929301878,
				"z": 2.240721797,
				"element": "C" 
			},
			{
				"x": -2.1419844789,
				"y": -1.9799621821,
				"z": 2.108777771,
				"element": "Cl" 
			},
			{
				"x": 1.7497651776,
				"y": -0.6077747866,
				"z": 0.0791674365,
				"element": "C" 
			},
			{
				"x": 2.7134479001,
				"y": -0.5113510621,
				"z": 1.0023531957,
				"element": "F" 
			},
			{
				"x": 2.1446078245,
				"y": -0.8396197354,
				"z": -1.2351830755,
				"element": "C" 
			},
			{
				"x": 1.1851009647,
				"y": -0.9571623485,
				"z": -2.2369273584,
				"element": "C" 
			},
			{
				"x": -1.622232898,
				"y": -0.5663562253,
				"z": -0.3762859289,
				"element": "H" 
			},
			{
				"x": -2.1222256065,
				"y": 0.34742596,
				"z": 1.6223043205,
				"element": "H" 
			},
			{
				"x": -1.5660097311,
				"y": 0.0050747174,
				"z": 3.2844600782,
				"element": "H" 
			},
			{
				"x": 3.2033049324,
				"y": -0.9237723327,
				"z": -1.4532272854,
				"element": "H" 
			},
			{
				"x": 1.4629769442,
				"y": -1.1347206916,
				"z": -3.2699201074,
				"element": "H" 
			}
		],
		 "valence_orbital": [ 
			{
				"type": "occ",
				"energy": -0.32317,
				"method": "rhf"
			},
			{
				"type": "occ",
				"energy": -0.31257,
				"method": "rhf"
			},
			{
				"type": "occ",
				"energy": -0.28717,
				"method": "rhf"
			},
			{
				"type": "occ",
				"energy": -0.26579,
				"method": "rhf"
			},
			{
				"type": "occ",
				"energy": -0.25727,
				"method": "rhf"
			},
			{
				"type": "unocc",
				"energy": -0.08247,
				"method": "rhf"
			},
			{
				"type": "unocc",
				"energy": -0.02293,
				"method": "rhf"
			},
			{
				"type": "unocc",
				"energy": -0.00426,
				"method": "rhf"
			},
			{
				"type": "unocc",
				"energy": 0.04038,
				"method": "rhf"
			},
			{
				"type": "unocc",
				"energy": 0.0684,
				"method": "rhf"
			}
		],
		"cosmo_sigma_profile": { 
			"-0.025": 0.0,
			"-0.024": 0.0,
			"-0.023": 0.0,
			"-0.022": 0.0,
			"-0.021": 0.0,
			"-0.02": 0.0,
			"-0.019": 0.0,
			"-0.018": 0.0,
			"-0.017": 0.0,
			"-0.016": 0.0,
			"-0.015": 0.0,
			"-0.014": 0.0,
			"-0.013": 0.0,
			"-0.012": 0.000768759730348,
			"-0.011": 0.869805758299,
			"-0.01": 2.79741223229,
			"-0.009": 5.05482435873,
			"-0.008": 8.5999492357,
			"-0.007": 7.67239091156,
			"-0.006": 8.97311125645,
			"-0.005": 7.01395055161,
			"-0.004": 6.5275054213,
			"-0.003": 6.73048771923,
			"-0.002": 10.4913359646,
			"-0.001": 21.6876155755,
			"0.0": 22.2895613107,
			"0.001": 13.4841428627,
			"0.002": 11.6761597203,
			"0.003": 15.8404931771,
			"0.004": 20.4784128834,
			"0.005": 10.1235192874,
			"0.006": 4.17562407349,
			"0.007": 2.36748257173,
			"0.008": 1.98959396631,
			"0.009": 2.4523811805,
			"0.01": 3.97080604447,
			"0.011": 3.90609440137,
			"0.012": 0.260849668412,
			"0.013": 0.0,
			"0.014": 0.0,
			"0.015": 0.0,
			"0.016": 0.0,
			"0.017": 0.0,
			"0.018": 0.0,
			"0.019": 0.0,
			"0.02": 0.0,
			"0.021": 0.0,
			"0.022": 0.0,
			"0.023": 0.0,
			"0.024": 0.0,
			"0.025": 0.0
		}
	}
}
