{
	 "smiles": "CC1=CCCC(CO)=C/C2OC(=O)C(=C)C2C(C1)OC(=O)C(=C)C(O)CO", 
	 "Tm": 416.15, 
	 "num_atms": 53, 
	 "gaussian": { 
		 "optdone": 1, 
		 "sigma_profile": "yes", 
		 "theory": "DFT", 
		 "functional": "B3LYP", 
		 "basiset": "6-31G**", 
		 "properties": { 
			 "R2extent": 10454.0892, 
			 "electric_dipole_moment_norm": 5.41198053304, 
			 "electric_quadrupole_moment_norm": 19.425071231, 
			 "total_energy": -1304.28808639, 
			 "HOMO_LUMO_gap": 0.1753, 
			 "cosmo_polarized_energy": -22.71, 
			 "cosmo_cavitation_energy": 51.71, 
			 "cosmo_dispersion_energy": -33.38, 
			 "cosmo_repulsion_energy": 2.48, 
			 "cosmo_total_nonelectrostatic_energy": 20.82, 
			 "SMD_solvation_energy": 10.35 
		},
		"coords": [
			{
				"x": 0.9264975487,
				"y": -2.5655381501,
				"z": 1.1734496412,
				"element": "C" 
			},
			{
				"x": 0.0678109294,
				"y": -2.2487374678,
				"z": -0.0313351546,
				"element": "C" 
			},
			{
				"x": 0.478972145,
				"y": -2.6132889031,
				"z": -1.257519449,
				"element": "C" 
			},
			{
				"x": -0.173793894,
				"y": -2.3947966195,
				"z": -2.595236198,
				"element": "C" 
			},
			{
				"x": 0.7038868514,
				"y": -1.5172111311,
				"z": -3.5542432382,
				"element": "C" 
			},
			{
				"x": 0.1297625842,
				"y": -0.1564920667,
				"z": -3.9116733076,
				"element": "C" 
			},
			{
				"x": -0.1549064396,
				"y": 0.0526841907,
				"z": -5.3846037198,
				"element": "C" 
			},
			{
				"x": -0.9980525572,
				"y": -0.9611271486,
				"z": -5.9268052557,
				"element": "O" 
			},
			{
				"x": -0.1330468118,
				"y": 0.8304671745,
				"z": -3.04227615,
				"element": "C" 
			},
			{
				"x": 0.0629039343,
				"y": 0.8017213521,
				"z": -1.5542819616,
				"element": "C" 
			},
			{
				"x": 0.7503615428,
				"y": 2.0301098779,
				"z": -1.1513214118,
				"element": "O" 
			},
			{
				"x": -0.0917902296,
				"y": 2.9016901044,
				"z": -0.5589841892,
				"element": "C" 
			},
			{
				"x": 0.2603239883,
				"y": 4.0038492262,
				"z": -0.1878397839,
				"element": "O" 
			},
			{
				"x": -1.4397785721,
				"y": 2.276113979,
				"z": -0.4393276883,
				"element": "C" 
			},
			{
				"x": -2.5186711514,
				"y": 2.974909808,
				"z": -0.0835883686,
				"element": "C" 
			},
			{
				"x": -1.2925180072,
				"y": 0.8107631799,
				"z": -0.7742994616,
				"element": "C" 
			},
			{
				"x": -1.3359291044,
				"y": -0.0668530152,
				"z": 0.4952910765,
				"element": "C" 
			},
			{
				"x": -1.2750403918,
				"y": -1.5974208018,
				"z": 0.2649256876,
				"element": "C" 
			},
			{
				"x": -0.2800861567,
				"y": 0.4161983308,
				"z": 1.3550413667,
				"element": "O" 
			},
			{
				"x": -0.4324627627,
				"y": 0.2334157929,
				"z": 2.7000052265,
				"element": "C" 
			},
			{
				"x": -1.3686607948,
				"y": -0.3770615289,
				"z": 3.1748587653,
				"element": "O" 
			},
			{
				"x": 0.6919391031,
				"y": 0.8466254287,
				"z": 3.4674321596,
				"element": "C" 
			},
			{
				"x": 0.9050520409,
				"y": 0.4139904429,
				"z": 4.716364141,
				"element": "C" 
			},
			{
				"x": 1.5145454459,
				"y": 1.9422216775,
				"z": 2.8264385392,
				"element": "C" 
			},
			{
				"x": 2.7447790261,
				"y": 2.0859171422,
				"z": 3.5147765873,
				"element": "O" 
			},
			{
				"x": 0.7684730532,
				"y": 3.2921112655,
				"z": 2.8780180666,
				"element": "C" 
			},
			{
				"x": 1.5909602781,
				"y": 4.3159390745,
				"z": 2.3430041864,
				"element": "O" 
			},
			{
				"x": 0.3576543468,
				"y": -3.1237723002,
				"z": 1.9271578111,
				"element": "H" 
			},
			{
				"x": 1.2881686901,
				"y": -1.6550462089,
				"z": 1.662430025,
				"element": "H" 
			},
			{
				"x": 1.7994562279,
				"y": -3.1616384312,
				"z": 0.8941999984,
				"element": "H" 
			},
			{
				"x": 1.4418575613,
				"y": -3.1233383803,
				"z": -1.3199863303,
				"element": "H" 
			},
			{
				"x": -1.1670891803,
				"y": -1.9487104408,
				"z": -2.4919599039,
				"element": "H" 
			},
			{
				"x": -0.3266075019,
				"y": -3.371428499,
				"z": -3.0718451047,
				"element": "H" 
			},
			{
				"x": 0.8584694514,
				"y": -2.0656661554,
				"z": -4.4863073799,
				"element": "H" 
			},
			{
				"x": 1.6951897162,
				"y": -1.3811174434,
				"z": -3.1046886058,
				"element": "H" 
			},
			{
				"x": -0.5643845758,
				"y": 1.0584656166,
				"z": -5.5587653052,
				"element": "H" 
			},
			{
				"x": 0.7791309984,
				"y": -0.0231648662,
				"z": -5.9548009577,
				"element": "H" 
			},
			{
				"x": -1.8506581877,
				"y": -0.9001467249,
				"z": -5.4759247071,
				"element": "H" 
			},
			{
				"x": -0.5574835404,
				"y": 1.7616693816,
				"z": -3.4195813849,
				"element": "H" 
			},
			{
				"x": 0.7073521915,
				"y": -0.0162168636,
				"z": -1.2382767145,
				"element": "H" 
			},
			{
				"x": -3.5035983337,
				"y": 2.5244899846,
				"z": -0.0043866201,
				"element": "H" 
			},
			{
				"x": -2.4254056969,
				"y": 4.03380475,
				"z": 0.1387797333,
				"element": "H" 
			},
			{
				"x": -2.0992770702,
				"y": 0.4660180568,
				"z": -1.4282537803,
				"element": "H" 
			},
			{
				"x": -2.2878967046,
				"y": 0.1369673478,
				"z": 0.9978835611,
				"element": "H" 
			},
			{
				"x": -1.6722859788,
				"y": -2.0521825968,
				"z": 1.1780857896,
				"element": "H" 
			},
			{
				"x": -1.9960179901,
				"y": -1.8194336124,
				"z": -0.5295268088,
				"element": "H" 
			},
			{
				"x": 1.7268771516,
				"y": 0.815281662,
				"z": 5.2975521044,
				"element": "H" 
			},
			{
				"x": 0.2708161418,
				"y": -0.3504894767,
				"z": 5.1519392303,
				"element": "H" 
			},
			{
				"x": 1.6942629144,
				"y": 1.6894050895,
				"z": 1.7708722398,
				"element": "H" 
			},
			{
				"x": 3.0631727405,
				"y": 2.9656003853,
				"z": 3.2545867094,
				"element": "H" 
			},
			{
				"x": -0.1972188665,
				"y": 3.2337180068,
				"z": 2.361704533,
				"element": "H" 
			},
			{
				"x": 0.5845596723,
				"y": 3.5344840109,
				"z": 3.9310075066,
				"element": "H" 
			},
			{
				"x": 1.4205242247,
				"y": 4.3477464929,
				"z": 1.3862342549,
				"element": "H" 
			}
		],
		 "valence_orbital": [ 
			{
				"type": "occ",
				"energy": -0.27722,
				"method": "rhf"
			},
			{
				"type": "occ",
				"energy": -0.27638,
				"method": "rhf"
			},
			{
				"type": "occ",
				"energy": -0.26372,
				"method": "rhf"
			},
			{
				"type": "occ",
				"energy": -0.24476,
				"method": "rhf"
			},
			{
				"type": "occ",
				"energy": -0.24198,
				"method": "rhf"
			},
			{
				"type": "unocc",
				"energy": -0.06668,
				"method": "rhf"
			},
			{
				"type": "unocc",
				"energy": -0.04404,
				"method": "rhf"
			},
			{
				"type": "unocc",
				"energy": -0.01586,
				"method": "rhf"
			},
			{
				"type": "unocc",
				"energy": 0.00665,
				"method": "rhf"
			},
			{
				"type": "unocc",
				"energy": 0.0515,
				"method": "rhf"
			}
		],
		"cosmo_sigma_profile": { 
			"-0.025": 0.0,
			"-0.024": 0.0,
			"-0.023": 0.0,
			"-0.022": 0.0,
			"-0.021": 0.0,
			"-0.02": 0.0,
			"-0.019": 0.0,
			"-0.018": 0.0,
			"-0.017": 0.0,
			"-0.016": 0.131715789801,
			"-0.015": 0.650546669959,
			"-0.014": 1.23364190307,
			"-0.013": 0.485690739181,
			"-0.012": 1.18061767616,
			"-0.011": 1.47146850606,
			"-0.01": 1.02074586768,
			"-0.009": 1.13916480561,
			"-0.008": 3.40834449571,
			"-0.007": 12.637113903,
			"-0.006": 15.5546682235,
			"-0.005": 19.8762085163,
			"-0.004": 33.5821760258,
			"-0.003": 45.2738028668,
			"-0.002": 46.7435744988,
			"-0.001": 39.7656338119,
			"0.0": 35.9745007989,
			"0.001": 25.1707035552,
			"0.002": 19.9568711092,
			"0.003": 14.9258770302,
			"0.004": 11.2052630004,
			"0.005": 9.86976620565,
			"0.006": 8.5126080006,
			"0.007": 8.22137610266,
			"0.008": 8.18555272366,
			"0.009": 8.66206387298,
			"0.01": 9.19118982078,
			"0.011": 7.6810939918,
			"0.012": 5.25519345877,
			"0.013": 3.75937744028,
			"0.014": 3.5264974396,
			"0.015": 0.311863511192,
			"0.016": 0.0,
			"0.017": 0.0,
			"0.018": 0.0,
			"0.019": 0.0,
			"0.02": 0.0,
			"0.021": 0.0,
			"0.022": 0.0,
			"0.023": 0.0,
			"0.024": 0.0,
			"0.025": 0.0
		}
	}
}
