{
	 "smiles": "CSC1=NC2=C(N1C)C(=O)N(CC1=CC=CC=C1)C(=S)N2", 
	 "Tm": 505.15, 
	 "num_atms": 35, 
	 "gaussian": { 
		 "optdone": 1, 
		 "sigma_profile": "yes", 
		 "theory": "DFT", 
		 "functional": "B3LYP", 
		 "basiset": "6-31G**", 
		 "properties": { 
			 "R2extent": 9145.8744, 
			 "electric_dipole_moment_norm": 5.67454230225, 
			 "electric_quadrupole_moment_norm": 20.3045918533, 
			 "total_energy": -1632.57244585, 
			 "HOMO_LUMO_gap": 0.16735, 
			 "cosmo_polarized_energy": -15.9, 
			 "cosmo_cavitation_energy": 41.3, 
			 "cosmo_dispersion_energy": -30.69, 
			 "cosmo_repulsion_energy": 2.24, 
			 "cosmo_total_nonelectrostatic_energy": 12.85, 
			 "SMD_solvation_energy": 4.87 
		},
		"coords": [
			{
				"x": 0.3830113952,
				"y": -2.691414539,
				"z": -5.6424505954,
				"element": "C" 
			},
			{
				"x": 1.6844875707,
				"y": -1.9154611827,
				"z": -4.6218730644,
				"element": "S" 
			},
			{
				"x": 0.7056234383,
				"y": -1.3954607729,
				"z": -3.2584896548,
				"element": "C" 
			},
			{
				"x": -0.6120238935,
				"y": -1.5812129723,
				"z": -3.1368941105,
				"element": "N" 
			},
			{
				"x": -0.896800984,
				"y": -1.0166942809,
				"z": -1.9372499448,
				"element": "C" 
			},
			{
				"x": 0.2156710341,
				"y": -0.4895273761,
				"z": -1.3205690547,
				"element": "C" 
			},
			{
				"x": 1.2659519383,
				"y": -0.7425843225,
				"z": -2.1992325006,
				"element": "N" 
			},
			{
				"x": 2.6695112061,
				"y": -0.3870123945,
				"z": -2.0119544684,
				"element": "C" 
			},
			{
				"x": 0.1645121223,
				"y": 0.1560388605,
				"z": -0.0490191097,
				"element": "C" 
			},
			{
				"x": 1.1116972612,
				"y": 0.6633009509,
				"z": 0.5495906765,
				"element": "O" 
			},
			{
				"x": -1.1596076776,
				"y": 0.166064121,
				"z": 0.5063222249,
				"element": "N" 
			},
			{
				"x": -1.2681046739,
				"y": 0.8048116346,
				"z": 1.8491480084,
				"element": "C" 
			},
			{
				"x": -1.046223254,
				"y": -0.1560886814,
				"z": 3.0037166716,
				"element": "C" 
			},
			{
				"x": 0.2535129191,
				"y": -0.4857039438,
				"z": 3.4172007468,
				"element": "C" 
			},
			{
				"x": 0.4556522083,
				"y": -1.351253934,
				"z": 4.4924249139,
				"element": "C" 
			},
			{
				"x": -0.6364593198,
				"y": -1.8951217642,
				"z": 5.1721196848,
				"element": "C" 
			},
			{
				"x": -1.9322748025,
				"y": -1.5662744172,
				"z": 4.7719392191,
				"element": "C" 
			},
			{
				"x": -2.1364955829,
				"y": -0.7019504585,
				"z": 3.6947652519,
				"element": "C" 
			},
			{
				"x": -2.3054352725,
				"y": -0.3218393547,
				"z": -0.1108779215,
				"element": "C" 
			},
			{
				"x": -3.8659237046,
				"y": -0.2159614548,
				"z": 0.5012963392,
				"element": "S" 
			},
			{
				"x": -2.1207981025,
				"y": -0.9274780663,
				"z": -1.3332122176,
				"element": "N" 
			},
			{
				"x": -0.0776391803,
				"y": -3.5184700118,
				"z": -5.1028958137,
				"element": "H" 
			},
			{
				"x": -0.3742097211,
				"y": -1.9560640409,
				"z": -5.9130139891,
				"element": "H" 
			},
			{
				"x": 0.8919827079,
				"y": -3.0578962908,
				"z": -6.535621268,
				"element": "H" 
			},
			{
				"x": 3.004473535,
				"y": 0.2677137904,
				"z": -2.8217624409,
				"element": "H" 
			},
			{
				"x": 2.7522955268,
				"y": 0.1335535918,
				"z": -1.0586168089,
				"element": "H" 
			},
			{
				"x": 3.2897228811,
				"y": -1.2880908957,
				"z": -1.9973067148,
				"element": "H" 
			},
			{
				"x": -0.5118973599,
				"y": 1.5893802382,
				"z": 1.8603742371,
				"element": "H" 
			},
			{
				"x": -2.2605410358,
				"y": 1.2495464244,
				"z": 1.9005939307,
				"element": "H" 
			},
			{
				"x": 1.1001201754,
				"y": -0.0600156758,
				"z": 2.8885322788,
				"element": "H" 
			},
			{
				"x": 1.4675324494,
				"y": -1.5960609491,
				"z": 4.8037941565,
				"element": "H" 
			},
			{
				"x": -0.4779006879,
				"y": -2.566724065,
				"z": 6.0114185297,
				"element": "H" 
			},
			{
				"x": -2.7873957836,
				"y": -1.9806923346,
				"z": 5.2986404385,
				"element": "H" 
			},
			{
				"x": -3.1439953024,
				"y": -0.4507207474,
				"z": 3.3799839486,
				"element": "H" 
			},
			{
				"x": -2.9524320302,
				"y": -1.2837346848,
				"z": -1.7846215792,
				"element": "H" 
			}
		],
		 "valence_orbital": [ 
			{
				"type": "occ",
				"energy": -0.24531,
				"method": "rhf"
			},
			{
				"type": "occ",
				"energy": -0.24114,
				"method": "rhf"
			},
			{
				"type": "occ",
				"energy": -0.23956,
				"method": "rhf"
			},
			{
				"type": "occ",
				"energy": -0.21583,
				"method": "rhf"
			},
			{
				"type": "occ",
				"energy": -0.2097,
				"method": "rhf"
			},
			{
				"type": "unocc",
				"energy": -0.04235,
				"method": "rhf"
			},
			{
				"type": "unocc",
				"energy": -0.02883,
				"method": "rhf"
			},
			{
				"type": "unocc",
				"energy": 0.00067,
				"method": "rhf"
			},
			{
				"type": "unocc",
				"energy": 0.00291,
				"method": "rhf"
			},
			{
				"type": "unocc",
				"energy": 0.0077,
				"method": "rhf"
			}
		],
		"cosmo_sigma_profile": { 
			"-0.025": 0.0,
			"-0.024": 0.0,
			"-0.023": 0.0,
			"-0.022": 0.0,
			"-0.021": 0.0,
			"-0.02": 0.0,
			"-0.019": 0.0,
			"-0.018": 0.0,
			"-0.017": 0.272484397581,
			"-0.016": 0.755353080598,
			"-0.015": 1.07852705821,
			"-0.014": 0.735276681068,
			"-0.013": 0.340352689431,
			"-0.012": 0.704205192195,
			"-0.011": 0.915063673542,
			"-0.01": 0.836197259306,
			"-0.009": 0.868363727508,
			"-0.008": 2.34692669569,
			"-0.007": 6.73556876875,
			"-0.006": 14.3550253357,
			"-0.005": 23.129772184,
			"-0.004": 30.4145910524,
			"-0.003": 36.5442003791,
			"-0.002": 33.9110851959,
			"-0.001": 23.0613411668,
			"0.0": 18.2817358151,
			"0.001": 17.3411394901,
			"0.002": 17.1950807299,
			"0.003": 18.3070660247,
			"0.004": 17.8760764411,
			"0.005": 19.3909347491,
			"0.006": 16.4913592816,
			"0.007": 7.26199529357,
			"0.008": 6.83683773443,
			"0.009": 7.36118160897,
			"0.01": 7.00463109077,
			"0.011": 3.2129991622,
			"0.012": 1.42515820959,
			"0.013": 0.189862734094,
			"0.014": 0.0,
			"0.015": 0.0,
			"0.016": 0.0,
			"0.017": 0.0,
			"0.018": 0.0,
			"0.019": 0.0,
			"0.02": 0.0,
			"0.021": 0.0,
			"0.022": 0.0,
			"0.023": 0.0,
			"0.024": 0.0,
			"0.025": 0.0
		}
	}
}
