{
	 "smiles": "CSC1=NN2C(N=C(C=C2C(F)(F)F)C(F)(F)F)=C1C(N)=O", 
	 "Tm": 523.15, 
	 "num_atms": 28, 
	 "gaussian": { 
		 "optdone": 1, 
		 "sigma_profile": "yes", 
		 "theory": "DFT", 
		 "functional": "B3LYP", 
		 "basiset": "6-31G**", 
		 "properties": { 
			 "R2extent": 7562.0044, 
			 "electric_dipole_moment_norm": 3.06418557206, 
			 "electric_quadrupole_moment_norm": 8.79405757145, 
			 "total_energy": -1676.1294574, 
			 "HOMO_LUMO_gap": 0.12313, 
			 "cosmo_polarized_energy": -15.52, 
			 "cosmo_cavitation_energy": 37.66, 
			 "cosmo_dispersion_energy": -26.47, 
			 "cosmo_repulsion_energy": 1.87, 
			 "cosmo_total_nonelectrostatic_energy": 13.05, 
			 "SMD_solvation_energy": 8.02 
		},
		"coords": [
			{
				"x": 1.0195113321,
				"y": 4.7089824326,
				"z": 0.9472671252,
				"element": "C" 
			},
			{
				"x": 0.5197752502,
				"y": 3.4198105866,
				"z": 2.1468563207,
				"element": "S" 
			},
			{
				"x": 0.3387885685,
				"y": 1.969437555,
				"z": 1.1627120513,
				"element": "C" 
			},
			{
				"x": -0.7726724497,
				"y": 1.2476093441,
				"z": 1.4261819407,
				"element": "N" 
			},
			{
				"x": -0.6745962019,
				"y": 0.1630384331,
				"z": 0.6423302572,
				"element": "N" 
			},
			{
				"x": 0.4860582486,
				"y": 0.1791982641,
				"z": -0.1552854353,
				"element": "C" 
			},
			{
				"x": 0.7531685803,
				"y": -0.8163218714,
				"z": -1.0164925864,
				"element": "N" 
			},
			{
				"x": -0.1074897028,
				"y": -1.812610845,
				"z": -1.0882360326,
				"element": "C" 
			},
			{
				"x": -1.2923274067,
				"y": -1.8857229145,
				"z": -0.3171858114,
				"element": "C" 
			},
			{
				"x": -1.5623919641,
				"y": -0.8656026037,
				"z": 0.5623200548,
				"element": "C" 
			},
			{
				"x": -2.7928279981,
				"y": -0.8310005502,
				"z": 1.4477712217,
				"element": "C" 
			},
			{
				"x": -2.4553566317,
				"y": -0.8064430924,
				"z": 2.7438632213,
				"element": "F" 
			},
			{
				"x": -3.535791532,
				"y": -1.9342155576,
				"z": 1.2289292199,
				"element": "F" 
			},
			{
				"x": -3.5506835915,
				"y": 0.2408642989,
				"z": 1.1802460494,
				"element": "F" 
			},
			{
				"x": 0.2229086169,
				"y": -2.8961336432,
				"z": -2.099727875,
				"element": "C" 
			},
			{
				"x": 0.0191781409,
				"y": -2.4546682953,
				"z": -3.3553473798,
				"element": "F" 
			},
			{
				"x": -0.5571096786,
				"y": -3.9814430384,
				"z": -1.9140309495,
				"element": "F" 
			},
			{
				"x": 1.5047965211,
				"y": -3.2795899363,
				"z": -2.0016287254,
				"element": "F" 
			},
			{
				"x": 1.1722689892,
				"y": 1.3510289127,
				"z": 0.1851425864,
				"element": "C" 
			},
			{
				"x": 2.5261127819,
				"y": 1.7439459368,
				"z": -0.2915687649,
				"element": "C" 
			},
			{
				"x": 3.0561544431,
				"y": 0.9436087605,
				"z": -1.2586769166,
				"element": "N" 
			},
			{
				"x": 3.1310130695,
				"y": 2.7155748012,
				"z": 0.157588764,
				"element": "O" 
			},
			{
				"x": 1.1069980322,
				"y": 5.6205302507,
				"z": 1.5429980739,
				"element": "H" 
			},
			{
				"x": 0.2430134208,
				"y": 4.8481337736,
				"z": 0.1928032853,
				"element": "H" 
			},
			{
				"x": 1.9770393014,
				"y": 4.4504768099,
				"z": 0.4987610044,
				"element": "H" 
			},
			{
				"x": -1.9712720663,
				"y": -2.7206931182,
				"z": -0.405888918,
				"element": "H" 
			},
			{
				"x": 2.5979846717,
				"y": 0.0959216504,
				"z": -1.566673887,
				"element": "H" 
			},
			{
				"x": 4.0024492551,
				"y": 1.143883656,
				"z": -1.5432278941,
				"element": "H" 
			}
		],
		 "valence_orbital": [ 
			{
				"type": "occ",
				"energy": -0.30197,
				"method": "rhf"
			},
			{
				"type": "occ",
				"energy": -0.26986,
				"method": "rhf"
			},
			{
				"type": "occ",
				"energy": -0.26378,
				"method": "rhf"
			},
			{
				"type": "occ",
				"energy": -0.25989,
				"method": "rhf"
			},
			{
				"type": "occ",
				"energy": -0.23259,
				"method": "rhf"
			},
			{
				"type": "unocc",
				"energy": -0.10946,
				"method": "rhf"
			},
			{
				"type": "unocc",
				"energy": -0.05837,
				"method": "rhf"
			},
			{
				"type": "unocc",
				"energy": -0.01763,
				"method": "rhf"
			},
			{
				"type": "unocc",
				"energy": 0.04075,
				"method": "rhf"
			},
			{
				"type": "unocc",
				"energy": 0.05099,
				"method": "rhf"
			}
		],
		"cosmo_sigma_profile": { 
			"-0.025": 0.0,
			"-0.024": 0.0,
			"-0.023": 0.0,
			"-0.022": 0.0,
			"-0.021": 0.0,
			"-0.02": 0.0,
			"-0.019": 0.0,
			"-0.018": 0.0,
			"-0.017": 0.0,
			"-0.016": 0.0,
			"-0.015": 0.00468851436219,
			"-0.014": 0.722361726415,
			"-0.013": 1.0993819677,
			"-0.012": 1.41421102373,
			"-0.011": 1.09646149314,
			"-0.01": 1.67345565592,
			"-0.009": 4.55755447986,
			"-0.008": 5.14530780857,
			"-0.007": 10.5099109396,
			"-0.006": 15.2988892393,
			"-0.005": 16.7510589351,
			"-0.004": 12.2058645658,
			"-0.003": 15.0813946316,
			"-0.002": 20.1433209645,
			"-0.001": 24.6193329586,
			"0.0": 22.5137022756,
			"0.001": 40.0470353953,
			"0.002": 50.1488838435,
			"0.003": 13.0009520816,
			"0.004": 8.0201553595,
			"0.005": 7.07871210882,
			"0.006": 5.95305696776,
			"0.007": 5.52069529605,
			"0.008": 6.22488890167,
			"0.009": 3.66898902734,
			"0.01": 3.4460532742,
			"0.011": 2.57970365192,
			"0.012": 2.10487859228,
			"0.013": 3.27958564029,
			"0.014": 1.61584558489,
			"0.015": 0.185650838102,
			"0.016": 0.0,
			"0.017": 0.0,
			"0.018": 0.0,
			"0.019": 0.0,
			"0.02": 0.0,
			"0.021": 0.0,
			"0.022": 0.0,
			"0.023": 0.0,
			"0.024": 0.0,
			"0.025": 0.0
		}
	}
}
