{
	 "smiles": "COC1=CC(O)=C2C(=O)C=C(OC2=C1)C1=CC=C(O)C=C1", 
	 "Tm": 562.15, 
	 "num_atms": 33, 
	 "gaussian": { 
		 "optdone": 1, 
		 "sigma_profile": "yes", 
		 "theory": "DFT", 
		 "functional": "B3LYP", 
		 "basiset": "6-31G**", 
		 "properties": { 
			 "R2extent": 8621.8094, 
			 "electric_dipole_moment_norm": 6.77789059664, 
			 "electric_quadrupole_moment_norm": 22.5884005808, 
			 "total_energy": -993.029738481, 
			 "HOMO_LUMO_gap": 0.16487, 
			 "cosmo_polarized_energy": -26.13, 
			 "cosmo_cavitation_energy": 38.14, 
			 "cosmo_dispersion_energy": -28.07, 
			 "cosmo_repulsion_energy": 2.1, 
			 "cosmo_total_nonelectrostatic_energy": 12.17, 
			 "SMD_solvation_energy": 8.69 
		},
		"coords": [
			{
				"x": -1.9691136716,
				"y": -1.6086569246,
				"z": 3.6734086987,
				"element": "C" 
			},
			{
				"x": -1.9813655283,
				"y": -0.19931672,
				"z": 3.8565404227,
				"element": "O" 
			},
			{
				"x": -1.4820567024,
				"y": 0.5840522454,
				"z": 2.8652419513,
				"element": "C" 
			},
			{
				"x": -1.5228747302,
				"y": 1.9651374261,
				"z": 3.115251171,
				"element": "C" 
			},
			{
				"x": -1.0400754445,
				"y": 2.8704118284,
				"z": 2.1771438708,
				"element": "C" 
			},
			{
				"x": -1.0763398008,
				"y": 4.2026123513,
				"z": 2.4113938972,
				"element": "O" 
			},
			{
				"x": -0.4933498256,
				"y": 2.4194448387,
				"z": 0.9422198599,
				"element": "C" 
			},
			{
				"x": 0.0369291242,
				"y": 3.3144152267,
				"z": -0.1132048389,
				"element": "C" 
			},
			{
				"x": 0.0691485705,
				"y": 4.5413067451,
				"z": -0.0401045971,
				"element": "O" 
			},
			{
				"x": 0.528912435,
				"y": 2.6059834155,
				"z": -1.2964347258,
				"element": "C" 
			},
			{
				"x": 0.5253858233,
				"y": 1.257124532,
				"z": -1.4062246749,
				"element": "C" 
			},
			{
				"x": 0.0282263838,
				"y": 0.4699327014,
				"z": -0.4036804348,
				"element": "O" 
			},
			{
				"x": -0.4767945844,
				"y": 1.0294182077,
				"z": 0.7405756434,
				"element": "C" 
			},
			{
				"x": -0.9559707494,
				"y": 0.1004732399,
				"z": 1.6696134534,
				"element": "C" 
			},
			{
				"x": 1.0072817946,
				"y": 0.4626201626,
				"z": -2.5474613853,
				"element": "C" 
			},
			{
				"x": 0.6377939399,
				"y": -0.8841991151,
				"z": -2.6935190852,
				"element": "C" 
			},
			{
				"x": 1.0770728494,
				"y": -1.6351920302,
				"z": -3.7796101876,
				"element": "C" 
			},
			{
				"x": 1.9039590785,
				"y": -1.0523147484,
				"z": -4.745993929,
				"element": "C" 
			},
			{
				"x": 2.3683336411,
				"y": -1.7323795746,
				"z": -5.8308050616,
				"element": "O" 
			},
			{
				"x": 2.2904514345,
				"y": 0.2879273087,
				"z": -4.610548539,
				"element": "C" 
			},
			{
				"x": 1.8485529657,
				"y": 1.0285398775,
				"z": -3.5243472898,
				"element": "C" 
			},
			{
				"x": -0.9473769058,
				"y": -1.9894360817,
				"z": 3.5536328324,
				"element": "H" 
			},
			{
				"x": -2.4081814171,
				"y": -2.0320701632,
				"z": 4.5776418561,
				"element": "H" 
			},
			{
				"x": -2.5696472828,
				"y": -1.9063462651,
				"z": 2.8050109336,
				"element": "H" 
			},
			{
				"x": -1.9395383116,
				"y": 2.3072311078,
				"z": 4.0581682394,
				"element": "H" 
			},
			{
				"x": -1.4718479591,
				"y": 4.3512452662,
				"z": 3.2811529873,
				"element": "H" 
			},
			{
				"x": 0.8932973067,
				"y": 3.2242050407,
				"z": -2.1066901408,
				"element": "H" 
			},
			{
				"x": -0.8992365665,
				"y": -0.9523951475,
				"z": 1.4305334595,
				"element": "H" 
			},
			{
				"x": -0.0047685763,
				"y": -1.3436270101,
				"z": -1.9518276447,
				"element": "H" 
			},
			{
				"x": 0.7746740449,
				"y": -2.6756995763,
				"z": -3.8777835959,
				"element": "H" 
			},
			{
				"x": 2.0369763641,
				"y": -2.6396814507,
				"z": -5.8061401408,
				"element": "H" 
			},
			{
				"x": 2.9430523446,
				"y": 0.7237219673,
				"z": -5.3593779379,
				"element": "H" 
			},
			{
				"x": 2.1770899556,
				"y": 2.0575113189,
				"z": -3.4244750675,
				"element": "H" 
			}
		],
		 "valence_orbital": [ 
			{
				"type": "occ",
				"energy": -0.26309,
				"method": "rhf"
			},
			{
				"type": "occ",
				"energy": -0.22791,
				"method": "rhf"
			},
			{
				"type": "occ",
				"energy": -0.22748,
				"method": "rhf"
			},
			{
				"type": "occ",
				"energy": -0.21915,
				"method": "rhf"
			},
			{
				"type": "occ",
				"energy": -0.21422,
				"method": "rhf"
			},
			{
				"type": "unocc",
				"energy": -0.04935,
				"method": "rhf"
			},
			{
				"type": "unocc",
				"energy": -0.01751,
				"method": "rhf"
			},
			{
				"type": "unocc",
				"energy": -0.01087,
				"method": "rhf"
			},
			{
				"type": "unocc",
				"energy": 0.00851,
				"method": "rhf"
			},
			{
				"type": "unocc",
				"energy": 0.04169,
				"method": "rhf"
			}
		],
		"cosmo_sigma_profile": { 
			"-0.025": 0.0,
			"-0.024": 0.0,
			"-0.023": 0.0,
			"-0.022": 0.0,
			"-0.021": 0.0,
			"-0.02": 0.0,
			"-0.019": 0.179213792133,
			"-0.018": 1.94824279866,
			"-0.017": 2.28598641326,
			"-0.016": 2.21189342522,
			"-0.015": 2.2421165352,
			"-0.014": 1.50435541334,
			"-0.013": 2.21243778193,
			"-0.012": 1.08240205303,
			"-0.011": 2.48679938018,
			"-0.01": 2.65024157747,
			"-0.009": 2.09632351046,
			"-0.008": 4.53229502329,
			"-0.007": 8.9332736576,
			"-0.006": 17.5014632107,
			"-0.005": 18.3815507242,
			"-0.004": 18.2861075854,
			"-0.003": 14.8413931326,
			"-0.002": 14.2139876146,
			"-0.001": 16.6348849072,
			"0.0": 18.8865262649,
			"0.001": 26.1140551787,
			"0.002": 32.3693291008,
			"0.003": 26.8992239269,
			"0.004": 17.4933996271,
			"0.005": 6.13400345438,
			"0.006": 5.31257038552,
			"0.007": 4.007428876,
			"0.008": 5.05653673218,
			"0.009": 4.55056524167,
			"0.01": 3.93991507442,
			"0.011": 3.24121256608,
			"0.012": 2.01784786716,
			"0.013": 3.15333105553,
			"0.014": 5.01844911471,
			"0.015": 3.1179737007,
			"0.016": 2.19015193287,
			"0.017": 1.34289242904,
			"0.018": 0.497669790871,
			"0.019": 0.0,
			"0.02": 0.0,
			"0.021": 0.0,
			"0.022": 0.0,
			"0.023": 0.0,
			"0.024": 0.0,
			"0.025": 0.0
		}
	}
}
