{
	 "smiles": "C(P(CC1=CC=CC=C1)CC1=CC=CC=C1)C1=CC=CC=C1", 
	 "Tm": 369.15, 
	 "num_atms": 43, 
	 "gaussian": { 
		 "optdone": 1, 
		 "sigma_profile": "yes", 
		 "theory": "DFT", 
		 "functional": "B3LYP", 
		 "basiset": "6-31G**", 
		 "properties": { 
			 "R2extent": 9447.8824, 
			 "electric_dipole_moment_norm": 1.15816928814, 
			 "electric_quadrupole_moment_norm": 6.74791406732, 
			 "total_energy": -1154.2561561, 
			 "HOMO_LUMO_gap": 0.21483, 
			 "cosmo_polarized_energy": -11.6, 
			 "cosmo_cavitation_energy": 47.63, 
			 "cosmo_dispersion_energy": -31.07, 
			 "cosmo_repulsion_energy": 2.44, 
			 "cosmo_total_nonelectrostatic_energy": 19.0, 
			 "SMD_solvation_energy": 7.37 
		},
		"coords": [
			{
				"x": -2.2803155112,
				"y": 0.8619042851,
				"z": 2.0676522248,
				"element": "C" 
			},
			{
				"x": -0.8296154245,
				"y": 1.2340605878,
				"z": 0.9096711368,
				"element": "P" 
			},
			{
				"x": 0.4514700368,
				"y": 0.0710154972,
				"z": 1.6660631405,
				"element": "C" 
			},
			{
				"x": 1.6842332032,
				"y": -0.1434638618,
				"z": 0.8173732587,
				"element": "C" 
			},
			{
				"x": 2.9386530784,
				"y": 0.3239863678,
				"z": 1.2288736341,
				"element": "C" 
			},
			{
				"x": 4.0768397256,
				"y": 0.1071285278,
				"z": 0.4500012376,
				"element": "C" 
			},
			{
				"x": 3.9791039611,
				"y": -0.5839035807,
				"z": -0.7577481474,
				"element": "C" 
			},
			{
				"x": 2.7336591891,
				"y": -1.0547820457,
				"z": -1.1805289001,
				"element": "C" 
			},
			{
				"x": 1.5991255875,
				"y": -0.8357439541,
				"z": -0.4007160844,
				"element": "C" 
			},
			{
				"x": -0.3526304382,
				"y": 2.8947879267,
				"z": 1.6736285872,
				"element": "C" 
			},
			{
				"x": 0.8691507041,
				"y": 3.5501006596,
				"z": 1.0709757445,
				"element": "C" 
			},
			{
				"x": 0.9134582679,
				"y": 3.8874307393,
				"z": -0.2907195855,
				"element": "C" 
			},
			{
				"x": 2.0352492676,
				"y": 4.5096368739,
				"z": -0.8365064774,
				"element": "C" 
			},
			{
				"x": 3.1369660342,
				"y": 4.808767124,
				"z": -0.0314485416,
				"element": "C" 
			},
			{
				"x": 3.1052263221,
				"y": 4.480669041,
				"z": 1.3238702605,
				"element": "C" 
			},
			{
				"x": 1.9805529683,
				"y": 3.8567830845,
				"z": 1.8674717011,
				"element": "C" 
			},
			{
				"x": -2.9046998129,
				"y": -0.4894138271,
				"z": 1.8159384465,
				"element": "C" 
			},
			{
				"x": -2.751190514,
				"y": -1.5368802527,
				"z": 2.7354567832,
				"element": "C" 
			},
			{
				"x": -3.3182092549,
				"y": -2.7911003179,
				"z": 2.4983738209,
				"element": "C" 
			},
			{
				"x": -4.0502908421,
				"y": -3.0198382565,
				"z": 1.3332623322,
				"element": "C" 
			},
			{
				"x": -4.2102783824,
				"y": -1.9853727029,
				"z": 0.4077586552,
				"element": "C" 
			},
			{
				"x": -3.6416607156,
				"y": -0.735012536,
				"z": 0.6461525347,
				"element": "C" 
			},
			{
				"x": -3.0123861259,
				"y": 1.6587569079,
				"z": 1.8878936756,
				"element": "H" 
			},
			{
				"x": -1.9610538438,
				"y": 0.9483000244,
				"z": 3.1132703215,
				"element": "H" 
			},
			{
				"x": -0.0797196996,
				"y": -0.8805536448,
				"z": 1.7897792107,
				"element": "H" 
			},
			{
				"x": 0.7249257584,
				"y": 0.4179990787,
				"z": 2.6696559559,
				"element": "H" 
			},
			{
				"x": 3.0246710755,
				"y": 0.8665187786,
				"z": 2.1663993074,
				"element": "H" 
			},
			{
				"x": 5.0395606825,
				"y": 0.4796670969,
				"z": 0.7889834316,
				"element": "H" 
			},
			{
				"x": 4.863811391,
				"y": -0.7548161734,
				"z": -1.3644886154,
				"element": "H" 
			},
			{
				"x": 2.6457791872,
				"y": -1.5955819804,
				"z": -2.1189013216,
				"element": "H" 
			},
			{
				"x": 0.6334578246,
				"y": -1.2046261144,
				"z": -0.7371883926,
				"element": "H" 
			},
			{
				"x": -1.2317755542,
				"y": 3.5355992109,
				"z": 1.5224882631,
				"element": "H" 
			},
			{
				"x": -0.2266690516,
				"y": 2.782510188,
				"z": 2.757407913,
				"element": "H" 
			},
			{
				"x": 0.0627530868,
				"y": 3.6551002128,
				"z": -0.9258609696,
				"element": "H" 
			},
			{
				"x": 2.0495504332,
				"y": 4.7614119855,
				"z": -1.8933234362,
				"element": "H" 
			},
			{
				"x": 4.0103430545,
				"y": 5.2941490069,
				"z": -0.4574108671,
				"element": "H" 
			},
			{
				"x": 3.9543933655,
				"y": 4.711462872,
				"z": 1.9613464027,
				"element": "H" 
			},
			{
				"x": 1.9607488905,
				"y": 3.6117919736,
				"z": 2.9269502211,
				"element": "H" 
			},
			{
				"x": -2.1897123567,
				"y": -1.3645106745,
				"z": 3.6506229884,
				"element": "H" 
			},
			{
				"x": -3.189165837,
				"y": -3.5867732774,
				"z": 3.226863845,
				"element": "H" 
			},
			{
				"x": -4.4942049731,
				"y": -3.9935912245,
				"z": 1.1476299142,
				"element": "H" 
			},
			{
				"x": -4.7803732471,
				"y": -2.1527189691,
				"z": -0.5019029801,
				"element": "H" 
			},
			{
				"x": -3.7678315106,
				"y": 0.063145343,
				"z": -0.0808706296,
				"element": "H" 
			}
		],
		 "valence_orbital": [ 
			{
				"type": "occ",
				"energy": -0.24486,
				"method": "rhf"
			},
			{
				"type": "occ",
				"energy": -0.2384,
				"method": "rhf"
			},
			{
				"type": "occ",
				"energy": -0.23076,
				"method": "rhf"
			},
			{
				"type": "occ",
				"energy": -0.22484,
				"method": "rhf"
			},
			{
				"type": "occ",
				"energy": -0.22316,
				"method": "rhf"
			},
			{
				"type": "unocc",
				"energy": -0.00833,
				"method": "rhf"
			},
			{
				"type": "unocc",
				"energy": -0.00396,
				"method": "rhf"
			},
			{
				"type": "unocc",
				"energy": 0.00132,
				"method": "rhf"
			},
			{
				"type": "unocc",
				"energy": 0.00566,
				"method": "rhf"
			},
			{
				"type": "unocc",
				"energy": 0.00785,
				"method": "rhf"
			}
		],
		"cosmo_sigma_profile": { 
			"-0.025": 0.0,
			"-0.024": 0.0,
			"-0.023": 0.0,
			"-0.022": 0.0,
			"-0.021": 0.0,
			"-0.02": 0.0,
			"-0.019": 0.0,
			"-0.018": 0.0,
			"-0.017": 0.0,
			"-0.016": 0.0,
			"-0.015": 0.0,
			"-0.014": 0.0,
			"-0.013": 0.0,
			"-0.012": 0.0,
			"-0.011": 0.0,
			"-0.01": 0.0,
			"-0.009": 0.0,
			"-0.008": 0.0,
			"-0.007": 0.108918895855,
			"-0.006": 6.15458051813,
			"-0.005": 37.2721728492,
			"-0.004": 45.2876717167,
			"-0.003": 46.3595401594,
			"-0.002": 33.1253110159,
			"-0.001": 29.8079847213,
			"0.0": 23.6430602317,
			"0.001": 21.6816223793,
			"0.002": 19.4962436717,
			"0.003": 21.7707333436,
			"0.004": 24.2204622527,
			"0.005": 25.0474978517,
			"0.006": 27.0062554706,
			"0.007": 12.0477974135,
			"0.008": 0.575518206087,
			"0.009": 0.849019434406,
			"0.01": 0.749994448988,
			"0.011": 0.545026933249,
			"0.012": 0.466392173224,
			"0.013": 0.554118666514,
			"0.014": 0.554968403327,
			"0.015": 0.138776327039,
			"0.016": 0.0,
			"0.017": 0.0,
			"0.018": 0.0,
			"0.019": 0.0,
			"0.02": 0.0,
			"0.021": 0.0,
			"0.022": 0.0,
			"0.023": 0.0,
			"0.024": 0.0,
			"0.025": 0.0
		}
	}
}
