{
	 "smiles": "CN(C)C1=CC=C(C=CC2=CC(C=C(C)O2)=C(C#N)C#N)C=C1", 
	 "Tm": 485.15, 
	 "num_atms": 40, 
	 "gaussian": { 
		 "optdone": 1, 
		 "sigma_profile": "yes", 
		 "theory": "DFT", 
		 "functional": "B3LYP", 
		 "basiset": "6-31G**", 
		 "properties": { 
			 "R2extent": 14429.4967, 
			 "electric_dipole_moment_norm": 14.8086747719, 
			 "electric_quadrupole_moment_norm": 48.6852317493, 
			 "total_energy": -973.683913485, 
			 "HOMO_LUMO_gap": 0.11083, 
			 "cosmo_polarized_energy": -22.49, 
			 "cosmo_cavitation_energy": 46.77, 
			 "cosmo_dispersion_energy": -32.09, 
			 "cosmo_repulsion_energy": 2.41, 
			 "cosmo_total_nonelectrostatic_energy": 17.09, 
			 "SMD_solvation_energy": 10.76 
		},
		"coords": [
			{
				"x": 0.7646645738,
				"y": 3.3440054452,
				"z": -6.1757333807,
				"element": "C" 
			},
			{
				"x": 0.3933132601,
				"y": 3.7222980767,
				"z": -4.8218433141,
				"element": "N" 
			},
			{
				"x": 0.2897431426,
				"y": 5.1300706779,
				"z": -4.4713842458,
				"element": "C" 
			},
			{
				"x": 0.1357750398,
				"y": 2.7520184721,
				"z": -3.8800162606,
				"element": "C" 
			},
			{
				"x": -0.2314396263,
				"y": 3.0930822751,
				"z": -2.5509432629,
				"element": "C" 
			},
			{
				"x": -0.4891550272,
				"y": 2.1161917459,
				"z": -1.6068384342,
				"element": "C" 
			},
			{
				"x": -0.4015348712,
				"y": 0.7410367057,
				"z": -1.9128956045,
				"element": "C" 
			},
			{
				"x": -0.6614493808,
				"y": -0.3201686777,
				"z": -0.9603388033,
				"element": "C" 
			},
			{
				"x": -1.0167203966,
				"y": -0.1921610134,
				"z": 0.3432899485,
				"element": "C" 
			},
			{
				"x": -1.260790743,
				"y": -1.2957778002,
				"z": 1.2352423042,
				"element": "C" 
			},
			{
				"x": -1.6179612982,
				"y": -1.1673105752,
				"z": 2.5499372909,
				"element": "C" 
			},
			{
				"x": -1.8442905459,
				"y": -2.3117153292,
				"z": 3.3758314472,
				"element": "C" 
			},
			{
				"x": -1.6694148566,
				"y": -3.5876713956,
				"z": 2.7244992243,
				"element": "C" 
			},
			{
				"x": -1.3154522769,
				"y": -3.6569727201,
				"z": 1.4217558163,
				"element": "C" 
			},
			{
				"x": -1.1014757727,
				"y": -4.9020286553,
				"z": 0.6260440939,
				"element": "C" 
			},
			{
				"x": -1.1093879877,
				"y": -2.5359546242,
				"z": 0.670876032,
				"element": "O" 
			},
			{
				"x": -2.2096712662,
				"y": -2.2103170078,
				"z": 4.7209040408,
				"element": "C" 
			},
			{
				"x": -2.3750759431,
				"y": -0.9387613746,
				"z": 5.3374434612,
				"element": "C" 
			},
			{
				"x": -2.5012568543,
				"y": 0.120927708,
				"z": 5.808284282,
				"element": "N" 
			},
			{
				"x": -2.4258085269,
				"y": -3.3747640399,
				"z": 5.5089735689,
				"element": "C" 
			},
			{
				"x": -2.5947648871,
				"y": -4.3513061363,
				"z": 6.1243411741,
				"element": "N" 
			},
			{
				"x": -0.0371813497,
				"y": 0.4098005361,
				"z": -3.2336131282,
				"element": "C" 
			},
			{
				"x": 0.2252500876,
				"y": 1.3731475381,
				"z": -4.1938451607,
				"element": "C" 
			},
			{
				"x": -0.0221717158,
				"y": 2.7550831941,
				"z": -6.6659260079,
				"element": "H" 
			},
			{
				"x": 1.6912015625,
				"y": 2.7547762824,
				"z": -6.1952042254,
				"element": "H" 
			},
			{
				"x": 0.9278313721,
				"y": 4.2444354261,
				"z": -6.7682378898,
				"element": "H" 
			},
			{
				"x": 0.9876058116,
				"y": 5.4038627217,
				"z": -3.6690306078,
				"element": "H" 
			},
			{
				"x": -0.7243458999,
				"y": 5.397013884,
				"z": -4.1453659839,
				"element": "H" 
			},
			{
				"x": 0.5306722958,
				"y": 5.7355644557,
				"z": -5.3453401332,
				"element": "H" 
			},
			{
				"x": -0.3147743297,
				"y": 4.1324245967,
				"z": -2.2588753206,
				"element": "H" 
			},
			{
				"x": -0.7662752167,
				"y": 2.4314628893,
				"z": -0.6053572814,
				"element": "H" 
			},
			{
				"x": -0.5551024995,
				"y": -1.3301418373,
				"z": -1.3508223677,
				"element": "H" 
			},
			{
				"x": -1.1397050113,
				"y": 0.7858229266,
				"z": 0.7983019601,
				"element": "H" 
			},
			{
				"x": -1.7284780729,
				"y": -0.171499849,
				"z": 2.9625656055,
				"element": "H" 
			},
			{
				"x": -1.8220940865,
				"y": -4.5047554999,
				"z": 3.2804945352,
				"element": "H" 
			},
			{
				"x": -0.079570151,
				"y": -4.9350682118,
				"z": 0.2325504587,
				"element": "H" 
			},
			{
				"x": -1.2709875067,
				"y": -5.7852031336,
				"z": 1.2436207074,
				"element": "H" 
			},
			{
				"x": -1.7837361815,
				"y": -4.9318857656,
				"z": -0.2306081304,
				"element": "H" 
			},
			{
				"x": 0.0411957212,
				"y": -0.638971757,
				"z": -3.5100171323,
				"element": "H" 
			},
			{
				"x": 0.5006194147,
				"y": 1.0551098466,
				"z": -5.1915192757,
				"element": "H" 
			}
		],
		 "valence_orbital": [ 
			{
				"type": "occ",
				"energy": -0.30772,
				"method": "rhf"
			},
			{
				"type": "occ",
				"energy": -0.26682,
				"method": "rhf"
			},
			{
				"type": "occ",
				"energy": -0.26052,
				"method": "rhf"
			},
			{
				"type": "occ",
				"energy": -0.21642,
				"method": "rhf"
			},
			{
				"type": "occ",
				"energy": -0.19581,
				"method": "rhf"
			},
			{
				"type": "unocc",
				"energy": -0.08498,
				"method": "rhf"
			},
			{
				"type": "unocc",
				"energy": -0.04452,
				"method": "rhf"
			},
			{
				"type": "unocc",
				"energy": -0.01435,
				"method": "rhf"
			},
			{
				"type": "unocc",
				"energy": 0.00226,
				"method": "rhf"
			},
			{
				"type": "unocc",
				"energy": 0.02328,
				"method": "rhf"
			}
		],
		"cosmo_sigma_profile": { 
			"-0.025": 0.0,
			"-0.024": 0.0,
			"-0.023": 0.0,
			"-0.022": 0.0,
			"-0.021": 0.0,
			"-0.02": 0.0,
			"-0.019": 0.0,
			"-0.018": 0.0,
			"-0.017": 0.0,
			"-0.016": 0.0,
			"-0.015": 0.0,
			"-0.014": 0.0,
			"-0.013": 0.0,
			"-0.012": 0.0,
			"-0.011": 0.0,
			"-0.01": 0.0,
			"-0.009": 0.581755994082,
			"-0.008": 6.0191346305,
			"-0.007": 10.1248751715,
			"-0.006": 18.8400517158,
			"-0.005": 28.367599689,
			"-0.004": 32.9897518854,
			"-0.003": 34.4180962364,
			"-0.002": 42.1347136021,
			"-0.001": 30.1402474427,
			"0.0": 29.7150656116,
			"0.001": 29.1434025496,
			"0.002": 17.2906615912,
			"0.003": 15.2431378658,
			"0.004": 16.5088066042,
			"0.005": 15.4502091632,
			"0.006": 7.46177599327,
			"0.007": 4.85077926192,
			"0.008": 4.72875142987,
			"0.009": 6.40598605189,
			"0.01": 6.30245945952,
			"0.011": 6.22689994772,
			"0.012": 5.87577575836,
			"0.013": 4.98198702353,
			"0.014": 1.89928222273,
			"0.015": 0.0,
			"0.016": 0.0,
			"0.017": 0.0,
			"0.018": 0.0,
			"0.019": 0.0,
			"0.02": 0.0,
			"0.021": 0.0,
			"0.022": 0.0,
			"0.023": 0.0,
			"0.024": 0.0,
			"0.025": 0.0
		}
	}
}
