{
	 "smiles": "CSC1=C(Cl)C=C(Cl)C(=C1)C(O)=O", 
	 "Tm": 466.15, 
	 "num_atms": 19, 
	 "gaussian": { 
		 "optdone": 1, 
		 "sigma_profile": "yes", 
		 "theory": "DFT", 
		 "functional": "B3LYP", 
		 "basiset": "6-31G**", 
		 "properties": { 
			 "R2extent": 4467.2802, 
			 "electric_dipole_moment_norm": 1.45581698369, 
			 "electric_quadrupole_moment_norm": 9.35218682876, 
			 "total_energy": -1777.49239609, 
			 "HOMO_LUMO_gap": 0.16582, 
			 "cosmo_polarized_energy": -9.96, 
			 "cosmo_cavitation_energy": 28.78, 
			 "cosmo_dispersion_energy": -21.62, 
			 "cosmo_repulsion_energy": 1.68, 
			 "cosmo_total_nonelectrostatic_energy": 8.84, 
			 "SMD_solvation_energy": 5.84 
		},
		"coords": [
			{
				"x": 2.8076437255,
				"y": 1.9236395496,
				"z": 0.4531631194,
				"element": "C" 
			},
			{
				"x": 2.4461363066,
				"y": 0.2071505674,
				"z": -0.0830756746,
				"element": "S" 
			},
			{
				"x": 0.8818213983,
				"y": -0.1063756773,
				"z": 0.7240735272,
				"element": "C" 
			},
			{
				"x": 0.7306864273,
				"y": -0.3107580594,
				"z": 2.1088755877,
				"element": "C" 
			},
			{
				"x": 2.0924996082,
				"y": -0.2136041022,
				"z": 3.2001485196,
				"element": "Cl" 
			},
			{
				"x": -0.5138198849,
				"y": -0.6008726305,
				"z": 2.6617463766,
				"element": "C" 
			},
			{
				"x": -1.6409707681,
				"y": -0.7236084517,
				"z": 1.8467385685,
				"element": "C" 
			},
			{
				"x": -3.137554517,
				"y": -1.0804718776,
				"z": 2.6780651852,
				"element": "Cl" 
			},
			{
				"x": -1.5315215268,
				"y": -0.5477266651,
				"z": 0.4540303794,
				"element": "C" 
			},
			{
				"x": -0.2638085626,
				"y": -0.2322987059,
				"z": -0.062386996,
				"element": "C" 
			},
			{
				"x": -2.6127764597,
				"y": -0.6411485318,
				"z": -0.5782376408,
				"element": "C" 
			},
			{
				"x": -3.7998289087,
				"y": -1.0851717625,
				"z": -0.1253526063,
				"element": "O" 
			},
			{
				"x": -2.4356403948,
				"y": -0.3528417346,
				"z": -1.7461533044,
				"element": "O" 
			},
			{
				"x": 2.9482685028,
				"y": 1.9810678471,
				"z": 1.5333484194,
				"element": "H" 
			},
			{
				"x": 2.0170701779,
				"y": 2.6042211248,
				"z": 0.1321232862,
				"element": "H" 
			},
			{
				"x": 3.7407732986,
				"y": 2.1969956784,
				"z": -0.0448792885,
				"element": "H" 
			},
			{
				"x": -0.6092889349,
				"y": -0.7417477664,
				"z": 3.7310774437,
				"element": "H" 
			},
			{
				"x": -0.1913806048,
				"y": -0.0816060763,
				"z": -1.1331875818,
				"element": "H" 
			},
			{
				"x": -4.3864088829,
				"y": -1.0961427262,
				"z": -0.9008173205,
				"element": "H" 
			}
		],
		 "valence_orbital": [ 
			{
				"type": "occ",
				"energy": -0.31826,
				"method": "rhf"
			},
			{
				"type": "occ",
				"energy": -0.29124,
				"method": "rhf"
			},
			{
				"type": "occ",
				"energy": -0.27531,
				"method": "rhf"
			},
			{
				"type": "occ",
				"energy": -0.26829,
				"method": "rhf"
			},
			{
				"type": "occ",
				"energy": -0.2371,
				"method": "rhf"
			},
			{
				"type": "unocc",
				"energy": -0.07128,
				"method": "rhf"
			},
			{
				"type": "unocc",
				"energy": -0.04204,
				"method": "rhf"
			},
			{
				"type": "unocc",
				"energy": -0.00463,
				"method": "rhf"
			},
			{
				"type": "unocc",
				"energy": 0.02031,
				"method": "rhf"
			},
			{
				"type": "unocc",
				"energy": 0.03376,
				"method": "rhf"
			}
		],
		"cosmo_sigma_profile": { 
			"-0.025": 0.0,
			"-0.024": 0.0,
			"-0.023": 0.0,
			"-0.022": 0.0,
			"-0.021": 0.0,
			"-0.02": 0.0,
			"-0.019": 0.213986982924,
			"-0.018": 0.902801684171,
			"-0.017": 1.04794606791,
			"-0.016": 1.12766155385,
			"-0.015": 0.635437871214,
			"-0.014": 0.328871831541,
			"-0.013": 0.390031647052,
			"-0.012": 0.977971411247,
			"-0.011": 1.13522012571,
			"-0.01": 0.522136838931,
			"-0.009": 1.56911245422,
			"-0.008": 2.04597496691,
			"-0.007": 3.37389868004,
			"-0.006": 6.37061479543,
			"-0.005": 7.26544190559,
			"-0.004": 11.9002067621,
			"-0.003": 19.3425429394,
			"-0.002": 25.1939473879,
			"-0.001": 32.7387719086,
			"0.0": 24.9599852266,
			"0.001": 13.9949590001,
			"0.002": 14.5973829173,
			"0.003": 16.760393525,
			"0.004": 13.9783483386,
			"0.005": 5.88374084286,
			"0.006": 6.60531640643,
			"0.007": 6.49944938146,
			"0.008": 5.50205184391,
			"0.009": 2.82778307458,
			"0.01": 2.73286887912,
			"0.011": 4.27697063194,
			"0.012": 1.19477544446,
			"0.013": 0.0,
			"0.014": 0.0,
			"0.015": 0.0,
			"0.016": 0.0,
			"0.017": 0.0,
			"0.018": 0.0,
			"0.019": 0.0,
			"0.02": 0.0,
			"0.021": 0.0,
			"0.022": 0.0,
			"0.023": 0.0,
			"0.024": 0.0,
			"0.025": 0.0
		}
	}
}
