{
	 "smiles": "CC1=CC(C)=NO1", 
	 "Tm": 259.15, 
	 "num_atms": 14, 
	 "gaussian": { 
		 "optdone": 1, 
		 "sigma_profile": "yes", 
		 "theory": "DFT", 
		 "functional": "B3LYP", 
		 "basiset": "6-31G**", 
		 "properties": { 
			 "R2extent": 849.9868, 
			 "electric_dipole_moment_norm": 3.04226919749, 
			 "electric_quadrupole_moment_norm": 6.40281166207, 
			 "total_energy": -324.683739292, 
			 "HOMO_LUMO_gap": 0.24256, 
			 "cosmo_polarized_energy": -7.61, 
			 "cosmo_cavitation_energy": 17.85, 
			 "cosmo_dispersion_energy": -13.38, 
			 "cosmo_repulsion_energy": 1.15, 
			 "cosmo_total_nonelectrostatic_energy": 5.62, 
			 "SMD_solvation_energy": 3.49 
		},
		"coords": [
			{
				"x": 0.9764896896,
				"y": 0.2466156095,
				"z": -2.8448189335,
				"element": "C" 
			},
			{
				"x": 0.7143305849,
				"y": 0.0374945763,
				"z": -1.3929369245,
				"element": "C" 
			},
			{
				"x": 1.5124361837,
				"y": -0.0283655659,
				"z": -0.2897384444,
				"element": "C" 
			},
			{
				"x": 0.6050523606,
				"y": -0.2502777212,
				"z": 0.7896356178,
				"element": "C" 
			},
			{
				"x": 0.9202581805,
				"y": -0.40657392,
				"z": 2.2501838316,
				"element": "C" 
			},
			{
				"x": -0.6385910454,
				"y": -0.3124538246,
				"z": 0.3661247146,
				"element": "N" 
			},
			{
				"x": -0.5725348063,
				"y": -0.1297430341,
				"z": -1.0223547025,
				"element": "O" 
			},
			{
				"x": 2.0469850168,
				"y": 0.3690447518,
				"z": -3.0211113523,
				"element": "H" 
			},
			{
				"x": 0.4580508407,
				"y": 1.1388680222,
				"z": -3.2114090737,
				"element": "H" 
			},
			{
				"x": 0.6210519818,
				"y": -0.6058324229,
				"z": -3.4332730779,
				"element": "H" 
			},
			{
				"x": 2.5867788091,
				"y": 0.0659141918,
				"z": -0.2426541553,
				"element": "H" 
			},
			{
				"x": 0.4189534064,
				"y": 0.3648716851,
				"z": 2.8420737004,
				"element": "H" 
			},
			{
				"x": 1.9959422491,
				"y": -0.3281243425,
				"z": 2.4227992492,
				"element": "H" 
			},
			{
				"x": 0.5816965486,
				"y": -1.3787380055,
				"z": 2.6203795505,
				"element": "H" 
			}
		],
		 "valence_orbital": [ 
			{
				"type": "occ",
				"energy": -0.37838,
				"method": "rhf"
			},
			{
				"type": "occ",
				"energy": -0.36755,
				"method": "rhf"
			},
			{
				"type": "occ",
				"energy": -0.29115,
				"method": "rhf"
			},
			{
				"type": "occ",
				"energy": -0.27782,
				"method": "rhf"
			},
			{
				"type": "occ",
				"energy": -0.24688,
				"method": "rhf"
			},
			{
				"type": "unocc",
				"energy": -0.00432,
				"method": "rhf"
			},
			{
				"type": "unocc",
				"energy": 0.06834,
				"method": "rhf"
			},
			{
				"type": "unocc",
				"energy": 0.09272,
				"method": "rhf"
			},
			{
				"type": "unocc",
				"energy": 0.11095,
				"method": "rhf"
			},
			{
				"type": "unocc",
				"energy": 0.12213,
				"method": "rhf"
			}
		],
		"cosmo_sigma_profile": { 
			"-0.025": 0.0,
			"-0.024": 0.0,
			"-0.023": 0.0,
			"-0.022": 0.0,
			"-0.021": 0.0,
			"-0.02": 0.0,
			"-0.019": 0.0,
			"-0.018": 0.0,
			"-0.017": 0.0,
			"-0.016": 0.0,
			"-0.015": 0.0,
			"-0.014": 0.0,
			"-0.013": 0.0,
			"-0.012": 0.0,
			"-0.011": 0.0,
			"-0.01": 0.0,
			"-0.009": 0.0,
			"-0.008": 0.620454642891,
			"-0.007": 1.64670315885,
			"-0.006": 8.34608056775,
			"-0.005": 13.9237446258,
			"-0.004": 13.793799,
			"-0.003": 13.7436439555,
			"-0.002": 16.9518602838,
			"-0.001": 16.5251936241,
			"0.0": 8.72476367008,
			"0.001": 5.36833366999,
			"0.002": 6.84592266568,
			"0.003": 6.60373752245,
			"0.004": 4.19432134702,
			"0.005": 2.34390537903,
			"0.006": 2.27873225003,
			"0.007": 2.06815114873,
			"0.008": 3.65919753125,
			"0.009": 4.66237048604,
			"0.01": 2.28274362096,
			"0.011": 1.50739618314,
			"0.012": 1.49338260181,
			"0.013": 1.59733125828,
			"0.014": 1.20398692971,
			"0.015": 1.18778257297,
			"0.016": 0.118470627209,
			"0.017": 0.0,
			"0.018": 0.0,
			"0.019": 0.0,
			"0.02": 0.0,
			"0.021": 0.0,
			"0.022": 0.0,
			"0.023": 0.0,
			"0.024": 0.0,
			"0.025": 0.0
		}
	}
}
