{
	 "smiles": "ClC1=C(CNC2=C(C=CC=N2)C#N)C=CC=C1", 
	 "Tm": 385.15, 
	 "num_atms": 27, 
	 "gaussian": { 
		 "optdone": 1, 
		 "sigma_profile": "yes", 
		 "theory": "DFT", 
		 "functional": "B3LYP", 
		 "basiset": "6-31G**", 
		 "properties": { 
			 "R2extent": 6440.7169, 
			 "electric_dipole_moment_norm": 2.6099220314, 
			 "electric_quadrupole_moment_norm": 16.1002936219, 
			 "total_energy": -1125.84873659, 
			 "HOMO_LUMO_gap": 0.16911, 
			 "cosmo_polarized_energy": -12.04, 
			 "cosmo_cavitation_energy": 34.37, 
			 "cosmo_dispersion_energy": -24.07, 
			 "cosmo_repulsion_energy": 1.87, 
			 "cosmo_total_nonelectrostatic_energy": 12.17, 
			 "SMD_solvation_energy": 5.49 
		},
		"coords": [
			{
				"x": 0.5873797426,
				"y": 2.326355846,
				"z": 4.6769364188,
				"element": "Cl" 
			},
			{
				"x": 1.231766761,
				"y": 0.8697387665,
				"z": 3.9136179383,
				"element": "C" 
			},
			{
				"x": 0.9368538572,
				"y": 0.5998214409,
				"z": 2.5695656087,
				"element": "C" 
			},
			{
				"x": 0.0640130767,
				"y": 1.5482694082,
				"z": 1.7588898002,
				"element": "C" 
			},
			{
				"x": -0.3088693889,
				"y": 1.0537945402,
				"z": 0.447268011,
				"element": "N" 
			},
			{
				"x": 0.2229404604,
				"y": 1.502002553,
				"z": -0.7262372637,
				"element": "C" 
			},
			{
				"x": -0.2360210161,
				"y": 0.9770488526,
				"z": -1.9767726762,
				"element": "C" 
			},
			{
				"x": 0.3323989996,
				"y": 1.4685967204,
				"z": -3.1555501988,
				"element": "C" 
			},
			{
				"x": 1.3197484992,
				"y": 2.4465388943,
				"z": -3.0847234236,
				"element": "C" 
			},
			{
				"x": 1.6973081501,
				"y": 2.8921545297,
				"z": -1.8167546922,
				"element": "C" 
			},
			{
				"x": 1.1781049227,
				"y": 2.4433673832,
				"z": -0.6722725629,
				"element": "N" 
			},
			{
				"x": -1.2497617465,
				"y": -0.0249531169,
				"z": -1.9907610114,
				"element": "C" 
			},
			{
				"x": -2.0775686281,
				"y": -0.8435174164,
				"z": -1.9332968182,
				"element": "N" 
			},
			{
				"x": 1.4834728631,
				"y": -0.563759917,
				"z": 2.0170919598,
				"element": "C" 
			},
			{
				"x": 2.2847810387,
				"y": -1.4222855203,
				"z": 2.7700230161,
				"element": "C" 
			},
			{
				"x": 2.5577590659,
				"y": -1.1293797531,
				"z": 4.1054783313,
				"element": "C" 
			},
			{
				"x": 2.0292078399,
				"y": 0.0250708179,
				"z": 4.6830091273,
				"element": "C" 
			},
			{
				"x": 0.5881393033,
				"y": 2.4960781946,
				"z": 1.6133390117,
				"element": "H" 
			},
			{
				"x": -0.8482908449,
				"y": 1.7718178558,
				"z": 2.3232232854,
				"element": "H" 
			},
			{
				"x": -1.0329053174,
				"y": 0.3520084243,
				"z": 0.3882597434,
				"element": "H" 
			},
			{
				"x": -0.0071433015,
				"y": 1.0786105089,
				"z": -4.1097568347,
				"element": "H" 
			},
			{
				"x": 1.7824919126,
				"y": 2.8503348346,
				"z": -3.9774676279,
				"element": "H" 
			},
			{
				"x": 2.4660825979,
				"y": 3.6561496966,
				"z": -1.7127594855,
				"element": "H" 
			},
			{
				"x": 1.2715484382,
				"y": -0.7925934083,
				"z": 0.9779084547,
				"element": "H" 
			},
			{
				"x": 2.6933846068,
				"y": -2.317678734,
				"z": 2.3115740449,
				"element": "H" 
			},
			{
				"x": 3.1789464554,
				"y": -1.7916789915,
				"z": 4.7007119425,
				"element": "H" 
			},
			{
				"x": 2.2294316522,
				"y": 0.2743875898,
				"z": 5.7192559011,
				"element": "H" 
			}
		],
		 "valence_orbital": [ 
			{
				"type": "occ",
				"energy": -0.29205,
				"method": "rhf"
			},
			{
				"type": "occ",
				"energy": -0.27704,
				"method": "rhf"
			},
			{
				"type": "occ",
				"energy": -0.25936,
				"method": "rhf"
			},
			{
				"type": "occ",
				"energy": -0.24732,
				"method": "rhf"
			},
			{
				"type": "occ",
				"energy": -0.22746,
				"method": "rhf"
			},
			{
				"type": "unocc",
				"energy": -0.05835,
				"method": "rhf"
			},
			{
				"type": "unocc",
				"energy": -0.01728,
				"method": "rhf"
			},
			{
				"type": "unocc",
				"energy": -0.01352,
				"method": "rhf"
			},
			{
				"type": "unocc",
				"energy": -0.01236,
				"method": "rhf"
			},
			{
				"type": "unocc",
				"energy": 0.02238,
				"method": "rhf"
			}
		],
		"cosmo_sigma_profile": { 
			"-0.025": 0.0,
			"-0.024": 0.0,
			"-0.023": 0.0,
			"-0.022": 0.0,
			"-0.021": 0.0,
			"-0.02": 0.0,
			"-0.019": 0.0,
			"-0.018": 0.0,
			"-0.017": 0.0,
			"-0.016": 0.0,
			"-0.015": 0.0,
			"-0.014": 0.330516694726,
			"-0.013": 0.594698752458,
			"-0.012": 0.787986715606,
			"-0.011": 1.15297432281,
			"-0.01": 1.0199220056,
			"-0.009": 1.83379095922,
			"-0.008": 3.87002759673,
			"-0.007": 10.032300786,
			"-0.006": 18.144234058,
			"-0.005": 18.2451115851,
			"-0.004": 17.1539317962,
			"-0.003": 16.8837355952,
			"-0.002": 17.2085182056,
			"-0.001": 19.812841955,
			"0.0": 22.8392682768,
			"0.001": 22.6949478932,
			"0.002": 23.928830955,
			"0.003": 21.9589097478,
			"0.004": 21.4977443958,
			"0.005": 12.0064302494,
			"0.006": 3.89389315569,
			"0.007": 3.6471046944,
			"0.008": 3.33141347399,
			"0.009": 4.63134584488,
			"0.01": 4.18104165795,
			"0.011": 3.74354313949,
			"0.012": 2.47194835638,
			"0.013": 1.51915118618,
			"0.014": 0.0505052627613,
			"0.015": 0.0,
			"0.016": 0.0,
			"0.017": 0.0,
			"0.018": 0.0,
			"0.019": 0.0,
			"0.02": 0.0,
			"0.021": 0.0,
			"0.022": 0.0,
			"0.023": 0.0,
			"0.024": 0.0,
			"0.025": 0.0
		}
	}
}
