{
	 "smiles": "FC(F)(F)C1=CC=C(CNC2=CC=C(Br)C=C2)C=C1", 
	 "Tm": 344.15, 
	 "num_atms": 30, 
	 "gaussian": { 
		 "optdone": 1, 
		 "sigma_profile": "yes", 
		 "theory": "DFT", 
		 "functional": "B3LYP", 
		 "basiset": "6-31G**", 
		 "properties": { 
			 "R2extent": 11151.1178, 
			 "electric_dipole_moment_norm": 4.44372581287, 
			 "electric_quadrupole_moment_norm": 18.7718021498, 
			 "total_energy": -3465.80633472, 
			 "HOMO_LUMO_gap": 0.17516, 
			 "cosmo_polarized_energy": -10.52, 
			 "cosmo_cavitation_energy": 38.11, 
			 "cosmo_dispersion_energy": -27.07, 
			 "cosmo_repulsion_energy": 2.04, 
			 "cosmo_total_nonelectrostatic_energy": 13.08, 
			 "SMD_solvation_energy": 5.89 
		},
		"coords": [
			{
				"x": 3.6188244059,
				"y": -2.382822062,
				"z": 4.3720148969,
				"element": "F" 
			},
			{
				"x": 2.9704409187,
				"y": -3.1580851259,
				"z": 3.4743335566,
				"element": "C" 
			},
			{
				"x": 3.7142625983,
				"y": -4.2716262717,
				"z": 3.2861714554,
				"element": "F" 
			},
			{
				"x": 1.8163094751,
				"y": -3.5541774112,
				"z": 4.0611914933,
				"element": "F" 
			},
			{
				"x": 2.7171400069,
				"y": -2.4291928132,
				"z": 2.183442315,
				"element": "C" 
			},
			{
				"x": 2.5166142201,
				"y": -1.0465345593,
				"z": 2.1875633572,
				"element": "C" 
			},
			{
				"x": 2.2291945226,
				"y": -0.3800047541,
				"z": 0.9980973065,
				"element": "C" 
			},
			{
				"x": 2.1343993502,
				"y": -1.0834437291,
				"z": -0.2071052533,
				"element": "C" 
			},
			{
				"x": 1.8774406248,
				"y": -0.3671926108,
				"z": -1.5273911875,
				"element": "C" 
			},
			{
				"x": 1.1868080665,
				"y": 0.9056940028,
				"z": -1.4042682223,
				"element": "N" 
			},
			{
				"x": -0.2040260354,
				"y": 0.9878550529,
				"z": -1.3274298276,
				"element": "C" 
			},
			{
				"x": -0.8414075922,
				"y": 2.2128851752,
				"z": -1.6040162014,
				"element": "C" 
			},
			{
				"x": -2.2227704693,
				"y": 2.3400607306,
				"z": -1.5148920018,
				"element": "C" 
			},
			{
				"x": -2.9942484499,
				"y": 1.2379893107,
				"z": -1.1454555599,
				"element": "C" 
			},
			{
				"x": -4.8962429749,
				"y": 1.4078420583,
				"z": -1.0251385631,
				"element": "Br" 
			},
			{
				"x": -2.3867333777,
				"y": 0.0182367916,
				"z": -0.863886618,
				"element": "C" 
			},
			{
				"x": -1.0003880024,
				"y": -0.1089520612,
				"z": -0.9530942622,
				"element": "C" 
			},
			{
				"x": 2.3305641581,
				"y": -2.4702544303,
				"z": -0.1986685772,
				"element": "C" 
			},
			{
				"x": 2.6231552562,
				"y": -3.1425340448,
				"z": 0.9855479732,
				"element": "C" 
			},
			{
				"x": 2.5922869198,
				"y": -0.4943659972,
				"z": 3.1183088067,
				"element": "H" 
			},
			{
				"x": 2.0669551927,
				"y": 0.6927999775,
				"z": 0.9953958529,
				"element": "H" 
			},
			{
				"x": 2.8450124018,
				"y": -0.1617104061,
				"z": -2.000971187,
				"element": "H" 
			},
			{
				"x": 1.3418831001,
				"y": -1.0491771371,
				"z": -2.2062172801,
				"element": "H" 
			},
			{
				"x": 1.6111533866,
				"y": 1.6627532289,
				"z": -1.9189715341,
				"element": "H" 
			},
			{
				"x": -0.2442302718,
				"y": 3.0747089832,
				"z": -1.8929175641,
				"element": "H" 
			},
			{
				"x": -2.6975565636,
				"y": 3.2896743106,
				"z": -1.7349190974,
				"element": "H" 
			},
			{
				"x": -2.9888067157,
				"y": -0.8352035751,
				"z": -0.5725953086,
				"element": "H" 
			},
			{
				"x": -0.5438901094,
				"y": -1.0617081442,
				"z": -0.7110361359,
				"element": "H" 
			},
			{
				"x": 2.2556805697,
				"y": -3.030881824,
				"z": -1.1275336959,
				"element": "H" 
			},
			{
				"x": 2.7802753882,
				"y": -4.2158326652,
				"z": 0.9822410636,
				"element": "H" 
			}
		],
		 "valence_orbital": [ 
			{
				"type": "occ",
				"energy": -0.27731,
				"method": "rhf"
			},
			{
				"type": "occ",
				"energy": -0.26871,
				"method": "rhf"
			},
			{
				"type": "occ",
				"energy": -0.26443,
				"method": "rhf"
			},
			{
				"type": "occ",
				"energy": -0.2589,
				"method": "rhf"
			},
			{
				"type": "occ",
				"energy": -0.20619,
				"method": "rhf"
			},
			{
				"type": "unocc",
				"energy": -0.03103,
				"method": "rhf"
			},
			{
				"type": "unocc",
				"energy": -0.02094,
				"method": "rhf"
			},
			{
				"type": "unocc",
				"energy": -0.00983,
				"method": "rhf"
			},
			{
				"type": "unocc",
				"energy": 0.0033,
				"method": "rhf"
			},
			{
				"type": "unocc",
				"energy": 0.01387,
				"method": "rhf"
			}
		],
		"cosmo_sigma_profile": { 
			"-0.025": 0.0,
			"-0.024": 0.0,
			"-0.023": 0.0,
			"-0.022": 0.0,
			"-0.021": 0.0,
			"-0.02": 0.0,
			"-0.019": 0.0,
			"-0.018": 0.0,
			"-0.017": 0.0,
			"-0.016": 0.0,
			"-0.015": 0.0,
			"-0.014": 0.0460370826009,
			"-0.013": 1.36600135998,
			"-0.012": 1.33075829205,
			"-0.011": 1.99969709181,
			"-0.01": 1.49375556072,
			"-0.009": 1.62853714903,
			"-0.008": 1.87960138979,
			"-0.007": 6.586554803,
			"-0.006": 14.5272738933,
			"-0.005": 19.1879337716,
			"-0.004": 20.9105367542,
			"-0.003": 18.0090363631,
			"-0.002": 17.2556216974,
			"-0.001": 14.6964970208,
			"0.0": 18.2120110109,
			"0.001": 24.943024207,
			"0.002": 31.331536517,
			"0.003": 55.2186587565,
			"0.004": 31.5896431887,
			"0.005": 23.0322111048,
			"0.006": 3.09376589466,
			"0.007": 0.0,
			"0.008": 0.0,
			"0.009": 0.0,
			"0.01": 0.0,
			"0.011": 0.0,
			"0.012": 0.0,
			"0.013": 0.0,
			"0.014": 0.0,
			"0.015": 0.0,
			"0.016": 0.0,
			"0.017": 0.0,
			"0.018": 0.0,
			"0.019": 0.0,
			"0.02": 0.0,
			"0.021": 0.0,
			"0.022": 0.0,
			"0.023": 0.0,
			"0.024": 0.0,
			"0.025": 0.0
		}
	}
}
