{
	 "smiles": "CC1CSC2=C(C=C(Br)C=C2)C1=O", 
	 "Tm": 339.15, 
	 "num_atms": 22, 
	 "gaussian": { 
		 "optdone": 1, 
		 "sigma_profile": "yes", 
		 "theory": "DFT", 
		 "functional": "B3LYP", 
		 "basiset": "6-31G**", 
		 "properties": { 
			 "R2extent": 7269.9338, 
			 "electric_dipole_moment_norm": 3.03408850398, 
			 "electric_quadrupole_moment_norm": 10.4573386399, 
			 "total_energy": -3431.31232626, 
			 "HOMO_LUMO_gap": 0.15374, 
			 "cosmo_polarized_energy": -8.55, 
			 "cosmo_cavitation_energy": 28.77, 
			 "cosmo_dispersion_energy": -21.97, 
			 "cosmo_repulsion_energy": 1.68, 
			 "cosmo_total_nonelectrostatic_energy": 8.47, 
			 "SMD_solvation_energy": 3.63 
		},
		"coords": [
			{
				"x": 0.155695395,
				"y": 1.0485188088,
				"z": -1.2494325687,
				"element": "C" 
			},
			{
				"x": 1.4353761935,
				"y": 0.1896032928,
				"z": -1.2497297235,
				"element": "C" 
			},
			{
				"x": 2.6386696144,
				"y": 0.8728064192,
				"z": -0.5946954914,
				"element": "C" 
			},
			{
				"x": 2.4085318368,
				"y": 1.1947759131,
				"z": 1.1942536824,
				"element": "S" 
			},
			{
				"x": 1.8684441785,
				"y": -0.4123181879,
				"z": 1.7129012983,
				"element": "C" 
			},
			{
				"x": 1.3422043773,
				"y": -1.3868442931,
				"z": 0.8361879201,
				"element": "C" 
			},
			{
				"x": 0.9465688967,
				"y": -2.6350615941,
				"z": 1.3518409618,
				"element": "C" 
			},
			{
				"x": 1.0500778244,
				"y": -2.9003805437,
				"z": 2.7057683585,
				"element": "C" 
			},
			{
				"x": 0.5033395874,
				"y": -4.5967239967,
				"z": 3.3926084073,
				"element": "Br" 
			},
			{
				"x": 1.5520658538,
				"y": -1.9337477956,
				"z": 3.5837066124,
				"element": "C" 
			},
			{
				"x": 1.9610752545,
				"y": -0.7041236961,
				"z": 3.0843174862,
				"element": "C" 
			},
			{
				"x": 1.134399874,
				"y": -1.1770054244,
				"z": -0.6318031962,
				"element": "C" 
			},
			{
				"x": 0.6786518721,
				"y": -2.0685446089,
				"z": -1.3326895316,
				"element": "O" 
			},
			{
				"x": -0.1784871368,
				"y": 1.2756111415,
				"z": -0.2331532691,
				"element": "H" 
			},
			{
				"x": 0.335823192,
				"y": 1.9972833767,
				"z": -1.7654375299,
				"element": "H" 
			},
			{
				"x": -0.6469464596,
				"y": 0.5198373125,
				"z": -1.769867666,
				"element": "H" 
			},
			{
				"x": 1.7015053263,
				"y": -0.0235846522,
				"z": -2.2917922971,
				"element": "H" 
			},
			{
				"x": 2.8233606578,
				"y": 1.8525483042,
				"z": -1.0445725007,
				"element": "H" 
			},
			{
				"x": 3.5431160385,
				"y": 0.2686064377,
				"z": -0.7190295986,
				"element": "H" 
			},
			{
				"x": 0.5511490289,
				"y": -3.3660406344,
				"z": 0.6565736742,
				"element": "H" 
			},
			{
				"x": 1.6327719265,
				"y": -2.1479508782,
				"z": 4.6435153785,
				"element": "H" 
			},
			{
				"x": 2.372606668,
				"y": 0.0374352987,
				"z": 3.7625295932,
				"element": "H" 
			}
		],
		 "valence_orbital": [ 
			{
				"type": "occ",
				"energy": -0.29105,
				"method": "rhf"
			},
			{
				"type": "occ",
				"energy": -0.27731,
				"method": "rhf"
			},
			{
				"type": "occ",
				"energy": -0.27386,
				"method": "rhf"
			},
			{
				"type": "occ",
				"energy": -0.25561,
				"method": "rhf"
			},
			{
				"type": "occ",
				"energy": -0.22438,
				"method": "rhf"
			},
			{
				"type": "unocc",
				"energy": -0.07064,
				"method": "rhf"
			},
			{
				"type": "unocc",
				"energy": -0.02502,
				"method": "rhf"
			},
			{
				"type": "unocc",
				"energy": 0.00202,
				"method": "rhf"
			},
			{
				"type": "unocc",
				"energy": 0.01756,
				"method": "rhf"
			},
			{
				"type": "unocc",
				"energy": 0.02965,
				"method": "rhf"
			}
		],
		"cosmo_sigma_profile": { 
			"-0.025": 0.0,
			"-0.024": 0.0,
			"-0.023": 0.0,
			"-0.022": 0.0,
			"-0.021": 0.0,
			"-0.02": 0.0,
			"-0.019": 0.0,
			"-0.018": 0.0,
			"-0.017": 0.0,
			"-0.016": 0.0,
			"-0.015": 0.0,
			"-0.014": 0.0,
			"-0.013": 0.0,
			"-0.012": 0.0,
			"-0.011": 0.0,
			"-0.01": 0.0,
			"-0.009": 0.0389875054524,
			"-0.008": 2.68711626608,
			"-0.007": 8.73848841106,
			"-0.006": 11.6368170727,
			"-0.005": 15.1766370175,
			"-0.004": 16.8484421602,
			"-0.003": 17.7079627876,
			"-0.002": 17.4247163578,
			"-0.001": 16.8878242625,
			"0.0": 20.700650881,
			"0.001": 23.779416783,
			"0.002": 24.6437484144,
			"0.003": 13.9890190131,
			"0.004": 16.1201914873,
			"0.005": 8.55765692831,
			"0.006": 3.51186860915,
			"0.007": 2.89403935758,
			"0.008": 2.29012616166,
			"0.009": 1.68376538014,
			"0.01": 2.05210383389,
			"0.011": 3.35356820959,
			"0.012": 2.73753892552,
			"0.013": 0.853513901407,
			"0.014": 0.0,
			"0.015": 0.0,
			"0.016": 0.0,
			"0.017": 0.0,
			"0.018": 0.0,
			"0.019": 0.0,
			"0.02": 0.0,
			"0.021": 0.0,
			"0.022": 0.0,
			"0.023": 0.0,
			"0.024": 0.0,
			"0.025": 0.0
		}
	}
}
