{
	 "smiles": "OC(=O)C1=C(F)C(=CC=C1F)[N+]([O-])=O", 
	 "Tm": 367.15, 
	 "num_atms": 17, 
	 "gaussian": { 
		 "optdone": 1, 
		 "sigma_profile": "yes", 
		 "theory": "DFT", 
		 "functional": "B3LYP", 
		 "basiset": "6-31G**", 
		 "properties": { 
			 "R2extent": 4197.9304, 
			 "electric_dipole_moment_norm": 6.12585043076, 
			 "electric_quadrupole_moment_norm": 16.8525113443, 
			 "total_energy": -823.752747178, 
			 "HOMO_LUMO_gap": 0.1836, 
			 "cosmo_polarized_energy": -17.56, 
			 "cosmo_cavitation_energy": 23.94, 
			 "cosmo_dispersion_energy": -17.68, 
			 "cosmo_repulsion_energy": 1.34, 
			 "cosmo_total_nonelectrostatic_energy": 7.6, 
			 "SMD_solvation_energy": 8.39 
		},
		"coords": [
			{
				"x": -0.222228011,
				"y": -2.4318500571,
				"z": 3.9809322821,
				"element": "O" 
			},
			{
				"x": 0.7483365266,
				"y": -2.0871079999,
				"z": 3.1093967045,
				"element": "C" 
			},
			{
				"x": 1.7347136666,
				"y": -2.7666676211,
				"z": 2.9870043745,
				"element": "O" 
			},
			{
				"x": 0.5379628652,
				"y": -0.81188587,
				"z": 2.316704046,
				"element": "C" 
			},
			{
				"x": 1.6484455679,
				"y": -0.1409061298,
				"z": 1.7634229366,
				"element": "C" 
			},
			{
				"x": 2.8606702346,
				"y": -0.6040898885,
				"z": 2.00188545,
				"element": "F" 
			},
			{
				"x": 1.4713038003,
				"y": 1.0009572767,
				"z": 0.9671820064,
				"element": "C" 
			},
			{
				"x": 0.1909198665,
				"y": 1.482773565,
				"z": 0.6939816008,
				"element": "C" 
			},
			{
				"x": -0.9206054298,
				"y": 0.8557967746,
				"z": 1.236299046,
				"element": "C" 
			},
			{
				"x": -0.717913321,
				"y": -0.262066115,
				"z": 2.0333833268,
				"element": "C" 
			},
			{
				"x": -1.8207195061,
				"y": -0.8461666125,
				"z": 2.5654182384,
				"element": "F" 
			},
			{
				"x": 2.6104101903,
				"y": 1.7363596583,
				"z": 0.3930750652,
				"element": "N" 
			},
			{
				"x": 3.7185780347,
				"y": 1.5649319155,
				"z": 0.8865019792,
				"element": "O" 
			},
			{
				"x": 2.3571766393,
				"y": 2.4949231513,
				"z": -0.5432383886,
				"element": "O" 
			},
			{
				"x": -0.9891923265,
				"y": -1.8449765312,
				"z": 3.9119244366,
				"element": "H" 
			},
			{
				"x": 0.0975154794,
				"y": 2.3537892132,
				"z": 0.0576940649,
				"element": "H" 
			},
			{
				"x": -1.9276742771,
				"y": 1.2121852706,
				"z": 1.0567328305,
				"element": "H" 
			}
		],
		 "valence_orbital": [ 
			{
				"type": "occ",
				"energy": -0.32519,
				"method": "rhf"
			},
			{
				"type": "occ",
				"energy": -0.31634,
				"method": "rhf"
			},
			{
				"type": "occ",
				"energy": -0.30562,
				"method": "rhf"
			},
			{
				"type": "occ",
				"energy": -0.29897,
				"method": "rhf"
			},
			{
				"type": "occ",
				"energy": -0.29192,
				"method": "rhf"
			},
			{
				"type": "unocc",
				"energy": -0.10832,
				"method": "rhf"
			},
			{
				"type": "unocc",
				"energy": -0.07979,
				"method": "rhf"
			},
			{
				"type": "unocc",
				"energy": -0.03292,
				"method": "rhf"
			},
			{
				"type": "unocc",
				"energy": 0.01927,
				"method": "rhf"
			},
			{
				"type": "unocc",
				"energy": 0.03078,
				"method": "rhf"
			}
		],
		"cosmo_sigma_profile": { 
			"-0.025": 0.0,
			"-0.024": 0.0,
			"-0.023": 0.0,
			"-0.022": 0.0,
			"-0.021": 0.0,
			"-0.02": 0.0,
			"-0.019": 0.0,
			"-0.018": 0.0,
			"-0.017": 0.0,
			"-0.016": 0.444803146255,
			"-0.015": 1.25748595001,
			"-0.014": 0.394802763752,
			"-0.013": 1.26884046047,
			"-0.012": 1.38232594624,
			"-0.011": 0.669706554166,
			"-0.01": 3.06511174361,
			"-0.009": 5.64244946392,
			"-0.008": 7.05393511853,
			"-0.007": 7.9030093193,
			"-0.006": 8.73948983072,
			"-0.005": 15.4252634306,
			"-0.004": 16.0624646117,
			"-0.003": 11.4699626101,
			"-0.002": 10.8126235779,
			"-0.001": 9.8104160957,
			"0.0": 6.34443797757,
			"0.001": 8.00714425998,
			"0.002": 7.99642985773,
			"0.003": 6.09035740331,
			"0.004": 5.84961140403,
			"0.005": 7.33384616137,
			"0.006": 8.07214234719,
			"0.007": 13.3463372281,
			"0.008": 8.88148986266,
			"0.009": 8.03558218677,
			"0.01": 6.1453037109,
			"0.011": 5.0283016284,
			"0.012": 1.57986962508,
			"0.013": 0.00801117291372,
			"0.014": 0.0,
			"0.015": 0.0,
			"0.016": 0.0,
			"0.017": 0.0,
			"0.018": 0.0,
			"0.019": 0.0,
			"0.02": 0.0,
			"0.021": 0.0,
			"0.022": 0.0,
			"0.023": 0.0,
			"0.024": 0.0,
			"0.025": 0.0
		}
	}
}
