{
	 "smiles": "NC1=C2CN(CCO)CC2=CC=C1", 
	 "Tm": 383.15, 
	 "num_atms": 27, 
	 "gaussian": { 
		 "optdone": 1, 
		 "sigma_profile": "yes", 
		 "theory": "DFT", 
		 "functional": "B3LYP", 
		 "basiset": "6-31G**", 
		 "properties": { 
			 "R2extent": 3221.0169, 
			 "electric_dipole_moment_norm": 3.15704780452, 
			 "electric_quadrupole_moment_norm": 9.68728733599, 
			 "total_energy": -574.208544359, 
			 "HOMO_LUMO_gap": 0.21043, 
			 "cosmo_polarized_energy": -14.12, 
			 "cosmo_cavitation_energy": 29.16, 
			 "cosmo_dispersion_energy": -21.53, 
			 "cosmo_repulsion_energy": 1.72, 
			 "cosmo_total_nonelectrostatic_energy": 9.35, 
			 "SMD_solvation_energy": 1.85 
		},
		"coords": [
			{
				"x": -0.2205543355,
				"y": -2.9043247111,
				"z": 1.679376725,
				"element": "N" 
			},
			{
				"x": -0.7544519479,
				"y": -2.3046367742,
				"z": 0.5345927491,
				"element": "C" 
			},
			{
				"x": -0.3611952421,
				"y": -1.0183363482,
				"z": 0.1409602671,
				"element": "C" 
			},
			{
				"x": 0.667670178,
				"y": -0.1090094595,
				"z": 0.7594038185,
				"element": "C" 
			},
			{
				"x": 0.4007822025,
				"y": 1.1873534545,
				"z": 0.1155655116,
				"element": "N" 
			},
			{
				"x": 1.535905521,
				"y": 2.0882765513,
				"z": 0.0731617043,
				"element": "C" 
			},
			{
				"x": 1.133344818,
				"y": 3.5361910538,
				"z": -0.2240172628,
				"element": "C" 
			},
			{
				"x": 2.2513301954,
				"y": 4.4125592415,
				"z": -0.1775121036,
				"element": "O" 
			},
			{
				"x": -0.2790162508,
				"y": 0.9464965353,
				"z": -1.1677425379,
				"element": "C" 
			},
			{
				"x": -0.9249845915,
				"y": -0.4033529504,
				"z": -0.9748877402,
				"element": "C" 
			},
			{
				"x": -1.9073318847,
				"y": -1.0336524583,
				"z": -1.7348442643,
				"element": "C" 
			},
			{
				"x": -2.3137033796,
				"y": -2.3122405374,
				"z": -1.3402551905,
				"element": "C" 
			},
			{
				"x": -1.7496942008,
				"y": -2.9410565636,
				"z": -0.2297002774,
				"element": "C" 
			},
			{
				"x": 0.7254072854,
				"y": -2.6313302969,
				"z": 1.9080114573,
				"element": "H" 
			},
			{
				"x": -0.3376460734,
				"y": -3.9074923336,
				"z": 1.7250859374,
				"element": "H" 
			},
			{
				"x": 0.5735401229,
				"y": -0.0229024377,
				"z": 1.8513111403,
				"element": "H" 
			},
			{
				"x": 1.6952771919,
				"y": -0.4781238274,
				"z": 0.5537600674,
				"element": "H" 
			},
			{
				"x": 2.0310295662,
				"y": 2.076338168,
				"z": 1.0504109115,
				"element": "H" 
			},
			{
				"x": 2.2964160462,
				"y": 1.7662067344,
				"z": -0.6735246111,
				"element": "H" 
			},
			{
				"x": 0.6135692349,
				"y": 3.6036718481,
				"z": -1.1925935495,
				"element": "H" 
			},
			{
				"x": 0.4356386494,
				"y": 3.8814045674,
				"z": 0.5443426225,
				"element": "H" 
			},
			{
				"x": 2.8502940178,
				"y": 4.1626701642,
				"z": -0.8930181481,
				"element": "H" 
			},
			{
				"x": 0.4318689314,
				"y": 0.9169237573,
				"z": -2.0198840979,
				"element": "H" 
			},
			{
				"x": -1.0059772152,
				"y": 1.7384778381,
				"z": -1.3874013441,
				"element": "H" 
			},
			{
				"x": -2.3497643575,
				"y": -0.5517239066,
				"z": -2.6015305975,
				"element": "H" 
			},
			{
				"x": -3.0816595488,
				"y": -2.8327035468,
				"z": -1.9059741287,
				"element": "H" 
			},
			{
				"x": -2.0838949331,
				"y": -3.9355837622,
				"z": 0.0567029417,
				"element": "H" 
			}
		],
		 "valence_orbital": [ 
			{
				"type": "occ",
				"energy": -0.30229,
				"method": "rhf"
			},
			{
				"type": "occ",
				"energy": -0.26564,
				"method": "rhf"
			},
			{
				"type": "occ",
				"energy": -0.23559,
				"method": "rhf"
			},
			{
				"type": "occ",
				"energy": -0.20595,
				"method": "rhf"
			},
			{
				"type": "occ",
				"energy": -0.20117,
				"method": "rhf"
			},
			{
				"type": "unocc",
				"energy": 0.00926,
				"method": "rhf"
			},
			{
				"type": "unocc",
				"energy": 0.01681,
				"method": "rhf"
			},
			{
				"type": "unocc",
				"energy": 0.07332,
				"method": "rhf"
			},
			{
				"type": "unocc",
				"energy": 0.07748,
				"method": "rhf"
			},
			{
				"type": "unocc",
				"energy": 0.09381,
				"method": "rhf"
			}
		],
		"cosmo_sigma_profile": { 
			"-0.025": 0.0,
			"-0.024": 0.0,
			"-0.023": 0.0,
			"-0.022": 0.0,
			"-0.021": 0.0,
			"-0.02": 0.0,
			"-0.019": 0.0,
			"-0.018": 0.0,
			"-0.017": 0.0,
			"-0.016": 0.0339969476899,
			"-0.015": 0.656223481016,
			"-0.014": 1.37423864419,
			"-0.013": 0.750919003949,
			"-0.012": 2.74417136349,
			"-0.011": 2.95175099685,
			"-0.01": 3.79651726302,
			"-0.009": 4.50162409556,
			"-0.008": 4.40135462136,
			"-0.007": 3.4788277726,
			"-0.006": 3.85104762645,
			"-0.005": 8.0521611576,
			"-0.004": 16.2814751561,
			"-0.003": 23.5406944005,
			"-0.002": 29.4112497075,
			"-0.001": 22.1422647618,
			"0.0": 12.1059585739,
			"0.001": 9.72727485088,
			"0.002": 8.24893651006,
			"0.003": 8.12605982191,
			"0.004": 8.73263611334,
			"0.005": 9.38280401154,
			"0.006": 10.5187566212,
			"0.007": 9.80248975703,
			"0.008": 5.55491454899,
			"0.009": 2.45086025284,
			"0.01": 2.34758449419,
			"0.011": 2.37542834984,
			"0.012": 2.17959134784,
			"0.013": 3.10806851673,
			"0.014": 3.50105978779,
			"0.015": 1.60359842821,
			"0.016": 0.0,
			"0.017": 0.0,
			"0.018": 0.0,
			"0.019": 0.0,
			"0.02": 0.0,
			"0.021": 0.0,
			"0.022": 0.0,
			"0.023": 0.0,
			"0.024": 0.0,
			"0.025": 0.0
		}
	}
}
