{
	 "smiles": "CC1=CC=C(C=C1)S(=O)(=O)OCC1CCC(=O)N1", 
	 "Tm": 399.15, 
	 "num_atms": 33, 
	 "gaussian": { 
		 "optdone": 1, 
		 "sigma_profile": "yes", 
		 "theory": "DFT", 
		 "functional": "B3LYP", 
		 "basiset": "6-31G**", 
		 "properties": { 
			 "R2extent": 5189.5818, 
			 "electric_dipole_moment_norm": 5.38686538258, 
			 "electric_quadrupole_moment_norm": 23.186077502, 
			 "total_energy": -1220.10691529, 
			 "HOMO_LUMO_gap": 0.20303, 
			 "cosmo_polarized_energy": -20.63, 
			 "cosmo_cavitation_energy": 36.87, 
			 "cosmo_dispersion_energy": -25.87, 
			 "cosmo_repulsion_energy": 1.96, 
			 "cosmo_total_nonelectrostatic_energy": 12.96, 
			 "SMD_solvation_energy": 4.76 
		},
		"coords": [
			{
				"x": -0.5207653142,
				"y": -3.9834778212,
				"z": -1.2583698477,
				"element": "C" 
			},
			{
				"x": -0.7684041448,
				"y": -2.5506513137,
				"z": -0.8539023904,
				"element": "C" 
			},
			{
				"x": -1.4281282026,
				"y": -1.6619414426,
				"z": -1.7127207094,
				"element": "C" 
			},
			{
				"x": -1.6757236169,
				"y": -0.3419860213,
				"z": -1.3343954018,
				"element": "C" 
			},
			{
				"x": -1.2614807729,
				"y": 0.0886845973,
				"z": -0.0737418932,
				"element": "C" 
			},
			{
				"x": -0.6036494256,
				"y": -0.7761024599,
				"z": 0.8082180253,
				"element": "C" 
			},
			{
				"x": -0.3546656699,
				"y": -2.0841641893,
				"z": 0.4052561911,
				"element": "C" 
			},
			{
				"x": -1.6080740417,
				"y": 1.7686178498,
				"z": 0.4257245906,
				"element": "S" 
			},
			{
				"x": -2.3222778375,
				"y": 1.7827596899,
				"z": 1.6926700928,
				"element": "O" 
			},
			{
				"x": -2.0853863704,
				"y": 2.5105259067,
				"z": -0.7401692243,
				"element": "O" 
			},
			{
				"x": -0.1066605137,
				"y": 2.3204697248,
				"z": 0.8259179805,
				"element": "O" 
			},
			{
				"x": 0.8113475987,
				"y": 2.6331806685,
				"z": -0.2434411716,
				"element": "C" 
			},
			{
				"x": 2.2346785954,
				"y": 2.4351304175,
				"z": 0.2885736864,
				"element": "C" 
			},
			{
				"x": 2.5355089117,
				"y": 3.2061829577,
				"z": 1.6052979763,
				"element": "C" 
			},
			{
				"x": 2.3134737571,
				"y": 2.17513629,
				"z": 2.7266645175,
				"element": "C" 
			},
			{
				"x": 2.3788919866,
				"y": 0.8160366613,
				"z": 2.0299546249,
				"element": "C" 
			},
			{
				"x": 2.3254089999,
				"y": -0.2877736379,
				"z": 2.546409957,
				"element": "O" 
			},
			{
				"x": 2.4912118244,
				"y": 1.0569341626,
				"z": 0.6790880585,
				"element": "N" 
			},
			{
				"x": -0.6065328345,
				"y": -4.1167784436,
				"z": -2.3401048637,
				"element": "H" 
			},
			{
				"x": -1.2488855148,
				"y": -4.6528208492,
				"z": -0.7842565473,
				"element": "H" 
			},
			{
				"x": 0.4738159319,
				"y": -4.3192387094,
				"z": -0.9488371577,
				"element": "H" 
			},
			{
				"x": -1.7505668481,
				"y": -2.0035486752,
				"z": -2.6925532886,
				"element": "H" 
			},
			{
				"x": -2.1800507607,
				"y": 0.3491372667,
				"z": -2.0006156524,
				"element": "H" 
			},
			{
				"x": -0.2695487114,
				"y": -0.4371113105,
				"z": 1.7823107979,
				"element": "H" 
			},
			{
				"x": 0.1745849175,
				"y": -2.7498278355,
				"z": 1.0811933864,
				"element": "H" 
			},
			{
				"x": 0.633748295,
				"y": 1.9759158384,
				"z": -1.102751958,
				"element": "H" 
			},
			{
				"x": 0.6509169832,
				"y": 3.668187609,
				"z": -0.5627388246,
				"element": "H" 
			},
			{
				"x": 2.9160300366,
				"y": 2.746153781,
				"z": -0.5139186202,
				"element": "H" 
			},
			{
				"x": 1.9031315659,
				"y": 4.0910756297,
				"z": 1.7055574159,
				"element": "H" 
			},
			{
				"x": 3.5772310774,
				"y": 3.5386224908,
				"z": 1.5912723555,
				"element": "H" 
			},
			{
				"x": 3.0563238493,
				"y": 2.2237085773,
				"z": 3.5265819777,
				"element": "H" 
			},
			{
				"x": 1.32422577,
				"y": 2.265511661,
				"z": 3.184381977,
				"element": "H" 
			},
			{
				"x": 2.3685704791,
				"y": 0.282150929,
				"z": 0.0406439397,
				"element": "H" 
			}
		],
		 "valence_orbital": [ 
			{
				"type": "occ",
				"energy": -0.30741,
				"method": "rhf"
			},
			{
				"type": "occ",
				"energy": -0.27386,
				"method": "rhf"
			},
			{
				"type": "occ",
				"energy": -0.26684,
				"method": "rhf"
			},
			{
				"type": "occ",
				"energy": -0.26179,
				"method": "rhf"
			},
			{
				"type": "occ",
				"energy": -0.24616,
				"method": "rhf"
			},
			{
				"type": "unocc",
				"energy": -0.04313,
				"method": "rhf"
			},
			{
				"type": "unocc",
				"energy": -0.02425,
				"method": "rhf"
			},
			{
				"type": "unocc",
				"energy": 0.02481,
				"method": "rhf"
			},
			{
				"type": "unocc",
				"energy": 0.03761,
				"method": "rhf"
			},
			{
				"type": "unocc",
				"energy": 0.07043,
				"method": "rhf"
			}
		],
		"cosmo_sigma_profile": { 
			"-0.025": 0.0,
			"-0.024": 0.0,
			"-0.023": 0.0,
			"-0.022": 0.0,
			"-0.021": 0.0,
			"-0.02": 0.0,
			"-0.019": 0.0,
			"-0.018": 0.0,
			"-0.017": 0.0,
			"-0.016": 0.0,
			"-0.015": 0.0,
			"-0.014": 0.036053942065,
			"-0.013": 0.711826312724,
			"-0.012": 1.03796500671,
			"-0.011": 1.34262065867,
			"-0.01": 1.79066272757,
			"-0.009": 1.3128535114,
			"-0.008": 1.58724823657,
			"-0.007": 9.70756961288,
			"-0.006": 17.9811255656,
			"-0.005": 27.4635229276,
			"-0.004": 27.5350733967,
			"-0.003": 25.0342591464,
			"-0.002": 24.0490188672,
			"-0.001": 25.5299736804,
			"0.0": 18.6447268429,
			"0.001": 14.6483394943,
			"0.002": 15.1199349072,
			"0.003": 12.240944766,
			"0.004": 6.41537035295,
			"0.005": 5.61129778822,
			"0.006": 6.70131366128,
			"0.007": 4.80167961998,
			"0.008": 5.56154139816,
			"0.009": 7.77639263953,
			"0.01": 12.549602404,
			"0.011": 5.89881561817,
			"0.012": 1.31913473415,
			"0.013": 3.61851015417,
			"0.014": 3.73206923384,
			"0.015": 1.40318327561,
			"0.016": 0.0233729581247,
			"0.017": 0.0,
			"0.018": 0.0,
			"0.019": 0.0,
			"0.02": 0.0,
			"0.021": 0.0,
			"0.022": 0.0,
			"0.023": 0.0,
			"0.024": 0.0,
			"0.025": 0.0
		}
	}
}
