{
	 "smiles": "CSC1=NC(=O)N(C)C2=C1CCC2", 
	 "Tm": 419.15, 
	 "num_atms": 25, 
	 "gaussian": { 
		 "optdone": 1, 
		 "sigma_profile": "yes", 
		 "theory": "DFT", 
		 "functional": "B3LYP", 
		 "basiset": "6-31G**", 
		 "properties": { 
			 "R2extent": 3276.3222, 
			 "electric_dipole_moment_norm": 4.88274097204, 
			 "electric_quadrupole_moment_norm": 18.441822562, 
			 "total_energy": -933.12488504, 
			 "HOMO_LUMO_gap": 0.17512, 
			 "cosmo_polarized_energy": -15.49, 
			 "cosmo_cavitation_energy": 28.78, 
			 "cosmo_dispersion_energy": -21.81, 
			 "cosmo_repulsion_energy": 1.69, 
			 "cosmo_total_nonelectrostatic_energy": 8.65, 
			 "SMD_solvation_energy": 4.29 
		},
		"coords": [
			{
				"x": 2.9611661576,
				"y": 3.455365994,
				"z": 0.2401092829,
				"element": "C" 
			},
			{
				"x": 1.5811829473,
				"y": 2.7096894601,
				"z": -0.6905196649,
				"element": "S" 
			},
			{
				"x": 1.1858061648,
				"y": 1.3230244894,
				"z": 0.3429667207,
				"element": "C" 
			},
			{
				"x": 1.8740298162,
				"y": 1.1281092511,
				"z": 1.4428090044,
				"element": "N" 
			},
			{
				"x": 1.5966069743,
				"y": 0.0687863668,
				"z": 2.2823510447,
				"element": "C" 
			},
			{
				"x": 2.2180228415,
				"y": -0.1694305487,
				"z": 3.3070678845,
				"element": "O" 
			},
			{
				"x": 0.5010587347,
				"y": -0.790443042,
				"z": 1.9089580678,
				"element": "N" 
			},
			{
				"x": 0.1777785067,
				"y": -1.9114477949,
				"z": 2.7914628634,
				"element": "C" 
			},
			{
				"x": -0.1768520209,
				"y": -0.572545776,
				"z": 0.754208099,
				"element": "C" 
			},
			{
				"x": 0.1255087042,
				"y": 0.4727186025,
				"z": -0.0766295316,
				"element": "C" 
			},
			{
				"x": -0.805848128,
				"y": 0.5225093805,
				"z": -1.2631435142,
				"element": "C" 
			},
			{
				"x": -1.4928320774,
				"y": -0.8720320001,
				"z": -1.21454529,
				"element": "C" 
			},
			{
				"x": -1.3457117183,
				"y": -1.3779236991,
				"z": 0.24580974,
				"element": "C" 
			},
			{
				"x": 3.2709617675,
				"y": 4.3306172953,
				"z": -0.3344128181,
				"element": "H" 
			},
			{
				"x": 2.6300392912,
				"y": 3.7492024537,
				"z": 1.2359167305,
				"element": "H" 
			},
			{
				"x": 3.783453259,
				"y": 2.7457860393,
				"z": 0.3294093888,
				"element": "H" 
			},
			{
				"x": 0.722706162,
				"y": -1.7519359053,
				"z": 3.7199792712,
				"element": "H" 
			},
			{
				"x": -0.8974089352,
				"y": -1.9460945605,
				"z": 2.9849905057,
				"element": "H" 
			},
			{
				"x": 0.4954293472,
				"y": -2.8622921752,
				"z": 2.3502629889,
				"element": "H" 
			},
			{
				"x": -1.5367921652,
				"y": 1.3363462348,
				"z": -1.1584497066,
				"element": "H" 
			},
			{
				"x": -0.286343472,
				"y": 0.6894280575,
				"z": -2.2129694973,
				"element": "H" 
			},
			{
				"x": -0.964768412,
				"y": -1.5586542124,
				"z": -1.8835279522,
				"element": "H" 
			},
			{
				"x": -2.5359804282,
				"y": -0.8392715574,
				"z": -1.5383305343,
				"element": "H" 
			},
			{
				"x": -2.2383919527,
				"y": -1.159940919,
				"z": 0.8490900247,
				"element": "H" 
			},
			{
				"x": -1.181321364,
				"y": -2.4587714346,
				"z": 0.3069368919,
				"element": "H" 
			}
		],
		 "valence_orbital": [ 
			{
				"type": "occ",
				"energy": -0.3169,
				"method": "rhf"
			},
			{
				"type": "occ",
				"energy": -0.26171,
				"method": "rhf"
			},
			{
				"type": "occ",
				"energy": -0.25022,
				"method": "rhf"
			},
			{
				"type": "occ",
				"energy": -0.23753,
				"method": "rhf"
			},
			{
				"type": "occ",
				"energy": -0.2165,
				"method": "rhf"
			},
			{
				"type": "unocc",
				"energy": -0.04138,
				"method": "rhf"
			},
			{
				"type": "unocc",
				"energy": 0.01821,
				"method": "rhf"
			},
			{
				"type": "unocc",
				"energy": 0.03326,
				"method": "rhf"
			},
			{
				"type": "unocc",
				"energy": 0.07239,
				"method": "rhf"
			},
			{
				"type": "unocc",
				"energy": 0.08551,
				"method": "rhf"
			}
		],
		"cosmo_sigma_profile": { 
			"-0.025": 0.0,
			"-0.024": 0.0,
			"-0.023": 0.0,
			"-0.022": 0.0,
			"-0.021": 0.0,
			"-0.02": 0.0,
			"-0.019": 0.0,
			"-0.018": 0.0,
			"-0.017": 0.0,
			"-0.016": 0.0,
			"-0.015": 0.0,
			"-0.014": 0.0,
			"-0.013": 0.0,
			"-0.012": 0.0,
			"-0.011": 0.0,
			"-0.01": 0.0,
			"-0.009": 0.0,
			"-0.008": 0.0219451694293,
			"-0.007": 3.45743895835,
			"-0.006": 13.7211896579,
			"-0.005": 15.323402397,
			"-0.004": 25.0835839316,
			"-0.003": 31.6921109154,
			"-0.002": 30.8227657925,
			"-0.001": 24.1069169538,
			"0.0": 14.3271658096,
			"0.001": 9.63289850088,
			"0.002": 8.35565201749,
			"0.003": 6.81925228061,
			"0.004": 6.23749624087,
			"0.005": 5.0900053554,
			"0.006": 5.55099028255,
			"0.007": 4.08881310635,
			"0.008": 2.76462819146,
			"0.009": 2.14473447419,
			"0.01": 1.68754662389,
			"0.011": 1.91820445295,
			"0.012": 2.26736058684,
			"0.013": 4.06420028436,
			"0.014": 4.8484472444,
			"0.015": 2.61227992624,
			"0.016": 2.1031872639,
			"0.017": 0.330135235993,
			"0.018": 0.0,
			"0.019": 0.0,
			"0.02": 0.0,
			"0.021": 0.0,
			"0.022": 0.0,
			"0.023": 0.0,
			"0.024": 0.0,
			"0.025": 0.0
		}
	}
}
