{
	 "smiles": "NC(=O)C(=N/NC1=C(Cl)C=CC=C1Cl)C1=NC2=C(S1)C=CC=C2", 
	 "Tm": 448.15, 
	 "num_atms": 33, 
	 "gaussian": { 
		 "optdone": 1, 
		 "sigma_profile": "yes", 
		 "theory": "DFT", 
		 "functional": "B3LYP", 
		 "basiset": "6-31G**", 
		 "properties": { 
			 "R2extent": 10965.1997, 
			 "electric_dipole_moment_norm": 1.31622161508, 
			 "electric_quadrupole_moment_norm": 26.2315036048, 
			 "total_energy": -2190.42543278, 
			 "HOMO_LUMO_gap": 0.13665, 
			 "cosmo_polarized_energy": -12.13, 
			 "cosmo_cavitation_energy": 43.18, 
			 "cosmo_dispersion_energy": -31.62, 
			 "cosmo_repulsion_energy": 2.34, 
			 "cosmo_total_nonelectrostatic_energy": 13.9, 
			 "SMD_solvation_energy": 5.58 
		},
		"coords": [
			{
				"x": -3.259973206,
				"y": -1.6452776501,
				"z": -1.2272480733,
				"element": "N" 
			},
			{
				"x": -2.5992126888,
				"y": -0.4732675702,
				"z": -1.292554062,
				"element": "C" 
			},
			{
				"x": -3.0543292759,
				"y": 0.5127209903,
				"z": -1.9013289458,
				"element": "O" 
			},
			{
				"x": -1.2702530663,
				"y": -0.3866604211,
				"z": -0.597928488,
				"element": "C" 
			},
			{
				"x": -0.5244682589,
				"y": 0.6929519798,
				"z": -0.6180681177,
				"element": "N" 
			},
			{
				"x": -0.9082245484,
				"y": 1.7740289721,
				"z": -1.2656381534,
				"element": "N" 
			},
			{
				"x": -0.127809182,
				"y": 2.9359763676,
				"z": -1.2606360794,
				"element": "C" 
			},
			{
				"x": 1.2772243597,
				"y": 2.95140454,
				"z": -1.3968152042,
				"element": "C" 
			},
			{
				"x": 2.188686525,
				"y": 1.4804359111,
				"z": -1.6585861986,
				"element": "Cl" 
			},
			{
				"x": 1.9882473644,
				"y": 4.1509015455,
				"z": -1.3887179158,
				"element": "C" 
			},
			{
				"x": 1.3170162553,
				"y": 5.3660975973,
				"z": -1.2811643927,
				"element": "C" 
			},
			{
				"x": -0.0724270553,
				"y": 5.387886905,
				"z": -1.1857670237,
				"element": "C" 
			},
			{
				"x": -0.7747675587,
				"y": 4.1874996976,
				"z": -1.1722960483,
				"element": "C" 
			},
			{
				"x": -2.5228150685,
				"y": 4.2420854002,
				"z": -1.0281477463,
				"element": "Cl" 
			},
			{
				"x": -0.7012641429,
				"y": -1.4916132449,
				"z": 0.1753159741,
				"element": "C" 
			},
			{
				"x": -1.2558510728,
				"y": -2.662496178,
				"z": 0.3384576416,
				"element": "N" 
			},
			{
				"x": -0.4794415445,
				"y": -3.496143803,
				"z": 1.1240683751,
				"element": "C" 
			},
			{
				"x": 0.7308000923,
				"y": -2.9226881657,
				"z": 1.5820314583,
				"element": "C" 
			},
			{
				"x": 0.8695525202,
				"y": -1.2799949666,
				"z": 0.9860630475,
				"element": "S" 
			},
			{
				"x": 1.6152049695,
				"y": -3.6469324928,
				"z": 2.3847164148,
				"element": "C" 
			},
			{
				"x": 1.2754568509,
				"y": -4.9542779741,
				"z": 2.7261383699,
				"element": "C" 
			},
			{
				"x": 0.0757356031,
				"y": -5.5321617569,
				"z": 2.2760323999,
				"element": "C" 
			},
			{
				"x": -0.8056929796,
				"y": -4.8138464264,
				"z": 1.4769695713,
				"element": "C" 
			},
			{
				"x": -2.8642053409,
				"y": -2.4197552209,
				"z": -0.6969154974,
				"element": "H" 
			},
			{
				"x": -4.1591140003,
				"y": -1.6952231109,
				"z": -1.6815458334,
				"element": "H" 
			},
			{
				"x": -1.8538201928,
				"y": 1.7460392096,
				"z": -1.6809962143,
				"element": "H" 
			},
			{
				"x": 3.0669250962,
				"y": 4.1190839365,
				"z": -1.4902873458,
				"element": "H" 
			},
			{
				"x": 1.8759523294,
				"y": 6.2960702578,
				"z": -1.2824813501,
				"element": "H" 
			},
			{
				"x": -0.6162767002,
				"y": 6.3222187598,
				"z": -1.1091134127,
				"element": "H" 
			},
			{
				"x": 2.5430089949,
				"y": -3.2056928,
				"z": 2.7346840925,
				"element": "H" 
			},
			{
				"x": 1.949348439,
				"y": -5.5340934771,
				"z": 3.3496579981,
				"element": "H" 
			},
			{
				"x": -0.1641997359,
				"y": -6.5531267258,
				"z": 2.5570128981,
				"element": "H" 
			},
			{
				"x": -1.7350137812,
				"y": -5.2480500855,
				"z": 1.1226878618,
				"element": "H" 
			}
		],
		 "valence_orbital": [ 
			{
				"type": "occ",
				"energy": -0.25887,
				"method": "rhf"
			},
			{
				"type": "occ",
				"energy": -0.25411,
				"method": "rhf"
			},
			{
				"type": "occ",
				"energy": -0.25047,
				"method": "rhf"
			},
			{
				"type": "occ",
				"energy": -0.23604,
				"method": "rhf"
			},
			{
				"type": "occ",
				"energy": -0.21238,
				"method": "rhf"
			},
			{
				"type": "unocc",
				"energy": -0.07573,
				"method": "rhf"
			},
			{
				"type": "unocc",
				"energy": -0.02773,
				"method": "rhf"
			},
			{
				"type": "unocc",
				"energy": -0.02196,
				"method": "rhf"
			},
			{
				"type": "unocc",
				"energy": -0.01109,
				"method": "rhf"
			},
			{
				"type": "unocc",
				"energy": -0.00577,
				"method": "rhf"
			}
		],
		"cosmo_sigma_profile": { 
			"-0.025": 0.0,
			"-0.024": 0.0,
			"-0.023": 0.0,
			"-0.022": 0.0,
			"-0.021": 0.0,
			"-0.02": 0.0,
			"-0.019": 0.0,
			"-0.018": 0.0,
			"-0.017": 0.0,
			"-0.016": 0.0,
			"-0.015": 0.184654972346,
			"-0.014": 1.10084913301,
			"-0.013": 1.0530560815,
			"-0.012": 0.836911852232,
			"-0.011": 1.25586955427,
			"-0.01": 0.691125142382,
			"-0.009": 2.08461860688,
			"-0.008": 5.63401928818,
			"-0.007": 12.0221254869,
			"-0.006": 16.0624343205,
			"-0.005": 15.8320182122,
			"-0.004": 15.8778977871,
			"-0.003": 17.5027914088,
			"-0.002": 21.9878170984,
			"-0.001": 26.0676902907,
			"0.0": 35.9319525651,
			"0.001": 40.3628473022,
			"0.002": 39.6543515242,
			"0.003": 40.1577654497,
			"0.004": 35.0878881587,
			"0.005": 11.4986802692,
			"0.006": 2.61439347142,
			"0.007": 1.91354516212,
			"0.008": 1.44962347274,
			"0.009": 1.2311531763,
			"0.01": 1.32638062731,
			"0.011": 1.55391570912,
			"0.012": 1.79253349715,
			"0.013": 1.93424730707,
			"0.014": 0.391848343375,
			"0.015": 0.0,
			"0.016": 0.0,
			"0.017": 0.0,
			"0.018": 0.0,
			"0.019": 0.0,
			"0.02": 0.0,
			"0.021": 0.0,
			"0.022": 0.0,
			"0.023": 0.0,
			"0.024": 0.0,
			"0.025": 0.0
		}
	}
}
