{
	 "smiles": "CC1CCC2(CC1)NC(=O)NC2=O", 
	 "Tm": 504.15, 
	 "num_atms": 27, 
	 "gaussian": { 
		 "optdone": 1, 
		 "sigma_profile": "yes", 
		 "theory": "DFT", 
		 "functional": "B3LYP", 
		 "basiset": "6-31G**", 
		 "properties": { 
			 "R2extent": 3317.0579, 
			 "electric_dipole_moment_norm": 3.12949468605, 
			 "electric_quadrupole_moment_norm": 12.0027997238, 
			 "total_energy": -611.411262904, 
			 "HOMO_LUMO_gap": 0.25284, 
			 "cosmo_polarized_energy": -15.02, 
			 "cosmo_cavitation_energy": 28.48, 
			 "cosmo_dispersion_energy": -20.58, 
			 "cosmo_repulsion_energy": 1.64, 
			 "cosmo_total_nonelectrostatic_energy": 9.54, 
			 "SMD_solvation_energy": 5.48 
		},
		"coords": [
			{
				"x": 0.9268418587,
				"y": -1.2937272667,
				"z": 2.316762114,
				"element": "C" 
			},
			{
				"x": 0.9610914491,
				"y": -0.2608531079,
				"z": 1.1854769,
				"element": "C" 
			},
			{
				"x": 0.2537132123,
				"y": -0.7768812316,
				"z": -0.0804742811,
				"element": "C" 
			},
			{
				"x": 0.2639043058,
				"y": 0.2542290061,
				"z": -1.2177224809,
				"element": "C" 
			},
			{
				"x": -0.3455661846,
				"y": 1.6067279108,
				"z": -0.784575156,
				"element": "C" 
			},
			{
				"x": 0.3568618875,
				"y": 2.122737064,
				"z": 0.4914629863,
				"element": "C" 
			},
			{
				"x": 0.3464555695,
				"y": 1.0819138784,
				"z": 1.6198338701,
				"element": "C" 
			},
			{
				"x": -1.8016903724,
				"y": 1.5543688901,
				"z": -0.6482312167,
				"element": "N" 
			},
			{
				"x": -2.4768160115,
				"y": 2.3751153592,
				"z": -1.5110496917,
				"element": "C" 
			},
			{
				"x": -3.6735846829,
				"y": 2.5401611007,
				"z": -1.6285734441,
				"element": "O" 
			},
			{
				"x": -1.4727228295,
				"y": 3.0187424445,
				"z": -2.2703597065,
				"element": "N" 
			},
			{
				"x": -0.1962153175,
				"y": 2.6384682439,
				"z": -1.9210377856,
				"element": "C" 
			},
			{
				"x": 0.847241476,
				"y": 3.0278827844,
				"z": -2.4048730014,
				"element": "O" 
			},
			{
				"x": 1.3931382063,
				"y": -2.2360361791,
				"z": 2.0095169122,
				"element": "H" 
			},
			{
				"x": 1.4581651642,
				"y": -0.9306873694,
				"z": 3.2031586059,
				"element": "H" 
			},
			{
				"x": -0.1048497066,
				"y": -1.5157761661,
				"z": 2.61581519,
				"element": "H" 
			},
			{
				"x": 2.0138800535,
				"y": -0.0733155973,
				"z": 0.9229421221,
				"element": "H" 
			},
			{
				"x": -0.7841187106,
				"y": -1.0444336874,
				"z": 0.1703313383,
				"element": "H" 
			},
			{
				"x": 0.7274819103,
				"y": -1.7036104046,
				"z": -0.4256483129,
				"element": "H" 
			},
			{
				"x": -0.2819305331,
				"y": -0.1243364183,
				"z": -2.0889542821,
				"element": "H" 
			},
			{
				"x": 1.2932010493,
				"y": 0.4501337546,
				"z": -1.540212147,
				"element": "H" 
			},
			{
				"x": 1.3886444226,
				"y": 2.3710706826,
				"z": 0.2165345538,
				"element": "H" 
			},
			{
				"x": -0.1241228169,
				"y": 3.051797445,
				"z": 0.8167096912,
				"element": "H" 
			},
			{
				"x": 0.8863992595,
				"y": 1.4805252825,
				"z": 2.4870151453,
				"element": "H" 
			},
			{
				"x": -0.6864316145,
				"y": 0.9119576321,
				"z": 1.9601462928,
				"element": "H" 
			},
			{
				"x": -2.3069512634,
				"y": 0.980284134,
				"z": 0.0067330839,
				"element": "H" 
			},
			{
				"x": -1.691919781,
				"y": 3.6887418157,
				"z": -2.9933272999,
				"element": "H" 
			}
		],
		 "valence_orbital": [ 
			{
				"type": "occ",
				"energy": -0.31717,
				"method": "rhf"
			},
			{
				"type": "occ",
				"energy": -0.28645,
				"method": "rhf"
			},
			{
				"type": "occ",
				"energy": -0.28623,
				"method": "rhf"
			},
			{
				"type": "occ",
				"energy": -0.26182,
				"method": "rhf"
			},
			{
				"type": "occ",
				"energy": -0.25924,
				"method": "rhf"
			},
			{
				"type": "unocc",
				"energy": -0.0064,
				"method": "rhf"
			},
			{
				"type": "unocc",
				"energy": 0.05511,
				"method": "rhf"
			},
			{
				"type": "unocc",
				"energy": 0.0635,
				"method": "rhf"
			},
			{
				"type": "unocc",
				"energy": 0.08367,
				"method": "rhf"
			},
			{
				"type": "unocc",
				"energy": 0.09499,
				"method": "rhf"
			}
		],
		"cosmo_sigma_profile": { 
			"-0.025": 0.0,
			"-0.024": 0.0,
			"-0.023": 0.0,
			"-0.022": 0.0,
			"-0.021": 0.0,
			"-0.02": 0.0,
			"-0.019": 0.0,
			"-0.018": 0.0,
			"-0.017": 0.217209860894,
			"-0.016": 1.30626151404,
			"-0.015": 1.50993173357,
			"-0.014": 1.18868658233,
			"-0.013": 1.34720251979,
			"-0.012": 1.4709887901,
			"-0.011": 2.39059139799,
			"-0.01": 3.01577142628,
			"-0.009": 1.95524517318,
			"-0.008": 2.60871927011,
			"-0.007": 1.6898036366,
			"-0.006": 3.11230182695,
			"-0.005": 5.89391827191,
			"-0.004": 9.96904804598,
			"-0.003": 22.4357213566,
			"-0.002": 33.3525362252,
			"-0.001": 35.4192790694,
			"0.0": 22.2795556868,
			"0.001": 17.3292675152,
			"0.002": 7.42245623717,
			"0.003": 2.8416154363,
			"0.004": 3.03883814753,
			"0.005": 2.80060077477,
			"0.006": 2.57757524114,
			"0.007": 2.06383663337,
			"0.008": 1.62638043071,
			"0.009": 3.26944444297,
			"0.01": 3.38515353365,
			"0.011": 3.9346093388,
			"0.012": 8.42056366256,
			"0.013": 9.26814795691,
			"0.014": 1.75961209723,
			"0.015": 0.0,
			"0.016": 0.0,
			"0.017": 0.0,
			"0.018": 0.0,
			"0.019": 0.0,
			"0.02": 0.0,
			"0.021": 0.0,
			"0.022": 0.0,
			"0.023": 0.0,
			"0.024": 0.0,
			"0.025": 0.0
		}
	}
}
