{
	 "smiles": "COC1=C(CS(=O)CC(O)=O)C=C(C=C1)C(C)=O", 
	 "Tm": 367.15, 
	 "num_atms": 32, 
	 "gaussian": { 
		 "optdone": 1, 
		 "sigma_profile": "yes", 
		 "theory": "DFT", 
		 "functional": "B3LYP", 
		 "basiset": "6-31G**", 
		 "properties": { 
			 "R2extent": 6404.7308, 
			 "electric_dipole_moment_norm": 6.09066304601, 
			 "electric_quadrupole_moment_norm": 23.994960947, 
			 "total_energy": -1239.98670936, 
			 "HOMO_LUMO_gap": 0.18572, 
			 "cosmo_polarized_energy": -22.07, 
			 "cosmo_cavitation_energy": 37.74, 
			 "cosmo_dispersion_energy": -26.43, 
			 "cosmo_repulsion_energy": 2.02, 
			 "cosmo_total_nonelectrostatic_energy": 13.32, 
			 "SMD_solvation_energy": 8.36 
		},
		"coords": [
			{
				"x": 0.9280779419,
				"y": -0.9950866945,
				"z": -3.3390921536,
				"element": "C" 
			},
			{
				"x": 0.7065102721,
				"y": -0.8136981123,
				"z": -1.9440414192,
				"element": "O" 
			},
			{
				"x": 0.6881092701,
				"y": 0.4512024841,
				"z": -1.4420753405,
				"element": "C" 
			},
			{
				"x": 0.489097578,
				"y": 0.5515508609,
				"z": -0.0467421487,
				"element": "C" 
			},
			{
				"x": 0.3083685564,
				"y": -0.6849358629,
				"z": 0.7803956079,
				"element": "C" 
			},
			{
				"x": -1.503742558,
				"y": -1.0888496596,
				"z": 0.9291596158,
				"element": "S" 
			},
			{
				"x": -2.0992724594,
				"y": -0.0358611199,
				"z": 1.8799100891,
				"element": "O" 
			},
			{
				"x": -1.3474783768,
				"y": -2.6008981675,
				"z": 1.981412917,
				"element": "C" 
			},
			{
				"x": -0.7284863041,
				"y": -2.3681835808,
				"z": 3.3710044303,
				"element": "C" 
			},
			{
				"x": -1.0020387768,
				"y": -1.1960539575,
				"z": 3.9461666396,
				"element": "O" 
			},
			{
				"x": -0.0607797655,
				"y": -3.2258159757,
				"z": 3.8974344549,
				"element": "O" 
			},
			{
				"x": 0.4241646808,
				"y": 1.8177118122,
				"z": 0.5346748142,
				"element": "C" 
			},
			{
				"x": 0.5747904847,
				"y": 2.9842957569,
				"z": -0.2283572448,
				"element": "C" 
			},
			{
				"x": 0.7950253156,
				"y": 2.8569743022,
				"z": -1.6064601292,
				"element": "C" 
			},
			{
				"x": 0.8532265805,
				"y": 1.6085206026,
				"z": -2.2152390833,
				"element": "C" 
			},
			{
				"x": 0.5094578082,
				"y": 4.3599636955,
				"z": 0.3575628953,
				"element": "C" 
			},
			{
				"x": 0.2428951803,
				"y": 4.5103394462,
				"z": 1.8452062251,
				"element": "C" 
			},
			{
				"x": 0.6650354647,
				"y": 5.343425196,
				"z": -0.3520133425,
				"element": "O" 
			},
			{
				"x": 0.908811698,
				"y": -2.0724972325,
				"z": -3.5064495393,
				"element": "H" 
			},
			{
				"x": 1.9030624986,
				"y": -0.5972245938,
				"z": -3.6438037923,
				"element": "H" 
			},
			{
				"x": 0.1386579568,
				"y": -0.5207763831,
				"z": -3.9335793125,
				"element": "H" 
			},
			{
				"x": 0.6704080302,
				"y": -0.5454126486,
				"z": 1.8024788342,
				"element": "H" 
			},
			{
				"x": 0.784674823,
				"y": -1.5573175867,
				"z": 0.3273215295,
				"element": "H" 
			},
			{
				"x": -0.7730273202,
				"y": -3.3585649702,
				"z": 1.445626478,
				"element": "H" 
			},
			{
				"x": -2.3758536302,
				"y": -2.957670931,
				"z": 2.10153127,
				"element": "H" 
			},
			{
				"x": -1.5254261352,
				"y": -0.6101804619,
				"z": 3.322538161,
				"element": "H" 
			},
			{
				"x": 0.246089304,
				"y": 1.8798145065,
				"z": 1.6029960864,
				"element": "H" 
			},
			{
				"x": 0.9166975147,
				"y": 3.7637838388,
				"z": -2.1895565316,
				"element": "H" 
			},
			{
				"x": 1.018897527,
				"y": 1.54082236,
				"z": -3.2835713136,
				"element": "H" 
			},
			{
				"x": -0.7114212243,
				"y": 4.0493334101,
				"z": 2.1228349016,
				"element": "H" 
			},
			{
				"x": 1.0252930502,
				"y": 4.0220479437,
				"z": 2.436976988,
				"element": "H" 
			},
			{
				"x": 0.2175750149,
				"y": 5.5726417228,
				"z": 2.0890494131,
				"element": "H" 
			}
		],
		 "valence_orbital": [ 
			{
				"type": "occ",
				"energy": -0.28362,
				"method": "rhf"
			},
			{
				"type": "occ",
				"energy": -0.27142,
				"method": "rhf"
			},
			{
				"type": "occ",
				"energy": -0.25876,
				"method": "rhf"
			},
			{
				"type": "occ",
				"energy": -0.24919,
				"method": "rhf"
			},
			{
				"type": "occ",
				"energy": -0.24167,
				"method": "rhf"
			},
			{
				"type": "unocc",
				"energy": -0.05595,
				"method": "rhf"
			},
			{
				"type": "unocc",
				"energy": -0.03473,
				"method": "rhf"
			},
			{
				"type": "unocc",
				"energy": -0.00878,
				"method": "rhf"
			},
			{
				"type": "unocc",
				"energy": 0.01157,
				"method": "rhf"
			},
			{
				"type": "unocc",
				"energy": 0.01676,
				"method": "rhf"
			}
		],
		"cosmo_sigma_profile": { 
			"-0.025": 0.0,
			"-0.024": 0.0,
			"-0.023": 0.0,
			"-0.022": 0.0,
			"-0.021": 0.0,
			"-0.02": 0.0,
			"-0.019": 0.0,
			"-0.018": 0.118734422721,
			"-0.017": 0.247110752392,
			"-0.016": 0.35579008538,
			"-0.015": 0.351690757507,
			"-0.014": 0.00460910351029,
			"-0.013": 0.278480533869,
			"-0.012": 1.00207417484,
			"-0.011": 3.04240386989,
			"-0.01": 5.35813952997,
			"-0.009": 4.68925159141,
			"-0.008": 5.85222028818,
			"-0.007": 11.998056022,
			"-0.006": 24.0300779872,
			"-0.005": 25.0133531575,
			"-0.004": 22.7561761171,
			"-0.003": 20.5510186971,
			"-0.002": 17.8666337224,
			"-0.001": 19.3998269629,
			"0.0": 16.0652370096,
			"0.001": 14.8612772597,
			"0.002": 14.9547688617,
			"0.003": 17.1312030216,
			"0.004": 10.2545412668,
			"0.005": 6.49487148407,
			"0.006": 5.73816370519,
			"0.007": 4.16384273246,
			"0.008": 5.27404877781,
			"0.009": 7.34430704681,
			"0.01": 7.65596046149,
			"0.011": 9.77632384816,
			"0.012": 10.9964487074,
			"0.013": 5.30915298567,
			"0.014": 1.71276946544,
			"0.015": 0.0662961281875,
			"0.016": 0.0,
			"0.017": 0.0,
			"0.018": 0.0,
			"0.019": 0.0,
			"0.02": 0.0,
			"0.021": 0.0,
			"0.022": 0.0,
			"0.023": 0.0,
			"0.024": 0.0,
			"0.025": 0.0
		}
	}
}
