{
	 "smiles": "CC1=CC=C(C=C1)N1CCCC(Br)C1=O", 
	 "Tm": 370.15, 
	 "num_atms": 29, 
	 "gaussian": { 
		 "optdone": 1, 
		 "sigma_profile": "yes", 
		 "theory": "DFT", 
		 "functional": "B3LYP", 
		 "basiset": "6-31G**", 
		 "properties": { 
			 "R2extent": 5788.1836, 
			 "electric_dipole_moment_norm": 4.94023991421, 
			 "electric_quadrupole_moment_norm": 8.87700891179, 
			 "total_energy": -3167.11465452, 
			 "HOMO_LUMO_gap": 0.19718, 
			 "cosmo_polarized_energy": -14.5, 
			 "cosmo_cavitation_energy": 33.16, 
			 "cosmo_dispersion_energy": -24.56, 
			 "cosmo_repulsion_energy": 1.93, 
			 "cosmo_total_nonelectrostatic_energy": 10.53, 
			 "SMD_solvation_energy": 4.15 
		},
		"coords": [
			{
				"x": -2.129269258,
				"y": 5.5656453513,
				"z": -0.7172083117,
				"element": "C" 
			},
			{
				"x": -1.5064367386,
				"y": 4.2418319572,
				"z": -0.3425593568,
				"element": "C" 
			},
			{
				"x": -0.1164226309,
				"y": 4.0582207893,
				"z": -0.3974817692,
				"element": "C" 
			},
			{
				"x": 0.4740646811,
				"y": 2.8421813149,
				"z": -0.0715711133,
				"element": "C" 
			},
			{
				"x": -0.3231091303,
				"y": 1.7564583855,
				"z": 0.3186840456,
				"element": "C" 
			},
			{
				"x": -1.7102140677,
				"y": 1.9242400806,
				"z": 0.3769656498,
				"element": "C" 
			},
			{
				"x": -2.2879838218,
				"y": 3.1536548074,
				"z": 0.0543985583,
				"element": "C" 
			},
			{
				"x": 0.264671229,
				"y": 0.5056075693,
				"z": 0.709231316,
				"element": "N" 
			},
			{
				"x": -0.3473328767,
				"y": -0.1752691245,
				"z": 1.8669056276,
				"element": "C" 
			},
			{
				"x": 0.6137647343,
				"y": -1.145913617,
				"z": 2.5405906085,
				"element": "C" 
			},
			{
				"x": 1.1400418928,
				"y": -2.1362311848,
				"z": 1.5021116805,
				"element": "C" 
			},
			{
				"x": 1.9022462624,
				"y": -1.3617150129,
				"z": 0.4346958879,
				"element": "C" 
			},
			{
				"x": 2.3187459965,
				"y": -2.5471084765,
				"z": -1.0940295967,
				"element": "Br" 
			},
			{
				"x": 1.2517427789,
				"y": -0.0604933526,
				"z": -0.0844375312,
				"element": "C" 
			},
			{
				"x": 1.6721698004,
				"y": 0.4728084392,
				"z": -1.0967489335,
				"element": "O" 
			},
			{
				"x": -3.1830366999,
				"y": 5.6084753105,
				"z": -0.4276637645,
				"element": "H" 
			},
			{
				"x": -2.0769437712,
				"y": 5.7374690675,
				"z": -1.7992778023,
				"element": "H" 
			},
			{
				"x": -1.6128598997,
				"y": 6.4024644638,
				"z": -0.2344616325,
				"element": "H" 
			},
			{
				"x": 0.5201319631,
				"y": 4.8873902332,
				"z": -0.6969806997,
				"element": "H" 
			},
			{
				"x": 1.5482820167,
				"y": 2.7264558732,
				"z": -0.1295546116,
				"element": "H" 
			},
			{
				"x": -2.3507965291,
				"y": 1.0973700962,
				"z": 0.6652373685,
				"element": "H" 
			},
			{
				"x": -3.3685720235,
				"y": 3.2596684091,
				"z": 0.1080000302,
				"element": "H" 
			},
			{
				"x": -1.24799705,
				"y": -0.7227502524,
				"z": 1.5531219866,
				"element": "H" 
			},
			{
				"x": -0.6688911095,
				"y": 0.6010916427,
				"z": 2.5664083537,
				"element": "H" 
			},
			{
				"x": 0.085402752,
				"y": -1.6711484561,
				"z": 3.3434308212,
				"element": "H" 
			},
			{
				"x": 1.4420180152,
				"y": -0.5945487956,
				"z": 3.0032102749,
				"element": "H" 
			},
			{
				"x": 1.7931875439,
				"y": -2.8911811173,
				"z": 1.9490610921,
				"element": "H" 
			},
			{
				"x": 0.2997906005,
				"y": -2.6691473399,
				"z": 1.0425749836,
				"element": "H" 
			},
			{
				"x": 2.8882053401,
				"y": -1.0691270614,
				"z": 0.805146838,
				"element": "H" 
			}
		],
		 "valence_orbital": [ 
			{
				"type": "occ",
				"energy": -0.27244,
				"method": "rhf"
			},
			{
				"type": "occ",
				"energy": -0.26725,
				"method": "rhf"
			},
			{
				"type": "occ",
				"energy": -0.25543,
				"method": "rhf"
			},
			{
				"type": "occ",
				"energy": -0.24483,
				"method": "rhf"
			},
			{
				"type": "occ",
				"energy": -0.22009,
				"method": "rhf"
			},
			{
				"type": "unocc",
				"energy": -0.02291,
				"method": "rhf"
			},
			{
				"type": "unocc",
				"energy": -0.00212,
				"method": "rhf"
			},
			{
				"type": "unocc",
				"energy": 0.00147,
				"method": "rhf"
			},
			{
				"type": "unocc",
				"energy": 0.03355,
				"method": "rhf"
			},
			{
				"type": "unocc",
				"energy": 0.08651,
				"method": "rhf"
			}
		],
		"cosmo_sigma_profile": { 
			"-0.025": 0.0,
			"-0.024": 0.0,
			"-0.023": 0.0,
			"-0.022": 0.0,
			"-0.021": 0.0,
			"-0.02": 0.0,
			"-0.019": 0.0,
			"-0.018": 0.0,
			"-0.017": 0.0,
			"-0.016": 0.0,
			"-0.015": 0.0,
			"-0.014": 0.0,
			"-0.013": 0.0,
			"-0.012": 0.0,
			"-0.011": 0.0,
			"-0.01": 0.0,
			"-0.009": 0.786765425429,
			"-0.008": 3.04099245277,
			"-0.007": 3.74197901741,
			"-0.006": 9.30938725749,
			"-0.005": 25.0046936926,
			"-0.004": 31.3573516093,
			"-0.003": 28.7763778476,
			"-0.002": 24.5581340041,
			"-0.001": 20.2679224978,
			"0.0": 17.1261713252,
			"0.001": 14.1006431587,
			"0.002": 11.8292893732,
			"0.003": 11.0714403387,
			"0.004": 11.8564487666,
			"0.005": 15.0727945509,
			"0.006": 14.6401662754,
			"0.007": 2.99031807138,
			"0.008": 2.01855872914,
			"0.009": 2.32858178113,
			"0.01": 2.63497505676,
			"0.011": 1.82538164308,
			"0.012": 2.87809707614,
			"0.013": 5.03388990617,
			"0.014": 2.32658889439,
			"0.015": 0.061256905526,
			"0.016": 0.0,
			"0.017": 0.0,
			"0.018": 0.0,
			"0.019": 0.0,
			"0.02": 0.0,
			"0.021": 0.0,
			"0.022": 0.0,
			"0.023": 0.0,
			"0.024": 0.0,
			"0.025": 0.0
		}
	}
}
