{
	 "smiles": "[O-][N+](=O)C1=C(C=C(Cl)C=C1)S(Cl)(=O)=O", 
	 "Tm": 341.15, 
	 "num_atms": 17, 
	 "gaussian": { 
		 "optdone": 1, 
		 "sigma_profile": "yes", 
		 "theory": "DFT", 
		 "functional": "B3LYP", 
		 "basiset": "6-31G**", 
		 "properties": { 
			 "R2extent": 4252.2855, 
			 "electric_dipole_moment_norm": 5.61979341435, 
			 "electric_quadrupole_moment_norm": 4.94832403244, 
			 "total_energy": -1904.46943555, 
			 "HOMO_LUMO_gap": 0.17529, 
			 "cosmo_polarized_energy": -12.82, 
			 "cosmo_cavitation_energy": 27.66, 
			 "cosmo_dispersion_energy": -20.87, 
			 "cosmo_repulsion_energy": 1.59, 
			 "cosmo_total_nonelectrostatic_energy": 8.39, 
			 "SMD_solvation_energy": 5.33 
		},
		"coords": [
			{
				"x": -1.0435763205,
				"y": 0.4605489334,
				"z": -2.448663641,
				"element": "O" 
			},
			{
				"x": -0.041101705,
				"y": 0.7898666794,
				"z": -1.8269204958,
				"element": "N" 
			},
			{
				"x": 0.9088112703,
				"y": 1.4261538607,
				"z": -2.2750165269,
				"element": "O" 
			},
			{
				"x": 0.0640828008,
				"y": 0.336905381,
				"z": -0.4274223716,
				"element": "C" 
			},
			{
				"x": -1.0444004944,
				"y": 0.1351463501,
				"z": 0.4103365444,
				"element": "C" 
			},
			{
				"x": -0.8515284587,
				"y": -0.3555902226,
				"z": 1.7007995816,
				"element": "C" 
			},
			{
				"x": 0.4393094181,
				"y": -0.6613425477,
				"z": 2.1381842107,
				"element": "C" 
			},
			{
				"x": 0.6641543093,
				"y": -1.2952726484,
				"z": 3.7454210198,
				"element": "Cl" 
			},
			{
				"x": 1.543892287,
				"y": -0.4508555931,
				"z": 1.3144999042,
				"element": "C" 
			},
			{
				"x": 1.3478158995,
				"y": 0.0588881135,
				"z": 0.0343511985,
				"element": "C" 
			},
			{
				"x": -2.7567822369,
				"y": 0.6407616212,
				"z": 0.054681639,
				"element": "S" 
			},
			{
				"x": -3.4865659553,
				"y": -0.9538555741,
				"z": -1.1041643479,
				"element": "Cl" 
			},
			{
				"x": -3.4828334107,
				"y": 0.5618253603,
				"z": 1.3165179977,
				"element": "O" 
			},
			{
				"x": -2.7540416715,
				"y": 1.8557134944,
				"z": -0.7424364277,
				"element": "O" 
			},
			{
				"x": -1.7022804042,
				"y": -0.4796413025,
				"z": 2.3589793578,
				"element": "H" 
			},
			{
				"x": 2.5423127398,
				"y": -0.6802812881,
				"z": 1.6682834323,
				"element": "H" 
			},
			{
				"x": 2.1840319324,
				"y": 0.2433293825,
				"z": -0.6290310753,
				"element": "H" 
			}
		],
		 "valence_orbital": [ 
			{
				"type": "occ",
				"energy": -0.33188,
				"method": "rhf"
			},
			{
				"type": "occ",
				"energy": -0.32346,
				"method": "rhf"
			},
			{
				"type": "occ",
				"energy": -0.3215,
				"method": "rhf"
			},
			{
				"type": "occ",
				"energy": -0.31842,
				"method": "rhf"
			},
			{
				"type": "occ",
				"energy": -0.29735,
				"method": "rhf"
			},
			{
				"type": "unocc",
				"energy": -0.12206,
				"method": "rhf"
			},
			{
				"type": "unocc",
				"energy": -0.09643,
				"method": "rhf"
			},
			{
				"type": "unocc",
				"energy": -0.07404,
				"method": "rhf"
			},
			{
				"type": "unocc",
				"energy": -0.04732,
				"method": "rhf"
			},
			{
				"type": "unocc",
				"energy": -0.00908,
				"method": "rhf"
			}
		],
		"cosmo_sigma_profile": { 
			"-0.025": 0.0,
			"-0.024": 0.0,
			"-0.023": 0.0,
			"-0.022": 0.0,
			"-0.021": 0.0,
			"-0.02": 0.0,
			"-0.019": 0.0,
			"-0.018": 0.0,
			"-0.017": 0.0,
			"-0.016": 0.0,
			"-0.015": 0.0,
			"-0.014": 0.0,
			"-0.013": 0.0,
			"-0.012": 0.0,
			"-0.011": 0.191632905113,
			"-0.01": 3.94713748356,
			"-0.009": 5.6059639034,
			"-0.008": 6.37637892902,
			"-0.007": 7.17114694237,
			"-0.006": 8.34290482588,
			"-0.005": 10.2964051543,
			"-0.004": 14.7538860595,
			"-0.003": 21.9899089874,
			"-0.002": 18.3605079509,
			"-0.001": 12.86044198,
			"0.0": 11.1670646438,
			"0.001": 13.1668310629,
			"0.002": 21.2446124326,
			"0.003": 16.4896602453,
			"0.004": 7.49625146236,
			"0.005": 7.97484844903,
			"0.006": 11.9959794302,
			"0.007": 14.5230097123,
			"0.008": 12.3569922342,
			"0.009": 2.1749360838,
			"0.01": 0.0,
			"0.011": 0.0,
			"0.012": 0.0,
			"0.013": 0.0,
			"0.014": 0.0,
			"0.015": 0.0,
			"0.016": 0.0,
			"0.017": 0.0,
			"0.018": 0.0,
			"0.019": 0.0,
			"0.02": 0.0,
			"0.021": 0.0,
			"0.022": 0.0,
			"0.023": 0.0,
			"0.024": 0.0,
			"0.025": 0.0
		}
	}
}
