{
	 "smiles": "CC(C)C1=CC2=C(NC(=O)C2=O)C=C1", 
	 "Tm": 367.15, 
	 "num_atms": 25, 
	 "gaussian": { 
		 "optdone": 1, 
		 "sigma_profile": "yes", 
		 "theory": "DFT", 
		 "functional": "B3LYP", 
		 "basiset": "6-31G**", 
		 "properties": { 
			 "R2extent": 3413.3245, 
			 "electric_dipole_moment_norm": 6.21077822338, 
			 "electric_quadrupole_moment_norm": 17.4621249512, 
			 "total_energy": -631.013583269, 
			 "HOMO_LUMO_gap": 0.13821, 
			 "cosmo_polarized_energy": -15.31, 
			 "cosmo_cavitation_energy": 29.25, 
			 "cosmo_dispersion_energy": -20.88, 
			 "cosmo_repulsion_energy": 1.65, 
			 "cosmo_total_nonelectrostatic_energy": 10.02, 
			 "SMD_solvation_energy": 6.4 
		},
		"coords": [
			{
				"x": 3.1690348534,
				"y": 1.3024870569,
				"z": -1.1074576835,
				"element": "C" 
			},
			{
				"x": 2.5871405412,
				"y": 0.0066901274,
				"z": -0.5114392345,
				"element": "C" 
			},
			{
				"x": 3.2216735333,
				"y": -1.2372267961,
				"z": -1.1618305192,
				"element": "C" 
			},
			{
				"x": 1.065868189,
				"y": -0.0232670066,
				"z": -0.5914269039,
				"element": "C" 
			},
			{
				"x": 0.2862872351,
				"y": -0.0657840846,
				"z": 0.5715736128,
				"element": "C" 
			},
			{
				"x": -1.1026335999,
				"y": -0.0927839474,
				"z": 0.4754038686,
				"element": "C" 
			},
			{
				"x": -1.7412099968,
				"y": -0.078067454,
				"z": -0.7784947199,
				"element": "C" 
			},
			{
				"x": -3.1349849587,
				"y": -0.1111147774,
				"z": -0.6184795206,
				"element": "N" 
			},
			{
				"x": -3.5041780889,
				"y": -0.1492674157,
				"z": 0.7177369126,
				"element": "C" 
			},
			{
				"x": -4.6273848518,
				"y": -0.1830595788,
				"z": 1.1661192103,
				"element": "O" 
			},
			{
				"x": -2.1465557144,
				"y": -0.1377835549,
				"z": 1.5108977889,
				"element": "C" 
			},
			{
				"x": -2.0598733742,
				"y": -0.1636379596,
				"z": 2.7193108509,
				"element": "O" 
			},
			{
				"x": -0.9950116439,
				"y": -0.0359948943,
				"z": -1.9493393674,
				"element": "C" 
			},
			{
				"x": 0.3999231884,
				"y": -0.0093335045,
				"z": -1.8313768786,
				"element": "C" 
			},
			{
				"x": 2.748097128,
				"y": 2.1875315937,
				"z": -0.6206572582,
				"element": "H" 
			},
			{
				"x": 4.2568069283,
				"y": 1.3293811945,
				"z": -0.9829574872,
				"element": "H" 
			},
			{
				"x": 2.9574864907,
				"y": 1.3785213824,
				"z": -2.1800051404,
				"element": "H" 
			},
			{
				"x": 2.8479173207,
				"y": -0.0107227484,
				"z": 0.5546701569,
				"element": "H" 
			},
			{
				"x": 2.8383166494,
				"y": -2.1589417755,
				"z": -0.7135568919,
				"element": "H" 
			},
			{
				"x": 4.309763372,
				"y": -1.2242716671,
				"z": -1.0378483051,
				"element": "H" 
			},
			{
				"x": 3.0122379647,
				"y": -1.2761113372,
				"z": -2.2367823525,
				"element": "H" 
			},
			{
				"x": 0.7513134774,
				"y": -0.0780416974,
				"z": 1.5538870115,
				"element": "H" 
			},
			{
				"x": -3.8071257477,
				"y": -0.1083943927,
				"z": -1.3715406852,
				"element": "H" 
			},
			{
				"x": -1.4692252264,
				"y": -0.0240094458,
				"z": -2.9259578709,
				"element": "H" 
			},
			{
				"x": 0.987716331,
				"y": 0.0236026833,
				"z": -2.7448485935,
				"element": "H" 
			}
		],
		 "valence_orbital": [ 
			{
				"type": "occ",
				"energy": -0.31764,
				"method": "rhf"
			},
			{
				"type": "occ",
				"energy": -0.30721,
				"method": "rhf"
			},
			{
				"type": "occ",
				"energy": -0.27542,
				"method": "rhf"
			},
			{
				"type": "occ",
				"energy": -0.2437,
				"method": "rhf"
			},
			{
				"type": "occ",
				"energy": -0.23276,
				"method": "rhf"
			},
			{
				"type": "unocc",
				"energy": -0.09455,
				"method": "rhf"
			},
			{
				"type": "unocc",
				"energy": -0.01881,
				"method": "rhf"
			},
			{
				"type": "unocc",
				"energy": 0.0089,
				"method": "rhf"
			},
			{
				"type": "unocc",
				"energy": 0.07412,
				"method": "rhf"
			},
			{
				"type": "unocc",
				"energy": 0.07756,
				"method": "rhf"
			}
		],
		"cosmo_sigma_profile": { 
			"-0.025": 0.0,
			"-0.024": 0.0,
			"-0.023": 0.0,
			"-0.022": 0.0,
			"-0.021": 0.0,
			"-0.02": 0.0,
			"-0.019": 0.0,
			"-0.018": 0.0,
			"-0.017": 0.0974440037132,
			"-0.016": 1.39558051989,
			"-0.015": 1.38393531163,
			"-0.014": 1.79923805556,
			"-0.013": 0.738860963357,
			"-0.012": 0.934131862839,
			"-0.011": 1.33755722916,
			"-0.01": 1.4563909631,
			"-0.009": 0.785308883678,
			"-0.008": 2.24685703618,
			"-0.007": 5.0826726073,
			"-0.006": 10.8035014678,
			"-0.005": 9.96773530869,
			"-0.004": 10.7627354578,
			"-0.003": 18.4512326397,
			"-0.002": 20.8541483797,
			"-0.001": 26.575876519,
			"0.0": 24.1458418945,
			"0.001": 25.7445880807,
			"0.002": 14.7603288101,
			"0.003": 11.3487410653,
			"0.004": 4.02334576709,
			"0.005": 2.3900376778,
			"0.006": 1.7962569791,
			"0.007": 2.54289143831,
			"0.008": 3.81198025935,
			"0.009": 4.58391308949,
			"0.01": 7.34000773088,
			"0.011": 9.42924858816,
			"0.012": 4.94893889297,
			"0.013": 0.474806522232,
			"0.014": 0.0,
			"0.015": 0.0,
			"0.016": 0.0,
			"0.017": 0.0,
			"0.018": 0.0,
			"0.019": 0.0,
			"0.02": 0.0,
			"0.021": 0.0,
			"0.022": 0.0,
			"0.023": 0.0,
			"0.024": 0.0,
			"0.0": 0.0
		}
	}
}
