{
	 "smiles": "COC1=CC=C(C=C1)C(=O)OCCOC1=CC=C(C=CC(=O)C2=CC=CC=C2)C=C1", 
	 "Tm": 386.15, 
	 "num_atms": 52, 
	 "gaussian": { 
		 "optdone": 1, 
		 "sigma_profile": "yes", 
		 "theory": "DFT", 
		 "functional": "B3LYP", 
		 "basiset": "6-31G**", 
		 "properties": { 
			 "R2extent": 19419.0534, 
			 "electric_dipole_moment_norm": 2.71071317184, 
			 "electric_quadrupole_moment_norm": 33.3940311481, 
			 "total_energy": -1342.02523463, 
			 "HOMO_LUMO_gap": 0.14191, 
			 "cosmo_polarized_energy": -20.79, 
			 "cosmo_cavitation_energy": 57.83, 
			 "cosmo_dispersion_energy": -39.54, 
			 "cosmo_repulsion_energy": 2.96, 
			 "cosmo_total_nonelectrostatic_energy": 21.25, 
			 "SMD_solvation_energy": 11.97 
		},
		"coords": [
			{
				"x": 0.682197486,
				"y": -4.9660004282,
				"z": 1.3073124398,
				"element": "C" 
			},
			{
				"x": 2.1018282411,
				"y": -4.9976911953,
				"z": 1.3788900348,
				"element": "O" 
			},
			{
				"x": 2.783298729,
				"y": -3.8254325576,
				"z": 1.3032276288,
				"element": "C" 
			},
			{
				"x": 4.1831867786,
				"y": -3.9298925582,
				"z": 1.3916265354,
				"element": "C" 
			},
			{
				"x": 4.9675385346,
				"y": -2.791612832,
				"z": 1.3285996721,
				"element": "C" 
			},
			{
				"x": 4.3794093272,
				"y": -1.5237342356,
				"z": 1.1692709537,
				"element": "C" 
			},
			{
				"x": 2.9854259169,
				"y": -1.4264550846,
				"z": 1.0834859537,
				"element": "C" 
			},
			{
				"x": 2.1853970034,
				"y": -2.5659399877,
				"z": 1.1500316621,
				"element": "C" 
			},
			{
				"x": 5.2734685979,
				"y": -0.3445753357,
				"z": 1.1191980956,
				"element": "C" 
			},
			{
				"x": 6.4776492779,
				"y": -0.3754902276,
				"z": 1.2878796617,
				"element": "O" 
			},
			{
				"x": 4.6024987001,
				"y": 0.8133947685,
				"z": 0.8554452739,
				"element": "O" 
			},
			{
				"x": 5.3981089203,
				"y": 2.0076827513,
				"z": 0.8767442336,
				"element": "C" 
			},
			{
				"x": 4.615699609,
				"y": 3.1410482163,
				"z": 0.2423225569,
				"element": "C" 
			},
			{
				"x": 3.5017256957,
				"y": 3.555010544,
				"z": 1.0334104135,
				"element": "O" 
			},
			{
				"x": 2.234734682,
				"y": 3.1415387208,
				"z": 0.7501424451,
				"element": "C" 
			},
			{
				"x": 1.2202755999,
				"y": 3.7873712595,
				"z": 1.4732752604,
				"element": "C" 
			},
			{
				"x": -0.1079038365,
				"y": 3.4522035208,
				"z": 1.2603133405,
				"element": "C" 
			},
			{
				"x": -0.4815383748,
				"y": 2.4723595265,
				"z": 0.3171443916,
				"element": "C" 
			},
			{
				"x": -1.8942818829,
				"y": 2.1677886562,
				"z": 0.1348847494,
				"element": "C" 
			},
			{
				"x": -2.4595594467,
				"y": 1.3053713625,
				"z": -0.7376319588,
				"element": "C" 
			},
			{
				"x": -3.9282259265,
				"y": 1.1200430613,
				"z": -0.7503941976,
				"element": "C" 
			},
			{
				"x": -4.6504904311,
				"y": 1.6738555708,
				"z": 0.078657641,
				"element": "O" 
			},
			{
				"x": -4.5429173506,
				"y": 0.2204996737,
				"z": -1.7873334244,
				"element": "C" 
			},
			{
				"x": -5.8846574021,
				"y": -0.153611957,
				"z": -1.6071984676,
				"element": "C" 
			},
			{
				"x": -6.5219203436,
				"y": -0.9786572808,
				"z": -2.528630101,
				"element": "C" 
			},
			{
				"x": -5.8303097104,
				"y": -1.434711689,
				"z": -3.6551166142,
				"element": "C" 
			},
			{
				"x": -4.5008083904,
				"y": -1.0588339517,
				"z": -3.8529208274,
				"element": "C" 
			},
			{
				"x": -3.8591456804,
				"y": -0.2393299703,
				"z": -2.9235393982,
				"element": "C" 
			},
			{
				"x": 0.5527069668,
				"y": 1.8340724079,
				"z": -0.3927010045,
				"element": "C" 
			},
			{
				"x": 1.8907775391,
				"y": 2.1514683073,
				"z": -0.1852259928,
				"element": "C" 
			},
			{
				"x": 0.3360531946,
				"y": -4.5536992736,
				"z": 0.3514925355,
				"element": "H" 
			},
			{
				"x": 0.2503876643,
				"y": -4.3825083832,
				"z": 2.1296261234,
				"element": "H" 
			},
			{
				"x": 0.3552006112,
				"y": -6.0031091835,
				"z": 1.391192241,
				"element": "H" 
			},
			{
				"x": 4.6212050775,
				"y": -4.915020999,
				"z": 1.512235622,
				"element": "H" 
			},
			{
				"x": 6.0478619701,
				"y": -2.8568337438,
				"z": 1.4013689287,
				"element": "H" 
			},
			{
				"x": 2.519353596,
				"y": -0.4538882055,
				"z": 0.9731555776,
				"element": "H" 
			},
			{
				"x": 1.1088238041,
				"y": -2.4632343732,
				"z": 1.0876675269,
				"element": "H" 
			},
			{
				"x": 6.3309762548,
				"y": 1.843032422,
				"z": 0.3281960387,
				"element": "H" 
			},
			{
				"x": 5.6539396567,
				"y": 2.2541536469,
				"z": 1.9128655462,
				"element": "H" 
			},
			{
				"x": 5.2751802534,
				"y": 4.0140065837,
				"z": 0.1880547853,
				"element": "H" 
			},
			{
				"x": 4.3087199313,
				"y": 2.8887682568,
				"z": -0.7775652971,
				"element": "H" 
			},
			{
				"x": 1.5021510693,
				"y": 4.5485131824,
				"z": 2.1930413362,
				"element": "H" 
			},
			{
				"x": -0.8828741741,
				"y": 3.9607113379,
				"z": 1.827627489,
				"element": "H" 
			},
			{
				"x": -2.5870210498,
				"y": 2.7026663364,
				"z": 0.7836756089,
				"element": "H" 
			},
			{
				"x": -1.8532071814,
				"y": 0.724490433,
				"z": -1.4237487136,
				"element": "H" 
			},
			{
				"x": -6.4031278299,
				"y": 0.2219818556,
				"z": -0.7315621016,
				"element": "H" 
			},
			{
				"x": -7.5579811722,
				"y": -1.2659969597,
				"z": -2.3734535867,
				"element": "H" 
			},
			{
				"x": -6.3270894601,
				"y": -2.0767487962,
				"z": -4.3771277535,
				"element": "H" 
			},
			{
				"x": -3.9630736149,
				"y": -1.4010011396,
				"z": -4.7325220761,
				"element": "H" 
			},
			{
				"x": -2.8313362005,
				"y": 0.0558592796,
				"z": -3.1059530939,
				"element": "H" 
			},
			{
				"x": 0.3127403306,
				"y": 1.0628110034,
				"z": -1.1183627798,
				"element": "H" 
			},
			{
				"x": 2.6555484393,
				"y": 1.6061076637,
				"z": -0.7227749144,
				"element": "H" 
			}
		],
		 "valence_orbital": [ 
			{
				"type": "occ",
				"energy": -0.25668,
				"method": "rhf"
			},
			{
				"type": "occ",
				"energy": -0.25303,
				"method": "rhf"
			},
			{
				"type": "occ",
				"energy": -0.24114,
				"method": "rhf"
			},
			{
				"type": "occ",
				"energy": -0.23237,
				"method": "rhf"
			},
			{
				"type": "occ",
				"energy": -0.21519,
				"method": "rhf"
			},
			{
				"type": "unocc",
				"energy": -0.07328,
				"method": "rhf"
			},
			{
				"type": "unocc",
				"energy": -0.04017,
				"method": "rhf"
			},
			{
				"type": "unocc",
				"energy": -0.02088,
				"method": "rhf"
			},
			{
				"type": "unocc",
				"energy": -0.01166,
				"method": "rhf"
			},
			{
				"type": "unocc",
				"energy": -0.0099,
				"method": "rhf"
			}
		],
		"cosmo_sigma_profile": { 
			"-0.025": 0.0,
			"-0.024": 0.0,
			"-0.023": 0.0,
			"-0.022": 0.0,
			"-0.021": 0.0,
			"-0.02": 0.0,
			"-0.019": 0.0,
			"-0.018": 0.0,
			"-0.017": 0.0,
			"-0.016": 0.0,
			"-0.015": 0.0,
			"-0.014": 0.0,
			"-0.013": 0.0,
			"-0.012": 0.0,
			"-0.011": 0.0,
			"-0.01": 0.0,
			"-0.009": 0.440393496234,
			"-0.008": 4.14933752677,
			"-0.007": 16.8257382123,
			"-0.006": 37.9023883789,
			"-0.005": 39.3573036837,
			"-0.004": 35.9368953306,
			"-0.003": 30.5064624252,
			"-0.002": 28.7074413706,
			"-0.001": 26.9986882588,
			"0.0": 27.5897618535,
			"0.001": 30.8824691924,
			"0.002": 38.3273121752,
			"0.003": 45.1512301889,
			"0.004": 42.8585827798,
			"0.005": 12.7222737667,
			"0.006": 7.01387842491,
			"0.007": 6.18129951831,
			"0.008": 4.83237337029,
			"0.009": 6.00817386105,
			"0.01": 4.02249002064,
			"0.011": 5.19810771758,
			"0.012": 7.20789236399,
			"0.013": 4.2064175088,
			"0.014": 0.10920512879,
			"0.015": 0.0,
			"0.016": 0.0,
			"0.017": 0.0,
			"0.018": 0.0,
			"0.019": 0.0,
			"0.02": 0.0,
			"0.021": 0.0,
			"0.022": 0.0,
			"0.023": 0.0,
			"0.024": 0.0,
			"0.025": 0.0
		}
	}
}
