{
	 "smiles": "CC1=CC=C2C3CC=C4CC(CCC4(C)C3CCC2=C1C)C(O)=O", 
	 "Tm": 435.15, 
	 "num_atms": 52, 
	 "gaussian": { 
		 "optdone": 1, 
		 "sigma_profile": "yes", 
		 "theory": "DFT", 
		 "functional": "B3LYP", 
		 "basiset": "6-31G**", 
		 "properties": { 
			 "R2extent": 11336.5447, 
			 "electric_dipole_moment_norm": 1.34288214673, 
			 "electric_quadrupole_moment_norm": 13.7653405701, 
			 "total_energy": -1005.70075178, 
			 "HOMO_LUMO_gap": 0.22627, 
			 "cosmo_polarized_energy": -10.72, 
			 "cosmo_cavitation_energy": 47.61, 
			 "cosmo_dispersion_energy": -33.59, 
			 "cosmo_repulsion_energy": 2.48, 
			 "cosmo_total_nonelectrostatic_energy": 16.5, 
			 "SMD_solvation_energy": 7.72 
		},
		"coords": [
			{
				"x": 2.7410162636,
				"y": 4.4540710087,
				"z": 3.4048968493,
				"element": "C" 
			},
			{
				"x": 1.729075923,
				"y": 3.4604717059,
				"z": 2.8747030249,
				"element": "C" 
			},
			{
				"x": 1.3283359499,
				"y": 2.3991786716,
				"z": 3.6914874606,
				"element": "C" 
			},
			{
				"x": 0.3992327073,
				"y": 1.4550595582,
				"z": 3.2593692936,
				"element": "C" 
			},
			{
				"x": -0.1525705518,
				"y": 1.5471680181,
				"z": 1.9809162667,
				"element": "C" 
			},
			{
				"x": -1.2063773732,
				"y": 0.5910882507,
				"z": 1.4431145977,
				"element": "C" 
			},
			{
				"x": -1.5178316179,
				"y": -0.597778142,
				"z": 2.3598629461,
				"element": "C" 
			},
			{
				"x": -2.3590677637,
				"y": -1.6452590373,
				"z": 1.6843323294,
				"element": "C" 
			},
			{
				"x": -2.6132629908,
				"y": -1.6965381587,
				"z": 0.3713746504,
				"element": "C" 
			},
			{
				"x": -3.3698823206,
				"y": -2.8470177545,
				"z": -0.2479790543,
				"element": "C" 
			},
			{
				"x": -2.4258112206,
				"y": -3.7147166142,
				"z": -1.1250415833,
				"element": "C" 
			},
			{
				"x": -1.2086138329,
				"y": -2.8735618575,
				"z": -1.6159959677,
				"element": "C" 
			},
			{
				"x": -1.6289962534,
				"y": -1.4306240177,
				"z": -1.9160466666,
				"element": "C" 
			},
			{
				"x": -2.0778794076,
				"y": -0.6618082272,
				"z": -0.6247876507,
				"element": "C" 
			},
			{
				"x": -3.2182915272,
				"y": 0.3129720773,
				"z": -1.0100888342,
				"element": "C" 
			},
			{
				"x": -0.8594810932,
				"y": 0.0832541215,
				"z": 0.0120382936,
				"element": "C" 
			},
			{
				"x": -0.2688938515,
				"y": 1.2164754241,
				"z": -0.8762919809,
				"element": "C" 
			},
			{
				"x": -0.3696718285,
				"y": 2.6170258613,
				"z": -0.2381673533,
				"element": "C" 
			},
			{
				"x": 0.2447907338,
				"y": 2.6089260916,
				"z": 1.1437775039,
				"element": "C" 
			},
			{
				"x": 1.1764361625,
				"y": 3.5699233927,
				"z": 1.5790677158,
				"element": "C" 
			},
			{
				"x": 1.5761668063,
				"y": 4.7081900337,
				"z": 0.6604061588,
				"element": "C" 
			},
			{
				"x": -3.1587153869,
				"y": -4.2804683331,
				"z": -2.3280010198,
				"element": "C" 
			},
			{
				"x": -2.5776128178,
				"y": -5.4212647751,
				"z": -2.7774275624,
				"element": "O" 
			},
			{
				"x": -4.1215136276,
				"y": -3.7900959286,
				"z": -2.880809674,
				"element": "O" 
			},
			{
				"x": 3.6435358561,
				"y": 4.497001678,
				"z": 2.7839414338,
				"element": "H" 
			},
			{
				"x": 2.3361260843,
				"y": 5.4721111543,
				"z": 3.4517091709,
				"element": "H" 
			},
			{
				"x": 3.052921844,
				"y": 4.1806351245,
				"z": 4.4165675956,
				"element": "H" 
			},
			{
				"x": 1.7508746141,
				"y": 2.3125565989,
				"z": 4.6896469734,
				"element": "H" 
			},
			{
				"x": 0.1087354706,
				"y": 0.6547866422,
				"z": 3.9318130711,
				"element": "H" 
			},
			{
				"x": -2.1337093864,
				"y": 1.1769143858,
				"z": 1.3552343562,
				"element": "H" 
			},
			{
				"x": -0.5794926885,
				"y": -1.0672205383,
				"z": 2.6944178086,
				"element": "H" 
			},
			{
				"x": -2.0139196086,
				"y": -0.2506941445,
				"z": 3.2763118268,
				"element": "H" 
			},
			{
				"x": -2.7515001967,
				"y": -2.4352935619,
				"z": 2.3250747394,
				"element": "H" 
			},
			{
				"x": -3.8393174117,
				"y": -3.4637676614,
				"z": 0.5245881114,
				"element": "H" 
			},
			{
				"x": -4.1749356117,
				"y": -2.4760509372,
				"z": -0.8920791056,
				"element": "H" 
			},
			{
				"x": -2.0420341022,
				"y": -4.5642749122,
				"z": -0.5519230194,
				"element": "H" 
			},
			{
				"x": -0.7535135082,
				"y": -3.3449300701,
				"z": -2.4934198787,
				"element": "H" 
			},
			{
				"x": -0.4478331355,
				"y": -2.882350817,
				"z": -0.8273690242,
				"element": "H" 
			},
			{
				"x": -2.4536588767,
				"y": -1.4496336803,
				"z": -2.6385223519,
				"element": "H" 
			},
			{
				"x": -0.8092792062,
				"y": -0.8944817882,
				"z": -2.4049230269,
				"element": "H" 
			},
			{
				"x": -4.083996842,
				"y": -0.2407719315,
				"z": -1.3863016697,
				"element": "H" 
			},
			{
				"x": -2.9062570391,
				"y": 0.9989849809,
				"z": -1.804727986,
				"element": "H" 
			},
			{
				"x": -3.5570369165,
				"y": 0.9085573838,
				"z": -0.1579894597,
				"element": "H" 
			},
			{
				"x": -0.0767185419,
				"y": -0.6763107505,
				"z": 0.1444196805,
				"element": "H" 
			},
			{
				"x": -0.7509116463,
				"y": 1.2380289068,
				"z": -1.8588243883,
				"element": "H" 
			},
			{
				"x": 0.7908439397,
				"y": 1.0121791356,
				"z": -1.0644545432,
				"element": "H" 
			},
			{
				"x": 0.111140705,
				"y": 3.3473746804,
				"z": -0.8924597703,
				"element": "H" 
			},
			{
				"x": -1.4273852321,
				"y": 2.9131435533,
				"z": -0.1751127075,
				"element": "H" 
			},
			{
				"x": 2.2223429167,
				"y": 5.4301574821,
				"z": 1.160448907,
				"element": "H" 
			},
			{
				"x": 2.1190028536,
				"y": 4.345882894,
				"z": -0.2215840698,
				"element": "H" 
			},
			{
				"x": 0.7018332201,
				"y": 5.2560844109,
				"z": 0.2923550954,
				"element": "H" 
			},
			{
				"x": -3.0776386345,
				"y": -5.6834895881,
				"z": -3.5689475118,
				"element": "H" 
			}
		],
		 "valence_orbital": [ 
			{
				"type": "occ",
				"energy": -0.28153,
				"method": "rhf"
			},
			{
				"type": "occ",
				"energy": -0.27053,
				"method": "rhf"
			},
			{
				"type": "occ",
				"energy": -0.22953,
				"method": "rhf"
			},
			{
				"type": "occ",
				"energy": -0.22469,
				"method": "rhf"
			},
			{
				"type": "occ",
				"energy": -0.21949,
				"method": "rhf"
			},
			{
				"type": "unocc",
				"energy": 0.00678,
				"method": "rhf"
			},
			{
				"type": "unocc",
				"energy": 0.00931,
				"method": "rhf"
			},
			{
				"type": "unocc",
				"energy": 0.01293,
				"method": "rhf"
			},
			{
				"type": "unocc",
				"energy": 0.03149,
				"method": "rhf"
			},
			{
				"type": "unocc",
				"energy": 0.07917,
				"method": "rhf"
			}
		],
		"cosmo_sigma_profile": { 
			"-0.025": 0.0,
			"-0.024": 0.0,
			"-0.023": 0.0,
			"-0.022": 0.0,
			"-0.021": 0.0,
			"-0.02": 0.0,
			"-0.019": 0.0,
			"-0.018": 0.370140244335,
			"-0.017": 1.04152998722,
			"-0.016": 0.97478315754,
			"-0.015": 0.704357433405,
			"-0.014": 0.645108837801,
			"-0.013": 0.654479954707,
			"-0.012": 0.335185306378,
			"-0.011": 0.959997911456,
			"-0.01": 1.15818308195,
			"-0.009": 0.416738167756,
			"-0.008": 0.247460263574,
			"-0.007": 1.21498918203,
			"-0.006": 0.70064301399,
			"-0.005": 2.5265574188,
			"-0.004": 18.4565475495,
			"-0.003": 50.6406721786,
			"-0.002": 55.7212712598,
			"-0.001": 56.9595163613,
			"0.0": 49.7144771317,
			"0.001": 34.9769259931,
			"0.002": 19.8046559974,
			"0.003": 12.4043259261,
			"0.004": 10.9621113518,
			"0.005": 11.1081930704,
			"0.006": 9.35658988649,
			"0.007": 8.81079141146,
			"0.008": 5.63736849872,
			"0.009": 3.0671409228,
			"0.01": 2.64719673336,
			"0.011": 2.68042258015,
			"0.012": 4.53005133413,
			"0.013": 0.382915225208,
			"0.014": 0.0,
			"0.015": 0.0,
			"0.016": 0.0,
			"0.017": 0.0,
			"0.018": 0.0,
			"0.019": 0.0,
			"0.02": 0.0,
			"0.021": 0.0,
			"0.022": 0.0,
			"0.023": 0.0,
			"0.024": 0.0,
			"0.025": 0.0
		}
	}
}
