{
	 "smiles": "O=C(NC1=CC=CC=C1)OCCC1=CC=C(CCOC(=O)NC2=CC=CC=C2)C=C1", 
	 "Tm": 486.15, 
	 "num_atms": 54, 
	 "gaussian": { 
		 "optdone": 1, 
		 "sigma_profile": "yes", 
		 "theory": "DFT", 
		 "functional": "B3LYP", 
		 "basiset": "6-31G**", 
		 "properties": { 
			 "R2extent": 14701.9595, 
			 "electric_dipole_moment_norm": 0.926006960017, 
			 "electric_quadrupole_moment_norm": 28.3452671859, 
			 "total_energy": -1339.48070805, 
			 "HOMO_LUMO_gap": 0.20773, 
			 "cosmo_polarized_energy": -20.22, 
			 "cosmo_cavitation_energy": 58.63, 
			 "cosmo_dispersion_energy": -37.06, 
			 "cosmo_repulsion_energy": 2.71, 
			 "cosmo_total_nonelectrostatic_energy": 24.28, 
			 "SMD_solvation_energy": 10.91 
		},
		"coords": [
			{
				"x": 0.8977895667,
				"y": 3.6118718095,
				"z": 1.6707936202,
				"element": "O" 
			},
			{
				"x": 0.5855925656,
				"y": 2.4376522605,
				"z": 1.5885651369,
				"element": "C" 
			},
			{
				"x": -0.6832319201,
				"y": 1.924113196,
				"z": 1.5092630607,
				"element": "N" 
			},
			{
				"x": -1.9090721705,
				"y": 2.6193595454,
				"z": 1.5670754847,
				"element": "C" 
			},
			{
				"x": -1.9993927728,
				"y": 4.019004318,
				"z": 1.6012742853,
				"element": "C" 
			},
			{
				"x": -3.2569887474,
				"y": 4.621160178,
				"z": 1.6534386546,
				"element": "C" 
			},
			{
				"x": -4.4261425452,
				"y": 3.8597588872,
				"z": 1.6707398823,
				"element": "C" 
			},
			{
				"x": -4.329384406,
				"y": 2.467365112,
				"z": 1.6367719063,
				"element": "C" 
			},
			{
				"x": -3.0828151522,
				"y": 1.8486757864,
				"z": 1.5869313674,
				"element": "C" 
			},
			{
				"x": 1.4716460131,
				"y": 1.4033995752,
				"z": 1.5619581782,
				"element": "O" 
			},
			{
				"x": 2.8635617078,
				"y": 1.7668362199,
				"z": 1.6416879575,
				"element": "C" 
			},
			{
				"x": 3.4563902626,
				"y": 2.0909272967,
				"z": 0.2645330012,
				"element": "C" 
			},
			{
				"x": 3.3941103033,
				"y": 0.9336412057,
				"z": -0.7073428083,
				"element": "C" 
			},
			{
				"x": 2.3679661929,
				"y": 0.8371369401,
				"z": -1.6534935081,
				"element": "C" 
			},
			{
				"x": 2.2840304947,
				"y": -0.2590715722,
				"z": -2.5138964485,
				"element": "C" 
			},
			{
				"x": 3.2222534107,
				"y": -1.2957052493,
				"z": -2.4549862704,
				"element": "C" 
			},
			{
				"x": 3.1114534492,
				"y": -2.5043824192,
				"z": -3.3615885071,
				"element": "C" 
			},
			{
				"x": 2.6727040762,
				"y": -3.7811445157,
				"z": -2.6479689398,
				"element": "C" 
			},
			{
				"x": 1.3462344558,
				"y": -3.562975429,
				"z": -2.1213387378,
				"element": "O" 
			},
			{
				"x": 0.7856850573,
				"y": -4.6409718553,
				"z": -1.5321148314,
				"element": "C" 
			},
			{
				"x": 1.3110833252,
				"y": -5.7370039917,
				"z": -1.4553122157,
				"element": "O" 
			},
			{
				"x": -0.4694997227,
				"y": -4.3903702113,
				"z": -1.0215499212,
				"element": "N" 
			},
			{
				"x": -1.2831430632,
				"y": -3.2371159953,
				"z": -1.0027980073,
				"element": "C" 
			},
			{
				"x": -0.7828189284,
				"y": -1.9293719898,
				"z": -1.0919826449,
				"element": "C" 
			},
			{
				"x": -1.6651037719,
				"y": -0.8495408029,
				"z": -1.0417867336,
				"element": "C" 
			},
			{
				"x": -3.0394516563,
				"y": -1.0423661745,
				"z": -0.8851505545,
				"element": "C" 
			},
			{
				"x": -3.5318264838,
				"y": -2.3443774459,
				"z": -0.7758490663,
				"element": "C" 
			},
			{
				"x": -2.6644492462,
				"y": -3.4319103758,
				"z": -0.8377287658,
				"element": "C" 
			},
			{
				"x": 4.2617035182,
				"y": -1.1900832855,
				"z": -1.5204097112,
				"element": "C" 
			},
			{
				"x": 4.3450861,
				"y": -0.0957079194,
				"z": -0.6622962393,
				"element": "C" 
			},
			{
				"x": -0.7329171657,
				"y": 0.9159497036,
				"z": 1.4538387699,
				"element": "H" 
			},
			{
				"x": -1.095766413,
				"y": 4.612187064,
				"z": 1.5913142005,
				"element": "H" 
			},
			{
				"x": -3.3164000689,
				"y": 5.7056719629,
				"z": 1.6806857373,
				"element": "H" 
			},
			{
				"x": -5.3975969647,
				"y": 4.342703281,
				"z": 1.7115704224,
				"element": "H" 
			},
			{
				"x": -5.2267250856,
				"y": 1.8551970733,
				"z": 1.6534034328,
				"element": "H" 
			},
			{
				"x": -3.0144604302,
				"y": 0.7641889705,
				"z": 1.559059477,
				"element": "H" 
			},
			{
				"x": 2.9710630401,
				"y": 2.6237449931,
				"z": 2.3108741373,
				"element": "H" 
			},
			{
				"x": 3.3496721799,
				"y": 0.8920545465,
				"z": 2.0806477237,
				"element": "H" 
			},
			{
				"x": 4.4990551516,
				"y": 2.3924311523,
				"z": 0.4279140937,
				"element": "H" 
			},
			{
				"x": 2.9329399909,
				"y": 2.9640519886,
				"z": -0.1371444596,
				"element": "H" 
			},
			{
				"x": 1.6278476673,
				"y": 1.6304648924,
				"z": -1.721834214,
				"element": "H" 
			},
			{
				"x": 1.4763981228,
				"y": -0.3109061444,
				"z": -3.2396464393,
				"element": "H" 
			},
			{
				"x": 2.4110590395,
				"y": -2.2984767815,
				"z": -4.1780316146,
				"element": "H" 
			},
			{
				"x": 4.0831026348,
				"y": -2.7193323529,
				"z": -3.8247856321,
				"element": "H" 
			},
			{
				"x": 3.3445831057,
				"y": -4.0344510726,
				"z": -1.8217661695,
				"element": "H" 
			},
			{
				"x": 2.6495823154,
				"y": -4.6322616639,
				"z": -3.3345001008,
				"element": "H" 
			},
			{
				"x": -0.8918738246,
				"y": -5.241047013,
				"z": -0.6774983146,
				"element": "H" 
			},
			{
				"x": 0.278464901,
				"y": -1.7586621926,
				"z": -1.2033509234,
				"element": "H" 
			},
			{
				"x": -1.2644132252,
				"y": 0.1573272565,
				"z": -1.1242949384,
				"element": "H" 
			},
			{
				"x": -3.7124492779,
				"y": -0.1916138237,
				"z": -0.8499945576,
				"element": "H" 
			},
			{
				"x": -4.5967039363,
				"y": -2.5190958979,
				"z": -0.6516980212,
				"element": "H" 
			},
			{
				"x": -3.0569037679,
				"y": -4.4436360507,
				"z": -0.767020168,
				"element": "H" 
			},
			{
				"x": 5.0179776738,
				"y": -1.9701800448,
				"z": -1.4657019195,
				"element": "H" 
			},
			{
				"x": 5.1649944243,
				"y": -0.0374129447,
				"z": 0.0504208539,
				"element": "H" 
			}
		],
		 "valence_orbital": [ 
			{
				"type": "occ",
				"energy": -0.25334,
				"method": "rhf"
			},
			{
				"type": "occ",
				"energy": -0.24909,
				"method": "rhf"
			},
			{
				"type": "occ",
				"energy": -0.24029,
				"method": "rhf"
			},
			{
				"type": "occ",
				"energy": -0.22236,
				"method": "rhf"
			},
			{
				"type": "occ",
				"energy": -0.21789,
				"method": "rhf"
			},
			{
				"type": "unocc",
				"energy": -0.01016,
				"method": "rhf"
			},
			{
				"type": "unocc",
				"energy": -0.00846,
				"method": "rhf"
			},
			{
				"type": "unocc",
				"energy": -0.00715,
				"method": "rhf"
			},
			{
				"type": "unocc",
				"energy": -0.00549,
				"method": "rhf"
			},
			{
				"type": "unocc",
				"energy": -0.00206,
				"method": "rhf"
			}
		],
		"cosmo_sigma_profile": { 
			"-0.025": 0.0,
			"-0.024": 0.0,
			"-0.023": 0.0,
			"-0.022": 0.0,
			"-0.021": 0.0,
			"-0.02": 0.0,
			"-0.019": 0.0,
			"-0.018": 0.0,
			"-0.017": 0.0,
			"-0.016": 0.0,
			"-0.015": 0.362611098987,
			"-0.014": 0.970043596973,
			"-0.013": 1.63849765507,
			"-0.012": 1.45721837812,
			"-0.011": 1.98400834819,
			"-0.01": 2.06284697867,
			"-0.009": 1.91928424997,
			"-0.008": 2.71709172947,
			"-0.007": 2.41930287636,
			"-0.006": 12.618069072,
			"-0.005": 44.7206668097,
			"-0.004": 48.676397258,
			"-0.003": 43.3428646426,
			"-0.002": 37.463026015,
			"-0.001": 36.4237859385,
			"0.0": 32.9990925463,
			"0.001": 27.8496250638,
			"0.002": 26.7404850242,
			"0.003": 27.998867612,
			"0.004": 28.4255537574,
			"0.005": 29.3631238963,
			"0.006": 23.1401204264,
			"0.007": 6.47707437383,
			"0.008": 3.03743946889,
			"0.009": 2.50745903124,
			"0.01": 2.90321030843,
			"0.011": 4.25175276855,
			"0.012": 5.75924139212,
			"0.013": 5.89173453761,
			"0.014": 0.378579080318,
			"0.015": 0.0,
			"0.016": 0.0,
			"0.017": 0.0,
			"0.018": 0.0,
			"0.019": 0.0,
			"0.02": 0.0,
			"0.021": 0.0,
			"0.022": 0.0,
			"0.023": 0.0,
			"0.024": 0.0,
			"0.025": 0.0
		}
	}
}
