{
	 "smiles": "OC1=C(C=O)C=CC=C1OC(F)(F)F", 
	 "Tm": 332.15, 
	 "num_atms": 19, 
	 "gaussian": { 
		 "optdone": 1, 
		 "sigma_profile": "yes", 
		 "theory": "DFT", 
		 "functional": "B3LYP", 
		 "basiset": "6-31G**", 
		 "properties": { 
			 "R2extent": 3319.8747, 
			 "electric_dipole_moment_norm": 3.69008840816, 
			 "electric_quadrupole_moment_norm": 5.21594525086, 
			 "total_energy": -833.052256957, 
			 "HOMO_LUMO_gap": 0.15812, 
			 "cosmo_polarized_energy": -8.1, 
			 "cosmo_cavitation_energy": 25.27, 
			 "cosmo_dispersion_energy": -18.5, 
			 "cosmo_repulsion_energy": 1.38, 
			 "cosmo_total_nonelectrostatic_energy": 8.15, 
			 "SMD_solvation_energy": 7.2 
		},
		"coords": [
			{
				"x": 1.0477093706,
				"y": 1.3349578361,
				"z": -0.4974848524,
				"element": "O" 
			},
			{
				"x": -0.0107959333,
				"y": 0.7115512975,
				"z": 0.0229724359,
				"element": "C" 
			},
			{
				"x": -0.3544273526,
				"y": 0.8070449965,
				"z": 1.394841635,
				"element": "C" 
			},
			{
				"x": 0.4741282512,
				"y": 1.6148745966,
				"z": 2.2768453814,
				"element": "C" 
			},
			{
				"x": 1.475435103,
				"y": 2.2367792837,
				"z": 1.9114929882,
				"element": "O" 
			},
			{
				"x": -1.4833349288,
				"y": 0.1279635522,
				"z": 1.8940521102,
				"element": "C" 
			},
			{
				"x": -2.2655599205,
				"y": -0.6373081575,
				"z": 1.0496389713,
				"element": "C" 
			},
			{
				"x": -1.9343591193,
				"y": -0.7392950551,
				"z": -0.3130742665,
				"element": "C" 
			},
			{
				"x": -0.8253923567,
				"y": -0.0763078068,
				"z": -0.8194903205,
				"element": "C" 
			},
			{
				"x": -0.3992981427,
				"y": -0.1015754448,
				"z": -2.1426489209,
				"element": "O" 
			},
			{
				"x": -1.0734499665,
				"y": -0.8091231055,
				"z": -3.0809104228,
				"element": "C" 
			},
			{
				"x": -1.1202181935,
				"y": -2.1272465579,
				"z": -2.7987187552,
				"element": "F" 
			},
			{
				"x": -0.4379049942,
				"y": -0.6454808078,
				"z": -4.2369802796,
				"element": "F" 
			},
			{
				"x": -2.3470327115,
				"y": -0.3899630001,
				"z": -3.2270495734,
				"element": "F" 
			},
			{
				"x": 1.4804033933,
				"y": 1.8262194063,
				"z": 0.2467903454,
				"element": "H" 
			},
			{
				"x": 0.1613369774,
				"y": 1.6544521482,
				"z": 3.3379114888,
				"element": "H" 
			},
			{
				"x": -1.725836142,
				"y": 0.216984954,
				"z": 2.9497164344,
				"element": "H" 
			},
			{
				"x": -3.1365458273,
				"y": -1.1639730047,
				"z": 1.423698042,
				"element": "H" 
			},
			{
				"x": -2.5521575065,
				"y": -1.3407551309,
				"z": -0.9669024413,
				"element": "H" 
			}
		],
		 "valence_orbital": [ 
			{
				"type": "occ",
				"energy": -0.37046,
				"method": "rhf"
			},
			{
				"type": "occ",
				"energy": -0.35413,
				"method": "rhf"
			},
			{
				"type": "occ",
				"energy": -0.28196,
				"method": "rhf"
			},
			{
				"type": "occ",
				"energy": -0.27437,
				"method": "rhf"
			},
			{
				"type": "occ",
				"energy": -0.23888,
				"method": "rhf"
			},
			{
				"type": "unocc",
				"energy": -0.08076,
				"method": "rhf"
			},
			{
				"type": "unocc",
				"energy": -0.0126,
				"method": "rhf"
			},
			{
				"type": "unocc",
				"energy": 0.02286,
				"method": "rhf"
			},
			{
				"type": "unocc",
				"energy": 0.07286,
				"method": "rhf"
			},
			{
				"type": "unocc",
				"energy": 0.09996,
				"method": "rhf"
			}
		],
		"cosmo_sigma_profile": { 
			"-0.025": 0.0,
			"-0.024": 0.0,
			"-0.023": 0.0,
			"-0.022": 0.0,
			"-0.021": 0.0,
			"-0.02": 0.0,
			"-0.019": 0.0,
			"-0.018": 0.0,
			"-0.017": 0.0,
			"-0.016": 0.0,
			"-0.015": 0.0,
			"-0.014": 0.0,
			"-0.013": 0.0,
			"-0.012": 0.0,
			"-0.011": 0.0,
			"-0.01": 0.0765290790161,
			"-0.009": 1.81948734437,
			"-0.008": 6.6630463179,
			"-0.007": 7.97511113365,
			"-0.006": 8.55951422183,
			"-0.005": 9.28142406459,
			"-0.004": 9.79266309104,
			"-0.003": 10.2097601337,
			"-0.002": 12.0736159029,
			"-0.001": 18.9017601453,
			"0.0": 21.3234330772,
			"0.001": 30.2636105568,
			"0.002": 30.4097216892,
			"0.003": 8.10446347566,
			"0.004": 4.04769953628,
			"0.005": 3.05555615587,
			"0.006": 3.30198183767,
			"0.007": 3.02029660993,
			"0.008": 2.866061659,
			"0.009": 3.95516546217,
			"0.01": 3.62431769006,
			"0.011": 3.41299593735,
			"0.012": 1.13892553446,
			"0.013": 0.0,
			"0.014": 0.0,
			"0.015": 0.0,
			"0.016": 0.0,
			"0.017": 0.0,
			"0.018": 0.0,
			"0.019": 0.0,
			"0.02": 0.0,
			"0.021": 0.0,
			"0.022": 0.0,
			"0.023": 0.0,
			"0.024": 0.0,
			"0.025": 0.0
		}
	}
}
