{
	 "smiles": "OCC1=CC2=NON=C2C=C1", 
	 "Tm": 339.65, 
	 "num_atms": 17, 
	 "gaussian": { 
		 "optdone": 1, 
		 "sigma_profile": "yes", 
		 "theory": "DFT", 
		 "functional": "B3LYP", 
		 "basiset": "6-31G**", 
		 "properties": { 
			 "R2extent": 2234.2831, 
			 "electric_dipole_moment_norm": 3.25580044382, 
			 "electric_quadrupole_moment_norm": 17.1435619306, 
			 "total_energy": -530.202011751, 
			 "HOMO_LUMO_gap": 0.16261, 
			 "cosmo_polarized_energy": -11.47, 
			 "cosmo_cavitation_energy": 21.81, 
			 "cosmo_dispersion_energy": -16.38, 
			 "cosmo_repulsion_energy": 1.31, 
			 "cosmo_total_nonelectrostatic_energy": 6.73, 
			 "SMD_solvation_energy": 3.02 
		},
		"coords": [
			{
				"x": -1.0218694122,
				"y": -2.3144329423,
				"z": 0.0682954159,
				"element": "O" 
			},
			{
				"x": -0.2121170696,
				"y": -1.7039919301,
				"z": -0.9267898708,
				"element": "C" 
			},
			{
				"x": -0.0190524558,
				"y": -0.216903608,
				"z": -0.705843896,
				"element": "C" 
			},
			{
				"x": 1.2093594683,
				"y": 0.3694330259,
				"z": -0.8669799756,
				"element": "C" 
			},
			{
				"x": 1.2967730276,
				"y": 1.7795335175,
				"z": -0.6728140813,
				"element": "C" 
			},
			{
				"x": 2.3355112605,
				"y": 2.5928274853,
				"z": -0.7648622817,
				"element": "N" 
			},
			{
				"x": 1.8309843111,
				"y": 3.8306805727,
				"z": -0.4695173269,
				"element": "O" 
			},
			{
				"x": 0.4915086582,
				"y": 3.8169298098,
				"z": -0.1902024018,
				"element": "N" 
			},
			{
				"x": 0.1393489767,
				"y": 2.548505454,
				"z": -0.311078538,
				"element": "C" 
			},
			{
				"x": -1.1284716223,
				"y": 1.9165062905,
				"z": -0.1365842581,
				"element": "C" 
			},
			{
				"x": -1.1788169963,
				"y": 0.5655230679,
				"z": -0.3328287465,
				"element": "C" 
			},
			{
				"x": -0.5741203978,
				"y": -2.2109289161,
				"z": 0.9187276299,
				"element": "H" 
			},
			{
				"x": -0.746432135,
				"y": -1.8700135138,
				"z": -1.8697719909,
				"element": "H" 
			},
			{
				"x": 0.7672742784,
				"y": -2.1961750079,
				"z": -1.0201689432,
				"element": "H" 
			},
			{
				"x": 2.0908423969,
				"y": -0.2041290351,
				"z": -1.134625183,
				"element": "H" 
			},
			{
				"x": -2.0018125765,
				"y": 2.495550376,
				"z": 0.1413612483,
				"element": "H" 
			},
			{
				"x": -2.1128097123,
				"y": 0.0294853537,
				"z": -0.1976168003,
				"element": "H" 
			}
		],
		 "valence_orbital": [ 
			{
				"type": "occ",
				"energy": -0.33655,
				"method": "rhf"
			},
			{
				"type": "occ",
				"energy": -0.31992,
				"method": "rhf"
			},
			{
				"type": "occ",
				"energy": -0.30183,
				"method": "rhf"
			},
			{
				"type": "occ",
				"energy": -0.28301,
				"method": "rhf"
			},
			{
				"type": "occ",
				"energy": -0.25249,
				"method": "rhf"
			},
			{
				"type": "unocc",
				"energy": -0.08988,
				"method": "rhf"
			},
			{
				"type": "unocc",
				"energy": -0.00509,
				"method": "rhf"
			},
			{
				"type": "unocc",
				"energy": 0.0039,
				"method": "rhf"
			},
			{
				"type": "unocc",
				"energy": 0.0723,
				"method": "rhf"
			},
			{
				"type": "unocc",
				"energy": 0.08921,
				"method": "rhf"
			}
		],
		"cosmo_sigma_profile": { 
			"-0.025": 0.0,
			"-0.024": 0.0,
			"-0.023": 0.0,
			"-0.022": 0.0,
			"-0.021": 0.0,
			"-0.02": 0.0,
			"-0.019": 0.0,
			"-0.018": 0.0,
			"-0.017": 0.0502388668152,
			"-0.016": 0.759649017139,
			"-0.015": 1.0104019056,
			"-0.014": 0.963313508484,
			"-0.013": 0.883007117468,
			"-0.012": 0.993141580421,
			"-0.011": 0.610534126081,
			"-0.01": 0.70903479553,
			"-0.009": 1.05513827698,
			"-0.008": 5.05755076681,
			"-0.007": 6.16542332955,
			"-0.006": 10.8500163114,
			"-0.005": 10.5767226632,
			"-0.004": 10.009620901,
			"-0.003": 12.2842326767,
			"-0.002": 11.2668234273,
			"-0.001": 13.5014023225,
			"0.0": 15.4030037849,
			"0.001": 12.4959363629,
			"0.002": 7.95596802489,
			"0.003": 5.00113208716,
			"0.004": 4.96707524138,
			"0.005": 10.4811402282,
			"0.006": 6.74729674356,
			"0.007": 4.30848494833,
			"0.008": 4.44308601122,
			"0.009": 3.09011769192,
			"0.01": 4.21752067945,
			"0.011": 3.38928510933,
			"0.012": 2.63102296044,
			"0.013": 1.978603745,
			"0.014": 0.966908813412,
			"0.015": 0.0,
			"0.016": 0.0,
			"0.017": 0.0,
			"0.018": 0.0,
			"0.019": 0.0,
			"0.02": 0.0,
			"0.021": 0.0,
			"0.022": 0.0,
			"0.023": 0.0,
			"0.024": 0.0,
			"0.025": 0.0
		}
	}
}
