{
	 "smiles": "NC1=NN(CC2=CC=CC=C2)C=N1", 
	 "Tm": 404.15, 
	 "num_atms": 23, 
	 "gaussian": { 
		 "optdone": 1, 
		 "sigma_profile": "yes", 
		 "theory": "DFT", 
		 "functional": "B3LYP", 
		 "basiset": "6-31G**", 
		 "properties": { 
			 "R2extent": 3045.7675, 
			 "electric_dipole_moment_norm": 2.29505329132, 
			 "electric_quadrupole_moment_norm": 12.7461246259, 
			 "total_energy": -567.981038783, 
			 "HOMO_LUMO_gap": 0.19844, 
			 "cosmo_polarized_energy": -14.26, 
			 "cosmo_cavitation_energy": 27.42, 
			 "cosmo_dispersion_energy": -19.91, 
			 "cosmo_repulsion_energy": 1.59, 
			 "cosmo_total_nonelectrostatic_energy": 9.1, 
			 "SMD_solvation_energy": 2.25 
		},
		"coords": [
			{
				"x": 0.8557930363,
				"y": -4.6241624195,
				"z": 0.7840920846,
				"element": "N" 
			},
			{
				"x": 0.8915997642,
				"y": -3.3604356247,
				"z": 0.2256446518,
				"element": "C" 
			},
			{
				"x": -0.1887481837,
				"y": -2.5910279032,
				"z": 0.1102840603,
				"element": "N" 
			},
			{
				"x": 0.3113675988,
				"y": -1.5012926785,
				"z": -0.5569185212,
				"element": "N" 
			},
			{
				"x": -0.5362951174,
				"y": -0.3499329043,
				"z": -0.8369001949,
				"element": "C" 
			},
			{
				"x": -0.6439562827,
				"y": 0.6386558288,
				"z": 0.3114864424,
				"element": "C" 
			},
			{
				"x": -1.0523146288,
				"y": 0.2155394282,
				"z": 1.5840320362,
				"element": "C" 
			},
			{
				"x": -1.1677014525,
				"y": 1.1346184492,
				"z": 2.6258728632,
				"element": "C" 
			},
			{
				"x": -0.8842355865,
				"y": 2.486093527,
				"z": 2.4093793408,
				"element": "C" 
			},
			{
				"x": -0.4801431411,
				"y": 2.9137277325,
				"z": 1.1449058032,
				"element": "C" 
			},
			{
				"x": -0.3581263585,
				"y": 1.991657945,
				"z": 0.1026790372,
				"element": "C" 
			},
			{
				"x": 1.627631204,
				"y": -1.6755440353,
				"z": -0.7782365754,
				"element": "C" 
			},
			{
				"x": 2.038493005,
				"y": -2.8420757087,
				"z": -0.3059009789,
				"element": "N" 
			},
			{
				"x": 1.7524087603,
				"y": -4.9241347658,
				"z": 1.1404403996,
				"element": "H" 
			},
			{
				"x": 0.0956069724,
				"y": -4.7662939714,
				"z": 1.4343260841,
				"element": "H" 
			},
			{
				"x": -0.1343337995,
				"y": 0.1471414042,
				"z": -1.7244883091,
				"element": "H" 
			},
			{
				"x": -1.5197183775,
				"y": -0.7516522204,
				"z": -1.0994772469,
				"element": "H" 
			},
			{
				"x": -1.2649945529,
				"y": -0.8364795497,
				"z": 1.7485008745,
				"element": "H" 
			},
			{
				"x": -1.4821865858,
				"y": 0.7966330131,
				"z": 3.6092975745,
				"element": "H" 
			},
			{
				"x": -0.9772258693,
				"y": 3.2000208787,
				"z": 3.222743298,
				"element": "H" 
			},
			{
				"x": -0.2547551038,
				"y": 3.961608895,
				"z": 0.968369121,
				"element": "H" 
			},
			{
				"x": -0.0390286894,
				"y": 2.3292558735,
				"z": -0.8808756715,
				"element": "H" 
			},
			{
				"x": 2.2413633883,
				"y": -0.9431211938,
				"z": -1.2852561735,
				"element": "H" 
			}
		],
		 "valence_orbital": [ 
			{
				"type": "occ",
				"energy": -0.27443,
				"method": "rhf"
			},
			{
				"type": "occ",
				"energy": -0.26695,
				"method": "rhf"
			},
			{
				"type": "occ",
				"energy": -0.25419,
				"method": "rhf"
			},
			{
				"type": "occ",
				"energy": -0.25029,
				"method": "rhf"
			},
			{
				"type": "occ",
				"energy": -0.20878,
				"method": "rhf"
			},
			{
				"type": "unocc",
				"energy": -0.01034,
				"method": "rhf"
			},
			{
				"type": "unocc",
				"energy": -0.00495,
				"method": "rhf"
			},
			{
				"type": "unocc",
				"energy": 0.01908,
				"method": "rhf"
			},
			{
				"type": "unocc",
				"energy": 0.07511,
				"method": "rhf"
			},
			{
				"type": "unocc",
				"energy": 0.09016,
				"method": "rhf"
			}
		],
		"cosmo_sigma_profile": { 
			"-0.025": 0.0,
			"-0.024": 0.0,
			"-0.023": 0.0,
			"-0.022": 0.0,
			"-0.021": 0.0,
			"-0.02": 0.0,
			"-0.019": 0.0,
			"-0.018": 0.0,
			"-0.017": 0.0,
			"-0.016": 0.0,
			"-0.015": 0.0,
			"-0.014": 0.0192687417487,
			"-0.013": 1.29515903417,
			"-0.012": 2.49033862957,
			"-0.011": 2.17466110575,
			"-0.01": 3.74595384521,
			"-0.009": 4.98734378819,
			"-0.008": 4.80257051483,
			"-0.007": 8.3465181637,
			"-0.006": 11.1906136076,
			"-0.005": 14.533694347,
			"-0.004": 16.4517163714,
			"-0.003": 14.6074024013,
			"-0.002": 10.6646599943,
			"-0.001": 12.6373215634,
			"0.0": 11.139253015,
			"0.001": 11.936970617,
			"0.002": 12.5682310246,
			"0.003": 14.2273816702,
			"0.004": 12.3147373715,
			"0.005": 13.3815508928,
			"0.006": 9.2047934809,
			"0.007": 3.84324847216,
			"0.008": 4.33555229449,
			"0.009": 2.36490214669,
			"0.01": 2.32573277367,
			"0.011": 3.02489760168,
			"0.012": 2.43157729208,
			"0.013": 2.49406037944,
			"0.014": 2.52235737558,
			"0.015": 1.16877710916,
			"0.016": 1.13379660115,
			"0.017": 0.450607298778,
			"0.018": 0.0,
			"0.019": 0.0,
			"0.02": 0.0,
			"0.021": 0.0,
			"0.022": 0.0,
			"0.023": 0.0,
			"0.024": 0.0,
			"0.025": 0.0
		}
	}
}
