{
	 "smiles": "C[N+](C)(C)C[C@@H](CC(=O)OCC1=CC=CC=C1)OC(=O)C=CC1=CC=CC=C1", 
	 "Tm": 364.0, 
	 "num_atms": 56, 
	 "gaussian": { 
		 "optdone": 1, 
		 "sigma_profile": "yes", 
		 "theory": "DFT", 
		 "functional": "B3LYP", 
		 "basiset": "6-31G**", 
		 "properties": { 
			 "R2extent": 12961.2679, 
			 "electric_dipole_moment_norm": 6.62844392373, 
			 "electric_quadrupole_moment_norm": 31.2344169467, 
			 "total_energy": -1248.75599609, 
			 "HOMO_LUMO_gap": 0.16253, 
			 "cosmo_polarized_energy": -55.74, 
			 "cosmo_cavitation_energy": 57.44, 
			 "cosmo_dispersion_energy": -35.66, 
			 "cosmo_repulsion_energy": 2.69, 
			 "cosmo_total_nonelectrostatic_energy": 24.47, 
			 "SMD_solvation_energy": 11.65 
		},
		"coords": [
			{
				"x": -3.7446275381,
				"y": 0.6561280253,
				"z": 0.4147232456,
				"element": "C" 
			},
			{
				"x": -2.4307129198,
				"y": 0.0485155198,
				"z": 0.8381814148,
				"element": "N" 
			},
			{
				"x": -2.3690419394,
				"y": 0.0122426069,
				"z": 2.3447468458,
				"element": "C" 
			},
			{
				"x": -2.3610719089,
				"y": -1.3612357001,
				"z": 0.2941639613,
				"element": "C" 
			},
			{
				"x": -1.3221717923,
				"y": 0.9215471216,
				"z": 0.2453018517,
				"element": "C" 
			},
			{
				"x": 0.1263397238,
				"y": 0.4493510983,
				"z": 0.463639727,
				"element": "C" 
			},
			{
				"x": 0.9752961986,
				"y": 0.670626517,
				"z": -0.8080330159,
				"element": "C" 
			},
			{
				"x": 0.5051895262,
				"y": -0.2670090574,
				"z": -1.9086740332,
				"element": "C" 
			},
			{
				"x": -0.5977159674,
				"y": -0.1961111684,
				"z": -2.4276835605,
				"element": "O" 
			},
			{
				"x": 1.4105966881,
				"y": -1.2063985003,
				"z": -2.1805911296,
				"element": "O" 
			},
			{
				"x": 0.9921938293,
				"y": -2.2768477971,
				"z": -3.0908855402,
				"element": "C" 
			},
			{
				"x": 0.0858327756,
				"y": -3.2571337557,
				"z": -2.388197584,
				"element": "C" 
			},
			{
				"x": 0.5454847811,
				"y": -3.95819017,
				"z": -1.263557045,
				"element": "C" 
			},
			{
				"x": -0.2909244321,
				"y": -4.8569695215,
				"z": -0.6009852062,
				"element": "C" 
			},
			{
				"x": -1.5932674675,
				"y": -5.0722431727,
				"z": -1.0630402174,
				"element": "C" 
			},
			{
				"x": -2.0553395755,
				"y": -4.3828076301,
				"z": -2.186343253,
				"element": "C" 
			},
			{
				"x": -1.2209544563,
				"y": -3.4732240891,
				"z": -2.8413605215,
				"element": "C" 
			},
			{
				"x": 0.7385481285,
				"y": 1.2112891583,
				"z": 1.5163034345,
				"element": "O" 
			},
			{
				"x": 1.1107365613,
				"y": 0.5319034862,
				"z": 2.6504638435,
				"element": "C" 
			},
			{
				"x": 0.7190693723,
				"y": -0.6053742447,
				"z": 2.8679993893,
				"element": "O" 
			},
			{
				"x": 2.0303684443,
				"y": 1.2376861351,
				"z": 3.5450179784,
				"element": "C" 
			},
			{
				"x": 2.6419321266,
				"y": 2.4433480143,
				"z": 3.45409298,
				"element": "C" 
			},
			{
				"x": 2.5055293721,
				"y": 3.5872152725,
				"z": 2.5451866648,
				"element": "C" 
			},
			{
				"x": 1.2762187255,
				"y": 4.0418982955,
				"z": 2.0340643295,
				"element": "C" 
			},
			{
				"x": 1.2209455464,
				"y": 5.1732649514,
				"z": 1.2246004074,
				"element": "C" 
			},
			{
				"x": 2.39058029,
				"y": 5.8660777334,
				"z": 0.8993479315,
				"element": "C" 
			},
			{
				"x": 3.6165478754,
				"y": 5.4374097123,
				"z": 1.4127768775,
				"element": "C" 
			},
			{
				"x": 3.6691724611,
				"y": 4.3233196732,
				"z": 2.2461191113,
				"element": "C" 
			},
			{
				"x": -3.792055011,
				"y": 1.6846782976,
				"z": 0.7736572087,
				"element": "H" 
			},
			{
				"x": -4.5574118261,
				"y": 0.0740373639,
				"z": 0.8497304214,
				"element": "H" 
			},
			{
				"x": -3.8108759076,
				"y": 0.6356862159,
				"z": -0.6733604365,
				"element": "H" 
			},
			{
				"x": -1.4199047102,
				"y": -0.4259493473,
				"z": 2.655502967,
				"element": "H" 
			},
			{
				"x": -3.2030526807,
				"y": -0.5897661708,
				"z": 2.7078242624,
				"element": "H" 
			},
			{
				"x": -2.4582832264,
				"y": 1.0321974167,
				"z": 2.7214304792,
				"element": "H" 
			},
			{
				"x": -1.4981154275,
				"y": -1.8748137981,
				"z": 0.7143188828,
				"element": "H" 
			},
			{
				"x": -3.2696407491,
				"y": -1.8846745119,
				"z": 0.5924996515,
				"element": "H" 
			},
			{
				"x": -2.2785483034,
				"y": -1.3221352486,
				"z": -0.7918948908,
				"element": "H" 
			},
			{
				"x": -1.5307283671,
				"y": 0.9547037628,
				"z": -0.8246963871,
				"element": "H" 
			},
			{
				"x": -1.4464987527,
				"y": 1.916843897,
				"z": 0.6768889343,
				"element": "H" 
			},
			{
				"x": 0.1690657394,
				"y": -0.6051808605,
				"z": 0.743299974,
				"element": "H" 
			},
			{
				"x": 2.0202811145,
				"y": 0.4770201814,
				"z": -0.5649514528,
				"element": "H" 
			},
			{
				"x": 0.8811218491,
				"y": 1.7066447473,
				"z": -1.1481674955,
				"element": "H" 
			},
			{
				"x": 0.5075658439,
				"y": -1.8309909846,
				"z": -3.9608506231,
				"element": "H" 
			},
			{
				"x": 1.9380524169,
				"y": -2.7316664872,
				"z": -3.3893467943,
				"element": "H" 
			},
			{
				"x": 1.561846465,
				"y": -3.8032791168,
				"z": -0.9108507173,
				"element": "H" 
			},
			{
				"x": 0.0778190671,
				"y": -5.4026508629,
				"z": 0.2625040168,
				"element": "H" 
			},
			{
				"x": -2.2378484568,
				"y": -5.7860860661,
				"z": -0.5585470398,
				"element": "H" 
			},
			{
				"x": -3.0608985492,
				"y": -4.5575459774,
				"z": -2.5578840116,
				"element": "H" 
			},
			{
				"x": -1.5829255795,
				"y": -2.9312109644,
				"z": -3.7105272234,
				"element": "H" 
			},
			{
				"x": 2.3144627197,
				"y": 0.5953297993,
				"z": 4.3724149286,
				"element": "H" 
			},
			{
				"x": 3.4086962722,
				"y": 2.5973282995,
				"z": 4.2138988235,
				"element": "H" 
			},
			{
				"x": 0.3643117987,
				"y": 3.5246702278,
				"z": 2.3059566579,
				"element": "H" 
			},
			{
				"x": 0.2625815754,
				"y": 5.5279781035,
				"z": 0.8564006583,
				"element": "H" 
			},
			{
				"x": 2.3432979043,
				"y": 6.7471536586,
				"z": 0.2666708794,
				"element": "H" 
			},
			{
				"x": 4.5265579671,
				"y": 5.9811580565,
				"z": 1.1794889847,
				"element": "H" 
			},
			{
				"x": 4.6212723849,
				"y": 4.0063418548,
				"z": 2.6631104541,
				"element": "H" 
			}
		],
		 "valence_orbital": [ 
			{
				"type": "occ",
				"energy": -0.38775,
				"method": "rhf"
			},
			{
				"type": "occ",
				"energy": -0.34597,
				"method": "rhf"
			},
			{
				"type": "occ",
				"energy": -0.34374,
				"method": "rhf"
			},
			{
				"type": "occ",
				"energy": -0.34195,
				"method": "rhf"
			},
			{
				"type": "occ",
				"energy": -0.32886,
				"method": "rhf"
			},
			{
				"type": "unocc",
				"energy": -0.16633,
				"method": "rhf"
			},
			{
				"type": "unocc",
				"energy": -0.11397,
				"method": "rhf"
			},
			{
				"type": "unocc",
				"energy": -0.1056,
				"method": "rhf"
			},
			{
				"type": "unocc",
				"energy": -0.09708,
				"method": "rhf"
			},
			{
				"type": "unocc",
				"energy": -0.09159,
				"method": "rhf"
			}
		],
		"cosmo_sigma_profile": { 
			"-0.025": 0.0,
			"-0.024": 0.0,
			"-0.023": 0.0,
			"-0.022": 0.0,
			"-0.021": 0.0,
			"-0.02": 0.0,
			"-0.019": 0.0,
			"-0.018": 0.0,
			"-0.017": 0.0,
			"-0.016": 0.0,
			"-0.015": 0.0,
			"-0.014": 0.122629880523,
			"-0.013": 1.02274675262,
			"-0.012": 2.00421198106,
			"-0.011": 3.35564633247,
			"-0.01": 5.38690400763,
			"-0.009": 11.1649237632,
			"-0.008": 16.2322063281,
			"-0.007": 33.1036871894,
			"-0.006": 46.2886519204,
			"-0.005": 49.244213597,
			"-0.004": 45.787377695,
			"-0.003": 32.6487157594,
			"-0.002": 23.859550675,
			"-0.001": 27.1380208103,
			"0.0": 28.9780085648,
			"0.001": 29.7311462796,
			"0.002": 21.9686358929,
			"0.003": 18.1085175011,
			"0.004": 19.0329653244,
			"0.005": 16.4194138937,
			"0.006": 4.63002050584,
			"0.007": 2.72157985719,
			"0.008": 2.79059424156,
			"0.009": 2.92216955961,
			"0.01": 3.06862630102,
			"0.011": 3.79640917969,
			"0.012": 1.71202329428,
			"0.013": 0.156503986148,
			"0.014": 0.0,
			"0.015": 0.0,
			"0.016": 0.0,
			"0.017": 0.0,
			"0.018": 0.0,
			"0.019": 0.0,
			"0.02": 0.0,
			"0.021": 0.0,
			"0.022": 0.0,
			"0.023": 0.0,
			"0.024": 0.0,
			"0.025": 0.0
		}
	}
}
