{
	 "smiles": "OC(=O)C(CC1=CC=C(Br)C=C1)NC(=O)OCC1C2=C(C=CC=C2)C2=C1C=CC=C2", 
	 "Tm": 425.15, 
	 "num_atms": 50, 
	 "gaussian": { 
		 "optdone": 1, 
		 "sigma_profile": "yes", 
		 "theory": "DFT", 
		 "functional": "B3LYP", 
		 "basiset": "6-31G**", 
		 "properties": { 
			 "R2extent": 16701.4732, 
			 "electric_dipole_moment_norm": 6.68112862546, 
			 "electric_quadrupole_moment_norm": 30.2525618153, 
			 "total_energy": -3853.71307588, 
			 "HOMO_LUMO_gap": 0.18382, 
			 "cosmo_polarized_energy": -22.76, 
			 "cosmo_cavitation_energy": 56.54, 
			 "cosmo_dispersion_energy": -36.03, 
			 "cosmo_repulsion_energy": 2.68, 
			 "cosmo_total_nonelectrostatic_energy": 23.19, 
			 "SMD_solvation_energy": 8.22 
		},
		"coords": [
			{
				"x": -4.7527816398,
				"y": -0.124282177,
				"z": -0.8139335198,
				"element": "O" 
			},
			{
				"x": -4.2625837949,
				"y": -0.513055428,
				"z": -1.9811625906,
				"element": "C" 
			},
			{
				"x": -4.9685538844,
				"y": -0.9026126939,
				"z": -2.8879702286,
				"element": "O" 
			},
			{
				"x": -2.7300446574,
				"y": -0.5376856965,
				"z": -2.2228782399,
				"element": "C" 
			},
			{
				"x": -2.2139800364,
				"y": -2.0080578525,
				"z": -2.2215524116,
				"element": "C" 
			},
			{
				"x": -2.2247003743,
				"y": -2.7021390562,
				"z": -0.8785952294,
				"element": "C" 
			},
			{
				"x": -3.4010930247,
				"y": -3.2788355104,
				"z": -0.3770818011,
				"element": "C" 
			},
			{
				"x": -3.4215079261,
				"y": -3.9079925847,
				"z": 0.8667136159,
				"element": "C" 
			},
			{
				"x": -2.2487970777,
				"y": -3.9651130955,
				"z": 1.618323642,
				"element": "C" 
			},
			{
				"x": -2.2632846493,
				"y": -4.8308123319,
				"z": 3.3241401641,
				"element": "Br" 
			},
			{
				"x": -1.0641281365,
				"y": -3.4084065597,
				"z": 1.1438267949,
				"element": "C" 
			},
			{
				"x": -1.0613502554,
				"y": -2.7815955111,
				"z": -0.1026913405,
				"element": "C" 
			},
			{
				"x": -1.8722056798,
				"y": 0.3774117493,
				"z": -1.4544657541,
				"element": "N" 
			},
			{
				"x": -1.8171275249,
				"y": 0.5628048293,
				"z": -0.1102853832,
				"element": "C" 
			},
			{
				"x": -2.6980099351,
				"y": 0.2718167191,
				"z": 0.7009730664,
				"element": "O" 
			},
			{
				"x": -0.6634078345,
				"y": 1.1639325898,
				"z": 0.233688929,
				"element": "O" 
			},
			{
				"x": -0.5184272612,
				"y": 1.5428880607,
				"z": 1.6181894161,
				"element": "C" 
			},
			{
				"x": 0.9696835435,
				"y": 1.7562778996,
				"z": 1.8994920556,
				"element": "C" 
			},
			{
				"x": 1.6444290219,
				"y": 2.7833627885,
				"z": 1.0004895685,
				"element": "C" 
			},
			{
				"x": 2.7538023776,
				"y": 2.2062601941,
				"z": 0.3503047136,
				"element": "C" 
			},
			{
				"x": 3.5350778718,
				"y": 2.9662558136,
				"z": -0.5226085069,
				"element": "C" 
			},
			{
				"x": 3.1955281135,
				"y": 4.3035995629,
				"z": -0.7408952028,
				"element": "C" 
			},
			{
				"x": 2.0940476944,
				"y": 4.8749964676,
				"z": -0.0948493975,
				"element": "C" 
			},
			{
				"x": 1.3119025329,
				"y": 4.1151588125,
				"z": 0.7832191719,
				"element": "C" 
			},
			{
				"x": 2.8688862167,
				"y": 0.8030346841,
				"z": 0.7727076369,
				"element": "C" 
			},
			{
				"x": 1.8306063159,
				"y": 0.5196394926,
				"z": 1.6824410934,
				"element": "C" 
			},
			{
				"x": 1.7133207103,
				"y": -0.7429784511,
				"z": 2.2520305725,
				"element": "C" 
			},
			{
				"x": 2.6410114633,
				"y": -1.73274488,
				"z": 1.9029297794,
				"element": "C" 
			},
			{
				"x": 3.6697168598,
				"y": -1.4543281346,
				"z": 0.9960108525,
				"element": "C" 
			},
			{
				"x": 3.7931826692,
				"y": -0.1849777689,
				"z": 0.4259614882,
				"element": "C" 
			},
			{
				"x": -4.031724229,
				"y": 0.0286326914,
				"z": -0.1401452698,
				"element": "H" 
			},
			{
				"x": -2.649474802,
				"y": -0.1872522145,
				"z": -3.254589443,
				"element": "H" 
			},
			{
				"x": -2.8412250409,
				"y": -2.5480831375,
				"z": -2.9376829968,
				"element": "H" 
			},
			{
				"x": -1.1948509245,
				"y": -1.999952527,
				"z": -2.6242544357,
				"element": "H" 
			},
			{
				"x": -4.3137320897,
				"y": -3.2410449901,
				"z": -0.9655177987,
				"element": "H" 
			},
			{
				"x": -4.3355598568,
				"y": -4.3510054036,
				"z": 1.2451763335,
				"element": "H" 
			},
			{
				"x": -0.1555484961,
				"y": -3.4647670502,
				"z": 1.7318999335,
				"element": "H" 
			},
			{
				"x": -0.1332630701,
				"y": -2.3515941996,
				"z": -0.4705831772,
				"element": "H" 
			},
			{
				"x": -1.0452780282,
				"y": 0.6975807642,
				"z": -1.9403049677,
				"element": "H" 
			},
			{
				"x": -1.0875804896,
				"y": 2.4627356271,
				"z": 1.7916609896,
				"element": "H" 
			},
			{
				"x": -0.9378407013,
				"y": 0.7584086819,
				"z": 2.2517855551,
				"element": "H" 
			},
			{
				"x": 1.0306144133,
				"y": 2.0774863145,
				"z": 2.9504994266,
				"element": "H" 
			},
			{
				"x": 4.3941483733,
				"y": 2.5301234001,
				"z": -1.0248921176,
				"element": "H" 
			},
			{
				"x": 3.7940372502,
				"y": 4.9070595212,
				"z": -1.417272037,
				"element": "H" 
			},
			{
				"x": 1.8449675698,
				"y": 5.9168143904,
				"z": -0.2739242089,
				"element": "H" 
			},
			{
				"x": 0.4597782126,
				"y": 4.568475971,
				"z": 1.2837359322,
				"element": "H" 
			},
			{
				"x": 0.9194756322,
				"y": -0.9665299795,
				"z": 2.9603133736,
				"element": "H" 
			},
			{
				"x": 2.5674399835,
				"y": -2.7215193717,
				"z": 2.346733432,
				"element": "H" 
			},
			{
				"x": 4.3827720141,
				"y": -2.2318967039,
				"z": 0.7375675905,
				"element": "H" 
			},
			{
				"x": 4.5982325805,
				"y": 0.0257062841,
				"z": -0.2725790691,
				"element": "H" 
			}
		],
		 "valence_orbital": [ 
			{
				"type": "occ",
				"energy": -0.26057,
				"method": "rhf"
			},
			{
				"type": "occ",
				"energy": -0.25709,
				"method": "rhf"
			},
			{
				"type": "occ",
				"energy": -0.25603,
				"method": "rhf"
			},
			{
				"type": "occ",
				"energy": -0.23781,
				"method": "rhf"
			},
			{
				"type": "occ",
				"energy": -0.22638,
				"method": "rhf"
			},
			{
				"type": "unocc",
				"energy": -0.04256,
				"method": "rhf"
			},
			{
				"type": "unocc",
				"energy": -0.02472,
				"method": "rhf"
			},
			{
				"type": "unocc",
				"energy": -0.01929,
				"method": "rhf"
			},
			{
				"type": "unocc",
				"energy": -0.01542,
				"method": "rhf"
			},
			{
				"type": "unocc",
				"energy": -0.00371,
				"method": "rhf"
			}
		],
		"cosmo_sigma_profile": { 
			"-0.025": 0.0,
			"-0.024": 0.0,
			"-0.023": 0.0,
			"-0.022": 0.0,
			"-0.021": 0.0,
			"-0.02": 0.0,
			"-0.019": 0.0,
			"-0.018": 0.0,
			"-0.017": 0.0,
			"-0.016": 0.418610992981,
			"-0.015": 1.3847878672,
			"-0.014": 0.814688860373,
			"-0.013": 1.62246224952,
			"-0.012": 1.03888835114,
			"-0.011": 1.13237007783,
			"-0.01": 1.32692465582,
			"-0.009": 2.42361483373,
			"-0.008": 2.90098980322,
			"-0.007": 8.51203863891,
			"-0.006": 31.6547571206,
			"-0.005": 37.3547042446,
			"-0.004": 36.1176911882,
			"-0.003": 34.2547111593,
			"-0.002": 30.3266149826,
			"-0.001": 27.0381588639,
			"0.0": 26.6857754228,
			"0.001": 29.1853789502,
			"0.002": 31.1969926932,
			"0.003": 33.1461213114,
			"0.004": 35.1260754561,
			"0.005": 31.5371910102,
			"0.006": 16.4977672554,
			"0.007": 5.05393195465,
			"0.008": 3.94546486514,
			"0.009": 3.5457406052,
			"0.01": 5.20954933981,
			"0.011": 4.78944386213,
			"0.012": 5.60785327378,
			"0.013": 3.63062664289,
			"0.014": 0.71835449303,
			"0.015": 0.0,
			"0.016": 0.0,
			"0.017": 0.0,
			"0.018": 0.0,
			"0.019": 0.0,
			"0.02": 0.0,
			"0.021": 0.0,
			"0.022": 0.0,
			"0.023": 0.0,
			"0.024": 0.0,
			"0.025": 0.0
		}
	}
}
