{
	 "smiles": "CC1=CC(C2=CC=CC=C12)C1=CC=CC=C1", 
	 "Tm": 334.15, 
	 "num_atms": 30, 
	 "gaussian": { 
		 "optdone": 1, 
		 "sigma_profile": "yes", 
		 "theory": "DFT", 
		 "functional": "B3LYP", 
		 "basiset": "6-31G**", 
		 "properties": { 
			 "R2extent": 4010.7249, 
			 "electric_dipole_moment_norm": 0.460916283071, 
			 "electric_quadrupole_moment_norm": 5.02745043735, 
			 "total_energy": -618.141759655, 
			 "HOMO_LUMO_gap": 0.19061, 
			 "cosmo_polarized_energy": -5.83, 
			 "cosmo_cavitation_energy": 33.13, 
			 "cosmo_dispersion_energy": -23.27, 
			 "cosmo_repulsion_energy": 1.82, 
			 "cosmo_total_nonelectrostatic_energy": 11.67, 
			 "SMD_solvation_energy": 5.21 
		},
		"coords": [
			{
				"x": 3.7895554723,
				"y": 0.8796910824,
				"z": 0.0497169783,
				"element": "C" 
			},
			{
				"x": 2.358197951,
				"y": 0.4912702908,
				"z": -0.1622049486,
				"element": "C" 
			},
			{
				"x": 1.7140893646,
				"y": 0.3278599281,
				"z": -1.3365778388,
				"element": "C" 
			},
			{
				"x": 0.2692692851,
				"y": -0.0939341172,
				"z": -1.1398100851,
				"element": "C" 
			},
			{
				"x": 0.1610069921,
				"y": -0.1193909158,
				"z": 0.3792090846,
				"element": "C" 
			},
			{
				"x": -0.9222079918,
				"y": -0.4170343617,
				"z": 1.1941644457,
				"element": "C" 
			},
			{
				"x": -0.7481756423,
				"y": -0.3872342192,
				"z": 2.5848512437,
				"element": "C" 
			},
			{
				"x": 0.4938018866,
				"y": -0.064670364,
				"z": 3.1400821496,
				"element": "C" 
			},
			{
				"x": 1.5862822459,
				"y": 0.2391731533,
				"z": 2.3204223978,
				"element": "C" 
			},
			{
				"x": 1.4122140074,
				"y": 0.2140538578,
				"z": 0.935758602,
				"element": "C" 
			},
			{
				"x": -0.7557878716,
				"y": 0.7861915841,
				"z": -1.8435507493,
				"element": "C" 
			},
			{
				"x": -1.7021900949,
				"y": 0.2291741622,
				"z": -2.7102396673,
				"element": "C" 
			},
			{
				"x": -2.6483170783,
				"y": 1.0337568385,
				"z": -3.351346157,
				"element": "C" 
			},
			{
				"x": -2.6575653004,
				"y": 2.41055995,
				"z": -3.1324534156,
				"element": "C" 
			},
			{
				"x": -1.7154163258,
				"y": 2.9775851344,
				"z": -2.2687635454,
				"element": "C" 
			},
			{
				"x": -0.7737662301,
				"y": 2.1727267002,
				"z": -1.6311304942,
				"element": "C" 
			},
			{
				"x": 3.866880375,
				"y": 1.797465475,
				"z": 0.645752808,
				"element": "H" 
			},
			{
				"x": 4.333838263,
				"y": 0.1003122015,
				"z": 0.5974358528,
				"element": "H" 
			},
			{
				"x": 4.3027986133,
				"y": 1.04755505,
				"z": -0.9007574953,
				"element": "H" 
			},
			{
				"x": 2.1485941958,
				"y": 0.4657202096,
				"z": -2.3209218897,
				"element": "H" 
			},
			{
				"x": 0.1418692316,
				"y": -1.1187436767,
				"z": -1.5215251972,
				"element": "H" 
			},
			{
				"x": -1.8906827505,
				"y": -0.6612377206,
				"z": 0.7655322505,
				"element": "H" 
			},
			{
				"x": -1.5864703678,
				"y": -0.6150879451,
				"z": 3.2370979548,
				"element": "H" 
			},
			{
				"x": 0.6108552455,
				"y": -0.0476640929,
				"z": 4.220127254,
				"element": "H" 
			},
			{
				"x": 2.5484645242,
				"y": 0.4904803418,
				"z": 2.7586500497,
				"element": "H" 
			},
			{
				"x": -1.6986713127,
				"y": -0.8438136765,
				"z": -2.887563525,
				"element": "H" 
			},
			{
				"x": -3.3747025217,
				"y": 0.5822438044,
				"z": -4.0214774436,
				"element": "H" 
			},
			{
				"x": -3.3907643782,
				"y": 3.0390117752,
				"z": -3.6299182565,
				"element": "H" 
			},
			{
				"x": -1.7154201336,
				"y": 4.0498525873,
				"z": -2.0929318335,
				"element": "H" 
			},
			{
				"x": -0.0423796536,
				"y": 2.6165269631,
				"z": -0.9613285294,
				"element": "H" 
			}
		],
		 "valence_orbital": [ 
			{
				"type": "occ",
				"energy": -0.28,
				"method": "rhf"
			},
			{
				"type": "occ",
				"energy": -0.2478,
				"method": "rhf"
			},
			{
				"type": "occ",
				"energy": -0.24487,
				"method": "rhf"
			},
			{
				"type": "occ",
				"energy": -0.23516,
				"method": "rhf"
			},
			{
				"type": "occ",
				"energy": -0.20857,
				"method": "rhf"
			},
			{
				"type": "unocc",
				"energy": -0.01796,
				"method": "rhf"
			},
			{
				"type": "unocc",
				"energy": -0.00139,
				"method": "rhf"
			},
			{
				"type": "unocc",
				"energy": 0.00075,
				"method": "rhf"
			},
			{
				"type": "unocc",
				"energy": 0.00926,
				"method": "rhf"
			},
			{
				"type": "unocc",
				"energy": 0.05687,
				"method": "rhf"
			}
		],
		"cosmo_sigma_profile": { 
			"-0.025": 0.0,
			"-0.024": 0.0,
			"-0.023": 0.0,
			"-0.022": 0.0,
			"-0.021": 0.0,
			"-0.02": 0.0,
			"-0.019": 0.0,
			"-0.018": 0.0,
			"-0.017": 0.0,
			"-0.016": 0.0,
			"-0.015": 0.0,
			"-0.014": 0.0,
			"-0.013": 0.0,
			"-0.012": 0.0,
			"-0.011": 0.0,
			"-0.01": 0.0,
			"-0.009": 0.0,
			"-0.008": 0.0,
			"-0.007": 0.0,
			"-0.006": 4.7153949967,
			"-0.005": 20.7010005871,
			"-0.004": 24.8422229239,
			"-0.003": 32.4455412456,
			"-0.002": 25.4457209366,
			"-0.001": 23.3447384858,
			"0.0": 21.8296347382,
			"0.001": 17.0754612301,
			"0.002": 18.1073967876,
			"0.003": 17.5189450869,
			"0.004": 19.0314374796,
			"0.005": 18.097471268,
			"0.006": 16.704576712,
			"0.007": 4.2291614931,
			"0.008": 0.0,
			"0.009": 0.0,
			"0.01": 0.0,
			"0.011": 0.0,
			"0.012": 0.0,
			"0.013": 0.0,
			"0.014": 0.0,
			"0.015": 0.0,
			"0.016": 0.0,
			"0.017": 0.0,
			"0.018": 0.0,
			"0.019": 0.0,
			"0.02": 0.0,
			"0.021": 0.0,
			"0.022": 0.0,
			"0.023": 0.0,
			"0.024": 0.0,
			"0.025": 0.0
		}
	}
}
