{
	 "smiles": "CC1C2CC(O)C3C(C2O)(C(O)CC2C(C)(C)CCC(O)C32CO)C1=O", 
	 "Tm": 551.15, 
	 "num_atms": 58, 
	 "gaussian": { 
		 "optdone": 1, 
		 "sigma_profile": "yes", 
		 "theory": "DFT", 
		 "functional": "B3LYP", 
		 "basiset": "6-31G**", 
		 "properties": { 
			 "R2extent": 7688.6451, 
			 "electric_dipole_moment_norm": 2.47261651697, 
			 "electric_quadrupole_moment_norm": 22.1648970307, 
			 "total_energy": -1232.72644263, 
			 "HOMO_LUMO_gap": 0.21288, 
			 "cosmo_polarized_energy": -20.42, 
			 "cosmo_cavitation_energy": 45.98, 
			 "cosmo_dispersion_energy": -33.18, 
			 "cosmo_repulsion_energy": 2.38, 
			 "cosmo_total_nonelectrostatic_energy": 15.19, 
			 "SMD_solvation_energy": 7.07 
		},
		"coords": [
			{
				"x": 4.0431390991,
				"y": -0.7001584776,
				"z": -2.4426959536,
				"element": "C" 
			},
			{
				"x": 2.6016917553,
				"y": -0.9657921191,
				"z": -1.9843326202,
				"element": "C" 
			},
			{
				"x": 1.4925813504,
				"y": -0.4693701676,
				"z": -2.9578414374,
				"element": "C" 
			},
			{
				"x": 0.2371732841,
				"y": -1.3533808743,
				"z": -2.974987688,
				"element": "C" 
			},
			{
				"x": -0.3460516285,
				"y": -1.6137101484,
				"z": -1.5701596699,
				"element": "C" 
			},
			{
				"x": 0.376392278,
				"y": -2.6657180573,
				"z": -0.9170976678,
				"element": "O" 
			},
			{
				"x": -0.3516704893,
				"y": -0.3395697389,
				"z": -0.677002697,
				"element": "C" 
			},
			{
				"x": 0.9462236714,
				"y": 0.5448464968,
				"z": -0.8494725274,
				"element": "C" 
			},
			{
				"x": 1.0915217542,
				"y": 0.8905466083,
				"z": -2.361920022,
				"element": "C" 
			},
			{
				"x": 2.124402646,
				"y": 1.8264602745,
				"z": -2.6113878654,
				"element": "O" 
			},
			{
				"x": 0.8396518109,
				"y": 1.8284044537,
				"z": 0.0084681047,
				"element": "C" 
			},
			{
				"x": 2.0800451362,
				"y": 2.5549201009,
				"z": 0.0142648615,
				"element": "O" 
			},
			{
				"x": 0.3407219819,
				"y": 1.6135864818,
				"z": 1.4338451547,
				"element": "C" 
			},
			{
				"x": -0.9913720906,
				"y": 0.8412129344,
				"z": 1.5530394003,
				"element": "C" 
			},
			{
				"x": -2.3395295426,
				"y": 1.6627342576,
				"z": 1.292350746,
				"element": "C" 
			},
			{
				"x": -3.2138037856,
				"y": 1.5697798336,
				"z": 2.5678122247,
				"element": "C" 
			},
			{
				"x": -2.11503196,
				"y": 3.1685967193,
				"z": 1.0331347632,
				"element": "C" 
			},
			{
				"x": -3.1370526965,
				"y": 1.103849877,
				"z": 0.0880048812,
				"element": "C" 
			},
			{
				"x": -3.333478051,
				"y": -0.4285165058,
				"z": 0.0593463361,
				"element": "C" 
			},
			{
				"x": -2.2494216568,
				"y": -1.2442522799,
				"z": 0.7903668104,
				"element": "C" 
			},
			{
				"x": -2.7418698793,
				"y": -1.4900525347,
				"z": 2.1063904053,
				"element": "O" 
			},
			{
				"x": -0.856983881,
				"y": -0.5408376737,
				"z": 0.8117147427,
				"element": "C" 
			},
			{
				"x": 0.1376229909,
				"y": -1.4506192965,
				"z": 1.6125094668,
				"element": "C" 
			},
			{
				"x": -0.1946560577,
				"y": -1.6069362776,
				"z": 3.0059167745,
				"element": "O" 
			},
			{
				"x": 2.2724589203,
				"y": -0.2215525752,
				"z": -0.6812213261,
				"element": "C" 
			},
			{
				"x": 3.0113258797,
				"y": -0.1415092051,
				"z": 0.2869723394,
				"element": "O" 
			},
			{
				"x": 4.7435269397,
				"y": -0.9382744095,
				"z": -1.637195798,
				"element": "H" 
			},
			{
				"x": 4.1684104496,
				"y": 0.3472719524,
				"z": -2.7241741103,
				"element": "H" 
			},
			{
				"x": 4.2871981678,
				"y": -1.3246745192,
				"z": -3.3081327917,
				"element": "H" 
			},
			{
				"x": 2.4918459524,
				"y": -2.0324707595,
				"z": -1.768307474,
				"element": "H" 
			},
			{
				"x": 1.8778256229,
				"y": -0.3408340169,
				"z": -3.9741934916,
				"element": "H" 
			},
			{
				"x": -0.5286212948,
				"y": -0.8712637849,
				"z": -3.5966088828,
				"element": "H" 
			},
			{
				"x": 0.4443224147,
				"y": -2.3234688534,
				"z": -3.4463036771,
				"element": "H" 
			},
			{
				"x": -1.3910488405,
				"y": -1.9298539937,
				"z": -1.6916161404,
				"element": "H" 
			},
			{
				"x": 0.3261628815,
				"y": -3.450995461,
				"z": -1.4775145576,
				"element": "H" 
			},
			{
				"x": -1.1195421269,
				"y": 0.279788911,
				"z": -1.150727921,
				"element": "H" 
			},
			{
				"x": 0.1359758183,
				"y": 1.2576363944,
				"z": -2.7726031394,
				"element": "H" 
			},
			{
				"x": 2.2484210954,
				"y": 2.3739224114,
				"z": -1.8125008283,
				"element": "H" 
			},
			{
				"x": 0.1450093776,
				"y": 2.4945590863,
				"z": -0.5145109682,
				"element": "H" 
			},
			{
				"x": 2.7351191635,
				"y": 1.9663732028,
				"z": 0.4262061207,
				"element": "H" 
			},
			{
				"x": 0.2765845567,
				"y": 2.5913086235,
				"z": 1.918151905,
				"element": "H" 
			},
			{
				"x": 1.1207108837,
				"y": 1.0624449122,
				"z": 1.9733848015,
				"element": "H" 
			},
			{
				"x": -1.0694854085,
				"y": 0.5751183321,
				"z": 2.6102035119,
				"element": "H" 
			},
			{
				"x": -3.441686802,
				"y": 0.5318572251,
				"z": 2.8143842577,
				"element": "H" 
			},
			{
				"x": -2.694873137,
				"y": 2.0237164761,
				"z": 3.4212171778,
				"element": "H" 
			},
			{
				"x": -4.1543882295,
				"y": 2.1155489267,
				"z": 2.4289837437,
				"element": "H" 
			},
			{
				"x": -1.6163924711,
				"y": 3.662298515,
				"z": 1.872784795,
				"element": "H" 
			},
			{
				"x": -3.0866508137,
				"y": 3.6590068786,
				"z": 0.9069137491,
				"element": "H" 
			},
			{
				"x": -1.5370432289,
				"y": 3.3722858767,
				"z": 0.1271281993,
				"element": "H" 
			},
			{
				"x": -2.6467982199,
				"y": 1.4330840013,
				"z": -0.8368625078,
				"element": "H" 
			},
			{
				"x": -4.1189248825,
				"y": 1.592291745,
				"z": 0.0718763843,
				"element": "H" 
			},
			{
				"x": -4.2799263978,
				"y": -0.7055877079,
				"z": 0.5327868662,
				"element": "H" 
			},
			{
				"x": -3.4086287553,
				"y": -0.7567058073,
				"z": -0.9843022693,
				"element": "H" 
			},
			{
				"x": -2.129472047,
				"y": -2.2141755308,
				"z": 0.2832764902,
				"element": "H" 
			},
			{
				"x": -1.9828142792,
				"y": -1.717547557,
				"z": 2.6737046566,
				"element": "H" 
			},
			{
				"x": 0.1051507146,
				"y": -2.4560176135,
				"z": 1.2021972988,
				"element": "H" 
			},
			{
				"x": 1.1658221037,
				"y": -1.095357486,
				"z": 1.5235803973,
				"element": "H" 
			},
			{
				"x": 0.0888799532,
				"y": -0.8207480759,
				"z": 3.4885566661,
				"element": "H" 
			}
		],
		 "valence_orbital": [ 
			{
				"type": "occ",
				"energy": -0.26872,
				"method": "rhf"
			},
			{
				"type": "occ",
				"energy": -0.26587,
				"method": "rhf"
			},
			{
				"type": "occ",
				"energy": -0.26218,
				"method": "rhf"
			},
			{
				"type": "occ",
				"energy": -0.2468,
				"method": "rhf"
			},
			{
				"type": "occ",
				"energy": -0.24606,
				"method": "rhf"
			},
			{
				"type": "unocc",
				"energy": -0.03318,
				"method": "rhf"
			},
			{
				"type": "unocc",
				"energy": 0.04009,
				"method": "rhf"
			},
			{
				"type": "unocc",
				"energy": 0.04974,
				"method": "rhf"
			},
			{
				"type": "unocc",
				"energy": 0.06609,
				"method": "rhf"
			},
			{
				"type": "unocc",
				"energy": 0.0853,
				"method": "rhf"
			}
		],
		"cosmo_sigma_profile": { 
			"-0.025": 0.0,
			"-0.024": 0.0,
			"-0.023": 0.0,
			"-0.022": 0.0,
			"-0.021": 0.0,
			"-0.02": 0.0,
			"-0.019": 0.0,
			"-0.018": 0.0,
			"-0.017": 0.0,
			"-0.016": 0.344795319019,
			"-0.015": 1.59410974492,
			"-0.014": 1.94393445526,
			"-0.013": 2.69200311376,
			"-0.012": 2.35489694918,
			"-0.011": 2.3343735787,
			"-0.01": 2.38085070084,
			"-0.009": 1.97033890103,
			"-0.008": 3.84098005476,
			"-0.007": 5.42892216372,
			"-0.006": 7.84831875182,
			"-0.005": 12.8510539445,
			"-0.004": 22.562190638,
			"-0.003": 27.9567286793,
			"-0.002": 42.8582658772,
			"-0.001": 42.0550623726,
			"0.0": 34.1206077181,
			"0.001": 33.8680869288,
			"0.002": 22.118370238,
			"0.003": 15.2191994203,
			"0.004": 8.88982589885,
			"0.005": 7.89534767301,
			"0.006": 7.89285557339,
			"0.007": 6.01476027743,
			"0.008": 4.99531102552,
			"0.009": 6.5000614316,
			"0.01": 5.79002983546,
			"0.011": 5.18914677492,
			"0.012": 4.58590896675,
			"0.013": 3.74100154022,
			"0.014": 2.26976709279,
			"0.015": 1.91286390182,
			"0.016": 0.255412555484,
			"0.017": 0.0,
			"0.018": 0.0,
			"0.019": 0.0,
			"0.02": 0.0,
			"0.021": 0.0,
			"0.022": 0.0,
			"0.023": 0.0,
			"0.024": 0.0,
			"0.025": 0.0
		}
	}
}
