{
	 "smiles": "CC1=NC2=NC=NN2C(C)=C1CC(O)=O", 
	 "Tm": 494.15, 
	 "num_atms": 25, 
	 "gaussian": { 
		 "optdone": 1, 
		 "sigma_profile": "yes", 
		 "theory": "DFT", 
		 "functional": "B3LYP", 
		 "basiset": "6-31G**", 
		 "properties": { 
			 "R2extent": 3983.4002, 
			 "electric_dipole_moment_norm": 6.69762235797, 
			 "electric_quadrupole_moment_norm": 11.9381092134, 
			 "total_energy": -718.437573192, 
			 "HOMO_LUMO_gap": 0.19299, 
			 "cosmo_polarized_energy": -27.1, 
			 "cosmo_cavitation_energy": 29.16, 
			 "cosmo_dispersion_energy": -21.01, 
			 "cosmo_repulsion_energy": 1.63, 
			 "cosmo_total_nonelectrostatic_energy": 9.78, 
			 "SMD_solvation_energy": 2.27 
		},
		"coords": [
			{
				"x": -1.4922038944,
				"y": -0.4567491864,
				"z": -1.5093510709,
				"element": "C" 
			},
			{
				"x": -0.6689835436,
				"y": -1.1601167203,
				"z": -0.4600605157,
				"element": "C" 
			},
			{
				"x": -0.5231706132,
				"y": -2.4649322362,
				"z": -0.6185697757,
				"element": "N" 
			},
			{
				"x": 0.185559839,
				"y": -3.123070753,
				"z": 0.3112400774,
				"element": "C" 
			},
			{
				"x": 0.4874878459,
				"y": -4.4195613629,
				"z": 0.3957144627,
				"element": "N" 
			},
			{
				"x": 1.2031037643,
				"y": -4.4839661067,
				"z": 1.5386283427,
				"element": "C" 
			},
			{
				"x": 1.3947127566,
				"y": -3.3414081288,
				"z": 2.2059049689,
				"element": "N" 
			},
			{
				"x": 0.7357179338,
				"y": -2.4597900413,
				"z": 1.4082349674,
				"element": "N" 
			},
			{
				"x": 0.6080510168,
				"y": -1.1147852282,
				"z": 1.6086809147,
				"element": "C" 
			},
			{
				"x": 1.2461071655,
				"y": -0.584068512,
				"z": 2.8549255093,
				"element": "C" 
			},
			{
				"x": -0.1008671849,
				"y": -0.4250613121,
				"z": 0.6417276466,
				"element": "C" 
			},
			{
				"x": -0.2969205049,
				"y": 1.0681651314,
				"z": 0.7339897958,
				"element": "C" 
			},
			{
				"x": -1.6437674671,
				"y": 1.484839981,
				"z": 1.3411913326,
				"element": "C" 
			},
			{
				"x": -1.7979432178,
				"y": 2.8239406629,
				"z": 1.5145687631,
				"element": "O" 
			},
			{
				"x": -2.5272359321,
				"y": 0.7255443356,
				"z": 1.6410509012,
				"element": "O" 
			},
			{
				"x": -2.3540535085,
				"y": 0.0450832806,
				"z": -1.0574060843,
				"element": "H" 
			},
			{
				"x": -0.9075250128,
				"y": 0.2990410429,
				"z": -2.0482603808,
				"element": "H" 
			},
			{
				"x": -1.8478169167,
				"y": -1.1946553442,
				"z": -2.2284032964,
				"element": "H" 
			},
			{
				"x": 1.6140993576,
				"y": -5.410327344,
				"z": 1.9183896995,
				"element": "H" 
			},
			{
				"x": 0.8487135767,
				"y": -1.117820827,
				"z": 3.7236907463,
				"element": "H" 
			},
			{
				"x": 2.3237245645,
				"y": -0.7770203519,
				"z": 2.8402478931,
				"element": "H" 
			},
			{
				"x": 1.0718093825,
				"y": 0.4821881268,
				"z": 2.9894720731,
				"element": "H" 
			},
			{
				"x": 0.5038658256,
				"y": 1.5361215673,
				"z": 1.3161334137,
				"element": "H" 
			},
			{
				"x": -0.2369417895,
				"y": 1.5209728302,
				"z": -0.2634888625,
				"element": "H" 
			},
			{
				"x": -1.0074234433,
				"y": 3.3014364965,
				"z": 1.2247484783,
				"element": "H" 
			}
		],
		 "valence_orbital": [ 
			{
				"type": "occ",
				"energy": -0.29164,
				"method": "rhf"
			},
			{
				"type": "occ",
				"energy": -0.27834,
				"method": "rhf"
			},
			{
				"type": "occ",
				"energy": -0.27304,
				"method": "rhf"
			},
			{
				"type": "occ",
				"energy": -0.26379,
				"method": "rhf"
			},
			{
				"type": "occ",
				"energy": -0.248,
				"method": "rhf"
			},
			{
				"type": "unocc",
				"energy": -0.05501,
				"method": "rhf"
			},
			{
				"type": "unocc",
				"energy": -0.02193,
				"method": "rhf"
			},
			{
				"type": "unocc",
				"energy": -0.00858,
				"method": "rhf"
			},
			{
				"type": "unocc",
				"energy": 0.03417,
				"method": "rhf"
			},
			{
				"type": "unocc",
				"energy": 0.05154,
				"method": "rhf"
			}
		],
		"cosmo_sigma_profile": { 
			"-0.025": 0.0,
			"-0.024": 0.0,
			"-0.023": 0.0,
			"-0.022": 0.0,
			"-0.021": 0.0,
			"-0.02": 0.206213784707,
			"-0.019": 1.19522157937,
			"-0.018": 1.33980372955,
			"-0.017": 1.25812374629,
			"-0.016": 0.951099760538,
			"-0.015": 1.33713755064,
			"-0.014": 1.13979612425,
			"-0.013": 1.20711801347,
			"-0.012": 1.51037160068,
			"-0.011": 1.98874333381,
			"-0.01": 2.69538051045,
			"-0.009": 5.30566959584,
			"-0.008": 7.91313813564,
			"-0.007": 7.75244710686,
			"-0.006": 10.5248061675,
			"-0.005": 14.4305660704,
			"-0.004": 17.5989682795,
			"-0.003": 18.6994881994,
			"-0.002": 17.8885379258,
			"-0.001": 14.011807349,
			"0.0": 10.5603667108,
			"0.001": 8.73504206538,
			"0.002": 6.7142246074,
			"0.003": 6.8269055659,
			"0.004": 6.34737114921,
			"0.005": 6.07549743625,
			"0.006": 6.31007175295,
			"0.007": 6.10730640016,
			"0.008": 6.17428465089,
			"0.009": 6.24128282082,
			"0.01": 8.63904584377,
			"0.011": 8.61674397832,
			"0.012": 7.38092229876,
			"0.013": 3.32269297118,
			"0.014": 2.8773865644,
			"0.015": 1.51500285492,
			"0.016": 1.0140856159,
			"0.017": 0.196825618107,
			"0.018": 0.0,
			"0.019": 0.0,
			"0.02": 0.0,
			"0.021": 0.0,
			"0.022": 0.0,
			"0.023": 0.0,
			"0.024": 0.0,
			"0.025": 0.0
		}
	}
}
