{
	 "smiles": "ON=C(C(O)C1=CC=CC=C1)C1=CC=CC=C1", 
	 "Tm": 425.15, 
	 "num_atms": 30, 
	 "gaussian": { 
		 "optdone": 1, 
		 "sigma_profile": "yes", 
		 "theory": "DFT", 
		 "functional": "B3LYP", 
		 "basiset": "6-31G**", 
		 "properties": { 
			 "R2extent": 4515.274, 
			 "electric_dipole_moment_norm": 1.61249202479, 
			 "electric_quadrupole_moment_norm": 10.6143733857, 
			 "total_energy": -746.45689158, 
			 "HOMO_LUMO_gap": 0.19181, 
			 "cosmo_polarized_energy": -12.2, 
			 "cosmo_cavitation_energy": 33.67, 
			 "cosmo_dispersion_energy": -23.92, 
			 "cosmo_repulsion_energy": 1.87, 
			 "cosmo_total_nonelectrostatic_energy": 11.62, 
			 "SMD_solvation_energy": 5.46 
		},
		"coords": [
			{
				"x": -0.5249967624,
				"y": -1.299183435,
				"z": -2.8343259673,
				"element": "O" 
			},
			{
				"x": -0.3391188033,
				"y": -2.0270914883,
				"z": -1.6360871258,
				"element": "N" 
			},
			{
				"x": -0.5160852674,
				"y": -1.2904798058,
				"z": -0.5953666495,
				"element": "C" 
			},
			{
				"x": -0.9351624193,
				"y": 0.1844331323,
				"z": -0.6597570619,
				"element": "C" 
			},
			{
				"x": -2.1127016619,
				"y": 0.3541375543,
				"z": -1.4296605473,
				"element": "O" 
			},
			{
				"x": 0.2232382921,
				"y": 1.0873882249,
				"z": -1.1054779992,
				"element": "C" 
			},
			{
				"x": -0.025944401,
				"y": 2.1602625699,
				"z": -1.9664835609,
				"element": "C" 
			},
			{
				"x": 1.0061733842,
				"y": 3.0228012694,
				"z": -2.3402948395,
				"element": "C" 
			},
			{
				"x": 2.2988054888,
				"y": 2.8268577908,
				"z": -1.8526177253,
				"element": "C" 
			},
			{
				"x": 2.5518759723,
				"y": 1.7624015562,
				"z": -0.9849869626,
				"element": "C" 
			},
			{
				"x": 1.5212162361,
				"y": 0.8989225261,
				"z": -0.6128216792,
				"element": "C" 
			},
			{
				"x": -0.2800045666,
				"y": -1.9601512991,
				"z": 0.7095887349,
				"element": "C" 
			},
			{
				"x": 0.693657066,
				"y": -2.9701183777,
				"z": 0.8161573578,
				"element": "C" 
			},
			{
				"x": 0.9145398664,
				"y": -3.6180171013,
				"z": 2.0283943999,
				"element": "C" 
			},
			{
				"x": 0.1684782602,
				"y": -3.2716034831,
				"z": 3.1580981008,
				"element": "C" 
			},
			{
				"x": -0.8026687698,
				"y": -2.2742906066,
				"z": 3.0637750357,
				"element": "C" 
			},
			{
				"x": -1.0246227196,
				"y": -1.62088692,
				"z": 1.8514748794,
				"element": "C" 
			},
			{
				"x": -0.41996972,
				"y": -1.9817406142,
				"z": -3.509587564,
				"element": "H" 
			},
			{
				"x": -1.2145929849,
				"y": 0.4980178666,
				"z": 0.3506335241,
				"element": "H" 
			},
			{
				"x": -1.9193640812,
				"y": -0.0401251383,
				"z": -2.2951560768,
				"element": "H" 
			},
			{
				"x": -1.0345254998,
				"y": 2.3126445991,
				"z": -2.3349603815,
				"element": "H" 
			},
			{
				"x": 0.7976005595,
				"y": 3.8503935203,
				"z": -3.0129564092,
				"element": "H" 
			},
			{
				"x": 3.1020234837,
				"y": 3.4978200987,
				"z": -2.1437274567,
				"element": "H" 
			},
			{
				"x": 3.5541555931,
				"y": 1.6014227979,
				"z": -0.5975055885,
				"element": "H" 
			},
			{
				"x": 1.732824464,
				"y": 0.0747843995,
				"z": 0.0629174739,
				"element": "H" 
			},
			{
				"x": 1.2726140659,
				"y": -3.2318523068,
				"z": -0.0627129727,
				"element": "H" 
			},
			{
				"x": 1.6753312118,
				"y": -4.3905585437,
				"z": 2.0942993863,
				"element": "H" 
			},
			{
				"x": 0.344979332,
				"y": -3.7740061899,
				"z": 4.1047278301,
				"element": "H" 
			},
			{
				"x": -1.3934903116,
				"y": -2.0041148464,
				"z": 3.9341342067,
				"element": "H" 
			},
			{
				"x": -1.8013653073,
				"y": -0.8652677497,
				"z": 1.7920856382,
				"element": "H" 
			}
		],
		 "valence_orbital": [ 
			{
				"type": "occ",
				"energy": -0.26692,
				"method": "rhf"
			},
			{
				"type": "occ",
				"energy": -0.25651,
				"method": "rhf"
			},
			{
				"type": "occ",
				"energy": -0.24403,
				"method": "rhf"
			},
			{
				"type": "occ",
				"energy": -0.23783,
				"method": "rhf"
			},
			{
				"type": "occ",
				"energy": -0.23347,
				"method": "rhf"
			},
			{
				"type": "unocc",
				"energy": -0.04166,
				"method": "rhf"
			},
			{
				"type": "unocc",
				"energy": -0.00897,
				"method": "rhf"
			},
			{
				"type": "unocc",
				"energy": 0.00375,
				"method": "rhf"
			},
			{
				"type": "unocc",
				"energy": 0.00505,
				"method": "rhf"
			},
			{
				"type": "unocc",
				"energy": 0.0313,
				"method": "rhf"
			}
		],
		"cosmo_sigma_profile": { 
			"-0.025": 0.0,
			"-0.024": 0.0,
			"-0.023": 0.0,
			"-0.022": 0.0,
			"-0.021": 0.0,
			"-0.02": 0.0,
			"-0.019": 0.0409756396671,
			"-0.018": 0.837593279407,
			"-0.017": 1.14430662809,
			"-0.016": 0.716242662344,
			"-0.015": 0.939557956237,
			"-0.014": 0.993299573099,
			"-0.013": 0.200532536151,
			"-0.012": 0.302141433658,
			"-0.011": 0.72074164697,
			"-0.01": 1.55194869275,
			"-0.009": 1.14715884726,
			"-0.008": 2.15408311194,
			"-0.007": 3.81191855264,
			"-0.006": 12.8002971912,
			"-0.005": 18.987928473,
			"-0.004": 23.637856631,
			"-0.003": 23.1000164609,
			"-0.002": 18.8418342951,
			"-0.001": 16.9096042196,
			"0.0": 15.4930818305,
			"0.001": 15.3716473641,
			"0.002": 17.8480852012,
			"0.003": 17.3314653912,
			"0.004": 22.7263807152,
			"0.005": 19.7128333892,
			"0.006": 11.9060176879,
			"0.007": 4.82051710591,
			"0.008": 3.86162701735,
			"0.009": 2.90402621694,
			"0.01": 1.60712000138,
			"0.011": 1.89718247436,
			"0.012": 1.92955682584,
			"0.013": 1.65358425623,
			"0.014": 0.91508525563,
			"0.015": 0.0,
			"0.016": 0.0,
			"0.017": 0.0,
			"0.018": 0.0,
			"0.019": 0.0,
			"0.02": 0.0,
			"0.021": 0.0,
			"0.022": 0.0,
			"0.023": 0.0,
			"0.024": 0.0,
			"0.025": 0.0
		}
	}
}
