{
	 "smiles": "OC(=O)C1=CC2=CC=CC=C2S1", 
	 "Tm": 512.15, 
	 "num_atms": 18, 
	 "gaussian": { 
		 "optdone": 1, 
		 "sigma_profile": "yes", 
		 "theory": "DFT", 
		 "functional": "B3LYP", 
		 "basiset": "6-31G**", 
		 "properties": { 
			 "R2extent": 2999.4122, 
			 "electric_dipole_moment_norm": 4.88615876124, 
			 "electric_quadrupole_moment_norm": 16.3711238243, 
			 "total_energy": -895.215853932, 
			 "HOMO_LUMO_gap": 0.16787, 
			 "cosmo_polarized_energy": -12.7, 
			 "cosmo_cavitation_energy": 24.26, 
			 "cosmo_dispersion_energy": -18.69, 
			 "cosmo_repulsion_energy": 1.42, 
			 "cosmo_total_nonelectrostatic_energy": 6.98, 
			 "SMD_solvation_energy": 4.86 
		},
		"coords": [
			{
				"x": -4.1272214021,
				"y": -0.0722982615,
				"z": -2.4878733841,
				"element": "O" 
			},
			{
				"x": -2.8114856527,
				"y": -0.3991123558,
				"z": -2.5707819145,
				"element": "C" 
			},
			{
				"x": -2.3542456724,
				"y": -0.8112223923,
				"z": -3.6112982337,
				"element": "O" 
			},
			{
				"x": -1.977986848,
				"y": -0.229188719,
				"z": -1.353574739,
				"element": "C" 
			},
			{
				"x": -0.6459419042,
				"y": -0.5205661573,
				"z": -1.305027102,
				"element": "C" 
			},
			{
				"x": -0.0517987945,
				"y": -0.2772282604,
				"z": -0.0241316977,
				"element": "C" 
			},
			{
				"x": 1.2838260879,
				"y": -0.462607048,
				"z": 0.38553274,
				"element": "C" 
			},
			{
				"x": 1.6465811859,
				"y": -0.1597612222,
				"z": 1.6886325392,
				"element": "C" 
			},
			{
				"x": 0.6961589564,
				"y": 0.3302622887,
				"z": 2.6053321221,
				"element": "C" 
			},
			{
				"x": -0.6286995768,
				"y": 0.5237133924,
				"z": 2.2309930617,
				"element": "C" 
			},
			{
				"x": -0.9926175849,
				"y": 0.2175266089,
				"z": 0.9159214514,
				"element": "C" 
			},
			{
				"x": -2.5855560902,
				"y": 0.3697463089,
				"z": 0.1950672693,
				"element": "S" 
			},
			{
				"x": -4.3693324198,
				"y": 0.2441134508,
				"z": -1.605751246,
				"element": "H" 
			},
			{
				"x": -0.1169791177,
				"y": -0.8991044322,
				"z": -2.1716686414,
				"element": "H" 
			},
			{
				"x": 2.0161939887,
				"y": -0.840498039,
				"z": -0.3218447698,
				"element": "H" 
			},
			{
				"x": 2.673991695,
				"y": -0.3006082277,
				"z": 2.0097452359,
				"element": "H" 
			},
			{
				"x": 1.0015119958,
				"y": 0.5612632521,
				"z": 3.6213957651,
				"element": "H" 
			},
			{
				"x": -1.3577988466,
				"y": 0.9015698137,
				"z": 2.9406315435,
				"element": "H" 
			}
		],
		 "valence_orbital": [ 
			{
				"type": "occ",
				"energy": -0.31953,
				"method": "rhf"
			},
			{
				"type": "occ",
				"energy": -0.3008,
				"method": "rhf"
			},
			{
				"type": "occ",
				"energy": -0.2793,
				"method": "rhf"
			},
			{
				"type": "occ",
				"energy": -0.25474,
				"method": "rhf"
			},
			{
				"type": "occ",
				"energy": -0.23703,
				"method": "rhf"
			},
			{
				"type": "unocc",
				"energy": -0.06916,
				"method": "rhf"
			},
			{
				"type": "unocc",
				"energy": -0.01984,
				"method": "rhf"
			},
			{
				"type": "unocc",
				"energy": -0.01426,
				"method": "rhf"
			},
			{
				"type": "unocc",
				"energy": 0.01053,
				"method": "rhf"
			},
			{
				"type": "unocc",
				"energy": 0.05713,
				"method": "rhf"
			}
		],
		"cosmo_sigma_profile": { 
			"-0.025": 0.0,
			"-0.024": 0.0,
			"-0.023": 0.0,
			"-0.022": 0.0,
			"-0.021": 0.0,
			"-0.02": 0.0,
			"-0.019": 0.0,
			"-0.018": 0.430580847122,
			"-0.017": 0.857027402821,
			"-0.016": 0.896707146398,
			"-0.015": 0.628417165235,
			"-0.014": 0.733614856967,
			"-0.013": 0.96314491982,
			"-0.012": 1.50940245144,
			"-0.011": 1.31639884141,
			"-0.01": 0.680539751308,
			"-0.009": 0.948929118593,
			"-0.008": 3.24564315882,
			"-0.007": 8.54996701135,
			"-0.006": 11.9204281416,
			"-0.005": 11.8841335731,
			"-0.004": 11.5640627237,
			"-0.003": 9.80512413,
			"-0.002": 9.87674482926,
			"-0.001": 9.57514708596,
			"0.0": 14.1051672887,
			"0.001": 19.6456861917,
			"0.002": 18.3492594844,
			"0.003": 16.4363037318,
			"0.004": 13.2441119217,
			"0.005": 3.77740481086,
			"0.006": 2.69092428916,
			"0.007": 2.45985357472,
			"0.008": 2.02068707778,
			"0.009": 4.15320515154,
			"0.01": 4.93297556548,
			"0.011": 5.27082650184,
			"0.012": 4.16731481924,
			"0.013": 0.984938485204,
			"0.014": 0.0,
			"0.015": 0.0,
			"0.016": 0.0,
			"0.017": 0.0,
			"0.018": 0.0,
			"0.019": 0.0,
			"0.02": 0.0,
			"0.021": 0.0,
			"0.022": 0.0,
			"0.023": 0.0,
			"0.024": 0.0,
			"0.025": 0.0
		}
	}
}
