{
	 "smiles": "COC1=CC=C(C=C1)C1NC2=NC(=NN2C(N)=C1C#N)C(F)(F)F", 
	 "Tm": 484.15, 
	 "num_atms": 35, 
	 "gaussian": { 
		 "optdone": 1, 
		 "sigma_profile": "yes", 
		 "theory": "DFT", 
		 "functional": "B3LYP", 
		 "basiset": "6-31G**", 
		 "properties": { 
			 "R2extent": 9990.6489, 
			 "electric_dipole_moment_norm": 2.53352914528, 
			 "electric_quadrupole_moment_norm": 37.5384586001, 
			 "total_energy": -1243.32708372, 
			 "HOMO_LUMO_gap": 0.1688, 
			 "cosmo_polarized_energy": -21.74, 
			 "cosmo_cavitation_energy": 42.73, 
			 "cosmo_dispersion_energy": -29.11, 
			 "cosmo_repulsion_energy": 2.17, 
			 "cosmo_total_nonelectrostatic_energy": 15.79, 
			 "SMD_solvation_energy": 6.75 
		},
		"coords": [
			{
				"x": -2.5662871451,
				"y": 2.8845476362,
				"z": 3.8702269327,
				"element": "C" 
			},
			{
				"x": -3.1087137645,
				"y": 2.923053064,
				"z": 2.557897145,
				"element": "O" 
			},
			{
				"x": -2.3726613536,
				"y": 2.4063922358,
				"z": 1.5364630074,
				"element": "C" 
			},
			{
				"x": -2.9565324529,
				"y": 2.4848160349,
				"z": 0.2633520744,
				"element": "C" 
			},
			{
				"x": -2.2803288708,
				"y": 1.9844606463,
				"z": -0.8417850967,
				"element": "C" 
			},
			{
				"x": -1.0134234569,
				"y": 1.3959005202,
				"z": -0.7142088998,
				"element": "C" 
			},
			{
				"x": -0.4398854376,
				"y": 1.3311372063,
				"z": 0.5588753635,
				"element": "C" 
			},
			{
				"x": -1.1045561654,
				"y": 1.8259220417,
				"z": 1.6810210539,
				"element": "C" 
			},
			{
				"x": -0.3263307652,
				"y": 0.8081317131,
				"z": -1.9429940011,
				"element": "C" 
			},
			{
				"x": -0.4928301967,
				"y": -0.6667494686,
				"z": -2.0173141333,
				"element": "N" 
			},
			{
				"x": 0.4802773026,
				"y": -1.5041161608,
				"z": -1.5958744084,
				"element": "C" 
			},
			{
				"x": 0.4327060527,
				"y": -2.7971385386,
				"z": -1.3173353865,
				"element": "N" 
			},
			{
				"x": 1.7426985541,
				"y": -3.0774517277,
				"z": -1.0485585785,
				"element": "C" 
			},
			{
				"x": 2.6011097692,
				"y": -2.0787189989,
				"z": -1.1260472277,
				"element": "N" 
			},
			{
				"x": 1.7638227748,
				"y": -1.0462145845,
				"z": -1.4739266859,
				"element": "N" 
			},
			{
				"x": 2.1567596884,
				"y": 0.2555223952,
				"z": -1.771248512,
				"element": "C" 
			},
			{
				"x": 3.4885662581,
				"y": 0.4818380885,
				"z": -1.731903675,
				"element": "N" 
			},
			{
				"x": 1.1591151321,
				"y": 1.1537656198,
				"z": -2.0618163378,
				"element": "C" 
			},
			{
				"x": 1.5266219382,
				"y": 2.4711694308,
				"z": -2.4207241089,
				"element": "C" 
			},
			{
				"x": 1.8700723076,
				"y": 3.5460948203,
				"z": -2.7213073406,
				"element": "N" 
			},
			{
				"x": 2.1814799473,
				"y": -4.4639231971,
				"z": -0.6665330254,
				"element": "C" 
			},
			{
				"x": 3.5117893479,
				"y": -4.521565816,
				"z": -0.4907340067,
				"element": "F" 
			},
			{
				"x": 1.8439868227,
				"y": -5.352252405,
				"z": -1.620293341,
				"element": "F" 
			},
			{
				"x": 1.5896409517,
				"y": -4.8544490968,
				"z": 0.4791889284,
				"element": "F" 
			},
			{
				"x": -2.3872520185,
				"y": 1.854516372,
				"z": 4.2036153901,
				"element": "H" 
			},
			{
				"x": -1.6300766775,
				"y": 3.452905769,
				"z": 3.9370959446,
				"element": "H" 
			},
			{
				"x": -3.3133667944,
				"y": 3.3462201057,
				"z": 4.5171654205,
				"element": "H" 
			},
			{
				"x": -3.9332231716,
				"y": 2.9473704673,
				"z": 0.1679352123,
				"element": "H" 
			},
			{
				"x": -2.7418120516,
				"y": 2.059577405,
				"z": -1.8241372687,
				"element": "H" 
			},
			{
				"x": 0.5491965354,
				"y": 0.8998156508,
				"z": 0.6856885175,
				"element": "H" 
			},
			{
				"x": -0.6279543257,
				"y": 1.7620394409,
				"z": 2.6517845384,
				"element": "H" 
			},
			{
				"x": -0.8352691629,
				"y": 1.213352865,
				"z": -2.8250848501,
				"element": "H" 
			},
			{
				"x": -1.4350961769,
				"y": -1.023518627,
				"z": -1.9340678892,
				"element": "H" 
			},
			{
				"x": 3.8443175016,
				"y": 1.3742813424,
				"z": -2.0365503225,
				"element": "H" 
			},
			{
				"x": 4.1065391031,
				"y": -0.3130322503,
				"z": -1.665764433,
				"element": "H" 
			}
		],
		 "valence_orbital": [ 
			{
				"type": "occ",
				"energy": -0.3063,
				"method": "rhf"
			},
			{
				"type": "occ",
				"energy": -0.26638,
				"method": "rhf"
			},
			{
				"type": "occ",
				"energy": -0.25922,
				"method": "rhf"
			},
			{
				"type": "occ",
				"energy": -0.23029,
				"method": "rhf"
			},
			{
				"type": "occ",
				"energy": -0.22295,
				"method": "rhf"
			},
			{
				"type": "unocc",
				"energy": -0.05415,
				"method": "rhf"
			},
			{
				"type": "unocc",
				"energy": -0.01896,
				"method": "rhf"
			},
			{
				"type": "unocc",
				"energy": -0.00602,
				"method": "rhf"
			},
			{
				"type": "unocc",
				"energy": 0.01274,
				"method": "rhf"
			},
			{
				"type": "unocc",
				"energy": 0.02127,
				"method": "rhf"
			}
		],
		"cosmo_sigma_profile": { 
			"-0.025": 0.0,
			"-0.024": 0.0,
			"-0.023": 0.0,
			"-0.022": 0.0,
			"-0.021": 0.0,
			"-0.02": 0.0,
			"-0.019": 0.0,
			"-0.018": 0.0,
			"-0.017": 0.0,
			"-0.016": 0.534315959621,
			"-0.015": 2.22598328237,
			"-0.014": 2.75079740597,
			"-0.013": 2.94664919072,
			"-0.012": 3.11855448175,
			"-0.011": 2.25860655048,
			"-0.01": 3.45565413674,
			"-0.009": 3.12561558994,
			"-0.008": 4.86950243012,
			"-0.007": 7.69150449343,
			"-0.006": 17.8541290873,
			"-0.005": 22.0325390247,
			"-0.004": 22.0021167654,
			"-0.003": 22.5979264633,
			"-0.002": 18.8120670457,
			"-0.001": 17.3939248474,
			"0.0": 18.566592903,
			"0.001": 20.5645843111,
			"0.002": 41.6020158129,
			"0.003": 29.6128888944,
			"0.004": 19.0829589153,
			"0.005": 15.1224643581,
			"0.006": 7.58669665661,
			"0.007": 5.82773473815,
			"0.008": 6.08138694465,
			"0.009": 6.45687903481,
			"0.01": 5.41311421811,
			"0.011": 4.35291518234,
			"0.012": 3.68009567779,
			"0.013": 3.35814357381,
			"0.014": 2.16599235904,
			"0.015": 0.0129637409459,
			"0.016": 0.0,
			"0.017": 0.0,
			"0.018": 0.0,
			"0.019": 0.0,
			"0.02": 0.0,
			"0.021": 0.0,
			"0.022": 0.0,
			"0.023": 0.0,
			"0.024": 0.0,
			"0.025": 0.0
		}
	}
}
