{
	 "smiles": "CCOC1=C(N)C=C(OC)C=C1", 
	 "Tm": 319.15, 
	 "num_atms": 25, 
	 "gaussian": { 
		 "optdone": 1, 
		 "sigma_profile": "yes", 
		 "theory": "DFT", 
		 "functional": "B3LYP", 
		 "basiset": "6-31G**", 
		 "properties": { 
			 "R2extent": 2768.0214, 
			 "electric_dipole_moment_norm": 1.7811133316, 
			 "electric_quadrupole_moment_norm": 11.6618051214, 
			 "total_energy": -555.974427519, 
			 "HOMO_LUMO_gap": 0.19569, 
			 "cosmo_polarized_energy": -10.24, 
			 "cosmo_cavitation_energy": 27.68, 
			 "cosmo_dispersion_energy": -20.59, 
			 "cosmo_repulsion_energy": 1.67, 
			 "cosmo_total_nonelectrostatic_energy": 8.76, 
			 "SMD_solvation_energy": 5.76 
		},
		"coords": [
			{
				"x": 2.9033730547,
				"y": 1.5601909701,
				"z": -1.1855351998,
				"element": "C" 
			},
			{
				"x": 2.6970809838,
				"y": 0.2617884627,
				"z": -0.4106668099,
				"element": "C" 
			},
			{
				"x": 1.6574231675,
				"y": 0.3582675483,
				"z": 0.560231165,
				"element": "O" 
			},
			{
				"x": 0.3399269222,
				"y": 0.2746188751,
				"z": 0.1579971441,
				"element": "C" 
			},
			{
				"x": -0.5972212017,
				"y": 0.4607480774,
				"z": 1.207400782,
				"element": "C" 
			},
			{
				"x": -0.1299729998,
				"y": 0.7899759394,
				"z": 2.4782939637,
				"element": "N" 
			},
			{
				"x": -1.9564892572,
				"y": 0.3530928543,
				"z": 0.9214617877,
				"element": "C" 
			},
			{
				"x": -2.4025151137,
				"y": 0.0745201652,
				"z": -0.3785738593,
				"element": "C" 
			},
			{
				"x": -3.7642005845,
				"y": -0.0015623281,
				"z": -0.5237335004,
				"element": "O" 
			},
			{
				"x": -4.2754444203,
				"y": -0.2798664388,
				"z": -1.8136366012,
				"element": "C" 
			},
			{
				"x": -1.481650739,
				"y": -0.1003695549,
				"z": -1.4099686443,
				"element": "C" 
			},
			{
				"x": -0.1089942495,
				"y": 0.0013579291,
				"z": -1.126175847,
				"element": "C" 
			},
			{
				"x": 2.0161910801,
				"y": 1.8292750448,
				"z": -1.7643995067,
				"element": "H" 
			},
			{
				"x": 3.7464935234,
				"y": 1.4553176796,
				"z": -1.8769446203,
				"element": "H" 
			},
			{
				"x": 3.1216026872,
				"y": 2.3809585329,
				"z": -0.4963311705,
				"element": "H" 
			},
			{
				"x": 3.5937617054,
				"y": 0.0216503925,
				"z": 0.1687282193,
				"element": "H" 
			},
			{
				"x": 2.5094218957,
				"y": -0.5837460175,
				"z": -1.0859755117,
				"element": "H" 
			},
			{
				"x": -0.7353974758,
				"y": 0.5178295532,
				"z": 3.2397064026,
				"element": "H" 
			},
			{
				"x": 0.8377965746,
				"y": 0.5419273355,
				"z": 2.630604069,
				"element": "H" 
			},
			{
				"x": -2.6952598048,
				"y": 0.4923930251,
				"z": 1.7050103143,
				"element": "H" 
			},
			{
				"x": -5.3622768438,
				"y": -0.2987850536,
				"z": -1.7130185896,
				"element": "H" 
			},
			{
				"x": -3.9319596255,
				"y": -1.2541235832,
				"z": -2.1872007554,
				"element": "H" 
			},
			{
				"x": -3.99522693,
				"y": 0.4955850205,
				"z": -2.5394271636,
				"element": "H" 
			},
			{
				"x": -1.7964023904,
				"y": -0.3114010409,
				"z": -2.4240665052,
				"element": "H" 
			},
			{
				"x": 0.5976400415,
				"y": -0.1411433888,
				"z": -1.9356795627,
				"element": "H" 
			}
		],
		 "valence_orbital": [ 
			{
				"type": "occ",
				"energy": -0.31416,
				"method": "rhf"
			},
			{
				"type": "occ",
				"energy": -0.30358,
				"method": "rhf"
			},
			{
				"type": "occ",
				"energy": -0.27277,
				"method": "rhf"
			},
			{
				"type": "occ",
				"energy": -0.20662,
				"method": "rhf"
			},
			{
				"type": "occ",
				"energy": -0.17784,
				"method": "rhf"
			},
			{
				"type": "unocc",
				"energy": 0.01785,
				"method": "rhf"
			},
			{
				"type": "unocc",
				"energy": 0.04243,
				"method": "rhf"
			},
			{
				"type": "unocc",
				"energy": 0.09245,
				"method": "rhf"
			},
			{
				"type": "unocc",
				"energy": 0.09689,
				"method": "rhf"
			},
			{
				"type": "unocc",
				"energy": 0.10791,
				"method": "rhf"
			}
		],
		"cosmo_sigma_profile": { 
			"-0.025": 0.0,
			"-0.024": 0.0,
			"-0.023": 0.0,
			"-0.022": 0.0,
			"-0.021": 0.0,
			"-0.02": 0.0,
			"-0.019": 0.0,
			"-0.018": 0.0,
			"-0.017": 0.0,
			"-0.016": 0.0,
			"-0.015": 0.0,
			"-0.014": 0.0,
			"-0.013": 0.0639269276726,
			"-0.012": 1.16269265073,
			"-0.011": 1.39492136883,
			"-0.01": 1.72405552369,
			"-0.009": 2.69124815141,
			"-0.008": 2.63538834164,
			"-0.007": 2.08458123377,
			"-0.006": 6.6882904118,
			"-0.005": 14.839167353,
			"-0.004": 23.5354500135,
			"-0.003": 25.9358910428,
			"-0.002": 19.6426106809,
			"-0.001": 14.5061158692,
			"0.0": 13.8093906162,
			"0.001": 11.1424395481,
			"0.002": 9.22320733819,
			"0.003": 6.54531603736,
			"0.004": 10.9603531939,
			"0.005": 11.0138100722,
			"0.006": 13.7935542968,
			"0.007": 11.0225693918,
			"0.008": 3.86014285354,
			"0.009": 2.05205975178,
			"0.01": 2.63261922672,
			"0.011": 2.04764320709,
			"0.012": 1.04811808398,
			"0.013": 0.770141759667,
			"0.014": 0.637385231688,
			"0.015": 0.420980211048,
			"0.016": 0.0,
			"0.017": 0.0,
			"0.018": 0.0,
			"0.019": 0.0,
			"0.02": 0.0,
			"0.021": 0.0,
			"0.022": 0.0,
			"0.023": 0.0,
			"0.024": 0.0,
			"0.025": 0.0
		}
	}
}
