{
	 "smiles": "S1C=CC=C1P(C1=CC=CS1)C1=CC=CS1", 
	 "Tm": 302.65, 
	 "num_atms": 25, 
	 "gaussian": { 
		 "optdone": 1, 
		 "sigma_profile": "yes", 
		 "theory": "DFT", 
		 "functional": "B3LYP", 
		 "basiset": "6-31G**", 
		 "properties": { 
			 "R2extent": 5537.512, 
			 "electric_dipole_moment_norm": 2.10486367492, 
			 "electric_quadrupole_moment_norm": 9.03233327718, 
			 "total_energy": -1998.56299779, 
			 "HOMO_LUMO_gap": 0.18018, 
			 "cosmo_polarized_energy": -8.08, 
			 "cosmo_cavitation_energy": 35.46, 
			 "cosmo_dispersion_energy": -26.38, 
			 "cosmo_repulsion_energy": 2.02, 
			 "cosmo_total_nonelectrostatic_energy": 11.1, 
			 "SMD_solvation_energy": 6.04 
		},
		"coords": [
			{
				"x": -1.9747963742,
				"y": -1.1329815973,
				"z": 1.2173675732,
				"element": "S" 
			},
			{
				"x": -2.1763337299,
				"y": -2.7212850827,
				"z": 1.8752058674,
				"element": "C" 
			},
			{
				"x": -1.6659148344,
				"y": -3.6846122808,
				"z": 1.0468916931,
				"element": "C" 
			},
			{
				"x": -1.1053681142,
				"y": -3.1370067239,
				"z": -0.143268175,
				"element": "C" 
			},
			{
				"x": -1.1773564016,
				"y": -1.7631292913,
				"z": -0.2112953458,
				"element": "C" 
			},
			{
				"x": -0.5492583245,
				"y": -0.7779371126,
				"z": -1.6161745989,
				"element": "P" 
			},
			{
				"x": -1.6393664446,
				"y": 0.6978176174,
				"z": -1.5800614113,
				"element": "C" 
			},
			{
				"x": -1.5024169055,
				"y": 1.8979504534,
				"z": -0.9196830802,
				"element": "C" 
			},
			{
				"x": -2.5591853931,
				"y": 2.8175807091,
				"z": -1.1839574107,
				"element": "C" 
			},
			{
				"x": -3.4931512221,
				"y": 2.3143895526,
				"z": -2.0491957589,
				"element": "C" 
			},
			{
				"x": -3.0864375174,
				"y": 0.7138172891,
				"z": -2.5655932073,
				"element": "S" 
			},
			{
				"x": 1.0051265654,
				"y": -0.0714482327,
				"z": -0.9426421366,
				"element": "C" 
			},
			{
				"x": 1.4830256325,
				"y": 0.0130600919,
				"z": 0.3455277895,
				"element": "C" 
			},
			{
				"x": 2.7843751409,
				"y": 0.5901024422,
				"z": 0.4351053345,
				"element": "C" 
			},
			{
				"x": 3.2934243856,
				"y": 0.9387164046,
				"z": -0.7866152335,
				"element": "C" 
			},
			{
				"x": 2.1957282753,
				"y": 0.5517190136,
				"z": -2.067141182,
				"element": "S" 
			},
			{
				"x": -2.6769885755,
				"y": -2.8545865324,
				"z": 2.824957669,
				"element": "H" 
			},
			{
				"x": -1.7008143928,
				"y": -4.7453262853,
				"z": 1.2682369755,
				"element": "H" 
			},
			{
				"x": -0.6656590221,
				"y": -3.7351399978,
				"z": -0.9340750759,
				"element": "H" 
			},
			{
				"x": -0.6621933448,
				"y": 2.1104831429,
				"z": -0.2689212386,
				"element": "H" 
			},
			{
				"x": -2.6206701055,
				"y": 3.8086451868,
				"z": -0.7483696924,
				"element": "H" 
			},
			{
				"x": -4.3933807975,
				"y": 2.789692761,
				"z": -2.4145315894,
				"element": "H" 
			},
			{
				"x": 0.9191266905,
				"y": -0.3349511892,
				"z": 1.2028246828,
				"element": "H" 
			},
			{
				"x": 3.3155498092,
				"y": 0.7385833419,
				"z": 1.3687045194,
				"element": "H" 
			},
			{
				"x": 4.2471350002,
				"y": 1.3973463194,
				"z": -1.0098969679,
				"element": "H" 
			}
		],
		 "valence_orbital": [ 
			{
				"type": "occ",
				"energy": -0.25319,
				"method": "rhf"
			},
			{
				"type": "occ",
				"energy": -0.25103,
				"method": "rhf"
			},
			{
				"type": "occ",
				"energy": -0.24281,
				"method": "rhf"
			},
			{
				"type": "occ",
				"energy": -0.24075,
				"method": "rhf"
			},
			{
				"type": "occ",
				"energy": -0.21295,
				"method": "rhf"
			},
			{
				"type": "unocc",
				"energy": -0.03277,
				"method": "rhf"
			},
			{
				"type": "unocc",
				"energy": -0.0293,
				"method": "rhf"
			},
			{
				"type": "unocc",
				"energy": -0.01158,
				"method": "rhf"
			},
			{
				"type": "unocc",
				"energy": 0.02548,
				"method": "rhf"
			},
			{
				"type": "unocc",
				"energy": 0.02834,
				"method": "rhf"
			}
		],
		"cosmo_sigma_profile": { 
			"-0.025": 0.0,
			"-0.024": 0.0,
			"-0.023": 0.0,
			"-0.022": 0.0,
			"-0.021": 0.0,
			"-0.02": 0.0,
			"-0.019": 0.0,
			"-0.018": 0.0,
			"-0.017": 0.0,
			"-0.016": 0.0,
			"-0.015": 0.0,
			"-0.014": 0.0,
			"-0.013": 0.0,
			"-0.012": 0.0,
			"-0.011": 0.0,
			"-0.01": 0.0,
			"-0.009": 2.14703900406,
			"-0.008": 6.23597230728,
			"-0.007": 9.72962129993,
			"-0.006": 14.2156403366,
			"-0.005": 14.6810615449,
			"-0.004": 18.351775056,
			"-0.003": 18.5033763628,
			"-0.002": 17.8512528454,
			"-0.001": 19.560019541,
			"0.0": 18.8831325467,
			"0.001": 25.4664559571,
			"0.002": 30.0370459295,
			"0.003": 33.7936636337,
			"0.004": 40.3057068629,
			"0.005": 17.8303007935,
			"0.006": 1.98035042161,
			"0.007": 0.647083185962,
			"0.008": 0.908128927891,
			"0.009": 0.570997809741,
			"0.01": 0.5860995193,
			"0.011": 0.570294073236,
			"0.012": 0.00587762102636,
			"0.013": 0.0,
			"0.014": 0.0,
			"0.015": 0.0,
			"0.016": 0.0,
			"0.017": 0.0,
			"0.018": 0.0,
			"0.019": 0.0,
			"0.02": 0.0,
			"0.021": 0.0,
			"0.022": 0.0,
			"0.023": 0.0,
			"0.024": 0.0,
			"0.025": 0.0
		}
	}
}
