{
	 "smiles": "NC1=C(O)C=CC(=C1)C(F)(F)F", 
	 "Tm": 389.15, 
	 "num_atms": 18, 
	 "gaussian": { 
		 "optdone": 1, 
		 "sigma_profile": "yes", 
		 "theory": "DFT", 
		 "functional": "B3LYP", 
		 "basiset": "6-31G**", 
		 "properties": { 
			 "R2extent": 2498.6926, 
			 "electric_dipole_moment_norm": 3.06501637679, 
			 "electric_quadrupole_moment_norm": 14.2037103008, 
			 "total_energy": -699.865135317, 
			 "HOMO_LUMO_gap": 0.21275, 
			 "cosmo_polarized_energy": -8.75, 
			 "cosmo_cavitation_energy": 23.55, 
			 "cosmo_dispersion_energy": -17.17, 
			 "cosmo_repulsion_energy": 1.33, 
			 "cosmo_total_nonelectrostatic_energy": 7.71, 
			 "SMD_solvation_energy": 5.89 
		},
		"coords": [
			{
				"x": 1.4474100601,
				"y": -1.3338962742,
				"z": -2.944506483,
				"element": "N" 
			},
			{
				"x": 0.425845643,
				"y": -1.0230058551,
				"z": -1.9746224638,
				"element": "C" 
			},
			{
				"x": -0.4512493415,
				"y": -2.0866741164,
				"z": -1.675111347,
				"element": "C" 
			},
			{
				"x": -0.2799278266,
				"y": -3.2746019463,
				"z": -2.2888589261,
				"element": "O" 
			},
			{
				"x": -1.4883729708,
				"y": -1.9041676356,
				"z": -0.7530709035,
				"element": "C" 
			},
			{
				"x": -1.6441698503,
				"y": -0.6702315702,
				"z": -0.1316691634,
				"element": "C" 
			},
			{
				"x": -0.7758132698,
				"y": 0.3888910907,
				"z": -0.421867244,
				"element": "C" 
			},
			{
				"x": 0.2586632167,
				"y": 0.206206186,
				"z": -1.3451984216,
				"element": "C" 
			},
			{
				"x": -0.9129796346,
				"y": 1.696634118,
				"z": 0.2992360165,
				"element": "C" 
			},
			{
				"x": -0.4697329554,
				"y": 2.7352973883,
				"z": -0.4486338759,
				"element": "F" 
			},
			{
				"x": -2.196821217,
				"y": 1.9575281987,
				"z": 0.6354623031,
				"element": "F" 
			},
			{
				"x": -0.1992171011,
				"y": 1.7222173917,
				"z": 1.4523524651,
				"element": "F" 
			},
			{
				"x": 1.355749399,
				"y": -0.7634216698,
				"z": -3.781286875,
				"element": "H" 
			},
			{
				"x": 2.3795748678,
				"y": -1.1773357945,
				"z": -2.5705077177,
				"element": "H" 
			},
			{
				"x": 0.50359696,
				"y": -3.1364567213,
				"z": -2.8626607577,
				"element": "H" 
			},
			{
				"x": -2.1561732757,
				"y": -2.7317549657,
				"z": -0.5402250696,
				"element": "H" 
			},
			{
				"x": -2.4502252758,
				"y": -0.5215765989,
				"z": 0.5789030439,
				"element": "H" 
			},
			{
				"x": 0.9281425721,
				"y": 1.0285487746,
				"z": -1.5790345805,
				"element": "H" 
			}
		],
		 "valence_orbital": [ 
			{
				"type": "occ",
				"energy": -0.34942,
				"method": "rhf"
			},
			{
				"type": "occ",
				"energy": -0.3429,
				"method": "rhf"
			},
			{
				"type": "occ",
				"energy": -0.28878,
				"method": "rhf"
			},
			{
				"type": "occ",
				"energy": -0.26394,
				"method": "rhf"
			},
			{
				"type": "occ",
				"energy": -0.23064,
				"method": "rhf"
			},
			{
				"type": "unocc",
				"energy": -0.01789,
				"method": "rhf"
			},
			{
				"type": "unocc",
				"energy": -0.00961,
				"method": "rhf"
			},
			{
				"type": "unocc",
				"energy": 0.06174,
				"method": "rhf"
			},
			{
				"type": "unocc",
				"energy": 0.10352,
				"method": "rhf"
			},
			{
				"type": "unocc",
				"energy": 0.11791,
				"method": "rhf"
			}
		],
		"cosmo_sigma_profile": { 
			"-0.025": 0.0,
			"-0.024": 0.0,
			"-0.023": 0.0,
			"-0.022": 0.0,
			"-0.021": 0.0,
			"-0.02": 0.0,
			"-0.019": 0.0,
			"-0.018": 0.0,
			"-0.017": 0.0,
			"-0.016": 0.0,
			"-0.015": 0.0,
			"-0.014": 0.0,
			"-0.013": 0.168527535281,
			"-0.012": 2.10099716206,
			"-0.011": 3.47484182803,
			"-0.01": 3.35910916851,
			"-0.009": 2.78791087059,
			"-0.008": 3.48233128125,
			"-0.007": 5.35404234667,
			"-0.006": 9.24360158424,
			"-0.005": 8.19933945796,
			"-0.004": 7.22166715765,
			"-0.003": 8.2824447523,
			"-0.002": 7.75232201991,
			"-0.001": 8.55764084466,
			"0.0": 9.56690365403,
			"0.001": 13.7359631087,
			"0.002": 21.0642171899,
			"0.003": 43.41919448,
			"0.004": 16.4849400782,
			"0.005": 1.94311464629,
			"0.006": 1.82837750516,
			"0.007": 2.30332917139,
			"0.008": 1.46786670172,
			"0.009": 1.52938738895,
			"0.01": 1.69606778329,
			"0.011": 1.99110061856,
			"0.012": 0.763496516784,
			"0.013": 0.0,
			"0.014": 0.0,
			"0.015": 0.0,
			"0.016": 0.0,
			"0.017": 0.0,
			"0.018": 0.0,
			"0.019": 0.0,
			"0.02": 0.0,
			"0.021": 0.0,
			"0.022": 0.0,
			"0.023": 0.0,
			"0.024": 0.0,
			"0.025": 0.0
		}
	}
}
