{
	 "smiles": "CCCCCCCCCCCCCCC(C)=C", 
	 "Tm": 275.15, 
	 "num_atms": 51, 
	 "gaussian": { 
		 "optdone": 1, 
		 "sigma_profile": "yes", 
		 "theory": "DFT", 
		 "functional": "B3LYP", 
		 "basiset": "6-31G**", 
		 "properties": { 
			 "R2extent": 9703.5576, 
			 "electric_dipole_moment_norm": 0.598455060969, 
			 "electric_quadrupole_moment_norm": 2.91991765295, 
			 "total_energy": -668.327263486, 
			 "HOMO_LUMO_gap": 0.26737, 
			 "cosmo_polarized_energy": -2.26, 
			 "cosmo_cavitation_energy": 49.57, 
			 "cosmo_dispersion_energy": -32.72, 
			 "cosmo_repulsion_energy": 2.64, 
			 "cosmo_total_nonelectrostatic_energy": 19.49, 
			 "SMD_solvation_energy": 7.34 
		},
		"coords": [
			{
				"x": 0.0344733977,
				"y": -6.4769910238,
				"z": 4.0714361425,
				"element": "C" 
			},
			{
				"x": 0.6053991052,
				"y": -5.0758961486,
				"z": 3.8301946211,
				"element": "C" 
			},
			{
				"x": -0.1301592026,
				"y": -4.3031012136,
				"z": 2.7279483379,
				"element": "C" 
			},
			{
				"x": 0.4337567999,
				"y": -2.898040706,
				"z": 2.4797927648,
				"element": "C" 
			},
			{
				"x": -0.3078272209,
				"y": -2.1343800275,
				"z": 1.373707785,
				"element": "C" 
			},
			{
				"x": 0.1656022538,
				"y": -0.6852821989,
				"z": 1.1613833178,
				"element": "C" 
			},
			{
				"x": 1.6294917103,
				"y": -0.5137489412,
				"z": 0.7138694008,
				"element": "C" 
			},
			{
				"x": 2.0049578486,
				"y": -1.182302773,
				"z": -0.6209848989,
				"element": "C" 
			},
			{
				"x": 1.2809602507,
				"y": -0.6830990445,
				"z": -1.8871544671,
				"element": "C" 
			},
			{
				"x": 1.5936170509,
				"y": 0.7741146337,
				"z": -2.3023421296,
				"element": "C" 
			},
			{
				"x": 0.6339485783,
				"y": 1.8608296626,
				"z": -1.7793416356,
				"element": "C" 
			},
			{
				"x": -0.757712473,
				"y": 1.8266111237,
				"z": -2.4302784349,
				"element": "C" 
			},
			{
				"x": -1.6912606297,
				"y": 2.974457346,
				"z": -2.0102385914,
				"element": "C" 
			},
			{
				"x": -2.1291565943,
				"y": 2.9256549193,
				"z": -0.5310158481,
				"element": "C" 
			},
			{
				"x": -3.1262682193,
				"y": 4.0006313392,
				"z": -0.1501291486,
				"element": "C" 
			},
			{
				"x": -2.6247126466,
				"y": 5.4248994622,
				"z": -0.1496719214,
				"element": "C" 
			},
			{
				"x": -4.3884405738,
				"y": 3.7008205417,
				"z": 0.1746936024,
				"element": "C" 
			},
			{
				"x": 0.5798291665,
				"y": -7.0020699403,
				"z": 4.8626249463,
				"element": "H" 
			},
			{
				"x": 0.0924663978,
				"y": -7.0900824245,
				"z": 3.1646632885,
				"element": "H" 
			},
			{
				"x": -1.0193055407,
				"y": -6.4296234198,
				"z": 4.3693547345,
				"element": "H" 
			},
			{
				"x": 0.5659333625,
				"y": -4.4986264347,
				"z": 4.7641100293,
				"element": "H" 
			},
			{
				"x": 1.6694911156,
				"y": -5.1542889224,
				"z": 3.5682705044,
				"element": "H" 
			},
			{
				"x": -0.0902382718,
				"y": -4.881056328,
				"z": 1.7932075878,
				"element": "H" 
			},
			{
				"x": -1.19557104,
				"y": -4.2263541811,
				"z": 2.9891214577,
				"element": "H" 
			},
			{
				"x": 0.3870992856,
				"y": -2.3180783739,
				"z": 3.4131350725,
				"element": "H" 
			},
			{
				"x": 1.4996511867,
				"y": -2.9813101599,
				"z": 2.2286248923,
				"element": "H" 
			},
			{
				"x": -0.2303096907,
				"y": -2.6958433947,
				"z": 0.4327616213,
				"element": "H" 
			},
			{
				"x": -1.3786876569,
				"y": -2.1134185991,
				"z": 1.618140096,
				"element": "H" 
			},
			{
				"x": 0.0249689914,
				"y": -0.1292228576,
				"z": 2.0985611477,
				"element": "H" 
			},
			{
				"x": -0.4981643772,
				"y": -0.206150856,
				"z": 0.4305247098,
				"element": "H" 
			},
			{
				"x": 2.2928040947,
				"y": -0.9115540853,
				"z": 1.4925924879,
				"element": "H" 
			},
			{
				"x": 1.8553644665,
				"y": 0.5587933197,
				"z": 0.6618783704,
				"element": "H" 
			},
			{
				"x": 3.0859485216,
				"y": -1.0577724752,
				"z": -0.7739718195,
				"element": "H" 
			},
			{
				"x": 1.8433179055,
				"y": -2.26498147,
				"z": -0.5363492123,
				"element": "H" 
			},
			{
				"x": 0.1975885991,
				"y": -0.8212672134,
				"z": -1.7811418843,
				"element": "H" 
			},
			{
				"x": 1.577287102,
				"y": -1.3480124508,
				"z": -2.7080043876,
				"element": "H" 
			},
			{
				"x": 1.6010913751,
				"y": 0.8376218601,
				"z": -3.3988626296,
				"element": "H" 
			},
			{
				"x": 2.617085163,
				"y": 1.0177868467,
				"z": -1.9863748956,
				"element": "H" 
			},
			{
				"x": 0.5408083885,
				"y": 1.7850664543,
				"z": -0.6901116271,
				"element": "H" 
			},
			{
				"x": 1.0826377608,
				"y": 2.8446814839,
				"z": -1.9765625446,
				"element": "H" 
			},
			{
				"x": -0.6315831904,
				"y": 1.86210236,
				"z": -3.5212243376,
				"element": "H" 
			},
			{
				"x": -1.2512163247,
				"y": 0.8687569618,
				"z": -2.2157504064,
				"element": "H" 
			},
			{
				"x": -2.5922495604,
				"y": 2.9493791838,
				"z": -2.6360835015,
				"element": "H" 
			},
			{
				"x": -1.1972804555,
				"y": 3.9322492119,
				"z": -2.2212125583,
				"element": "H" 
			},
			{
				"x": -2.5639751508,
				"y": 1.9399158769,
				"z": -0.3241872948,
				"element": "H" 
			},
			{
				"x": -1.2426555565,
				"y": 3.0183886169,
				"z": 0.1119867555,
				"element": "H" 
			},
			{
				"x": -2.2872533249,
				"y": 5.7351331142,
				"z": -1.146160159,
				"element": "H" 
			},
			{
				"x": -3.399733463,
				"y": 6.1243783504,
				"z": 0.1748238488,
				"element": "H" 
			},
			{
				"x": -1.7615682999,
				"y": 5.5358798496,
				"z": 0.5198146606,
				"element": "H" 
			},
			{
				"x": -4.7472571657,
				"y": 2.6749400066,
				"z": 0.1816459446,
				"element": "H" 
			},
			{
				"x": -5.1070932491,
				"y": 4.4695631387,
				"z": 0.4462862051,
				"element": "H" 
			}
		],
		 "valence_orbital": [ 
			{
				"type": "occ",
				"energy": -0.30341,
				"method": "rhf"
			},
			{
				"type": "occ",
				"energy": -0.30223,
				"method": "rhf"
			},
			{
				"type": "occ",
				"energy": -0.29736,
				"method": "rhf"
			},
			{
				"type": "occ",
				"energy": -0.29398,
				"method": "rhf"
			},
			{
				"type": "occ",
				"energy": -0.23759,
				"method": "rhf"
			},
			{
				"type": "unocc",
				"energy": 0.02978,
				"method": "rhf"
			},
			{
				"type": "unocc",
				"energy": 0.07163,
				"method": "rhf"
			},
			{
				"type": "unocc",
				"energy": 0.08863,
				"method": "rhf"
			},
			{
				"type": "unocc",
				"energy": 0.0957,
				"method": "rhf"
			},
			{
				"type": "unocc",
				"energy": 0.09853,
				"method": "rhf"
			}
		],
		"cosmo_sigma_profile": { 
			"-0.025": 0.0,
			"-0.024": 0.0,
			"-0.023": 0.0,
			"-0.022": 0.0,
			"-0.021": 0.0,
			"-0.02": 0.0,
			"-0.019": 0.0,
			"-0.018": 0.0,
			"-0.017": 0.0,
			"-0.016": 0.0,
			"-0.015": 0.0,
			"-0.014": 0.0,
			"-0.013": 0.0,
			"-0.012": 0.0,
			"-0.011": 0.0,
			"-0.01": 0.0,
			"-0.009": 0.0,
			"-0.008": 0.0,
			"-0.007": 0.0,
			"-0.006": 0.0,
			"-0.005": 0.00644272778754,
			"-0.004": 3.30997414902,
			"-0.003": 16.0593962439,
			"-0.002": 47.4238345848,
			"-0.001": 88.2418672374,
			"0.0": 93.2598100952,
			"0.001": 74.6349434563,
			"0.002": 36.4685156482,
			"0.003": 5.67465919547,
			"0.004": 4.42208351397,
			"0.005": 3.15044367634,
			"0.006": 3.14322474608,
			"0.007": 2.68895291095,
			"0.008": 1.13481565362,
			"0.009": 0.0,
			"0.01": 0.0,
			"0.011": 0.0,
			"0.012": 0.0,
			"0.013": 0.0,
			"0.014": 0.0,
			"0.015": 0.0,
			"0.016": 0.0,
			"0.017": 0.0,
			"0.018": 0.0,
			"0.019": 0.0,
			"0.02": 0.0,
			"0.021": 0.0,
			"0.022": 0.0,
			"0.023": 0.0,
			"0.024": 0.0,
			"0.025": 0.0
		}
	}
}
