{
	 "smiles": "CN1N(C(=O)C(N2C(C)=CC(C(=O)CCl)=C2C)=C1C)C1=CC=CC=C1", 
	 "Tm": 434.15, 
	 "num_atms": 45, 
	 "gaussian": { 
		 "optdone": 1, 
		 "sigma_profile": "yes", 
		 "theory": "DFT", 
		 "functional": "B3LYP", 
		 "basiset": "6-31G**", 
		 "properties": { 
			 "R2extent": 12741.2145, 
			 "electric_dipole_moment_norm": 10.9196545009, 
			 "electric_quadrupole_moment_norm": 34.2688455717, 
			 "total_energy": -1510.94791366, 
			 "HOMO_LUMO_gap": 0.16571, 
			 "cosmo_polarized_energy": -27.56, 
			 "cosmo_cavitation_energy": 49.46, 
			 "cosmo_dispersion_energy": -33.08, 
			 "cosmo_repulsion_energy": 2.51, 
			 "cosmo_total_nonelectrostatic_energy": 18.89, 
			 "SMD_solvation_energy": 9.08 
		},
		"coords": [
			{
				"x": 2.2820325249,
				"y": 2.9818220058,
				"z": 0.2580462198,
				"element": "C" 
			},
			{
				"x": 1.2014738243,
				"y": 2.2562607089,
				"z": -0.4257568663,
				"element": "N" 
			},
			{
				"x": -0.0815594348,
				"y": 2.4721747674,
				"z": 0.1252466886,
				"element": "N" 
			},
			{
				"x": -0.8103571466,
				"y": 1.2572214994,
				"z": 0.1492283257,
				"element": "C" 
			},
			{
				"x": -1.9872271441,
				"y": 1.147017385,
				"z": 0.4584019896,
				"element": "O" 
			},
			{
				"x": 0.1537068026,
				"y": 0.2599336388,
				"z": -0.3178251883,
				"element": "C" 
			},
			{
				"x": -0.1486241777,
				"y": -1.1083211347,
				"z": -0.474966419,
				"element": "N" 
			},
			{
				"x": -1.0298687035,
				"y": -1.6070472507,
				"z": -1.445889194,
				"element": "C" 
			},
			{
				"x": -1.7377550196,
				"y": -0.7070906965,
				"z": -2.4049857918,
				"element": "C" 
			},
			{
				"x": -1.0733516104,
				"y": -2.9628247682,
				"z": -1.2918640492,
				"element": "C" 
			},
			{
				"x": -0.219369108,
				"y": -3.3253393524,
				"z": -0.1989800057,
				"element": "C" 
			},
			{
				"x": -0.0476200569,
				"y": -4.7318829314,
				"z": 0.1995189556,
				"element": "C" 
			},
			{
				"x": -0.6171031671,
				"y": -5.63326704,
				"z": -0.3927429789,
				"element": "O" 
			},
			{
				"x": 0.8744068391,
				"y": -5.0252457764,
				"z": 1.393859766,
				"element": "C" 
			},
			{
				"x": 1.1081929354,
				"y": -6.7772437696,
				"z": 1.6972472304,
				"element": "Cl" 
			},
			{
				"x": 0.3391776195,
				"y": -2.1491951092,
				"z": 0.3039636902,
				"element": "C" 
			},
			{
				"x": 1.260580547,
				"y": -1.8830550537,
				"z": 1.4553541582,
				"element": "C" 
			},
			{
				"x": 1.3254777805,
				"y": 0.8882239811,
				"z": -0.624124852,
				"element": "C" 
			},
			{
				"x": 2.6089804674,
				"y": 0.2926407336,
				"z": -1.101259709,
				"element": "C" 
			},
			{
				"x": -0.6812911933,
				"y": 3.7555868989,
				"z": 0.0041665767,
				"element": "C" 
			},
			{
				"x": -0.2599547347,
				"y": 4.6596286741,
				"z": -0.9800157682,
				"element": "C" 
			},
			{
				"x": -0.8589568433,
				"y": 5.9166061093,
				"z": -1.0639936967,
				"element": "C" 
			},
			{
				"x": -1.8881154155,
				"y": 6.2694814109,
				"z": -0.1902387339,
				"element": "C" 
			},
			{
				"x": -2.314818334,
				"y": 5.3548883095,
				"z": 0.7752386246,
				"element": "C" 
			},
			{
				"x": -1.7120991648,
				"y": 4.1032983115,
				"z": 0.8872497673,
				"element": "C" 
			},
			{
				"x": 2.3957285189,
				"y": 2.6525610083,
				"z": 1.2986845934,
				"element": "H" 
			},
			{
				"x": 2.0591778738,
				"y": 4.0487380344,
				"z": 0.2409622092,
				"element": "H" 
			},
			{
				"x": 3.2117332473,
				"y": 2.8133178603,
				"z": -0.2869644642,
				"element": "H" 
			},
			{
				"x": -1.0406093631,
				"y": -0.114744594,
				"z": -3.0105556321,
				"element": "H" 
			},
			{
				"x": -2.3423669521,
				"y": -1.3106262947,
				"z": -3.0855638098,
				"element": "H" 
			},
			{
				"x": -2.4002380049,
				"y": -0.0096058076,
				"z": -1.8811105952,
				"element": "H" 
			},
			{
				"x": -1.649137728,
				"y": -3.662883857,
				"z": -1.8784565224,
				"element": "H" 
			},
			{
				"x": 1.8616177853,
				"y": -4.5866974155,
				"z": 1.2349839552,
				"element": "H" 
			},
			{
				"x": 0.4516097176,
				"y": -4.5923181944,
				"z": 2.3042083008,
				"element": "H" 
			},
			{
				"x": 1.2926341812,
				"y": -0.8151174975,
				"z": 1.6818460682,
				"element": "H" 
			},
			{
				"x": 2.2895693946,
				"y": -2.2096524121,
				"z": 1.2569971587,
				"element": "H" 
			},
			{
				"x": 0.9272068844,
				"y": -2.395676138,
				"z": 2.3618128878,
				"element": "H" 
			},
			{
				"x": 3.0276052359,
				"y": 0.8732785677,
				"z": -1.9286932314,
				"element": "H" 
			},
			{
				"x": 2.4288545732,
				"y": -0.7274094715,
				"z": -1.4460158895,
				"element": "H" 
			},
			{
				"x": 3.3613188514,
				"y": 0.2503349195,
				"z": -0.3047494238,
				"element": "H" 
			},
			{
				"x": 0.5138824966,
				"y": 4.368228983,
				"z": -1.6818768128,
				"element": "H" 
			},
			{
				"x": -0.5264684459,
				"y": 6.6145602175,
				"z": -1.8269120332,
				"element": "H" 
			},
			{
				"x": -2.3561138772,
				"y": 7.2463928966,
				"z": -0.2631121926,
				"element": "H" 
			},
			{
				"x": -3.1189324399,
				"y": 5.6179065684,
				"z": 1.4560737988,
				"element": "H" 
			},
			{
				"x": -2.0409300354,
				"y": 3.3891410752,
				"z": 1.6309628953,
				"element": "H" 
			}
		],
		 "valence_orbital": [ 
			{
				"type": "occ",
				"energy": -0.25334,
				"method": "rhf"
			},
			{
				"type": "occ",
				"energy": -0.24211,
				"method": "rhf"
			},
			{
				"type": "occ",
				"energy": -0.24054,
				"method": "rhf"
			},
			{
				"type": "occ",
				"energy": -0.22568,
				"method": "rhf"
			},
			{
				"type": "occ",
				"energy": -0.20926,
				"method": "rhf"
			},
			{
				"type": "unocc",
				"energy": -0.04355,
				"method": "rhf"
			},
			{
				"type": "unocc",
				"energy": -0.02657,
				"method": "rhf"
			},
			{
				"type": "unocc",
				"energy": -0.01405,
				"method": "rhf"
			},
			{
				"type": "unocc",
				"energy": -0.00727,
				"method": "rhf"
			},
			{
				"type": "unocc",
				"energy": 0.03595,
				"method": "rhf"
			}
		],
		"cosmo_sigma_profile": { 
			"-0.025": 0.0,
			"-0.024": 0.0,
			"-0.023": 0.0,
			"-0.022": 0.0,
			"-0.021": 0.0,
			"-0.02": 0.0,
			"-0.019": 0.0,
			"-0.018": 0.0,
			"-0.017": 0.0,
			"-0.016": 0.0,
			"-0.015": 0.0,
			"-0.014": 0.0,
			"-0.013": 0.0,
			"-0.012": 0.0,
			"-0.011": 0.0,
			"-0.01": 0.0617940410479,
			"-0.009": 3.56001739306,
			"-0.008": 5.75270282887,
			"-0.007": 9.12011280675,
			"-0.006": 25.4229240753,
			"-0.005": 34.3085067353,
			"-0.004": 39.060239567,
			"-0.003": 39.9711595363,
			"-0.002": 33.5495413328,
			"-0.001": 27.0691278237,
			"0.0": 22.8490796346,
			"0.001": 18.5244675835,
			"0.002": 17.8100293778,
			"0.003": 16.7389335782,
			"0.004": 18.7754129347,
			"0.005": 24.1442684422,
			"0.006": 16.2504193497,
			"0.007": 7.01349451929,
			"0.008": 4.96948355207,
			"0.009": 4.61210240594,
			"0.01": 3.51103146068,
			"0.011": 5.20541734539,
			"0.012": 6.1438209798,
			"0.013": 7.36508984656,
			"0.014": 3.35005576098,
			"0.015": 0.103975005593,
			"0.016": 0.0,
			"0.017": 0.0,
			"0.018": 0.0,
			"0.019": 0.0,
			"0.02": 0.0,
			"0.021": 0.0,
			"0.022": 0.0,
			"0.023": 0.0,
			"0.024": 0.0,
			"0.025": 0.0
		}
	}
}
