{
	 "smiles": "CC1=C(C)C(Cl)=C2C=C(Br)C=CC2=N1", 
	 "Tm": 373.15, 
	 "num_atms": 23, 
	 "gaussian": { 
		 "optdone": 1, 
		 "sigma_profile": "yes", 
		 "theory": "DFT", 
		 "functional": "B3LYP", 
		 "basiset": "6-31G**", 
		 "properties": { 
			 "R2extent": 5817.3442, 
			 "electric_dipole_moment_norm": 2.3730880915, 
			 "electric_quadrupole_moment_norm": 7.07749511904, 
			 "total_energy": -3510.96539602, 
			 "HOMO_LUMO_gap": 0.17065, 
			 "cosmo_polarized_energy": -5.79, 
			 "cosmo_cavitation_energy": 30.3, 
			 "cosmo_dispersion_energy": -22.92, 
			 "cosmo_repulsion_energy": 1.78, 
			 "cosmo_total_nonelectrostatic_energy": 9.16, 
			 "SMD_solvation_energy": 2.25 
		},
		"coords": [
			{
				"x": -2.8828396231,
				"y": 2.8622335377,
				"z": -1.3205838175,
				"element": "C" 
			},
			{
				"x": -1.9894029994,
				"y": 1.6486132369,
				"z": -1.207029723,
				"element": "C" 
			},
			{
				"x": -0.8433005627,
				"y": 1.4922529239,
				"z": -2.0630853977,
				"element": "C" 
			},
			{
				"x": -0.4817206564,
				"y": 2.5214743065,
				"z": -3.1047745448,
				"element": "C" 
			},
			{
				"x": -0.086749031,
				"y": 0.3506735155,
				"z": -1.8853054725,
				"element": "C" 
			},
			{
				"x": 1.3294707448,
				"y": 0.0918097561,
				"z": -2.8960504916,
				"element": "Cl" 
			},
			{
				"x": -0.4161181176,
				"y": -0.6282641427,
				"z": -0.9069093019,
				"element": "C" 
			},
			{
				"x": 0.3174809234,
				"y": -1.819526202,
				"z": -0.6741353719,
				"element": "C" 
			},
			{
				"x": -0.1024404076,
				"y": -2.6905545543,
				"z": 0.3035784775,
				"element": "C" 
			},
			{
				"x": 0.8817753146,
				"y": -4.2968459144,
				"z": 0.6218990925,
				"element": "Br" 
			},
			{
				"x": -1.2498329849,
				"y": -2.4360472548,
				"z": 1.0902768677,
				"element": "C" 
			},
			{
				"x": -1.9698251255,
				"y": -1.2847047587,
				"z": 0.8745734211,
				"element": "C" 
			},
			{
				"x": -1.5787713515,
				"y": -0.3522076313,
				"z": -0.1226442011,
				"element": "C" 
			},
			{
				"x": -2.3325951816,
				"y": 0.7673153196,
				"z": -0.2868661599,
				"element": "N" 
			},
			{
				"x": -3.6813924677,
				"y": 2.7746127887,
				"z": -0.5835054792,
				"element": "H" 
			},
			{
				"x": -2.3324068207,
				"y": 3.7914184956,
				"z": -1.1339458147,
				"element": "H" 
			},
			{
				"x": -3.331577159,
				"y": 2.9451654884,
				"z": -2.3170529087,
				"element": "H" 
			},
			{
				"x": 0.5229108099,
				"y": 2.9204740268,
				"z": -2.9282812753,
				"element": "H" 
			},
			{
				"x": -0.4717119582,
				"y": 2.077774812,
				"z": -4.1061058943,
				"element": "H" 
			},
			{
				"x": -1.1809135609,
				"y": 3.3564695188,
				"z": -3.1117346476,
				"element": "H" 
			},
			{
				"x": 1.1988463108,
				"y": -2.0352145968,
				"z": -1.2640123511,
				"element": "H" 
			},
			{
				"x": -1.5478216241,
				"y": -3.1480023736,
				"z": 1.8511998175,
				"element": "H" 
			},
			{
				"x": -2.8555644715,
				"y": -1.0527202979,
				"z": 1.4564951763,
				"element": "H" 
			}
		],
		 "valence_orbital": [ 
			{
				"type": "occ",
				"energy": -0.29331,
				"method": "rhf"
			},
			{
				"type": "occ",
				"energy": -0.29009,
				"method": "rhf"
			},
			{
				"type": "occ",
				"energy": -0.26297,
				"method": "rhf"
			},
			{
				"type": "occ",
				"energy": -0.24963,
				"method": "rhf"
			},
			{
				"type": "occ",
				"energy": -0.23449,
				"method": "rhf"
			},
			{
				"type": "unocc",
				"energy": -0.06384,
				"method": "rhf"
			},
			{
				"type": "unocc",
				"energy": -0.02903,
				"method": "rhf"
			},
			{
				"type": "unocc",
				"energy": 0.00419,
				"method": "rhf"
			},
			{
				"type": "unocc",
				"energy": 0.01016,
				"method": "rhf"
			},
			{
				"type": "unocc",
				"energy": 0.02425,
				"method": "rhf"
			}
		],
		"cosmo_sigma_profile": { 
			"-0.025": 0.0,
			"-0.024": 0.0,
			"-0.023": 0.0,
			"-0.022": 0.0,
			"-0.021": 0.0,
			"-0.02": 0.0,
			"-0.019": 0.0,
			"-0.018": 0.0,
			"-0.017": 0.0,
			"-0.016": 0.0,
			"-0.015": 0.0,
			"-0.014": 0.0,
			"-0.013": 0.0,
			"-0.012": 0.0,
			"-0.011": 0.0,
			"-0.01": 0.0,
			"-0.009": 0.0,
			"-0.008": 0.415425219567,
			"-0.007": 2.72591836831,
			"-0.006": 4.86616659584,
			"-0.005": 15.4913726423,
			"-0.004": 17.3744621467,
			"-0.003": 18.6613142017,
			"-0.002": 21.3516672271,
			"-0.001": 28.2836270988,
			"0.0": 31.8988286532,
			"0.001": 29.3426709837,
			"0.002": 27.0581245829,
			"0.003": 18.061408994,
			"0.004": 17.4211865472,
			"0.005": 5.40716791462,
			"0.006": 1.41076324934,
			"0.007": 1.97594683792,
			"0.008": 1.06586071285,
			"0.009": 0.921322384544,
			"0.01": 0.872459177003,
			"0.011": 1.166422612,
			"0.012": 0.727095961904,
			"0.013": 0.654716825295,
			"0.014": 0.81652886568,
			"0.015": 0.0196474085243,
			"0.016": 0.0,
			"0.017": 0.0,
			"0.018": 0.0,
			"0.019": 0.0,
			"0.02": 0.0,
			"0.021": 0.0,
			"0.022": 0.0,
			"0.023": 0.0,
			"0.024": 0.0,
			"0.025": 0.0
		}
	}
}
