{
	 "smiles": "ClS(=O)(=O)C1=C(C=CS1)C1OCCO1", 
	 "Tm": 366.65, 
	 "num_atms": 21, 
	 "gaussian": { 
		 "optdone": 1, 
		 "sigma_profile": "yes", 
		 "theory": "DFT", 
		 "functional": "B3LYP", 
		 "basiset": "6-31G**", 
		 "properties": { 
			 "R2extent": 4358.9699, 
			 "electric_dipole_moment_norm": 5.66231795734, 
			 "electric_quadrupole_moment_norm": 17.2303007301, 
			 "total_energy": -1828.30380607, 
			 "HOMO_LUMO_gap": 0.17873, 
			 "cosmo_polarized_energy": -12.19, 
			 "cosmo_cavitation_energy": 29.61, 
			 "cosmo_dispersion_energy": -22.51, 
			 "cosmo_repulsion_energy": 1.69, 
			 "cosmo_total_nonelectrostatic_energy": 8.79, 
			 "SMD_solvation_energy": 3.76 
		},
		"coords": [
			{
				"x": 3.4606778094,
				"y": 0.3506742272,
				"z": -1.2053144727,
				"element": "Cl" 
			},
			{
				"x": 2.1782597289,
				"y": 2.041705859,
				"z": -1.1252401255,
				"element": "S" 
			},
			{
				"x": 3.0388874616,
				"y": 3.1762384743,
				"z": -0.8132010791,
				"element": "O" 
			},
			{
				"x": 1.3611458337,
				"y": 1.9908550022,
				"z": -2.3310920953,
				"element": "O" 
			},
			{
				"x": 1.1751626091,
				"y": 1.7176638873,
				"z": 0.2826083544,
				"element": "C" 
			},
			{
				"x": 0.0064063918,
				"y": 0.9843946243,
				"z": 0.3534138294,
				"element": "C" 
			},
			{
				"x": -0.5050875684,
				"y": 0.9658418127,
				"z": 1.6807094115,
				"element": "C" 
			},
			{
				"x": 0.2803199935,
				"y": 1.6544323068,
				"z": 2.5683063099,
				"element": "C" 
			},
			{
				"x": 1.6650803164,
				"y": 2.360920709,
				"z": 1.8248990978,
				"element": "S" 
			},
			{
				"x": -0.6694640673,
				"y": 0.2757716991,
				"z": -0.7998083777,
				"element": "C" 
			},
			{
				"x": 0.0843746545,
				"y": -0.8670604372,
				"z": -1.1459900278,
				"element": "O" 
			},
			{
				"x": -0.8627321841,
				"y": -1.7620135689,
				"z": -1.7228832358,
				"element": "C" 
			},
			{
				"x": -2.0935817981,
				"y": -1.5444976125,
				"z": -0.8361164472,
				"element": "C" 
			},
			{
				"x": -1.9655591369,
				"y": -0.1787866065,
				"z": -0.4187865387,
				"element": "O" 
			},
			{
				"x": -1.4312510674,
				"y": 0.4684149268,
				"z": 1.9353635761,
				"element": "H" 
			},
			{
				"x": 0.1095853446,
				"y": 1.8053302476,
				"z": 3.6259738692,
				"element": "H" 
			},
			{
				"x": -0.7676082028,
				"y": 0.9483080894,
				"z": -1.6636825933,
				"element": "H" 
			},
			{
				"x": -0.4506054258,
				"y": -2.7719655242,
				"z": -1.6810151967,
				"element": "H" 
			},
			{
				"x": -1.0678473774,
				"y": -1.4922906052,
				"z": -2.769157945,
				"element": "H" 
			},
			{
				"x": -3.0402107173,
				"y": -1.6725602289,
				"z": -1.3699184562,
				"element": "H" 
			},
			{
				"x": -2.0827525978,
				"y": -2.2023772822,
				"z": 0.0418321426,
				"element": "H" 
			}
		],
		 "valence_orbital": [ 
			{
				"type": "occ",
				"energy": -0.3092,
				"method": "rhf"
			},
			{
				"type": "occ",
				"energy": -0.29107,
				"method": "rhf"
			},
			{
				"type": "occ",
				"energy": -0.28321,
				"method": "rhf"
			},
			{
				"type": "occ",
				"energy": -0.27538,
				"method": "rhf"
			},
			{
				"type": "occ",
				"energy": -0.27043,
				"method": "rhf"
			},
			{
				"type": "unocc",
				"energy": -0.0917,
				"method": "rhf"
			},
			{
				"type": "unocc",
				"energy": -0.04868,
				"method": "rhf"
			},
			{
				"type": "unocc",
				"energy": -0.00247,
				"method": "rhf"
			},
			{
				"type": "unocc",
				"energy": 0.01947,
				"method": "rhf"
			},
			{
				"type": "unocc",
				"energy": 0.04395,
				"method": "rhf"
			}
		],
		"cosmo_sigma_profile": { 
			"-0.025": 0.0,
			"-0.024": 0.0,
			"-0.023": 0.0,
			"-0.022": 0.0,
			"-0.021": 0.0,
			"-0.02": 0.0,
			"-0.019": 0.0,
			"-0.018": 0.0,
			"-0.017": 0.0,
			"-0.016": 0.0,
			"-0.015": 0.0,
			"-0.014": 0.0,
			"-0.013": 0.0,
			"-0.012": 0.0,
			"-0.011": 1.4739060242,
			"-0.01": 2.53402894829,
			"-0.009": 1.96301893381,
			"-0.008": 2.73768009751,
			"-0.007": 4.84126468914,
			"-0.006": 14.5041046427,
			"-0.005": 21.7679446184,
			"-0.004": 16.7350737006,
			"-0.003": 13.5213866567,
			"-0.002": 14.0214605987,
			"-0.001": 18.7924422932,
			"0.0": 21.3541436419,
			"0.001": 19.7822197138,
			"0.002": 16.1257652798,
			"0.003": 15.4608218562,
			"0.004": 10.0500192611,
			"0.005": 7.49482224224,
			"0.006": 8.57188771068,
			"0.007": 10.002913981,
			"0.008": 11.368287451,
			"0.009": 5.29651804423,
			"0.01": 1.49571032402,
			"0.011": 1.03500852193,
			"0.012": 0.482361982043,
			"0.013": 0.0,
			"0.014": 0.0,
			"0.015": 0.0,
			"0.016": 0.0,
			"0.017": 0.0,
			"0.018": 0.0,
			"0.019": 0.0,
			"0.02": 0.0,
			"0.021": 0.0,
			"0.022": 0.0,
			"0.023": 0.0,
			"0.024": 0.0,
			"0.025": 0.0
		}
	}
}
