{
	 "smiles": "COC1=CC=C2C(O)[C@]3(CC2=C1)CC[C@](O)(CC3)C1=CC=C(C=C1)C(C)(C)C", 
	 "Tm": 377.15, 
	 "num_atms": 60, 
	 "gaussian": { 
		 "optdone": 1, 
		 "sigma_profile": "yes", 
		 "theory": "DFT", 
		 "functional": "B3LYP", 
		 "basiset": "6-31G**", 
		 "properties": { 
			 "R2extent": 19075.0304, 
			 "electric_dipole_moment_norm": 2.66311451875, 
			 "electric_quadrupole_moment_norm": 17.5653853408, 
			 "total_energy": -1197.63037831, 
			 "HOMO_LUMO_gap": 0.20701, 
			 "cosmo_polarized_energy": -16.43, 
			 "cosmo_cavitation_energy": 57.02, 
			 "cosmo_dispersion_energy": -39.44, 
			 "cosmo_repulsion_energy": 2.93, 
			 "cosmo_total_nonelectrostatic_energy": 20.51, 
			 "SMD_solvation_energy": 9.38 
		},
		"coords": [
			{
				"x": -1.0513346716,
				"y": 7.1868654822,
				"z": 2.3707799466,
				"element": "C" 
			},
			{
				"x": -0.5343414261,
				"y": 7.5650108287,
				"z": 1.1072104454,
				"element": "O" 
			},
			{
				"x": 0.0191650363,
				"y": 6.5951330554,
				"z": 0.3170043689,
				"element": "C" 
			},
			{
				"x": 0.5104770638,
				"y": 7.0402770781,
				"z": -0.923060166,
				"element": "C" 
			},
			{
				"x": 1.0950807617,
				"y": 6.1442675574,
				"z": -1.8127962301,
				"element": "C" 
			},
			{
				"x": 1.1810374039,
				"y": 4.7971614338,
				"z": -1.4610461395,
				"element": "C" 
			},
			{
				"x": 1.7935873573,
				"y": 3.650028558,
				"z": -2.221775815,
				"element": "C" 
			},
			{
				"x": 1.5895538493,
				"y": 3.7981954073,
				"z": -3.6208631156,
				"element": "O" 
			},
			{
				"x": 1.1441082502,
				"y": 2.3792711703,
				"z": -1.5627730993,
				"element": "C" 
			},
			{
				"x": 0.9005187851,
				"y": 2.8613526478,
				"z": -0.0958798481,
				"element": "C" 
			},
			{
				"x": 0.6872828491,
				"y": 4.3536036824,
				"z": -0.2353801483,
				"element": "C" 
			},
			{
				"x": 0.1048209918,
				"y": 5.2411078316,
				"z": 0.6713756982,
				"element": "C" 
			},
			{
				"x": 2.0807798527,
				"y": 1.161508565,
				"z": -1.6655992676,
				"element": "C" 
			},
			{
				"x": 1.4486293161,
				"y": -0.1449848419,
				"z": -1.1665767375,
				"element": "C" 
			},
			{
				"x": 0.1196961356,
				"y": -0.4626962439,
				"z": -1.8839531357,
				"element": "C" 
			},
			{
				"x": 0.4768395018,
				"y": -0.6398325332,
				"z": -3.2640930954,
				"element": "O" 
			},
			{
				"x": -0.8351897221,
				"y": 0.7472471527,
				"z": -1.7610597357,
				"element": "C" 
			},
			{
				"x": -0.1973103456,
				"y": 2.052214409,
				"z": -2.2601587872,
				"element": "C" 
			},
			{
				"x": -0.4964214553,
				"y": -1.7483905965,
				"z": -1.3196723314,
				"element": "C" 
			},
			{
				"x": -1.1094766352,
				"y": -1.7864874753,
				"z": -0.0575425498,
				"element": "C" 
			},
			{
				"x": -1.6412049289,
				"y": -2.9682127894,
				"z": 0.450053288,
				"element": "C" 
			},
			{
				"x": -1.5896482929,
				"y": -4.1742444925,
				"z": -0.2705287997,
				"element": "C" 
			},
			{
				"x": -0.9687797702,
				"y": -4.1309839894,
				"z": -1.5241603905,
				"element": "C" 
			},
			{
				"x": -0.431036329,
				"y": -2.9464478718,
				"z": -2.0358114673,
				"element": "C" 
			},
			{
				"x": -2.1929404729,
				"y": -5.4575525717,
				"z": 0.3282168849,
				"element": "C" 
			},
			{
				"x": -3.7026203761,
				"y": -5.2433998784,
				"z": 0.591442732,
				"element": "C" 
			},
			{
				"x": -2.0364613908,
				"y": -6.6696027023,
				"z": -0.6095489856,
				"element": "C" 
			},
			{
				"x": -1.4828485937,
				"y": -5.7863520162,
				"z": 1.6632081554,
				"element": "C" 
			},
			{
				"x": -1.8721904886,
				"y": 6.4636642112,
				"z": 2.2753711098,
				"element": "H" 
			},
			{
				"x": -0.2739013311,
				"y": 6.7587469862,
				"z": 3.0174814949,
				"element": "H" 
			},
			{
				"x": -1.4327181124,
				"y": 8.1015557074,
				"z": 2.8279658983,
				"element": "H" 
			},
			{
				"x": 0.4143407728,
				"y": 8.0944570718,
				"z": -1.1619074279,
				"element": "H" 
			},
			{
				"x": 1.4668038161,
				"y": 6.4855343447,
				"z": -2.7741617291,
				"element": "H" 
			},
			{
				"x": 2.8800814654,
				"y": 3.6180261124,
				"z": -2.0183407281,
				"element": "H" 
			},
			{
				"x": 2.1440047743,
				"y": 3.1485326014,
				"z": -4.0720476616,
				"element": "H" 
			},
			{
				"x": 0.0602992377,
				"y": 2.3565645392,
				"z": 0.3934728379,
				"element": "H" 
			},
			{
				"x": 1.7873491789,
				"y": 2.6583291665,
				"z": 0.5227340591,
				"element": "H" 
			},
			{
				"x": -0.2799767804,
				"y": 4.8817782784,
				"z": 1.6193188828,
				"element": "H" 
			},
			{
				"x": 3.0067324313,
				"y": 1.3577190806,
				"z": -1.1091080055,
				"element": "H" 
			},
			{
				"x": 2.3653034121,
				"y": 1.0215493396,
				"z": -2.7163183216,
				"element": "H" 
			},
			{
				"x": 1.2542568864,
				"y": -0.0893566882,
				"z": -0.0889944363,
				"element": "H" 
			},
			{
				"x": 2.1349579555,
				"y": -0.9844259176,
				"z": -1.3218773505,
				"element": "H" 
			},
			{
				"x": -0.3442070441,
				"y": -0.741243626,
				"z": -3.7654319727,
				"element": "H" 
			},
			{
				"x": -1.1539296643,
				"y": 0.8535732539,
				"z": -0.7186597576,
				"element": "H" 
			},
			{
				"x": -1.7515326272,
				"y": 0.5368976333,
				"z": -2.329863879,
				"element": "H" 
			},
			{
				"x": -0.0162605897,
				"y": 1.9759412944,
				"z": -3.3353062859,
				"element": "H" 
			},
			{
				"x": -0.8987960722,
				"y": 2.8830015645,
				"z": -2.1242904581,
				"element": "H" 
			},
			{
				"x": -1.1730018446,
				"y": -0.8864864776,
				"z": 0.5476103803,
				"element": "H" 
			},
			{
				"x": -2.1069949441,
				"y": -2.9451045519,
				"z": 1.4313269803,
				"element": "H" 
			},
			{
				"x": -0.8901898507,
				"y": -5.0297084171,
				"z": -2.1257160154,
				"element": "H" 
			},
			{
				"x": 0.059565822,
				"y": -2.9538678684,
				"z": -3.0031157262,
				"element": "H" 
			},
			{
				"x": -4.2338981888,
				"y": -5.0173123787,
				"z": -0.3389707481,
				"element": "H" 
			},
			{
				"x": -3.881472122,
				"y": -4.4175445953,
				"z": 1.2864153626,
				"element": "H" 
			},
			{
				"x": -4.1467994823,
				"y": -6.1463620271,
				"z": 1.0257677968,
				"element": "H" 
			},
			{
				"x": -2.5433252983,
				"y": -6.5119379948,
				"z": -1.5672717866,
				"element": "H" 
			},
			{
				"x": -0.9842978462,
				"y": -6.8948006071,
				"z": -0.8124626812,
				"element": "H" 
			},
			{
				"x": -2.4794451692,
				"y": -7.5560870568,
				"z": -0.1439771821,
				"element": "H" 
			},
			{
				"x": -1.5931719344,
				"y": -4.9786072881,
				"z": 2.3928641171,
				"element": "H" 
			},
			{
				"x": -0.4116025769,
				"y": -5.9500837538,
				"z": 1.5064312717,
				"element": "H" 
			},
			{
				"x": -1.9046465295,
				"y": -6.6955987946,
				"z": 2.1066502881,
				"element": "H" 
			}
		],
		 "valence_orbital": [ 
			{
				"type": "occ",
				"energy": -0.25879,
				"method": "rhf"
			},
			{
				"type": "occ",
				"energy": -0.24419,
				"method": "rhf"
			},
			{
				"type": "occ",
				"energy": -0.2385,
				"method": "rhf"
			},
			{
				"type": "occ",
				"energy": -0.23053,
				"method": "rhf"
			},
			{
				"type": "occ",
				"energy": -0.20521,
				"method": "rhf"
			},
			{
				"type": "unocc",
				"energy": 0.0018,
				"method": "rhf"
			},
			{
				"type": "unocc",
				"energy": 0.00283,
				"method": "rhf"
			},
			{
				"type": "unocc",
				"energy": 0.00489,
				"method": "rhf"
			},
			{
				"type": "unocc",
				"energy": 0.01684,
				"method": "rhf"
			},
			{
				"type": "unocc",
				"energy": 0.0667,
				"method": "rhf"
			}
		],
		"cosmo_sigma_profile": { 
			"-0.025": 0.0,
			"-0.024": 0.0,
			"-0.023": 0.0,
			"-0.022": 0.0,
			"-0.021": 0.0,
			"-0.02": 0.0,
			"-0.019": 0.0,
			"-0.018": 0.0,
			"-0.017": 0.0,
			"-0.016": 0.0,
			"-0.015": 0.481689234307,
			"-0.014": 1.81687555338,
			"-0.013": 1.60796076185,
			"-0.012": 1.42424182524,
			"-0.011": 2.22243759685,
			"-0.01": 2.27376231215,
			"-0.009": 1.87891792122,
			"-0.008": 2.22184945193,
			"-0.007": 2.05598961142,
			"-0.006": 6.6763599733,
			"-0.005": 22.7730474976,
			"-0.004": 28.6032117144,
			"-0.003": 50.2029192742,
			"-0.002": 53.3387213183,
			"-0.001": 44.1899608215,
			"0.0": 44.4714952775,
			"0.001": 43.6955183653,
			"0.002": 25.7427618693,
			"0.003": 17.6028938092,
			"0.004": 19.3121977893,
			"0.005": 20.5760000302,
			"0.006": 19.0294427769,
			"0.007": 9.49885492398,
			"0.008": 4.14461819445,
			"0.009": 4.51367275298,
			"0.01": 3.90947719781,
			"0.011": 3.58531131293,
			"0.012": 2.34185160515,
			"0.013": 1.8305482477,
			"0.014": 1.45779477585,
			"0.015": 0.12783702496,
			"0.016": 0.0,
			"0.017": 0.0,
			"0.018": 0.0,
			"0.019": 0.0,
			"0.02": 0.0,
			"0.021": 0.0,
			"0.022": 0.0,
			"0.023": 0.0,
			"0.024": 0.0,
			"0.025": 0.0
		}
	}
}
