{
	 "smiles": "CCN1C(=O)C2=C(C=CC=C2)N=C1NN", 
	 "Tm": 433.15, 
	 "num_atms": 27, 
	 "gaussian": { 
		 "optdone": 1, 
		 "sigma_profile": "yes", 
		 "theory": "DFT", 
		 "functional": "B3LYP", 
		 "basiset": "6-31G**", 
		 "properties": { 
			 "R2extent": 3256.6186, 
			 "electric_dipole_moment_norm": 1.373371654, 
			 "electric_quadrupole_moment_norm": 13.6974408354, 
			 "total_energy": -682.526320336, 
			 "HOMO_LUMO_gap": 0.1793, 
			 "cosmo_polarized_energy": -14.17, 
			 "cosmo_cavitation_energy": 29.7, 
			 "cosmo_dispersion_energy": -22.0, 
			 "cosmo_repulsion_energy": 1.68, 
			 "cosmo_total_nonelectrostatic_energy": 9.39, 
			 "SMD_solvation_energy": 4.14 
		},
		"coords": [
			{
				"x": 1.8095710074,
				"y": -2.4579111541,
				"z": 1.962546806,
				"element": "C" 
			},
			{
				"x": 1.6100791828,
				"y": -2.3156993543,
				"z": 0.4519606208,
				"element": "C" 
			},
			{
				"x": 0.6370111951,
				"y": -1.2681408533,
				"z": 0.0786262941,
				"element": "N" 
			},
			{
				"x": 1.1341760749,
				"y": 0.0586370644,
				"z": 0.0884548411,
				"element": "C" 
			},
			{
				"x": 2.2543234902,
				"y": 0.2905648729,
				"z": 0.5318945637,
				"element": "O" 
			},
			{
				"x": 0.2385462811,
				"y": 1.0540419064,
				"z": -0.4994905288,
				"element": "C" 
			},
			{
				"x": -1.0027142387,
				"y": 0.6370668526,
				"z": -1.0281752209,
				"element": "C" 
			},
			{
				"x": -1.8414992508,
				"y": 1.5975471149,
				"z": -1.6302917466,
				"element": "C" 
			},
			{
				"x": -1.4444459665,
				"y": 2.9237057166,
				"z": -1.6942500349,
				"element": "C" 
			},
			{
				"x": -0.2066973762,
				"y": 3.3333332152,
				"z": -1.1625464498,
				"element": "C" 
			},
			{
				"x": 0.6301041168,
				"y": 2.4015033388,
				"z": -0.569653523,
				"element": "C" 
			},
			{
				"x": -1.4308416916,
				"y": -0.6734673082,
				"z": -0.9415201026,
				"element": "N" 
			},
			{
				"x": -0.6272584085,
				"y": -1.5505680792,
				"z": -0.4169169503,
				"element": "C" 
			},
			{
				"x": -1.0554377462,
				"y": -2.8869930226,
				"z": -0.4156734492,
				"element": "N" 
			},
			{
				"x": -1.2394974836,
				"y": -3.5735191704,
				"z": 0.8214365437,
				"element": "N" 
			},
			{
				"x": 0.8774613061,
				"y": -2.7091913754,
				"z": 2.4771368685,
				"element": "H" 
			},
			{
				"x": 2.1948355523,
				"y": -1.5238681064,
				"z": 2.3746643743,
				"element": "H" 
			},
			{
				"x": 2.5372158974,
				"y": -3.25052969,
				"z": 2.1656536548,
				"element": "H" 
			},
			{
				"x": 2.5590093393,
				"y": -2.0229565458,
				"z": -0.0029846928,
				"element": "H" 
			},
			{
				"x": 1.2819667134,
				"y": -3.2439226263,
				"z": -0.0173830469,
				"element": "H" 
			},
			{
				"x": -2.7940254037,
				"y": 1.2674094768,
				"z": -2.0315169019,
				"element": "H" 
			},
			{
				"x": -2.0973457336,
				"y": 3.6569218144,
				"z": -2.1597124044,
				"element": "H" 
			},
			{
				"x": 0.0892905635,
				"y": 4.376325103,
				"z": -1.2186905604,
				"element": "H" 
			},
			{
				"x": 1.5936317178,
				"y": 2.6786898068,
				"z": -0.154984678,
				"element": "H" 
			},
			{
				"x": -1.9238490847,
				"y": -2.9204550142,
				"z": -0.9397412952,
				"element": "H" 
			},
			{
				"x": -1.4709096881,
				"y": -2.9252401353,
				"z": 1.5731494587,
				"element": "H" 
			},
			{
				"x": -0.387900366,
				"y": -4.0652838472,
				"z": 1.0680075602,
				"element": "H" 
			}
		],
		 "valence_orbital": [ 
			{
				"type": "occ",
				"energy": -0.27246,
				"method": "rhf"
			},
			{
				"type": "occ",
				"energy": -0.27118,
				"method": "rhf"
			},
			{
				"type": "occ",
				"energy": -0.26155,
				"method": "rhf"
			},
			{
				"type": "occ",
				"energy": -0.25657,
				"method": "rhf"
			},
			{
				"type": "occ",
				"energy": -0.21869,
				"method": "rhf"
			},
			{
				"type": "unocc",
				"energy": -0.03939,
				"method": "rhf"
			},
			{
				"type": "unocc",
				"energy": -0.02944,
				"method": "rhf"
			},
			{
				"type": "unocc",
				"energy": 0.03059,
				"method": "rhf"
			},
			{
				"type": "unocc",
				"energy": 0.06158,
				"method": "rhf"
			},
			{
				"type": "unocc",
				"energy": 0.07214,
				"method": "rhf"
			}
		],
		"cosmo_sigma_profile": { 
			"-0.025": 0.0,
			"-0.024": 0.0,
			"-0.023": 0.0,
			"-0.022": 0.0,
			"-0.021": 0.0,
			"-0.02": 0.0,
			"-0.019": 0.0,
			"-0.018": 0.0,
			"-0.017": 0.0,
			"-0.016": 0.0,
			"-0.015": 0.0,
			"-0.014": 0.0,
			"-0.013": 0.0177530806118,
			"-0.012": 1.08908806505,
			"-0.011": 3.45600662299,
			"-0.01": 3.99053630408,
			"-0.009": 6.03319644007,
			"-0.008": 3.24791136666,
			"-0.007": 4.04004138979,
			"-0.006": 9.91006468247,
			"-0.005": 13.9571742401,
			"-0.004": 19.2789648542,
			"-0.003": 20.9680619033,
			"-0.002": 17.6107948011,
			"-0.001": 14.5021101862,
			"0.0": 17.6147344587,
			"0.001": 14.4529266189,
			"0.002": 13.6464531715,
			"0.003": 16.8596968644,
			"0.004": 14.5292964812,
			"0.005": 6.12693391774,
			"0.006": 5.64618120449,
			"0.007": 3.39885180114,
			"0.008": 3.30309197652,
			"0.009": 5.38043591162,
			"0.01": 2.68144594359,
			"0.011": 3.52658746012,
			"0.012": 3.67308807978,
			"0.013": 4.46512199335,
			"0.014": 1.37618924232,
			"0.015": 0.668450417528,
			"0.016": 0.36090598455,
			"0.017": 0.0344781258127,
			"0.018": 0.0,
			"0.019": 0.0,
			"0.02": 0.0,
			"0.021": 0.0,
			"0.022": 0.0,
			"0.023": 0.0,
			"0.024": 0.0,
			"0.025": 0.0
		}
	}
}
