{
	 "smiles": "NC(=S)C1=NC=C(N)S1", 
	 "Tm": 465.15, 
	 "num_atms": 14, 
	 "gaussian": { 
		 "optdone": 1, 
		 "sigma_profile": "yes", 
		 "theory": "DFT", 
		 "functional": "B3LYP", 
		 "basiset": "6-31G**", 
		 "properties": { 
			 "R2extent": 2226.8238, 
			 "electric_dipole_moment_norm": 5.38157429383, 
			 "electric_quadrupole_moment_norm": 21.4234813415, 
			 "total_energy": -1116.06761001, 
			 "HOMO_LUMO_gap": 0.14112, 
			 "cosmo_polarized_energy": -19.13, 
			 "cosmo_cavitation_energy": 21.82, 
			 "cosmo_dispersion_energy": -17.49, 
			 "cosmo_repulsion_energy": 1.36, 
			 "cosmo_total_nonelectrostatic_energy": 5.69, 
			 "SMD_solvation_energy": 1.64 
		},
		"coords": [
			{
				"x": 1.0505390351,
				"y": 1.5409106508,
				"z": 2.679187378,
				"element": "N" 
			},
			{
				"x": 0.1752159939,
				"y": 1.9331292078,
				"z": 1.7358314069,
				"element": "C" 
			},
			{
				"x": -0.285840987,
				"y": 3.5216095972,
				"z": 1.4879233019,
				"element": "S" 
			},
			{
				"x": -0.3479681024,
				"y": 0.8254148442,
				"z": 0.9315681865,
				"element": "C" 
			},
			{
				"x": -0.012057064,
				"y": -0.4271220847,
				"z": 1.1078914178,
				"element": "N" 
			},
			{
				"x": -0.6504716504,
				"y": -1.255322727,
				"z": 0.2368745838,
				"element": "C" 
			},
			{
				"x": -1.5110888184,
				"y": -0.6314803327,
				"z": -0.6508092838,
				"element": "C" 
			},
			{
				"x": -2.2323028757,
				"y": -1.2018460078,
				"z": -1.6780361086,
				"element": "N" 
			},
			{
				"x": -1.5062283629,
				"y": 1.0922611907,
				"z": -0.3703534804,
				"element": "S" 
			},
			{
				"x": 1.4687598908,
				"y": 2.2304323697,
				"z": 3.2832540018,
				"element": "H" 
			},
			{
				"x": 1.2792304263,
				"y": 0.5592169054,
				"z": 2.7654742052,
				"element": "H" 
			},
			{
				"x": -0.4685986545,
				"y": -2.3237669309,
				"z": 0.2689815768,
				"element": "H" 
			},
			{
				"x": -2.3542566556,
				"y": -2.2032016281,
				"z": -1.6103805317,
				"element": "H" 
			},
			{
				"x": -3.0756321751,
				"y": -0.7243350545,
				"z": -1.9634066542,
				"element": "H" 
			}
		],
		 "valence_orbital": [ 
			{
				"type": "occ",
				"energy": -0.29073,
				"method": "rhf"
			},
			{
				"type": "occ",
				"energy": -0.28285,
				"method": "rhf"
			},
			{
				"type": "occ",
				"energy": -0.23352,
				"method": "rhf"
			},
			{
				"type": "occ",
				"energy": -0.21114,
				"method": "rhf"
			},
			{
				"type": "occ",
				"energy": -0.20898,
				"method": "rhf"
			},
			{
				"type": "unocc",
				"energy": -0.06786,
				"method": "rhf"
			},
			{
				"type": "unocc",
				"energy": 0.00541,
				"method": "rhf"
			},
			{
				"type": "unocc",
				"energy": 0.02421,
				"method": "rhf"
			},
			{
				"type": "unocc",
				"energy": 0.05808,
				"method": "rhf"
			},
			{
				"type": "unocc",
				"energy": 0.07302,
				"method": "rhf"
			}
		],
		"cosmo_sigma_profile": { 
			"-0.025": 0.0,
			"-0.024": 0.0,
			"-0.023": 0.0,
			"-0.022": 0.0,
			"-0.021": 0.0,
			"-0.02": 0.0,
			"-0.019": 0.0,
			"-0.018": 0.0,
			"-0.017": 0.0,
			"-0.016": 0.0,
			"-0.015": 1.94817040716,
			"-0.014": 4.73025742788,
			"-0.013": 5.27988497627,
			"-0.012": 4.96889111597,
			"-0.011": 5.75209734599,
			"-0.01": 3.49679513573,
			"-0.009": 4.47360608218,
			"-0.008": 4.54551470423,
			"-0.007": 4.45310335862,
			"-0.006": 4.06399682442,
			"-0.005": 4.14595661961,
			"-0.004": 4.51045980689,
			"-0.003": 4.16713655228,
			"-0.002": 4.16939143433,
			"-0.001": 4.14522804112,
			"0.0": 12.0941052731,
			"0.001": 14.6880072787,
			"0.002": 14.0682966267,
			"0.003": 14.1458097752,
			"0.004": 10.5943313352,
			"0.005": 6.01082923918,
			"0.006": 7.10444938685,
			"0.007": 6.63693496301,
			"0.008": 7.81930631466,
			"0.009": 10.1651927413,
			"0.01": 6.97840428836,
			"0.011": 3.00885885612,
			"0.012": 0.796534969922,
			"0.013": 0.0,
			"0.014": 0.0,
			"0.015": 0.0,
			"0.016": 0.0,
			"0.017": 0.0,
			"0.018": 0.0,
			"0.019": 0.0,
			"0.02": 0.0,
			"0.021": 0.0,
			"0.022": 0.0,
			"0.023": 0.0,
			"0.024": 0.0,
			"0.025": 0.0
		}
	}
}
