{
	 "smiles": "CC(N)(CO)C(O)=O", 
	 "Tm": 560.15, 
	 "num_atms": 17, 
	 "gaussian": { 
		 "optdone": 1, 
		 "sigma_profile": "yes", 
		 "theory": "DFT", 
		 "functional": "B3LYP", 
		 "basiset": "6-31G**", 
		 "properties": { 
			 "R2extent": 1268.9099, 
			 "electric_dipole_moment_norm": 5.91421264244, 
			 "electric_quadrupole_moment_norm": 13.4423405525, 
			 "total_energy": -438.275706769, 
			 "HOMO_LUMO_gap": 0.27307, 
			 "cosmo_polarized_energy": -18.56, 
			 "cosmo_cavitation_energy": 20.03, 
			 "cosmo_dispersion_energy": -14.48, 
			 "cosmo_repulsion_energy": 1.21, 
			 "cosmo_total_nonelectrostatic_energy": 6.77, 
			 "SMD_solvation_energy": 4.56 
		},
		"coords": [
			{
				"x": 2.1194254683,
				"y": 0.5304943753,
				"z": -0.8778731493,
				"element": "C" 
			},
			{
				"x": 0.7176451301,
				"y": 0.8016908521,
				"z": -0.3185483557,
				"element": "C" 
			},
			{
				"x": -0.374819894,
				"y": 0.5913273243,
				"z": -1.2971635202,
				"element": "N" 
			},
			{
				"x": 0.435774102,
				"y": -0.1275305498,
				"z": 0.8853239371,
				"element": "C" 
			},
			{
				"x": -0.8206679941,
				"y": 0.1025704788,
				"z": 1.4860060496,
				"element": "O" 
			},
			{
				"x": 0.6320584086,
				"y": 2.2627193292,
				"z": 0.1925214459,
				"element": "C" 
			},
			{
				"x": -0.5394595199,
				"y": 2.8760624601,
				"z": -0.0455000136,
				"element": "O" 
			},
			{
				"x": 1.543925775,
				"y": 2.802047726,
				"z": 0.7725896631,
				"element": "O" 
			},
			{
				"x": 2.8810925706,
				"y": 0.7930967693,
				"z": -0.1410762482,
				"element": "H" 
			},
			{
				"x": 2.2296101587,
				"y": -0.5254509126,
				"z": -1.1477381119,
				"element": "H" 
			},
			{
				"x": 2.3032820609,
				"y": 1.1334568904,
				"z": -1.7733974522,
				"element": "H" 
			},
			{
				"x": -0.4677724506,
				"y": -0.4007451256,
				"z": -1.5096675083,
				"element": "H" 
			},
			{
				"x": -0.1471140252,
				"y": 1.0465481493,
				"z": -2.1796713598,
				"element": "H" 
			},
			{
				"x": 1.1911210808,
				"y": 0.0524300791,
				"z": 1.6542263632,
				"element": "H" 
			},
			{
				"x": 0.5427975162,
				"y": -1.1730366466,
				"z": 0.5435612919,
				"element": "H" 
			},
			{
				"x": -1.4888081101,
				"y": 0.0528205165,
				"z": 0.7885790763,
				"element": "H" 
			},
			{
				"x": -1.1069902771,
				"y": 2.2123982842,
				"z": -0.4882721077,
				"element": "H" 
			}
		],
		 "valence_orbital": [ 
			{
				"type": "occ",
				"energy": -0.33643,
				"method": "rhf"
			},
			{
				"type": "occ",
				"energy": -0.30718,
				"method": "rhf"
			},
			{
				"type": "occ",
				"energy": -0.29917,
				"method": "rhf"
			},
			{
				"type": "occ",
				"energy": -0.27934,
				"method": "rhf"
			},
			{
				"type": "occ",
				"energy": -0.25893,
				"method": "rhf"
			},
			{
				"type": "unocc",
				"energy": 0.01414,
				"method": "rhf"
			},
			{
				"type": "unocc",
				"energy": 0.04032,
				"method": "rhf"
			},
			{
				"type": "unocc",
				"energy": 0.08968,
				"method": "rhf"
			},
			{
				"type": "unocc",
				"energy": 0.09876,
				"method": "rhf"
			},
			{
				"type": "unocc",
				"energy": 0.12233,
				"method": "rhf"
			}
		],
		"cosmo_sigma_profile": { 
			"-0.025": 0.0,
			"-0.024": 0.0,
			"-0.023": 0.0,
			"-0.022": 0.0,
			"-0.021": 0.0,
			"-0.02": 0.0,
			"-0.019": 0.0,
			"-0.018": 0.0,
			"-0.017": 0.0,
			"-0.016": 0.0,
			"-0.015": 0.0,
			"-0.014": 0.0,
			"-0.013": 0.326141537695,
			"-0.012": 3.23297206889,
			"-0.011": 6.39450481403,
			"-0.01": 5.6163729089,
			"-0.009": 4.92244048666,
			"-0.008": 6.04023552194,
			"-0.007": 5.71507163498,
			"-0.006": 6.20211857478,
			"-0.005": 9.67862573049,
			"-0.004": 10.0083777876,
			"-0.003": 9.85256519161,
			"-0.002": 9.60624012658,
			"-0.001": 8.31741351781,
			"0.0": 7.42571943165,
			"0.001": 4.61799397234,
			"0.002": 3.25965067466,
			"0.003": 4.65210497473,
			"0.004": 3.55318046356,
			"0.005": 3.08676507139,
			"0.006": 4.74438593895,
			"0.007": 5.18527639202,
			"0.008": 4.30388314912,
			"0.009": 3.70942366813,
			"0.01": 5.67982205031,
			"0.011": 6.37103571391,
			"0.012": 7.0400118412,
			"0.013": 4.08167364398,
			"0.014": 1.49199961612,
			"0.015": 0.0,
			"0.016": 0.0,
			"0.017": 0.0,
			"0.018": 0.0,
			"0.019": 0.0,
			"0.02": 0.0,
			"0.021": 0.0,
			"0.022": 0.0,
			"0.023": 0.0,
			"0.024": 0.0,
			"0.025": 0.0
		}
	}
}
