{
	 "smiles": "CCCCOC(=O)C(C)CC", 
	 "Tm": 448.15, 
	 "num_atms": 29, 
	 "gaussian": { 
		 "optdone": 1, 
		 "sigma_profile": "yes", 
		 "theory": "DFT", 
		 "functional": "B3LYP", 
		 "basiset": "6-31G**", 
		 "properties": { 
			 "R2extent": 2994.6805, 
			 "electric_dipole_moment_norm": 1.85297090101, 
			 "electric_quadrupole_moment_norm": 9.23992308085, 
			 "total_energy": -504.289254629, 
			 "HOMO_LUMO_gap": 0.27687, 
			 "cosmo_polarized_energy": -6.03, 
			 "cosmo_cavitation_energy": 30.69, 
			 "cosmo_dispersion_energy": -21.01, 
			 "cosmo_repulsion_energy": 1.75, 
			 "cosmo_total_nonelectrostatic_energy": 11.42, 
			 "SMD_solvation_energy": 6.04 
		},
		"coords": [
			{
				"x": -0.1460857212,
				"y": -4.5235514941,
				"z": 0.5330026238,
				"element": "C" 
			},
			{
				"x": 0.948531368,
				"y": -3.4913099057,
				"z": 0.2381537189,
				"element": "C" 
			},
			{
				"x": 1.0619114997,
				"y": -3.0889430787,
				"z": -1.2411186504,
				"element": "C" 
			},
			{
				"x": -0.1494236871,
				"y": -2.3508925324,
				"z": -1.8065231197,
				"element": "C" 
			},
			{
				"x": -0.4311827986,
				"y": -1.1336684189,
				"z": -1.0732559907,
				"element": "O" 
			},
			{
				"x": 0.2346329669,
				"y": -0.0189467381,
				"z": -1.4638308537,
				"element": "C" 
			},
			{
				"x": 1.0391394381,
				"y": -0.0009401785,
				"z": -2.3719539992,
				"element": "O" 
			},
			{
				"x": -0.1831029137,
				"y": 1.1951944072,
				"z": -0.6456232129,
				"element": "C" 
			},
			{
				"x": 0.0173628899,
				"y": 0.9532032716,
				"z": 0.8603545353,
				"element": "C" 
			},
			{
				"x": -1.6364745203,
				"y": 1.5884923722,
				"z": -1.0070533836,
				"element": "C" 
			},
			{
				"x": -2.0779757822,
				"y": 2.9352824986,
				"z": -0.4246602328,
				"element": "C" 
			},
			{
				"x": -0.1406092447,
				"y": -4.8097871194,
				"z": 1.5897236046,
				"element": "H" 
			},
			{
				"x": -0.0017326256,
				"y": -5.4356473843,
				"z": -0.0581320309,
				"element": "H" 
			},
			{
				"x": -1.1455961971,
				"y": -4.1366413625,
				"z": 0.3078780744,
				"element": "H" 
			},
			{
				"x": 1.9171892425,
				"y": -3.8941842088,
				"z": 0.5587103982,
				"element": "H" 
			},
			{
				"x": 0.7770213055,
				"y": -2.5919168604,
				"z": 0.8414984511,
				"element": "H" 
			},
			{
				"x": 1.2137293369,
				"y": -3.9857444254,
				"z": -1.8583010341,
				"element": "H" 
			},
			{
				"x": 1.9440533168,
				"y": -2.4568819158,
				"z": -1.3900499271,
				"element": "H" 
			},
			{
				"x": 0.0147360764,
				"y": -2.0978253235,
				"z": -2.8565297744,
				"element": "H" 
			},
			{
				"x": -1.0646557023,
				"y": -2.9408189516,
				"z": -1.7150962159,
				"element": "H" 
			},
			{
				"x": 0.486503073,
				"y": 1.9969591193,
				"z": -0.9761278845,
				"element": "H" 
			},
			{
				"x": -0.181790298,
				"y": 1.8652720121,
				"z": 1.4296563175,
				"element": "H" 
			},
			{
				"x": 1.0462853815,
				"y": 0.6484767583,
				"z": 1.0772924713,
				"element": "H" 
			},
			{
				"x": -0.652796071,
				"y": 0.1677590734,
				"z": 1.2211269329,
				"element": "H" 
			},
			{
				"x": -1.7233922074,
				"y": 1.6288216625,
				"z": -2.1001582187,
				"element": "H" 
			},
			{
				"x": -2.311349477,
				"y": 0.792592949,
				"z": -0.6705795806,
				"element": "H" 
			},
			{
				"x": -3.0878371919,
				"y": 3.1883403253,
				"z": -0.7630710007,
				"element": "H" 
			},
			{
				"x": -2.0932385266,
				"y": 2.92544668,
				"z": 0.6695636816,
				"element": "H" 
			},
			{
				"x": -1.4093529304,
				"y": 3.7432587687,
				"z": -0.7427956997,
				"element": "H" 
			}
		],
		 "valence_orbital": [ 
			{
				"type": "occ",
				"energy": -0.33115,
				"method": "rhf"
			},
			{
				"type": "occ",
				"energy": -0.32604,
				"method": "rhf"
			},
			{
				"type": "occ",
				"energy": -0.31891,
				"method": "rhf"
			},
			{
				"type": "occ",
				"energy": -0.28966,
				"method": "rhf"
			},
			{
				"type": "occ",
				"energy": -0.25961,
				"method": "rhf"
			},
			{
				"type": "unocc",
				"energy": 0.01726,
				"method": "rhf"
			},
			{
				"type": "unocc",
				"energy": 0.07864,
				"method": "rhf"
			},
			{
				"type": "unocc",
				"energy": 0.09605,
				"method": "rhf"
			},
			{
				"type": "unocc",
				"energy": 0.11915,
				"method": "rhf"
			},
			{
				"type": "unocc",
				"energy": 0.12271,
				"method": "rhf"
			}
		],
		"cosmo_sigma_profile": { 
			"-0.025": 0.0,
			"-0.024": 0.0,
			"-0.023": 0.0,
			"-0.022": 0.0,
			"-0.021": 0.0,
			"-0.02": 0.0,
			"-0.019": 0.0,
			"-0.018": 0.0,
			"-0.017": 0.0,
			"-0.016": 0.0,
			"-0.015": 0.0,
			"-0.014": 0.0,
			"-0.013": 0.0,
			"-0.012": 0.0,
			"-0.011": 0.0,
			"-0.01": 0.0,
			"-0.009": 0.0,
			"-0.008": 0.0,
			"-0.007": 0.0,
			"-0.006": 0.11584777422,
			"-0.005": 2.59870607912,
			"-0.004": 12.8645714473,
			"-0.003": 31.5722306482,
			"-0.002": 38.7243219304,
			"-0.001": 41.9301229777,
			"0.0": 38.7868816859,
			"0.001": 29.8694070642,
			"0.002": 10.6414699853,
			"0.003": 3.83340865801,
			"0.004": 4.58804110665,
			"0.005": 2.43301326977,
			"0.006": 2.85888508998,
			"0.007": 2.77524134858,
			"0.008": 1.48243641144,
			"0.009": 0.995026048311,
			"0.01": 2.03976530157,
			"0.011": 2.15840695943,
			"0.012": 4.26138411258,
			"0.013": 2.30368676933,
			"0.014": 0.256297322924,
			"0.015": 0.0,
			"0.016": 0.0,
			"0.017": 0.0,
			"0.018": 0.0,
			"0.019": 0.0,
			"0.02": 0.0,
			"0.021": 0.0,
			"0.022": 0.0,
			"0.023": 0.0,
			"0.024": 0.0,
			"0.025": 0.0
		}
	}
}
