{
	 "smiles": "CC(OC1=C(Br)C=C(C)C=C1)C(O)=O", 
	 "Tm": 394.15, 
	 "num_atms": 25, 
	 "gaussian": { 
		 "optdone": 1, 
		 "sigma_profile": "yes", 
		 "theory": "DFT", 
		 "functional": "B3LYP", 
		 "basiset": "6-31G**", 
		 "properties": { 
			 "R2extent": 6265.1765, 
			 "electric_dipole_moment_norm": 3.15629264328, 
			 "electric_quadrupole_moment_norm": 17.3002356048, 
			 "total_energy": -3184.77837212, 
			 "HOMO_LUMO_gap": 0.2096, 
			 "cosmo_polarized_energy": -12.37, 
			 "cosmo_cavitation_energy": 31.34, 
			 "cosmo_dispersion_energy": -22.27, 
			 "cosmo_repulsion_energy": 1.78, 
			 "cosmo_total_nonelectrostatic_energy": 10.85, 
			 "SMD_solvation_energy": 5.66 
		},
		"coords": [
			{
				"x": 2.3282681708,
				"y": -0.7741310878,
				"z": 0.9144609855,
				"element": "C" 
			},
			{
				"x": 1.0459719069,
				"y": -0.1253981366,
				"z": 0.3966191072,
				"element": "C" 
			},
			{
				"x": 0.499651933,
				"y": 0.650660901,
				"z": 1.4728308783,
				"element": "O" 
			},
			{
				"x": -0.848833384,
				"y": 0.9221880581,
				"z": 1.4821237917,
				"element": "C" 
			},
			{
				"x": -1.3888489631,
				"y": 1.4356330681,
				"z": 2.6721132096,
				"element": "C" 
			},
			{
				"x": -0.2579095784,
				"y": 1.7171189639,
				"z": 4.1821801544,
				"element": "Br" 
			},
			{
				"x": -2.7393034312,
				"y": 1.7501669574,
				"z": 2.7642343073,
				"element": "C" 
			},
			{
				"x": -3.6019994346,
				"y": 1.5610705565,
				"z": 1.675162017,
				"element": "C" 
			},
			{
				"x": -5.0734945585,
				"y": 1.879695961,
				"z": 1.7963678932,
				"element": "C" 
			},
			{
				"x": -3.0560603929,
				"y": 1.0584328829,
				"z": 0.4919362438,
				"element": "C" 
			},
			{
				"x": -1.6994863531,
				"y": 0.7432179875,
				"z": 0.3878297469,
				"element": "C" 
			},
			{
				"x": 1.353399926,
				"y": 0.7672218108,
				"z": -0.817463626,
				"element": "C" 
			},
			{
				"x": 1.5289927632,
				"y": 2.0707421307,
				"z": -0.5290472746,
				"element": "O" 
			},
			{
				"x": 1.478093648,
				"y": 0.3231832838,
				"z": -1.9321144445,
				"element": "O" 
			},
			{
				"x": 2.7913125298,
				"y": -1.3567011254,
				"z": 0.1145490574,
				"element": "H" 
			},
			{
				"x": 3.0366162792,
				"y": -0.0118278805,
				"z": 1.251044678,
				"element": "H" 
			},
			{
				"x": 2.0986191532,
				"y": -1.4324310904,
				"z": 1.7554076602,
				"element": "H" 
			},
			{
				"x": 0.3361990475,
				"y": -0.8946313608,
				"z": 0.0790367582,
				"element": "H" 
			},
			{
				"x": -3.1208742913,
				"y": 2.1459650997,
				"z": 3.6998053334,
				"element": "H" 
			},
			{
				"x": -5.5439967776,
				"y": 1.9595853025,
				"z": 0.8125975598,
				"element": "H" 
			},
			{
				"x": -5.2369355793,
				"y": 2.8236552777,
				"z": 2.3260273905,
				"element": "H" 
			},
			{
				"x": -5.6052509758,
				"y": 1.0989866435,
				"z": 2.3538258993,
				"element": "H" 
			},
			{
				"x": -3.6940482639,
				"y": 0.9130572212,
				"z": -0.3752520295,
				"element": "H" 
			},
			{
				"x": -1.314052698,
				"y": 0.3767874587,
				"z": -0.5568208683,
				"element": "H" 
			},
			{
				"x": 1.344869324,
				"y": 2.1963511164,
				"z": 0.4189455713,
				"element": "H" 
			}
		],
		 "valence_orbital": [ 
			{
				"type": "occ",
				"energy": -0.31628,
				"method": "rhf"
			},
			{
				"type": "occ",
				"energy": -0.28958,
				"method": "rhf"
			},
			{
				"type": "occ",
				"energy": -0.27464,
				"method": "rhf"
			},
			{
				"type": "occ",
				"energy": -0.2563,
				"method": "rhf"
			},
			{
				"type": "occ",
				"energy": -0.23439,
				"method": "rhf"
			},
			{
				"type": "unocc",
				"energy": -0.02479,
				"method": "rhf"
			},
			{
				"type": "unocc",
				"energy": -0.01021,
				"method": "rhf"
			},
			{
				"type": "unocc",
				"energy": 0.00093,
				"method": "rhf"
			},
			{
				"type": "unocc",
				"energy": 0.00191,
				"method": "rhf"
			},
			{
				"type": "unocc",
				"energy": 0.07492,
				"method": "rhf"
			}
		],
		"cosmo_sigma_profile": { 
			"-0.025": 0.0,
			"-0.024": 0.0,
			"-0.023": 0.0,
			"-0.022": 0.0,
			"-0.021": 0.0,
			"-0.02": 0.0,
			"-0.019": 0.0,
			"-0.018": 0.0,
			"-0.017": 0.0,
			"-0.016": 0.133669667245,
			"-0.015": 0.624696182309,
			"-0.014": 0.70969543486,
			"-0.013": 0.48239463842,
			"-0.012": 0.76651843811,
			"-0.011": 1.42118187407,
			"-0.01": 1.0347449271,
			"-0.009": 1.30811810019,
			"-0.008": 3.79537925604,
			"-0.007": 6.40768297023,
			"-0.006": 10.7342554079,
			"-0.005": 18.0473589576,
			"-0.004": 21.0236615325,
			"-0.003": 19.5366249456,
			"-0.002": 20.8985423585,
			"-0.001": 20.8673484741,
			"0.0": 17.5098655788,
			"0.001": 14.1106364245,
			"0.002": 16.3847835626,
			"0.003": 17.0968077623,
			"0.004": 17.8672203736,
			"0.005": 9.46355101107,
			"0.006": 4.47863217184,
			"0.007": 4.114432233,
			"0.008": 3.71525163557,
			"0.009": 4.97049732636,
			"0.01": 4.64008752205,
			"0.011": 4.39589174706,
			"0.012": 4.64041494945,
			"0.013": 0.709259817019,
			"0.014": 0.0,
			"0.015": 0.0,
			"0.016": 0.0,
			"0.017": 0.0,
			"0.018": 0.0,
			"0.019": 0.0,
			"0.02": 0.0,
			"0.021": 0.0,
			"0.022": 0.0,
			"0.023": 0.0,
			"0.024": 0.0,
			"0.025": 0.0
		}
	}
}
