{
	 "smiles": "O=C(C1=CSC2=C1C=CC=C2)C1=CN=CC=C1", 
	 "Tm": 383.15, 
	 "num_atms": 26, 
	 "gaussian": { 
		 "optdone": 1, 
		 "sigma_profile": "yes", 
		 "theory": "DFT", 
		 "functional": "B3LYP", 
		 "basiset": "6-31G**", 
		 "properties": { 
			 "R2extent": 4930.386, 
			 "electric_dipole_moment_norm": 1.57062933247, 
			 "electric_quadrupole_moment_norm": 18.7737385073, 
			 "total_energy": -1067.06708354, 
			 "HOMO_LUMO_gap": 0.15578, 
			 "cosmo_polarized_energy": -10.71, 
			 "cosmo_cavitation_energy": 32.08, 
			 "cosmo_dispersion_energy": -23.6, 
			 "cosmo_repulsion_energy": 1.75, 
			 "cosmo_total_nonelectrostatic_energy": 10.23, 
			 "SMD_solvation_energy": 4.0 
		},
		"coords": [
			{
				"x": 3.4453781601,
				"y": 0.6906049253,
				"z": -0.9851119069,
				"element": "O" 
			},
			{
				"x": 2.3663645811,
				"y": 0.2616700267,
				"z": -0.5894046235,
				"element": "C" 
			},
			{
				"x": 1.9482260128,
				"y": 0.4825420495,
				"z": 0.826998298,
				"element": "C" 
			},
			{
				"x": 2.9098994359,
				"y": 0.4919080254,
				"z": 1.7999316353,
				"element": "C" 
			},
			{
				"x": 2.2969859555,
				"y": 0.7684703227,
				"z": 3.3960784093,
				"element": "S" 
			},
			{
				"x": 0.6615472128,
				"y": 0.9338673822,
				"z": 2.7722070012,
				"element": "C" 
			},
			{
				"x": 0.6233494106,
				"y": 0.7554842094,
				"z": 1.3655048212,
				"element": "C" 
			},
			{
				"x": -0.6142329131,
				"y": 0.919627617,
				"z": 0.7109367447,
				"element": "C" 
			},
			{
				"x": -1.75224588,
				"y": 1.2149312534,
				"z": 1.4488255298,
				"element": "C" 
			},
			{
				"x": -1.692762991,
				"y": 1.3627280167,
				"z": 2.8454999898,
				"element": "C" 
			},
			{
				"x": -0.4841605108,
				"y": 1.2287338191,
				"z": 3.5178135242,
				"element": "C" 
			},
			{
				"x": 1.5077634185,
				"y": -0.5348866336,
				"z": -1.5242680395,
				"element": "C" 
			},
			{
				"x": 0.6059845738,
				"y": -1.519037777,
				"z": -1.0925075721,
				"element": "C" 
			},
			{
				"x": -0.103854373,
				"y": -2.2943173564,
				"z": -1.9205329678,
				"element": "N" 
			},
			{
				"x": 0.0626041175,
				"y": -2.1015371228,
				"z": -3.2347440201,
				"element": "C" 
			},
			{
				"x": 0.9437683453,
				"y": -1.1606133896,
				"z": -3.7764877802,
				"element": "C" 
			},
			{
				"x": 1.6872540039,
				"y": -0.3740333189,
				"z": -2.9054504076,
				"element": "C" 
			},
			{
				"x": 3.9679901886,
				"y": 0.3360960124,
				"z": 1.6396525063,
				"element": "H" 
			},
			{
				"x": -0.678937476,
				"y": 0.8192007296,
				"z": -0.3664549044,
				"element": "H" 
			},
			{
				"x": -2.7023561458,
				"y": 1.3367981459,
				"z": 0.9376297885,
				"element": "H" 
			},
			{
				"x": -2.595416197,
				"y": 1.5923153569,
				"z": 3.4034736295,
				"element": "H" 
			},
			{
				"x": -0.4283905999,
				"y": 1.3569739823,
				"z": 4.5943896009,
				"element": "H" 
			},
			{
				"x": 0.4615177121,
				"y": -1.7005453642,
				"z": -0.0301906009,
				"element": "H" 
			},
			{
				"x": -0.5348664753,
				"y": -2.7340683187,
				"z": -3.8892222874,
				"element": "H" 
			},
			{
				"x": 1.043015325,
				"y": -1.0586567275,
				"z": -4.8525409527,
				"element": "H" 
			},
			{
				"x": 2.4059751085,
				"y": 0.357744134,
				"z": -3.2599254156,
				"element": "H" 
			}
		],
		 "valence_orbital": [ 
			{
				"type": "occ",
				"energy": -0.27484,
				"method": "rhf"
			},
			{
				"type": "occ",
				"energy": -0.26784,
				"method": "rhf"
			},
			{
				"type": "occ",
				"energy": -0.25379,
				"method": "rhf"
			},
			{
				"type": "occ",
				"energy": -0.24666,
				"method": "rhf"
			},
			{
				"type": "occ",
				"energy": -0.22819,
				"method": "rhf"
			},
			{
				"type": "unocc",
				"energy": -0.07241,
				"method": "rhf"
			},
			{
				"type": "unocc",
				"energy": -0.03724,
				"method": "rhf"
			},
			{
				"type": "unocc",
				"energy": -0.03128,
				"method": "rhf"
			},
			{
				"type": "unocc",
				"energy": -0.00908,
				"method": "rhf"
			},
			{
				"type": "unocc",
				"energy": 0.00435,
				"method": "rhf"
			}
		],
		"cosmo_sigma_profile": { 
			"-0.025": 0.0,
			"-0.024": 0.0,
			"-0.023": 0.0,
			"-0.022": 0.0,
			"-0.021": 0.0,
			"-0.02": 0.0,
			"-0.019": 0.0,
			"-0.018": 0.0,
			"-0.017": 0.0,
			"-0.016": 0.0,
			"-0.015": 0.0,
			"-0.014": 0.0,
			"-0.013": 0.0,
			"-0.012": 0.0,
			"-0.011": 0.0,
			"-0.01": 0.403084588015,
			"-0.009": 1.59994060014,
			"-0.008": 2.89501824276,
			"-0.007": 10.5387491421,
			"-0.006": 16.6470942993,
			"-0.005": 19.2610142941,
			"-0.004": 19.6526491939,
			"-0.003": 16.5152503303,
			"-0.002": 16.4419106986,
			"-0.001": 18.3652209128,
			"0.0": 21.3952561872,
			"0.001": 28.1656069083,
			"0.002": 23.5136257221,
			"0.003": 16.0680737586,
			"0.004": 15.2139135297,
			"0.005": 8.38231751266,
			"0.006": 3.14596886726,
			"0.007": 2.50961855601,
			"0.008": 2.17641243316,
			"0.009": 3.50498496224,
			"0.01": 3.77506943073,
			"0.011": 4.20899895853,
			"0.012": 3.89863715746,
			"0.013": 0.763544199815,
			"0.014": 1.00024655182,
			"0.015": 0.920569067824,
			"0.016": 0.574817997489,
			"0.017": 0.0,
			"0.018": 0.0,
			"0.019": 0.0,
			"0.02": 0.0,
			"0.021": 0.0,
			"0.022": 0.0,
			"0.023": 0.0,
			"0.024": 0.0,
			"0.025": 0.0
		}
	}
}
