{
	 "smiles": "OC(=O)CCC(=O)CCC(O)=O", 
	 "Tm": 416.15, 
	 "num_atms": 22, 
	 "gaussian": { 
		 "optdone": 1, 
		 "sigma_profile": "yes", 
		 "theory": "DFT", 
		 "functional": "B3LYP", 
		 "basiset": "6-31G**", 
		 "properties": { 
			 "R2extent": 3738.398, 
			 "electric_dipole_moment_norm": 2.08588406917, 
			 "electric_quadrupole_moment_norm": 12.2109716534, 
			 "total_energy": -648.922912682, 
			 "HOMO_LUMO_gap": 0.22967, 
			 "cosmo_polarized_energy": -19.42, 
			 "cosmo_cavitation_energy": 27.1, 
			 "cosmo_dispersion_energy": -18.98, 
			 "cosmo_repulsion_energy": 1.58, 
			 "cosmo_total_nonelectrostatic_energy": 9.71, 
			 "SMD_solvation_energy": 7.5 
		},
		"coords": [
			{
				"x": -1.3887255843,
				"y": -0.7308422284,
				"z": 2.593916102,
				"element": "O" 
			},
			{
				"x": -2.4459041716,
				"y": 0.0182287708,
				"z": 2.1884226385,
				"element": "C" 
			},
			{
				"x": -3.2922147649,
				"y": 0.4197500842,
				"z": 2.9531341755,
				"element": "O" 
			},
			{
				"x": -2.4151856386,
				"y": 0.2597947318,
				"z": 0.6931671239,
				"element": "C" 
			},
			{
				"x": -2.5819657217,
				"y": -1.0342376431,
				"z": -0.1349808758,
				"element": "C" 
			},
			{
				"x": -1.4354121959,
				"y": -2.0437165907,
				"z": -0.0756915526,
				"element": "C" 
			},
			{
				"x": -1.6625025876,
				"y": -3.2234462309,
				"z": 0.1174158139,
				"element": "O" 
			},
			{
				"x": -0.0249365117,
				"y": -1.5251693302,
				"z": -0.316126673,
				"element": "C" 
			},
			{
				"x": 0.9771751276,
				"y": -2.6445164625,
				"z": -0.5802951152,
				"element": "C" 
			},
			{
				"x": 2.4086061464,
				"y": -2.1760598717,
				"z": -0.459980048,
				"element": "C" 
			},
			{
				"x": 3.2751783864,
				"y": -3.0948717073,
				"z": -0.9491056257,
				"element": "O" 
			},
			{
				"x": 2.7770774442,
				"y": -1.1264549236,
				"z": 0.0229561272,
				"element": "O" 
			},
			{
				"x": -1.4943036424,
				"y": -0.8683712371,
				"z": 3.5503955245,
				"element": "H" 
			},
			{
				"x": -3.2317992235,
				"y": 0.9479632036,
				"z": 0.46790428,
				"element": "H" 
			},
			{
				"x": -1.4733332431,
				"y": 0.757925591,
				"z": 0.438183431,
				"element": "H" 
			},
			{
				"x": -3.4948534597,
				"y": -1.5628456371,
				"z": 0.1524553049,
				"element": "H" 
			},
			{
				"x": -2.6939122219,
				"y": -0.7420477971,
				"z": -1.1883754429,
				"element": "H" 
			},
			{
				"x": 0.2838795676,
				"y": -0.9624653284,
				"z": 0.5727666822,
				"element": "H" 
			},
			{
				"x": -0.0338389957,
				"y": -0.796027613,
				"z": -1.1363650062,
				"element": "H" 
			},
			{
				"x": 0.8340251732,
				"y": -3.1003979719,
				"z": -1.5650839298,
				"element": "H" 
			},
			{
				"x": 0.8205428729,
				"y": -3.4576841359,
				"z": 0.1380917325,
				"element": "H" 
			},
			{
				"x": 4.1646032443,
				"y": -2.7291076725,
				"z": -0.8076046669,
				"element": "H" 
			}
		],
		 "valence_orbital": [ 
			{
				"type": "occ",
				"energy": -0.32742,
				"method": "rhf"
			},
			{
				"type": "occ",
				"energy": -0.3223,
				"method": "rhf"
			},
			{
				"type": "occ",
				"energy": -0.28248,
				"method": "rhf"
			},
			{
				"type": "occ",
				"energy": -0.28032,
				"method": "rhf"
			},
			{
				"type": "occ",
				"energy": -0.25302,
				"method": "rhf"
			},
			{
				"type": "unocc",
				"energy": -0.02335,
				"method": "rhf"
			},
			{
				"type": "unocc",
				"energy": -0.00046,
				"method": "rhf"
			},
			{
				"type": "unocc",
				"energy": 0.00808,
				"method": "rhf"
			},
			{
				"type": "unocc",
				"energy": 0.06692,
				"method": "rhf"
			},
			{
				"type": "unocc",
				"energy": 0.07614,
				"method": "rhf"
			}
		],
		"cosmo_sigma_profile": { 
			"-0.025": 0.0,
			"-0.024": 0.0,
			"-0.023": 0.0,
			"-0.022": 0.0,
			"-0.021": 0.0,
			"-0.02": 0.0,
			"-0.019": 0.210200926916,
			"-0.018": 1.67983792789,
			"-0.017": 1.43094717633,
			"-0.016": 1.88078034164,
			"-0.015": 1.73061696746,
			"-0.014": 1.10848871849,
			"-0.013": 1.29353634872,
			"-0.012": 1.72307823782,
			"-0.011": 1.6413728876,
			"-0.01": 1.09076884092,
			"-0.009": 1.14076643948,
			"-0.008": 1.66268612411,
			"-0.007": 10.3410361246,
			"-0.006": 18.5174434631,
			"-0.005": 19.5311978035,
			"-0.004": 15.4652666114,
			"-0.003": 13.7113826459,
			"-0.002": 12.1400617537,
			"-0.001": 8.67560381933,
			"0.0": 6.96477223968,
			"0.001": 6.77367213311,
			"0.002": 7.63633769863,
			"0.003": 7.19257939522,
			"0.004": 6.7371586025,
			"0.005": 6.71032348864,
			"0.006": 6.38334672873,
			"0.007": 5.1859761121,
			"0.008": 6.39615869949,
			"0.009": 5.9110984858,
			"0.01": 7.70149450861,
			"0.011": 11.4665896903,
			"0.012": 11.2039261308,
			"0.013": 1.22728355554,
			"0.014": 0.0,
			"0.015": 0.0,
			"0.016": 0.0,
			"0.017": 0.0,
			"0.018": 0.0,
			"0.019": 0.0,
			"0.02": 0.0,
			"0.021": 0.0,
			"0.022": 0.0,
			"0.023": 0.0,
			"0.024": 0.0,
			"0.025": 0.0
		}
	}
}
