{
	 "smiles": "CCN(CC)S(=O)(=O)C1=CC(NC(=O)C2=C(CC)C(C(C)=O)=C(C)N2)=C(O)C=C1", 
	 "Tm": 503.15, 
	 "num_atms": 56, 
	 "gaussian": { 
		 "optdone": 1, 
		 "sigma_profile": "yes", 
		 "theory": "DFT", 
		 "functional": "B3LYP", 
		 "basiset": "6-31G**", 
		 "properties": { 
			 "R2extent": 18486.1962, 
			 "electric_dipole_moment_norm": 3.86701706358, 
			 "electric_quadrupole_moment_norm": 34.8336384795, 
			 "total_energy": -1716.93574802, 
			 "HOMO_LUMO_gap": 0.16848, 
			 "cosmo_polarized_energy": -30.13, 
			 "cosmo_cavitation_energy": 59.03, 
			 "cosmo_dispersion_energy": -40.03, 
			 "cosmo_repulsion_energy": 3.01, 
			 "cosmo_total_nonelectrostatic_energy": 22.01, 
			 "SMD_solvation_energy": 9.86 
		},
		"coords": [
			{
				"x": 3.2765009966,
				"y": 2.7453775657,
				"z": 3.2924039782,
				"element": "C" 
			},
			{
				"x": 2.8670658677,
				"y": 1.7799869702,
				"z": 4.4038073862,
				"element": "C" 
			},
			{
				"x": 2.9899630507,
				"y": 0.3726337959,
				"z": 3.9715234519,
				"element": "N" 
			},
			{
				"x": 4.3771606084,
				"y": -0.1479855176,
				"z": 3.8350053812,
				"element": "C" 
			},
			{
				"x": 4.6549516287,
				"y": -0.6942914027,
				"z": 2.4369636271,
				"element": "C" 
			},
			{
				"x": 1.9229396537,
				"y": -0.6945871287,
				"z": 4.7544400986,
				"element": "S" 
			},
			{
				"x": 1.8231785397,
				"y": -0.4014562382,
				"z": 6.1922335305,
				"element": "O" 
			},
			{
				"x": 2.3126250003,
				"y": -2.0372217467,
				"z": 4.3034217051,
				"element": "O" 
			},
			{
				"x": 0.3531041619,
				"y": -0.2649046345,
				"z": 4.0161326473,
				"element": "C" 
			},
			{
				"x": 0.1245007566,
				"y": -0.5812332073,
				"z": 2.6792762953,
				"element": "C" 
			},
			{
				"x": -1.1080599842,
				"y": -0.3113236215,
				"z": 2.0808720584,
				"element": "C" 
			},
			{
				"x": -1.2829350965,
				"y": -0.7801276826,
				"z": 0.7472391735,
				"element": "N" 
			},
			{
				"x": -2.0337555563,
				"y": -0.2391423689,
				"z": -0.2730367818,
				"element": "C" 
			},
			{
				"x": -2.7276497922,
				"y": 0.7814367684,
				"z": -0.1192883295,
				"element": "O" 
			},
			{
				"x": -1.9660157293,
				"y": -0.9587471341,
				"z": -1.5449223823,
				"element": "C" 
			},
			{
				"x": -2.2054624445,
				"y": -0.5121673406,
				"z": -2.8409160859,
				"element": "C" 
			},
			{
				"x": -2.5949330945,
				"y": 0.9028227497,
				"z": -3.1869618605,
				"element": "C" 
			},
			{
				"x": -1.3810487269,
				"y": 1.819411798,
				"z": -3.4353048873,
				"element": "C" 
			},
			{
				"x": -1.92143837,
				"y": -1.6196822967,
				"z": -3.716547429,
				"element": "C" 
			},
			{
				"x": -1.9869934043,
				"y": -1.755266389,
				"z": -5.1887261077,
				"element": "C" 
			},
			{
				"x": -2.5145403871,
				"y": -0.6233076274,
				"z": -6.0527348344,
				"element": "C" 
			},
			{
				"x": -1.6290205737,
				"y": -2.8011173894,
				"z": -5.7242169557,
				"element": "O" 
			},
			{
				"x": -1.5415756744,
				"y": -2.7098692136,
				"z": -2.9145100649,
				"element": "C" 
			},
			{
				"x": -1.195027551,
				"y": -4.1203517323,
				"z": -3.2599768266,
				"element": "C" 
			},
			{
				"x": -1.5475277382,
				"y": -2.2879310702,
				"z": -1.6252087357,
				"element": "N" 
			},
			{
				"x": -2.1299807485,
				"y": 0.3142384303,
				"z": 2.8453749882,
				"element": "C" 
			},
			{
				"x": -3.3539130205,
				"y": 0.5924563139,
				"z": 2.3729180795,
				"element": "O" 
			},
			{
				"x": -1.8681214212,
				"y": 0.6213364232,
				"z": 4.190926649,
				"element": "C" 
			},
			{
				"x": -0.6493323677,
				"y": 0.3270170398,
				"z": 4.7872869372,
				"element": "C" 
			},
			{
				"x": 4.3229585536,
				"y": 2.6138559994,
				"z": 2.9999763222,
				"element": "H" 
			},
			{
				"x": 2.6535529067,
				"y": 2.597464876,
				"z": 2.4056593449,
				"element": "H" 
			},
			{
				"x": 3.1566057066,
				"y": 3.7785763538,
				"z": 3.6341010015,
				"element": "H" 
			},
			{
				"x": 1.8206780494,
				"y": 1.9613088814,
				"z": 4.6636135547,
				"element": "H" 
			},
			{
				"x": 3.4545520241,
				"y": 1.9584681113,
				"z": 5.3156945409,
				"element": "H" 
			},
			{
				"x": 4.5728332098,
				"y": -0.9223934754,
				"z": 4.583055409,
				"element": "H" 
			},
			{
				"x": 5.0520892096,
				"y": 0.6834488645,
				"z": 4.0619132648,
				"element": "H" 
			},
			{
				"x": 5.69656011,
				"y": -1.0251363391,
				"z": 2.3580485967,
				"element": "H" 
			},
			{
				"x": 4.0082061078,
				"y": -1.5509442087,
				"z": 2.2329128021,
				"element": "H" 
			},
			{
				"x": 4.4768383445,
				"y": 0.0701378234,
				"z": 1.6742335622,
				"element": "H" 
			},
			{
				"x": 0.9114689616,
				"y": -1.0597372713,
				"z": 2.1030748698,
				"element": "H" 
			},
			{
				"x": -0.5611285867,
				"y": -1.424893622,
				"z": 0.4553764962,
				"element": "H" 
			},
			{
				"x": -3.1777905806,
				"y": 1.3085747668,
				"z": -2.3587137304,
				"element": "H" 
			},
			{
				"x": -3.2429617059,
				"y": 0.9067668546,
				"z": -4.0660044523,
				"element": "H" 
			},
			{
				"x": -0.7427135965,
				"y": 1.4438854552,
				"z": -4.2419678856,
				"element": "H" 
			},
			{
				"x": -0.7657985448,
				"y": 1.8972472547,
				"z": -2.5338482261,
				"element": "H" 
			},
			{
				"x": -1.7113221152,
				"y": 2.8276364363,
				"z": -3.7044856976,
				"element": "H" 
			},
			{
				"x": -2.4436997137,
				"y": -0.9336297154,
				"z": -7.0959938448,
				"element": "H" 
			},
			{
				"x": -3.5612327329,
				"y": -0.4058877758,
				"z": -5.813156769,
				"element": "H" 
			},
			{
				"x": -1.9450089783,
				"y": 0.2992865566,
				"z": -5.907285428,
				"element": "H" 
			},
			{
				"x": -1.03303331,
				"y": -4.714079978,
				"z": -2.3538467445,
				"element": "H" 
			},
			{
				"x": -0.2929076965,
				"y": -4.1587209366,
				"z": -3.8764432799,
				"element": "H" 
			},
			{
				"x": -1.9854071718,
				"y": -4.5819066202,
				"z": -3.8567203121,
				"element": "H" 
			},
			{
				"x": -1.5055432696,
				"y": -2.9228034258,
				"z": -0.8404670877,
				"element": "H" 
			},
			{
				"x": -3.2886523104,
				"y": 0.743898166,
				"z": 1.3921172655,
				"element": "H" 
			},
			{
				"x": -2.6698338288,
				"y": 1.0872005443,
				"z": 4.7537033735,
				"element": "H" 
			},
			{
				"x": -0.4654676252,
				"y": 0.5448723108,
				"z": 5.8331783482,
				"element": "H" 
			}
		],
		 "valence_orbital": [ 
			{
				"type": "occ",
				"energy": -0.26035,
				"method": "rhf"
			},
			{
				"type": "occ",
				"energy": -0.25,
				"method": "rhf"
			},
			{
				"type": "occ",
				"energy": -0.24896,
				"method": "rhf"
			},
			{
				"type": "occ",
				"energy": -0.23942,
				"method": "rhf"
			},
			{
				"type": "occ",
				"energy": -0.22556,
				"method": "rhf"
			},
			{
				"type": "unocc",
				"energy": -0.05708,
				"method": "rhf"
			},
			{
				"type": "unocc",
				"energy": -0.03989,
				"method": "rhf"
			},
			{
				"type": "unocc",
				"energy": -0.02811,
				"method": "rhf"
			},
			{
				"type": "unocc",
				"energy": -0.00947,
				"method": "rhf"
			},
			{
				"type": "unocc",
				"energy": 0.03631,
				"method": "rhf"
			}
		],
		"cosmo_sigma_profile": { 
			"-0.025": 0.0,
			"-0.024": 0.0,
			"-0.023": 0.0,
			"-0.022": 0.0,
			"-0.021": 0.0,
			"-0.02": 0.0,
			"-0.019": 0.0536298138489,
			"-0.018": 1.07155436966,
			"-0.017": 2.09381515624,
			"-0.016": 2.09873353307,
			"-0.015": 2.18494965357,
			"-0.014": 2.39727482485,
			"-0.013": 2.12650682795,
			"-0.012": 2.30973912206,
			"-0.011": 2.02473170293,
			"-0.01": 1.83594146434,
			"-0.009": 2.62151681313,
			"-0.008": 2.56686826558,
			"-0.007": 3.3852027087,
			"-0.006": 9.55382171711,
			"-0.005": 21.1471405821,
			"-0.004": 34.0117744226,
			"-0.003": 45.263770802,
			"-0.002": 48.9640037578,
			"-0.001": 50.1361514207,
			"0.0": 48.0621709635,
			"0.001": 42.9283917813,
			"0.002": 29.5643602421,
			"0.003": 20.4678390474,
			"0.004": 12.2015870046,
			"0.005": 9.44274451638,
			"0.006": 7.74878269135,
			"0.007": 8.18630931762,
			"0.008": 6.54466628459,
			"0.009": 9.4403270893,
			"0.01": 10.4579099318,
			"0.011": 11.3406819072,
			"0.012": 9.15124971637,
			"0.013": 2.86241326702,
			"0.014": 1.46651321335,
			"0.015": 0.0499329488569,
			"0.016": 0.0,
			"0.017": 0.0,
			"0.018": 0.0,
			"0.019": 0.0,
			"0.02": 0.0,
			"0.021": 0.0,
			"0.022": 0.0,
			"0.023": 0.0,
			"0.024": 0.0,
			"0.025": 0.0
		}
	}
}
