{
	 "smiles": "CCOCC1=NN=C(N)O1", 
	 "Tm": 392.15, 
	 "num_atms": 19, 
	 "gaussian": { 
		 "optdone": 1, 
		 "sigma_profile": "yes", 
		 "theory": "DFT", 
		 "functional": "B3LYP", 
		 "basiset": "6-31G**", 
		 "properties": { 
			 "R2extent": 2434.9278, 
			 "electric_dipole_moment_norm": 3.0105515126, 
			 "electric_quadrupole_moment_norm": 20.8547747281, 
			 "total_energy": -510.61582396, 
			 "HOMO_LUMO_gap": 0.23483, 
			 "cosmo_polarized_energy": -15.94, 
			 "cosmo_cavitation_energy": 23.56, 
			 "cosmo_dispersion_energy": -17.31, 
			 "cosmo_repulsion_energy": 1.46, 
			 "cosmo_total_nonelectrostatic_energy": 7.72, 
			 "SMD_solvation_energy": 2.77 
		},
		"coords": [
			{
				"x": 3.1018847259,
				"y": 0.1907010106,
				"z": -0.4332733909,
				"element": "C" 
			},
			{
				"x": 2.0518624547,
				"y": 1.2783184323,
				"z": -0.5807011024,
				"element": "C" 
			},
			{
				"x": 0.9382423949,
				"y": 0.7218662668,
				"z": -1.2782732851,
				"element": "O" 
			},
			{
				"x": -0.1182613375,
				"y": 1.6406117841,
				"z": -1.4935600735,
				"element": "C" 
			},
			{
				"x": -0.9007651087,
				"y": 1.9477020384,
				"z": -0.2575889194,
				"element": "C" 
			},
			{
				"x": -0.9038143882,
				"y": 3.0207411307,
				"z": 0.4600925168,
				"element": "N" 
			},
			{
				"x": -1.7649576644,
				"y": 2.795877385,
				"z": 1.5425634888,
				"element": "N" 
			},
			{
				"x": -2.2164836624,
				"y": 1.5867391245,
				"z": 1.3728373322,
				"element": "C" 
			},
			{
				"x": -3.1449047019,
				"y": 0.9135483678,
				"z": 2.1168408178,
				"element": "N" 
			},
			{
				"x": -1.7274457771,
				"y": 0.9726158238,
				"z": 0.2671466213,
				"element": "O" 
			},
			{
				"x": 3.4150774236,
				"y": -0.1784719733,
				"z": -1.4141518243,
				"element": "H" 
			},
			{
				"x": 3.9810957707,
				"y": 0.5808179494,
				"z": 0.0888908846,
				"element": "H" 
			},
			{
				"x": 2.7046353666,
				"y": -0.6526805281,
				"z": 0.1390615114,
				"element": "H" 
			},
			{
				"x": 1.7407844196,
				"y": 1.6576461368,
				"z": 0.4035557534,
				"element": "H" 
			},
			{
				"x": 2.4521529115,
				"y": 2.1356530718,
				"z": -1.1460531907,
				"element": "H" 
			},
			{
				"x": 0.2478314466,
				"y": 2.5984345857,
				"z": -1.8889137332,
				"element": "H" 
			},
			{
				"x": -0.7728582605,
				"y": 1.1796608931,
				"z": -2.2396019242,
				"element": "H" 
			},
			{
				"x": -3.3110046821,
				"y": 1.3304425617,
				"z": 3.0221338593,
				"element": "H" 
			},
			{
				"x": -3.0491713311,
				"y": -0.0922240611,
				"z": 2.130294658,
				"element": "H" 
			}
		],
		 "valence_orbital": [ 
			{
				"type": "occ",
				"energy": -0.32802,
				"method": "rhf"
			},
			{
				"type": "occ",
				"energy": -0.31114,
				"method": "rhf"
			},
			{
				"type": "occ",
				"energy": -0.27231,
				"method": "rhf"
			},
			{
				"type": "occ",
				"energy": -0.26477,
				"method": "rhf"
			},
			{
				"type": "occ",
				"energy": -0.23616,
				"method": "rhf"
			},
			{
				"type": "unocc",
				"energy": -0.00133,
				"method": "rhf"
			},
			{
				"type": "unocc",
				"energy": 0.04749,
				"method": "rhf"
			},
			{
				"type": "unocc",
				"energy": 0.06796,
				"method": "rhf"
			},
			{
				"type": "unocc",
				"energy": 0.10037,
				"method": "rhf"
			},
			{
				"type": "unocc",
				"energy": 0.11278,
				"method": "rhf"
			}
		],
		"cosmo_sigma_profile": { 
			"-0.025": 0.0,
			"-0.024": 0.0,
			"-0.023": 0.0,
			"-0.022": 0.0,
			"-0.021": 0.0,
			"-0.02": 0.0,
			"-0.019": 0.0,
			"-0.018": 0.0,
			"-0.017": 0.0,
			"-0.016": 0.171033885539,
			"-0.015": 2.22028310308,
			"-0.014": 2.40556100473,
			"-0.013": 2.60816929533,
			"-0.012": 2.49929114114,
			"-0.011": 2.9529659641,
			"-0.01": 2.00161347648,
			"-0.009": 1.42442827083,
			"-0.008": 2.19763823742,
			"-0.007": 4.43792692952,
			"-0.006": 6.47063584828,
			"-0.005": 7.82345896347,
			"-0.004": 14.4500836402,
			"-0.003": 19.11204422,
			"-0.002": 16.0521639796,
			"-0.001": 14.616092845,
			"0.0": 12.3985942437,
			"0.001": 9.71909739122,
			"0.002": 8.28683695687,
			"0.003": 4.47668129039,
			"0.004": 5.3114353058,
			"0.005": 6.23916183498,
			"0.006": 4.46225442139,
			"0.007": 3.51086320698,
			"0.008": 3.6553284564,
			"0.009": 4.47587491217,
			"0.01": 3.42043898025,
			"0.011": 3.82908063449,
			"0.012": 4.82319434993,
			"0.013": 3.60298473909,
			"0.014": 2.23725984501,
			"0.015": 2.67266466188,
			"0.016": 0.980663705646,
			"0.017": 0.121853986183,
			"0.018": 0.0,
			"0.019": 0.0,
			"0.02": 0.0,
			"0.021": 0.0,
			"0.022": 0.0,
			"0.023": 0.0,
			"0.024": 0.0,
			"0.025": 0.0
		}
	}
}
