{
	 "smiles": "OC(=O)C1=NC=CN=C1C(O)=O", 
	 "Tm": 461.15, 
	 "num_atms": 16, 
	 "gaussian": { 
		 "optdone": 1, 
		 "sigma_profile": "yes", 
		 "theory": "DFT", 
		 "functional": "B3LYP", 
		 "basiset": "6-31G**", 
		 "properties": { 
			 "R2extent": 2659.3496, 
			 "electric_dipole_moment_norm": 4.91870624047, 
			 "electric_quadrupole_moment_norm": 15.71024419, 
			 "total_energy": -641.445568414, 
			 "HOMO_LUMO_gap": 0.17781, 
			 "cosmo_polarized_energy": -18.25, 
			 "cosmo_cavitation_energy": 22.28, 
			 "cosmo_dispersion_energy": -16.38, 
			 "cosmo_repulsion_energy": 1.32, 
			 "cosmo_total_nonelectrostatic_energy": 7.22, 
			 "SMD_solvation_energy": 4.23 
		},
		"coords": [
			{
				"x": -2.0879773648,
				"y": 2.7364318082,
				"z": -1.4741111808,
				"element": "O" 
			},
			{
				"x": -0.9285393915,
				"y": 2.2761799123,
				"z": -0.9876053613,
				"element": "C" 
			},
			{
				"x": 0.1025125899,
				"y": 2.2645638607,
				"z": -1.6197397768,
				"element": "O" 
			},
			{
				"x": -1.0199165044,
				"y": 1.7676966541,
				"z": 0.4295469138,
				"element": "C" 
			},
			{
				"x": -2.2302798561,
				"y": 1.8289657952,
				"z": 0.999427467,
				"element": "N" 
			},
			{
				"x": -2.3464929907,
				"y": 1.3831782396,
				"z": 2.2510163045,
				"element": "C" 
			},
			{
				"x": -1.2400688078,
				"y": 0.8716059323,
				"z": 2.9346547482,
				"element": "C" 
			},
			{
				"x": -0.0286283788,
				"y": 0.8049490739,
				"z": 2.376308421,
				"element": "N" 
			},
			{
				"x": 0.0880361482,
				"y": 1.2542796715,
				"z": 1.1209474157,
				"element": "C" 
			},
			{
				"x": 1.459677367,
				"y": 1.1051268107,
				"z": 0.4977372549,
				"element": "C" 
			},
			{
				"x": 2.1776488178,
				"y": 2.2338597507,
				"z": 0.6062557274,
				"element": "O" 
			},
			{
				"x": 1.8586791202,
				"y": 0.0665326029,
				"z": 0.0318435305,
				"element": "O" 
			},
			{
				"x": -2.7579013196,
				"y": 2.6273719772,
				"z": -0.769009871,
				"element": "H" 
			},
			{
				"x": -3.328308045,
				"y": 1.433576641,
				"z": 2.7140119582,
				"element": "H" 
			},
			{
				"x": -1.3329455047,
				"y": 0.5078875916,
				"z": 3.9550471375,
				"element": "H" 
			},
			{
				"x": 3.0313041202,
				"y": 2.0662936782,
				"z": 0.1705693112,
				"element": "H" 
			}
		],
		 "valence_orbital": [ 
			{
				"type": "occ",
				"energy": -0.32467,
				"method": "rhf"
			},
			{
				"type": "occ",
				"energy": -0.31509,
				"method": "rhf"
			},
			{
				"type": "occ",
				"energy": -0.304,
				"method": "rhf"
			},
			{
				"type": "occ",
				"energy": -0.28827,
				"method": "rhf"
			},
			{
				"type": "occ",
				"energy": -0.2736,
				"method": "rhf"
			},
			{
				"type": "unocc",
				"energy": -0.09579,
				"method": "rhf"
			},
			{
				"type": "unocc",
				"energy": -0.07378,
				"method": "rhf"
			},
			{
				"type": "unocc",
				"energy": -0.0018,
				"method": "rhf"
			},
			{
				"type": "unocc",
				"energy": 0.02508,
				"method": "rhf"
			},
			{
				"type": "unocc",
				"energy": 0.0751,
				"method": "rhf"
			}
		],
		"cosmo_sigma_profile": { 
			"-0.025": 0.0,
			"-0.024": 0.0,
			"-0.023": 0.0,
			"-0.022": 0.0,
			"-0.021": 0.0,
			"-0.02": 0.182143012222,
			"-0.019": 0.720222518538,
			"-0.018": 1.28830136781,
			"-0.017": 0.906216069493,
			"-0.016": 0.494124744936,
			"-0.015": 0.628455188461,
			"-0.014": 1.44808714978,
			"-0.013": 1.12386627251,
			"-0.012": 1.25272449291,
			"-0.011": 1.53418131287,
			"-0.01": 2.64582429396,
			"-0.009": 8.45256218196,
			"-0.008": 6.15749058831,
			"-0.007": 7.10896822541,
			"-0.006": 8.47174506259,
			"-0.005": 9.87585770513,
			"-0.004": 11.3496151131,
			"-0.003": 11.0485758983,
			"-0.002": 7.9945473248,
			"-0.001": 5.76731877231,
			"0.0": 7.8807963091,
			"0.001": 6.39606670383,
			"0.002": 6.84612548373,
			"0.003": 6.60345708988,
			"0.004": 6.14574287252,
			"0.005": 6.76595327211,
			"0.006": 5.7366681991,
			"0.007": 8.16042861411,
			"0.008": 8.64866175482,
			"0.009": 8.92715874408,
			"0.01": 9.94613575131,
			"0.011": 6.88280104886,
			"0.012": 2.16903003367,
			"0.013": 0.0405081524795,
			"0.014": 0.0,
			"0.015": 0.0,
			"0.016": 0.0,
			"0.017": 0.0,
			"0.018": 0.0,
			"0.019": 0.0,
			"0.02": 0.0,
			"0.021": 0.0,
			"0.022": 0.0,
			"0.023": 0.0,
			"0.024": 0.0,
			"0.025": 0.0
		}
	}
}
