{
	 "smiles": "CC1=CC(C(O)=O)=C(C)N1CC1=CC=CO1", 
	 "Tm": 444.15, 
	 "num_atms": 29, 
	 "gaussian": { 
		 "optdone": 1, 
		 "sigma_profile": "yes", 
		 "theory": "DFT", 
		 "functional": "B3LYP", 
		 "basiset": "6-31G**", 
		 "properties": { 
			 "R2extent": 4447.6815, 
			 "electric_dipole_moment_norm": 6.64419439059, 
			 "electric_quadrupole_moment_norm": 17.5994163261, 
			 "total_energy": -745.518350354, 
			 "HOMO_LUMO_gap": 0.20404, 
			 "cosmo_polarized_energy": -18.34, 
			 "cosmo_cavitation_energy": 32.89, 
			 "cosmo_dispersion_energy": -22.82, 
			 "cosmo_repulsion_energy": 1.78, 
			 "cosmo_total_nonelectrostatic_energy": 11.85, 
			 "SMD_solvation_energy": 7.43 
		},
		"coords": [
			{
				"x": 1.134882977,
				"y": -2.0671453929,
				"z": -2.7012007194,
				"element": "C" 
			},
			{
				"x": 0.9722835325,
				"y": -1.5436376358,
				"z": -1.31019089,
				"element": "C" 
			},
			{
				"x": 1.627728122,
				"y": -1.8791438284,
				"z": -0.1542976865,
				"element": "C" 
			},
			{
				"x": 1.0773504321,
				"y": -1.1019115403,
				"z": 0.911037003,
				"element": "C" 
			},
			{
				"x": 1.5683738092,
				"y": -1.1927277504,
				"z": 2.2994800123,
				"element": "C" 
			},
			{
				"x": 0.6972417413,
				"y": -0.8146530896,
				"z": 3.290421176,
				"element": "O" 
			},
			{
				"x": 2.6735581492,
				"y": -1.5820083116,
				"z": 2.6000547532,
				"element": "O" 
			},
			{
				"x": 0.0980649958,
				"y": -0.2746405173,
				"z": 0.3647040307,
				"element": "C" 
			},
			{
				"x": -0.7324427245,
				"y": 0.8176620814,
				"z": 0.969576413,
				"element": "C" 
			},
			{
				"x": 0.0358990588,
				"y": -0.5617457267,
				"z": -0.9847904812,
				"element": "N" 
			},
			{
				"x": -0.7973427391,
				"y": 0.1370393062,
				"z": -1.9492939705,
				"element": "C" 
			},
			{
				"x": -0.1151942624,
				"y": 1.3447835506,
				"z": -2.5231840566,
				"element": "C" 
			},
			{
				"x": 1.1101940146,
				"y": 1.9141721679,
				"z": -2.3421411032,
				"element": "C" 
			},
			{
				"x": 1.1469954385,
				"y": 3.0649663298,
				"z": -3.2016344825,
				"element": "C" 
			},
			{
				"x": -0.0543237156,
				"y": 3.1054371963,
				"z": -3.8358768179,
				"element": "C" 
			},
			{
				"x": -0.8404639094,
				"y": 2.0604102805,
				"z": -3.4333245044,
				"element": "O" 
			},
			{
				"x": 0.2356431449,
				"y": -2.5810984949,
				"z": -3.0651769357,
				"element": "H" 
			},
			{
				"x": 1.375161637,
				"y": -1.2731939923,
				"z": -3.4183506655,
				"element": "H" 
			},
			{
				"x": 1.9533341172,
				"y": -2.7901002944,
				"z": -2.7186620958,
				"element": "H" 
			},
			{
				"x": 2.4112054571,
				"y": -2.6149496773,
				"z": -0.0472901251,
				"element": "H" 
			},
			{
				"x": -0.1949530158,
				"y": -0.7602075367,
				"z": 2.9226900665,
				"element": "H" 
			},
			{
				"x": -0.6729824895,
				"y": 1.736915518,
				"z": 0.3767081428,
				"element": "H" 
			},
			{
				"x": -1.7948045786,
				"y": 0.5499343766,
				"z": 1.0521277926,
				"element": "H" 
			},
			{
				"x": -0.3664426441,
				"y": 1.0603801087,
				"z": 1.9689736955,
				"element": "H" 
			},
			{
				"x": -1.7377319957,
				"y": 0.426025608,
				"z": -1.4677104394,
				"element": "H" 
			},
			{
				"x": -1.0677115466,
				"y": -0.5600662805,
				"z": -2.7498346688,
				"element": "H" 
			},
			{
				"x": 1.8888777444,
				"y": 1.5584488535,
				"z": -1.6834364282,
				"element": "H" 
			},
			{
				"x": 1.9632250689,
				"y": 3.7622155523,
				"z": -3.3234894304,
				"element": "H" 
			},
			{
				"x": -0.494625819,
				"y": 3.769539139,
				"z": -4.5630875845,
				"element": "H" 
			}
		],
		 "valence_orbital": [ 
			{
				"type": "occ",
				"energy": -0.28851,
				"method": "rhf"
			},
			{
				"type": "occ",
				"energy": -0.26001,
				"method": "rhf"
			},
			{
				"type": "occ",
				"energy": -0.24408,
				"method": "rhf"
			},
			{
				"type": "occ",
				"energy": -0.23506,
				"method": "rhf"
			},
			{
				"type": "occ",
				"energy": -0.21388,
				"method": "rhf"
			},
			{
				"type": "unocc",
				"energy": -0.00984,
				"method": "rhf"
			},
			{
				"type": "unocc",
				"energy": -0.0001,
				"method": "rhf"
			},
			{
				"type": "unocc",
				"energy": 0.03508,
				"method": "rhf"
			},
			{
				"type": "unocc",
				"energy": 0.05996,
				"method": "rhf"
			},
			{
				"type": "unocc",
				"energy": 0.0664,
				"method": "rhf"
			}
		],
		"cosmo_sigma_profile": { 
			"-0.025": 0.0,
			"-0.024": 0.0,
			"-0.023": 0.0,
			"-0.022": 0.0,
			"-0.021": 0.0,
			"-0.02": 0.0,
			"-0.019": 0.0,
			"-0.018": 0.0,
			"-0.017": 0.383499426064,
			"-0.016": 0.543541814054,
			"-0.015": 0.553663381382,
			"-0.014": 0.882336686285,
			"-0.013": 0.588100899313,
			"-0.012": 1.20525891748,
			"-0.011": 1.30664318839,
			"-0.01": 0.852626783177,
			"-0.009": 1.24236540979,
			"-0.008": 4.26642797907,
			"-0.007": 10.4646270053,
			"-0.006": 13.915064947,
			"-0.005": 18.9331763798,
			"-0.004": 20.4377426307,
			"-0.003": 20.6001083319,
			"-0.002": 20.3088532148,
			"-0.001": 22.9618933362,
			"0.0": 18.7676513885,
			"0.001": 11.9159906269,
			"0.002": 12.135736348,
			"0.003": 13.1377711989,
			"0.004": 12.7063056997,
			"0.005": 11.0241138386,
			"0.006": 8.95596939402,
			"0.007": 5.17893380591,
			"0.008": 3.93597237069,
			"0.009": 3.66943388501,
			"0.01": 2.78708779765,
			"0.011": 5.32555340837,
			"0.012": 5.81081997188,
			"0.013": 5.19967026562,
			"0.014": 1.51842688811,
			"0.015": 0.039335347528,
			"0.016": 0.0,
			"0.017": 0.0,
			"0.018": 0.0,
			"0.019": 0.0,
			"0.02": 0.0,
			"0.021": 0.0,
			"0.022": 0.0,
			"0.023": 0.0,
			"0.024": 0.0,
			"0.025": 0.0
		}
	}
}
