{
	 "smiles": "NC1=CC=NN1C1=CC=C(C=C1)[N+]([O-])=O", 
	 "Tm": 412.15, 
	 "num_atms": 23, 
	 "gaussian": { 
		 "optdone": 1, 
		 "sigma_profile": "yes", 
		 "theory": "DFT", 
		 "functional": "B3LYP", 
		 "basiset": "6-31G**", 
		 "properties": { 
			 "R2extent": 4522.9486, 
			 "electric_dipole_moment_norm": 6.3405207018, 
			 "electric_quadrupole_moment_norm": 15.6687545714, 
			 "total_energy": -717.107456907, 
			 "HOMO_LUMO_gap": 0.13807, 
			 "cosmo_polarized_energy": -15.68, 
			 "cosmo_cavitation_energy": 28.18, 
			 "cosmo_dispersion_energy": -20.94, 
			 "cosmo_repulsion_energy": 1.61, 
			 "cosmo_total_nonelectrostatic_energy": 8.86, 
			 "SMD_solvation_energy": 6.8 
		},
		"coords": [
			{
				"x": -0.4272085177,
				"y": -1.5688098154,
				"z": -1.5519720042,
				"element": "N" 
			},
			{
				"x": 0.8885693437,
				"y": -1.2500169879,
				"z": -1.2197009816,
				"element": "C" 
			},
			{
				"x": 2.0683553081,
				"y": -1.5192531718,
				"z": -1.8864235368,
				"element": "C" 
			},
			{
				"x": 3.0792239058,
				"y": -0.9786323844,
				"z": -1.0574538051,
				"element": "C" 
			},
			{
				"x": 2.596425579,
				"y": -0.4102625994,
				"z": 0.0334440162,
				"element": "N" 
			},
			{
				"x": 1.2336946402,
				"y": -0.5976198601,
				"z": -0.0532128136,
				"element": "N" 
			},
			{
				"x": 0.4149593252,
				"y": -0.0973180112,
				"z": 0.9809820338,
				"element": "C" 
			},
			{
				"x": -0.8200861129,
				"y": -0.6928612095,
				"z": 1.2890277027,
				"element": "C" 
			},
			{
				"x": -1.6024195008,
				"y": -0.1731198969,
				"z": 2.3148094316,
				"element": "C" 
			},
			{
				"x": -1.1398047889,
				"y": 0.9259432291,
				"z": 3.0345957277,
				"element": "C" 
			},
			{
				"x": 0.0962291179,
				"y": 1.5123504812,
				"z": 2.7580100637,
				"element": "C" 
			},
			{
				"x": 0.8732837594,
				"y": 1.0011338572,
				"z": 1.7287420937,
				"element": "C" 
			},
			{
				"x": -1.9679477992,
				"y": 1.4734610687,
				"z": 4.113369637,
				"element": "N" 
			},
			{
				"x": -1.524385095,
				"y": 2.4338158929,
				"z": 4.7438691936,
				"element": "O" 
			},
			{
				"x": -3.0589717848,
				"y": 0.9413116307,
				"z": 4.3237542051,
				"element": "O" 
			},
			{
				"x": -1.0880508748,
				"y": -0.8147652606,
				"z": -1.3966938761,
				"element": "H" 
			},
			{
				"x": -0.498704736,
				"y": -1.9053976102,
				"z": -2.5040742667,
				"element": "H" 
			},
			{
				"x": 2.1747048118,
				"y": -2.0163498383,
				"z": -2.8390546347,
				"element": "H" 
			},
			{
				"x": 4.1486168174,
				"y": -0.9819082421,
				"z": -1.2245282584,
				"element": "H" 
			},
			{
				"x": -1.1495439816,
				"y": -1.5723573636,
				"z": 0.75004486,
				"element": "H" 
			},
			{
				"x": -2.5552146566,
				"y": -0.616438053,
				"z": 2.575543031,
				"element": "H" 
			},
			{
				"x": 0.4248082401,
				"y": 2.3610561666,
				"z": 3.3445996881,
				"element": "H" 
			},
			{
				"x": 1.8393669994,
				"y": 1.4270379779,
				"z": 1.490722493,
				"element": "H" 
			}
		],
		 "valence_orbital": [ 
			{
				"type": "occ",
				"energy": -0.29665,
				"method": "rhf"
			},
			{
				"type": "occ",
				"energy": -0.28728,
				"method": "rhf"
			},
			{
				"type": "occ",
				"energy": -0.28045,
				"method": "rhf"
			},
			{
				"type": "occ",
				"energy": -0.24434,
				"method": "rhf"
			},
			{
				"type": "occ",
				"energy": -0.22609,
				"method": "rhf"
			},
			{
				"type": "unocc",
				"energy": -0.08802,
				"method": "rhf"
			},
			{
				"type": "unocc",
				"energy": -0.03049,
				"method": "rhf"
			},
			{
				"type": "unocc",
				"energy": -0.01401,
				"method": "rhf"
			},
			{
				"type": "unocc",
				"energy": 0.03418,
				"method": "rhf"
			},
			{
				"type": "unocc",
				"energy": 0.05824,
				"method": "rhf"
			}
		],
		"cosmo_sigma_profile": { 
			"-0.025": 0.0,
			"-0.024": 0.0,
			"-0.023": 0.0,
			"-0.022": 0.0,
			"-0.021": 0.0,
			"-0.02": 0.0,
			"-0.019": 0.0,
			"-0.018": 0.0,
			"-0.017": 0.0,
			"-0.016": 0.0,
			"-0.015": 0.0,
			"-0.014": 0.963243816298,
			"-0.013": 2.4241500373,
			"-0.012": 3.20767553414,
			"-0.011": 2.99330007033,
			"-0.01": 2.83586792241,
			"-0.009": 2.7315633556,
			"-0.008": 4.47036055961,
			"-0.007": 10.4523216541,
			"-0.006": 11.2918727752,
			"-0.005": 12.313134606,
			"-0.004": 10.193302101,
			"-0.003": 11.4076925734,
			"-0.002": 13.5222348932,
			"-0.001": 16.8871151421,
			"0.0": 16.3535102398,
			"0.001": 19.3309235483,
			"0.002": 11.7498426464,
			"0.003": 9.34231456765,
			"0.004": 9.90153009731,
			"0.005": 10.5803877438,
			"0.006": 7.26048770473,
			"0.007": 8.89275813213,
			"0.008": 10.4437098352,
			"0.009": 6.90777050951,
			"0.01": 5.71551207527,
			"0.011": 1.87687294685,
			"0.012": 0.815925108265,
			"0.013": 0.986193082411,
			"0.014": 0.748654110904,
			"0.015": 0.00548303497144,
			"0.016": 0.0,
			"0.017": 0.0,
			"0.018": 0.0,
			"0.019": 0.0,
			"0.02": 0.0,
			"0.021": 0.0,
			"0.022": 0.0,
			"0.023": 0.0,
			"0.024": 0.0,
			"0.025": 0.0
		}
	}
}
