{
	 "smiles": "CCOC(=O)C1=C(N)N(N=C1)C1=CC=C(OCC)C=C1", 
	 "Tm": 393.15, 
	 "num_atms": 37, 
	 "gaussian": { 
		 "optdone": 1, 
		 "sigma_profile": "yes", 
		 "theory": "DFT", 
		 "functional": "B3LYP", 
		 "basiset": "6-31G**", 
		 "properties": { 
			 "R2extent": 10318.8659, 
			 "electric_dipole_moment_norm": 2.65361153148, 
			 "electric_quadrupole_moment_norm": 20.5134907217, 
			 "total_energy": -933.665387637, 
			 "HOMO_LUMO_gap": 0.19353, 
			 "cosmo_polarized_energy": -14.08, 
			 "cosmo_cavitation_energy": 40.72, 
			 "cosmo_dispersion_energy": -29.66, 
			 "cosmo_repulsion_energy": 2.3, 
			 "cosmo_total_nonelectrostatic_energy": 13.36, 
			 "SMD_solvation_energy": 7.61 
		},
		"coords": [
			{
				"x": -1.4331627097,
				"y": 4.5051769609,
				"z": -4.7154262132,
				"element": "C" 
			},
			{
				"x": -0.1371412712,
				"y": 4.2569325348,
				"z": -3.957380903,
				"element": "C" 
			},
			{
				"x": -0.3661758244,
				"y": 3.479022377,
				"z": -2.7610762846,
				"element": "O" 
			},
			{
				"x": -0.3874391734,
				"y": 2.1331357479,
				"z": -2.907635826,
				"element": "C" 
			},
			{
				"x": -0.2159621784,
				"y": 1.570548433,
				"z": -3.9883432285,
				"element": "O" 
			},
			{
				"x": -0.6165613714,
				"y": 1.4364233235,
				"z": -1.6600458297,
				"element": "C" 
			},
			{
				"x": -0.6662899523,
				"y": 0.0387131692,
				"z": -1.5526045477,
				"element": "C" 
			},
			{
				"x": -0.5967261871,
				"y": -0.8875479616,
				"z": -2.5586708637,
				"element": "N" 
			},
			{
				"x": -0.8420196749,
				"y": -0.2428339712,
				"z": -0.230715278,
				"element": "N" 
			},
			{
				"x": -0.8846313979,
				"y": 0.9112326176,
				"z": 0.5394987042,
				"element": "N" 
			},
			{
				"x": -0.7581506665,
				"y": 1.8979074758,
				"z": -0.3236734964,
				"element": "C" 
			},
			{
				"x": -0.9170627834,
				"y": -1.5109405652,
				"z": 0.4059698042,
				"element": "C" 
			},
			{
				"x": -1.6048269729,
				"y": -2.5798343422,
				"z": -0.1866388448,
				"element": "C" 
			},
			{
				"x": -1.6631916588,
				"y": -3.8098701524,
				"z": 0.4572779332,
				"element": "C" 
			},
			{
				"x": -1.0600709243,
				"y": -3.9915034497,
				"z": 1.7107123398,
				"element": "C" 
			},
			{
				"x": -1.1705307479,
				"y": -5.244836172,
				"z": 2.2373160185,
				"element": "O" 
			},
			{
				"x": -0.6432259965,
				"y": -5.5243533533,
				"z": 3.5376358838,
				"element": "C" 
			},
			{
				"x": -1.5699747858,
				"y": -5.0630741269,
				"z": 4.6577243967,
				"element": "C" 
			},
			{
				"x": -0.3976151847,
				"y": -2.9122879311,
				"z": 2.3130718773,
				"element": "C" 
			},
			{
				"x": -0.3225545892,
				"y": -1.6841805895,
				"z": 1.6573089078,
				"element": "C" 
			},
			{
				"x": -1.2444555136,
				"y": 5.1615201791,
				"z": -5.5717991832,
				"element": "H" 
			},
			{
				"x": -2.1753646886,
				"y": 4.9855018281,
				"z": -4.0709617964,
				"element": "H" 
			},
			{
				"x": -1.8440850424,
				"y": 3.5637848936,
				"z": -5.0879662421,
				"element": "H" 
			},
			{
				"x": 0.5911419233,
				"y": 3.7375945963,
				"z": -4.5847876208,
				"element": "H" 
			},
			{
				"x": 0.2982359059,
				"y": 5.1912895041,
				"z": -3.5941451932,
				"element": "H" 
			},
			{
				"x": -0.1763282635,
				"y": -1.7785379046,
				"z": -2.3312500553,
				"element": "H" 
			},
			{
				"x": -0.2968505971,
				"y": -0.4600450543,
				"z": -3.4311755332,
				"element": "H" 
			},
			{
				"x": -0.7691423756,
				"y": 2.9232150132,
				"z": 0.0200598877,
				"element": "H" 
			},
			{
				"x": -2.1074736446,
				"y": -2.4431687749,
				"z": -1.1378511407,
				"element": "H" 
			},
			{
				"x": -2.1893266406,
				"y": -4.6470900066,
				"z": 0.0109788693,
				"element": "H" 
			},
			{
				"x": -0.5371951252,
				"y": -6.6125891435,
				"z": 3.5575527317,
				"element": "H" 
			},
			{
				"x": 0.3619724689,
				"y": -5.0963972705,
				"z": 3.6411362157,
				"element": "H" 
			},
			{
				"x": -1.1588459363,
				"y": -5.3581322721,
				"z": 5.6289625022,
				"element": "H" 
			},
			{
				"x": -1.6992888316,
				"y": -3.9774624765,
				"z": 4.6573586017,
				"element": "H" 
			},
			{
				"x": -2.5556618408,
				"y": -5.5235780234,
				"z": 4.5464070188,
				"element": "H" 
			},
			{
				"x": 0.0660949698,
				"y": -3.0121689318,
				"z": 3.2868668331,
				"element": "H" 
			},
			{
				"x": 0.1818872829,
				"y": -0.8435661809,
				"z": 2.1190095549,
				"element": "H" 
			}
		],
		 "valence_orbital": [ 
			{
				"type": "occ",
				"energy": -0.26798,
				"method": "rhf"
			},
			{
				"type": "occ",
				"energy": -0.26606,
				"method": "rhf"
			},
			{
				"type": "occ",
				"energy": -0.25945,
				"method": "rhf"
			},
			{
				"type": "occ",
				"energy": -0.21585,
				"method": "rhf"
			},
			{
				"type": "occ",
				"energy": -0.20717,
				"method": "rhf"
			},
			{
				"type": "unocc",
				"energy": -0.01364,
				"method": "rhf"
			},
			{
				"type": "unocc",
				"energy": -0.01249,
				"method": "rhf"
			},
			{
				"type": "unocc",
				"energy": 0.00305,
				"method": "rhf"
			},
			{
				"type": "unocc",
				"energy": 0.04455,
				"method": "rhf"
			},
			{
				"type": "unocc",
				"energy": 0.08421,
				"method": "rhf"
			}
		],
		"cosmo_sigma_profile": { 
			"-0.025": 0.0,
			"-0.024": 0.0,
			"-0.023": 0.0,
			"-0.022": 0.0,
			"-0.021": 0.0,
			"-0.02": 0.0,
			"-0.019": 0.0,
			"-0.018": 0.0,
			"-0.017": 0.0,
			"-0.016": 0.0,
			"-0.015": 0.0,
			"-0.014": 0.178547694266,
			"-0.013": 1.07098965456,
			"-0.012": 1.29349844959,
			"-0.011": 0.94066173702,
			"-0.01": 1.97380651029,
			"-0.009": 2.45227211201,
			"-0.008": 2.66088112415,
			"-0.007": 5.63346537388,
			"-0.006": 12.1943243817,
			"-0.005": 18.1092325136,
			"-0.004": 27.5171333565,
			"-0.003": 30.8649725719,
			"-0.002": 28.6860643093,
			"-0.001": 24.2944341188,
			"0.0": 31.6251946956,
			"0.001": 24.2670190875,
			"0.002": 19.6071632397,
			"0.003": 21.6941957936,
			"0.004": 20.0133923846,
			"0.005": 10.5161096815,
			"0.006": 7.35606971681,
			"0.007": 6.1657369285,
			"0.008": 5.98907891403,
			"0.009": 4.95891549685,
			"0.01": 4.14649256032,
			"0.011": 3.28672214019,
			"0.012": 3.09154909203,
			"0.013": 1.49384118338,
			"0.014": 0.760730663529,
			"0.015": 0.339515402239,
			"0.016": 0.0,
			"0.017": 0.0,
			"0.018": 0.0,
			"0.019": 0.0,
			"0.02": 0.0,
			"0.021": 0.0,
			"0.022": 0.0,
			"0.023": 0.0,
			"0.024": 0.0,
			"0.025": 0.0
		}
	}
}
