{
	 "smiles": "ClC1=C(C=CC=C1)C(=O)CN1C(=O)CCC1=O", 
	 "Tm": 392.15, 
	 "num_atms": 27, 
	 "gaussian": { 
		 "optdone": 1, 
		 "sigma_profile": "yes", 
		 "theory": "DFT", 
		 "functional": "B3LYP", 
		 "basiset": "6-31G**", 
		 "properties": { 
			 "R2extent": 6390.862, 
			 "electric_dipole_moment_norm": 1.46469654536, 
			 "electric_quadrupole_moment_norm": 20.8678040896, 
			 "total_energy": -1203.94658762, 
			 "HOMO_LUMO_gap": 0.18638, 
			 "cosmo_polarized_energy": -15.58, 
			 "cosmo_cavitation_energy": 33.42, 
			 "cosmo_dispersion_energy": -23.82, 
			 "cosmo_repulsion_energy": 1.85, 
			 "cosmo_total_nonelectrostatic_energy": 11.45, 
			 "SMD_solvation_energy": 6.88 
		},
		"coords": [
			{
				"x": 1.3787717237,
				"y": 0.9713805659,
				"z": 0.1927847713,
				"element": "Cl" 
			},
			{
				"x": 0.3891404722,
				"y": -0.3136556131,
				"z": 0.8830301642,
				"element": "C" 
			},
			{
				"x": -0.8843552912,
				"y": -0.6560126355,
				"z": 0.390035358,
				"element": "C" 
			},
			{
				"x": -1.5404251872,
				"y": -1.7374507055,
				"z": 1.0124644485,
				"element": "C" 
			},
			{
				"x": -0.9791210304,
				"y": -2.43127543,
				"z": 2.0752259657,
				"element": "C" 
			},
			{
				"x": 0.2824621262,
				"y": -2.063474882,
				"z": 2.5468843734,
				"element": "C" 
			},
			{
				"x": 0.9670708855,
				"y": -1.0103332142,
				"z": 1.9470100178,
				"element": "C" 
			},
			{
				"x": -1.6640069817,
				"y": -0.0162004227,
				"z": -0.732993154,
				"element": "C" 
			},
			{
				"x": -2.624792788,
				"y": -0.6004396957,
				"z": -1.2020378561,
				"element": "O" 
			},
			{
				"x": -1.3107605133,
				"y": 1.3825027216,
				"z": -1.2652095852,
				"element": "C" 
			},
			{
				"x": -2.3624368409,
				"y": 1.8767993446,
				"z": -2.1217804432,
				"element": "N" 
			},
			{
				"x": -2.3556470228,
				"y": 1.6997302584,
				"z": -3.5059517721,
				"element": "C" 
			},
			{
				"x": -1.431898933,
				"y": 1.2272509605,
				"z": -4.1332031536,
				"element": "O" 
			},
			{
				"x": -3.6853379366,
				"y": 2.2199795003,
				"z": -4.0438943313,
				"element": "C" 
			},
			{
				"x": -4.4648347273,
				"y": 2.6973934791,
				"z": -2.8071130381,
				"element": "C" 
			},
			{
				"x": -3.5501270883,
				"y": 2.4088755032,
				"z": -1.620747961,
				"element": "C" 
			},
			{
				"x": -3.7682042486,
				"y": 2.6034280723,
				"z": -0.443687808,
				"element": "O" 
			},
			{
				"x": -2.5155603512,
				"y": -2.0064443638,
				"z": 0.6226592833,
				"element": "H" 
			},
			{
				"x": -1.5201653771,
				"y": -3.2530194245,
				"z": 2.5334197022,
				"element": "H" 
			},
			{
				"x": 0.7390802478,
				"y": -2.5940849258,
				"z": 3.3769911084,
				"element": "H" 
			},
			{
				"x": 1.953112214,
				"y": -0.7217242086,
				"z": 2.2929150875,
				"element": "H" 
			},
			{
				"x": -1.1612398771,
				"y": 2.0786169427,
				"z": -0.437139105,
				"element": "H" 
			},
			{
				"x": -0.3940191776,
				"y": 1.3336308802,
				"z": -1.8569872664,
				"element": "H" 
			},
			{
				"x": -4.180828683,
				"y": 1.4066631436,
				"z": -4.5812699585,
				"element": "H" 
			},
			{
				"x": -3.4878505604,
				"y": 3.0122894684,
				"z": -4.7713789713,
				"element": "H" 
			},
			{
				"x": -5.4080210105,
				"y": 2.1659272908,
				"z": -2.6543170123,
				"element": "H" 
			},
			{
				"x": -4.6971040431,
				"y": 3.7661473897,
				"z": -2.8231088641,
				"element": "H" 
			}
		],
		 "valence_orbital": [ 
			{
				"type": "occ",
				"energy": -0.28154,
				"method": "rhf"
			},
			{
				"type": "occ",
				"energy": -0.27455,
				"method": "rhf"
			},
			{
				"type": "occ",
				"energy": -0.26599,
				"method": "rhf"
			},
			{
				"type": "occ",
				"energy": -0.26255,
				"method": "rhf"
			},
			{
				"type": "occ",
				"energy": -0.25674,
				"method": "rhf"
			},
			{
				"type": "unocc",
				"energy": -0.07036,
				"method": "rhf"
			},
			{
				"type": "unocc",
				"energy": -0.02555,
				"method": "rhf"
			},
			{
				"type": "unocc",
				"energy": -0.01503,
				"method": "rhf"
			},
			{
				"type": "unocc",
				"energy": 0.01109,
				"method": "rhf"
			},
			{
				"type": "unocc",
				"energy": 0.02119,
				"method": "rhf"
			}
		],
		"cosmo_sigma_profile": { 
			"-0.025": 0.0,
			"-0.024": 0.0,
			"-0.023": 0.0,
			"-0.022": 0.0,
			"-0.021": 0.0,
			"-0.02": 0.0,
			"-0.019": 0.0,
			"-0.018": 0.0,
			"-0.017": 0.0,
			"-0.016": 0.0,
			"-0.015": 0.0,
			"-0.014": 0.0,
			"-0.013": 0.0,
			"-0.012": 0.0,
			"-0.011": 0.0,
			"-0.01": 0.0,
			"-0.009": 0.0,
			"-0.008": 2.47138525686,
			"-0.007": 21.599210058,
			"-0.006": 23.8970441008,
			"-0.005": 19.475150629,
			"-0.004": 18.7820060129,
			"-0.003": 19.9990354317,
			"-0.002": 16.2096687382,
			"-0.001": 15.4246791746,
			"0.0": 16.7695097619,
			"0.001": 19.274741458,
			"0.002": 21.7175868332,
			"0.003": 14.9833072311,
			"0.004": 9.73995763455,
			"0.005": 4.67237948657,
			"0.006": 4.89415267606,
			"0.007": 4.4216900634,
			"0.008": 4.99053127948,
			"0.009": 4.78303513864,
			"0.01": 6.67003536135,
			"0.011": 9.01940087349,
			"0.012": 7.70082982685,
			"0.013": 1.82738633642,
			"0.014": 0.0,
			"0.015": 0.0,
			"0.016": 0.0,
			"0.017": 0.0,
			"0.018": 0.0,
			"0.019": 0.0,
			"0.02": 0.0,
			"0.021": 0.0,
			"0.022": 0.0,
			"0.023": 0.0,
			"0.024": 0.0,
			"0.025": 0.0
		}
	}
}
