{
	 "smiles": "NS(=O)(=O)C1=CC=C(C(F)=C1)S(=O)(=O)CCCO", 
	 "Tm": 403.15, 
	 "num_atms": 30, 
	 "gaussian": { 
		 "optdone": 1, 
		 "sigma_profile": "yes", 
		 "theory": "DFT", 
		 "functional": "B3LYP", 
		 "basiset": "6-31G**", 
		 "properties": { 
			 "R2extent": 6360.3368, 
			 "electric_dipole_moment_norm": 8.14608552251, 
			 "electric_quadrupole_moment_norm": 10.8838177989, 
			 "total_energy": -1677.11850031, 
			 "HOMO_LUMO_gap": 0.20829, 
			 "cosmo_polarized_energy": -26.96, 
			 "cosmo_cavitation_energy": 36.6, 
			 "cosmo_dispersion_energy": -26.51, 
			 "cosmo_repulsion_energy": 1.97, 
			 "cosmo_total_nonelectrostatic_energy": 12.06, 
			 "SMD_solvation_energy": 5.59 
		},
		"coords": [
			{
				"x": -3.1003887447,
				"y": 1.259134663,
				"z": -1.3040640198,
				"element": "N" 
			},
			{
				"x": -2.5030566931,
				"y": -0.1479417521,
				"z": -2.0376239748,
				"element": "S" 
			},
			{
				"x": -2.2402041319,
				"y": 0.1573766185,
				"z": -3.4454886206,
				"element": "O" 
			},
			{
				"x": -3.3778927922,
				"y": -1.243400016,
				"z": -1.6139798436,
				"element": "O" 
			},
			{
				"x": -0.9125350344,
				"y": -0.3752829623,
				"z": -1.2311834188,
				"element": "C" 
			},
			{
				"x": 0.2316735639,
				"y": 0.1775780702,
				"z": -1.8053509627,
				"element": "C" 
			},
			{
				"x": 1.4573245291,
				"y": 0.0091539735,
				"z": -1.1611382206,
				"element": "C" 
			},
			{
				"x": 1.528814086,
				"y": -0.7109170921,
				"z": 0.0296746195,
				"element": "C" 
			},
			{
				"x": 0.3681599501,
				"y": -1.2650618761,
				"z": 0.5685937783,
				"element": "C" 
			},
			{
				"x": 0.4327931987,
				"y": -1.95698427,
				"z": 1.7216887808,
				"element": "F" 
			},
			{
				"x": -0.8654086667,
				"y": -1.107721782,
				"z": -0.0444591206,
				"element": "C" 
			},
			{
				"x": 3.1561377933,
				"y": -0.9979501927,
				"z": 0.7650102683,
				"element": "S" 
			},
			{
				"x": 3.3531343447,
				"y": -2.4530462345,
				"z": 0.8339010676,
				"element": "O" 
			},
			{
				"x": 4.0997881915,
				"y": -0.1487520563,
				"z": 0.0179365677,
				"element": "O" 
			},
			{
				"x": 3.0948831867,
				"y": -0.4111649513,
				"z": 2.4961167122,
				"element": "C" 
			},
			{
				"x": 3.2800320117,
				"y": 1.0971906207,
				"z": 2.7091684722,
				"element": "C" 
			},
			{
				"x": 1.9840401777,
				"y": 1.8600601309,
				"z": 2.9513418905,
				"element": "C" 
			},
			{
				"x": 1.1536545361,
				"y": 1.6978776781,
				"z": 1.8098329914,
				"element": "O" 
			},
			{
				"x": -4.0152045846,
				"y": 1.0587676289,
				"z": -0.9073857726,
				"element": "H" 
			},
			{
				"x": -3.1525782229,
				"y": 2.0056478404,
				"z": -1.9927362246,
				"element": "H" 
			},
			{
				"x": 0.1626754582,
				"y": 0.715641792,
				"z": -2.7435006565,
				"element": "H" 
			},
			{
				"x": 2.3709669658,
				"y": 0.4289241974,
				"z": -1.5673960155,
				"element": "H" 
			},
			{
				"x": -1.7529354447,
				"y": -1.560407631,
				"z": 0.3815983036,
				"element": "H" 
			},
			{
				"x": 3.9252116332,
				"y": -0.9838272651,
				"z": 2.9203619759,
				"element": "H" 
			},
			{
				"x": 2.1679772299,
				"y": -0.8063740372,
				"z": 2.9181108483,
				"element": "H" 
			},
			{
				"x": 3.8105742661,
				"y": 1.5239642749,
				"z": 1.8516806095,
				"element": "H" 
			},
			{
				"x": 3.9261652308,
				"y": 1.2448947577,
				"z": 3.5819738051,
				"element": "H" 
			},
			{
				"x": 1.490988503,
				"y": 1.4743514457,
				"z": 3.8589343886,
				"element": "H" 
			},
			{
				"x": 2.2194550025,
				"y": 2.9205295151,
				"z": 3.1302401648,
				"element": "H" 
			},
			{
				"x": 0.3104544565,
				"y": 2.1384389116,
				"z": 1.9715416068,
				"element": "H" 
			}
		],
		 "valence_orbital": [ 
			{
				"type": "occ",
				"energy": -0.2994,
				"method": "rhf"
			},
			{
				"type": "occ",
				"energy": -0.29335,
				"method": "rhf"
			},
			{
				"type": "occ",
				"energy": -0.289,
				"method": "rhf"
			},
			{
				"type": "occ",
				"energy": -0.28268,
				"method": "rhf"
			},
			{
				"type": "occ",
				"energy": -0.27286,
				"method": "rhf"
			},
			{
				"type": "unocc",
				"energy": -0.06457,
				"method": "rhf"
			},
			{
				"type": "unocc",
				"energy": -0.0312,
				"method": "rhf"
			},
			{
				"type": "unocc",
				"energy": 0.03178,
				"method": "rhf"
			},
			{
				"type": "unocc",
				"energy": 0.0485,
				"method": "rhf"
			},
			{
				"type": "unocc",
				"energy": 0.05185,
				"method": "rhf"
			}
		],
		"cosmo_sigma_profile": { 
			"-0.025": 0.0,
			"-0.024": 0.0,
			"-0.023": 0.0,
			"-0.022": 0.0,
			"-0.021": 0.0,
			"-0.02": 0.0,
			"-0.019": 0.0,
			"-0.018": 0.0,
			"-0.017": 0.0,
			"-0.016": 0.560525566462,
			"-0.015": 2.99606348281,
			"-0.014": 3.17226502524,
			"-0.013": 3.79301143171,
			"-0.012": 3.74450084318,
			"-0.011": 2.55069135812,
			"-0.01": 3.12180699204,
			"-0.009": 3.98844437108,
			"-0.008": 8.85234118699,
			"-0.007": 10.2074934045,
			"-0.006": 12.5944906414,
			"-0.005": 16.9137907008,
			"-0.004": 23.4097967918,
			"-0.003": 18.7955111871,
			"-0.002": 19.6975765052,
			"-0.001": 16.325742495,
			"0.0": 14.5699072275,
			"0.001": 12.7741745051,
			"0.002": 13.9267002049,
			"0.003": 12.4966108492,
			"0.004": 8.80933531678,
			"0.005": 6.77052452571,
			"0.006": 6.41970215291,
			"0.007": 7.55105560543,
			"0.008": 8.33121363284,
			"0.009": 10.1105537369,
			"0.01": 15.4037913502,
			"0.011": 17.2394661045,
			"0.012": 5.01530392736,
			"0.013": 0.0,
			"0.014": 0.0,
			"0.015": 0.0,
			"0.016": 0.0,
			"0.017": 0.0,
			"0.018": 0.0,
			"0.019": 0.0,
			"0.02": 0.0,
			"0.021": 0.0,
			"0.022": 0.0,
			"0.023": 0.0,
			"0.024": 0.0,
			"0.025": 0.0
		}
	}
}
