{
	 "smiles": "NC1=CC=C(C=C1)S(=O)(=O)NC1=CC(Cl)=C(Cl)C=C1", 
	 "Tm": 497.15, 
	 "num_atms": 29, 
	 "gaussian": { 
		 "optdone": 1, 
		 "sigma_profile": "yes", 
		 "theory": "DFT", 
		 "functional": "B3LYP", 
		 "basiset": "6-31G**", 
		 "properties": { 
			 "R2extent": 9503.367, 
			 "electric_dipole_moment_norm": 7.48912658726, 
			 "electric_quadrupole_moment_norm": 27.5022752981, 
			 "total_energy": -2041.75814416, 
			 "HOMO_LUMO_gap": 0.19392, 
			 "cosmo_polarized_energy": -21.1, 
			 "cosmo_cavitation_energy": 38.72, 
			 "cosmo_dispersion_energy": -28.35, 
			 "cosmo_repulsion_energy": 2.15, 
			 "cosmo_total_nonelectrostatic_energy": 12.52, 
			 "SMD_solvation_energy": 5.15 
		},
		"coords": [
			{
				"x": -5.5434471085,
				"y": -0.8176347683,
				"z": -1.9675903934,
				"element": "N" 
			},
			{
				"x": -4.6142369341,
				"y": -0.9070941841,
				"z": -0.9511166148,
				"element": "C" 
			},
			{
				"x": -4.1382812432,
				"y": -2.166213327,
				"z": -0.5244493344,
				"element": "C" 
			},
			{
				"x": -3.2415805153,
				"y": -2.2631945085,
				"z": 0.5274443036,
				"element": "C" 
			},
			{
				"x": -2.7933058069,
				"y": -1.1019831444,
				"z": 1.1683173526,
				"element": "C" 
			},
			{
				"x": -3.2615344669,
				"y": 0.1526459444,
				"z": 0.7680062253,
				"element": "C" 
			},
			{
				"x": -4.1617000594,
				"y": 0.2493780458,
				"z": -0.2854215831,
				"element": "C" 
			},
			{
				"x": -1.6802585686,
				"y": -1.2231522557,
				"z": 2.548179265,
				"element": "S" 
			},
			{
				"x": -2.1355316211,
				"y": -2.2814790465,
				"z": 3.4541944211,
				"element": "O" 
			},
			{
				"x": -1.4026039036,
				"y": 0.1344380274,
				"z": 3.0197944294,
				"element": "O" 
			},
			{
				"x": -0.2639494501,
				"y": -1.9177190842,
				"z": 1.8714253652,
				"element": "N" 
			},
			{
				"x": 0.8172998925,
				"y": -1.1709627923,
				"z": 1.3567624332,
				"element": "C" 
			},
			{
				"x": 2.1215939912,
				"y": -1.6132493343,
				"z": 1.6071970183,
				"element": "C" 
			},
			{
				"x": 3.2159005491,
				"y": -0.9471643423,
				"z": 1.0562239973,
				"element": "C" 
			},
			{
				"x": 4.8158806433,
				"y": -1.5601148342,
				"z": 1.3977852828,
				"element": "Cl" 
			},
			{
				"x": 3.0215577591,
				"y": 0.1884140275,
				"z": 0.2613726088,
				"element": "C" 
			},
			{
				"x": 4.3604216207,
				"y": 1.0624959587,
				"z": -0.4423340021,
				"element": "Cl" 
			},
			{
				"x": 1.7184277639,
				"y": 0.6315508099,
				"z": 0.0237451524,
				"element": "C" 
			},
			{
				"x": 0.6225385631,
				"y": -0.0392336044,
				"z": 0.552537585,
				"element": "C" 
			},
			{
				"x": -5.6322415918,
				"y": -1.6074059119,
				"z": -2.5888368862,
				"element": "H" 
			},
			{
				"x": -5.6548650502,
				"y": 0.0774013598,
				"z": -2.4193678729,
				"element": "H" 
			},
			{
				"x": -4.4872940008,
				"y": -3.0666755419,
				"z": -1.0224537843,
				"element": "H" 
			},
			{
				"x": -2.88814217,
				"y": -3.2359046058,
				"z": 0.8525533697,
				"element": "H" 
			},
			{
				"x": -2.9201541691,
				"y": 1.0407928466,
				"z": 1.2885325876,
				"element": "H" 
			},
			{
				"x": -4.5293587549,
				"y": 1.2241835163,
				"z": -0.5939689592,
				"element": "H" 
			},
			{
				"x": -0.005146603,
				"y": -2.702549336,
				"z": 2.4613218245,
				"element": "H" 
			},
			{
				"x": 2.297465463,
				"y": -2.4818496581,
				"z": 2.2332086072,
				"element": "H" 
			},
			{
				"x": 1.5691839983,
				"y": 1.5102774892,
				"z": -0.5937611202,
				"element": "H" 
			},
			{
				"x": -0.3766382267,
				"y": 0.3163022542,
				"z": 0.3354987215,
				"element": "H" 
			}
		],
		 "valence_orbital": [ 
			{
				"type": "occ",
				"energy": -0.30094,
				"method": "rhf"
			},
			{
				"type": "occ",
				"energy": -0.27641,
				"method": "rhf"
			},
			{
				"type": "occ",
				"energy": -0.26056,
				"method": "rhf"
			},
			{
				"type": "occ",
				"energy": -0.23509,
				"method": "rhf"
			},
			{
				"type": "occ",
				"energy": -0.22597,
				"method": "rhf"
			},
			{
				"type": "unocc",
				"energy": -0.03205,
				"method": "rhf"
			},
			{
				"type": "unocc",
				"energy": -0.02581,
				"method": "rhf"
			},
			{
				"type": "unocc",
				"energy": -0.02434,
				"method": "rhf"
			},
			{
				"type": "unocc",
				"energy": -0.01826,
				"method": "rhf"
			},
			{
				"type": "unocc",
				"energy": 0.00208,
				"method": "rhf"
			}
		],
		"cosmo_sigma_profile": { 
			"-0.025": 0.0,
			"-0.024": 0.0,
			"-0.023": 0.0,
			"-0.022": 0.0,
			"-0.021": 0.0,
			"-0.02": 0.0,
			"-0.019": 0.0,
			"-0.018": 0.0,
			"-0.017": 0.0,
			"-0.016": 0.270165943317,
			"-0.015": 1.32724520507,
			"-0.014": 1.86612470599,
			"-0.013": 4.48870121279,
			"-0.012": 3.98143346327,
			"-0.011": 4.40916045081,
			"-0.01": 4.86496326362,
			"-0.009": 4.41683417305,
			"-0.008": 6.91906402261,
			"-0.007": 10.1403194408,
			"-0.006": 12.8814615597,
			"-0.005": 13.5179500951,
			"-0.004": 11.9539931975,
			"-0.003": 12.2125554133,
			"-0.002": 14.7974642866,
			"-0.001": 16.2990925069,
			"0.0": 23.1307160697,
			"0.001": 27.8068734678,
			"0.002": 31.1414546932,
			"0.003": 30.2609423068,
			"0.004": 30.7606838534,
			"0.005": 9.41716522631,
			"0.006": 5.92422231282,
			"0.007": 4.42715547798,
			"0.008": 3.58677327234,
			"0.009": 4.49916817077,
			"0.01": 10.0858716933,
			"0.011": 8.11890298181,
			"0.012": 1.25877470432,
			"0.013": 0.0,
			"0.014": 0.0,
			"0.015": 0.0,
			"0.016": 0.0,
			"0.017": 0.0,
			"0.018": 0.0,
			"0.019": 0.0,
			"0.02": 0.0,
			"0.021": 0.0,
			"0.022": 0.0,
			"0.023": 0.0,
			"0.024": 0.0,
			"0.025": 0.0
		}
	}
}
