{
	 "smiles": "OC(=O)C1=C(O)C=C(NC(=O)C2=CC(Cl)=C(Cl)C=C2)C=C1", 
	 "Tm": 546.15, 
	 "num_atms": 30, 
	 "gaussian": { 
		 "optdone": 1, 
		 "sigma_profile": "yes", 
		 "theory": "DFT", 
		 "functional": "B3LYP", 
		 "basiset": "6-31G**", 
		 "properties": { 
			 "R2extent": 12990.3589, 
			 "electric_dipole_moment_norm": 3.33953214388, 
			 "electric_quadrupole_moment_norm": 20.8797238588, 
			 "total_energy": -1814.9823387, 
			 "HOMO_LUMO_gap": 0.1604, 
			 "cosmo_polarized_energy": -21.6, 
			 "cosmo_cavitation_energy": 39.18, 
			 "cosmo_dispersion_energy": -29.34, 
			 "cosmo_repulsion_energy": 2.19, 
			 "cosmo_total_nonelectrostatic_energy": 12.04, 
			 "SMD_solvation_energy": 7.83 
		},
		"coords": [
			{
				"x": -4.0707675376,
				"y": -3.1910700845,
				"z": -3.449400783,
				"element": "O" 
			},
			{
				"x": -2.7237979501,
				"y": -3.2201359466,
				"z": -3.4022262851,
				"element": "C" 
			},
			{
				"x": -2.1377135496,
				"y": -3.9118092664,
				"z": -4.2323515854,
				"element": "O" 
			},
			{
				"x": -2.0147768173,
				"y": -2.4381636808,
				"z": -2.3739661839,
				"element": "C" 
			},
			{
				"x": -0.5952244837,
				"y": -2.5369513126,
				"z": -2.3173086578,
				"element": "C" 
			},
			{
				"x": 0.1083607145,
				"y": -3.2979504616,
				"z": -3.1615500762,
				"element": "O" 
			},
			{
				"x": 0.1092467338,
				"y": -1.8171108366,
				"z": -1.3460834105,
				"element": "C" 
			},
			{
				"x": -0.556125208,
				"y": -0.9965077345,
				"z": -0.4334565632,
				"element": "C" 
			},
			{
				"x": 0.2378390161,
				"y": -0.3046259436,
				"z": 0.4958721925,
				"element": "N" 
			},
			{
				"x": -0.1606456503,
				"y": 0.5099866887,
				"z": 1.5385684666,
				"element": "C" 
			},
			{
				"x": -1.3297957338,
				"y": 0.7157074762,
				"z": 1.8374517707,
				"element": "O" 
			},
			{
				"x": 0.9609647349,
				"y": 1.1333685137,
				"z": 2.3238976492,
				"element": "C" 
			},
			{
				"x": 2.236359331,
				"y": 1.3686262516,
				"z": 1.7992301502,
				"element": "C" 
			},
			{
				"x": 3.2267722477,
				"y": 1.9671706152,
				"z": 2.5800177846,
				"element": "C" 
			},
			{
				"x": 4.7958111779,
				"y": 2.2472792612,
				"z": 1.8699995964,
				"element": "Cl" 
			},
			{
				"x": 2.9429169578,
				"y": 2.337538987,
				"z": 3.9020494764,
				"element": "C" 
			},
			{
				"x": 4.1479592508,
				"y": 3.079692692,
				"z": 4.9169781893,
				"element": "Cl" 
			},
			{
				"x": 1.6630953659,
				"y": 2.1169809188,
				"z": 4.42165821,
				"element": "C" 
			},
			{
				"x": 0.6790558744,
				"y": 1.5288232536,
				"z": 3.6379796529,
				"element": "C" 
			},
			{
				"x": -1.9622250599,
				"y": -0.8783439389,
				"z": -0.4820631652,
				"element": "C" 
			},
			{
				"x": -2.6515095392,
				"y": -1.5951582447,
				"z": -1.4437890751,
				"element": "C" 
			},
			{
				"x": -4.4322664085,
				"y": -2.6567374906,
				"z": -2.7298523534,
				"element": "H" 
			},
			{
				"x": -0.5497708072,
				"y": -3.7138760111,
				"z": -3.7789975822,
				"element": "H" 
			},
			{
				"x": 1.1905321164,
				"y": -1.9176233211,
				"z": -1.3315738749,
				"element": "H" 
			},
			{
				"x": 1.2256450888,
				"y": -0.5054284392,
				"z": 0.4386220544,
				"element": "H" 
			},
			{
				"x": 2.4785545381,
				"y": 1.1342564094,
				"z": 0.7680610792,
				"element": "H" 
			},
			{
				"x": 1.453329674,
				"y": 2.4140401024,
				"z": 5.4431010059,
				"element": "H" 
			},
			{
				"x": -0.3197804561,
				"y": 1.367727113,
				"z": 4.0271701699,
				"element": "H" 
			},
			{
				"x": -2.474704813,
				"y": -0.2443274037,
				"z": 0.2248185083,
				"element": "H" 
			},
			{
				"x": -3.7329388077,
				"y": -1.4730781663,
				"z": -1.4607563604,
				"element": "H" 
			}
		],
		 "valence_orbital": [ 
			{
				"type": "occ",
				"energy": -0.2845,
				"method": "rhf"
			},
			{
				"type": "occ",
				"energy": -0.28198,
				"method": "rhf"
			},
			{
				"type": "occ",
				"energy": -0.26668,
				"method": "rhf"
			},
			{
				"type": "occ",
				"energy": -0.25222,
				"method": "rhf"
			},
			{
				"type": "occ",
				"energy": -0.23773,
				"method": "rhf"
			},
			{
				"type": "unocc",
				"energy": -0.07733,
				"method": "rhf"
			},
			{
				"type": "unocc",
				"energy": -0.05011,
				"method": "rhf"
			},
			{
				"type": "unocc",
				"energy": -0.04342,
				"method": "rhf"
			},
			{
				"type": "unocc",
				"energy": -0.01276,
				"method": "rhf"
			},
			{
				"type": "unocc",
				"energy": -0.01011,
				"method": "rhf"
			}
		],
		"cosmo_sigma_profile": { 
			"-0.025": 0.0,
			"-0.024": 0.0,
			"-0.023": 0.0,
			"-0.022": 0.0,
			"-0.021": 0.0,
			"-0.02": 0.163315812729,
			"-0.019": 0.962008680769,
			"-0.018": 0.91584536196,
			"-0.017": 1.76230484479,
			"-0.016": 1.68921709783,
			"-0.015": 2.42763348787,
			"-0.014": 2.28192132102,
			"-0.013": 2.91412091914,
			"-0.012": 2.01121382533,
			"-0.011": 2.58346375957,
			"-0.01": 3.30087169457,
			"-0.009": 3.97219635533,
			"-0.008": 6.25154498125,
			"-0.007": 7.52301412537,
			"-0.006": 8.45763714055,
			"-0.005": 9.01273377462,
			"-0.004": 12.5037355927,
			"-0.003": 16.1238003119,
			"-0.002": 20.2101065109,
			"-0.001": 24.2215019235,
			"0.0": 34.4661461939,
			"0.001": 28.7324309424,
			"0.002": 29.1014805233,
			"0.003": 30.8758222718,
			"0.004": 17.965803825,
			"0.005": 7.93499286701,
			"0.006": 4.87631303547,
			"0.007": 5.46197625945,
			"0.008": 5.47876377631,
			"0.009": 6.80834737107,
			"0.01": 7.7323363186,
			"0.011": 6.61821963235,
			"0.012": 4.38753457271,
			"0.013": 0.805863557033,
			"0.014": 0.0,
			"0.015": 0.0,
			"0.016": 0.0,
			"0.017": 0.0,
			"0.018": 0.0,
			"0.019": 0.0,
			"0.02": 0.0,
			"0.021": 0.0,
			"0.022": 0.0,
			"0.023": 0.0,
			"0.024": 0.0,
			"0.025": 0.0
		}
	}
}
