{
	 "smiles": "CCCC(C)Br", 
	 "Tm": 177.35, 
	 "num_atms": 17, 
	 "gaussian": { 
		 "optdone": 1, 
		 "sigma_profile": "yes", 
		 "theory": "DFT", 
		 "functional": "B3LYP", 
		 "basiset": "6-31G**", 
		 "properties": { 
			 "R2extent": 2505.5371, 
			 "electric_dipole_moment_norm": 2.24255464593, 
			 "electric_quadrupole_moment_norm": 7.15523147564, 
			 "total_energy": -2768.58894433, 
			 "HOMO_LUMO_gap": 0.26881, 
			 "cosmo_polarized_energy": -3.75, 
			 "cosmo_cavitation_energy": 20.84, 
			 "cosmo_dispersion_energy": -15.51, 
			 "cosmo_repulsion_energy": 1.33, 
			 "cosmo_total_nonelectrostatic_energy": 6.66, 
			 "SMD_solvation_energy": 2.44 
		},
		"coords": [
			{
				"x": 0.8000662166,
				"y": -0.5579014912,
				"z": -1.6962360243,
				"element": "C" 
			},
			{
				"x": 1.8228961878,
				"y": -0.6134345488,
				"z": -0.5558739957,
				"element": "C" 
			},
			{
				"x": 1.3271894689,
				"y": -0.0264752098,
				"z": 0.7737401008,
				"element": "C" 
			},
			{
				"x": 0.9291424198,
				"y": 1.4475306341,
				"z": 0.7676785559,
				"element": "C" 
			},
			{
				"x": 0.3890141591,
				"y": 1.9342929552,
				"z": 2.1045410054,
				"element": "C" 
			},
			{
				"x": 2.5092492637,
				"y": 2.590157301,
				"z": 0.2685544488,
				"element": "Br" 
			},
			{
				"x": 0.5679148325,
				"y": 0.4721597519,
				"z": -1.9864448491,
				"element": "H" 
			},
			{
				"x": 1.1839273221,
				"y": -1.0642676149,
				"z": -2.5875248139,
				"element": "H" 
			},
			{
				"x": -0.1400380323,
				"y": -1.0480604408,
				"z": -1.4160172134,
				"element": "H" 
			},
			{
				"x": 2.7386639439,
				"y": -0.0927157718,
				"z": -0.8564220736,
				"element": "H" 
			},
			{
				"x": 2.1052895873,
				"y": -1.6578932992,
				"z": -0.3750086152,
				"element": "H" 
			},
			{
				"x": 0.4326125759,
				"y": -0.5810570665,
				"z": 1.097928453,
				"element": "H" 
			},
			{
				"x": 2.0851407936,
				"y": -0.1804691707,
				"z": 1.5511377613,
				"element": "H" 
			},
			{
				"x": 0.2209979362,
				"y": 1.6619730305,
				"z": -0.0338226426,
				"element": "H" 
			},
			{
				"x": 0.1267873206,
				"y": 2.9939339234,
				"z": 2.0683750183,
				"element": "H" 
			},
			{
				"x": -0.5132308819,
				"y": 1.3643593262,
				"z": 2.3599933128,
				"element": "H" 
			},
			{
				"x": 1.1229768862,
				"y": 1.7877676914,
				"z": 2.9022015715,
				"element": "H" 
			}
		],
		 "valence_orbital": [ 
			{
				"type": "occ",
				"energy": -0.33583,
				"method": "rhf"
			},
			{
				"type": "occ",
				"energy": -0.33049,
				"method": "rhf"
			},
			{
				"type": "occ",
				"energy": -0.32537,
				"method": "rhf"
			},
			{
				"type": "occ",
				"energy": -0.26595,
				"method": "rhf"
			},
			{
				"type": "occ",
				"energy": -0.26509,
				"method": "rhf"
			},
			{
				"type": "unocc",
				"energy": 0.00372,
				"method": "rhf"
			},
			{
				"type": "unocc",
				"energy": 0.08329,
				"method": "rhf"
			},
			{
				"type": "unocc",
				"energy": 0.11299,
				"method": "rhf"
			},
			{
				"type": "unocc",
				"energy": 0.11309,
				"method": "rhf"
			},
			{
				"type": "unocc",
				"energy": 0.14231,
				"method": "rhf"
			}
		],
		"cosmo_sigma_profile": { 
			"-0.025": 0.0,
			"-0.024": 0.0,
			"-0.023": 0.0,
			"-0.022": 0.0,
			"-0.021": 0.0,
			"-0.02": 0.0,
			"-0.019": 0.0,
			"-0.018": 0.0,
			"-0.017": 0.0,
			"-0.016": 0.0,
			"-0.015": 0.0,
			"-0.014": 0.0,
			"-0.013": 0.0,
			"-0.012": 0.0,
			"-0.011": 0.0,
			"-0.01": 0.0,
			"-0.009": 0.0,
			"-0.008": 0.0,
			"-0.007": 0.0,
			"-0.006": 1.30361357302,
			"-0.005": 4.98308370999,
			"-0.004": 12.4767666853,
			"-0.003": 18.6842019134,
			"-0.002": 20.6358267399,
			"-0.001": 24.7910862364,
			"0.0": 23.3749740991,
			"0.001": 17.7248910114,
			"0.002": 7.83396787005,
			"0.003": 5.58485971178,
			"0.004": 5.61243993494,
			"0.005": 5.67572086509,
			"0.006": 7.86552445203,
			"0.007": 7.66474690901,
			"0.008": 0.31586818163,
			"0.009": 0.0,
			"0.01": 0.0,
			"0.011": 0.0,
			"0.012": 0.0,
			"0.013": 0.0,
			"0.014": 0.0,
			"0.015": 0.0,
			"0.016": 0.0,
			"0.017": 0.0,
			"0.018": 0.0,
			"0.019": 0.0,
			"0.02": 0.0,
			"0.021": 0.0,
			"0.022": 0.0,
			"0.023": 0.0,
			"0.024": 0.0,
			"0.025": 0.0
		}
	}
}
