{
	 "smiles": "COC(=O)C1=C(C)N(C2CC2)C(C)=C1C(=O)CCl", 
	 "Tm": 349.15, 
	 "num_atms": 34, 
	 "gaussian": { 
		 "optdone": 1, 
		 "sigma_profile": "yes", 
		 "theory": "DFT", 
		 "functional": "B3LYP", 
		 "basiset": "6-31G**", 
		 "properties": { 
			 "R2extent": 5301.9955, 
			 "electric_dipole_moment_norm": 3.90553671728, 
			 "electric_quadrupole_moment_norm": 27.3761186789, 
			 "total_energy": -1245.62156784, 
			 "HOMO_LUMO_gap": 0.17219, 
			 "cosmo_polarized_energy": -14.51, 
			 "cosmo_cavitation_energy": 38.17, 
			 "cosmo_dispersion_energy": -25.94, 
			 "cosmo_repulsion_energy": 2.04, 
			 "cosmo_total_nonelectrostatic_energy": 14.27, 
			 "SMD_solvation_energy": 7.62 
		},
		"coords": [
			{
				"x": 4.0486663037,
				"y": 0.3195758616,
				"z": -1.7365975033,
				"element": "C" 
			},
			{
				"x": 2.7970393127,
				"y": 0.2599691164,
				"z": -1.0346362453,
				"element": "O" 
			},
			{
				"x": 1.7728420114,
				"y": -0.3164484604,
				"z": -1.7253915548,
				"element": "C" 
			},
			{
				"x": 1.9272412291,
				"y": -0.7525155998,
				"z": -2.8540394792,
				"element": "O" 
			},
			{
				"x": 0.5140774405,
				"y": -0.2947507847,
				"z": -0.971990126,
				"element": "C" 
			},
			{
				"x": -0.7263784005,
				"y": -0.4242539246,
				"z": -1.5856022558,
				"element": "C" 
			},
			{
				"x": -1.0662352448,
				"y": -0.676225944,
				"z": -3.0198017989,
				"element": "C" 
			},
			{
				"x": -1.6914198598,
				"y": -0.1894273988,
				"z": -0.6234256246,
				"element": "N" 
			},
			{
				"x": -3.1137774835,
				"y": -0.1666780695,
				"z": -0.8643571166,
				"element": "C" 
			},
			{
				"x": -4.0321872871,
				"y": -1.0420590702,
				"z": -0.0451537365,
				"element": "C" 
			},
			{
				"x": -3.7936677366,
				"y": -1.3571691268,
				"z": -1.4949944433,
				"element": "C" 
			},
			{
				"x": -1.0922185053,
				"y": 0.1487221624,
				"z": 0.5826259204,
				"element": "C" 
			},
			{
				"x": -1.8823701046,
				"y": 0.4923137182,
				"z": 1.8047022975,
				"element": "C" 
			},
			{
				"x": 0.2791981434,
				"y": 0.0672801342,
				"z": 0.408915643,
				"element": "C" 
			},
			{
				"x": 1.2258165811,
				"y": 0.2212620472,
				"z": 1.5373636683,
				"element": "C" 
			},
			{
				"x": 1.1058217858,
				"y": 1.096508686,
				"z": 2.3823770508,
				"element": "O" 
			},
			{
				"x": 2.3243414816,
				"y": -0.8291972413,
				"z": 1.7302386092,
				"element": "C" 
			},
			{
				"x": 1.5790774447,
				"y": -2.3753144796,
				"z": 2.3410599129,
				"element": "Cl" 
			},
			{
				"x": 4.7508833447,
				"y": 0.7846256687,
				"z": -1.0444719569,
				"element": "H" 
			},
			{
				"x": 4.3874763244,
				"y": -0.6811162025,
				"z": -2.0162423883,
				"element": "H" 
			},
			{
				"x": 3.9507808907,
				"y": 0.9216662669,
				"z": -2.6432714911,
				"element": "H" 
			},
			{
				"x": -1.882794802,
				"y": -0.0316364082,
				"z": -3.3587234055,
				"element": "H" 
			},
			{
				"x": -1.3754612349,
				"y": -1.714594522,
				"z": -3.1888484043,
				"element": "H" 
			},
			{
				"x": -0.1818772279,
				"y": -0.5036926625,
				"z": -3.6315393461,
				"element": "H" 
			},
			{
				"x": -3.4937642608,
				"y": 0.8157755912,
				"z": -1.1389353433,
				"element": "H" 
			},
			{
				"x": -4.9847761578,
				"y": -0.620741649,
				"z": 0.2593915265,
				"element": "H" 
			},
			{
				"x": -3.5758721099,
				"y": -1.703377623,
				"z": 0.6829475097,
				"element": "H" 
			},
			{
				"x": -4.5771016426,
				"y": -1.1593444597,
				"z": -2.2194444042,
				"element": "H" 
			},
			{
				"x": -3.1828708769,
				"y": -2.2251824299,
				"z": -1.716174165,
				"element": "H" 
			},
			{
				"x": -2.4065298768,
				"y": -0.3742937477,
				"z": 2.2226676181,
				"element": "H" 
			},
			{
				"x": -2.6376563021,
				"y": 1.2547201748,
				"z": 1.5852430571,
				"element": "H" 
			},
			{
				"x": -1.209254925,
				"y": 0.8939342985,
				"z": 2.5606135325,
				"element": "H" 
			},
			{
				"x": 3.0100747558,
				"y": -0.4800760589,
				"z": 2.5006591828,
				"element": "H" 
			},
			{
				"x": 2.8484769893,
				"y": -1.0742578628,
				"z": 0.8115352605,
				"element": "H" 
			}
		],
		 "valence_orbital": [ 
			{
				"type": "occ",
				"energy": -0.29044,
				"method": "rhf"
			},
			{
				"type": "occ",
				"energy": -0.27041,
				"method": "rhf"
			},
			{
				"type": "occ",
				"energy": -0.25316,
				"method": "rhf"
			},
			{
				"type": "occ",
				"energy": -0.24564,
				"method": "rhf"
			},
			{
				"type": "occ",
				"energy": -0.2173,
				"method": "rhf"
			},
			{
				"type": "unocc",
				"energy": -0.04511,
				"method": "rhf"
			},
			{
				"type": "unocc",
				"energy": -0.0162,
				"method": "rhf"
			},
			{
				"type": "unocc",
				"energy": 0.02553,
				"method": "rhf"
			},
			{
				"type": "unocc",
				"energy": 0.05847,
				"method": "rhf"
			},
			{
				"type": "unocc",
				"energy": 0.07423,
				"method": "rhf"
			}
		],
		"cosmo_sigma_profile": { 
			"-0.025": 0.0,
			"-0.024": 0.0,
			"-0.023": 0.0,
			"-0.022": 0.0,
			"-0.021": 0.0,
			"-0.02": 0.0,
			"-0.019": 0.0,
			"-0.018": 0.0,
			"-0.017": 0.0,
			"-0.016": 0.0,
			"-0.015": 0.0,
			"-0.014": 0.0,
			"-0.013": 0.0,
			"-0.012": 0.0,
			"-0.011": 0.0,
			"-0.01": 0.0,
			"-0.009": 0.0,
			"-0.008": 0.508658221501,
			"-0.007": 4.50383358154,
			"-0.006": 18.1822044862,
			"-0.005": 29.8404450325,
			"-0.004": 29.2222321051,
			"-0.003": 29.1745503847,
			"-0.002": 24.308950525,
			"-0.001": 29.5860133231,
			"0.0": 23.9891700503,
			"0.001": 14.7969447511,
			"0.002": 14.2181372865,
			"0.003": 15.7070570385,
			"0.004": 14.9478581035,
			"0.005": 14.8836366371,
			"0.006": 12.2680850614,
			"0.007": 4.00421334508,
			"0.008": 3.69132885409,
			"0.009": 3.03924751903,
			"0.01": 3.82306592306,
			"0.011": 6.01203881537,
			"0.012": 5.98036047204,
			"0.013": 1.3730806303,
			"0.014": 0.0,
			"0.015": 0.0,
			"0.016": 0.0,
			"0.017": 0.0,
			"0.018": 0.0,
			"0.019": 0.0,
			"0.02": 0.0,
			"0.021": 0.0,
			"0.022": 0.0,
			"0.023": 0.0,
			"0.024": 0.0,
			"0.025": 0.0
		}
	}
}
