{
	 "smiles": "CC1=CC(Br)=C(O)C(Br)=C1", 
	 "Tm": 323.15, 
	 "num_atms": 16, 
	 "gaussian": { 
		 "optdone": 1, 
		 "sigma_profile": "yes", 
		 "theory": "DFT", 
		 "functional": "B3LYP", 
		 "basiset": "6-31G**", 
		 "properties": { 
			 "R2extent": 4991.7291, 
			 "electric_dipole_moment_norm": 2.36789413826, 
			 "electric_quadrupole_moment_norm": 9.12767074943, 
			 "total_energy": -5488.39500743, 
			 "HOMO_LUMO_gap": 0.20432, 
			 "cosmo_polarized_energy": -6.46, 
			 "cosmo_cavitation_energy": 24.41, 
			 "cosmo_dispersion_energy": -19.06, 
			 "cosmo_repulsion_energy": 1.55, 
			 "cosmo_total_nonelectrostatic_energy": 6.89, 
			 "SMD_solvation_energy": 2.43 
		},
		"coords": [
			{
				"x": -1.679683048,
				"y": -0.2680308291,
				"z": 1.5185206641,
				"element": "C" 
			},
			{
				"x": -0.8849775433,
				"y": -0.4610087393,
				"z": 0.2480517788,
				"element": "C" 
			},
			{
				"x": 0.4909359267,
				"y": -0.2207193691,
				"z": 0.2116240345,
				"element": "C" 
			},
			{
				"x": 1.2003915896,
				"y": -0.3843362598,
				"z": -0.9742914919,
				"element": "C" 
			},
			{
				"x": 3.0902114974,
				"y": -0.0523260512,
				"z": -1.0057201149,
				"element": "Br" 
			},
			{
				"x": 0.5872622546,
				"y": -0.7915641095,
				"z": -2.1677314337,
				"element": "C" 
			},
			{
				"x": 1.2473673942,
				"y": -0.9615928029,
				"z": -3.3326436776,
				"element": "O" 
			},
			{
				"x": -0.7960568391,
				"y": -1.0317847421,
				"z": -2.1143317334,
				"element": "C" 
			},
			{
				"x": -1.6970750457,
				"y": -1.593575585,
				"z": -3.6949814973,
				"element": "Br" 
			},
			{
				"x": -1.5141160378,
				"y": -0.8712331478,
				"z": -0.9351757624,
				"element": "C" 
			},
			{
				"x": -2.2857953295,
				"y": 0.6447952257,
				"z": 1.4746014168,
				"element": "H" 
			},
			{
				"x": -2.3648321176,
				"y": -1.1043218796,
				"z": 1.6910395095,
				"element": "H" 
			},
			{
				"x": -1.0232223621,
				"y": -0.1864409158,
				"z": 2.3889890954,
				"element": "H" 
			},
			{
				"x": 1.0172326337,
				"y": 0.0945817318,
				"z": 1.1059266753,
				"element": "H" 
			},
			{
				"x": 2.1852121327,
				"y": -0.7557793904,
				"z": -3.1865071822,
				"element": "H" 
			},
			{
				"x": -2.5804551057,
				"y": -1.0708631359,
				"z": -0.9429702808,
				"element": "H" 
			}
		],
		 "valence_orbital": [ 
			{
				"type": "occ",
				"energy": -0.31215,
				"method": "rhf"
			},
			{
				"type": "occ",
				"energy": -0.29929,
				"method": "rhf"
			},
			{
				"type": "occ",
				"energy": -0.28372,
				"method": "rhf"
			},
			{
				"type": "occ",
				"energy": -0.24707,
				"method": "rhf"
			},
			{
				"type": "occ",
				"energy": -0.22893,
				"method": "rhf"
			},
			{
				"type": "unocc",
				"energy": -0.02461,
				"method": "rhf"
			},
			{
				"type": "unocc",
				"energy": -0.02108,
				"method": "rhf"
			},
			{
				"type": "unocc",
				"energy": -0.00647,
				"method": "rhf"
			},
			{
				"type": "unocc",
				"energy": 0.02446,
				"method": "rhf"
			},
			{
				"type": "unocc",
				"energy": 0.08732,
				"method": "rhf"
			}
		],
		"cosmo_sigma_profile": { 
			"-0.025": 0.0,
			"-0.024": 0.0,
			"-0.023": 0.0,
			"-0.022": 0.0,
			"-0.021": 0.0,
			"-0.02": 0.0,
			"-0.019": 0.0,
			"-0.018": 0.0,
			"-0.017": 0.0,
			"-0.016": 0.0,
			"-0.015": 0.306051984557,
			"-0.014": 0.606728843248,
			"-0.013": 0.404120747751,
			"-0.012": 0.67123650939,
			"-0.011": 0.814715438349,
			"-0.01": 1.09420383278,
			"-0.009": 0.949399375767,
			"-0.008": 1.16814553639,
			"-0.007": 3.4833909022,
			"-0.006": 5.36966605721,
			"-0.005": 9.77049355093,
			"-0.004": 14.8783287985,
			"-0.003": 13.9861566867,
			"-0.002": 14.3025435005,
			"-0.001": 16.6397598922,
			"0.0": 19.4739262956,
			"0.001": 19.9298271211,
			"0.002": 24.173125858,
			"0.003": 21.1727280928,
			"0.004": 15.2238046377,
			"0.005": 5.90985154409,
			"0.006": 2.83878040015,
			"0.007": 1.19934163333,
			"0.008": 2.51674711836,
			"0.009": 1.89774290511,
			"0.01": 2.16553123817,
			"0.011": 0.628670280184,
			"0.012": 0.0,
			"0.013": 0.0,
			"0.014": 0.0,
			"0.015": 0.0,
			"0.016": 0.0,
			"0.017": 0.0,
			"0.018": 0.0,
			"0.019": 0.0,
			"0.02": 0.0,
			"0.021": 0.0,
			"0.022": 0.0,
			"0.023": 0.0,
			"0.024": 0.0,
			"0.025": 0.0
		}
	}
}
