{
	 "smiles": "COC1=CC=CC=C1C1=CC=C(O1)C=C1C(=O)NC(=O)NC1=O", 
	 "Tm": 493.15, 
	 "num_atms": 35, 
	 "gaussian": { 
		 "optdone": 1, 
		 "sigma_profile": "yes", 
		 "theory": "DFT", 
		 "functional": "B3LYP", 
		 "basiset": "6-31G**", 
		 "properties": { 
			 "R2extent": 9215.8814, 
			 "electric_dipole_moment_norm": 5.82693836762, 
			 "electric_quadrupole_moment_norm": 11.9787705746, 
			 "total_energy": -1102.57352076, 
			 "HOMO_LUMO_gap": 0.11686, 
			 "cosmo_polarized_energy": -22.09, 
			 "cosmo_cavitation_energy": 40.63, 
			 "cosmo_dispersion_energy": -29.16, 
			 "cosmo_repulsion_energy": 2.15, 
			 "cosmo_total_nonelectrostatic_energy": 13.62, 
			 "SMD_solvation_energy": 9.91 
		},
		"coords": [
			{
				"x": 1.5677482529,
				"y": 2.3116071339,
				"z": 1.4357818949,
				"element": "C" 
			},
			{
				"x": 0.7733619962,
				"y": 1.8846142431,
				"z": 0.3380534543,
				"element": "O" 
			},
			{
				"x": 1.1132932072,
				"y": 2.2342974418,
				"z": -0.9175457334,
				"element": "C" 
			},
			{
				"x": 2.1140567331,
				"y": 3.1676564503,
				"z": -1.2223788056,
				"element": "C" 
			},
			{
				"x": 2.3852652449,
				"y": 3.5064522683,
				"z": -2.5467788579,
				"element": "C" 
			},
			{
				"x": 1.6667595694,
				"y": 2.9202967422,
				"z": -3.5902459982,
				"element": "C" 
			},
			{
				"x": 0.679712181,
				"y": 1.9874068381,
				"z": -3.2944394657,
				"element": "C" 
			},
			{
				"x": 0.3796293414,
				"y": 1.6191927009,
				"z": -1.9700217781,
				"element": "C" 
			},
			{
				"x": -0.6709498946,
				"y": 0.6352223946,
				"z": -1.7439629891,
				"element": "C" 
			},
			{
				"x": -1.7056802415,
				"y": 0.2200360099,
				"z": -2.5780017847,
				"element": "C" 
			},
			{
				"x": -2.4015305132,
				"y": -0.7748185253,
				"z": -1.8798828314,
				"element": "C" 
			},
			{
				"x": -1.7741091432,
				"y": -0.9283001705,
				"z": -0.6446493216,
				"element": "C" 
			},
			{
				"x": -0.7178693365,
				"y": -0.0568721011,
				"z": -0.5832884875,
				"element": "O" 
			},
			{
				"x": -2.158106629,
				"y": -1.8203450318,
				"z": 0.3799324924,
				"element": "C" 
			},
			{
				"x": -1.7408535304,
				"y": -2.1337056811,
				"z": 1.6526488822,
				"element": "C" 
			},
			{
				"x": -2.5430431876,
				"y": -3.1993855089,
				"z": 2.3088917674,
				"element": "C" 
			},
			{
				"x": -3.4912339534,
				"y": -3.7764150598,
				"z": 1.7919025545,
				"element": "O" 
			},
			{
				"x": -2.1579117382,
				"y": -3.5380599565,
				"z": 3.6052649134,
				"element": "N" 
			},
			{
				"x": -1.1201292121,
				"y": -2.9962870319,
				"z": 4.3481697867,
				"element": "C" 
			},
			{
				"x": -0.8538462241,
				"y": -3.355066464,
				"z": 5.4802115264,
				"element": "O" 
			},
			{
				"x": -0.416862473,
				"y": -2.0085815383,
				"z": 3.6788721676,
				"element": "N" 
			},
			{
				"x": -0.6206832992,
				"y": -1.5135008344,
				"z": 2.3809340929,
				"element": "C" 
			},
			{
				"x": 0.1173298173,
				"y": -0.6346080822,
				"z": 1.9627164266,
				"element": "O" 
			},
			{
				"x": 1.1782699364,
				"y": 1.766033503,
				"z": 2.2941998491,
				"element": "H" 
			},
			{
				"x": 2.6226849368,
				"y": 2.050507745,
				"z": 1.2886950411,
				"element": "H" 
			},
			{
				"x": 1.4802011213,
				"y": 3.3933278609,
				"z": 1.5999677418,
				"element": "H" 
			},
			{
				"x": 2.6730201231,
				"y": 3.6384268612,
				"z": -0.4229012531,
				"element": "H" 
			},
			{
				"x": 3.1642006226,
				"y": 4.2327188497,
				"z": -2.7601876834,
				"element": "H" 
			},
			{
				"x": 1.8817080377,
				"y": 3.1773580673,
				"z": -4.6221658608,
				"element": "H" 
			},
			{
				"x": 0.1415161688,
				"y": 1.5056893639,
				"z": -4.1044160914,
				"element": "H" 
			},
			{
				"x": -1.9335655572,
				"y": 0.6128787995,
				"z": -3.5573240412,
				"element": "H" 
			},
			{
				"x": -3.2721002324,
				"y": -1.3248965995,
				"z": -2.2094181208,
				"element": "H" 
			},
			{
				"x": -3.0174345008,
				"y": -2.4185991827,
				"z": 0.0787056522,
				"element": "H" 
			},
			{
				"x": -2.6977180059,
				"y": -4.2632880212,
				"z": 4.0600146023,
				"element": "H" 
			},
			{
				"x": 0.3518703818,
				"y": -1.5960934846,
				"z": 4.191546258,
				"element": "H" 
			}
		],
		 "valence_orbital": [ 
			{
				"type": "occ",
				"energy": -0.28104,
				"method": "rhf"
			},
			{
				"type": "occ",
				"energy": -0.27381,
				"method": "rhf"
			},
			{
				"type": "occ",
				"energy": -0.2499,
				"method": "rhf"
			},
			{
				"type": "occ",
				"energy": -0.24012,
				"method": "rhf"
			},
			{
				"type": "occ",
				"energy": -0.21132,
				"method": "rhf"
			},
			{
				"type": "unocc",
				"energy": -0.09446,
				"method": "rhf"
			},
			{
				"type": "unocc",
				"energy": -0.03221,
				"method": "rhf"
			},
			{
				"type": "unocc",
				"energy": -0.00205,
				"method": "rhf"
			},
			{
				"type": "unocc",
				"energy": 0.01028,
				"method": "rhf"
			},
			{
				"type": "unocc",
				"energy": 0.01806,
				"method": "rhf"
			}
		],
		"cosmo_sigma_profile": { 
			"-0.025": 0.0,
			"-0.024": 0.0,
			"-0.023": 0.0,
			"-0.022": 0.0,
			"-0.021": 0.0,
			"-0.02": 0.0,
			"-0.019": 0.0,
			"-0.018": 0.0,
			"-0.017": 0.0,
			"-0.016": 0.791640499404,
			"-0.015": 2.22394458209,
			"-0.014": 1.11686433881,
			"-0.013": 1.35146087571,
			"-0.012": 1.62863508922,
			"-0.011": 1.72455862778,
			"-0.01": 2.17131658336,
			"-0.009": 5.3426468827,
			"-0.008": 7.05225133805,
			"-0.007": 9.37824721333,
			"-0.006": 17.568160038,
			"-0.005": 22.4052057297,
			"-0.004": 24.3191376645,
			"-0.003": 22.2719418793,
			"-0.002": 20.6325342591,
			"-0.001": 23.277047151,
			"0.0": 27.1701823461,
			"0.001": 24.450253871,
			"0.002": 19.1082692931,
			"0.003": 16.1892522989,
			"0.004": 14.5345888193,
			"0.005": 8.04155148771,
			"0.006": 6.8536929925,
			"0.007": 4.79502460824,
			"0.008": 4.80447611768,
			"0.009": 3.77146542781,
			"0.01": 5.71942002903,
			"0.011": 7.9612575893,
			"0.012": 12.7059447641,
			"0.013": 4.35975239427,
			"0.014": 1.13401367478,
			"0.015": 0.891611726374,
			"0.016": 0.483734291484,
			"0.017": 0.335777772704,
			"0.018": 0.0148837914808,
			"0.019": 0.0,
			"0.02": 0.0,
			"0.021": 0.0,
			"0.022": 0.0,
			"0.023": 0.0,
			"0.024": 0.0,
			"0.025": 0.0
		}
	}
}
