{
	 "smiles": "COC1=CC=C(NS(=O)(=O)C2=CC(N)=C(C=C2)N2CCCC2)C=C1", 
	 "Tm": 314.15, 
	 "num_atms": 45, 
	 "gaussian": { 
		 "optdone": 1, 
		 "sigma_profile": "yes", 
		 "theory": "DFT", 
		 "functional": "B3LYP", 
		 "basiset": "6-31G**", 
		 "properties": { 
			 "R2extent": 11912.6708, 
			 "electric_dipole_moment_norm": 6.89952578733, 
			 "electric_quadrupole_moment_norm": 19.1667670378, 
			 "total_energy": -1448.49715652, 
			 "HOMO_LUMO_gap": 0.18028, 
			 "cosmo_polarized_energy": -21.55, 
			 "cosmo_cavitation_energy": 48.49, 
			 "cosmo_dispersion_energy": -34.13, 
			 "cosmo_repulsion_energy": 2.59, 
			 "cosmo_total_nonelectrostatic_energy": 16.94, 
			 "SMD_solvation_energy": 6.78 
		},
		"coords": [
			{
				"x": 5.2727033981,
				"y": 0.0786661972,
				"z": 2.4367190246,
				"element": "C" 
			},
			{
				"x": 4.446439249,
				"y": 0.7419032299,
				"z": 3.3797065161,
				"element": "O" 
			},
			{
				"x": 3.264568207,
				"y": 1.2678373386,
				"z": 2.946455463,
				"element": "C" 
			},
			{
				"x": 2.4884479687,
				"y": 1.9058495036,
				"z": 3.9271709598,
				"element": "C" 
			},
			{
				"x": 1.2649248839,
				"y": 2.4676512364,
				"z": 3.5922444973,
				"element": "C" 
			},
			{
				"x": 0.8027070821,
				"y": 2.4280829466,
				"z": 2.2678620888,
				"element": "C" 
			},
			{
				"x": -0.4391785015,
				"y": 3.0321961072,
				"z": 1.8797055744,
				"element": "N" 
			},
			{
				"x": -1.8875356772,
				"y": 2.120585093,
				"z": 2.0275418964,
				"element": "S" 
			},
			{
				"x": -2.9378352372,
				"y": 3.1461376908,
				"z": 1.9859751213,
				"element": "O" 
			},
			{
				"x": -1.8012448756,
				"y": 1.1743596941,
				"z": 3.1455370311,
				"element": "O" 
			},
			{
				"x": -1.9166829726,
				"y": 1.1743887492,
				"z": 0.5138235628,
				"element": "C" 
			},
			{
				"x": -2.2702950259,
				"y": 1.8175295153,
				"z": -0.6750320414,
				"element": "C" 
			},
			{
				"x": -2.3225712936,
				"y": 1.0958307465,
				"z": -1.8679440063,
				"element": "C" 
			},
			{
				"x": -2.6954938899,
				"y": 1.6985457499,
				"z": -3.0719855254,
				"element": "N" 
			},
			{
				"x": -1.9798500207,
				"y": -0.2876595758,
				"z": -1.8627338349,
				"element": "C" 
			},
			{
				"x": -1.6628326583,
				"y": -0.904723653,
				"z": -0.6474319555,
				"element": "C" 
			},
			{
				"x": -1.6303573168,
				"y": -0.1865777978,
				"z": 0.5501027065,
				"element": "C" 
			},
			{
				"x": -2.0419674067,
				"y": -0.9825950327,
				"z": -3.0923694256,
				"element": "N" 
			},
			{
				"x": -2.128415935,
				"y": -2.4438895226,
				"z": -3.089971456,
				"element": "C" 
			},
			{
				"x": -2.1484611799,
				"y": -2.7901684328,
				"z": -4.5884713332,
				"element": "C" 
			},
			{
				"x": -1.3405359433,
				"y": -1.6429845043,
				"z": -5.2615216727,
				"element": "C" 
			},
			{
				"x": -1.0229283068,
				"y": -0.6606892956,
				"z": -4.1160397753,
				"element": "C" 
			},
			{
				"x": 1.580274482,
				"y": 1.7987800576,
				"z": 1.2953809353,
				"element": "C" 
			},
			{
				"x": 2.8033256701,
				"y": 1.2102413908,
				"z": 1.6258469979,
				"element": "C" 
			},
			{
				"x": 6.1482683316,
				"y": -0.2632818122,
				"z": 2.9907249906,
				"element": "H" 
			},
			{
				"x": 5.5956686135,
				"y": 0.7543947725,
				"z": 1.6340844141,
				"element": "H" 
			},
			{
				"x": 4.7661312231,
				"y": -0.7880277371,
				"z": 1.992579875,
				"element": "H" 
			},
			{
				"x": 2.8618528656,
				"y": 1.9349375503,
				"z": 4.9453705236,
				"element": "H" 
			},
			{
				"x": 0.6556803337,
				"y": 2.9365604279,
				"z": 4.359192768,
				"element": "H" 
			},
			{
				"x": -0.6345604258,
				"y": 3.9202580659,
				"z": 2.3376574891,
				"element": "H" 
			},
			{
				"x": -2.5437177493,
				"y": 2.8679415818,
				"z": -0.659753863,
				"element": "H" 
			},
			{
				"x": -3.1642385164,
				"y": 1.0459263262,
				"z": -3.6920123696,
				"element": "H" 
			},
			{
				"x": -3.2212063793,
				"y": 2.5554285528,
				"z": -2.9567583688,
				"element": "H" 
			},
			{
				"x": -1.4334967758,
				"y": -1.9642895111,
				"z": -0.6308102511,
				"element": "H" 
			},
			{
				"x": -1.3899191069,
				"y": -0.6669227018,
				"z": 1.4908107424,
				"element": "H" 
			},
			{
				"x": -3.01900398,
				"y": -2.7755207336,
				"z": -2.547991161,
				"element": "H" 
			},
			{
				"x": -1.2476846741,
				"y": -2.9085373475,
				"z": -2.6110646435,
				"element": "H" 
			},
			{
				"x": -3.1774824525,
				"y": -2.8006858718,
				"z": -4.9582840107,
				"element": "H" 
			},
			{
				"x": -1.7202293085,
				"y": -3.7778312238,
				"z": -4.7791344246,
				"element": "H" 
			},
			{
				"x": -0.4219432232,
				"y": -2.0028009192,
				"z": -5.7328436981,
				"element": "H" 
			},
			{
				"x": -1.9348643283,
				"y": -1.1573974678,
				"z": -6.0406671979,
				"element": "H" 
			},
			{
				"x": -0.0113766084,
				"y": -0.8450741062,
				"z": -3.716318168,
				"element": "H" 
			},
			{
				"x": -1.0795493095,
				"y": 0.390825653,
				"z": -4.4039368465,
				"element": "H" 
			},
			{
				"x": 1.2262616094,
				"y": 1.780549353,
				"z": 0.2699769842,
				"element": "H" 
			},
			{
				"x": 3.3866051612,
				"y": 0.7285497166,
				"z": 0.8503058666,
				"element": "H" 
			}
		],
		 "valence_orbital": [ 
			{
				"type": "occ",
				"energy": -0.26303,
				"method": "rhf"
			},
			{
				"type": "occ",
				"energy": -0.25319,
				"method": "rhf"
			},
			{
				"type": "occ",
				"energy": -0.23108,
				"method": "rhf"
			},
			{
				"type": "occ",
				"energy": -0.21545,
				"method": "rhf"
			},
			{
				"type": "occ",
				"energy": -0.20355,
				"method": "rhf"
			},
			{
				"type": "unocc",
				"energy": -0.02327,
				"method": "rhf"
			},
			{
				"type": "unocc",
				"energy": -0.00324,
				"method": "rhf"
			},
			{
				"type": "unocc",
				"energy": 0.0022,
				"method": "rhf"
			},
			{
				"type": "unocc",
				"energy": 0.00443,
				"method": "rhf"
			},
			{
				"type": "unocc",
				"energy": 0.06948,
				"method": "rhf"
			}
		],
		"cosmo_sigma_profile": { 
			"-0.025": 0.0,
			"-0.024": 0.0,
			"-0.023": 0.0,
			"-0.022": 0.0,
			"-0.021": 0.0,
			"-0.02": 0.0,
			"-0.019": 0.0,
			"-0.018": 0.0,
			"-0.017": 0.0,
			"-0.016": 0.0,
			"-0.015": 0.160619879854,
			"-0.014": 0.865754740418,
			"-0.013": 1.56755744735,
			"-0.012": 2.91508161877,
			"-0.011": 2.786748292,
			"-0.01": 4.56147568794,
			"-0.009": 3.39585300227,
			"-0.008": 3.3897049809,
			"-0.007": 6.33244266857,
			"-0.006": 16.2258980146,
			"-0.005": 22.6613119348,
			"-0.004": 25.3180587015,
			"-0.003": 36.0341116164,
			"-0.002": 40.3926021514,
			"-0.001": 31.6021585114,
			"0.0": 26.5366495657,
			"0.001": 20.6093180974,
			"0.002": 21.2521789748,
			"0.003": 26.348265217,
			"0.004": 25.2688213988,
			"0.005": 12.8301268772,
			"0.006": 7.66856568775,
			"0.007": 7.02967997968,
			"0.008": 5.76030962539,
			"0.009": 6.60767621826,
			"0.01": 8.99580705415,
			"0.011": 9.67182308272,
			"0.012": 5.99438543458,
			"0.013": 0.243149451399,
			"0.014": 0.0,
			"0.015": 0.0,
			"0.016": 0.0,
			"0.017": 0.0,
			"0.018": 0.0,
			"0.019": 0.0,
			"0.02": 0.0,
			"0.021": 0.0,
			"0.022": 0.0,
			"0.023": 0.0,
			"0.024": 0.0,
			"0.025": 0.0
		}
	}
}
