{
	 "smiles": "FC1=C(NC(=O)CCl)C=C(C=C1)N1N=NN=C1C1CC1", 
	 "Tm": 393.15, 
	 "num_atms": 31, 
	 "gaussian": { 
		 "optdone": 1, 
		 "sigma_profile": "yes", 
		 "theory": "DFT", 
		 "functional": "B3LYP", 
		 "basiset": "6-31G**", 
		 "properties": { 
			 "R2extent": 6995.7346, 
			 "electric_dipole_moment_norm": 2.86722203012, 
			 "electric_quadrupole_moment_norm": 35.5508085999, 
			 "total_energy": -1372.83522791, 
			 "HOMO_LUMO_gap": 0.19834, 
			 "cosmo_polarized_energy": -25.16, 
			 "cosmo_cavitation_energy": 38.58, 
			 "cosmo_dispersion_energy": -26.14, 
			 "cosmo_repulsion_energy": 1.96, 
			 "cosmo_total_nonelectrostatic_energy": 14.4, 
			 "SMD_solvation_energy": 5.1 
		},
		"coords": [
			{
				"x": 2.2744216149,
				"y": 4.1743663671,
				"z": 0.7984021575,
				"element": "F" 
			},
			{
				"x": 2.1942035021,
				"y": 2.8277801697,
				"z": 0.7185625997,
				"element": "C" 
			},
			{
				"x": 1.0385668566,
				"y": 2.2827545078,
				"z": 0.1313669082,
				"element": "C" 
			},
			{
				"x": 0.0815503591,
				"y": 3.19000225,
				"z": -0.3458063585,
				"element": "N" 
			},
			{
				"x": -1.301139901,
				"y": 3.1430108757,
				"z": -0.4865517562,
				"element": "C" 
			},
			{
				"x": -1.9020213527,
				"y": 4.1311359771,
				"z": -0.8543529348,
				"element": "O" 
			},
			{
				"x": -1.9837060463,
				"y": 1.8120720898,
				"z": -0.16525743,
				"element": "C" 
			},
			{
				"x": -3.7449047177,
				"y": 2.0004817824,
				"z": 0.0816579421,
				"element": "Cl" 
			},
			{
				"x": 0.9802337358,
				"y": 0.8889652499,
				"z": 0.0051424648,
				"element": "C" 
			},
			{
				"x": 2.0143991493,
				"y": 0.0956767608,
				"z": 0.5146062451,
				"element": "C" 
			},
			{
				"x": 3.1455436541,
				"y": 0.6608809446,
				"z": 1.1040627131,
				"element": "C" 
			},
			{
				"x": 3.2366931841,
				"y": 2.0495409556,
				"z": 1.1892905897,
				"element": "C" 
			},
			{
				"x": 1.9392996486,
				"y": -1.3185932576,
				"z": 0.3819831627,
				"element": "N" 
			},
			{
				"x": 3.0200749179,
				"y": -2.0313439296,
				"z": -0.0671891369,
				"element": "N" 
			},
			{
				"x": 2.6546071367,
				"y": -3.2646896686,
				"z": -0.0880611915,
				"element": "N" 
			},
			{
				"x": 1.3738706796,
				"y": -3.4125665316,
				"z": 0.3406938664,
				"element": "N" 
			},
			{
				"x": 0.9331978678,
				"y": -2.2009813984,
				"z": 0.635559757,
				"element": "C" 
			},
			{
				"x": -0.4013038971,
				"y": -1.8729327555,
				"z": 1.1624082259,
				"element": "C" 
			},
			{
				"x": -1.6382495727,
				"y": -2.355737291,
				"z": 0.4065379614,
				"element": "C" 
			},
			{
				"x": -1.2592107056,
				"y": -2.9969429321,
				"z": 1.7050229757,
				"element": "C" 
			},
			{
				"x": 0.4220245574,
				"y": 4.1364929813,
				"z": -0.4735880464,
				"element": "H" 
			},
			{
				"x": -1.5647830045,
				"y": 1.3634419133,
				"z": 0.7364322392,
				"element": "H" 
			},
			{
				"x": -1.8475188548,
				"y": 1.1175651875,
				"z": -0.9979097542,
				"element": "H" 
			},
			{
				"x": 0.1661124417,
				"y": 0.4126797066,
				"z": -0.5231783236,
				"element": "H" 
			},
			{
				"x": 3.9398485922,
				"y": 0.0219259309,
				"z": 1.4695166581,
				"element": "H" 
			},
			{
				"x": 4.0995604103,
				"y": 2.5358774453,
				"z": 1.6300725128,
				"element": "H" 
			},
			{
				"x": -0.4711775071,
				"y": -0.9097847626,
				"z": 1.6576744303,
				"element": "H" 
			},
			{
				"x": -2.4974235216,
				"y": -1.6920332584,
				"z": 0.3803481633,
				"element": "H" 
			},
			{
				"x": -1.4613710501,
				"y": -2.9184759255,
				"z": -0.5042444492,
				"element": "H" 
			},
			{
				"x": -1.854449697,
				"y": -2.7785024912,
				"z": 2.5856639116,
				"element": "H" 
			},
			{
				"x": -0.8242484799,
				"y": -3.9896668933,
				"z": 1.6699338968,
				"element": "H" 
			}
		],
		 "valence_orbital": [ 
			{
				"type": "occ",
				"energy": -0.29224,
				"method": "rhf"
			},
			{
				"type": "occ",
				"energy": -0.28988,
				"method": "rhf"
			},
			{
				"type": "occ",
				"energy": -0.28163,
				"method": "rhf"
			},
			{
				"type": "occ",
				"energy": -0.27832,
				"method": "rhf"
			},
			{
				"type": "occ",
				"energy": -0.25419,
				"method": "rhf"
			},
			{
				"type": "unocc",
				"energy": -0.05585,
				"method": "rhf"
			},
			{
				"type": "unocc",
				"energy": -0.05384,
				"method": "rhf"
			},
			{
				"type": "unocc",
				"energy": -0.01717,
				"method": "rhf"
			},
			{
				"type": "unocc",
				"energy": -0.00056,
				"method": "rhf"
			},
			{
				"type": "unocc",
				"energy": 0.01141,
				"method": "rhf"
			}
		],
		"cosmo_sigma_profile": { 
			"-0.025": 0.0,
			"-0.024": 0.0,
			"-0.023": 0.0,
			"-0.022": 0.0,
			"-0.021": 0.0,
			"-0.02": 0.0,
			"-0.019": 0.0,
			"-0.018": 0.0,
			"-0.017": 0.0,
			"-0.016": 0.0,
			"-0.015": 0.0,
			"-0.014": 0.162890151159,
			"-0.013": 1.06954117947,
			"-0.012": 2.04229904114,
			"-0.011": 2.97687945157,
			"-0.01": 2.23799336268,
			"-0.009": 6.74567925938,
			"-0.008": 11.3230540592,
			"-0.007": 13.3471253968,
			"-0.006": 15.3370957568,
			"-0.005": 18.3630914616,
			"-0.004": 20.594089943,
			"-0.003": 20.5580604414,
			"-0.002": 20.807453836,
			"-0.001": 24.519186238,
			"0.0": 22.402274001,
			"0.001": 18.8377822844,
			"0.002": 17.1202668295,
			"0.003": 14.5663526038,
			"0.004": 11.3205408389,
			"0.005": 10.9906834567,
			"0.006": 7.8012129337,
			"0.007": 6.54433695537,
			"0.008": 6.71829939345,
			"0.009": 6.84176445604,
			"0.01": 7.34801365553,
			"0.011": 7.42199227224,
			"0.012": 8.18859804231,
			"0.013": 4.29167076384,
			"0.014": 1.29787740087,
			"0.015": 0.0,
			"0.016": 0.0,
			"0.017": 0.0,
			"0.018": 0.0,
			"0.019": 0.0,
			"0.02": 0.0,
			"0.021": 0.0,
			"0.022": 0.0,
			"0.023": 0.0,
			"0.024": 0.0,
			"0.025": 0.0
		}
	}
}
