{
	 "smiles": "CC(=O)OCCN(CCOC(C)=O)CCOC(C)=O", 
	 "Tm": 233.15, 
	 "num_atms": 40, 
	 "gaussian": { 
		 "optdone": 1, 
		 "sigma_profile": "yes", 
		 "theory": "DFT", 
		 "functional": "B3LYP", 
		 "basiset": "6-31G**", 
		 "properties": { 
			 "R2extent": 6229.9481, 
			 "electric_dipole_moment_norm": 4.34046883297, 
			 "electric_quadrupole_moment_norm": 8.06719934302, 
			 "total_energy": -976.055309377, 
			 "HOMO_LUMO_gap": 0.21336, 
			 "cosmo_polarized_energy": -15.75, 
			 "cosmo_cavitation_energy": 42.47, 
			 "cosmo_dispersion_energy": -27.59, 
			 "cosmo_repulsion_energy": 2.19, 
			 "cosmo_total_nonelectrostatic_energy": 17.06, 
			 "SMD_solvation_energy": 8.98 
		},
		"coords": [
			{
				"x": -3.1507345802,
				"y": -4.2002858098,
				"z": 0.7035812087,
				"element": "C" 
			},
			{
				"x": -2.7181036428,
				"y": -2.8329219854,
				"z": 1.1756857713,
				"element": "C" 
			},
			{
				"x": -3.2228252328,
				"y": -1.7834341843,
				"z": 0.8334622069,
				"element": "O" 
			},
			{
				"x": -1.6895910034,
				"y": -2.9295124175,
				"z": 2.049403992,
				"element": "O" 
			},
			{
				"x": -1.1942987046,
				"y": -1.6881025159,
				"z": 2.599100311,
				"element": "C" 
			},
			{
				"x": -0.1543398049,
				"y": -1.0610094176,
				"z": 1.6633283429,
				"element": "C" 
			},
			{
				"x": 0.2943893055,
				"y": 0.226932687,
				"z": 2.1695763122,
				"element": "N" 
			},
			{
				"x": -0.6766128329,
				"y": 1.321342026,
				"z": 2.1835096577,
				"element": "C" 
			},
			{
				"x": -1.5934921793,
				"y": 1.5092663975,
				"z": 0.9673743607,
				"element": "C" 
			},
			{
				"x": -0.8966851904,
				"y": 1.8946357614,
				"z": -0.2390950665,
				"element": "O" 
			},
			{
				"x": -0.7656373866,
				"y": 3.2311756627,
				"z": -0.460608526,
				"element": "C" 
			},
			{
				"x": -0.1551049186,
				"y": 3.4960571721,
				"z": -1.814250046,
				"element": "C" 
			},
			{
				"x": -1.1144484708,
				"y": 4.0773734306,
				"z": 0.3345299462,
				"element": "O" 
			},
			{
				"x": 1.6964043882,
				"y": 0.5610922953,
				"z": 1.9844272185,
				"element": "C" 
			},
			{
				"x": 2.1621006265,
				"y": 0.9688033624,
				"z": 0.5870913209,
				"element": "C" 
			},
			{
				"x": 2.0235664316,
				"y": -0.1718473881,
				"z": -0.2890702003,
				"element": "O" 
			},
			{
				"x": 2.1476113826,
				"y": 0.0681313004,
				"z": -1.6122369546,
				"element": "C" 
			},
			{
				"x": 1.9254395101,
				"y": -1.1912025268,
				"z": -2.415431204,
				"element": "C" 
			},
			{
				"x": 2.3940408708,
				"y": 1.1607922909,
				"z": -2.0790672128,
				"element": "O" 
			},
			{
				"x": -2.3022555485,
				"y": -4.7333581538,
				"z": 0.2651897941,
				"element": "H" 
			},
			{
				"x": -3.9482879559,
				"y": -4.0955726783,
				"z": -0.0310947335,
				"element": "H" 
			},
			{
				"x": -3.5030194903,
				"y": -4.7930679953,
				"z": 1.5531329992,
				"element": "H" 
			},
			{
				"x": -2.0392716882,
				"y": -1.0177100969,
				"z": 2.7688845268,
				"element": "H" 
			},
			{
				"x": -0.7430002523,
				"y": -1.9519139619,
				"z": 3.5574973743,
				"element": "H" 
			},
			{
				"x": 0.709586591,
				"y": -1.7283261978,
				"z": 1.605438033,
				"element": "H" 
			},
			{
				"x": -0.5736399887,
				"y": -1.0110097728,
				"z": 0.6473009954,
				"element": "H" 
			},
			{
				"x": -0.1395720551,
				"y": 2.2570325925,
				"z": 2.3632530563,
				"element": "H" 
			},
			{
				"x": -1.35954165,
				"y": 1.1983563961,
				"z": 3.0394923695,
				"element": "H" 
			},
			{
				"x": -2.3246932264,
				"y": 2.2831001845,
				"z": 1.213579434,
				"element": "H" 
			},
			{
				"x": -2.120213864,
				"y": 0.5870292473,
				"z": 0.7128534927,
				"element": "H" 
			},
			{
				"x": -0.8497888674,
				"y": 3.1676049407,
				"z": -2.5944204505,
				"element": "H" 
			},
			{
				"x": 0.7705443569,
				"y": 2.9285845553,
				"z": -1.9453853512,
				"element": "H" 
			},
			{
				"x": 0.0315512621,
				"y": 4.5644119219,
				"z": -1.9208714516,
				"element": "H" 
			},
			{
				"x": 2.2977172098,
				"y": -0.2951853311,
				"z": 2.3147579065,
				"element": "H" 
			},
			{
				"x": 1.9467071551,
				"y": 1.3923052735,
				"z": 2.6569798021,
				"element": "H" 
			},
			{
				"x": 1.5737633065,
				"y": 1.7958245421,
				"z": 0.1906084876,
				"element": "H" 
			},
			{
				"x": 3.2154890606,
				"y": 1.2738851971,
				"z": 0.6080833258,
				"element": "H" 
			},
			{
				"x": 2.2304238273,
				"y": -1.0214910586,
				"z": -3.4476669841,
				"element": "H" 
			},
			{
				"x": 0.8625198629,
				"y": -1.4532217341,
				"z": -2.3912000164,
				"element": "H" 
			},
			{
				"x": 2.4814033868,
				"y": -2.0279640112,
				"z": -1.9853240489,
				"element": "H" 
			}
		],
		 "valence_orbital": [ 
			{
				"type": "occ",
				"energy": -0.2944,
				"method": "rhf"
			},
			{
				"type": "occ",
				"energy": -0.27735,
				"method": "rhf"
			},
			{
				"type": "occ",
				"energy": -0.27362,
				"method": "rhf"
			},
			{
				"type": "occ",
				"energy": -0.26454,
				"method": "rhf"
			},
			{
				"type": "occ",
				"energy": -0.20718,
				"method": "rhf"
			},
			{
				"type": "unocc",
				"energy": 0.00618,
				"method": "rhf"
			},
			{
				"type": "unocc",
				"energy": 0.00736,
				"method": "rhf"
			},
			{
				"type": "unocc",
				"energy": 0.01964,
				"method": "rhf"
			},
			{
				"type": "unocc",
				"energy": 0.07957,
				"method": "rhf"
			},
			{
				"type": "unocc",
				"energy": 0.09697,
				"method": "rhf"
			}
		],
		"cosmo_sigma_profile": { 
			"-0.025": 0.0,
			"-0.024": 0.0,
			"-0.023": 0.0,
			"-0.022": 0.0,
			"-0.021": 0.0,
			"-0.02": 0.0,
			"-0.019": 0.0,
			"-0.018": 0.0,
			"-0.017": 0.0,
			"-0.016": 0.0,
			"-0.015": 0.0,
			"-0.014": 0.0,
			"-0.013": 0.0,
			"-0.012": 0.0,
			"-0.011": 0.0,
			"-0.01": 0.0,
			"-0.009": 0.0,
			"-0.008": 0.0,
			"-0.007": 2.43877604394,
			"-0.006": 17.1542818688,
			"-0.005": 33.6137026228,
			"-0.004": 37.7902662464,
			"-0.003": 36.4486872059,
			"-0.002": 39.8795095629,
			"-0.001": 31.6466396565,
			"0.0": 18.8614584011,
			"0.001": 14.5722754133,
			"0.002": 13.8746818413,
			"0.003": 13.8913832301,
			"0.004": 11.0553703729,
			"0.005": 8.47420410537,
			"0.006": 8.78320874686,
			"0.007": 7.3690710814,
			"0.008": 4.89616152995,
			"0.009": 6.69382340131,
			"0.01": 5.53322402663,
			"0.011": 7.49063326499,
			"0.012": 8.89227960187,
			"0.013": 3.27767256906,
			"0.014": 0.0462553564678,
			"0.015": 0.0,
			"0.016": 0.0,
			"0.017": 0.0,
			"0.018": 0.0,
			"0.019": 0.0,
			"0.02": 0.0,
			"0.021": 0.0,
			"0.022": 0.0,
			"0.023": 0.0,
			"0.024": 0.0,
			"0.025": 0.0
		}
	}
}
